/*--------------------------------*- C++ -*----------------------------------*\
  =========                 |
  \\      /  F ield         | OpenFOAM: The Open Source CFD Toolbox
   \\    /   O peration     | Website:  https://openfoam.org
    \\  /    A nd           | Version:  13
     \\/     M anipulation  |
\*---------------------------------------------------------------------------*/
FoamFile
{
    format      ascii;
    class       volScalarField;
    location    "31.197274";
    object      nut;
}
// * * * * * * * * * * * * * * * * * * * * * * * * * * * * * * * * * * * * * //

dimensions      [0 2 -1 0 0 0 0];

internalField   nonuniform List<scalar> 
17140
(
1.6221228e-18
3.1548136e-16
8.4029343e-15
8.5186986e-14
5.1516462e-13
2.2823087e-12
8.2406957e-12
2.5784707e-11
7.2636703e-11
1.8893401e-10
4.6176563e-10
1.0738812e-09
2.3986563e-09
5.1825105e-09
1.089098e-08
2.2358373e-08
4.4996261e-08
8.9023772e-08
1.7355468e-07
3.3403963e-07
6.3573776e-07
1.1979648e-06
2.2374903e-06
4.1457357e-06
7.6251344e-06
1.3927831e-05
2.5268201e-05
4.5521602e-05
8.1368426e-05
0.00014405641
0.00025181672
0.00043243682
0.00072434701
0.0011733276
0.0018226086
0.0026984856
0.003798608
0.005089393
0.0065127029
0.0079971688
0.0094698823
0.010866159
0.012136737
0.013250725
0.014184097
0.01495735
0.015633181
0.016206049
0.016708034
0.017169579
0.017614189
0.018057615
0.018509431
0.01897785
0.019477916
0.020020904
0.020586306
0.021109397
0.021465636
0.021526138
0.021245628
0.021600345
0.023400854
0.027120832
0.027607455
1.6263738e-18
3.1630787e-16
8.4249573e-15
8.5410513e-14
5.1651904e-13
2.2883238e-12
8.2624782e-12
2.5853095e-11
7.2830092e-11
1.8943915e-10
4.6300592e-10
1.0767801e-09
2.4051666e-09
5.1966591e-09
1.0920901e-08
2.2420217e-08
4.5121638e-08
8.9273802e-08
1.7404635e-07
3.3499495e-07
6.37575e-07
1.2014674e-06
2.2441188e-06
4.1582024e-06
7.648462e-06
1.3971298e-05
2.5348899e-05
4.5670867e-05
8.1643135e-05
0.0001445577
0.00025271733
0.00043401106
0.00072697968
0.0011774558
0.0018285543
0.0027062049
0.0038074673
0.0050980936
0.0065193527
0.0079994917
0.0094654442
0.01085259
0.012111881
0.013212007
0.014130321
0.014889225
0.015549334
0.016104909
0.016589549
0.017034087
0.017463166
0.017894942
0.018343738
0.018827776
0.019378896
0.020032581
0.020800369
0.02164972
0.022478046
0.023095124
0.023408087
0.023901079
0.025103911
0.026792766
0.024301096
1.6194818e-18
3.1496742e-16
8.3892531e-15
8.5048595e-14
5.1433095e-13
2.2786346e-12
8.2275173e-12
2.5743799e-11
7.2522518e-11
1.8864009e-10
4.6105562e-10
1.0722514e-09
2.3950678e-09
5.1748788e-09
1.0875217e-08
2.2326617e-08
4.4933655e-08
8.8902656e-08
1.7332428e-07
3.3360793e-07
6.3494023e-07
1.1965112e-06
2.2348771e-06
4.1411069e-06
7.6170767e-06
1.3914112e-05
2.5245542e-05
4.5485801e-05
8.1315613e-05
0.00014398691
0.00025174298
0.00043239296
0.00072438299
0.0011734446
0.0018225802
0.0026975651
0.0037952273
0.0050810068
0.0064958377
0.0079676695
0.0094232096
0.010797742
0.012042229
0.01312427
0.014022789
0.014762701
0.015399675
0.015929418
0.016385933
0.016799999
0.017196642
0.017595435
0.018014467
0.018482221
0.01905182
0.019780092
0.020707479
0.021834535
0.023104031
0.024295386
0.025121241
0.025609065
0.02604032
0.025595507
0.020982489
1.6005645e-18
3.1128822e-16
8.2912555e-15
8.4055146e-14
5.0832366e-13
2.2520248e-12
8.131457e-12
2.5443309e-11
7.1676286e-11
1.8643974e-10
4.5567987e-10
1.0597545e-09
2.3671658e-09
5.114618e-09
1.0748627e-08
2.2066818e-08
4.4410921e-08
8.786852e-08
1.7130795e-07
3.2972562e-07
6.2754611e-07
1.182562e-06
2.2087808e-06
4.0926493e-06
7.5277107e-06
1.3750376e-05
2.4947551e-05
4.4947539e-05
8.0352447e-05
0.00014228539
0.00024879205
0.00042740974
0.00071627199
0.001160846
0.0018040239
0.0026716502
0.0037606975
0.0050366762
0.0064404417
0.0078997364
0.0093410003
0.010699238
0.01192516
0.012984607
0.01385814
0.014573919
0.015179855
0.015674297
0.016090775
0.016459332
0.016804422
0.01714578
0.017504454
0.017921683
0.018472495
0.019228364
0.020253813
0.021584519
0.023201389
0.024900487
0.026178509
0.026743081
0.026350183
0.024682468
0.018765342
1.5692465e-18
3.051973e-16
8.1290222e-15
8.2410497e-14
4.9837822e-13
2.2079673e-12
7.9723958e-12
2.4945678e-11
7.0274644e-11
1.8279453e-10
4.4677226e-10
1.0390423e-09
2.3209088e-09
5.0146859e-09
1.053863e-08
2.1635691e-08
4.3543133e-08
8.6151043e-08
1.6795777e-07
3.2327193e-07
6.152482e-07
1.1593483e-06
2.1653252e-06
4.0118995e-06
7.3786633e-06
1.3477005e-05
2.444936e-05
4.4046091e-05
7.8735756e-05
0.0001394212
0.00024380762
0.00041896066
0.00070247171
0.0011393667
0.0017724207
0.0026277746
0.0037029411
0.0049639054
0.0063517227
0.0077940271
0.0092169215
0.010554939
0.011758284
0.012790463
0.013633108
0.014319237
0.014885643
0.015334449
0.015697914
0.016004538
0.016277158
0.016534439
0.016800964
0.017135435
0.017628211
0.018360307
0.019408304
0.020847645
0.022689617
0.024777203
0.025430725
0.02594508
0.026465737
0.023587263
0.018087596
1.5254903e-18
2.9668731e-16
7.902357e-15
8.0112639e-14
4.8448235e-13
2.1464077e-12
7.7501364e-12
2.4250288e-11
6.8315843e-11
1.7769992e-10
4.343216e-10
1.0100886e-09
2.2562383e-09
4.8749563e-09
1.0244963e-08
2.1032698e-08
4.2329215e-08
8.3748128e-08
1.6326972e-07
3.142394e-07
5.9803292e-07
1.1268462e-06
2.1044688e-06
3.8987886e-06
7.1698254e-06
1.3093835e-05
2.3750736e-05
4.2781129e-05
7.6465004e-05
0.00013539304
0.0002367854
0.00040703156
0.00068294045
0.0011089018
0.0017275464
0.0025655302
0.0036213115
0.0048617799
0.0062284918
0.0076490843
0.0090492503
0.010362836
0.011539184
0.012538529
0.013345461
0.013995172
0.014512935
0.014905039
0.015201667
0.015428978
0.015607212
0.015753356
0.01589993
0.016128279
0.016529424
0.017173673
0.018161206
0.019596514
0.021532313
0.023849528
0.025130139
0.026501652
0.025878618
0.022705356
0.018210714
1.4696067e-18
2.8581874e-16
7.6128711e-15
7.7177905e-14
4.6673483e-13
2.0677834e-12
7.4662575e-12
2.3362076e-11
6.5813792e-11
1.7119206e-10
4.1841625e-10
9.7309884e-10
2.1736133e-09
4.6964208e-09
9.8697104e-09
2.0262129e-08
4.0777821e-08
8.0676962e-08
1.5727751e-07
3.0269335e-07
5.7602581e-07
1.0852953e-06
2.0266663e-06
3.7541749e-06
6.9028114e-06
1.2603887e-05
2.2857301e-05
4.1163006e-05
7.355893e-05
0.00013023381
0.00022778031
0.00039170645
0.00065778961
0.0010695661
0.0016694632
0.0024848451
0.0035155211
0.0047297388
0.0060698888
0.0074637421
0.0088365141
0.010121146
0.011265834
0.0122271
0.012991694
0.013598292
0.014057885
0.014381704
0.01459719
0.014727511
0.01478969
0.014800627
0.014811504
0.014920268
0.015192364
0.015684729
0.016508429
0.017805977
0.019661254
0.022028827
0.024261145
0.025430337
0.024667494
0.021698806
0.017298424
1.4022754e-18
2.7272375e-16
7.2640835e-15
7.3641973e-14
4.4535146e-13
1.9730504e-12
7.1242102e-12
2.2291838e-11
6.2798899e-11
1.6335005e-10
3.992495e-10
9.2852264e-10
2.0740382e-09
4.4812512e-09
9.417441e-09
1.9333372e-08
3.8907885e-08
7.6975107e-08
1.5005464e-07
2.8877599e-07
5.4949939e-07
1.0352134e-06
1.9328958e-06
3.5798957e-06
6.5810538e-06
1.2013545e-05
2.1780856e-05
3.9213361e-05
7.0056695e-05
0.00012401285
0.00021691067
0.00037317573
0.00062729919
0.0010217216
0.0015985627
0.0023860435
0.0033857154
0.004567658
0.0058754666
0.0072372086
0.0085775656
0.0098283369
0.010936221
0.011853787
0.012569712
0.013125446
0.013517046
0.013760786
0.013880863
0.013897158
0.013823832
0.013685329
0.013563089
0.013541162
0.013644767
0.013926055
0.014503071
0.015523316
0.017110142
0.019288667
0.021554173
0.022839214
0.022260369
0.019832424
0.014545516
1.3245519e-18
2.5760752e-16
6.8614569e-15
6.9560229e-14
4.2066725e-13
1.863693e-12
6.7293532e-12
2.1056342e-11
5.9318397e-11
1.5429673e-10
3.7712168e-10
8.7705857e-10
1.959074e-09
4.2328216e-09
8.8952512e-09
1.8261014e-08
3.6748815e-08
7.2700886e-08
1.4171517e-07
2.7270785e-07
5.1887573e-07
9.7740183e-07
1.8246675e-06
3.3787807e-06
6.2098283e-06
1.1332593e-05
2.0539449e-05
3.696524e-05
6.6018125e-05
0.00011683648
0.00020435969
0.00035173991
0.000591927
0.00096599754
0.0015156031
0.002269905
0.0032325516
0.0043759421
0.0056452904
0.0069691662
0.0082716882
0.0094832634
0.010548421
0.011416239
0.012078429
0.012573589
0.0128875
0.013039578
0.013050702
0.012937843
0.01271567
0.012433866
0.012192428
0.012022412
0.011921858
0.011946022
0.012207212
0.012843599
0.01394631
0.015679137
0.01765027
0.018815783
0.018317355
0.016307646
0.0095857355
1.2378555e-18
2.4074623e-16
6.4123507e-15
6.5007276e-14
3.9313331e-13
1.7417095e-12
6.288903e-12
1.9678168e-11
5.5435902e-11
1.4419761e-10
3.5243734e-10
8.196477e-10
1.8308236e-09
3.9556782e-09
8.3127026e-09
1.7064707e-08
3.434022e-08
6.7932836e-08
1.3241268e-07
2.5478559e-07
4.8472224e-07
9.1293661e-07
1.7040074e-06
3.1546207e-06
5.796189e-06
1.0574093e-05
1.9157134e-05
3.4462633e-05
6.1522858e-05
0.00010884654
0.00019037338
0.00032780783
0.00055230993
0.00090330117
0.0014217386
0.0021377187
0.0030572801
0.0041556268
0.00538005
0.0066598863
0.0079187255
0.0090854971
0.010100694
0.010912391
0.011517237
0.011939955
0.012167031
0.012216591
0.012106805
0.011853473
0.011484053
0.011088405
0.010734005
0.010396258
0.010072903
0.0098226957
0.0097296626
0.0098851333
0.010319952
0.011226241
0.012533512
0.013271714
0.013032029
0.0097891221
0.0045425355
1.1439415e-18
2.2248123e-16
5.9258566e-15
6.0075281e-14
3.6330697e-13
1.6095694e-12
5.8117763e-12
1.8185218e-11
5.1230023e-11
1.3325718e-10
3.2569634e-10
7.5745288e-10
1.6918853e-09
3.6554382e-09
7.6816088e-09
1.576873e-08
3.1731029e-08
6.2767945e-08
1.2233671e-07
2.3537524e-07
4.4773853e-07
8.4314328e-07
1.5734082e-06
2.912074e-06
5.3487928e-06
9.7540491e-06
1.7663337e-05
3.1759301e-05
5.6668216e-05
0.0001002167
0.00017525454
0.00030188801
0.00050925478
0.00083481415
0.0013185329
0.0019913267
0.0028618224
0.0039084864
0.005081183
0.0063103393
0.007519089
0.0086347398
0.0095928426
0.010341914
0.010882899
0.011223304
0.011354363
0.01129186
0.011051874
0.010654992
0.010167319
0.00968903
0.0092139278
0.0087011223
0.0081643877
0.0076520615
0.0071804522
0.0067566115
0.0064485736
0.0065080244
0.0067232796
0.0067583541
0.0056480956
0.0034794475
0.0025829536
1.0448464e-18
2.0320854e-16
5.4125216e-15
5.4871173e-14
3.3183493e-13
1.4701375e-12
5.3083179e-12
1.6609864e-11
4.6791964e-11
1.2171271e-10
2.9747874e-10
6.9182345e-10
1.5452742e-09
3.3386193e-09
7.0156764e-09
1.4401246e-08
2.8977996e-08
5.7318678e-08
1.1170697e-07
2.1490089e-07
4.0873461e-07
7.6955519e-07
1.4357506e-06
2.6565164e-06
4.8776139e-06
8.890869e-06
1.6091852e-05
2.89169e-05
5.1565767e-05
9.1146357e-05
0.00015935238
0.00027457266
0.00046371701
0.0007619718
0.0012079516
0.001833147
0.0026488374
0.003637143
0.0047510145
0.0059223515
0.0070739492
0.0081313617
0.0090252061
0.0097045515
0.010173479
0.010422503
0.010449158
0.010267343
0.0098924214
0.0093691238
0.0088120547
0.0082585852
0.0076560338
0.0069837489
0.0062641965
0.0054986127
0.0046110102
0.0038834415
0.0027764047
0.0021421491
0.0020654219
0.0021940255
0.0022812882
0.0021866469
0.001778634
9.4280783e-19
1.8336342e-16
4.8839402e-15
4.9512499e-14
2.9942809e-13
1.3265636e-12
4.7899011e-12
1.4987695e-11
4.2221995e-11
1.0982505e-10
2.6842223e-10
6.2424285e-10
1.3943051e-09
3.0123869e-09
6.3299723e-09
1.2993212e-08
2.6143483e-08
5.1708581e-08
1.0076476e-07
1.9382795e-07
3.6859881e-07
6.9385245e-07
1.2941871e-06
2.3938231e-06
4.3935359e-06
8.0046039e-06
1.4479422e-05
2.6002369e-05
4.6336559e-05
8.185205e-05
0.00014304781
0.00024651379
0.00041676586
0.00068642068
0.001092326
0.0016661655
0.0024217625
0.0033451649
0.0043929064
0.0054987893
0.0065854422
0.007576571
0.0083984544
0.0090008079
0.0093876771
0.0095367705
0.0094521292
0.0091475834
0.0086441762
0.0080423487
0.0074456268
0.0068079545
0.0060873496
0.0052856612
0.0043939342
0.0034155759
0.0025202683
0.0013138028
0.00088253736
0.00080879548
0.00094353603
0.0013182745
0.0015585345
0.0014551454
0.0011496495
8.4017112e-19
1.6340193e-16
4.3522583e-15
4.4122385e-14
2.6683102e-13
1.1821466e-12
4.2684381e-12
1.3355989e-11
3.7625142e-11
9.7867434e-11
2.3919473e-10
5.5626479e-10
1.2424496e-09
2.6842448e-09
5.6402737e-09
1.1577038e-08
2.3292768e-08
4.6066942e-08
8.9762449e-08
1.7264298e-07
3.2825906e-07
6.1778825e-07
1.1520033e-06
2.1301076e-06
3.9078625e-06
7.1160356e-06
1.2864048e-05
2.3084801e-05
4.1105386e-05
7.2557141e-05
0.00012673515
0.00021839232
0.00036953627
0.00060995267
0.00097427965
0.0014938805
0.0021848079
0.0030371317
0.0040113926
0.0050437521
0.0060568915
0.0069724458
0.0077132323
0.0082329623
0.0085243943
0.0085658588
0.0083652411
0.007940453
0.0073375673
0.0067123327
0.0060719683
0.0053486622
0.0045316724
0.0036075453
0.0026448255
0.0017363805
0.00080282172
0.0004524527
0.00040342313
0.00049129148
0.00062746236
0.00078695167
0.00091085646
0.00088076151
0.00076827306
7.3926693e-19
1.4377739e-16
3.8295514e-15
3.8823251e-14
2.3478414e-13
1.0401669e-12
3.7557745e-12
1.1751815e-11
3.3105846e-11
8.6111571e-11
2.1046045e-10
4.8943441e-10
1.0931599e-09
2.3616542e-09
4.9622673e-09
1.0184943e-08
2.0490729e-08
4.0522206e-08
7.8950643e-08
1.5182881e-07
2.8863542e-07
5.4309906e-07
1.0124489e-06
1.8714064e-06
3.4317328e-06
6.2455959e-06
1.1282998e-05
2.0231803e-05
3.5994153e-05
6.347982e-05
0.00011080081
0.00019088129
0.00032316847
0.00053441508
0.00085661354
0.0013201876
0.0019428809
0.0027186328
0.003612266
0.0045627491
0.0054931961
0.0063226318
0.0069728964
0.0074002829
0.0075844087
0.0075107916
0.0071924634
0.0066574608
0.0060127364
0.0053853033
0.0046919119
0.0038966928
0.0029866296
0.002085455
0.0012265395
0.00054920322
0.00028349218
0.00023778267
0.00026429077
0.00032294845
0.00040660579
0.00048573372
0.00056872082
0.00060705294
0.00064052225
6.4229197e-19
1.2491708e-16
3.3272018e-15
3.373051e-14
2.0398545e-13
9.0371704e-13
3.263078e-12
1.0210118e-11
2.8762565e-11
7.4813602e-11
1.8284556e-10
4.2520819e-10
9.4969002e-10
2.0516478e-09
4.3107356e-09
8.8472832e-09
1.7798477e-08
3.5195311e-08
6.8565186e-08
1.3183948e-07
2.5059223e-07
4.7141403e-07
8.7856764e-07
1.6233618e-06
2.9755323e-06
5.4122787e-06
9.7708052e-06
1.7505816e-05
3.111515e-05
5.4820853e-05
9.5601165e-05
0.00016460628
0.00027874003
0.00046160102
0.00074214945
0.0011491918
0.0017014098
0.0023961531
0.0032025411
0.004062663
0.0049003682
0.0056325493
0.0061818367
0.0065036505
0.0065701943
0.0063757892
0.0059433092
0.0053242648
0.0046987441
0.0040581165
0.0033188371
0.0024606249
0.0016372392
0.00087209156
0.0003861281
0.00019400441
0.00015816198
0.00016956364
0.00020543224
0.00026251675
0.00033281818
0.00040433225
0.00048607893
0.0005475003
0.00063707189
5.5117856e-19
1.071968e-16
2.8552176e-15
2.8945604e-14
1.750484e-13
7.75515e-13
2.8001632e-12
8.7616137e-12
2.468184e-11
6.4198663e-11
1.5690037e-10
3.648662e-10
8.1489972e-10
1.7604051e-09
3.6986664e-09
7.5907225e-09
1.5269667e-08
3.0192394e-08
5.8812911e-08
1.1307283e-07
2.1488594e-07
4.0415677e-07
7.5301405e-07
1.390882e-06
2.5482674e-06
4.6324952e-06
8.3571848e-06
1.4960334e-05
2.6564203e-05
4.6751178e-05
8.1440058e-05
0.00014010518
0.00023719277
0.00039312383
0.00063353599
0.0009849474
0.0014660516
0.0020768094
0.0027902884
0.0035517575
0.0042859608
0.0049090169
0.0053456121
0.0055468329
0.0054887753
0.0051734051
0.0046426107
0.0040082483
0.0034137395
0.0027502494
0.0019872695
0.0012529162
0.00061097548
0.00027306121
0.00013646766
0.00011014331
0.00012219904
0.0001554294
0.00020739541
0.00027190674
0.0003410129
0.00041160885
0.00049400277
0.00057688632
0.00069716609
4.6749575e-19
9.0921633e-17
2.4217232e-15
2.45509e-14
1.4847115e-13
6.5776782e-13
2.3749997e-12
7.4312404e-12
2.0933931e-11
5.4449528e-11
1.3307168e-10
3.0944757e-10
6.9111016e-10
1.4929412e-09
3.1365974e-09
6.4368881e-09
1.2947804e-08
2.5599455e-08
4.9861278e-08
9.5850602e-08
1.8212743e-07
3.4247467e-07
6.3792224e-07
1.1779006e-06
2.1571277e-06
3.9192842e-06
7.0656156e-06
1.2637379e-05
2.2416165e-05
3.9403805e-05
6.8553866e-05
0.00011779879
0.00019927891
0.00033032049
0.00053307479
0.00083116546
0.0012422807
0.0017678872
0.0023842207
0.0030394717
0.0036595535
0.004161172
0.0044697094
0.0045413066
0.0043561379
0.0039346323
0.0033526813
0.0027811557
0.0021928202
0.0015401158
0.00091566088
0.00042780864
0.00019173324
9.6924022e-05
7.8209004e-05
9.2776032e-05
0.00012641098
0.00017901488
0.00024081733
0.00030780486
0.00037815628
0.00045803737
0.00055905993
0.0006478119
0.00074706906
3.923595e-19
7.6308601e-17
2.0324995e-15
2.0605013e-14
1.2460815e-13
5.5204592e-13
1.9932583e-12
6.2367438e-12
1.7568834e-11
4.5696263e-11
1.1167739e-10
2.5969171e-10
5.7997283e-10
1.2528236e-09
2.6320236e-09
5.4011571e-09
1.0863803e-08
2.147757e-08
4.182909e-08
8.0400743e-08
1.5274862e-07
2.871769e-07
5.3479191e-07
9.8716898e-07
1.8071116e-06
3.2816413e-06
5.9121449e-06
1.0565354e-05
1.872104e-05
3.286664e-05
5.7098141e-05
9.7967511e-05
0.00016551514
0.00027414608
0.00044248581
0.00069081214
0.0010348121
0.0014761063
0.0019928668
0.0025355415
0.003031478
0.003398903
0.0035675455
0.0035095539
0.0032081797
0.0027253298
0.0021936129
0.0016881844
0.0011454395
0.00061829789
0.00028578883
0.00013309286
6.8948344e-05
5.6648517e-05
7.2181899e-05
0.00010566822
0.00015727324
0.00021954888
0.00028638225
0.0003619357
0.00044707781
0.00053931773
0.00062871844
0.00069419677
0.00078825387
3.2633498e-19
6.3467718e-17
1.6904786e-15
1.7137663e-14
1.0363919e-13
4.5914605e-13
1.6578168e-12
5.1871318e-12
1.4611936e-11
3.8004923e-11
9.287899e-11
2.1597423e-10
4.8232671e-10
1.0418646e-09
2.18875e-09
4.49133e-09
9.0333271e-09
1.7857617e-08
3.4776243e-08
6.683771e-08
1.269652e-07
2.3866445e-07
4.4435858e-07
8.2001791e-07
1.5005932e-06
2.7237404e-06
4.9040013e-06
8.7566032e-06
1.5499683e-05
2.7174908e-05
4.7133462e-05
8.0719659e-05
0.00013610657
0.00022502213
0.00036268313
0.00056574163
0.00084697404
0.001206685
0.0016233901
0.0020487822
0.0024120778
0.0026358143
0.0026683895
0.0024891073
0.0021186381
0.0016698689
0.0012472821
0.00081623246
0.00039568025
0.00018172806
8.8820891e-05
4.8828659e-05
4.1780859e-05
5.7249708e-05
8.9217401e-05
0.00013860602
0.00019934001
0.0002670392
0.00032152274
0.00042817949
0.00051273481
0.00058832635
0.00066713452
0.00073828328
0.0007973926
2.6944126e-19
5.2402678e-17
1.3957585e-15
1.4149849e-14
8.5570307e-14
3.7909503e-13
1.368772e-12
4.2827067e-12
1.2064087e-11
3.1377709e-11
7.6681836e-11
1.783074e-10
3.9819869e-10
8.6012037e-10
1.8068896e-09
3.7076228e-09
7.4567649e-09
1.4740241e-08
2.8703659e-08
5.5162413e-08
1.0477673e-07
1.9693119e-07
3.6659827e-07
6.7637379e-07
1.2373689e-06
2.245052e-06
4.0398708e-06
7.2079899e-06
1.27449e-05
2.2313032e-05
3.8628873e-05
6.6001009e-05
0.00011097893
0.00018289872
0.00029376978
0.00045648866
0.00068018866
0.00096243991
0.0012804382
0.0015863537
0.0018132702
0.0018963451
0.0018126586
0.0015554032
0.0012094945
0.00087505232
0.00054877428
0.00024019924
0.00011396562
5.7757473e-05
3.4106175e-05
3.1340347e-05
4.6014724e-05
7.5612432e-05
0.00012188269
0.00018075328
0.00020674282
0.00022434974
0.00027388407
0.00038713967
0.00055040628
0.00063636598
0.00072299768
0.0007847809
0.00079589163
2.2114124e-19
4.3008975e-17
1.1455546e-15
1.1613333e-14
7.0230725e-14
3.1113615e-13
1.1233914e-12
3.5149183e-12
9.9011944e-12
2.5751937e-11
6.2932646e-11
1.4633457e-10
3.2679137e-10
7.0586594e-10
1.4828107e-09
3.0425613e-09
6.1190241e-09
1.2095445e-08
2.3552487e-08
4.526061e-08
8.5963264e-08
1.6155615e-07
3.0070843e-07
5.5471029e-07
1.0145432e-06
1.8401025e-06
3.3094667e-06
5.9003774e-06
1.0421599e-05
1.8217247e-05
3.146848e-05
5.3603716e-05
8.9776981e-05
0.00014721331
0.00023495259
0.00036211797
0.00053365293
0.00074325561
0.00096572045
0.0011545409
0.001252331
0.0012255494
0.0010652546
0.0008232464
0.00057684271
0.00033842271
0.00014786921
7.0075128e-05
3.7483996e-05
2.391738e-05
2.3869242e-05
3.7467335e-05
6.4026784e-05
0.00010725016
0.00016387938
0.00016826713
0.00017604344
0.00020316119
0.00025634006
0.00035984991
0.00057634368
0.00069483996
0.00076361146
0.00079019091
0.00080233125
1.8039035e-19
3.5083466e-17
9.3445629e-16
9.473267e-15
5.7288741e-14
2.5379981e-13
9.163684e-13
2.8671604e-12
8.0764716e-12
2.1005884e-11
5.1333836e-11
1.1936336e-10
2.6655742e-10
5.7575565e-10
1.2094756e-09
2.4816789e-09
4.9909405e-09
9.8653986e-09
1.9209664e-08
3.6913878e-08
7.0107109e-08
1.3174745e-07
2.4519828e-07
4.522362e-07
8.2690758e-07
1.4991842e-06
2.6946763e-06
4.7998803e-06
8.4663281e-06
1.4770174e-05
2.5441972e-05
4.3164085e-05
7.1876728e-05
0.00011693217
0.00018462058
0.00028034059
0.00040456979
0.00054674271
0.0006800218
0.00076383408
0.00076490904
0.00067396646
0.00051915302
0.00035316192
0.00019489536
8.548532e-05
4.3111871e-05
2.4239146e-05
1.7149941e-05
1.8581609e-05
3.0801864e-05
5.4350393e-05
9.4372062e-05
0.00014844244
0.00014717567
0.00015144995
0.00016813235
0.00019851689
0.00024880323
0.00033733638
0.00050085913
0.00072436001
0.00076056214
0.0007458297
0.00080062542
1.4577224e-19
2.8350714e-17
7.5512792e-16
7.6552837e-15
4.6294605e-14
2.0509337e-13
7.4050744e-13
2.3169148e-12
6.5264698e-12
1.6974467e-11
4.1481778e-11
9.6454644e-11
2.1539785e-10
4.6525088e-10
9.7733682e-10
2.0053507e-09
4.0329569e-09
7.9716849e-09
1.5521933e-08
2.9826341e-08
5.6643019e-08
1.0643494e-07
1.9805759e-07
3.6520092e-07
6.6750671e-07
1.2094693e-06
2.1719628e-06
3.8635207e-06
6.8009023e-06
1.18294e-05
2.0288495e-05
3.4208001e-05
5.6464799e-05
9.0714407e-05
0.00014068104
0.00020820946
0.00028962184
0.00037137686
0.00042920877
0.00043851647
0.00039112618
0.00030071018
0.00019687647
0.00010372916
4.7732448e-05
2.5434271e-05
1.5910568e-05
1.2370352e-05
1.4928975e-05
2.5469498e-05
4.6625314e-05
8.3526229e-05
0.00013398107
0.00013499741
0.00013882616
0.00014929766
0.00016861612
0.00019794053
0.00024470041
0.0003236961
0.00044752453
0.00059918064
0.00065983367
0.0007067978
0.00079863077
1.1574784e-19
2.2511385e-17
5.9959621e-16
6.0785451e-15
3.6759413e-14
1.6285062e-13
5.8798551e-13
1.8396977e-12
5.1821953e-12
1.3478155e-11
3.2937469e-11
7.6586839e-11
1.7102904e-10
3.6941293e-10
7.7600371e-10
1.5922151e-09
3.2020091e-09
6.3289262e-09
1.2322436e-08
2.3675897e-08
4.4955826e-08
8.4454646e-08
1.5710188e-07
2.895345e-07
5.2880762e-07
9.5710187e-07
1.7159969e-06
3.0453044e-06
5.3424699e-06
9.2473345e-06
1.5749222e-05
2.6289791e-05
4.2782163e-05
6.7330783e-05
0.00010135336
0.00014371173
0.00018810052
0.00022176727
0.00022995848
0.00020701465
0.00015869661
0.00010030273
5.2998474e-05
2.5885466e-05
1.4962955e-05
1.0260393e-05
9.2527828e-06
1.1842845e-05
2.1441185e-05
4.0118239e-05
7.4740603e-05
0.00012124907
0.00012830948
0.00013169916
0.00013877981
0.00015217066
0.00017106598
0.00019975268
0.00024457525
0.00031403639
0.00041148358
0.00052377334
0.00059540665
0.00067627586
0.00080255066
8.903553e-20
1.7316203e-17
4.6122124e-16
4.6757343e-15
2.8276021e-14
1.2526747e-13
4.5228708e-13
1.4151161e-12
3.9861768e-12
1.0367386e-11
2.5335152e-11
5.8908729e-11
1.3154805e-10
2.8412616e-10
5.9681699e-10
1.2244708e-09
2.4622148e-09
4.8660025e-09
9.472243e-09
1.8194565e-08
3.4534338e-08
6.4841039e-08
1.2052387e-07
2.2188249e-07
4.0463516e-07
7.3080966e-07
1.3063938e-06
2.3087765e-06
4.0267772e-06
6.9130179e-06
1.1638557e-05
1.9113231e-05
3.0379623e-05
4.6223513e-05
6.6302873e-05
8.78377e-05
0.00010478562
0.00010961
9.9221184e-05
7.5383642e-05
4.6462692e-05
2.5052916e-05
1.3695211e-05
8.6861136e-06
6.8814806e-06
6.7571438e-06
9.7160905e-06
1.7783712e-05
3.5244408e-05
6.7866385e-05
0.00010982365
0.00012553856
0.00012788585
0.00013267979
0.00014253911
0.00015525564
0.00017400182
0.00020261066
0.00024471778
0.00030545891
0.00038449143
0.00047648945
0.00054996424
0.00064928717
0.00080129825
6.5015808e-20
1.264469e-17
3.3679412e-16
3.41432e-15
2.0647672e-14
9.1472059e-14
3.3026322e-13
1.0333134e-12
2.9106361e-12
7.5698708e-12
1.8498047e-11
4.3008947e-11
9.6035496e-11
2.0740307e-10
4.3559812e-10
8.9353766e-10
1.7963096e-09
3.5487838e-09
6.904932e-09
1.3254901e-08
2.5137265e-08
4.7143173e-08
8.7491861e-08
1.6073277e-07
2.9228544e-07
5.2585714e-07
9.3508961e-07
1.6407756e-06
2.8337902e-06
4.7995987e-06
7.9290032e-06
1.2678216e-05
1.940674e-05
2.8006022e-05
3.7328487e-05
4.4797366e-05
4.7045175e-05
4.2647187e-05
3.2156854e-05
2.0014878e-05
1.1601538e-05
6.9674124e-06
5.1860271e-06
4.5728708e-06
5.1815411e-06
7.8044438e-06
1.5185339e-05
3.2385526e-05
6.1206611e-05
9.931139e-05
0.00012480532
0.00012589906
0.00012832045
0.00013551517
0.0001444017
0.00015730551
0.00017660228
0.00020450382
0.00024350241
0.00029851346
0.00036634116
0.0004456025
0.00051727284
0.00062930803
0.00080262247
4.3972582e-20
8.5520654e-18
2.2778572e-16
2.3092143e-15
1.3964562e-14
6.1864055e-14
2.2335752e-13
6.9880904e-13
1.9683155e-12
5.1187981e-12
1.2507428e-11
2.9077042e-11
6.4916444e-11
1.4016713e-10
2.9430249e-10
6.0347114e-10
1.2125676e-09
2.3939393e-09
4.6537822e-09
8.9229682e-09
1.6895422e-08
3.1620248e-08
5.8521301e-08
1.0711678e-07
1.9383956e-07
3.4648241e-07
6.1079004e-07
1.0592661e-06
1.8006409e-06
2.9842662e-06
4.7852184e-06
7.3428994e-06
1.0620081e-05
1.4185824e-05
1.7061869e-05
1.7942964e-05
1.6292046e-05
1.2351345e-05
8.0961353e-06
5.1591811e-06
3.6483153e-06
3.0847107e-06
3.2140558e-06
3.9286749e-06
6.461653e-06
1.3958957e-05
2.9316026e-05
5.5358303e-05
8.9762385e-05
0.00012424282
0.00012427448
0.00012461131
0.00012989518
0.00013636054
0.00014576634
0.00015943611
0.00017862025
0.00020586411
0.00024343316
0.00029361548
0.00035251107
0.00042357426
0.0004945955
0.00061616043
0.00080788761
2.6830283e-20
5.218119e-18
1.3898498e-16
1.4089699e-15
8.5203521e-15
3.7744763e-14
1.3627022e-13
4.2631733e-13
1.2006954e-12
3.1221668e-12
7.6276035e-12
1.7728774e-11
3.9569515e-11
8.5406155e-11
1.792342e-10
3.6728055e-10
7.3734529e-10
1.4540607e-09
2.8224357e-09
5.4009715e-09
1.0200199e-08
1.9025275e-08
3.5054538e-08
6.378873e-08
1.1454591e-07
2.0267353e-07
3.5249084e-07
6.0041949e-07
9.963592e-07
1.598528e-06
2.4529517e-06
3.5469286e-06
4.7381528e-06
5.7034388e-06
6.0056974e-06
5.4981159e-06
4.3463582e-06
3.1879325e-06
2.3560456e-06
1.9161042e-06
1.9738193e-06
2.260405e-06
3.1233613e-06
5.8377781e-06
1.2946351e-05
2.6442014e-05
4.9992314e-05
8.1463304e-05
0.0001178679
0.00012198426
0.00012099235
0.00012491707
0.00012976826
0.00013682283
0.00014673893
0.00016055878
0.00017997427
0.00020699051
0.00024200615
0.00028824915
0.00034196757
0.00040895552
0.00047868643
0.00060458897
0.00080855053
1.4406805e-20
2.8019207e-18
7.462893e-17
7.5654486e-16
4.5748676e-15
2.0265546e-14
7.3159943e-14
2.288566e-13
6.4447295e-13
1.6755121e-12
4.0923318e-12
9.5085809e-12
2.1213083e-11
4.5758907e-11
9.5955355e-11
1.9642744e-10
3.9381594e-10
7.7525415e-10
1.5013857e-09
2.8644717e-09
5.3888069e-09
1.000033e-08
1.830455e-08
3.3022951e-08
5.863524e-08
1.0222605e-07
1.7437e-07
2.8948422e-07
4.6429555e-07
7.1196135e-07
1.0290295e-06
1.3757636e-06
1.6614792e-06
1.7742578e-06
1.6994457e-06
1.5113422e-06
1.2851275e-06
1.1180308e-06
1.1220972e-06
1.2883624e-06
1.721498e-06
2.7433109e-06
5.4925962e-06
1.1740064e-05
2.3703896e-05
4.5078292e-05
7.3827856e-05
0.00010694991
0.00011925696
0.00011700679
0.00012018967
0.00012378874
0.00012925696
0.00013671206
0.00014705483
0.00016156092
0.00018101696
0.00020710151
0.00024091509
0.00028514726
0.00033482425
0.00039840834
0.0004657117
0.00059938523
0.00081168652
6.7026929e-21
1.3035773e-18
3.4720387e-17
3.5196768e-16
2.1282837e-15
9.4271766e-15
3.402947e-14
1.064353e-13
2.9967037e-13
7.7888415e-13
1.901702e-12
4.4165377e-12
9.8468574e-12
2.1223174e-11
4.4456224e-11
9.0875998e-11
1.8185983e-10
3.5714322e-10
6.8949879e-10
1.3101654e-09
2.4518548e-09
4.5192366e-09
8.1995228e-09
1.4624995e-08
2.5587097e-08
4.3761617e-08
7.2809074e-08
1.1703318e-07
1.8004533e-07
2.6182627e-07
3.5438681e-07
4.3978037e-07
5.0115552e-07
5.3366543e-07
5.5309267e-07
5.7111818e-07
6.0566673e-07
6.9587197e-07
9.6125653e-07
1.4901472e-06
2.5993341e-06
5.0945925e-06
1.0445258e-05
2.1050859e-05
4.0612523e-05
6.6795651e-05
9.6853272e-05
0.00011591165
0.00011284069
0.00011528669
0.00011808601
0.00012229088
0.00012816841
0.00013620425
0.000147199
0.00016184128
0.00018117313
0.00020726752
0.00023980678
0.00028153859
0.0003284695
0.00039059772
0.00045821863
0.0005954187
0.00080892141
2.7583696e-21
5.3646211e-19
1.4288359e-17
1.4484047e-16
8.7578476e-16
3.878989e-15
1.4000572e-14
4.378342e-14
1.2324655e-13
3.2024064e-13
7.8158128e-13
1.8141965e-12
4.0420043e-12
8.7038484e-12
1.8210163e-11
3.716681e-11
7.4228281e-11
1.4539483e-10
2.7976482e-10
5.2933663e-10
9.8521896e-10
1.8033847e-09
3.243306e-09
5.7209572e-09
9.8707014e-09
1.6593619e-08
2.7038494e-08
4.2422843e-08
6.3602672e-08
9.050037e-08
1.2258814e-07
1.5927097e-07
1.9829032e-07
2.3849353e-07
2.9950147e-07
3.8754457e-07
5.3805701e-07
8.468552e-07
1.393486e-06
2.4418832e-06
4.5962992e-06
9.19553e-06
1.8854131e-05
3.6607005e-05
6.0313211e-05
8.7770504e-05
0.00011165588
0.00010858738
0.00011027064
0.00011231079
0.00011564979
0.00012028035
0.00012682553
0.00013541505
0.00014667738
0.00016174728
0.00018137291
0.00020684179
0.00023824569
0.00027912875
0.00032450047
0.00038571374
0.00045132384
0.00059378541
0.00080693841
1.1797941e-21
2.2945228e-19
6.1113051e-18
6.1949593e-17
3.7457747e-16
1.6590403e-15
5.9879126e-15
1.8725205e-14
5.2707594e-14
1.3694588e-13
3.3420397e-13
7.7566775e-13
1.7279438e-12
3.7202489e-12
7.7819563e-12
1.5879358e-11
3.1706105e-11
6.2089833e-11
1.1944905e-10
2.2599092e-10
4.2069344e-10
7.7052945e-10
1.3877163e-09
2.4546551e-09
4.2570322e-09
7.2228108e-09
1.1962286e-08
1.9315266e-08
3.039038e-08
4.6654735e-08
6.9828672e-08
1.0225449e-07
1.4755009e-07
2.1453763e-07
3.1687358e-07
4.9470897e-07
7.9425198e-07
1.2978998e-06
2.2370098e-06
4.1434847e-06
8.2331254e-06
1.7085336e-05
3.3035528e-05
5.4488108e-05
7.9692104e-05
0.00010643101
0.00010399061
0.00010483884
0.00010637281
0.00010902908
0.00011275754
0.00011811466
0.00012517504
0.00013413555
0.00014596027
0.00016132942
0.00018069717
0.00020615989
0.00023713637
0.00027689412
0.00032066287
0.0003812671
0.00044743339
0.00059362266
0.0008004156
8.0229135e-22
1.560341e-19
4.1559224e-18
4.2129824e-17
2.5475846e-16
1.1285043e-15
4.073901e-15
1.2743459e-14
3.5884482e-14
9.3285809e-14
2.2781871e-13
5.2925637e-13
1.1804965e-12
2.5457997e-12
5.3368308e-12
1.0921047e-11
2.1887477e-11
4.3072324e-11
8.3395496e-11