/*--------------------------------*- C++ -*----------------------------------*\
  =========                 |
  \\      /  F ield         | OpenFOAM: The Open Source CFD Toolbox
   \\    /   O peration     | Website:  https://openfoam.org
    \\  /    A nd           | Version:  13
     \\/     M anipulation  |
\*---------------------------------------------------------------------------*/
FoamFile
{
    format      ascii;
    class       volScalarField;
    location    "44.60246";
    object      p;
}
// * * * * * * * * * * * * * * * * * * * * * * * * * * * * * * * * * * * * * //

dimensions      [0 2 -2 0 0 0 0];

internalField   nonuniform List<scalar> 
17140
(
-0.32027561
-0.32028316
-0.3202921
-0.32030164
-0.3203121
-0.32032365
-0.32033636
-0.32035033
-0.32036565
-0.32038243
-0.32040075
-0.32042073
-0.32044243
-0.32046595
-0.32049133
-0.32051861
-0.32054782
-0.32057893
-0.32061188
-0.3206466
-0.32068298
-0.32072089
-0.32076023
-0.320801
-0.32084337
-0.32088788
-0.32093573
-0.3209892
-0.32105235
-0.32113196
-0.32123871
-0.32138812
-0.32160034
-0.32189696
-0.32229392
-0.32279258
-0.32337405
-0.32400117
-0.32462741
-0.3252075
-0.32570632
-0.32610193
-0.3263834
-0.32656359
-0.32667329
-0.32673755
-0.32679589
-0.32691641
-0.32719364
-0.32780039
-0.32897757
-0.33117921
-0.33491281
-0.34111932
-0.3505482
-0.36368043
-0.38128863
-0.39898922
-0.3932342
-0.31220996
-0.2166485
-0.16213209
-0.15730776
-0.17809586
-0.12700801
-0.32000018
-0.32000727
-0.32001589
-0.32002478
-0.32003451
-0.32004527
-0.32005713
-0.32007015
-0.32008444
-0.32010008
-0.32011716
-0.32013578
-0.32015601
-0.32017791
-0.32020154
-0.32022693
-0.32025408
-0.32028296
-0.32031351
-0.32034562
-0.32037918
-0.32041404
-0.32045006
-0.3204872
-0.32052557
-0.32056565
-0.3206085
-0.32065626
-0.32071271
-0.32078424
-0.32088093
-0.32101746
-0.32121287
-0.32148759
-0.32185683
-0.32232208
-0.32286562
-0.32345224
-0.32403752
-0.32457816
-0.32504058
-0.32540454
-0.32566131
-0.32582517
-0.32592964
-0.32600739
-0.32610957
-0.32632263
-0.32677251
-0.32768885
-0.32940402
-0.3325194
-0.33775872
-0.34638427
-0.359701
-0.37855802
-0.4051295
-0.43628191
-0.43861888
-0.3458997
-0.22955973
-0.1488053
-0.12863957
-0.137907
-0.09366568
-0.31978452
-0.31979099
-0.31979885
-0.31980697
-0.31981586
-0.31982569
-0.31983652
-0.31984842
-0.31986147
-0.31987577
-0.31989139
-0.3199084
-0.31992689
-0.3199469
-0.31996848
-0.31999164
-0.32001639
-0.32004269
-0.32007045
-0.32009957
-0.3201299
-0.32016127
-0.32019353
-0.32022658
-0.32026048
-0.32029561
-0.32033292
-0.32037434
-0.32042337
-0.32048594
-0.32057145
-0.32069358
-0.32087013
-0.32112023
-0.32145827
-0.32188594
-0.32238698
-0.32292842
-0.32346829
-0.3239655
-0.32438823
-0.32471794
-0.32494819
-0.3250945
-0.32519268
-0.32528258
-0.3254263
-0.32572696
-0.3263391
-0.32754756
-0.32977231
-0.33376018
-0.34043515
-0.35137595
-0.36840904
-0.39266932
-0.42816056
-0.4724049
-0.47999536
-0.37693997
-0.2343356
-0.13269424
-0.099423121
-0.09846888
-0.056983016
-0.31962336
-0.31962911
-0.31963609
-0.31964332
-0.31965124
-0.31966001
-0.31966966
-0.31968028
-0.31969192
-0.31970468
-0.31971861
-0.3197338
-0.31975029
-0.31976814
-0.31978738
-0.31980802
-0.31983005
-0.31985341
-0.31987803
-0.31990377
-0.31993048
-0.31995796
-0.31998603
-0.32001456
-0.32004354
-0.32007325
-0.32010452
-0.32013905
-0.32018003
-0.32023287
-0.3203062
-0.32041262
-0.32056851
-0.32079158
-0.32109529
-0.32148157
-0.32193574
-0.32242737
-0.32291727
-0.32336683
-0.32374615
-0.32403845
-0.32423954
-0.32436593
-0.3244552
-0.32455371
-0.32473324
-0.325111
-0.3258659
-0.32733503
-0.33001683
-0.33479176
-0.34279823
-0.35594591
-0.37639019
-0.40552977
-0.44938695
-0.50476857
-0.51666088
-0.4017754
-0.23515635
-0.11574199
-0.068619917
-0.063092643
-0.024426079
-0.31951083
-0.31951579
-0.31952179
-0.31952803
-0.31953488
-0.31954245
-0.3195508
-0.31955998
-0.31957006
-0.3195811
-0.31959316
-0.31960631
-0.31962059
-0.31963603
-0.31965268
-0.31967052
-0.31968952
-0.31970965
-0.31973078
-0.3197528
-0.31977553
-0.31979874
-0.31982224
-0.31984584
-0.31986948
-0.31989334
-0.3199181
-0.31994525
-0.3199776
-0.32002002
-0.32008032
-0.3201699
-0.32030362
-0.32049763
-0.32076435
-0.32110589
-0.32150921
-0.32194664
-0.32238205
-0.32277955
-0.32311137
-0.32336249
-0.32353091
-0.32363383
-0.32371023
-0.32381163
-0.3240177
-0.32445637
-0.32532363
-0.32699871
-0.33009293
-0.33559276
-0.34471191
-0.35967955
-0.38317385
-0.41664013
-0.46757234
-0.5305726
-0.54529914
-0.41720617
-0.23255489
-0.097398044
-0.037702111
-0.030491819
0.0039279858
-0.31943916
-0.31944326
-0.31944818
-0.31945336
-0.31945904
-0.31946532
-0.31947225
-0.31947988
-0.31948825
-0.31949743
-0.31950746
-0.31951839
-0.31953027
-0.31954311
-0.31955694
-0.31957174
-0.31958748
-0.3196041
-0.31962148
-0.31963949
-0.31965792
-0.31967656
-0.31969516
-0.3197135
-0.31973145
-0.31974911
-0.31976699
-0.31978633
-0.31980958
-0.31984104
-0.31988762
-0.31995946
-0.32006986
-0.32023325
-0.32046088
-0.32075491
-0.32110395
-0.32148317
-0.32185974
-0.32220072
-0.32248065
-0.32268633
-0.32281785
-0.32289276
-0.32295084
-0.32304731
-0.32326806
-0.32374651
-0.32468351
-0.32654844
-0.33003542
-0.33613296
-0.34603585
-0.36223272
-0.38785953
-0.42514797
-0.48135652
-0.54801166
-0.56131416
-0.42355581
-0.22591297
-0.080982225
-0.012543507
-0.0019498858
0.027551648
-0.31939987
-0.31940306
-0.31940686
-0.31941091
-0.31941535
-0.31942027
-0.31942569
-0.31943167
-0.31943824
-0.31944544
-0.31945331
-0.3194619
-0.31947122
-0.31948131
-0.31949214
-0.31950373
-0.319516
-0.3195289
-0.31954231
-0.31955606
-0.31956996
-0.31958376
-0.31959719
-0.31960998
-0.31962196
-0.3196331
-0.31964377
-0.31965496
-0.31966873
-0.31968877
-0.31972108
-0.31977454
-0.31986075
-0.31999243
-0.32017948
-0.32042394
-0.32071596
-0.3210335
-0.32134718
-0.32162723
-0.32185071
-0.32200625
-0.32209595
-0.32213746
-0.32217045
-0.3222525
-0.32247437
-0.32296636
-0.32394024
-0.32602228
-0.32983205
-0.33626873
-0.34664302
-0.36369466
-0.38998217
-0.43038355
-0.48926203
-0.55647077
-0.56407041
-0.41949907
-0.21675388
-0.070292775
0.0039191972
0.020879428
0.046078984
-0.31938319
-0.31938545
-0.31938813
-0.319391
-0.31939416
-0.31939767
-0.31940153
-0.3194058
-0.3194105
-0.31941565
-0.31942129
-0.31942744
-0.31943412
-0.31944134
-0.31944908
-0.31945732
-0.319466
-0.31947504
-0.31948432
-0.31949367
-0.31950287
-0.31951165
-0.31951973
-0.3195268
-0.31953261
-0.31953703
-0.31954027
-0.31954307
-0.31954709
-0.31955541
-0.31957311
-0.31960778
-0.31966936
-0.31976877
-0.31991441
-0.32010796
-0.32034093
-0.32059393
-0.32084111
-0.32105599
-0.32121837
-0.32131876
-0.32136113
-0.32136309
-0.32136338
-0.32142065
-0.32162911
-0.3221005
-0.32313982
-0.3253817
-0.32935457
-0.33592508
-0.34649342
-0.36392933
-0.39001239
-0.43236686
-0.49133635
-0.55607579
-0.55381244
-0.40844513
-0.20227679
-0.066526433
0.014182202
0.035787338
0.058984951
-0.3193797
-0.31938102
-0.3193826
-0.31938429
-0.31938615
-0.31938822
-0.31939052
-0.31939306
-0.31939586
-0.31939894
-0.31940231
-0.319406
-0.31940999
-0.3194143
-0.31941889
-0.31942373
-0.31942876
-0.31943387
-0.31943895
-0.3194438
-0.31944821
-0.31945188
-0.3194545
-0.31945572
-0.31945521
-0.31945277
-0.31944841
-0.31944262
-0.31943666
-0.319433
-0.31943582
-0.31945143
-0.31948807
-0.31955501
-0.31965892
-0.31980102
-0.3199739
-0.32016036
-0.32033812
-0.32048399
-0.32058072
-0.32062078
-0.32060986
-0.32056568
-0.32052508
-0.32054671
-0.32072356
-0.32114155
-0.32227328
-0.32459658
-0.32855216
-0.33508871
-0.34556491
-0.3627604
-0.38817787
-0.43090958
-0.48813461
-0.54692933
-0.53298435
-0.396478
-0.18651507
-0.066783757
0.016420214
0.041544793
0.065959019
-0.31937909
-0.3193795
-0.31937998
-0.31938051
-0.3193811
-0.31938176
-0.3193825
-0.31938334
-0.31938426
-0.3193853
-0.31938643
-0.31938768
-0.31938902
-0.31939044
-0.31939191
-0.31939338
-0.31939478
-0.319396
-0.31939689
-0.31939728
-0.31939691
-0.31939548
-0.31939265
-0.31938802
-0.3193812
-0.31937186
-0.31935987
-0.31934544
-0.31932944
-0.31931373
-0.31930163
-0.31929823
-0.3193101
-0.31934546
-0.31940829
-0.31949867
-0.319611
-0.31972937
-0.3198353
-0.3199087
-0.31993544
-0.31991005
-0.31983951
-0.31974213
-0.31965201
-0.31962775
-0.31974867
-0.32012029
-0.32128357
-0.32361813
-0.32742075
-0.33374904
-0.34384681
-0.36031185
-0.38534311
-0.42690036
-0.48003889
-0.52923537
-0.50415262
-0.3714421
-0.17656152
-0.069473252
0.010829578
0.040183295
0.068768584
-0.31937325
-0.31937278
-0.31937222
-0.31937164
-0.31937101
-0.31937032
-0.31936957
-0.31936876
-0.31936789
-0.31936695
-0.31936593
-0.31936482
-0.3193636
-0.31936224
-0.31936069
-0.3193589
-0.31935677
-0.31935421
-0.31935104
-0.31934706
-0.31934202
-0.3193356
-0.31932741
-0.31931701
-0.31930393
-0.31928773
-0.3192681
-0.31924498
-0.31921884
-0.31919095
-0.31916374
-0.3191412
-0.31912775
-0.31913143
-0.31915172
-0.31919223
-0.3192457
-0.31929615
-0.31932926
-0.31932769
-0.3192807
-0.31918504
-0.31904875
-0.31889083
-0.31874249
-0.31866317
-0.31870757
-0.31906514
-0.32017545
-0.32240849
-0.32595668
-0.33191642
-0.34137518
-0.35704979
-0.38170351
-0.42024314
-0.46806899
-0.50459561
-0.46770157
-0.33773396
-0.17043601
-0.073223213
0.0027150748
0.032422365
0.063403036
-0.31935276
-0.31935148
-0.31934996
-0.31934835
-0.31934658
-0.31934464
-0.31934251
-0.31934018
-0.31933764
-0.31933486
-0.31933183
-0.31932853
-0.31932491
-0.31932094
-0.31931657
-0.31931172
-0.31930628
-0.31930015
-0.31929314
-0.31928504
-0.31927557
-0.31926438
-0.31925105
-0.31923508
-0.31921593
-0.31919303
-0.31916587
-0.31913413
-0.31909785
-0.3190577
-0.31901526
-0.31897353
-0.3189326
-0.31891496
-0.31890303
-0.31888435
-0.31887864
-0.31885964
-0.31881869
-0.31873988
-0.31861575
-0.31844521
-0.31823729
-0.31801131
-0.31779553
-0.31764808
-0.31759292
-0.31794122
-0.3189608
-0.32097387
-0.32417057
-0.32960243
-0.33842939
-0.35342207
-0.37605911
-0.41200302
-0.4519858
-0.47433603
-0.42847694
-0.30769936
-0.16376652
-0.077103389
-0.0062766974
0.023041392
0.052230653
-0.31931314
-0.31931113
-0.31930876
-0.31930623
-0.31930346
-0.31930039
-0.31929703
-0.31929334
-0.3192893
-0.31928488
-0.31928005
-0.31927476
-0.31926899
-0.31926267
-0.31925574
-0.31924811
-0.31923967
-0.31923028
-0.31921975
-0.31920786
-0.3191943
-0.31917869
-0.31916057
-0.3191394
-0.31911453
-0.31908527
-0.31905094
-0.31901094
-0.31896493
-0.31891304
-0.31885612
-0.31879611
-0.31873394
-0.31867295
-0.31861075
-0.31855434
-0.31850008
-0.31841389
-0.31830044
-0.31814392
-0.31794032
-0.31769092
-0.31740584
-0.317104
-0.31681121
-0.31657476
-0.31641311
-0.31670907
-0.31760086
-0.31930445
-0.32206007
-0.32703235
-0.33526148
-0.34873784
-0.36878035
-0.40124462
-0.43134983
-0.43913931
-0.38751549
-0.28137865
-0.15835752
-0.081393856
-0.015861442
0.01282951
0.040776757
-0.31924768
-0.31924507
-0.31924199
-0.31923869
-0.31923507
-0.31923107
-0.31922667
-0.31922183
-0.31921653
-0.31921072
-0.31920435
-0.31919739
-0.31918978
-0.31918145
-0.31917233
-0.31916231
-0.31915127
-0.31913905
-0.31912545
-0.31911021
-0.31909301
-0.31907343
-0.31905095
-0.31902496
-0.31899471
-0.31895937
-0.31891803
-0.3188698
-0.31881393
-0.31874997
-0.31867808
-0.31859787
-0.31851748
-0.31842356
-0.31832664
-0.31822667
-0.31810474
-0.31795952
-0.31777383
-0.31754002
-0.31725533
-0.31692373
-0.31655637
-0.31617113
-0.31579196
-0.31544597
-0.31518452
-0.31536447
-0.3160671
-0.3173884
-0.31979585
-0.32427579
-0.33125254
-0.34274641
-0.36122494
-0.38946656
-0.40696852
-0.40246388
-0.34801928
-0.25990362
-0.15347866
-0.085268898
-0.025247876
0.0023094367
0.028712812
-0.31915742
-0.31915436
-0.31915072
-0.31914683
-0.31914255
-0.31913782
-0.31913261
-0.31912688
-0.31912058
-0.31911367
-0.3191061
-0.31909781
-0.31908874
-0.31907881
-0.31906793
-0.31905599
-0.31904284
-0.31902832
-0.3190122
-0.3189942
-0.31897397
-0.31895103
-0.31892483
-0.31889466
-0.31885968
-0.31881888
-0.31877115
-0.31871531
-0.31865021
-0.31857488
-0.31848878
-0.31839128
-0.31828588
-0.31816187
-0.31802651
-0.31788265
-0.31770697
-0.31749822
-0.31724138
-0.3169303
-0.31656347
-0.31614681
-0.31569211
-0.3152157
-0.31473918
-0.31426897
-0.31392235
-0.31391192
-0.31434562
-0.31534798
-0.31733448
-0.32082857
-0.32651638
-0.33703018
-0.3532616
-0.37289304
-0.37995798
-0.36580222
-0.31600574
-0.23922035
-0.15026009
-0.0889782
-0.034229257
-0.0078081528
0.017206585
-0.31904033
-0.31903696
-0.31903297
-0.31902869
-0.31902398
-0.31901877
-0.31901302
-0.31900669
-0.31899972
-0.31899208
-0.31898369
-0.3189745
-0.31896442
-0.31895338
-0.31894128
-0.31892797
-0.31891332
-0.31889713
-0.31887916
-0.31885908
-0.3188365
-0.31881091
-0.31878167
-0.31874797
-0.31870883
-0.31866306
-0.31860928
-0.31854594
-0.31847143
-0.31838414
-0.31828268
-0.3181658
-0.3180334
-0.31788316
-0.31771247
-0.31752175
-0.31729603
-0.31702743
-0.31670305
-0.31631676
-0.31586812
-0.31536413
-0.31481653
-0.31423938
-0.31364914
-0.3130409
-0.31257702
-0.31236571
-0.31251096
-0.31314432
-0.31445653
-0.31722358
-0.3225553
-0.33164023
-0.3444644
-0.35561346
-0.35440549
-0.3302664
-0.28962614
-0.22206848
-0.1468987
-0.092121201
-0.042407995
-0.017189068
0.0066238681
-0.3189028
-0.31889931
-0.31889517
-0.31889073
-0.31888583
-0.31888041
-0.31887442
-0.31886782
-0.31886055
-0.31885256
-0.31884378
-0.31883415
-0.31882358
-0.31881198
-0.31879924
-0.31878521
-0.31876974
-0.3187526
-0.31873353
-0.31871217
-0.31868809
-0.31866071
-0.31862931
-0.31859298
-0.31855056
-0.31850068
-0.31844167
-0.31837163
-0.31828843
-0.31818986
-0.31807377
-0.31793815
-0.31778137
-0.31760133
-0.31739509
-0.31715885
-0.31688224
-0.316555
-0.31616489
-0.31570498
-0.31517457
-0.31458011
-0.3139313
-0.31323785
-0.31250494
-0.31175581
-0.31112508
-0.3106678
-0.31052269
-0.31063704
-0.31153544
-0.31392951
-0.31844062
-0.32525668
-0.33188164
-0.33472056
-0.32821685
-0.30542255
-0.26582633
-0.20817772
-0.1439557
-0.094834789
-0.049754647
-0.02572053
-0.0029501765
-0.31874948
-0.31874607
-0.318742
-0.31873764
-0.31873283
-0.3187275
-0.3187216
-0.31871509
-0.31870791
-0.31870001
-0.31869132
-0.31868177
-0.31867127
-0.31865972
-0.318647
-0.31863297
-0.31861743
-0.31860016
-0.31858085
-0.31855912
-0.31853448
-0.31850628
-0.31847371
-0.31843572
-0.318391
-0.31833792
-0.31827451
-0.31819845
-0.31810711
-0.31799762
-0.31786703
-0.31771249
-0.31753135
-0.31732093
-0.31707788
-0.31679746
-0.31647073
-0.31608674
-0.31563319
-0.31510158
-0.31448921
-0.31379998
-0.31303815
-0.31220985
-0.31131699
-0.31040339
-0.30951053
-0.30885278
-0.3083341
-0.30828654
-0.3089339
-0.31073618
-0.31367063
-0.31633883
-0.31821631
-0.3169828
-0.30258912
-0.28215881
-0.24604015
-0.19630273
-0.14096172
-0.096976851
-0.056123784
-0.033280041
-0.011410476
-0.31859111
-0.31858797
-0.31858423
-0.31858022
-0.31857578
-0.31857085
-0.31856539
-0.31855936
-0.3185527
-0.31854535
-0.31853725
-0.31852834
-0.31851851
-0.31850767
-0.31849569
-0.31848241
-0.31846762
-0.31845109
-0.31843248
-0.31841135
-0.31838717
-0.31835921
-0.31832654
-0.31828799
-0.31824203
-0.31818679
-0.31811996
-0.31803879
-0.31794007
-0.31782027
-0.31767563
-0.31750238
-0.31729696
-0.31705596
-0.31677566
-0.31645111
-0.31607433
-0.31563441
-0.31511864
-0.31451585
-0.31381905
-0.31302677
-0.31213294
-0.31114395
-0.31006417
-0.30893638
-0.30785151
-0.30700008
-0.30636038
-0.30620884
-0.30651798
-0.30710865
-0.30702741
-0.30646085
-0.30453644
-0.29783771
-0.28512289
-0.26319051
-0.22963054
-0.18617065
-0.13807946
-0.098602581
-0.061547574
-0.039891624
-0.018851979
-0.31843909
-0.31843645
-0.31843329
-0.31842989
-0.31842613
-0.31842195
-0.3184173
-0.31841215
-0.31840646
-0.31840016
-0.3183932
-0.31838551
-0.318377
-0.31836756
-0.31835707
-0.31834535
-0.3183322
-0.31831733
-0.31830039
-0.31828091
-0.31825826
-0.31823165
-0.31820003
-0.31816205
-0.31811599
-0.31805969
-0.31799049
-0.31790515
-0.31779991
-0.31767051
-0.31751238
-0.31732085
-0.31709144
-0.31682003
-0.31650258
-0.31613419
-0.31570766
-0.31521229
-0.31463446
-0.31395873
-0.31317154
-0.31226272
-0.31121507
-0.31004944
-0.30877097
-0.3074546
-0.30636873
-0.30537041
-0.30475595
-0.30410369
-0.30324081
-0.30142539
-0.29925124
-0.29590817
-0.29063971
-0.28215193
-0.2672301
-0.24596065
-0.21539118
-0.17722274
-0.13515329
-0.09969287
-0.066030122
-0.045547046
-0.025251635
-0.31830853
-0.31830661
-0.31830432
-0.31830183
-0.31829907
-0.31829599
-0.31829255
-0.31828872
-0.31828446
-0.31827973
-0.31827448
-0.31826863
-0.3182621
-0.31825479
-0.31824656
-0.31823724
-0.3182266
-0.31821435
-0.31820007
-0.31818326
-0.31816322
-0.31813905
-0.31810957
-0.31807326
-0.31802818
-0.31797186
-0.31790125
-0.31781266
-0.31770173
-0.31756351
-0.31739263
-0.31718354
-0.31693091
-0.31662988
-0.31627614
-0.31586477
-0.3153891
-0.31483814
-0.31419667
-0.31344279
-0.31255614
-0.31151623
-0.31032018
-0.308996
-0.30759288
-0.30633188
-0.30519487
-0.30412446
-0.30303371
-0.30123004
-0.29844849
-0.29491312
-0.29051477
-0.28489704
-0.27678388
-0.26715576
-0.25231242
-0.23152372
-0.20325754
-0.16935059
-0.13223312
-0.10029098
-0.069639311
-0.050315352
-0.030735258
-0.31821882
-0.31821788
-0.31821673
-0.31821546
-0.31821403
-0.31821241
-0.31821058
-0.31820852
-0.31820619
-0.31820356
-0.31820058
-0.31819719
-0.31819332
-0.31818885
-0.31818366
-0.31817756
-0.31817029
-0.31816154
-0.31815087
-0.31813768
-0.31812122
-0.31810046
-0.31807409
-0.31804039
-0.31799716
-0.31794165
-0.31787042
-0.31777931
-0.31766339
-0.31751707
-0.3173342
-0.31710845
-0.31683345
-0.3165039
-0.31611557
-0.3156629
-0.31513926
-0.31453227
-0.31382462
-0.31298616
-0.31199551
-0.31085274
-0.30952583
-0.30817649
-0.30681127
-0.30559838
-0.30429672
-0.30275007
-0.3004265
-0.29672772
-0.29229845
-0.28687465
-0.2811369
-0.2729553
-0.26485099
-0.25398719
-0.23855465
-0.21845047
-0.19245636
-0.16219709
-0.12924685
-0.10041817
-0.072429378
-0.054238749
-0.035328491
-0.31819303
-0.31819329
-0.31819357
-0.31819383
-0.31819407
-0.31819429
-0.31819447
-0.3181946
-0.31819467
-0.31819464
-0.31819449
-0.31819416
-0.31819357
-0.31819262
-0.31819116
-0.318189
-0.31818586
-0.31818138
-0.31817507
-0.31816627
-0.31815412
-0.31813746
-0.31811482
-0.31808427
-0.31804337
-0.31798906
-0.31791749
-0.3178241
-0.31770346
-0.31754941
-0.31735521
-0.31711373
-0.31681828
-0.31646239
-0.31604229
-0.31555101
-0.31498123
-0.31431825
-0.31354331
-0.31262549
-0.31156461
-0.31033627
-0.30910167
-0.30775283
-0.30643604
-0.30507583
-0.30320802
-0.30049785
-0.29638486
-0.29130573
-0.28578663
-0.27886254
-0.27042504
-0.26314092
-0.2533806
-0.24161918
-0.22627821
-0.2069822
-0.18292943
-0.15569066
-0.12621325
-0.10011413
-0.074476952
-0.057392353
-0.039143795
-0.31826506
-0.31826674
-0.31826869
-0.31827074
-0.31827292
-0.31827528
-0.3182778
-0.31828049
-0.31828335
-0.31828634
-0.31828946
-0.31829264
-0.31829581
-0.31829887
-0.31830165
-0.31830394
-0.31830543
-0.3183057
-0.31830419
-0.31830016
-0.31829263
-0.31828031
-0.31826154
-0.31823418
-0.31819555
-0.31814228
-0.31807026
-0.31797456
-0.31784941
-0.3176883
-0.31748429
-0.31723216
-0.31691159
-0.31652617
-0.31608095
-0.31555517
-0.31494364
-0.31422987
-0.31341111
-0.31242896
-0.31135761
-0.31021356
-0.30901517
-0.3076889
-0.3062238
-0.30422161
-0.30126403
-0.29686745
-0.29135954
-0.28554448
-0.27821408
-0.27018382
-0.26193296
-0.25294327
-0.24255767
-0.23035229
-0.21504543
-0.19654588
-0.17426594
-0.14962574
-0.12309704
-0.09940909
-0.07584624
-0.059836087
-0.042213444
-0.31847588
-0.3184791
-0.31848289
-0.31848687
-0.31849117
-0.31849584
-0.3185009
-0.31850635
-0.31851219
-0.31851842
-0.31852501
-0.31853192
-0.31853905
-0.3185463
-0.31855347
-0.31856031
-0.31856648
-0.31857147
-0.31857465
-0.31857516
-0.31857189
-0.31856338
-0.31854777
-0.31852272
-0.31848528
-0.31843185
-0.31835805
-0.31825869
-0.31812759
-0.31795832
-0.31775028
-0.31746795
-0.31712328
-0.31673589
-0.31626391
-0.31571152
-0.31506816
-0.31432747
-0.31346668
-0.31254182
-0.31149598
-0.31039772
-0.30921549
-0.30769019
-0.30555912
-0.30255706
-0.29801713
-0.29213832
-0.28617706
-0.27864726
-0.2702678
-0.26182842
-0.25273868
-0.24327915
-0.23237508
-0.21981079
-0.20473462
-0.18707341
-0.16636256
-0.1439319
-0.11989941
-0.098335617
-0.076606177
-0.061634855
-0.044623354
-0.31888335
-0.3188881
-0.31889367
-0.31889955
-0.31890591
-0.31891284
-0.31892035
-0.31892846
-0.31893717
-0.31894647
-0.31895635
-0.31896674
-0.31897754
-0.31898861
-0.31899972
-0.31901057
-0.31902074
-0.31902965
-0.31903654
-0.31904043
-0.31904003
-0.31903372
-0.31901942
-0.31899457
-0.31895598
-0.31889983
-0.31882153
-0.31871562
-0.3185752
-0.31840114
-0.31816813
-0.31787809
-0.31753983
-0.31712889
-0.31663738
-0.31607139
-0.31539872
-0.31464708
-0.3138279
-0.31293119
-0.31192907
-0.31080551
-0.3093341
-0.30719335
-0.30407241
-0.29976509
-0.29350421
-0.28737722
-0.27984105
-0.27107679
-0.26242908
-0.25355338
-0.24407567
-0.23396925
-0.22266604
-0.20996532
-0.19516907
-0.1783117
-0.15900845
-0.13849468
-0.11660373
-0.096921935
-0.076816679
-0.062843864
-0.046437998
-0.31955563
-0.31956162
-0.31956866
-0.31957609
-0.31958413
-0.31959289
-0.31960237
-0.31961259
-0.31962356
-0.31963526
-0.31964766
-0.31966067
-0.31967417
-0.31968797
-0.3197018
-0.31971527
-0.31972788
-0.31973896
-0.31974761
-0.3197527
-0.31975277
-0.31974601
-0.31973014
-0.31970239
-0.3196594
-0.31959719
-0.31951123
-0.3193961
-0.31923636
-0.31904708
-0.31883029
-0.31853509
-0.31816195
-0.31773565
-0.31722455
-0.31664629
-0.31600489
-0.31525029
-0.31444116
-0.31356124
-0.31247716
-0.3110479
-0.3089593
-0.30580881
-0.30145017
-0.29537521
-0.28911536
-0.28157415
-0.27253584
-0.26368319
-0.2547435
-0.24536032
-0.23542077
-0.22493119
-0.21339881
-0.20066262
-0.18621109
-0.17014288
-0.1521007
-0.13325187
-0.11320379
-0.095192287
-0.076532103
-0.063518317
-0.047703535
-0.32057395
-0.32058066
-0.32058854
-0.32059685
-0.32060583
-0.32061558
-0.32062611
-0.32063744
-0.32064955
-0.32066241
-0.32067595
-0.32069006
-0.32070457
-0.32071923
-0.3207337
-0.32074752
-0.32076007
-0.32077054
-0.3207779
-0.32078084
-0.32077772
-0.32076651
-0.32074475
-0.32070947
-0.32065714
-0.32058332
-0.32048239
-0.32035373
-0.32021439
-0.3200146
-0.31973213
-0.31940291
-0.31902348
-0.31858349
-0.31807768
-0.31747212
-0.31681536
-0.31608802
-0.31524245
-0.31422905
-0.31284179
-0.31078539
-0.30770549
-0.30330896
-0.2974338
-0.29103248
-0.28375824
-0.27436048
-0.26545075
-0.25643739
-0.24700356
-0.2372358
-0.22698005
-0.21617771
-0.20449101
-0.19181849
-0.17774389
-0.1624272
-0.14552002
-0.12813463
-0.1096892
-0.093168419
-0.075800251
-0.063702729
-0.048474311
-0.32200462
-0.32201137
-0.32201927
-0.32202758
-0.32203652
-0.32204619
-0.32205659
-0.3220677
-0.32207948
-0.32209186
-0.32210475
-0.32211796
-0.32213128
-0.32214437
-0.32215678
-0.32216795
-0.32217711
-0.32218329
-0.32218526
-0.3221815
-0.32217013
-0.32214886
-0.32211497
-0.32206487
-0.32199405
-0.32190506
-0.32180911
-0.32167971
-0.32146103
-0.3211975
-0.32091884
-0.32057273
-0.32016354
-0.31968346
-0.31914112
-0.31852956
-0.31783498
-0.31704143
-0.31606036
-0.3147185
-0.31270992
-0.30970016
-0.30541754
-0.29961278
-0.29308434
-0.28594204
-0.27699873
-0.26746856
-0.2585457
-0.24906668
-0.23928138
-0.22917781
-0.21863381
-0.20762196
-0.19587599
-0.18333485
-0.16966107
-0.15506415
-0.13918417
-0.12309358
-0.1060517
-0.090867507
-0.074662174
-0.063441362
-0.048788935
-0.32392786
-0.32393394
-0.32394103
-0.32394843
-0.32395634
-0.32396481
-0.32397382
-0.32398331
-0.32399321
-0.32400338
-0.32401367
-0.32402383
-0.32403353
-0.32404234
-0.32404967
-0.32405479
-0.32405677
-0.3240544
-0.32404621
-0.32403042
-0.32400482
-0.32396651
-0.32391197
-0.32384269
-0.3237628
-0.32365363
-0.32348698
-0.32327938
-0.32304187
-0.32275804
-0.32241888
-0.3220188
-0.32155182
-0.32102322
-0.32043135
-0.31976388
-0.31899312
-0.31804038
-0.31672257
-0.31476385
-0.31184155
-0.30769671
-0.30208691
-0.29559398
-0.28859443
-0.27975146
-0.2701498
-0.26111605
-0.2515422
-0.2416778
-0.23155614
-0.22115451
-0.21039265
-0.19924027
-0.18749252
-0.17513392
-0.16187383
-0.14796137
-0.13301633
-0.11808253
-0.10228242
-0.08830426
-0.073152604
-0.062768758
-0.048684288
-0.32642708
-0.32643193
-0.32643754
-0.32644331
-0.32644936
-0.3264557
-0.32646225
-0.32646891
-0.32647554
-0.32648193
-0.32648782
-0.32649286
-0.32649657
-0.32649838
-0.32649751
-0.326493
-0.32648365
-0.32646797
-0.32644415
-0.32640996
-0.32636252
-0.32629891
-0.32622089
-0.32611955
-0.32597935
-0.32580166
-0.32559043
-0.32534035
-0.32504001
-0.32468457
-0.32426969
-0.32379514
-0.32326156
-0.32266425
-0.3219965
-0.32122781
-0.32027247
-0.31896684
-0.31703397
-0.31418622
-0.3101833
-0.30476774
-0.29834409
-0.29148045
-0.2828132
-0.27342482
-0.26416968
-0.25439407
-0.24441879
-0.23421915
-0.22378898
-0.2131384
-0.20220207
-0.19096933
-0.1792756
-0.16713929
-0.15430094
-0.14104178
-0.12695455
-0.11306343
-0.098372535
-0.085489734
-0.071300941
-0.061718237
-0.048192748
-0.3296182
-0.32962135
-0.3296249
-0.32962838
-0.32963182
-0.32963515
-0.32963824
-0.3296409
-0.32964289
-0.3296439
-0.32964353
-0.32964127
-0.32963646
-0.32962829
-0.32961572
-0.32959747
-0.32957198
-0.32953734
-0.32949123
-0.3294309
-0.32935313
-0.3292544
-0.32913049
-0.32897234
-0.32877826
-0.3285479
-0.32827163
-0.32794352
-0.32755865
-0.32711539
-0.32661461
-0.32605416
-0.32543154
-0.32473886
-0.32394308
-0.32296197
-0.32163202
-0.31971595
-0.31690036
-0.31303802
-0.30783714
-0.30148704
-0.29474112
-0.28625727
-0.27682824
-0.26748036
-0.25762019
-0.24751928
-0.23719327
-0.22666147
-0.21595617
-0.20509361
-0.19402886
-0.18276604
-0.17116823
-0.15928425
-0.1468721
-0.13423784
-0.12094418
-0.10800223
-0.094313223
-0.082432733
-0.069131477
-0.060317162
-0.047340881
-0.33371398
-0.33371468
-0.33371522
-0.33371539
-0.33371507
-0.33371407
-0.33371219
-0.33370913
-0.33370453
-0.33369792
-0.33368872
-0.33367623
-0.33365953
-0.33363752
-0.33360882
-0.33357178
-0.33352436
-0.33346415
-0.33338825
-0.3332933
-0.33317538
-0.33303007
-0.33285245
-0.33263709
-0.33237876
-0.3320715
-0.33170991
-0.33129081
-0.33081297
-0.33027409
-0.32967299
-0.32900835
-0.32826866
-0.32741859
-0.32637586
-0.32498767
-0.3230261
-0.32023102
-0.31638046
-0.31144712
-0.3051133
-0.29844526
-0.29006835
-0.28062691
-0.27114975
-0.26127318
-0.25103072
-0.24052304
-0.22981937
-0.21897568
-0.20801914
-0.1969797
-0.18582544
-0.17457541
-0.16311126
-0.15150508
-0.13952296
-0.1274901
-0.11493806
-0.10286905
-0.090095514
-0.079139251
-0.066664297
-0.058589361
-0.046154486
-0.33901448
-0.33901142
-0.33900743
-0.33900261
-0.33899666
-0.33898925
-0.33898005
-0.33896864
-0.33895449
-0.33893695
-0.33891522
-0.33888832
-0.33885506
-0.33881398
-0.33876332
-0.33870097
-0.3386244
-0.33853062
-0.33841616
-0.33827698
-0.33810856
-0.33790583
-0.33766331
-0.33737513
-0.33703586
-0.33664102
-0.33618689
-0.33566986
-0.33508767
-0.3344392
-0.33371979
-0.33291433
-0.33198351
-0.33084374
-0.32934806
-0.32728262
-0.32440133
-0.32049541
-0.31546248
-0.30921948
-0.3023633
-0.29424535
-0.28475662
-0.27521362
-0.26528617
-0.25492196
-0.24422544
-0.23331109
-0.22225352
-0.21111484
-0.1999338
-0.18875123
-0.17754522
-0.16634716
-0.15504987
-0.1437437
-0.13219606
-0.12074605
-0.1088946
-0.097637072
-0.085710539
-0.075613389
-0.063916034
-0.056556003
-0.044655366
-0.34585201
-0.34584335
-0.34583264
-0.34582049
-0.34580631
-0.34578959
-0.34576986
-0.34574653
-0.34571887
-0.345686
-0.34564687
-0.3456002
-0.34554446
-0.3454778
-0.34539803
-0.34530257
-0.34518837
-0.34505189
-0.34488906
-0.34469529
-0.34446545
-0.34419414
-0.34387596
-0.34350557
-0.34307764
-0.34258727
-0.34203064
-0.34140467
-0.34070521
-0.33992362
-0.33903944
-0.33800783
-0.33674268
-0.33510123
-0.33288377
-0.32986027
-0.32583784
-0.32070043
-0.31439353
-0.30722134
-0.29923475
-0.28963073
-0.27998323
-0.2699197
-0.25934055
-0.24840612
-0.2372183
-0.22587541
-0.21445621
-0.20303408
-0.19165222
-0.18035859
-0.16913687
-0.15802759
-0.14692913
-0.1359448
-0.12483841
-0.11395837
-0.10277676
-0.09228199
-0.081149476
-0.071856902
-0.060900182
-0.054232859
-0.042862121
-0.35462491
-0.35460842
-0.35458832
-0.35456599
-0.35454045
-0.35451096
-0.35447687
-0.35443739
-0.35439157
-0.35433828
-0.35427616
-0.35420358
-0.35411859
-0.354019
-0.35390218
-0.35376507
-0.35360412
-0.35341532
-0.35319419
-0.35293581
-0.35263492
-0.35228586
-0.35188283
-0.35142021
-0.35089277
-0.35029538
-0.34962246
-0.34886612
-0.34801232
-0.34703363
-0.34587815
-0.34445548
-0.34262488
-0.34019748
-0.33695936
-0.33272802
-0.32740039
-0.32090884
-0.31350178
-0.30534264
-0.29578025
-0.2857379
-0.27544518
-0.26445446
-0.25316252
-0.2416208
-0.22990925
-0.21812734
-0.20635517
-0.19466937
-0.18311559
-0.1717459
-0.1605463
-0.1495632
-0.13869603
-0.12805652
-0.1174015
-0.10708451
-0.096551485
-0.086781802
-0.076403817
-0.067869539
-0.057627768
-0.051627433
-0.040802507
-0.3656697
-0.36564283
-0.36561034
-0.36557465
-0.36553427
-0.36548819
-0.36543558
-0.36537542
-0.36530652
-0.36522746
-0.36513663
-0.3650322
-0.36491174
-0.36477255
-0.36461168
-0.36442566
-0.36421051
-0.36396185
-0.3636749
-0.3633444
-0.36296473
-0.36253
-0.36203413
-0.36147074
-0.36083282
-0.36011165
-0.35929462
-0.35836102
-0.35727521
-0.35597665
-0.35436838
-0.35230905
-0.34961489
-0.34608614
-0.34154453
-0.33589865
-0.32908941
-0.32128124
-0.31277062
-0.30293704
-0.29252427
-0.2817404
-0.27035437
-0.25862235
-0.24662822
-0.23445859
-0.22221435
-0.20999412
-0.19788171
-0.18595602
-0.17426266
-0.16285487
-0.15171779
-0.14090015
-0.13029885
-0.12002974
-0.1098406
-0.10008586
-0.090189134
-0.081116654
-0.071465968
-0.063651986
-0.054110917
-0.048766986
-0.03847139
-0.37932207
-0.37928232
-0.37923449
-0.37918232
-0.37912371
-0.37905733
-0.37898225
-0.37889682
-0.37879918
-0.37869281
-0.37858526
-0.3784561
-0.37828017
-0.37807867
-0.37786603
-0.37762715
-0.37735306
-0.37703916
-0.37668075
-0.37627243
-0.37580779
-0.37527985
-0.37468063
-0.37400037
-0.37322614
-0.37233917
-0.37131047
-0.37009431
-0.36861961
-0.36678089
-0.36443295
-0.361397
-0.35747916
-0.35251946
-0.34641178
-0.33914705
-0.33080401
-0.32177901
-0.3115156
-0.30052667
-0.28917278
-0.2772379
-0.26494702
-0.25236956
-0.23961771
-0.22680011
-0.2140176
-0.20137065
-0.18894289
-0.17681179
-0.16502036