/*--------------------------------*- C++ -*----------------------------------*\
  =========                 |
  \\      /  F ield         | OpenFOAM: The Open Source CFD Toolbox
   \\    /   O peration     | Website:  https://openfoam.org
    \\  /    A nd           | Version:  13
     \\/     M anipulation  |
\*---------------------------------------------------------------------------*/
FoamFile
{
    format      ascii;
    class       volScalarField;
    location    "28.101323";
    object      p;
}
// * * * * * * * * * * * * * * * * * * * * * * * * * * * * * * * * * * * * * //

dimensions      [0 2 -2 0 0 0 0];

internalField   nonuniform List<scalar> 
17140
(
-0.26350431
-0.2635131
-0.26352381
-0.26353481
-0.26354684
-0.26356012
-0.26357473
-0.26359075
-0.26360828
-0.26362744
-0.26364832
-0.26367102
-0.26369563
-0.26372222
-0.26375086
-0.26378158
-0.26381443
-0.26384941
-0.26388653
-0.26392579
-0.26396727
-0.26401111
-0.26405769
-0.26410778
-0.26416283
-0.26422547
-0.26430025
-0.26439463
-0.26452025
-0.26469376
-0.26493624
-0.2652698
-0.26571104
-0.26626379
-0.2669151
-0.26763659
-0.26839013
-0.26913462
-0.26983165
-0.27044912
-0.27096382
-0.27136156
-0.27163706
-0.27179082
-0.27182586
-0.27175361
-0.27157936
-0.27129735
-0.27089171
-0.27034486
-0.26959976
-0.26862277
-0.26725276
-0.26549544
-0.2629044
-0.25977445
-0.25478191
-0.2494837
-0.23971892
-0.23051399
-0.20983414
-0.18967456
-0.14300029
-0.11450483
-0.06613334
-0.26321602
-0.26322465
-0.26323516
-0.26324595
-0.26325775
-0.26327078
-0.26328511
-0.26330083
-0.26331804
-0.26333684
-0.26335734
-0.26337962
-0.26340378
-0.26342989
-0.26345801
-0.26348819
-0.26352046
-0.26355482
-0.26359129
-0.26362986
-0.26367059
-0.26371363
-0.26375932
-0.26380841
-0.26386229
-0.26392352
-0.26399651
-0.26408855
-0.26421101
-0.26438021
-0.26461686
-0.26494272
-0.2653742
-0.26591515
-0.26655279
-0.26725898
-0.26799579
-0.26872216
-0.26939954
-0.26999563
-0.27048656
-0.27085739
-0.27110188
-0.27121938
-0.27121161
-0.27108819
-0.27085328
-0.27050016
-0.27001293
-0.26937597
-0.26853779
-0.26747857
-0.26606292
-0.26434842
-0.26197001
-0.25937927
-0.25543796
-0.25199349
-0.24506734
-0.23937389
-0.22221491
-0.20366744
-0.15333487
-0.1174578
-0.06060041
-0.26301104
-0.26301938
-0.26302953
-0.26303997
-0.26305138
-0.26306399
-0.26307786
-0.26309307
-0.26310972
-0.26312792
-0.26314776
-0.26316934
-0.26319275
-0.26321804
-0.2632453
-0.26327456
-0.26330584
-0.26333916
-0.26337452
-0.26341191
-0.26345139
-0.26349307
-0.2635373
-0.26358475
-0.26363677
-0.26369579
-0.26376604
-0.26385455
-0.26397232
-0.26413514
-0.26436318
-0.2646777
-0.26509487
-0.26561871
-0.26623686
-0.2669218
-0.26763611
-0.26833906
-0.26899218
-0.26956298
-0.27002714
-0.27036898
-0.27058126
-0.27066217
-0.27061242
-0.27043971
-0.27014689
-0.26972701
-0.26916429
-0.26844555
-0.26752518
-0.26639775
-0.26495373
-0.26330202
-0.26115717
-0.25912365
-0.25624164
-0.25464283
-0.25055647
-0.24863198
-0.23535108
-0.21798022
-0.16337114
-0.11908573
-0.054362795
-0.26289151
-0.26289945
-0.2629091
-0.26291904
-0.26292991
-0.26294192
-0.26295512
-0.26296961
-0.26298549
-0.26300284
-0.26302176
-0.26304234
-0.26306467
-0.26308882
-0.26311485
-0.26314279
-0.26317268
-0.26320452
-0.2632383
-0.26327402
-0.26331171
-0.26335149
-0.26339365
-0.26343883
-0.26348827
-0.26354426
-0.26361083
-0.26369465
-0.2638062
-0.26396063
-0.26417734
-0.26447694
-0.26487533
-0.26537677
-0.26596964
-0.26662734
-0.26731333
-0.2679875
-0.26861167
-0.26915333
-0.26958775
-0.26989858
-0.27007758
-0.27012173
-0.27003094
-0.269811
-0.26946336
-0.26898112
-0.26834893
-0.26755623
-0.26656337
-0.26537936
-0.26391988
-0.2623429
-0.26043951
-0.25896338
-0.25714203
-0.25735521
-0.25610452
-0.25795581
-0.24882893
-0.23211221
-0.17258966
-0.11992415
-0.045170976
-0.26285746
-0.26286488
-0.26287388
-0.26288318
-0.26289335
-0.26290458
-0.26291694
-0.26293051
-0.26294537
-0.26296163
-0.26297937
-0.26299867
-0.26301963
-0.2630423
-0.26306674
-0.26309299
-0.26312108
-0.26315101
-0.26318276
-0.26321633
-0.26325173
-0.26328907
-0.26332859
-0.26337087
-0.26341705
-0.26346927
-0.26353126
-0.26360929
-0.26371321
-0.26385736
-0.26406019
-0.26434151
-0.26471687
-0.26519085
-0.26575281
-0.26637741
-0.26702934
-0.26766942
-0.26825999
-0.26876867
-0.26917043
-0.26944829
-0.26959302
-0.26960043
-0.26946973
-0.26920486
-0.2688056
-0.26826551
-0.26756961
-0.26671012
-0.26565293
-0.26442106
-0.26295376
-0.26145304
-0.25978275
-0.25883624
-0.25804288
-0.25994642
-0.26160089
-0.26706328
-0.26170079
-0.24539563
-0.17999731
-0.11843275
-0.033112443
-0.26290681
-0.2629136
-0.26292181
-0.26293033
-0.26293965
-0.26294995
-0.26296129
-0.26297374
-0.26298738
-0.26300232
-0.26301862
-0.26303638
-0.26305566
-0.26307653
-0.26309906
-0.26312326
-0.26314916
-0.26317676
-0.26320605
-0.26323701
-0.26326964
-0.26330401
-0.26334034
-0.26337914
-0.26342144
-0.26346917
-0.26352576
-0.26359699
-0.26369201
-0.26382418
-0.26401085
-0.26427085
-0.26461929
-0.26506114
-0.26558691
-0.26617285
-0.2667852
-0.26738603
-0.26793847
-0.26841042
-0.2687767
-0.26901975
-0.26912936
-0.26910021
-0.26893095
-0.26862341
-0.26817578
-0.2675823
-0.26682803
-0.26590781
-0.26479228
-0.26351739
-0.2620428
-0.26060634
-0.2591392
-0.25867531
-0.25879564
-0.26239266
-0.26675451
-0.27552132
-0.27332047
-0.25693871
-0.18482698
-0.11476433
-0.02171807
-0.26303525
-0.26304131
-0.26304861
-0.26305622
-0.26306457
-0.26307378
-0.26308393
-0.26309509
-0.26310732
-0.26312072
-0.26313536
-0.26315132
-0.26316866
-0.26318745
-0.26320774
-0.26322955
-0.26325291
-0.26327782
-0.26330424
-0.26333216
-0.26336157
-0.2633925
-0.26342515
-0.26345993
-0.26349777
-0.26354037
-0.26359084
-0.26365442
-0.26373944
-0.2638582
-0.26402678
-0.26426287
-0.26458103
-0.26498659
-0.26547139
-0.26601354
-0.26658115
-0.26713785
-0.26764782
-0.26807947
-0.26840757
-0.26861411
-0.26868787
-0.26862254
-0.26841612
-0.26806821
-0.26757562
-0.266933
-0.2661251
-0.26514885
-0.26397846
-0.26266087
-0.26117052
-0.25976891
-0.2584611
-0.25845222
-0.25939251
-0.26443609
-0.27126447
-0.2828112
-0.28306515
-0.26556341
-0.18805562
-0.11272073
-0.012344779
-0.2632363
-0.26324154
-0.26324782
-0.26325443
-0.26326168
-0.26326969
-0.26327851
-0.26328821
-0.26329887
-0.26331055
-0.26332332
-0.26333726
-0.26335243
-0.26336888
-0.26338666
-0.2634058
-0.2634263
-0.26344816
-0.26347136
-0.26349586
-0.26352165
-0.26354873
-0.26357725
-0.26360755
-0.26364042
-0.26367736
-0.26372111
-0.26377633
-0.2638505
-0.26395473
-0.26410371
-0.26431383
-0.26459896
-0.26496477
-0.2654045
-0.26589832
-0.26641653
-0.26692461
-0.26738808
-0.26777607
-0.26806349
-0.26823196
-0.26826935
-0.26816838
-0.26792627
-0.26754044
-0.26700626
-0.26631846
-0.26546088
-0.26443168
-0.26320687
-0.26184126
-0.26031394
-0.25889917
-0.25767589
-0.25796375
-0.25972635
-0.26587264
-0.274737
-0.28825996
-0.28902913
-0.26961304
-0.18888505
-0.11073729
-0.012495361
-0.26350144
-0.2635058
-0.26351099
-0.2635165
-0.26352256
-0.26352926
-0.26353664
-0.26354477
-0.26355371
-0.26356352
-0.26357427
-0.26358601
-0.26359881
-0.26361271
-0.26362775
-0.26364396
-0.26366134
-0.26367988
-0.26369956
-0.26372033
-0.26374215
-0.26376503
-0.26378905
-0.26381448
-0.26384199
-0.26387284
-0.2639094
-0.26395573
-0.26401844
-0.26410736
-0.2642357
-0.26441842
-0.26466853
-0.26499194
-0.26538329
-0.26582498
-0.26628975
-0.26674523
-0.26715856
-0.26749984
-0.26774431
-0.26787336
-0.26787404
-0.26773817
-0.26746193
-0.26704065
-0.26646819
-0.26573881
-0.26483448
-0.26375334
-0.26247088
-0.26104369
-0.25944139
-0.25792577
-0.25675377
-0.25705669
-0.25943059
-0.26649272
-0.27690453
-0.29086251
-0.29126637
-0.26658818
-0.19080489
-0.10673004
-0.023212644
-0.2638203
-0.26382374
-0.26382783
-0.26383219
-0.26383699
-0.2638423
-0.26384817
-0.26385464
-0.26386176
-0.2638696
-0.2638782
-0.26388762
-0.2638979
-0.2639091
-0.26392123
-0.26393433
-0.26394839
-0.26396339
-0.26397931
-0.2639961
-0.26401371
-0.26403211
-0.26405134
-0.26407162
-0.26409346
-0.26411791
-0.26414696
-0.26418409
-0.26423497
-0.26430817
-0.26441533
-0.26456985
-0.26478376
-0.26506303
-0.26540364
-0.26579029
-0.26619833
-0.26659785
-0.26695788
-0.26724977
-0.2674493
-0.26753779
-0.2675016
-0.26733178
-0.26702301
-0.26656879
-0.26596126
-0.26519334
-0.26424388
-0.26310926
-0.26176125
-0.26024764
-0.25851226
-0.25686304
-0.25559807
-0.25585513
-0.25835876
-0.26614179
-0.2770903
-0.29023149
-0.287907
-0.25855122
-0.18681266
-0.10604899
-0.03322899
-0.26418123
-0.26418373
-0.26418671
-0.26418989
-0.2641934
-0.26419729
-0.26420159
-0.26420635
-0.26421161
-0.26421742
-0.26422381
-0.26423083
-0.26423852
-0.26424691
-0.26425604
-0.26426591
-0.26427652
-0.26428785
-0.26429987
-0.26431251
-0.26432573
-0.26433947
-0.26435374
-0.26436866
-0.26438464
-0.2644025
-0.26442387
-0.26445165
-0.26449059
-0.264548
-0.26463391
-0.26476011
-0.26493745
-0.2651718
-0.26546033
-0.26578998
-0.26613889
-0.2664798
-0.26678394
-0.26702418
-0.2671771
-0.26722413
-0.26715111
-0.26694848
-0.26660882
-0.2661241
-0.26548445
-0.26468028
-0.26368549
-0.26249274
-0.26106356
-0.25942281
-0.25749471
-0.25568551
-0.25410771
-0.25420768
-0.25663127
-0.26452678
-0.27494953
-0.28581168
-0.27783946
-0.24663828
-0.17532764
-0.10812824
-0.041540717
-0.26457147
-0.26457304
-0.26457491
-0.26457692
-0.26457914
-0.26458161
-0.26458436
-0.26458741
-0.2645908
-0.26459457
-0.26459874
-0.26460336
-0.26460844
-0.26461402
-0.26462011
-0.26462673
-0.26463385
-0.26464147
-0.26464953
-0.26465797
-0.26466673
-0.26467574
-0.26468495
-0.26469445
-0.26470449
-0.2647157
-0.26472937
-0.26474782
-0.26477495
-0.26481682
-0.26488187
-0.26498021
-0.26512143
-0.26531105
-0.26554719
-0.26581896
-0.26610727
-0.26638771
-0.26663399
-0.26682079
-0.26692578
-0.26693068
-0.26682104
-0.26658674
-0.26621785
-0.26570499
-0.26503562
-0.26419628
-0.26315353
-0.26189286
-0.26035197
-0.25852749
-0.25634688
-0.25420113
-0.25227365
-0.25188
-0.25403526
-0.26151784
-0.27052033
-0.27655922
-0.26417412
-0.23095544
-0.16703599
-0.10843072
-0.048979467
-0.26497818
-0.26497886
-0.26497966
-0.26498054
-0.26498151
-0.26498261
-0.26498385
-0.26498525
-0.26498683
-0.26498862
-0.26499064
-0.2649929
-0.26499544
-0.26499827
-0.26500139
-0.2650048
-0.2650085
-0.26501245
-0.2650166
-0.26502089
-0.26502522
-0.26502952
-0.2650337
-0.26503779
-0.26504191
-0.26504652
-0.26505257
-0.26506185
-0.26507745
-0.26510425
-0.26514915
-0.2652206
-0.26532682
-0.26547277
-0.26565726
-0.26587131
-0.26609855
-0.26631755
-0.26650467
-0.26663674
-0.26669278
-0.26665509
-0.26650915
-0.26624411
-0.26584761
-0.26530863
-0.2646109
-0.26373569
-0.26263889
-0.26128889
-0.25959344
-0.25752841
-0.25500407
-0.25239009
-0.24994615
-0.24890475
-0.25053192
-0.25712269
-0.26317275
-0.26404722
-0.24848936
-0.21432643
-0.15938284
-0.10863495
-0.055143162
-0.26538816
-0.265388
-0.26538782
-0.26538763
-0.26538745
-0.26538727
-0.2653871
-0.26538695
-0.26538684
-0.26538677
-0.26538676
-0.26538682
-0.26538696
-0.26538718
-0.26538749
-0.26538787
-0.2653883
-0.26538876
-0.26538917
-0.26538946
-0.26538954
-0.26538929
-0.26538862
-0.26538745
-0.26538583
-0.26538403
-0.26538268
-0.26538312
-0.26538767
-0.26540012
-0.26542591
-0.26547188
-0.26554487
-0.26564902
-0.26578344
-0.2659409
-0.26610751
-0.26626487
-0.26639219
-0.26646868
-0.26647503
-0.26639438
-0.26621232
-0.26591708
-0.2654941
-0.26493015
-0.26420372
-0.2632887
-0.26212371
-0.26064934
-0.25875511
-0.25638892
-0.25343313
-0.25019931
-0.24712392
-0.24534749
-0.24659309
-0.25152995
-0.25322543
-0.24928864
-0.23130415
-0.20154423
-0.15152443
-0.10890935
-0.060460525
-0.2657904
-0.26578949
-0.26578843
-0.2657873
-0.26578609
-0.26578476
-0.26578334
-0.2657818
-0.26578017
-0.26577843
-0.2657766
-0.26577466
-0.26577262
-0.26577048
-0.26576822
-0.26576582
-0.26576326
-0.26576048
-0.26575742
-0.26575399
-0.26575008
-0.26574555
-0.26574027
-0.26573409
-0.26572697
-0.26571898
-0.2657105
-0.26570239
-0.26569631
-0.26569508
-0.26570263
-0.26572448
-0.26576577
-0.2658304
-0.2659172
-0.26602032
-0.26612791
-0.2662245
-0.26629216
-0.26631273
-0.26626883
-0.26614476
-0.26592628
-0.26560071
-0.26515097
-0.26456127
-0.26380257
-0.26283795
-0.26157523
-0.2599374
-0.25779951
-0.25505551
-0.25152491
-0.24761407
-0.24380162
-0.24209024
-0.24225715
-0.24362096
-0.24182312
-0.23514019
-0.21553987
-0.18900403
-0.1453468
-0.10868411
-0.064817835
-0.26617326
-0.26617173
-0.26616992
-0.266168
-0.26616591
-0.26616362
-0.26616112
-0.26615841
-0.26615549
-0.26615232
-0.26614892
-0.26614528
-0.26614136
-0.26613718
-0.26613269
-0.26612788
-0.26612269
-0.26611708
-0.26611096
-0.26610422
-0.26609674
-0.26608835
-0.26607887
-0.2660681
-0.26605587
-0.2660421
-0.2660269
-0.26601073
-0.26599464
-0.26598057
-0.26597145
-0.26597062
-0.26598629
-0.26601381
-0.26605426
-0.26610513
-0.26615528
-0.26619218
-0.26620057
-0.26616498
-0.2660701
-0.26590159
-0.26564518
-0.26528748
-0.26480791
-0.26418846
-0.26339017
-0.26235101
-0.26095295
-0.25911257
-0.25666547
-0.25342634
-0.24920973
-0.24491947
-0.24106612
-0.23816951
-0.23605037
-0.23523023
-0.23075427
-0.2204771
-0.20311851
-0.17832384
-0.13958174
-0.10813695
-0.06840165
-0.26653104
-0.26652902
-0.26652664
-0.2665241
-0.26652133
-0.26651829
-0.26651497
-0.26651134
-0.26650739
-0.26650311
-0.26649847
-0.26649346
-0.26648806
-0.26648223
-0.26647595
-0.26646917
-0.26646184
-0.26645389
-0.26644522
-0.26643571
-0.2664252
-0.2664135
-0.26640037
-0.26638554
-0.26636873
-0.26634971
-0.26632833
-0.26630469
-0.26627928
-0.26625322
-0.26622955
-0.26620491
-0.26618615
-0.26618002
-0.26618016
-0.26618457
-0.26618144
-0.26616161
-0.26611227
-0.26602074
-0.26587386
-0.26565871
-0.26536077
-0.26496566
-0.26444874
-0.2637901
-0.26292933
-0.26177747
-0.26020321
-0.25809803
-0.25526998
-0.25147184
-0.2471673
-0.24237047
-0.23745113
-0.23309502
-0.22999966
-0.22660814
-0.21900228
-0.20957439
-0.19140298
-0.16886442
-0.13462014
-0.10732671
-0.071223497
-0.26685489
-0.26685257
-0.26684982
-0.26684689
-0.26684368
-0.26684015
-0.26683628
-0.26683204
-0.26682742
-0.26682239
-0.26681693
-0.26681099
-0.26680456
-0.2667976
-0.26679005
-0.26678188
-0.266773
-0.26676333
-0.26675275
-0.26674112
-0.26672824
-0.26671386
-0.26669768
-0.26667935
-0.26665844
-0.26663452
-0.26660716
-0.26657605
-0.26654113
-0.26650271
-0.2664608
-0.26642288
-0.26638822
-0.26634723
-0.26630221
-0.26626147
-0.26620614
-0.26613067
-0.26602411
-0.2658759
-0.26567455
-0.26540814
-0.26506082
-0.26461652
-0.26404713
-0.26332663
-0.26236078
-0.26106318
-0.25924897
-0.25680399
-0.25360386
-0.2497198
-0.244766
-0.23894133
-0.23315127
-0.22828079
-0.22324995
-0.21756952
-0.20947468
-0.19874248
-0.18138886
-0.16072199
-0.13000086
-0.10619285
-0.073364027
-0.2671466
-0.26714415
-0.26714125
-0.26713815
-0.26713477
-0.26713103
-0.26712693
-0.26712243
-0.26711751
-0.26711214
-0.26710628
-0.26709991
-0.26709298
-0.26708544
-0.26707724
-0.26706831
-0.26705858
-0.26704793
-0.26703622
-0.26702327
-0.26700886
-0.26699268
-0.26697437
-0.26695346
-0.2669294
-0.26690157
-0.26686929
-0.26683189
-0.26678886
-0.26673994
-0.26668504
-0.2666262
-0.26655782
-0.26648828
-0.26641741
-0.26632827
-0.26622426
-0.2660949
-0.26593175
-0.26572526
-0.26546474
-0.26513829
-0.26472646
-0.26421306
-0.26356302
-0.2627368
-0.26159944
-0.26012
-0.25796258
-0.2553609
-0.25194338
-0.24732265
-0.24137298
-0.23501447
-0.22884034
-0.22239509
-0.21601762
-0.2091688
-0.20022119
-0.18934233
-0.17235446
-0.15333489
-0.12578113
-0.10483807
-0.074890561
-0.2674029
-0.26740053
-0.26739773
-0.26739473
-0.26739144
-0.2673878
-0.26738381
-0.26737942
-0.26737461
-0.26736935
-0.2673636
-0.26735731
-0.26735045
-0.26734296
-0.26733478
-0.26732582
-0.267316
-0.26730516
-0.26729317
-0.26727978
-0.26726473
-0.26724765
-0.26722808
-0.26720543
-0.26717899
-0.26714789
-0.26711116
-0.26706774
-0.26701657
-0.26695673
-0.26688752
-0.2668089
-0.26671994
-0.26662003
-0.26651004
-0.26638203
-0.26623188
-0.26605109
-0.26583141
-0.26556321
-0.26523499
-0.26483328
-0.26433005
-0.26371439
-0.2629385
-0.26192225
-0.26064082
-0.25883108
-0.25667998
-0.25379487
-0.24969266
-0.24395774
-0.23744323
-0.23080077
-0.22334082
-0.21603822
-0.20865078
-0.2013368
-0.19180279
-0.18055961
-0.16425238
-0.14674618
-0.12178534
-0.10322325
-0.075853166
-0.2676315
-0.26762942
-0.26762695
-0.26762431
-0.26762141
-0.26761821
-0.26761467
-0.26761079
-0.26760652
-0.26760183
-0.26759669
-0.26759106
-0.26758488
-0.26757809
-0.26757063
-0.2675624
-0.26755329
-0.26754314
-0.26753176
-0.26751888
-0.26750418
-0.2674872
-0.26746737
-0.26744398
-0.26741611
-0.26738267
-0.26734234
-0.26729366
-0.26723504
-0.26716492
-0.26708189
-0.26698487
-0.26687286
-0.26674477
-0.26659897
-0.26643061
-0.26623397
-0.2660007
-0.26572077
-0.26538192
-0.26497056
-0.26446393
-0.26383765
-0.26307887
-0.26210573
-0.26093999
-0.25942049
-0.25765896
-0.25524362
-0.25163693
-0.24645125
-0.23995229
-0.23325146
-0.22539105
-0.21712404
-0.2093911
-0.20183015
-0.19376649
-0.18376832
-0.17253138
-0.15684556
-0.14063659
-0.11796198
-0.1014043
-0.076313839
-0.26783754
-0.26783597
-0.26783411
-0.26783211
-0.26782991
-0.26782748
-0.26782479
-0.26782182
-0.26781854
-0.26781493
-0.26781095
-0.26780656
-0.2678017
-0.26779632
-0.26779033
-0.26778363
-0.26777609
-0.26776752
-0.26775771
-0.26774633
-0.26773298
-0.26771712
-0.26769806
-0.26767492
-0.26764657
-0.26761163
-0.26756845
-0.2675151
-0.26744946
-0.26736934
-0.26727261
-0.2671574
-0.26702212
-0.26686521
-0.2666845
-0.26647566
-0.26623177
-0.26594311
-0.26559564
-0.26517205
-0.26465203
-0.26402311
-0.26321549
-0.26227784
-0.26112712
-0.25988029
-0.25838658
-0.25632963
-0.25316897
-0.24860521
-0.24229082
-0.23573287
-0.22782263
-0.2190458
-0.21089976
-0.20315599
-0.19495424
-0.18646383
-0.17624097
-0.165026
-0.1500079
-0.13498832
-0.11426013
-0.099380377
-0.076322085
-0.26803513
-0.2680343
-0.26803332
-0.26803226
-0.26803108
-0.26802977
-0.26802831
-0.26802668
-0.26802486
-0.26802284
-0.26802057
-0.26801801
-0.26801513
-0.26801184
-0.26800807
-0.26800369
-0.26799855
-0.26799245
-0.26798511
-0.26797615
-0.2679651
-0.2679513
-0.26793393
-0.26791191
-0.26788388
-0.26784816
-0.26780272
-0.2677452
-0.26767292
-0.26758306
-0.2674728
-0.26733958
-0.26718105
-0.26699517
-0.26677922
-0.26652846
-0.26623362
-0.26588216
-0.26545183
-0.26491765
-0.2642763
-0.26344398
-0.26253185
-0.26142561
-0.26030046
-0.25905654
-0.25718953
-0.25444442
-0.25034451
-0.24427711
-0.23803735
-0.23032769
-0.22129489
-0.21299252
-0.20488733
-0.19669809
-0.18821447
-0.17941325
-0.16904212
-0.15798255
-0.14362232
-0.12964899
-0.11062636
-0.097174111
-0.075930774
-0.26824033
-0.26824048
-0.26824066
-0.26824083
-0.268241
-0.26824117
-0.26824133
-0.26824146
-0.26824157
-0.26824163
-0.26824161
-0.26824149
-0.26824119
-0.26824067
-0.26823982
-0.2682385
-0.26823653
-0.26823367
-0.26822959
-0.26822385
-0.26821585
-0.26820484
-0.26818981
-0.26816949
-0.26814226
-0.26810613
-0.26805868
-0.2679971
-0.26791819
-0.26781854
-0.26769467
-0.26754324
-0.26736129
-0.26714599
-0.26689346
-0.26659752
-0.2662438
-0.26581749
-0.26528878
-0.26462951
-0.26382656
-0.26293017
-0.26192589
-0.26088596
-0.2597317
-0.25803508
-0.25551384
-0.25191181
-0.24603106
-0.24012421
-0.23274935
-0.22362351
-0.21524075
-0.20703587
-0.19864162
-0.1903008
-0.18155894
-0.17254959
-0.16216163
-0.15130667
-0.13759396
-0.1245718
-0.10703211
-0.09481144
-0.075161592
-0.26848039
-0.26848174
-0.26848333
-0.268485
-0.2684868
-0.26848877
-0.26849089
-0.26849316
-0.26849559
-0.26849817
-0.26850086
-0.26850364
-0.26850645
-0.26850922
-0.26851183
-0.26851412
-0.26851588
-0.2685168
-0.2685165
-0.26851443
-0.2685099
-0.268502
-0.26848955
-0.26847104
-0.26844461
-0.26840794
-0.26835827
-0.26829235
-0.26820653
-0.26809685
-0.26795928
-0.26779116
-0.26758435
-0.26733834
-0.26704819
-0.26670406
-0.26628557
-0.26578608
-0.26513281
-0.26437812
-0.26352113
-0.26263387
-0.26168248
-0.26054412
-0.25891382
-0.25655732
-0.25292492
-0.24753073
-0.2418225
-0.2348314
-0.22587051
-0.21748786
-0.20927208
-0.20086156
-0.19238849
-0.18387151
-0.17496902
-0.16585819
-0.15552145
-0.14492648
-0.13184252
-0.11967575
-0.10344406
-0.092286896
-0.074068419
-0.26879216
-0.26879485
-0.26879802
-0.26880137
-0.268805
-0.26880897
-0.26881327
-0.26881792
-0.26882292
-0.26882826
-0.26883392
-0.26883987
-0.26884605
-0.26885235
-0.26885865
-0.26886474
-0.26887036
-0.26887515
-0.26887862
-0.26888013
-0.26887884
-0.26887368
-0.26886326
-0.26884587
-0.26881937
-0.26878116
-0.26872818
-0.26865684
-0.26856316
-0.26844291
-0.26829378
-0.2681
-0.26786649
-0.26759475
-0.26726453
-0.266873
-0.26637656
-0.26579658
-0.26513693
-0.2643467
-0.26352047
-0.26265257
-0.26153471
-0.25997025
-0.25763221
-0.25405618
-0.24887065
-0.24314966
-0.2367766
-0.22788018
-0.21957492
-0.21148067
-0.20309539
-0.19464281
-0.18605733
-0.17743576
-0.16844179
-0.15929844
-0.14908176
-0.13877965
-0.12630161
-0.11491678
-0.099840578
-0.089621034
-0.072673305
-0.26922767
-0.26923169
-0.26923643
-0.26924143
-0.26924687
-0.2692528
-0.26925924
-0.2692662
-0.2692737
-0.26928171
-0.26929023
-0.2692992
-0.26930854
-0.26931814
-0.26932782
-0.26933735
-0.26934638
-0.26935447
-0.26936103
-0.2693653
-0.26936629
-0.26936274
-0.26935309
-0.2693354
-0.26930732
-0.26926602
-0.26920825
-0.26913025
-0.26902832
-0.26889384
-0.26871859
-0.26851447
-0.26826491
-0.26795739
-0.26758444
-0.2671374
-0.26663403
-0.26600417
-0.26533872
-0.26461167
-0.26375715
-0.26269299
-0.26116298
-0.25882407
-0.25529638
-0.25026495
-0.24465883
-0.23854174
-0.2302775
-0.22157691
-0.21376948
-0.20535745
-0.19687809
-0.18833455
-0.17967243
-0.17098348
-0.16195371
-0.1528431
-0.14279299
-0.13280985
-0.12091448
-0.11024616
-0.096200971
-0.0868144
-0.071010724
-0.26985535
-0.26986049
-0.26986655
-0.26987295
-0.26987989
-0.26988745
-0.26989565
-0.2699045
-0.269914
-0.26992414
-0.26993489
-0.26994618
-0.26995791
-0.2699699
-0.26998195
-0.26999374
-0.27000485
-0.27001473
-0.27002267
-0.27002774
-0.27002878
-0.27002434
-0.27001263
-0.26999149
-0.26995831
-0.26990998
-0.26984325
-0.26975437
-0.26963106
-0.26947947
-0.26930157
-0.26907714
-0.26879441
-0.26846048
-0.26807979
-0.26760921
-0.26706758
-0.26646913
-0.26579056
-0.26499772
-0.26395891
-0.2624503
-0.26011452
-0.25664423
-0.25174224
-0.24622178
-0.24029201
-0.23228794
-0.22388654
-0.21593406
-0.20757727
-0.19909548
-0.19054033
-0.18193396
-0.17322147
-0.16450539
-0.15548913
-0.1464601
-0.13661582
-0.12696963
-0.1156334
-0.10562892
-0.092509083
-0.083874078
-0.069097256
-0.27074369
-0.27074954
-0.27075641
-0.27076366
-0.2707715
-0.27078003
-0.27078924
-0.27079915
-0.27080975
-0.270821
-0.27083285
-0.27084519
-0.27085788
-0.2708707
-0.27088336
-0.27089545
-0.27090645
-0.27091567
-0.27092224
-0.27092506
-0.27092273
-0.27091358
-0.27089558
-0.27086626
-0.27082235
-0.27075975
-0.27068495
-0.27059461
-0.27048512
-0.27031721
-0.27007711
-0.2698135
-0.26952129
-0.2691624
-0.26873609
-0.26825073
-0.26770232
-0.26707342
-0.26631834
-0.26531677
-0.26381102
-0.26149714
-0.25809312
-0.25332165
-0.24786428
-0.24206471
-0.23430496
-0.22601085
-0.21815421
-0.20974708
-0.20131276
-0.19274868
-0.18410324
-0.17544151
-0.16669993
-0.15798907
-0.1490262
-0.14012087
-0.13051195
-0.12121596
-0.11041739
-0.10103262
-0.088750472
-0.080804119
-0.066955454
-0.27198806
-0.27199396
-0.27200089
-0.27200818
-0.27201603
-0.27202452
-0.27203365
-0.27204341
-0.27205375
-0.27206463
-0.27207594
-0.27208754
-0.27209921
-0.27211068
-0.27212154
-0.2721313
-0.27213929
-0.27214468
-0.27214639
-0.27214313
-0.27213329
-0.2721149
-0.27208547
-0.27204213
-0.27198641
-0.27191542
-0.27183397
-0.27171607
-0.27152843
-0.27131719
-0.27108476
-0.2707907
-0.27044691
-0.27004268
-0.2695828
-0.26906282
-0.26846125
-0.26773495
-0.26674454
-0.26525787
-0.262969
-0.25964757
-0.25501679
-0.24960989
-0.24391787
-0.23638946
-0.22817275
-0.22031245
-0.21200816
-0.20352701
-0.19493856
-0.18625955
-0.17754028
-0.16883954
-0.16009241
-0.15141786
-0.14254367
-0.13379638
-0.1244472
-0.11551153
-0.10523121
-0.096430446
-0.084913299
-0.077605459
-0.064598183
-0.27365569
-0.2736611
-0.2736674
-0.27367399
-0.27368103
-0.27368858
-0.2736966
-0.27370504
-0.27371385
-0.27372289
-0.27373203
-0.27374104
-0.27374962
-0.27375737
-0.27376379
-0.2737682
-0.27376976
-0.27376741
-0.27375985
-0.27374546
-0.27372209
-0.27368752
-0.27364386
-0.27358511
-0.27351428
-0.27341854
-0.27325808
-0.27307184
-0.2728733
-0.27262342
-0.27232615
-0.27197512
-0.27157259
-0.27111835
-0.27060257
-0.2700132
-0.26929134
-0.26830482
-0.26681758
-0.26456833
-0.26130835
-0.25684307
-0.2514843
-0.2458863
-0.23859533
-0.23043829
-0.22255374
-0.2142831
-0.20579991
-0.19714355
-0.188404
-0.17962806
-0.1708419
-0.16211594
-0.15338459
-0.14477372
-0.13601862
-0.12745917
-0.11838979
-0.10982256
-0.10004421
-0.091798949
-0.080986623
-0.074280798
-0.06203935
-0.27583549
-0.27584001
-0.27584522
-0.27585059
-0.27585623
-0.27586214
-0.27586825
-0.27587446
-0.27588065
-0.27588661
-0.27589212
-0.27589682
-0.2759003
-0.275902
-0.27590121
-0.27589703
-0.27588835
-0.27587379
-0.27585148
-0.2758195
-0.27577892
-0.27572434
-0.27565336
-0.27556015
-0.27542508
-0.27526182
-0.27507382
-0.2748465
-0.27457559
-0.27425458
-0.273883
-0.27346334
-0.27299187
-0.2724636
-0.27185994
-0.27112014
-0.27011321
-0.26862044
-0.26637526
-0.26320734
-0.25883862
-0.2535759
-0.24803454
-0.24098156
-0.23288195
-0.2249455
-0.216684
-0.20815246
-0.19943553
-0.1905967
-0.18170907
-0.17283022
-0.16398604
-0.15525069
-0.1465566
-0.1380357
-0.12942761
-0.12108218
-0.11231034
-0.104119
-0.094829662
-0.087117447
-0.076961277
-0.07082967
-0.059287965
-0.27867385
-0.27867704
-0.27868064
-0.27868419
-0.27868774
-0.27869121
-0.27869448
-0.27869738
-0.27869967
-0.27870107
-0.2787012
-0.27869957
-0.27869556
-0.27868838
-0.27867708
-0.27866043
-0.27863696
-0.27860477
-0.2785618
-0.27850715
-0.27843644
-0.27834258
-0.27822038
-0.27807096
-0.27789344
-0.27767948
-0.27742337
-0.27711966
-0.27676638
-0.27636502
-0.27591327
-0.27540887
-0.27484803
-0.27420745
-0.27342489
-0.27237078
-0.27084748
-0.2686005
-0.26547784
-0.26133005
-0.2561117
-0.25069005
-0.24371362
-0.23560532
-0.22758155
-0.21928958
-0.21067693
-0.20185437
-0.1928888
-0.18385332
-0.17481416
-0.16583936
-0.15694936
-0.14822178
-0.1395869
-0.13118137
-0.12274648
-0.11463928
-0.10618155
-0.098373519
-0.08956393
-0.082367689
-0.072829
-0.067252118
-0.056355156
-0.28239289
-0.28239399
-0.28239503
-0.28239574
-0.28239602
-0.28239573
-0.28239464
-0.28239247
-0.28238888
-0.28238343
-0.28237555
-0.28236456
-0.28234957
-0.28232953
-0.28230312
-0.28226873
-0.28222442
-0.2821679
-0.28209661
-0.28200722
-0.28189265
-0.28175202
-0.28158446
-0.28138163
-0.28113839
-0.2808497
-0.28051234
-0.28012524
-0.27968584
-0.27919234
-0.27864432
-0.27803351
-0.27733296
-0.27647704
-0.27534085
-0.27373362
-0.27143633
-0.26826048
-0.26416792
-0.25894357
-0.25340134
-0.24658693
-0.23858732
-0.23047364
-0.22216135
-0.21344515
-0.20448159
-0.19534756
-0.18611995
-0.17688013
-0.16769157
-0.15862711
-0.14970465
-0.14100374
-0.13245107
-0.12418658
-0.11595069
-0.10810495
-0.099977879
-0.092561283
-0.084226192
-0.077533202
-0.068582613
-0.063547843
-0.053247465
-0.28730283
-0.28730045
-0.28729729
-0.28729337
-0.2872884
-0.28728211
-0.28727415
-0.28726411
-0.28725149
-0.28723566
-0.28721582
-0.28719104
-0.28716013
-0.28712169
-0.287074
-0.28701501
-0.28694228
-0.28685296
-0.28674371
-0.28661075
-0.28644979
-0.28625626
-0.286025
-0.28575118
-0.28543074
-0.28506021
-0.284636
-0.28415552
-0.28361752
-0.2830179
-0.28234423
-0.28156406
-0.28060785
-0.27935234
-0.2776184
-0.27519901
-0.27192586
-0.2677083
-0.26249548
-0.25673644
-0.25005234
-0.24189493
-0.23378578
-0.22538682
-0.21656252
-0.20741548
-0.1980595
-0.18858806
-0.1790844
-0.16963409
-0.16029986
-0.15115718
-0.14221978
-0.13356754
-0.12512237
-0.11702581
-0.10901528
-0.10145444
-0.093675468
-0.086659577
-0.078797876
-0.072598614
-0.064216048
-0.059712748
-0.049974552
-0.29378663
-0.29377884
-0.29376915
-0.29375811
-0.29374514
-0.29372978
-0.29371154
-0.29368986
-0.29366402
-0.29363315
-0.29359621
-0.29355195
-0.29349886
-0.29343512
-0.2933586
-0.29326678
-0.29315673
-0.29302503
-0.29286781
-0.29268072
-0.29245919
-0.29219859
-0.29189421
-0.29154128
-0.29113528
-0.29067249
-0.29014976
-0.28956292
-0.28890388
-0.28815439
-0.28727528
-0.28619228
-0.28478295
-0.28287847
-0.28028727
-0.27685246
-0.27248797
-0.26714342
-0.26110853
-0.25440208
-0.24628759
-0.23797269
-0.22941905
-0.22024347
-0.21080474
-0.20114456
-0.19135006
-0.18151635
-0.17172557
-0.16206501
-0.1525948
-0.14338999
-0.13445929
-0.12588138
-0.11757189
-0.10967228
-0.10191514
-0.094663655
-0.087251959
-0.080647635
-0.073262591
-0.067549764
-0.059723725
-0.055740377
-0.046553135
-0.30222428
-0.30220871
-0.30218969
-0.30216854
-0.30214428
-0.30211619
-0.30208366
-0.30204588
-0.30200193
-0.30195069
-0.30189082
-0.30182073
-0.30173862
-0.30164222
-0.30152893
-0.30139585
-0.30123963
-0.30105648
-0.30084225
-0.30059246
-0.30030224
-0.29996655
-0.2995805
-0.29913935
-0.29863835
-0.29807214
-0.2974331
-0.29670788
-0.29587103
-0.29487537
-0.2936401
-0.29204207
-0.28991761
-0.28709034
-0.28340844
-0.27879758
-0.2732152
-0.26688437
-0.25989933
-0.25166452
-0.24298662
-0.23406336
-0.22455055
-0.21473854
-0.20469998
-0.19450758
-0.18426034
-0.17405492
-0.16397725
-0.15411515
-0.14452538
-0.13528102
-0.12638439
-0.11791125
-0.10976956
-0.10209883
-0.094625418
-0.087709563
-0.080686661
-0.074506707
-0.067606457
-0.062375367
-0.055104108
-0.051642393
-0.042954242
-0.31304037
-0.31301445
-0.31298308
-0.3129486
-0.31290957
-0.312865
-0.31281405
-0.31275569
-0.31268868
-0.31261147
-0.31252274
-0.31242385
-0.31230941
-0.31217012
-0.31200954
-0.31182829
-0.31161892
-0.31137711
-0.31109857
-0.31077854
-0.31041191
-0.30999331
-0.30951696
-0.30897623
-0.30836261
-0.30766351
-0.30685843
-0.30591274
-0.30476915
-0.30333841
-0.30149397
-0.29907686
-0.29591901
-0.29188455
-0.28688684
-0.28092995
-0.27415546
-0.26675132
-0.25817018
-0.2490785
-0.23966773
-0.22970404
-0.21942186
-0.20887945
-0.19817743
-0.18741737
-0.17669719
-0.16611671
-0.15576097
-0.14571556
-0.13603205
-0.12677923
-0.11795152
-0.10961989