/*--------------------------------*- C++ -*----------------------------------*\
  =========                 |
  \\      /  F ield         | OpenFOAM: The Open Source CFD Toolbox
   \\    /   O peration     | Website:  https://openfoam.org
    \\  /    A nd           | Version:  13
     \\/     M anipulation  |
\*---------------------------------------------------------------------------*/
FoamFile
{
    format      ascii;
    class       volScalarField;
    location    "28.101323";
    object      pPrime2Mean;
}
// * * * * * * * * * * * * * * * * * * * * * * * * * * * * * * * * * * * * * //

dimensions      [0 4 -4 0 0 0 0];

internalField   nonuniform List<scalar> 
17140
(
11037.768
11037.768
11037.768
11037.768
11037.768
11037.767
11037.766
11037.764
11037.761
11037.758
11037.754
11037.748
11037.74
11037.731
11037.719
11037.703
11037.684
11037.658
11037.626
11037.585
11037.532
11037.464
11037.378
11037.266
11037.124
11036.941
11036.707
11036.409
11036.029
11035.549
11034.943
11034.181
11033.226
11032.033
11030.547
11028.705
11026.428
11023.627
11020.199
11016.023
11010.965
11004.87
10997.566
10988.858
10978.529
10966.339
10952.022
10935.289
10915.823
10893.279
10867.284
10837.434
10803.293
10764.391
10720.222
10670.241
10613.857
10550.436
10479.283
10399.663
10310.753
10211.701
10101.513
9979.211
9843.6267
11038.045
11038.045
11038.045
11038.045
11038.045
11038.044
11038.043
11038.041
11038.038
11038.035
11038.03
11038.025
11038.017
11038.007
11037.995
11037.979
11037.959
11037.933
11037.901
11037.859
11037.805
11037.737
11037.649
11037.537
11037.393
11037.21
11036.976
11036.677
11036.298
11035.818
11035.213
11034.452
11033.499
11032.307
11030.824
11028.983
11026.708
11023.91
11020.483
11016.31
11011.255
11005.164
10997.865
10989.162
10978.839
10966.655
10952.346
10935.621
10916.164
10893.63
10867.647
10837.81
10803.685
10764.801
10720.653
10670.694
10614.336
10550.944
10479.824
10400.24
10311.371
10212.364
10102.227
9979.9831
9844.4565
11038.731
11038.731
11038.732
11038.731
11038.731
11038.73
11038.728
11038.727
11038.724
11038.72
11038.715
11038.709
11038.701
11038.691
11038.678
11038.662
11038.641
11038.614
11038.58
11038.537
11038.482
11038.412
11038.323
11038.209
11038.064
11037.879
11037.644
11037.346
11036.967
11036.489
11035.886
11035.128
11034.177
11032.989
11031.509
11029.671
11027.4
11024.606
11021.185
11017.018
11011.971
11005.889
10998.6
10989.909
10979.601
10967.433
10953.142
10936.438
10917.003
10894.494
10868.54
10838.736
10804.649
10765.809
10721.71
10671.809
10615.515
10552.195
10481.155
10401.661
10312.891
10213.995
10103.982
9981.8779
9846.4915
11039.841
11039.841
11039.841
11039.841
11039.84
11039.839
11039.838
11039.836
11039.833
11039.829
11039.824
11039.817
11039.809
11039.798
11039.784
11039.766
11039.744
11039.716
11039.681
11039.636
11039.58
11039.508
11039.417
11039.302
11039.156
11038.97
11038.735
11038.437
11038.06
11037.584
11036.984
11036.229
11035.282
11034.098
11032.622
11030.79
11028.525
11025.737
11022.324
11018.167
11013.131
11007.064
10999.791
10991.121
10980.835
10968.694
10954.433
10937.76
10918.361
10895.894
10869.986
10840.238
10806.213
10767.444
10723.427
10673.618
10617.428
10554.225
10483.317
10403.968
10315.36
10216.644
10106.832
9984.9545
9849.7943
11041.39
11041.39
11041.39
11041.39
11041.389
11041.388
11041.386
11041.384
11041.381
11041.376
11041.371
11041.364
11041.355
11041.343
11041.329
11041.311
11041.288
11041.259
11041.222
11041.176
11041.118
11041.045
11040.953
11040.837
11040.69
11040.505
11040.27
11039.974
11039.599
11039.125
11038.528
11037.777
11036.834
11035.654
11034.184
11032.358
11030.1
11027.322
11023.92
11019.777
11014.757
11008.709
11001.461
10992.818
10982.564
10970.459
10956.237
10939.609
10920.261
10897.852
10872.011
10842.339
10808.403
10769.735
10725.832
10676.153
10620.11
10557.072
10486.348
10407.204
10318.824
10220.361
10110.83
9989.2718
9854.4299
11043.394
11043.394
11043.394
11043.393
11043.393
11043.391
11043.389
11043.387
11043.384
11043.379
11043.373
11043.366
11043.357
11043.345
11043.33
11043.311
11043.288
11043.258
11043.221
11043.175
11043.116
11043.043
11042.951
11042.834
11042.688
11042.504
11042.27
11041.976
11041.603
11041.132
11040.538
11039.791
11038.852
11037.678
11036.214
11034.395
11032.147
11029.38
11025.993
11021.867
11016.869
11010.847
11003.628
10995.021
10984.808
10972.748
10958.578
10942.008
10922.726
10900.392
10874.639
10845.067
10811.246
10772.71
10728.957
10679.448
10623.597
10560.773
10490.289
10411.412
10323.329
10225.196
10116.033
9994.8895
9860.4642
11045.873
11045.873
11045.873
11045.872
11045.871
11045.87
11045.868
11045.865
11045.862
11045.857
11045.851
11045.844
11045.835
11045.823
11045.808
11045.789
11045.766
11045.736
11045.699
11045.653
11045.595
11045.522
11045.431
11045.316
11045.171
11044.988
11044.757
11044.464
11044.094
11043.627
11043.036
11042.292
11041.358
11040.189
11038.732
11036.922
11034.685
11031.933
11028.563
11024.459
11019.486
11013.495
11006.314
10997.75
10987.586
10975.583
10961.476
10944.978
10925.779
10903.539
10877.895
10848.449
10814.772
10776.4
10732.834
10683.537
10627.923
10565.367
10495.18
10416.636
10328.923
10231.199
10122.495
10001.869
9867.9659
11048.85
11048.85
11048.85
11048.85
11048.849
11048.847
11048.845
11048.843
11048.839
11048.835
11048.829
11048.822
11048.813
11048.801
11048.786
11048.768
11048.745
11048.716
11048.68
11048.635
11048.578
11048.507
11048.417
11048.304
11048.161
11047.981
11047.752
11047.462
11047.095
11046.63
11046.043
11045.303
11044.373
11043.21
11041.76
11039.961
11037.737
11035.001
11031.651
11027.572
11022.631
11016.677
11009.54
11001.027
10990.922
10978.985
10964.954
10948.544
10929.443
10907.319
10881.807
10852.512
10819.009
10780.836
10737.496
10688.453
10633.126
10570.891
10501.065
10422.921
10335.653
10238.425
10130.274
10010.273
9877.0031
11052.354
11052.354
11052.354
11052.354
11052.353
11052.351
11052.349
11052.347
11052.343
11052.339
11052.333
11052.326
11052.318
11052.306
11052.292
11052.275
11052.253
11052.225
11052.19
11052.147
11052.091
11052.022
11051.935
11051.824
11051.683
11051.505
11051.279
11050.991
11050.627
11050.165
11049.581
11048.844
11047.919
11046.763
11045.321
11043.533
11041.323
11038.606
11035.28
11031.23
11026.325
11020.414
11013.328
11004.873
10994.836
10982.976
10969.035
10952.727
10933.745
10911.756
10886.4
10857.286
10823.989
10786.05
10742.975
10694.233
10639.244
10577.387
10507.984
10430.312
10343.569
10246.925
10139.428
10020.167
9887.6483
11056.415
11056.415
11056.414
11056.414
11056.413
11056.411
11056.41
11056.407
11056.404
11056.4
11056.394
11056.387
11056.379
11056.368
11056.355
11056.338
11056.317
11056.29
11056.257
11056.214
11056.161
11056.093
11056.008
11055.899
11055.761
11055.585
11055.36
11055.075
11054.713
11054.253
11053.672
11052.939
11052.02
11050.869
11049.437
11047.661
11045.468
11042.771
11039.471
11035.454
11030.589
11024.727
11017.698
11009.31
10999.349
10987.579
10973.74
10957.552
10938.707
10916.877
10891.703
10862.798
10829.74
10792.073
10749.307
10700.912
10646.314
10584.896
10515.982
10438.856
10352.723
10256.757
10150.021
10031.617
9899.9745
11061.058
11061.058
11061.057
11061.057
11061.056
11061.054
11061.052
11061.05
11061.047
11061.043
11061.038
11061.031
11061.023
11061.012
11061
11060.983
11060.963
11060.937
11060.904
11060.863
11060.811
11060.745
11060.661
11060.554
11060.417
11060.242
11060.02
11059.736
11059.375
11058.918
11058.339
11057.611
11056.696
11055.553
11054.131
11052.368
11050.193
11047.519
11044.248
11040.268
11035.447
11029.638
11022.672
11014.358
11004.484
10992.815
10979.094
10963.042
10944.355
10922.706
10897.742
10869.076
10836.292
10798.938
10756.524
10708.527
10654.376
10593.458
10525.105
10448.604
10363.168
10267.979
10162.113
10044.693
9914.0547
11066.308
11066.308
11066.307
11066.306
11066.305
11066.304
11066.302
11066.3
11066.296
11066.292
11066.287
11066.281
11066.273
11066.263
11066.25
11066.234
11066.214
11066.188
11066.156
11066.116
11066.064
11065.999
11065.915
11065.808
11065.672
11065.499
11065.277
11064.994
11064.635
11064.179
11063.603
11062.879
11061.97
11060.836
11059.425
11057.677
11055.521
11052.872
11049.633
11045.692
11040.921
11035.17
11028.273
11020.041
11010.263
10998.707
10985.118
10969.22
10950.712
10929.27
10904.544
10876.152
10843.679
10806.678
10764.664
10717.116
10663.471
10603.12
10535.399
10459.605
10374.958
10280.65
10175.77
10059.461
9929.9632
11072.182
11072.181
11072.181
11072.18
11072.179
11072.178
11072.176
11072.173
11072.17
11072.166
11072.161
11072.154
11072.146
11072.136
11072.123
11072.107
11072.087
11072.061
11072.029
11071.988
11071.937
11071.871
11071.788
11071.681
11071.545
11071.371
11071.15
11070.868
11070.51
11070.057
11069.484
11068.765
11067.863
11066.738
11065.34
11063.608
11061.474
11058.852
11055.649
11051.751
11047.032
11041.345
11034.524
11026.381
11016.709
11005.279
10991.838
10976.113
10957.806
10936.598
10912.14
10884.055
10851.932
10815.328
10773.762
10726.719
10673.64
10613.923
10546.912
10471.91
10388.15
10294.831
10191.055
10075.994
9947.7752
11078.694
11078.694
11078.693
11078.693
11078.692
11078.69
11078.688
11078.685
11078.682
11078.678
11078.673
11078.666
11078.658
11078.647
11078.634
11078.618
11078.597
11078.571
11078.539
11078.498
11078.446
11078.38
11078.296
11078.189
11078.052
11077.879
11077.657
11077.376
11077.02
11076.57
11076.002
11075.288
11074.395
11073.281
11071.897
11070.184
11068.073
11065.483
11062.317
11058.467
11053.805
11048.186
11041.447
11033.402
11023.848
11012.556
10999.28
10983.748
10965.667
10944.719
10920.561
10892.819
10861.086
10824.922
10783.855
10737.374
10684.926
10625.914
10559.693
10485.575
10402.802
10310.581
10208.035
10094.362
9967.5648
11085.861
11085.86
11085.86
11085.859
11085.858
11085.856
11085.854
11085.852
11085.848
11085.844
11085.838
11085.832
11085.823
11085.812
11085.799
11085.782
11085.761
11085.735
11085.702
11085.66
11085.608
11085.541
11085.456
11085.349
11085.212
11085.039
11084.819
11084.539
11084.186
11083.739
11083.176
11082.47
11081.587
11080.486
11079.119
11077.427
11075.343
11072.786
11069.662
11065.863
11061.262
11055.718
11049.068
11041.131
11031.705
11020.568
11007.474
10992.155
10974.324
10953.665
10929.839
10902.476
10871.174
10835.499
10794.983
10749.123
10697.371
10639.14
10573.793
10500.652
10418.97
10327.965
10226.775
10114.634
9989.4063
11093.7
11093.7
11093.699
11093.698
11093.697
11093.696
11093.693
11093.691
11093.687
11093.683
11093.677
11093.67
11093.661
11093.651
11093.637
11093.62
11093.599
11093.572
11093.539
11093.496
11093.443
11093.376
11093.291
11093.184
11093.048
11092.875
11092.656
11092.379
11092.029
11091.587
11091.032
11090.335
11089.463
11088.376
11087.027
11085.359
11083.305
11080.785
11077.706
11073.962
11069.429
11063.965
11057.412
11049.593
11040.309
11029.341
11016.448
11001.366
10983.809
10963.468
10940.008
10913.061
10882.232
10847.094
10807.185
10762.007
10711.021
10653.649
10589.264
10517.197
10436.715
10347.042
10247.34
10136.879
10013.372
11102.236
11102.236
11102.236
11102.235
11102.234
11102.232
11102.23
11102.227
11102.224
11102.219
11102.213
11102.206
11102.198
11102.187
11102.173
11102.156
11102.134
11102.108
11102.074
11102.032
11101.978
11101.911
11101.827
11101.72
11101.584
11101.413
11101.196
11100.922
11100.576
11100.141
11099.593
11098.906
11098.047
11096.977
11095.648
11094.006
11091.984
11089.504
11086.475
11082.791
11078.33
11072.954
11066.508
11058.818
11049.689
11038.907
11026.233
11011.41
10994.154
10974.162
10951.1
10924.609
10894.298
10859.747
10820.5
10776.068
10725.921
10669.489
10606.156
10535.265
10456.091
10367.874
10269.793
10161.165
10039.533
11111.498
11111.498
11111.497
11111.496
11111.495
11111.494
11111.492
11111.489
11111.485
11111.481
11111.475
11111.468
11111.46
11111.449
11111.435
11111.418
11111.396
11111.37
11111.336
11111.294
11111.241
11111.174
11111.09
11110.984
11110.85
11110.681
11110.467
11110.196
11109.856
11109.426
11108.887
11108.211
11107.366
11106.313
11105.007
11103.394
11101.407
11098.97
11095.994
11092.374
11087.992
11082.712
11076.382
11068.833
11059.875
11049.295
11036.861
11022.318
11005.391
10985.777
10963.15
10937.154
10907.408
10873.495
10834.97
10791.35
10742.116
10686.709
10624.522
10554.908
10477.157
10390.518
10294.196
10187.559
10067.96
11121.512
11121.512
11121.512
11121.511
11121.51
11121.508
11121.506
11121.503
11121.5
11121.496
11121.49
11121.483
11121.475
11121.464
11121.45
11121.433
11121.412
11121.386
11121.353
11121.311
11121.259
11121.193
11121.11
11121.006
11120.873
11120.707
11120.496
11120.23
11119.894
11119.472
11118.941
11118.277
11117.446
11116.413
11115.131
11113.548
11111.599
11109.208
11106.289
11102.739
11098.442
11093.266
11087.064
11079.669
11070.894
11060.534
11048.36
11034.123
11017.551
10998.347
10976.19
10950.733
10921.597
10888.377
10850.634
10807.895
10759.652
10705.357
10644.411
10576.18
10499.965
10415.032
10320.612
10216.126
10098.722
11132.303
11132.303
11132.303
11132.302
11132.301
11132.3
11132.298
11132.295
11132.292
11132.288
11132.282
11132.276
11132.267
11132.257
11132.243
11132.227
11132.206
11132.18
11132.148
11132.107
11132.056
11131.991
11131.91
11131.808
11131.678
11131.515
11131.308
11131.047
11130.718
11130.303
11129.782
11129.13
11128.316
11127.303
11126.047
11124.495
11122.586
11120.245
11117.387
11113.912
11109.707
11104.645
11098.581
11091.352
11082.777
11072.654
11060.761
11046.853
11030.664
11011.904
10990.255
10965.378
10936.902
10904.429
10867.53
10825.745
10778.574
10725.479
10665.873
10599.13
10524.569
10441.474
10349.101
10246.93
10131.885
11143.89
11143.89
11143.889
11143.889
11143.888
11143.886
11143.884
11143.882
11143.879
11143.875
11143.87
11143.863
11143.855
11143.845
11143.832
11143.817
11143.797
11143.772
11143.74
11143.701
11143.651
11143.589
11143.51
11143.41
11143.284
11143.125
11142.923
11142.668
11142.347
11141.942
11141.433
11140.795
11139.999
11139.007
11137.779
11136.261
11134.394
11132.106
11129.313
11125.919
11121.814
11116.875
11110.959
11103.91
11095.551
11085.684
11074.093
11060.54
11044.763
11026.479
11005.377
10981.123
10953.357
10921.688
10885.7
10844.943
10798.926
10747.121
10688.952
10623.808
10551.023
10469.898
10379.721
10280.034
10167.511
11156.287
11156.287
11156.287
11156.286
11156.286
11156.284
11156.283
11156.28
11156.277
11156.274
11156.269
11156.263
11156.255
11156.246
11156.233
11156.218
11156.199
11156.176
11156.146
11156.108
11156.061
11156.001
11155.925
11155.829
11155.708
11155.554
11155.359
11155.112
11154.8
11154.407
11153.912
11153.292
11152.516
11151.55
11150.352
11148.871
11147.049
11144.817
11142.093
11138.786
11134.789
11129.982
11124.227
11117.372
11109.244
11099.652
11088.386
11075.213
11059.878
11042.104
11021.587
10998.001
10970.995
10940.19
10905.183
10865.528
10820.749
10770.326
10713.695
10650.262
10579.377
10500.36
10412.53
10315.495
10205.662
11169.512
11169.512
11169.511
11169.511
11169.51
11169.509
11169.507
11169.505
11169.503
11169.499
11169.495
11169.489
11169.482
11169.473
11169.462
11169.448
11169.43
11169.408
11169.38
11169.345
11169.3
11169.243
11169.172
11169.08
11168.965
11168.817
11168.631
11168.394
11168.094
11167.715
11167.238
11166.637
11165.886
11164.949
11163.785
11162.346
11160.573
11158.402
11155.754
11152.54
11148.658
11143.993
11138.41
11131.762
11123.882
11114.586
11103.667
11090.901
11076.038
11058.807
11038.914
11016.04
10989.848
10959.972
10926.013
10887.539
10844.082
10795.134
10740.146
10678.539
10609.682
10532.911
10447.58
10353.373
10246.394
11183.585
11183.585
11183.584
11183.584
11183.583
11183.582
11183.581
11183.579
11183.577
11183.573
11183.569
11183.564
11183.558
11183.55
11183.539
11183.527
11183.51
11183.49
11183.464
11183.431
11183.389
11183.336
11183.268
11183.182
11183.073
11182.934
11182.756
11182.53
11182.244
11181.881
11181.423
11180.847
11180.123
11179.22
11178.095
11176.702
11174.986
11172.882
11170.316
11167.204
11163.446
11158.932
11153.534
11147.108
11139.494
11130.513
11119.966
11107.632
11093.268
11076.613
11057.382
11035.271
11009.952
10981.067
10948.226
10911.012
10868.964
10821.588
10768.349
10708.687
10641.986
10567.603
10484.927
10393.722
10289.762
11198.53
11198.53
11198.53
11198.53
11198.529
11198.528
11198.527
11198.525
11198.523
11198.52
11198.517
11198.512
11198.506
11198.499
11198.489
11198.478
11198.463
11198.444
11198.42
11198.389
11198.35
11198.3
11198.237
11198.156
11198.053
11197.921
11197.753
11197.539
11197.267
11196.921
11196.484
11195.933
11195.241
11194.374
11193.294
11191.954
11190.3
11188.272
11185.798
11182.796
11179.173
11174.822
11169.621
11163.432
11156.102
11147.456
11137.301
11125.422
11111.588
11095.544
11077.021
11055.724
11031.334
11003.503
10971.855
10935.979
10895.429
10849.724
10798.345
10740.748
10676.336
10604.484
10524.618
10436.596
10335.815
11214.375
11214.375
11214.375
11214.375
11214.374
11214.373
11214.372
11214.371
11214.369
11214.366
11214.363
11214.358
11214.353
11214.346
11214.337
11214.326
11214.312
11214.294
11214.271
11214.242
11214.206
11214.159
11214.099
11214.022
11213.924
11213.799
11213.639
11213.436
11213.177
11212.849
11212.434
11211.91
11211.251
11210.424
11209.392
11208.111
11206.528
11204.584
11202.211
11199.33
11195.853
11191.677
11186.688
11180.753
11173.723
11165.429
11155.686
11144.29
11131.017
11115.626
11097.857
11077.424
11054.02
11027.31
10996.927
10962.472
10923.512
10879.581
10830.175
10774.766
10712.777
10643.601
10566.701
10482.045
10384.604
11231.138
11231.139
11231.138
11231.138
11231.138
11231.137
11231.136
11231.134
11231.132
11231.13
11231.127
11231.122
11231.117
11231.11
11231.102
11231.091
11231.077
11231.06
11231.037
11231.009
11230.974
11230.928
11230.871
11230.797
11230.703
11230.583
11230.431
11230.238
11229.992
11229.681
11229.287
11228.79
11228.165
11227.381
11226.401
11225.183
11223.677
11221.825
11219.562
11216.813
11213.494
11209.508
11204.744
11199.076
11192.362
11184.441
11175.137
11164.252
11151.575
11136.879
11119.907
11100.391
11078.033
11052.511
11023.468
10990.519
10953.244
10911.193
10863.877
10810.782
10751.352
10684.999
10611.223
10530.118
10436.178
11248.829
11248.829
11248.829
11248.829
11248.828
11248.828
11248.826
11248.825
11248.823
11248.82
11248.817
11248.813
11248.807
11248.8
11248.792
11248.781
11248.767
11248.749
11248.727
11248.699
11248.664
11248.619
11248.563
11248.491
11248.4
11248.285
11248.139
11247.954
11247.72
11247.425
11247.053
11246.584
11245.995
11245.255
11244.331
11243.181
11241.757
11240.004
11237.859
11235.252
11232.101
11228.315
11223.79
11218.406
11212.027
11204.503
11195.663
11185.321
11173.279
11159.314
11143.188
11124.642
11103.392
11079.125
11051.501
11020.147
10984.656
10944.594
10899.486
10848.836
10792.105
10728.723
10658.228
10580.861
10490.592
11267.445
11267.445
11267.445
11267.445
11267.444
11267.444
11267.442
11267.441
11267.439
11267.436
11267.433
11267.428
11267.423
11267.415
11267.407
11267.395
11267.381
11267.363
11267.341
11267.313
11267.278
11267.233
11267.178
11267.107
11267.019
11266.908
11266.768
11266.592
11266.371
11266.092
11265.742
11265.302
11264.749
11264.056
11263.19
11262.111
11260.773
11259.124
11257.105
11254.647
11251.675
11248.101
11243.83
11238.747
11232.725
11225.62
11217.271
11207.506
11196.134
11182.944
11167.713
11150.192
11130.111
11107.172
11081.047
11051.378
11017.773
10979.813
10937.036
10888.965
10835.076
10774.816
10707.762
10634.319
10547.902
11286.975
11286.975
11286.975
11286.975
11286.974
11286.973
11286.972
11286.971
11286.968
11286.966
11286.962
11286.958
11286.952
11286.945
11286.936
11286.924
11286.91
11286.892
11286.87
11286.842
11286.807
11286.764
11286.709
11286.641
11286.556
11286.45
11286.318
11286.152
11285.944
11285.683
11285.357
11284.947
11284.433
11283.788
11282.981
11281.975
11280.727
11279.187
11277.299
11274.998
11272.215
11268.867
11264.864
11260.1
11254.455
11247.794
11239.966
11230.81
11220.145
11207.776
11193.489
11177.05
11158.203
11136.665
11112.123
11084.234
11052.621
11016.878
10976.562
10931.207
10880.307
10823.323
10759.875
10690.552
10608.168
11307.406
11307.406
11307.406
11307.405
11307.405
11307.404
11307.403
11307.401
11307.399
11307.396
11307.393
11307.388
11307.383
11307.376
11307.367
11307.356
11307.342
11307.325
11307.304
11307.277
11307.244
11307.202
11307.151
11307.087
11307.007
11306.908
11306.785
11306.631
11306.439
11306.199
11305.897
11305.52
11305.045
11304.45
11303.704
11302.774
11301.618
11300.191
11298.44
11296.305
11293.72
11290.61
11286.891
11282.465
11277.217
11271.024
11263.747
11255.234
11245.316
11233.811
11220.519
11205.222
11187.676
11167.615
11144.742
11118.73
11089.218
11055.816
11018.093
10975.6
10927.843
10874.292
10814.623
10749.636
10671.454
11328.728
11328.728
11328.728
11328.728
11328.727
11328.726
11328.725
11328.724
11328.722
11328.719
11328.716
11328.712
11328.707
11328.7
11328.692
11328.682
11328.67
11328.654
11328.634
11328.61
11328.58
11328.542
11328.496
11328.438
11328.366
11328.276
11328.164
11328.025
11327.851
11327.633
11327.36
11327.015
11326.582
11326.038
11325.355
11324.503
11323.443
11322.133
11320.524
11318.563
11316.187
11313.328
11309.908
11305.836
11301.006
11295.307
11288.61
11280.773
11271.642
11261.048
11248.804
11234.708
11218.532
11200.026
11178.911
11154.878
11127.582
11096.648
11061.66
11022.181
10977.729
10927.779
10872.051
10811.575
10737.93
11350.94
11350.94
11350.939
11350.939
11350.939
11350.938
11350.937
11350.936
11350.934
11350.932
11350.929
11350.926
11350.921
11350.916
11350.909
11350.9
11350.889
11350.876
11350.859
11350.838
11350.812
11350.78
11350.74
11350.689
11350.627
11350.548
11350.45
11350.328
11350.173
11349.979
11349.734
11349.425
11349.035
11348.543
11347.926
11347.154
11346.193
11345.005
11343.546
11341.765
11339.609
11337.014
11333.907
11330.204
11325.815
11320.634
11314.545
11307.42
11299.117
11289.479
11278.338
11265.505
11250.77
11233.9
11214.635
11192.685
11167.724
11139.392
11107.289
11070.988
11030.02
10983.845
10932.185
10876.527
10807.652
11374.043
11374.043
11374.043
11374.043
11374.042
11374.042
11374.041
11374.04
11374.039
11374.037
11374.035
11374.032
11374.028
11374.024
11374.018
11374.011
11374.002
11373.991
11373.977
11373.96
11373.939
11373.912
11373.878
11373.836
11373.783
11373.716
11373.632
11373.526
11373.392
11373.222
11373.007
11372.733
11372.387
11371.95
11371.4
11370.712
11369.855
11368.795
11367.491
11365.901
11363.975
11361.655
11358.874
11355.56
11351.631
11346.993
11341.542
11335.163
11327.727
11319.094
11309.109
11297.602
11284.38
11269.229
11251.91
11232.152
11209.651
11184.064
11155.005
11122.062
11084.768
11042.522
10995.121
10944.572
10880.686
11398.038
11398.038
11398.037
11398.037
11398.037
11398.036
11398.036
11398.035
11398.034
11398.032
11398.03
11398.028
11398.025
11398.021
11398.017
11398.011
11398.004
11397.995
11397.983
11397.969
11397.951
11397.929
11397.901
11397.866
11397.821
11397.765
11397.694
11397.604
11397.489
11397.343
11397.157
11396.92
11396.62
11396.24
11395.76
11395.16
11394.411
11393.484
11392.344
11390.954
11389.267
11387.232
11384.793
11381.885
11378.436
11374.366
11369.582
11363.983
11357.455
11349.873
11341.1
11330.981
11319.346
11306
11290.726
11273.274
11253.364
11230.673
11204.833
11175.44
11142.01
11103.952
11060.938
11015.779
10957.263
11422.911
11422.911
11422.911
11422.911
11422.911
11422.91
11422.909
11422.909
11422.908
11422.906
11422.905
11422.902
11422.9
11422.896
11422.892
11422.887
11422.88
11422.872
11422.862
11422.85
11422.834
11422.815
11422.791
11422.76
11422.722
11422.675
11422.614
11422.538
11422.441
11422.318
11422.162
11421.963
11421.709
11421.388
11420.983
11420.473
11419.838
11419.05
11418.082
11416.898
11415.46
11413.723
11411.64
11409.155
11406.208
11402.729
11398.641
11393.855
11388.275
11381.791
11374.283
11365.618
11355.644
11344.192
11331.064
11316.038
11298.855
11279.221
11256.786
11231.143
11201.849
11168.214
11129.788
11090.275
11037.619
11448.635
11448.635
11448.634
11448.634
11448.634
11448.633
11448.633
11448.632
11448.631
11448.629
11448.627
11448.625
11448.622
11448.619
11448.614
11448.609
11448.603
11448.595
11448.585
11448.573
11448.558
11448.54
11448.518
11448.491
11448.458
11448.417
11448.366
11448.303
11448.223
11448.123
11447.996
11447.834
11447.629
11447.368
11447.038
11446.623
11446.105
11445.462
11444.671
11443.701
11442.521
11441.094
11439.381
11437.336
11434.912
11432.049
11428.685
11424.747
11420.153
11414.814
11408.627
11401.48
11393.244
11383.773
11372.896
11360.417
11346.106
11329.693
11310.859
11289.227
11264.336
11235.458
11201.96
11168.325
11121.938
11475.163
11475.163
11475.162
11475.162
11475.162
11475.161
11475.16
11475.159
11475.158
11475.156
11475.154
11475.152
11475.148
11475.145
11475.14
11475.134
11475.127
11475.119
11475.109
11475.096
11475.082
11475.065
11475.044
11475.019
11474.99
11474.955
11474.913
11474.862
11474.799
11474.721
11474.622
11474.497
11474.339
11474.139
11473.885
11473.567
11473.169
11472.676
11472.066
11471.316
11470.404
11469.299
11467.971
11466.386
11464.504
11462.283
11459.672
11456.614
11453.046
11448.897
11444.086
11438.523
11432.101
11424.7
11416.178
11406.367
11395.072
11382.065
11367.058
11349.699
11329.554
11305.867
11277.87
11250.346
11210.211
11502.434
11502.434
11502.434
11502.434
11502.433
11502.432
11502.431
11502.43
11502.429
11502.427
11502.425
11502.422
11502.419
11502.415
11502.41
11502.404
11502.397
11502.389
11502.379
11502.367
11502.353
11502.337
11502.318
11502.297
11502.272
11502.243
11502.21
11502.171
11502.124
11502.067
11501.996
11501.908
11501.797
11501.657
11501.481
11501.261
11500.986
11500.644
11500.22
11499.699
11499.062
11498.291
11497.363
11496.254
11494.938
11493.382
11491.552
11489.407
11486.904
11483.991
11480.609
11476.691
11472.157
11466.914
11460.851
11453.837
11445.713
11436.291
11425.344
11412.574
11397.585
11379.641
11357.965
11336.437
11303.019
11530.385
11530.385
11530.385
11530.384
11530.384
11530.383
11530.382
11530.381
11530.38
11530.378
11530.376
11530.373
11530.37
11530.367
11530.362
11530.357
11530.351
11530.343
11530.335
11530.325
11530.314
11530.3
11530.285
11530.269
11530.25
11530.228
11530.204
11530.176
11530.144
11530.106
11530.062
11530.01
11529.946
11529.868
11529.77
11529.649
11529.498
11529.311
11529.078
11528.791
11528.44
11528.014
11527.501
11526.886
11526.154
11525.287
11524.266
11523.067
11521.667
11520.036
11518.138
11515.93
11513.36
11510.363
11506.865
11502.772
11497.974
11492.329
11485.671
11477.79
11468.38
11456.86
11442.574
11427.952
11402.818
11560.221
11560.221
11560.22
11560.22
11560.219
11560.218
11560.218
11560.217
11560.215
11560.214
11560.212
11560.21
11560.208
11560.205
11560.201
11560.197
11560.192
11560.187
11560.18
11560.173
11560.164
11560.155
11560.144
11560.132
11560.119
11560.105
11560.09
11560.073
11560.056
11560.039
11560.022
11560.005
11559.99
11559.977
11559.964
11559.95
11559.934
11559.915
11559.891
11559.859
11559.82
11559.772
11559.711
11559.636
11559.541
11559.423
11559.281
11559.11
11558.907
11558.665
11558.375
11558.022
11557.583
11557.029
11556.322
11555.416
11554.248
11552.742
11550.798
11548.305
11545.098
11540.856
11535.582
11530.78
11521.624
11591.613
11591.613
11591.612
11591.612
11591.611
11591.61
11591.61
11591.609
11591.608
11591.607
11591.605
11591.604
11591.602
11591.6
11591.598
11591.595
11591.592
11591.588
11591.584
11591.579
11591.574
11591.569
11591.562
11591.556
11591.55
11591.544
11591.539
11591.536
11591.536
11591.542
11591.556
11591.58
11591.619
11591.676
11591.752
11591.853
11591.984
11592.146
11592.344
11592.585
11592.878
11593.231
11593.652
11594.15
11594.733
11595.416
11596.212
11597.138
11598.213
11599.453
11600.878
11602.503
11604.339
11606.395
11608.675
11611.182
11613.911
11616.852
11619.988
11623.315
11626.824
11630.478
11634.618
11639.964
11644.016
11622.954
11622.954
11622.953
11622.953
11622.953
11622.952
11622.952
11622.951
11622.95
11622.95
11622.949
11622.949
11622.948
11622.947
11622.947
11622.946
11622.945
11622.945
11622.944
11622.943
11622.943
11622.943
11622.943
11622.944
11622.946
11622.95
11622.956
11622.968
11622.987
11623.017
11623.062
11623.128
11623.221
11623.346
11623.51
11623.722
11623.99
11624.325
11624.74
11625.25
11625.872
11626.624
11627.524
11628.594
11629.857
11631.34
11633.078
11635.106
11637.464
11640.195
11643.344
11646.958
11651.084
11655.771
11661.066
11667.021
11673.689
11681.131
11689.412
11698.632
11708.899
11720.386
11733.487
11748.637
11765.568
11654.107
11654.107
11654.107
11654.106
11654.106
11654.106
11654.106
11654.105
11654.105
11654.105
11654.106
11654.106
11654.106
11654.107
11654.109
11654.11
11654.112
11654.115
11654.118
11654.122
11654.127
11654.133
11654.14
11654.149
11654.16
11654.174
11654.193
11654.22
11654.259
11654.313
11654.39
11654.496
11654.642
11654.835
11655.086
11655.407
11655.812
11656.318
11656.947
11657.722
11658.669
11659.815
11661.19
11662.827
11664.765
11667.047
11669.724
11672.852
11676.492
11680.712
11685.584
11691.186
11697.603
11704.923
11713.237
11722.646
11733.262
11745.213
11758.646
11773.749
11790.738
11809.924
11831.771
11856.835
11885.902
11684.937
11684.936
11684.936
11684.936
11684.935
11684.935
11684.935
11684.936
11684.936
11684.937
11684.938
11684.939
11684.941
11684.943
11684.947
11684.95
11684.955
11684.961
11684.968
11684.976
11684.986
11684.998
11685.012
11685.029
11685.049
11685.074
11685.107
11685.15
11685.209
11685.289
11685.399
11685.549
11685.749
11686.011
11686.35
11686.78
11687.322
11688.001
11688.842
11689.879
11691.146
11692.681
11694.525
11696.724
11699.331
11702.405
11706.015
11710.235
11715.15
11720.85
11727.436
11735.018
11743.714
11753.653
11764.971
11777.819
11792.362
11808.798
11827.346
11848.282
11871.924
11898.701
11929.183
11964.103
12004.54
11715.328
11715.328
11715.328
11715.327
11715.327
11715.328
11715.328
11715.329
11715.33
11715.331
11715.333
11715.335
11715.338
11715.342
11715.346
11715.352
11715.359
11715.368
11715.378
11715.39
11715.404
11715.421
11715.441
11715.465
11715.494
11715.529
11715.575
11715.634
11715.713
11715.82
11715.964
11716.159
11716.415
11716.748
11717.175
11717.716
11718.397
11719.246
11720.299
11721.596
11723.178