/*--------------------------------*- C++ -*----------------------------------*\
  =========                 |
  \\      /  F ield         | OpenFOAM: The Open Source CFD Toolbox
   \\    /   O peration     | Website:  https://openfoam.org
    \\  /    A nd           | Version:  13
     \\/     M anipulation  |
\*---------------------------------------------------------------------------*/
FoamFile
{
    format      ascii;
    class       volScalarField;
    location    "0.597528";
    object      nut;
}
// * * * * * * * * * * * * * * * * * * * * * * * * * * * * * * * * * * * * * //

dimensions      [0 2 -1 0 0 0 0];

internalField   nonuniform List<scalar> 
17140
(
2.0360489e-20
3.9599461e-18
1.0548174e-16
1.0694741e-15
6.4685629e-15
2.8661748e-14
1.035014e-13
3.2387274e-13
9.1236539e-13
2.3729921e-12
5.7991343e-12
1.3484907e-11
3.0117378e-11
6.5067198e-11
1.3673412e-10
2.8069963e-10
5.648677e-10
1.1173103e-09
2.1769528e-09
4.184727e-09
7.9449352e-09
1.4904553e-08
2.7620469e-08
5.0500125e-08
9.0876381e-08
1.6034723e-07
2.7601659e-07
4.609416e-07
7.4330452e-07
1.1552945e-06
1.7346702e-06
2.5317358e-06
3.6207812e-06
5.1108913e-06
7.1472877e-06
9.8807449e-06
1.3248811e-05
1.3016172e-05
1.2902888e-05
1.2877345e-05
1.2939926e-05
1.3175457e-05
1.3571559e-05
1.4020116e-05
1.4806814e-05
1.599222e-05
1.7650588e-05
1.9877371e-05
2.2807501e-05
2.6636808e-05
3.1647217e-05
3.8227496e-05
4.6913287e-05
5.8375154e-05
7.3545454e-05
9.3633114e-05
0.00011990585
0.000154646
0.00019997866
0.00026196296
0.00034478514
0.00048791926
0.00073379811
0.0010020208
0.0010023554
2.0302161e-20
3.9485984e-18
1.0517954e-16
1.0664115e-15
6.4500473e-15
2.8579707e-14
1.0320499e-13
3.229443e-13
9.0974565e-13
2.3661621e-12
5.7823887e-12
1.3445798e-11
3.0029529e-11
6.4875983e-11
1.363284e-10
2.7985641e-10
5.6314434e-10
1.1138351e-09
2.17002e-09
4.1710163e-09
7.9180176e-09
1.4852062e-08
2.7518836e-08
5.0305036e-08
9.0506136e-08
1.5965524e-07
2.747488e-07
4.5867499e-07
7.3936144e-07
1.1486195e-06
1.723637e-06
2.5138273e-06
3.5922058e-06
5.0664372e-06
7.0806993e-06
9.787433e-06
1.3131859e-05
1.2947527e-05
1.2864294e-05
1.2858753e-05
1.2935788e-05
1.3181919e-05
1.3585904e-05
1.4041597e-05
1.4836297e-05
1.6030981e-05
1.769959e-05
1.9936678e-05
2.2876093e-05
2.6712496e-05
3.1726105e-05
3.8303413e-05
4.6977596e-05
5.8411241e-05
7.3530109e-05
9.353306e-05
0.00011967093
0.00015420321
0.0001992417
0.00026085872
0.00034330496
0.00048605
0.00073133532
0.0010020577
0.0010022514
2.0211629e-20
3.9309895e-18
1.0471036e-16
1.0616512e-15
6.4212106e-15
2.845161e-14
1.0274077e-13
3.214849e-13
9.0561055e-13
2.3553306e-12
5.7556919e-12
1.338308e-11
2.9887726e-11
6.4565078e-11
1.3566339e-10
2.7846184e-10
5.6026547e-10
1.1079651e-09
2.1581664e-09
4.1472626e-09
7.8707229e-09
1.475847e-08
2.7334885e-08
4.9946595e-08
8.9815782e-08
1.5834643e-07
2.7231805e-07
4.5427288e-07
7.3161112e-07
1.1353569e-06
1.7015205e-06
2.4777535e-06
3.5345505e-06
4.9765406e-06
6.9457725e-06
9.5975181e-06
1.2883365e-05
1.2802891e-05
1.2783973e-05
1.2822112e-05
1.292869e-05
1.3196377e-05
1.3615172e-05
1.408501e-05
1.4895065e-05
1.6107069e-05
1.7794299e-05
2.004948e-05
2.3004214e-05
2.685142e-05
3.186839e-05
3.8436517e-05
4.7083319e-05
5.8457329e-05
7.3477718e-05
9.3329358e-05
0.00011924475
0.00015343873
0.0001980196
0.00025907418
0.00034095042
0.00048294295
0.00072691
0.0010020634
0.0010023689
2.0113291e-20
3.9118623e-18
1.042007e-16
1.0564783e-15
6.3898518e-15
2.8312143e-14
1.0223449e-13
3.1988988e-13
9.010794e-13
2.3434254e-12
5.7262438e-12
1.3313616e-11
2.9729929e-11
6.4217241e-11
1.3491479e-10
2.7688096e-10
5.5697601e-10
1.1011981e-09
2.1443664e-09
4.1193127e-09
7.8144453e-09
1.4645811e-08
2.7110896e-08
4.9505235e-08
8.8956664e-08
1.5670142e-07
2.6923448e-07
4.4863984e-07
7.2161178e-07
1.1181105e-06
1.67254e-06
2.4301347e-06
3.4579322e-06
4.8562464e-06
6.7636371e-06
9.3379301e-06
1.2524477e-05
1.2591337e-05
1.2665678e-05
1.2766859e-05
1.2916664e-05
1.3216221e-05
1.3653306e-05
1.4143716e-05
1.497343e-05
1.6206482e-05
1.7915271e-05
2.0190928e-05
2.3162592e-05
2.7020932e-05
3.204121e-05
3.8597343e-05
4.7209744e-05
5.8514389e-05
7.3428648e-05
9.3125778e-05
0.00011881747
0.00015267835
0.00019681105
0.00025734659
0.00033867476
0.0004801239
0.00072346743
0.0010020905
0.0010023475
2.00313e-20
3.8959145e-18
1.037757e-16
1.0521622e-15
6.3636522e-15
2.8195362e-14
1.0180924e-13
3.1854486e-13
8.9724017e-13
2.3332815e-12
5.7009908e-12
1.3253608e-11
2.9592473e-11
6.3911368e-11
1.3424943e-10
2.7545884e-10
5.5397677e-10
1.0949357e-09
2.1313881e-09
4.0925743e-09
7.7596481e-09
1.4534153e-08
2.688501e-08
4.905271e-08
8.8062037e-08
1.5496348e-07
2.6593233e-07
4.4252937e-07
7.106297e-07
1.0989405e-06
1.6399506e-06
2.375989e-06
3.3698851e-06
4.7165702e-06
6.5497252e-06
9.0285948e-06
1.207321e-05
1.2317245e-05
1.250834e-05
1.2689778e-05
1.2895185e-05
1.3236337e-05
1.36974e-05
1.4214019e-05
1.506705e-05
1.6324187e-05
1.8057214e-05
2.0355198e-05
2.334636e-05
2.7218816e-05
3.2245054e-05
3.879096e-05
4.7370747e-05
5.8611612e-05
7.3431603e-05
9.2993325e-05
0.0001184824
0.00015204588
0.00019577448
0.00025586788
0.00033668201
0.00047751311
0.00071983635
0.0010021268
0.0010024185
1.9973857e-20
3.884741e-18
1.0347785e-16
1.0491338e-15
6.3452215e-15
2.8112866e-14
1.015071e-13
3.1758225e-13
8.9446849e-13
2.3258841e-12
5.6823631e-12
1.320877e-11
2.9488276e-11
6.3675758e-11
1.3372773e-10
2.7432179e-10
5.5152723e-10
1.0897031e-09
2.1202808e-09
4.0691201e-09
7.7103812e-09
1.4431315e-08
2.6672132e-08
4.8616945e-08
8.7183127e-08
1.5322412e-07
2.6257003e-07
4.3620689e-07
6.9909564e-07
1.0785366e-06
1.6048709e-06
2.3171546e-06
3.2734826e-06
4.5626773e-06
6.3125815e-06
8.6826902e-06
1.155201e-05
1.1987349e-05
1.2313113e-05
1.2589126e-05
1.2861702e-05
1.3251618e-05
1.3745332e-05
1.4292628e-05
1.5172793e-05
1.645747e-05
1.8218352e-05
2.0542884e-05
2.3557475e-05
2.7449133e-05
3.2486356e-05
3.9027764e-05
4.7583183e-05
5.8774543e-05
7.3518853e-05
9.2967723e-05
0.00011827854
0.00015158758
0.00019496911
0.0002547085
0.00033507762
0.00047554883
0.00071753928
0.001002164
0.0010024309
1.9932193e-20
3.876637e-18
1.0326175e-16
1.0469333e-15
6.3317849e-15
2.8052405e-14
1.0128408e-13
3.1686532e-13
8.9238234e-13
2.3202491e-12
5.6679816e-12
1.3173638e-11
2.940531e-11
6.3484849e-11
1.3329698e-10
2.733639e-10
5.4941946e-10
1.0851008e-09
2.1102919e-09
4.0475572e-09
7.6641095e-09
1.4332753e-08
2.64642e-08
4.8183761e-08
8.6295038e-08
1.5143961e-07
2.5907116e-07
4.2954269e-07
6.8680627e-07
1.0566196e-06
1.5670027e-06
2.2535699e-06
3.1694165e-06
4.3969293e-06
6.057744e-06
8.3105141e-06
1.098755e-05
1.1614346e-05
1.2086e-05
1.2468052e-05
1.2816871e-05
1.3260957e-05
1.3794609e-05
1.4376804e-05
1.5288372e-05
1.6605171e-05
1.8398386e-05
2.0754032e-05
2.3797346e-05
2.7713195e-05
3.2767236e-05
3.9313139e-05
4.7857346e-05
5.9018166e-05
7.3706305e-05
9.3062308e-05
0.00011821801
0.00015131637
0.00019440974
0.0002538664
0.00033384502
0.00047391833
0.00071477512
0.001002207
0.0010024849
1.9887994e-20
3.8680395e-18
1.0303249e-16
1.0445989e-15
6.3175303e-15
2.7988265e-14
1.0104748e-13
3.1610472e-13
8.9016901e-13
2.3142698e-12
5.6527183e-12
1.3136341e-11
2.9317189e-11
6.3281953e-11
1.3283881e-10
2.7234397e-10
5.4717238e-10
1.080187e-09
2.0996091e-09
4.0244541e-09
7.6144352e-09
1.4226723e-08
2.6240025e-08
4.7715628e-08
8.5332829e-08
1.495008e-07
2.5525903e-07
4.2226417e-07
6.7337465e-07
1.0327095e-06
1.525892e-06
2.185014e-06
3.058246e-06
4.2217196e-06
5.7908692e-06
7.922789e-06
1.0406839e-05
1.1214838e-05
1.1837069e-05
1.2333174e-05
1.2763839e-05
1.3264893e-05
1.38443e-05
1.4464564e-05
1.5411634e-05
1.6765362e-05
1.8596642e-05
2.0989093e-05
2.4066597e-05
2.8012223e-05
3.3090094e-05
3.9651802e-05
4.8201126e-05
5.9352414e-05
7.4003623e-05
9.3285672e-05
0.00011830997
0.00015124658
0.0001941127
0.00025336302
0.00033305623
0.00047291645
0.00071274535
0.0010022513
0.0010024681
1.9823521e-20
3.8554977e-18
1.0269812e-16
1.0411984e-15
6.2968243e-15
2.7895505e-14
1.0070734e-13
3.1501938e-13
8.8703811e-13
2.305895e-12
5.6315734e-12
1.3085285e-11
2.9198113e-11
6.3011554e-11
1.3223711e-10
2.7102507e-10
5.4431259e-10
1.0740337e-09
2.0864439e-09
3.9964198e-09
7.5550295e-09
1.4101605e-08
2.597866e-08
4.7175668e-08
8.4233549e-08
1.4730494e-07
2.5097702e-07
4.1415714e-07
6.5854195e-07
1.0065562e-06
1.4814229e-06
2.1118696e-06
2.941441e-06
4.0404603e-06
5.5185845e-06
7.5312974e-06
9.8327708e-06
1.0805714e-05
1.1577754e-05
1.2191645e-05
1.2707149e-05
1.3265773e-05
1.3893891e-05
1.4554141e-05
1.5540325e-05
1.69361e-05
1.8811127e-05
2.1247402e-05
2.4365961e-05
2.8348891e-05
3.3459192e-05
4.0049394e-05
4.8620507e-05
5.9782567e-05
7.4415494e-05
9.3644286e-05
0.00011856289
0.0001513881
0.00019408205
0.00025319289
0.0003326636
0.00047214301
0.00070942494
0.0010023012
0.0010024863
1.9727107e-20
3.8367442e-18
1.0219829e-16
1.0361202e-15
6.265969e-15
2.7757757e-14
1.0020466e-13
3.1342508e-13
8.8247214e-13
2.2937833e-12
5.6012822e-12
1.301292e-11
2.9031323e-11
6.2637739e-11
1.314172e-10
2.6925581e-10
5.4054042e-10
1.0660605e-09
2.0696958e-09
3.9614093e-09
7.482173e-09
1.3950784e-08
2.5668615e-08
4.6544427e-08
8.2965304e-08
1.4480197e-07
2.4615162e-07
4.0512589e-07
6.4222616e-07
9.7819926e-07
1.4339897e-06
2.035213e-06
2.8212573e-06
3.8572543e-06
5.2477146e-06
7.1471881e-06
9.2819644e-06
1.0400659e-05
1.1317917e-05
1.2050217e-05
1.2651982e-05
1.326733e-05
1.3942996e-05
1.4644767e-05
1.5673091e-05
1.7114936e-05
1.9039744e-05
2.1526655e-05
2.4695302e-05
2.8725196e-05
3.3879064e-05
4.0511053e-05
4.9118991e-05
6.0309864e-05
7.4942919e-05
9.41433e-05
0.00011898578
0.00015175227
0.00019432297
0.00025337585
0.00033266022
0.00047158941
0.00070650413
0.0010023214
0.001002424
1.9593408e-20
3.8107394e-18
1.0150531e-16
1.0290835e-15
6.2232667e-15
2.7567512e-14
9.9512384e-14
3.1123733e-13
8.7623384e-13
2.2773199e-12
5.5603501e-12
1.2915792e-11
2.8809172e-11
6.2144166e-11
1.3034521e-10
2.6696805e-10
5.3572229e-10
1.0560123e-09
2.0488905e-09
3.9185681e-09
7.3943809e-09
1.3771803e-08
2.5306107e-08
4.5816759e-08
8.1522797e-08
1.4199125e-07
2.4080046e-07
3.9523912e-07
6.2461136e-07
9.4805312e-07
1.3844154e-06
1.9565566e-06
2.7001898e-06
3.6758382e-06
4.983543e-06
6.7781252e-06
8.7640155e-06
1.0008971e-05
1.1064859e-05
1.19148e-05
1.2602637e-05
1.3272127e-05
1.3994932e-05
1.4738606e-05
1.5811101e-05
1.7301988e-05
1.928011e-05
2.1824408e-05
2.5052114e-05
2.9140965e-05
3.4351893e-05
4.1039826e-05
4.969812e-05
6.0933948e-05
7.5586244e-05
9.4786844e-05
0.00011958642
0.00015234685
0.0001948295
0.00025393314
0.00033291597
0.00047115292
0.00070502441
0.0010022954
0.0010023784
1.9423689e-20
3.7777287e-18
1.006257e-16
1.0201546e-15
6.169119e-15
2.7326552e-14
9.8636965e-14
3.084765e-13
8.683811e-13
2.2566574e-12
5.5091553e-12
1.2794798e-11
2.8533715e-11
6.1535421e-11
1.2903122e-10
2.6418355e-10
5.2990497e-10
1.0439892e-09
2.0242425e-09
3.8683557e-09
7.292638e-09
1.3566768e-08
2.4895621e-08
4.5002147e-08
7.9925863e-08
1.3891374e-07
2.3500656e-07
3.8465994e-07
6.0600589e-07
9.1666902e-07
1.3336123e-06
1.8772795e-06
2.5801216e-06
3.4984966e-06
4.7287533e-06
6.4254677e-06
8.2829468e-06
9.6365868e-06
1.0824439e-05
1.1791163e-05
1.2563643e-05
1.3284714e-05
1.405349e-05
1.4840194e-05
1.5958606e-05
1.7499969e-05
1.9533731e-05
2.2138895e-05
2.5433792e-05
2.9594045e-05
3.4876857e-05
4.163587e-05
5.0358386e-05
6.1655202e-05
7.6347833e-05
9.5578605e-05
0.00012037193
0.00015317331
0.00019560134
0.00025489029
0.00033343056
0.00047176066
0.00070809759
0.0010022621
0.0010023102
1.9224641e-20
3.7390141e-18
9.9594172e-17
1.0096854e-15
6.1056558e-15
2.7044315e-14
9.7612491e-14
3.0524928e-13
8.5921461e-13
2.2325784e-12
5.4496136e-12
1.2654403e-11
2.8214953e-11
6.0833209e-11
1.2752108e-10
2.6099724e-10
5.2328145e-10
1.0303781e-09
1.9965181e-09
3.8122745e-09
7.179864e-09
1.3341303e-08
2.4447893e-08
4.4120874e-08
7.821223e-08
1.3563777e-07
2.2888935e-07
3.7358913e-07
5.8673261e-07
8.8453691e-07
1.2822647e-06
1.798207e-06
2.4618455e-06
3.3258307e-06
4.4837958e-06
6.0866103e-06
7.8393254e-06
9.2877985e-06
1.0602356e-05
1.1684429e-05
1.2539137e-05
1.330888e-05
1.412381e-05
1.4954577e-05
1.6120993e-05
1.7714506e-05
1.9804183e-05
2.2472308e-05
2.5839366e-05
3.0081201e-05
3.5450697e-05
4.2297327e-05
5.1100237e-05
6.2476638e-05
7.7232658e-05
9.6523246e-05
0.00012134645
0.00015422702
0.00019664277
0.00025619846
0.00033428457
0.00047417923
0.00071376551
0.0010022959
0.0010022586
1.9003476e-20
3.695997e-18
9.8448018e-17
9.9805398e-16
6.0351628e-15
2.6730935e-14
9.6475587e-14
3.0167038e-13
8.4905793e-13
2.2059259e-12
5.3837888e-12
1.2499418e-11
2.786367e-11
6.0060924e-11
1.2586423e-10
2.5751124e-10
5.1605886e-10
1.0155922e-09
1.9665295e-09
3.7518979e-09
7.0590581e-09
1.3101022e-08
2.3973209e-08
4.3191456e-08
7.641415e-08
1.3221668e-07
2.2253356e-07
3.6215711e-07
5.6697997e-07
8.5189495e-07
1.2306066e-06
1.719461e-06
2.3452795e-06
3.1574179e-06
4.2472454e-06
5.7611792e-06
7.4324252e-06
8.9658373e-06
1.0403872e-05
1.160004e-05
1.2533725e-05
1.3348036e-05
1.4208599e-05
1.5086275e-05
1.6303637e-05
1.7951384e-05
2.0098642e-05
2.2829988e-05
2.6271471e-05
3.0601858e-05
3.6070812e-05
4.3022267e-05
5.1924691e-05
6.3402404e-05
7.8246511e-05
9.762553e-05
0.00012250968
0.00015550201
0.00019795322
0.00025776723
0.00033573003
0.00047855499
0.00072017157
0.0010023221
0.0010021866
1.8765107e-20
3.6496337e-18
9.7212725e-17
9.8551863e-16
5.9592016e-15
2.639332e-14
9.5251126e-14
2.9781738e-13
8.3812877e-13
2.1772632e-12
5.31305e-12
1.2333004e-11
2.7486867e-11
5.9233548e-11
1.2409181e-10
2.5378865e-10
5.0836228e-10
9.9987485e-10
1.9347424e-09
3.6881036e-09
6.9318501e-09
1.2848891e-08
2.347677e-08
4.2222237e-08
7.4544465e-08
1.2867077e-07
2.159717e-07
3.504106e-07
5.4680038e-07
8.1877249e-07
1.1785981e-06
1.6408747e-06
2.2300994e-06
2.9931323e-06
4.0186316e-06
5.4494054e-06
7.0614203e-06
8.6728638e-06
1.0233229e-05
1.1542746e-05
1.2550003e-05
1.3404661e-05
1.4310443e-05
1.5238026e-05
1.6510477e-05
1.8216993e-05
2.0424163e-05
2.3220301e-05
2.6737507e-05
3.1160086e-05
3.6737757e-05
4.3810054e-05
5.2832675e-05
6.4435932e-05
7.939327e-05
9.8887793e-05
0.00012385728
0.00015699197
0.00019950664
0.00025955958
0.00033779113
0.00048362407
0.000724797
0.0010024338
0.0010020957
1.8513796e-20
3.6007545e-18
9.5910456e-17
9.723043e-16
5.8791315e-15
2.6037475e-14
9.3960722e-14
2.9375756e-13
8.2661539e-13
2.1470764e-12
5.2385738e-12
1.2157867e-11
2.7090503e-11
5.8363738e-11
1.2222983e-10
2.4988147e-10
5.0029276e-10
9.8341706e-10
1.9015074e-09
3.6215162e-09
6.7993231e-09
1.2586769e-08
2.2961852e-08
4.1219079e-08
7.2612666e-08
1.2501548e-07
2.0922536e-07
3.3837286e-07
5.2620578e-07
7.8514372e-07
1.1261718e-06
1.5623678e-06
2.1163658e-06
2.8335052e-06
3.7978906e-06
5.1526715e-06
6.7257011e-06
8.4108104e-06
1.0094318e-05
1.1518449e-05
1.2593445e-05
1.3482647e-05
1.4431634e-05
1.5414056e-05
1.6745552e-05
1.8515604e-05
2.0787803e-05
2.3651527e-05
2.7245512e-05
3.1762286e-05
3.7455016e-05
4.4661048e-05
5.3823357e-05
6.5576354e-05
8.0671702e-05
0.00010030717
0.00012538061
0.00015868973
0.00020126784
0.00026161604
0.00034017361
0.00048819211
0.00072912731
0.0010025923
0.0010019586
1.8253323e-20
3.5500947e-18
9.4560774e-17
9.5860904e-16
5.7961509e-15
2.5668725e-14
9.262367e-14
2.8955159e-13
8.1468972e-13
2.1158157e-12
5.1614692e-12
1.1976612e-11
2.6680467e-11
5.7464396e-11
1.2030588e-10
2.4584741e-10
4.9196895e-10
9.6645868e-10
1.8673008e-09
3.5530609e-09
6.6632121e-09
1.2317716e-08
2.2433345e-08
4.0189452e-08
7.0630986e-08
1.2126763e-07
2.0231432e-07
3.2606311e-07
5.0521313e-07
7.5103313e-07
1.0734313e-06
1.4842278e-06
2.0046265e-06
2.678589e-06
3.5861989e-06
4.8725744e-06
6.4247168e-06
8.1838475e-06
9.9944548e-06
1.1536139e-05
1.2671995e-05
1.3592065e-05
1.4580889e-05
1.5620169e-05
1.701377e-05
1.8852063e-05
2.1194065e-05
2.4130145e-05
2.7803799e-05
3.2415773e-05
3.8226555e-05
4.5574702e-05
5.4892303e-05
6.6816803e-05
8.2074104e-05
0.0001018735
0.00012706884
0.00016057968
0.00020321654
0.00026395347
0.00034255852
0.0004926055
0.00073487822
0.001002683
0.0010018463
1.7983151e-20
3.4975472e-18
9.3160754e-17
9.4440302e-16
5.7100793e-15
2.5286267e-14
9.1237068e-14
2.8519037e-13
8.0232597e-13
2.0834134e-12
5.0815695e-12
1.1788844e-11
2.6255864e-11
5.6533549e-11
1.1831573e-10
2.4167764e-10
4.8337302e-10
9.4896547e-10
1.8320618e-09
3.4826445e-09
6.5234301e-09
1.2041884e-08
2.189241e-08
3.9136915e-08
6.8605421e-08
1.1743631e-07
1.9525161e-07
3.1350504e-07
4.8388228e-07
7.1662e-07
1.0207033e-06
1.4070217e-06
1.8959287e-06
2.5291465e-06
3.384738e-06
4.6123203e-06
6.1589614e-06
8.0015247e-06
9.9422036e-06
1.1603957e-05
1.2798734e-05
1.3745618e-05
1.477034e-05
1.5864225e-05
1.7320593e-05
1.9229152e-05
2.1645128e-05
2.4658254e-05
2.8415324e-05
3.3124457e-05
3.9053754e-05
4.6547644e-05
5.6031046e-05
6.8144904e-05
8.3586067e-05
0.00010357174
0.00012890699
0.00016264422
0.00020534705
0.00026656699
0.00034496206
0.0004978079
0.00074168381
0.0010027465
0.0010017977
1.7704764e-20
3.4433997e-18
9.1718063e-17
9.2976431e-16
5.6213883e-15
2.4892188e-14
8.9808435e-14
2.8069737e-13
7.8959017e-13
2.0500411e-12
4.9992931e-12
1.1595535e-11
2.5818853e-11
5.5575845e-11
1.1626908e-10
2.3739191e-10
4.7454423e-10
9.3101343e-10
1.7959337e-09
3.4105283e-09
6.3804275e-09
1.1759964e-08
2.1339942e-08
3.8062414e-08
6.6538677e-08
1.1353014e-07
1.8806405e-07
3.0076857e-07
4.623612e-07
6.8220689e-07
9.6850495e-07
1.331436e-06
1.7905498e-06
2.3854995e-06
3.1940308e-06
4.3824757e-06
5.9325656e-06
7.8777978e-06
9.9616902e-06
1.1750145e-05
1.2983729e-05
1.3954206e-05
1.5010135e-05
1.6152909e-05
1.7669156e-05
1.9646922e-05
2.2138413e-05
2.5233146e-05
2.9078372e-05
3.3886996e-05
3.9934092e-05
4.7573819e-05
5.7228497e-05
6.9545347e-05
8.5189778e-05
0.00010538376
0.00013087844
0.00016486715
0.00020764994
0.00026945528
0.00034744013
0.00050363462
0.00074725684
0.0010027745
0.0010017542
1.7421273e-20
3.3882608e-18
9.0248994e-17
9.148581e-16
5.5310796e-15
2.4490945e-14
8.8353948e-14
2.7612354e-13
7.7662698e-13
2.0160784e-12
4.9155777e-12
1.1398894e-11
2.5374442e-11
5.460228e-11
1.1418946e-10
2.330395e-10
4.6558366e-10
9.1280614e-10
1.7593187e-09
3.3374918e-09
6.2356844e-09
1.1474713e-08
2.0781043e-08
3.6975544e-08
6.444966e-08
1.0958777e-07
1.8082898e-07
2.8800307e-07
4.4092708e-07
6.4820774e-07
9.1739209e-07
1.2581331e-06
1.6891173e-06
2.2487182e-06
3.0197458e-06
4.1802148e-06
5.75601e-06
7.840815e-06
1.0091609e-05
1.2090176e-05
1.3277327e-05
1.4228251e-05
1.5304345e-05
1.6487711e-05
1.8060086e-05
2.0103118e-05
2.2668792e-05
2.5847462e-05
2.9785539e-05
3.4697282e-05
4.0862087e-05
4.8646467e-05
5.8474348e-05
7.1003845e-05
8.6868031e-05
0.00010729103
0.00013296778
0.000167227
0.00021011583
0.00027260655
0.0003499564
0.00050966741
0.00075176908
0.0010027704
0.0010016825
1.7138373e-20
3.3332382e-18
8.8783065e-17
8.9998393e-16
5.4409666e-15
2.409058e-14
8.6902679e-14
2.7155998e-13
7.6369352e-13
1.9821958e-12
4.8320668e-12
1.1202755e-11
2.4931235e-11
5.3631558e-11
1.1211649e-10
2.2870253e-10
4.5665879e-10
8.9468055e-10
1.7228876e-09
3.2648588e-09
6.0917986e-09
1.119123e-08
2.022566e-08
3.5895488e-08
6.2373323e-08
1.0567001e-07
1.7364735e-07
2.753645e-07
4.198532e-07
6.1498775e-07
8.6785041e-07
1.1877996e-06
1.5928472e-06
2.1211531e-06
2.8670838e-06
4.0032782e-06
5.6674456e-06
7.9466047e-06
1.001176e-05
1.3022701e-05
1.3687182e-05
1.4566734e-05
1.5646458e-05
1.6864567e-05
1.84905e-05
2.0592606e-05
2.3227942e-05
2.6490901e-05
3.0526063e-05
3.5546423e-05
4.1831253e-05
4.9760304e-05
5.9761822e-05
7.2510419e-05
8.860691e-05
0.00010927736
0.00013515967
0.00016969893
0.00021272154
0.00027594738
0.00035238976
0.00051557404
0.00075590982
0.0010026757
0.0010015725
1.6863868e-20
3.2798473e-18
8.7360565e-17
8.8555002e-16
5.3535169e-15
2.3702024e-14
8.5494102e-14
2.6713023e-13
7.5113773e-13
1.9492982e-12
4.7509718e-12
1.1012261e-11
2.4500721e-11
5.2688498e-11
1.1010232e-10
2.2448809e-10
4.4798507e-10
8.7706277e-10
1.6874704e-09
3.1942234e-09
5.951787e-09
1.0915105e-08
1.968388e-08
3.4839852e-08
6.0339907e-08
1.0182793e-07
1.6660519e-07
2.6301077e-07
3.9935241e-07
5.8287363e-07
8.203888e-07
1.1213514e-06
1.5040762e-06
2.0126764e-06
2.7451176e-06
3.8745066e-06
5.6844189e-06
8.2181139e-06
1.0135612e-05
1.2950838e-05
1.4025267e-05
1.4946459e-05
1.6024125e-05
1.7277848e-05
1.8953886e-05
2.1109527e-05
2.3809117e-05
2.7154032e-05
3.1289555e-05
3.6424924e-05
4.2835481e-05
5.0912218e-05
6.1088021e-05
7.4059729e-05
9.0396491e-05
0.00011132855
0.00013744183
0.00017225415
0.00021544041
0.00027930519
0.00035468261
0.00052143409
0.00076009488
0.0010025255
0.0010014106
1.660549e-20
3.2295918e-18
8.602155e-17
8.7196254e-16
5.2711872e-15
2.3336157e-14
8.4167475e-14
2.6295701e-13
7.3930505e-13
1.9182829e-12
4.6744826e-12
1.0832496e-11
2.4094221e-11
5.179748e-11
1.0819795e-10
2.2050015e-10
4.3976975e-10
8.6035708e-10
1.6538392e-09
3.1270292e-09
5.8182885e-09
1.0651056e-08
1.9163982e-08
3.3822959e-08
5.8373843e-08
9.810212e-08
1.5976289e-07
2.5108616e-07
3.7965179e-07
5.5225373e-07
7.7569994e-07
1.0601127e-06
1.4256989e-06
1.9255713e-06
2.6503508e-06
3.7971205e-06
5.8025991e-06
8.6039633e-06
1.1506908e-05
1.3382714e-05
1.4446552e-05
1.5325986e-05
1.6427041e-05
1.771926e-05
1.9444267e-05
2.1648767e-05
2.4406393e-05
2.7829429e-05
3.2066989e-05
3.732386e-05
4.3868531e-05
5.2099238e-05
6.2451883e-05
7.5648761e-05
9.2228731e-05
0.00011343226
0.000139799
0.00017487356
0.00021824787
0.00028244579
0.00035683486
0.00052740298
0.00076249878
0.0010023592
0.0010011638
1.6370061e-20
3.1838007e-18
8.4801494e-17
8.5958143e-16
5.196155e-15
2.300263e-14
8.2957669e-14
2.5914947e-13
7.2850302e-13
1.88995e-12
4.6045541e-12
1.0668003e-11
2.3721881e-11
5.0980397e-11
1.0644929e-10
2.1683267e-10
4.322009e-10
8.4493248e-10
1.6227046e-09
3.0646197e-09
5.6937988e-09
1.0403647e-08
1.8674196e-08
3.2859546e-08
5.650159e-08
9.4540776e-08
1.532599e-07
2.3976563e-07
3.6106599e-07
5.2369342e-07
7.3476694e-07
1.0054204e-06
1.3633774e-06
1.8600758e-06
2.5902933e-06
3.7994236e-06
5.997068e-06
9.0986757e-06
1.2268304e-05
1.4003868e-05
1.4924707e-05
1.5735156e-05
1.6846518e-05
1.8177794e-05
1.9951784e-05
2.2204564e-05
2.5017093e-05
2.851363e-05
3.2852531e-05
3.8235331e-05
4.4922772e-05
5.3315767e-05
6.3849402e-05
7.7273262e-05
9.4094789e-05
0.00011557865
0.00014220742
0.00017756572
0.00022111795
0.00028521791
0.00035879081
0.00053269523
0.00075985767
0.0010021012
0.0010007624
1.6164255e-20
3.1437721e-18
8.3734956e-17
8.4875693e-16
5.1305404e-15
2.2710849e-14
8.1898703e-14
2.5581429e-13
7.190329e-13
1.8650854e-12
4.5431133e-12
1.052328e-11
2.3393786e-11
5.0259127e-11
1.0490251e-10
2.135808e-10
4.2547069e-10
8.3117018e-10
1.5948107e-09
3.008426e-09
5.5810349e-09
1.017798e-08
1.822406e-08
3.1967477e-08
5.4756913e-08
9.1226398e-08
1.4720944e-07
2.2926596e-07
3.4400493e-07
4.979294e-07
6.9886518e-07
9.6161139e-07
1.3171524e-06
1.8149144e-06
2.5728359e-06
3.8773017e-06
6.3245246e-06
1.0056882e-05
1.3226886e-05
1.4693387e-05
1.5378538e-05
1.6138664e-05
1.7265242e-05
1.8639019e-05
2.0466686e-05
2.2770288e-05
2.5637634e-05
2.9205222e-05
3.3642659e-05
3.9152211e-05
4.5988344e-05
5.4551363e-05
6.5271688e-05
7.8924806e-05
9.5983107e-05
0.00011775966
0.00014463591
0.00018036843
0.00022398051
0.0002876545
0.00036030471
0.00053579291
0.0007501106
0.0010015824
0.0010002734
1.5994989e-20
3.1108498e-18
8.2857704e-17
8.3985185e-16
5.076541e-15
2.247058e-14
8.1025969e-14
2.5306278e-13
7.1121016e-13
1.8445153e-12
4.4921965e-12
1.0403107e-11
2.312072e-11
4.9657241e-11
1.0360778e-10
2.1084899e-10
4.1979261e-10
8.1949971e-10
1.5710103e-09
2.9601232e-09
5.4832596e-09
9.9803766e-09
1.7825778e-08
3.1170798e-08
5.3195055e-08
8.8251762e-08
1.4177452e-07
2.1989515e-07
3.2900295e-07
4.7589529e-07
6.7014947e-07
9.3029733e-07
1.2858742e-06
1.7953827e-06
2.611073e-06
4.0575498e-06
6.8757308e-06
1.1314535e-05
1.4294681e-05
1.5306239e-05
1.5777989e-05
1.6539054e-05
1.7663193e-05
1.9092359e-05
2.0978633e-05
2.33377e-05
2.6262843e-05
2.9901825e-05
3.4434029e-05
4.0067409e-05
4.7053694e-05
5.5791753e-05
6.6705043e-05
8.0590037e-05
9.7880166e-05
0.00011996571
0.00014705687
0.00018331827
0.00022671253
0.0002900125
0.00036104207
0.00053604287
0.0007334185
0.0010010136
0.00099976854
1.5874232e-20
3.0873615e-18
8.223177e-17
8.3349589e-16
5.0379716e-15
2.2298772e-14
8.0400917e-14
2.5108817e-13
7.0558249e-13
1.8296745e-12
4.4553379e-12
1.031578e-11
2.2921413e-11
4.9215701e-11
1.0265239e-10
2.0881931e-10
4.1553964e-10
8.106739e-10
1.5528038e-09
2.9226695e-09
5.4062506e-09
9.8220723e-09
1.7501612e-08
3.0514554e-08
5.1891133e-08
8.5745035e-08
1.3719267e-07
2.12083e-07
3.1678263e-07
4.5898631e-07
6.5066976e-07
9.1157554e-07
1.2740209e-06
1.8182837e-06
2.7225879e-06
4.397153e-06
7.7626589e-06
1.2869248e-05
1.5293466e-05
1.5792804e-05
1.612505e-05
1.690927e-05
1.8036014e-05
1.9531827e-05
2.1478478e-05
2.389577e-05
2.6883589e-05
3.0596443e-05
3.5220601e-05
4.0972893e-05
4.8106869e-05
5.7021996e-05
6.813421e-05
8.2253868e-05
9.9773988e-05
0.00012218649
0.0001494693
0.00018642313
0.00022929845
0.00029279171
0.00036120481
0.00053523503
0.00071749583
0.0010002051
0.0009992836
1.5825953e-20
3.0779701e-18
8.1981366e-17
8.3094897e-16
5.0224615e-15
2.2229282e-14
8.0146101e-14
2.5027508e-13
7.0323724e-13
1.823403e-12
4.439513e-12
1.0277609e-11
2.2832522e-11
4.9014264e-11
1.0220524e-10
2.0784142e-10
4.1342182e-10
8.0611029e-10
1.5429781e-09
2.9014681e-09
5.3603688e-09
9.722718e-09
1.7287401e-08
3.0059294e-08
5.095357e-08
8.3912208e-08
1.3384991e-07
2.0652573e-07
3.0866849e-07
4.4922696e-07
6.4228675e-07
9.0904867e-07
1.2937811e-06
1.9000064e-06
2.9475313e-06
4.9459293e-06
9.0236223e-06
1.4588144e-05
1.6082251e-05
1.612898e-05
1.6421379e-05
1.7251551e-05
1.8379155e-05
1.995207e-05
2.1956194e-05
2.4433195e-05
2.7486869e-05
3.1276938e-05
3.5991794e-05
4.1858349e-05
4.9136095e-05
5.8228695e-05
6.9545675e-05
8.3904453e-05
0.0001016577
0.00012441311
0.00015189671
0.0001896553
0.00023191744
0.00029659267
0.00036201432
0.00053520361
0.0006988467
0.00099930976
0.00099908111
1.5889167e-20
3.0902633e-18
8.2308637e-17
8.3426115e-16
5.0424186e-15
2.231716e-14
8.0460643e-14
2.5124799e-13
7.0593833e-13
1.8303039e-12
4.4560135e-12
1.0314969e-11
2.2913262e-11
4.9181625e-11
1.0253862e-10
2.0847854e-10
4.145819e-10
8.0808939e-10
1.5460202e-09
2.9052351e-09
5.3623009e-09
9.7137145e-09
1.7242053e-08
2.9917319e-08
5.0593474e-08
8.3134414e-08
1.3242421e-07
2.0437572e-07
3.0647863e-07
4.4939471e-07
6.4830824e-07
9.300592e-07
1.3562026e-06
2.0509879e-06
3.2913594e-06
5.7254194e-06
1.0767549e-05
1.6167561e-05
1.6582029e-05
1.6360158e-05
1.6674253e-05
1.75381e-05
1.8717814e-05
2.0346864e-05
2.2403388e-05
2.4937942e-05
2.8059192e-05
3.1928008e-05
3.6733119e-05
4.2710601e-05
5.0128534e-05
5.9398911e-05
7.0927608e-05
8.5534674e-05
0.00010353112
0.00012664046
0.00015437451
0.00019296882
0.00023490031
0.00030237747
0.00036323942
0.00053738093
0.00067235991
0.00099877322
0.00099913346
1.6115241e-20
3.1342316e-18
8.3479723e-17
8.4613113e-16
5.1141676e-15
2.2634755e-14
8.1605878e-14
2.5482491e-13
7.15991e-13
1.8563743e-12
4.5194982e-12
1.0461944e-11
2.3239715e-11
4.9881951e-11
1.0399672e-10
2.1143459e-10
4.2042788e-10
8.1936997e-10
1.5672243e-09
2.943907e-09
5.4302642e-09
9.8276309e-09
1.742172e-08
3.0180309e-08
5.0950234e-08
8.3607017e-08
1.3315451e-07
2.0589596e-07
3.1023935e-07
4.5795466e-07
6.6762348e-07
9.7615884e-07
1.4590072e-06
2.2747426e-06
3.7832472e-06
6.8283801e-06
1.3151718e-05
1.7267047e-05
1.6806998e-05
1.6500849e-05
1.6898886e-05
1.7780457e-05
1.9024423e-05
2.0707013e-05
2.2811222e-05
2.539982e-05
2.8588101e-05
3.2535006e-05
3.7429258e-05
4.3514705e-05
5.1069678e-05
6.0517487e-05
7.2266957e-05
8.7135267e-05
0.00010539643
0.00012886681
0.0001569308
0.00019627817
0.00023819999
0.00030813522
0.00036313737
0.00064171026
0.00066757301
0.00099846621
0.00099914534
1.6561559e-20
3.2210369e-18
8.5791935e-17
8.6957294e-16
5.2559355e-15
2.3262798e-14
8.3873183e-14
2.6191693e-13
7.3595931e-13
1.9082749e-12
4.6462173e-12
1.075624e-11
2.389585e-11
5.1295941e-11
1.0695716e-10
2.1747854e-10
4.3248922e-10
8.4292618e-10
1.6122463e-09
3.0279949e-09
5.5833073e-09
1.0098025e-08
1.7883741e-08
3.0943054e-08
5.2174772e-08
8.5556663e-08
1.3633686e-07
2.1140721e-07
3.2022204e-07
4.7681956e-07
7.0482003e-07
1.0525611e-06
1.6158527e-06
2.6023557e-06
4.4894207e-06
8.3756261e-06
1.6335695e-05
1.7708785e-05
1.6771646e-05
1.6559447e-05
1.7084713e-05
1.7963816e-05
1.9295161e-05
2.1025674e-05
2.3173234e-05
2.581192e-05
2.9065154e-05
3.3087401e-05
3.8068179e-05
4.4257506e-05
5.1944456e-05
6.1565694e-05
7.354318e-05
8.868438e-05
0.00010724585
0.00013108023
0.0001595969
0.00019925583
0.00024190936
0.00031240707
0.00036078839
0.00060569228
0.00065892723
0.00099790941
0.00099984528
1.7284365e-20
3.3616164e-18
8.9536552e-17
9.0753939e-16
5.4855748e-15
2.4280345e-14
8.7547787e-14
2.7341552e-13
7.6835065e-13
1.9925143e-12
4.8520357e-12
1.1234623e-11
2.4963407e-11
5.3599092e-11
1.1178558e-10
2.2735208e-10
4.5223359e-10
8.8159367e-10
1.6864329e-09
3.1673215e-09
5.8389696e-09
1.055525e-08
1.8678918e-08
3.2287823e-08
5.439671e-08
8.9185354e-08
1.4229541e-07
2.2140178e-07
3.3744698e-07
5.0716916e-07
7.628091e-07
1.1651844e-06
1.8400696e-06
3.06448e-06
5.4781669e-06
1.0497208e-05
1.8776935e-05
1.7591851e-05
1.6619764e-05
1.6571629e-05
1.7179808e-05
1.8139525e-05
1.9526027e-05
2.1297113e-05
2.3484552e-05
2.6171509e-05
2.9486217e-05
3.3579981e-05
3.8643656e-05
4.4930978e-05
5.2741679e-05
6.2525942e-05
7.4728248e-05
9.0147583e-05
0.00010904645
0.00013327435
0.00016240379
0.00020232483
0.00024637035
0.0003117419
0.00036466217
0.00057903011
0.00065732014
0.00099771404
0.0010019053
1.8335932e-20
3.5661369e-18
9.4984423e-17
9.6277646e-16
5.8196902e-15
2.5760938e-14
9.2895098e-14
2.901505e-13
8.155001e-13
2.1151564e-12
5.1517419e-12
1.193138e-11
2.6518652e-11
5.6955208e-11
1.1882329e-10
2.4174739e-10
4.8102954e-10
9.380119e-10
1.7947466e-09
3.3709665e-09
6.2133861e-09
1.1227113e-08
1.9853769e-08
3.4290514e-08
5.7738088e-08
9.4689564e-08
1.513548e-07
2.3646033e-07
3.6283778e-07
5.5264271e-07
8.4656543e-07
1.3242857e-06
2.1537376e-06
3.7097419e-06
6.8518833e-06
1.3351003e-05