/*--------------------------------*- C++ -*----------------------------------*\
  =========                 |
  \\      /  F ield         | OpenFOAM: The Open Source CFD Toolbox
   \\    /   O peration     | Website:  https://openfoam.org
    \\  /    A nd           | Version:  13
     \\/     M anipulation  |
\*---------------------------------------------------------------------------*/
FoamFile
{
    format      ascii;
    class       volScalarField;
    location    "47.000879";
    object      nut;
}
// * * * * * * * * * * * * * * * * * * * * * * * * * * * * * * * * * * * * * //

dimensions      [0 2 -1 0 0 0 0];

internalField   nonuniform List<scalar> 
17140
(
1.2762964e-18
2.4822279e-16
6.611505e-15
6.7027051e-14
4.0536069e-13
1.7959808e-12
6.485386e-12
2.0295104e-11
5.7181351e-11
1.4876113e-10
3.6365858e-10
8.4592831e-10
1.8900065e-09
4.0847677e-09
8.5870044e-09
1.7635201e-08
3.5506141e-08
7.0282252e-08
1.3709471e-07
2.6403866e-07
5.0290364e-07
9.485408e-07
1.7736505e-06
3.2909646e-06
6.0638058e-06
1.1101377e-05
2.0200638e-05
3.6536101e-05
6.5652246e-05
0.0001170579
0.00020656887
0.0003591595
0.00061100524
0.0010077231
0.0015953532
0.0024044252
0.0034345468
0.004649012
0.0059818918
0.0073524328
0.0086805744
0.0098967476
0.010939869
0.011804239
0.012535707
0.013115404
0.013573225
0.013942525
0.014250209
0.01451092
0.014724513
0.014879362
0.014948995
0.014843281
0.014376145
0.013358397
0.011681623
0.0094665654
0.0080969805
0.0098689861
0.014387632
0.014859679
0.0049270585
0.0027591915
0.0036684788
1.2747012e-18
2.4791236e-16
6.6032471e-15
6.6943731e-14
4.0486176e-13
1.7938035e-12
6.4776839e-12
2.0271627e-11
5.7117295e-11
1.4860079e-10
3.6328418e-10
8.4510364e-10
1.8882804e-09
4.0813213e-09
8.5804357e-09
1.7623297e-08
3.5485855e-08
7.0250585e-08
1.3705244e-07
2.6400195e-07
5.0293595e-07
9.4883477e-07
1.7747288e-06
3.294156e-06
6.0723441e-06
1.1122878e-05
2.0252407e-05
3.6656318e-05
6.5922284e-05
0.00011764341
0.00020778866
0.00036158472
0.00061552058
0.0010154095
0.0016071615
0.0024206275
0.0034543067
0.0046704155
0.0060024609
0.0073698489
0.0086931737
0.0099036147
0.010940616
0.011800039
0.012530155
0.013110913
0.013573897
0.013953921
0.014279647
0.014568311
0.014825296
0.015053168
0.015226158
0.015281025
0.015099183
0.014502746
0.013365288
0.011864254
0.011031299
0.012334595
0.015030935
0.011603462
0.0048780235
0.0029239562
0.0033616931
1.2641678e-18
2.4586373e-16
6.5486841e-15
6.6390814e-14
4.0152144e-13
1.7790308e-12
6.4244762e-12
2.0105671e-11
5.6651608e-11
1.4739507e-10
3.6035309e-10
8.3832907e-10
1.8732553e-09
4.0491208e-09
8.513397e-09
1.7487157e-08
3.5215332e-08
6.9723349e-08
1.3604291e-07
2.6210083e-07
4.9941324e-07
9.4241317e-07
1.7632229e-06
3.2739291e-06
6.0375565e-06
1.10646e-05
2.0157999e-05
3.6510144e-05
6.5711081e-05
0.00011736323
0.00020745532
0.0003612262
0.00061520286
0.0010153016
0.0016072935
0.0024205438
0.0034528616
0.0046658745
0.0059928949
0.0073536286
0.0086693204
0.0098718342
0.010900877
0.011753243
0.01247948
0.013058041
0.013522048
0.013907596
0.01424553
0.014556731
0.014851934
0.015135882
0.015413616
0.015628195
0.015697442
0.015507479
0.01489573
0.013933846
0.013494741
0.014064555
0.015119668
0.0091106607
0.0059776105
0.0034765428
0.0030958709
1.2436144e-18
2.4186634e-16
6.4422152e-15
6.5311668e-14
3.9499862e-13
1.7501575e-12
6.320348e-12
1.9780358e-11
5.5736891e-11
1.4502103e-10
3.5456545e-10
8.2490808e-10
1.8433755e-09
3.9848014e-09
8.3787975e-09
1.7212156e-08
3.4664933e-08
6.8641344e-08
1.3394925e-07
2.5810679e-07
4.9189206e-07
9.2842056e-07
1.7374909e-06
3.227146e-06
5.9534825e-06
1.0915352e-05
1.9896182e-05
3.6054673e-05
6.4921439e-05
0.00011601113
0.00020519041
0.00035758009
0.00060956664
0.0010068433
0.0015949754
0.0024031188
0.0034288721
0.0046337774
0.0059513164
0.0073016365
0.0086067432
0.0097987397
0.010817393
0.011660126
0.012379132
0.012951943
0.013412124
0.01379713
0.014139799
0.014464677
0.01478818
0.015124437
0.01548462
0.015857644
0.016164612
0.016322837
0.016207997
0.015774168
0.015472645
0.015285351
0.01447845
0.0088992807
0.0070589533
0.0038864943
0.0028589036
1.2125884e-18
2.3583221e-16
6.2814976e-15
6.3682542e-14
3.8514945e-13
1.7065447e-12
6.1629848e-12
1.9288412e-11
5.4352537e-11
1.414247e-10
3.4578836e-10
8.0452888e-10
1.7979376e-09
3.8868248e-09
8.1733588e-09
1.6791454e-08
3.3820632e-08
6.6976195e-08
1.307147e-07
2.519071e-07
4.8014981e-07
9.064185e-07
1.6966687e-06
3.1520974e-06
5.8166544e-06
1.0667403e-05
1.9449481e-05
3.5257392e-05
6.3517002e-05
0.00011357644
0.00020106093
0.00035073158
0.00059854515
0.00098980218
0.0015698424
0.0023678546
0.0033816909
0.0045732924
0.0058766782
0.0072124032
0.0085026764
0.0096809154
0.010686389
0.011516452
0.012223965
0.012785442
0.013235526
0.013612223
0.013950048
0.014276614
0.014613464
0.01498376
0.015413703
0.015905142
0.016430232
0.016903376
0.017215349
0.017195251
0.017038097
0.016193346
0.013875135
0.0099811722
0.0078670539
0.004070266
0.0026519392
1.1712669e-18
2.2779575e-16
6.0674471e-15
6.1512696e-14
3.7202966e-13
1.6484378e-12
5.9532659e-12
1.8632557e-11
5.2506129e-11
1.3662555e-10
3.3406865e-10
7.7729861e-10
1.7371766e-09
3.7556903e-09
7.8981118e-09
1.6227128e-08
3.2686529e-08
6.4735853e-08
1.263544e-07
2.435303e-07
4.6423951e-07
8.7650462e-07
1.6409352e-06
3.0490535e-06
5.627423e-06
1.0322679e-05
1.8826989e-05
3.4143206e-05
6.1544868e-05
0.00011012974
0.00019512291
0.00034072145
0.00058219171
0.00096419914
0.0015317961
0.0023144296
0.0033106642
0.0044831463
0.0057665994
0.0070827014
0.0083545647
0.0095152964
0.010503676
0.011316673
0.012007554
0.012550301
0.012981406
0.01333858
0.013657316
0.013967484
0.014295101
0.014672846
0.015142649
0.015725025
0.016411346
0.017158629
0.017825789
0.01668439
0.016932075
0.017374643
0.013884413
0.011915153
0.0082349946
0.0040611739
0.0023773264
1.1203508e-18
2.178933e-16
5.8036952e-15
5.8838935e-14
3.5586173e-13
1.5768216e-12
5.694743e-12
1.7823891e-11
5.0228878e-11
1.3070462e-10
3.1960401e-10
7.4367605e-10
1.6621154e-09
3.5936034e-09
7.5576846e-09
1.552867e-08
3.1281728e-08
6.1958164e-08
1.2094238e-07
2.3311958e-07
4.4443596e-07
8.3920297e-07
1.5712637e-06
2.919964e-06
5.3901427e-06
9.8897446e-06
1.8042774e-05
3.2734126e-05
5.9033717e-05
0.00010569813
0.00018741278
0.00032759195
0.00056053089
0.00092999491
0.0014806591
0.0022423249
0.0032145243
0.0043615334
0.0056197126
0.0069115381
0.0081602395
0.0092986497
0.010264764
0.011054804
0.011721216
0.012237325
0.012638053
0.012961009
0.013241771
0.013511345
0.013799439
0.014149531
0.014618955
0.015242346
0.016028585
0.016957312
0.016361147
0.015540104
0.016520967
0.018374787
0.015311595
0.013380748
0.0079556734
0.0036222092
0.0020076984
1.0608588e-18
2.0632293e-16
5.495517e-15
5.5714743e-14
3.3696908e-13
1.4931288e-12
5.3925865e-12
1.6878585e-11
4.7566318e-11
1.2378027e-10
3.0268359e-10
7.0433338e-10
1.5742547e-09
3.4038054e-09
7.1588865e-09
1.471006e-08
2.9634365e-08
5.8698831e-08
1.1458737e-07
2.2088474e-07
4.2113984e-07
7.952682e-07
1.4891346e-06
2.7676569e-06
5.1097222e-06
9.3769021e-06
1.7111081e-05
3.1052278e-05
5.6019298e-05
0.0001003461
0.0001780399
0.0003115165
0.00053380893
0.00088748048
0.0014165749
0.0021514463
0.0030934007
0.004208914
0.0054359191
0.0066977171
0.007917699
0.0090278979
0.0099654912
0.010726069
0.01135896
0.011836746
0.012192586
0.012462679
0.012681363
0.012879418
0.013090194
0.013370744
0.013788286
0.014381257
0.015174827
0.016181046
0.015100609
0.015429214
0.017203529
0.018717249
0.016693052
0.013621626
0.0065704335
0.0029091656
0.001630576
9.9402723e-19
1.9332504e-16
5.1493133e-15
5.2205006e-14
3.1574414e-13
1.3990973e-12
5.0530701e-12
1.5816259e-11
4.4573697e-11
1.1599615e-10
2.8365832e-10
6.6008631e-10
1.4754157e-09
3.1902307e-09
6.7099853e-09
1.3788272e-08
2.7778625e-08
5.5025556e-08
1.0742159e-07
2.0708091e-07
3.9483867e-07
7.4564135e-07
1.3962942e-06
2.595286e-06
4.7918623e-06
8.7944071e-06
1.6049803e-05
2.9129933e-05
5.2560822e-05
9.4179311e-05
0.00016718659
0.00029279485
0.00050248235
0.00083726126
0.0013404101
0.0020430269
0.0029485881
0.00402602
0.0052152325
0.0064405507
0.0076253739
0.00870027
0.0096016769
0.01032481
0.010912923
0.011338352
0.011631685
0.011826342
0.011953796
0.012043708
0.012136576
0.01230493
0.012608344
0.01307648
0.013745507
0.01466354
0.01496904
0.01623702
0.018484947
0.017743719
0.015907982
0.01169791
0.0044563306
0.0022403636
0.0013050334
9.2123715e-19
1.7916834e-16
4.7722438e-15
4.8382302e-14
2.9262569e-13
1.2966707e-12
4.6832091e-12
1.4658858e-11
4.1312804e-11
1.075129e-10
2.6292065e-10
6.1184734e-10
1.3676369e-09
2.9572855e-09
6.2202536e-09
1.2782394e-08
2.5753085e-08
5.1015168e-08
9.9596247e-08
1.9200309e-07
3.6610451e-07
6.9140311e-07
1.2947653e-06
2.4066174e-06
4.4435183e-06
8.1549509e-06
1.488228e-05
2.7010062e-05
4.8736199e-05
8.7336618e-05
0.00015509476
0.00027183459
0.0004672094
0.00078038149
0.0012536425
0.0019187969
0.0027816502
0.0038140789
0.0049583796
0.006140039
0.0072823179
0.0083135102
0.0091695066
0.0098456876
0.010375611
0.010732347
0.010942912
0.01103658
0.011040312
0.010985162
0.010929766
0.010948672
0.011067051
0.011302547
0.011699751
0.01234123
0.013376206
0.014758822
0.015796348
0.0150449
0.012908014
0.0072230704
0.0027547604
0.0016656166
0.0010157335
8.4441808e-19
1.6422807e-16
4.3743034e-15
4.4347973e-14
2.6822684e-13
1.1885674e-12
4.2928294e-12
1.3437167e-11
3.7870501e-11
9.8556866e-11
2.4102487e-10
5.6090815e-10
1.253809e-09
2.7112262e-09
5.7028529e-09
1.1719443e-08
2.361203e-08
4.6774642e-08
9.131837e-08
1.7604481e-07
3.3567149e-07
6.3391056e-07
1.187042e-06
2.2062244e-06
4.0730967e-06
7.4741343e-06
1.3637631e-05
2.4746805e-05
4.4645623e-05
8.0001653e-05
0.00014209447
0.00024920948
0.00042893405
0.00071825757
0.0011581408
0.001780906
0.0025948378
0.0035751742
0.0046669846
0.005797075
0.0068884395
0.0078661814
0.0086659603
0.0092841956
0.0097406127
0.010010597
0.010116834
0.010083569
0.0099325881
0.0097106066
0.009500492
0.009335354
0.009200278
0.0091069981
0.0091053166
0.0093014664
0.0098642797
0.010748016
0.011051353
0.010279737
0.0075617431
0.0028633055
0.0017322934
0.0012142526
0.00075614774
7.6529583e-19
1.4883984e-16
3.96443e-15
4.0192621e-14
2.4309537e-13
1.0772127e-12
3.8906821e-12
1.2178543e-11
3.4323777e-11
8.9328069e-11
2.1845921e-10
5.0840262e-10
1.1364614e-09
2.4575121e-09
5.169249e-09
1.0622965e-08
2.1402909e-08
4.2398146e-08
8.2772551e-08
1.5956458e-07
3.0423149e-07
5.7449101e-07
1.075656e-06
1.9989086e-06
3.6896497e-06
6.7688974e-06
1.2347312e-05
2.2398255e-05
4.0395735e-05
7.2368672e-05
0.00012853508
0.00022553211
0.0003886803
0.00065246375
0.0010560923
0.0016320879
0.002391213
0.0033123628
0.0043437438
0.0054136666
0.0064447732
0.007358044
0.0080893412
0.0086373024
0.00900363
0.009168371
0.0091500484
0.0089687096
0.0086463059
0.0082727949
0.0079131646
0.0075341173
0.0071155437
0.0066782217
0.0062495893
0.0059347689
0.0057985922
0.0057409709
0.0055845347
0.0043701556
0.0023081383
0.0013966846
0.0010885832
0.00077478387
0.00057713757
6.8568897e-19
1.3335737e-16
3.5520464e-15
3.6011787e-14
2.1780923e-13
9.651685e-13
3.4860233e-12
1.0911974e-11
3.0754377e-11
8.0039408e-11
1.9574481e-10
4.5554493e-10
1.0183119e-09
2.2020294e-09
4.6318468e-09
9.5185082e-09
1.9177342e-08
3.7988284e-08
7.4159944e-08
1.4295219e-07
2.7253244e-07
5.1456773e-07
9.6329687e-07
1.7897216e-06
3.3026164e-06
6.0567963e-06
1.1043838e-05
2.0024359e-05
3.6096477e-05
6.4637627e-05
0.00011477513
0.00020143015
0.00034750498
0.0005846816
0.00094996511
0.0014756112
0.0021746407
0.0030297425
0.0039925716
0.0049931489
0.0059537445
0.006790495
0.0074399991
0.0079042511
0.0081638077
0.0082065599
0.0080488417
0.0077111751
0.0072384188
0.0067546413
0.0062436698
0.0056566635
0.0050056369
0.0043206789
0.0035490726
0.0029285339
0.0023452952
0.0017959169
0.0015500853
0.0012863837
0.0011520207
0.00091187216
0.00068555338
0.00053500489
0.00051078216
6.0739907e-19
1.18131e-16
3.1464832e-15
3.1900065e-14
1.9294059e-13
8.5497086e-13
3.088016e-12
9.6661554e-12
2.7243223e-11
7.0901628e-11
1.7339747e-10
4.035366e-10
9.0204934e-10
1.9506004e-09
4.1029128e-09
8.4313303e-09
1.6986335e-08
3.3646379e-08
6.567904e-08
1.2659187e-07
2.4131073e-07
4.5554005e-07
8.5260455e-07
1.5836148e-06
2.9212376e-06
5.3550044e-06
9.7590068e-06
1.7683786e-05
3.1855621e-05
5.7005255e-05
0.00010117002
0.00017753414
0.00030649259
0.0005166851
0.00084245363
0.0013151937
0.0019497325
0.0027324686
0.0036187057
0.0045403699
0.0054193315
0.0061669162
0.0067215288
0.0070874601
0.0072254432
0.0071343829
0.0068328188
0.0063510276
0.0057902254
0.0052273249
0.0045825684
0.0038553474
0.0030782436
0.0022728118
0.0015925214
0.00090958624
0.00066114676
0.00055550359
0.0005908674
0.00071575853
0.00071142824
0.00058424898
0.00048381557
0.00045622191
0.00052708286
5.3208907e-19
1.0348418e-16
2.7563562e-15
2.7944814e-14
1.6901797e-13
7.4896242e-13
2.7051251e-12
8.4675984e-12
2.3865087e-11
6.2109484e-11
1.5189397e-10
3.5348842e-10
7.9015994e-10
1.7086094e-09
3.5937921e-09
7.3847922e-09
1.4877066e-08
2.9466155e-08
5.7513427e-08
1.1083898e-07
2.112472e-07
3.9870126e-07
7.4601812e-07
1.3851605e-06
2.5540415e-06
4.6793644e-06
8.522148e-06
1.5430661e-05
2.7772717e-05
4.9653836e-05
8.8051158e-05
0.00015443893
0.00026668623
0.00045022976
0.00073632624
0.0011548312
0.001721695
0.0024266705
0.003228739
0.0040619146
0.0048469308
0.0054919508
0.0059438328
0.0061931021
0.0062002641
0.005972943
0.005539305
0.0049553934
0.0043775225
0.0037582177
0.0030416437
0.0022613847
0.0015173309
0.00088457403
0.00047163875
0.00028324362
0.00024301106
0.00029703628
0.00036435625
0.00042031154
0.00044575917
0.0004225418
0.00042226437
0.00047068584
0.00055651681
4.6118766e-19
8.9694818e-17
2.3890689e-15
2.4221112e-14
1.4649558e-13
6.4915674e-13
2.3446274e-12
7.3390973e-12
2.0684266e-11
5.3830487e-11
1.3164444e-10
3.063562e-10
6.8478358e-10
1.4806916e-09
3.1142542e-09
6.3990158e-09
1.289018e-08
2.5528363e-08
4.9821294e-08
9.5999681e-08
1.8292837e-07
3.4516513e-07
6.45637e-07
1.1982915e-06
2.2083585e-06
4.0434814e-06
7.3584262e-06
1.3311397e-05
2.393315e-05
4.2740022e-05
7.5704828e-05
0.00013266408
0.00022901504
0.00038692783
0.00063423324
0.00099854337
0.0014960532
0.0021192155
0.0028305099
0.0035663339
0.0042445363
0.0047755386
0.0051158352
0.0052357687
0.0051108199
0.0047600274
0.0042299496
0.0036308074
0.0030662757
0.002428114
0.001717879
0.001059823
0.00051370793
0.00026740949
0.00015391715
0.0001242285
0.00015260774
0.00019612136
0.0002409844
0.00029391415
0.00034533005
0.00038211453
0.00039987081
0.00046832058
0.00051980768
3.9581657e-19
7.6981046e-17
2.0504308e-15
2.0787851e-14
1.2572969e-13
5.571334e-13
2.0122324e-12
6.2985409e-12
1.7751237e-11
4.6196178e-11
1.1297106e-10
2.6289097e-10
5.8760226e-10
1.270492e-09
2.6719832e-09
5.4898322e-09
1.1057662e-08
2.189656e-08
4.272715e-08
8.231494e-08
1.5681568e-07
2.9580747e-07
5.5311068e-07
1.0260943e-06
1.8899319e-06
3.4579948e-06
6.287479e-06
1.1362139e-05
2.0403321e-05
3.6385678e-05
6.4354671e-05
0.00011261989
0.0001942285
0.00032812545
0.00053849518
0.00085005417
0.0012782365
0.0018172292
0.0024324635
0.003062651
0.0036238185
0.0040316868
0.0042510707
0.0042390964
0.0039944169
0.0035545653
0.0029962181
0.0024623246
0.0019185082
0.0013199179
0.00076095188
0.00034706511
0.00016087437
9.1295906e-05
7.4650668e-05
9.0327944e-05
0.00012057107
0.00016467358
0.00021646685
0.00027652305
0.00033832727
0.00035662108
0.00034715956
0.00040741373
0.00045952172
3.3673016e-19
6.5489535e-17
1.7443473e-15
1.7684635e-14
1.0695994e-13
4.7395503e-13
1.7117819e-12
5.3579699e-12
1.5099987e-11
3.9295163e-11
9.6090966e-11
2.2359917e-10
4.9975076e-10
1.0804708e-09
2.2721685e-09
4.6679371e-09
9.4011297e-09
1.8613708e-08
3.6315155e-08
6.9947573e-08
1.3322076e-07
2.5121907e-07
4.695501e-07
8.7064306e-07
1.6026106e-06
2.93001e-06
5.3223686e-06
9.6068305e-06
1.7227064e-05
3.0671173e-05
5.4148818e-05
9.4582009e-05
0.00016284498
0.000274798
0.00045090104
0.00071244563
0.0010730748
0.0015275037
0.0020432177
0.0025607832
0.0029966876
0.0032803666
0.0033705684
0.003238759
0.0029070541
0.0024375408
0.0019483078
0.0014863197
0.001001585
0.00053724235
0.00024201782
0.0001099772
5.8034994e-05
4.8250145e-05
6.2080087e-05
8.8619212e-05
0.00012867543
0.00017988211
0.0002378712
0.00030008691
0.00034994914
0.00030580374
0.00030374211
0.00036630771
0.00044056623
2.8428869e-19
5.5290335e-17
1.4726847e-15
1.4930392e-14
9.030091e-14
4.0012993e-13
1.445115e-12
4.5231544e-12
1.2746822e-11
3.3170012e-11
8.1108627e-11
1.8872484e-10
4.2177675e-10
9.1181721e-10
1.9173225e-09
3.9385157e-09
7.9310734e-09
1.5700676e-08
3.0626204e-08
5.8976674e-08
1.1229479e-07
2.1168588e-07
3.9549094e-07
7.3293249e-07
1.3482269e-06
2.4628771e-06
4.4691832e-06
8.0564897e-06
1.4424316e-05
2.5632815e-05
4.5154613e-05
7.867954e-05
0.00013512297
0.00022748019
0.00037254905
0.00058783906
0.00088426696
0.0012558013
0.0016710839
0.0020714095
0.002379791
0.0025390084
0.0025081543
0.0022866713
0.0019234808
0.0015073296
0.0011266699
0.00074262247
0.00036962532
0.00016515906
7.7136048e-05
4.0845603e-05
3.3297493e-05
4.578477e-05
7.0807802e-05
0.00010978525
0.00015857517
0.00021374818
0.00027260298
0.00034457109
0.00031963286
0.00027823558
0.00027829047
0.00033709373
0.00039664051
2.3844763e-19
4.6374854e-17
1.2352153e-15
1.2522819e-14
7.5738722e-14
3.3559727e-13
1.2120145e-12
3.7934245e-12
1.0689888e-11
2.7815997e-11
6.8012728e-11
1.5824226e-10
3.5362423e-10
7.6441321e-10
1.6072031e-09
3.301082e-09
6.6465327e-09
1.3155582e-08
2.5656632e-08
4.9395098e-08
9.4023754e-08
1.7718013e-07
3.3087734e-07
6.1284862e-07
1.1265451e-06
2.0561048e-06
3.7268965e-06
6.7089903e-06
1.1990775e-05
2.1262331e-05
3.7357666e-05
6.48927e-05
0.00011105292
0.00018623719
0.00030375631
0.00047716145
0.00071388481
0.0010059195
0.001321955
0.0016053997
0.0017919289
0.0018333832
0.0017099702
0.001451046
0.0011267834
0.00082274545
0.00053236504
0.00024797412
0.000110382
5.3332517e-05
2.9524574e-05
2.4687747e-05
3.5310173e-05
5.7869372e-05
9.4524564e-05
0.00014375217
0.00019945939
0.00025902897
0.00032751459
0.00040492128
0.00031006139
0.00026391003
0.00025801453
0.00031847492
0.00039779971
1.987917e-19
3.8662321e-17
1.0297878e-15
1.0440107e-14
6.3141542e-14
2.7977316e-13
1.0103734e-12
3.1621913e-12
8.910637e-12
2.3184907e-11
5.6685534e-11
1.3187783e-10
2.9468239e-10
6.3693956e-10
1.3390378e-09
2.7499415e-09
5.5360339e-09
1.095568e-08
2.1361944e-08
4.111678e-08
7.82427e-08
1.4738796e-07
2.7511555e-07
5.0927267e-07
9.35463e-07
1.7057496e-06
3.0881225e-06
5.5505258e-06
9.9007307e-06
1.751223e-05
3.0671723e-05
5.306985e-05
9.0384141e-05
0.00015069666
0.00024406981
0.00038007861
0.00056218791
0.00077959602
0.0010005124
0.0011744049
0.0012510614
0.0012020009
0.0010347542
0.00080260676
0.00057138715
0.00035915128
0.00015983232
7.244988e-05
3.6463441e-05
2.1352164e-05
1.8838259e-05
2.8286319e-05
4.8186254e-05
8.3128383e-05
0.00013209285
0.00018897544
0.00024797007
0.00031113815
0.00037685979
0.00044433752
0.00030435322
0.00025962062
0.00025802924
0.00030868406
0.00038150736
1.6459234e-19
3.2010998e-17
8.5262602e-16
8.643972e-15
5.2277821e-14
2.3163171e-13
8.3648725e-13
2.6178631e-12
7.3764091e-12
1.9191776e-11
4.6919321e-11
1.0914827e-10
2.4387116e-10
5.2706081e-10
1.1079135e-09
2.2749929e-09
4.5792077e-09
9.0605606e-09
1.7663086e-08
3.3988858e-08
6.4658946e-08
1.2175359e-07
2.2715729e-07
4.2023867e-07
7.7131046e-07
1.4049844e-06
2.5401891e-06
4.5576111e-06
8.1107377e-06
1.4302511e-05
2.4950945e-05
4.2949974e-05
7.2663891e-05
0.00012011433
0.00019237223
0.00029516654
0.00042786147
0.00057675175
0.00071131893
0.00079095557
0.00078533914
0.00069021836
0.00053777584
0.00037471318
0.00022589644
0.00010132246
4.6568335e-05
2.4696154e-05
1.5555688e-05
1.4545682e-05
2.3077176e-05
4.0465847e-05
7.2363017e-05
0.00011860257
0.00014642903
0.00017543442
0.00024109652
0.00034342756
0.00041321283
0.00047558833
0.00030261281
0.00025994442
0.00025538874
0.00030563242
0.00038388089
1.3488598e-19
2.6233499e-17
6.9873897e-16
7.083815e-15
4.2841535e-14
1.8981689e-13
6.8545837e-13
2.1451093e-12
6.0439961e-12
1.5724146e-11
3.8439021e-11
8.9413267e-11
1.997586e-10
4.316786e-10
9.0730705e-10
1.8628146e-09
3.7489671e-09
7.4164459e-09
1.4454755e-08
2.7807541e-08
5.2881966e-08
9.9534717e-08
1.8560101e-07
3.4311417e-07
6.2916348e-07
1.1446325e-06
2.0660652e-06
3.6987979e-06
6.5630894e-06
1.1527878e-05
2.0004687e-05
3.4193358e-05
5.730415e-05
9.3523585e-05
0.00014720843
0.00022053522
0.00030922064
0.00039800075
0.00046100251
0.00047313802
0.0004260505
0.0003349534
0.00023026017
0.00013323064
6.0479305e-05
2.9287524e-05
1.6552956e-05
1.1415331e-05
1.1442105e-05
1.879378e-05
3.4179023e-05
6.2864961e-05
0.00010551135
0.00011798586
0.000134471
0.00016483834
0.00022498108
0.00034915254
0.00047165641
0.00040732626
0.00029585089
0.00026167098
0.00025988458
0.00031134878
0.00039626486
1.0867283e-19
2.1135393e-17
5.6294844e-16
5.7071387e-15
3.451516e-14
1.5292163e-13
5.5220451e-13
1.72802e-12
4.8685519e-12
1.266528e-11
3.0959064e-11
7.2007975e-11
1.6085777e-10
3.4757531e-10
7.304443e-10
1.4994692e-09
3.0171897e-09
5.9675219e-09
1.1627729e-08
2.2361667e-08
4.2507721e-08
7.9965128e-08
1.4900479e-07
2.7520366e-07
5.0401214e-07
9.154266e-07
1.6486719e-06
2.9427144e-06
5.2004214e-06
9.084618e-06
1.5648494e-05
2.6477729e-05
4.3758896e-05
7.0050521e-05
0.00010732916
0.00015483957
0.00020602585
0.00024701772
0.00026120887
0.00024108356
0.00019179357
0.00013010214
7.2479518e-05
3.4060595e-05
1.7580171e-05
1.1023188e-05
8.3874984e-06
9.1134985e-06
1.5379132e-05
2.8750049e-05
5.481467e-05
9.4258205e-05
0.00010260603
0.0001129835
0.00013131958
0.0001629197
0.00021672797
0.00030234542
0.00037845687
0.00035535941
0.00029165436
0.00026809453
0.00026924193
0.00031811372
0.00041038181
8.5119446e-20
1.6554581e-17
4.4093655e-16
4.4701629e-15
2.7033882e-14
1.1977233e-13
4.3248598e-13
1.3533209e-12
3.8126514e-12
9.9177372e-12
2.424102e-11
5.6377137e-11
1.2592643e-10
2.720619e-10
5.7166188e-10
1.1733007e-09
2.3603483e-09
4.6670819e-09
9.0905969e-09
1.7474505e-08
3.3198144e-08
6.2404145e-08
1.1616451e-07
2.1426121e-07
3.9169742e-07
7.0972169e-07
1.2740701e-06
2.2641876e-06
3.9777954e-06
6.8933782e-06
1.1744063e-05
1.957154e-05
3.1668883e-05
4.9218652e-05
7.2346717e-05
9.8526401e-05
0.0001212687
0.00013149466
0.00012386239
0.0001000056
6.5977291e-05
3.7068618e-05
1.841513e-05
1.032433e-05
7.1475569e-06
6.2619309e-06
7.2176897e-06
1.2624582e-05
2.4232721e-05
4.8980167e-05
8.4329741e-05
9.5279351e-05
0.00010141867
0.00011348627
0.00013294129
0.00016333548
0.0002075273
0.00026944346
0.00032009929
0.00032103271
0.00028558501
0.00027167081
0.0002766245
0.00032863993
0.00042554966
6.3805012e-20
1.2409211e-17
3.3052278e-16
3.3507783e-15
2.0263937e-14
8.9775985e-14
3.241596e-13
1.0142978e-12
2.8573537e-12
7.4321661e-12
1.8164036e-11
4.2239083e-11
9.4333888e-11
2.0377205e-10
4.280801e-10
8.7837871e-10
1.7664691e-09
3.4913562e-09
6.7968634e-09
1.3056291e-08
2.4781966e-08
4.6528542e-08
8.6476581e-08
1.5917178e-07
2.9018354e-07
5.238522e-07
9.3577686e-07
1.6520152e-06
2.8764166e-06
4.9242556e-06
8.2503584e-06
1.3435954e-05
2.1054859e-05
3.1292463e-05
4.3240766e-05
5.4183381e-05
5.9903364e-05
5.727442e-05
4.6752122e-05
3.0545851e-05
1.7531091e-05
9.6387728e-06
5.9377106e-06
4.7369644e-06
4.5417317e-06
5.8378498e-06
1.0306089e-05
2.1254391e-05
4.3396888e-05
7.5729695e-05
9.2796864e-05
9.543456e-05
0.0001027959
0.00011558945
0.00013500279
0.00016152898
0.00019894954
0.00024690307
0.00028489708
0.00029543532
0.00028048229
0.00027751306
0.000287386
0.00034315702
0.0004517532
4.4885059e-20
8.729532e-18
2.32513e-16
2.3571537e-15
1.4254691e-14
6.3151029e-14
2.2801279e-13
7.1340988e-13
2.0095705e-12
5.2265027e-12
1.277185e-11
2.9695332e-11
6.6306599e-11
1.4319483e-10
3.0072779e-10
6.1682192e-10
1.2398408e-09
2.4489135e-09
4.7634848e-09
9.140377e-09
1.732463e-08
3.2466883e-08
6.0194821e-08
1.1044064e-07
2.0048767e-07
3.5989118e-07
6.3806347e-07
1.1151271e-06
1.9154243e-06
3.2193118e-06
5.2600279e-06
8.2756207e-06
1.2366177e-05
1.7221249e-05
2.1811929e-05
2.4430283e-05
2.3596758e-05
1.9465387e-05
1.3141065e-05
7.8931443e-06
4.8167383e-06
3.4774913e-06
3.1005971e-06
3.4115626e-06
4.5925743e-06
8.6425347e-06
1.924958e-05
3.8581972e-05
6.7886794e-05
9.2477811e-05
9.19043e-05
9.6042144e-05
0.00010431204
0.00011782927
0.00013508216
0.00015953775
0.00019175062
0.00023000212
0.0002617515
0.00027924856
0.00027649946
0.00028275805
0.00029813724
0.00035491363
0.0004713204
2.8978099e-20
5.6358416e-18
1.5011134e-16
1.5217709e-15
9.2025601e-15
4.0767462e-14
1.4718609e-13
4.6048097e-13
1.2969693e-12
3.3727032e-12
8.2403296e-12
1.9154988e-11
4.2758921e-11
9.2308009e-11
1.9376863e-10
3.9720082e-10
7.9777779e-10
1.5741911e-09
3.0580816e-09
5.8581605e-09
1.1079349e-08
2.0704035e-08
3.8243418e-08
6.9824241e-08
1.2594386e-07
2.2417299e-07
3.9301381e-07
6.7668696e-07
1.1393077e-06
1.863858e-06
2.9356953e-06
4.393944e-06
6.1375637e-06
7.8148028e-06
8.8176113e-06
8.5859297e-06
7.1780234e-06
5.0979521e-06
3.4364343e-06
2.4463982e-06
2.0218367e-06
2.1226013e-06
2.5077332e-06
3.7573325e-06
7.8862988e-06
1.7294964e-05
3.4476378e-05
6.0829641e-05
9.264266e-05
8.9125158e-05
9.1559211e-05
9.7095511e-05
0.00010653745
0.00011847059
0.00013501594
0.00015723819
0.00018493418
0.00021793855
0.00024619683
0.00026651218
0.0002736431
0.00028716954
0.00030758919
0.00037356339
0.00049848358
1.6774775e-20
3.2624597e-18
8.6895548e-17
8.8089966e-16
5.3268646e-15
2.3596808e-14
8.5186744e-14
2.6648297e-13
7.5045402e-13
1.9511443e-12
4.7659332e-12
1.1075055e-11
2.4712185e-11
5.3320285e-11
1.1185063e-10
2.290765e-10
4.5957422e-10
9.0550083e-10
1.7556933e-09
3.3549206e-09
6.3246246e-09
1.1769403e-08
2.1621423e-08
3.9195694e-08
7.004209e-08
1.2315372e-07
2.1245006e-07
3.5804157e-07
5.8584204e-07
9.2244999e-07
1.3803573e-06
1.9297556e-06
2.4647453e-06
2.7970907e-06
2.7628491e-06
2.4105787e-06
1.9305155e-06
1.5178357e-06
1.2590284e-06
1.2648319e-06
1.4501582e-06
1.9546817e-06
3.3610651e-06
7.2838697e-06
1.5355446e-05
3.06659e-05
5.4612573e-05
8.3432741e-05
8.7011128e-05
8.8396061e-05
9.2027049e-05
9.8784194e-05
0.00010684516
0.00011874389
0.00013422722
0.00015459578
0.00017979671
0.0002084584
0.00023491314
0.00025817084
0.00027135561
0.00029281665
0.00031774585
0.00038734311
0.00052162194
8.5311777e-21
1.6591925e-18
4.4192224e-17
4.4798698e-16
2.7088924e-15
1.1998929e-14
4.331274e-14
1.3547204e-13
3.8143341e-13
9.9144977e-13
2.4209222e-12
5.6232261e-12
1.2540078e-11
2.7036927e-11
5.6660991e-11
1.1590035e-10
2.3214549e-10
4.5644605e-10
8.826343e-10
1.680751e-09
3.1542819e-09
5.8356248e-09
1.063977e-08
1.9099312e-08
3.3695942e-08
5.8263822e-08
9.8328247e-08
1.6099842e-07
2.5360998e-07
3.7988932e-07
5.3273696e-07
6.8559154e-07
7.9439441e-07
8.3070175e-07
8.0714031e-07
7.495649e-07
7.0634252e-07
7.206092e-07
8.0940576e-07
1.0936702e-06
1.6994377e-06
3.1506727e-06
6.5736867e-06
1.3490978e-05
2.7137312e-05
4.8910428e-05
7.5049913e-05
8.5896318e-05
8.6086926e-05
8.8079594e-05
9.2878944e-05
9.8555191e-05
0.00010699569
0.00011845693
0.00013320306
0.00015238368
0.00017484285
0.00020162512
0.0002266945
0.00025198381
0.00027041077
0.00029719031
0.00032785224
0.00040425598
0.00054328875
3.7935557e-21
7.3779124e-19
1.9650716e-17
1.9919858e-16
1.2044531e-15
5.3346222e-15
1.9254053e-14
6.0211501e-14
1.6949004e-13
4.4040968e-13
1.0749374e-12
2.495441e-12
5.5609469e-12
1.1978416e-11
2.5072651e-11
5.1206074e-11
1.0235775e-10
2.0073398e-10
3.8686432e-10
7.3351838e-10
1.3689973e-09
2.5147578e-09
4.5432164e-09
8.0599777e-09
1.4006083e-08
2.375159e-08
3.9099155e-08
6.2030256e-08
9.3944206e-08
1.3423238e-07
1.7881945e-07
2.2236966e-07
2.6205236e-07
2.973283e-07
3.3415482e-07
3.6565718e-07
4.4551131e-07
6.1222288e-07
9.4896548e-07
1.5885871e-06
2.9249297e-06
5.8077109e-06
1.1779414e-05
2.4106785e-05
4.3759592e-05
6.7598965e-05
8.5251535e-05
8.415219e-05
8.4484167e-05
8.7989286e-05
9.2023964e-05
9.8268376e-05
0.00010657377
0.00011789732
0.0001320132
0.00014983714
0.00017119895
0.00019588217
0.00022093275
0.00024749206
0.00027003119
0.00030216231
0.00033626668
0.00042136195
0.0005639955
1.5685883e-21
3.0506702e-19
8.1252425e-18
8.2363581e-17
4.9799254e-16
2.2055201e-15
7.9596034e-15
2.4888246e-14
7.0046006e-14
1.8196718e-13
4.4399832e-13
1.0302974e-12
2.294691e-12
4.9392704e-12
1.0329055e-11
2.1069989e-11
4.2053591e-11
8.2312378e-11
1.5825073e-10
2.9913917e-10
5.561833e-10
1.0169152e-09
1.8268075e-09
3.2191568e-09
5.5510641e-09
9.335856e-09
1.525002e-08
2.4083188e-08
3.6606462e-08
5.3419409e-08
7.4728699e-08
1.0129847e-07
1.3617505e-07
1.8282626e-07
2.4847596e-07
3.5066933e-07
5.4595407e-07
8.8220178e-07
1.4762869e-06
2.6505506e-06
5.1194215e-06
1.0420351e-05
2.1639468e-05
3.9195832e-05
6.0961258e-05
8.4090742e-05
8.1873749e-05
8.1053554e-05
8.3596824e-05
8.6576684e-05
9.1157281e-05
9.7424025e-05
0.0001059348
0.0001170045
0.00013048696
0.0001477415
0.00016767628
0.000191887
0.00021624552
0.00024468752
0.00026990642
0.00030694528
0.00034593091
0.00043655231
0.00058031545
7.8932054e-22
1.5351116e-19
4.0886807e-18
4.1446822e-17
2.506112e-16
1.110007e-15
4.0064562e-15
1.2529591e-14
3.5271351e-14
9.1654765e-14
2.2371773e-13
5.1937636e-13
1.1574465e-12
2.4932847e-12
5.2191847e-12
1.0660444e-11
2.1314111e-11
4.1815131e-11
8.0642021e-11
1.53076e-10
2.8623191e-10
5.2740761e-10
9.5753961e-10
1.7121143e-09
3.0120873e-09
5.2074588e-09
8.8362467e-09
1.4696948e-08
2.394279e-08
3.8099878e-08
5.9221012e-08
9.035457e-08
1.3654842e-07
2.0693961e-07
3.1841634e-07
5.0542416e-07
8.1331082e-07
1.348784e-06
2.3937005e-06
4.5858424e-06
9.3496242e-06
1.9351105e-05
3.496364e-05
5.4810299e-05
7.8260836e-05
7.9121188e-05
7.756404e-05
7.9496936e-05
8.1589848e-05
8.5056184e-05
8.9752292e-05
9.6424013e-05
0.00010492207
0.00011579783
0.00012895063
0.00014552536
0.00016497428
0.00018823242
0.00021308492
0.00024236381
0.00027096423
0.00031110824
0.00035397777
0.00045100753
0.0005934795
7.1381063e-22
1.388261e-19
3.6976253e-18
3.7484931e-17
2.2668339e-16
1.0042317e-15
3.6257621e-15
1.1343741e-14
3.1950852e-14
8.3086587e-14
2.029949e-13
4.7183867e-13
1.0531462e-12
2.2731441e-12
4.770558e-12
9.7760875e-12
1.9628105e-11