/*--------------------------------*- C++ -*----------------------------------*\
  =========                 |
  \\      /  F ield         | OpenFOAM: The Open Source CFD Toolbox
   \\    /   O peration     | Website:  https://openfoam.org
    \\  /    A nd           | Version:  13
     \\/     M anipulation  |
\*---------------------------------------------------------------------------*/
FoamFile
{
    format      ascii;
    class       volScalarField;
    location    "47.000879";
    object      omega;
}
// * * * * * * * * * * * * * * * * * * * * * * * * * * * * * * * * * * * * * //

dimensions      [0 0 -1 0 0 0 0];

internalField   nonuniform List<scalar> 
17140
(
4528389.9
731657.66
224626.36
95289.491
48487.73
27617.646
16960.889
10985.528
7400.0493
5136.1096
3649.1156
2641.4566
1941.2025
1444.4318
1085.933
823.48001
628.99299
483.36894
373.35446
289.59667
225.39664
175.89361
137.52016
107.63184
84.251272
65.888915
51.416156
39.974584
30.910732
23.728735
18.055082
13.610275
10.182563
7.601252
5.7130669
4.3705195
3.4361037
2.7935405
2.3542756
2.0560531
1.8571952
1.7309223
1.6617574
1.6354376
1.6387895
1.6720132
1.7312056
1.8133701
1.9165267
2.0396034
2.1819634
2.341412
2.5152196
2.7091916
2.9387815
3.2244536
3.5927619
4.0651142
4.3909391
4.4569592
4.2628738
3.9546917
3.5123387
3.0401803
2.124062
4528420.9
731663.27
224628.42
95290.544
48488.356
27618.054
16961.17
10985.729
7400.1948
5136.2153
3649.1908
2641.5074
1941.2331
1444.445
1085.9308
823.46379
628.96381
483.32762
373.30168
289.53307
225.32287
175.81042
137.42847
107.53278
84.146226
65.779587
51.304594
39.863183
30.802205
23.626022
17.961169
13.527887
10.113719
7.5467568
5.6722415
4.3414278
3.4162064
2.7803616
2.3457726
2.0506901
1.853864
1.7288673
1.6604991
1.6345311
1.6376647
1.6704165
1.7288116
1.8098359
1.9114848
2.0326554
2.1727761
2.330041
2.5019319
2.6927147
2.9142207
3.1799052
3.5012969
3.8762342
4.1108974
4.1777136
4.0186187
3.7494841
3.5434017
3.1639751
2.0732644
4528451.2
731668.24
224629.96
95291.194
48488.684
27618.236
16961.276
10985.792
7400.2302
5136.2323
3649.1946
2641.5009
1941.2182
1444.4227
1085.9016
823.42829
628.9221
483.2798
373.24782
289.47326
225.2573
175.73941
137.35251
107.45259
84.06281
65.694242
51.218925
39.779079
30.721772
23.551451
17.894529
13.470834
10.067195
7.5107788
5.6458839
4.3230756
3.4039979
2.7725764
2.3410217
2.0479332
1.8523469
1.728068
1.6601188
1.6342986
1.6371181
1.6694353
1.7271957
1.8073862
1.9079864
2.0279369
2.1668039
2.3231517
2.4946581
2.6844157
2.901745
3.1535251
3.4376446
3.7312213
3.9132107
3.9545641
3.8273252
3.7057949
3.5935531
3.2272675
2.0180325
4528483
731673.41
224631.56
95291.873
48489.026
27618.428
16961.39
10985.861
7400.2723
5136.2562
3649.2056
2641.5024
1941.212
1444.4101
1085.8835
823.40497
628.89396
483.24705
373.21064
289.43184
225.2119
175.69038
137.30036
107.39801
84.006695
65.63771
51.163314
39.725892
30.672568
23.507677
17.857306
13.440765
10.044249
7.4942504
5.634637
4.3158805
3.3997468
2.7703649
2.3401525
2.0478865
1.8527066
1.7286065
1.6607457
1.6348921
1.6373613
1.6692643
1.7265797
1.8062754
1.9063607
2.0258301
2.1643928
2.3208985
2.493284
2.684205
2.9013321
3.1479411
3.4147209
3.6682503
3.8060066
3.8262442
3.779623
3.7709294
3.6725706
3.2676726
1.9283981
4528516.9
731678.91
224633.26
95292.585
48489.385
27618.63
16961.513
10985.938
7400.3218
5136.2877
3649.2249
2641.5129
1941.216
1444.409
1085.8782
823.39611
628.88193
483.23214
373.19308
289.41188
225.18982
175.66652
137.27519
107.37213
83.980864
65.612848
51.140458
39.706122
30.656866
23.496731
17.851285
13.439145
10.045825
7.4976227
5.6386536
4.3198523
3.4034125
2.7736849
2.3431318
2.0505794
1.8551945
1.7307624
1.6626449
1.6365872
1.6387381
1.6704575
1.7276439
1.8073351
1.9076088
2.0275994
2.1672791
2.3258868
2.5017073
2.6972593
2.9192014
3.1685127
3.4323226
3.6743579
3.8074723
3.8327526
3.8405598
3.9236821
3.7771055
3.2715765
1.7938892
4528552.1
731684.58
224634.99
95293.322
48489.76
27618.844
16961.644
10986.024
7400.3801
5136.3287
3649.2544
2641.5346
1941.2323
1444.4214
1085.8877
823.40341
628.88759
483.23658
373.19664
289.41487
225.19255
175.66934
137.27849
107.3764
83.986657
65.620779
51.151161
39.720155
30.674573
23.518046
17.875531
13.464933
10.07125
7.520729
5.6581081
4.3353292
3.4153836
2.7830418
2.350654
2.0566852
1.8601301
1.7348447
1.6662267
1.6399257
1.6418505
1.6738131
1.7314912
1.8120912
1.9138517
2.0361701
2.1793938
2.3430441
2.525579
2.7298634
2.9623376
3.2226811
3.4949121
3.7393099
3.8772966
3.9233448
4.0340743
4.0660874
3.8636897
3.1842683
1.6293582
4528588.7
731690.43
224636.78
95294.084
48490.152
27619.07
16961.786
10986.119
7400.4472
5136.3789
3649.294
2641.5675
1941.2609
1444.4474
1085.9122
823.42739
628.91159
483.26106
373.22201
289.44146
225.22069
175.69935
137.31072
107.41119
84.024397
65.661854
51.195893
39.768705
30.726765
23.573145
17.932014
13.520417
10.122788
7.5655761
5.6946544
4.3638292
3.4372448
2.7996726
2.3632901
2.0664368
1.8678942
1.7413196
1.6720733
1.6456449
1.6477591
1.680443
1.739588
1.8225391
1.9278365
2.0553367
2.2058888
2.3789887
2.5729983
2.7916233
3.0412136
3.3205336
3.6138338
3.8792465
4.0323344
4.1211454
4.244182
4.2078469
3.9226223
2.9616866
1.4296601
4528626.6
731696.5
224638.63
95294.875
48490.56
27619.306
16961.936
10986.221
7400.5218
5136.437
3649.3422
2641.6099
1941.3003
1444.4856
1085.9506
823.46689
628.95296
483.30487
373.2687
289.49142
225.27423
175.75676
137.37226
107.4771
84.094877
65.737037
51.275773
39.853013
30.814778
23.663432
18.022199
13.607124
10.202054
7.6338543
5.7503748
4.4072154
3.4699024
2.8238943
2.3814133
2.0803605
1.8790278
1.7508063
1.6808989
1.654506
1.6573988
1.6918492
1.7539941
1.8415365
1.9535904
2.090799
2.2545966
2.4437678
2.6566389
2.8983745
3.1739589
3.4803471
3.7938566
4.0586579
4.2021555
4.3133536
4.4148965
4.351303
3.9524631
2.5808089
1.1669181
4528664.7
731702.74
224640.55
95295.697
48490.982
27619.553
16962.095
10986.332
7400.6049
5136.5039
3649.3999
2641.6628
1941.3511
1444.5365
1086.003
823.52193
629.01148
483.36758
373.33616
289.56409
225.35248
175.8409
137.4625
107.5736
84.197684
65.846056
51.390685
39.973135
30.938851
23.789357
18.146782
13.726034
10.310353
7.7272936
5.8264303
4.4660016
3.5137924
2.8563701
2.4057401
2.0991429
1.894237
1.7641191
1.6936863
1.6676948
1.6723379
1.7101126
1.7775815
1.8731453
1.9969871
2.1510447
2.3370363
2.5521528
2.7964956
3.0772521
3.3946261
3.7379024
4.0572681
4.2925796
4.4159782
4.5413398
4.6529186
4.5087061
3.8967455
1.9848447
0.8622902
4528704.9
731709.24
224642.56
95296.551
48491.422
27619.813
16962.263
10986.451
7400.6959
5136.579
3649.4663
2641.725
1941.4124
1444.599
1086.0684
823.59147
629.08612
483.44813
373.42328
289.65832
225.45427
175.95057
137.58029
107.69961
84.331847
65.988105
51.540043
40.12876
31.099004
23.951288
18.306444
13.878078
10.448684
7.8464399
5.9232563
4.5408607
3.5699019
2.8980787
2.4371728
2.1236592
1.9144336
1.7823261
1.7117474
1.6868011
1.6946916
1.738103
1.8143714
1.9231762
2.0666721
2.248566
2.4693225
2.7260426
3.0258369
3.377948
3.7712717
4.1737246
4.5058077
4.7072964
4.8012267
4.955713
5.0456127
4.669354
3.2627401
1.36791
0.59204399
4528746.8
731715.99
224644.63
95297.439
48491.882
27620.083
16962.44
10986.577
7400.794
5136.6613
3649.5403
2641.7957
1941.483
1444.6718
1086.1453
823.67371
629.17488
483.54431
373.52765
289.77149
225.57672
176.08266
137.72223
107.85143
84.493394
66.158951
51.719396
40.315298
31.290634
24.144835
18.497339
14.060252
10.615095
7.9905335
6.0411972
4.6328177
3.6394049
2.9501683
2.4768141
2.1550102
1.9407914
1.8068274
1.736829
1.7139689
1.7273555
1.7798251
1.8700742
2.0000653
2.1754885
2.4007619
2.6735814
3.0012319
3.4048093
3.894176
4.4374312
4.9641206
5.3652036
5.5339203
5.6408746
5.7060751
5.4472714
4.5197524
2.0505103
0.80627227
0.41055718
4528789.6
731722.94
224646.78
95298.358
48492.359
27620.366
16962.625
10986.711
7400.8984
5136.7498
3649.6208
2641.8733
1941.5612
1444.7532
1086.2316
823.7665
629.27539
483.65354
373.64645
289.90056
225.7166
176.23374
137.88471
108.02533
84.678467
66.354656
51.924769
40.528795
31.509888
24.366334
18.716105
14.26972
10.807603
8.1588058
6.1805644
4.742829
3.7235274
3.0139421
2.5259882
2.194574
1.9748261
1.8394698
1.7712817
1.7521465
1.7743868
1.8410029
1.9530084
2.1163167
2.3419052
2.6299099
2.9851165
3.443763
4.0473807
4.8068738
5.6445942
6.4073245
6.9548149
7.0109669
6.7301636
6.3355873
5.3462104
2.7458619
1.0654525
0.50347746
0.31266926
4528834.7
731730.21
224649.02
95299.313
48492.855
27620.659
16962.818
10986.85
7401.0082
5136.8433
3649.7064
2641.9561
1941.6451
1444.8407
1086.3248
823.86697
629.38447
483.77236
373.77593
290.04148
225.86957
176.3992
138.06291
108.21628
84.881921
66.570003
52.150956
40.764158
31.751914
24.611344
18.958918
14.503492
11.024233
8.3503178
6.3413674
4.8716403
3.823474
3.0908369
2.5862684
2.2440825
2.0185278
1.8827291
1.8183143
1.8055101
1.8416613
1.9301223
2.0757715
2.2909839
2.5903426
2.9696445
3.4720489
4.1784559
5.153985
6.3814723
7.6679992
8.3027316
8.152791
7.7873968
6.9715458
5.6284283
2.8247669
1.2418758
0.5910939
0.36214884
0.2613583
4528880.1
731737.62
224651.31
95300.296
48493.367
27620.963
16963.018
10986.994
7401.1217
5136.9401
3649.795
2642.0421
1941.7322
1444.9317
1086.4218
823.97177
629.49844
483.89669
373.91164
290.18942
226.03044
176.57352
138.25097
108.41816
85.097393
66.798488
52.391409
41.014913
32.010456
24.874001
19.220517
14.757152
11.261647
8.5629807
6.5227843
5.0195131
3.940275
3.1823661
2.6595067
2.3057384
2.0746145
1.9400517
1.8823164
1.8802342
1.9380587
2.0603751
2.2585316
2.5548933
2.9583582
3.4890113
4.2668423
5.4224231
6.999581
8.7254606
9.1785884
8.9709402
8.2933407
6.8689082
4.6726713
2.4575105
1.2302734
0.65100686
0.39182996
0.29460909
0.22385046
4528926.9
731745.28
224653.67
95301.316
48493.896
27621.276
16963.224
10987.143
7401.2377
5137.0386
3649.8847
2642.1288
1941.8198
1445.0231
1086.5193
824.07704
629.61299
484.02179
374.04839
290.33876
226.19314
176.75017
138.44198
108.62368
85.317298
67.032298
52.638187
41.273116
32.277719
25.146845
19.494001
15.024624
11.514894
8.7932441
6.7228138
5.1859126
4.0745749
3.2900289
2.7478567
2.3823349
2.1470765
2.01684
1.9688076
1.9860975
2.0776548
2.2533239
2.5354281
2.958834
3.5170786
4.3273867
5.6033381
7.4775468
9.5117353
9.9072201
9.5804418
8.5174444
6.2686071
3.5210553
1.9681071
1.1015504
0.64502588
0.4170138
0.30538231
0.24759984
0.19969843
4528977.9
731753.47
224656.17
95302.378
48494.445
27621.6
16963.436
10987.294
7401.355
5137.1371
3649.9735
2642.2139
1941.9052
1445.1118
1086.6135
824.17867
629.72355
484.1426
374.18059
290.48335
226.35098
176.92194
138.6282
108.82464
85.533024
67.262484
52.8821
41.529462
32.544441
25.420843
19.770801
15.298089
11.77725
9.0358483
6.9379588
5.369189
4.2263934
3.4152072
2.853813
2.4773581
2.241486
2.1203023
2.0880735
2.1382568
2.2837907
2.5458032
2.9654618
3.5751761
4.4063293
5.7352228
7.8136679
10.144293
10.583454
10.176057
8.8328571
5.970833
3.1147275
1.7194368
1.005085
0.62689981
0.42449902
0.31868945
0.25570126
0.21982143
0.17774687
4529031.7
731761.98
224658.76
95303.482
48495.014
27621.933
16963.652
10987.446
7401.4715
5137.2334
3650.0589
2642.2945
1941.9851
1445.1941
1086.7005
824.27214
629.82507
484.25351
374.30207
290.61645
226.49662
177.08091
138.80114
109.01199
85.735018
67.479061
53.112831
41.773421
32.800024
25.685517
20.040785
15.568046
12.040208
9.2837218
7.1630311
5.5663415
4.3949584
3.5592104
2.9806812
2.5963702
2.3654095
2.2613611
2.2573186
2.3623915
2.5971073
3.0031725
3.6453783
4.5329963
5.8840666
8.0642549
10.691571
11.228816
10.798314
9.3425775
6.0994534
3.1112206
1.6823433
0.98599569
0.62907167
0.43715825
0.32875461
0.26701995
0.22175201
0.1920951
0.15684267
4529085.9
731770.67
224661.43
95304.622
48495.6
27622.275
16963.871
10987.598
7401.5857
5137.3255
3650.1387
2642.368
1942.0566
1445.2666
1086.7763
824.35303
629.9126
484.349
374.40672
290.73132
226.62267
177.21902
138.95207
109.17639
85.913339
67.671557
53.319458
41.993734
33.033015
25.929392
20.292669
15.823678
12.293784
9.5281988
7.3912616
5.7730481
4.5787547
3.723486
3.1330693
2.7479295
2.5322359
2.4563061
2.5063919
2.7043561
3.0910949
3.7419196
4.7047571
6.0952984
8.3112205
11.1953
11.886625
11.466962
10.006346
6.5607131
3.3031814
1.7644072
1.0278638
0.65880155
0.4603968
0.34838481
0.27567591
0.22627152
0.19282323
0.17026712
0.14375872
4529139.6
731779.54
224664.17
95305.786
48496.199
27622.623
16964.091
10987.749
7401.6957
5137.4114
3650.2102
2642.4315
1942.1164
1445.3256
1086.8367
824.41666
629.98092
484.42331
374.48815
290.82094
226.72148
177.32798
139.07207
109.30825
86.057814
67.829249
53.490784
42.178827
33.23159
26.140549
20.514636
16.053527
12.527219
9.7597112
7.6149474
5.9842584
4.7761289
3.9103547
3.3176749
2.9456891
2.7620445
2.7389985
2.8874448
3.2481602
3.898933
4.9336221
6.3899251
8.6392547
11.708155
12.58717
12.191609
10.783185
7.2621419
3.65701
1.9374207
1.1186963
0.71473322
0.50046508
0.37535128
0.28984242
0.23182677
0.19667809
0.17087198
0.15231258
0.12752725
4529196.7
731788.81
224667.02
95306.997
48496.819
27622.979
16964.314
10987.897
7401.8005
5137.4895
3650.2718
2642.4829
1942.1618
1445.368
1086.8782
824.45911
630.02564
484.47149
374.54088
290.87926
226.7864
177.40051
139.15324
109.39909
86.15936
67.942517
53.616718
42.31823
33.385012
26.308125
20.695872
16.247052
12.730593
9.9694588
7.8271486
6.1959663
4.9873347
4.125921
3.5488252
3.2132321
3.0895775
3.1713263
3.4972333
4.1464595
5.2378433
6.7906085
9.0791956
12.243938
13.330568
12.966003
11.638878
8.126816
4.1451226
2.2000226
1.2598348
0.79332256
0.54786095
0.40336818
0.30638275
0.24238558
0.20269171
0.17377513
0.15115125
0.13754244
0.11937801
4529258.1
731798.59
224670
95308.257
48497.459
27623.344
16964.538
10988.043
7401.8988
5137.5583
3650.3215
2642.52
1942.1905
1445.3911
1086.898
824.47698
630.04293
484.48928
374.56018
290.90105
226.81169
177.43037
139.18882
109.44169
86.210355
68.003389
53.688996
42.403469
33.484716
26.423614
20.828114
16.396478
12.896959
10.151822
8.0246381
6.4087311
5.2186247
4.3846292
3.8536856
3.5926415
3.5877422
3.8644867
4.5096616
5.6478704
7.3199771
9.658865
12.855908
14.134273
13.797778
12.553382
9.0991411
4.7261257
2.5065276
1.4084999
0.86782416
0.59162446
0.43311295
0.32959281
0.26134201
0.2152129
0.17965558
0.15671173
0.13920477
0.12555029
0.10912928
4529319.5
731808.52
224673.05
95309.551
48498.116
27623.714
16964.762
10988.183
7401.9892
5137.6164
3650.3578
2642.5411
1942.2005
1445.3929
1086.8935
824.46775
630.03005
484.47375
374.54292
290.88297
226.79378
177.41372
139.17468
109.43151
86.205854
68.006601
53.702307
42.429531
33.526329
26.483468
20.908748
16.500382
13.026562
10.309712
8.2139291
6.6345878
5.4907233
4.7210004
4.284928
4.1678135
4.3846141
5.0151585
6.2003319
8.002066
10.398315
13.580757
15.020946
14.702254
13.520189
10.134002
5.3885056
2.8673668
1.587635
0.96619528
0.65862143
0.48281921
0.36796338
0.28942016
0.23243752
0.18946882
0.16230033
0.14238988
0.12674069
0.11577986
0.10222511
4529381.2
731818.65
224676.19
95310.879
48498.787
27624.09
16964.985
10988.32
7402.0726
5137.6647
3650.3818
2642.5472
1942.1931
1445.3747
1086.8664
824.43306
629.9889
484.42706
374.49157
290.8279
226.73604
177.35456
139.11559
109.37429
86.152617
67.959825
53.664857
42.404736
33.51808
26.496445
20.947887
16.57083
13.134206
10.461623
8.4193261
6.9069558
5.8512926
5.2042659
4.9469229
5.090865
5.6954375
6.9236186
8.8427079
11.308243
14.440242
16.009211
15.693758
14.540649
11.202303
6.1283474
3.2872455
1.8033919
1.0886465
0.73948771
0.53564646
0.40243541
0.3125799
0.24740908
0.20088216
0.1700075
0.1471706
0.13066907
0.11764515
0.10868795
0.097255764
4529447.3
731829.35
224679.46
95312.258
48499.481
27624.476
16965.212
10988.455
7402.1506
5137.7048
3650.3951
2642.5405
1942.1705
1445.3391
1086.8196
824.37651
629.92358
484.35388
374.41145
290.74185
226.64526
177.26051
139.02011
109.2796
86.061465
67.875494
53.591242
42.346385
33.480228
26.485025
20.970035
16.635825
13.253289
10.648999
8.693915
7.2958622
6.3953585
5.9668987
6.022324
6.5872345
7.8465543
9.8556156
12.403209
15.462529
17.11586
16.786783
15.620543
12.288372
6.9448749
3.7681148
2.0556637
1.2293229
0.8261293
0.59049426
0.4407251
0.34235501
0.27119197
0.22064536
0.18439204
0.15653427
0.13665081
0.12256389
0.11105777
0.1021526
0.092767894
4529517.1
731840.52
224682.88
95313.697
48500.203
27624.876
16965.444
10988.591
7402.2271
5137.7412
3650.4029
2642.5268
1942.1396
1445.2938
1086.7618
824.30764
629.84476
484.26611
374.31576
290.63942
226.53753
177.14927
138.90762
109.16868
85.955573
67.778854
53.508917
42.284379
33.445557
26.486473
21.019753
16.748437
13.447577
10.949605
9.1349685
7.9260514
7.2860662
7.2232543
7.739389
9.0019276
11.072688
13.702568
16.677454
18.353895
17.994506
16.770726
13.385489
7.8343513
4.3086775
2.3450692
1.3869124
0.9226625
0.65552046
0.48906501
0.37987268
0.30116271
0.244465
0.20052219
0.16711312
0.14350253
0.12693145
0.11393281
0.10429998
0.097293016
0.088916965
4529588.1
731851.95
224686.39
95315.185
48500.948
27625.289
16965.684
10988.733
7402.3071
5137.7799
3650.4123
2642.5141
1942.1095
1445.2492
1086.705
824.24002
629.76768
484.18079
374.2235
290.54175
226.43631
177.04683
138.80685
109.07321
85.869897
67.708433
53.460354
42.266145
33.468897
26.565647
21.171787
16.995834
13.820107
11.488094
9.895925
8.9885437
8.7602475
9.2027534
10.429326
12.523955
15.225086
18.096313
19.736908
19.329856
18.000662
14.496756
8.7978763
4.913723
2.6721118
1.5638718
1.0324223
0.73281271
0.54473048
0.42106215
0.33157359
0.26627745
0.2151489
0.17820711
0.15207428
0.13310725
0.11892314
0.10857321
0.099792588
0.093461663
0.086617867
4529661.3
731863.83
224690.03
95316.725
48501.723
27625.72
16965.938
10988.885
7402.3965
5137.828
3650.4315
2642.5121
1942.0912
1445.218
1086.6632
824.18964
629.71035
484.11817
374.15737
290.47415
226.36972
176.98428
138.75213
109.03107
85.846396
67.711412
53.500126
42.355498
33.623608
26.805708
21.523598
17.494432
14.511756
12.435502
11.183962
10.72985
11.052725
12.187762
14.257606
16.985302
19.752029
21.288016
20.815473
19.334576
15.635548
9.8305751
5.5775764
3.0368641
1.7642422
1.1612997
0.82245089
0.60795873
0.46613596
0.36514034
0.29209295
0.23732383
0.19776937
0.16758924
0.14399051
0.12628216
0.11304237
0.10338928
0.095913254
0.089674216
0.083949854
4529737.4
731876.13
224693.82
95318.323
48502.531
27626.175
16966.211
10989.055
7402.5034
5137.8947
3650.4711
2642.5327
1942.0984
1445.2156
1086.6542
824.17643
629.6952
484.10334
374.14538
290.46793
226.37281
177.00108
138.78815
109.0932
85.943286
67.853901
53.70178
42.633837
34.001566
27.313734
22.201086
18.392762
15.699041
14.000398
13.239046
13.384961
14.35314
16.33257
19.004682
21.676731
23.028334
22.453335
20.783808
16.811341
10.921473
6.3025476
3.4440574
1.9918169
1.3046956
0.9206145
0.67699757
0.51794189
0.40376455
0.32301498
0.26270668
0.21751473
0.18040185
0.15233349
0.13201027
0.11756485
0.10724719
0.098535634
0.092166658
0.087703155
0.082502091
4529816
731888.84
224697.73
95319.985
48503.377
27626.656
16966.507
10989.247
7402.6338
5137.9867
3650.5388
2642.5853
1942.1418
1445.2545
1086.6922
824.21673
629.74098
484.15793
374.21247
290.55184
226.47869
177.1352
138.95824
109.30889
86.216668
68.200345
54.141073
43.191728
34.711339
28.217978
23.355054
19.867362
17.583736
16.403109
16.284027
17.033736
18.814033
21.330199
23.889565
24.968018
24.256456
22.351146
18.021844
12.0484
7.0838714
3.8921503
2.2453895
1.4662298
1.0323768
0.75895394
0.57747313
0.44809293
0.35679127
0.2902178
0.23830152
0.1967522
0.16583964
0.14336206
0.12645876
0.1132483
0.10298616
0.095935951
0.089525743
0.084866972
0.080895168
4529897.8
731902.1
224701.79
95321.716
48504.263
27627.168
16966.829
10989.465
7402.7913
5138.1087
3650.6403
2642.6761
1942.2291
1445.3437
1086.7878
824.32322
629.86264
484.29945
374.37917
290.74989
226.71551
177.41979
139.30167
109.72502
86.723002
68.819296
54.901076
44.128834
35.871255
29.658498
25.148545
22.102105
20.361904
19.832219
20.318082
21.766364
24.034619
26.386467
27.106332
26.217209
24.009995
19.291286
13.211168
7.9228238
4.3845754
2.5333597
1.6505548
1.1603972
0.85033408
0.64460661
0.49831515
0.39679864
0.32063182
0.26260081
0.21655289
0.1826475
0.15564996
0.1351579
0.11875182
0.10762778
0.098978713
0.09223793
0.087373596
0.083245629
0.079673221
4529983.7
731915.9
224706.03
95323.522
48505.193
27627.711
16967.179
10989.71
7402.9784
5138.2636
3650.7794
2642.8102
1942.3664
1445.4907
1086.9507
824.50758
630.0746
484.54568
374.66726
291.0888
227.11593
177.89472
139.86711
110.40097
87.534259
69.796754
56.083372
45.563981
37.618548
31.789777
27.747284
25.259633
24.161549
24.286614
25.254029
27.140683
29.21159
29.411726
28.319078
25.680464
20.638553
14.41685
8.8031976
4.9205595
2.857976
1.8577177
1.3006074
0.95190429
0.72045858
0.55794332
0.4415525
0.35491743
0.28917355
0.23991776
0.20094421
0.16942828
0.14469114
0.12648788
0.11363251
0.10346107
0.095769609
0.089988205
0.085104704
0.08198019
0.078890322
4530071.7
731930.11
224710.41
95325.397
48506.166
27628.288
16967.56
10989.988
7403.2013
5138.4591
3650.965
2642.9982
1942.5663
1445.7108
1087.1985
824.79093
630.40184
484.92617
375.11184
291.61018
227.72933
178.61856
140.72383
111.41789
88.744967
71.242239
57.8135
47.638613
40.107337
34.769231
31.292501
29.425889
28.960207
29.449659
30.67895
32.161434
31.857785
30.492377
27.371389
22.039444
15.635985
9.7059306
5.5009065
3.2229796
2.0876813
1.4559179
1.0671892
0.81017753
0.62609646
0.49305317
0.39330149
0.32098307
0.26537869
0.2217736
0.18514395
0.1579123
0.1373296
0.12209452
0.10947516
0.10032446
0.093151232
0.088020228
0.083817125
0.080612089
0.07801276
4530163.2
731944.95
224714.97
95327.353
48507.193
27628.911
16967.988
10990.316
7403.4789
5138.7168
3651.2221
2643.2688
1942.8615
1446.0408
1087.573
825.22024
630.8971
485.50008
375.77909
292.38812
228.63865
179.68409
141.9755
112.89174
90.484158
73.297736
60.242247
50.505383
43.477664
38.697871
35.802265
34.473808
34.399825
34.932744
35.324746
34.569616
32.690373
29.103298
23.484963
16.854644
10.637872
6.1484768
3.6461671
2.3528008
1.6345455
1.2018717
0.91302364
0.70384044
0.55090395
0.43938284
0.35673093
0.29439305
0.2440668
0.20486491
0.1735662
0.14970338
0.12980496
0.11525548
0.10446101
0.096765257
0.090623552
0.085747067
0.082091658
0.079576032
0.077315222
4530257.7
731960.24
224719.7
95329.405
48508.291
27629.597
16968.479
10990.712
7403.834
5139.063
3651.581
2643.6564
1943.2913
1446.5251
1088.1244
825.85182
631.62359
486.33821
376.74836
293.51158
229.94376
181.20373
143.74909
114.96634
92.911357
76.124552
63.51216
54.273056
47.777606
43.522261
41.066863
39.970013
39.672705
39.00327
37.342778
34.957872
30.898209
24.954448
18.061756
11.611624
6.876832
4.1276874
2.6465719
1.8292704
1.3477073
1.0246109
0.78902977
0.61801204
0.49211275
0.39884845
0.32614965
0.27084249
0.22672548
0.19223386
0.16283014
0.14052973
0.12395903
0.11212607
0.10215117
0.094619831
0.088625507
0.084720842
0.081317386
0.078934325
0.076816192
4530355.2
731976.05
224724.61
95331.557
48509.467
27630.357
16969.046
10991.194
7404.2871
5139.5218
3652.0694
2644.1929
1943.8918
1447.2048
1088.8988
826.73774
632.63981
487.5063
378.09355
295.0637
231.73838
183.28203
146.15669
117.74917
96.112938
79.780106
67.648286
58.893437
52.842068
48.91334
46.559099
44.948097
43.042819
40.541894
37.491769
32.803716
26.452275
19.304404
12.667366
7.7033746
4.6729642
2.9768941
2.0508107
1.5153891
1.1548847
0.89185548
0.69948022
0.55615547
0.44710281
0.36430024
0.30044495
0.25220199
0.21186052
0.17978011
0.1536233
0.13492112
0.11899055
0.10711682
0.098152621
0.091941555
0.086981028
0.083216519
0.079955352
0.078018338
0.076173712
4530457.6
731992.6
224729.75
95333.832
48510.734
27631.201
16969.703
10991.775
7404.8529
5140.1101
3652.7066
2644.9
1944.6876
1448.1075
1089.9274
827.91292
633.98465
489.04709
379.86023
297.08995
234.06082
185.94046
149.19293
121.20535
100.02673
84.180108
72.515759
64.120223
58.228586
54.066741
50.733351
47.50423
44.146168
40.237931
34.826923
28.038043
20.656494
13.846158
8.6306075
5.286023
3.3554011
2.3070621
1.7060561
1.3016422
1.0077702
0.7908561
0.62626264
0.50150742
0.40691907
0.33587583
0.27962404
0.23552812
0.19875881
0.17033886
0.14624433
0.1281271
0.11412501
0.10466545
0.096408839
0.090327448
0.085266382
0.081983482
0.07927955
0.07763412
0.075899552
4530563.2
732009.75
224735.12
95336.228
48512.092
27632.136
16970.457
10992.465
7405.5431
5140.841
3653.507
2645.7936
1945.6958
1449.2512
1091.228
829.39345
635.67007
490.96466
382.03929
299.56151
236.85628
189.08825
152.71344
125.10354
104.28273
88.741372
77.264537
68.806443
62.426076
57.248539
52.644557
48.231411
43.278926
37.093429
29.837462
22.195955
15.174427
9.6686189
5.986529
3.8030106
2.6075107
1.9213315
1.4659551
1.1392873
0.89594489
0.709342
0.56757818
0.46032647
0.37752423
0.31315698
0.26142632
0.2218392
0.18801918
0.16126677
0.13908568
0.12387167
0.11079038
0.10111351
0.093432938
0.08844556
0.084274668
0.081291608
0.078658798
0.077004914
0.07538821
4530672.5
732027.51
224740.68
95338.741
48513.545
27633.161
16971.309
10993.264
7406.3578
5141.7134
3654.4683
2646.869
1946.9081
1450.6223
1092.7805
831.15068
637.65668
493.20604
384.56063
302.38544
239.99911
192.55389
156.48442
129.12836
108.45891
92.893178
81.156586
72.139285
64.905027
58.709804
52.964577
46.794583
39.737543
31.935385
23.963517
16.673066
10.845398
6.8095135
4.3434209
2.9614271
2.1657916
1.6525911
1.2913536
1.0190852
0.80788732
0.64600622
0.52150259
0.42510255
0.34984133
0.29209054
0.24590962
0.20951617
0.17801184
0.15407932
0.13373099
0.11892497
0.10690418
0.099070543
0.092187465
0.087034094
0.08282074
0.08019594
0.077880192
0.076578648
0.075086599
4530784.7
732045.84
224746.44
95341.361
48515.076
27634.255
16972.23
10994.137
7407.253
5142.6761
3655.5311
2648.0586
1948.2483
1452.1361
1094.4905
833.07948
639.82607
495.63575
387.26611
305.37418
243.26505
196.0696
160.19116
132.9248
112.19064
96.346442
84.060541
74.234634
65.991421
58.51761
50.91708
42.855381
34.40788
26.027796
18.411262
12.226869
7.8041488
5.0025749
3.3811372
2.4474988
1.8665198
1.4651305
1.1598259
0.92074896
0.73593632
0.592394
0.48109133
0.3953552
0.3285823
0.27629726
0.23300669
0.19933788
0.16999946
0.14730898
0.12829223
0.11560619
0.10446408
0.096436179
0.089871049
0.085846699
0.082192845
0.079733683
0.077538348
0.076284701
0.074890988
4530901
732061.41
224749.55
95341.865
48515.04
27634.169
16972.241
10994.299
7407.5862
5143.1927
3656.2406
2648.9707
1949.3738
1453.4868
1096.0789
834.91733
641.92291
497.99607
389.88534
308.2333
246.32373
199.25816
163.40243
136.00794
114.95081
98.554641
85.4838
74.657784
65.026009
55.798384
46.600052
37.403474
28.520892
20.498001
13.889757
9.0158224
5.8077735
3.887939
2.7824421
2.1161102
1.6647868
1.3221695
1.0535764
0.84345484
0.67853857
0.54982191
0.44978539
0.37152953
0.30927066
0.26052776
0.22099764
0.19001642
0.16240936
0.14192586
0.12424819
0.1119388
0.10149243
0.094918208
0.088828083
0.084565146
0.081088333
0.078912391
0.076938622
0.075839899
0.074611051
4531685.4
732195.5
224794.69
95363.261
48527.19
27641.961
16977.712
10998.433
7410.914
5146.0248
3658.7727
2651.3334
1951.6586
1455.7602
1098.3895
837.30001
644.39919
500.57311
392.55277
310.95858
249.04658
201.88516
165.80385
138.01951
116.38744
99.219959
85.098644
72.846836
61.662383
51.064991
40.905267
31.351157
22.80165
15.704839
10.346861
6.7068595
4.4631974
3.162698
2.3928167
1.8823302
1.5005854
1.2018677
0.96479392
0.77585276
0.62761713
0.51135447
0.42000996
0.34852594
0.29233788
0.24822189
0.21099199
0.1818798
0.15595091
0.13644499
0.11995894
0.10923501
0.099468622
0.092774374
0.087147864
0.083877188
0.080598601
0.078557694
0.076684919
0.075629273
0.074499775
4531684.6
732191.81
224791.72
95361.08
48525.706
27640.979
16977.104
10998.122
7410.8534
5146.1873
3659.1422
2651.9009
1952.4189
1456.7095
1099.5228
838.60799
645.86467
502.16661
394.22748
312.64498
250.64772
203.2745
166.82994
138.50002
116.07924
97.818736
82.393986
68.834485
56.509496
45.126139
34.703291
25.490031
17.822253
11.932592
7.814252
5.1913043
3.6381492
2.7220199
2.1323017
1.7053286
1.3732687
1.1063678
0.89132959
0.72057164
0.58570018
0.47912363
0.3956429
0.33002828
0.27735937
0.23563733
0.20119849
0.17441027
0.1499055
0.13223903
0.11661875
0.10623876
0.097161981
0.091575698
0.086111746
0.082603569
0.079644747
0.07787388
0.076221566
0.075262507
0.074386317
4531684.8
732191.92
224791.82
95361.231
48525.902
27641.225
16977.405
10998.484
7411.2837
5146.6915
3659.7261
2652.5692
1953.1745
1457.5515
1100.4451
839.59641
646.89373
503.19601
395.19845
313.47797
251.23817
203.48466
166.47506
137.36516
113.98296
94.672274
78.207057
63.748135
50.816438
39.253929
29.146707
20.700335
14.091565
9.3230209
6.1685883
4.2470659
3.1179003
2.4220943
1.941184
1.5713005
1.2712729
1.0272445
0.83090223
0.67384124
0.54978712
0.45172029
0.37420995
0.31293348
0.26422318
0.22590822
0.19325293
0.16801372
0.14480164
0.12792627
0.11338541
0.10423414
0.09539757
0.089892732
0.085109151
0.082094507
0.079298445
0.077611396
0.076048551
0.075130204
0.07425213
4531684.9
732192
224791.88
95361.296
48525.988
27641.334
16977.542
10998.653
7411.4868
5146.9323
3660.0067
2652.8899
1953.5326
1457.9399
1100.85
839.99486
647.25056
503.45996
395.2975
313.31275
250.68173
202.39403
164.71311
134.82192
110.59296
90.444854
73.255629
58.305528
45.222655
33.908024
24.42857
16.884417
11.287829
7.4559531
5.0532899
3.6351618
2.788436
2.2287718
1.8082069
1.468717
1.1913216
0.96556392
0.78285561
0.63680035
0.52097568
0.42874478
0.35615994
0.2990411
0.25316923
0.21687546
0.18624737
0.16270965
0.1405727
0.12503044
0.11085197
0.10198409
0.093974002
0.088938944
0.084107298
0.081388471
0.078678431
0.07712424
0.075710974
0.074901248
0.074163131
4531686.1
732192.09
224791.88
95361.274
48525.959
27641.302
16977.508
10998.618
7411.4522
5146.898
3659.9711
2652.8489
1953.4783
1457.8586
1100.7202
839.78445
646.91416
502.93659
394.50993
312.1706
249.08654
200.24666
161.92868
131.35005
106.44169
85.702854
68.104693
53.01415
40.114525
29.307513
20.595722
13.960828
9.2623194
6.2024569
4.3488484
3.2524068
2.5641975
2.0763259
1.6941005