/*--------------------------------*- C++ -*----------------------------------*\
  =========                 |
  \\      /  F ield         | OpenFOAM: The Open Source CFD Toolbox
   \\    /   O peration     | Website:  https://openfoam.org
    \\  /    A nd           | Version:  13
     \\/     M anipulation  |
\*---------------------------------------------------------------------------*/
FoamFile
{
    format      ascii;
    class       volScalarField;
    location    "9.998724";
    object      nut;
}
// * * * * * * * * * * * * * * * * * * * * * * * * * * * * * * * * * * * * * //

dimensions      [0 2 -1 0 0 0 0];

internalField   nonuniform List<scalar> 
17140
(
5.5460529e-18
1.0786336e-15
2.8729697e-14
2.9125821e-13
1.7614184e-12
7.8038726e-12
2.8179055e-11
8.8177004e-11
2.4841672e-10
6.4619441e-10
1.5794057e-09
3.6730711e-09
8.203735e-09
1.7721751e-08
3.7229376e-08
7.6385619e-08
1.535909e-07
3.0348557e-07
5.9060305e-07
1.1340413e-06
2.1516913e-06
4.0386266e-06
7.5028124e-06
1.3786625e-05
2.4972795e-05
4.4190473e-05
7.4940651e-05
0.00010911347
0.00011797022
0.00012315033
0.00012597119
0.00012648819
0.00012625217
0.00012613419
0.00012642998
0.00012719832
0.00012848201
0.00013035589
0.00013294212
0.00013642146
0.0001410457
0.00014722599
0.00015612882
0.00017171877
0.00020353004
0.00026882734
0.00030677378
0.00030282864
0.0003013066
0.00029908807
0.00030165145
0.00030433135
0.00031004111
0.00031814257
0.00032542265
0.0003336186
0.00033755161
0.00033883712
0.00034168923
0.00033230135
0.00032438462
0.00030106235
0.00028396968
0.00026620129
0.00024877372
5.4834331e-18
1.066454e-15
2.840532e-14
2.8797044e-13
1.7415416e-12
7.7158383e-12
2.786127e-11
8.7182866e-11
2.4561645e-10
6.3891023e-10
1.5615977e-09
3.6316324e-09
8.1110832e-09
1.7521261e-08
3.6807115e-08
7.5516126e-08
1.518341e-07
2.9999233e-07
5.8375097e-07
1.1207575e-06
2.126205e-06
3.9902082e-06
7.411826e-06
1.3618256e-05
2.4669606e-05
4.3673356e-05
7.4150176e-05
0.00010975873
0.00011880614
0.00012408158
0.00012701394
0.00012759916
0.00012739882
0.00012731033
0.00012764626
0.00012847124
0.0001298348
0.00013183281
0.00013459244
0.00013830345
0.00014323378
0.00014981243
0.00015927646
0.00017589092
0.00020988861
0.00028005845
0.00031143979
0.00030886911
0.00030602101
0.00030531227
0.00030639947
0.00030697299
0.00030829492
0.00030654879
0.0003020718
0.00029742354
0.00029079213
0.00027946365
0.00026412239
0.00026764234
0.00026183933
0.00025132811
0.00024559366
0.0002367423
0.00022349985
5.343455e-18
1.03923e-15
2.7680196e-14
2.8061913e-13
1.6970824e-12
7.5188524e-12
2.7149892e-11
8.4956418e-11
2.3934203e-10
6.2258081e-10
1.5216559e-09
3.5386401e-09
7.9030543e-09
1.7070869e-08
3.5858054e-08
7.356096e-08
1.4788201e-07
2.9213098e-07
5.683259e-07
1.0908463e-06
2.0688065e-06
3.8811481e-06
7.2068521e-06
1.3238838e-05
2.3985855e-05
4.2505128e-05
7.2358452e-05
0.00011128803
0.00012077017
0.00012629985
0.00012948815
0.00013023517
0.00013012834
0.00013012271
0.0001305738
0.00013156748
0.00013316848
0.00013548456
0.00013868216
0.0001429875
0.00014871372
0.00015634217
0.0001673441
0.0001869375
0.0002281178
0.00031244761
0.00032361061
0.00032017042
0.00032114907
0.00032284765
0.00032561345
0.00032602021
0.00032315227
0.00031812746
0.0003077897
0.0002884553
0.00026972539
0.00024596797
0.00020055871
0.00018749678
0.00017383164
0.00016496044
0.00016586672
0.0001624033
0.00016112286
5.126541e-18
9.9704307e-16
2.6556531e-14
2.692274e-13
1.6281878e-12
7.2136022e-12
2.6047545e-11
8.150638e-11
2.2961961e-10
5.9727888e-10
1.459771e-09
3.3945734e-09
7.5808112e-09
1.6373325e-08
3.4388553e-08
7.0534603e-08
1.4176715e-07
2.7997362e-07
5.4448584e-07
1.0446496e-06
1.9802249e-06
3.7129682e-06
6.8909573e-06
1.2654139e-05
2.2930807e-05
4.0694715e-05
6.9552513e-05
0.00011113896
0.00012396716
0.00012998567
0.00013356888
0.00013459454
0.00013465183
0.00013478924
0.00013543798
0.00013672311
0.00013873974
0.00014163486
0.00014561951
0.00015098202
0.00015833194
0.00016806249
0.00018156393
0.00020681356
0.00025976581
0.0003452764
0.00034461737
0.00035073162
0.00035867642
0.00036991729
0.00038282179
0.00039399899
0.00039887143
0.00039976572
0.00039047787
0.00034421141
0.00029833723
0.00025896504
0.00018994196
0.00015804375
0.00014374618
0.00013957118
0.0001447435
0.00014709342
0.00015879987
4.8362951e-18
9.4059412e-16
2.5052999e-14
2.5398462e-13
1.5360034e-12
6.8051641e-12
2.4572574e-11
7.6890215e-11
2.1661135e-10
5.6342737e-10
1.376981e-09
3.2018598e-09
7.1498193e-09
1.5440564e-08
3.242404e-08
6.6490154e-08
1.335986e-07
2.637413e-07
5.1267307e-07
9.8304148e-07
1.8621625e-06
3.4889175e-06
6.4701254e-06
1.187439e-05
2.1518924e-05
3.8250904e-05
6.5690552e-05
0.00010602368
0.00012854492
0.00013536022
0.00013952786
0.00014095875
0.00014125993
0.0001415984
0.00014251853
0.00014420567
0.00014679662
0.0001504876
0.00015574029
0.00016294896
0.00017207909
0.00018394779
0.00020154477
0.00023446287
0.00030278975
0.00037514432
0.00038467297
0.00040564358
0.00043009975
0.00046402297
0.00050244307
0.00054370957
0.00057049384
0.00058405949
0.00057914728
0.00049270217
0.00038484228
0.0002939592
0.000196325
0.00014530406
0.00012597373
0.00012365252
0.00013268314
0.00014646111
0.00017404224
4.4806852e-18
8.7143283e-16
2.3210871e-14
2.3530916e-13
1.4230588e-12
6.3047478e-12
2.276547e-11
7.123471e-11
2.0067484e-10
5.2195807e-10
1.2755696e-09
2.9658321e-09
6.62206e-09
1.4298682e-08
3.0019956e-08
6.1543053e-08
1.2361288e-07
2.439123e-07
4.7384471e-07
9.079206e-07
1.7183568e-06
3.21629e-06
5.9584136e-06
1.0926037e-05
1.9797423e-05
3.5248486e-05
6.0860459e-05
9.9386431e-05
0.00013470823
0.00014275845
0.00014759136
0.0001497324
0.0001503721
0.00015096071
0.00015220745
0.0001543846
0.00015768614
0.00016273143
0.00016964968
0.00017828923
0.00018974523
0.00020498593
0.00022773258
0.00027079804
0.00035944909
0.00041919356
0.00044729367
0.00049037699
0.00054356714
0.00061344221
0.00069233918
0.00077613262
0.0008319907
0.00085915479
0.00084096381
0.000705515
0.00051046222
0.00032403043
0.00019489263
0.00012841895
0.00011038785
0.00011638708
0.00013735746
0.00016512671
0.00021081967
4.0720933e-18
7.9196733e-16
2.109429e-14
2.1385132e-13
1.2932875e-12
5.7297827e-12
2.0689194e-11
6.4737004e-11
1.8236604e-10
4.7431952e-10
1.1590856e-09
2.6947727e-09
6.0161242e-09
1.2988116e-08
2.726204e-08
5.5871363e-08
1.1217363e-07
2.2121923e-07
4.294606e-07
8.2216968e-07
1.5544559e-06
2.9060667e-06
5.3769564e-06
9.8490412e-06
1.7839098e-05
3.1809344e-05
5.5228902e-05
9.1349319e-05
0.00013895375
0.00015266877
0.00015844343
0.00016149035
0.00016254145
0.00016345877
0.00016506287
0.00016778735
0.00017232122
0.00017878197
0.0001869023
0.00019775722
0.00021229899
0.00023170842
0.00026103005
0.00031701026
0.00043250295
0.00047929114
0.00053345316
0.00060653909
0.00069957702
0.00081611895
0.0009465248
0.0010808212
0.001167867
0.0012065422
0.0011396223
0.00090985425
0.00059487857
0.00034380927
0.00017936827
0.00011270494
0.00010109935
0.00011668871
0.00015120433
0.00019657865
0.00026074185
3.6247522e-18
7.049656e-16
1.8776978e-14
1.9035849e-13
1.1512096e-12
5.1002976e-12
1.8416075e-11
5.7623494e-11
1.6232309e-10
4.2217298e-10
1.0315946e-09
2.3981545e-09
5.3532283e-09
1.1554879e-08
2.4247482e-08
4.9675946e-08
9.9688529e-08
1.964772e-07
3.8112965e-07
7.2892939e-07
1.3765277e-06
2.5698468e-06
4.7476332e-06
8.6838141e-06
1.5715611e-05
2.8049485e-05
4.8943266e-05
8.1965926e-05
0.00012778149
0.00016573435
0.00017289232
0.00017706606
0.00017870169
0.00017998473
0.00018193044
0.00018552645
0.0001912118
0.00019867034
0.0002085524
0.00022207725
0.0002401749
0.00026442593
0.00030146079
0.00037239926
0.00049649777
0.0005531848
0.00063738162
0.00074556231
0.00088308584
0.0010483453
0.0012288801
0.0014059609
0.0015187324
0.0015660638
0.001419046
0.0010398174
0.00063869215
0.00032319483
0.00015134254
9.5386078e-05
9.6548381e-05
0.00012533588
0.00017778598
0.00024286441
0.00032632129
3.1552065e-18
6.1364516e-16
1.6344628e-14
1.6569947e-13
1.0020798e-12
4.4395745e-12
1.6030199e-11
5.0157368e-11
1.4128777e-10
3.6744944e-10
8.9782148e-10
2.0869831e-09
4.65801e-09
1.005237e-08
2.1088969e-08
4.3189443e-08
8.6629235e-08
1.7062814e-07
3.3070994e-07
6.3182787e-07
1.1915975e-06
2.2211384e-06
4.0962543e-06
7.4793243e-06
1.3518803e-05
2.4136856e-05
4.2292109e-05
7.1662038e-05
0.00011437
0.00016575405
0.00019238621
0.00019778794
0.0002002988
0.00020177723
0.00020412542
0.00020854216
0.00021500874
0.00022354623
0.00023541021
0.00025169053
0.00027351498
0.00030289261
0.00034811244
0.00043499384
0.00055340959
0.00063385641
0.00074811225
0.00089145598
0.0010700434
0.0012758114
0.0014900812
0.0016742158
0.0017721737
0.0018044976
0.0015711011
0.0011045178
0.00060693655
0.00026907139
0.0001197559
8.6174813e-05
0.00010082724
0.00014511516
0.00021684649
0.00030043083
0.00039568829
2.6808619e-18
5.2139146e-16
1.388742e-14
1.4078847e-13
8.5142675e-13
3.7721098e-12
1.3620027e-11
4.2615477e-11
1.2004021e-10
3.1217872e-10
7.6272942e-10
1.7728083e-09
3.9562902e-09
8.5364438e-09
1.790408e-08
3.6653795e-08
7.348417e-08
1.4464242e-07
2.8010335e-07
5.3455028e-07
1.006736e-06
1.8733938e-06
3.4482167e-06
6.2831543e-06
1.1336951e-05
2.0232079e-05
3.5552258e-05
6.0838068e-05
9.9215597e-05
0.00014931593
0.00020069614
0.00022585304
0.00022953601
0.00023113825
0.00023363647
0.00023841592
0.00024506199
0.00025451437
0.0002681255
0.00028698646
0.00031229952
0.00034641326
0.00039913017
0.00050116709
0.00060843831
0.00071182374
0.00085214525
0.001024828
0.0012337108
0.0014642324
0.0016908716
0.0018492723
0.0019176332
0.0018872007
0.0016256583
0.0010239776
0.00049334578
0.00019637041
9.2896926e-05
8.2008628e-05
0.00011079732
0.00017462148
0.00026809712
0.00036363255
0.00045857344
2.2189895e-18
4.3156333e-16
1.1494804e-14
1.1653218e-13
7.0473359e-13
3.1221968e-12
1.1273289e-11
3.5272342e-11
9.9353764e-11
2.583724e-10
6.3123448e-10
1.4670608e-09
3.2735932e-09
7.0622245e-09
1.4808595e-08
3.0306548e-08
6.0731131e-08
1.1946497e-07
2.3115214e-07
4.4064475e-07
8.2870749e-07
1.5394006e-06
2.8275468e-06
5.1403088e-06
9.2544911e-06
1.6494681e-05
2.9026112e-05
5.0043943e-05
8.3148999e-05
0.00012948514
0.00018275843
0.0002297041
0.00026204045
0.00027141836
0.00027308713
0.0002769535
0.00028345006
0.00029350199
0.00030795081
0.00032809488
0.00035537494
0.00039245073
0.00045039657
0.0005611759
0.00065429183
0.0007761291
0.00093589958
0.0011284105
0.0013523921
0.0015862676
0.0017948275
0.0019075037
0.0019312157
0.0018332797
0.0014584551
0.00081974121
0.00035069773
0.0001333477
7.5686513e-05
8.3817643e-05
0.00013155591
0.0002170409
0.00032818263
0.00042416161
0.00049885083
1.7854257e-18
3.4724088e-16
9.2488393e-15
9.3762748e-14
5.67033e-13
2.5121294e-12
9.0704635e-12
2.8379726e-11
7.9937449e-11
2.0787377e-10
5.0783826e-10
1.1801974e-09
2.6332359e-09
5.679972e-09
1.19078e-08
2.4362953e-08
4.8801077e-08
9.5943146e-08
1.854963e-07
3.5324257e-07
6.6342132e-07
1.2302054e-06
2.2547545e-06
4.0887868e-06
7.3422823e-06
1.3059549e-05
2.2979145e-05
3.9807835e-05
6.7109485e-05
0.00010769089
0.00015939523
0.00021170375
0.00025226823
0.00027771767
0.0002935942
0.00030589524
0.00031822917
0.00033245498
0.00035033145
0.00037332841
0.00040150794
0.00043945457
0.00049941204
0.00058389287
0.00068530656
0.00081685197
0.00098227729
0.00117551
0.0013907635
0.0016065612
0.00179401
0.0018724837
0.0018320633
0.0016749246
0.0011603262
0.00057315513
0.00022027925
9.1963072e-05
6.7699943e-05
9.4045824e-05
0.0001638789
0.00026900188
0.00038629875
0.00046312398
0.00053472926
1.3933978e-18
2.7099671e-16
7.2180488e-15
7.3174844e-14
4.4252599e-13
1.9605187e-12
7.0787404e-12
2.2147806e-11
6.2383045e-11
1.622208e-10
3.9629462e-10
9.2093002e-10
2.0546186e-09
4.4314208e-09
9.2888734e-09
1.9000551e-08
3.8047594e-08
7.4767353e-08
1.4446036e-07
2.748451e-07
5.1553619e-07
9.5438382e-07
1.745495e-06
3.1571121e-06
5.652894e-06
1.0027172e-05
1.7617092e-05
3.0581824e-05
5.2069692e-05
8.55881e-05
0.00013224115
0.00018614347
0.00023479434
0.00026914051
0.00029020717
0.0003056042
0.00031890537
0.00033364347
0.00035184961
0.00037503516
0.00040585182
0.00044843123
0.00050744769
0.00058612517
0.00068851625
0.00082126526
0.00098551358
0.0011742365
0.0013790659
0.001578167
0.0017257585
0.0017228429
0.0016422375
0.0013877767
0.00081737083
0.00035635398
0.00013177842
6.6312838e-05
6.8030105e-05
0.00011674572
0.00021189432
0.00032678302
0.00042826272
0.00049252296
0.00057379311
1.0525099e-18
2.0469857e-16
5.4521774e-15
5.5272728e-14
3.3426184e-13
1.4808726e-12
5.3468832e-12
1.6729096e-11
4.7119866e-11
1.2252873e-10
2.9932361e-10
6.9556427e-10
1.5517594e-09
3.3466525e-09
7.0144312e-09
1.4346219e-08
2.8721629e-08
5.6423042e-08
1.0896427e-07
2.0716246e-07
3.8817524e-07
7.1755066e-07
1.3097404e-06
2.362925e-06
4.218005e-06
7.4576427e-06
1.3067436e-05
2.2675043e-05
3.8814069e-05
6.4887061e-05
0.0001038707
0.00015462433
0.00020823942
0.00025239815
0.00028149966
0.0003003918
0.00031610457
0.00033151177
0.00034991012
0.00037319869
0.00040395849
0.00044599201
0.00050341043
0.00057952261
0.00067904941
0.00080730452
0.00096277818
0.0011355653
0.0013109519
0.00147546
0.0015367674
0.0014983662
0.001377296
0.00098458357
0.0005057962
0.00019425266
8.0734169e-05
5.4383641e-05
8.1299625e-05
0.00015432529
0.00026731118
0.00037635343
0.00044776934
0.00051685848
0.00060710415
7.6800537e-19
1.4936631e-16
3.9783885e-15
4.0331752e-14
2.4390569e-13
1.0805669e-12
3.9015132e-12
1.220683e-11
3.4382082e-11
8.940533e-11
2.1840551e-10
5.0752429e-10
1.1322453e-09
2.441868e-09
5.1179522e-09
1.0467089e-08
2.0953986e-08
4.1157961e-08
7.9463929e-08
1.5100882e-07
2.8274689e-07
5.2206172e-07
9.5130044e-07
1.7122311e-06
3.0472081e-06
5.3683704e-06
9.3724635e-06
1.6222819e-05
2.780128e-05
4.6920213e-05
7.7014308e-05
0.00012018862
0.0001731353
0.00022510379
0.0002651718
0.00029091492
0.00030907437
0.00032604297
0.0003441104
0.00036614937
0.000395103
0.00043413198
0.00048704278
0.00055615613
0.00064621826
0.00076047774
0.00089500159
0.0010384319
0.0011719454
0.00128486
0.0012792582
0.0012157419
0.0010154177
0.00062043961
0.00027553983
0.0001042055
5.4166049e-05
5.629805e-05
0.00010547831
0.00020317404
0.00032111569
0.00040681285
0.00047604251
0.00055187973
0.0006456112
5.4062086e-19
1.0514318e-16
2.8004981e-15
2.8390589e-14
1.716913e-13
7.6063604e-13
2.7463582e-12
8.5926279e-12
2.4202196e-11
6.2934191e-11
1.5374094e-10
3.5726357e-10
7.9704553e-10
1.7190228e-09
3.6031274e-09
7.3695296e-09
1.4754141e-08
2.8982032e-08
5.5956395e-08
1.0632476e-07
1.9901494e-07
3.6720465e-07
6.6830052e-07
1.2005427e-06
2.1306579e-06
3.7400736e-06
6.5020791e-06
1.1208316e-05
1.9163671e-05
3.2436261e-05
5.3996485e-05
8.7143405e-05
0.00013307889
0.00018676548
0.00023691435
0.00027359213
0.00029775418
0.00031634073
0.00033483043
0.00035586542
0.00038168212
0.00041566074
0.00046131275
0.00052016214
0.00059532995
0.00068881264
0.00079698125
0.00090182125
0.0010040674
0.0010336778
0.0010076963
0.00091550325
0.00064869754
0.00034682192
0.00013357606
6.0147501e-05
4.3527948e-05
7.2611606e-05
0.0001506269
0.00026434266
0.00035829812
0.00042251823
0.00050216534
0.00058487528
0.00068399741
3.6690238e-19
7.1357388e-17
1.9006094e-15
1.9267762e-14
1.1652099e-13
5.1621638e-13
1.8638512e-12
5.8314941e-12
1.6425162e-11
4.2711511e-11
1.0434106e-10
2.4247572e-10
5.4098596e-10
1.1668669e-09
2.4460993e-09
5.0039319e-09
1.0020461e-08
1.9689175e-08
3.802643e-08
7.2276167e-08
1.3530517e-07
2.4962112e-07
4.5403487e-07
8.1458818e-07
1.4424933e-06
2.523732e-06
4.368214e-06
7.4913212e-06
1.2745954e-05
2.1520566e-05
3.5975855e-05
5.9116759e-05
9.4044892e-05
0.00014128341
0.00019500097
0.00024406614
0.00027880118
0.00030248726
0.00032176338
0.00034147701
0.0003650898
0.00039384407
0.00043057867
0.00047740042
0.00053520874
0.00060468014
0.00068230622
0.00075326998
0.00080275079
0.00079710426
0.00075031077
0.00060149884
0.00038130502
0.00016846674
6.8144303e-05
4.0515234e-05
4.9610933e-05
0.00010391498
0.00019994661
0.0003011658
0.00036566522
0.00044310803
0.00052714205
0.00061876699
0.00072449885
2.4020116e-19
4.6715771e-17
1.2442771e-15
1.2614058e-14
7.6282834e-14
3.3795081e-13
1.220204e-12
3.8176969e-12
1.0753095e-11
2.7962389e-11
6.8311777e-11
1.5875532e-10
3.5422463e-10
7.6412717e-10
1.6021238e-09
3.2782767e-09
6.5671637e-09
1.2909984e-08
2.494873e-08
4.7454261e-08
8.8908456e-08
1.6414819e-07
2.9869325e-07
5.3574593e-07
9.4743664e-07
1.6531959e-06
2.8497209e-06
4.8602857e-06
8.2160461e-06
1.3786046e-05
2.2967754e-05
3.7904136e-05
6.1518441e-05
9.6723e-05
0.00014387145
0.0001972005
0.00024542035
0.00028012126
0.00030448162
0.000324471
0.00034477742
0.0003687692
0.00039797339
0.00043315175
0.00047471509
0.00052250056
0.00056886551
0.00061265
0.00061494096
0.00059523365
0.00051722188
0.00037403237
0.00019722336
7.6095237e-05
3.9821876e-05
3.6339972e-05
7.3663519e-05
0.00015807226
0.00025915537
0.00033374822
0.00040173159
0.00047143491
0.00055481324
0.0006465741
0.00075618581
1.5196572e-19
2.9555192e-17
7.8720321e-16
7.9803898e-15
4.8260878e-14
2.1380657e-13
7.7196878e-13
2.4152918e-12
6.8030652e-12
1.7690995e-11
4.3220202e-11
1.0044835e-10
2.2414652e-10
4.8359319e-10
1.0141541e-09
2.0758245e-09
4.160232e-09
8.1833695e-09
1.5827291e-08
3.0135392e-08
5.6529533e-08
1.0451164e-07
1.9044918e-07
3.4204317e-07
6.0537076e-07
1.055771e-06
1.8150048e-06
3.0792111e-06
5.1678206e-06
8.5974923e-06
1.4202364e-05
2.330553e-05
3.7909432e-05
6.0721737e-05
9.4498587e-05
0.00013984242
0.00019245057
0.00024043476
0.00027645024
0.00030234787
0.0003231023
0.00034294055
0.00036203021
0.00038921369
0.00041727488
0.00044508701
0.00047381187
0.00048281106
0.00047281211
0.00043120023
0.00034011703
0.00020545112
8.0315776e-05
3.9325969e-05
2.9985243e-05
5.2268244e-05
0.00011531745
0.00020898973
0.00028988908
0.0003148475
0.00035894725
0.00044050604
0.00055449358
0.00068330476
0.00079064045
9.3208892e-20
1.8127813e-17
4.828344e-16
4.8948014e-15
2.9600939e-14
1.3113866e-13
4.7348854e-13
1.4814282e-12
4.1727192e-12
1.0851113e-11
2.6510808e-11
6.1617445e-11
1.3750986e-10
2.9672031e-10
6.2240263e-10
1.274406e-09
2.5553577e-09
5.0300406e-09
9.7378202e-09
1.8564306e-08
3.487918e-08
6.4607125e-08
1.1798332e-07
2.123616e-07
3.7660877e-07
6.578709e-07
1.1319252e-06
1.9188934e-06
3.2058908e-06
5.2867499e-06
8.6336307e-06
1.399755e-05
2.2546735e-05
3.601836e-05
5.6749683e-05
8.7204014e-05
0.00012849605
0.00017849952
0.00022676438
0.00026511463
0.00029355716
0.00030222722
0.00030874849
0.00033717011
0.00036644373
0.00038319668
0.00039149388
0.00038411065
0.00035841179
0.00029611125
0.00019003714
7.6640546e-05
3.6956968e-05
2.5899471e-05
3.6995343e-05
8.390398e-05
0.00016791702
0.00021374276
0.00020471458
0.00023503751
0.00029043744
0.00037150258
0.00047777582
0.0006720871
0.00082533803
5.568363e-20
1.0829683e-17
2.8844864e-16
2.9241873e-15
1.7683782e-14
7.8342988e-14
2.82865e-13
8.8501754e-13
2.4928386e-12
6.4827123e-12
1.5838685e-11
3.6814897e-11
8.2166179e-11
1.7732479e-10
3.7204145e-10
7.6203612e-10
1.5287538e-09
3.0114201e-09
5.8358218e-09
1.1140871e-08
2.0969954e-08
3.893247e-08
7.1294292e-08
1.2872526e-07
2.2901933e-07
4.0121934e-07
6.9175376e-07
1.1738768e-06
1.9618424e-06
3.2306758e-06
5.2435069e-06
8.3982583e-06
1.3314017e-05
2.094821e-05
3.2678441e-05
5.030981e-05
7.5783121e-05
0.00011035863
0.00015348133
0.00020002255
0.00023567412
0.00024700222
0.00025935971
0.0002903496
0.00031802662
0.00032166697
0.00031410286
0.00029186014
0.00024437752
0.00015483552
6.509762e-05
3.266916e-05
2.2498337e-05
2.8124174e-05
6.5932603e-05
0.0001406725
0.00015956464
0.00015027803
0.00017469791
0.00021007041
0.00025085147
0.00031256259
0.00040962139
0.00059274209
0.00082026997
3.2631257e-20
6.3463201e-18
1.6903418e-16
1.7136062e-15
1.0362882e-14
4.5909781e-14
1.6576181e-13
5.186307e-13
1.4608421e-12
3.7990203e-12
9.28207e-12
2.1575878e-11
4.8158213e-11
1.0394401e-10
2.1812466e-10
4.4690755e-10
8.9696145e-10
1.7680477e-09
3.4295576e-09
6.5559839e-09
1.2362753e-08
2.3008583e-08
4.2265181e-08
7.6598558e-08
1.3685204e-07
2.4075216e-07
4.1660295e-07
7.0859108e-07
1.1846335e-06
1.9492628e-06
3.161179e-06
5.0591398e-06
7.9722768e-06
1.2369943e-05
1.8925993e-05
2.8634608e-05
4.2697963e-05
6.2327471e-05
8.8327143e-05
0.00012011683
0.000155852
0.00018207468
0.0002077336
0.00023533325
0.00023955997
0.00023276619
0.00021424742
0.00017817498
0.00010861597
4.8601248e-05
2.6881349e-05
1.9299836e-05
2.2921569e-05
5.249422e-05
0.00011417566
0.00012741104
0.00011606539
0.00012669269
0.00014180226
0.00016369952
0.00020634104
0.00027310163
0.00036370322
0.00053097356
0.00076457364
1.9060922e-20
3.7070796e-18
9.8737963e-17
1.0009687e-15
6.0532659e-15
2.6817258e-14
9.6826486e-14
3.02949e-13
8.5333197e-13
2.219182e-12
5.4222272e-12
1.2604362e-11
2.8135486e-11
6.0734222e-11
1.2747202e-10
2.6124128e-10
5.245256e-10
1.0345078e-09
2.0083496e-09
3.8438109e-09
7.2607638e-09
1.3545318e-08
2.4961893e-08
4.5429815e-08
8.1596087e-08
1.4446575e-07
2.5175822e-07
4.3114354e-07
7.2437194e-07
1.1929354e-06
1.9265331e-06
3.059198e-06
4.7956973e-06
7.4235505e-06
1.1315639e-05
1.6894725e-05
2.4688367e-05
3.5354084e-05
4.9417005e-05
6.6867981e-05
8.6914295e-05
0.00010754845
0.00012540149
0.0001383408
0.0001390801
0.00013055869
0.00010910822
6.3606951e-05
3.2321719e-05
2.0483412e-05
1.6125002e-05
1.9365783e-05
4.3196486e-05
9.4248776e-05
0.00010413233
8.9628042e-05
9.0868368e-05
0.00010141973
0.0001211262
0.00015141138
0.00018732349
0.00024237111
0.00032793002
0.00048418092
0.000710417
1.1533248e-20
2.2430536e-18
5.9743678e-17
6.0565922e-16
3.6626651e-15
1.6226363e-14
5.8586873e-14
1.8330535e-13
5.1632549e-13
1.3427635e-12
3.2808593e-12
7.6267245e-12
1.7024958e-11
3.6752915e-11
7.71476e-11
1.5813752e-10
3.1761525e-10
6.2674951e-10
1.2176763e-09
2.3330795e-09
4.4138469e-09
8.251788e-09
1.5250847e-08
2.7865078e-08
5.0309471e-08
8.9672836e-08
1.5754959e-07
2.7226103e-07
4.6167032e-07
7.6644055e-07
1.2435642e-06
1.9694774e-06
3.0497182e-06
4.6330598e-06
6.9534201e-06
1.0304928e-05
1.5028006e-05
2.1293337e-05
2.924909e-05
3.8759377e-05
4.9632501e-05
6.0576134e-05
7.0870072e-05
7.43641e-05
7.2073479e-05
5.81059e-05
3.4973663e-05
2.0630215e-05
1.4726207e-05
1.3269449e-05
1.6757028e-05
3.6995041e-05
8.0204355e-05
8.4634824e-05
7.1194756e-05
7.2182752e-05
8.1503029e-05
9.5969081e-05
0.00011297306
0.00013682761
0.00017326338
0.00022943774
0.00031328478
0.00046572459
0.00069081873
7.8050489e-21
1.5179729e-18
4.0431271e-17
4.0987899e-16
2.4787178e-15
1.0981327e-14
3.9649688e-14
1.240576e-13
3.4944975e-13
9.0882264e-13
2.220715e-12
5.1627146e-12
1.1525842e-11
2.4885113e-11
5.2245471e-11
1.0711767e-10
2.1520665e-10
4.2482962e-10
8.2582787e-10
1.5835559e-09
2.9993591e-09
5.6169364e-09
1.0406761e-08
1.9078294e-08
3.4596779e-08
6.2008723e-08
1.0969237e-07
1.9108061e-07
3.2683529e-07
5.4711167e-07
8.9342817e-07
1.4198418e-06
2.194319e-06
3.301807e-06
4.8404951e-06
6.9533302e-06
9.8214342e-06
1.3693017e-05
1.8641023e-05
2.4551942e-05
3.0840007e-05
3.7073799e-05
3.9465224e-05
3.7795806e-05
2.8198134e-05
1.8359095e-05
1.271567e-05
1.0665012e-05
1.0651175e-05
1.511487e-05
3.2968876e-05
7.1276449e-05
6.7253294e-05
5.9313533e-05
6.216513e-05
6.9418026e-05
7.7638998e-05
8.7258638e-05
0.00010333888
0.00012692865
0.00015976649
0.00021163677
0.00029054276
0.00043837411
0.0006744192
6.320012e-21
1.2291555e-18
3.2738774e-17
3.3189851e-16
2.0071707e-15
8.8924977e-15
3.2108974e-14
1.0046991e-13
2.830313e-13
7.3617427e-13
1.79914e-12
4.18355e-12
9.342532e-12
2.0178775e-11
4.238524e-11
8.6955464e-11
1.7483715e-10
3.4548077e-10
6.7240876e-10
1.2913305e-09
2.4504621e-09
4.5996793e-09
8.5465245e-09
1.5724773e-08
2.8646412e-08
5.1636169e-08
9.1958666e-08
1.6141897e-07
2.7834385e-07
4.6946778e-07
7.7078614e-07
1.2264837e-06
1.8864435e-06
2.8047962e-06
4.0411518e-06
5.6680687e-06
7.7734945e-06
1.041124e-05
1.3533999e-05
1.6813441e-05
1.9645722e-05
2.0005051e-05
1.771304e-05
1.2934132e-05
9.3673124e-06
8.0566483e-06
7.6355283e-06
8.8141938e-06
1.3757113e-05
3.0801176e-05
6.6253404e-05
5.6862474e-05
5.4490774e-05
5.8789546e-05
6.3677231e-05
6.8807338e-05
7.5932354e-05
8.8015935e-05
0.00010454356
0.0001273071
0.00015981578
0.00021139724
0.00029016811
0.0004312148
0.00065935886
5.8891002e-21
1.1453506e-18
3.0506821e-17
3.0927624e-16
1.8704109e-15
8.2869456e-15
2.9924302e-14
9.3642357e-14
2.6383053e-13
6.8634983e-13
1.6777602e-12
3.9024952e-12
8.7183689e-12
1.8840365e-11
3.9600027e-11
8.1309399e-11
1.6365698e-10
3.2381455e-10
6.3127291e-10
1.2147917e-09
2.3109843e-09
4.3511601e-09
8.1149228e-09
1.4998033e-08
2.7470109e-08
4.9832092e-08
8.940521e-08
1.5825287e-07
2.7528692e-07
4.6799731e-07
7.7207617e-07
1.2268251e-06
1.8665003e-06
2.7123441e-06
3.7705466e-06
5.0348222e-06
6.4750657e-06
7.946721e-06
9.1993429e-06
9.7858352e-06
9.086901e-06
7.4734486e-06
5.9871786e-06
5.0737473e-06
5.1690084e-06
5.7427905e-06
7.2466072e-06
1.3073447e-05
3.0820314e-05
6.2471333e-05
5.4649135e-05
5.4366593e-05
5.8670542e-05
6.11185e-05
6.492875e-05
7.0519384e-05
7.8571635e-05
8.9580563e-05
0.00010389803
0.00012525386
0.00015574582
0.00020470037
0.00027939843
0.00042538467
0.00066663397
5.4748665e-21
1.0647888e-18
2.8361164e-17
2.8752719e-16
1.7389168e-15
7.7046152e-15
2.7822883e-14
8.7072433e-14
2.4534347e-13
6.3833655e-13
1.5606506e-12
3.6308698e-12
8.1137487e-12
1.75398e-11
3.6882233e-11
7.5769319e-11
1.5260559e-10
3.0218714e-10
5.8966999e-10
1.1360092e-09
2.1639515e-09
4.0805136e-09
7.6234283e-09
1.4117699e-08
2.5916244e-08
4.7133173e-08
8.4799199e-08
1.5047914e-07
2.6213038e-07
4.4504541e-07
7.2940253e-07
1.1412915e-06
1.6876553e-06
2.3380599e-06
3.0203543e-06
3.6752731e-06
4.1903393e-06
4.4259332e-06
4.2247643e-06
3.6957025e-06
3.2491001e-06
2.9724863e-06
3.1057298e-06
3.4693056e-06
4.3843854e-06
6.4280362e-06
1.3624793e-05
3.0322826e-05
5.9571557e-05
5.8765128e-05
5.6496566e-05
5.9803139e-05
6.1280892e-05
6.4635142e-05
6.8961808e-05
7.4629239e-05
8.2287793e-05
9.2990899e-05
0.00010796549
0.0001301544
0.00016037388
0.00020911658
0.0002838515
0.00042391256
0.00066263666
4.4351268e-21
8.6257303e-19
2.2975029e-17
2.3292197e-16
1.4086717e-15
6.2413847e-15
2.2538759e-14
7.0534937e-14
1.9874234e-13
5.17074e-13
1.2641199e-12
2.9407784e-12
6.5709412e-12
1.4202508e-11
2.9858274e-11
6.1321283e-11
1.2345522e-10
2.4432667e-10
4.7640205e-10
9.1685988e-10
1.7441223e-09
3.2829036e-09
6.1185873e-09
1.1294885e-08
2.0646694e-08
3.733793e-08
6.6671157e-08
1.1714803e-07
2.0139812e-07
3.3584457e-07
5.3694376e-07
8.1176207e-07
1.1435208e-06
1.4783948e-06
1.7601437e-06
1.9247408e-06
1.9177148e-06
1.789199e-06
1.6339938e-06
1.6233491e-06
1.6921936e-06
2.0042014e-06
2.6257921e-06
3.7177843e-06
6.392062e-06
1.3987512e-05
2.9557853e-05
5.6563655e-05
6.6576465e-05
6.2040752e-05
6.3124667e-05
6.4118885e-05
6.6690904e-05
6.9201973e-05
7.2925573e-05
7.8541251e-05
8.650803e-05
9.800181e-05
0.0001130289
0.00013394801
0.00016237137
0.00020971307
0.0002824518
0.00042910717
0.00067521527
2.9975356e-21
5.8297997e-19
1.5527858e-17
1.5742029e-16
9.5203074e-16
4.2180099e-15
1.5231198e-14
4.7662261e-14
1.3428011e-13
3.4930453e-13
8.5377288e-13
1.9855573e-12
4.4347158e-12
9.5798517e-12
2.0124857e-11
4.1290363e-11
8.3019688e-11
1.6402244e-10
3.191135e-10
6.1239473e-10
1.1606571e-09
2.1743536e-09
4.0280763e-09
7.3788757e-09
1.335794e-08
2.3863921e-08
4.1968828e-08
7.2365998e-08
1.2157368e-07
1.9719211e-07
3.0480996e-07
4.4180181e-07
5.8992994e-07
7.1774949e-07
7.9659534e-07
8.2706189e-07
8.4474409e-07
8.5253579e-07
9.3430004e-07
1.1085114e-06
1.4974397e-06
2.2120487e-06
3.4931025e-06
6.4565988e-06
1.3594513e-05
2.7829106e-05
5.3016626e-05
8.1128892e-05
7.1863163e-05
7.0655258e-05
6.92989e-05
7.0055906e-05
7.090442e-05
7.3162826e-05
7.7312169e-05
8.3463375e-05
9.194002e-05
0.00010328361
0.00011812708
0.00013979602
0.00016930366
0.00021768803
0.00028901867
0.00043363987
0.00067791388
1.7306072e-21
3.3657914e-19
8.9648265e-18
9.0883103e-17
5.4961616e-16
2.4349707e-15
8.7919691e-15
2.7509133e-14
7.7489523e-14
2.015285e-13
4.9242339e-13
1.1447077e-12
2.5552369e-12
5.515644e-12
1.1575446e-11
2.3718472e-11
4.7608018e-11
9.3852022e-11
1.8207381e-10
3.4813013e-10
6.5671184e-10
1.2229266e-09
2.2483602e-09
4.0793035e-09
7.2960906e-09
1.2839212e-08
2.216141e-08
3.7345988e-08
6.1028084e-08
9.581125e-08
1.4282824e-07
1.9968217e-07
2.5959821e-07
3.1575843e-07
3.723978e-07
4.374707e-07
5.2198011e-07
6.4859546e-07
8.4963319e-07
1.2882861e-06
2.03552e-06
3.3560265e-06
6.2287334e-06
1.2800026e-05
2.6156155e-05
5.0405072e-05
8.4041185e-05
8.7997278e-05
8.2626337e-05
7.7757962e-05
7.5550407e-05
7.4579024e-05
7.5418799e-05
7.7811932e-05
8.2008938e-05
8.8278541e-05
9.6750317e-05
0.00010881793
0.00012463878
0.00014678159
0.0001753622
0.00022285613
0.00029525225
0.00044591834
0.00069133272
9.3621424e-22
1.8208044e-19
4.8496969e-18
4.916404e-17
2.9730949e-16
1.3171002e-15
4.7552719e-15
1.4876999e-14
4.1899765e-14
1.0894591e-13
2.6612641e-13
6.1841407e-13
1.3797532e-12
2.9763823e-12
6.2412668e-12
1.2775093e-11
2.5607915e-11
5.03962e-11
9.7558922e-11
1.8603134e-10
3.4974412e-10
6.4856277e-10
1.1862389e-09
2.1387474e-09
3.7965632e-09
6.6223488e-09
1.1318111e-08
1.8877279e-08
3.0568293e-08
4.7779695e-08
7.1715847e-08
1.0321469e-07
1.433153e-07
1.9446432e-07
2.6491115e-07
3.6457968e-07
5.0976468e-07
7.3879767e-07
1.1690269e-06
1.8702216e-06
3.1449961e-06
5.8493845e-06
1.1902977e-05
2.4708838e-05
4.7547563e-05
7.8441899e-05
0.00011347018
0.00010115276
9.0627158e-05
8.4657159e-05
8.0697206e-05
7.9381535e-05
7.9887612e-05
8.2194762e-05
8.6547293e-05
9.3007847e-05
0.00010220219
0.00011480886
0.00013073078
0.00015336694
0.00018266321
0.00023077793
0.00030185221
0.00045336071
0.00069774697
5.9831639e-22
1.1636401e-19
3.099336e-18
3.1419352e-17
1.8999803e-16
8.4167505e-16
3.0386541e-15
9.505988e-15
2.6771112e-14
6.9604467e-14
1.7001465e-13
3.9505184e-13
8.8137684e-13
1.9013002e-12
3.9871519e-12
8.1624931e-12
1.6366755e-11
3.2225899e-11
6.2434137e-11
1.191993e-10
2.2450653e-10
4.1742695e-10
7.6638652e-10
1.3892174e-09
2.4847855e-09
4.3805135e-09
7.5990301e-09
1.2942909e-08
2.1590623e-08
3.521012e-08
5.6002902e-08
8.6823286e-08
1.3158771e-07
1.9734535e-07
2.9583994e-07
4.367195e-07
6.6912645e-07
1.0636967e-06