/*--------------------------------*- C++ -*----------------------------------*\
  =========                 |
  \\      /  F ield         | OpenFOAM: The Open Source CFD Toolbox
   \\    /   O peration     | Website:  https://openfoam.org
    \\  /    A nd           | Version:  13
     \\/     M anipulation  |
\*---------------------------------------------------------------------------*/
FoamFile
{
    format      ascii;
    class       volScalarField;
    location    "43.201671";
    object      yPlus;
}
// * * * * * * * * * * * * * * * * * * * * * * * * * * * * * * * * * * * * * //

dimensions      [];

internalField   uniform 0;

boundaryField
{
    inlet
    {
        type            calculated;
        value           uniform 0;
    }
    outlet
    {
        type            calculated;
        value           uniform 0;
    }
    cylinder
    {
        type            calculated;
        value           nonuniform List<scalar> 
132
(
1.7018946e-07
1.7073071e-07
1.7070107e-07
1.7001072e-07
1.6862143e-07
1.6650628e-07
1.6364764e-07
1.6003887e-07
1.5568633e-07
1.5061103e-07
1.448503e-07
1.3845895e-07
1.3150963e-07
1.240933e-07
1.1631788e-07
1.0830551e-07
1.001917e-07
9.2120012e-08
8.4238867e-08
7.6691039e-08
6.9602007e-08
6.3061235e-08
5.7097621e-08
5.1651015e-08
4.6551321e-08
4.153095e-08
3.6291537e-08
3.0630893e-08
2.4586502e-08
1.8491936e-08
1.2898084e-08
8.3892341e-09
5.4527811e-09
4.3778424e-09
4.7370639e-09
5.7582337e-09
7.1577306e-09
8.9177069e-09
1.1071201e-08
1.3671527e-08
1.6834413e-08
2.0661572e-08
2.4823592e-08
2.9254464e-08
3.382534e-08
3.8426878e-08
4.2967899e-08
4.7374814e-08
5.1601589e-08
5.5615328e-08
5.9395663e-08
6.2934485e-08
6.6219219e-08
6.9238125e-08
7.2040779e-08
7.4594458e-08
7.6891135e-08
7.89633e-08
8.0800772e-08
8.2414329e-08
8.3795335e-08
8.493922e-08
8.58566e-08
8.6545301e-08
8.7019076e-08
8.7262051e-08
1.6903203e-07
1.6724226e-07
1.6485835e-07
1.6186441e-07
1.5828632e-07
1.5414823e-07
1.4947356e-07
1.4429901e-07
1.3867191e-07
1.3264862e-07
1.2629391e-07
1.1967988e-07
1.1288489e-07
1.0599231e-07
9.9088987e-08
9.2263606e-08
8.5605354e-08
7.920119e-08
7.3131016e-08
6.7461292e-08
6.2232334e-08
5.74427e-08
5.3028487e-08
4.8843779e-08
4.4658087e-08
4.0192853e-08
3.5201917e-08
2.9601401e-08
2.3569593e-08
1.7541364e-08
1.2102103e-08
7.8227067e-09
5.158529e-09
4.352608e-09
4.845264e-09
5.9319707e-09
7.386861e-09
9.2070285e-09
1.1428658e-08
1.4104856e-08
1.7346698e-08
2.1251432e-08
2.5475822e-08
2.9949188e-08
3.4542966e-08
3.9155561e-08
4.3693346e-08
4.808368e-08
5.228741e-08
5.627083e-08
6.0016414e-08
6.3518509e-08
6.6762181e-08
6.9734123e-08
7.2515288e-08
7.5017654e-08
7.7283514e-08
7.9308632e-08
8.1112262e-08
8.2684942e-08
8.4021686e-08
8.5126851e-08
8.5997898e-08
8.664541e-08
8.7069171e-08
8.7272517e-08
)
;
    }
    frontAndBack
    {
        type            empty;
    }
}


// ************************************************************************* //
