/*--------------------------------*- C++ -*----------------------------------*\
  =========                 |
  \\      /  F ield         | OpenFOAM: The Open Source CFD Toolbox
   \\    /   O peration     | Website:  https://openfoam.org
    \\  /    A nd           | Version:  13
     \\/     M anipulation  |
\*---------------------------------------------------------------------------*/
FoamFile
{
    format      ascii;
    class       volScalarField;
    location    "40.901278";
    object      p;
}
// * * * * * * * * * * * * * * * * * * * * * * * * * * * * * * * * * * * * * //

dimensions      [0 2 -2 0 0 0 0];

internalField   nonuniform List<scalar> 
17140
(
-0.30806586
-0.30807375
-0.30808312
-0.30809312
-0.30810409
-0.30811621
-0.30812955
-0.30814422
-0.3081603
-0.30817792
-0.30819718
-0.30821818
-0.30824099
-0.30826571
-0.3082924
-0.30832109
-0.30835181
-0.30838454
-0.30841922
-0.30845579
-0.30849412
-0.3085341
-0.30857565
-0.30861878
-0.3086637
-0.30871102
-0.30876201
-0.30881906
-0.30888632
-0.3089706
-0.30908248
-0.30923725
-0.30945479
-0.30975676
-0.31016027
-0.31066939
-0.31126932
-0.31192774
-0.31260277
-0.31325326
-0.31384728
-0.31436639
-0.31480428
-0.31517106
-0.31549489
-0.31580183
-0.31611393
-0.31645733
-0.31685459
-0.31731138
-0.31780541
-0.31826401
-0.31847767
-0.31812383
-0.31630794
-0.31261345
-0.30460267
-0.29192214
-0.27224729
-0.26120102
-0.26874638
-0.28936698
-0.24105999
-0.13718191
-0.07482196
-0.30721183
-0.30721978
-0.3072292
-0.30723926
-0.30725029
-0.30726248
-0.3072759
-0.30729067
-0.30730687
-0.30732464
-0.30734403
-0.30736513
-0.30738808
-0.30741296
-0.30743982
-0.30746872
-0.30749968
-0.30753268
-0.30756768
-0.30760458
-0.30764327
-0.30768363
-0.30772556
-0.30776902
-0.30781419
-0.3078616
-0.30791242
-0.30796888
-0.30803494
-0.30811715
-0.30822578
-0.30837578
-0.30858669
-0.30887983
-0.30927192
-0.30976648
-0.31034784
-0.31098233
-0.31162611
-0.31223542
-0.31277497
-0.31322207
-0.31356521
-0.31380678
-0.31396589
-0.31405672
-0.31408404
-0.31405081
-0.31394739
-0.31373708
-0.31333799
-0.31260814
-0.31125536
-0.30887803
-0.30466519
-0.29852035
-0.28928096
-0.2785681
-0.26515069
-0.26622858
-0.29329457
-0.33069116
-0.28486858
-0.15944081
-0.072491987
-0.30641487
-0.30642278
-0.30643212
-0.30644207
-0.30645344
-0.30646653
-0.30647997
-0.30649318
-0.30650759
-0.30652504
-0.30654553
-0.30656724
-0.30658999
-0.30661469
-0.30664144
-0.30667024
-0.3067011
-0.30673401
-0.30676894
-0.30680578
-0.30684442
-0.30688473
-0.30692658
-0.30696991
-0.30701484
-0.30706182
-0.30711189
-0.30716714
-0.30723125
-0.30731045
-0.30741461
-0.30755818
-0.30776014
-0.30804129
-0.30841796
-0.30889325
-0.30945097
-0.31005646
-0.31066428
-0.31122828
-0.31170984
-0.31208205
-0.31232814
-0.31244288
-0.31243607
-0.31231019
-0.31205315
-0.31164542
-0.31104654
-0.31017996
-0.30890854
-0.30702914
-0.30417277
-0.29986959
-0.29334779
-0.28510654
-0.27499031
-0.26601438
-0.25854751
-0.2708321
-0.31387841
-0.36935048
-0.31864326
-0.17681011
-0.065610026
-0.30568414
-0.30569191
-0.3057011
-0.3057109
-0.30572157
-0.30573353
-0.30574704
-0.30576091
-0.30577557
-0.30579319
-0.30581278
-0.30583338
-0.30585575
-0.30588009
-0.3059064
-0.30593474
-0.30596513
-0.30599757
-0.306032
-0.30606835
-0.30610648
-0.30614624
-0.30618751
-0.30623018
-0.30627432
-0.3063203
-0.30636902
-0.30642237
-0.30648376
-0.30655903
-0.30665751
-0.306793
-0.30698373
-0.30724986
-0.30760718
-0.30805856
-0.30858761
-0.30915917
-0.30972654
-0.31024142
-0.31066205
-0.31095736
-0.31110531
-0.31109322
-0.31092147
-0.31058107
-0.31004379
-0.30926849
-0.30818567
-0.30668183
-0.30456922
-0.30159175
-0.29731184
-0.29118421
-0.28258034
-0.27271064
-0.26172621
-0.25358747
-0.25148127
-0.27497179
-0.32974016
-0.39634503
-0.34011489
-0.18471921
-0.057425859
-0.30502725
-0.30503475
-0.30504362
-0.30505309
-0.30506347
-0.30507493
-0.30508754
-0.30510142
-0.30511666
-0.30513335
-0.30515162
-0.30517157
-0.30519329
-0.30521688
-0.30524241
-0.30526993
-0.30529946
-0.30533101
-0.30536452
-0.30539991
-0.30543705
-0.30547579
-0.30551597
-0.30555746
-0.30560028
-0.30564469
-0.30569147
-0.30574228
-0.30580023
-0.30587069
-0.30596238
-0.30608827
-0.30626569
-0.30651391
-0.30684816
-0.3072712
-0.3077668
-0.30829968
-0.30882238
-0.30928478
-0.3096422
-0.30985954
-0.30990951
-0.30977226
-0.30943882
-0.30888899
-0.30807931
-0.30694824
-0.30539923
-0.30328509
-0.30037171
-0.29635964
-0.2907434
-0.28284142
-0.27279862
-0.26165093
-0.24962315
-0.24183346
-0.24348807
-0.27682361
-0.3406219
-0.41249236
-0.34835943
-0.19096435
-0.048045409
-0.3044502
-0.30445734
-0.3044658
-0.30447483
-0.30448471
-0.30449563
-0.30450764
-0.30452086
-0.30453537
-0.30455129
-0.30456872
-0.30458777
-0.30460853
-0.3046311
-0.30465554
-0.30468191
-0.30471024
-0.30474052
-0.30477272
-0.30480674
-0.30484246
-0.30487972
-0.30491833
-0.30495815
-0.30499913
-0.30504144
-0.30508572
-0.3051334
-0.30518722
-0.30525208
-0.305336
-0.30545098
-0.30561324
-0.30584098
-0.30614881
-0.30653945
-0.30699715
-0.30748702
-0.30796129
-0.30836844
-0.30866112
-0.30880037
-0.30875382
-0.30849477
-0.30800518
-0.30725391
-0.30618342
-0.30471308
-0.30272156
-0.30003118
-0.29636589
-0.29139824
-0.28453741
-0.27511834
-0.26398111
-0.25166488
-0.23862739
-0.23120759
-0.23568251
-0.27608173
-0.34638269
-0.41535373
-0.34459138
-0.18943342
-0.042916177
-0.30395786
-0.30396457
-0.3039725
-0.30398096
-0.30399024
-0.30400047
-0.30401174
-0.30402414
-0.30403777
-0.30405272
-0.30406911
-0.30408703
-0.30410658
-0.30412784
-0.30415091
-0.30417582
-0.3042026
-0.30423127
-0.30426177
-0.30429402
-0.3043279
-0.30436323
-0.30439983
-0.30443751
-0.30447616
-0.30451587
-0.30455713
-0.30460111
-0.30465017
-0.30470856
-0.30478408
-0.3048871
-0.30503264
-0.30523775
-0.30551626
-0.30587098
-0.30628689
-0.30672997
-0.30715262
-0.30750236
-0.30772955
-0.30779158
-0.30765128
-0.30727555
-0.30663758
-0.30569576
-0.30437965
-0.30259092
-0.30018568
-0.29695865
-0.29259804
-0.28676381
-0.27873244
-0.26831432
-0.25606014
-0.24252543
-0.22877114
-0.22163762
-0.22901086
-0.27361261
-0.34626995
-0.40656442
-0.33085781
-0.17829443
-0.041427538
-0.30355255
-0.3035588
-0.30356639
-0.30357418
-0.30358272
-0.30359216
-0.30360256
-0.303614
-0.30362658
-0.30364041
-0.30365557
-0.30367216
-0.30369028
-0.30371002
-0.30373145
-0.30375463
-0.30377958
-0.30380631
-0.30383479
-0.30386492
-0.30389658
-0.3039296
-0.30396377
-0.30399889
-0.3040348
-0.30407151
-0.30410935
-0.30414929
-0.30419336
-0.3042454
-0.30431115
-0.30440104
-0.30452857
-0.30470934
-0.30495628
-0.30527224
-0.30564318
-0.30603638
-0.30640494
-0.30669588
-0.30685762
-0.30684435
-0.3066144
-0.30612885
-0.3053525
-0.3042338
-0.30269068
-0.30060842
-0.29782276
-0.29410327
-0.28911081
-0.28248452
-0.2733674
-0.26224922
-0.24904331
-0.23428952
-0.21993041
-0.21328764
-0.22391346
-0.27001026
-0.33929333
-0.38805097
-0.30587286
-0.16773992
-0.039841824
-0.30323583
-0.30324147
-0.30324833
-0.30325539
-0.30326312
-0.30327167
-0.30328109
-0.30329147
-0.30330288
-0.30331543
-0.30332921
-0.30334431
-0.30336083
-0.30337884
-0.30339842
-0.30341962
-0.30344248
-0.303467
-0.30349314
-0.30352082
-0.30354992
-0.30358026
-0.30361163
-0.30364378
-0.30367653
-0.30370978
-0.30374373
-0.30377909
-0.3038175
-0.30386211
-0.30391836
-0.30399492
-0.30410386
-0.3042593
-0.30447319
-0.30474841
-0.30507204
-0.30541303
-0.30572571
-0.3059572
-0.30605451
-0.30596898
-0.30565485
-0.30506806
-0.3041655
-0.30288633
-0.30113802
-0.29879087
-0.29566224
-0.29149862
-0.28594404
-0.27859033
-0.26862807
-0.25674138
-0.24263939
-0.2268379
-0.212681
-0.20684345
-0.21932234
-0.26508884
-0.32783823
-0.36213107
-0.2834513
-0.14972316
-0.039479054
-0.30300644
-0.30301144
-0.3030175
-0.30302376
-0.30303062
-0.30303821
-0.30304658
-0.3030558
-0.30306595
-0.30307713
-0.30308941
-0.30310289
-0.30311766
-0.30313379
-0.30315135
-0.30317039
-0.30319095
-0.30321304
-0.30323661
-0.30326159
-0.30328785
-0.30331522
-0.30334347
-0.30337234
-0.30340161
-0.30343109
-0.30346085
-0.30349136
-0.3035239
-0.30356106
-0.30360742
-0.30367041
-0.30376052
-0.30389025
-0.30407042
-0.30430383
-0.30457878
-0.30486618
-0.30512212
-0.30529436
-0.30532913
-0.30517537
-0.30478382
-0.30410601
-0.30309149
-0.30167086
-0.29974221
-0.29716205
-0.29373057
-0.28917284
-0.28312272
-0.2751059
-0.2646192
-0.25179926
-0.23708373
-0.22066542
-0.20639419
-0.20151315
-0.21335456
-0.25814265
-0.3099028
-0.33147642
-0.26003796
-0.13506505
-0.040122846
-0.30286169
-0.30286602
-0.30287124
-0.30287668
-0.30288263
-0.30288921
-0.30289647
-0.30290448
-0.30291332
-0.30292305
-0.30293377
-0.30294555
-0.30295847
-0.30297262
-0.30298804
-0.30300481
-0.30302293
-0.30304243
-0.30306326
-0.30308535
-0.30310858
-0.30313277
-0.30315768
-0.30318306
-0.30320861
-0.3032341
-0.30325946
-0.30328497
-0.30331154
-0.30334121
-0.30337773
-0.30342729
-0.30349881
-0.30360313
-0.30374976
-0.30394131
-0.30416729
-0.30440079
-0.3046001
-0.30471423
-0.30468927
-0.30447239
-0.30401145
-0.30325439
-0.30214409
-0.30060341
-0.29852187
-0.29574285
-0.29204918
-0.28714542
-0.28064334
-0.27203815
-0.26119194
-0.24769085
-0.23192322
-0.21499769
-0.19986139
-0.194715
-0.20697505
-0.25023554
-0.2887033
-0.29936696
-0.22909722
-0.12569979
-0.041380776
-0.3027971
-0.30280076
-0.30280513
-0.30280972
-0.30281475
-0.30282032
-0.30282647
-0.30283325
-0.30284075
-0.30284902
-0.30285814
-0.30286819
-0.30287924
-0.30289135
-0.3029046
-0.30291902
-0.30293464
-0.30295147
-0.30296948
-0.30298859
-0.30300867
-0.30302956
-0.30305102
-0.30307276
-0.30309447
-0.30311586
-0.30313674
-0.30315719
-0.30317781
-0.30320012
-0.30322707
-0.30326367
-0.30331731
-0.3033971
-0.30351121
-0.30366189
-0.30383974
-0.30402015
-0.30416398
-0.30422211
-0.30414116
-0.30386724
-0.30334615
-0.30252298
-0.30133475
-0.29969749
-0.29749254
-0.2945502
-0.29063484
-0.2854247
-0.27848559
-0.26938862
-0.257834
-0.24381317
-0.22676828
-0.20834681
-0.19301705
-0.18746462
-0.20126597
-0.23859045
-0.26485966
-0.26395961
-0.20536096
-0.1173882
-0.043793445
-0.30280669
-0.30280968
-0.30281323
-0.30281699
-0.30282113
-0.3028257
-0.30283075
-0.30283633
-0.30284251
-0.30284934
-0.3028569
-0.30286524
-0.30287444
-0.30288455
-0.30289563
-0.30290773
-0.30292086
-0.30293503
-0.30295021
-0.30296633
-0.30298326
-0.30300082
-0.30301879
-0.30303687
-0.30305472
-0.30307199
-0.30308839
-0.30310385
-0.30311866
-0.30313387
-0.3031517
-0.30317605
-0.30321286
-0.30326957
-0.3033529
-0.30346463
-0.3035963
-0.30372557
-0.30381616
-0.30382133
-0.30368898
-0.30336496
-0.30279394
-0.30191881
-0.30067175
-0.2989628
-0.29666488
-0.29359469
-0.28949433
-0.28399809
-0.27664024
-0.26700097
-0.25462483
-0.23989984
-0.22167792
-0.20224349
-0.1875195
-0.18441406
-0.19723605
-0.22738315
-0.24290599
-0.22891497
-0.18343649
-0.11027145
-0.046048174
-0.30288304
-0.30288541
-0.30288822
-0.3028912
-0.30289448
-0.30289811
-0.30290213
-0.30290658
-0.30291151
-0.30291698
-0.30292305
-0.30292977
-0.3029372
-0.3029454
-0.30295441
-0.30296428
-0.30297502
-0.30298662
-0.30299907
-0.30301228
-0.30302615
-0.30304048
-0.30305505
-0.30306955
-0.30308362
-0.30309686
-0.30310892
-0.30311955
-0.3031288
-0.30313728
-0.30314656
-0.30315956
-0.30318086
-0.30321631
-0.30327121
-0.30334672
-0.30343513
-0.30351626
-0.30355683
-0.30351293
-0.30333445
-0.30296781
-0.30235774
-0.30144518
-0.30015892
-0.29840347
-0.29604264
-0.29287852
-0.28861815
-0.28285379
-0.27509883
-0.2649299
-0.25191006
-0.23631587
-0.21759312
-0.19911303
-0.18566833
-0.18298669
-0.19314786
-0.21159354
-0.22130455
-0.20579322
-0.16507494
-0.10565877
-0.048285043
-0.30301795
-0.30301976
-0.3030219
-0.30302418
-0.30302669
-0.30302946
-0.30303255
-0.30303597
-0.30303977
-0.30304401
-0.30304872
-0.30305397
-0.30305979
-0.30306624
-0.30307335
-0.30308116
-0.30308969
-0.30309893
-0.30310883
-0.30311934
-0.30313033
-0.30314163
-0.30315299
-0.3031641
-0.30317458
-0.303184
-0.30319192
-0.30319796
-0.30320195
-0.30320413
-0.30320549
-0.30320808
-0.30321526
-0.30323148
-0.30326061
-0.30330315
-0.303352
-0.30338884
-0.30338347
-0.30329508
-0.30307614
-0.30267453
-0.30203616
-0.30110024
-0.29979373
-0.29801532
-0.29561849
-0.29238663
-0.28797557
-0.28196413
-0.27384263
-0.26311568
-0.24965342
-0.23382426
-0.2158632
-0.19778396
-0.18600963
-0.18208256
-0.19081624
-0.20045258
-0.1983327
-0.18655969
-0.14963815
-0.10139222
-0.050376732
-0.30320261
-0.30320395
-0.30320552
-0.3032072
-0.30320905
-0.30321111
-0.30321339
-0.30321593
-0.30321877
-0.30322195
-0.3032255
-0.30322947
-0.30323391
-0.30323884
-0.3032443
-0.30325032
-0.30325691
-0.30326406
-0.30327172
-0.30327983
-0.30328826
-0.30329683
-0.30330529
-0.30331332
-0.30332051
-0.30332641
-0.30333048
-0.30333224
-0.30333132
-0.30332765
-0.30332169
-0.30331477
-0.30330918
-0.30330816
-0.30331419
-0.30332726
-0.30334067
-0.30333763
-0.30329088
-0.30316281
-0.30290893
-0.30247944
-0.30182203
-0.30087516
-0.29956453
-0.29778149
-0.29537045
-0.29207555
-0.28752147
-0.28127939
-0.272782
-0.26169917
-0.24820805
-0.23235767
-0.21456052
-0.19759598
-0.18608717
-0.18302319
-0.18507827
-0.18830937
-0.1857028
-0.17124749
-0.13798386
-0.098159082
-0.052242758
-0.30342804
-0.303429
-0.30343014
-0.30343135
-0.30343269
-0.30343418
-0.30343584
-0.3034377
-0.30343978
-0.30344213
-0.30344477
-0.30344774
-0.30345106
-0.30345479
-0.30345893
-0.30346351
-0.30346852
-0.30347397
-0.30347978
-0.3034859
-0.30349218
-0.30349844
-0.30350442
-0.30350978
-0.30351408
-0.30351681
-0.30351739
-0.3035152
-0.30350969
-0.30350051
-0.30348772
-0.30347199
-0.30345475
-0.30343853
-0.30342398
-0.30341053
-0.30339255
-0.30335396
-0.30327042
-0.30310717
-0.30282304
-0.30237108
-0.30170097
-0.30075175
-0.29944734
-0.29767158
-0.2952527
-0.2918812
-0.28718093
-0.28069991
-0.27194184
-0.26077268
-0.24674823
-0.23086028
-0.21316183
-0.19772323
-0.18656051
-0.18201556
-0.18044674
-0.17890025
-0.17224974
-0.15813048
-0.12812849
-0.095227024
-0.053885941
-0.3036862
-0.30368691
-0.30368776
-0.30368867
-0.30368967
-0.30369079
-0.30369204
-0.30369344
-0.30369503
-0.30369682
-0.30369885
-0.30370114
-0.30370371
-0.3037066
-0.30370982
-0.30371339
-0.30371729
-0.3037215
-0.30372596
-0.30373059
-0.30373525
-0.30373972
-0.30374373
-0.30374692
-0.30374881
-0.30374882
-0.3037463
-0.3037405
-0.30373071
-0.30371631
-0.30369697
-0.30367288
-0.30364445
-0.30361444
-0.30357898
-0.30354274
-0.30349741
-0.30342708
-0.30331055
-0.30311528
-0.30280344
-0.30233076
-0.30164956
-0.3006996
-0.29940179
-0.29762914
-0.29517851
-0.29173609
-0.28688594
-0.28022617
-0.27119438
-0.25940242
-0.24513754
-0.22910519
-0.21267185
-0.19780892
-0.18638022
-0.17998757
-0.17456882
-0.17096749
-0.16247254
-0.14799413
-0.12040506
-0.092761268
-0.055257764
-0.30396918
-0.3039698
-0.30397053
-0.30397132
-0.30397219
-0.30397317
-0.30397426
-0.30397549
-0.30397688
-0.30397844
-0.30398021
-0.3039822
-0.30398444
-0.30398694
-0.30398972
-0.30399277
-0.30399609
-0.30399963
-0.30400333
-0.30400707
-0.30401071
-0.304014
-0.30401663
-0.3040182
-0.30401817
-0.30401589
-0.30401059
-0.30400138
-0.30398734
-0.3039676
-0.30394148
-0.30390866
-0.3038674
-0.30382994
-0.30378005
-0.30371307
-0.30364417
-0.30354358
-0.30339601
-0.30316927
-0.30282859
-0.30233165
-0.30163393
-0.30067489
-0.29937438
-0.29759201
-0.29510179
-0.29157359
-0.28663211
-0.279643
-0.26997429
-0.25752257
-0.24271743
-0.2268214
-0.21128806
-0.19640406
-0.18549021
-0.17625936
-0.16990181
-0.16376874
-0.15324092
-0.13903649
-0.11376809
-0.090465014
-0.056377489
-0.30427276
-0.30427346
-0.30427428
-0.30427517
-0.30427615
-0.30427724
-0.30427846
-0.30427983
-0.30428136
-0.30428307
-0.30428498
-0.30428712
-0.3042895
-0.30429212
-0.304295
-0.30429812
-0.30430146
-0.30430496
-0.30430855
-0.30431208
-0.30431537
-0.30431814
-0.30432005
-0.30432061
-0.30431921
-0.30431511
-0.30430739
-0.30429504
-0.30427692
-0.30425193
-0.30421912
-0.30417728
-0.30412903
-0.30406838
-0.30399367
-0.3039119
-0.3038211
-0.30368942
-0.3035093
-0.3032473
-0.30287101
-0.30233898
-0.30161084
-0.30062765
-0.29930791
-0.2974931
-0.29495218
-0.291367
-0.28609053
-0.27842861
-0.26788875
-0.25459223
-0.23952041
-0.22439989
-0.20862767
-0.19420781
-0.18232711
-0.17320513
-0.16493041
-0.15721367
-0.14569361
-0.13178829
-0.10834786
-0.088380223
-0.05723415
-0.30459314
-0.3045941
-0.30459525
-0.30459647
-0.30459782
-0.30459932
-0.30460098
-0.30460283
-0.30460487
-0.30460714
-0.30460964
-0.3046124
-0.30461542
-0.30461872
-0.30462228
-0.30462608
-0.30463009
-0.30463423
-0.30463839
-0.3046424
-0.30464602
-0.30464894
-0.30465072
-0.30465079
-0.30464843
-0.30464274
-0.30463267
-0.30461694
-0.3045942
-0.304563
-0.30452198
-0.30446966
-0.30440866
-0.30432783
-0.30423898
-0.3041405
-0.30401059
-0.30384884
-0.3036297
-0.30332357
-0.30289919
-0.30231715
-0.30154255
-0.3005229
-0.29916769
-0.29732148
-0.29471721
-0.29078978
-0.28482133
-0.27618493
-0.26448169
-0.25061545
-0.23620904
-0.22058815
-0.20529967
-0.19154552
-0.17984146
-0.16955608
-0.16015769
-0.15124173
-0.13885644
-0.12535192
-0.10359992
-0.086371556
-0.057838511
-0.3049342
-0.30493564
-0.30493734
-0.30493915
-0.30494115
-0.30494336
-0.3049458
-0.3049485
-0.30495146
-0.30495471
-0.30495826
-0.30496214
-0.30496635
-0.30497088
-0.30497572
-0.30498084
-0.30498616
-0.30499159
-0.30499698
-0.30500211
-0.30500669
-0.30501032
-0.30501246
-0.30501243
-0.30500936
-0.30500218
-0.3049896
-0.30497014
-0.30494213
-0.30490382
-0.30485349
-0.30478955
-0.30471092
-0.30461531
-0.30450165
-0.30437157
-0.30421013
-0.30400736
-0.30373935
-0.30337567
-0.30288998
-0.30224648
-0.30142396
-0.30036826
-0.29899375
-0.29706241
-0.2941163
-0.28947275
-0.28247318
-0.27242076
-0.25994047
-0.24655241
-0.23156678
-0.21621162
-0.20193061
-0.18846218
-0.17632014
-0.16569954
-0.15542211
-0.14566975
-0.13286641
-0.11983278
-0.099517273
-0.084440359
-0.058193499
-0.305302
-0.30530411
-0.30530661
-0.30530928
-0.3053122
-0.30531543
-0.30531898
-0.30532287
-0.30532713
-0.30533178
-0.30533684
-0.30534231
-0.30534821
-0.3053545
-0.30536117
-0.30536816
-0.30537536
-0.30538265
-0.30538981
-0.30539657
-0.30540255
-0.30540724
-0.30540998
-0.30540993
-0.30540603
-0.30539699
-0.30538127
-0.30535708
-0.30532244
-0.30527525
-0.30521338
-0.30513501
-0.30503818
-0.30491851
-0.3047777
-0.30461234
-0.30441012
-0.30415591
-0.30382745
-0.30339514
-0.30284935
-0.3021532
-0.30130347
-0.30022532
-0.29874617
-0.29646084
-0.29281904
-0.28708438
-0.278543
-0.26748634
-0.25532226
-0.24126657
-0.22626108
-0.21205255
-0.19806204
-0.18485227
-0.17272508
-0.1616758
-0.15076389
-0.14046649
-0.12741661
-0.11485613
-0.09583702
-0.082521107
-0.058309217
-0.30571637
-0.30571932
-0.30572282
-0.30572654
-0.30573062
-0.30573511
-0.30574004
-0.30574542
-0.30575129
-0.30575767
-0.30576457
-0.305772
-0.30577995
-0.30578839
-0.30579727
-0.3058065
-0.30581594
-0.30582541
-0.30583463
-0.30584323
-0.30585073
-0.30585649
-0.30585968
-0.30585928
-0.30585401
-0.30584233
-0.30582242
-0.30579221
-0.30574939
-0.30569139
-0.30561602
-0.30552616
-0.30539654
-0.30523919
-0.30507321
-0.30486612
-0.30461402
-0.30430074
-0.30390743
-0.30341262
-0.30281776
-0.30209899
-0.3012171
-0.30001468
-0.29817871
-0.29520259
-0.29046372
-0.28317261
-0.27334629
-0.26252108
-0.24954915
-0.23513915
-0.22132147
-0.20744896
-0.19386303
-0.18093263
-0.1687021
-0.15744873
-0.14614141
-0.13550926
-0.12242024
-0.11036
-0.092495542
-0.080598693
-0.058189175
-0.30620156
-0.30620546
-0.30621008
-0.306215
-0.30622037
-0.30622627
-0.30623272
-0.30623976
-0.30624741
-0.30625568
-0.3062646
-0.30627415
-0.30628432
-0.30629505
-0.30630625
-0.3063178
-0.3063295
-0.30634109
-0.30635221
-0.30636238
-0.30637096
-0.30637715
-0.30637992
-0.30637803
-0.30636991
-0.30635372
-0.30632732
-0.30628826
-0.30623371
-0.30616039
-0.30607369
-0.30594379
-0.30578384
-0.30561851
-0.3054071
-0.30515058
-0.30484153
-0.30446751
-0.30401091
-0.30348356
-0.3028506
-0.30208271
-0.30105864
-0.29951289
-0.29699048
-0.2929076
-0.28676088
-0.27785144
-0.2681915
-0.25644673
-0.24273068
-0.22956974
-0.21605237
-0.20262148
-0.18938318
-0.1766705
-0.1644782
-0.15310296
-0.14155273
-0.13076348
-0.11775939
-0.10618755
-0.089368845
-0.078644119
-0.05784382
-0.30680102
-0.30680587
-0.3068116
-0.30681768
-0.30682431
-0.30683159
-0.30683952
-0.30684815
-0.30685749
-0.30686756
-0.30687836
-0.30688987
-0.30690204
-0.30691479
-0.30692799
-0.30694145
-0.3069549
-0.30696799
-0.30698025
-0.30699103
-0.30699956
-0.30700482
-0.30700554
-0.30700021
-0.30698697
-0.30696365
-0.30692773
-0.30687652
-0.30680685
-0.30671165
-0.30658667
-0.30644549
-0.30627557
-0.30606177
-0.30580204
-0.30549475
-0.30512232
-0.30469593
-0.3041889
-0.30361359
-0.30291535
-0.30199376
-0.30062207
-0.29839268
-0.29474655
-0.28930407
-0.2813495
-0.27254772
-0.26199134
-0.24913794
-0.23668336
-0.22376454
-0.21065533
-0.19757265
-0.18462756
-0.17214467
-0.16000902
-0.14861204
-0.13696701
-0.12614876
-0.11333486
-0.10225307
-0.086387694
-0.076635754
-0.057275696
-0.30756665
-0.30757226
-0.30757888
-0.3075859
-0.30759353
-0.30760188
-0.30761096
-0.3076208
-0.30763142
-0.30764281
-0.30765495
-0.30766781
-0.3076813
-0.30769528
-0.30770958
-0.30772393
-0.30773798
-0.30775124
-0.3077631
-0.30777277
-0.30777924
-0.30778128
-0.30777735
-0.30776562
-0.3077439
-0.30770965
-0.30766016
-0.30759231
-0.30749474
-0.3073848
-0.30726341
-0.30708533
-0.30684959
-0.30658914
-0.30627678
-0.30591351
-0.30550385
-0.30500411
-0.30443767
-0.30377447
-0.30291061
-0.30163887
-0.29958362
-0.29627313
-0.29125585
-0.28412989
-0.2759557
-0.26653042
-0.2544424
-0.24272298
-0.2305357
-0.21788699
-0.20507906
-0.19230129
-0.17963492
-0.16737028
-0.15535026
-0.14400598
-0.13237101
-0.12162986
-0.10908094
-0.09847784
-0.083487578
-0.074559278
-0.056494215
-0.30856357
-0.3085696
-0.30857669
-0.30858419
-0.30859232
-0.30860119
-0.3086108
-0.30862116
-0.30863228
-0.30864413
-0.30865667
-0.30866981
-0.30868343
-0.30869733
-0.30871126
-0.30872486
-0.30873764
-0.30874901
-0.30875816
-0.3087641
-0.30876558
-0.30876109
-0.3087488
-0.30872652
-0.30869159
-0.30864063
-0.30857201
-0.30848708
-0.30839497
-0.30824701
-0.30803957
-0.30781819
-0.30755858
-0.30724641
-0.30688834
-0.3064523
-0.30596309
-0.30539799
-0.3047323
-0.30388916
-0.30266339
-0.3007225
-0.29764142
-0.29304363
-0.28649768
-0.27883072
-0.27031323
-0.25920274
-0.24773039
-0.23645342
-0.22425375
-0.21186293
-0.19932778
-0.18682745
-0.17441606
-0.16237486
-0.15050381
-0.13927455
-0.12773931
-0.11715344
-0.10492555
-0.094795202
-0.080615784
-0.072397016
-0.055500795
-0.30986275
-0.30986876
-0.30987581
-0.30988324
-0.30989125
-0.30989995
-0.30990931
-0.30991933
-0.30992998
-0.30994121
-0.30995293
-0.30996501
-0.30997724
-0.30998935
-0.310001
-0.31001168
-0.31002078
-0.3100275
-0.31003083
-0.31002952
-0.31002203
-0.31000652
-0.30998077
-0.30994197
-0.30988645
-0.30981516
-0.3097389
-0.30963474
-0.30945921
-0.30925254
-0.30903209
-0.30875471
-0.30843104
-0.3080482
-0.30761401
-0.30711513
-0.306528
-0.30585312
-0.30500065
-0.30378515
-0.30191219
-0.29899581
-0.2947044
-0.28868507
-0.28143611
-0.27353849
-0.26330892
-0.25223878
-0.24141409
-0.2298376
-0.2178737
-0.20570621
-0.19340048
-0.18115042
-0.16898272
-0.15716833
-0.14548198
-0.13442007
-0.12305356
-0.1126867
-0.10082191
-0.091156218
-0.077732358
-0.07013737
-0.054301255
-0.31154457
-0.31155009
-0.31155653
-0.31156327
-0.31157048
-0.31157823
-0.31158647
-0.31159518
-0.31160427
-0.31161365
-0.31162316
-0.31163259
-0.31164167
-0.31164999
-0.31165707
-0.31166227
-0.31166474
-0.31166348
-0.31165718
-0.3116443
-0.31162293
-0.31159053
-0.311544
-0.31148478
-0.31141662
-0.31132179
-0.31117457
-0.31099532
-0.31079165
-0.31054473
-0.31025051
-0.30990292
-0.30949648
-0.30903315
-0.30850793
-0.30791052
-0.30721096
-0.30632872
-0.30510632
-0.303252
-0.30044943
-0.29638203
-0.29074732
-0.28384529
-0.27642495
-0.26684808
-0.25628222
-0.24587099
-0.23471741
-0.22323845
-0.21140526
-0.19939483
-0.18729282
-0.17527213
-0.16333908
-0.15175889
-0.14028528
-0.1294334
-0.11829164
-0.10819228
-0.096721241
-0.087514986
-0.074801315
-0.067768346
-0.052897216
-0.31371291
-0.31371749
-0.31372277
-0.31372823
-0.31373396
-0.31373999
-0.31374625
-0.31375264
-0.31375904
-0.31376526
-0.31377108
-0.31377617
-0.31378013
-0.31378241
-0.31378233
-0.31377904
-0.31377144
-0.3137582
-0.31373769
-0.3137079
-0.3136662
-0.31360994
-0.31354094
-0.31345085
-0.31332512
-0.3131661
-0.31297642
-0.31275043
-0.31247811
-0.31215446
-0.31177504
-0.31133892
-0.31084442
-0.31028497
-0.3096513
-0.30891334
-0.30799497
-0.30673776
-0.3049006
-0.30213885
-0.29827842
-0.29294063
-0.28631927
-0.27926011
-0.2702417
-0.26000152
-0.2499289
-0.23917665
-0.22802213
-0.21654138
-0.20478699
-0.19291609
-0.18099295
-0.16918574
-0.15748356
-0.14614571
-0.13491083
-0.1243057
-0.1134339
-0.10364173
-0.092588254
-0.083837567
-0.071795732
-0.065280351
-0.051291413
-0.31650066
-0.31650385
-0.31650746
-0.31651104
-0.31651462
-0.31651816
-0.31652152
-0.31652455
-0.31652702
-0.31652867
-0.31652912
-0.31652792
-0.31652446
-0.31651801
-0.31650764
-0.31649217
-0.31647017
-0.31643991
-0.31639927
-0.31634571
-0.31627627
-0.31618767
-0.31607599
-0.31593292
-0.31575659
-0.31554629
-0.31529263
-0.31498977
-0.31463243
-0.31421785
-0.3137447
-0.31320891
-0.31260595
-0.31192573
-0.31113658
-0.31016273
-0.30885671
-0.30698706
-0.30427614
-0.30047363
-0.29553046
-0.28903861
-0.28222626
-0.27360867
-0.26367986
-0.25376737
-0.24334931
-0.23246877
-0.22122284
-0.20971456
-0.19801317
-0.18625005
-0.17448646
-0.16288214
-0.15141009
-0.14032472
-0.12935171
-0.11902468
-0.10846003
-0.099006844
-0.088389129
-0.080092404
-0.06869122
-0.06266478
-0.049485225
-0.32010866
-0.32010973
-0.32011074
-0.32011145
-0.32011176
-0.32011152
-0.32011054
-0.32010855
-0.32010522
-0.32010014
-0.32009277
-0.32008245
-0.32006837
-0.32004951
-0.32002461
-0.31999214
-0.31995024
-0.31989668
-0.31982879
-0.31974343
-0.31963696
-0.31950521
-0.31934349
-0.31914659
-0.31890928
-0.31862555
-0.3182897
-0.31789761
-0.3174463
-0.31693162
-0.31635005
-0.3156973
-0.31496006
-0.314104
-0.31305293
-0.3116655
-0.30972637
-0.30697543
-0.30318249
-0.29823192
-0.29197684
-0.28515581
-0.2769872
-0.26730869
-0.25755446
-0.24738303
-0.2367164
-0.22564736
-0.21428083
-0.20272118
-0.19104237
-0.1793689
-0.16775248
-0.15634565
-0.14510713
-0.13428619
-0.12359717
-0.11357643
-0.1033507
-0.094263592
-0.084097048
-0.076254699
-0.065469228
-0.0599138
-0.047482099
-0.32481242
-0.32481007
-0.32480697
-0.32480315
-0.32479834
-0.32479227
-0.32478463
-0.32477504
-0.324763
-0.32474793
-0.3247291
-0.32470559
-0.32467631
-0.32463993
-0.3245948
-0.32453898
-0.32447012
-0.32438545
-0.3242817
-0.32415512
-0.32400139
-0.32381569
-0.32359269
-0.32332657
-0.32301175
-0.32264321
-0.32221618
-0.3217257
-0.32116764
-0.32053828
-0.31983046
-0.31902767
-0.31809196
-0.31694583
-0.31545342
-0.31341422
-0.31058849
-0.30676455
-0.30181672
-0.29566069
-0.28866331
-0.28084095
-0.27123318
-0.26162116
-0.25159003
-0.2409924
-0.22999106
-0.2186814
-0.20715619
-0.19551735
-0.18384079
-0.17224285
-0.16076655
-0.14955714
-0.13855941
-0.12801723
-0.11763409
-0.10794572
-0.098086912
-0.089389406
-0.079687656
-0.072301995
-0.062113259
-0.057021161
-0.045284001
-0.33090856
-0.33090104
-0.33089171
-0.33088111
-0.33086868
-0.33085399
-0.3308366
-0.33081595
-0.33079139
-0.33076209
-0.33072709
-0.33068519
-0.33063498
-0.33057473
-0.33050241
-0.33041561
-0.33031146
-0.33018664
-0.33003732
-0.32985911
-0.32964708
-0.32939598
-0.32910036
-0.32875469
-0.32835317
-0.3278901
-0.32736043
-0.32675932
-0.32608057
-0.32531374
-0.32443763
-0.3234093
-0.32214849
-0.32052254
-0.31834375
-0.31539011
-0.31146721
-0.30645625
-0.30028229
-0.29320441
-0.28540877
-0.27609818
-0.26626889
-0.2562726
-0.2455273
-0.23444984
-0.22308071
-0.21149461
-0.1997843
-0.18804881
-0.17636199
-0.16483412
-0.1534983
-0.14249228
-0.13174733
-0.12150125
-0.11144678
-0.10211613
-0.09265035
-0.084364027
-0.075140549
-0.068215131
-0.058610386
-0.053979257
-0.042893015
-0.3387586
-0.33874376
-0.33872567
-0.33870556
-0.33868251
-0.33865587
-0.33862504
-0.33858929
-0.33854772
-0.33849927
-0.33844268
-0.33837644
-0.33829872
-0.33820744
-0.33810016
-0.33797397
-0.33782551
-0.33765097
-0.33744606
-0.337206
-0.33692563
-0.33659929
-0.33622104
-0.3357849
-0.33528496
-0.33471513
-0.33406859
-0.33333615
-0.33250281
-0.33154147
-0.33040282
-0.32900236
-0.32720863
-0.32484295
-0.321699
-0.31759255
-0.3124183
-0.30609411
-0.29881499
-0.29088029
-0.28154239
-0.27159405
-0.26133359
-0.25045509
-0.23920201
-0.22765667
-0.21589298
-0.20400988
-0.19209774
-0.18025638
-0.1685561
-0.15710075
-0.14591309
-0.13512295
-0.12464795
-0.11471897
-0.10501783
-0.096070625
-0.087023391
-0.079168791
-0.070437805
-0.063976523
-0.05494947
-0.050775757
-0.040323023
-0.34867211
-0.3486475
-0.34861773
-0.34858501
-0.34854797
-0.34850568
-0.34845736
-0.34840206
-0.34833866
-0.34826582
-0.34818204
-0.34808556
-0.34797411
-0.34784513
-0.34769582
-0.34752285
-0.34732243
-0.34709033
-0.34682192
-0.34651202
-0.34615502
-0.34574496
-0.3452755
-0.34473987
-0.34413046
-0.34343795
-0.34264923
-0.34174375
-0.34068731
-0.33942295
-0.33786006
-0.33586605
-0.3332667
-0.32986804
-0.32549259
-0.32004244
-0.31345119
-0.30583016
-0.2975923
-0.28807397
-0.27781484
-0.26721383
-0.2560287
-0.24447462
-0.2326058
-0.22052871
-0.20834191
-0.19614255
-0.1840209
-0.17207434
-0.16036713
-0.14899608
-0.13797272
-0.12741813
-0.11723605
-0.10764936
-0.09832883
-0.089792018
-0.081189414
-0.073787065
-0.065564874
-0.05957333
-0.051125044
-0.047423914
-0.037548544
-0.36096912
-0.36093227
-0.36088795
-0.36083956
-0.36078516
-0.36072356
-0.36065384
-0.36057447
-0.36048371
-0.36038455
-0.36028388
-0.36016271
-0.3599982
-0.3598107
-0.35961229
-0.35938823
-0.35913066
-0.35883517
-0.35849718
-0.35811127
-0.35767109
-0.35716961
-0.35659874
-0.35594869
-0.35520657
-0.35435411
-0.35336362
-0.35219205
-0.35077295
-0.34900774
-0.34675987
-0.34385918
-0.34011714
-0.33537345
-0.32951926
-0.32252786
-0.31445052
-0.30575645
-0.29587185
-0.28511536
-0.27401332
-0.26238834
-0.25037216
-0.23805461
-0.22553361
-0.21291549
-0.20029849
-0.18778442
-0.17546184
-0.16342458
-0.15172984
-0.14046625
-0.12963341