/*--------------------------------*- C++ -*----------------------------------*\
  =========                 |
  \\      /  F ield         | OpenFOAM: The Open Source CFD Toolbox
   \\    /   O peration     | Website:  https://openfoam.org
    \\  /    A nd           | Version:  13
     \\/     M anipulation  |
\*---------------------------------------------------------------------------*/
FoamFile
{
    format      ascii;
    class       volVectorField;
    location    "43.29824";
    object      U;
}
// * * * * * * * * * * * * * * * * * * * * * * * * * * * * * * * * * * * * * //

dimensions      [0 1 -1 0 0 0 0];

internalField   nonuniform List<vector> 
17140
(
(-2.1440663e-06 0.00015106366 2.9401176e-23)
(-8.0078444e-06 0.00046585221 3.2558472e-24)
(-1.6536948e-05 0.00081336303 -2.1488411e-22)
(-2.8537902e-05 0.0011994539 2.3613525e-22)
(-4.4955201e-05 0.0016306296 -2.7591188e-23)
(-6.6992652e-05 0.0021140324 9.0254116e-23)
(-9.6146632e-05 0.0026574227 1.5183882e-22)
(-0.00013424851 0.0032691287 -7.4041229e-23)
(-0.00018353893 0.0039579625 -2.4210995e-22)
(-0.00024674775 0.0047330906 -5.9303641e-22)
(-0.00032718973 0.0056038496 8.7781224e-22)
(-0.00042887373 0.0065794949 -7.8061726e-22)
(-0.00055662816 0.0076688684 -1.191927e-22)
(-0.00071624168 0.0088799711 6.7173637e-22)
(-0.00091461919 0.010219428 -7.4278815e-23)
(-0.0011599506 0.011691832 5.8572408e-22)
(-0.0014618885 0.013298956 -2.1609571e-23)
(-0.0018317274 0.01503884 4.8899579e-24)
(-0.0022825749 0.016904755 3.3911102e-22)
(-0.0028294965 0.018884073 -4.3497892e-22)
(-0.003489616 0.0209571 2.0705604e-22)
(-0.0042821378 0.023095959 -3.8908379e-23)
(-0.0052282555 0.025263645 -2.8141889e-22)
(-0.0063508949 0.027413444 2.7588122e-22)
(-0.0076742336 0.029488952 4.2927969e-22)
(-0.0092229246 0.031425002 -3.3700547e-22)
(-0.01102095 0.033149891 -1.6192751e-21)
(-0.013090035 0.034589358 -1.8649203e-22)
(-0.0154476 0.035672879 1.5955157e-21)
(-0.018104319 0.036342826 3.6466796e-22)
(-0.021061605 0.036566626 1.2678054e-21)
(-0.024309698 0.036350392 -1.6206016e-21)
(-0.027827437 0.035748629 4.0987735e-22)
(-0.031584779 0.034860487 1.8866025e-22)
(-0.035548113 0.03380657 1.7651569e-21)
(-0.039686459 0.032695958 -7.3574122e-22)
(-0.043975514 0.031604299 1.0609115e-21)
(-0.048398266 0.030572434 6.8719608e-22)
(-0.052943972 0.029616839 3.0240017e-22)
(-0.057607721 0.028739857 -8.8882876e-22)
(-0.06239231 0.0279343 -1.6453977e-21)
(-0.067311156 0.027182145 -1.4764747e-21)
(-0.072393494 0.02644833 -6.4222915e-22)
(-0.07769662 0.025669565 3.1420719e-21)
(-0.083304016 0.024737683 2.315371e-21)
(-0.089336727 0.023487503 -5.7317824e-22)
(-0.095966059 0.021673665 3.9624546e-21)
(-0.10341281 0.01893104 1.3632131e-21)
(-0.11194677 0.014729351 -1.4074573e-21)
(-0.12187304 0.0082878937 -3.498327e-21)
(-0.13348415 -0.001540023 2.1766846e-21)
(-0.14699272 -0.016466104 1.3872171e-21)
(-0.16229053 -0.038899515 -3.6254476e-21)
(-0.17875279 -0.072155289 -1.718154e-21)
(-0.19467759 -0.11953823 -1.2035821e-21)
(-0.20666645 -0.18272401 9.4946327e-22)
(-0.2092664 -0.2569217 -2.4386097e-21)
(-0.19682966 -0.32875997 -1.9336422e-21)
(-0.16836122 -0.37317299 -4.6519163e-22)
(-0.13558372 -0.35380252 1.1926546e-21)
(-0.083892787 -0.18427932 1.0578382e-21)
(0.086514802 0.15187376 3.3429321e-21)
(0.27904199 0.43835291 2.7429187e-22)
(0.38671746 0.53075942 -1.5785141e-21)
(0.402041 0.50631566 7.6314672e-22)
(-7.4790428e-06 0.00018061013 -8.4066755e-24)
(-2.4561464e-05 0.00055739706 1.1322339e-21)
(-4.5372986e-05 0.0009734188 -1.0072566e-21)
(-7.1013775e-05 0.0014351104 2.7446995e-22)
(-0.00010257898 0.0019496007 5.6675527e-22)
(-0.00014148617 0.0025246853 -1.0823285e-21)
(-0.00018945565 0.0031688056 1.1273527e-21)
(-0.00024855211 0.0038909919 -9.9123388e-23)
(-0.00032125417 0.0047007695 3.09116e-22)
(-0.00041053046 0.0056080171 5.2408651e-24)
(-0.00051992644 0.006622766 1.0287252e-21)
(-0.00065366288 0.0077549266 -1.6308275e-21)
(-0.00081674761 0.0090139296 -1.3429997e-22)
(-0.0010150995 0.010408265 1.3209604e-21)
(-0.001255684 0.011944904 -4.037729e-22)
(-0.0015466587 0.013628595 -2.5504194e-22)
(-0.0018975228 0.015461014 1.6061244e-21)
(-0.0023192667 0.017439779 -5.1850478e-21)
(-0.0028245092 0.019557332 3.2114823e-21)
(-0.003427611 0.021799716 -3.7994855e-21)
(-0.0041447417 0.024145299 5.5295743e-21)
(-0.0049938775 0.026563539 -1.3336444e-21)
(-0.0059946925 0.029013916 -5.3870844e-22)
(-0.0071683018 0.031445217 1.7279998e-21)
(-0.008536802 0.033795436 -6.0800435e-21)
(-0.010122548 0.03599259 -8.8879397e-22)
(-0.011947095 0.037956887 4.4946165e-21)
(-0.014029762 0.039604744 -4.9320338e-21)
(-0.016385777 0.040855328 6.6373651e-22)
(-0.019024129 0.04164036 6.3504414e-21)
(-0.021945406 0.041917624 -6.3952402e-22)
(-0.025140267 0.04168688 -4.79939e-21)
(-0.028589463 0.041002494 -1.2041556e-22)
(-0.032266244 0.03997173 3.3473306e-21)
(-0.03614102 0.03873053 -3.5787402e-21)
(-0.040186552 0.037406132 1.5410247e-21)
(-0.044381243 0.036090305 -1.7260135e-21)
(-0.048709677 0.034835815 -5.2656565e-21)
(-0.053161942 0.033667527 -1.1405361e-21)
(-0.057733636 0.032594406 -4.3372193e-21)
(-0.062428166 0.031615875 5.4363242e-21)
(-0.067259935 0.030721859 4.9699342e-21)
(-0.072260278 0.029887644 8.5028885e-22)
(-0.077489803 0.029062078 -6.8339076e-21)
(-0.083037585 0.028149634 3.2944942e-21)
(-0.089034431 0.027000191 1.1570761e-21)
(-0.095666704 0.025384637 -5.9136635e-22)
(-0.10317776 0.02295204 -1.9748824e-21)
(-0.11187233 0.019181059 9.7229367e-22)
(-0.12210634 0.013288508 -1.8655866e-21)
(-0.13425131 0.0041025597 -1.1134042e-20)
(-0.14862821 -0.010164044 -5.0134235e-22)
(-0.16529135 -0.032081899 2.367565e-21)
(-0.18373476 -0.0652587 -5.5573541e-21)
(-0.20225458 -0.11349533 4.6326192e-21)
(-0.21704429 -0.17906666 -1.3048529e-20)
(-0.22208755 -0.25765229 -3.7258108e-21)
(-0.21022802 -0.33494113 9.3114059e-21)
(-0.18226111 -0.38293056 -1.470082e-21)
(-0.15138724 -0.36627496 -1.7143218e-21)
(-0.1165777 -0.21622264 -3.6062098e-22)
(0.011808757 0.093815864 2.8265478e-21)
(0.20874418 0.38738837 -3.9058472e-21)
(0.32540453 0.50811889 -5.5670858e-22)
(0.36510958 0.49791927 -1.0446002e-21)
(-1.4565557e-05 0.0002099304 -4.6509972e-22)
(-4.6408228e-05 0.00064825909 3.4366439e-22)
(-8.3487269e-05 0.0011322923 9.1374409e-23)
(-0.00012708515 0.0016690272 -8.659873e-23)
(-0.00017852458 0.0022661877 4.1950516e-22)
(-0.00023945632 0.0029321929 3.1191271e-23)
(-0.00031184571 0.0036761324 3.9808046e-22)
(-0.00039801047 0.0045077041 4.2853487e-22)
(-0.00050068428 0.0054371109 -3.4979896e-21)
(-0.00062308482 0.006474908 3.1187428e-21)
(-0.00076899047 0.0076317865 -1.4897927e-21)
(-0.00094282572 0.0089182811 -2.1782339e-21)
(-0.0011497564 0.010344386 4.3071394e-21)
(-0.0013957939 0.011919063 5.3142483e-22)
(-0.0016879065 0.013649628 -2.0425214e-21)
(-0.0020341368 0.015540994 -1.3966864e-21)
(-0.0024437199 0.017594776 1.6086817e-21)
(-0.002927197 0.01980823 -5.7764749e-21)
(-0.0034965163 0.022173059 3.380302e-21)
(-0.0041651073 0.024674102 -1.6530168e-21)
(-0.0049479148 0.02728795 5.4989749e-21)
(-0.0058613666 0.029981592 1.4078292e-21)
(-0.0069232494 0.032711219 -2.8901561e-21)
(-0.0081524535 0.035421374 4.271369e-21)
(-0.009568542 0.038044704 1.6516848e-21)
(-0.011191089 0.040502658 -1.9438782e-21)
(-0.013038736 0.042707559 -1.0817208e-20)
(-0.015127912 0.044566636 -4.8003909e-21)
(-0.017471231 0.045988766 2.3458035e-21)
(-0.020075667 0.046894885 -2.4616313e-21)
(-0.022940817 0.047232779 1.5031059e-21)
(-0.026057833 0.046995264 8.3183183e-21)
(-0.029409749 0.046235819 -2.7137908e-21)
(-0.032973686 0.045069183 -7.8211416e-21)
(-0.036724643 0.043646353 2.4956122e-21)
(-0.040639494 0.042112812 3.3663611e-21)
(-0.044699463 0.040576752 -5.6039396e-21)
(-0.048890538 0.039103172 -1.6615917e-21)
(-0.053203144 0.03772556 2.8286314e-21)
(-0.057632604 0.036459806 1.0970711e-21)
(-0.062181845 0.035312408 -5.2683134e-21)
(-0.066864751 0.034281946 1.5007914e-21)
(-0.071712757 0.03335509 2.1562816e-21)
(-0.076786897 0.032494298 5.8338822e-21)
(-0.082178024 0.031618773 -1.128029e-20)
(-0.088021554 0.030596188 7.48397e-21)
(-0.094511829 0.02921721 1.9653031e-21)
(-0.10190512 0.027149945 7.8114104e-21)
(-0.11052839 0.023888997 9.5693002e-21)
(-0.12077209 0.018658544 4.7649796e-22)
(-0.13306698 0.010275497 -2.3662527e-21)
(-0.1478179 -0.0031064843 1.6303456e-20)
(-0.16521469 -0.024213916 7.0294653e-21)
(-0.18485928 -0.056985377 7.1788351e-21)
(-0.20500658 -0.10586378 2.5081441e-21)
(-0.22109655 -0.17391943 1.8138535e-20)
(-0.22661246 -0.25743507 -7.4162185e-21)
(-0.21205687 -0.34071112 1.9872059e-21)
(-0.18100614 -0.39247998 1.3813901e-20)
(-0.14865157 -0.37754928 4.8853524e-21)
(-0.12013341 -0.2415884 -5.1430825e-21)
(-0.029392822 0.040070233 -1.5535714e-20)
(0.15372411 0.33190302 3.2783124e-21)
(0.27748472 0.4783617 3.4299989e-21)
(0.34750321 0.47684367 1.3030499e-21)
(-2.3366886e-05 0.00023848815 1.5644858e-21)
(-7.354841e-05 0.00073679889 -2.4888728e-21)
(-0.0001308261 0.0012871391 8.9967369e-22)
(-0.00019668314 0.0018970334 -9.7761358e-23)
(-0.00027269454 0.0025747628 1.9321336e-21)
(-0.00036076552 0.0033293291 -1.9980077e-21)
(-0.00046312583 0.0041704274 3.0289998e-21)
(-0.00058236253 0.0051083782 -1.4238393e-21)
(-0.00072147643 0.006154017 -5.4085593e-21)
(-0.00088394045 0.0073185313 1.2987144e-21)
(-0.0010737643 0.0086132314 4.9394299e-21)
(-0.0012955644 0.010049241 -1.5049399e-21)
(-0.0015546404 0.011637092 -1.0021186e-22)
(-0.001857056 0.013386207 3.9172719e-21)
(-0.0022097233 0.01530425 -1.2209059e-20)
(-0.0026204882 0.017396334 7.4603146e-21)
(-0.0030982121 0.019664068 7.0637581e-23)
(-0.0036528467 0.022104446 -4.074931e-21)
(-0.0042954924 0.024708574 1.026428e-20)
(-0.0050384316 0.027460273 -4.7983742e-21)
(-0.0058951228 0.030334599 -7.0785757e-21)
(-0.0068801387 0.033296368 -2.833531e-21)
(-0.0080090235 0.036298826 1.3824004e-20)
(-0.0092980415 0.039282652 7.1251479e-21)
(-0.010763779 0.042175554 -4.5326945e-21)
(-0.012422556 0.04489281 2.6084476e-21)
(-0.014289603 0.047339221 -9.6267001e-21)
(-0.016377976 0.0494131 2.726782e-21)
(-0.018697226 0.05101316 -7.236773e-21)
(-0.021251946 0.052049442 4.0304113e-21)
(-0.024040526 0.052459303 -2.458713e-21)
(-0.027054613 0.05222777 8.8086923e-21)
(-0.030279789 0.05140622 -1.2342672e-21)
(-0.033697547 0.050115579 6.3366967e-21)
(-0.037288038 0.048521077 -5.8504297e-21)
(-0.041032648 0.046786375 -1.812089e-21)
(-0.044915506 0.045036491 2.1592204e-20)
(-0.048923754 0.043349126 5.4431425e-21)
(-0.053047593 0.041766773 -4.3801633e-21)
(-0.057281227 0.040312581 4.2183521e-21)
(-0.061625878 0.039000484 -1.09459e-21)
(-0.066093259 0.037838265 -6.6898063e-21)
(-0.070712646 0.036824838 3.0313263e-22)
(-0.075542149 0.03593757 2.3121121e-21)
(-0.080670023 0.0351124 -1.1616499e-21)
(-0.086230193 0.034237275 6.4907314e-22)
(-0.092416374 0.03312597 1.7897664e-21)
(-0.099485805 0.031470363 -2.7271603e-20)
(-0.10777143 0.028788172 3.1860198e-21)
(-0.11767588 0.024321423 -2.9629509e-21)
(-0.1296591 0.01689069 2.8562803e-20)
(-0.14416568 0.0046101012 -1.5832757e-20)
(-0.16145997 -0.015386414 -1.3599749e-20)
(-0.18118574 -0.047391095 -1.322534e-20)
(-0.20161251 -0.096720576 -1.2885039e-20)
(-0.21767222 -0.16723394 -1.9745013e-20)
(-0.22069527 -0.25632297 3.7669681e-20)
(-0.19976933 -0.34625644 -2.0849029e-20)
(-0.16226738 -0.40177933 -2.6367572e-20)
(-0.12659159 -0.38777925 1.4507166e-20)
(-0.099469476 -0.26140846 4.8624607e-21)
(-0.03501163 -0.0059203575 5.2141736e-21)
(0.12165266 0.27649473 -4.6558972e-21)
(0.24865792 0.44120882 -3.7541421e-21)
(0.36196687 0.44120464 5.0301255e-22)
(-3.3814795e-05 0.0002657156 -1.1066912e-21)
(-0.00010577333 0.00082125416 3.6737292e-21)
(-0.00018702597 0.001434881 -2.9943642e-21)
(-0.00027927256 0.0021146058 1.1312899e-21)
(-0.00038436141 0.0028692183 4.0858125e-22)
(-0.00050446985 0.0037082525 -3.5144045e-21)
(-0.00064210734 0.004641956 8.8958707e-22)
(-0.00080014258 0.0056812178 1.8879554e-21)
(-0.00098185143 0.0068374523 1.4469918e-22)
(-0.0011909642 0.0081224277 1.2284568e-21)
(-0.0014317167 0.0095480269 -1.7183896e-21)
(-0.0017089026 0.011125925 1.1925077e-21)
(-0.0020279289 0.012867166 4.3868374e-21)
(-0.0023948709 0.014781626 1.2731216e-22)
(-0.0028165264 0.016877336 -3.3354407e-21)
(-0.0033004653 0.019159652 -2.3543358e-21)
(-0.0038550725 0.02163027 2.0173886e-21)
(-0.0044895786 0.024286052 -1.9187207e-22)
(-0.0052140723 0.027117697 -3.8856523e-21)
(-0.0060394882 0.030108262 -4.6997494e-21)
(-0.0069775584 0.033231587 5.3162184e-21)
(-0.008040716 0.036450707 5.2921338e-21)
(-0.0092419333 0.039716383 -7.036263e-21)
(-0.010594473 0.042965945 8.5985126e-21)
(-0.012111526 0.046122715 1.4701654e-20)
(-0.013805699 0.049096366 -3.4132643e-20)
(-0.015688334 0.051784704 1.850461e-20)
(-0.017768622 0.054077559 -2.7007025e-20)
(-0.020052579 0.055863734 3.3202624e-20)
(-0.022542013 0.057042331 -3.6446331e-20)
(-0.025233813 0.057539775 3.699027e-20)
(-0.028120008 0.057332187 -6.0899544e-21)
(-0.031188857 0.05646712 -2.0513949e-20)
(-0.034426603 0.055069772 1.122316e-20)
(-0.037819059 0.05331824 -3.3874028e-21)
(-0.041352543 0.051394024 -9.3671681e-22)
(-0.045014201 0.049439417 -1.1222851e-20)
(-0.04879207 0.047545471 -3.5222189e-21)
(-0.052675529 0.045764192 -3.4944988e-21)
(-0.056656715 0.044126317 -3.3357639e-21)
(-0.060733784 0.042653516 1.6850993e-20)
(-0.064914475 0.041363165 -7.3845826e-21)
(-0.069223378 0.040267037 -1.1979774e-21)
(-0.073712016 0.039358397 1.384232e-20)
(-0.078460882 0.038591818 7.1257202e-21)
(-0.083595214 0.03787753 -3.5163839e-21)
(-0.089297952 0.037055282 -1.3285529e-20)
(-0.095812651 0.035845012 5.7850254e-21)
(-0.10345763 0.033794315 -1.7689718e-20)
(-0.11261762 0.030172974 -9.9023975e-21)
(-0.12373724 0.023819664 -1.3862274e-20)
(-0.13723168 0.012828427 -3.9011484e-20)
(-0.15333871 -0.0057870257 3.0923542e-20)
(-0.17161576 -0.03665857 -1.0788467e-20)
(-0.19003173 -0.085906731 1.8188779e-20)
(-0.2029095 -0.15899 1.6928729e-20)
(-0.19870917 -0.25430929 7.0594583e-21)
(-0.16834103 -0.35137791 5.0215988e-20)
(-0.12163621 -0.41010345 1.0849117e-20)
(-0.082485846 -0.39632796 -1.9358166e-20)
(-0.056149511 -0.27659755 -4.0736412e-21)
(-0.0073878571 -0.043375892 3.6927664e-21)
(0.12081085 0.22534612 3.3001238e-21)
(0.24980034 0.39683594 2.7712655e-21)
(0.41780948 0.3928474 -6.1342352e-22)
(-4.5773594e-05 0.00029101092 -3.3879262e-21)
(-0.00014266669 0.00089976545 -1.1956327e-21)
(-0.00025136265 0.0015722743 9.6779162e-22)
(-0.00037379063 0.0023169804 3.5729858e-21)
(-0.00051208868 0.0031431238 -1.9571082e-21)
(-0.00066871945 0.0040607104 2.8158417e-21)
(-0.00084648291 0.0050804777 -1.2178218e-21)
(-0.001048537 0.0062138199 -2.8990826e-22)
(-0.0012784364 0.007472668 1.6397768e-21)
(-0.0015401668 0.0088693125 3.531123e-21)
(-0.0018381815 0.010416157 1.7730114e-22)
(-0.0021774346 0.012125388 -5.7928129e-21)
(-0.0025634133 0.014008538 8.0030631e-21)
(-0.0030021647 0.016075933 -1.2899935e-20)
(-0.0035003178 0.018335997 3.3642169e-21)
(-0.0040650948 0.020794399 -7.1308135e-21)
(-0.0047043114 0.02345303 8.593847e-21)
(-0.0054263604 0.026308793 -5.5606584e-21)
(-0.0062401752 0.029352216 8.7428075e-22)
(-0.0071551676 0.032565906 3.5278217e-21)
(-0.0081811333 0.035922886 -8.5230226e-21)
(-0.009328117 0.039384894 1.1944962e-20)
(-0.010606229 0.042900775 -1.2884827e-20)
(-0.012025394 0.046405163 -2.1995352e-21)
(-0.013595028 0.049817699 2.1351272e-20)
(-0.015323604 0.053043178 -2.1373849e-20)
(-0.01721811 0.055973115 1.3746839e-20)
(-0.01928339 0.058489462 -1.5273659e-20)
(-0.021521439 0.060471515 -1.4565153e-21)
(-0.023930813 0.06180748 -8.9442792e-22)
(-0.02650651 0.062412319 5.8360188e-21)
(-0.029240682 0.062251907 -3.9433395e-22)
(-0.032124212 0.061367779 2.1157311e-20)
(-0.035148297 0.059886812 -5.5604117e-21)
(-0.03830483 0.057997965 -1.6166294e-20)
(-0.041585472 0.055899887 7.254912e-21)
(-0.044980556 0.053752594 -5.7356793e-21)
(-0.048478798 0.051661311 5.6160291e-21)
(-0.052068133 0.049688189 3.0193184e-20)
(-0.055737615 0.047871917 -1.637197e-20)
(-0.059480848 0.046242101 -3.9617988e-21)
(-0.063299638 0.044825924 2.2508627e-20)
(-0.06721107 0.04364833 -1.2562654e-21)
(-0.07125606 0.042719116 -2.7502192e-21)
(-0.075501507 0.04201275 -3.0974719e-20)
(-0.080055442 0.041463519 -7.258948e-21)
(-0.085078231 0.040939258 1.1724436e-20)
(-0.090781957 0.040191277 1.2179887e-20)
(-0.097444604 0.038802641 1.777601e-20)
(-0.10539371 0.036078761 2.2728071e-20)
(-0.11499625 0.030888434 1.4417658e-20)
(-0.126542 0.0213249 2.227595e-20)
(-0.14011168 0.0043055456 -7.7534088e-21)
(-0.15499381 -0.025165304 5.1724953e-20)
(-0.16853387 -0.074172513 4.3958112e-21)
(-0.17362593 -0.14991839 3.3087462e-21)
(-0.1561174 -0.25117722 2.5897661e-21)
(-0.10920102 -0.35450227 -5.6154979e-20)
(-0.051114221 -0.4147239 -1.5652409e-20)
(-0.01052469 -0.40065523 1.5615449e-20)
(0.011265464 -0.28652453 1.2395327e-20)
(0.050127992 -0.07232624 2.7453252e-21)
(0.15678245 0.18062392 4.527686e-22)
(0.29149897 0.34728828 -1.2858026e-21)
(0.51005056 0.33649358 1.0352662e-21)
(-5.9032125e-05 0.00031376832 6.429993e-22)
(-0.00018359665 0.0009704552 2.0432824e-21)
(-0.00032272881 0.0016960435 -4.9311084e-21)
(-0.00047861564 0.0024993444 1.8324929e-22)
(-0.00065368865 0.0033899817 2.4000867e-21)
(-0.00085070452 0.0043783634 1.0576958e-21)
(-0.0010727597 0.0054756448 7.8077587e-22)
(-0.0013233043 0.0066936532 -1.5380412e-21)
(-0.0016061706 0.0080447656 7.9590048e-21)
(-0.0019255943 0.0095417296 -6.0026075e-21)
(-0.002286235 0.011197413 2.9030198e-22)
(-0.002693189 0.01302447 3.627827e-21)
(-0.0031519971 0.015034895 -1.355916e-20)
(-0.0036686427 0.01723947 1.3498028e-20)
(-0.0042495382 0.019647046 -1.7948738e-21)
(-0.0049014971 0.022263687 -1.1088707e-20)
(-0.0056316892 0.025091613 1.0402788e-20)
(-0.006447575 0.02812797 -3.6240174e-21)
(-0.0073568165 0.031363396 7.0179106e-21)
(-0.0083671621 0.034780417 -8.9685479e-21)
(-0.009486302 0.038351707 -1.6750971e-20)
(-0.010721692 0.042038278 1.6477392e-20)
(-0.012080339 0.045787743 2.3965315e-20)
(-0.013568553 0.04953281 -4.5825099e-20)
(-0.015191645 0.053190294 3.6386529e-20)
(-0.016953579 0.056661006 -2.089694e-20)
(-0.018856565 0.059831059 5.3195779e-21)
(-0.020900632 0.062575317 -1.2426248e-20)
(-0.023083245 0.064764142 1.2544214e-20)
(-0.025399194 0.06627502 1.6712452e-20)
(-0.027841075 0.067010943 -1.0930951e-20)
(-0.030400723 0.066926049 -1.7862148e-20)
(-0.033071358 0.066053239 1.5208951e-21)
(-0.035849106 0.064517808 6.0147499e-22)
(-0.038732203 0.062516826 1.0592554e-20)
(-0.041718055 0.060264937 -4.4625084e-21)
(-0.044800418 0.057940243 -1.5662154e-20)
(-0.047968543 0.055663095 -7.6247565e-21)
(-0.05120832 0.053506578 1.13801e-20)
(-0.054504665 0.051517705 -8.779135e-21)
(-0.057845062 0.049734131 7.418245e-21)
(-0.061223236 0.048192844 -2.3770002e-21)
(-0.064645676 0.046931878 -9.4397965e-21)
(-0.068138005 0.045977752 2.3106983e-20)
(-0.071747341 0.045325442 1.3836209e-20)
(-0.075554839 0.044934367 9.318116e-21)
(-0.07968422 0.044701554 -3.0126333e-20)
(-0.084294826 0.04441149 -2.0033491e-20)
(-0.089592744 0.043686147 -2.4064677e-20)
(-0.095797463 0.041870277 -4.3167696e-20)
(-0.10311372 0.037870494 1.5836161e-20)
(-0.1115764 0.029797372 -3.2921698e-21)
(-0.12091843 0.014501213 -2.7691734e-20)
(-0.12982179 -0.013375964 -8.4718099e-20)
(-0.13440973 -0.061941316 -5.7650096e-20)
(-0.12504034 -0.14042426 -2.300301e-20)
(-0.083887958 -0.24746 -6.1935613e-20)
(-0.0088257559 -0.35403015 3.6208158e-20)
(0.063595903 -0.41337409 -1.6383536e-21)
(0.098767311 -0.39565527 -2.3758827e-20)
(0.10826155 -0.28795459 -9.0930504e-21)
(0.1356495 -0.092271877 -1.0909169e-21)
(0.22768982 0.14207529 -7.7079236e-21)
(0.37226051 0.29604694 1.252827e-21)
(0.62458855 0.27799291 1.362222e-21)
(-7.3312699e-05 0.00033339979 2.5512957e-21)
(-0.00022770393 0.0010315002 -1.7208456e-21)
(-0.00039963154 0.0018030035 2.3242747e-21)
(-0.00059155888 0.0026570158 1.3208437e-21)
(-0.00080621041 0.0036034691 -3.6852061e-21)
(-0.0010466398 0.0046530944 -3.4394461e-21)
(-0.0013162403 0.0058173842 3.5283169e-21)
(-0.0016187518 0.0071085182 -4.2455675e-22)
(-0.0019582785 0.0085392415 -9.8246794e-23)
(-0.0023392972 0.010122686 -6.9796235e-21)
(-0.0027666603 0.011872123 7.6465303e-22)
(-0.0032455882 0.013800624 1.4054977e-20)
(-0.003781652 0.015920625 -1.1227543e-20)
(-0.0043807407 0.018243361 3.8638852e-22)
(-0.0050490132 0.02077816 7.5066551e-21)
(-0.0057928287 0.023531565 6.4457738e-22)
(-0.0066186557 0.026506284 -1.6365561e-21)
(-0.0075329555 0.029699929 -7.3559212e-21)
(-0.0085420386 0.033103563 1.3436125e-20)
(-0.0096518933 0.036700047 -2.3537713e-20)
(-0.010867988 0.040462232 5.0523892e-21)
(-0.012195045 0.044351058 -3.6935399e-21)
(-0.013636799 0.048313673 3.0136949e-21)
(-0.01519573 0.052281753 -1.2953972e-22)
(-0.016872787 0.056170276 1.7638824e-20)
(-0.01866711 0.059877133 1.7437246e-20)
(-0.020575759 0.063284097 -3.4251334e-20)
(-0.0225935 0.06625994 -5.6548711e-21)
(-0.02471276 0.068666867 1.9492813e-20)
(-0.02692398 0.07037199 6.8387568e-21)
(-0.029216723 0.071265934 1.5409863e-20)
(-0.031581857 0.071289561 -1.7117174e-20)
(-0.03401437 0.070464206 -7.3676752e-21)
(-0.036514987 0.068909657 1.6665124e-20)
(-0.039088334 0.066827544 -6.7744835e-21)
(-0.041737913 0.064446714 -3.2319217e-21)
(-0.044461224 0.061963501 8.8502687e-21)
(-0.047248018 0.059514441 2.2567222e-20)
(-0.0500816 0.057184479 6.7431789e-21)
(-0.052941683 0.055029377 -4.3903401e-21)
(-0.055807999 0.053094825 -1.0277487e-20)
(-0.058663849 0.051427336 -1.0673323e-20)
(-0.061501716 0.050077488 -1.191995e-20)
(-0.064326886 0.049088162 -2.5285613e-20)
(-0.067159672 0.048474939 7.1250167e-22)
(-0.070043507 0.048222073 -1.0952247e-20)
(-0.0730491 0.048255576 6.2237138e-20)
(-0.076257651 0.048392817 1.7610551e-20)
(-0.079765127 0.048294711 2.0637733e-20)
(-0.08361787 0.047342657 5.9038703e-20)
(-0.087748923 0.044481791 -7.179728e-20)
(-0.091776924 0.037849679 1.6715905e-20)
(-0.094823575 0.024236962 5.5914388e-20)
(-0.094439913 -0.0021092523 7.1093695e-20)
(-0.084541484 -0.050531018 8.5854562e-21)
(-0.050977027 -0.13228815 -2.5634801e-20)
(0.028717148 -0.2440712 -3.7637312e-20)
(0.14436541 -0.34881436 1.338819e-20)
(0.23562658 -0.39615583 -1.2564581e-20)
(0.2592539 -0.37311323 6.1296606e-21)
(0.24392981 -0.27427618 -1.6897203e-22)
(0.25087349 -0.10054682 -3.1552076e-21)
(0.3281049 0.11055833 1.050753e-20)
(0.48140252 0.24626921 5.0718408e-22)
(0.75286932 0.22095207 -6.2863378e-21)
(-8.8270712e-05 0.00034936095 -2.4081211e-21)
(-0.00027391593 0.0010812147 -6.4503355e-22)
(-0.00048021007 0.001890207 7.0859742e-22)
(-0.00070989208 0.0027856597 3.4819777e-21)
(-0.00096597752 0.0037777293 -4.1746159e-21)
(-0.0012518133 0.0048773824 3.5434086e-21)
(-0.0015710835 0.0060963601 1.6926794e-21)
(-0.00192781 0.0074471062 -9.0692008e-23)
(-0.0023263593 0.0089426484 -1.4268194e-21)
(-0.0027714368 0.010596424 -8.1061708e-21)
(-0.0032680731 0.012422038 1.3593148e-20)
(-0.0038215957 0.01443293 -1.6306648e-20)
(-0.0044375863 0.016641945 4.7791501e-21)
(-0.0051218184 0.01906078 6.4714536e-21)
(-0.0058801728 0.021699276 -9.8972168e-21)
(-0.0067185282 0.024564557 1.944497e-20)
(-0.0076426226 0.027659978 -2.3478011e-20)
(-0.0086578855 0.030983861 -3.6885633e-22)
(-0.0097692382 0.034528028 -1.3333578e-20)
(-0.010980865 0.038276124 5.263718e-20)
(-0.012295955 0.042201748 -1.2672022e-20)
(-0.01371643 0.046266473 -5.212393e-20)
(-0.015242653 0.050417832 2.4476829e-20)
(-0.016873146 0.054587457 2.9014136e-20)
(-0.018604323 0.058689608 -7.2419048e-21)
(-0.020430265 0.062620461 -3.7682538e-20)
(-0.022342566 0.066258703 5.6670722e-20)
(-0.02433033 0.069468213 -6.2424737e-20)
(-0.026380432 0.072104044 4.8777112e-20)
(-0.02847833 0.074023513 -9.260927e-21)
(-0.03060979 0.075104683 1.576101e-20)
(-0.032763848 0.075273682 2.2189289e-20)
(-0.034936368 0.074537168 -8.5320123e-21)
(-0.037131952 0.073004932 -2.113188e-21)
(-0.039361363 0.070878736 -3.0325432e-20)
(-0.041634457 0.068399036 5.6169198e-21)
(-0.043952876 0.065780152 -1.4223052e-20)
(-0.046306974 0.06317589 1.1845749e-20)
(-0.048677038 0.060684134 -6.6518499e-21)
(-0.051036537 0.058369867 -4.378263e-21)
(-0.053355762 0.05628667 -3.785593e-21)
(-0.055605083 0.054489987 -3.666098e-21)
(-0.057759248 0.053041904 2.2627165e-20)
(-0.059797805 0.052000617 1.8263166e-20)
(-0.061706349 0.051401495 -5.2088851e-21)
(-0.063478217 0.051252068 3.5082259e-21)
(-0.065112267 0.051505206 -1.4183549e-20)
(-0.066581284 0.052008176 2.9776738e-20)
(-0.067824838 0.05245593 3.5887902e-20)
(-0.068632501 0.05225397 1.0974329e-20)
(-0.068536198 0.050380303 2.8456404e-20)
(-0.066544992 0.044993898 -8.8485845e-22)
(-0.060807307 0.032796003 -1.4284308e-20)
(-0.047052327 0.0075047752 -7.8537068e-20)
(-0.015590998 -0.041658268 4.0239027e-20)
(0.055134197 -0.12801236 -1.8286623e-20)
(0.18855101 -0.24331465 4.3198251e-20)
(0.34621635 -0.33991064 -5.6213843e-20)
(0.45253567 -0.36776074 2.1978582e-20)
(0.47073013 -0.325451 -1.7528377e-21)
(0.42632387 -0.23473313 -1.7717252e-22)
(0.40191327 -0.090277689 3.5019386e-22)
(0.45679379 0.089169008 6.500207e-21)
(0.6123547 0.20093696 -2.3429298e-21)
(0.8921491 0.17169079 -8.6216539e-21)
(-0.0001034993 0.00036118354 5.4064505e-21)
(-0.00032097864 0.0011181451 3.7194435e-21)
(-0.00056228229 0.0019551106 -5.8383579e-21)
(-0.00083041738 0.0028815316 1.5366918e-22)
(-0.001128682 0.0039076988 5.277129e-21)
(-0.0014607059 0.0050447204 2.7588227e-21)
(-0.0018304521 0.0063044913 -5.813431e-21)
(-0.0022422115 0.0076996236 9.5432182e-22)
(-0.0027005982 0.0092433355 -1.3451653e-20)
(-0.0032105313 0.010949284 2.6207767e-21)
(-0.0037772042 0.012831332 6.7281419e-23)
(-0.0044060366 0.01490323 -9.6311685e-21)
(-0.0051026072 0.017178198 3.0844599e-20)
(-0.005872562 0.019668388 -1.4362566e-20)
(-0.0067214957 0.022384198 -2.5711528e-20)
(-0.0076548015 0.025333425 2.7372386e-20)
(-0.0086774878 0.028520229 -3.367912e-21)
(-0.0097939582 0.031943888 1.9091304e-20)
(-0.011007756 0.035597326 1.4156158e-20)
(-0.012321275 0.039465426 -4.4443031e-20)
(-0.013735442 0.043523131 3.3287941e-20)
(-0.015249384 0.047733384 -4.3705846e-20)
(-0.016860089 0.052045002 5.1170529e-21)
(-0.018562088 0.056390634 -2.0848367e-20)
(-0.020347184 0.060685029 4.5138076e-20)
(-0.022204254 0.064823995 -1.065608e-20)
(-0.024119201 0.068684551 -2.678238e-20)
(-0.026075113 0.072127092 6.4388986e-20)
(-0.028052824 0.075000781 -2.7804697e-20)
(-0.030032131 0.077154015 -2.9779405e-20)
(-0.03199411 0.078452411 2.4418732e-20)
(-0.0339249 0.078806203 3.2596768e-21)
(-0.035820035 0.078204234 -1.6012229e-20)
(-0.03768675 0.076741337 8.6977077e-21)
(-0.039541246 0.0746142 -1.3052343e-20)
(-0.041399842 0.07207129 4.4716183e-20)
(-0.04326878 0.069344 -2.2920622e-20)
(-0.045139288 0.066604387 -1.3434296e-20)
(-0.046988363 0.063964473 -2.7113947e-20)
(-0.048782241 0.061499008 -3.7113894e-21)
(-0.050480051 0.059269205 2.8156277e-20)
(-0.052036573 0.057338489 -1.1396404e-20)
(-0.053404751 0.055778887 -1.6876509e-20)
(-0.054532539 0.054662059 -2.5100926e-21)
(-0.055361952 0.054041223 1.7295062e-20)
(-0.055821915 0.053944044 1.5605549e-20)
(-0.055817483 0.054345779 -4.8549676e-20)
(-0.055176883 0.055116978 -2.6340683e-20)
(-0.053627923 0.055976084 -5.883427e-20)
(-0.050597726 0.056339839 -2.1246977e-20)
(-0.045075162 0.055181456 -8.6289184e-21)
(-0.03523264 0.050648978 -6.7220435e-20)
(-0.017821417 0.039277119 -2.7727017e-20)
(0.01406749 0.014041761 9.6776866e-20)
(0.07565559 -0.037999266 -8.0843591e-20)
(0.19791345 -0.13024968 7.2431593e-20)
(0.38686332 -0.24556483 -3.1387497e-20)
(0.56732972 -0.33144491 1.1254594e-19)
(0.66636968 -0.33643037 3.2593683e-20)
(0.68199974 -0.27022107 -3.602508e-21)
(0.63761702 -0.17066345 3.0580677e-21)
(0.59038065 -0.051796013 1.0840358e-20)
(0.62022598 0.088197475 1.9078084e-21)
(0.77162864 0.16664312 6.0424371e-22)
(1.0346711 0.1336838 1.0976203e-20)
(-0.00011854625 0.00036850392 9.850995e-23)
(-0.00036749742 0.0011411588 -7.0123961e-21)
(-0.00064342082 0.0019957273 8.2653758e-21)
(-0.00094957758 0.0029417008 3.9766856e-21)
(-0.0012895328 0.0039894084 -7.9628361e-21)
(-0.0016671823 0.0051500021 -2.5782908e-21)
(-0.00208675 0.0064354288 1.2499419e-20)
(-0.0025527774 0.0078583686 -1.3444148e-20)
(-0.003070108 0.0094321314 -2.834321e-21)
(-0.0036438573 0.011170502 -1.1266152e-20)
(-0.0042793662 0.013087518 2.9888997e-20)
(-0.0049821349 0.015197175 3.6323553e-22)
(-0.0057577322 0.017513025 -2.6772671e-20)
(-0.0066116767 0.020047662 2.8690623e-20)
(-0.0075492859 0.022812068 -2.0496761e-20)
(-0.008575488 0.025814795 -7.5823979e-21)
(-0.0096945947 0.029060958 1.5798522e-20)
(-0.010910032 0.032551017 -1.4211414e-20)
(-0.012224027 0.03627933 -1.8859058e-20)
(-0.013637264 0.040232467 3.9852299e-22)
(-0.015148495 0.044387297 2.9498493e-20)
(-0.016754149 0.048708878 -1.8164009e-20)
(-0.018447933 0.053148223 1.0079177e-20)
(-0.02022046 0.057640091 4.8468735e-20)
(-0.022058953 0.062101002 1.614345e-20)
(-0.023947057 0.066427834 -4.3614288e-20)
(-0.025864845 0.070497503 4.3425805e-21)
(-0.027789114 0.074168535 -4.8836375e-20)
(-0.029694182 0.077285723 2.8789592e-20)
(-0.031553462 0.079689749 -1.5177672e-20)
(-0.033342277 0.081234303 2.1936494e-20)
(-0.035042762 0.081813061 5.3424466e-21)
(-0.036648702 0.081394092 -2.6539151e-20)
(-0.038167971 0.080052083 2.7060391e-20)
(-0.039620818 0.077972839 3.9230603e-20)
(-0.041030056 0.075408084 -3.6214234e-21)
(-0.042407002 0.072604349 -4.0550273e-20)
(-0.043744179 0.069752676 5.0821132e-20)
(-0.045015195 0.066980498 -1.0742596e-20)
(-0.046178157 0.064372974 2.2799165e-20)
(-0.047179284 0.061998569 -3.5571062e-21)
(-0.047954933 0.059927373 3.5647868e-20)
(-0.048431777 0.05823919 1.7257551e-20)
(-0.048519754 0.057016387 2.2144005e-20)
(-0.048107214 0.056326692 -9.1333266e-20)
(-0.047041934 0.056212971 -3.0814862e-20)
(-0.045109285 0.056665886 4.1873655e-20)
(-0.041948798 0.057569691 -3.5284111e-20)
(-0.037000735 0.058642472 -3.0592237e-20)
(-0.029201056 0.059270941 3.549066e-20)
(-0.016902045 0.058436226 1.9163207e-20)
(0.0028437709 0.054204994 4.6652929e-20)
(0.035176659 0.042771059 2.4260062e-20)
(0.090666945 0.015809474 -8.4277915e-20)
(0.19345651 -0.041557469 -4.9160923e-20)
(0.37513665 -0.13866104 -7.8560557e-21)