/*--------------------------------*- C++ -*----------------------------------*\
  =========                 |
  \\      /  F ield         | OpenFOAM: The Open Source CFD Toolbox
   \\    /   O peration     | Website:  https://openfoam.org
    \\  /    A nd           | Version:  13
     \\/     M anipulation  |
\*---------------------------------------------------------------------------*/
FoamFile
{
    format      ascii;
    class       volScalarField;
    location    "0.0065";
    object      CrankNicolson:ddt0(rho,K);
}
// * * * * * * * * * * * * * * * * * * * * * * * * * * * * * * * * * * * * * //

dimensions      [1 -1 -3 0 0 0 0];

internalField   nonuniform List<scalar> 
1000
(
-2.63026e-20
-4.335e-20
-5.25934e-20
-4.47123e-20
-2.37026e-20
-1.85672e-20
-2.27583e-20
9.26365e-24
1.01516e-20
1.61301e-20
1.33509e-20
-8.056e-21
-1.39421e-20
5.23417e-24
1.42178e-20
8.37862e-21
-4.05706e-21
-4.06506e-21
1.31897e-20
3.94594e-21
8.44267e-21
-1.23484e-20
-2.02754e-20
-2.85975e-24
4.33685e-21
1.84889e-20
-2.99354e-24
1.23813e-20
-9.00671e-24
-1.11705e-20
-7.18128e-26
3.66959e-21
2.9295e-24
-3.02626e-24
-3.89891e-21
1.24638e-20
-8.08068e-21
-6.51554e-24
1.13531e-20
5.59579e-24
-3.87294e-21
7.84332e-21
8.52845e-21
4.41605e-21
1.4328e-20
2.82508e-20
6.26774e-20
3.92888e-20
4.12436e-20
2.59457e-20
-9.58112e-21
-8.33138e-21
-4.56253e-21
-4.00244e-21
-8.06628e-24
-8.60158e-21
-2.94812e-20
-3.74356e-20
-1.03176e-20
9.46285e-21
2.14316e-20
1.94071e-20
2.60208e-20
2.22247e-20
9.46721e-21
4.33943e-21
4.73878e-21
-4.32564e-21
4.14706e-21
8.68718e-21
-8.28022e-21
4.39994e-21
-3.37161e-24
4.62981e-21
1.97085e-20
-4.84679e-21
-4.73376e-21
-1.25592e-20
-8.79816e-21
4.29026e-21
1.35118e-20
-4.41539e-21
-2.53052e-20
-8.41089e-21
3.89602e-20
9.2767e-21
-3.63248e-20
-1.8702e-20
8.43678e-21
1.90706e-20
8.37683e-21
5.41897e-24
-4.15136e-21
8.96359e-21
-1.19613e-24
-1.28646e-20
-8.81579e-21
4.55692e-21
-4.30195e-25
1.71179e-20
8.2508e-21
-8.22354e-21
4.22919e-21
-4.41006e-21
-4.33374e-21
1.49714e-20
1.97953e-20
5.15086e-21
1.54943e-20
1.71545e-20
2.65698e-20
4.21027e-20
-1.10625e-20
-1.12747e-20
1.67272e-20
-5.75982e-21
3.5758e-23
-1.07404e-24
-2.49534e-20
2.36876e-20
2.18024e-23
-4.36074e-20
9.97991e-24
6.56011e-24
-2.50367e-20
-1.50448e-20
1.49065e-20
2.87339e-23
-2.4898e-20
-2.30567e-20
-3.44875e-20
-1.27415e-20
-8.88685e-21
-1.64088e-20
4.16825e-21
-4.10955e-21
-1.08006e-20
-6.83556e-21
-3.3905e-21
7.72831e-21
1.7843e-20
8.4283e-21
-4.34996e-21
1.9073e-20
2.25207e-20
4.15853e-21
1.18433e-20
7.34561e-21
6.93589e-21
2.62622e-20
5.66543e-21
-1.73864e-20
-4.43566e-21
5.18813e-21
8.67422e-21
9.64531e-21
-4.15653e-21
1.03946e-20
2.11105e-20
6.6208e-21
-1.25201e-23
-1.44974e-20
-1.93679e-20
-1.38726e-20
-4.66901e-21
-1.15021e-23
-5.20858e-21
-5.38904e-24
-2.05525e-21
-5.34008e-21
-3.4496e-21
-2.40282e-21
-2.17243e-21
-2.43208e-21
-2.47076e-21
-2.34606e-21
-1.2913e-21
-1.19935e-21
6.86712e-24
-2.18501e-22
-7.23538e-22
1.72209e-21
3.04444e-22
3.11849e-24
-1.6062e-21
-8.12219e-22
-1.44819e-21
-1.04403e-23
-8.13977e-22
6.02241e-24
-5.49949e-21
6.35064e-21
4.26769e-20
1.6185e-19
7.40376e-19
2.78569e-18
1.1181e-17
4.29747e-17
1.6399e-16
6.22305e-16
2.33458e-15
8.62676e-15
3.14713e-14
1.13369e-13
4.02761e-13
1.41223e-12
4.88455e-12
1.66648e-11
5.60713e-11
1.86026e-10
6.08417e-10
1.96125e-09
6.22991e-09
1.94961e-08
6.00945e-08
1.82405e-07
5.45063e-07
1.60307e-06
4.63916e-06
1.32063e-05
3.69705e-05
0.000101748
0.000275203
0.000731289
0.00190845
0.00488951
0.0122934
0.0303192
0.0733186
0.173763
0.4034
0.916902
2.03929
4.43561
9.42937
19.579
39.6816
78.4484
151.174
283.77
518.517
921.696
1592.9
2675.18
4364.28
6914.6
10638.7
15897.9
23082
32579.9
44743.3
59849.7
78071.4
99455.7
123920
151268
181229
213489
247713
283571
320749
358963
397956
437509
477432
517567
557780
597962
638021
677882
717484
756775
795715
834267
872404
910099
947331
984083
1.02034e+06
1.05608e+06
1.0913e+06
1.12598e+06
1.16012e+06
1.19369e+06
1.2267e+06
1.25913e+06
1.29097e+06
1.32222e+06
1.35286e+06
1.3829e+06
1.41232e+06
1.44111e+06
1.46928e+06
1.49682e+06
1.52372e+06
1.54998e+06
1.57559e+06
1.60056e+06
1.62488e+06
1.64856e+06
1.67159e+06
1.69396e+06
1.71569e+06
1.73678e+06
1.75722e+06
1.77702e+06
1.79618e+06
1.81471e+06
1.8326e+06
1.84987e+06
1.86652e+06
1.88255e+06
1.89796e+06
1.91278e+06
1.92699e+06
1.9406e+06
1.95363e+06
1.96607e+06
1.97794e+06
1.98924e+06
1.99997e+06
2.01015e+06
2.01978e+06
2.02887e+06
2.03741e+06
2.04543e+06
2.05292e+06
2.0599e+06
2.06637e+06
2.07233e+06
2.0778e+06
2.08277e+06
2.08727e+06
2.09128e+06
2.09483e+06
2.09791e+06
2.10053e+06
2.1027e+06
2.10443e+06
2.10572e+06
2.10658e+06
2.10701e+06
2.10702e+06
2.10662e+06
2.10581e+06
2.1046e+06
2.103e+06
2.10101e+06
2.09863e+06
2.09588e+06
2.09275e+06
2.08927e+06
2.08542e+06
2.08122e+06
2.07667e+06
2.07178e+06
2.06656e+06
2.061e+06
2.05512e+06
2.04892e+06
2.04241e+06
2.03559e+06
2.02847e+06
2.02105e+06
2.01334e+06
2.00534e+06
1.99706e+06
1.98851e+06
1.97968e+06
1.97059e+06
1.96124e+06
1.95164e+06
1.94178e+06
1.93168e+06
1.92134e+06
1.91077e+06
1.89996e+06
1.88893e+06
1.87768e+06
1.86622e+06
1.85454e+06
1.84266e+06
1.83058e+06
1.8183e+06
1.80583e+06
1.79317e+06
1.78033e+06
1.76731e+06
1.75412e+06
1.74076e+06
1.72723e+06
1.71354e+06
1.6997e+06
1.6857e+06
1.67156e+06
1.65727e+06
1.64285e+06
1.62829e+06
1.6136e+06
1.59878e+06
1.58384e+06
1.56878e+06
1.5536e+06
1.53831e+06
1.52292e+06
1.50742e+06
1.49183e+06
1.47613e+06
1.46035e+06
1.44448e+06
1.42852e+06
1.41248e+06
1.39637e+06
1.38018e+06
1.36392e+06
1.34759e+06
1.3312e+06
1.31475e+06
1.29825e+06
1.28169e+06
1.26508e+06
1.24842e+06
1.23173e+06
1.21499e+06
1.19821e+06
1.18141e+06
1.16457e+06
1.1477e+06
1.13081e+06
1.1139e+06
1.09697e+06
1.08002e+06
1.06307e+06
1.0461e+06
1.02913e+06
1.01215e+06
995170
978194
961223
944259
927305
910364
893438
876531
859643
842779
825941
809130
792350
775603
758891
742217
725582
708990
692442
675941
659488
643087
626738
610445
594208
578031
561915
545861
529872
513949
498094
482309
466595
450954
435386
419894
404478
389139
373878
358695
343592
328568
313624
298758
283970
269259
254623
240060
225567
211142
196778
182472
168217
154006
139831
125681
111547
97416.6
83277.3
69116.8
54923.1
40686.6
26401.8
12070.7
-2292.83
-16656.8
-30962.1
-45111.7
-58955.4
-72272.6
-84752.7
-95976.2
-105402
-112370
-116127
-115901
-111008
-101026
-85957.4
-66394
-43614.8
-19531.2
3539.62
23255.7
37684.4
45658.1
46948
42223.8
32841.6
20547.6
7185.1
-5515.43
-16075.8
-23340.4
-26502.1
-25109.2
-19078
-8721.07
5207.72
21474
38365.7
53779.7
65432.8
71129.2
69207.9
58944.6
40843.1
16670.8
-10792.7
-38226.7
-62320.3
-80253.3
-90033.1
-90549.7
-81658.2
-64099
-39422.6
-9888.42
21658.7
51959.6
77599.1
95375.6
102747
98248.3
81941.4
55577.9
22465.6
-13013.8
-46119.8
-72516.7
-88917.6
-93471.2
-85879.7
-67386.3
-40555.6
-8956.19
23257
51831.5
72947.9
83761.5
82818.1
70367.7
48410.9
20430.5
-9173.27
-35836.5
-55600.1
-65739.9
-65116.9
-54283.4
-35332.6
-11530.4
13209.8
34941
50302.3
57058.4
54440
43283.6
25874
5516.65
-14089
-29539.7
-38339.9
-39304.6
-32706.6
-20162.8
-4281.98
11849.2
25250.7
33598.9
35637.7
31377.8
22053.4
9829.98
-2669.22
-12917.4
-18994.9
-19946.6
-15921.9
-8083.21
1691.91
11242.2
18594.5
22374.6
22069.1
18091
11636.9
4374.08
-1964.46
-5978.69
-6900.21
-4727
-173.452
5545.42
11035
15066.2
16860.7
16248.7
13669.2
10018.2
6391.91
3794.05
2887.05
3847.77
6359
9731.7
13117.3
15747.8
17137.6
17193.7
16211
14759.7
13503.3
13004.3
13572.8
15200.9
17595.1
20291
22810.4
24811
26183.1
27068.4
27799.3
28785
30383.2
32801.4
36054.9
39992.5
44376.3
48991.1
53760.6
58865
64886.7
73042.4
85580.2
106419
142065
202767
303735
466142
717463
1.09063e+06
1.62151e+06
2.34434e+06
3.28518e+06
4.45408e+06
5.83724e+06
7.39127e+06
9.0417e+06
1.06872e+07
1.22098e+07
1.34896e+07
1.44209e+07
1.4926e+07
1.49649e+07
1.45371e+07
1.36796e+07
1.24583e+07
1.09597e+07
9.28108e+06
7.52246e+06
5.78053e+06
4.1432e+06
2.68492e+06
1.46222e+06
509672
-162914
-570778
-751159
-756800
-647152
-479221
-300141
-142854
-25235.8
47942.7
81361
84992.9
70393.8
47985.1
25512.1
7572.28
-4065.84
-9695.63
-10773.9
-9127.55
-6396.31
-3742.34
-1787.92
-703.826
-366.516
-518.399
-891.303
-1278.61
-1560.26
-1694.9
-1695.5
-1602.05
-1459.66
-1305.23
-1162.3
-1041.6
-944.568
-867.506
-805.003
-752.106
-705.284
-662.547
-623.1
-586.883
-554.162
-525.261
-500.442
-479.877
-463.677
-451.921
-444.656
-441.87
-443.421
-448.972
-457.928
-469.434
-482.432
-495.767
-508.342
-519.269
-527.986
-534.328
-538.536
-541.205
-543.203
-545.54
-549.221
-555.07
-563.55
-574.61
-587.6
-601.307
-614.125
-624.344
-630.508
-631.754
-628.034
-620.185
-609.807
-599.007
-590.059
-585.055
-585.606
-592.619
-606.174
-625.494
-649.027
-674.641
-699.917
-722.517
-740.563
-752.945
-759.508
-761.052
-759.192
-756.097
-754.193
-755.862
-763.173
-777.639
-799.993
-829.987
-866.283
-906.55
-947.826
-987.06
-1021.66
-1049.83
-1070.68
-1084.2
-1091.4
-1093.71
-1092.49
-1090.72
-1094.84
-1109.76
-1134.52
-1172.63
-1229.77
-1283.34
-1312.3
-1369.34
-1456.16
-1409.43
-1317.58
-1530.45
-1485.09
-525.217
-605.576
-2016.4
1112.16
5405
-3230.26
-4249.72
29064.7
20690.8
-49405.5
53340.3
223684
-124534
-270020
961918
704274
-2.29873e+06
1.0422e+06
7.96333e+06
-5.34531e+06
-1.38454e+07
3.4451e+07
2.93525e+07
-9.71351e+07
6.62337e+07
4.30997e+08
1.63336e+08
1.1512e+07
372311
10711
290.142
7.91179
0.216451
0.00592466
0.000162178
4.43935e-06
1.2152e-07
3.32639e-09
9.10508e-11
2.49184e-12
6.81136e-14
1.84876e-15
4.78485e-17
9.30571e-19
-5.5904e-20
-1.06573e-20
7.29838e-22
6.14257e-21
6.65317e-21
4.13378e-21
3.19818e-21
3.14509e-21
1.94274e-21
-1.11028e-24
7.34262e-22
1.59338e-21
1.29176e-21
1.22442e-21
4.43946e-22
-3.25261e-25
4.79298e-22
9.89378e-22
2.5307e-24
-1.14762e-21
-5.30185e-22
-1.20423e-21
-1.16079e-21
-7.14125e-22
1.79002e-25
-1.0203e-21
-9.14451e-22
3.57401e-25
1.02131e-21
6.98656e-22
3.58788e-25
6.65839e-22
8.28007e-22
-7.06388e-22
6.93098e-22
3.05321e-22
3.30582e-22
-7.39019e-22
-2.8687e-22
1.71572e-21
4.63659e-22
1.07332e-21
1.28531e-21
1.12958e-21
-2.70647e-24
-2.25279e-22
-2.90118e-22
-5.80449e-22
-8.86569e-22
-1.1282e-21
-1.65185e-21
-1.24697e-21
-9.22505e-22
-1.11424e-21
-2.47185e-21
-3.70213e-21
-1.60676e-21
9.54218e-22
-4.42054e-22
-9.51573e-22
4.09245e-25
9.1562e-22
2.51682e-21
1.96816e-21
2.05217e-21
2.09674e-21
1.71643e-21
4.30183e-22
6.4726e-22
-2.18568e-22
-1.27471e-21
-1.18612e-21
-2.21252e-22
-2.11208e-22
2.14277e-22
-2.37467e-22
-1.89671e-22
1.87204e-22
-2.33175e-22
-6.33614e-22
-3.46718e-22
-3.29184e-22
9.74274e-22
8.11212e-22
1.22501e-21
1.6566e-21
1.33426e-21
-1.00527e-21
2.12374e-24
-9.7709e-22
-5.27988e-22
-1.13804e-21
-1.57248e-21
-4.04472e-21
-4.76573e-21
-3.91929e-21
-1.73598e-21
-2.84025e-22
-1.89735e-22
1.66766e-22
-8.70947e-23
-9.83022e-23
-1.84155e-22
-3.52233e-22
-1.24627e-21
-1.35679e-21
-3.45905e-21
-4.06985e-21
-4.72387e-21
-6.1185e-22
3.03002e-21
4.70878e-21
6.40588e-21
4.5731e-21
3.22957e-21
1.20694e-21
5.16555e-22
4.35272e-23
2.20271e-26
-1.51913e-23
1.32497e-22
5.44248e-24
-2.31774e-23
-5.28507e-23
-2.15387e-22
-2.16251e-25
-1.12539e-22
)
;

boundaryField
{
    sides
    {
        type            calculated;
        value           nonuniform List<scalar> 2(-1.12539e-22 -2.63026e-20);
    }
    empty
    {
        type            empty;
    }
}


// ************************************************************************* //
