/*--------------------------------*- C++ -*----------------------------------*\
  =========                 |
  \\      /  F ield         | OpenFOAM: The Open Source CFD Toolbox
   \\    /   O peration     | Website:  https://openfoam.org
    \\  /    A nd           | Version:  13
     \\/     M anipulation  |
\*---------------------------------------------------------------------------*/
FoamFile
{
    format      ascii;
    class       volScalarField;
    location    "0.0065";
    object      CrankNicolson:ddt0(rho);
}
// * * * * * * * * * * * * * * * * * * * * * * * * * * * * * * * * * * * * * //

dimensions      [1 -3 -1 0 0 0 0];

internalField   nonuniform List<scalar> 
1000
(
-1.89137e-11
-3.05232e-11
2.18812e-11
1.69085e-11
9.30312e-12
4.80698e-12
1.73969e-11
2.49815e-11
-1.19854e-11
-6.48771e-12
-5.43388e-11
1.5957e-11
9.1059e-12
-3.07971e-11
4.06252e-11
-1.67723e-11
1.86294e-13
-1.82234e-12
-7.89141e-12
-3.04034e-11
-6.82677e-12
1.04071e-12
-2.08141e-11
1.2494e-11
2.93144e-12
-5.26995e-12
3.96522e-12
-2.82297e-11
3.38919e-13
1.18608e-11
-1.77755e-11
1.40127e-12
1.80943e-12
3.09894e-11
-1.18264e-12
-2.49812e-11
4.99806e-11
4.88603e-12
-5.20822e-13
5.95418e-11
-2.38943e-11
3.33037e-11
5.14648e-11
3.11334e-12
3.66504e-11
1.70805e-11
8.40777e-12
-4.46431e-11
-2.51749e-11
2.58134e-11
1.80277e-11
-3.75898e-11
2.76101e-11
-1.71813e-11
2.09394e-11
-2.46308e-11
2.13366e-11
3.00266e-11
1.09329e-11
3.34186e-11
3.50191e-13
-3.11213e-11
-4.59672e-11
-2.06857e-11
-2.8457e-14
-2.5862e-12
1.76952e-11
-5.39841e-11
1.61863e-11
4.38953e-13
4.38414e-12
2.57767e-12
3.65702e-11
4.14655e-12
-7.41794e-12
-3.88984e-11
1.38236e-12
2.87282e-12
-1.04191e-11
-1.94978e-12
2.3128e-11
6.5841e-13
3.22463e-12
8.44869e-12
5.49895e-11
-1.49132e-11
7.41823e-12
-4.68294e-11
7.11528e-12
2.81046e-11
-1.69176e-11
6.93889e-12
7.95637e-22
-9.22891e-13
-1.20122e-11
7.67021e-12
2.13351e-11
-1.39862e-11
9.82922e-13
2.50789e-11
-4.4393e-12
-5.08795e-11
1.51693e-11
4.18912e-12
-1.17012e-11
8.28132e-12
-8.3311e-12
3.67567e-12
2.64163e-11
-2.33653e-12
8.81235e-13
-1.38232e-12
-1.79135e-11
-4.80801e-11
5.85885e-11
-1.2199e-11
3.20872e-11
6.67675e-11
-1.09264e-11
-2.62071e-11
-4.40678e-12
-6.66397e-11
1.43938e-11
6.89556e-12
3.1051e-12
-4.82606e-11
-5.11565e-11
-2.8135e-11
3.90639e-11
1.52382e-11
-3.35453e-11
-4.74729e-11
2.12248e-11
1.07494e-11
1.57182e-11
-1.53222e-12
-1.45595e-11
-1.78219e-11
8.01978e-12
-8.77722e-14
1.95249e-11
4.78716e-11
4.64404e-11
2.91825e-11
6.37128e-12
1.0079e-11
-3.85387e-12
-5.01444e-11
-8.36809e-12
7.28583e-12
4.33131e-12
-3.69154e-13
-4.37275e-11
7.3252e-13
-1.72386e-11
-1.55051e-11
-4.98652e-12
4.19528e-12
3.33064e-11
2.2649e-11
-4.05819e-11
1.50668e-11
-5.05107e-11
3.07859e-11
-2.30128e-12
1.43647e-11
1.58137e-11
-4.90261e-11
-2.9923e-12
2.65737e-12
3.42553e-11
-4.55122e-11
7.2422e-12
-3.08559e-12
-2.0269e-12
-1.57202e-12
-1.69318e-11
-4.49465e-11
4.40418e-12
-1.91095e-12
2.28834e-11
-1.25942e-11
-8.42443e-12
-4.18943e-11
1.4838e-11
-1.4995e-11
-3.85513e-11
-4.07294e-11
4.86985e-12
-3.66518e-11
1.01705e-13
-1.23608e-12
-7.89489e-11
-2.03787e-10
-3.87093e-10
-7.02075e-10
-1.46518e-09
-2.79644e-09
-5.4908e-09
-1.061e-08
-2.04722e-08
-3.91187e-08
-7.44269e-08
-1.40392e-07
-2.63378e-07
-4.90468e-07
-9.07297e-07
-1.66657e-06
-3.03971e-06
-5.50468e-06
-9.89606e-06
-1.76596e-05
-3.12781e-05
-5.49775e-05
-9.58879e-05
-0.000165928
-0.000284836
-0.000484986
-0.000818952
-0.00137125
-0.00227631
-0.0037457
-0.00610859
-0.00987133
-0.0158034
-0.0250596
-0.0393504
-0.0611751
-0.094133
-0.143329
-0.215888
-0.321585
-0.473582
-0.689255
-0.991044
-1.40725
-1.97261
-2.72851
-3.72257
-5.00738
-6.63817
-8.66931
-11.1497
-14.1171
-17.5925
-21.5747
-26.0361
-30.9211
-36.1477
-41.6113
-47.1923
-52.765
-58.207
-63.4078
-68.2748
-72.7404
-76.7701
-80.3566
-83.5106
-86.2555
-88.622
-90.6447
-92.3593
-93.8007
-95.0014
-95.9917
-96.7983
-97.4453
-97.9536
-98.3415
-98.6249
-98.8174
-98.9308
-98.9752
-98.9592
-98.8902
-98.7745
-98.6175
-98.4239
-98.1977
-97.9422
-97.6603
-97.3545
-97.0271
-96.6799
-96.3145
-95.9323
-95.5346
-95.1226
-94.697
-94.259
-93.8091
-93.3483
-92.877
-92.396
-91.9058
-91.407
-90.9001
-90.3855
-89.8637
-89.3352
-88.8004
-88.2597
-87.7135
-87.1622
-86.6062
-86.0458
-85.4814
-84.9133
-84.3418
-83.7672
-83.1899
-82.61
-82.028
-81.444
-80.8583
-80.2712
-79.6828
-79.0933
-78.503
-77.9121
-77.3207
-76.729
-76.1372
-75.5453
-74.9537
-74.3623
-73.7713
-73.1808
-72.591
-72.0019
-71.4136
-70.8263
-70.24
-69.6547
-69.0707
-68.4878
-67.9063
-67.3261
-66.7473
-66.17
-65.5943
-65.0201
-64.4475
-63.8765
-63.3073
-62.7398
-62.174
-61.6101
-61.0479
-60.4877
-59.9293
-59.3728
-58.8182
-58.2656
-57.715
-57.1664
-56.6197
-56.0751
-55.5326
-54.9921
-54.4537
-53.9173
-53.3831
-52.851
-52.321
-51.7931
-51.2673
-50.7438
-50.2223
-49.703
-49.1859
-48.671
-48.1582
-47.6477
-47.1393
-46.6331
-46.1291
-45.6274
-45.1278
-44.6304
-44.1353
-43.6423
-43.1516
-42.6631
-42.1768
-41.6927
-41.2108
-40.7311
-40.2537
-39.7785
-39.3055
-38.8347
-38.3661
-37.8997
-37.4356
-36.9736
-36.5139
-36.0564
-35.6011
-35.1479
-34.697
-34.2483
-33.8018
-33.3574
-32.9153
-32.4753
-32.0376
-31.602
-31.1685
-30.7373
-30.3082
-29.8813
-29.4566
-29.034
-28.6135
-28.1952
-27.7791
-27.3651
-26.9533
-26.5435
-26.1359
-25.7305
-25.3271
-24.9259
-24.5268
-24.1298
-23.7349
-23.3421
-22.9514
-22.5627
-22.1762
-21.7917
-21.4093
-21.029
-20.6508
-20.2746
-19.9004
-19.5283
-19.1583
-18.7903
-18.4243
-18.0604
-17.6984
-17.3385
-16.9806
-16.6248
-16.2709
-15.919
-15.5691
-15.2212
-14.8752
-14.5312
-14.1892
-13.8492
-13.5111
-13.175
-12.8408
-12.5085
-12.1781
-11.8497
-11.5232
-11.1986
-10.8758
-10.555
-10.236
-9.91891
-9.60365
-9.29023
-8.97862
-8.66882
-8.36081
-8.05457
-7.75008
-7.4473
-7.14623
-6.84681
-6.54902
-6.25282
-5.95816
-5.66499
-5.37323
-5.08284
-4.79371
-4.50577
-4.2189
-3.93298
-3.64788
-3.36344
-3.07948
-2.79581
-2.51222
-2.22847
-1.94434
-1.65956
-1.37393
-1.08726
-0.799438
-0.510493
-0.220659
0.0695207
0.359044
0.646274
0.928704
1.20269
1.46314
1.70326
1.91429
2.08553
2.20464
2.25846
2.23452
2.12319
1.92035
1.63015
1.26649
0.853555
0.425007
0.0198956
-0.323509
-0.574436
-0.714957
-0.742436
-0.668666
-0.516436
-0.314889
-0.0950226
0.113873
0.286083
0.400931
0.443799
0.406794
0.289335
0.0987594
-0.149151
-0.430108
-0.712243
-0.95855
-1.13104
-1.19629
-1.13013
-0.924787
-0.592639
-0.166025
0.307217
0.771437
1.17189
1.46235
1.61018
1.59881
1.42603
1.10571
0.666565
0.150165
-0.391876
-0.901836
-1.32132
-1.59809
-1.69361
-1.58961
-1.29179
-0.833371
-0.271774
0.319736
0.863604
1.29008
1.54716
1.6069
1.46709
1.14966
0.698799
0.175202
-0.351382
-0.810858
-1.142
-1.3011
-1.26882
-1.05278
-0.68805
-0.232421
0.243034
0.665989
0.97484
1.12819
1.11044
0.932276
0.62836
0.25159
-0.135594
-0.471196
-0.70354
-0.799454
-0.74948
-0.568548
-0.293525
0.0237348
0.326235
0.562396
0.695165
0.707952
0.606346
0.415994
0.177226
-0.0629654
-0.259873
-0.379294
-0.403522
-0.333945
-0.189879
-0.00411383
0.184306
0.338309
0.430213
0.446796
0.39105
0.280559
0.143048
0.00998353
-0.0902858
-0.138372
-0.127461
-0.0639697
0.0346571
0.144516
0.241056
0.304701
0.324971
0.302225
0.246778
0.1758
0.108771
0.0626781
0.0481333
0.0672837
0.113952
0.175792
0.23787
0.286648
0.313326
0.315718
0.29827
0.270363
0.243439
0.227795
0.229936
0.251161
0.287702
0.332236
0.376294
0.412791
0.437962
0.452182
0.459517
0.466253
0.478887
0.502257
0.538353
0.58613
0.642304
0.702805
0.764379
0.825796
0.888297
0.955198
1.03089
1.11983
1.22631
1.35599
1.52026
1.74435
2.08013
2.62397
3.53933
5.08224
7.62577
11.6773
17.8795
26.9841
39.7897
57.0353
79.2541
106.602
138.694
174.484
212.244
249.667
284.096
312.851
333.583
344.579
344.966
334.77
314.848
286.725
252.382
214.049
174.008
134.444
97.3184
64.2662
36.5053
14.7602
-0.783414
-10.4733
-15.1189
-15.8529
-13.9493
-10.6354
-6.93782
-3.59015
-1.01012
0.664285
1.50185
1.69263
1.46965
1.05015
0.600862
0.225569
-0.0304346
-0.165916
-0.20587
-0.18524
-0.137057
-0.0858554
-0.0457406
-0.0216666
-0.0123081
-0.0131876
-0.0191994
-0.0261776
-0.0315347
-0.0342196
-0.034305
-0.0324743
-0.029583
-0.0263739
-0.0233492
-0.0207593
-0.018659
-0.0169845
-0.0156227
-0.0144598
-0.0134067
-0.0124075
-0.0114359
-0.0104884
-0.00957548
-0.00871514
-0.00792789
-0.00723378
-0.00665045
-0.00619164
-0.00586588
-0.00567516
-0.00561364
-0.00566702
-0.00581255
-0.00602038
-0.00625613
-0.00648444
-0.00667312
-0.00679711
-0.00684162
-0.00680387
-0.00669315
-0.00652922
-0.00633931
-0.00615394
-0.0060024
-0.00590811
-0.00588483
-0.00593418
-0.00604512
-0.00619553
-0.00635594
-0.00649453
-0.00658273
-0.00660008
-0.00653756
-0.00639899
-0.00620031
-0.00596718
-0.00573144
-0.00552682
-0.00538425
-0.00532727
-0.00536783
-0.00550343
-0.0057163
-0.0059753
-0.00624063
-0.00647057
-0.00662888
-0.00669124
-0.00664935
-0.00651213
-0.00630425
-0.00606273
-0.00583231
-0.00565976
-0.0055871
-0.00564407
-0.00584084
-0.00616284
-0.0065703
-0.00700381
-0.00739561
-0.00768422
-0.00782903
-0.00782
-0.00767759
-0.00744413
-0.00717333
-0.00691743
-0.00671467
-0.00659744
-0.00661074
-0.00678629
-0.00712528
-0.00767935
-0.00849106
-0.00931084
-0.00987815
-0.0105148
-0.0110235
-0.0100321
-0.00889422
-0.0109571
-0.0108553
-0.00359396
-0.00783208
-0.0229468
0.00654922
0.0434307
-0.0407985
-0.0492012
0.238718
0.107775
-0.55471
0.387987
1.76363
-1.59385
-2.63682
8.41194
4.53311
-22.6337
9.75777
67.4709
-61.4732
-127.191
310.105
221.241
-1010.45
315.43
3987.11
3012.64
924.909
178.972
28.578
4.68615
0.775396
0.128334
0.0212352
0.00351344
0.0005813
9.61756e-05
1.59121e-05
2.63264e-06
4.35565e-07
7.2069e-08
1.19192e-08
1.97304e-09
3.40681e-10
5.55842e-11
4.72315e-12
8.01991e-13
-4.90833e-12
-4.9724e-12
-4.58031e-15
-1.25264e-12
3.15611e-12
-8.02864e-13
-6.16622e-12
-4.40385e-12
-4.64827e-12
-2.7595e-12
-2.61098e-12
-2.41557e-12
2.34137e-12
4.8755e-13
-8.72582e-13
1.15315e-12
2.12128e-12
1.17932e-12
-4.05815e-12
8.673e-16
9.54923e-13
-6.75033e-12
4.24265e-12
-8.94838e-13
-5.85479e-13
-5.95123e-12
2.83091e-14
2.60266e-13
-6.48631e-13
3.82695e-12
-8.14606e-14
2.8926e-13
-1.13365e-13
-3.1226e-12
-9.6937e-12
-2.61034e-12
-1.55744e-12
-7.27766e-12
-1.49391e-12
4.82186e-12
1.45268e-13
-1.29991e-13
1.86486e-14
1.34316e-12
4.81478e-12
4.99572e-12
-2.13884e-12
5.21347e-13
1.08455e-12
-2.12081e-15
-2.30514e-12
4.24402e-12
1.2977e-11
2.40387e-12
-5.32247e-13
1.00635e-13
-2.37994e-13
4.90055e-12
-3.66272e-12
8.38946e-13
2.33528e-12
-6.79794e-12
-4.1456e-12
-2.07349e-12
-2.08367e-12
2.09793e-12
4.70887e-12
3.75543e-12
3.62084e-12
-3.07213e-13
-1.37319e-14
6.50821e-14
-2.40358e-13
4.57571e-13
1.50026e-12
-2.60208e-12
-1.01557e-12
-1.68945e-12
-2.8675e-12
-1.16112e-11
-6.02139e-12
-3.10125e-12
-7.5829e-12
-1.1594e-11
-2.76027e-12
-2.30033e-13
-6.57429e-12
-6.45819e-12
3.04511e-13
3.95592e-12
-9.73279e-13
4.67304e-12
5.78519e-12
1.11434e-11
3.87367e-12
1.23374e-11
3.01445e-12
4.30687e-12
3.58216e-12
4.36822e-12
5.49062e-12
5.25484e-12
6.94613e-12
6.25242e-12
9.12406e-12
1.65469e-12
2.04191e-12
-5.94872e-12
-5.86929e-12
-8.39373e-12
-6.18805e-12
-3.67125e-12
-4.43447e-12
-1.10032e-12
1.02462e-12
-1.55719e-12
-1.10284e-12
-1.04439e-12
9.79817e-13
3.66578e-12
4.07389e-12
-4.03398e-15
5.24827e-13
3.25459e-14
)
;

boundaryField
{
    sides
    {
        type            calculated;
        value           nonuniform List<scalar> 2(3.25459e-14 -1.89137e-11);
    }
    empty
    {
        type            empty;
    }
}


// ************************************************************************* //
