/*--------------------------------*- C++ -*----------------------------------*\
  =========                 |
  \\      /  F ield         | OpenFOAM: The Open Source CFD Toolbox
   \\    /   O peration     | Website:  https://openfoam.org
    \\  /    A nd           | Version:  13
     \\/     M anipulation  |
\*---------------------------------------------------------------------------*/
FoamFile
{
    format      ascii;
    class       surfaceScalarField;
    location    "0.0065";
    object      CrankNicolson:ddtCorrDdt0(phi);
}
// * * * * * * * * * * * * * * * * * * * * * * * * * * * * * * * * * * * * * //

dimensions      [1 0 -2 0 0 0 0];

internalField   nonuniform List<scalar> 
999
(
6.8998e-08
7.29552e-08
7.46534e-08
7.88959e-08
9.88328e-09
4.07415e-08
1.03801e-08
-1.38e-08
-1.05218e-08
-4.11587e-08
1.20131e-08
8.35975e-09
2.64456e-08
-2.81479e-08
-1.13314e-08
-1.52969e-08
2.02449e-08
-1.60529e-08
-2.01758e-08
8.77972e-09
-2.11373e-08
6.43635e-08
-1.78209e-08
1.35296e-08
-2.70827e-08
-8.14485e-09
2.06692e-10
-3.212e-08
2.10448e-08
3.05324e-08
-2.51689e-08
9.918e-09
-1.39419e-08
2.01036e-08
-1.18842e-08
-1.74159e-08
3.92682e-08
-2.76425e-08
-8.25656e-09
6.06865e-09
-2.92393e-09
-2.06541e-08
-1.01441e-08
-1.62122e-08
-1.87147e-08
-6.22149e-08
-6.36863e-08
-2.99928e-08
-5.98725e-08
8.76549e-10
2.0764e-08
5.90798e-10
1.75119e-09
2.82987e-09
-9.30146e-10
1.61219e-08
5.98696e-08
3.54304e-08
-1.20792e-08
-9.99296e-09
-2.88058e-08
-1.00392e-08
-5.03948e-08
-9.16148e-09
7.23202e-10
-1.30426e-08
4.62134e-09
1.54109e-08
-3.45049e-08
1.13862e-08
1.70687e-08
-3.51024e-08
3.78735e-08
-4.40714e-08
2.92583e-09
1.25524e-08
-9.32257e-09
3.99485e-08
-1.68093e-08
-1.0568e-08
-1.15743e-08
9.78015e-09
6.91473e-08
-5.74715e-08
-4.31938e-08
2.37645e-08
7.53289e-08
-1.77144e-08
-1.4386e-08
-2.4072e-08
-4.05573e-09
1.11387e-08
4.48245e-09
-2.74493e-08
2.44611e-08
1.69191e-08
6.3753e-09
-8.44567e-09
-7.78064e-09
-2.7664e-08
4.6566e-09
1.05565e-08
-2.00258e-08
1.46461e-08
4.88293e-09
-3.17578e-08
-1.48956e-08
1.61269e-08
-4.83596e-08
7.24825e-09
-6.24535e-08
-2.27132e-08
4.89424e-08
-3.6724e-08
-2.55163e-09
2.51624e-08
-2.10925e-08
2.72002e-08
1.37783e-08
-6.39701e-08
5.39987e-08
2.38184e-08
-2.5895e-08
3.51265e-08
3.10882e-08
-5.81351e-09
-1.83791e-08
1.17061e-08
3.61871e-08
2.60694e-08
6.06971e-08
-2.21597e-08
5.98263e-08
-1.55509e-08
-9.87196e-10
1.12909e-08
2.27824e-08
6.43977e-09
1.28011e-08
-3.40756e-08
-2.38459e-08
1.3596e-08
4.62254e-10
-3.89585e-08
-1.58848e-08
-1.86818e-09
-2.68621e-08
5.57228e-09
-3.65106e-08
-4.47529e-08
2.1622e-08
4.43622e-08
-1.27885e-08
-9.47493e-09
-3.6199e-08
5.52452e-09
1.85641e-08
-7.32731e-08
-1.5978e-08
-9.52241e-09
1.94817e-08
3.43705e-08
5.46336e-08
1.09164e-08
4.65824e-09
-5.22797e-09
2.19337e-08
-1.8703e-08
1.75878e-08
8.34958e-09
2.50127e-08
1.75744e-09
1.48247e-08
1.48144e-08
1.44382e-08
2.08626e-08
9.1345e-09
-3.65024e-08
1.27603e-08
-1.96811e-08
-2.57644e-08
-4.57329e-10
-6.92347e-09
-2.27828e-09
2.05217e-08
1.65461e-08
2.00121e-08
-2.48702e-08
8.77356e-09
-3.00707e-08
-1.9418e-08
7.89312e-08
1.71726e-07
3.73484e-07
7.98365e-07
1.5438e-06
3.08019e-06
5.99556e-06
1.15882e-05
2.24857e-05
4.3055e-05
8.20998e-05
0.000155468
0.000292431
0.000546341
0.0010138
0.00186809
0.00341824
0.00621035
0.0112017
0.0200571
0.0356459
0.0628736
0.110049
0.191122
0.329294
0.56279
0.953976
1.60358
2.67263
4.4158
7.23148
11.7358
18.8705
30.0573
47.4154
74.0613
114.514
175.232
265.299
397.278
588.244
860.955
1245.12
1778.65
2508.68
3492.22
4795.99
6495.16
8670.62
11404.6
14774.4
18844.6
23658.3
29228.6
35530.8
42498.9
50024.4
57961.3
66135.3
74356.3
82433
90187
97464.4
104143
110148
115452
120063
124014
127349
130122
132391
134212
135639
136722
137505
138028
138327
138432
138370
138164
137833
137395
136864
136252
135570
134827
134031
133188
132305
131385
130434
129454
128450
127423
126376
125312
124231
123137
122029
120910
119781
118643
117497
116343
115183
114017
112847
111673
110496
109316
108134
106951
105767
104584
103400
102218
101037
99858
98681.5
97507.8
96337.4
95170.7
94008.1
92849.8
91696.3
90547.8
89404.7
88267.2
87135.6
86010.1
84890.9
83778.3
82672.4
81573.4
80481.6
79396.9
78319.7
77249.9
76187.8
75133.4
74086.8
73048.2
72017.5
70994.9
69980.5
68974.2
67976.2
66986.4
66005
65032
64067.3
63111.1
62163.3
61223.9
60293
59370.6
58456.7
57551.2
56654.3
55765.8
54885.8
54014.2
53151.2
52296.5
51450.4
50612.6
49783.2
48962.3
48149.6
47345.4
46549.4
45761.8
44982.4
44211.3
43448.4
42693.7
41947.1
41208.7
40478.4
39756.2
39042
38335.8
37637.6
36947.3
36264.9
35590.4
34923.7
34264.8
33613.7
32970.3
32334.6
31706.6
31086.1
30473.2
29867.9
29270
28679.7
28096.7
27521.1
26952.8
26391.9
25838.2
25291.7
24752.4
24220.2
23695.1
23177.1
22666.1
22162.1
21665
21174.8
20691.4
20214.9
19745.1
19282
18825.7
18375.9
17932.8
17496.2
17066.2
16642.6
16225.5
15814.8
15410.4
15012.3
14620.5
14234.9
13855.6
13482.3
13115.2
12754.2
12399.1
12050.1
11707
11369.8
11038.4
10712.9
10393.2
10079.2
9770.91
9468.28
9171.27
8879.83
8593.94
8313.54
8038.61
7769.1
7504.96
7246.17
6992.68
6744.45
6501.44
6263.62
6030.94
5803.37
5580.86
5363.39
5150.9
4943.36
4740.73
4542.98
4350.06
4161.94
3978.58
3799.95
3625.99
3456.68
3291.97
3131.84
2976.23
2825.13
2678.47
2536.24
2398.39
2264.88
2135.67
2010.74
1890.03
1773.52
1661.17
1552.93
1448.76
1348.64
1252.52
1160.36
1072.13
987.774
907.265
830.556
757.606
688.373
622.811
560.878
502.525
447.705
396.367
348.458
303.92
262.696
224.723
189.934
158.257
129.615
103.92
81.0817
60.9964
43.553
28.6294
16.0916
5.79209
-2.43133
-8.75651
-13.3777
-16.5058
-18.3682
-19.2097
-19.2918
-18.8939
-18.3124
-17.8571
-17.8411
-18.5606
-20.2571
-23.0676
-26.9392
-31.5983
-36.5071
-40.866
-43.6834
-43.915
-40.645
-33.2645
-21.601
-5.97088
12.8437
33.6742
55.0711
75.4033
92.9766
106.155
113.488
113.857
106.623
91.7959
70.1717
43.412
14.0143
-14.8777
-39.7734
-57.3055
-64.8011
-60.8012
-45.3886
-20.2287
11.676
46.4418
79.839
107.819
126.848
134.316
128.84
110.483
80.8636
43.1369
1.78477
-37.8178
-70.0553
-89.9116
-93.6515
-79.7161
-49.1946
-5.81234
44.6032
95.0549
138.488
168.836
181.867
175.537
150.44
109.794
59.0982
5.48617
-43.2021
-79.5474
-97.7143
-94.4918
-69.8074
-27.0987
27.1334
84.422
135.818
173.412
191.609
187.99
163.533
122.577
72.1573
20.8754
-22.5285
-50.6536
-58.7147
-45.4357
-13.2113
32.1676
82.5909
129.188
164.006
181.469
179.358
159.069
125.34
85.3012
47.0995
18.3329
4.58603
8.36438
28.6957
61.3503
99.7762
136.512
164.762
179.792
179.839
166.346
143.563
117.544
94.7886
80.8232
79.0387
90.0264
111.567
139.225
167.457
190.941
205.809
210.484
205.924
195.281
183.043
173.89
171.554
177.959
192.849
213.977
237.793
260.439
278.773
291.147
297.756
300.493
302.352
306.579
315.79
331.324
352.982
379.224
407.729
436.154
462.852
487.354
510.483
534.085
560.49
591.87
629.713
674.559
726.088
783.496
846.041
913.563
986.793
1067.36
1157.51
1259.76
1376.99
1513.64
1678.96
1893.7
2201.33
2685.09
3491.18
4857.26
7143.15
10857.7
16672.4
25410.3
37996.7
55361.8
78290.7
107233
142098
182076
225549
270132
312866
350554
380174
399277
406300
400718
383045
354688
317729
274665
228179
180930
135395
93732.8
57666.6
28377.4
6424.32
-8286.26
-16458.5
-19279
-18218.9
-14803
-10397.7
-6060
-2469.21
60.7176
1510.83
2057.46
1970.82
1531.46
974.244
461.18
78.2862
-151.366
-246.87
-248.063
-198.206
-132.929
-75.4244
-36.4826
-17.3899
-13.8332
-19.4599
-28.3783
-36.4425
-41.53
-43.185
-41.9968
-38.9915
-35.1864
-31.3479
-27.9222
-25.0777
-22.7953
-20.962
-19.4423
-18.1201
-16.9159
-15.7858
-14.7143
-13.7032
-12.7637
-11.9105
-11.1587
-10.5224
-10.014
-9.64288
-9.41461
-9.32857
-9.37628
-9.5402
-9.79379
-10.1032
-10.4309
-10.7398
-10.9982
-11.1841
-11.2874
-11.3112
-11.2704
-11.1896
-11.0991
-11.0309
-11.0135
-11.0671
-11.1996
-11.404
-11.6581
-11.9279
-12.1729
-12.3544
-12.4424
-12.4226
-12.2986
-12.092
-11.8385
-11.5822
-11.3691
-11.241
-11.2299
-11.3534
-11.6121
-11.9879
-12.4453
-12.936
-13.4054
-13.8014
-14.0838
-14.2311
-14.2442
-14.1468
-13.9816
-13.8047
-13.6783
-13.662
-13.8047
-14.1351
-14.6552
-15.3365
-16.1222
-16.936
-17.6949
-18.3252
-18.7772
-19.0338
-19.1085
-19.0435
-18.9058
-18.7646
-18.6784
-18.7321
-19.0091
-19.474
-20.1085
-21.1316
-22.4423
-23.3727
-24.422
-26.7015
-27.3657
-24.4254
-26.3874
-31.9915
-17.5673
-3.87201
-44.3292
-42.7975
85.4378
12.4571
-259.645
212.717
766.51
-788.56
-999.73
3926.24
1502.6
-10033.6
6136.64
29279.6
-30553.6
-49472.3
140497
70184.1
-412772
167522
1.19216e+06
-1.12665e+06
-2.76666e+06
6.94671e+06
8.98633e+06
3.26638e+06
683455
108783
17775
2940.54
486.708
80.5361
13.3251
2.20464
0.364757
0.0603487
0.00998462
0.00165195
0.0002733
4.52242e-05
7.51503e-06
1.14674e-06
2.46937e-07
2.35514e-08
3.12111e-09
-4.54409e-09
-9.41599e-09
-7.59634e-09
-3.84334e-09
-4.09207e-09
-4.88819e-09
-5.82428e-10
6.54297e-10
-4.4172e-09
-2.47141e-09
-3.52538e-09
-4.89255e-09
1.85299e-10
-6.62927e-10
-1.66921e-09
-4.64625e-09
4.32083e-09
1.20633e-09
2.85432e-09
2.50128e-09
4.74647e-09
-1.03296e-09
1.80285e-10
2.72852e-09
1.37023e-09
-1.50656e-09
-2.15879e-09
-1.37135e-09
1.0622e-09
-4.19334e-09
1.69083e-09
6.1169e-10
-3.06232e-09
7.02572e-10
-1.45133e-09
5.70624e-09
-5.19931e-09
-3.66805e-09
-5.69487e-10
-8.45402e-09
-6.37536e-09
-1.88467e-09
2.6521e-09
-1.57819e-10
2.76345e-09
2.15571e-09
3.25729e-09
4.49784e-09
3.77947e-09
4.1816e-09
2.29117e-10
5.38392e-09
6.26627e-09
7.59282e-09
-1.80708e-09
-1.013e-09
1.62697e-09
4.42629e-10
3.87848e-10
-3.59951e-09
-4.27836e-09
-2.3066e-09
-5.6212e-09
-8.3687e-09
-6.43581e-10
-2.92317e-09
-8.90116e-10
1.91215e-09
6.28697e-09
1.4867e-09
5.04325e-10
4.32933e-10
-4.70965e-10
1.53335e-09
-1.82931e-10
-5.28681e-10
2.19254e-09
6.38724e-09
3.8516e-09
9.25697e-09
5.78424e-09
1.73805e-09
5.004e-09
2.88899e-09
1.05517e-09
-2.70756e-09
1.59452e-09
-2.57667e-09
-1.08039e-09
-1.27186e-09
-2.12629e-09
-1.0698e-08
-4.91853e-09
-7.85945e-09
1.7681e-09
-3.9574e-09
1.84208e-09
-1.55557e-10
-3.24267e-09
9.0245e-10
1.3909e-09
5.06987e-09
1.21608e-09
4.86142e-09
7.3242e-09
5.02837e-09
4.93902e-09
-2.01562e-09
-4.99208e-09
-8.81427e-09
-1.05498e-08
-1.06714e-08
-8.81768e-09
-3.35427e-09
-2.99356e-09
-2.13121e-09
5.86031e-10
-7.50374e-10
4.45348e-10
-3.55062e-09
-1.90879e-10
2.4336e-09
9.08633e-10
7.64153e-10
)
;

boundaryField
{
    sides
    {
        type            calculated;
        value           nonuniform List<scalar> 2(1.10816e-09 -2.28833e-08);
    }
    empty
    {
        type            empty;
    }
}


// ************************************************************************* //
