/*--------------------------------*- C++ -*----------------------------------*\
  =========                 |
  \\      /  F ield         | OpenFOAM: The Open Source CFD Toolbox
   \\    /   O peration     | Website:  https://openfoam.org
    \\  /    A nd           | Version:  13
     \\/     M anipulation  |
\*---------------------------------------------------------------------------*/
FoamFile
{
    format      ascii;
    class       volScalarField;
    location    "0.0065";
    object      CrankNicolson:ddt0(rho,e);
}
// * * * * * * * * * * * * * * * * * * * * * * * * * * * * * * * * * * * * * //

dimensions      [1 -1 -3 0 0 0 0];

internalField   nonuniform List<scalar> 
1000
(
9.07693e-07
-7.18788e-07
-1.83019e-06
2.64108e-06
1.71168e-07
3.09047e-07
2.6275e-06
-5.98256e-07
-2.46388e-07
4.28409e-07
2.08147e-06
1.64501e-06
4.08851e-07
1.14243e-06
-1.36797e-06
1.12397e-06
-5.08333e-07
-5.28689e-07
9.53844e-07
-1.04736e-07
1.23779e-07
6.52285e-07
9.54715e-07
1.00517e-06
2.03874e-06
-3.38467e-07
-2.5643e-06
-9.40423e-07
1.30873e-06
3.0519e-07
1.4575e-06
-9.65832e-08
3.43306e-08
-1.18618e-07
5.65329e-07
1.56105e-06
1.64235e-07
1.5351e-06
-1.10191e-06
-2.82373e-06
-7.68287e-07
-2.82704e-07
3.89237e-07
-3.85565e-07
-2.75164e-07
1.50333e-06
-1.25584e-07
-9.9748e-07
4.87761e-07
-4.49281e-06
-1.47782e-06
-8.0456e-07
1.64842e-06
-1.89328e-06
1.37121e-06
4.96379e-07
-8.62625e-07
2.04786e-06
3.41565e-08
-1.52389e-06
-8.23697e-08
8.8968e-07
-4.70908e-07
1.8938e-06
-1.29037e-06
2.51302e-06
-7.95331e-07
-7.16262e-07
5.09533e-06
-3.06836e-06
2.44447e-07
1.38786e-06
-2.02827e-06
3.06538e-06
3.51673e-06
4.29003e-08
-6.90756e-09
-2.67811e-06
3.78589e-07
-1.84557e-06
-1.15479e-06
-2.57943e-06
-1.38494e-06
1.35242e-08
1.69587e-06
-2.28334e-07
8.35215e-07
1.25426e-06
-3.12245e-06
1.72543e-06
-3.18419e-06
1.36424e-07
1.56913e-06
8.46459e-09
1.41993e-06
-2.81514e-06
3.33027e-06
-1.4495e-06
3.54614e-07
-5.42413e-07
7.34312e-07
-1.30815e-06
2.22121e-06
-7.10894e-07
8.84213e-07
3.27312e-06
3.54177e-06
6.67004e-07
6.83222e-07
3.70012e-07
2.98092e-06
1.31761e-06
-1.89742e-06
6.70031e-07
5.52293e-07
6.40789e-07
-4.89873e-07
-7.52008e-08
-2.32251e-06
2.28107e-06
1.26103e-08
-2.45114e-06
-2.29261e-06
-5.04144e-07
9.72093e-08
7.33689e-07
3.14686e-06
2.52068e-07
8.71418e-07
-6.55509e-07
1.93688e-08
-2.91575e-07
-4.40379e-07
-1.18712e-06
-3.73984e-06
-4.81792e-08
-2.733e-07
2.01965e-07
3.3836e-06
-2.52839e-07
2.05778e-06
-2.01077e-06
-5.58928e-07
1.53327e-06
-1.26311e-06
-1.77345e-06
1.35337e-06
2.57761e-06
-3.62796e-06
-9.63092e-07
-8.15122e-07
-2.69622e-07
8.87135e-07
-1.25791e-06
1.41074e-07
6.44411e-07
1.58229e-06
2.25376e-06
6.39563e-08
-2.52274e-07
-4.81365e-07
-4.30652e-06
-1.9231e-07
-1.38688e-06
-1.01503e-06
1.08114e-06
6.21485e-07
-8.03232e-07
2.35411e-07
5.36317e-07
-2.3226e-06
-1.48276e-06
-1.9257e-08
1.86886e-06
-1.84628e-06
1.16718e-06
-3.26018e-06
1.26111e-06
-1.53796e-06
-1.04558e-06
9.87777e-07
-2.97875e-07
1.30672e-06
4.57926e-06
1.32934e-06
-2.53079e-06
-7.34937e-07
-2.70616e-07
-1.04026e-06
-1.62557e-06
4.13417e-07
-2.38463e-06
-4.91482e-06
-6.03474e-06
-1.57386e-05
-3.6378e-05
-7.14197e-05
-0.000140164
-0.000274053
-0.000537871
-0.00102957
-0.00197372
-0.00374828
-0.00707466
-0.0132671
-0.0247148
-0.0457139
-0.0839815
-0.153201
-0.277466
-0.498868
-0.890326
-1.57708
-2.7723
-4.83571
-8.3687
-14.3673
-24.4652
-41.316
-69.1854
-114.86
-189.02
-308.286
-498.223
-797.69
-1265
-1986.56
-3088.58
-4752.88
-7237.33
-10901.8
-16240.1
-23917
-34809.8
-50051.5
-71069.6
-99615.7
-137773
-187933
-252730
-334911
-437160
-561845
-710732
-884681
-1.08336e+06
-1.30506e+06
-1.54658e+06
-1.80337e+06
-2.06973e+06
-2.33925e+06
-2.60529e+06
-2.86146e+06
-3.10214e+06
-3.32274e+06
-3.52004e+06
-3.69261e+06
-3.84039e+06
-3.96425e+06
-4.06571e+06
-4.14664e+06
-4.20906e+06
-4.25503e+06
-4.28652e+06
-4.30537e+06
-4.31326e+06
-4.31167e+06
-4.30193e+06
-4.28517e+06
-4.2624e+06
-4.23449e+06
-4.20216e+06
-4.16605e+06
-4.12671e+06
-4.0846e+06
-4.04012e+06
-3.99361e+06
-3.94537e+06
-3.89563e+06
-3.84462e+06
-3.79252e+06
-3.7395e+06
-3.68569e+06
-3.6312e+06
-3.57616e+06
-3.52065e+06
-3.46475e+06
-3.40854e+06
-3.35209e+06
-3.29544e+06
-3.23866e+06
-3.1818e+06
-3.12489e+06
-3.06799e+06
-3.01113e+06
-2.95434e+06
-2.89766e+06
-2.84113e+06
-2.78476e+06
-2.7286e+06
-2.67266e+06
-2.61697e+06
-2.56156e+06
-2.50644e+06
-2.45165e+06
-2.39719e+06
-2.34309e+06
-2.28937e+06
-2.23603e+06
-2.18311e+06
-2.1306e+06
-2.07854e+06
-2.02692e+06
-1.97576e+06
-1.92507e+06
-1.87486e+06
-1.82514e+06
-1.77592e+06
-1.7272e+06
-1.679e+06
-1.63132e+06
-1.58416e+06
-1.53752e+06
-1.49143e+06
-1.44586e+06
-1.40084e+06
-1.35637e+06
-1.31243e+06
-1.26905e+06
-1.22622e+06
-1.18393e+06
-1.1422e+06
-1.10102e+06
-1.06039e+06
-1.02031e+06
-980788
-941815
-903394
-865523
-828201
-791427
-755199
-719517
-684378
-649780
-615723
-582203
-549218
-516767
-484847
-453455
-422590
-392248
-362428
-333126
-304339
-276066
-248303
-221047
-194295
-168045
-142293
-117037
-92273
-67998.6
-44210.4
-20905.4
1919.6
24267.7
46142.1
67546
88482.5
108955
128966
148520
167620
186268
204469
222224
239539
256415
272857
288867
304449
319605
334340
348657
362559
376048
389129
401805
414079
425954
437433
448520
459218
469530
479460
489010
498184
506985
515417
523482
531183
538525
545509
552140
558420
564352
569940
575187
580095
584668
588910
592822
596409
599672
602616
605244
607557
609560
611255
612646
613735
614525
615019
615221
615132
614757
614097
613156
611937
610443
608675
606638
604335
601767
598937
595850
592506
588909
585063
580969
576630
572049
567228
562171
556880
551358
545607
539630
533430
527009
520369
513514
506446
499167
491679
483987
476091
467994
459699
451207
442522
433646
424580
415328
405890
396270
386469
376489
366333
356001
345495
334817
323967
312948
301760
290403
278878
267185
255323
243291
231088
218712
206159
193428
180512
167408
154109
140609
126900
112975
98825.3
84444.3
69826.9
54971.6
39883.1
24575.5
9077.11
-6562.76
-22265.7
-37913.6
-53335.3
-68293.1
-82467.1
-95443.6
-106709
-115658
-121620
-123914
-121938
-115284
-103863
-88038.4
-68652.2
-47002.4
-24816.1
-4039.47
13452.7
26167.1
33235.8
34529
30616.5
22612.4
11962.9
241.188
-11035.4
-20483.6
-26943.9
-29562.2
-27851.3
-21741.1
-11621.6
1632.84
16676.2
31763.4
44905.8
54101.7
57662.1
54342.9
43745.7
26491.8
4213.99
-20656.7
-45262.8
-66748.6
-82648.7
-91144.2
-91282
-82774.5
-66239.2
-43145.3
-15714.4
13242.3
40564.4
63066.4
77923.2
83085.9
77628.9
61829.9
37430.1
7446.44
-24258.3
-53571.5
-76760.7
-90997.7
-94718.1
-87727.5
-71092.2
-47127.2
-19090.1
9231.45
34007.8
51888.9
60474.6
58721.2
47008.1
27191.3
2369.11
-23627
-46876.5
-64018.3
-72764
-72230.2
-62941.1
-46732.7
-26465.6
-5549.9
12606.4
25148.6
30228.2
27309.6
17172.2
1809.04
-15948.5
-32969.5
-46404.5
-54189.2
-55383.1
-50263.4
-40214.9
-27450.3
-14568.3
-4056.23
2169.03
3101.71
-1205.42
-9704.38
-20586.1
-31680.2
-40913.2
-46725.3
-48359.7
-45964.1
-40504.9
-33527
-26796.6
-21916.1
-19992.5
-21428
-25881.3
-32384
-39594.3
-46124.3
-50859.4
-53195.8
-53142.9
-51277.7
-48573.7
-46144
-44968.1
-45667.4
-48382.8
-52778.6
-58161.8
-63685.1
-68575.4
-72327.9
-74817.5
-76303.3
-77334.2
-78585
-80671.5
-83995.8
-88661.8
-94480.1
-101054
-107919
-114690
-121179
-127444
-133767
-140572
-148309
-157343
-167888
-179995
-193604
-208632
-225071
-243059
-262896
-285015
-309915
-338167
-370595
-408865
-456750
-522387
-621881
-784453
-1.0591e+06
-1.52223e+06
-2.28521e+06
-3.49963e+06
-5.3578e+06
-8.08504e+06
-1.19208e+07
-1.7087e+07
-2.37436e+07
-3.19377e+07
-4.15536e+07
-5.22778e+07
-6.35927e+07
-7.48067e+07
-8.5124e+07
-9.37416e+07
-9.99555e+07
-1.03252e+08
-1.03371e+08
-1.00318e+08
-9.43497e+07
-8.59239e+07
-7.56344e+07
-6.41484e+07
-5.21501e+07
-4.02937e+07
-2.91671e+07
-1.92605e+07
-1.09393e+07
-4.4208e+06
238838
3.14361e+06
4.53595e+06
4.75535e+06
4.1838e+06
3.1894e+06
2.08006e+06
1.07582e+06
301933
-200232
-451347
-508442
-441429
-315486
-180633
-68002.8
8817.68
49462.7
61436.4
55228.4
40753.6
25376.8
13332.3
6107.57
3304.56
3578.51
5395.4
7502.72
9121.52
9934.22
9961.15
9406.74
8527.98
7548.68
6620.74
5820.51
5165.4
4636.85
4201.3
3824.89
3481.27
3154.24
2836.79
2528.8
2234.29
1959.18
1709.61
1490.99
1307.41
1161.42
1053.9
984.035
949.238
945.165
965.809
1003.76
1050.7
1098.06
1137.93
1163.91
1171.97
1161.02
1133.04
1092.85
1047.27
1004
970.165
950.946
948.488
961.304
984.362
1009.86
1028.52
1031.25
1010.75
962.801
887.127
787.56
671.633
549.645
433.308
334.132
261.698
222.035
216.399
240.716
285.964
339.532
387.38
416.56
417.5
385.539
321.399
230.654
122.554
8.60752
-98.7356
-187.289
-246.39
-268.407
-250.424
-195.674
-114.032
-20.9834
65.074
126.628
150.801
131.81
71.4608
-22.3636
-138.658
-265.787
-391.599
-503.025
-587.93
-635.227
-633.56
-582.015
-499.866
-400.197
-282.185
-197.94
-203.814
-188.021
-127.829
-387.985
-759.59
-287.314
-134.331
-1980.54
-977.465
4587.84
-143.472
-9507.65
14761.8
29716.2
-42624.4
-23142.9
186325
12671.7
-411445
452263
1.1455e+06
-1.6631e+06
-1.4339e+06
6.69312e+06
880411
-1.77386e+07
1.43963e+07
4.81502e+07
-5.51788e+07
-4.55763e+07
3.36267e+08
1.60978e+08
-8.60249e+06
-5.26818e+06
-664980
-104728
-17552.5
-2922.67
-484.393
-80.1732
-13.2656
-2.19482
-0.363132
-0.0600802
-0.00993969
-0.0016446
-0.000271483
-4.46128e-05
-7.88503e-06
-1.25819e-06
7.57234e-08
-1.51176e-08
1.75846e-07
1.13441e-07
1.95493e-07
9.27763e-08
-5.82172e-07
-3.25754e-07
5.98232e-08
4.41575e-07
-1.24846e-07
-3.85476e-07
2.05542e-07
3.82156e-08
8.03565e-07
-2.66704e-07
-8.14682e-08
2.61741e-07
-4.50634e-08
-8.63335e-08
7.98898e-07
7.06632e-12
1.09981e-06
2.09222e-07
2.00338e-07
8.92644e-07
1.8172e-07
1.02928e-07
-6.94288e-08
-1.54515e-07
2.9614e-07
-3.05764e-07
-2.73622e-07
2.03947e-07
-3.50594e-08
5.71179e-07
9.97334e-07
7.36209e-08
1.81543e-08
3.72488e-07
-9.15213e-07
-6.94756e-08
2.13166e-07
-6.12309e-08
1.52672e-07
5.22667e-07
-6.05269e-07
-6.18001e-07
5.02703e-07
-2.19954e-07
-3.48519e-08
-1.51016e-08
9.23315e-07
-6.01006e-07
-6.70611e-07
-3.61599e-07
-1.3959e-07
-2.55597e-07
9.84246e-08
-1.16096e-07
2.29317e-08
-2.57208e-07
-8.0246e-07
1.08746e-07
4.80577e-07
5.45695e-07
1.36989e-07
-2.12894e-07
-2.48441e-07
-4.23527e-07
-9.68163e-08
-1.17676e-07
-1.91656e-08
1.22099e-08
-2.41134e-07
-2.14086e-07
2.70265e-07
-4.30291e-08
-4.14537e-07
1.44913e-07
-4.13865e-07
7.76954e-07
5.43963e-07
-5.39949e-08
-8.12804e-08
1.21735e-06
1.98288e-07
1.1009e-08
6.06376e-07
5.46283e-07
-2.52805e-08
1.68473e-07
2.58731e-07
3.42511e-07
-1.13852e-07
-5.3118e-07
-6.01812e-07
-1.16543e-06
-2.8146e-07
-3.07647e-08
1.10735e-07
3.75416e-07
2.36716e-07
-3.4095e-07
5.56959e-07
-1.88717e-07
-1.78746e-08
7.11383e-08
-2.31366e-07
5.52854e-07
4.52725e-07
-2.62066e-07
-2.9084e-07
-2.96015e-07
-9.95934e-08
-3.16041e-07
-2.62766e-07
-2.78275e-08
-7.8953e-08
-4.22095e-07
-3.10386e-07
-9.3636e-08
2.00959e-07
2.7809e-08
-4.77636e-07
-2.10977e-09
)
;

boundaryField
{
    sides
    {
        type            calculated;
        value           nonuniform List<scalar> 2(-2.10977e-09 9.07693e-07);
    }
    empty
    {
        type            empty;
    }
}


// ************************************************************************* //
