/*--------------------------------*- C++ -*----------------------------------*\
  =========                 |
  \\      /  F ield         | OpenFOAM: The Open Source CFD Toolbox
   \\    /   O peration     | Website:  https://openfoam.org
    \\  /    A nd           | Version:  13
     \\/     M anipulation  |
\*---------------------------------------------------------------------------*/
FoamFile
{
    format      ascii;
    class       volScalarField;
    location    "0.0065";
    object      CrankNicolson:ddt0(p);
}
// * * * * * * * * * * * * * * * * * * * * * * * * * * * * * * * * * * * * * //

dimensions      [1 -1 -3 0 0 0 0];

internalField   nonuniform List<scalar> 
1000
(
-1.53542e-06
-7.27454e-06
3.93518e-06
2.08214e-06
5.51972e-07
8.06929e-07
4.55444e-06
3.93137e-06
-1.64025e-06
-2.53863e-06
-4.35649e-06
6.42166e-06
-3.75299e-07
-1.72482e-06
4.10767e-06
-4.49839e-06
6.01569e-07
-5.44569e-07
4.06541e-07
-3.67596e-06
-2.2086e-07
3.08658e-06
-5.45824e-06
6.96776e-06
-9.98176e-07
-9.05065e-07
1.06871e-06
-1.22214e-06
-1.92039e-06
1.5513e-06
-3.07381e-06
8.08403e-08
7.81751e-07
5.27686e-07
-1.38475e-07
-7.09973e-07
7.09856e-06
2.32454e-06
9.71811e-07
4.38261e-06
-4.82404e-06
6.27714e-06
6.77807e-06
1.59725e-06
7.6365e-06
2.82859e-06
6.24405e-07
-5.82267e-06
-5.26549e-07
1.92741e-06
-5.15566e-07
-7.54635e-06
6.45511e-06
-3.40416e-06
3.28809e-06
-1.39122e-06
6.68109e-06
5.14267e-06
3.03175e-06
1.11241e-06
1.88916e-08
-3.61254e-06
-4.94748e-06
-3.2574e-06
-6.92665e-09
1.45454e-07
2.67103e-07
-9.2858e-06
3.16009e-06
1.27893e-06
1.06278e-06
1.02304e-06
5.89541e-06
3.72366e-07
-4.18029e-07
-4.65517e-06
3.36768e-07
5.45762e-07
-5.50826e-07
-2.73038e-06
3.41726e-06
-4.61377e-08
1.01468e-06
2.19031e-06
6.08444e-06
5.71063e-06
2.20357e-06
-5.32482e-06
1.35785e-06
2.62616e-07
-2.17879e-06
1.45519e-06
5.43299e-07
1.70783e-07
-3.45821e-06
1.05391e-06
2.72852e-06
-3.64085e-06
1.27728e-06
1.38995e-06
-1.15727e-06
-5.5842e-06
4.6502e-06
-1.27466e-07
-1.30988e-06
-1.55558e-08
2.18373e-06
1.46162e-06
2.55305e-06
-1.38498e-06
-1.04716e-06
-5.28631e-07
-2.51558e-06
-2.65834e-06
4.40589e-06
-3.65957e-06
4.19263e-06
1.02989e-05
-1.51819e-06
-4.23779e-07
3.14176e-06
-9.81673e-06
8.27147e-07
9.30479e-07
3.02188e-07
-2.79586e-06
-4.37479e-06
-1.47937e-06
9.456e-06
3.69983e-07
-4.50866e-06
-6.2632e-06
8.05135e-07
-2.1418e-07
-4.4524e-07
9.44315e-08
-1.36312e-06
-3.52038e-06
2.02351e-06
-2.55905e-06
6.31022e-06
3.31494e-06
1.99156e-06
5.37274e-06
8.21545e-07
9.45111e-07
-1.70279e-06
-3.91945e-06
-4.30186e-06
1.36424e-06
8.10132e-07
-8.62993e-08
-3.34142e-06
-4.22716e-07
-3.34223e-06
-1.47262e-06
-1.78775e-06
-5.24481e-07
8.49879e-06
6.79366e-06
-2.86484e-06
3.75952e-06
-6.52669e-06
5.6744e-06
-2.60481e-06
3.75341e-06
1.35106e-06
-3.24876e-06
-1.25818e-06
-1.64631e-07
-1.40883e-06
-7.50083e-06
1.83654e-06
4.91537e-06
2.21784e-08
-6.87864e-08
-4.7372e-06
-2.38685e-06
-1.50678e-06
-6.62402e-07
3.27866e-06
-3.03244e-06
-1.51791e-06
-4.00842e-06
1.28463e-06
-1.55652e-06
-1.57397e-06
-4.16078e-06
3.77543e-07
-8.38919e-06
4.12865e-07
-6.81376e-06
-9.76619e-06
-2.89129e-05
-5.27628e-05
-9.88062e-05
-0.000203541
-0.000393326
-0.000773128
-0.00149135
-0.00287237
-0.00549129
-0.010452
-0.0197152
-0.0369684
-0.068858
-0.127376
-0.233976
-0.426763
-0.772842
-1.3894
-2.47945
-4.39156
-7.71917
-13.4634
-23.2979
-39.9944
-68.0987
-114.994
-192.547
-319.638
-525.974
-857.784
-1386.17
-2219.2
-3519.05
-5525.94
-8590.86
-13219.3
-20128.2
-30318.2
-45162
-66508.2
-96796.9
-139179
-197629
-277024
-383173
-522759
-703157
-932108
-1.21722e+06
-1.56532e+06
-1.98166e+06
-2.46911e+06
-3.02738e+06
-3.65247e+06
-4.33644e+06
-5.06756e+06
-5.83101e+06
-6.60984e+06
-7.38628e+06
-8.14306e+06
-8.86462e+06
-9.53802e+06
-1.01538e+07
-1.07073e+07
-1.11976e+07
-1.16264e+07
-1.1997e+07
-1.23138e+07
-1.25819e+07
-1.28064e+07
-1.29923e+07
-1.31442e+07
-1.32663e+07
-1.33626e+07
-1.34365e+07
-1.34909e+07
-1.35283e+07
-1.35512e+07
-1.35614e+07
-1.35605e+07
-1.35501e+07
-1.35313e+07
-1.35051e+07
-1.34726e+07
-1.34344e+07
-1.33911e+07
-1.33435e+07
-1.32919e+07
-1.32367e+07
-1.31784e+07
-1.31172e+07
-1.30534e+07
-1.29872e+07
-1.29189e+07
-1.28485e+07
-1.27764e+07
-1.27025e+07
-1.26271e+07
-1.25502e+07
-1.2472e+07
-1.23926e+07
-1.23119e+07
-1.22303e+07
-1.21476e+07
-1.2064e+07
-1.19795e+07
-1.18943e+07
-1.18083e+07
-1.17217e+07
-1.16345e+07
-1.15468e+07
-1.14585e+07
-1.13699e+07
-1.12808e+07
-1.11915e+07
-1.11018e+07
-1.10119e+07
-1.09218e+07
-1.08315e+07
-1.07411e+07
-1.06506e+07
-1.05601e+07
-1.04696e+07
-1.03791e+07
-1.02886e+07
-1.01983e+07
-1.0108e+07
-1.00178e+07
-9.92785e+06
-9.83803e+06
-9.74842e+06
-9.65902e+06
-9.56985e+06
-9.48094e+06
-9.39229e+06
-9.30393e+06
-9.21586e+06
-9.12811e+06
-9.04067e+06
-8.95357e+06
-8.86681e+06
-8.7804e+06
-8.69435e+06
-8.60867e+06
-8.52337e+06
-8.43846e+06
-8.35393e+06
-8.2698e+06
-8.18607e+06
-8.10275e+06
-8.01985e+06
-7.93735e+06
-7.85528e+06
-7.77363e+06
-7.69241e+06
-7.61162e+06
-7.53126e+06
-7.45133e+06
-7.37185e+06
-7.2928e+06
-7.21419e+06
-7.13602e+06
-7.0583e+06
-6.98103e+06
-6.9042e+06
-6.82782e+06
-6.75188e+06
-6.6764e+06
-6.60136e+06
-6.52677e+06
-6.45264e+06
-6.37895e+06
-6.30571e+06
-6.23292e+06
-6.16058e+06
-6.08869e+06
-6.01725e+06
-5.94626e+06
-5.87572e+06
-5.80562e+06
-5.73597e+06
-5.66677e+06
-5.59801e+06
-5.5297e+06
-5.46183e+06
-5.39441e+06
-5.32742e+06
-5.26088e+06
-5.19478e+06
-5.12911e+06
-5.06389e+06
-4.9991e+06
-4.93474e+06
-4.87082e+06
-4.80733e+06
-4.74428e+06
-4.68165e+06
-4.61946e+06
-4.55769e+06
-4.49634e+06
-4.43543e+06
-4.37493e+06
-4.31486e+06
-4.2552e+06
-4.19597e+06
-4.13715e+06
-4.07875e+06
-4.02077e+06
-3.96319e+06
-3.90603e+06
-3.84928e+06
-3.79293e+06
-3.73699e+06
-3.68146e+06
-3.62633e+06
-3.5716e+06
-3.51727e+06
-3.46334e+06
-3.4098e+06
-3.35666e+06
-3.30391e+06
-3.25156e+06
-3.19959e+06
-3.14801e+06
-3.09682e+06
-3.04601e+06
-2.99558e+06
-2.94554e+06
-2.89588e+06
-2.84659e+06
-2.79768e+06
-2.74914e+06
-2.70098e+06
-2.65318e+06
-2.60576e+06
-2.5587e+06
-2.51201e+06
-2.46568e+06
-2.41972e+06
-2.37411e+06
-2.32886e+06
-2.28397e+06
-2.23944e+06
-2.19526e+06
-2.15143e+06
-2.10795e+06
-2.06482e+06
-2.02203e+06
-1.97959e+06
-1.93749e+06
-1.89574e+06
-1.85432e+06
-1.81324e+06
-1.7725e+06
-1.73209e+06
-1.69202e+06
-1.65227e+06
-1.61285e+06
-1.57377e+06
-1.535e+06
-1.49656e+06
-1.45845e+06
-1.42065e+06
-1.38317e+06
-1.34601e+06
-1.30916e+06
-1.27263e+06
-1.2364e+06
-1.20049e+06
-1.16488e+06
-1.12958e+06
-1.09458e+06
-1.05988e+06
-1.02548e+06
-991379
-957570
-924052
-890823
-857880
-825219
-792839
-760734
-728902
-697338
-666037
-634994
-604204
-573659
-543354
-513280
-483427
-453786
-424344
-395089
-366005
-337077
-308284
-279607
-251023
-222508
-194035
-165578
-137114
-108619
-80080.7
-51494.7
-22878.3
5722.84
34219.8
62463.3
90220.5
117149
142766
166418
187261
204252
216176
221724
219639
208928
189132
160602
124673
83729.1
41124.4
770.91
-33483.9
-58541
-72593.8
-75377.5
-68081
-52996.3
-33045.5
-11323.2
9259.19
26166.1
37377.5
41479.2
37718.2
26052.5
7207.75
-17270.1
-45002.2
-72858.3
-97188.4
-114230
-120644
-114024
-93596.1
-60598.4
-18262.9
28636.6
74557.8
114067
142598
156956
155535
138182
106317
62803.5
11744.1
-41784.8
-92113.7
-133502
-160806
-170215
-159905
-130449
-85142.7
-29675.4
28696.6
82302
124255
149442
155129
141130
109653
65080.4
13399.2
-38526.9
-83809.6
-116435
-132112
-128935
-107670
-71784.5
-26982.4
19731.6
61237.8
91480.5
106403
104483
86797.1
56773.2
19621.4
-18521.7
-51572.5
-74465.4
-83955.1
-79119.8
-61441.1
-34550.6
-3544.22
25983.6
48977.2
61811.2
62869
52711.4
33864.9
10289.3
-13410.3
-32858.6
-44713.9
-47251.6
-40617.3
-26712
-8751.14
9443.66
24248.7
32962.6
34300.1
28561.4
17472
3744.5
-9547.85
-19640.8
-24648.3
-23912.8
-18068.5
-8823.57
1487.39
10470.6
16220.4
17719.4
15006.9
9091.32
1645.7
-5435.44
-10503.2
-12531.7
-11319.3
-7473.79
-2200.9
3044.4
6945.16
8646.25
7935.16
5242.33
1475.03
-2262.37
-4979.34
-6055.43
-5375.94
-3318.08
-602.667
1938.83
3609.23
4031.75
3227.99
1573.52
-346.468
-1931.19
-2745.95
-2637.2
-1751.27
-458.629
784.956
1591.55
1758.18
1313.12
481.958
-408.481
-1051.09
-1260.88
-1025.17
-488.473
116.921
565.144
719.511
574.512
245.07
-88.3309
-254.288
-155.061
202.511
718.9
1248.84
1662.07
1890.92
1942.55
1869.91
1718.48
1484.2
1114.34
555.342
-192.853
-1054.51
-1915.88
-2686.64
-3329.31
-3834.85
-4175.29
-4283.16
-4078.2
-3516.64
-2627.87
-1511.8
-319.1
782.538
1642.64
2156.27
2286.13
2071.15
1613.13
1043.63
485.477
25.0172
-296.294
-475.277
-533.697
-505.291
-426.175
-328.526
-236.727
-165.663
-121.037
-101.321
-100.559
-111.165
-126.074
-139.988
-149.77
-154.263
-153.795
-149.617
-143.397
-136.83
-131.376
-128.09
-127.558
-129.905
-134.88
-141.99
-150.658
-160.359
-170.701
-181.449
-192.476
-203.69
-214.953
-226.029
-236.587
-246.243
-254.652
-261.6
-267.085
-271.352
-274.877
-278.292
-282.266
-287.365
-293.929
-301.977
-311.187
-320.943
-330.45
-338.892
-345.578
-350.059
-352.173
-352.029
-349.944
-346.364
-341.819
-336.897
-332.257
-328.633
-326.821
-327.613
-331.697
-339.549
-351.341
-366.9
-385.725
-407.04
-429.878
-453.16
-475.778
-496.688
-515.017
-530.203
-542.122
-551.182
-558.317
-564.86
-572.294
-581.936
-594.633
-610.564
-629.212
-649.526
-670.218
-690.122
-708.496
-725.172
-740.534
-755.313
-770.285
-785.963
-802.398
-819.137
-835.361
-850.14
-862.711
-872.708
-880.416
-886.948
-894.038
-903.612
-917.71
-937.946
-964.038
-994.641
-1030.29
-1070.36
-1110.43
-1156.35
-1220.95
-1279.5
-1300.34
-1343.07
-1406.57
-1281.08
-1120.19
-1472.45
-1609.26
-547.163
-995.145
-3552.13
395.046
7059.64
-4960.74
-9726.4
34610
24871.2
-83761.5
37346.4
286687
-186467
-481919
1.19235e+06
1.00424e+06
-3.38718e+06
597585
1.07932e+07
-7.03479e+06
-2.24006e+07
4.30428e+07
4.59012e+07
-1.43568e+08
1.96288e+07
6.14045e+08
4.26627e+08
1.07706e+08
1.9396e+07
3.16781e+06
521182
86147.7
14251.1
2357.78
390.092
64.5405
10.6782
1.76669
0.292296
0.0483599
0.00800145
0.00132353
0.000218987
3.77839e-05
6.47012e-06
4.37231e-07
-1.27043e-07
-5.45255e-07
-8.54412e-07
1.7106e-07
9.57397e-08
5.54372e-08
-4.01769e-07
-1.03151e-06
-2.78827e-08
-7.30057e-07
-6.38972e-07
-1.37499e-07
-2.13459e-07
2.86496e-07
2.17528e-08
-8.16027e-07
-1.84336e-07
3.55515e-07
2.43021e-07
-2.72684e-07
-6.81715e-08
9.37389e-07
-1.26317e-06
1.12286e-06
-5.8384e-08
2.74453e-08
-4.39128e-07
1.35323e-07
-2.88521e-07
-3.29726e-08
-1.65077e-07
2.16979e-09
1.24172e-07
1.95434e-09
-2.11921e-10
-5.99356e-07
-6.51258e-07
-2.01999e-07
-6.42677e-07
-4.19965e-07
6.28016e-07
-1.00236e-07
-5.95519e-08
1.18154e-08
6.37371e-08
6.27328e-07
3.22937e-07
6.22652e-08
-8.27601e-08
6.84266e-07
-1.02753e-07
-5.76084e-08
5.4492e-07
1.26738e-06
-9.32827e-08
-1.37665e-08
-3.50315e-08
-1.70287e-07
5.77881e-07
-3.15662e-07
1.36578e-07
-1.34689e-07
-8.2707e-07
7.61443e-08
2.13266e-09
-1.36451e-07
1.03784e-07
3.4999e-07
4.68891e-07
2.89535e-07
1.97677e-07
5.22447e-09
1.49631e-08
-1.71665e-07
1.92077e-07
4.50137e-07
-2.30568e-07
1.41949e-07
-1.95732e-07
-5.10067e-07
-1.23994e-06
-1.94407e-07
-1.64155e-07
-6.47925e-07
-9.95816e-07
-1.93512e-07
-2.61899e-08
-8.46585e-07
-5.08188e-07
-1.17262e-07
5.44012e-07
-1.73884e-09
4.18399e-07
8.42272e-07
1.77507e-06
3.84017e-07
1.14684e-06
2.38645e-07
5.06755e-07
9.442e-07
4.70019e-07
5.25571e-07
2.1826e-07
1.49286e-06
4.86505e-07
1.64109e-06
9.94692e-08
1.51354e-07
-7.51252e-07
-2.9506e-07
-9.93558e-07
-6.43408e-07
-2.10488e-07
-3.53204e-07
-8.45583e-07
5.17226e-08
-1.46864e-07
-2.17976e-07
-2.21223e-07
-9.39752e-07
1.94677e-07
5.08416e-07
-2.65829e-09
-1.36314e-07
-1.03887e-09
)
;

boundaryField
{
    sides
    {
        type            calculated;
        value           nonuniform List<scalar> 2(-1.03887e-09 -1.53542e-06);
    }
    empty
    {
        type            empty;
    }
}


// ************************************************************************* //
