/*--------------------------------*- C++ -*----------------------------------*\
  =========                 |
  \\      /  F ield         | OpenFOAM: The Open Source CFD Toolbox
   \\    /   O peration     | Website:  https://openfoam.org
    \\  /    A nd           | Version:  13
     \\/     M anipulation  |
\*---------------------------------------------------------------------------*/
FoamFile
{
    format      ascii;
    class       volScalarField;
    location    "0.0065";
    object      p;
}
// * * * * * * * * * * * * * * * * * * * * * * * * * * * * * * * * * * * * * //

dimensions      [1 -1 -2 0 0 0 0];

internalField   nonuniform List<scalar> 
1000
(
100000
100000
100000
100000
100000
100000
100000
100000
100000
100000
100000
100000
100000
100000
100000
100000
100000
100000
100000
100000
100000
100000
100000
100000
100000
100000
100000
100000
100000
100000
100000
100000
100000
100000
100000
100000
100000
100000
100000
100000
100000
100000
100000
100000
100000
100000
100000
100000
100000
100000
100000
100000
100000
100000
100000
100000
100000
100000
100000
100000
100000
100000
100000
100000
100000
100000
100000
100000
100000
100000
100000
100000
100000
100000
100000
100000
100000
100000
100000
100000
100000
100000
100000
100000
100000
100000
100000
100000
100000
100000
100000
100000
100000
100000
100000
100000
100000
100000
100000
100000
100000
100000
100000
100000
100000
100000
100000
100000
100000
100000
100000
100000
100000
100000
100000
100000
100000
100000
100000
100000
100000
100000
100000
100000
100000
100000
100000
100000
100000
100000
100000
100000
100000
100000
100000
100000
100000
100000
100000
100000
100000
100000
100000
100000
100000
100000
100000
100000
100000
100000
100000
100000
100000
100000
100000
100000
100000
100000
100000
100000
100000
100000
100000
100000
100000
100000
100000
100000
100000
100000
100000
100000
100000
100000
100000
100000
100000
100000
100000
100000
100000
100000
100000
100000
100000
100000
100000
100000
100000
100000
100000
100000
100000
100000
100000
100000
100000
100000
100000
100000
100000
100000
100000
100000
100000
100000
100000
100000
100000
100000
100000
100000
100000
100000
100000
100000
100000
100000
100000
100000
100000
100000
99999.9
99999.9
99999.9
99999.8
99999.6
99999.4
99999.1
99998.6
99997.8
99996.6
99995
99992.5
99988.9
99983.9
99976.8
99967
99953.5
99935.4
99911.4
99879.9
99839.4
99788
99723.8
99644.8
99549.3
99435.7
99302.5
99148.7
98973.9
98778
98561.3
98324.5
98068.9
97795.9
97506.9
97203.6
96887.5
96560.2
96222.9
95877
95523.6
95163.7
94798.3
94427.9
94053.5
93675.5
93294.5
92910.9
92525.1
92137.5
91748.3
91357.9
90966.4
90574
90181
89787.4
89393.4
88999.2
88604.8
88210.4
87816
87421.8
87027.8
86634
86240.6
85847.6
85455
85063
84671.5
84280.7
83890.5
83501
83112.2
82724.2
82337.1
81950.8
81565.4
81180.9
80797.3
80414.7
80033.1
79652.6
79273.1
78894.6
78517.3
78141.1
77766
77392
77019.2
76647.6
76277.2
75908
75540.1
75173.3
74807.8
74443.6
74080.6
73718.9
73358.5
72999.4
72641.6
72285
71929.8
71575.9
71223.3
70872
70522
70173.4
69826
69480.1
69135.4
68792.1
68450.1
68109.4
67770.1
67432.1
67095.4
66760.1
66426.1
66093.5
65762.2
65432.2
65103.6
64776.2
64450.2
64125.6
63802.3
63480.2
63159.6
62840.2
62522.2
62205.4
61890
61575.9
61263.1
60951.7
60641.5
60332.6
60025.1
59718.8
59413.8
59110.1
58807.7
58506.6
58206.8
57908.3
57611
57315
57020.3
56726.8
56434.7
56143.7
55854.1
55565.7
55278.5
54992.6
54707.9
54424.5
54142.3
53861.4
53581.7
53303.2
53025.9
52749.9
52475
52201.4
51929
51657.9
51387.9
51119.1
50851.5
50585.1
50319.9
50055.9
49793
49531.4
49270.9
49011.6
48753.5
48496.5
48240.7
47986
47732.6
47480.2
47229
46979
46730.1
46482.3
46235.7
45990.2
45745.8
45502.5
45260.4
45019.4
44779.5
44540.7
44303
44066.5
43831
43596.6
43363.4
43131.2
42900.1
42670.1
42441.2
42213.4
41986.6
41760.9
41536.3
41312.8
41090.3
40868.9
40648.6
40429.3
40211.1
39993.9
39777.8
39562.8
39348.8
39135.8
38923.9
38713.1
38503.3
38294.5
38086.8
37880.1
37674.5
37469.9
37266.4
37063.9
36862.4
36662
36462.6
36264.3
36067
35870.8
35675.7
35481.6
35288.6
35096.6
34905.7
34715.9
34527.3
34339.7
34153.2
33967.8
33783.6
33600.6
33418.7
33238.1
33058.7
32880.5
32703.6
32528
32353.8
32181
32009.6
31839.8
31671.6
31505.1
31340.3
31177.5
31016.7
30858
30701.7
30548
30397
30249.2
30104.8
29964.2
29827.9
29696.5
29570.6
29450.9
29338.5
29234.3
29139.7
29056
28985.1
28928.9
28889.6
28869.7
28871.9
28899.1
28954.3
29040
29158.3
29310.6
29496.5
29713.8
29957.6
30219.8
30489.7
30753.5
30995.7
31200.5
31353.5
31443.8
31465.6
31419
31309.8
31148.7
30949.5
30727.8
30499.1
30278.1
30077.7
29908.8
29779.7
29696.6
29663
29679.7
29745
29853.9
29998.7
30168.4
30349.9
30528.5
30688.8
30817.3
30902.9
30939.3
30925.5
30865.5
30768.1
30645.2
30510.2
30376.7
30257.2
30162.1
30098.7
30071.5
30080.9
30124.2
30195.3
30285.4
30383.9
30479.8
30562.3
30622.7
30655.2
30657.9
30632.4
30584.1
30520.5
30450.6
30383.4
30327.1
30287.8
30269.1
30271.8
30294.2
30331.7
30378.3
30427.1
30471.3
30504.9
30524.2
30527.4
30515.6
30491.7
30460.2
30426.7
30396.1
30372.8
30359.8
30358.2
30367
30384.2
30406.1
30428.8
30448.6
30462.4
30468.6
30466.8
30458.1
30444.6
30429.3
30414.8
30403.8
30397.8
30397.4
30402
30410.4
30420.6
30430.5
30438.3
30442.7
30443.2
30440.1
30434.5
30427.7
30421.2
30416.3
30413.8
30414
30416.5
30420.5
30425
30429.1
30431.8
30432.7
30431.9
30429.7
30426.8
30424
30421.8
30420.7
30420.8
30422
30423.8
30425.7
30427.3
30428.2
30428.3
30427.6
30426.5
30425.2
30424.2
30423.6
30423.6
30424
30424.7
30425.6
30426.2
30426.5
30426.5
30426.2
30425.7
30425.2
30424.8
30424.7
30424.8
30425.1
30425.4
30425.7
30425.9
30425.9
30425.8
30425.6
30425.4
30425.3
30425.2
30425.3
30425.4
30425.6
30425.6
30425.7
30425.6
30425.6
30425.5
30425.5
30425.4
30425.5
30425.5
30425.5
30425.5
30425.5
30425.4
30425.3
30425.3
30425.2
30425.2
30425.1
30425.1
30425
30425
30425
30425.1
30425.2
30425.3
30425.4
30425.5
30425.7
30425.8
30426
30426.1
30426.2
30426.2
30426.2
30426.2
30426.1
30426
30425.9
30425.9
30425.8
30425.8
30425.7
30425.7
30425.7
30425.8
30425.8
30425.8
30425.8
30425.8
30425.8
30425.8
30425.8
30425.8
30425.8
30425.8
30425.8
30425.8
30425.8
30425.8
30425.8
30425.8
30425.8
30425.8
30425.9
30425.9
30425.9
30425.9
30425.9
30425.9
30425.9
30425.9
30425.9
30425.9
30425.9
30425.9
30425.9
30425.9
30425.9
30425.9
30425.9
30425.9
30425.9
30425.9
30425.9
30425.9
30425.9
30425.9
30425.9
30425.9
30425.9
30425.9
30425.9
30426
30426
30426
30426
30426
30426
30426
30426
30426
30426
30426
30426
30426
30426
30426.1
30426.1
30426.1
30426.1
30426.1
30426.1
30426.1
30426.1
30426.1
30426.1
30426.1
30426.1
30426.1
30426.1
30426.1
30426.2
30426.2
30426.2
30426.2
30426.2
30426.2
30426.2
30426.2
30426.2
30426.2
30426.2
30426.2
30426.3
30426.3
30426.3
30426.3
30426.3
30426.3
30426.3
30426.3
30426.3
30426.4
30426.4
30426.4
30426.4
30426.4
30426.5
30426.5
30426.5
30426.5
30426.5
30426.6
30426.6
30426.6
30426.6
30426.6
30426.6
30426.6
30426.7
30426.7
30426.7
30426.7
30426.7
30426.8
30426.7
30426.6
30426.7
30426.9
30426.5
30426
30427
30426.6
30422.2
30423.8
30431.4
30416.2
30398.3
30443.3
30444.8
30286.8
30351.2
30688.7
30144.8
29353.8
31244.7
31346.4
22075.6
13420.5
10645.1
10107.5
10017.6
10002.9
10000.5
10000.1
10000
10000
10000
10000
10000
10000
10000
10000
10000
10000
10000
10000
10000
10000
10000
10000
10000
10000
10000
10000
10000
10000
10000
10000
10000
10000
10000
10000
10000
10000
10000
10000
10000
10000
10000
10000
10000
10000
10000
10000
10000
10000
10000
10000
10000
10000
10000
10000
10000
10000
10000
10000
10000
10000
10000
10000
10000
10000
10000
10000
10000
10000
10000
10000
10000
10000
10000
10000
10000
10000
10000
10000
10000
10000
10000
10000
10000
10000
10000
10000
10000
10000
10000
10000
10000
10000
10000
10000
10000
10000
10000
10000
10000
10000
10000
10000
10000
10000
10000
10000
10000
10000
10000
10000
10000
10000
10000
10000
10000
10000
10000
10000
10000
10000
10000
10000
10000
10000
10000
10000
10000
10000
10000
10000
10000
10000
10000
10000
10000
10000
10000
10000
10000
10000
10000
10000
10000
)
;

boundaryField
{
    sides
    {
        type            zeroGradient;
    }
    empty
    {
        type            empty;
    }
}


// ************************************************************************* //
