/*--------------------------------*- C++ -*----------------------------------*\
  =========                 |
  \\      /  F ield         | OpenFOAM: The Open Source CFD Toolbox
   \\    /   O peration     | Website:  https://openfoam.org
    \\  /    A nd           | Version:  13
     \\/     M anipulation  |
\*---------------------------------------------------------------------------*/
FoamFile
{
    format      ascii;
    class       surfaceScalarField;
    location    "0.0065";
    object      phi;
}
// * * * * * * * * * * * * * * * * * * * * * * * * * * * * * * * * * * * * * //

dimensions      [1 0 -1 0 0 0 0];

internalField   nonuniform List<scalar> 
999
(
-1.10476e-11
-9.30865e-12
-8.85796e-12
-8.93096e-12
-1.03032e-11
-1.07045e-11
-1.23969e-11
-1.29623e-11
-1.25837e-11
-1.21796e-11
-1.13799e-11
-1.16748e-11
-1.18837e-11
-1.25317e-11
-1.22491e-11
-1.12581e-11
-1.08395e-11
-1.13839e-11
-1.19825e-11
-1.11383e-11
-1.14767e-11
-1.05114e-11
-1.10601e-11
-1.18798e-11
-1.27558e-11
-1.19528e-11
-1.11924e-11
-1.05816e-11
-9.88809e-12
-9.69607e-12
-1.03779e-11
-9.97645e-12
-1.03396e-11
-1.0872e-11
-1.11175e-11
-1.12777e-11
-1.11511e-11
-1.15809e-11
-1.07871e-11
-1.11733e-11
-1.0595e-11
-1.15458e-11
-1.2041e-11
-1.21073e-11
-1.3479e-11
-1.49566e-11
-1.54437e-11
-1.42691e-11
-1.35055e-11
-1.24895e-11
-1.21208e-11
-1.15367e-11
-1.21409e-11
-1.15967e-11
-1.24229e-11
-1.21284e-11
-1.24542e-11
-1.32086e-11
-1.34658e-11
-1.38352e-11
-1.46416e-11
-1.38413e-11
-1.3864e-11
-1.30479e-11
-1.20741e-11
-1.27133e-11
-1.25951e-11
-1.10518e-11
-1.23715e-11
-1.15243e-11
-1.16251e-11
-1.22396e-11
-1.21097e-11
-1.35972e-11
-1.34929e-11
-1.27869e-11
-1.24948e-11
-1.10847e-11
-1.18938e-11
-1.21889e-11
-1.28079e-11
-1.13583e-11
-1.08511e-11
-1.20394e-11
-1.28806e-11
-1.22688e-11
-1.20387e-11
-1.23384e-11
-1.19963e-11
-1.31949e-11
-1.175e-11
-1.15915e-11
-1.19445e-11
-1.22964e-11
-1.19356e-11
-1.14495e-11
-1.25265e-11
-1.25377e-11
-1.17689e-11
-1.18328e-11
-1.14385e-11
-1.10985e-11
-1.21233e-11
-1.18902e-11
-1.25313e-11
-1.38847e-11
-1.4417e-11
-1.38582e-11
-1.53536e-11
-1.51345e-11
-1.63618e-11
-1.58626e-11
-1.49815e-11
-1.55903e-11
-1.59273e-11
-1.56048e-11
-1.65083e-11
-1.67146e-11
-1.62086e-11
-1.65093e-11
-1.57284e-11
-1.45989e-11
-1.41487e-11
-1.37802e-11
-1.37116e-11
-1.35734e-11
-1.34936e-11
-1.27863e-11
-1.2805e-11
-1.2623e-11
-1.22815e-11
-1.1964e-11
-1.13193e-11
-1.19568e-11
-1.11848e-11
-1.02607e-11
-9.53457e-12
-9.12997e-12
-9.97282e-12
-1.07027e-11
-1.11601e-11
-1.1243e-11
-1.25779e-11
-1.33514e-11
-1.22289e-11
-1.11913e-11
-1.06027e-11
-9.95686e-12
-9.53977e-12
-8.93153e-12
-7.15002e-12
-6.69108e-12
-6.77208e-12
-6.69263e-12
-6.79338e-12
-5.96377e-12
-6.3856e-12
-7.97214e-12
-8.03958e-12
-8.71975e-12
-7.595e-12
-7.27307e-12
-6.23509e-12
-6.28251e-12
-5.69517e-12
-6.80515e-12
-6.87052e-12
-6.44059e-12
-4.79798e-12
-5.05759e-12
-4.07426e-12
-2.92055e-12
-2.17201e-12
-2.3315e-12
-1.42519e-12
-1.6462e-12
-1.30073e-12
-5.35351e-13
3.53077e-13
3.10796e-13
-7.67669e-13
-8.04706e-13
-1.22197e-12
-1.09186e-12
-1.27422e-12
-8.49761e-13
-4.15334e-13
2.547e-13
1.44223e-12
2.87169e-12
3.35177e-12
5.1802e-12
9.81536e-12
1.94526e-11
3.92151e-11
7.6927e-11
1.53122e-10
2.99555e-10
5.85911e-10
1.1414e-09
2.20675e-09
4.238e-09
8.08853e-09
1.53345e-08
2.88795e-08
5.40307e-08
1.00407e-07
1.85327e-07
3.39723e-07
6.18421e-07
1.11781e-06
2.00605e-06
3.57399e-06
6.32063e-06
1.10947e-05
1.93273e-05
3.34097e-05
5.73021e-05
9.75009e-05
0.000164562
0.00027547
0.000457277
0.00075263
0.00122804
0.00198609
0.00318325
0.00505531
0.0079533
0.0123933
0.0191237
0.0292154
0.044178
0.0661077
0.0978682
0.143306
0.207492
0.296989
0.420106
0.587137
0.810527
1.10493
1.4871
1.97561
2.59029
3.35152
4.2792
5.39174
6.7049
8.23081
9.97715
11.9467
14.1373
16.5419
19.1495
21.9455
24.9133
28.0354
31.294
34.6723
38.1544
41.7257
45.373
49.0846
52.85
56.6601
60.5069
64.3835
68.2838
72.2026
76.1352
80.0779
84.027
87.9796
91.9331
95.8852
99.8339
103.777
107.714
111.642
115.561
119.47
123.367
127.251
131.122
134.979
138.821
142.648
146.458
150.252
154.029
157.788
161.529
165.252
168.955
172.64
176.304
179.949
183.573
187.177
190.76
194.321
197.862
201.38
204.877
208.352
211.804
215.234
218.642
222.026
225.388
228.727
232.043
235.336
238.605
241.852
245.074
248.274
251.45
254.602
257.731
260.836
263.918
266.976
270.01
273.021
276.009
278.972
281.912
284.829
287.722
290.592
293.438
296.26
299.06
301.836
304.588
307.318
310.024
312.707
315.367
318.005
320.619
323.21
325.778
328.324
330.847
333.348
335.825
338.281
340.714
343.124
345.513
347.879
350.223
352.545
354.845
357.124
359.38
361.615
363.828
366.02
368.19
370.339
372.467
374.573
376.658
378.722
380.766
382.788
384.79
386.771
388.731
390.671
392.59
394.489
396.368
398.227
400.065
401.884
403.682
405.461
407.22
408.96
410.679
412.38
414.061
415.723
417.365
418.989
420.593
422.178
423.745
425.293
426.822
428.333
429.825
431.299
432.754
434.191
435.61
437.011
438.394
439.759
441.107
442.436
443.748
445.043
446.32
447.579
448.822
450.047
451.255
452.446
453.62
454.778
455.918
457.042
458.149
459.24
460.315
461.373
462.415
463.44
464.45
465.444
466.421
467.383
468.329
469.26
470.175
471.074
471.958
472.827
473.68
474.519
475.342
476.15
476.943
477.722
478.486
479.235
479.969
480.689
481.395
482.086
482.763
483.426
484.074
484.709
485.33
485.937
486.53
487.109
487.675
488.227
488.765
489.291
489.803
490.301
490.787
491.259
491.719
492.165
492.599
493.02
493.428
493.823
494.206
494.577
494.935
495.28
495.614
495.935
496.244
496.541
496.826
497.099
497.36
497.609
497.847
498.072
498.287
498.489
498.68
498.86
499.028
499.185
499.331
499.465
499.587
499.699
499.799
499.888
499.965
500.031
500.086
500.129
500.161
500.182
500.19
500.187
500.173
500.147
500.11
500.062
500.003
499.935
499.858
499.775
499.687
499.596
499.507
499.422
499.345
499.28
499.229
499.195
499.178
499.177
499.19
499.213
499.242
499.272
499.298
499.319
499.332
499.336
499.332
499.321
499.305
499.287
499.271
499.259
499.255
499.261
499.278
499.306
499.344
499.389
499.437
499.482
499.519
499.543
499.549
499.537
499.507
499.46
499.402
499.338
499.274
499.217
499.173
499.146
499.14
499.155
499.191
499.243
499.307
499.374
499.438
499.49
499.523
499.535
499.522
499.488
499.437
499.376
499.311
499.253
499.206
499.178
499.171
499.184
499.216
499.261
499.313
499.364
499.406
499.434
499.444
499.435
499.409
499.37
499.325
499.281
499.243
499.218
499.207
499.212
499.231
499.258
499.29
499.32
499.343
499.356
499.355
499.343
499.321
499.293
499.265
499.24
499.223
499.216
499.218
499.228
499.243
499.259
499.273
499.281
499.281
499.274
499.261
499.244
499.226
499.21
499.199
499.193
499.192
499.196
499.201
499.206
499.209
499.208
499.202
499.193
499.181
499.168
499.156
499.146
499.139
499.134
499.132
499.13
499.127
499.123
499.116
499.107
499.096
499.083
499.071
499.059
499.048
499.038
499.029
499.02
499.01
498.999
498.986
498.971
498.955
498.938
498.92
498.902
498.883
498.865
498.845
498.824
498.801
498.776
498.748
498.718
498.686
498.651
498.614
498.574
498.53
498.482
498.43
498.371
498.304
498.225
498.128
497.998
497.816
497.545
497.131
496.497
495.536
494.108
492.045
489.152
485.225
480.068
473.518
465.473
455.919
444.944
432.743
419.613
405.924
392.094
378.55
365.692
353.869
343.354
334.332
326.899
321.062
316.744
313.8
312.034
311.209
311.079
311.404
311.971
312.609
313.197
313.666
313.987
314.168
314.236
314.226
314.173
314.106
314.043
313.996
313.967
313.953
313.952
313.957
313.965
313.973
313.979
313.983
313.986
313.987
313.987
313.988
313.989
313.989
313.991
313.992
313.993
313.995
313.996
313.997
313.998
313.999
314
314
314.001
314.002
314.002
314.003
314.003
314.004
314.004
314.004
314.005
314.005
314.005
314.005
314.006
314.006
314.006
314.006
314.007
314.007
314.007
314.007
314.008
314.008
314.008
314.008
314.009
314.009
314.009
314.009
314.01
314.01
314.01
314.01
314.011
314.011
314.011
314.011
314.012
314.012
314.012
314.012
314.013
314.013
314.013
314.013
314.014
314.014
314.014
314.014
314.014
314.015
314.015
314.015
314.015
314.016
314.016
314.016
314.016
314.017
314.017
314.017
314.017
314.018
314.018
314.018
314.018
314.019
314.019
314.019
314.02
314.02
314.02
314.02
314.021
314.021
314.021
314.022
314.022
314.022
314.022
314.023
314.023
314.023
314.024
314.024
314.025
314.025
314.025
314.026
314.026
314.027
314.027
314.027
314.028
314.027
314.026
314.029
314.027
314.015
314.024
314.042
313.989
313.953
314.089
314.029
313.588
313.929
314.731
312.885
311.436
317.073
315.964
298.317
310.803
351.948
261.85
98.4188
22.0902
3.72283
0.601985
0.0993915
0.0164506
0.00272229
0.000450424
7.45229e-05
1.23298e-05
2.03995e-06
3.37506e-07
5.58388e-08
9.23727e-09
1.5271e-09
2.5138e-10
4.02817e-11
5.91412e-12
-9.75144e-13
-1.80571e-12
-1.91449e-12
-1.78399e-12
-1.59288e-12
-1.53084e-12
-1.522e-12
-1.46481e-12
-1.2372e-12
-1.02283e-12
-9.95037e-13
-8.2607e-13
-7.4728e-13
-6.04848e-13
-4.86589e-13
-7.37819e-13
-6.98219e-13
-6.89236e-13
-6.61382e-13
-7.74373e-13
-7.18035e-13
-7.7988e-13
-8.41184e-13
-9.35003e-13
-8.40303e-13
-8.65371e-13
-9.17134e-13
-1.00467e-12
-9.8724e-13
-1.02826e-12
-9.00796e-13
-1.09088e-12
-1.05621e-12
-9.3216e-13
-9.18436e-13
-8.71563e-13
-7.79193e-13
-6.79181e-13
-7.88332e-13
-6.94588e-13
-5.5919e-13
-5.08042e-13
-4.92432e-13
-4.97207e-13
-2.9475e-13
-3.04673e-13
-3.2102e-13
-5.66481e-13
-5.97968e-13
-6.13114e-13
-6.73883e-13
-7.3901e-13
-7.81523e-13
-7.76602e-13
-7.9709e-13
-9.86643e-13
-1.232e-12
-1.25442e-12
-1.2725e-12
-1.23654e-12
-1.31095e-12
-1.20806e-12
-1.20858e-12
-1.05531e-12
-8.77916e-13
-8.25427e-13
-6.08387e-13
-6.4651e-13
-6.3568e-13
-5.56638e-13
-5.30524e-13
-6.0254e-13
-5.85485e-13
-5.84285e-13
-6.0592e-13
-6.04401e-13
-5.32513e-13
-4.47248e-13
-2.80908e-13
-1.17536e-13
-9.28171e-14
1.89213e-13
4.38363e-13
5.51142e-13
8.27437e-13
1.13777e-12
1.3184e-12
1.34667e-12
1.27829e-12
1.38676e-12
1.52368e-12
1.43996e-12
1.35967e-12
1.26836e-12
1.15924e-12
8.98891e-13
7.57638e-13
6.85901e-13
4.92828e-13
2.93854e-13
8.4611e-14
-8.10423e-14
-1.87948e-13
-3.92566e-13
-6.72696e-13
-9.13404e-13
-1.17724e-12
-1.46179e-12
-1.5908e-12
-1.69496e-12
-1.62176e-12
-1.47122e-12
-1.17694e-12
-8.98833e-13
-6.69027e-13
-4.17585e-13
-1.85182e-13
-1.50635e-13
-6.16971e-14
-1.62812e-13
-8.5339e-14
-3.41254e-14
-1.62158e-14
-1.90645e-13
-2.45163e-13
-3.07571e-13
)
;

boundaryField
{
    sides
    {
        type            calculated;
        value           nonuniform List<scalar> 2(-3.0559e-13 1.18162e-11);
    }
    empty
    {
        type            empty;
    }
}


// ************************************************************************* //
