/*--------------------------------*- C++ -*----------------------------------*\
  =========                 |
  \\      /  F ield         | OpenFOAM: The Open Source CFD Toolbox
   \\    /   O peration     | Website:  https://openfoam.org
    \\  /    A nd           | Version:  13
     \\/     M anipulation  |
\*---------------------------------------------------------------------------*/
FoamFile
{
    format      ascii;
    class       volScalarField;
    location    "0.0065";
    object      rho_0;
}
// * * * * * * * * * * * * * * * * * * * * * * * * * * * * * * * * * * * * * //

dimensions      [1 -3 0 0 0 0 0];

internalField   nonuniform List<scalar> 
1000
(
0.997575
0.997575
0.997575
0.997575
0.997575
0.997575
0.997575
0.997575
0.997575
0.997575
0.997575
0.997575
0.997575
0.997575
0.997575
0.997575
0.997575
0.997575
0.997575
0.997575
0.997575
0.997575
0.997575
0.997575
0.997575
0.997575
0.997575
0.997575
0.997575
0.997575
0.997575
0.997575
0.997575
0.997575
0.997575
0.997575
0.997575
0.997575
0.997575
0.997575
0.997575
0.997575
0.997575
0.997575
0.997575
0.997575
0.997575
0.997575
0.997575
0.997575
0.997575
0.997575
0.997575
0.997575
0.997575
0.997575
0.997575
0.997575
0.997575
0.997575
0.997575
0.997575
0.997575
0.997575
0.997575
0.997575
0.997575
0.997575
0.997575
0.997575
0.997575
0.997575
0.997575
0.997575
0.997575
0.997575
0.997575
0.997575
0.997575
0.997575
0.997575
0.997575
0.997575
0.997575
0.997575
0.997575
0.997575
0.997575
0.997575
0.997575
0.997575
0.997575
0.997575
0.997575
0.997575
0.997575
0.997575
0.997575
0.997575
0.997575
0.997575
0.997575
0.997575
0.997575
0.997575
0.997575
0.997575
0.997575
0.997575
0.997575
0.997575
0.997575
0.997575
0.997575
0.997575
0.997575
0.997575
0.997575
0.997575
0.997575
0.997575
0.997575
0.997575
0.997575
0.997575
0.997575
0.997575
0.997575
0.997575
0.997575
0.997575
0.997575
0.997575
0.997575
0.997575
0.997575
0.997575
0.997575
0.997575
0.997575
0.997575
0.997575
0.997575
0.997575
0.997575
0.997575
0.997575
0.997575
0.997575
0.997575
0.997575
0.997575
0.997575
0.997575
0.997575
0.997575
0.997575
0.997575
0.997575
0.997575
0.997575
0.997575
0.997575
0.997575
0.997575
0.997575
0.997575
0.997575
0.997575
0.997575
0.997575
0.997575
0.997575
0.997575
0.997575
0.997575
0.997575
0.997575
0.997575
0.997575
0.997575
0.997575
0.997575
0.997575
0.997575
0.997575
0.997575
0.997575
0.997575
0.997575
0.997575
0.997575
0.997575
0.997575
0.997575
0.997575
0.997575
0.997575
0.997575
0.997575
0.997575
0.997575
0.997575
0.997575
0.997575
0.997575
0.997575
0.997575
0.997575
0.997575
0.997575
0.997575
0.997575
0.997575
0.997575
0.997575
0.997575
0.997575
0.997575
0.997574
0.997574
0.997574
0.997574
0.997574
0.997574
0.997573
0.997572
0.997571
0.997569
0.997566
0.997561
0.997554
0.997544
0.997529
0.997507
0.997475
0.997431
0.997369
0.997284
0.997169
0.997015
0.996812
0.996549
0.996214
0.995792
0.995271
0.994636
0.993875
0.992978
0.991936
0.990744
0.989399
0.987904
0.986262
0.98448
0.982567
0.980535
0.978393
0.976153
0.973826
0.971422
0.96895
0.966418
0.963833
0.961203
0.958534
0.955829
0.953094
0.950333
0.947548
0.944743
0.941921
0.939083
0.936232
0.933368
0.930495
0.927612
0.924722
0.921825
0.918921
0.916013
0.913101
0.910185
0.907265
0.904344
0.90142
0.898495
0.89557
0.892643
0.889717
0.88679
0.883865
0.88094
0.878017
0.875095
0.872175
0.869257
0.866342
0.863429
0.860519
0.857612
0.854709
0.85181
0.848914
0.846022
0.843134
0.840251
0.837372
0.834498
0.831628
0.828764
0.825905
0.82305
0.820202
0.817358
0.814521
0.811689
0.808862
0.806042
0.803227
0.800419
0.797617
0.79482
0.79203
0.789247
0.786469
0.783698
0.780934
0.778175
0.775424
0.772679
0.769941
0.767209
0.764484
0.761765
0.759054
0.756349
0.753651
0.75096
0.748275
0.745598
0.742927
0.740263
0.737606
0.734956
0.732313
0.729677
0.727048
0.724426
0.721811
0.719202
0.716601
0.714007
0.711419
0.708839
0.706266
0.7037
0.70114
0.698588
0.696043
0.693505
0.690974
0.688449
0.685932
0.683422
0.680919
0.678423
0.675934
0.673452
0.670976
0.668508
0.666047
0.663593
0.661146
0.658706
0.656273
0.653847
0.651427
0.649015
0.64661
0.644212
0.64182
0.639436
0.637058
0.634688
0.632324
0.629968
0.627618
0.625275
0.622939
0.62061
0.618288
0.615972
0.613664
0.611362
0.609068
0.60678
0.604499
0.602224
0.599957
0.597696
0.595443
0.593196
0.590956
0.588722
0.586496
0.584276
0.582063
0.579857
0.577657
0.575464
0.573278
0.571099
0.568926
0.566761
0.564601
0.562449
0.560303
0.558164
0.556032
0.553906
0.551787
0.549675
0.54757
0.545471
0.543378
0.541293
0.539214
0.537142
0.535076
0.533017
0.530965
0.528919
0.52688
0.524848
0.522822
0.520803
0.518791
0.516786
0.514787
0.512794
0.510809
0.50883
0.506858
0.504893
0.502934
0.500982
0.499037
0.497099
0.495167
0.493243
0.491325
0.489414
0.487511
0.485614
0.483724
0.481841
0.479966
0.478097
0.476236
0.474383
0.472536
0.470698
0.468866
0.467043
0.465227
0.46342
0.46162
0.459829
0.458046
0.456272
0.454507
0.452752
0.451006
0.449269
0.447543
0.445828
0.444124
0.442432
0.440752
0.439086
0.437434
0.435797
0.434176
0.432574
0.43099
0.429428
0.427888
0.426375
0.424891
0.423439
0.422023
0.420649
0.419321
0.418048
0.416836
0.415695
0.414637
0.413674
0.412821
0.412097
0.411521
0.411116
0.410908
0.410925
0.411196
0.41175
0.412613
0.413808
0.415347
0.417225
0.419418
0.421876
0.424519
0.427236
0.429889
0.432323
0.434381
0.435917
0.436825
0.437047
0.436582
0.435489
0.433873
0.431873
0.429643
0.427341
0.425112
0.423088
0.42138
0.420074
0.419232
0.418892
0.419062
0.419724
0.420828
0.422294
0.424011
0.425845
0.427647
0.429263
0.430555
0.431413
0.431776
0.43163
0.43102
0.430033
0.428789
0.427424
0.426074
0.424867
0.423906
0.423268
0.422996
0.423097
0.42354
0.424263
0.425178
0.426176
0.427144
0.427975
0.428581
0.428903
0.428923
0.428659
0.428163
0.427515
0.426805
0.426124
0.425555
0.425159
0.424973
0.425006
0.425236
0.425619
0.426093
0.426587
0.427032
0.427368
0.427558
0.427585
0.427458
0.42721
0.426888
0.426545
0.426234
0.425999
0.425869
0.425854
0.425946
0.426121
0.426343
0.426572
0.42677
0.426906
0.426964
0.42694
0.426847
0.426706
0.426547
0.426398
0.426285
0.426224
0.42622
0.426267
0.426352
0.426453
0.426551
0.426626
0.426666
0.426666
0.42663
0.426569
0.426496
0.426426
0.426374
0.426347
0.426346
0.426369
0.426407
0.42645
0.426486
0.426509
0.426513
0.426499
0.426472
0.426437
0.426403
0.426376
0.42636
0.426356
0.426363
0.426376
0.42639
0.4264
0.426401
0.426395
0.42638
0.426361
0.42634
0.426321
0.426307
0.426298
0.426294
0.426292
0.42629
0.426286
0.426278
0.426265
0.426249
0.426231
0.426212
0.426193
0.426177
0.426161
0.426147
0.426131
0.426114
0.426095
0.426072
0.426046
0.426017
0.425987
0.425954
0.42592
0.425884
0.425845
0.425801
0.425753
0.425698
0.425632
0.425552
0.425447
0.425301
0.425085
0.424758
0.424256
0.423493
0.422356
0.420704
0.418376
0.415199
0.411002
0.405641
0.399019
0.391107
0.381964
0.37174
0.360672
0.349066
0.337272
0.325654
0.31456
0.304295
0.295104
0.287159
0.280554
0.275308
0.27137
0.268625
0.266914
0.266045
0.265807
0.265998
0.266431
0.266955
0.267458
0.267874
0.26817
0.268348
0.268425
0.268431
0.268394
0.26834
0.268287
0.268245
0.268217
0.268204
0.2682
0.268204
0.26821
0.268216
0.268222
0.268225
0.268228
0.268229
0.268229
0.26823
0.26823
0.268231
0.268232
0.268233
0.268235
0.268236
0.268237
0.268238
0.268239
0.268239
0.26824
0.268241
0.268241
0.268242
0.268242
0.268242
0.268243
0.268243
0.268243
0.268244
0.268244
0.268244
0.268244
0.268245
0.268245
0.268245
0.268245
0.268245
0.268245
0.268245
0.268246
0.268246
0.268246
0.268246
0.268246
0.268246
0.268247
0.268247
0.268247
0.268247
0.268247
0.268248
0.268248
0.268248
0.268248
0.268248
0.268249
0.268249
0.268249
0.268249
0.268249
0.26825
0.26825
0.26825
0.26825
0.26825
0.26825
0.26825
0.26825
0.268251
0.268251
0.268251
0.268251
0.268251
0.268251
0.268251
0.268251
0.268252
0.268252
0.268252
0.268252
0.268252
0.268252
0.268252
0.268252
0.268252
0.268252
0.268253
0.268253
0.268253
0.268253
0.268253
0.268253
0.268254
0.268254
0.268254
0.268254
0.268254
0.268254
0.268255
0.268255
0.268255
0.268255
0.268255
0.268255
0.268255
0.268255
0.268256
0.268256
0.268256
0.268256
0.268256
0.268256
0.268257
0.268257
0.268256
0.268256
0.268257
0.268256
0.268252
0.268255
0.26826
0.268239
0.268226
0.268274
0.268248
0.268088
0.268219
0.268495
0.26779
0.26728
0.26933
0.268731
0.262241
0.267265
0.281248
0.245435
0.175258
0.137184
0.12693
0.125056
0.124756
0.124706
0.124698
0.124697
0.124697
0.124697
0.124697
0.124697
0.124697
0.124697
0.124697
0.124697
0.124697
0.124697
0.124697
0.124697
0.124697
0.124697
0.124697
0.124697
0.124697
0.124697
0.124697
0.124697
0.124697
0.124697
0.124697
0.124697
0.124697
0.124697
0.124697
0.124697
0.124697
0.124697
0.124697
0.124697
0.124697
0.124697
0.124697
0.124697
0.124697
0.124697
0.124697
0.124697
0.124697
0.124697
0.124697
0.124697
0.124697
0.124697
0.124697
0.124697
0.124697
0.124697
0.124697
0.124697
0.124697
0.124697
0.124697
0.124697
0.124697
0.124697
0.124697
0.124697
0.124697
0.124697
0.124697
0.124697
0.124697
0.124697
0.124697
0.124697
0.124697
0.124697
0.124697
0.124697
0.124697
0.124697
0.124697
0.124697
0.124697
0.124697
0.124697
0.124697
0.124697
0.124697
0.124697
0.124697
0.124697
0.124697
0.124697
0.124697
0.124697
0.124697
0.124697
0.124697
0.124697
0.124697
0.124697
0.124697
0.124697
0.124697
0.124697
0.124697
0.124697
0.124697
0.124697
0.124697
0.124697
0.124697
0.124697
0.124697
0.124697
0.124697
0.124697
0.124697
0.124697
0.124697
0.124697
0.124697
0.124697
0.124697
0.124697
0.124697
0.124697
0.124697
0.124697
0.124697
0.124697
0.124697
0.124697
0.124697
0.124697
0.124697
0.124697
0.124697
0.124697
0.124697
0.124697
0.124697
0.124697
)
;

boundaryField
{
    sides
    {
        type            calculated;
        value           nonuniform List<scalar> 2(0.124697 0.997575);
    }
    empty
    {
        type            empty;
    }
}


// ************************************************************************* //
