/*--------------------------------*- C++ -*----------------------------------*\
  =========                 |
  \\      /  F ield         | OpenFOAM: The Open Source CFD Toolbox
   \\    /   O peration     | Website:  https://openfoam.org
    \\  /    A nd           | Version:  13
     \\/     M anipulation  |
\*---------------------------------------------------------------------------*/
FoamFile
{
    format      ascii;
    class       volVectorField;
    location    "0.0065";
    object      U_0;
}
// * * * * * * * * * * * * * * * * * * * * * * * * * * * * * * * * * * * * * //

dimensions      [0 1 -1 0 0 0 0];

internalField   nonuniform List<vector> 
1000
(
(-2.9904e-12 0 0)
(-2.69379e-12 0 0)
(-2.55764e-12 0 0)
(-2.32424e-12 0 0)
(-2.71324e-12 0 0)
(-2.53333e-12 0 0)
(-3.12168e-12 0 0)
(-2.91746e-12 0 0)
(-3.47664e-12 0 0)
(-2.77645e-12 0 0)
(-3.07306e-12 0 0)
(-2.77159e-12 0 0)
(-3.18003e-12 0 0)
(-2.84452e-12 0 0)
(-3.25783e-12 0 0)
(-2.87856e-12 0 0)
(-2.79104e-12 0 0)
(-2.79104e-12 0 0)
(-3.01957e-12 0 0)
(-2.7181e-12 0 0)
(-2.90773e-12 0 0)
(-2.81535e-12 0 0)
(-2.78131e-12 0 0)
(-2.91746e-12 0 0)
(-2.97095e-12 0 0)
(-3.19462e-12 0 0)
(-2.71324e-12 0 0)
(-2.83966e-12 0 0)
(-2.4069e-12 0 0)
(-2.55278e-12 0 0)
(-2.47984e-12 0 0)
(-2.5236e-12 0 0)
(-2.49443e-12 0 0)
(-2.71324e-12 0 0)
(-2.66948e-12 0 0)
(-2.86883e-12 0 0)
(-2.77159e-12 0 0)
(-2.9904e-12 0 0)
(-2.61113e-12 0 0)
(-2.89315e-12 0 0)
(-2.65975e-12 0 0)
(-2.70351e-12 0 0)
(-2.92232e-12 0 0)
(-3.04388e-12 0 0)
(-3.29187e-12 0 0)
(-3.23838e-12 0 0)
(-3.92885e-12 0 0)
(-3.4037e-12 0 0)
(-3.56416e-12 0 0)
(-2.9904e-12 0 0)
(-3.28214e-12 0 0)
(-2.86883e-12 0 0)
(-3.13627e-12 0 0)
(-2.74727e-12 0 0)
(-3.16544e-12 0 0)
(-2.95636e-12 0 0)
(-3.37453e-12 0 0)
(-3.18976e-12 0 0)
(-3.53985e-12 0 0)
(-3.25297e-12 0 0)
(-3.68086e-12 0 0)
(-3.34049e-12 0 0)
(-3.59334e-12 0 0)
(-3.06819e-12 0 0)
(-3.26269e-12 0 0)
(-2.98553e-12 0 0)
(-3.23352e-12 0 0)
(-2.98067e-12 0 0)
(-2.85425e-12 0 0)
(-2.9904e-12 0 0)
(-2.83966e-12 0 0)
(-3.0293e-12 0 0)
(-3.10709e-12 0 0)
(-3.17517e-12 0 0)
(-3.39398e-12 0 0)
(-3.32104e-12 0 0)
(-3.25783e-12 0 0)
(-2.86883e-12 0 0)
(-3.01471e-12 0 0)
(-2.95636e-12 0 0)
(-3.10709e-12 0 0)
(-3.0293e-12 0 0)
(-2.88828e-12 0 0)
(-2.88342e-12 0 0)
(-3.00498e-12 0 0)
(-3.18976e-12 0 0)
(-3.08764e-12 0 0)
(-3.20921e-12 0 0)
(-2.92232e-12 0 0)
(-3.29187e-12 0 0)
(-2.87856e-12 0 0)
(-3.10709e-12 0 0)
(-2.84939e-12 0 0)
(-3.08278e-12 0 0)
(-3.05847e-12 0 0)
(-2.94177e-12 0 0)
(-3.01957e-12 0 0)
(-3.14599e-12 0 0)
(-3.03416e-12 0 0)
(-2.94663e-12 0 0)
(-2.8348e-12 0 0)
(-2.82507e-12 0 0)
(-2.9126e-12 0 0)
(-3.02443e-12 0 0)
(-2.98067e-12 0 0)
(-3.4426e-12 0 0)
(-3.40856e-12 0 0)
(-3.53985e-12 0 0)
(-3.5593e-12 0 0)
(-3.92398e-12 0 0)
(-3.66627e-12 0 0)
(-4.14765e-12 0 0)
(-3.7927e-12 0 0)
(-3.87536e-12 0 0)
(-3.85105e-12 0 0)
(-3.95802e-12 0 0)
(-4.05041e-12 0 0)
(-4.07472e-12 0 0)
(-4.27408e-12 0 0)
(-4.08444e-12 0 0)
(-3.82187e-12 0 0)
(-4.26435e-12 0 0)
(-3.34049e-12 0 0)
(-3.67114e-12 0 0)
(-3.42315e-12 0 0)
(-3.43288e-12 0 0)
(-3.42801e-12 0 0)
(-3.15086e-12 0 0)
(-3.40856e-12 0 0)
(-3.14599e-12 0 0)
(-3.35994e-12 0 0)
(-2.91746e-12 0 0)
(-3.05847e-12 0 0)
(-2.80562e-12 0 0)
(-2.86883e-12 0 0)
(-2.82021e-12 0 0)
(-2.46039e-12 0 0)
(-2.34855e-12 0 0)
(-2.33883e-12 0 0)
(-2.65975e-12 0 0)
(-2.47012e-12 0 0)
(-2.90287e-12 0 0)
(-2.97095e-12 0 0)
(-3.287e-12 0 0)
(-3.10223e-12 0 0)
(-2.86883e-12 0 0)
(-2.71324e-12 0 0)
(-2.52846e-12 0 0)
(-2.39232e-12 0 0)
(-2.28048e-12 0 0)
(-1.94984e-12 0 0)
(-1.96928e-12 0 0)
(-1.5268e-12 0 0)
(-1.78451e-12 0 0)
(-1.49763e-12 0 0)
(-1.67268e-12 0 0)
(-1.42469e-12 0 0)
(-1.80396e-12 0 0)
(-1.84286e-12 0 0)
(-2.23672e-12 0 0)
(-1.91094e-12 0 0)
(-1.97415e-12 0 0)
(-1.89149e-12 0 0)
(-1.57543e-12 0 0)
(-1.58515e-12 0 0)
(-1.50249e-12 0 0)
(-1.76993e-12 0 0)
(-1.65323e-12 0 0)
(-1.40038e-12 0 0)
(-1.21561e-12 0 0)
(-1.17671e-12 0 0)
(-8.26613e-13 0 0)
(-7.53677e-13 0 0)
(-5.49455e-13 0 0)
(-5.54317e-13 0 0)
(-3.88995e-13 0 0)
(-4.32756e-13 0 0)
(-2.62571e-13 0 0)
(4.37619e-14 0 0)
(1.50735e-13 0 0)
(8.26613e-14 0 0)
(-2.96608e-13 0 0)
(-2.09085e-13 0 0)
(-2.86883e-13 0 0)
(-3.64682e-13 0 0)
(-2.72296e-13 0 0)
(-3.20921e-13 0 0)
(6.09256e-27 0 0)
(2.72296e-13 0 0)
(4.71656e-13 0 0)
(9.28725e-13 0 0)
(8.9955e-13 0 0)
(1.47332e-12 0 0)
(2.62571e-12 0 0)
(5.50427e-12 0 0)
(1.04445e-11 0 0)
(2.11564e-11 0 0)
(4.15009e-11 0 0)
(8.17375e-11 0 0)
(1.59741e-10 0 0)
(3.11113e-10 0 0)
(6.01152e-10 0 0)
(1.15377e-09 0 0)
(2.20096e-09 0 0)
(4.16941e-09 0 0)
(7.84813e-09 0 0)
(1.46733e-08 0 0)
(2.72506e-08 0 0)
(5.02643e-08 0 0)
(9.20774e-08 0 0)
(1.67497e-07 0 0)
(3.02536e-07 0 0)
(5.42532e-07 0 0)
(9.65839e-07 0 0)
(1.70675e-06 0 0)
(2.99345e-06 0 0)
(5.21031e-06 0 0)
(8.99894e-06 0 0)
(1.54207e-05 0 0)
(2.62146e-05 0 0)
(4.42034e-05 0 0)
(7.39227e-05 0 0)
(0.000122588 0 0)
(0.000201559 0 0)
(0.000328526 0 0)
(0.000530739 0 0)
(0.000849688 0 0)
(0.00134781 0 0)
(0.00211789 0 0)
(0.0032961 0 0)
(0.00507958 0 0)
(0.0077498 0 0)
(0.0117028 0 0)
(0.0174873 0 0)
(0.0258512 0 0)
(0.0377965 0 0)
(0.0546415 0 0)
(0.0780868 0 0)
(0.110281 0 0)
(0.153877 0 0)
(0.212075 0 0)
(0.288631 0 0)
(0.387831 0 0)
(0.514412 0 0)
(0.673429 0 0)
(0.870065 0 0)
(1.1094 0 0)
(1.39613 0 0)
(1.73432 0 0)
(2.12717 0 0)
(2.57678 0 0)
(3.0841 0 0)
(3.64887 0 0)
(4.26968 0 0)
(4.94415 0 0)
(5.66909 0 0)
(6.44077 0 0)
(7.25527 0 0)
(8.10862 0 0)
(8.99696 0 0)
(9.91668 0 0)
(10.8644 0 0)
(11.8372 0 0)
(12.8323 0 0)
(13.8473 0 0)
(14.8801 0 0)
(15.9288 0 0)
(16.9918 0 0)
(18.0678 0 0)
(19.1554 0 0)
(20.2536 0 0)
(21.3615 0 0)
(22.4782 0 0)
(23.6031 0 0)
(24.7355 0 0)
(25.8748 0 0)
(27.0207 0 0)
(28.1726 0 0)
(29.3303 0 0)
(30.4932 0 0)
(31.6612 0 0)
(32.834 0 0)
(34.0113 0 0)
(35.1929 0 0)
(36.3785 0 0)
(37.568 0 0)
(38.7612 0 0)
(39.958 0 0)
(41.1581 0 0)
(42.3614 0 0)
(43.5678 0 0)
(44.7772 0 0)
(45.9894 0 0)
(47.2042 0 0)
(48.4217 0 0)
(49.6416 0 0)
(50.8639 0 0)
(52.0885 0 0)
(53.3152 0 0)
(54.544 0 0)
(55.7747 0 0)
(57.0074 0 0)
(58.2418 0 0)
(59.478 0 0)
(60.7159 0 0)
(61.9553 0 0)
(63.1963 0 0)
(64.4386 0 0)
(65.6824 0 0)
(66.9275 0 0)
(68.1739 0 0)
(69.4214 0 0)
(70.6702 0 0)
(71.92 0 0)
(73.1709 0 0)
(74.4228 0 0)
(75.6757 0 0)
(76.9295 0 0)
(78.1842 0 0)
(79.4398 0 0)
(80.6961 0 0)
(81.9533 0 0)
(83.2112 0 0)
(84.4699 0 0)
(85.7292 0 0)
(86.9893 0 0)
(88.2499 0 0)
(89.5112 0 0)
(90.7731 0 0)
(92.0356 0 0)
(93.2986 0 0)
(94.5621 0 0)
(95.8262 0 0)
(97.0908 0 0)
(98.3558 0 0)
(99.6213 0 0)
(100.887 0 0)
(102.154 0 0)
(103.42 0 0)
(104.688 0 0)
(105.955 0 0)
(107.223 0 0)
(108.492 0 0)
(109.76 0 0)
(111.029 0 0)
(112.299 0 0)
(113.568 0 0)
(114.838 0 0)
(116.109 0 0)
(117.379 0 0)
(118.65 0 0)
(119.921 0 0)
(121.192 0 0)
(122.464 0 0)
(123.736 0 0)
(125.008 0 0)
(126.28 0 0)
(127.553 0 0)
(128.826 0 0)
(130.099 0 0)
(131.372 0 0)
(132.645 0 0)
(133.919 0 0)
(135.193 0 0)
(136.467 0 0)
(137.741 0 0)
(139.015 0 0)
(140.289 0 0)
(141.564 0 0)
(142.839 0 0)
(144.114 0 0)
(145.389 0 0)
(146.664 0 0)
(147.939 0 0)
(149.215 0 0)
(150.49 0 0)
(151.766 0 0)
(153.041 0 0)
(154.317 0 0)
(155.593 0 0)
(156.869 0 0)
(158.145 0 0)
(159.422 0 0)
(160.698 0 0)
(161.974 0 0)
(163.251 0 0)
(164.527 0 0)
(165.804 0 0)
(167.08 0 0)
(168.357 0 0)
(169.634 0 0)
(170.91 0 0)
(172.187 0 0)
(173.464 0 0)
(174.741 0 0)
(176.018 0 0)
(177.295 0 0)
(178.572 0 0)
(179.849 0 0)
(181.126 0 0)
(182.403 0 0)
(183.68 0 0)
(184.957 0 0)
(186.234 0 0)
(187.511 0 0)
(188.788 0 0)
(190.065 0 0)
(191.341 0 0)
(192.618 0 0)
(193.895 0 0)
(195.172 0 0)
(196.449 0 0)
(197.725 0 0)
(199.002 0 0)
(200.279 0 0)
(201.555 0 0)
(202.831 0 0)
(204.108 0 0)
(205.384 0 0)
(206.66 0 0)
(207.936 0 0)
(209.212 0 0)
(210.488 0 0)
(211.764 0 0)
(213.039 0 0)
(214.315 0 0)
(215.59 0 0)
(216.865 0 0)
(218.14 0 0)
(219.415 0 0)
(220.689 0 0)
(221.964 0 0)
(223.238 0 0)
(224.512 0 0)
(225.786 0 0)
(227.059 0 0)
(228.332 0 0)
(229.605 0 0)
(230.878 0 0)
(232.15 0 0)
(233.422 0 0)
(234.694 0 0)
(235.965 0 0)
(237.236 0 0)
(238.507 0 0)
(239.777 0 0)
(241.046 0 0)
(242.316 0 0)
(243.584 0 0)
(244.852 0 0)
(246.12 0 0)
(247.387 0 0)
(248.653 0 0)
(249.919 0 0)
(251.184 0 0)
(252.448 0 0)
(253.712 0 0)
(254.974 0 0)
(256.236 0 0)
(257.497 0 0)
(258.756 0 0)
(260.015 0 0)
(261.272 0 0)
(262.528 0 0)
(263.783 0 0)
(265.036 0 0)
(266.288 0 0)
(267.537 0 0)
(268.785 0 0)
(270.031 0 0)
(271.275 0 0)
(272.516 0 0)
(273.755 0 0)
(274.99 0 0)
(276.223 0 0)
(277.452 0 0)
(278.677 0 0)
(279.898 0 0)
(281.114 0 0)
(282.325 0 0)
(283.53 0 0)
(284.728 0 0)
(285.919 0 0)
(287.102 0 0)
(288.276 0 0)
(289.439 0 0)
(290.59 0 0)
(291.727 0 0)
(292.849 0 0)
(293.953 0 0)
(295.036 0 0)
(296.095 0 0)
(297.127 0 0)
(298.127 0 0)
(299.09 0 0)
(300.009 0 0)
(300.877 0 0)
(301.686 0 0)
(302.426 0 0)
(303.085 0 0)
(303.648 0 0)
(304.101 0 0)
(304.425 0 0)
(304.601 0 0)
(304.606 0 0)
(304.418 0 0)
(304.013 0 0)
(303.37 0 0)
(302.472 0 0)
(301.308 0 0)
(299.88 0 0)
(298.205 0 0)
(296.322 0 0)
(294.291 0 0)
(292.199 0 0)
(290.149 0 0)
(288.264 0 0)
(286.667 0 0)
(285.467 0 0)
(284.752 0 0)
(284.567 0 0)
(284.914 0 0)
(285.75 0 0)
(286.997 0 0)
(288.547 0 0)
(290.282 0 0)
(292.079 0 0)
(293.823 0 0)
(295.412 0 0)
(296.756 0 0)
(297.788 0 0)
(298.456 0 0)
(298.73 0 0)
(298.601 0 0)
(298.083 0 0)
(297.214 0 0)
(296.056 0 0)
(294.696 0 0)
(293.24 0 0)
(291.807 0 0)
(290.519 0 0)
(289.487 0 0)
(288.799 0 0)
(288.505 0 0)
(288.617 0 0)
(289.101 0 0)
(289.888 0 0)
(290.885 0 0)
(291.982 0 0)
(293.068 0 0)
(294.043 0 0)
(294.82 0 0)
(295.336 0 0)
(295.558 0 0)
(295.477 0 0)
(295.117 0 0)
(294.528 0 0)
(293.783 0 0)
(292.968 0 0)
(292.176 0 0)
(291.495 0 0)
(290.998 0 0)
(290.733 0 0)
(290.716 0 0)
(290.932 0 0)
(291.338 0 0)
(291.872 0 0)
(292.458 0 0)
(293.02 0 0)
(293.491 0 0)
(293.818 0 0)
(293.971 0 0)
(293.943 0 0)
(293.75 0 0)
(293.428 0 0)
(293.031 0 0)
(292.616 0 0)
(292.242 0 0)
(291.959 0 0)
(291.799 0 0)
(291.776 0 0)
(291.881 0 0)
(292.09 0 0)
(292.362 0 0)
(292.651 0 0)
(292.914 0 0)
(293.112 0 0)
(293.22 0 0)
(293.231 0 0)
(293.15 0 0)
(292.998 0 0)
(292.806 0 0)
(292.608 0 0)
(292.436 0 0)
(292.318 0 0)
(292.267 0 0)
(292.286 0 0)
(292.366 0 0)
(292.486 0 0)
(292.623 0 0)
(292.75 0 0)
(292.846 0 0)
(292.897 0 0)
(292.898 0 0)
(292.853 0 0)
(292.777 0 0)
(292.685 0 0)
(292.596 0 0)
(292.528 0 0)
(292.491 0 0)
(292.488 0 0)
(292.518 0 0)
(292.57 0 0)
(292.633 0 0)
(292.691 0 0)
(292.735 0 0)
(292.756 0 0)
(292.753 0 0)
(292.728 0 0)
(292.69 0 0)
(292.648 0 0)
(292.612 0 0)
(292.588 0 0)
(292.581 0 0)
(292.589 0 0)
(292.611 0 0)
(292.638 0 0)
(292.665 0 0)
(292.684 0 0)
(292.694 0 0)
(292.692 0 0)
(292.68 0 0)
(292.662 0 0)
(292.644 0 0)
(292.629 0 0)
(292.622 0 0)
(292.622 0 0)
(292.629 0 0)
(292.64 0 0)
(292.652 0 0)
(292.662 0 0)
(292.667 0 0)
(292.667 0 0)
(292.662 0 0)
(292.655 0 0)
(292.647 0 0)
(292.641 0 0)
(292.638 0 0)
(292.639 0 0)
(292.642 0 0)
(292.647 0 0)
(292.652 0 0)
(292.655 0 0)
(292.656 0 0)
(292.655 0 0)
(292.652 0 0)
(292.649 0 0)
(292.646 0 0)
(292.645 0 0)
(292.645 0 0)
(292.646 0 0)
(292.648 0 0)
(292.65 0 0)
(292.652 0 0)
(292.652 0 0)
(292.651 0 0)
(292.65 0 0)
(292.649 0 0)
(292.648 0 0)
(292.648 0 0)
(292.649 0 0)
(292.651 0 0)
(292.653 0 0)
(292.657 0 0)
(292.662 0 0)
(292.67 0 0)
(292.681 0 0)
(292.696 0 0)
(292.717 0 0)
(292.742 0 0)
(292.772 0 0)
(292.804 0 0)
(292.836 0 0)
(292.865 0 0)
(292.887 0 0)
(292.899 0 0)
(292.898 0 0)
(292.883 0 0)
(292.852 0 0)
(292.807 0 0)
(292.749 0 0)
(292.682 0 0)
(292.609 0 0)
(292.535 0 0)
(292.466 0 0)
(292.407 0 0)
(292.362 0 0)
(292.337 0 0)
(292.333 0 0)
(292.35 0 0)
(292.385 0 0)
(292.433 0 0)
(292.488 0 0)
(292.543 0 0)
(292.592 0 0)
(292.632 0 0)
(292.66 0 0)
(292.676 0 0)
(292.681 0 0)
(292.68 0 0)
(292.673 0 0)
(292.665 0 0)
(292.657 0 0)
(292.651 0 0)
(292.647 0 0)
(292.644 0 0)
(292.644 0 0)
(292.644 0 0)
(292.645 0 0)
(292.646 0 0)
(292.647 0 0)
(292.648 0 0)
(292.648 0 0)
(292.648 0 0)
(292.648 0 0)
(292.648 0 0)
(292.648 0 0)
(292.648 0 0)
(292.648 0 0)
(292.648 0 0)
(292.648 0 0)
(292.648 0 0)
(292.648 0 0)
(292.648 0 0)
(292.648 0 0)
(292.648 0 0)
(292.648 0 0)
(292.648 0 0)
(292.648 0 0)
(292.648 0 0)
(292.648 0 0)
(292.648 0 0)
(292.648 0 0)
(292.648 0 0)
(292.648 0 0)
(292.648 0 0)
(292.648 0 0)
(292.648 0 0)
(292.648 0 0)
(292.648 0 0)
(292.648 0 0)
(292.649 0 0)
(292.649 0 0)
(292.649 0 0)
(292.649 0 0)
(292.649 0 0)
(292.649 0 0)
(292.649 0 0)
(292.649 0 0)
(292.649 0 0)
(292.649 0 0)
(292.649 0 0)
(292.649 0 0)
(292.649 0 0)
(292.649 0 0)
(292.649 0 0)
(292.649 0 0)
(292.649 0 0)
(292.649 0 0)
(292.649 0 0)
(292.649 0 0)
(292.649 0 0)
(292.649 0 0)
(292.649 0 0)
(292.649 0 0)
(292.649 0 0)
(292.649 0 0)
(292.649 0 0)
(292.649 0 0)
(292.649 0 0)
(292.65 0 0)
(292.65 0 0)
(292.65 0 0)
(292.65 0 0)
(292.65 0 0)
(292.65 0 0)
(292.65 0 0)
(292.65 0 0)
(292.65 0 0)
(292.65 0 0)
(292.65 0 0)
(292.651 0 0)
(292.651 0 0)
(292.651 0 0)
(292.651 0 0)
(292.651 0 0)
(292.651 0 0)
(292.651 0 0)
(292.651 0 0)
(292.651 0 0)
(292.651 0 0)
(292.652 0 0)
(292.652 0 0)
(292.652 0 0)
(292.652 0 0)
(292.652 0 0)
(292.652 0 0)
(292.652 0 0)
(292.652 0 0)
(292.653 0 0)
(292.653 0 0)
(292.653 0 0)
(292.653 0 0)
(292.653 0 0)
(292.653 0 0)
(292.653 0 0)
(292.653 0 0)
(292.653 0 0)
(292.653 0 0)
(292.653 0 0)
(292.654 0 0)
(292.654 0 0)
(292.654 0 0)
(292.654 0 0)
(292.654 0 0)
(292.655 0 0)
(292.655 0 0)
(292.655 0 0)
(292.655 0 0)
(292.655 0 0)
(292.655 0 0)
(292.655 0 0)
(292.655 0 0)
(292.655 0 0)
(292.655 0 0)
(292.655 0 0)
(292.653 0 0)
(292.648 0 0)
(292.648 0 0)
(292.651 0 0)
(292.63 0 0)
(292.612 0 0)
(292.645 0 0)
(292.616 0 0)
(292.45 0 0)
(292.505 0 0)
(292.719 0 0)
(292.08 0 0)
(291.43 0 0)
(292.972 0 0)
(292.509 0 0)
(286.241 0 0)
(288.602 0 0)
(295.957 0 0)
(253.334 0 0)
(136.777 0 0)
(37.8107 0 0)
(7.00178 0 0)
(1.19106 0 0)
(0.196328 0 0)
(0.0324344 0 0)
(0.00536513 0 0)
(0.00088764 0 0)
(0.000146859 0 0)
(2.42977e-05 0 0)
(4.02003e-06 0 0)
(6.65106e-07 0 0)
(1.10038e-07 0 0)
(1.82028e-08 0 0)
(3.00839e-09 0 0)
(4.94564e-10 0 0)
(7.84263e-11 0 0)
(1.00896e-11 0 0)
(-1.75048e-12 0 0)
(-3.36481e-12 0 0)
(-4.00665e-12 0 0)
(-3.39398e-12 0 0)
(-3.35995e-12 0 0)
(-2.86398e-12 0 0)
(-2.94664e-12 0 0)
(-2.88829e-12 0 0)
(-2.66948e-12 0 0)
(-2.31938e-12 0 0)
(-2.02764e-12 0 0)
(-1.75534e-12 0 0)
(-1.43442e-12 0 0)
(-1.36148e-12 0 0)
(-8.26615e-13 0 0)
(-1.35662e-12 0 0)
(-1.308e-12 0 0)
(-1.36635e-12 0 0)
(-1.28368e-12 0 0)
(-1.57057e-12 0 0)
(-1.44901e-12 0 0)
(-1.63864e-12 0 0)
(-1.60947e-12 0 0)
(-1.94984e-12 0 0)
(-1.67754e-12 0 0)
(-1.88176e-12 0 0)
(-1.66295e-12 0 0)
(-2.08599e-12 0 0)
(-1.8769e-12 0 0)
(-1.92553e-12 0 0)
(-1.97415e-12 0 0)
(-1.83314e-12 0 0)
(-2.28048e-12 0 0)
(-1.94011e-12 0 0)
(-1.91094e-12 0 0)
(-1.67268e-12 0 0)
(-1.81855e-12 0 0)
(-1.34203e-12 0 0)
(-1.57543e-12 0 0)
(-1.36148e-12 0 0)
(-1.29341e-12 0 0)
(-8.70377e-13 0 0)
(-8.07165e-13 0 0)
(-8.99551e-13 0 0)
(-8.1689e-13 0 0)
(-6.07805e-13 0 0)
(-5.34868e-13 0 0)
(-1.06487e-12 0 0)
(-1.20102e-12 0 0)
(-1.22533e-12 0 0)
(-1.50249e-12 0 0)
(-1.35662e-12 0 0)
(-1.67754e-12 0 0)
(-1.53167e-12 0 0)
(-1.70185e-12 0 0)
(-1.99846e-12 0 0)
(-2.19296e-12 0 0)
(-2.62085e-12 0 0)
(-2.42636e-12 0 0)
(-2.62085e-12 0 0)
(-2.55278e-12 0 0)
(-2.51388e-12 0 0)
(-2.32911e-12 0 0)
(-2.16379e-12 0 0)
(-1.89635e-12 0 0)
(-1.46359e-12 0 0)
(-1.36635e-12 0 0)
(-1.1913e-12 0 0)
(-1.19616e-12 0 0)
(-1.20102e-12 0 0)
(-1.1524e-12 0 0)
(-1.28855e-12 0 0)
(-1.21561e-12 0 0)
(-1.15726e-12 0 0)
(-1.18157e-12 0 0)
(-1.30313e-12 0 0)
(-1.04542e-12 0 0)
(-1.03084e-12 0 0)
(-6.32117e-13 0 0)
(-5.68905e-13 0 0)
(-2.47984e-13 0 0)
(-1.9936e-13 0 0)
(5.10556e-13 0 0)
(8.94689e-13 0 0)
(1.36148e-12 0 0)
(1.84286e-12 0 0)
(2.45067e-12 0 0)
(2.757e-12 0 0)
(2.61113e-12 0 0)
(2.6792e-12 0 0)
(2.89315e-12 0 0)
(3.11682e-12 0 0)
(2.86884e-12 0 0)
(2.76673e-12 0 0)
(2.58682e-12 0 0)
(2.36315e-12 0 0)
(1.58029e-12 0 0)
(1.58029e-12 0 0)
(1.04056e-12 0 0)
(9.23863e-13 0 0)
(2.28535e-13 0 0)
(2.67434e-13 0 0)
(-4.91106e-13 0 0)
(-4.81381e-13 0 0)
(-1.36635e-12 0 0)
(-1.47818e-12 0 0)
(-2.35828e-12 0 0)
(-2.77159e-12 0 0)
(-3.21893e-12 0 0)
(-3.35995e-12 0 0)
(-3.34536e-12 0 0)
(-2.88829e-12 0 0)
(-2.55278e-12 0 0)
(-1.7213e-12 0 0)
(-1.39552e-12 0 0)
(-8.36339e-13 0 0)
(-5.88355e-13 0 0)
(-1.26423e-13 0 0)
(-3.06334e-13 0 0)
(-7.7799e-14 0 0)
(-3.69545e-13 0 0)
(-3.40371e-14 0 0)
(5.34868e-14 0 0)
(-1.41011e-13 0 0)
(-5.83493e-13 0 0)
(-5.68905e-13 0 0)
(-6.1753e-13 0 0)
)
;

boundaryField
{
    sides
    {
        type            calculated;
        value           nonuniform List<vector> 2((-6.1753e-13 0 0) (-2.9904e-12 0 0));
    }
    empty
    {
        type            empty;
    }
}


// ************************************************************************* //
