/*--------------------------------*- C++ -*----------------------------------*\
  =========                 |
  \\      /  F ield         | OpenFOAM: The Open Source CFD Toolbox
   \\    /   O peration     | Website:  https://openfoam.org
    \\  /    A nd           | Version:  13
     \\/     M anipulation  |
\*---------------------------------------------------------------------------*/
FoamFile
{
    format      ascii;
    class       volScalarField;
    location    "15.101663";
    object      pMean;
}
// * * * * * * * * * * * * * * * * * * * * * * * * * * * * * * * * * * * * * //

dimensions      [0 2 -2 0 0 0 0];

internalField   nonuniform List<scalar> 
17140
(
3.0916579
3.0914929
3.0912935
3.0910908
3.0908716
3.0906328
3.0903739
3.0900946
3.0897942
3.0894721
3.0891282
3.088762
3.0883733
3.0879611
3.0875239
3.0870586
3.0865596
3.086018
3.0854194
3.0847427
3.0839575
3.0830214
3.0818779
3.0804525
3.0786492
3.0763554
3.073474
3.0699398
3.0656644
3.0604808
3.0541689
3.046507
3.0372634
3.0261812
3.012985
2.9973874
2.9790998
2.9578514
2.9334213
2.9056839
2.8746725
2.8406569
2.8042413
2.7664495
2.7287547
2.6931676
2.6620377
2.6374641
2.6215396
2.6160656
2.6222482
2.6408419
2.6722538
2.7162322
2.7717184
2.8367455
2.9083612
2.9823713
3.0544722
3.1175798
3.1655947
3.1881273
3.1876436
3.1631191
3.1311632
3.0892583
3.0890967
3.0889016
3.0887029
3.0884881
3.0882538
3.088
3.087726
3.0874313
3.0871154
3.086778
3.0864189
3.0860376
3.0856335
3.0852049
3.0847489
3.0842603
3.0837301
3.0831442
3.0824818
3.0817127
3.0807949
3.079672
3.0782701
3.0764932
3.0742283
3.0713764
3.0678711
3.0636255
3.0584739
3.0521952
3.0445662
3.0353545
3.0243018
3.0111316
2.9955546
2.9772801
2.9560351
2.9315963
2.9038354
2.872784
2.8387111
2.8022207
2.7643372
2.7265498
2.6908663
2.6596066
2.6349563
2.6189901
2.6134426
2.6195494
2.6380711
2.6693767
2.7132211
2.7685715
2.8334371
2.9048906
2.9787898
3.0509001
3.1141798
3.1625615
3.1856005
3.1856328
3.1615847
3.1301059
3.0831953
3.083042
3.0828571
3.0826683
3.082464
3.0822412
3.0819996
3.0817388
3.0814581
3.0811572
3.0808358
3.0804937
3.0801306
3.079746
3.0793385
3.0789055
3.0784419
3.0779392
3.0773842
3.0767565
3.0760264
3.0751528
3.0740801
3.072735
3.0710229
3.068829
3.0660502
3.062616
3.0584418
3.0533675
3.0471699
3.039621
3.0304865
3.0195052
3.0063972
2.9908687
2.9726242
2.9513852
2.9269224
2.8991024
2.8679522
2.83374
2.7970727
2.7589807
2.7209814
2.6851099
2.6536431
2.6288032
2.6127046
2.6070541
2.6130426
2.6314016
2.6625036
2.7061217
2.761237
2.8258354
2.8970321
2.9707554
3.0429387
3.1066715
3.1558875
3.1799694
3.181032
3.1579465
3.1273231
3.073586
3.0734458
3.0732773
3.0731042
3.0729167
3.0727121
3.07249
3.0722501
3.0719917
3.0717145
3.0714185
3.0711034
3.0707692
3.0704154
3.0700412
3.0696441
3.0692197
3.0687604
3.0682535
3.0676795
3.0670101
3.0662053
3.0652103
3.0639535
3.0623416
3.060259
3.0575959
3.0542734
3.0502103
3.0452563
3.0391864
3.0317639
3.0227521
3.0118852
2.9988776
2.9834291
2.9652366
2.9440135
2.9195215
2.8916193
2.8603282
2.8259162
2.7889944
2.7506065
2.7123115
2.6761692
2.644416
2.6193463
2.6030806
2.5972985
2.6031505
2.6213248
2.6521727
2.6954755
2.750229
2.8144019
2.8851662
2.9585663
3.0307736
3.0951022
3.1454951
3.171058
3.1736354
3.1520623
3.1228947
3.060748
3.0606255
3.0604791
3.0603271
3.0601622
3.0599821
3.0597864
3.0595746
3.0593464
3.0591014
3.0588395
3.0585609
3.0582655
3.0579532
3.0576233
3.0572741
3.0569019
3.0564996
3.0560558
3.0555523
3.0549623
3.0542469
3.0533533
3.0522114
3.0507303
3.0487954
3.0462879
3.0431148
3.0391979
3.0344014
3.0285007
3.0212485
3.0124028
3.0016924
2.9888246
2.9734909
2.9553787
2.934191
2.9096788
2.8816911
2.8502424
2.8156011
2.7783858
2.739663
2.7010437
2.6645902
2.632531
2.6072335
2.5908129
2.5849309
2.5906676
2.6086574
2.6392365
2.6821932
2.736532
2.8001976
2.8704273
2.9434113
3.0156045
3.0805872
3.1323234
3.1595795
3.1639892
3.144377
3.1171477
3.0452041
3.0451034
3.0449838
3.0448578
3.0447208
3.0445709
3.0444076
3.0442307
3.0440396
3.0438342
3.0436145
3.0433807
3.0431329
3.0428714
3.0425957
3.0423045
3.041995
3.041661
3.0412923
3.0408722
3.0403755
3.0397653
3.0389907
3.0379838
3.0366561
3.0348963
3.0325769
3.0295876
3.0258474
3.0212355
3.0155359
3.0084924
2.9998514
2.9893369
2.9766479
2.9614667
2.9434698
2.9223486
2.8978419
2.8697879
2.8381946
2.8033312
2.7658259
2.7267761
2.6878486
2.6510884
2.6187691
2.593293
2.5767672
2.5708358
2.5765067
2.5943493
2.6246774
2.6672786
2.7211631
2.7842498
2.853863
2.926357
2.9984705
3.0640923
3.1171437
3.1462282
3.1527058
3.1354502
3.1106131
3.0276631
3.0275871
3.027497
3.027401
3.0272962
3.0271812
3.0270555
3.0269188
3.0267708
3.0266112
3.0264404
3.0262584
3.0260655
3.0258622
3.0256483
3.0254231
3.0251841
3.0249263
3.0246407
3.0243121
3.0239172
3.0234212
3.0227756
3.0219149
3.0207536
3.0191841
3.0170757
3.0143004
3.0107597
3.0063462
3.0008676
2.9940621
2.9856571
2.9753726
2.9628991
2.9479095
2.9300691
2.9090571
2.8846002
2.8565253
2.8248338
2.7897962
2.7520537
2.7127387
2.6735616
2.6365612
2.6040621
2.5784651
2.5618896
2.5559548
2.5616033
2.5793489
2.6094817
2.6517738
2.7052377
2.7677662
2.8367693
2.9087935
2.9808414
3.0470552
3.1012768
3.13204
3.1405978
3.1259426
3.1037746
3.0089806
3.0089312
3.0088724
3.0088094
3.0087399
3.0086632
3.0085786
3.0084862
3.0083856
3.0082767
3.0081596
3.0080345
3.007902
3.0077623
3.0076156
3.0074614
3.0072977
3.0071205
3.0069217
3.0066877
3.0063968
3.0060167
3.0055015
3.0047883
3.0037949
3.0024174
3.0005288
2.9979864
2.994663
2.9904542
2.9852005
2.9786451
2.9704991
2.9604719
2.9482475
2.9334892
2.9158523
2.8950041
2.8706599
2.8426361
2.8109277
2.7758069
2.73793
2.6984659
2.6591384
2.6220044
2.5894128
2.5637364
2.5471354
2.5412225
2.5468842
2.5645621
2.5945445
2.6365988
2.6897195
2.7517829
2.8202437
2.8918516
2.9638166
3.030354
3.0853659
3.1175692
3.1283908
3.1163564
3.0970312
2.9901036
2.990082
2.9900557
2.9900269
2.9899943
2.9899576
2.9899165
2.9898706
2.9898198
2.9897642
2.9897038
2.9896388
2.9895696
2.9894965
2.9894199
2.9893391
2.9892527
2.9891569
2.9890445
2.9889032
2.9887129
2.9884436
2.9880519
2.9874779
2.9866429
2.9854465
2.983766
2.9814582
2.9783719
2.9743727
2.969326
2.9630166
2.9551424
2.9453902
2.933443
2.9189559
2.901575
2.8809579
2.8568096
2.8289373
2.7973309
2.7622638
2.7244066
2.6849599
2.6456301
2.6085021
2.5759136
2.5502008
2.5335869
2.5276943
2.5333593
2.550979
2.5808615
2.6227516
2.6755945
2.7372346
2.8051917
2.876399
2.9482569
3.0152098
3.0709382
3.1043725
3.1167149
3.1071368
3.0906305
2.9720026
2.9720084
2.9720145
2.9720196
2.9720239
2.9720272
2.9720294
2.9720303
2.9720298
2.9720279
2.9720247
2.9720204
2.9720152
2.9720094
2.972003
2.9719954
2.9719851
2.9719684
2.9719388
2.9718846
2.9717871
2.9716181
2.9713365
2.9708856
2.9701898
2.9691529
2.9676564
2.9655601
2.9627079
2.9589377
2.9540921
2.9479917
2.9403786
2.930923
2.9192811
2.9051056
2.8880388
2.8677322
2.8438838
2.8162942
2.7849486
2.750122
2.7124953
2.6732834
2.6341671
2.5972409
2.5647928
2.5391412
2.5225539
2.516666
2.5223334
2.5399613
2.5697968
2.6115437
2.6641432
2.7254204
2.7930158
2.8640743
2.9361273
3.0031974
3.0587201
3.0923994
3.1057025
3.0985496
3.0847159
2.9555841
2.9556155
2.9556518
2.955689
2.955728
2.9557693
2.9558127
2.9558583
2.9559059
2.9559557
2.9560079
2.9560623
2.9561191
2.9561785
2.95624
2.9563029
2.9563654
2.9564236
2.956471
2.9564963
2.9564816
2.9564001
2.9562127
2.9558651
2.9552852
2.9543805
2.9530366
2.9511174
2.9484675
2.9449188
2.9402957
2.9344055
2.9270157
2.9178357
2.9065217
2.8927071
2.8760269
2.8561308
2.8327131
2.8055713
2.7746893
2.7403436
2.7032237
2.6645237
2.6259143
2.5894662
2.5573883
2.5319789
2.5155085
2.5096698
2.5153503
2.5328758
2.5625294
2.6040412
2.6563348
2.7172549
2.7845002
2.8553097
2.9270807
2.9934115
3.0479532
3.0815001
3.0958741
3.0907347
3.079353
2.9416122
2.9416661
2.9417289
2.9417943
2.9418641
2.9419392
2.9420195
2.9421051
2.9421963
2.9422932
2.9423957
2.9425042
2.9426183
2.942738
2.9428626
2.9429911
2.9431209
2.9432482
2.9433658
2.9434625
2.9435209
2.9435148
2.9434065
2.9431439
2.9426576
2.9418583
2.9406361
2.9388592
2.9363752
2.9330149
2.9285983
2.9229288
2.9157805
2.9068767
2.8958947
2.8824776
2.8662597
2.846888
2.8240572
2.7975654
2.7673973
2.7338295
2.6975489
2.6597108
2.6219617
2.5863176
2.5549089
2.5299833
2.513807
2.5080197
2.5134442
2.5306011
2.5598233
2.6008699
2.6526373
2.71296
2.7796762
2.8500181
2.9210893
2.9863396
3.0395392
3.072373
3.0872799
3.0837446
3.0745922
2.9306247
2.9306965
2.9307804
2.9308684
2.9309631
2.9310656
2.9311762
2.9312952
2.9314228
2.9315593
2.9317048
2.9318596
2.9320234
2.9321959
2.9323764
2.9325633
2.9327538
2.9329435
2.933125
2.9332869
2.9334115
2.9334734
2.9334359
2.9332481
2.9328427
2.9321335
2.9310134
2.9293554
2.9270123
2.9238167
2.9195859
2.9141293
2.9072285
2.898624
2.8880166
2.8750575
2.8593898
2.8406684
2.8186011
2.7929901
2.7638224
2.7313674
2.6962886
2.6597069
2.6232056
2.5886987
2.5582495
2.5340768
2.5182329
2.5123027
2.5172565
2.5338451
2.5624251
2.602758
2.6537349
2.7132634
2.779373
2.8491698
2.9191769
2.9824292
3.0331819
3.0645266
3.07984
3.0776175
3.0704603
2.9228854
2.9229693
2.9230677
2.9231714
2.9232835
2.9234056
2.923538
2.9236812
2.9238357
2.924002
2.9241803
2.924371
2.924574
2.924789
2.9250151
2.9252508
2.925493
2.9257372
2.9259759
2.9261974
2.9263846
2.9265122
2.9265446
2.9264325
2.9261102
2.9254931
2.9244767
2.9229369
2.9207314
2.9177015
2.9136764
2.9084177
2.9017925
2.8935284
2.8833352
2.870901
2.8559026
2.8379978
2.8169002
2.7924245
2.7645612
2.7335651
2.7000629
2.6651174
2.6302112
2.5971361
2.56792
2.5445398
2.528938
2.5227287
2.5271087
2.542902
2.5706123
2.6099733
2.6598869
2.7184245
2.7836841
2.85232
2.9203313
2.9807188
3.0286112
3.0581229
3.0736052
3.0723852
3.0670083
2.9183437
2.9184332
2.9185388
2.9186504
2.9187716
2.9189041
2.9190486
2.9192056
2.9193759
2.9195602
2.9197591
2.919973
2.9202022
2.9204466
2.9207056
2.9209777
2.9212604
2.9215492
2.921837
2.9221129
2.9223605
2.9225558
2.9226647
2.9226402
2.922419
2.9219191
2.9210386
2.9196556
2.9176297
2.9148011
2.911004
2.9061079
2.8998005
2.8918377
2.8821591
2.8703759
2.8561617
2.8392199
2.8192974
2.7962151
2.7699563
2.740752
2.7091745
2.6761844
2.6431384
2.6117606
2.5837988
2.5611492
2.545716
2.5391279
2.5427461
2.5576044
2.584232
2.622351
2.6709399
2.7282639
2.7922977
2.8590973
2.9243247
2.9808722
3.0255212
3.0531092
3.0685001
3.0680626
3.0642695
2.9166866
2.9167757
2.9168815
2.916993
2.9171148
2.9172484
2.9173947
2.9175545
2.9177288
2.9179186
2.9181245
2.9183476
2.9185883
2.918847
2.9191235
2.9194171
2.9197257
2.9200458
2.9203715
2.9206934
2.9209969
2.9212605
2.9214533
2.9215322
2.9214377
2.9210917
2.9203957
2.9192288
2.9174511
2.9149072
2.9114333
2.9068613
2.9009375
2.8936304
2.8845336
2.8733906
2.8601263
2.8443771
2.8258757
2.8044499
2.7800812
2.7529654
2.7235883
2.6927902
2.6618374
2.6321599
2.6054069
2.5834313
2.5680146
2.5609398
2.5637229
2.5775136
2.6028672
2.6395121
2.6865754
2.7424464
2.8046695
2.8687964
2.9300984
2.9826006
3.0235573
3.0493601
3.0645551
3.0646802
3.0622955
2.9173493
2.9174325
2.9175322
2.9176368
2.9177513
2.9178776
2.9180165
2.918169
2.9183362
2.9185192
2.9187192
2.9189374
2.9191745
2.9194317
2.9197092
2.9200072
2.9203246
2.9206593
2.921007
2.9213606
2.9217086
2.9220334
2.9223088
2.9224975
2.9225473
2.9223876
2.9219252
2.9210451
2.9196104
2.9174647
2.9144412
2.9103573
2.9050792
2.8983838
2.8900153
2.8799979
2.8678543
2.8534032
2.8365125
2.8169789
2.7947502
2.7699547
2.7429767
2.7145651
2.6856972
2.6576756
2.632091
2.6105989
2.5951028
2.5874648
2.5893502
2.6019607
2.6258418
2.660836
2.7062505
2.7603415
2.820105
2.8804678
2.9374197
2.9852279
3.0229763
3.0467987
3.0617314
3.0622479
3.0611152
2.9196915
2.9197647
2.9198531
2.9199453
2.9200465
2.9201587
2.9202827
2.9204195
2.9205703
2.9207364
2.9209191
2.9211197
2.9213399
2.9215806
2.9218431
2.9221283
2.9224364
2.9227668
2.9231172
2.9234835
2.923858
2.9242282
2.9245746
2.9248681
2.9250669
2.9251117
2.9249234
2.9243982
2.9234071
2.9217977
2.9194017
2.9160353
2.9115352
2.9057161
2.8984531
2.8894885
2.8786652
2.8659211
2.8508773
2.833442
2.8135466
2.7912358
2.7668129
2.7407765
2.7139514
2.6875425
2.6629103
2.6417894
2.6261109
2.6178747
2.6187808
2.6300484
2.6523375
2.6856576
2.7292799
2.7810522
2.8374936
2.8935007
2.9455723
2.988796
3.0234292
3.0454594
3.060036
3.0607856
3.0607673
2.9230236
2.9230841
2.9231578
2.9232343
2.9233187
2.9234125
2.9235167
2.9236323
2.9237605
2.9239025
2.9240597
2.9242338
2.9244262
2.9246387
2.9248728
2.9251302
2.9254121
2.9257193
2.9260517
2.9264079
2.9267841
2.9271733
2.9275634
2.9279348
2.9282578
2.9284896
2.9285684
2.9284105
2.927907
2.9269216
2.9252944
2.922846
2.9193962
2.914753
2.9087707
2.9012862
2.8921999
2.8812163
2.8682687
2.8532083
2.835828
2.8161471
2.7942795
2.7705755
2.7457359
2.7207028
2.6968641
2.6759411
2.6599731
2.6510562
2.6508478
2.6606678
2.681373
2.7130465
2.7547674
2.8038134
2.8562029
2.9073395
2.9540732
2.9932867
3.0249408
3.0452754
3.0594368
3.0602966
3.0612704
2.9267749
2.9268221
2.9268798
2.9269396
2.9270058
2.9270799
2.9271624
2.9272544
2.9273571
2.9274715
2.927599
2.9277413
2.9278999
2.9280767
2.9282735
2.9284923
2.9287352
2.9290038
2.9293
2.9296243
2.9299764
2.9303541
2.9307518
2.9311596
2.9315605
2.9319279
2.9322221
2.9323857
2.9323394
2.9319782
2.9311701
2.9297568
2.9275642
2.9244043
2.9201065
2.9144764
2.9073503
2.8985997
2.8880786
2.8755299
2.8608103
2.8437866
2.8244423
2.8029972
2.7798856
2.756015
2.7327319
2.7118758
2.695497
2.6857576
2.6843689
2.6928659
2.7122848
2.7425501
2.78226
2.8277834
2.8754517
2.9212129
2.9631937
2.998474
3.0274889
3.0462174
3.0599211
3.0607902
3.062649
2.9305022
2.9305367
2.9305784
2.9306225
2.9306716
2.9307266
2.9307882
2.9308572
2.9309346
2.9310215
2.9311189
2.9312284
2.9313516
2.93149
2.9316457
2.9318209
2.9320177
2.9322385
2.9324859
2.932762
2.933069
2.9334077
2.9337778
2.9341769
2.9345993
2.935034
2.9354612
2.9358507
2.9361572
2.936317
2.9362431
2.9358209
2.9349094
2.9333419
2.9309376
2.9274976
2.9228265
2.9167038
2.9088949
2.899185
2.8872984
2.8729808
2.8561118
2.8366808
2.8150598
2.7920905
2.7691773
2.7482165
2.7313233
2.7207803
2.718479
2.7261417
2.7447475
2.7736495
2.810657
2.8517543
2.8945451
2.9349133
2.9727118
3.0044703
3.0310555
3.0482428
3.061462
3.0622611
3.0649154
2.9339575
2.9339811
2.9340093
2.9340397
2.9340737
2.9341119
2.9341549
2.9342033
2.9342581
2.9343201
2.9343906
2.9344704
2.9345604
2.9346623
2.9347774
2.9349076
2.9350555
2.9352239
2.9354154
2.9356332
2.9358803
2.9361601
2.9364757
2.93683
2.9372247
2.93766
2.9381329
2.938636
2.9391561
2.9396712
2.9401443
2.9405188
2.9407154
2.9406205
2.9400827
2.9389063
2.9368538
2.9336417
2.9289388
2.9223693
2.9135267
2.9020229
2.8875145
2.8699236
2.84959
2.8273357
2.8046605
2.7835232
2.7660723
2.7550937
2.7524705
2.7601047
2.7781989
2.8052713
2.8385155
2.8752631
2.9126725
2.9488198
2.9826522
3.0112159
3.0355867
3.0513147
3.0640375
3.064703
3.0680813
2.9370489
2.9370632
2.9370803
2.9370989
2.9371199
2.9371435
2.9371703
2.9372016
2.9372379
2.937278
2.9373207
2.9373675
2.9374217
2.9374868
2.9375659
2.9376597
2.9377675
2.9378898
2.9380284
2.9381858
2.9383667
2.9385768
2.9388215
2.9391075
2.9394415
2.9398307
2.9402835
2.9408107
2.9414218
2.9421258
2.9429305
2.9438369
2.9448314
2.9458778
2.9468903
2.9477214
2.948136
2.947787
2.9462248
2.9429051
2.9372132
2.9285271
2.916386
2.9006209
2.8814949
2.8598586
2.8373247
2.8158841
2.7985794
2.7880708
2.7862585
2.7943369
2.8115617
2.8360262
2.8653103
2.8976286
2.9306132
2.9626293
2.9929895
3.0186989
3.0410416
3.05539
3.0676203
3.0681053
3.0721428
2.9398183
2.9398243
2.9398314
2.9398392
2.9398482
2.9398588
2.9398717
2.9398869
2.9399049
2.9399256
2.9399493
2.9399766
2.9400083
2.9400453
2.9400879
2.9401361
2.9401925
2.9402632
2.9403502
2.9404508
2.9405671
2.9407075
2.9408827
2.9411014
2.9413685
2.9416914
2.9420879
2.9425804
2.9431937
2.9439581
2.9449064
2.9460915
2.9475627
2.9493351
2.9514014
2.9536906
2.9560071
2.9580111
2.9591785
2.958792
2.9560425
2.9501154
2.940325
2.9263768
2.9084446
2.8874677
2.8654343
2.8448455
2.8292261
2.820273
2.8198435
2.8279504
2.8437075
2.8648892
2.8908932
2.9186884
2.9479415
2.9764717
3.003749
3.0268738
3.0473709
3.0604284
3.0721827
3.0724536
3.0771004
2.9422897
2.9422868
2.9422835
2.9422799
2.9422763
2.9422726
2.9422691
2.9422665
2.9422657
2.9422667
2.9422675
2.9422674
2.9422677
2.9422701
2.9422752
2.9422857
2.9423056
2.9423403
2.9423918
2.9424539
2.9425239
2.9426106
2.9427248
2.9428752
2.9430714
2.9433266
2.94366
2.9441008
2.9446853
2.9454544
2.9464585
2.9477607
2.9494383
2.951558
2.9541736
2.9572787
2.9607366
2.9642485
2.9673024
2.9691474
2.9688329
2.9653191
2.9577883
2.9456184
2.9291143
2.9096341
2.8895939
2.8715832
2.8582937
2.8515885
2.851993
2.8596074
2.8733627
2.8921971
2.9143647
2.9390031
2.9649856
2.9903676
3.0149006
3.0357087
3.0545342
3.066391
3.0776948
3.0777311
3.0829567
2.9443957
2.944384
2.9443703
2.9443559
2.9443401
2.9443226
2.9443038
2.9442843
2.9442646
2.9442443
2.9442232
2.9442009
2.9441783
2.944158
2.9441416
2.9441296
2.9441212
2.9441151
2.9441135
2.9441231
2.9441511
2.944203
2.9442811
2.9443897
2.9445431
2.9447597
2.9450567
2.945459
2.9460035
2.9467349
2.9477074
2.9489922
2.9506751
2.9528521
2.9556111
2.958995
2.9629303
2.9671887
2.9713382
2.9746163
2.9760202
2.9743887
2.9686434
2.9584144
2.9443052
2.9276922
2.9107671
2.8959938
2.8857895
2.8806243
2.8815282
2.8887788
2.9008101
2.9172329
2.9368061
2.9585428
2.9816592
3.004319
3.0264345
3.0451689
3.062489
3.0732404
3.0841259
3.0839242
3.0897104
2.9457422
2.9457236
2.9457016
2.9456785
2.9456535
2.9456264
2.9455971
2.9455656
2.9455319
2.945496
2.9454581
2.9454186
2.9453782
2.9453376
2.9452976
2.9452598
2.9452263
2.9451989
2.9451791
2.945169
2.9451725
2.9451943
2.945239
2.9453118
2.9454261
2.9456055
2.9458715
2.9462427
2.9467452
2.9474262
2.9483545
2.9495943
2.9512116
2.9533224
2.9560228
2.9593518
2.9633124
2.9677658
2.9723079
2.9762531
2.9785947
2.9783726
2.9746759
2.9670768
2.9559827
2.9428662
2.929623
2.9184532
2.910669
2.906818
2.9087554
2.9153719
2.9262907
2.9406626
2.9580488
2.9774003
2.9980835
3.0183526
3.038336
3.0552254
3.0711976
3.0809392
3.0914437
3.0910058
3.0973518
2.946026
2.9460048
2.9459799
2.9459537
2.9459253
2.9458945
2.9458613
2.9458256
2.9457874
2.9457469
2.9457042
2.9456595
2.9456134
2.9455663
2.9455192
2.9454731
2.9454295
2.9453903
2.9453581
2.9453356
2.9453269
2.9453388
2.9453812
2.9454595
2.9455744
2.9457355
2.9459672
2.9462999
2.946755
2.9473624
2.948192
2.9493203
2.9508055
2.9527083
2.9551341
2.9582123
2.9619651
2.9663057
2.9709307
2.9752582
2.9785393
2.9797881
2.9781059
2.9731084
2.9652258
2.9557478
2.9462153
2.9383116
2.9326245
2.9310184
2.9337392
2.9398539
2.9497118
2.9627135
2.9783652
2.9956894
3.0142737
3.0324713
3.050594
3.0658507
3.0806217
3.0894548
3.0996227
3.0989812
3.1058763
2.9448816
2.9448641
2.9448435
2.9448218
2.9447984
2.944773
2.9447456
2.9447162
2.9446847
2.9446513
2.9446162
2.9445795
2.9445417
2.9445034
2.9444653
2.9444284
2.9443941
2.9443639
2.9443402
2.9443256
2.9443232
2.9443375
2.9443746
2.944442
2.94455
2.9447103
2.9449357
2.9452476
2.9456744
2.9462439
2.9470019
2.9480053
2.9493242
2.9510681
2.9533444
2.9562373
2.959794
2.9640034
2.9686958
2.9734179
2.9774685
2.9799664
2.980156
2.9776639
2.9729141
2.96693
2.9609517
2.955972
2.9529603
2.9530752
2.9561898
2.9623938
2.971712
2.9836213
2.9978373
3.0134764
3.0302874
3.0466972
3.0632002
3.0770195
3.0907321
3.0987555
3.1086338
3.1078204
3.1152427
2.9426711
2.9426607
2.9426484
2.9426356
2.9426217
2.9426068
2.9425907
2.9425736
2.9425555
2.9425365
2.9425168
2.9424967
2.9424766
2.9424571
2.9424388
2.9424226
2.9424099
2.9424024
2.942402
2.9424115
2.9424343
2.9424747
2.9425382
2.9426313
2.9427617
2.9429418
2.9431868
2.9435103
2.9439259
2.944467
2.9452071
2.946217
2.9475236
2.9491966
2.9513796
2.9542018
2.95773
2.9619782
2.9668188
2.9718845
2.976577
2.9801858
2.9819948
2.9817777
2.9799045
2.9771675
2.9744433
2.9721029
2.9714466
2.9730302
2.9770282
2.983454
2.9924031
3.0035182
3.016608
3.0308538
3.0461666
3.0610424
3.0761485
3.0887149
3.1015019
3.1088121
3.1184461
3.1174972
3.1254525
2.9396669
2.9396635
2.9396596
2.9396556
2.9396516
2.9396473
2.939643
2.9396388
2.9396348
2.9396313
2.9396286
2.9396269
2.9396269
2.9396292
2.9396347
2.9396444
2.9396596
2.9396821
2.9397145
2.93976
2.9398228
2.9399076
2.9400192
2.9401631
2.9403442
2.9405764
2.9408751
2.9412687
2.9417998
2.9424738
2.9433034
2.9443643
2.9457462
2.9475366
2.9498359
2.9527592
2.9563992
2.9607916
2.9658271
2.9712301
2.9764962
2.9810318
2.9842791
2.9861105
2.9868821
2.9871068
2.9868387
2.9869995
2.9885647
2.9915979
2.9964478
3.0032274
3.0120447
3.0225939
3.0347933
3.0478972
3.0619598
3.0755274
3.0894407
3.1009101
3.1128983
3.1195849
3.1290421
3.1279568
3.1365536
2.9361885
2.9361901
2.9361923
2.9361947
2.9361977
2.9362014
2.936206
2.9362118
2.936219
2.9362279
2.9362391
2.936253
2.9362705
2.9362925
2.9363201
2.9363548
2.9363986
2.9364537
2.9365232
2.9366109
2.9367215
2.9368588
2.9370296
2.9372407
2.9375071
2.9378564
2.9382977
2.9388279
2.9394763
2.9402881
2.9413031
2.9425772
2.9441789
2.9461855
2.9487076
2.9518736
2.9557732
2.9604408
2.9657974
2.9716025
2.9774528
2.982887
2.98744
2.9911933
2.9942846
2.9966296
2.9986488
3.0013209
3.0046482
3.0090298
3.0147915
3.0220148
3.0308305
3.040993
3.05251
3.0646878
3.0777128
3.090171
3.1030704
3.1135878
3.1249066
3.1310393
3.1403986
3.1391772
3.1484551
2.9321229
2.9321278
2.9321339
2.9321407
2.9321486
2.932158
2.9321691
2.9321823
2.9321979
2.9322166
2.932239
2.932266
2.9322986
2.9323381
2.9323861
2.9324446
2.932516
2.9326034
2.9327107
2.9328426
2.9330042
2.9332031
2.9334498
2.9337552
2.9341324
2.9345933
2.9351547
2.9358402
2.9366782
2.9377048
2.9389646
2.9405062
2.9423937
2.9447351
2.947645
2.951223
2.9555609
2.960694
2.9665365
2.9728898
2.9794081
2.9857543
2.99162
2.9970329
3.0017998
3.006168
3.0105876
3.0150742
3.0200123
3.0256756
3.0323183
3.0400274
3.0489501
3.058869
3.0698692
3.0813013
3.0934727
3.1049958
3.1170416
3.1267398
3.13751
3.1431445
3.1524945
3.1511413
3.161126
2.9271765
2.9271847
2.9271947
2.9272059
2.9272189
2.927234
2.9272517
2.9272725
2.927297
2.9273259
2.9273602
2.927401
2.9274496
2.9275078
2.9275776
2.9276616
2.9277629
2.9278853
2.9280336
2.9282134
2.9284317
2.9286985
2.929023
2.9294162
2.929894
2.9304746
2.9311808
2.9320412
2.9330866
2.9343509
2.9358799
2.9377495
2.9400513
2.9428747
2.9463285
2.9505197
2.9555201
2.9613379
2.9678543
2.9749148
2.9822228
2.9894848
2.9966288
3.0034381
3.0100513
3.0163267
3.0224323
3.0285693
3.0349541
3.0417784
3.0492672
3.0574817
3.0665777
3.0763585
3.0869756
3.0978121
3.1092848
3.1200239
3.1313547
3.1403561
3.1506769
3.1559026
3.1652839
3.1638387
3.1745465
2.9209188
2.9209319
2.920948
2.9209657
2.9209859
2.9210094
2.9210365
2.9210679
2.9211045
2.9211472
2.9211972
2.9212559
2.9213251
2.9214067
2.9215035
2.9216184
2.9217552
2.9219184
2.9221138
2.9223478
2.9226285
2.922966
2.9233726
2.9238626
2.924456
2.9251746
2.9260401
2.9270831
2.9283471
2.9298895
2.9317775
2.9340909
2.9369255
2.9403914
2.9445964
2.9496253
2.9555137
2.9622198
2.9696179
2.9775544
2.9857426
2.9941059
3.0025403
3.0108653
3.0189694
3.0267699
3.034429
3.0420164
3.0496844
3.0575688
3.0658487
3.0745621
3.0838722
3.0935915
3.1039283
3.1142903
3.1251937
3.1352783
3.1460141
3.1544237
3.1643932
3.1692626
3.178743
3.1772281
3.1886648
2.9129888
2.9130093
2.9130341
2.9130613
2.9130921
2.9131274
2.9131677
2.913214
2.9132673
2.9133288
2.9133999
2.9134825
2.9135784
2.9136904
2.9138213
2.9139748
2.9141551
2.9143678
2.9146193
2.9149162
2.9152685
2.9156906
2.9161948
2.9167959
2.9175137
2.9183766
2.9194238
2.9206982
2.9222545
2.9241627
2.9265104
2.9294018
2.9329512
2.9372716
2.9424544
2.9485458
2.9555279
2.9633118
2.9717725
2.9807029
2.9900215
2.9996988
3.0094191
3.0190642
3.0284743
3.0376919
3.0467187
3.0555912
3.0644069
3.0732448
3.0822515
3.0914412
3.1009813
3.1106888
3.1208206
3.130803
3.1412414
3.1507793
3.1610212
3.1689467
3.1786179
3.1832253
3.1928146
3.1912922
3.2034195
2.9031444
2.9031746
2.9032111
2.9032507
2.9032953
2.9033459
2.9034035
2.9034689
2.9035436
2.9036289
2.9037266
2.9038388
2.9039681
2.9041174
2.9042894
2.9044857
2.9047144
2.904987
2.9053068
2.9056774
2.9061103
2.9066218
2.9072312
2.9079594
2.9088325
2.9098864
2.9111671
2.9127351
2.9146675
2.9170605
2.9200277
2.9236942
2.9281837
2.9335989
2.9399937
2.9473589
2.9556288
2.96468
2.9743495
2.9844959
2.9952225
3.0061498
3.0170956
3.0279393
3.0386599
3.0491646
3.0594302
3.0694542
3.0792913
3.088981
3.0986435
3.1082719
3.118038
3.1277607
3.1377383
3.1474109
3.157465
3.1665513
3.1763848
3.1839076
3.193352
3.1977678
3.2074783
3.2059511
3.2188326
2.8911654
2.8912076
2.8912583
2.8913131
2.8913746
2.8914444
2.8915232
2.8916119
2.8917117
2.8918226
2.8919456
2.8920884
2.89226
2.8924568
2.8926746
2.8929218
2.8932086
2.8935421
2.8939314
2.8943863
2.8949186
2.8955438
2.8962845
2.8971697
2.8982367
2.8995355
2.9011311
2.9031075
2.9055699
2.9086433
2.9124666
2.9171764
2.9228894
2.9296702
2.9375109
2.9463585
2.9560822
2.9665278
2.9775579
2.9892181
3.0012644
3.0133778
3.0255528
3.037681
3.0496338
3.0613286
3.0727164
3.0837662
3.0945051
3.104943
3.1151805
3.125195
3.135163
3.1449063
3.1547574
3.1641733
3.1739035
3.1826073
3.1920991
3.1993037
3.208576
3.2128967
3.222697
3.2214551
3.2346376
2.8772014
2.8772576
2.877323
2.8773902
2.8774646
2.877555
2.8776644
2.8777836
2.8779074
2.8780441
2.8782013
2.8783817
2.8785882
2.8788247
2.879096
2.8794074
2.8797645
2.8801737
2.8806444
2.8811916
2.8818335
2.8825929
2.8834999
2.8845948
2.8859312
2.8875796
2.8896312
2.8922001
2.8954218
2.899446
2.9044226
2.9104757
2.9176848
2.9260486
2.9355194
2.9459881
2.9572363
2.9691621
2.9817961
2.9948993
3.0081884
3.0216174
3.0350872
3.0484345
3.0615527
3.0743435
3.086741
3.0986964
3.110218
3.121297
3.1320204
3.1423569
3.1524848
3.162234
3.1719649
3.1811506
3.1905951
3.1989747
3.2081691
3.2151187
3.224241
3.2285396
3.2384185
3.2373071
3.2508597
2.8614209
2.8614945
2.8615716
2.8616498
2.8617409
2.8618461
2.861966
2.8621023
2.8622574
2.8624343
2.8626378
2.862872
2.8631359
2.8634272
2.8637496
2.8641141
2.8645313
2.8650112
2.8655668
2.8662157
2.8669806
2.8678923
2.8689919
2.8703348
2.8719945
2.8740666
2.8766723
2.8799581
2.8840898
2.8892389
2.89556
2.903153
2.9120579
2.922241
2.9335642
2.9458053
2.9588576
2.9726506
2.9869521
3.0014785
3.0161939
3.0309948
3.0457245
3.0602579
3.0744764
3.0882742
3.1015765
3.114325
3.126517
3.1381325
3.1492518
3.1598375
3.1700739
3.1798013
3.1894021
3.1983721
3.2075509
3.2156446
3.2245782
3.2313416
3.2403371
3.2448066
3.2547181
3.2546165
3.2691247
2.8439009
2.8439851
2.8440863
2.8441953
2.8443154
2.844449
2.8445976
2.8447632
2.8449477
2.8451539
2.8453845
2.845643
2.8459337
2.8462617
2.8466336
2.8470577
2.8475447
2.8481085
2.8487675
2.8495465
2.8504786
2.8516084
2.8529954
2.8547187
2.8568802
2.8596087
2.8630594
2.8674088
2.8728417
2.8795293
2.8875955
2.8970905
2.9080066
2.920179
2.9334496
2.9476416
2.962673
2.9782411
2.9940547
3.010104
3.0262809
3.0424238
3.0584028
3.0740833
3.0893392
3.1040624
3.1181735
3.1316105
3.1443644
3.1564136
3.1678277
3.1785788
3.1888513
3.1985057
3.20794
3.2166785
3.2255863
3.2334092
3.2420899
3.2487034
3.2575627
3.2623096
3.2720073
3.2740404
3.2853571
2.826747
2.8268441
2.8269628
2.8270854
2.8272204
2.8273707
2.8275377
2.8277232
2.8279298
2.8281602
2.8284179
2.8287071
2.8290332
2.8294028
2.8298246
2.8303103
2.8308747
2.8315383
2.8323281
2.8332808
2.8344454
2.8358871
2.8376917
2.8399692
2.8428572
2.8465204
2.8511454
2.8569273
2.8640476
2.8726441
2.8827777
2.8944503
2.9075064
2.9217572
2.9370671
2.9531643
2.9698351
2.9868405
3.0041696
3.0216861
3.0392167
3.0566173
3.0737411
3.0904437
3.1065968
3.1220904
3.1368461
3.1508031
3.1639515
3.1762717
3.187833
3.1986188
3.2088149
3.2183145
3.2275095
3.2359872
3.2445804
3.2521503
3.2605439
3.26707
3.2757599
3.2807835
3.2904368
3.2933516
3.304362
2.81219
2.8122958
2.8124246
2.8125574
2.8127034
2.8128656
2.8130454
2.813245
2.813467
2.8137148
2.8139926
2.8143056
2.8146605
2.8150664
2.8155351
2.8160823
2.8167296
2.8175055
2.8184484
2.81961
2.8210587
2.8228834
2.8251986
2.828146
2.8318962
2.8366429
2.8425913
2.849938
2.8588419
2.869391
2.881592
2.8953489
2.9104627
2.926791
2.9438296
2.9615125
2.9796935
2.9982619
3.0170494
3.0358852
3.0546216
3.0731006
3.09117
3.1086856
3.1255196
3.141567
3.1567533
3.1710238
3.1843699
3.1967802
3.2083238
3.2190061
3.2290096
3.2382691
3.2471567
3.2553396
3.2635837
3.2709146
3.2789951
3.2854975
3.2939464
3.2994169
3.3087998
3.3132097
3.3234332
2.8032704
2.8033793
2.8035119
2.8036485
2.8037984
2.8039646
2.804149
2.8043537
2.8045819
2.8048375
2.8051256
2.8054529
2.8058283
2.8062635
2.8067745
2.807383
2.8081178
2.809018
2.8101356
2.8115393
2.8133185
2.8155874
2.8184878
2.8221903
2.8268905
2.8327992
2.8401237
2.8490423
2.8596728
2.8720455
2.8860952
2.9016624
2.9185547
2.9362839
2.9547425
2.9739536
2.9935773
3.0134425
3.0334033
3.0533017
3.0729761
3.0922651
3.1110129
3.1290764
3.1463322
3.1626817
3.1780571
3.1924111
3.2057384
3.2180396
3.2293866
3.2398115
3.2494929
3.258412
3.26691
3.2747455
3.2825937
3.2896708
3.2974131
3.3038939
3.3120959
3.3179547
3.3271508
3.3324531
3.3425882
2.8015224
2.8016298
2.8017597
2.801894
2.8020413
2.8022046
2.8023859
2.8025878
2.802814
2.8030691
2.8033596
2.8036937
2.804083
2.804543
2.8050943
2.8057656
2.8065944
2.8076316
2.8089435
2.8106168
2.8127619
2.8155162
2.8190455
2.8235418
2.8292153
2.8362796
2.8449286
2.8553073
2.8674825
2.8814222
2.8970035
2.9140228
2.9321291
2.9511148
2.9709921
2.991326
3.011978
3.0327906
3.0535975
3.0742315
3.0945234
3.1143058
3.1334226
3.1517346
3.1691247
3.1855027
3.2008072
3.2149997
3.2280808
3.2400641
3.2510315
3.2610411
3.2702684
3.2787399
3.2867619
3.2941849
3.301588
3.3083823
3.3157658
3.3222169
3.3301771
3.3364302
3.3454704
3.3518289
3.3619275
2.8089986
2.8090996
2.8092202
2.8093466
2.8094851
2.809639
2.8098102
2.810002
2.8102184
2.8104653
2.8107502
2.8110837
2.8114802
2.8119589
2.8125462
2.8132776
2.8142
2.8153759
2.8168859
2.8188333
2.8213472
2.824584
2.828727
2.8339806
2.8405587
2.8486654
2.858469
2.8700735
2.8834942
2.8986463
2.9153571
2.9333832
2.9524737
2.972477
2.9930691
3.0140906
3.0353639
3.0567159