/*--------------------------------*- C++ -*----------------------------------*\
  =========                 |
  \\      /  F ield         | OpenFOAM: The Open Source CFD Toolbox
   \\    /   O peration     | Website:  https://openfoam.org
    \\  /    A nd           | Version:  13
     \\/     M anipulation  |
\*---------------------------------------------------------------------------*/
FoamFile
{
    format      ascii;
    class       volVectorField;
    location    "28.699629";
    object      UMean;
}
// * * * * * * * * * * * * * * * * * * * * * * * * * * * * * * * * * * * * * //

dimensions      [0 1 -1 0 0 0 0];

internalField   nonuniform List<vector> 
17140
(
(-2.4254094e-06 0.00011498315 -1.182994e-22)
(-2.7053355e-05 0.00035458327 -9.6333037e-24)
(-7.9619583e-05 0.0006172752 6.3682977e-22)
(-0.00017087903 0.00090456491 -7.0044078e-22)
(-0.00031074607 0.0012180266 8.1933205e-23)
(-0.00051271509 0.0015591216 -2.682639e-22)
(-0.00079340468 0.0019291499 -4.5196633e-22)
(-0.001172909 0.0023291673 2.2108914e-22)
(-0.0016754554 0.0027598857 7.2422322e-22)
(-0.0023300491 0.0032215533 1.7789726e-21)
(-0.0031711324 0.0037138145 -2.6440289e-21)
(-0.0042392283 0.0042355513 2.3622805e-21)
(-0.0055815307 0.0047847093 3.6225164e-22)
(-0.0072523698 0.0053581143 -2.0603017e-21)
(-0.0093134683 0.0059512956 2.2969375e-22)
(-0.011833884 0.0065583281 -1.8310556e-21)
(-0.014889521 0.0071717265 6.9039439e-23)
(-0.018562096 0.007782418 -1.502602e-23)
(-0.022937462 0.0083798368 -1.1078581e-21)
(-0.028103262 0.0089521779 1.4520342e-21)
(-0.034145977 0.0094868465 -7.0525337e-22)
(-0.041147613 0.0099711203 1.3709723e-22)
(-0.049182375 0.010393005 1.014941e-21)
(-0.05831417 0.010742256 -1.0203988e-21)
(-0.068596471 0.011011497 -1.6404979e-21)
(-0.080072273 0.011197422 1.3346e-21)
(-0.092772937 0.011301828 6.6027064e-21)
(-0.10672865 0.011331476 7.7881788e-22)
(-0.12196972 0.011297539 -6.9546653e-21)
(-0.13853231 0.011213286 -1.6328838e-21)
(-0.15645317 0.011087434 -5.8887345e-21)
(-0.17575997 0.010922303 7.8355667e-21)
(-0.196482 0.010716663 -2.0489374e-21)
(-0.2186388 0.010468181 -9.9142919e-22)
(-0.24223683 0.010173818 -9.7483172e-21)
(-0.2672617 0.0098292143 4.3199135e-21)
(-0.29366863 0.0094286842 -6.4993633e-21)
(-0.32137069 0.008965542 -4.3986155e-21)
(-0.35022519 0.0084326881 -2.0065155e-21)
(-0.38001812 0.0078246115 6.0939682e-21)
(-0.41044941 0.0071392884 1.1421728e-20)
(-0.44111856 0.0063798835 1.028873e-20)
(-0.47150786 0.0055527189 4.45738e-21)
(-0.50097362 0.0046640606 -2.129615e-20)
(-0.52874436 0.0037184293 -1.5330469e-20)
(-0.55391717 0.0027217657 3.7137589e-21)
(-0.57556022 0.0016763179 -2.4816115e-20)
(-0.59277327 0.00057781254 -8.2854211e-21)
(-0.60450749 -0.00057157552 8.3148092e-21)
(-0.60999938 -0.0017376141 2.0087944e-20)
(-0.60853401 -0.0028789824 -1.2258197e-20)
(-0.59954174 -0.0039706928 -7.7003755e-21)
(-0.58240274 -0.0050299919 2.0025199e-20)
(-0.55667139 -0.006069201 9.4872697e-21)
(-0.52168405 -0.0070665509 6.8213996e-21)
(-0.47713513 -0.0080190592 -5.373113e-21)
(-0.42262079 -0.0089664241 1.4879534e-20)
(-0.35813978 -0.0099274087 1.26262e-20)
(-0.28320878 -0.01089995 3.240571e-21)
(-0.1989618 -0.011846794 -8.4430701e-21)
(-0.10483277 -0.012586999 -6.7812006e-21)
(-0.005166755 -0.012700816 -2.5603173e-20)
(0.10212589 -0.011465328 -3.8293079e-21)
(0.2046525 -0.0082162145 3.254266e-20)
(0.3144103 -0.0038225911 -2.5562118e-20)
(-2.148627e-05 0.00050294934 3.3548371e-23)
(-8.5407157e-05 0.0015496267 -3.3345075e-21)
(-0.00018044164 0.0026955462 2.9681144e-21)
(-0.00031741808 0.0039470957 -8.0972356e-22)
(-0.00050627409 0.0053105373 -1.6731741e-21)
(-0.00076047614 0.0067915171 3.198886e-21)
(-0.0010965113 0.0083947875 -3.3378857e-21)
(-0.0015342469 0.010123811 2.9407252e-22)
(-0.0020975535 0.011980281 -9.1923026e-22)
(-0.0028149267 0.013963544 -1.5340685e-23)
(-0.0037201203 0.016069949 -3.080254e-21)
(-0.0048527649 0.018292096 4.9082337e-21)
(-0.0062589367 0.020618053 4.0653002e-22)
(-0.0079916075 0.023030534 -4.0275908e-21)
(-0.010110897 0.025506158 1.2431426e-21)
(-0.012684027 0.028014847 7.9317628e-22)
(-0.015784867 0.030519551 -5.054709e-21)
(-0.019492959 0.032976444 1.6573728e-20)
(-0.023891931 0.035335844 -1.0448976e-20)
(-0.029067272 0.037544035 1.2605936e-20)
(-0.03510352 0.039546201 -1.8776477e-20)
(-0.042081093 0.041290457 4.6439617e-21)
(-0.050073117 0.042732803 1.9330581e-21)
(-0.059142971 0.043842448 -6.3627838e-21)
(-0.069344097 0.044606604 2.3127912e-20)
(-0.080720313 0.045033756 3.4652385e-21)
(-0.09330364 0.045153628 -1.8257201e-20)
(-0.107125 0.045010342 2.0652124e-20)
(-0.12221551 0.044654377 -2.9047122e-21)
(-0.13861094 0.044131203 -2.8378776e-20)
(-0.15634736 0.043475896 2.9966807e-21)
(-0.17545108 0.042710497 2.2937199e-20)
(-0.19594972 0.041846225 5.4476027e-22)
(-0.2178603 0.040886921 -1.7371414e-20)
(-0.2411859 0.039829545 1.953432e-20)
(-0.26590796 0.038663563 -8.8215443e-21)
(-0.29197666 0.037371097 1.0500062e-20)
(-0.31929897 0.035927924 3.3320776e-20)
(-0.34772501 0.034305006 7.4212123e-21)
(-0.37703286 0.032471576 2.9024831e-20)
(-0.4069132 0.030398961 -3.7169329e-20)
(-0.4369541 0.028062526 -3.3848402e-20)
(-0.46662357 0.025441261 -5.6616358e-21)
(-0.49525722 0.022516737 4.5598482e-20)
(-0.52205291 0.019277943 -2.108698e-20)
(-0.54607583 0.015736785 -7.1748815e-21)
(-0.5663318 0.011931143 3.8732822e-21)
(-0.58186546 0.0079008085 1.1753096e-20)
(-0.59173666 0.0037060783 -5.6807589e-21)
(-0.59508453 -0.00054649716 1.0135192e-20)
(-0.59119783 -0.0047790203 6.0628923e-20)
(-0.57949458 -0.0089455898 2.8977092e-21)
(-0.5594256 -0.013035069 -1.3018111e-20)
(-0.53053598 -0.017057854 2.9030795e-20)
(-0.49231882 -0.020999797 -2.4980247e-20)
(-0.44449889 -0.024839843 7.1717865e-20)
(-0.38666564 -0.028609009 2.0705255e-20)
(-0.31895202 -0.032302161 -5.9663591e-20)
(-0.240902 -0.035865874 1.0231963e-20)
(-0.15367613 -0.039159365 1.2029529e-20)
(-0.056719131 -0.041740711 2.4760902e-21)
(0.045307595 -0.043094261 -3.3327353e-20)
(0.15460967 -0.041892697 6.6430594e-20)
(0.25846636 -0.038236223 2.0064553e-20)
(0.36970644 -0.032247546 3.4006459e-20)
(-6.1776409e-05 0.0008826016 1.8481014e-21)
(-0.00020851793 0.0027193519 -1.0037533e-21)
(-0.00039307337 0.0047302381 -2.6698884e-22)
(-0.00062619538 0.0069266038 2.5336833e-22)
(-0.00091793144 0.0093194674 -1.2280177e-21)
(-0.0012815966 0.011918782 -9.1121705e-23)
(-0.0017333519 0.014732935 -1.1682769e-21)
(-0.0022925055 0.017768057 -1.2599002e-21)
(-0.0029820877 0.021027167 1.0317895e-20)
(-0.0038294169 0.024509167 -9.2287276e-21)
(-0.0048666786 0.028207674 4.4263374e-21)
(-0.0061314912 0.032109708 6.501056e-21)
(-0.0076674297 0.036194273 -1.2935778e-20)
(-0.0095244484 0.040430914 -1.6057822e-21)
(-0.011759126 0.044778357 6.2353516e-21)
(-0.014434655 0.049183439 4.3081245e-21)
(-0.017620458 0.053580566 -5.0269867e-21)
(-0.02139136 0.057892042 1.8320957e-20)
(-0.025826189 0.062029663 -1.0919605e-20)
(-0.03100582 0.065897973 5.4411474e-21)
(-0.037010667 0.069399509 -1.8535996e-20)
(-0.043917839 0.072442104 -4.8696196e-21)
(-0.051798252 0.074947912 1.0273055e-20)
(-0.060714282 0.076863122 -1.562049e-20)
(-0.070719412 0.078166702 -6.1984038e-21)
(-0.081859155 0.078876063 7.5837688e-21)
(-0.094166987 0.079046721 4.3425908e-20)
(-0.10767566 0.078759876 1.9810743e-20)
(-0.12241725 0.078105 -1.0098976e-20)
(-0.13842665 0.077160858 1.0783614e-20)
(-0.15573934 0.075990023 -6.9536212e-21)
(-0.17437846 0.074635275 -3.928727e-20)
(-0.19436786 0.073120909 1.328818e-20)
(-0.21571918 0.071457122 3.9930688e-20)
(-0.23842833 0.069640875 -1.3588588e-20)
(-0.26246765 0.067655549 -1.900508e-20)
(-0.28777613 0.065471173 3.3070125e-20)
(-0.3142472 0.063045841 1.0050372e-20)
(-0.34171467 0.060328416 -1.8120223e-20)
(-0.36993728 0.057262496 -7.3118023e-21)
(-0.3985825 0.05379152 3.4844989e-20)
(-0.42720932 0.049861317 -1.0003622e-20)
(-0.4552487 0.045420685 -1.4304392e-20)
(-0.48199015 0.040423516 -3.7669818e-20)
(-0.50657381 0.034841273 7.1258785e-20)
(-0.52800864 0.028693644 -4.5584388e-20)
(-0.54527402 0.022069412 -1.1233602e-20)
(-0.55736272 0.015075145 -4.4615488e-20)
(-0.56332617 0.0078135905 -5.3106372e-20)
(-0.56234727 0.00046440862 -2.6640779e-21)
(-0.55379235 -0.0068193906 1.1171397e-20)
(-0.53716512 -0.013966399 -8.3019806e-20)
(-0.51201433 -0.02097766 -3.5530369e-20)
(-0.47793894 -0.027869968 -3.6771778e-20)
(-0.43454289 -0.034624792 -1.2139858e-20)
(-0.38162992 -0.041207265 -9.5718886e-20)
(-0.31892517 -0.047624684 3.8388666e-20)
(-0.24669631 -0.053860011 -1.1999767e-20)
(-0.1645224 -0.059804826 -1.0022408e-19)
(-0.073733048 -0.065229058 -4.0634266e-20)
(0.026315322 -0.069372232 4.9651961e-20)
(0.13049877 -0.071718002 1.7450828e-19)
(0.24131945 -0.070241996 -5.7109475e-20)
(0.3447849 -0.066015154 -9.2934004e-20)
(0.45499143 -0.057947644 -4.0414473e-20)
(-0.00012203362 0.0012410303 -6.1600304e-21)
(-0.00039258953 0.0038242997 7.1910607e-21)
(-0.00071098431 0.0066532117 -2.6011292e-21)
(-0.0010878065 0.0097440641 2.829793e-22)
(-0.0015332653 0.013112673 -5.5956502e-21)
(-0.0020604542 0.016773455 5.7952708e-21)
(-0.0026850274 0.020738714 -8.7980519e-21)
(-0.0034254422 0.025017682 4.1466421e-21)
(-0.0043034563 0.029615328 1.5784535e-20)
(-0.0053446065 0.03453095 -3.8046989e-21)
(-0.0065787066 0.039756527 -1.4519383e-20)
(-0.0080403309 0.045274864 4.4475102e-21)
(-0.009769272 0.05105756 2.9972306e-22)
(-0.011810913 0.057062921 -1.1726246e-20)
(-0.014216463 0.06323396 3.6885668e-20)
(-0.017042986 0.069496759 -2.2788044e-20)
(-0.020353136 0.075759536 -2.1830531e-22)
(-0.024214512 0.081912895 1.2801043e-20)
(-0.028698569 0.087831855 -3.2817247e-20)
(-0.03387904 0.093380203 1.5660904e-20)
(-0.039829902 0.098417746 2.3633581e-20)
(-0.046623018 0.10281062 9.6797986e-21)
(-0.054325699 0.10644421 -4.8632006e-20)
(-0.062998587 0.10923743 -2.5765189e-20)
(-0.07269506 0.11115574 1.6967054e-20)
(-0.083462728 0.11221989 -1.0001806e-20)
(-0.095337738 0.11250672 3.8205774e-20)
(-0.10835553 0.11213345 -1.1126526e-20)
(-0.12254891 0.11122731 3.0486235e-20)
(-0.13795234 0.10990243 -1.7529207e-20)
(-0.15460065 0.10824992 1.093358e-20)
(-0.17251228 0.10633469 -4.0823435e-20)
(-0.19170531 0.10419528 5.9737043e-21)
(-0.2121834 0.10184864 -3.1624016e-20)
(-0.23393204 0.099291966 3.066763e-20)
(-0.25691035 0.096502665 9.7531993e-21)
(-0.28104086 0.09343866 -1.2462377e-19)
(-0.30619702 0.09004029 -3.259859e-20)
(-0.33218884 0.086233855 2.7281818e-20)
(-0.35874705 0.081936823 -2.6892364e-20)
(-0.38550585 0.077063565 6.8320755e-21)
(-0.41198347 0.071528577 4.3361217e-20)
(-0.43756162 0.065248581 -2.049538e-21)
(-0.46147215 0.058149723 -1.4259791e-20)
(-0.48279257 0.050190661 7.0883528e-21)
(-0.50049295 0.041411188 -3.1251704e-21)
(-0.51355472 0.03194763 -9.6692623e-21)
(-0.5209504 0.02197728 1.5134504e-19)
(-0.52178764 0.011689432 -1.6757878e-20)
(-0.51536128 0.0013468992 1.5449317e-20)
(-0.50117046 -0.0088427994 -1.4472082e-19)
(-0.47883523 -0.018789051 7.9424587e-20)
(-0.44799974 -0.028505001 6.5245567e-20)
(-0.40834444 -0.038020539 6.2677975e-20)
(-0.35956661 -0.047318748 6.0904809e-20)
(-0.30160665 -0.0563604 9.6866839e-20)
(-0.23432198 -0.06513678 -1.9599261e-19)
(-0.15812624 -0.073641461 1.2265229e-19)
(-0.072627753 -0.081714532 1.9020729e-19)
(0.020626082 -0.089075547 -1.420092e-19)
(0.1223752 -0.094595341 -4.6611975e-20)
(0.22691352 -0.09778953 -4.2062457e-20)
(0.33709674 -0.095730642 2.1536376e-19)
(0.4375934 -0.090637286 1.6039058e-19)
(0.54268734 -0.080354058 -7.1795551e-21)
(-0.00019955334 0.0015653686 4.3104603e-21)
(-0.00062943815 0.0048250517 -1.0475644e-20)
(-0.0011200926 0.0083962576 8.5443981e-21)
(-0.0016819105 0.012300176 -3.230894e-21)
(-0.0023253246 0.016557427 -1.167914e-21)
(-0.0030631622 0.021187056 1.0060353e-20)
(-0.0039104459 0.026205631 -2.5523118e-21)
(-0.0048845647 0.031626064 -5.4259016e-21)
(-0.0060056644 0.037456129 -4.1746086e-22)
(-0.0072970177 0.043696709 -3.5518944e-21)
(-0.0087854114 0.050339718 4.9873459e-21)
(-0.010501522 0.057365745 -3.4794336e-21)
(-0.012480278 0.064741445 -1.2871973e-20)
(-0.014761161 0.072416807 -3.7402238e-22)
(-0.017388415 0.08032246 9.9565922e-21)
(-0.020411111 0.088367383 7.1030637e-21)
(-0.023883005 0.096437377 -6.1621625e-21)
(-0.027862129 0.10439498 6.0195399e-22)
(-0.032410066 0.11208152 1.2281691e-20)
(-0.037590859 0.11932211 1.514226e-20)
(-0.043469585 0.12593441 -1.7525602e-20)
(-0.050110652 0.13174142 -1.7901433e-20)
(-0.057575992 0.13658809 2.4475787e-20)
(-0.065923367 0.14036008 -3.0763042e-20)
(-0.075205579 0.1430017 -5.4107931e-20)
(-0.085471789 0.14452866 1.2969562e-19)
(-0.096763154 0.14503145 -7.2519039e-20)
(-0.10911738 0.14465927 1.0885894e-19)
(-0.12256766 0.14357656 -1.3791464e-19)
(-0.13715039 0.14193646 1.5584521e-19)
(-0.15289838 0.13985851 -1.6301597e-19)
(-0.16982517 0.13743161 2.7838549e-20)
(-0.18794101 0.13471063 9.6622091e-20)
(-0.20723982 0.13172029 -5.4994071e-20)
(-0.22769416 0.12845856 1.7363384e-20)
(-0.24924664 0.12489693 5.1839686e-21)
(-0.27179942 0.12098117 6.3121835e-20)
(-0.29520162 0.11663387 2.0523898e-20)
(-0.31923486 0.11175879 2.057923e-20)
(-0.34359724 0.1062468 2.0679719e-20)
(-0.36788456 0.09998192 -1.0546577e-19)
(-0.39156933 0.092845319 4.6221578e-20)
(-0.4139814 0.084720645 7.0525623e-21)
(-0.43429729 0.075508133 -8.376946e-20)
(-0.45154803 0.065162885 -4.1913079e-20)
(-0.46470307 0.053760606 2.0648422e-20)
(-0.47278072 0.041502418 7.3498065e-20)
(-0.47481957 0.02862992 -3.1991547e-20)
(-0.47002835 0.015432799 9.1730204e-20)
(-0.45783526 0.0022611546 4.9481304e-20)
(-0.43785107 -0.010626588 6.8180541e-20)
(-0.40978965 -0.023142639 1.8188847e-19)
(-0.37335131 -0.035330296 -1.4113923e-19)
(-0.32826362 -0.047236826 4.5668422e-20)
(-0.27430735 -0.058831735 -8.0215262e-20)
(-0.21158297 -0.070055872 -7.6919505e-20)
(-0.14013156 -0.080897877 -3.025233e-20)
(-0.060533662 -0.091397108 -2.8407822e-19)
(0.027570812 -0.10132163 -7.8269345e-20)
(0.12234979 -0.11037937 1.8268134e-19)
(0.22465106 -0.1169898 7.0338225e-20)
(0.32805212 -0.12082341 -5.4526662e-20)
(0.43547108 -0.11795278 -1.1488606e-19)
(0.53106021 -0.11152756 -1.7969648e-19)
(0.62770574 -0.0989149 1.4196871e-20)
(-0.000290192 0.0018432907 1.3034421e-20)
(-0.00090646291 0.0056838027 3.3574508e-21)
(-0.0015987139 0.0098938726 -2.7213984e-21)
(-0.0023771459 0.014499434 -1.0051988e-20)
(-0.0032524895 0.01952585 5.5113276e-21)
(-0.0042373063 0.024996931 -7.9412244e-21)
(-0.0053459335 0.03093388 3.4405398e-21)
(-0.0065945704 0.037353943 8.2064072e-22)
(-0.008001547 0.044268721 -4.655197e-21)
(-0.0095875605 0.051682133 -1.005781e-20)
(-0.01137593 0.059587989 -5.0436734e-22)
(-0.013392839 0.067967201 1.6654915e-20)
(-0.015667572 0.076784647 -2.3148899e-20)
(-0.01823272 0.085985803 3.7607463e-20)
(-0.021124331 0.095493365 -9.8998211e-21)
(-0.024381986 0.10520414 2.1206102e-20)
(-0.028048774 0.11498676 -2.5909128e-20)
(-0.032171115 0.12468093 1.7024097e-20)
(-0.036798425 0.13409895 -2.730612e-21)
(-0.041982579 0.14303082 -1.123633e-20)
(-0.047777187 0.15125375 2.7762456e-20)
(-0.054236699 0.15854673 -3.9912438e-20)
(-0.06141541 0.16471029 4.4241508e-20)
(-0.069366436 0.16958969 7.7132064e-21)
(-0.078140946 0.17309813 -7.761653e-20)
(-0.087788673 0.1752349 7.9995199e-20)
(-0.09835691 0.17609241 -5.3069075e-20)
(-0.10988527 0.17584277 6.0574485e-20)
(-0.12240976 0.17469037 5.7237953e-21)
(-0.1359689 0.17282857 3.5960955e-21)
(-0.15059151 0.17040621 -2.5293919e-20)
(-0.16628904 0.16753862 1.6129736e-21)
(-0.18306125 0.16430006 -9.7531488e-20)
(-0.20089139 0.1607248 2.6811579e-20)
(-0.21973715 0.15681239 8.0505497e-20)
(-0.23952253 0.15252876 -3.795363e-20)
(-0.26012723 0.14780795 3.1503884e-20)
(-0.28137399 0.1425553 -3.1651618e-20)
(-0.30301442 0.13665236 -1.7723866e-19)
(-0.3247123 0.12996299 9.8264706e-20)
(-0.34602403 0.12233962 2.3971884e-20)
(-0.36637778 0.11362927 -1.3567123e-19)
(-0.38505821 0.10368358 8.1606799e-21)
(-0.40120287 0.092382479 1.6666097e-20)
(-0.41383122 0.079690554 1.7617881e-19)
(-0.4219729 0.065735124 4.0380324e-20)
(-0.42471069 0.050789716 -6.2680771e-20)
(-0.42121667 0.035156276 -6.3405401e-20)
(-0.41080328 0.019224703 -8.9106539e-20)
(-0.39298254 0.0034199053 -1.0885341e-19)
(-0.36741723 -0.011957963 -6.5972086e-20)
(-0.33387975 -0.026828658 -1.0300334e-19)
(-0.29210153 -0.041270299 3.5335507e-20)
(-0.24185136 -0.055337636 -2.1849232e-19)
(-0.18300249 -0.068969319 -1.4662052e-20)
(-0.11584031 -0.082082203 -1.2856675e-20)
(-0.040579599 -0.094658493 -6.9295605e-21)
(0.041975037 -0.10682587 3.0557487e-19)
(0.13219851 -0.11827105 1.2213099e-19)
(0.22791166 -0.12874321 -1.9186556e-19)
(0.32999251 -0.13614551 -2.8270214e-19)
(0.43140259 -0.14022079 -1.2950666e-19)
(0.53406776 -0.13632658 -4.3242431e-20)
(0.62288792 -0.1280857 2.5500484e-19)
(0.70894701 -0.11300326 -6.5165565e-20)
(-0.00038843498 0.0020638439 -2.4408353e-21)
(-0.001207091 0.0063668204 -5.6442844e-21)
(-0.0021181935 0.011087489 1.3631565e-20)
(-0.0031320454 0.01625621 -5.078791e-22)
(-0.00425966 0.021902946 -6.6492369e-21)
(-0.0055133907 0.028056322 -2.9339392e-21)
(-0.0069069162 0.034742492 -2.169514e-21)
(-0.0084552431 0.041983692 4.2837141e-21)
(-0.010174836 0.049796424 -2.2227241e-20)
(-0.012083717 0.058189226 1.6824789e-20)
(-0.01420156 0.067160006 -8.1542722e-22)
(-0.016549788 0.076692901 -1.0262666e-20)
(-0.019151648 0.086754705 3.8607068e-20)
(-0.02203229 0.097290923 -3.8731989e-20)
(-0.025218824 0.10822168 5.2054095e-21)
(-0.028740366 0.11943776 3.2481164e-20)
(-0.032628076 0.13079733 -3.0886675e-20)
(-0.036915185 0.1421241 1.0944379e-20)
(-0.041637015 0.15320791 -2.1558256e-20)
(-0.046831006 0.16380911 2.8126357e-20)
(-0.052536737 0.17366781 5.375866e-20)
(-0.058795947 0.18251949 -5.4256926e-20)
(-0.065652517 0.19011683 -8.1019558e-20)
(-0.073152369 0.19625691 1.5943802e-19)
(-0.081343132 0.20081008 -1.303406e-19)
(-0.090274011 0.20374462 7.7028166e-20)
(-0.099996258 0.20513935 -2.0241757e-20)
(-0.1105549 0.2051761 4.8520757e-20)
(-0.12199018 0.20409777 -5.0559253e-20)
(-0.1343387 0.20213754 -6.8917801e-20)
(-0.14762937 0.19947996 4.6538007e-20)
(-0.16187313 0.19626786 7.7695163e-20)
(-0.1770573 0.19259797 -6.9882916e-21)
(-0.19315397 0.1885174 -2.9505637e-21)
(-0.21010488 0.18402911 -5.1540144e-20)
(-0.22781451 0.1790947 2.2464624e-20)
(-0.24613952 0.17363747 8.2787998e-20)
(-0.26487619 0.16754629 4.1696255e-20)
(-0.28374612 0.16068078 -6.4215796e-20)
(-0.30237955 0.1528776 5.1004452e-20)
(-0.32029595 0.1439574 -4.3113837e-20)
(-0.33688574 0.13373404 1.4632658e-20)
(-0.35140271 0.12203125 5.4711802e-20)
(-0.36297326 0.10871909 -1.3021497e-19)
(-0.37065299 0.093788482 -7.6988456e-20)
(-0.37358223 0.077426289 -4.9554932e-20)
(-0.37095306 0.059969085 1.5383466e-19)
(-0.36206881 0.041773482 9.878161e-20)
(-0.34629421 0.023295493 1.1473564e-19)
(-0.32313557 0.0050332247 1.9848247e-19)
(-0.2922806 -0.01265753 -6.8018006e-20)
(-0.25355122 -0.029697402 1.4328109e-20)
(-0.20670428 -0.046202937 1.1375319e-19)
(-0.15157385 -0.062231268 3.3546348e-19)
(-0.088165752 -0.077669524 2.2326253e-19)
(-0.016975201 -0.092404294 8.9104874e-20)
(0.06169449 -0.10640498 2.6440578e-19)
(0.14684657 -0.11992976 -1.8243107e-19)
(0.23888464 -0.13255515 1.9111974e-20)
(0.33532492 -0.14407163 3.0919798e-19)
(0.43665778 -0.15190802 2.1520183e-19)
(0.53543182 -0.15568759 1.0300982e-20)
(0.63165121 -0.15042845 -3.5947574e-19)
(0.71176883 -0.14010238 3.8042992e-20)
(0.78556311 -0.12239427 -5.5787196e-20)
(-0.00048775553 0.0022181191 -9.5488779e-21)
(-0.0015113918 0.0068465387 4.6706818e-21)
(-0.0026441661 0.011929034 -6.3133194e-21)
(-0.0038967766 0.017499924 -3.5909058e-21)
(-0.0052805143 0.023593476 1.0031468e-20)
(-0.0068076225 0.030243049 9.3758594e-21)
(-0.0084912237 0.037479926 -9.636761e-21)
(-0.010345243 0.045331881 1.1612518e-21)
(-0.012384402 0.053821305 2.6959176e-22)
(-0.014624165 0.062962916 1.922683e-20)
(-0.017080683 0.072760958 -2.1189044e-21)
(-0.019770708 0.083205834 -3.9096582e-20)
(-0.022711504 0.094270217 3.1433329e-20)
(-0.025920753 0.10590463 -1.0923979e-21)
(-0.029416474 0.11803269 -2.1386032e-20)
(-0.033216986 0.13054624 -1.8597512e-21)
(-0.037340933 0.14330097 4.78334e-21)
(-0.041807429 0.15611314 2.1846137e-20)
(-0.046636353 0.16875872 -4.0627988e-20)
(-0.051848859 0.18097609 7.2647666e-20)
(-0.057468137 0.19247419 -1.5977729e-20)
(-0.063520347 0.20294763 1.195535e-20)
(-0.070035739 0.21209953 -1.0069655e-20)
(-0.077049699 0.21967171 4.0868954e-22)
(-0.084603363 0.225479 -6.2153643e-20)
(-0.092743527 0.22944143 -6.3280263e-20)
(-0.10152199 0.23160526 1.277662e-19)
(-0.11099224 0.23214302 2.1643538e-20)
(-0.12119841 0.23132074 -7.6841253e-20)
(-0.13217448 0.22942052 -2.7762153e-20)
(-0.14395265 0.22667095 -6.3554917e-20)
(-0.156543 0.22323863 7.2848535e-20)
(-0.16992425 0.21924779 3.2226129e-20)
(-0.18405447 0.21476391 -7.5770439e-20)
(-0.1988595 0.20979607 3.2205493e-20)
(-0.21422456 0.20430403 1.5148838e-20)
(-0.22998372 0.19820196 -4.5739329e-20)
(-0.24590751 0.19136343 -1.2006942e-19)
(-0.26168875 0.18362682 -3.6525035e-20)
(-0.27692616 0.17480215 2.4542282e-20)
(-0.29110681 0.16467967 5.8241382e-20)
(-0.30359353 0.15304382 6.0006842e-20)
(-0.31362786 0.13969837 6.6111731e-20)
(-0.32035631 0.12451703 1.3786378e-19)
(-0.3229178 0.10753272 -3.7287236e-21)
(-0.32058269 0.088995489 5.7333426e-20)
(-0.31267509 0.069277613 -3.0653447e-19)
(-0.29856741 0.04876111 -8.4052282e-20)
(-0.27759593 0.027937747 -9.5251916e-20)
(-0.24925946 0.0073909504 -2.6190886e-19)
(-0.21331514 -0.012442593 3.0450623e-19)
(-0.1696385 -0.031483479 -6.7840948e-20)
(-0.11801192 -0.0498794 -2.1858281e-19)
(-0.058357195 -0.06767209 -2.7041561e-19)
(0.0091746145 -0.084686677 -3.4772807e-20)
(0.083922456 -0.10079858 8.854558e-20)
(0.165522 -0.11596765 1.4500343e-19)
(0.25293428 -0.13058471 -6.2225812e-20)
(0.34656007 -0.14411132 1.1421682e-19)
(0.44370257 -0.15627985 -9.7331268e-20)
(0.54388572 -0.16415855 -3.3458624e-20)
(0.63900899 -0.16697193 -1.0081345e-19)
(0.72694032 -0.15987006 4.4822385e-19)
(0.79609175 -0.147222 1.4697799e-20)
(0.85565993 -0.12683881 1.8346581e-19)
(-0.00058099229 0.0023000003 8.8848567e-21)
(-0.0017972757 0.0071039328 1.7194967e-21)
(-0.003138585 0.012385063 -1.8907275e-21)
(-0.0046160661 0.018181057 -9.2994298e-21)
(-0.0062413627 0.02453001 1.1162895e-20)
(-0.0080267219 0.031469712 -9.4898557e-21)
(-0.0099848686 0.039036552 -4.5412102e-21)
(-0.012128861 0.047264147 2.4414769e-22)
(-0.014471946 0.056181541 3.8491117e-21)
(-0.017027374 0.06581096 2.1944511e-20)
(-0.01980817 0.076165002 -3.6962757e-20)
(-0.022826884 0.087243238 4.4583359e-20)
(-0.026095304 0.099028122 -1.3155672e-20)
(-0.029624174 0.11148026 -1.7954881e-20)
(-0.033422927 0.12453309 2.7729906e-20)
(-0.037499489 0.13808721 -5.5117363e-20)
(-0.041860208 0.1520048 6.7464151e-20)
(-0.046509983 0.1661047 1.0697901e-21)
(-0.051452703 0.18015956 3.965599e-20)
(-0.056692095 0.19389616 -1.5992022e-19)
(-0.06223305 0.20700128 3.9419722e-20)
(-0.06808347 0.21913473 1.6620607e-19)
(-0.074256523 0.22995154 -8.0233378e-20)
(-0.080773028 0.23913357 -9.7757368e-20)
(-0.087663455 0.24642826 2.5140321e-20)
(-0.094968747 0.25168873 1.3421564e-19)
(-0.10273928 0.25490545 -2.0768697e-19)
(-0.11103147 0.25621709 2.3475861e-19)
(-0.11989914 0.25588812 -1.8818478e-19)
(-0.1293796 0.25424348 3.6662287e-20)
(-0.13949696 0.25157418 -6.3772625e-20)
(-0.15026462 0.24808287 -9.2030385e-20)
(-0.16166104 0.24390993 3.6903306e-20)
(-0.17362851 0.23914618 9.7204424e-21)
(-0.18607837 0.23381586 1.3923e-19)
(-0.19887586 0.22788068 -2.7427914e-20)
(-0.21183314 0.22124786 7.0580227e-20)
(-0.22469595 0.21377701 -6.001613e-20)
(-0.23712957 0.20528653 3.5945053e-20)
(-0.24870353 0.19556139 2.3363713e-20)
(-0.25887775 0.18436492 2.0018719e-20)
(-0.26699808 0.17145884 1.9866116e-20)
(-0.2723121 0.15663828 -1.2064225e-19)
(-0.27401116 0.13979556 -9.4258895e-20)
(-0.27134698 0.12101578 2.6497239e-20)
(-0.26369803 0.10060694 -1.6544926e-20)
(-0.25049817 0.078939674 6.8712017e-20)
(-0.23110999 0.056383603 -1.3478376e-19)
(-0.2048571 0.033458714 -1.5543362e-19)
(-0.17135785 0.01085133 -4.473426e-20)
(-0.13049284 -0.01092361 -1.1733554e-19)
(-0.082161895 -0.031782808 3.7454169e-21)
(-0.026137826 -0.051894723 5.6851119e-20)
(0.037553885 -0.071280655 2.7715416e-19)
(0.10865535 -0.089691507 -1.3969804e-19)
(0.18641354 -0.10699991 5.6987736e-20)
(0.27041572 -0.1231714 -1.6929828e-19)
(0.35982277 -0.13868544 2.8866217e-19)
(0.45496145 -0.15286448 -1.6832144e-19)
(0.55274422 -0.16520026 5.9014598e-20)
(0.65121933 -0.17242133 -5.6422439e-23)
(0.74092835 -0.17358247 4.8222815e-20)
(0.81810407 -0.16424854 1.816699e-19)
(0.87358435 -0.14949151 -3.4678081e-19)
(0.91695769 -0.12698264 3.583098e-19)
(-0.00066077742 0.0023068469 -1.967064e-20)
(-0.0020421661 0.0071305359 -9.7433644e-21)
(-0.003562411 0.012440296 1.530698e-20)
(-0.0052331187 0.018276351 -4.032506e-22)
(-0.0070663347 0.024679915 -1.3867476e-20)
(-0.0090744246 0.031692665 -7.2608194e-21)
(-0.011269906 0.03935576 1.5332109e-20)
(-0.013665252 0.047708624 -2.5222618e-21)
(-0.016272623 0.056787318 3.5667403e-20)
(-0.019103566 0.066622459 -6.9754347e-21)
(-0.022168634 0.077236573 -1.7906721e-22)
(-0.025476966 0.088640783 2.58887e-20)
(-0.029035813 0.10083077 -8.3483218e-20)
(-0.032850051 0.11378188 3.919428e-20)
(-0.036921684 0.12744351 7.0858664e-20)
(-0.041249432 0.14173273 -7.6331789e-20)
(-0.045828451 0.1565276 9.5097505e-21)
(-0.050650313 0.17166058 -5.4858906e-20)
(-0.05570339 0.18691335 -4.1443745e-20)
(-0.060973804 0.20201418 1.3287439e-19)
(-0.066447096 0.21664022 -1.0187832e-19)
(-0.072110774 0.230427 1.3715232e-19)
(-0.077957603 0.24298784 -1.6516538e-20)
(-0.083989455 0.25394448 6.9057772e-20)
(-0.090220953 0.26296835 -1.5384488e-19)
(-0.096681959 0.26982775 3.7293467e-20)
(-0.10341751 0.27443134 9.6218269e-20)
(-0.11048398 0.27685386 -2.3748041e-19)
(-0.11794043 0.27732866 1.0526611e-19)
(-0.12583558 0.2761951 1.1520296e-19)
(-0.13419284 0.27380533 -9.6861203e-20)
(-0.1430132 0.27043245 -1.3031586e-20)
(-0.15228007 0.26625177 6.6869364e-20)
(-0.16193159 0.2613664 -3.7482769e-20)
(-0.17185938 0.25581501 5.8119358e-20)
(-0.18191346 0.24957075 -2.0653754e-19)
(-0.19188496 0.24253964 1.0939759e-19)
(-0.20149435 0.23457052 6.6302704e-20)
(-0.21037939 0.22546411 1.367814e-19)
(-0.21808227 0.21498336 1.8058085e-20)
(-0.2240409 0.20286998 -1.4766725e-19)
(-0.22759352 0.1888717 5.9476549e-20)
(-0.22800709 0.17278745 8.7596015e-20)
(-0.22453155 0.15454176 1.3741421e-20)
(-0.21652706 0.13427213 -8.3913963e-20)
(-0.20344297 0.11232719 -7.3204661e-20)
(-0.18477153 0.08905063 2.2058325e-19)
(-0.15986031 0.064785908 1.1580853e-19)
(-0.1281813 0.040091018 2.4952104e-19)
(-0.089588858 0.015743729 8.71675e-20)
(-0.044069433 -0.0076986794 3.3707415e-20)
(0.0085229578 -0.030168736 2.4904015e-19)
(0.068443443 -0.051832615 9.8056807e-20)
(0.13559713 -0.072660089 -3.3117414e-19)
(0.2096986 -0.092315404 2.674132e-19)
(0.28990302 -0.11066574 -2.4771806e-19)
(0.37595994 -0.12770291 1.1989823e-19)
(0.46744146 -0.14392191 -5.8445093e-19)
(0.56428816 -0.15844917 -2.9494327e-19)
(0.66267074 -0.17047322 1.2037433e-19)
(0.75819283 -0.17647074 1.9012988e-19)
(0.83937726 -0.17539474 3.2034324e-19)
(0.90247909 -0.16365319 5.6746307e-20)
(0.94145333 -0.14702617 4.4842037e-20)
(0.96774796 -0.12311937 -4.7862707e-19)
(-0.0007202439 0.0022400799 -3.5382707e-22)
(-0.0022249683 0.0069302727 1.8069898e-20)
(-0.0038790896 0.012100822 -2.1317048e-20)
(-0.00569463 0.017793533 -1.0267475e-20)
(-0.007684038 0.024051807 2.0585956e-20)
(-0.009859883 0.030920368 6.6766279e-21)
(-0.012234658 0.038444445 -3.2432802e-20)
(-0.014820549 0.046668792 3.4971594e-20)
(-0.017629082 0.055636312 7.3957365e-21)
(-0.020670717 0.065386266 2.9509497e-20)
(-0.023954349 0.075951925 -7.8648752e-20)
(-0.027486744 0.087357537 -9.6406326e-22)
(-0.031271893 0.099614532 7.1344638e-20)
(-0.035310313 0.11271676 -7.7095497e-20)
(-0.03959832 0.1266348 5.5636918e-20)
(-0.044127335 0.14130921 2.08287e-20)
(-0.048883316 0.15664294 -4.4013916e-20)
(-0.053846442 0.17249335 4.0254122e-20)
(-0.058991225 0.18866457 5.4409245e-20)
(-0.064287277 0.20490158 -1.1777269e-21)
(-0.069701027 0.22088816 -8.8984068e-20)
(-0.075198524 0.23625134 5.6155966e-20)
(-0.080749554 0.25057564 -3.1970665e-20)
(-0.086332716 0.26342977 -1.5816539e-19)
(-0.091940961 0.27440714 -5.4018118e-20)
(-0.097586297 0.28317757 1.5012201e-19)
(-0.10330184 0.28954206 -1.5312959e-20)
(-0.10913929 0.29347625 1.766631e-19)
(-0.11516018 0.29514421 -1.0674476e-19)
(-0.12142076 0.29486392 5.741144e-20)
(-0.12795462 0.29302299 -8.4861841e-20)
(-0.13476488 0.28997459 -2.1022857e-20)
(-0.14181833 0.28596295 1.0780555e-19)
(-0.14904467 0.28112339 -1.1309347e-19)
(-0.15633466 0.27551504 -1.6797012e-19)
(-0.16352205 0.26912035 1.7423134e-20)
(-0.17037572 0.26184492 1.8685735e-19)
(-0.17659247 0.25352964 -2.4198754e-19)
(-0.1817831 0.24396186 5.2907256e-20)
(-0.18546487 0.23288824 -1.1378664e-19)
(-0.18705885 0.22003622 1.7598199e-20)
(-0.18590389 0.20514902 -1.7918676e-19)
(-0.18129419 0.18803968 -8.6010091e-20)
(-0.17254429 0.16866952 -1.0621787e-19)
(-0.1590824 0.1472271 4.265044e-19)
(-0.14041591 0.12407851 1.380567e-19)
(-0.11606962 0.099542464 -1.8311839e-19)
(-0.085483011 0.073950046 1.481106e-19)
(-0.04842978 0.047899944 1.2311075e-19)
(-0.0049941664 0.022203001 -1.3842107e-19)
(0.044807956 -0.0026058177 -7.2155759e-20)
(0.10122577 -0.026489722 -1.6881291e-19)
(0.16455015 -0.049553666 -8.1915484e-20)
(0.23472854 -0.071679852 2.8057583e-19)
(0.31142387 -0.09245099 1.584661e-19)
(0.3938028 -0.11174971 2.5577853e-20)
(0.48216674 -0.12958844 -1.0381559e-21)
(0.576386 -0.1463474 1.4470369e-19)
(0.6754474 -0.16086599 -2.1067241e-19)
(0.77371704 -0.17180107 -2.7473073e-19)
(0.86302343 -0.17559113 -7.7468406e-20)
(0.93126401 -0.17179794 -5.9234864e-19)
(0.97638924 -0.15793089 -4.74408e-19)
(0.99708901 -0.14046765 -1.2134762e-19)
(1.0066636 -0.11679587 -6.4912693e-20)
(-0.00075376822 0.0021055227 1.1949344e-20)
(-0.0023283457 0.0065205598 7.571381e-21)
(-0.0040584816 0.011396078 -1.5756266e-20)
(-0.0059564994 0.016774334 2.7025655e-20)
(-0.0080351803 0.022699764 6.7719123e-21)
(-0.010307318 0.029218999 -2.9048958e-20)