/*--------------------------------*- C++ -*----------------------------------*\
  =========                 |
  \\      /  F ield         | OpenFOAM: The Open Source CFD Toolbox
   \\    /   O peration     | Website:  https://openfoam.org
    \\  /    A nd           | Version:  13
     \\/     M anipulation  |
\*---------------------------------------------------------------------------*/
FoamFile
{
    format      ascii;
    class       volScalarField;
    location    "38.302087";
    object      pPrime2Mean;
}
// * * * * * * * * * * * * * * * * * * * * * * * * * * * * * * * * * * * * * //

dimensions      [0 4 -4 0 0 0 0];

internalField   nonuniform List<scalar> 
17140
(
8131.0708
8131.071
8131.0709
8131.0706
8131.07
8131.069
8131.0676
8131.0657
8131.0631
8131.0595
8131.0551
8131.0495
8131.0422
8131.0332
8131.0217
8131.0073
8130.9893
8130.9666
8130.9383
8130.9029
8130.8582
8130.8024
8130.7323
8130.6439
8130.5325
8130.3924
8130.2155
8129.9922
8129.7108
8129.3562
8128.9101
8128.35
8127.6486
8126.7729
8125.6834
8124.3326
8122.6645
8120.6133
8118.1027
8115.0453
8111.3403
8106.8744
8101.52
8095.1335
8087.5557
8078.6096
8068.1011
8055.8176
8041.5263
8024.9748
8005.8877
7983.9674
7958.892
7930.3145
7897.8606
7861.1276
7819.6782
7773.043
7720.7076
7662.1275
7596.6931
7523.7755
7442.6374
7352.5672
7252.7045
8131.2695
8131.2695
8131.2694
8131.2691
8131.2685
8131.2674
8131.2661
8131.264
8131.2614
8131.258
8131.2534
8131.2478
8131.2405
8131.2315
8131.2201
8131.2055
8131.1874
8131.1648
8131.1365
8131.1009
8131.0564
8131.0004
8130.9303
8130.8422
8130.7311
8130.5914
8130.415
8130.1925
8129.9116
8129.5578
8129.1126
8128.5538
8127.8534
8126.979
8125.8905
8124.5406
8122.8737
8120.8234
8118.3142
8115.2581
8111.5549
8107.0911
8101.7393
8095.3557
8087.7815
8078.84
8068.3366
8056.059
8041.7747
8025.2309
8006.1529
7984.2428
7959.179
7930.6146
7898.1758
7861.4597
7820.0292
7773.4152
7721.1032
7662.5496
7597.1451
7524.262
7443.1633
7353.1378
7253.3181
8131.7604
8131.7604
8131.7603
8131.76
8131.7593
8131.7584
8131.7569
8131.7548
8131.7522
8131.7489
8131.7443
8131.7387
8131.7315
8131.7225
8131.7111
8131.6968
8131.6788
8131.6562
8131.628
8131.5926
8131.5485
8131.493
8131.4233
8131.3358
8131.2255
8131.0863
8130.911
8130.6896
8130.4103
8130.0582
8129.6149
8129.0581
8128.36
8127.4879
8126.4016
8125.054
8123.3892
8121.3413
8118.8349
8115.7819
8112.0829
8107.6242
8102.2784
8095.9025
8088.3373
8079.4065
8068.9162
8056.6533
8042.3859
8025.861
8006.8047
7984.9198
7959.8848
7931.3533
7898.9517
7862.2775
7820.8943
7774.333
7722.0801
7663.5921
7598.2613
7525.4606
7444.4548
7354.5339
7254.8177
8132.5597
8132.5597
8132.5597
8132.5594
8132.5586
8132.5576
8132.5563
8132.5543
8132.5517
8132.5484
8132.5439
8132.5384
8132.5312
8132.5223
8132.5109
8132.4969
8132.479
8132.4569
8132.429
8132.3941
8132.3505
8132.2956
8132.2265
8132.1399
8132.0307
8131.893
8131.7192
8131.4997
8131.2225
8130.8728
8130.4324
8129.8784
8129.1834
8128.3143
8127.2313
8125.8871
8124.2256
8122.1815
8119.6795
8116.6322
8112.9398
8108.4893
8103.1534
8096.7898
8089.2393
8080.3261
8069.8564
8057.6174
8043.3775
8026.8837
8007.863
7986.0187
7961.0305
7932.5526
7900.2118
7863.6062
7822.2998
7775.8249
7723.6683
7665.2875
7600.0761
7527.4086
7446.5516
7356.7994
7257.2498
8133.6841
8133.6841
8133.6839
8133.6837
8133.683
8133.682
8133.6805
8133.6787
8133.676
8133.6728
8133.6683
8133.6629
8133.6557
8133.6469
8133.6358
8133.6219
8133.6043
8133.5823
8133.555
8133.5207
8133.4775
8133.4233
8133.3553
8133.2698
8133.1619
8133.0258
8132.8537
8132.6365
8132.3622
8132.0155
8131.5784
8131.0281
8130.3372
8129.4721
8128.3934
8127.0534
8125.3968
8123.3584
8120.8628
8117.8234
8114.1405
8109.7018
8104.3804
8098.0338
8090.5038
8081.6151
8071.1742
8058.9689
8044.7668
8028.3169
8009.3464
7987.5598
7962.6373
7934.2348
7901.9792
7865.4699
7824.2716
7777.918
7725.8967
7667.6668
7602.623
7530.1419
7449.4939
7359.9775
7260.6629
8135.147
8135.1471
8135.1469
8135.1465
8135.1458
8135.1449
8135.1434
8135.1415
8135.1391
8135.1357
8135.1313
8135.1259
8135.1191
8135.1103
8135.0994
8135.0855
8135.0683
8135.0467
8135.0198
8134.986
8134.9435
8134.8902
8134.8233
8134.7388
8134.6326
8134.4985
8134.3289
8134.1146
8133.8431
8133.5003
8133.0674
8132.5215
8131.8355
8130.9755
8129.902
8128.5677
8126.9177
8124.8866
8122.3998
8119.371
8115.7009
8111.2778
8105.9747
8099.6506
8092.1475
8083.291
8072.8871
8060.7248
8046.5724
8030.1796
8011.2743
7989.5628
7964.7267
7936.4219
7904.2774
7867.8937
7826.8366
7780.6407
7728.7959
7670.7618
7605.9364
7533.6982
7453.322
7364.1135
7265.1067
8136.9637
8136.9636
8136.9635
8136.9632
8136.9625
8136.9614
8136.96
8136.9582
8136.9556
8136.9522
8136.9479
8136.9426
8136.9357
8136.9272
8136.9164
8136.9029
8136.886
8136.8648
8136.8382
8136.8049
8136.7632
8136.7111
8136.6452
8136.5626
8136.4581
8136.3262
8136.1593
8135.9482
8135.6809
8135.3422
8134.914
8134.3735
8133.6928
8132.839
8131.772
8130.4451
8128.8031
8126.7816
8124.3061
8121.2906
8117.6369
8113.2327
8107.9531
8101.657
8094.1872
8085.37
8075.0125
8062.9033
8048.8127
8032.4905
8013.6669
7992.0491
7967.3201
7939.1373
7907.1309
7870.9029
7830.0211
7784.0214
7732.3956
7674.6054
7610.0512
7538.115
7458.078
7369.2529
7270.6318
8139.1502
8139.1501
8139.1498
8139.1495
8139.1487
8139.1479
8139.1464
8139.1443
8139.1418
8139.1385
8139.1343
8139.1291
8139.1225
8139.1139
8139.1034
8139.0903
8139.0735
8139.0529
8139.027
8138.9945
8138.9537
8138.9025
8138.8382
8138.7571
8138.655
8138.5256
8138.3619
8138.1542
8137.8913
8137.5575
8137.1347
8136.6
8135.9257
8135.0789
8134.0195
8132.7012
8131.0692
8129.0594
8126.5974
8123.5983
8119.964
8115.5834
8110.3318
8104.0694
8096.6399
8087.8698
8077.5677
8065.5228
8051.5063
8035.2699
8016.5448
7995.0401
7970.4401
7942.4043
7910.5641
7874.5238
7833.8531
7788.0896
7736.7272
7679.2306
7615.004
7543.4323
7463.8046
7375.4423
7277.29
8141.7257
8141.7257
8141.7254
8141.7252
8141.7244
8141.7232
8141.7217
8141.72
8141.7173
8141.7141
8141.71
8141.7049
8141.6981
8141.6899
8141.6798
8141.6667
8141.6506
8141.6303
8141.605
8141.5731
8141.5335
8141.4836
8141.4208
8141.3418
8141.2418
8141.1153
8140.9549
8140.7511
8140.4925
8140.1637
8139.7465
8139.2182
8138.5508
8137.7116
8136.6611
8135.3527
8133.7322
8131.736
8129.2904
8126.3104
8122.6989
8118.346
8113.1276
8106.9046
8099.5223
8090.8078
8080.5704
8068.6012
8054.6724
8038.537
8019.9285
7998.5574
7974.1098
7946.2469
7914.6026
7878.7832
7838.3606
7792.875
7741.8229
7684.6719
7620.831
7549.6898
7470.5452
7382.7299
7285.134
8144.7107
8144.7108
8144.7106
8144.7101
8144.7094
8144.7083
8144.7068
8144.705
8144.7024
8144.6993
8144.6952
8144.69
8144.6835
8144.6757
8144.6654
8144.6529
8144.6371
8144.6175
8144.5928
8144.562
8144.5232
8144.4747
8144.4134
8144.3363
8144.2385
8144.1149
8143.9575
8143.7578
8143.5033
8143.1796
8142.7679
8142.246
8141.5858
8140.7547
8139.7137
8138.4165
8136.8091
8134.8282
8132.4012
8129.4433
8125.8583
8121.5372
8116.3571
8110.18
8102.8521
8094.2016
8084.0391
8072.1572
8058.3299
8042.3121
8023.8387
8002.6222
7978.3512
7950.6888
7919.2712
7883.7074
7843.5721
7798.4077
7747.7143
7690.9641
7627.5714
7556.9301
7478.3471
7391.1664
7294.2181
8148.1266
8148.1264
8148.1263
8148.1259
8148.125
8148.1239
8148.1225
8148.1207
8148.1182
8148.1149
8148.111
8148.1061
8148.0997
8148.0919
8148.082
8148.0697
8148.0544
8148.0351
8148.0112
8147.9811
8147.9433
8147.8961
8147.8365
8147.7609
8147.6654
8147.5441
8147.3899
8147.1933
8146.9429
8146.6235
8146.2172
8145.7013
8145.0484
8144.2258
8143.1948
8141.9096
8140.3166
8138.3533
8135.9466
8133.0138
8129.4587
8125.1738
8120.0374
8113.9124
8106.6463
8098.0684
8087.9912
8076.2091
8062.498
8046.6145
8028.2959
8007.2568
7983.1877
7955.7544
7924.5961
7889.3241
7849.5165
7804.7191
7754.4364
7698.1451
7635.2661
7565.198
7487.257
7400.801
7304.5963
8151.9928
8151.9927
8151.9925
8151.9919
8151.9911
8151.9901
8151.9888
8151.9868
8151.9843
8151.9814
8151.9772
8151.9724
8151.9664
8151.9584
8151.9488
8151.9368
8151.9219
8151.9032
8151.8796
8151.8503
8151.8134
8151.767
8151.7084
8151.6346
8151.5407
8151.4215
8151.2697
8151.076
8150.8289
8150.5135
8150.1118
8149.6015
8148.9557
8148.1418
8147.1214
8145.8493
8144.272
8142.3274
8139.9437
8137.0384
8133.5172
8129.2733
8124.186
8118.1195
8110.9224
8102.4264
8092.4454
8080.7758
8067.1959
8051.4647
8033.3215
8012.4833
7988.6427
7961.4689
7930.6038
7895.6617
7856.2246
7811.842
7762.0241
7706.253
7643.9555
7574.5355
7497.3213
7411.6859
7316.3237
8156.326
8156.3258
8156.3257
8156.3252
8156.3244
8156.3233
8156.3219
8156.3199
8156.3175
8156.3146
8156.3108
8156.3058
8156.2998
8156.2922
8156.2826
8156.2709
8156.2561
8156.2377
8156.2147
8156.1859
8156.1496
8156.104
8156.0465
8155.9735
8155.8812
8155.7635
8155.6134
8155.4221
8155.1776
8154.8657
8154.4685
8153.9638
8153.325
8152.5199
8151.5107
8150.2522
8148.6917
8146.7676
8144.4091
8141.5348
8138.051
8133.8526
8128.8198
8122.8187
8115.699
8107.2941
8097.4204
8085.8769
8072.4443
8056.884
8038.9379
8018.3248
7994.7411
7967.8579
7937.3209
7902.7486
7863.7263
7819.8092
7770.5126
7715.325
7653.6802
7584.9888
7508.5885
7423.8725
7329.4549
8161.1409
8161.1408
8161.1405
8161.1399
8161.1392
8161.1382
8161.1367
8161.1348
8161.1324
8161.1295
8161.1257
8161.1208
8161.1149
8161.1075
8161.098
8161.0864
8161.0719
8161.0538
8161.0312
8161.0027
8160.9669
8160.9219
8160.865
8160.7928
8160.7013
8160.585
8160.4365
8160.2469
8160.0047
8159.6962
8159.3028
8158.8038
8158.1722
8157.3763
8156.3787
8155.1348
8153.5925
8151.6907
8149.3598
8146.5194
8143.0774
8138.9293
8133.9571
8128.0282
8120.9941
8112.6907
8102.9365
8091.5333
8078.2647
8062.8949
8045.1678
8024.8057
8001.5072
7974.9474
7944.7756
7910.6145
7872.054
7828.6545
7779.9391
7725.4016
7664.4837
7596.6009
7521.1062
7437.4127
7344.0441
8166.451
8166.4509
8166.4506
8166.4501
8166.4493
8166.4483
8166.4469
8166.4449
8166.4426
8166.4397
8166.436
8166.4312
8166.4254
8166.4178
8166.4086
8166.3973
8166.3828
8166.365
8166.3427
8166.3145
8166.2791
8166.2344
8166.1781
8166.1066
8166.0157
8165.9004
8165.753
8165.5652
8165.3252
8165.0197
8164.6308
8164.1373
8163.5133
8162.7275
8161.7423
8160.514
8158.9911
8157.1139
8154.8133
8152.0101
8148.6137
8144.5211
8139.6158
8133.7664
8126.827
8118.6356
8109.0138
8097.7662
8084.6792
8069.5199
8052.0353
8031.9504
8008.967
7982.7646
7952.9964
7919.2893
7881.2391
7838.4129
7790.3403
7736.5223
7676.4069
7609.4185
7534.9226
7452.3572
7360.1451
8172.2714
8172.2713
8172.271
8172.2704
8172.2696
8172.2686
8172.2674
8172.2655
8172.2631
8172.2603
8172.2565
8172.2518
8172.2459
8172.2388
8172.2297
8172.2183
8172.2042
8172.1864
8172.1641
8172.1362
8172.1011
8172.0568
8172.0009
8171.93
8171.8399
8171.7253
8171.5791
8171.3929
8171.1556
8170.8532
8170.4688
8169.9814
8169.3655
8168.5901
8167.6183
8166.4071
8164.9053
8163.0544
8160.7867
8158.0244
8154.6779
8150.6464
8145.8144
8140.0527
8133.2176
8125.1497
8115.6739
8104.5975
8091.7102
8076.7828
8059.5645
8039.7838
8017.1471
7991.3372
7962.0119
7928.8036
7891.3152
7849.1199
7801.7544
7748.7265
7689.4934
7623.4856
7550.0847
7468.7567
7377.8111
8178.6203
8178.6202
8178.6198
8178.6195
8178.6187
8178.6177
8178.6162
8178.6145
8178.6121
8178.6092
8178.6056
8178.6009
8178.595
8178.5879
8178.579
8178.5676
8178.5535
8178.5359
8178.5136
8178.4861
8178.451
8178.4071
8178.3513
8178.2809
8178.1913
8178.0776
8177.9325
8177.7481
8177.5129
8177.2141
8176.8346
8176.3537
8175.7463
8174.9819
8174.0245
8172.8309
8171.3521
8169.5302
8167.2983
8164.5806
8161.2891
8157.3238
8152.5721
8146.9066
8140.1858
8132.2537
8122.9379
8112.0493
8099.3811
8084.7066
8067.7795
8048.3316
8026.0737
8000.6924
7971.8514
7939.189
7902.3159
7860.8108
7814.2186
7762.0546
7703.7842
7638.8465
7566.639
7486.6607
7397.0946
8185.5174
8185.5173
8185.5169
8185.5165
8185.5157
8185.5147
8185.5134
8185.5116
8185.5092
8185.5063
8185.5027
8185.4982
8185.4922
8185.4851
8185.4761
8185.4648
8185.4508
8185.433
8185.4109
8185.3831
8185.3484
8185.3043
8185.2488
8185.1786
8185.0893
8184.9762
8184.8325
8184.6494
8184.4169
8184.1215
8183.7468
8183.2726
8182.674
8181.9211
8180.9786
8179.8047
8178.3506
8176.5595
8174.367
8171.6975
8168.4656
8164.5727
8159.9083
8154.3476
8147.752
8139.9681
8130.8272
8120.1435
8107.7136
8093.3149
8076.7048
8057.6193
8035.773
8010.8582
7982.5446
7950.4777
7914.2732
7873.5206
7827.7706
7776.5451
7719.3207
7655.5442
7584.6321
7506.1183
7418.0467
8192.9827
8192.9826
8192.9824
8192.9818
8192.9812
8192.9801
8192.9788
8192.977
8192.9748
8192.9718
8192.9682
8192.9634
8192.9576
8192.9504
8192.9411
8192.9297
8192.9154
8192.8979
8192.8755
8192.8474
8192.8124
8192.7683
8192.7127
8192.6424
8192.5533
8192.4408
8192.2978
8192.1165
8191.8863
8191.5944
8191.2245
8190.7568
8190.1673
8189.4267
8188.5002
8187.3469
8185.9192
8184.1619
8182.0116
8179.3946
8176.2268
8172.4124
8167.8428
8162.3962
8155.9365
8148.3141
8139.3634
8128.9021
8116.7308
8102.6314
8086.3646
8067.6717
8046.2714
8021.8624
7994.1213
7962.6992
7927.2221
7887.2852
7842.4459
7792.2371
7736.1425
7673.6215
7604.1087
7527.1774
7440.7177
8201.0324
8201.0322
8201.0321
8201.0317
8201.0308
8201.0299
8201.0286
8201.0267
8201.0245
8201.0215
8201.0178
8201.0129
8201.0071
8200.9996
8200.9905
8200.9788
8200.9644
8200.9463
8200.9239
8200.8955
8200.8602
8200.8159
8200.76
8200.6895
8200.6008
8200.4885
8200.3464
8200.1666
8199.9387
8199.6504
8199.2855
8198.825
8198.245
8197.517
8196.6073
8195.4762
8194.0768
8192.3559
8190.2511
8187.6905
8184.5923
8180.8625
8176.3954
8171.0721
8164.76
8157.3122
8148.5672
8138.3465
8126.4551
8112.6787
8096.783
8078.5135
8057.595
8033.7326
8006.6093
7975.8856
7941.1948
7902.1377
7858.2821
7809.1667
7754.2894
7693.1198
7625.1133
7549.8849
7465.1571
8209.6782
8209.6782
8209.678
8209.6776
8209.6769
8209.6758
8209.6744
8209.6726
8209.6702
8209.6672
8209.6635
8209.6588
8209.6527
8209.6452
8209.636
8209.6242
8209.6095
8209.5913
8209.5686
8209.5401
8209.5045
8209.4598
8209.4039
8209.3337
8209.2452
8209.1338
8208.9928
8208.8148
8208.59
8208.3057
8207.9464
8207.4936
8206.9241
8206.2099
8205.3187
8204.2111
8202.8426
8201.1608
8199.1048
8196.6049
8193.5812
8189.9425
8185.5859
8180.3955
8174.2424
8166.983
8158.4599
8148.4987
8136.9084
8123.4795
8107.9826
8090.1683
8069.7685
8046.4944
8020.0378
7990.0678
7956.222
7918.1118
7875.3113
7827.3711
7773.7994
7714.08
7647.6888
7574.2865
7491.4113
8218.9272
8218.9272
8218.927
8218.9266
8218.9259
8218.9249
8218.9235
8218.9217
8218.9193
8218.9165
8218.9127
8218.9078
8218.9019
8218.8945
8218.8851
8218.8734
8218.8587
8218.8407
8218.8178
8218.7895
8218.7543
8218.71
8218.6545
8218.5849
8218.4976
8218.3873
8218.2485
8218.0734
8217.8522
8217.5731
8217.221
8216.7774
8216.2197
8215.5215
8214.6505
8213.5696
8212.2344
8210.5948
8208.5913
8206.1566
8203.2129
8199.6719
8195.4339
8190.3865
8184.4038
8177.3471
8169.0622
8159.3792
8148.112
8135.0552
8119.985
8102.6595
8082.8156
8060.174
8034.4354
8005.2741
7972.335
7935.2389
7893.5683
7846.8854
7794.711
7736.542
7671.8771
7600.4263
7519.5255
8228.7846
8228.7846
8228.7844
8228.7841
8228.7834
8228.7825
8228.7811
8228.7794
8228.7771
8228.7742
8228.7706
8228.7661
8228.7601
8228.753
8228.744
8228.7325
8228.7183
8228.7006
8228.6784
8228.651
8228.6164
8228.5732
8228.5193
8228.4512
8228.366
8228.2585
8228.1231
8227.952
8227.7363
8227.4641
8227.1207
8226.688
8226.145
8225.4652
8224.6176
8223.5661
8222.2681
8220.6745
8218.728
8216.3632
8213.5056
8210.0693
8205.9586
8201.064
8195.2644
8188.4242
8180.394
8171.0084
8160.0857
8147.4255
8132.8118
8116.0076
8096.76
8074.798
8049.8287
8021.5314
7989.5631
7953.5491
7913.0854
7867.7445
7817.0606
7760.5441
7697.7183
7628.3468
7549.5414
8239.2584
8239.2584
8239.2581
8239.2576
8239.2572
8239.2562
8239.255
8239.2533
8239.2514
8239.2486
8239.2452
8239.2409
8239.2356
8239.2287
8239.2201
8239.2095
8239.1961
8239.1794
8239.1586
8239.1323
8239.0996
8239.0584
8239.0066
8238.9416
8238.8596
8238.7561
8238.6257
8238.4606
8238.2518
8237.9884
8237.656
8237.2371
8236.7113
8236.0529
8235.2322
8234.214
8232.9573
8231.4143
8229.53
8227.2412
8224.476
8221.1524
8217.1776
8212.4466
8206.842
8200.2328
8192.4736
8183.4038
8172.8458
8160.6086
8146.4807
8130.2342
8111.6252
8090.3905
8066.2408
8038.8678
8007.9326
7973.0725
7933.8942
7889.9823
7840.8845
7786.1241
7725.2511
7658.0888
7581.4997
8250.3608
8250.3608
8250.3608
8250.3603
8250.3598
8250.3591
8250.3581
8250.3567
8250.3547
8250.3523
8250.3494
8250.3453
8250.3405
8250.3343
8250.3266
8250.3167
8250.3045
8250.2891
8250.27
8250.2458
8250.2154
8250.1768
8250.1285
8250.0671
8249.9896
8249.8916
8249.7671
8249.6094
8249.4095
8249.1566
8248.8372
8248.4343
8247.9281
8247.2941
8246.5039
8245.5232
8244.3124
8242.8255
8241.0095
8238.8033
8236.1381
8232.9353
8229.106
8224.5493
8219.1523
8212.7875
8205.3147
8196.578
8186.4089
8174.6208
8161.0106
8145.361
8127.4338
8106.9717
8083.6964
8057.3053
8027.4696
7993.8369
7956.025
7913.6312
7866.2163
7813.3177
7754.5122
7689.6915
7615.4382
8262.1106
8262.1106
8262.1104
8262.1101
8262.1098
8262.1091
8262.1081
8262.1068
8262.1054
8262.1032
8262.1005
8262.0971
8262.0927
8262.0872
8262.0804
8262.0715
8262.0607
8262.0467
8262.0292
8262.0074
8261.9793
8261.9441
8261.8991
8261.8422
8261.7695
8261.6772
8261.5597
8261.4101
8261.22
8260.9792
8260.6741
8260.2891
8259.8052
8259.1986
8258.442
8257.5028
8256.3426
8254.9169
8253.1748
8251.0583
8248.5011
8245.4283
8241.7547
8237.3834
8232.2053
8226.0988
8218.9285
8210.5464
8200.7893
8189.4786
8176.4217
8161.4058
8144.2027
8124.5624
8102.2153
8076.8673
8048.1994
8015.8696
7979.5073
7938.7223
7893.0899
7842.1597
7785.5367
7723.193
7651.3938
8274.5266
8274.5266
8274.5266
8274.5263
8274.526
8274.5255
8274.5247
8274.5235
8274.5223
8274.5203
8274.5181
8274.5149
8274.511
8274.5062
8274.4999
8274.4922
8274.4823
8274.4698
8274.4537
8274.4335
8274.4081
8274.3753
8274.334
8274.2809
8274.213
8274.1264
8274.0158
8273.8746
8273.6947
8273.4663
8273.1767
8272.8113
8272.3511
8271.7745
8271.0543
8270.1601
8269.0545
8267.6953
8266.0335
8264.0137
8261.5723
8258.6383
8255.1299
8250.9547
8246.0086
8240.1752
8233.3263
8225.3201
8216.0001
8205.1983
8192.7271
8178.3838
8161.9482
8143.1801
8121.8169
8097.5748
8070.1453
8039.1962
8004.3689
7965.2862
7921.5366
7872.6832
7818.3588
7758.6288
7689.4041
8287.6245
8287.6245
8287.6244
8287.6242
8287.6239
8287.6234
8287.6227
8287.6217
8287.6205
8287.6187
8287.6166
8287.6137
8287.6103
8287.6057
8287.5999
8287.5927
8287.5835
8287.5718
8287.5569
8287.5382
8287.5142
8287.4838
8287.4448
8287.395
8287.3312
8287.2496
8287.1452
8287.0121
8286.8425
8286.627
8286.3538
8286.0087
8285.5741
8285.0292
8284.3485
8283.5023
8282.4552
8281.1668
8279.5906
8277.6735
8275.3555
8272.5688
8269.2356
8265.2685
8260.5683
8255.0252
8248.5175
8240.9087
8232.0536
8221.7898
8209.9386
8196.3079
8180.6853
8162.8397
8142.5185
8119.4475
8093.3286
8063.8412
8030.6372
7993.352
7951.5881
7904.9208
7853.0113
7796.0323
7729.5085
8301.4102
8301.4102
8301.4102
8301.4099
8301.4097
8301.4092
8301.4085
8301.4075
8301.4063
8301.4047
8301.4025
8301.3999
8301.3963
8301.3919
8301.3864
8301.3793
8301.3704
8301.3591
8301.345
8301.3268
8301.3041
8301.2749
8301.2379
8301.1905
8301.13
8301.0528
8300.9544
8300.829
8300.6696
8300.4672
8300.2108
8299.8873
8299.4796
8298.9684
8298.3291
8297.5335
8296.5482
8295.3347
8293.8486
8292.0405
8289.8532
8287.2222
8284.0751
8280.3287
8275.8897
8270.6549
8264.5072
8257.3203
8248.9567
8239.2612
8228.0669
8215.1888
8200.4251
8183.555
8164.3354
8142.5028
8117.7699
8089.827
8058.3371
8022.9479
7983.2746
7938.905
7889.5288
7835.4382
7771.7491
8315.8807
8315.8808
8315.8805
8315.8805
8315.8801
8315.8796
8315.8789
8315.878
8315.8766
8315.8749
8315.8728
8315.8702
8315.8666
8315.8623
8315.8569
8315.8497
8315.8409
8315.8299
8315.8161
8315.7984
8315.7762
8315.7481
8315.7125
8315.6674
8315.6098
8315.537
8315.4444
8315.3267
8315.1777
8314.989
8314.7504
8314.4493
8314.0702
8313.5943
8312.9983
8312.256
8311.3352
8310.2001
8308.8091
8307.1153
8305.0658
8302.6003
8299.6501
8296.1374
8291.976
8287.0659
8281.2995
8274.5595
8266.714
8257.6196
8247.1179
8235.0342
8221.1774
8205.3366
8187.2803
8166.7557
8143.4864
8117.1744
8087.4936
8054.102
8016.6277
7974.6688
7927.9481
7876.8903
7816.1687
8331.0269
8331.0269
8331.0267
8331.0265
8331.0263
8331.0258
8331.0249
8331.024
8331.0228
8331.0212
8331.0188
8331.0162
8331.0127
8331.0084
8331.003
8330.9961
8330.9875
8330.9766
8330.963
8330.9462
8330.9247
8330.8978
8330.864
8330.8214
8330.7673
8330.699
8330.6128
8330.5037
8330.366
8330.1918
8329.972
8329.6947
8329.3456
8328.9064
8328.3559
8327.6689
8326.8157
8325.7624
8324.4709
8322.8975
8320.9932
8318.7021
8315.9601
8312.6957
8308.8257
8304.2587
8298.8961
8292.6267
8285.3278
8276.8668
8267.095
8255.849
8242.9477
8228.1923
8211.3631
8192.2184
8170.4937
8145.9026
8118.1293
8086.8421
8051.6793
8012.248
7968.3101
7920.4406
7862.8181
8346.8385
8346.8385
8346.8385
8346.8383
8346.8381
8346.8374
8346.8367
8346.8358
8346.8347
8346.833
8346.8309
8346.8283
8346.825
8346.8208
8346.8156
8346.8092
8346.8009
8346.7908
8346.7782
8346.7621
8346.7421
8346.7172
8346.6856
8346.6462
8346.5964
8346.5337
8346.4548
8346.3555
8346.23
8346.072
8345.8725
8345.6206
8345.3027
8344.902
8344.3989
8343.7694
8342.9864
8342.0186
8340.8311
8339.3839
8337.6324
8335.5247
8333.0027
8329.9988
8326.4359
8322.2318
8317.2938
8311.5188
8304.796
8297.0017
8287.9987
8277.6342
8265.7391
8252.1268
8236.5898
8218.8996
8198.8038
8176.0275
8150.2659
8121.1963
8088.4653
8051.6835
8010.6456
7966.0969
7911.8174
8363.3065
8363.3066
8363.3063
8363.3061
8363.3059
8363.3055
8363.3048
8363.3039
8363.303
8363.3013
8363.2995
8363.2974
8363.2943
8363.2906
8363.2859
8363.2802
8363.2729
8363.2637
8363.2524
8363.2382
8363.2205
8363.198
8363.1701
8363.1348
8363.0908
8363.0349
8362.9648
8362.8765
8362.7652
8362.6246
8362.4466
8362.2212
8361.9359
8361.5753
8361.1208
8360.5507
8359.8405
8358.9618
8357.8831
8356.5687
8354.9774
8353.0631
8350.772
8348.0408
8344.8016
8340.9782
8336.4852
8331.2306
8325.1131
8318.0197
8309.8246
8300.3869
8289.5499
8277.1395
8262.9627
8246.8047
8228.4257
8207.5633
8183.9236
8157.1929
8127.0251
8093.0188
8054.9727
8013.9765
7963.2006
8380.4249
8380.4249
8380.4247
8380.4245
8380.4243
8380.4241
8380.4234
8380.4227
8380.4218
8380.4207
8380.419
8380.4172
8380.4149
8380.4119
8380.4079
8380.4032
8380.3971
8380.3897
8380.3803
8380.3683
8380.3535
8380.3346
8380.3111
8380.2812
8380.2435
8380.1959
8380.1358
8380.0599
8379.9635
8379.841
8379.6858
8379.488
8379.236
8378.916
8378.5113
8378.0027
8377.3677
8376.582
8375.6174
8374.4419
8373.0192
8371.3075
8369.2568
8366.812
8363.9116
8360.4861
8356.4603
8351.7518
8346.2697
8339.912
8332.5645
8324.0996
8314.3735
8303.2263
8290.4795
8275.9339
8259.3642
8240.5206
8219.1208
8194.8609
8167.3934
8136.2797
8101.3686
8064.1317
8017.0232
8398.187
8398.187
8398.1868
8398.1868
8398.1866
8398.1862
8398.1858
8398.1853
8398.1847
8398.1838
8398.1827
8398.1813
8398.1795
8398.1775
8398.1747
8398.171
8398.1667
8398.1611
8398.1539
8398.1448
8398.1334
8398.1189
8398.1002
8398.0766
8398.0465
8398.0076
8397.9581
8397.8949
8397.814
8397.7105
8397.5776
8397.4071
8397.1887
8396.91
8396.5561
8396.1106
8395.5544
8394.8659
8394.0206
8392.9904
8391.744
8390.2428
8388.4434
8386.2977
8383.7504
8380.7414
8377.2044
8373.0679
8368.2513
8362.6644
8356.2053
8348.7598
8340.1985
8330.3768
8319.1322
8306.2826
8291.6191
8274.9064
8255.8749
8234.2254
8209.6034
8181.5687
8149.8862
8116.6167
8073.4535
8416.5875
8416.5873
8416.5873
8416.5871
8416.5872
8416.587
8416.5866
8416.5864
8416.586
8416.5854
8416.5847
8416.5839
8416.5828
8416.5815
8416.5797
8416.5775
8416.5746
8416.5709
8416.5662
8416.5603
8416.5522
8416.5419
8416.5283
8416.5105
8416.4875
8416.4574
8416.4181
8416.3671
8416.3009
8416.2154
8416.1043
8415.9609
8415.7759
8415.5387
8415.2373
8414.8575
8414.3828
8413.7955
8413.0747
8412.1964
8411.1325
8409.85
8408.3126
8406.4779
8404.2988
8401.724
8398.6982
8395.1597
8391.0392
8386.2584
8380.7284
8374.349
8367.007
8358.5745
8348.9068
8337.8399
8325.1847
8310.7218
8294.1935
8275.3051
8253.7257
8228.9452
8200.6404
8171.5275
8132.6653
8435.6131
8435.6132
8435.6132
8435.613
8435.6131
8435.6129
8435.6127
8435.6125
8435.6124
8435.612
8435.6119
8435.6113
8435.6109
8435.6101
8435.6093
8435.6083
8435.6068
8435.6049
8435.6021
8435.5986
8435.5937
8435.5868
8435.5778
8435.5652
8435.5483
8435.5257
8435.4957
8435.4558
8435.4032
8435.3342
8435.2442
8435.1271
8434.9755
8434.7806
8434.533
8434.2207
8433.831
8433.3487
8432.7569
8432.0353
8431.1602
8430.1052
8428.8393
8427.3272
8425.531
8423.4095
8420.9169
8418.0022
8414.608
8410.6686
8406.1085
8400.8428
8394.7754
8387.7969
8379.782
8370.5873
8360.0449
8347.9522
8334.0774
8318.139
8299.7994
8278.5201
8253.8447
8229.058
8194.797
8455.2448
8455.2446
8455.2446
8455.2445
8455.2445
8455.2443
8455.2442
8455.2443
8455.2441
8455.2439
8455.2438
8455.2437
8455.2434
8455.2433
8455.2427
8455.2424
8455.2417
8455.2407
8455.2391
8455.2371
8455.2342
8455.2298
8455.2236
8455.2147
8455.2024
8455.1857
8455.1627
8455.1322
8455.0913
8455.0379
8454.9677
8454.8765
8454.7582
8454.6064
8454.4134
8454.1707
8453.868
8453.4942
8453.0353
8452.4751
8451.7956
8450.9757
8449.9906
8448.8136
8447.4158
8445.7659
8443.8289
8441.5642
8438.9265
8435.8628
8432.3133
8428.2091
8423.4716
8418.0119
8411.7263
8404.491
8396.1681
8386.5831
8375.5255
8362.7326
8347.8861
8330.4265
8309.8029
8289.5109
8259.846
8475.4461
8475.4461
8475.4459
8475.4457
8475.4458
8475.4456
8475.4455
8475.4453
8475.4451
8475.445
8475.4448
8475.4447
8475.4446
8475.4445
8475.4442
8475.4437
8475.4432
8475.4425
8475.4417
8475.4402
8475.4381
8475.435
8475.4301
8475.4237
8475.4144
8475.4019
8475.3849
8475.3622
8475.3323
8475.2931
8475.2424
8475.1768
8475.0924
8474.9844
8474.8472
8474.6757
8474.4628
8474.1999
8473.8768
8473.4831
8473.0047
8472.4268
8471.7325
8470.9028
8469.9189
8468.7592
8467.3991
8465.8095
8463.957
8461.8032
8459.303
8456.4046
8453.0516
8449.1758
8444.6969
8439.5179
8433.5259
8426.5793
8418.5112
8409.0967
8398.0463
8384.8131
8368.8411
8352.9594
8328.2411
8496.1753
8496.1751
8496.1749
8496.1747
8496.1745
8496.1744
8496.1742
8496.1738
8496.1736
8496.1733
8496.1731
8496.1727
8496.1721
8496.1718
8496.1712
8496.1707
8496.17
8496.1691
8496.1678
8496.1661
8496.1639
8496.1609
8496.1569
8496.1515
8496.1439
8496.1342
8496.1216
8496.1056
8496.0854
8496.0599
8496.0282
8495.9886
8495.9389
8495.8751
8495.7951
8495.696
8495.574
8495.4237
8495.2404
8495.0174
8494.7463
8494.4181
8494.0237
8493.554
8492.999
8492.3472
8491.585
8490.6944
8489.6557
8488.4453
8487.0343
8485.3904
8483.4774
8481.2513
8478.6573
8475.6258
8472.0795
8467.9111
8462.9988
8457.1842
8450.2404
8441.737
8431.2026
8420.408
8401.8165
8518.3144
8518.3142
8518.314
8518.3138
8518.3134
8518.3132
8518.3128
8518.3124
8518.3117
8518.3111
8518.3105
8518.3099
8518.309
8518.3079
8518.3069
8518.3057
8518.304
8518.3022
8518.3
8518.2975
8518.2943
8518.2904
8518.2857
8518.2801
8518.2733
8518.2654
8518.2564
8518.2464
8518.2352
8518.2233
8518.2102
8518.1966
8518.1814
8518.1646
8518.1464
8518.1259
8518.1029
8518.0769
8518.0466
8518.0095
8517.9645
8517.9092
8517.8439
8517.7679
8517.681
8517.5824
8517.4697
8517.3378
8517.1812
8516.9926
8516.7625
8516.4802
8516.1321
8515.7002
8515.1583
8514.471
8513.5938
8512.4698
8511.0255
8509.1771
8506.8005
8503.6551
8499.7509
8496.178
8489.3517
8541.6061
8541.6056
8541.6054
8541.605
8541.6045
8541.6041
8541.6037
8541.603
8541.6023
8541.6014
8541.6005
8541.5994
8541.5983
8541.5968
8541.595
8541.5931
8541.5908
8541.5881
8541.585
8541.5812
8541.577
8541.5725
8541.567
8541.5615
8541.5554
8541.5497
8541.5448
8541.5413
8541.5408
8541.5436
8541.5519
8541.5667
8541.5903
8541.6242
8541.6712
8541.7351
8541.8199
8541.9275
8542.0599
8542.2216
8542.4177
8542.6544
8542.9401
8543.2845
8543.6973
8544.1886
8544.7677
8545.4439
8546.2271
8547.128
8548.1587
8549.3308
8550.6554
8552.1416
8553.7954
8555.6185
8557.6067
8559.7544
8562.0477
8564.4824
8567.0503
8569.7191
8572.7447
8576.6457
8579.5869
8564.8518
8564.8516
8564.8511
8564.8506
8564.8502
8564.8497
8564.8493
8564.8486
8564.8477
8564.847
8564.8458
8564.8447
8564.8436
8564.8421
8564.8403
8564.8384
8564.8361
8564.8335
8564.8306
8564.8275
8564.824
8564.82
8564.8162
8564.8124
8564.8096
8564.8082
8564.8096
8564.8147
8564.8259
8564.8453
8564.8754
8564.9192
8564.98
8565.0627
8565.173
8565.3178
8565.5033
8565.7374
8566.0284
8566.386
8566.8218
8567.3498
8567.987
8568.7519
8569.6646
8570.7458
8572.0175
8573.5031
8575.2293
8577.2254
8579.5243
8582.1609
8585.1711
8588.5917
8592.4607
8596.8185
8601.7038
8607.1621
8613.2425
8620.0141
8627.5574
8635.9941
8645.6186
8656.744
8669.1736
8587.9526
8587.9524
8587.9519
8587.9514
8587.9512
8587.9505
8587.95
8587.9495
8587.9488
8587.9481
8587.9472
8587.9463
8587.9452
8587.9442
8587.9429
8587.9415
8587.9398
8587.9382
8587.9361
8587.9343
8587.9323
8587.9305
8587.9292
8587.9287
8587.93
8587.9341
8587.9426
8587.9573
8587.9804
8588.0155
8588.0666
8588.1378
8588.2355
8588.3668
8588.5394
8588.7627
8589.0482
8589.408
8589.8553
8590.4062
8591.079
8591.8962
8592.8826
8594.0659
8595.4757
8597.1437
8599.1046
8601.3969
8604.0636
8607.1534
8610.7199
8614.821
8619.5179
8624.8756
8630.964
8637.8609
8645.6498
8654.4258
8664.2967
8675.3992
8687.8908
8701.9976
8718.0633
8736.4934
8757.8668
8610.7987
8610.7982
8610.798
8610.7975
8610.7973
8610.7968
8610.7963
8610.7958
8610.7954
8610.7949
8610.7944
8610.794
8610.7934
8610.7931
8610.7925
8610.7921
8610.7916
8610.7913
8610.7913
8610.7916
8610.7921
8610.7935
8610.796
8610.8001
8610.807
8610.818
8610.8347
8610.8599
8610.8969
8610.9498
8611.0234
8611.1245
8611.2608
8611.4408
8611.6753
8611.9778
8612.3629
8612.847
8613.4491
8614.1918
8615.1002
8616.204
8617.5369
8619.1345
8621.0363
8623.2854
8625.9294
8629.022
8632.6233
8636.8007
8641.6279
8647.1854
8653.56
8660.8449
8669.1431
8678.5683
8689.2471
8701.3223
8714.9577
8730.3535
8747.7438
8767.4414
8789.8674
8815.5595
8845.3131
8633.3023
8633.3018
8633.3016
8633.3013
8633.3011
8633.3006
8633.3003
8633.3003
8633.3001
8633.2998
8633.2999
8633.2999
8633.3002
8633.3004
8633.3011
8633.3017
8633.3029
8633.3043
8633.3063
8633.3089
8633.3126
8633.3175
8633.3242
8633.3338
8633.3469
8633.3657
8633.3921
8633.4296
8633.4818
8633.5544
8633.6532
8633.7857
8633.9616
8634.1912
8634.4889
8634.8704
8635.3547
8635.9627