/*--------------------------------*- C++ -*----------------------------------*\
  =========                 |
  \\      /  F ield         | OpenFOAM: The Open Source CFD Toolbox
   \\    /   O peration     | Website:  https://openfoam.org
    \\  /    A nd           | Version:  13
     \\/     M anipulation  |
\*---------------------------------------------------------------------------*/
FoamFile
{
    format      ascii;
    class       volScalarField;
    location    "4.698332";
    object      pPrime2Mean;
}
// * * * * * * * * * * * * * * * * * * * * * * * * * * * * * * * * * * * * * //

dimensions      [0 4 -4 0 0 0 0];

internalField   nonuniform List<scalar> 
17140
(
66191.637
66191.639
66191.641
66191.64
66191.637
66191.632
66191.622
66191.609
66191.59
66191.565
66191.533
66191.49
66191.435
66191.364
66191.275
66191.162
66191.019
66190.839
66190.613
66190.33
66189.974
66189.527
66188.966
66188.26
66187.371
66186.251
66184.836
66183.05
66180.796
66177.956
66174.381
66169.892
66164.267
66157.24
66148.487
66137.625
66124.199
66107.671
66087.418
66062.715
66032.735
65996.53
65953.03
65901.023
65839.161
65765.948
65679.749
65578.812
65461.268
65325.115
65168.236
64988.349
64782.959
64549.352
64284.589
63985.487
63648.496
63269.692
62844.749
62369.029
61837.55
61244.991
60585.578
59853.071
59041.021
66193.29
66193.293
66193.294
66193.293
66193.29
66193.284
66193.274
66193.261
66193.242
66193.217
66193.183
66193.14
66193.085
66193.014
66192.924
66192.81
66192.667
66192.487
66192.261
66191.977
66191.621
66191.175
66190.614
66189.909
66189.022
66187.904
66186.493
66184.711
66182.463
66179.629
66176.063
66171.582
66165.967
66158.948
66150.205
66139.352
66125.935
66109.417
66089.174
66064.485
66034.521
65998.337
65954.861
65902.883
65841.055
65767.881
65681.728
65580.84
65463.345
65327.252
65170.443
64990.636
64785.338
64551.835
64287.186
63988.212
63651.366
63272.727
62847.973
62372.467
61841.229
61248.942
60589.837
59857.68
59045.98
66197.377
66197.379
66197.38
66197.379
66197.376
66197.37
66197.36
66197.346
66197.328
66197.302
66197.269
66197.226
66197.171
66197.1
66197.01
66196.897
66196.755
66196.576
66196.351
66196.068
66195.714
66195.27
66194.712
66194.011
66193.129
66192.017
66190.614
66188.842
66186.605
66183.785
66180.233
66175.769
66170.171
66163.171
66154.446
66143.613
66130.215
66113.719
66093.502
66068.844
66038.919
66002.784
65959.367
65907.46
65845.715
65772.636
65686.591
65585.824
65468.46
65332.514
65175.875
64996.267
64791.196
64557.947
64293.58
63994.924
63658.438
63280.208
62855.917
62380.935
61850.286
61258.662
60600.302
59868.988
59058.136
66204.028
66204.03
66204.031
66204.03
66204.026
66204.02
66204.01
66203.996
66203.977
66203.952
66203.919
66203.876
66203.821
66203.752
66203.663
66203.551
66203.41
66203.232
66203.01
66202.73
66202.38
66201.94
66201.387
66200.693
66199.819
66198.717
66197.325
66195.567
66193.346
66190.545
66187.014
66182.574
66177
66170.026
66161.328
66150.523
66137.155
66120.694
66100.518
66075.912
66046.052
66009.996
65966.675
65914.883
65853.272
65780.347
65694.477
65593.903
65476.753
65341.047
65184.686
65005.402
64800.703
64567.87
64303.965
64005.827
63669.929
63292.367
62868.83
62394.698
61865.007
61274.458
60617.303
59887.359
59077.872
66213.372
66213.374
66213.375
66213.373
66213.369
66213.363
66213.353
66213.339
66213.32
66213.294
66213.261
66213.219
66213.164
66213.095
66213.007
66212.896
66212.756
66212.581
66212.36
66212.084
66211.738
66211.303
66210.757
66210.07
66209.206
66208.115
66206.739
66204.998
66202.798
66200.02
66196.517
66192.105
66186.563
66179.622
66170.959
66160.192
66146.867
66130.455
66110.34
66085.808
66056.04
66020.095
65976.909
65925.277
65863.853
65791.143
65705.515
65605.21
65488.359
65352.991
65197.021
65018.194
64814.018
64581.772
64318.52
64021.118
63686.052
63309.431
62886.957
62414.022
61885.675
61296.637
60641.176
59913.156
59105.586
66225.514
66225.515
66225.515
66225.513
66225.509
66225.502
66225.492
66225.477
66225.458
66225.433
66225.4
66225.357
66225.303
66225.234
66225.147
66225.037
66224.899
66224.726
66224.508
66224.236
66223.894
66223.465
66222.926
66222.249
66221.396
66220.319
66218.96
66217.241
66215.067
66212.318
66208.847
66204.471
66198.968
66192.068
66183.45
66172.731
66159.463
66143.117
66123.083
66098.65
66069.001
66033.202
65990.19
65938.765
65877.582
65805.148
65719.832
65619.875
65503.411
65368.482
65213.023
65034.792
64831.301
64599.824
64337.431
64040.995
63707.021
63331.633
62910.548
62439.176
61912.584
61325.515
60672.264
59946.751
59141.69
66240.564
66240.565
66240.564
66240.562
66240.557
66240.55
66240.539
66240.524
66240.505
66240.479
66240.446
66240.403
66240.349
66240.281
66240.194
66240.086
66239.949
66239.779
66239.564
66239.296
66238.96
66238.538
66238.008
66237.341
66236.502
66235.443
66234.104
66232.411
66230.266
66227.552
66224.119
66219.785
66214.327
66207.477
66198.913
66188.256
66175.058
66158.797
66138.864
66114.554
66085.054
66049.434
66006.637
65955.466
65894.579
65822.484
65737.55
65638.022
65522.04
65387.66
65232.837
65055.348
64852.71
64622.196
64360.884
64065.662
63733.056
63359.211
62939.86
62470.437
61946.032
61361.417
60710.917
59988.526
59186.604
66258.643
66258.643
66258.642
66258.639
66258.634
66258.626
66258.615
66258.6
66258.58
66258.554
66258.521
66258.478
66258.425
66258.357
66258.272
66258.164
66258.03
66257.862
66257.652
66257.389
66257.059
66256.645
66256.126
66255.473
66254.649
66253.61
66252.295
66250.63
66248.52
66245.843
66242.453
66238.166
66232.76
66225.967
66217.468
66206.884
66193.772
66177.613
66157.802
66133.639
66104.316
66068.909
66026.366
65975.496
65914.959
65843.266
65758.789
65659.778
65544.38
65410.665
65256.614
65080.024
64878.417
64649.071
64389.071
64095.327
63764.384
63392.408
62975.155
62508.088
61986.327
61404.673
60757.494
60038.871
59240.753
66279.894
66279.894
66279.893
66279.889
66279.883
66279.875
66279.863
66279.848
66279.827
66279.801
66279.768
66279.726
66279.673
66279.606
66279.522
66279.416
66279.285
66279.12
66278.914
66278.657
66278.334
66277.93
66277.423
66276.784
66275.978
66274.96
66273.671
66272.036
66269.961
66267.325
66263.98
66259.744
66254.394
66247.665
66239.237
66228.738
66215.725
66199.684
66180.015
66156.021
66126.902
66091.74
66049.49
65998.967
65938.834
65867.608
65783.667
65685.267
65570.563
65437.641
65284.509
65108.985
64908.599
64680.634
64422.195
64130.206
63801.232
63431.472
63016.702
62552.421
62033.782
61455.624
60812.36
60098.181
59304.57
66304.471
66304.471
66304.469
66304.465
66304.458
66304.45
66304.438
66304.422
66304.401
66304.375
66304.342
66304.3
66304.247
66304.181
66304.098
66303.995
66303.866
66303.705
66303.504
66303.253
66302.939
66302.544
66302.049
66301.425
66300.637
66299.641
66298.377
66296.772
66294.732
66292.136
66288.836
66284.651
66279.36
66272.698
66264.349
66253.942
66241.04
66225.131
66205.62
66181.817
66152.927
66118.041
66076.121
66025.988
65966.313
65895.619
65812.294
65714.605
65600.714
65468.729
65316.677
65142.393
64943.423
64717.065
64460.446
64170.506
63843.84
63476.66
63064.776
62603.731
62088.717
61514.612
60875.888
60166.859
59378.489
66332.536
66332.534
66332.532
66332.527
66332.521
66332.511
66332.499
66332.483
66332.462
66332.436
66332.403
66332.361
66332.309
66332.244
66332.163
66332.062
66331.936
66331.778
66331.582
66331.337
66331.03
66330.645
66330.16
66329.55
66328.779
66327.802
66326.561
66324.984
66322.974
66320.415
66317.158
66313.023
66307.791
66301.198
66292.932
66282.624
66269.841
66254.076
66234.737
66211.143
66182.505
66147.924
66106.369
66056.669
65997.503
65927.407
65844.781
65747.905
65634.959
65504.062
65353.261
65180.413
64983.074
64758.563
64504.038
64216.461
63892.455
63528.23
63119.657
62662.32
62151.455
61581.988
60948.454
60245.312
59462.952
66364.238
66364.237
66364.234
66364.229
66364.222
66364.212
66364.2
66364.183
66364.163
66364.136
66364.103
66364.062
66364.01
66363.946
66363.866
66363.767
66363.643
66363.488
66363.296
66363.055
66362.754
66362.377
66361.902
66361.303
66360.545
66359.584
66358.363
66356.808
66354.825
66352.298
66349.08
66344.991
66339.816
66333.293
66325.113
66314.91
66302.253
66286.641
66267.488
66244.118
66215.754
66181.504
66140.347
66091.121
66032.517
65963.085
65881.245
65785.293
65673.426
65543.784
65394.434
65223.234
65027.756
64805.349
64553.212
64268.317
63947.321
63586.45
63181.63
62728.494
62222.325
61658.103
61030.437
60333.953
59558.398
66399.71
66399.708
66399.705
66399.7
66399.693
66399.683
66399.67
66399.654
66399.633
66399.607
66399.574
66399.533
66399.482
66399.418
66399.339
66399.241
66399.119
66398.967
66398.778
66398.541
66398.245
66397.873
66397.405
66396.814
66396.066
66395.117
66393.91
66392.373
66390.412
66387.911
66384.728
66380.684
66375.565
66369.112
66361.019
66350.924
66338.4
66322.949
66303.994
66280.866
66252.797
66218.904
66178.178
66129.468
66071.481
66002.786
65921.822
65826.907
65716.271
65588.071
65440.377
65271.04
65077.658
64857.624
64608.178
64326.303
64008.688
63651.59
63250.985
62802.563
62301.658
61743.313
61122.222
60433.195
59665.271
66439.069
66439.067
66439.064
66439.058
66439.051
66439.041
66439.028
66439.012
66438.991
66438.965
66438.932
66438.891
66438.841
66438.778
66438.7
66438.603
66438.482
66438.332
66438.145
66437.911
66437.617
66437.249
66436.786
66436.201
66435.46
66434.519
66433.323
66431.798
66429.855
66427.378
66424.226
66420.225
66415.161
66408.781
66400.779
66390.796
66378.41
66363.129
66344.384
66321.514
66293.762
66260.255
66219.994
66171.847
66114.537
66046.657
65966.668
65872.924
65763.68
65637.108
65491.267
65324.016
65132.979
64915.602
64669.16
64390.667
64076.818
63723.923
63328.014
62884.837
62389.788
61837.977
61224.191
60543.454
59784.013
66482.427
66482.426
66482.422
66482.417
66482.41
66482.4
66482.387
66482.371
66482.35
66482.324
66482.292
66482.252
66482.202
66482.139
66482.062
66481.966
66481.847
66481.698
66481.512
66481.28
66480.99
66480.624
66480.164
66479.582
66478.845
66477.91
66476.721
66475.207
66473.279
66470.824
66467.703
66463.744
66458.736
66452.429
66444.52
66434.653
66422.414
66407.315
66388.794
66366.202
66338.79
66305.7
66265.946
66218.413
66161.85
66094.869
66015.972
65923.54
65815.85
65691.087
65547.305
65382.365
65193.933
64979.508
64736.403
64461.651
64151.97
63803.727
63413.009
62975.63
62487.049
61942.452
61336.729
60665.143
59915.061
66529.915
66529.913
66529.91
66529.905
66529.898
66529.888
66529.876
66529.86
66529.839
66529.814
66529.782
66529.742
66529.692
66529.631
66529.555
66529.459
66529.341
66529.194
66529.01
66528.779
66528.49
66528.127
66527.668
66527.089
66526.356
66525.425
66524.242
66522.738
66520.824
66518.39
66515.3
66511.383
66506.433
66500.201
66492.388
66482.645
66470.559
66455.651
66437.37
66415.077
66388.034
66355.396
66316.196
66269.339
66213.596
66147.62
66069.938
65978.958
65872.988
65750.216
65608.691
65446.295
65260.738
65049.573
64810.143
64539.504
64234.404
63891.275
63506.264
63075.255
62593.777
62057.097
61460.22
60798.673
60058.85
66581.686
66581.685
66581.682
66581.677
66581.67
66581.661
66581.648
66581.633
66581.613
66581.588
66581.556
66581.517
66581.468
66581.407
66581.331
66581.237
66581.119
66580.972
66580.789
66580.56
66580.272
66579.909
66579.452
66578.875
66578.144
66577.217
66576.039
66574.543
66572.643
66570.229
66567.168
66563.292
66558.4
66552.244
66544.532
66534.916
66522.991
66508.289
66490.268
66468.298
66441.657
66409.514
66370.923
66324.808
66269.979
66205.115
66128.771
66039.394
65935.305
65814.699
65675.632
65516.016
65333.615
65126.028
64890.618
64624.472
64324.382
63986.846
63608.073
63184.024
62710.303
62182.268
61595.044
60944.449
60215.807
66637.909
66637.908
66637.905
66637.9
66637.894
66637.885
66637.873
66637.857
66637.838
66637.813
66637.782
66637.743
66637.694
66637.634
66637.558
66637.464
66637.347
66637.2
66637.017
66636.788
66636.5
66636.137
66635.681
66635.104
66634.374
66633.449
66632.276
66630.787
66628.898
66626.502
66623.468
66619.633
66614.795
66608.715
66601.104
66591.621
66579.87
66565.391
66547.651
66526.034
66499.832
66468.234
66430.31
66385.021
66331.201
66267.558
66192.689
66105.058
66003.005
65884.736
65748.33
65591.744
65412.792
65209.099
64978.066
64716.804
64422.165
64090.713
63718.727
63302.246
62836.96
62318.317
61741.577
61102.874
60386.351
66698.756
66698.755
66698.752
66698.748
66698.742
66698.733
66698.721
66698.706
66698.686
66698.662
66698.63
66698.591
66698.542
66698.481
66698.405
66698.311
66698.192
66698.045
66697.86
66697.63
66697.34
66696.976
66696.518
66695.941
66695.211
66694.288
66693.118
66691.637
66689.759
66687.381
66684.374
66680.576
66675.793
66669.788
66662.279
66652.935
66641.368
66627.127
66609.691
66588.46
66562.74
66531.737
66494.553
66450.173
66397.46
66335.16
66261.894
66176.151
66076.287
65960.525
65826.993
65673.699
65498.485
65299.017
65072.713
64816.742
64528.008
64203.149
63838.515
63430.23
62974.072
62465.593
61900.189
61274.338
60570.893
66764.36
66764.359
66764.357
66764.352
66764.346
66764.338
66764.326
66764.311
66764.291
66764.267
66764.235
66764.196
66764.147
66764.085
66764.009
66763.913
66763.793
66763.644
66763.458
66763.225
66762.933
66762.568
66762.108
66761.529
66760.8
66759.879
66758.714
66757.241
66755.377
66753.019
66750.041
66746.284
66741.558
66735.632
66728.231
66719.033
66707.661
66693.676
66676.569
66655.756
66630.561
66600.214
66563.843
66520.458
66468.958
66408.118
66336.583
66252.859
66155.329
66042.256
65911.825
65762.087
65590.911
65395.994
65174.791
64924.527
64642.165
64324.422
63967.721
63568.278
63121.962
62624.434
62071.239
61459.222
60769.83
66834.822
66834.821
66834.819
66834.815
66834.809
66834.801
66834.789
66834.774
66834.755
66834.73
66834.698
66834.659
66834.609
66834.547
66834.47
66834.373
66834.253
66834.102
66833.915
66833.68
66833.387
66833.021
66832.561
66831.983
66831.256
66830.34
66829.184
66827.724
66825.879
66823.548
66820.606
66816.9
66812.241
66806.405
66799.125
66790.088
66778.928
66765.219
66748.469
66728.109
66703.487
66673.857
66638.371
66596.074
66545.891
66486.622
66416.929
66335.349
66240.301
66130.109
66003.016
65857.1
65690.273
65500.238
65284.519
65040.392
64764.886
64454.797
64106.628
63716.688
63280.945
62795.174
62255.078
61657.899
60983.545
66910.199
66910.198
66910.196
66910.193
66910.187
66910.179
66910.167
66910.152
66910.133
66910.109
66910.077
66910.038
66909.989
66909.927
66909.85
66909.754
66909.634
66909.485
66909.298
66909.066
66908.775
66908.411
66907.956
66907.384
66906.665
66905.761
66904.62
66903.182
66901.366
66899.073
66896.182
66892.542
66887.968
66882.243
66875.107
66866.256
66855.336
66841.934
66825.575
66805.711
66781.714
66752.862
66718.339
66677.216
66628.441
66570.835
66503.088
66423.777
66331.376
66224.279
66100.762
65958.945
65796.759
65611.957
65402.112
65164.565
64896.413
64594.53
64255.507
63875.752
63451.329
62978.135
62452.044
61870.727
61212.401
66990.534
66990.534
66990.532
66990.529
66990.523
66990.516
66990.505
66990.491
66990.472
66990.449
66990.419
66990.381
66990.334
66990.275
66990.2
66990.107
66989.99
66989.845
66989.663
66989.437
66989.154
66988.8
66988.355
66987.798
66987.096
66986.213
66985.1
66983.695
66981.921
66979.683
66976.859
66973.303
66968.838
66963.253
66956.294
66947.666
66937.025
66923.973
66908.053
66888.737
66865.421
66837.415
66803.926
66764.048
66716.756
66660.894
66595.196
66518.296
66428.73
66324.948
66205.244
66067.8
65910.557
65731.343
65527.777
65297.266
65036.979
64743.873
64414.628
64045.753
63633.414
63173.632
62662.467
62098.051
61456.743
67075.891
67075.891
67075.89
67075.887
67075.882
67075.875
67075.865
67075.852
67075.835
67075.813
67075.785
67075.75
67075.706
67075.65
67075.58
67075.493
67075.384
67075.247
67075.075
67074.861
67074.592
67074.255
67073.83
67073.295
67072.621
67071.771
67070.697
67069.339
67067.622
67065.453
67062.717
67059.271
67054.943
67049.527
67042.779
67034.414
67024.099
67011.45
66996.024
66977.317
66954.748
66927.649
66895.255
66856.682
66810.937
66756.909
66693.388
66619.06
66532.524
66432.264
66316.63
66183.816
66031.842
65858.581
65661.709
65438.706
65186.811
64903.068
64584.247
64226.966
63827.491
63381.97
62886.66
62340.204
61716.896
67166.38
67166.38
67166.379
67166.377
67166.373
67166.367
67166.358
67166.347
67166.332
67166.312
67166.287
67166.256
67166.216
67166.166
67166.102
67166.023
67165.923
67165.797
67165.639
67165.44
67165.19
67164.875
67164.477
67163.974
67163.337
67162.529
67161.505
67160.207
67158.561
67156.477
67153.845
67150.527
67146.358
67141.139
67134.637
67126.577
67116.636
67104.443
67089.572
67071.533
67049.767
67023.631
66992.382
66955.179
66911.073
66859
66797.798
66726.21
66642.899
66546.372
66435.05
66307.155
66160.777
65993.844
65804.096
65589.084
65346.125
65072.347
64764.615
64419.655
64033.841
63603.441
63124.921
62597.507
61993.169
67262.154
67262.154
67262.154
67262.152
67262.148
67262.143
67262.136
67262.126
67262.113
67262.096
67262.075
67262.047
67262.011
67261.967
67261.91
67261.839
67261.75
67261.636
67261.493
67261.312
67261.083
67260.792
67260.423
67259.953
67259.356
67258.595
67257.626
67256.394
67254.828
67252.841
67250.328
67247.158
67243.171
67238.18
67231.957
67224.238
67214.711
67203.018
67188.746
67171.422
67150.509
67125.391
67095.364
67059.626
67017.265
66967.269
66908.535
66839.869
66759.96
66667.406
66560.635
66437.952
66297.508
66137.293
65955.112
65748.591
65515.124
65251.932
64955.969
64624.076
64252.733
63838.327
63377.535
62870.265
62285.863
67363.383
67363.383
67363.383
67363.381
67363.378
67363.374
67363.368
67363.359
67363.347
67363.332
67363.313
67363.288
67363.257
67363.217
67363.166
67363.102
67363.02
67362.917
67362.787
67362.621
67362.411
67362.143
67361.801
67361.364
67360.805
67360.091
67359.178
67358.015
67356.533
67354.651
67352.266
67349.255
67345.467
67340.72
67334.799
67327.446
67318.363
67307.202
67293.568
67277.007
67257.007
67232.981
67204.259
67170.078
67129.576
67081.797
67025.692
66960.114
66883.821
66795.449
66693.497
66576.333
66442.172
66289.075
66114.917
65917.4
65694.003
65442.033
65158.541
64840.474
64484.427
64086.897
63644.78
63158.77
62595.282
67470.185
67470.185
67470.184
67470.183
67470.18
67470.176
67470.17
67470.162
67470.151
67470.137
67470.119
67470.096
67470.066
67470.029
67469.981
67469.921
67469.845
67469.749
67469.627
67469.472
67469.275
67469.024
67468.703
67468.292
67467.767
67467.094
67466.235
67465.137
67463.739
67461.962
67459.712
67456.868
67453.289
67448.801
67443.197
67436.23
67427.614
67417.016
67404.057
67388.309
67369.281
67346.422
67319.093
67286.58
67248.065
67202.647
67149.33
67087.021
67014.548
66930.597
66833.736
66722.402
66594.886
66449.32
66283.656
66095.674
65882.939
65642.85
65372.549
65069.09
64729.176
64349.417
63926.926
63463.291
62921.748
67582.602
67582.603
67582.602
67582.6
67582.597
67582.593
67582.587
67582.579
67582.568
67582.554
67582.536
67582.513
67582.484
67582.447
67582.401
67582.342
67582.269
67582.175
67582.058
67581.908
67581.719
67581.479
67581.172
67580.782
67580.282
67579.645
67578.833
67577.797
67576.481
67574.81
67572.695
67570.024
67566.662
67562.442
67557.168
67550.604
67542.477
67532.472
67520.229
67505.342
67487.352
67465.738
67439.904
67409.169
67372.772
67329.861
67279.49
67220.65
67152.202
67072.913
66981.425
66876.249
66755.749
66618.142
66461.455
66283.557
66082.096
65854.568
65598.202
65310.155
64987.232
64626.151
64224.249
63784.112
63265.602
67700.597
67700.597
67700.596
67700.595
67700.591
67700.587
67700.581
67700.572
67700.561
67700.547
67700.529
67700.505
67700.476
67700.439
67700.393
67700.335
67700.261
67700.169
67700.054
67699.908
67699.723
67699.491
67699.195
67698.821
67698.346
67697.741
67696.974
67696
67694.766
67693.203
67691.229
67688.737
67685.599
67681.66
67676.73
67670.587
67662.973
67653.588
67642.098
67628.122
67611.235
67590.947
67566.703
67537.863
67503.715
67463.456
67416.211
67361.018
67296.816
67222.445
67136.622
67037.937
66924.839
66795.628
66648.421
66481.172
66291.62
66077.359
65835.699
65563.895
65258.846
64917.369
64537.055
64121.588
63627.194
67824.096
67824.095
67824.095
67824.093
67824.089
67824.085
67824.078
67824.07
67824.059
67824.044
67824.026
67824.003
67823.974
67823.937
67823.891
67823.833
67823.761
67823.671
67823.558
67823.417
67823.239
67823.015
67822.733
67822.377
67821.928
67821.361
67820.643
67819.736
67818.59
67817.143
67815.317
67813.013
67810.112
67806.463
67801.891
67796.185
67789.102
67780.365
67769.665
67756.652
67740.932
67722.053
67699.494
67672.661
67640.89
67603.436
67559.483
67508.135
67448.405
67379.21
67299.353
67207.507
67102.206
66981.845
66844.634
66688.62
66511.638
66311.376
66085.23
65830.539
65544.284
65223.362
64865.669
64476.146
64006.933
67953.022
67953.022
67953.021
67953.019
67953.016
67953.011
67953.005
67952.996
67952.986
67952.972
67952.954
67952.932
67952.904
67952.869
67952.825
67952.77
67952.701
67952.616
67952.509
67952.375
67952.208
67951.999
67951.736
67951.405
67950.99
67950.467
67949.807
67948.977
67947.93
67946.609
67944.942
67942.838
67940.182
67936.836
67932.633
67927.377
67920.843
67912.781
67902.911
67890.913
67876.426
67859.034
67838.253
67813.538
67784.272
67749.773
67709.283
67661.978
67606.95
67543.202
67469.619
67384.967
67287.874
67176.829
67050.146
66905.977
66742.25
66556.755
66346.97
66110.316
65843.833
65544.463
65210.35
64847.848
64405.801
68087.303
68087.303
68087.302
68087.3
68087.297
68087.293
68087.287
68087.279
68087.27
68087.257
68087.241
68087.221
68087.196
68087.164
68087.125
68087.075
68087.014
68086.937
68086.841
68086.721
68086.571
68086.384
68086.148
68085.853
68085.481
68085.013
68084.424
68083.681
68082.745
68081.561
68080.063
68078.166
68075.764
68072.727
68068.9
68064.106
68058.144
68050.789
68041.79
68030.86
68017.672
68001.841
67982.931
67960.441
67933.809
67902.409
67865.553
67822.494
67772.407
67714.38
67647.389
67570.297
67481.83
67380.582
67264.977
67133.283
66983.53
66813.607
66621.082
66403.458
66157.819
65881.028
65571.237
65237.648
64824.077
68226.895
68226.894
68226.893
68226.891
68226.889
68226.885
68226.88
68226.874
68226.865
68226.855
68226.841
68226.824
68226.803
68226.777
68226.744
68226.703
68226.651
68226.587
68226.506
68226.405
68226.278
68226.119
68225.919
68225.666
68225.347
68224.943
68224.433
68223.788
68222.968
68221.928
68220.606
68218.92
68216.773
68214.047
68210.604
68206.287
68200.919
68194.305
68186.222
68176.416
68164.588
68150.395
68133.446
68113.287
68089.409
68061.253
68028.206
67989.601
67944.696
67892.67
67832.594
67763.434
67684.022
67593.067
67489.109
67370.543
67235.516
67082.023
66907.723
66710.199
66486.525
66233.266
65948.966
65645.975
65262.212
68371.739
68371.738
68371.737
68371.735
68371.733
68371.73
68371.726
68371.721
68371.715
68371.707
68371.696
68371.684
68371.668
68371.648
68371.623
68371.592
68371.553
68371.504
68371.442
68371.364
68371.265
68371.139
68370.979
68370.775
68370.515
68370.181
68369.755
68369.209
68368.511
68367.614
68366.461
68364.982
68363.088
68360.675
68357.624
68353.801
68349.056
68343.219
68336.098
68327.466
68317.059
68304.581
68289.677
68271.948
68250.946
68226.181
68197.12
68163.177
68123.701
68077.96
68025.128
67964.277
67894.357
67814.201
67722.477
67617.719
67498.209
67362.06
67207.028
67030.747
66830.217
66602.013
66343.967
66073.271
65721.58
68521.786
68521.786
68521.785
68521.783
68521.781
68521.779
68521.776
68521.773
68521.768
68521.762
68521.756
68521.747
68521.736
68521.723
68521.707
68521.686
68521.66
68521.626
68521.583
68521.529
68521.458
68521.366
68521.246
68521.089
68520.885
68520.619
68520.272
68519.82
68519.232
68518.469
68517.478
68516.199
68514.554
68512.458
68509.811
68506.503
68502.41
68497.387
68491.269
68483.86
68474.938
68464.24
68451.463
68436.262
68418.256
68397.03
68372.133
68343.065
68309.264
68270.095
68224.836
68172.676
68112.692
68043.852
67964.969
67874.727
67771.564
67653.727
67519.066
67365.255
67189.477
66987.755
66757.177
66520.316
66203.601
68676.924
68676.923
68676.922
68676.921
68676.919
68676.917
68676.915
68676.913
68676.91
68676.906
68676.902
68676.897
68676.891
68676.884
68676.874
68676.863
68676.847
68676.828
68676.801
68676.766
68676.72
68676.657
68676.572
68676.456
68676.3
68676.091
68675.811
68675.44
68674.949
68674.306
68673.467
68672.38
68670.984
68669.21
68666.981
68664.21
68660.795
68656.619
68651.541
68645.404
68638.019
68629.167
68618.595
68606.019
68591.131
68573.596
68553.044
68529.062
68501.182
68468.871
68431.516
68388.432
68338.833
68281.836
68216.414
68141.416
68055.452
67956.908
67843.842
67714.038
67564.622
67391.396
67190.338
66988.695
66709.399
68836.982
68836.981
68836.98
68836.978
68836.977
68836.975
68836.973
68836.971
68836.969
68836.967
68836.965
68836.962
68836.958
68836.953
68836.948
68836.942
68836.933
68836.921
68836.905
68836.882
68836.85
68836.805
68836.742
68836.653
68836.53
68836.36
68836.131
68835.822
68835.413
68834.876
68834.177
68833.277
68832.131
68830.687
68828.889
68826.673
68823.96
68820.655
68816.654
68811.83
68806.033
68799.089
68790.802
68780.954
68769.311
68755.62
68739.595
68720.911
68699.195
68674.024
68644.904
68611.283
68572.519
68527.893
68476.553
68417.509
68349.615
68271.484
68181.346
68077.145
67956.156
67814.017
67645.93
67480.867
67238.971
69001.651
69001.649
69001.648
69001.646
69001.645
69001.643
69001.64
69001.638
69001.636
69001.634
69001.632
69001.629
69001.626
69001.622
69001.618
69001.612
69001.604
69001.595
69001.582
69001.563
69001.537
69001.5
69001.447
69001.372
69001.267
69001.124
69000.929
69000.671
69000.331
68999.892
68999.33
68998.62
68997.731
68996.629
68995.277
68993.632
68991.638
68989.232
68986.338
68982.864
68978.702
68973.727
68967.805
68960.785
68952.514
68942.818
68931.496
68918.314
68903.001
68885.243
68864.675
68840.878
68813.391
68781.666
68745.039
68702.74
68653.821
68597.17
68531.366
68454.665
68364.571
68256.835
68126.606
67997.443
67795.786
69170.575
69170.573
69170.571
69170.569
69170.567
69170.565
69170.562
69170.559
69170.556
69170.552
69170.549
69170.544
69170.54
69170.534
69170.528
69170.52
69170.511
69170.499
69170.483
69170.463
69170.435
69170.396
69170.343
69170.27
69170.171
69170.041
69169.869
69169.649
69169.37
69169.022
69168.595
69168.079
69167.457
69166.705
69165.808
69164.745
69163.488
69162.006
69160.249
69158.164
69155.687
69152.746
69149.27
69145.183
69140.407
69134.852
69128.403
69120.918
69112.237
69102.168
69090.475
69076.9
69061.143
69042.855
69021.578
68996.765
68967.758
68933.725
68893.609
68846.215
68789.551
68720.314
68634.357
68546.581
68394.825
69350.92
69350.918
69350.915
69350.912
69350.909
69350.906
69350.902
69350.898
69350.893
69350.887
69350.881
69350.874
69350.865
69350.856
69350.845
69350.831
69350.815
69350.795
69350.77
69350.739
69350.7
69350.65
69350.587
69350.505
69350.402
69350.274
69350.118
69349.929
69349.707
69349.451
69349.162
69348.844
69348.494
69348.119
69347.721
69347.302
69346.86
69346.389
69345.876
69345.308
69344.673
69343.959
69343.165
69342.289
69341.329
69340.284
69339.13
69337.831
69336.339
69334.597
69332.528
69330.045
69327.036
69323.362
69318.798
69313.073
69305.798
69296.549
69284.669
69269.56
69250.078
69224.458
69192.494
69163.468
69107.621
69540.545
69540.542
69540.539
69540.536
69540.532
69540.528
69540.524
69540.518
69540.512
69540.505
69540.496
69540.487
69540.475
69540.462
69540.446
69540.426
69540.403
69540.375
69540.341
69540.3
69540.249
69540.187
69540.112
69540.022
69539.916
69539.795
69539.658
69539.511
69539.361
69539.217
69539.093
69539.003
69538.968
69539.012
69539.154
69539.428
69539.863
69540.48
69541.296
69542.351
69543.685
69545.353
69547.424
69549.978
69553.096
69556.862
69561.351
69566.639
69572.807
69579.947
69588.15
69597.518
69608.135
69620.085
69633.401
69648.117
69664.175
69681.562
69700.114
69719.873
69740.649
69762.359
69786.831
69818.63
69842.367
69729.699
69729.696
69729.693
69729.69
69729.686
69729.682
69729.677
69729.672
69729.665
69729.658
69729.649
69729.64
69729.628
69729.614
69729.598
69729.579
69729.556
69729.528
69729.494
69729.453
69729.403
69729.344
69729.275
69729.195
69729.105
69729.009
69728.914
69728.83
69728.77
69728.756
69728.81
69728.957
69729.239
69729.687
69730.351
69731.284
69732.547
69734.202
69736.318
69738.976
69742.27
69746.318
69751.26
69757.249
69764.448
69773.027
69783.166
69795.055
69808.91
69824.974
69843.512
69864.812
69889.162
69916.867
69948.226
69983.581
70023.229
70067.571
70116.958
70172.023
70233.316
70301.974
70380.191
70470.782
70571.821
69917.57
69917.567
69917.564
69917.561
69917.557
69917.553
69917.549
69917.544
69917.539
69917.533
69917.526
69917.518
69917.509
69917.498
69917.485
69917.469
69917.451
69917.428
69917.401
69917.368
69917.329
69917.283
69917.23
69917.171
69917.111
69917.055
69917.014
69917.003
69917.043
69917.16
69917.39
69917.775
69918.365
69919.212
69920.389
69921.977
69924.066
69926.754
69930.154
69934.396
69939.635
69946.049
69953.847
69963.254
69974.512
69987.881
70003.642
70022.108
70043.633
70068.613
70097.482
70130.714
70168.805
70212.286
70261.721
70317.755
70381.047
70452.401
70532.654
70622.975
70724.561
70839.374
70970.048
71120.093
71293.983
70103.279
70103.276
70103.274
70103.271
70103.268
70103.265
70103.262
70103.258
70103.255
70103.251
70103.247
70103.242
70103.237
70103.232
70103.225
70103.217
70103.208
70103.196
70103.183
70103.166
70103.146
70103.123
70103.098
70103.074
70103.056
70103.055
70103.083
70103.161
70103.317
70103.586
70104.012
70104.65
70105.56
70106.819
70108.517
70110.762
70113.675
70117.391
70122.067
70127.885
70135.054
70143.818
70154.45
70167.245
70182.523
70200.635
70221.971
70246.965
70276.112
70309.957
70349.101
70394.2
70445.957
70505.138
70572.571
70649.193
70736.019
70834.235
70945.142
71070.415
71211.89
71372.216
71554.688
71763.844
72005.987
70286.128
70286.125
70286.123
70286.121
70286.119
70286.117
70286.116
70286.114
70286.113
70286.112
70286.112
70286.112
70286.113
70286.114
70286.115
70286.117
70286.119
70286.121
70286.123
70286.126
70286.129
70286.134
70286.144
70286.162
70286.197
70286.261
70286.372
70286.556
70286.846
70287.285
70287.927
70288.834
70290.082
70291.764
70293.991
70296.896
70300.632
70305.373
70311.316
70318.697