/*--------------------------------*- C++ -*----------------------------------*\
  =========                 |
  \\      /  F ield         | OpenFOAM: The Open Source CFD Toolbox
   \\    /   O peration     | Website:  https://openfoam.org
    \\  /    A nd           | Version:  13
     \\/     M anipulation  |
\*---------------------------------------------------------------------------*/
FoamFile
{
    format      ascii;
    class       volVectorField;
    location    "4.698332";
    object      UMean;
}
// * * * * * * * * * * * * * * * * * * * * * * * * * * * * * * * * * * * * * //

dimensions      [0 1 -1 0 0 0 0];

internalField   nonuniform List<vector> 
17140
(
(-2.968728e-06 0.00012742667 -8.0603787e-22)
(-3.8285596e-05 0.00039182883 -6.8128708e-23)
(-0.00011443775 0.00068050788 4.5005092e-21)
(-0.00024757355 0.00099502388 -4.9496113e-21)
(-0.00045209427 0.0013370289 5.7891935e-22)
(-0.00074794836 0.0017079495 -1.8957389e-21)
(-0.0011597095 0.0021089288 -3.1939138e-21)
(-0.0017171757 0.0025406901 1.561029e-21)
(-0.0024563506 0.0030033855 5.1148188e-21)
(-0.003420426 0.0034964119 1.2562805e-20)
(-0.0046607573 0.0040182004 -1.8662322e-20)
(-0.0062378022 0.0045659825 1.6667112e-20)
(-0.0082219372 0.0051355448 2.5571249e-21)
(-0.010694039 0.00572098 -1.4513179e-20)
(-0.013745673 0.0063144715 1.6173837e-21)
(-0.017478713 0.0069061397 -1.2872134e-20)
(-0.022004187 0.0074840163 4.8226204e-22)
(-0.027440162 0.0080341924 -1.0784876e-22)
(-0.033908542 0.0085412237 -7.7504345e-21)
(-0.041530741 0.0089888621 1.0124309e-20)
(-0.050422463 0.0093611468 -4.9105665e-21)
(-0.060688037 0.0096438351 9.4564313e-22)
(-0.072414999 0.0098260283 7.0100254e-21)
(-0.085670782 0.0099017202 -7.0333482e-21)
(-0.10050446 0.0098708419 -1.1266559e-20)
(-0.1169412 0.0097394402 9.1113446e-21)
(-0.134979 0.0095181972 4.4974053e-20)
(-0.15463548 0.0092181052 5.317486e-21)
(-0.17591057 0.008851008 -4.6992209e-20)
(-0.19877164 0.0084272896 -1.1036342e-20)
(-0.22320084 0.0079542156 -3.9616634e-20)
(-0.24915131 0.0074366067 5.246969e-20)
(-0.27655053 0.0068772547 -1.3738244e-20)
(-0.30528948 0.006277221 -6.6101253e-21)
(-0.33521087 0.0056361868 -6.5292372e-20)
(-0.36609322 0.0049518137 2.8850535e-20)
(-0.39762958 0.0042191345 -4.36713e-20)
(-0.42939686 0.0034300984 -2.9694486e-20)
(-0.46081348 0.0025724168 -1.3646213e-20)
(-0.49108465 0.0016309861 4.1523242e-20)
(-0.51913778 0.00058682775 7.8483793e-20)
(-0.54355474 -0.00057794318 7.1254663e-20)
(-0.56249826 -0.0018768602 3.1092056e-20)
(-0.57371245 -0.0033109356 -1.5092288e-19)
(-0.57460921 -0.0048589508 -1.1003741e-19)
(-0.5623301 -0.0064504062 2.6957164e-20)
(-0.5342501 -0.0079934886 -1.824805e-19)
(-0.48822941 -0.0094232753 -6.1762035e-20)
(-0.42260343 -0.010654786 6.2724272e-20)
(-0.33818397 -0.011499788 1.5310218e-19)
(-0.23717848 -0.01186422 -9.4047162e-20)
(-0.12203858 -0.011790015 -5.9260276e-20)
(0.0040562393 -0.011310218 1.5390737e-19)
(0.13774181 -0.010428471 7.2490474e-20)
(0.27442975 -0.0090950962 5.1452795e-20)
(0.4074003 -0.0072799506 -4.0196421e-20)
(0.52932085 -0.0051067973 1.0783478e-19)
(0.63391607 -0.0027699735 8.942582e-20)
(0.71817764 -0.00055332781 2.2238198e-20)
(0.78265747 0.0013553828 -5.6973051e-20)
(0.83009985 0.0028776321 -4.4352229e-20)
(0.8638192 0.0040157961 -1.6347397e-19)
(0.88799048 0.0047591662 -2.3921741e-20)
(0.90638878 0.0051892802 2.0097155e-19)
(0.92273442 0.0053665795 -1.553412e-19)
(-3.0025542e-05 0.00070138143 2.2919187e-22)
(-0.00012079637 0.0021570746 -2.3594006e-20)
(-0.00025680139 0.0037471573 2.1002215e-20)
(-0.00045414834 0.0054815781 -5.7281263e-21)
(-0.00072737223 0.0073701488 -1.1838152e-20)
(-0.0010963777 0.0094217384 2.2633476e-20)
(-0.0015855641 0.011643819 -2.3611893e-20)
(-0.0022243955 0.014041781 2.0799834e-21)
(-0.0030483396 0.01661811 -6.501025e-21)
(-0.0040998077 0.019371402 -1.0971556e-22)
(-0.0054290869 0.022295227 -2.1772129e-20)
(-0.0070952371 0.025376858 3.466812e-20)
(-0.0091668755 0.028595905 2.8702704e-21)
(-0.011722731 0.03192295 -2.8410748e-20)
(-0.014851835 0.035318316 8.7550662e-21)
(-0.018653157 0.03873117 5.5795223e-21)
(-0.023234528 0.042099242 -3.552862e-20)
(-0.028710628 0.045349527 1.1624746e-19)
(-0.035199948 0.048400352 -7.3121516e-20)
(-0.042820686 0.051165204 8.8025076e-20)
(-0.051685761 0.053558564 -1.3071926e-19)
(-0.061897398 0.055503643 3.2223342e-20)
(-0.073541945 0.056941343 1.335628e-20)
(-0.086686529 0.057838948 -4.3891073e-20)
(-0.1013806 0.058196228 1.5882636e-19)
(-0.11765189 0.058046716 2.3810638e-20)
(-0.13549847 0.057449896 -1.2432649e-19)
(-0.15493904 0.056469132 1.4022751e-19)
(-0.17597677 0.05516922 -1.9455476e-20)
(-0.19857787 0.05360727 -1.9124207e-19)
(-0.22272482 0.051823329 2.0003951e-20)
(-0.24837039 0.049841832 1.539417e-19)
(-0.27544144 0.047673965 3.8469345e-21)
(-0.30382789 0.045319917 -1.1636459e-19)
(-0.33337096 0.042769361 1.3078626e-19)
(-0.36384721 0.039999058 -5.926758e-20)
(-0.39494657 0.03696904 7.0315512e-20)
(-0.42624185 0.033618695 2.2479162e-19)
(-0.45714574 0.029862958 5.0564659e-20)
(-0.48685602 0.025591682 1.9862985e-19)
(-0.51428938 0.020672724 -2.5547198e-19)
(-0.5380108 0.014964318 -2.3544475e-19)
(-0.55616322 0.0083418325 -4.0273218e-20)
(-0.56645823 0.00073568425 3.2254736e-19)
(-0.56625008 -0.0078232314 -1.5225486e-19)
(-0.55265205 -0.017148131 -5.2693044e-20)
(-0.5228558 -0.026886865 2.8259909e-20)
(-0.47471865 -0.036536 8.7748401e-20)
(-0.40740821 -0.045279897 -4.2878584e-20)
(-0.321492 -0.052336229 7.7517516e-20)
(-0.2189018 -0.05742931 4.6614357e-19)
(-0.10258815 -0.06054497 2.2228731e-20)
(0.024247428 -0.06177863 -1.0009563e-19)
(0.15817192 -0.061047272 2.2208659e-19)
(0.29453457 -0.057891095 -1.8894102e-19)
(0.42646295 -0.051922749 5.3353595e-19)
(0.54658263 -0.043586166 1.5120786e-19)
(0.64878501 -0.033923875 -4.2282253e-19)
(0.73048471 -0.024434742 7.1298963e-20)
(0.79246324 -0.016155477 8.0825783e-20)
(0.83776439 -0.009534687 1.6130379e-20)
(0.86989166 -0.0046273992 -2.1367291e-19)
(0.89292883 -0.0014649815 4.1584263e-19)
(0.91026844 0.00024810876 1.2444015e-19)
(0.92538853 0.00085650891 2.0680077e-19)
(-8.8362092e-05 0.001261803 1.263131e-20)
(-0.00029856274 0.0038812144 -7.123505e-21)
(-0.00056331311 0.0067431819 -1.8950527e-21)
(-0.00089857303 0.0098661342 1.7977561e-21)
(-0.0013191213 0.013268124 -8.7154872e-21)
(-0.0018446995 0.016965638 -6.4808051e-22)
(-0.0024992465 0.02097276 -8.2917835e-21)
(-0.0033114081 0.025299961 -8.9420965e-21)
(-0.0043153817 0.029952628 7.3179814e-20)
(-0.0055517637 0.034929309 -6.5433808e-20)
(-0.007068388 0.040219673 3.1369031e-20)
(-0.0089211347 0.045802212 4.6057646e-20)
(-0.01117464 0.051641761 -9.1568522e-20)
(-0.013902804 0.057686994 -1.1366261e-20)
(-0.017188978 0.063868116 4.4048251e-20)
(-0.021125665 0.070095125 3.0399618e-20)
(-0.025813584 0.076257144 -3.5412087e-20)
(-0.031359915 0.082223452 1.2882948e-19)
(-0.037875616 0.087846958 -7.6578963e-20)
(-0.045471784 0.092970847 3.8091122e-20)
(-0.054255206 0.097438893 -1.2931135e-19)
(-0.064323482 0.10110934 -3.3869287e-20)
(-0.075760289 0.10387124 7.1175876e-20)
(-0.088632014 0.1056606 -1.0789606e-19)
(-0.1029888 0.10647227 -4.2769757e-20)
(-0.11886327 0.10636298 5.1843938e-20)
(-0.13625464 0.10543932 2.9644749e-19)
(-0.15518274 0.10382005 1.3504938e-19)
(-0.17565649 0.10162084 -6.8051535e-20)
(-0.19764081 0.098947574 7.3197409e-20)
(-0.2211173 0.095875969 -4.6335889e-20)
(-0.24603779 0.09245156 -2.6380417e-19)
(-0.27232708 0.088694785 8.9065552e-20)
(-0.29987219 0.084605368 2.6804988e-19)
(-0.32851042 0.080162872 -9.0461554e-20)
(-0.35801319 0.075322707 -1.2755093e-19)
(-0.38806333 0.070009502 2.2285164e-19)
(-0.41822382 0.064108887 6.8446752e-20)
(-0.44789378 0.057460959 -1.2310305e-19)
(-0.47625123 0.04985684 -4.9824085e-20)
(-0.50218373 0.041045209 2.4068011e-19)
(-0.5242132 0.030752523 -6.8722738e-20)
(-0.54042325 0.018732228 -1.0006693e-19)
(-0.54845431 0.0048382203 -2.6816793e-19)
(-0.54556716 -0.010889975 5.1217755e-19)
(-0.52881509 -0.028125097 -3.3259164e-19)
(-0.49547551 -0.046143876 -8.4137735e-20)
(-0.4436183 -0.063882075 -3.3455703e-19)
(-0.37256011 -0.080020821 -4.029952e-19)
(-0.28314362 -0.093268766 -2.0644814e-20)
(-0.17781183 -0.1029082 8.7275208e-20)
(-0.059938088 -0.10891926 -6.4280814e-19)
(0.06718573 -0.11159288 -2.7460157e-19)
(0.20019216 -0.11076511 -2.823161e-19)
(0.33448699 -0.1055335 -9.246074e-20)
(0.46302372 -0.095143354 -7.1343551e-19)
(0.57845757 -0.080439183 2.8168465e-19)
(0.67521872 -0.063402408 -8.5101878e-20)
(0.75142185 -0.046742313 -6.9509169e-19)
(0.80834534 -0.032306073 -2.7494594e-19)
(0.8495379 -0.020897223 3.2623105e-19)
(0.87878715 -0.012518706 1.1201996e-18)
(0.90012249 -0.0070776987 -3.5763491e-19)
(0.91627119 -0.004084721 -5.7630961e-19)
(0.93009445 -0.0030474228 -2.4683992e-19)
(-0.00017586483 0.0017881045 -4.2245787e-20)
(-0.00056521068 0.00550142 5.1273903e-20)
(-0.0010230535 0.009560216 -1.8546137e-20)
(-0.0015651323 0.013991341 2.0171761e-21)
(-0.0022065861 0.018821095 -3.9897238e-20)
(-0.0029669061 0.024073786 4.1311028e-20)
(-0.0038693338 0.02977052 -6.2717308e-20)
(-0.0049412772 0.035927525 2.9543233e-20)
(-0.0062150167 0.042554094 1.1246406e-19)
(-0.0077284089 0.049650116 -2.7089427e-20)
(-0.0095255836 0.057203189 -1.033705e-19)
(-0.011657615 0.065185342 3.1637201e-20)
(-0.014183114 0.073549465 2.1229287e-21)
(-0.017168661 0.082225639 -8.3310326e-20)
(-0.020688972 0.091117679 2.6171652e-19)
(-0.02482669 0.10010039 -1.614446e-19)
(-0.029671646 0.10901825 -1.5465308e-21)
(-0.03531947 0.11768637 9.0357106e-20)
(-0.041869431 0.12589489 -2.311e-19)
(-0.049421507 0.13341788 1.0995675e-19)
(-0.058072727 0.14002753 1.6545104e-19)
(-0.067913132 0.14551376 6.7622254e-20)
(-0.07902176 0.14970785 -3.3813162e-19)
(-0.091463392 0.15250651 -1.7862495e-19)
(-0.10528882 0.15389054 1.1686422e-19)
(-0.12053665 0.15393121 -6.89018e-20)
(-0.13721021 0.15277742 2.6144353e-19)
(-0.1553294 0.15060755 -7.5957206e-20)
(-0.17490967 0.147584 2.0719768e-19)
(-0.1959171 0.14386436 -1.1853304e-19)
(-0.21832985 0.13956469 7.4068242e-20)
(-0.24209872 0.13475432 -2.7508229e-19)
(-0.26714478 0.1294647 4.000553e-20)
(-0.29335038 0.12369572 -2.1299148e-19)
(-0.32054643 0.11741696 2.0629148e-19)
(-0.34849583 0.11056246 6.6502737e-20)
(-0.37687017 0.10302059 -8.4156461e-19)
(-0.40521685 0.094621878 -2.2169698e-19)
(-0.43291314 0.085128247 1.8579698e-19)
(-0.45910586 0.074227718 -1.8425623e-19)
(-0.48263742 0.061542367 4.759846e-20)
(-0.5019659 0.046660122 3.0195652e-19)
(-0.51509378 0.029206273 -1.4235546e-20)
(-0.51956583 0.0089578635 -1.0247659e-19)
(-0.51254195 -0.014023609 5.0096339e-20)
(-0.49106412 -0.039226107 -2.490237e-20)
(-0.45252049 -0.065547028 -7.3091986e-20)
(-0.39522237 -0.091352318 1.1370812e-18)
(-0.31892919 -0.11465434 -1.2735809e-19)
(-0.22516986 -0.13359708 1.186989e-19)
(-0.11709682 -0.14717888 -1.1204103e-18)
(0.0014763661 -0.15550213 6.1591274e-19)
(0.12726545 -0.15917393 5.0654496e-19)
(0.25723178 -0.15798752 4.8299918e-19)
(0.38704786 -0.1505046 4.6368176e-19)
(0.50948274 -0.13554436 7.2401897e-19)
(0.61737298 -0.11447695 -1.437665e-18)
(0.7060214 -0.090281108 8.7855161e-19)
(0.77441371 -0.066827003 1.3238458e-18)
(0.82460981 -0.046722076 -9.6564617e-19)
(0.8607059 -0.031059869 -3.0703829e-19)
(0.88665835 -0.019716416 -2.6725045e-19)
(0.90631428 -0.012357433 1.3594545e-18)
(0.92178426 -0.0081466538 9.9839288e-19)
(0.93498099 -0.0064842209 -4.394295e-20)
(-0.00028814245 0.0022600432 2.9695453e-20)
(-0.00090745069 0.0069557951 -7.5164406e-20)
(-0.0016132166 0.012091282 6.1304074e-20)
(-0.0024209362 0.017701584 -2.3179506e-20)
(-0.0033462362 0.023821149 -8.3793358e-21)
(-0.0044083224 0.030482283 7.2165761e-20)
(-0.0056295827 0.037713593 -1.8298862e-20)
(-0.0070358862 0.045537938 -3.8902767e-20)
(-0.0086571047 0.053969868 -2.9902902e-21)
(-0.010527633 0.063012548 -2.5448562e-20)
(-0.012686897 0.072654117 3.5720192e-20)
(-0.015179838 0.082863516 -2.4900932e-20)
(-0.018057345 0.093585873 -9.207164e-20)
(-0.02137656 0.10473767 -2.684762e-21)
(-0.025201011 0.11620205 7.1033772e-20)
(-0.029600463 0.12782486 5.0607505e-20)
(-0.034650419 0.13941233 -4.3840063e-20)
(-0.040431141 0.15073142 4.2478922e-21)
(-0.047026154 0.16151442 8.6919208e-20)
(-0.054520176 0.17146917 1.0692015e-19)
(-0.062996515 0.18029625 -1.2333179e-19)
(-0.07253416 0.18771355 -1.2551186e-19)
(-0.083204774 0.19348678 1.7090064e-19)
(-0.095069969 0.19746193 -2.1401389e-19)
(-0.10818068 0.19959221 -3.751986e-19)
(-0.12257984 0.19995016 8.9476945e-19)
(-0.13828239 0.19871738 -4.9805555e-19)
(-0.15530332 0.19613192 7.4525429e-19)
(-0.17366234 0.19240248 -9.4010608e-19)
(-0.19333701 0.18774133 1.0589111e-18)
(-0.21429527 0.18231093 -1.1042889e-18)
(-0.23648775 0.17620863 1.8753924e-19)
(-0.25983001 0.1694799 6.5231497e-19)
(-0.2841978 0.16212617 -3.7088102e-19)
(-0.30941331 0.1541077 1.1694323e-19)
(-0.33522789 0.14533706 3.4567137e-20)
(-0.36129769 0.13566565 4.2782105e-19)
(-0.38714905 0.12486713 1.4044329e-19)
(-0.41212976 0.11262193 1.4232244e-19)
(-0.43534476 0.098508838 1.4244448e-19)
(-0.45557664 0.082015395 -7.3104937e-19)
(-0.47120094 0.062580494 3.2295538e-19)
(-0.48011684 0.039693404 5.1426338e-20)
(-0.47975644 0.013054518 -5.9888285e-19)
(-0.46720077 -0.017226999 -3.0476318e-19)
(-0.4395436 -0.050395928 1.510003e-19)
(-0.39441779 -0.08489554 5.4800856e-19)
(-0.33059405 -0.11846987 -2.4021514e-19)
(-0.24847936 -0.14845284 6.9985065e-19)
(-0.15038524 -0.17240084 3.8200855e-19)
(-0.04022522 -0.18909412 5.3000328e-19)
(0.077724185 -0.1989699 1.4229164e-18)
(0.20030591 -0.20315392 -1.1015073e-18)
(0.32506143 -0.20142358 3.5768574e-19)
(0.44806519 -0.19162318 -6.1527945e-19)
(0.56181323 -0.17209355 -5.8156062e-19)
(0.6596383 -0.14485027 -2.2556732e-19)
(0.73789946 -0.11394207 -2.0441117e-18)
(0.79676811 -0.084333404 -5.4610086e-19)
(0.83931343 -0.059295589 1.241336e-18)
(0.8701108 -0.040090382 4.6737755e-19)
(0.89298131 -0.026359132 -3.4874143e-19)
(0.91130959 -0.017450123 -7.2083913e-19)
(0.92640394 -0.012150206 -1.1221444e-18)
(0.93946141 -0.009755093 8.5547163e-20)
(-0.00041853764 0.0026583778 9.0290119e-20)
(-0.0013051019 0.0081854353 2.4278384e-20)
(-0.0022991268 0.014234432 -1.9669477e-20)
(-0.0034159041 0.020848305 -7.2664988e-20)
(-0.0046716768 0.028069404 3.9839969e-20)
(-0.0060853947 0.035938115 -5.7393706e-20)
(-0.0076785407 0.044491007 2.4860756e-20)
(-0.0094752951 0.053758525 5.9291802e-21)
(-0.011502844 0.063762054 -3.3618024e-20)
(-0.013791677 0.074510367 -7.2604917e-20)
(-0.01637587 0.085995367 -3.6511685e-21)
(-0.019293338 0.098187144 1.2006775e-19)
(-0.02258605 0.11102842 -1.667594e-19)
(-0.026300167 0.12442859 2.7058345e-19)
(-0.030486079 0.13825771 -7.1127338e-20)
(-0.035198277 0.15234117 1.5215795e-19)
(-0.040495057 0.16645586 -1.8548307e-19)
(-0.046437968 0.18032937 1.2160393e-19)
(-0.053091007 0.19364376 -1.9427088e-20)
(-0.060519521 0.20604601 -7.9748806e-20)
(-0.068788833 0.21716683 1.9643553e-19)
(-0.077962731 0.22664893 -2.8129314e-19)
(-0.088101807 0.23418375 3.1057619e-19)
(-0.09926176 0.23955236 5.4150359e-20)
(-0.11149215 0.24266235 -5.4049261e-19)
(-0.12483756 0.2435687 5.5484231e-19)
(-0.13932972 0.24246793 -3.6621605e-19)
(-0.1549755 0.23964835 4.1673135e-19)
(-0.17179843 0.23538399 4.0056354e-20)
(-0.18979655 0.22993207 2.5268247e-20)
(-0.20892113 0.2235075 -1.7169174e-19)
(-0.22912318 0.21624466 1.1523535e-20)
(-0.25031109 0.20820783 -6.6107511e-19)
(-0.27235207 0.19940277 1.8085204e-19)
(-0.29505682 0.1897815 5.4605844e-19)
(-0.31816177 0.17923535 -2.57311e-19)
(-0.34130314 0.16757837 2.1362215e-19)
(-0.36397979 0.15452561 -2.1647321e-19)
(-0.38550178 0.13967233 -1.2160825e-18)
(-0.40492093 0.1224817 6.7799618e-19)
(-0.42094589 0.10229683 1.6728471e-19)
(-0.43185493 0.078397357 -9.5456553e-19)
(-0.43543837 0.050131984 5.5334137e-20)
(-0.42903765 0.017135366 1.1759512e-19)
(-0.40974277 -0.020395094 1.2817781e-18)
(-0.37485086 -0.061399632 2.9752094e-19)
(-0.3224435 -0.10381099 -4.6883425e-19)
(-0.25191823 -0.14471307 -4.7976954e-19)
(-0.16433229 -0.18073955 -6.8367445e-19)
(-0.062606677 -0.20886459 -8.4674603e-19)
(0.048672946 -0.22771578 -5.1824399e-19)
(0.16471099 -0.23826307 -8.0747156e-19)
(0.28252618 -0.2424031 2.7529414e-19)
(0.40034096 -0.23996262 -1.7045921e-18)
(0.51454233 -0.2278632 -1.1526481e-19)
(0.6173789 -0.20388368 -9.6848272e-20)
(0.70304905 -0.17086092 -5.4325027e-20)
(0.76918438 -0.13393762 2.2085186e-18)
(0.81754236 -0.099087269 8.611682e-19)
(0.85226823 -0.070071528 -1.3210584e-18)
(0.87816507 -0.048133046 -1.8884547e-18)
(0.8985118 -0.032589085 -8.4367638e-19)
(0.91590538 -0.022457493 -2.7343636e-19)
(0.93073472 -0.016175154 1.5990646e-18)
(0.94364812 -0.012955006 -4.0202556e-19)
(-0.0005582818 0.0029664605 -1.7013798e-20)
(-0.0017320257 0.0091390769 -4.1166464e-20)
(-0.003035584 0.015900708 9.9413181e-20)
(-0.004484717 0.023301425 -3.6997583e-21)
(-0.006096189 0.031391061 -4.8477145e-20)
(-0.0078887986 0.040217967 -2.1388533e-20)
(-0.0098831951 0.049826996 -1.5812929e-20)
(-0.012101894 0.060257061 3.1211297e-20)
(-0.014569359 0.071537976 -1.6189266e-19)
(-0.017312067 0.083686601 1.2246809e-19)
(-0.020358521 0.096702148 -5.9390583e-21)
(-0.023739245 0.11056065 -7.4608686e-20)
(-0.027486731 0.12520861 2.8037613e-19)
(-0.031635345 0.140556 -2.8094781e-19)
(-0.036221193 0.15646899 3.7676466e-20)
(-0.04128195 0.17276298 2.3484503e-19)
(-0.046856658 0.18919702 -2.2282293e-19)
(-0.052985536 0.20547099 7.8703218e-20)
(-0.059709797 0.22122764 -1.5466929e-19)
(-0.067071554 0.2360617 2.0111761e-19)
(-0.07511373 0.24953872 3.8300939e-19)
(-0.083880167 0.26122524 -3.8492732e-19)
(-0.093415587 0.27073014 -5.7261834e-19)
(-0.10376543 0.27775381 1.1217127e-18)
(-0.11497495 0.28213598 -9.1289371e-19)
(-0.12708856 0.28388872 5.3723579e-19)
(-0.1401485 0.28319906 -1.4031898e-19)
(-0.15416952 0.28038892 3.3549684e-19)
(-0.16916987 0.27581433 -3.4726748e-19)
(-0.18516005 0.26977111 -4.7280006e-19)
(-0.20209438 0.26252923 3.1749217e-19)
(-0.21991149 0.25427421 5.3074503e-19)
(-0.23851387 0.24509616 -4.7100676e-20)
(-0.25775729 0.23500942 -1.973732e-20)
(-0.27743785 0.22395991 -3.5077742e-19)
(-0.29727247 0.2118186 1.5340696e-19)
(-0.31687156 0.19836217 5.6651302e-19)
(-0.33569916 0.18324603 2.8752824e-19)
(-0.35301778 0.16597675 -4.4361797e-19)
(-0.36781521 0.14589607 3.527349e-19)
(-0.37871644 0.12219483 -3.0238123e-19)
(-0.38390257 0.093988373 1.0079472e-19)
(-0.38108214 0.060490091 3.897459e-19)
(-0.36758754 0.021298405 -9.3939878e-19)
(-0.34068069 -0.023248208 -5.6075651e-19)
(-0.29808712 -0.071732322 -3.664891e-19)
(-0.23854381 -0.12156478 1.1600354e-18)
(-0.16209206 -0.1692341 7.5440121e-19)
(-0.07014869 -0.21073219 8.8774277e-19)
(0.034092105 -0.24236309 1.5540063e-18)
(0.14534517 -0.26251215 -5.39561e-19)
(0.25826217 -0.27284316 1.1347901e-19)
(0.37020396 -0.27633571 9.0011651e-19)
(0.47998188 -0.27294217 2.6353355e-18)
(0.58383598 -0.25851667 1.7307429e-18)
(0.67407023 -0.23030041 6.7844614e-19)
(0.74592009 -0.1920821 1.9696952e-18)
(0.79886251 -0.15006166 -1.3321681e-18)
(0.83651546 -0.11109972 1.4065158e-19)
(0.86392386 -0.079177756 2.1365887e-18)
(0.88568656 -0.055320987 1.4417287e-18)
(0.90411083 -0.038462775 6.5295361e-20)
(0.92079536 -0.027334206 -2.2994501e-18)
(0.93522383 -0.0201263 2.4542849e-19)
(0.94776001 -0.016038776 -3.4686425e-19)
(-0.00069725825 0.0031711332 -6.701088e-20)
(-0.0021570617 0.0097760598 3.4387898e-20)
(-0.0037690976 0.017019137 -4.6477103e-20)
(-0.0055498523 0.024956627 -2.6433101e-20)
(-0.007516658 0.033645124 7.3826996e-20)
(-0.0096882994 0.043140556 6.8989585e-20)
(-0.012084754 0.053496093 -7.0886143e-20)
(-0.014727062 0.064759737 8.5430085e-21)
(-0.017637182 0.07697111 1.9821798e-21)
(-0.020837808 0.09015749 1.4124865e-19)
(-0.024352115 0.10432891 -1.5541473e-20)
(-0.028203455 0.11947224 -2.8675907e-19)
(-0.032414999 0.13554431 2.3031413e-19)
(-0.037009356 0.15246403 -7.9849493e-21)
(-0.04200818 0.17010393 -1.5624108e-19)
(-0.047431838 0.18828157 -1.3552054e-20)
(-0.053299176 0.2067518 3.478739e-20)
(-0.059627516 0.22520149 1.5844228e-19)
(-0.066432948 0.24324854 -2.9379227e-19)
(-0.073731031 0.26044834 5.2357028e-19)
(-0.081538137 0.27631037 -1.1462954e-19)
(-0.089872973 0.29032792 8.5518091e-20)
(-0.098758645 0.302022 -7.1510196e-20)
(-0.10822444 0.31099694 3.0466453e-21)
(-0.11830641 0.31699975 -4.3825126e-19)
(-0.12904612 0.31996834 -4.4405573e-19)
(-0.14048772 0.3200495 8.9262243e-19)
(-0.15266724 0.31757076 1.507785e-19)
(-0.16559266 0.31295356 -5.3179912e-19)
(-0.17927331 0.30657567 -1.9123021e-19)
(-0.19368775 0.29874405 -4.3838208e-19)
(-0.20875553 0.28970014 4.9975206e-19)
(-0.22437143 0.27957886 2.2109177e-19)
(-0.2403757 0.26841107 -5.1842378e-19)
(-0.256545 0.25613967 2.2000128e-19)
(-0.27257116 0.24261673 1.0636988e-19)
(-0.28803147 0.22758239 -3.1243932e-19)
(-0.30234644 0.21063258 -8.2727814e-19)
(-0.31472107 0.19118417 -2.5444396e-19)
(-0.32406965 0.16845512 1.7042746e-19)
(-0.32893229 0.14148362 4.0832638e-19)
(-0.32741326 0.10922739 4.2596687e-19)
(-0.31720128 0.070788042 4.7434859e-19)
(-0.29575065 0.025773884 9.9950372e-19)
(-0.2606933 -0.02527739 -2.9257378e-20)
(-0.21039297 -0.080571999 4.2316832e-19)
(-0.14433051 -0.13708636 -2.325237e-18)
(-0.063006779 -0.19089507 -6.4687139e-19)
(0.032187372 -0.23740757 -7.4061485e-19)
(0.13765442 -0.27207518 -2.0627401e-18)
(0.24721808 -0.29288798 2.4218251e-18)
(0.35539691 -0.30239368 -5.4136438e-19)
(0.46038932 -0.30479192 -1.7418155e-18)
(0.56138587 -0.30010819 -2.1347388e-18)
(0.65376495 -0.28322658 -2.6838024e-19)
(0.73002649 -0.25101131 6.8253813e-19)
(0.78689996 -0.20830037 1.0929768e-18)
(0.82632968 -0.16233509 -4.6258177e-19)
(0.85382619 -0.12054111 8.2238972e-19)
(0.87489742 -0.086806292 -6.6973259e-19)
(0.89338722 -0.06176496 -2.2600321e-19)
(0.91029678 -0.043982591 -6.6183497e-19)
(0.92622842 -0.032008018 2.8723561e-18)
(0.93994331 -0.023916615 9.6787835e-20)
(0.95178539 -0.018958876 1.1344425e-18)
(-0.00082447992 0.0032642436 6.2783415e-20)
(-0.0025465264 0.010070934 1.2783713e-20)
(-0.0044416641 0.017544807 -1.4053923e-20)
(-0.0065271369 0.025747087 -6.9114839e-20)
(-0.008820923 0.034740066 8.2948521e-20)
(-0.01134194 0.044586455 -7.0497879e-20)
(-0.014109718 0.055347351 -3.3727717e-20)
(-0.017144142 0.067079998 1.8116684e-21)
(-0.020465099 0.0798347 2.8558616e-20)
(-0.024092052 0.09365097 1.6272623e-19)
(-0.028043523 0.10855266 -2.7387885e-19)
(-0.032336487 0.12454199 3.3003004e-19)
(-0.036985683 0.14159235 -9.7263481e-20)
(-0.042002891 0.1596399 -1.3256846e-19)
(-0.047396206 0.17857412 2.0437761e-19)
(-0.053169403 0.19822773 -4.0538559e-19)
(-0.059321516 0.21836675 4.9499384e-19)
(-0.065846752 0.2386822 7.85299e-21)
(-0.072735032 0.25878546 2.8918054e-19)
(-0.079973257 0.27821025 -1.1616261e-18)
(-0.087547583 0.29642494 2.8510814e-19)
(-0.095446638 0.31285893 1.1971671e-18)
(-0.10366554 0.32694574 -5.7501362e-19)
(-0.11221006 0.33818243 -6.9745198e-19)
(-0.12109966 0.34619902 1.7833913e-19)
(-0.13036765 0.35082367 9.4889065e-19)
(-0.14005695 0.35212195 -1.4607075e-18)
(-0.15021096 0.35038762 1.64407e-18)
(-0.16085537 0.34607089 -1.312051e-18)
(-0.17198528 0.33964821 2.543995e-19)
(-0.18358122 0.33150362 -4.4201451e-19)
(-0.19557644 0.32192389 -6.366702e-19)
(-0.20784314 0.31108871 2.5277636e-19)
(-0.22020409 0.2990624 6.5581058e-20)
(-0.23241286 0.28579538 9.5794527e-19)
(-0.24412756 0.27112547 -1.8703471e-19)
(-0.25488338 0.25475906 4.8713099e-19)
(-0.26404726 0.23623427 -4.1845407e-19)
(-0.27075691 0.21488102 2.474087e-19)
(-0.27384777 0.18979837 1.6444437e-19)
(-0.27178323 0.15988268 1.4288703e-19)
(-0.26262858 0.12395737 1.414801e-19)
(-0.24413707 0.081055377 -8.7167504e-19)
(-0.21402395 0.030854611 -6.9362503e-19)
(-0.17044677 -0.02586416 1.9412309e-19)
(-0.11250297 -0.086970106 -1.2664845e-19)
(-0.040343941 -0.14918131 5.2084682e-19)
(0.045324316 -0.20839347 -1.0466884e-18)
(0.14293957 -0.25940986 -1.2253466e-18)
(0.24783441 -0.29664199 -3.5826381e-19)
(0.35313903 -0.31775342 -9.388792e-19)
(0.45431659 -0.32625288 3.0001818e-20)
(0.55113695 -0.32750618 4.5343831e-19)
(0.64258928 -0.32133001 2.2054986e-18)
(0.72249408 -0.30185245 -1.099721e-18)
(0.78364846 -0.26589891 4.4432429e-19)
(0.82496129 -0.21955243 -1.271965e-18)
(0.85131835 -0.17099239 2.1184807e-18)
(0.86982253 -0.12768909 -1.1982857e-18)
(0.88576358 -0.093146139 4.1035407e-19)
(0.90169795 -0.067514884 -2.800812e-21)
(0.91721544 -0.049088314 3.1481036e-19)
(0.93214484 -0.036371382 1.1717064e-18)
(0.94480231 -0.02744579 -2.1965319e-18)
(0.95572258 -0.021656358 2.230958e-18)
(-0.00092902705 0.003243702 -1.3993695e-19)
(-0.0028670144 0.01001662 -7.3125351e-20)
(-0.0049955796 0.017464358 1.1486409e-19)
(-0.0073326788 0.025651563 -3.0254158e-21)
(-0.009896944 0.034644765 -1.0401776e-19)
(-0.012707543 0.044512208 -5.4447354e-20)
(-0.0157838 0.055321964 1.1492742e-19)
(-0.019144842 0.067140005 -1.8899694e-20)
(-0.022809056 0.080027416 2.6709889e-19)
(-0.026793469 0.094036885 -5.2198482e-20)
(-0.03111298 0.10920812 -1.3425118e-21)
(-0.03577947 0.12556213 1.9338482e-19)
(-0.040800792 0.14309407 -6.2278533e-19)
(-0.04617967 0.16176474 2.9193991e-19)
(-0.051912576 0.18149049 5.2681486e-19)
(-0.057988678 0.20213203 -5.6624375e-19)
(-0.064389015 0.22348246 7.041364e-20)
(-0.071086127 0.24525592 -4.0467775e-19)
(-0.07804438 0.26707867 -3.0464385e-19)
(-0.085221455 0.28848552 9.729532e-19)
(-0.092571046 0.30892554 -7.4275678e-19)
(-0.1000475 0.32778198 9.9544697e-19)
(-0.10761158 0.34441062 -1.1920924e-19)
(-0.11523734 0.35819848 4.9646765e-19)
(-0.12291829 0.36863975 -1.100159e-18)
(-0.13067038 0.37541703 2.6551046e-19)
(-0.13852931 0.37846587 6.820478e-19)
(-0.14654002 0.37799442 -1.674958e-18)
(-0.15473881 0.37443534 7.3844178e-19)
(-0.16313243 0.36832823 8.0597455e-19)
(-0.17168979 0.36017193 -6.7448103e-19)
(-0.18033432 0.3503312 -9.1131962e-20)
(-0.18893888 0.33904072 4.6357683e-19)
(-0.19730529 0.32640413 -2.5913019e-19)
(-0.20515428 0.31238531 4.0254614e-19)
(-0.21210444 0.29681444 -1.4305503e-18)
(-0.21763976 0.27937126 7.605534e-19)
(-0.22106344 0.25954396 4.6340129e-19)
(-0.22143738 0.23658374 9.6284133e-19)
(-0.21751778 0.20948545 1.3193061e-19)
(-0.20770938 0.17702794 -1.0477016e-18)
(-0.19008723 0.13793916 4.2496042e-19)
(-0.16255668 0.091235262 6.3113758e-19)
(-0.12320326 0.036713619 9.6463701e-20)
(-0.070780635 -0.024588068 -6.2724284e-19)
(-0.0050802253 -0.090270119 -5.5423023e-19)
(0.073196685 -0.15699961 1.695364e-18)
(0.16305902 -0.2205951 9.0284484e-19)
(0.26185492 -0.2752261 1.9727068e-18)
(0.36353367 -0.3143918 6.9662416e-19)
(0.46145904 -0.33566693 2.720375e-19)
(0.55338306 -0.34357982 2.0184294e-18)
(0.64085302 -0.34410499 7.8895962e-19)
(0.72189422 -0.33638664 -2.6491095e-18)
(0.78824672 -0.31414851 2.108917e-18)
(0.83346588 -0.27486762 -1.9145414e-18)
(0.85938493 -0.22615576 9.0790155e-19)
(0.87383893 -0.17639423 -4.3059581e-18)
(0.88495965 -0.13286044 -2.1130837e-18)
(0.8969369 -0.098351834 8.3827061e-19)
(0.91074754 -0.072571142 1.2861048e-18)
(0.92474792 -0.053702975 2.1181977e-18)
(0.93835488 -0.040342056 3.6948582e-19)
(0.949677 -0.030663945 2.8495432e-19)
(0.95954145 -0.024118524 -2.9821242e-18)
(-0.001001302 0.0031145879 -2.5323699e-21)
(-0.0030890746 0.0096278966 1.3681407e-19)
(-0.0053798345 0.016802106 -1.6137169e-19)
(-0.0078921008 0.024703453 -7.7706412e-20)
(-0.010645064 0.033400872 1.5576366e-19)
(-0.013658183 0.04296639 5.0501056e-20)
(-0.016950769 0.053473453 -2.4522104e-19)
(-0.020541569 0.064995437 2.6428694e-19)
(-0.024448091 0.077603313 5.5854589e-20)
(-0.028685824 0.091362655 2.2269433e-19)
(-0.033267278 0.10632963 -5.9300469e-19)
(-0.038200848 0.12254579 -7.24518e-21)
(-0.043489512 0.14003146 5.3657131e-19)
(-0.049129367 0.15877747 -5.7886595e-19)
(-0.055108078 0.17873506 4.1690187e-19)
(-0.061403323 0.19980409 1.5570284e-19)
(-0.067981411 0.22181961 -3.2811915e-19)
(-0.074796331 0.24453785 2.9909403e-19)
(-0.081789572 0.26762305 4.0286902e-19)
(-0.088891085 0.2906378 -8.6848491e-21)
(-0.096022224 0.31304069 -6.5328635e-19)
(-0.10310053 0.33419692 4.1045615e-19)
(-0.11004729 0.35340719 -2.3262291e-19)
(-0.11679652 0.36995987 -1.1445844e-18)
(-0.12330462 0.38320703 -3.8943977e-19)
(-0.12955775 0.39265686 1.0760107e-18)
(-0.13557281 0.39806314 -1.0933604e-19)
(-0.14138895 0.39948216 1.2550106e-18)
(-0.14704844 0.39726413 -7.5428592e-19)
(-0.15256973 0.39195803 4.0475974e-19)
(-0.157925 0.3841558 -5.9556965e-19)
(-0.16303111 0.3743515 -1.4752661e-19)
(-0.16774328 0.36287185 7.5273689e-19)
(-0.17183765 0.34987168 -7.876903e-19)
(-0.17499922 0.33534233 -1.1741381e-18)
(-0.17680289 0.31911528 1.1641397e-19)
(-0.17667706 0.30084965 1.3069811e-18)
(-0.17385477 0.27999188 -1.698156e-18)
(-0.16731759 0.2557305 3.7128335e-19)
(-0.15574947 0.2269804 -8.0641299e-19)
(-0.13752522 0.19243965 1.2713974e-19)
(-0.11078953 0.15078886 -1.290398e-18)
(-0.073683636 0.10107773 -6.2443611e-19)
(-0.024731389 0.04325353 -7.8752089e-19)
(0.036732424 -0.021410608 3.2041363e-18)
(0.11028852 -0.090341767 1.0583168e-18)
(0.19467346 -0.16023232 -1.4171313e-18)
(0.28801741 -0.22682754 1.1635147e-18)
(0.3858517 -0.28379803 9.83049e-19)
(0.48127787 -0.32410795 -1.1165953e-18)
(0.56916144 -0.34573156 -5.8645077e-19)
(0.65049516 -0.35403126 -1.3748058e-18)
(0.72808969 -0.35459808 -6.6220305e-19)
(0.79790734 -0.34547984 2.2517902e-18)
(0.84948629 -0.32056611 1.2532767e-18)
(0.87819634 -0.27870652 2.0072472e-19)
(0.88972661 -0.22859241 -5.4229364e-21)
(0.89417935 -0.17906384 1.0634464e-18)
(0.899686 -0.1363689 -1.5086272e-18)
(0.90860785 -0.1025173 -1.9106055e-18)
(0.92042799 -0.076894437 -5.2516435e-19)
(0.93266276 -0.057748321 -3.9262323e-18)
(0.94467734 -0.04385552 -3.066846e-18)
(0.95450778 -0.033531555 -7.7418298e-19)
(0.96328912 -0.026323523 -4.0909043e-19)
(-0.0010342563 0.0028893689 8.5996242e-20)
(-0.0031909598 0.0089421953 5.7764949e-20)
(-0.0055565858 0.015621609 -1.2018537e-19)
(-0.0081499504 0.022993399 2.0609737e-19)
(-0.010990574 0.031126748 5.1621255e-20)
(-0.014098123 0.040095255 -2.2138496e-19)
(-0.017491965 0.049975509 1.1331143e-21)
(-0.021190745 0.060846115 -1.3276623e-19)
(-0.025211623 0.07278591 3.9682728e-20)