/*--------------------------------*- C++ -*----------------------------------*\
  =========                 |
  \\      /  F ield         | OpenFOAM: The Open Source CFD Toolbox
   \\    /   O peration     | Website:  https://openfoam.org
    \\  /    A nd           | Version:  13
     \\/     M anipulation  |
\*---------------------------------------------------------------------------*/
FoamFile
{
    format      ascii;
    class       volScalarField;
    location    "19.195621";
    object      omega;
}
// * * * * * * * * * * * * * * * * * * * * * * * * * * * * * * * * * * * * * //

dimensions      [0 0 -1 0 0 0 0];

internalField   nonuniform List<scalar> 
17140
(
4528389.9
731657.47
224626.08
95288.926
48486.922
27616.588
16959.56
10983.924
7398.1531
5133.902
3646.5736
2638.5555
1937.9162
1440.7327
1081.7922
818.86751
623.87744
477.71816
367.1361
282.77987
217.95533
167.81264
128.80587
98.328773
74.465901
55.817902
41.368918
30.369723
22.223218
16.387886
12.337109
9.5839776
7.7271447
6.4594764
5.5643074
4.9299484
4.4955537
4.2043212
4.0089333
3.8759097
3.7839588
3.7205524
3.6771605
3.647406
3.6279424
3.6175397
3.6139175
3.6157068
3.6253929
3.6428543
3.6669322
3.6965971
3.7299925
3.7640158
3.7967809
3.8245275
3.8409375
3.8468684
3.8255053
3.8138533
3.8227024
3.8550586
3.8802437
3.8881853
3.6733291
4528420.9
731663.09
224628.15
95290.01
48487.592
27617.054
16959.914
10984.213
7398.4029
5134.1288
3646.788
2638.7645
1938.1249
1440.9447
1082.0101
819.09293
624.11135
477.9608
367.387
283.03781
218.2183
168.07774
129.06922
98.585373
74.709575
56.041408
41.564577
30.530837
22.346106
16.473349
12.389911
9.6105761
7.7331601
6.459028
5.5638028
4.9267502
4.4884797
4.1940636
3.9974238
3.8649522
3.7749688
3.7142293
3.6735266
3.6465476
3.6307813
3.6243362
3.6244463
3.6334367
3.6519066
3.678825
3.7138226
3.756263
3.8049192
3.8583637
3.9154781
3.9735818
4.0309212
4.0861764
4.1358819
4.1829649
4.2294384
4.268075
4.284297
4.2800575
4.0360826
4528451.2
731668.08
224629.71
95290.702
48487.982
27617.317
16960.122
10984.397
7398.5821
5134.3129
3646.9834
2638.9758
1938.355
1441.1958
1082.2835
819.38941
624.43095
478.30282
367.74992
283.41921
218.61466
168.48426
129.47957
98.991376
75.100922
56.405728
41.888338
30.801704
22.556543
16.623493
12.487147
9.6660033
7.7580196
6.4640668
5.5643525
4.926947
4.4845668
4.1859938
3.9876116
3.8558509
3.7684806
3.711098
3.6738913
3.6513423
3.6410114
3.6393195
3.6470089
3.6651536
3.6930876
3.7297996
3.7748835
3.8278073
3.8877061
3.9536504
4.0244424
4.0976569
4.1719047
4.2450011
4.3158026
4.3832033
4.4512921
4.5239856
4.5779027
4.598631
4.3781195
4528483
731673.27
224631.34
95291.438
48488.404
27617.612
16960.366
10984.624
7398.8094
5134.5518
3647.2412
2639.2573
1938.664
1441.5348
1082.6542
819.79288
624.8673
478.77131
368.24878
283.94544
219.16384
169.05022
130.05394
99.563118
75.655842
56.926421
42.355331
31.196708
22.867679
16.849768
12.638319
9.7575997
7.8056291
6.4795289
5.5690552
4.9307222
4.4842801
4.181384
3.9805425
3.8491927
3.7643129
3.7103777
3.6778331
3.6612643
3.6560458
3.6608557
3.6772849
3.7046519
3.741596
3.7865768
3.8387453
3.897425
3.9618724
4.0312418
4.1042376
4.1786408
4.252594
4.3233732
4.3918289
4.4568022
4.5255978
4.605532
4.6679674
4.6903972
4.437123
4528516.9
731678.79
224633.07
95292.218
48488.86
27617.943
16960.649
10984.895
7399.088
5134.8494
3647.5657
2639.6143
1939.0576
1441.9682
1083.1297
820.31159
625.42966
479.37658
368.89499
284.62911
219.87968
169.79068
130.80866
100.31818
76.393082
57.623203
42.985821
31.735928
23.298369
17.168793
12.857318
9.8968881
7.8865624
6.5201457
5.5838024
4.9362713
4.4872902
4.1805361
3.9766689
3.8447171
3.761187
3.710888
3.6839205
3.6733322
3.6733024
3.6862209
3.7113037
3.7472171
3.7917633
3.8426228
3.8983818
3.9582822
4.0218329
4.0884303
4.1566918
4.2244981
4.2899011
4.3505305
4.409546
4.4673569
4.5319955
4.6084514
4.6768434
4.6328152
4.268236
4528552.1
731684.49
224634.85
95293.037
48489.352
27618.31
16960.973
10985.212
7399.4189
5135.2068
3647.9582
2640.0484
1939.538
1442.4987
1083.7129
820.94943
626.12276
480.12442
369.69558
285.47868
220.77228
170.71761
131.75774
101.27279
77.331167
58.516816
43.802379
32.442859
23.871578
17.601339
13.161536
10.097605
8.0112583
6.5926508
5.6225833
4.9550289
4.4954634
4.182616
3.9747063
3.8405711
3.7579544
3.7117126
3.6903836
3.6845392
3.6915578
3.7124901
3.7456626
3.7890054
3.8394566
3.8938818
3.9503952
4.0083868
4.067986
4.128989
4.1893185
4.2469219
4.3002109
4.3487604
4.3971755
4.4491647
4.511825
4.5853683
4.6331772
4.4973328
3.9226242
4528588.7
731690.37
224636.68
95293.893
48489.878
27618.711
16961.334
10985.572
7399.7993
5135.6209
3648.4155
2640.5559
1940.1014
1443.1222
1084.4
821.70248
626.94305
481.01187
370.64848
286.49336
221.84253
171.83404
132.90683
102.43567
78.482346
59.623328
44.824811
33.340279
24.611372
18.170429
13.570849
10.375368
8.1909219
6.7040121
5.6885971
4.9920135
4.5143193
4.190092
3.974994
3.837233
3.7549584
3.7119895
3.6953829
3.6942374
3.708644
3.7371704
3.7776106
3.8271695
3.8819779
3.9381748
3.9935428
4.0480182
4.1026711
4.1566376
4.207685
4.2543607
4.2948759
4.3322541
4.3725488
4.4253374
4.4971674
4.575396
4.5740491
4.3254412
3.3759359
4528626.6
731696.47
224638.58
95294.788
48490.435
27619.142
16961.729
10985.97
7400.2219
5136.0834
3648.928
2641.1261
1940.7357
1443.8257
1085.177
822.55614
627.87544
482.02371
371.73879
287.65904
223.07775
173.12941
134.24828
103.803
79.84753
60.949215
46.065649
34.446473
25.540199
18.899832
14.10722
10.748224
8.439046
6.8635774
5.7879803
5.0514805
4.5475962
4.2062206
3.9801299
3.8361859
3.7525118
3.711493
3.697799
3.7016689
3.7228533
3.7582616
3.8050453
3.859705
3.9176462
3.9743646
4.0275092
4.0781159
4.1269681
4.1729401
4.2145928
4.2512199
4.2802423
4.3099606
4.3482255
4.413807
4.5062062
4.5820193
4.4973466
4.0712254
2.6303542
4528664.7
731702.75
224640.56
95295.72
48491.015
27619.596
16962.147
10986.393
7400.6743
5136.5797
3649.4791
2641.7407
1941.4207
1444.5871
1086.0199
823.48475
628.89287
483.13182
372.93783
288.94709
224.45012
174.57766
135.75891
105.35575
81.413291
62.488139
47.526912
35.772294
26.676667
19.812885
14.794578
11.237246
8.7722541
7.0835721
5.9294529
5.1397238
4.6000435
4.23467
3.9927769
3.8391647
3.7512426
3.7102663
3.6977529
3.705997
3.732898
3.7742373
3.8264027
3.885198
3.9453545
4.0017346
4.0523117
4.0987179
4.1409373
4.1789591
4.2123807
4.2399109
4.2614474
4.2899898
4.3379686
4.4313188
4.5598601
4.597772
4.3834546
3.5654069
1.8312534
4528704.9
731709.3
224642.64
95296.693
48491.619
27620.067
16962.579
10986.83
7401.1405
5137.0912
3650.0476
2642.3754
1942.1292
1445.3764
1086.896
824.45279
629.95736
484.29611
374.20384
290.31481
225.91683
176.13696
137.39921
107.05837
83.149957
64.218478
49.197179
37.318075
28.032808
20.930703
15.658278
11.867004
9.2112086
7.3799203
6.1247722
5.2653479
4.6780304
4.2801864
4.0164167
3.8487216
3.7526539
3.708632
3.6959521
3.7066896
3.7379579
3.7840197
3.8405474
3.9026176
3.9642484
4.0197174
4.0678041
4.1095042
4.1453057
4.1766572
4.2031399
4.2237248
4.2444611
4.2819897
4.357085
4.5033583
4.6597612
4.5937124
4.1350111
2.5957693
1.2371313
4528746.8
731716.13
224644.81
95297.713
48492.249
27620.551
16963.015
10987.266
7401.6022
5137.5963
3650.6083
2643.0016
1942.8294
1446.158
1087.7659
825.41757
631.02281
485.46733
375.48483
291.708
227.42233
177.75146
139.1145
108.85913
85.011037
66.101693
51.048907
39.070116
29.610302
22.269041
16.723374
12.665348
9.7813615
7.7733025
6.3897174
5.440098
4.7902745
4.3492558
4.0558524
3.8683709
3.7594281
3.7080504
3.6926778
3.7046478
3.7379135
3.7870216
3.8467981
3.9113131
3.97373
4.0281017
4.0737218
4.1109361
4.1419764
4.1678173
4.1892866
4.207965
4.2387706
4.3010663
4.4360742
4.6576608
4.7363437
4.4824604
3.498764
1.6616677
0.79748449
4528789.6
731723.14
224647.05
95298.751
48492.881
27621.026
16963.435
10987.679
7402.0369
5138.0695
3651.1328
2643.5874
1943.4852
1446.892
1088.5858
826.33081
632.03667
486.58876
376.72017
293.06256
228.8997
179.35245
140.83557
110.6902
86.932415
68.080435
53.035239
40.996184
31.395072
23.83298
18.0107
13.66161
10.512949
8.2900973
6.7452739
5.6799517
4.9487657
4.4508651
4.1178158
3.9031002
3.7753439
3.7112947
3.6902586
3.7000048
3.7337546
3.7844808
3.8456655
3.9112764
3.9737716
4.0274382
4.0710534
4.105082
4.1321329
4.1548702
4.1752048
4.2032384
4.2618529
4.3803744
4.6263406
4.8732348
4.7547821
4.1540364
2.2731618
1.0424292
0.54156724
4528834.7
731730.48
224649.36
95299.806
48493.506
27621.48
16963.824
10988.054
7402.424
5138.487
3651.5933
2644.1009
1944.0608
1447.538
1089.3105
827.14242
632.94375
487.59999
377.84426
294.30789
230.27375
180.86084
142.48058
112.46856
88.832212
70.077075
55.08692
43.040543
33.350472
25.609075
19.529708
14.881907
11.439201
8.9626447
7.2188227
6.0064946
5.1700084
4.5975296
4.2117839
3.9599907
3.8058772
3.7231423
3.6924296
3.6962471
3.7263437
3.7762631
3.8379757
3.9040985
3.9662272
4.0190288
4.0605467
4.0925048
4.1186393
4.1423788
4.1719469
4.2309774
4.3530512
4.5876969
4.9759942
4.9800294
4.555163
3.0636573
1.3056048
0.64369182
0.39051754
4528880.1
731737.94
224651.71
95300.864
48494.114
27621.904
16964.17
10988.373
7402.7453
5138.8274
3651.9652
2644.5143
1944.5242
1448.0597
1089.8988
827.80622
633.69232
488.44336
378.79316
295.37355
231.46748
182.19328
143.96039
114.1004
90.61376
71.994871
57.111229
45.120236
35.410661
27.556202
21.268289
16.340189
12.591229
9.8277183
7.8448192
6.4484405
5.4766461
4.8067559
4.3512704
4.0494941
3.8594027
3.7511347
3.7035519
3.6981387
3.7205985
3.7663053
3.8257922
3.8905443
3.9519256
4.0041102
4.0450745
4.0778762
4.107432
4.1428243
4.2065293
4.340567
4.5967532
5.0357176
5.21347
4.9200558
3.8501692
1.6372381
0.76179384
0.4529546
0.3120819
4528926.9
731745.62
224654.11
95301.928
48494.701
27622.288
16964.463
10988.626
7402.9868
5139.0744
3652.2295
2644.805
1944.8495
1448.4273
1090.3168
828.28307
634.23767
489.06797
379.50909
296.1942
232.4074
183.26765
145.18406
115.48619
92.169803
73.720689
58.992434
47.122301
37.473536
29.593703
23.177762
18.025041
13.986946
10.920743
8.6631625
7.04242
5.8991777
5.10291
4.5556049
4.1872331
3.948658
3.8050277
3.7306082
3.7101386
3.7238969
3.7615335
3.8162468
3.8780184
3.9381421
3.989916
4.0323766
4.0707793
4.1151926
4.1908441
4.3436548
4.6436202
5.1594079
5.5192693
5.2802773
4.367822
2.0397409
0.92801629
0.50553926
0.35433284
0.26812832
4528977.9
731753.82
224656.62
95303.003
48495.264
27622.631
16964.699
10988.807
7403.1412
5139.2188
3652.3749
2644.9598
1945.0209
1448.622
1090.5419
828.54656
634.54858
489.43688
379.94841
296.71841
233.0331
184.01337
146.06971
116.53184
93.393595
75.135445
60.600751
48.910046
39.402595
31.596613
25.159226
19.875913
15.610869
12.259637
9.7113203
7.8306678
6.4766004
5.5190064
4.8518886
4.3955066
4.092333
3.9012516
3.7923136
3.7460783
3.7453819
3.7713462
3.8205189
3.8789189
3.9372216
3.9896473
4.038812
4.0963334
4.1874849
4.3719865
4.7377742
5.3746178
5.9014181
5.6807515
4.8258186
2.5031853
1.1094722
0.58384874
0.37697679
0.29658798
0.23389922
4529031.7
731762.32
224659.19
95304.088
48495.809
27622.934
16964.878
10988.916
7403.2082
5139.26
3652.4004
2644.9768
1945.0351
1448.639
1090.5672
828.58661
634.61113
489.53139
380.08656
296.91452
233.30451
184.38051
146.55559
117.16142
94.192919
76.128992
61.807342
50.336911
41.037706
33.400511
27.059771
21.771749
17.388712
13.82279
11.004379
8.8506919
7.2530235
6.0970109
5.2768256
4.7056232
4.3172898
4.0633519
3.9085401
3.8275047
3.8033852
3.8159774
3.8541879
3.9097068
3.9683173
4.02861
4.1019396
4.216022
4.4358446
4.9020631
5.7271419
6.3982946
6.1684044
5.2978878
2.9210853
1.292948
0.66032757
0.41819358
0.31244366
0.26099297
0.21090487
4529085.9
731770.99
224661.83
95305.183
48496.335
27623.201
16965.005
10988.961
7403.1968
5139.2081
3652.3172
2644.8682
1944.9056
1448.4924
1090.4075
828.41844
634.43998
489.36433
379.93263
296.78524
233.21451
184.34834
146.60497
117.32153
94.496802
76.611705
62.500991
51.266309
42.21598
34.819909
28.682559
23.524945
19.168778
15.514682
12.510091
10.112923
8.2641613
6.8821722
5.8758321
5.1593653
4.6610258
4.3251878
4.1103202
3.9860094
3.9301991
3.9295106
3.9553739
4.0080404
4.0731614
4.1598188
4.3054377
4.5755437
5.1526449
6.2907045
7.0204138
6.7560415
5.7938331
3.2574198
1.4527359
0.73820688
0.45472744
0.33839795
0.27180087
0.23113637
0.18778734
4529139.6
731779.82
224664.53
95306.281
48496.847
27623.44
16965.094
10988.954
7403.1223
5139.0808
3652.1452
2644.6564
1944.6571
1448.2094
1090.0923
828.07353
634.06896
488.97209
379.52593
296.37323
232.80921
183.96505
146.26244
117.04234
94.308435
76.547621
62.603718
51.583868
42.790415
35.674447
29.814239
24.900645
20.718836
17.137657
14.091618
11.553423
9.5023585
7.9012473
6.6918819
5.8046946
5.1712896
4.73275
4.4422818
4.2644911
4.1738567
4.1590658
4.1779569
4.2268485
4.3186169
4.4939054
4.8566717
5.5689326
7.109795
7.7628968
7.4393174
6.3101593
3.4984897
1.5842014
0.80827838
0.49444131
0.35879497
0.29280031
0.24141656
0.20884521
0.17421111
4529196.7
731789.05
224667.32
95307.414
48497.365
27623.669
16965.16
10988.916
7403.0077
5138.9042
3651.9141
2644.3747
1944.3266
1447.8309
1089.6661
827.60027
633.54972
488.409
378.92267
295.73557
232.14563
183.28742
145.58665
116.38885
93.702613
76.019418
62.18576
51.311625
42.705285
35.829681
30.261533
25.664045
21.770447
18.415258
15.500995
12.984978
10.856579
9.1107389
7.7286739
6.6727675
5.8930512
5.3374309
4.959247
4.7207485
4.5949392
4.5702031
4.588648
4.659937
4.8592062
5.335521
6.3383807
8.226105
8.6146045
8.2062728
6.8427997
3.6337015
1.6833029
0.87188715
0.53273629
0.38343838
0.31100862
0.25933722
0.21737738
0.1890042
0.15770473
4529258.1
731798.77
224670.24
95308.592
48497.9
27623.899
16965.221
10988.866
7402.8758
5138.7046
3651.654
2644.0573
1943.9526
1447.4
1089.1771
827.05174
632.9405
487.73848
378.19127
294.94528
231.30061
182.39477
144.65716
115.43791
92.750982
75.093751
61.3187
50.541216
42.073022
35.374009
30.017916
25.6704
22.083395
19.051342
16.420226
14.102927
12.073395
10.331021
8.8809772
7.7183612
6.8227963
6.1624343
5.7016155
5.4078894
5.2593094
5.2366271
5.2903251
5.5075667
6.1265682
7.5884195
9.4493317
9.5517342
9.0236465
7.3634464
3.6828455
1.7559159
0.93050577
0.57217414
0.40955251
0.32934113
0.27031093
0.22898365
0.19497827
0.17353972
0.14851096
4529319.5
731808.67
224673.23
95309.807
48498.452
27624.14
16965.287
10988.816
7402.7415
5138.5
3651.3861
2643.7289
1943.5639
1446.9496
1088.6628
826.47066
632.28947
487.0145
377.39184
294.06886
230.34721
181.3666
143.5595
114.28008
91.547468
73.865398
60.093935
49.357311
40.977818
34.414309
29.2345
25.095714
21.731555
18.943844
16.597241
14.579706
12.811857
11.244776
9.8857741
8.7455454
7.828023
7.127044
6.628782
6.3174613
6.1888606
6.2360982
6.5005632
7.3040484
9.3037235
10.864123
10.640773
9.8704728
7.7375531
3.6956409
1.8198459
0.98721344
0.61470432
0.43822085
0.34982515
0.28399441
0.23923216
0.20680779
0.17992256
0.15988612
0.13720725
4529381.2
731818.75
224676.31
95311.059
48499.026
27624.394
16965.361
10988.774
7402.6119
5138.2983
3651.1192
2643.3991
1943.171
1446.4913
1088.1359
825.87112
631.61294
486.25651
376.54809
293.13555
229.32148
180.24705
142.34693
112.97833
90.164514
72.414653
58.595706
47.840342
39.472888
32.964359
27.896906
23.933143
20.797955
18.265277
16.163013
14.37846
12.848647
11.541575
10.412329
9.4397326
8.6311695
8.0024386
7.5689319
7.3473412
7.4071885
7.8073206
8.90533
11.341836
12.25842
11.910768
10.74021
7.8652419
3.7980353
1.8992686
1.0487567
0.66007131
0.47214567
0.37270848
0.29942396
0.25074675
0.21578344
0.18780515
0.16351223
0.14829931
0.12930156
4529447.3
731829.4
224679.53
95312.358
48499.616
27624.65
16965.428
10988.717
7402.4623
5138.0716
3650.8228
2643.0357
1942.7404
1445.9918
1087.5644
825.22379
630.88535
485.44382
375.64526
292.13761
228.22379
179.04573
141.03931
111.56366
88.644899
70.795943
56.888202
46.05869
37.638104
31.106595
26.05915
22.174481
19.188545
16.880361
15.064676
13.594423
12.345245
11.269497
10.349619
9.6031412
9.0123405
8.5984357
8.439227
8.5939323
9.2735816
10.9914
13.238212
13.603937
13.108189
11.525389
7.8922286
3.8794458
1.9810085
1.1137121
0.71000563
0.50964947
0.39862746
0.31545054
0.26358745
0.22490925
0.19509852
0.17209691
0.1532218
0.13879115
0.12265017
4529517.1
731840.53
224682.89
95313.721
48500.237
27624.921
16965.501
10988.662
7402.3114
5137.841
3650.5201
2642.6636
1942.2987
1445.4784
1086.9759
824.5558
630.13279
484.60117
374.70684
291.09787
227.07762
177.78871
139.66818
110.07696
87.043555
69.084055
55.073594
44.153306
35.662207
29.088471
24.034364
20.179926
17.265205
15.075141
13.430542
12.186158
11.233559
10.479108
9.8811848
9.4281768
9.1865908
9.279948
9.7526758
10.838177
13.197027
15.001311
14.909221
14.208768
12.219204
7.9055761
3.9688071
2.07133
1.1859535
0.76470481
0.5524019
0.42683739
0.33486795
0.27791385
0.23582711
0.20324362
0.17970831
0.15978227
0.14250241
0.13068298
0.11607293
4529588.1
731851.94
224686.37
95315.135
48500.878
27625.197
16965.57
10988.595
7402.1439
5137.5901
3650.1941
2642.2656
1941.8289
1444.9351
1086.3562
823.85612
629.34915
483.72934
373.74256
290.03698
225.91638
176.52428
138.29898
108.60291
85.46647
67.40823
53.306396
42.30658
33.754844
27.145771
22.083899
18.254328
15.40115
13.313013
11.8147
10.763782
10.051349
9.6090368
9.4364918
9.5589113
10.050581
11.088236
12.771979
15.288501
16.605585
16.296063
15.271018
12.684508
8.0007083
4.1020673
2.1815086
1.2695134
0.82682156
0.6002203
0.45912439
0.35753493
0.29567314
0.2476387
0.21292271
0.18678916
0.16571862
0.14850068
0.13464629
0.1239619
0.11212233
4529661.3
731863.79
224689.97
95316.604
48501.551
27625.495
16965.655
10988.544
7401.993
5137.3584
3649.891
2641.8959
1941.3942
1444.4356
1085.7909
823.22357
628.64756
482.95688
372.89743
289.11756
224.92133
175.45271
137.1507
107.37877
84.168676
66.040466
51.87463
40.819289
32.229232
25.601133
20.545192
16.75386
13.979044
12.016509
10.701336
9.9164357
9.5680228
9.604231
10.075426
11.116035
12.789196
14.786246
17.134861
18.086591
17.660943
16.31302
13.097647
8.2001729
4.2997121
2.322499
1.3672486
0.89979015
0.654647
0.49515829
0.38476444
0.31558772
0.2617845
0.22316343
0.19524943
0.17205146
0.15488908
0.14009314
0.12784057
0.11842992
0.10763491
4529737.4
731876.08
224693.74
95318.168
48502.31
27625.884
16965.846
10988.614
7401.9818
5137.2868
3649.7706
2641.7329
1941.1921
1444.1959
1085.5141
822.90946
628.29541
482.56577
372.4664
288.64575
224.40807
174.89753
136.55354
106.74022
83.490226
65.324947
51.1267
40.046373
31.435989
24.811866
19.788613
16.068492
13.413978
11.63376
10.596259
10.178577
10.308974
11.061259
12.483016
14.507263
16.718257
18.835076
19.516075
18.956513
17.290995
13.512699
8.5024226
4.597598
2.5168608
1.483794
0.98353633
0.71390944
0.53526805
0.41598049
0.33890638
0.27817039
0.2363264
0.20477679
0.18034286
0.16107063
0.1454376
0.13226387
0.12154966
0.11345711
0.10466473
4529816
731888.79
224697.66
95319.839
48503.168
27626.382
16966.161
10988.829
7402.1389
5137.409
3649.8718
2641.8218
1941.2745
1444.2756
1085.5937
822.99068
628.3794
482.6531
372.55714
288.73951
224.50404
174.99454
136.65012
106.83482
83.58177
65.413774
51.215825
40.143248
31.555246
24.963809
19.999328
16.375832
13.873592
12.33651
11.648409
11.723575
12.521802
14.068323
16.251155
18.70088
20.627944
21.006051
20.283806
18.32413
14.053713
8.9588482
4.9767608
2.7326813
1.6083618
1.072088
0.77760674
0.58165404
0.45317417
0.36621198
0.29828828
0.25161202
0.21624388
0.18868647
0.16815847
0.15058061
0.13750034
0.12596579
0.11739709
0.10985936
0.10191273
4529897.8
731902.07
224701.74
95321.615
48504.119
27626.978
16966.589
10989.174
7402.4448
5137.7021
3650.1683
2642.1325
1941.6072
1444.6363
1085.9871
823.42058
628.84902
483.1651
373.1137
289.34233
225.15437
175.6932
137.39758
107.63134
84.427749
66.310428
52.166255
41.1541
32.63853
26.138857
21.295581
17.839556
15.576729
14.371601
14.128583
14.703593
16.126852
18.277524
20.77844
22.690272
22.650759
21.728297
19.367946
14.740395
9.5228461
5.3858667
2.9397384
1.7486202
1.1745493
0.85510267
0.6396658
0.49763042
0.39786647
0.32182884
0.26974289
0.22937343
0.19910546
0.17605074
0.15768171
0.14299025
0.13099169
0.12105667
0.11238236
0.10611442
0.099789964
4529983.7
731915.89
224706
95323.477
48505.127
27627.624
16967.068
10989.574
7402.8132
5138.0664
3650.5461
2642.536
1942.0455
1445.1168
1086.5161
824.00373
629.4914
483.8715
373.88868
290.19033
226.07974
176.70033
138.49104
108.81615
85.709857
67.697252
53.667986
42.784698
34.417702
28.096553
23.47325
20.294969
18.382925
17.613382
17.848961
18.912892
20.838475
23.206555
24.886543
24.535563
23.321378
20.466699
15.55054
10.159175
5.8128662
3.1726063
1.9078063
1.2934849
0.94328446
0.70515256
0.5453786
0.43249049
0.34916049
0.29127337
0.2455448
0.21160008
0.18580068
0.16516366
0.14927901
0.13551026
0.12522563
0.11591426
0.10966953
0.10378908
0.097970899
4530071.7
731930.1
224710.41
95325.385
48506.147
27628.262
16967.525
10989.943
7403.1425
5138.3843
3650.8709
2642.8805
1942.4197
1445.5289
1086.9737
824.51385
630.06118
484.50831
374.60032
290.98522
226.96715
177.69064
139.59605
110.04953
87.087808
69.238974
55.396544
44.72855
36.611882
30.584353
26.308196
23.5409
22.109213
21.881878
22.514506
24.038444
26.010808
27.280033
26.697029
25.084537
21.663162
16.468432
10.85713
6.2669072
3.4473631
2.0924924
1.4305847
1.0431329
0.77844938
0.60119235
0.47444623
0.38349488
0.3177219
0.26521777
0.22662665
0.19706193
0.17404399
0.15607127
0.1415066
0.12981201
0.12049175
0.11290676
0.10599857
0.10104385
0.096477037
4530163.2
731944.94
224714.96
95327.337
48507.169
27628.878
16967.944
10990.259
7403.4069
5138.6259
3651.1083
2643.1272
1942.6861
1445.8241
1087.3061
824.89218
630.49455
485.00678
375.17521
291.64945
227.73562
178.58068
140.62791
111.24701
88.478774
70.856425
57.279152
46.921573
39.167746
33.561658
29.767731
27.535682
26.666079
26.886527
27.811644
29.289516
29.800143
28.945701
26.917295
22.976169
17.453286
11.579289
6.7412953
3.7604888
2.3127534
1.5883301
1.1532904
0.86128302
0.66558233
0.52485666
0.42225121
0.34734586
0.28750522
0.2441213
0.21040686
0.18454809
0.16437073
0.14823228
0.1354997
0.12485346
0.1164046
0.10888844
0.10403566
0.099492029
0.095156941
4530257.7
731960.21
224719.66
95329.352
48508.219
27629.505
16968.363
10990.57
7403.6611
5138.8542
3651.3306
2643.3576
1942.9359
1446.1035
1087.625
825.26082
630.92425
485.51028
375.76724
292.34723
228.55947
179.55463
141.78047
112.61184
90.095433
72.770841
59.543711
49.593577
42.307357
37.223037
33.983465
32.290758
31.869345
32.222324
32.933387
32.540572
31.259894
28.742448
24.292198
18.41851
12.281354
7.245193
4.1299171
2.57326
1.7621093
1.2725957
0.95444398
0.74133472
0.58325315
0.46736678
0.38106318
0.31542308
0.26621797
0.2274672
0.19759125
0.17442461
0.15616133
0.14165762
0.129864
0.12012112
0.11285696
0.10677321
0.10146406
0.097550974
0.094016769
4530355.2
731975.99
224724.53
95331.457
48509.336
27630.19
16968.839
10990.941
7403.983
5139.1592
3651.6404
2643.688
1943.3002
1446.5135
1088.0927
825.79881
631.54655
486.23284
376.60862
293.3293
229.70819
180.90091
143.36105
114.47019
92.282272
75.336198
62.528299
53.053757
46.283738
41.723803
38.955483
37.566568
37.162508
36.764149
35.587465
33.567657
30.481221
25.554958
19.353298
13.003944
7.8326141
4.5805007
2.873179
1.9484652
1.403802
1.0630051
0.82923428
0.65099701
0.51868408
0.42169787
0.34789555
0.29263764
0.24686502
0.21269207
0.18605655
0.16548238
0.1489514
0.13584057
0.12520844
0.1169938
0.1098387
0.10398996
0.099837267
0.096354575
0.093030489
4530457.6
731992.52
224729.64
95333.686
48510.542
27630.958
16969.402
10991.409
7404.4155
5139.5912
3652.0956
2644.1848
1943.8541
1447.1393
1088.8051
826.61376
632.48174
487.30852
377.84836
294.76091
231.36476
182.82167
145.59045
117.05533
95.26553
78.753225
66.408825
57.403645
51.083691
46.887567
44.328863
42.693307
41.000687
38.757113
36.121994
32.324842
26.874825
20.345497
13.82423
8.5281599
5.0959301
3.1926873
2.1446038
1.5528006
1.1896862
0.92913623
0.72715502
0.57903798
0.46932648
0.38649774
0.32207398
0.27101015
0.23133027
0.20097222
0.17688078
0.15794326
0.14290664
0.13096895
0.12133925
0.11314864
0.10733347
0.10216428
0.098221057
0.095102472
0.092184931
4530563.2
732009.64
224734.98
95336.036
48511.84
27631.816
16970.064
10991.988
7404.9737
5140.1675
3652.7166
2644.8715
1944.6248
1448.0116
1089.7972
827.74515
633.7742
488.78675
379.54051
296.69886
233.58365
185.35878
148.48499
120.34654
98.990917
82.942514
71.054041
62.428987
56.319749
52.013776
48.687269
45.604814
42.434249
38.97052
34.323178
28.289166
21.430487
14.74597
9.3035747
5.6548073
3.5406714
2.3751522
1.7354106
1.3369849
1.0406676
0.81407476
0.65001811
0.52630195
0.43042391
0.35723121
0.29918067
0.25503177
0.21825436
0.19052016
0.16837257
0.15136614
0.1375322
0.12655303
0.1175475
0.1109302
0.10491241
0.10043795
0.096792648
0.094092623
0.091522072
4530672.5
732027.37
224740.5
95338.501
48513.231
27632.766
16970.823
10992.677
7405.6581
5140.8884
3653.5032
2645.7473
1945.6109
1449.1283
1091.0653
829.18675
635.41298
490.64838
381.6526
299.09036
236.28372
188.39437
151.87586
124.09847
103.08671
87.333239
75.65548
67.014426
60.512595
55.317103
50.793853
46.566206
42.061671
36.496904
29.862379
22.675483
15.814181
10.194584
6.3034529
3.9651239
2.6646802
1.9488333
1.4945619
1.1606749
0.91416125
0.73347157
0.5923232
0.48214574
0.39805671
0.33342495
0.28174866
0.24008903
0.20676102
0.1819065
0.16172459
0.14582534
0.13291484
0.12299025
0.11486478
0.10812451
0.10318717
0.098795446
0.09578997
0.093326283
0.090768533
4530784.7
732045.68
224746.25
95341.09
48514.722
27633.808
16971.68
10993.474
7406.464
5141.7465
3654.4448
2646.7977
1946.7928
1450.4634
1092.5757
830.89523
637.34336
492.82503
384.09942
301.8288
239.3293
191.75119
155.5285
128.00049
107.14553
91.390296
79.473068
70.33362
63.057172
56.903819
51.326354
45.545448
39.001082
31.727555
24.17332
17.083192
11.233959
7.0636117
4.4689084
2.9961096
2.1756857
1.6615625
1.29973
1.0357871
0.83252228
0.66893244
0.54310081
0.44740128
0.37257614
0.31373335
0.26537559
0.22822582
0.19737477
0.1742025
0.15512254
0.14063852
0.12893802
0.11951979
0.1118372
0.10632497
0.10115659
0.097829223
0.094590275
0.092422665
0.090364231
4530901
732061.25
224749.34
95341.577
48514.664
27633.695
16971.66
10993.598
7406.7538
5142.2135
3655.0981
2647.6466
1947.8478
1451.7369
1094.0814
832.64825
639.35893
495.11713
386.67828
304.69719
242.47717
195.14855
159.11641
131.68115
110.7732
94.766536
82.351508
72.454028
64.227028
56.906452
49.613696
41.971849
33.978752
25.98431
18.597085
12.460733
7.9702365
5.0795006
3.3934482
2.4450188
1.8664369
1.471926
1.1782231
0.94312903
0.75597481
0.61469504
0.50581696
0.41894769
0.3505357
0.29673062
0.25288566
0.2176314
0.18881119
0.16770153
0.15017271
0.13657048
0.12522927
0.11689143
0.10988834
0.10428864
0.099990199
0.096350493
0.093955919
0.091906233
0.08988322
4531685.4
732195.33
224794.48
95362.974
48526.817
27641.491
16977.136
10997.74
7410.0918
5145.0595
3657.6493
2650.0353
1950.1679
1454.0582
1096.4575
835.1208
641.95934
497.86628
389.5845
307.75245
245.65166
198.384
162.31919
134.71707
113.46743
96.912237
83.74089
72.870499
63.295389
54.250609
45.344714
36.503553
27.966916
20.209966
13.753991
8.9362065
5.7424681
3.8271685
2.7378211
2.0866423
1.6504139
1.3222254
1.060399
0.85635659
0.69964436
0.57363107
0.4726882
0.39387527
0.331852
0.28218947
0.24039188
0.2081919
0.18150615
0.16177827
0.14498244
0.13238028
0.12227161
0.11406392
0.10744006
0.10278546
0.098406827
0.095665417
0.092976858
0.091083089
0.089540968
4531684.6
732191.66
224791.53
95360.829
48525.378
27640.566
16976.597
10997.51
7410.1254
5145.331
3658.144
2650.7463
1951.0933
1455.1986
1097.8143
836.69331
643.74222
499.84571
391.73341
310.02498
247.97699
200.66069
164.4118
136.45765
114.67061
97.366238
83.145233
70.886519
59.804508
49.417141
39.551614
30.330511
22.095247
15.251856
10.069784
6.5396636
4.3580564
3.0945591
2.3469228
1.8563143
1.492658
1.2066271
0.98093531
0.79931138
0.65095716
0.53481183
0.44507467
0.3731294
0.31534857
0.26892115
0.23054816
0.20003234
0.17447416
0.1560556
0.14055761
0.1288766
0.11893945
0.11190543
0.10576105
0.10121039
0.097325325
0.094491465
0.092417645
0.090717556
0.089284565
4531684.8
732191.81
224791.68
95361.034
48525.645
27640.899
16977.004
10997.998
7410.7027
5146.0049
3658.9224
2651.6368
1952.1022
1456.3302
1099.0689
838.06551
645.21776
501.39788
393.31888
311.57935
249.41121
201.86024
165.24146
136.74389
114.17746
95.832215
80.407179
66.946615
54.821343
43.720978
33.626583
24.736453
17.336304
11.635743
7.6305046
5.0667508
3.546641
2.6557012
2.0919109
1.687718
1.3721694
1.1174075
0.90881276
0.74144255
0.61117814
0.50742855
0.42310459
0.35552896
0.30183564
0.25836126
0.22125824
0.19278976
0.16920953
0.15215207
0.13706799
0.12591846
0.11694924
0.10977036
0.10406752
0.09991951
0.096357293
0.094023458
0.091816875
0.090137187
0.089000076
4531684.9
732191.92
224791.78
95361.162
48525.81
27641.107
16977.259
10998.306
7411.0679
5146.4323
3659.4165
2652.2008
1952.7373
1457.0339
1099.8338
838.8764
646.04918
502.21103
394.05894
312.17137
249.75484
201.82245
164.64367
135.40198
111.94589
92.638307
76.266693
61.993965
49.32649
38.073795
28.277539
20.100672
13.69103
9.0561957
5.9897102
4.1278499
3.0428586
2.3810214
1.9241227
1.5710386
1.2837752
1.0486161
0.85942528
0.70722159
0.5825801
0.482711
0.40439821
0.34140659
0.29045541
0.24904465
0.21432618
0.1870296
0.16368279
0.14725979
0.13330333
0.12303183
0.11424026
0.10811086
0.10262817
0.098912604
0.095314815
0.093142666
0.091280012
0.089893461
0.088807341
4531686.1
732192.06
224791.83
95361.205
48525.865
27641.178
16977.349
10998.416
7411.2014
5146.5911
3659.6013
2652.4107
1952.9683
1457.2779
1100.0762
839.09415
646.20746
502.25952
393.92673
311.76536
248.96252
200.52066
162.71958
132.76031
108.53287
88.468763
71.44933
56.744234
43.955738
32.947794
23.748694
16.431084
10.994023
7.2735805
4.9394061
3.5610751
2.7395328
2.1995448
1.7973848
1.4745237
1.2096851
0.99242892
0.81393044
0.66905285
0.55456257
0.46342337
0.38919662
0.3289136
0.28068998
0.24137548
0.20748096
0.1817899
0.16021034
0.14493317