/*--------------------------------*- C++ -*----------------------------------*\
  =========                 |
  \\      /  F ield         | OpenFOAM: The Open Source CFD Toolbox
   \\    /   O peration     | Website:  https://openfoam.org
    \\  /    A nd           | Version:  13
     \\/     M anipulation  |
\*---------------------------------------------------------------------------*/
FoamFile
{
    format      ascii;
    class       volVectorField;
    location    "31.804132";
    object      wallShearStress;
}
// * * * * * * * * * * * * * * * * * * * * * * * * * * * * * * * * * * * * * //

dimensions      [0 2 -2 0 0 0 0];

internalField   uniform (0 0 0);

boundaryField
{
    inlet
    {
        type            calculated;
        value           uniform (0 0 0);
    }
    outlet
    {
        type            calculated;
        value           uniform (0 0 0);
    }
    cylinder
    {
        type            calculated;
        value           nonuniform List<vector> 
132
(
(1.2056846e-05 -0.00059278175 -2.5920054e-22)
(4.1113177e-05 -0.0009118208 7.3940729e-23)
(8.8740632e-05 -0.0012319354 4.0877577e-21)
(0.00015479752 -0.0015477659 -1.3730496e-20)
(0.00023887961 -0.0018535381 9.699707e-21)
(0.00033991809 -0.00214317 2.9657506e-20)
(0.00045613355 -0.002410476 -5.6225447e-21)
(0.00058500111 -0.0026494027 -2.2287394e-20)
(0.0007232644 -0.002854282 2.1019226e-20)
(0.00086716279 -0.0030200804 -4.7157937e-20)
(0.0010123523 -0.0031426763 -8.5875781e-22)
(0.0011541816 -0.0032192298 2.934272e-20)
(0.0012878986 -0.0032483327 4.7898588e-20)
(0.0014090158 -0.0032304218 -3.8946662e-20)
(0.0015135573 -0.0031676817 4.105498e-20)
(0.0015986041 -0.0030645095 6.615582e-20)
(0.0016623869 -0.0029268543 -4.340186e-20)
(0.0017050152 -0.0027627934 6.9704136e-20)
(0.0017286313 -0.0025818471 9.2268392e-20)
(0.0017377014 -0.0023946356 -5.991724e-20)
(0.0017395366 -0.0022127921 -7.644648e-20)
(0.0017441621 -0.0020479747 2.692246e-23)
(0.0017648697 -0.0019118287 1.1110003e-20)
(0.0018172776 -0.0018142749 -1.3312977e-20)
(0.0019187396 -0.0017626588 -2.2666417e-20)
(0.0020845551 -0.0017584517 4.8515273e-21)
(0.0023252867 -0.0017963608 -4.3837449e-20)
(0.0026388799 -0.0018605841 1.1721404e-20)
(0.0030107336 -0.0019288826 9.2111781e-21)
(0.0034112848 -0.0019747558 -6.3489406e-20)
(0.0037963993 -0.0019714504 8.2916432e-20)
(0.0041270497 -0.0019046468 2.5117265e-21)
(0.0043635122 -0.0017682022 1.8123961e-20)
(0.0044344243 -0.0015530564 -2.1500862e-20)
(0.0042341224 -0.0012547306 6.8400681e-20)
(0.0036119182 -0.00087973289 -4.3310731e-21)
(0.0023928803 -0.00046156037 1.7486081e-20)
(0.000357727 -6.4953704e-05 -2.4017666e-21)
(-0.0026763916 0.00019408145 3.4436262e-21)
(-0.0068695739 0.00015129088 -2.1441875e-21)
(-0.012591322 -0.0004188337 3.9913527e-21)
(-0.019738707 -0.0018336689 -1.2253793e-22)
(-0.02768202 -0.0042579433 4.4688806e-20)
(-0.035969964 -0.0077689473 -1.7124312e-20)
(-0.044025353 -0.012321948 1.5371653e-20)
(-0.051405949 -0.017789233 -9.8307209e-20)
(-0.057658009 -0.023931715 -1.5796559e-20)
(-0.062517524 -0.030483781 1.3835108e-19)
(-0.06579672 -0.037146867 -1.1782706e-19)
(-0.067442712 -0.043634803 -2.2496866e-21)
(-0.067459394 -0.049658939 3.5943493e-20)
(-0.065977972 -0.054997948 -3.2899311e-20)
(-0.063095137 -0.059395703 -6.5164853e-21)
(-0.059032347 -0.062702217 -4.2442985e-21)
(-0.054030292 -0.064810586 -7.0783934e-21)
(-0.048268657 -0.065564775 -1.9583637e-21)
(-0.042026214 -0.064951794 5.5672355e-22)
(-0.03553495 -0.06293873 4.6861681e-20)
(-0.029039458 -0.059554685 -7.268967e-20)
(-0.022769562 -0.05485906 -7.8199618e-20)
(-0.016939845 -0.048946236 -3.1905748e-20)
(-0.011744698 -0.041942796 -7.3407843e-20)
(-0.0073535684 -0.034003021 1.6422872e-20)
(-0.0039049705 -0.025304941 2.3948815e-20)
(-0.0015122834 -0.016062808 -3.7292462e-20)
(-0.00023562675 -0.0064454314 -4.9906115e-21)
(1.284237e-07 -0.00027681717 -1.1897773e-21)
(5.287913e-06 3.6812694e-05 -7.0690072e-23)
(2.7304085e-05 0.00034584375 -4.045917e-21)
(6.6287598e-05 0.00064526308 1.3520574e-20)
(0.00012116131 0.00092989083 -9.5090028e-21)
(0.00019048064 0.001194722 -2.894593e-20)
(0.00027228089 0.0014350144 5.4636302e-21)
(0.00036409934 0.0016465131 2.1564356e-20)
(0.00046304887 0.0018256376 -2.0251866e-20)
(0.00056593372 0.0019696757 4.5251629e-20)
(0.00066934972 0.0020769637 8.2087092e-22)
(0.00076999307 0.0021470303 -2.794294e-20)
(0.00086476109 0.0021806432 -4.5455199e-20)
(0.00095102127 0.002180012 3.6840836e-20)
(0.0010267835 0.0021485626 -3.8721047e-20)
(0.0010910976 0.0020912136 -6.2229772e-20)
(0.0011440805 0.0020138102 4.0731246e-20)
(0.00118742 0.0019234617 -6.5282821e-20)
(0.0012244178 0.0018279894 -8.6269871e-20)
(0.0012602151 0.0017356823 5.5943974e-20)
(0.0013023856 0.0016555679 7.129951e-20)
(0.001360416 0.0015960604 6.3856716e-20)
(0.0014464424 0.0015654228 5.2468569e-20)
(0.0015737114 0.0015695983 1.239583e-20)
(0.0017554298 0.001611198 2.1102942e-20)
(0.0020021036 0.0016876922 -4.5173288e-21)
(0.0023151232 0.0017876607 4.0828671e-20)
(0.002684173 0.0018920799 -1.0920966e-20)
(0.0030852549 0.0019765796 -8.5861818e-21)
(0.0034851683 0.0020176985 5.9208167e-20)
(0.0038564964 0.0020028735 -7.7357339e-20)
(0.0041673576 0.0019234977 -2.3310296e-21)
(0.0043730032 0.0017723606 3.8522725e-20)
(0.0043997922 0.0015413556 2.0110711e-20)
(0.0041342495 0.0012258076 -6.407716e-20)
(0.0034148488 0.0008329075 4.0653092e-21)
(0.0020627513 0.00040044693 1.1997895e-20)
(-0.00014260243 -8.9414287e-07 2.2656582e-21)
(-0.0033867338 -0.00025161284 -3.2570047e-21)
(-0.007795632 -0.000175692 2.0332707e-21)
(-0.013737038 0.00045472508 -3.7930303e-21)
(-0.02107371 0.0019558394 3.0745542e-20)
(-0.029121055 0.0044773994 -4.2520533e-20)
(-0.037426922 0.0080817582 1.6273621e-20)
(-0.045420302 0.012710757 -1.4571211e-20)
(-0.052647118 0.018217066 9.2812023e-20)
(-0.058685548 0.02435594 1.4833049e-20)
(-0.06329528 0.030860709 -1.2896071e-19)
(-0.066296896 0.037426957 1.0876988e-19)
(-0.067672183 0.043780946 2.0495561e-21)
(-0.067412809 0.049622284 -3.2126039e-20)
(-0.065701737 0.054765316 2.8573929e-20)
(-0.062587535 0.058915059 -4.325173e-20)
(-0.058330777 0.061954387 3.1084127e-21)
(-0.053202948 0.06381518 -3.910211e-21)
(-0.0473286 0.064284392 5.6367739e-21)
(-0.041023607 0.063398286 -7.4762179e-22)
(-0.03450787 0.061114811 -5.5238251e-20)
(-0.028027235 0.057472898 8.108206e-20)
(-0.021809344 0.052537972 8.4546549e-20)
(-0.016065171 0.046408588 3.3792281e-20)
(-0.01098577 0.039217429 7.6590308e-20)
(-0.0067356109 0.031121309 -1.6934036e-20)
(-0.0034482606 0.022303879 4.8494098e-20)
(-0.0012312361 0.012970318 3.7744447e-20)
(-0.00014387434 0.0033340946 5.0133837e-21)
)
;
    }
    frontAndBack
    {
        type            empty;
    }
}


// ************************************************************************* //
