/*--------------------------------*- C++ -*----------------------------------*\
  =========                 |
  \\      /  F ield         | OpenFOAM: The Open Source CFD Toolbox
   \\    /   O peration     | Website:  https://openfoam.org
    \\  /    A nd           | Version:  13
     \\/     M anipulation  |
\*---------------------------------------------------------------------------*/
FoamFile
{
    format      ascii;
    class       volScalarField;
    location    "4.203396";
    object      yPlus;
}
// * * * * * * * * * * * * * * * * * * * * * * * * * * * * * * * * * * * * * //

dimensions      [];

internalField   uniform 0;

boundaryField
{
    inlet
    {
        type            calculated;
        value           uniform 0;
    }
    outlet
    {
        type            calculated;
        value           uniform 0;
    }
    cylinder
    {
        type            calculated;
        value           nonuniform List<scalar> 
132
(
6.394184e-07
6.3524355e-07
6.2528289e-07
6.0931358e-07
5.8741791e-07
5.5950506e-07
5.2607515e-07
4.8782311e-07
4.4557644e-07
4.0035549e-07
3.5336859e-07
3.0595371e-07
2.5951731e-07
2.1543191e-07
1.7492846e-07
1.389804e-07
1.0817069e-07
8.2647445e-08
6.2161692e-08
4.6135845e-08
3.3909561e-08
2.4864576e-08
1.8711061e-08
1.5378619e-08
1.4335379e-08
1.4277771e-08
1.3520312e-08
1.1555784e-08
8.9179794e-09
6.4248761e-09
4.6643141e-09
3.9792973e-09
4.2309915e-09
5.050825e-09
6.2562896e-09
7.7969063e-09
9.7451994e-09
1.2154021e-08
1.5066837e-08
1.853716e-08
2.2681578e-08
2.7587668e-08
3.2791039e-08
3.8208098e-08
4.3686007e-08
4.9104654e-08
5.437398e-08
5.943072e-08
6.4234744e-08
6.8764292e-08
7.3005083e-08
7.6966063e-08
8.0634819e-08
8.4006568e-08
8.7130334e-08
8.994352e-08
9.2523005e-08
9.4807258e-08
9.6858486e-08
9.8611271e-08
1.001446e-07
1.0141074e-07
1.0243547e-07
1.0320673e-07
1.0373761e-07
1.0401456e-07
6.3773638e-07
6.3024221e-07
6.1699443e-07
5.978175e-07
5.7274837e-07
5.420254e-07
5.0625144e-07
4.6620563e-07
4.2275363e-07
3.7697999e-07
3.3011516e-07
2.8349018e-07
2.3846559e-07
1.9631915e-07
1.5815026e-07
1.2475001e-07
9.6499324e-08
7.3380108e-08
5.4999112e-08
4.0737187e-08
2.994733e-08
2.2119304e-08
1.7109927e-08
1.4749236e-08
1.4223358e-08
1.4092947e-08
1.2944307e-08
1.0683028e-08
8.0276982e-09
5.7380206e-09
4.3070345e-09
3.9786539e-09
4.4364074e-09
5.3902158e-09
6.6881368e-09
8.3341858e-09
1.0404129e-08
1.2940538e-08
1.5989664e-08
1.9595105e-08
2.3862433e-08
2.8871e-08
3.4138524e-08
3.9586044e-08
4.5060707e-08
5.0449153e-08
5.5671095e-08
6.0667369e-08
6.5403483e-08
6.986289e-08
7.4031645e-08
7.7926932e-08
8.1526078e-08
8.4811445e-08
8.788086e-08
9.0623163e-08
9.3138401e-08
9.5351315e-08
9.7336194e-08
9.9023574e-08
1.0049443e-07
1.0169361e-07
1.0265449e-07
1.0336111e-07
1.0382098e-07
1.0403615e-07
)
;
    }
    frontAndBack
    {
        type            empty;
    }
}


// ************************************************************************* //
