/*--------------------------------*- C++ -*----------------------------------*\
  =========                 |
  \\      /  F ield         | OpenFOAM: The Open Source CFD Toolbox
   \\    /   O peration     | Website:  https://openfoam.org
    \\  /    A nd           | Version:  13
     \\/     M anipulation  |
\*---------------------------------------------------------------------------*/
FoamFile
{
    format      ascii;
    class       volVectorField;
    location    "27.398675";
    object      UMean;
}
// * * * * * * * * * * * * * * * * * * * * * * * * * * * * * * * * * * * * * //

dimensions      [0 1 -1 0 0 0 0];

internalField   nonuniform List<vector> 
17140
(
(-2.5414986e-06 0.00010769454 -1.4686132e-22)
(-3.2579493e-05 0.00033139998 -1.1455228e-23)
(-9.7593735e-05 0.00057580418 7.5727935e-22)
(-0.00021109892 0.00084200318 -8.3288603e-22)
(-0.00038535801 0.0011311304 9.742059e-23)
(-0.00063705139 0.0014441184 -3.189463e-22)
(-0.00098663545 0.0017816433 -5.3730754e-22)
(-0.0014587103 0.0021440294 2.6281684e-22)
(-0.0020827457 0.0025311365 8.6078368e-22)
(-0.0028937638 0.0029422282 2.1140708e-21)
(-0.0039329929 0.0033758255 -3.1414626e-21)
(-0.0052484458 0.0038295512 2.8060045e-21)
(-0.0068953679 0.0042999723 4.3015954e-22)
(-0.0089364543 0.0047824545 -2.4455277e-21)
(-0.011441729 0.0052710535 2.7250041e-22)
(-0.014487961 0.0057584646 -2.170766e-21)
(-0.018157511 0.006236073 8.1788194e-23)
(-0.022536501 0.0066941368 -1.7752886e-23)
(-0.02771231 0.0071221424 -1.3086405e-21)
(-0.033770493 0.0075093471 1.7120558e-21)
(-0.040791391 0.0078455038 -8.2938744e-22)
(-0.048846849 0.0081217084 1.6097386e-22)
(-0.05799828 0.0083312599 1.1862962e-21)
(-0.068298278 0.0084704184 -1.187556e-21)
(-0.079788273 0.0085390429 -1.9003367e-21)
(-0.092498586 0.0085406607 1.5388628e-21)
(-0.10645884 0.0084810496 7.5673516e-21)
(-0.12171419 0.0083679657 8.8647884e-22)
(-0.13830904 0.0082119354 -7.8749396e-21)
(-0.15627672 0.0080214096 -1.836244e-21)
(-0.17565706 0.0078010615 -6.5810179e-21)
(-0.19648554 0.0075532646 8.7055466e-21)
(-0.21879013 0.007279023 -2.2625905e-21)
(-0.24258705 0.0069780269 -1.0893421e-21)
(-0.2678738 0.0066484677 -1.0651429e-20)
(-0.29462033 0.006287333 4.6998478e-21)
(-0.32275866 0.0058908328 -7.0392839e-21)
(-0.3521701 0.005454741 -4.7458556e-21)
(-0.38267009 0.0049748824 -2.1573542e-21)
(-0.4139923 0.0044483138 6.5347593e-21)
(-0.4457742 0.0038738647 1.221541e-20)
(-0.47754193 0.0032519256 1.0979244e-20)
(-0.50869551 0.0025825865 4.7477107e-21)
(-0.53850807 0.0018626803 -2.2645192e-20)
(-0.56611303 0.001087562 -1.628286e-20)
(-0.59055357 0.00025805434 3.9412085e-21)
(-0.61091767 -0.0006319873 -2.6313151e-20)
(-0.62611686 -0.00158427 -8.7844394e-21)
(-0.63509011 -0.002588393 8.8187973e-21)
(-0.63701592 -0.0036220526 2.1323186e-20)
(-0.63120871 -0.0046595539 -1.3028874e-20)
(-0.61705712 -0.005692615 -8.2005811e-21)
(-0.59404218 -0.0067612011 2.1353819e-20)
(-0.5617439 -0.0078729689 1.0135279e-20)
(-0.51969012 -0.0089833826 7.2991511e-21)
(-0.467764 -0.010075236 -5.7540422e-21)
(-0.40570876 -0.011089949 1.5948273e-20)
(-0.33374477 -0.01192213 1.3528011e-20)
(-0.25175375 -0.012387152 3.4669934e-21)
(-0.16139468 -0.012243784 -9.0221558e-21)
(-0.06283622 -0.011109352 -7.2202642e-21)
(0.038852058 -0.008674759 -2.716458e-20)
(0.14563986 -0.0050839402 -4.0462041e-21)
(0.24588601 -0.00075838525 3.4281491e-20)
(0.3519428 0.0027446499 -2.6836377e-20)
(-2.5599405e-05 0.00059762511 4.164216e-23)
(-0.00010300613 0.0018384389 -3.964465e-21)
(-0.00021915216 0.0031932909 3.5287057e-21)
(-0.00038751423 0.0046685313 -9.6262715e-22)
(-0.00062038159 0.0062700527 -1.9889884e-21)
(-0.00093432858 0.0080026395 3.8024058e-21)
(-0.0013495934 0.009869559 -3.9673276e-21)
(-0.001890423 0.011872019 3.494921e-22)
(-0.0025857708 0.014008513 -1.0923269e-21)
(-0.0034699488 0.016274074 -1.8217539e-23)
(-0.0045832539 0.018659439 -3.6590113e-21)
(-0.0059725227 0.021150156 5.8290242e-21)
(-0.0076915621 0.023725702 4.8265195e-22)
(-0.0098013607 0.026358671 -4.7797835e-21)
(-0.012369982 0.029014195 1.4745274e-21)
(-0.015472018 0.031649751 9.4012638e-22)
(-0.019187503 0.034215576 -5.9860586e-21)
(-0.023600183 0.036655963 1.9604836e-20)
(-0.028795149 0.038911657 -1.2341352e-20)
(-0.034855911 0.040923531 1.485955e-20)
(-0.041861184 0.042637526 -2.2080028e-20)
(-0.049881768 0.044010506 5.445182e-21)
(-0.058978635 0.045016286 2.2589515e-21)
(-0.069204438 0.045650617 -7.4015857e-21)
(-0.080601975 0.045933866 2.6783598e-20)
(-0.093202579 0.045908236 3.9882447e-21)
(-0.10703623 0.045624488 -2.0912911e-20)
(-0.12214937 0.045132639 2.3507863e-20)
(-0.13858677 0.044475969 -3.2900382e-21)
(-0.15638132 0.04369034 -3.1897758e-20)
(-0.17557193 0.042800692 3.3487139e-21)
(-0.19619295 0.041822516 2.5456848e-20)
(-0.21827058 0.040763714 5.9799846e-22)
(-0.24181851 0.039624811 -1.9062606e-20)
(-0.26683108 0.038398903 2.1329138e-20)
(-0.29327437 0.037072231 -9.5859934e-21)
(-0.32107558 0.035624939 1.1367994e-20)
(-0.35011024 0.034031864 3.593118e-20)
(-0.38018696 0.032263825 7.9736177e-21)
(-0.41103125 0.030290454 3.109998e-20)
(-0.44227048 0.028082611 -3.9732909e-20)
(-0.47341797 0.025613243 -3.6097561e-20)
(-0.50385647 0.02285649 -6.0250772e-21)
(-0.53283156 0.019789836 4.8467556e-20)
(-0.55944282 0.01640687 -2.2389312e-20)
(-0.58271412 0.012732936 -7.6131581e-21)
(-0.60162269 0.0087892026 4.1061023e-21)
(-0.61511496 0.0045913473 1.2458094e-20)
(-0.62216617 0.00023276355 -6.0245427e-21)
(-0.62188339 -0.0041783578 1.0757329e-20)
(-0.61356137 -0.0085742786 6.4418586e-20)
(-0.59663926 -0.012917157 3.0815605e-21)
(-0.57063857 -0.017201845 -1.3881189e-20)
(-0.53518093 -0.021428255 3.1018574e-20)
(-0.48992019 -0.025558775 -2.6729029e-20)
(-0.43472624 -0.029550624 7.6834034e-20)
(-0.36939781 -0.033334605 2.2194316e-20)
(-0.29426297 -0.036763227 -6.3932743e-20)
(-0.20924573 -0.039533975 1.0956601e-20)
(-0.1161098 -0.041249567 1.2848323e-20)
(-0.015025169 -0.041261976 2.6360723e-21)
(0.088695976 -0.039320439 -3.5381913e-20)
(0.19702378 -0.035111178 7.0207834e-20)
(0.2982892 -0.029940677 2.1138952e-20)
(0.40558777 -0.024661365 3.5703025e-20)
(-7.5474858e-05 0.0010776177 2.2931729e-21)
(-0.0002551566 0.003315332 -1.1925187e-21)
(-0.00048160088 0.0057590755 -3.1718433e-22)
(-0.00076809093 0.0084205863 3.0099825e-22)
(-0.0011269346 0.011310663 -1.4587524e-21)
(-0.001574417 0.014438158 -1.0822532e-22)
(-0.0021302234 0.017809233 -1.3875772e-21)
(-0.0028177454 0.021426388 -1.4962587e-21)
(-0.0036647136 0.025287279 1.2252369e-20)
(-0.0047037844 0.02938337 -1.0957458e-20)
(-0.0059731077 0.033698416 5.2545679e-21)
(-0.0075168287 0.038206838 7.7156959e-21)
(-0.0093854855 0.042872088 -1.5348358e-20)
(-0.011636213 0.047645154 -1.9045933e-21)
(-0.014332667 0.052463429 7.3917358e-21)
(-0.017544572 0.057250282 5.1037418e-21)
(-0.021346777 0.061915719 -5.9503338e-21)
(-0.025817762 0.066358614 2.1660932e-20)
(-0.031037566 0.070470971 -1.2891376e-20)
(-0.037085216 0.074144567 6.4107215e-21)
(-0.04403588 0.077279986 -2.1786929e-20)
(-0.051958098 0.079797499 -5.705981e-21)
(-0.060911925 0.081648419 1.1995699e-20)
(-0.070950145 0.082824696 -1.816026e-20)
(-0.082118439 0.083364045 -7.1670778e-21)
(-0.094449981 0.083345459 8.7350199e-21)
(-0.10797634 0.082865791 4.9690291e-20)
(-0.12274575 0.082018318 2.2520262e-20)
(-0.13880297 0.080879142 -1.1419868e-20)
(-0.15618103 0.079512685 1.2099058e-20)
(-0.17491604 0.077965371 -7.7645089e-21)
(-0.19503973 0.07626636 -4.3555788e-20)
(-0.21657398 0.074430676 1.4647832e-20)
(-0.23952669 0.072459735 4.3767412e-20)
(-0.26388462 0.070341667 -1.483107e-20)
(-0.2896045 0.068051919 -2.0636839e-20)
(-0.31660211 0.065554217 3.5759037e-20)
(-0.34473881 0.062802104 1.0822737e-20)
(-0.37380615 0.05974103 -1.9460573e-20)
(-0.40350944 0.056312356 -7.8316602e-21)
(-0.43345103 0.052457486 3.7217894e-20)
(-0.46311223 0.048119352 -1.0666794e-20)
(-0.49183515 0.043242581 -1.5222246e-20)
(-0.51881201 0.037782539 -4.0020196e-20)
(-0.54308814 0.031730474 7.5619699e-20)
(-0.56363957 0.025136706 -4.8329568e-20)
(-0.57938651 0.018071604 -1.1908017e-20)
(-0.58924819 0.010595189 -4.7273269e-20)
(-0.59222944 0.0028602341 -5.6304223e-20)
(-0.5875103 -0.004931569 -2.8310095e-21)
(-0.57447281 -0.012628721 1.1886142e-20)
(-0.55266139 -0.020167241 -8.831546e-20)
(-0.52168787 -0.027549774 -3.7877611e-20)
(-0.48125428 -0.034770724 -3.9282858e-20)
(-0.43109712 -0.041780833 -1.298811e-20)
(-0.37118909 -0.048521586 -1.0257431e-19)
(-0.30145029 -0.054901912 4.1159432e-20)
(-0.22231562 -0.060737324 -1.2862268e-20)
(-0.13376156 -0.065611858 -1.0732383e-19)
(-0.03769422 -0.06900075 -4.3433049e-20)
(0.065729157 -0.069933279 5.2908849e-20)
(0.17080323 -0.068201687 1.8528351e-19)
(0.27973636 -0.063081601 -6.0359785e-20)
(0.38019622 -0.056930694 -9.7931811e-20)
(0.48605122 -0.049478243 -4.2442241e-20)
(-0.00015061103 0.0015312203 -7.6384889e-21)
(-0.00048433703 0.0047119032 8.5329933e-21)
(-0.00087692222 0.0081866994 -3.086433e-21)
(-0.0013412912 0.011972828 3.3577224e-22)
(-0.001889816 0.016086163 -6.639036e-21)
(-0.002538327 0.020539962 6.8755627e-21)
(-0.0033056688 0.025343806 -1.04373e-20)
(-0.0042139346 0.030502223 4.9189326e-21)
(-0.0052890006 0.036013036 1.8722173e-20)
(-0.006561013 0.041865432 -4.5123246e-21)
(-0.0080648634 0.048037801 -1.7216757e-20)
(-0.0098406105 0.054495386 5.2726934e-21)
(-0.01193382 0.061187884 3.5529667e-22)
(-0.014395754 0.068047201 -1.3893834e-20)
(-0.017283336 0.074985679 4.3683755e-20)
(-0.020658819 0.08189525 -2.6971651e-20)
(-0.024589069 0.088648088 -2.5827423e-22)
(-0.0291444 0.095099458 1.5122356e-20)
(-0.034396954 0.10109348 -3.8711238e-20)
(-0.040418657 0.10647234 1.843861e-20)
(-0.047278963 0.11108917 2.7757597e-20)
(-0.055042606 0.11482378 1.1331916e-20)
(-0.063767942 0.11759961 -5.6737397e-20)
(-0.073507732 0.11939852 -2.992539e-20)
(-0.084311273 0.12026916 1.9624235e-20)
(-0.096215022 0.12032292 -1.1494872e-20)
(-0.1092539 0.11970377 4.367579e-20)
(-0.12347724 0.11854897 -1.2636937e-20)
(-0.13893015 0.11696839 3.4410539e-20)
(-0.15564694 0.11505649 -1.9658892e-20)
(-0.17365893 0.11288275 1.2177174e-20)
(-0.19299393 0.11049095 -4.5201722e-20)
(-0.21366728 0.10790364 6.5795299e-21)
(-0.23567819 0.10512329 -3.4623624e-20)
(-0.25900217 0.10213291 3.3415713e-20)
(-0.28358182 0.098897099 1.0568632e-20)
(-0.3093157 0.095363123 -1.3464211e-19)
(-0.33604439 0.091462653 -3.5083991e-20)
(-0.36353446 0.087115151 2.9277792e-20)
(-0.39146172 0.08223296 -2.8779481e-20)
(-0.41939312 0.076726248 7.288464e-21)
(-0.44676673 0.070505432 4.6195559e-20)
(-0.47287255 0.063484164 -2.1821798e-21)
(-0.49684108 0.055597406 -1.5140542e-20)
(-0.51767427 0.046842703 7.5100695e-21)
(-0.53433805 0.037301668 -3.3112899e-21)
(-0.5457224 0.027086107 -1.0240789e-20)
(-0.55077121 0.016331607 1.6029313e-19)
(-0.54858042 0.0052923786 -1.7738335e-20)
(-0.5384634 -0.0057481892 1.6383593e-20)
(-0.51992742 -0.016578215 -1.5370846e-19)
(-0.4926272 -0.027111324 8.4530576e-20)
(-0.45626185 -0.037354414 6.9571668e-20)
(-0.41061607 -0.04730987 6.6982453e-20)
(-0.35552468 -0.056924716 6.5210839e-20)
(-0.29111214 -0.066131058 1.0383577e-19)
(-0.2174186 -0.074831488 -2.1017867e-19)
(-0.13501407 -0.082830041 1.3151826e-19)
(-0.043905186 -0.089587365 2.0373996e-19)
(0.053774052 -0.094462751 -1.5186637e-19)
(0.15787507 -0.096120724 -4.9687262e-20)
(0.26215335 -0.09449466 -4.4605691e-20)
(0.36928823 -0.088276393 2.2778485e-19)
(0.46622417 -0.080961159 1.6902755e-19)
(0.56695499 -0.071296646 -7.5105855e-21)
(-0.00024761006 0.0019419974 5.3401149e-21)
(-0.00078027055 0.0059779176 -1.2409526e-20)
(-0.0013874801 0.01038941 1.0121502e-20)
(-0.0020817189 0.015199244 -3.8271282e-21)
(-0.0028754738 0.020428554 -1.3833851e-21)
(-0.003784023 0.026095426 1.1915889e-20)
(-0.0048251657 0.032213549 -3.0229646e-21)
(-0.0060193646 0.038790516 -6.4259059e-21)
(-0.007390151 0.04582573 -4.9440973e-22)
(-0.0089644804 0.053307982 -4.2059082e-21)
(-0.010773083 0.061212678 5.9046908e-21)
(-0.012850776 0.069498803 -4.1188718e-21)
(-0.015236713 0.078105747 -1.5233707e-20)
(-0.017974539 0.086950256 -4.4288335e-22)
(-0.021112393 0.095923875 1.1775338e-20)
(-0.024702701 0.10489144 8.3958709e-21)
(-0.028801726 0.11369139 -7.278135e-21)
(-0.03346881 0.12213874 7.1069677e-22)
(-0.038765315 0.13003174 1.4471924e-20)
(-0.044753277 0.13716315 1.7808039e-20)
(-0.051493916 0.14333628 -2.0561611e-20)
(-0.059046143 0.14838546 -2.0940252e-20)
(-0.067465338 0.15219862 2.8527736e-20)
(-0.07680372 0.15473801 -3.5701281e-20)
(-0.087113706 0.15605332 -6.2478664e-20)
(-0.098437625 0.15628058 1.4898483e-19)
(-0.11081512 0.15561066 -8.280971e-20)
(-0.12429443 0.15422484 1.2350691e-19)
(-0.13892362 0.15226991 -1.5549578e-19)
(-0.15473948 0.14987162 1.7454093e-19)
(-0.17176676 0.14712451 -1.8139426e-19)
(-0.19002831 0.14408851 3.0799854e-20)
(-0.20953117 0.14079459 1.0625202e-19)
(-0.23026354 0.13724658 -6.0157902e-20)
(-0.25218693 0.1334225 1.8904374e-20)
(-0.27522665 0.12927598 5.6243084e-21)
(-0.29925993 0.12473756 6.8134897e-20)
(-0.32410201 0.11971679 2.2066603e-20)
(-0.34949024 0.11410673 2.2048597e-20)
(-0.37506657 0.10778975 2.2114125e-20)
(-0.40035823 0.10064322 -1.1251902e-19)
(-0.42475749 0.092543068 4.9212423e-20)
(-0.44750322 0.083372133 7.4911104e-21)
(-0.46767783 0.073052397 -8.8905748e-20)
(-0.48427759 0.061602401 -4.443761e-20)
(-0.49628416 0.049147418 2.1885356e-20)
(-0.50263743 0.03583895 7.7818118e-20)
(-0.50236903 0.021905304 -3.3899253e-20)
(-0.49468658 0.0076965996 9.7127895e-20)
(-0.47899536 -0.0064140559 5.246206e-20)
(-0.45489864 -0.020163049 7.2445416e-20)
(-0.42213666 -0.033461582 1.9350996e-19)
(-0.38046516 -0.046335639 -1.505074e-19)
(-0.32974129 -0.058790695 4.8748181e-20)
(-0.26991504 -0.070754766 -8.5892607e-20)
(-0.20128933 -0.082144973 -8.2437748e-20)
(-0.1240781 -0.09286902 -3.2439896e-20)
(-0.039062666 -0.10275879 -3.0469608e-19)
(0.053734659 -0.1111382 -8.3858675e-20)
(0.15185534 -0.1172808 1.9536459e-19)
(0.25517464 -0.11940384 7.5034202e-20)
(0.35686521 -0.11769755 -5.7852218e-20)
(0.45998175 -0.11028011 -1.2142064e-19)
(0.55153188 -0.10155484 -1.8940272e-19)
(0.6445553 -0.089667483 1.4859296e-20)
(-0.00036121236 0.0022941316 1.6129661e-20)
(-0.001127029 0.0070649602 3.968873e-21)
(-0.00198591 0.012283482 -3.2170399e-21)
(-0.002949895 0.017978012 -1.1882194e-20)
(-0.0040316579 0.024175096 6.5145705e-21)
(-0.0052459065 0.030898098 -9.3865139e-21)
(-0.0066093032 0.038165621 4.0665761e-21)
(-0.0081405008 0.045989542 9.6993062e-22)
(-0.0098603955 0.054372596 -5.5017015e-21)
(-0.011792322 0.063305528 -1.1886045e-20)
(-0.013962251 0.072763797 -5.9599385e-22)
(-0.016398954 0.082703907 1.9677829e-20)
(-0.019134139 0.093059479 -2.7345994e-20)
(-0.022202527 0.10373735 4.4416188e-20)
(-0.025641857 0.11461407 -1.1688073e-20)
(-0.029492798 0.12553351 2.5025109e-20)
(-0.033798748 0.13630631 -3.055475e-20)
(-0.038605516 0.14671246 2.0058435e-20)
(-0.043960881 0.15650807 -3.2128884e-21)
(-0.049914063 0.16543774 -1.3198929e-20)
(-0.056515165 0.17325313 3.2535047e-20)
(-0.063814661 0.1797374 -4.6635944e-20)
(-0.071862983 0.18473351 5.1505478e-20)
(-0.080710754 0.18817169 8.933024e-21)
(-0.090411219 0.1900891 -8.9535481e-20)
(-0.10101655 0.19063347 9.1776734e-20)
(-0.11257047 0.1900347 -6.0530061e-20)
(-0.12511819 0.18852467 6.8643739e-20)
(-0.13871654 0.18629319 6.43154e-21)
(-0.15340357 0.1834947 4.0101272e-21)
(-0.16919762 0.18025121 -2.811986e-20)
(-0.18611531 0.17664208 1.7729214e-21)
(-0.20415443 0.17270824 -1.0713623e-19)
(-0.22329085 0.16845579 2.9308982e-20)
(-0.24347033 0.16385818 8.7541379e-20)
(-0.2645987 0.158858 -4.1098029e-20)
(-0.28652994 0.15336903 3.3987723e-20)
(-0.30905242 0.14727906 -3.4015348e-20)
(-0.33187298 0.14045467 -1.8992957e-19)
(-0.35459923 0.13274769 1.0502485e-19)
(-0.37672004 0.1240016 2.5556714e-20)
(-0.39758673 0.11405787 -1.4435183e-19)
(-0.41639937 0.10277248 8.683243e-21)
(-0.43222303 0.090066177 1.7684844e-20)
(-0.44409982 0.075993495 1.8665826e-19)
(-0.4510603 0.060727542 4.275464e-20)
(-0.45216111 0.044462808 -6.6330552e-20)
(-0.44653794 0.027513514 -6.7106597e-20)
(-0.43345667 0.010310582 -9.4360679e-20)
(-0.4123377 -0.0066880572 -1.1541381e-19)
(-0.382838 -0.023157936 -7.0085578e-20)
(-0.34477359 -0.03900669 -1.0960619e-19)
(-0.29796752 -0.054280928 3.7748248e-20)
(-0.24236439 -0.068982504 -2.3351272e-19)
(-0.17805525 -0.083009474 -1.568048e-20)
(-0.10555119 -0.096267254 -1.379253e-20)
(-0.025251513 -0.10867442 -7.4248774e-21)
(0.061856792 -0.12012688 3.2782788e-19)
(0.15566562 -0.12980597 1.3090426e-19)
(0.25336029 -0.1369314 -2.053564e-19)
(0.35473072 -0.13925516 -3.0168636e-19)
(0.45264904 -0.13721433 -1.3768056e-19)
(0.54997373 -0.12854222 -4.5737156e-20)
(0.63473541 -0.11821559 2.6873759e-19)
(0.71859115 -0.10410277 -6.8420949e-20)
(-0.00048436693 0.0025734813 -3.0165058e-21)
(-0.0015035603 0.0079295132 -6.6560268e-21)
(-0.0026358341 0.013793474 1.6074842e-20)
(-0.003893297 0.020199016 -5.9895156e-22)
(-0.0052887462 0.027178183 -7.8408624e-21)
(-0.0068364031 0.034760014 -3.459602e-21)
(-0.0085518364 0.042968819 -2.5581752e-21)
(-0.010451893 0.051822066 5.051048e-21)
(-0.012554781 0.061327738 -2.6207999e-20)
(-0.014880092 0.071481182 1.9837385e-20)
(-0.017448817 0.082261405 -9.6129676e-22)
(-0.020283337 0.093626859 -1.209901e-20)
(-0.023407398 0.10551082 4.5509495e-20)
(-0.026846069 0.11781662 -4.5649206e-20)
(-0.030625696 0.13041311 6.1337384e-21)
(-0.03477387 0.14313101 3.8257865e-20)
(-0.039319429 0.15576119 -3.6359648e-20)
(-0.044292527 0.16805601 1.2874368e-20)
(-0.049724821 0.17973537 -2.5327605e-20)
(-0.055649788 0.19049902 3.2987716e-20)
(-0.062103231 0.20004642 6.2909709e-20)
(-0.069123933 0.2081043 -6.331061e-20)
(-0.076754382 0.21446016 -9.4192833e-20)
(-0.085041443 0.21899713 1.845786e-19)
(-0.094037666 0.22172191 -1.5016105e-19)
(-0.10380256 0.22277515 8.8262486e-20)
(-0.11438743 0.22241054 -2.3063689e-20)
(-0.12583923 0.22092024 5.4918139e-20)
(-0.13821768 0.21854331 -5.6883419e-20)
(-0.15156506 0.21546038 -7.700263e-20)
(-0.16589812 0.21182361 5.167468e-20)
(-0.18122362 0.20773648 8.5726652e-20)
(-0.1975306 0.20325265 -7.6757621e-21)
(-0.21478176 0.1983822 -3.2251032e-21)
(-0.23290607 0.19309464 -5.5999119e-20)
(-0.25178926 0.1873222 2.4300409e-20)
(-0.27126194 0.18096254 8.9213604e-20)
(-0.29108585 0.17388202 4.4766662e-20)
(-0.3109385 0.16592096 -6.8756498e-20)
(-0.33039569 0.15690067 5.4484879e-20)
(-0.34891299 0.14663099 -4.5933399e-20)
(-0.3658113 0.13492128 1.5582776e-20)
(-0.38027244 0.12160962 5.8102349e-20)
(-0.39138492 0.10663227 -1.380512e-19)
(-0.39827901 0.090089707 -8.1555508e-20)
(-0.40008727 0.07219654 -5.2412893e-20)
(-0.39599551 0.053187645 1.6270613e-19)
(-0.38520125 0.033418867 1.044655e-19)
(-0.36692218 0.013382339 1.2143823e-19)
(-0.34055005 -0.0063570195 2.1032113e-19)
(-0.30581363 -0.025381449 -7.2250219e-20)
(-0.26261841 -0.043587174 1.5176038e-20)
(-0.21086892 -0.061048582 1.2129212e-19)
(-0.15063216 -0.077760773 3.5855677e-19)
(-0.082180702 -0.093579288 2.391212e-19)
(-0.0062536462 -0.10840288 9.5564314e-20)
(0.076636565 -0.1221661 2.8370953e-19)
(0.16534899 -0.13485082 -1.9574266e-19)
(0.25964775 -0.1454777 2.0501729e-20)
(0.35638652 -0.15321996 3.3099675e-19)
(0.45498738 -0.15544141 2.2968434e-19)
(0.54846714 -0.1527165 1.0937305e-20)
(0.63888047 -0.14273619 -3.8035483e-19)
(0.71568249 -0.13077998 4.0148875e-20)
(0.78940831 -0.11442625 -5.8558066e-20)
(-0.00060876446 0.0027684033 -1.1784348e-20)
(-0.0018843365 0.0085356248 5.4933294e-21)
(-0.003293402 0.014856739 -7.4252766e-21)
(-0.0048484291 0.021770383 -4.2233638e-21)
(-0.0065623991 0.029314014 1.1798234e-20)
(-0.0084492003 0.037522586 1.1027163e-20)
(-0.010523475 0.046426792 -1.1334e-20)
(-0.012800454 0.056050906 1.3656646e-21)
(-0.015295858 0.066410052 3.1713231e-22)
(-0.018025748 0.077506889 2.2613174e-20)
(-0.021006339 0.089327648 -2.4920157e-21)
(-0.02425379 0.10183752 -4.598089e-20)
(-0.027783984 0.11497543 3.6966436e-20)
(-0.03161231 0.12864847 -1.2841781e-21)
(-0.035753499 0.14272626 -2.514348e-20)
(-0.040221548 0.15703587 -2.1862398e-21)
(-0.045029824 0.17135844 5.6201176e-21)
(-0.050191413 0.18542861 2.5649512e-20)
(-0.055719822 0.19893877 -4.7645508e-20)
(-0.061630109 0.21154999 8.506082e-20)
(-0.067940462 0.2229116 -1.866815e-20)
(-0.074674172 0.23269037 1.3927501e-20)
(-0.081861772 0.24060822 -1.1694789e-20)
(-0.089542907 0.24648426 4.6661016e-22)
(-0.097767459 0.2502728 -7.1503378e-20)
(-0.1065961 0.25208431 -7.2402568e-20)
(-0.11609424 0.25217462 1.453422e-19)
(-0.12631456 0.25088463 2.4460399e-20)
(-0.13730844 0.24852393 -8.6344314e-20)
(-0.14913048 0.24530871 -3.0988561e-20)
(-0.16180161 0.24141242 -7.0460626e-20)
(-0.17531687 0.23696851 8.0308557e-20)
(-0.18965591 0.23204939 3.5323517e-20)
(-0.20476774 0.22667122 -8.2641576e-20)
(-0.22056501 0.22080159 3.4966808e-20)
(-0.23691384 0.21436382 1.6342518e-20)
(-0.25362216 0.20724046 -4.9282789e-20)
(-0.27042651 0.19927735 -1.2888677e-19)
(-0.28697747 0.19028946 -3.9074827e-20)
(-0.30282255 0.18006828 2.6201157e-20)
(-0.31739088 0.16839213 6.2040205e-20)
(-0.32998555 0.15504398 6.378493e-20)
(-0.33979265 0.13985602 7.0154743e-20)
(-0.34596527 0.1227973 1.4611692e-19)
(-0.34774054 0.10402576 -3.9794236e-21)
(-0.34438432 0.083778237 6.0646091e-20)
(-0.33516693 0.062298105 -3.2415049e-19)
(-0.31925624 0.039931202 -8.8934167e-20)
(-0.29577459 0.017229157 -1.0076798e-19)
(-0.26418313 -0.0050928178 -2.7747809e-19)
(-0.22434518 -0.026498466 3.2317391e-19)
(-0.17625434 -0.046879272 -7.2170197e-20)
(-0.11989019 -0.06632619 -2.33086e-19)
(-0.055449564 -0.084816303 -2.891061e-19)
(0.016610964 -0.1021585 -3.7293949e-20)
(0.095373902 -0.11827131 9.4917383e-20)
(0.18027789 -0.13311119 1.5553452e-19)
(0.27009625 -0.14674254 -6.6738289e-20)
(0.36451118 -0.15799939 1.2242716e-19)
(0.46005463 -0.16597757 -1.0416414e-19)
(0.55553213 -0.16776884 -3.5692025e-20)
(0.64413767 -0.16397409 -1.0708479e-19)
(0.72689019 -0.15239825 4.7428684e-19)
(0.79469755 -0.1387165 1.5461393e-20)
(0.85697605 -0.12013035 1.925545e-19)
(-0.0007251448 0.0028706907 1.0949179e-20)
(-0.0022409282 0.0088577746 2.0168469e-21)
(-0.0039096707 0.015428446 -2.217712e-21)
(-0.0057443039 0.02262578 -1.0907794e-20)
(-0.0077581345 0.030492317 1.3093677e-20)
(-0.0099649209 0.03906891 -1.1131482e-20)
(-0.012378652 0.048393038 -5.3268254e-21)
(-0.015013292 0.058496725 2.8633085e-22)
(-0.017882521 0.069403862 4.5152353e-21)
(-0.020999399 0.081126906 2.5743289e-20)
(-0.024375991 0.093662828 -4.3362835e-20)
(-0.028022937 0.10698829 5.2304339e-20)
(-0.031949003 0.12105401 -1.5434124e-20)
(-0.036160642 0.13577853 -2.1063947e-20)
(-0.040661623 0.15104147 3.252936e-20)
(-0.04545281 0.16667705 -6.4644081e-20)
(-0.050532199 0.18246858 7.9094268e-20)
(-0.05589538 0.19814548 1.2537031e-21)
(-0.06153655 0.2133846 4.6418609e-20)
(-0.067450281 0.22781835 -1.8691553e-19)
(-0.073634063 0.24105209 4.597884e-20)
(-0.080091643 0.25269275 1.9332432e-19)
(-0.086836772 0.26238893 -9.3004378e-20)
(-0.093896793 0.26987927 -1.1283348e-19)
(-0.10131501 0.27504114 2.88829e-20)
(-0.10915063 0.27792586 1.5332427e-19)
(-0.11747481 0.27876229 -2.3590045e-19)
(-0.1263572 0.27790983 2.6505771e-19)
(-0.13584696 0.27575395 -2.1120559e-19)
(-0.1459929 0.27258949 4.0882806e-20)
(-0.15683045 0.26860781 -7.0639443e-20)
(-0.16835137 0.26395812 -1.0132892e-19)
(-0.1805243 0.2587404 4.0441294e-20)
(-0.19328544 0.25298681 1.0611514e-20)
(-0.20653045 0.24666636 1.5104052e-19)
(-0.22010624 0.23969507 -2.9657326e-20)
(-0.23379918 0.23194169 7.5972452e-20)
(-0.2473223 0.22323279 -6.4355371e-20)
(-0.26030097 0.21335923 3.8485233e-20)
(-0.27225751 0.20208461 2.4922103e-20)
(-0.28260035 0.18916003 2.1288396e-20)
(-0.29062564 0.17435079 2.1108121e-20)
(-0.29554338 0.15749808 -1.2797293e-19)
(-0.29659859 0.13862096 -9.9834299e-20)
(-0.29312214 0.11793507 2.8000226e-20)
(-0.2844918 0.095673704 -1.7485526e-20)
(-0.26998865 0.072041037 7.2684627e-20)
(-0.24869638 0.047342728 -1.4246468e-19)
(-0.21978985 0.02221807 -1.6433588e-19)
(-0.18296711 -0.0024485915 -4.7375205e-20)
(-0.1382497 -0.026025013 -1.2457439e-19)
(-0.085664103 -0.04838693 4.0026088e-21)
(-0.02521776 -0.069638737 6.0663377e-20)
(0.042777213 -0.089724103 2.9625951e-19)
(0.11772486 -0.10839947 -1.4954364e-19)
(0.19862763 -0.12561011 6.1014148e-20)
(0.28496456 -0.14133302 -1.8165493e-19)
(0.37558456 -0.15568432 3.0959934e-19)
(0.47000085 -0.16728762 -1.8043881e-19)
(0.56437105 -0.17499079 6.3121349e-20)
(0.65659988 -0.17585229 -7.9989848e-23)
(0.73987155 -0.17051061 5.1256178e-20)
(0.81399971 -0.15717188 1.9214788e-19)
(0.87138055 -0.14183281 -3.6547711e-19)
(0.92014337 -0.1212571 3.7625291e-19)
(-0.00082393602 0.0028765156 -2.420798e-20)
(-0.0025440354 0.0088836928 -1.139826e-20)
(-0.0044340252 0.015486469 1.79071e-20)
(-0.0065073635 0.022731552 -4.7176859e-22)
(-0.008777808 0.030665922 -1.6223927e-20)
(-0.01125921 0.039335961 -8.4949158e-21)
(-0.013965238 0.048785924 1.7938746e-20)
(-0.016909065 0.059056058 -2.9512391e-21)
(-0.020102949 0.070180135 4.1735612e-20)
(-0.023557756 0.08218233 -8.1627804e-21)
(-0.027282391 0.095073305 -2.0936945e-22)
(-0.031283161 0.1088454 3.0299691e-20)
(-0.035563084 0.12346686 -9.7714746e-20)
(-0.040121185 0.13887512 4.5877086e-20)
(-0.04495185 0.15496922 8.2940252e-20)
(-0.050044329 0.17160192 -8.9334832e-20)
(-0.055382549 0.18857211 1.1124386e-20)
(-0.060945424 0.2056188 -6.4150689e-20)
(-0.066707923 0.22241879 -4.8421208e-20)
(-0.07264312 0.23859045 1.5501917e-19)
(-0.078725481 0.25370678 -1.1862378e-19)
(-0.084935362 0.26732093 1.5926247e-19)
(-0.09126449 0.27900572 -1.9115636e-20)
(-0.097721624 0.28840605 7.9572348e-20)
(-0.10433707 0.29529763 -1.7642119e-19)
(-0.1111641 0.29963848 4.2535947e-20)
(-0.11827484 0.30159282 1.0909781e-19)
(-0.12574826 0.30150363 -2.6771713e-19)
(-0.13365297 0.29980176 1.1800417e-19)
(-0.14202938 0.29687836 1.2831246e-19)
(-0.15090489 0.2929992 -1.0722017e-19)
(-0.16028899 0.28833658 -1.4332705e-20)
(-0.17014122 0.28299694 7.3180842e-20)
(-0.18038331 0.27702698 -4.0825746e-20)
(-0.19089842 0.27040798 6.3004999e-20)
(-0.20151574 0.26305461 -2.2301486e-19)
(-0.2119998 0.25482514 1.1768102e-19)
(-0.22203971 0.24552926 7.1084433e-20)
(-0.23123554 0.23493544 1.4619954e-19)
(-0.23908595 0.22278259 1.9209168e-20)
(-0.2449825 0.20880053 -1.5715783e-19)
(-0.2482221 0.1927482 6.3154585e-20)
(-0.24805202 0.17449231 9.2886488e-20)
(-0.24380408 0.15410558 1.4566542e-20)
(-0.23487791 0.13184837 -8.8725262e-20)
(-0.22070533 0.10793773 -7.7327239e-20)
(-0.20052954 0.08250365 2.330169e-19)
(-0.17345571 0.055831937 1.223608e-19)
(-0.13896393 0.02866006 2.6380545e-19)
(-0.097065736 0.0020050272 9.2230277e-20)
(-0.047864827 -0.023445074 3.5702021e-20)
(0.0086506623 -0.047581036 2.6479922e-19)
(0.072486082 -0.070481528 1.0473243e-19)
(0.14327089 -0.092021414 -3.5388795e-19)
(0.2203582 -0.11188904 2.8623782e-19)
(0.30279151 -0.13006097 -2.6550667e-19)
(0.39027237 -0.146521 1.2847818e-19)
(0.48181636 -0.16134489 -6.2644029e-19)
(0.57654297 -0.17291259 -3.1591224e-19)
(0.67003777 -0.17994883 1.2864017e-19)
(0.75871981 -0.1795061 2.0265811e-19)
(0.83515531 -0.17232689 3.4025075e-19)
(0.89844603 -0.15709398 5.9910778e-20)
(0.94266353 -0.14013523 4.7291252e-20)
(0.97486307 -0.11798977 -5.025822e-19)
(-0.00089613041 0.0027872122 -4.3493305e-22)
(-0.0027660056 0.0086168128 2.1088973e-20)
(-0.0048185745 0.015035682 -2.48793e-20)
(-0.0070678167 0.022093067 -1.1983723e-20)
(-0.0095280109 0.029839404 2.402778e-20)
(-0.012213294 0.038325796 7.7933402e-21)
(-0.015137354 0.047602724 -3.7859617e-20)
(-0.018313079 0.057718487 4.0826235e-20)
(-0.021752036 0.068717083 8.6347081e-21)
(-0.025463861 0.080635447 3.4456809e-20)
(-0.029455548 0.093499891 -9.1844336e-20)
(-0.033730618 0.10732158 -1.1266174e-21)
(-0.038288207 0.1220909 8.3337043e-20)
(-0.043122082 0.13777064 -9.0064331e-20)
(-0.048219669 0.15428793 6.5000183e-20)
(-0.053561182 0.17152522 2.433343e-20)
(-0.05911904 0.18931074 -5.1407779e-20)
(-0.064857778 0.20740954 4.6995454e-20)
(-0.070734794 0.22551691 6.346497e-20)
(-0.076702311 0.24325662 -1.3706052e-21)
(-0.082710847 0.26018783 -1.0344301e-19)
(-0.088714525 0.27582423 6.5099327e-20)
(-0.094677999 0.28966931 -3.6932189e-20)
(-0.10058437 0.30126857 -1.8193768e-19)
(-0.10644253 0.31027538 -6.1814724e-20)
(-0.11229157 0.31651862 1.7091049e-19)
(-0.11819894 0.32005161 -1.7329856e-20)
(-0.12424898 0.32115387 1.9880403e-19)
(-0.13052265 0.3202611 -1.1947823e-19)
(-0.13707659 0.31783814 6.3856481e-20)
(-0.14393992 0.31426102 -9.3844593e-20)
(-0.15110433 0.30976608 -2.3109763e-20)
(-0.15852759 0.30448568 1.1789605e-19)
(-0.16613628 0.2984827 -1.2309018e-19)
(-0.17379909 0.29174538 -1.8194461e-19)
(-0.18132724 0.28418685 1.8873124e-20)
(-0.18846447 0.27565698 2.0091639e-19)
(-0.19487565 0.26595089 -2.5936425e-19)
(-0.2001349 0.25481996 5.6565702e-20)
(-0.2037175 0.24198336 -1.2131137e-19)
(-0.20500185 0.22715686 1.8710083e-20)
(-0.20329075 0.21010249 -1.9023888e-19)
(-0.19787846 0.19071821 -9.1168421e-20)
(-0.18814843 0.16913895 -1.123757e-19)
(-0.17355109 0.14565431 4.50752e-19)
(-0.15353046 0.12045248 1.4582241e-19)
(-0.12732332 0.093608159 -1.9334842e-19)
(-0.094289814 0.065412497 1.5630092e-19)
(-0.054351504 0.036689597 1.3002326e-19)
(-0.00774697 0.0084913535 -1.4634105e-19)
(0.045428015 -0.018527569 -7.646368e-20)
(0.10526209 -0.044248707 -1.7949848e-19)
(0.17182709 -0.068657591 -8.7390075e-20)
(0.24478269 -0.091535298 2.9954807e-19)
(0.32353229 -0.112502 1.6936222e-19)
(0.40735391 -0.13155887 2.7345249e-20)
(0.49630043 -0.14868229 -1.2159914e-21)
(0.58956404 -0.16377286 1.5521653e-19)
(0.68536432 -0.17496559 -2.2535543e-19)
(0.7778119 -0.18062063 -2.9351904e-19)
(0.86107561 -0.17817714 -8.263921e-20)
(0.92724644 -0.1688499 -6.2891726e-19)
(0.97565692 -0.15207584 -5.0157044e-19)
(1.0022593 -0.1344177 -1.2788505e-19)
(1.0145815 -0.112527 -6.8214741e-20)
(-0.00093428383 0.0026098861 1.4674171e-20)
(-0.0028838917 0.0080782116 8.8192436e-21)
(-0.0050234264 0.014111416 -1.8353788e-20)
(-0.0073672916 0.02075993 3.1482349e-20)
(-0.0099302609 0.028076294 7.8892114e-21)
(-0.012726865 0.036115044 -3.3843239e-20)
(-0.015771079 0.044931727 1.7325939e-22)