/*--------------------------------*- C++ -*----------------------------------*\
  =========                 |
  \\      /  F ield         | OpenFOAM: The Open Source CFD Toolbox
   \\    /   O peration     | Website:  https://openfoam.org
    \\  /    A nd           | Version:  13
     \\/     M anipulation  |
\*---------------------------------------------------------------------------*/
FoamFile
{
    format      ascii;
    class       volSymmTensorField;
    location    "27.398675";
    object      UPrime2Mean;
}
// * * * * * * * * * * * * * * * * * * * * * * * * * * * * * * * * * * * * * //

dimensions      [0 2 -2 0 0 0 0];

internalField   nonuniform List<symmTensor> 
17140
(
(5.0154098e-12 -2.8135058e-10 -1.9191701e-27 1.76375e-08 2.9848793e-26 1.0961113e-40)
(5.5821243e-10 -5.7151736e-09 -8.9433168e-28 1.6746649e-07 6.3271442e-27 9.3996776e-43)
(5.0128867e-09 -2.5808424e-08 1.4922493e-25 5.0694784e-07 -6.6200512e-25 4.096099e-39)
(2.3621041e-08 -7.5907721e-08 -3.2335881e-25 1.0875617e-06 1.0156853e-24 4.9479126e-39)
(7.9026406e-08 -1.7771245e-07 6.5342899e-26 1.9698603e-06 -1.5591755e-25 6.7579835e-41)
(2.1642334e-07 -3.6245592e-07 -3.4155129e-25 3.2239975e-06 6.4613044e-25 7.233217e-40)
(5.1951228e-07 -6.733626e-07 -8.7219377e-25 4.9298904e-06 1.3414566e-24 2.048269e-39)
(1.1352647e-06 -1.1684398e-06 6.2229342e-25 7.1768025e-06 -7.912609e-25 4.8763715e-40)
(2.3117125e-06 -1.9233538e-06 2.8965132e-24 1.0062079e-05 -3.0810518e-24 5.2170394e-39)
(4.4540765e-06 -3.0338405e-06 9.8840322e-24 1.368875e-05 -8.8753012e-24 3.1331973e-38)
(8.2060665e-06 -4.6169067e-06 -2.0034892e-23 1.8161685e-05 1.5293444e-23 6.8749976e-38)
(1.4564605e-05 -6.8097709e-06 2.4060427e-23 2.3582005e-05 -1.5698493e-23 5.4461257e-38)
(2.5037225e-05 -9.7651217e-06 4.9050013e-24 3.0039553e-05 -2.7469362e-24 1.2718983e-39)
(4.185121e-05 -1.3640982e-05 -3.6532384e-23 3.7603401e-05 1.7627445e-23 4.0529613e-38)
(6.8221521e-05 -1.8583459e-05 5.2965759e-24 4.6310673e-05 -2.2072187e-24 4.9733481e-40)
(0.00010867949 -2.4701136e-05 -5.4312623e-23 5.6154405e-05 1.9592441e-23 3.1035151e-38)
(0.00016945538 -3.2031297e-05 2.5917407e-24 6.7071638e-05 -8.1104494e-25 4.2705725e-41)
(0.00025889562 -4.0500763e-05 -7.4763703e-25 7.8933435e-05 2.0227732e-25 2.1221484e-42)
(0.00038788141 -4.9888264e-05 -6.6486476e-23 9.1538777e-05 1.567777e-23 1.058044e-38)
(0.00057020552 -5.9800087e-05 1.0802585e-22 0.00010461419 -2.2149516e-23 1.7562824e-38)
(0.00082286596 -6.9674806e-05 -6.4655781e-23 0.00011782034 1.1529218e-23 4.0102361e-39)
(0.0011662568 -7.8832245e-05 1.5134883e-23 0.0001307662 -2.3525298e-24 1.4335488e-40)
(0.0016243603 -8.6577638e-05 1.359965e-22 0.00014303121 -1.8379849e-23 7.6129124e-39)
(0.0022252774 -9.2355276e-05 -1.6335183e-22 0.00015419754 1.9220289e-23 7.3814176e-39)
(0.0030011173 -9.5840796e-05 -3.0974769e-22 0.00016389922 3.1732966e-23 1.8205618e-38)
(0.0039885641 -9.6845441e-05 2.9319034e-22 0.00017188723 -2.6167598e-23 1.143028e-38)
(0.0052329361 -9.5710296e-05 1.6822202e-21 0.00017806356 -1.3059119e-22 2.6806784e-37)
(0.0067895172 -9.267526e-05 2.2989589e-22 0.00018250411 -1.548977e-23 3.6213989e-39)
(0.0087230523 -8.7368182e-05 -2.315005e-21 0.00018543307 1.3552604e-22 2.7236675e-37)
(0.01111148 -7.9824221e-05 -6.1927715e-22 0.00018719897 3.1358858e-23 1.4577527e-38)
(0.0140484 -6.9997529e-05 -2.5107527e-21 0.00018818425 1.0978249e-22 1.8242585e-37)
(0.017644066 -5.7364356e-05 3.7371573e-21 0.00018870037 -1.4065284e-22 3.1178702e-37)
(0.022026653 -4.1109038e-05 -1.0985051e-21 0.00018893102 3.5393224e-23 2.0954241e-38)
(0.027342961 -2.0166146e-05 -5.8818052e-22 0.00018892113 1.6180685e-23 4.7522791e-39)
(0.033758347 6.7057031e-06 -6.4753615e-21 0.00018860804 1.5065235e-22 4.5756759e-37)
(0.041455027 4.0958908e-05 3.1604381e-21 0.00018788519 -6.188392e-23 8.804321e-38)
(0.050627323 8.4379096e-05 -5.2890819e-21 0.00018666254 8.6040282e-23 2.0010376e-37)
(0.061472191 0.00013923321 -3.9539125e-21 0.00018491481 5.2761201e-23 9.1829808e-38)
(0.074172834 0.00020846996 -1.9911003e-21 0.00018274715 2.1384963e-23 1.9292285e-38)
(0.088873162 0.00029596383 6.5863155e-21 0.00018044315 -5.5679058e-23 1.7745262e-37)
(0.1056423 0.00040642858 1.3513772e-20 0.00017848685 -8.6456183e-23 6.3197392e-37)
(0.12442941 0.00054498935 1.3242224e-20 0.0001775007 -6.0486453e-23 5.1932937e-37)
(0.1450158 0.00071571743 6.199405e-21 0.00017808472 -1.8160437e-23 9.8577875e-38)
(0.16699192 0.00091996406 -3.2210448e-20 0.00018071936 4.6300392e-23 2.3199456e-36)
(0.18973854 0.0011537416 -2.4931714e-20 0.00018579462 2.1186026e-24 1.229625e-36)
(0.21247845 0.0014034155 6.4325119e-21 0.00019358423 7.420278e-24 7.3448147e-38)
(0.23445775 0.0016543218 -4.5585947e-20 0.00020436318 -1.0539776e-22 3.3501358e-36)
(0.25482764 0.0018912945 -1.6008361e-20 0.00021834483 -5.4486853e-23 3.806844e-37)
(0.27286489 0.0021012964 1.6722504e-20 0.00023548388 7.4403015e-23 3.8874151e-37)
(0.28815774 0.0022735725 4.1624885e-20 0.00025559777 2.2712495e-22 2.2889183e-36)
(0.30037883 0.0024020643 -2.5840592e-20 0.0002788145 -1.6619513e-22 8.5226854e-37)
(0.30921837 0.0024917553 -1.6306037e-20 0.00030659408 -1.2047491e-22 3.3335736e-37)
(0.31453165 0.0025733193 4.2152594e-20 0.00033961538 3.546982e-22 2.2244149e-36)
(0.31641589 0.0026595141 1.9574908e-20 0.00037811272 1.8614431e-22 4.8761968e-37)
(0.31525519 0.0027416424 1.3577563e-20 0.00042361191 1.4513754e-22 2.4320515e-37)
(0.31179409 0.002827367 -1.0315327e-20 0.00048030684 -1.2372965e-22 1.4754492e-37)
(0.30672512 0.0029293726 2.6517708e-20 0.00055478976 3.5523836e-22 1.0563353e-36)
(0.30029532 0.003054287 2.0953541e-20 0.00065984716 3.1242966e-22 7.258775e-37)
(0.29243772 0.003187037 4.8999603e-21 0.00081577787 8.0553083e-23 4.494102e-38)
(0.28256187 0.0032926361 -1.1701146e-20 0.0010441312 -2.0783582e-22 2.9524447e-37)
(0.269787 0.0032913818 -8.323771e-21 0.001330348 -1.5471053e-22 1.7931823e-37)
(0.25416829 0.0030707492 -2.7688549e-20 0.0015908643 -5.0562692e-22 2.4391892e-36)
(0.23336089 0.0025520356 -3.5818028e-21 0.0017068253 -5.949278e-23 5.2253327e-38)
(0.21143012 0.0017852445 2.6349278e-20 0.00168273 3.505469e-22 3.6892452e-36)
(0.18044871 0.0010396989 -1.7163586e-20 0.0016702303 -1.80798e-22 2.204268e-36)
(3.4458039e-10 -8.0515499e-09 2.5202351e-27 1.8818049e-07 -4.9789873e-26 8.8766937e-42)
(5.5412025e-09 -9.8861023e-08 -8.1520635e-25 1.7744399e-06 1.2856999e-23 1.1278858e-37)
(2.5032312e-08 -3.6303824e-07 1.404572e-24 5.3381341e-06 -1.8074174e-23 8.9280598e-38)
(7.8332208e-08 -9.3358931e-07 -6.4009707e-25 1.1374265e-05 6.8426529e-24 6.6320457e-39)
(2.0096822e-07 -1.9970739e-06 -2.0487588e-24 2.0445567e-05 1.8499165e-23 2.8284385e-38)
(4.5626692e-07 -3.8192839e-06 5.7852373e-24 3.3175934e-05 -4.4669748e-23 1.0319228e-37)
(9.5253187e-07 -6.7680248e-06 -8.6243464e-24 5.0237126e-05 5.7387572e-23 1.1202686e-37)
(1.8690904e-06 -1.1340233e-05 1.0594646e-24 7.2325229e-05 -6.1074791e-24 8.6670905e-40)
(3.4952883e-06 -1.8193094e-05 -4.5308315e-24 0.00010012394 2.2714779e-23 8.4356189e-39)
(6.287407e-06 -2.817639e-05 -1.0382873e-25 0.00013425191 4.5406377e-25 2.4057319e-42)
(1.094993e-05 -4.2362422e-05 -2.7203057e-23 0.0001751922 1.0400539e-22 9.3652765e-38)
(1.8548849e-05 -6.2067702e-05 5.7009175e-23 0.00022320338 -1.9092767e-22 2.3578892e-37)
(3.066559e-05 -8.8858164e-05 6.1561679e-24 0.00027821547 -1.8086693e-23 1.6027803e-39)
(4.9599885e-05 -0.00012452688 -7.8806304e-23 0.00033971828 2.0333815e-22 1.5542269e-37)
(7.8627978e-05 -0.00017103177 3.1157978e-23 0.00040665699 -7.0660046e-23 1.4573337e-38)
(0.00012231782 -0.00023038141 2.5302766e-23 0.00047735754 -5.0456775e-23 5.8319924e-39)
(0.00018689492 -0.00030446246 -2.0389019e-22 0.00054951202 3.5757667e-22 2.3239587e-37)
(0.00028064098 -0.0003948141 8.375662e-22 0.00062025827 -1.2918753e-21 2.4364247e-36)
(0.00041429523 -0.00050237577 -6.5647437e-22 0.00068638329 8.9038029e-22 9.4097301e-37)
(0.00060141955 -0.00062726269 9.7705253e-22 0.00074466104 -1.1649798e-21 1.3267796e-36)
(0.00085869077 -0.000768652 -1.777769e-21 0.00079230022 1.8630389e-21 2.8363258e-36)
(0.0012061043 -0.00092487495 5.3204943e-22 0.00082742688 -4.8996897e-22 1.6655491e-37)
(0.0016671852 -0.0010938102 2.6504859e-22 0.00084947786 -2.1448091e-22 2.7563293e-38)
(0.0022695349 -0.0012736202 -1.0386806e-21 0.00085936482 7.3841512e-22 2.8658276e-37)
(0.0030448672 -0.0014633586 4.4308932e-21 0.00085932797 -2.7683037e-21 3.6038877e-36)
(0.0040293228 -0.00166327 7.7832893e-22 0.00085236311 -4.2725517e-22 7.7981852e-38)
(0.0052675483 -0.0018753476 -4.6922822e-21 0.00084107979 2.2655402e-21 2.0387768e-36)
(0.0068143101 -0.0021024324 6.0865694e-21 0.00082761248 -2.5830312e-21 2.4998493e-36)
(0.008733466 -0.0023467829 -9.5893899e-22 0.00081398337 3.5780504e-22 4.6274977e-38)
(0.01110185 -0.0026110192 -1.0756527e-20 0.00080142694 3.5195819e-21 4.3501116e-36)
(0.014011679 -0.0028973389 1.2654565e-21 0.00079035392 -3.6314609e-22 4.6106751e-38)
(0.01757146 -0.0032066957 1.1000452e-20 0.00078061503 -2.7616827e-21 2.6752515e-36)
(0.021907198 -0.0035389083 3.1756351e-22 0.0007717175 -6.9408288e-23 1.6817213e-39)
(0.027163008 -0.0038925949 -1.0385117e-20 0.00076300624 1.9905084e-21 1.4705361e-36)
(0.033500855 -0.0042649339 1.2960687e-20 0.00075375521 -2.1667984e-21 1.8295514e-36)
(0.041098634 -0.0046510002 -6.5080851e-21 0.00074320183 9.4755764e-22 3.7156994e-37)
(0.050145082 -0.0050426473 8.4831906e-21 0.00073055656 -1.0744053e-21 5.1652972e-37)
(0.060829869 -0.005427027 2.9846072e-20 0.0007150421 -3.2791814e-21 5.2476995e-36)
(0.073326843 -0.0057848765 7.3642916e-21 0.00069602341 -6.9991263e-22 2.6456642e-37)
(0.087768023 -0.0060889005 3.1476018e-20 0.0006732352 -2.5787964e-21 4.0608791e-36)
(0.10420762 -0.006303194 -4.3818304e-20 0.0006471757 3.0792391e-21 6.6844359e-36)
(0.12257698 -0.0063851835 -4.3660918e-20 0.00061967219 2.6135222e-21 5.6704848e-36)
(0.14263765 -0.0062914867 -8.0599407e-21 0.00059450701 4.0739183e-22 1.6599693e-37)
(0.16395483 -0.0059873507 6.8436267e-20 0.00057784768 -2.8781776e-21 1.0585048e-35)
(0.18588021 -0.0054589194 -3.4384896e-20 0.00057820505 1.1833944e-21 2.3564016e-36)
(0.20762845 -0.0047291335 -1.2544066e-20 0.0006050306 3.4484746e-22 2.809661e-37)
(0.22835943 -0.0038449925 6.97308e-21 0.00066449584 -1.4732976e-22 7.9898112e-38)
(0.24727892 -0.0028661414 2.2565928e-20 0.00075358914 -3.4483849e-22 7.6830117e-37)
(0.26374286 -0.0018744635 -1.1317505e-20 0.00086114577 1.1276834e-22 1.8141273e-37)
(0.27728117 -0.00092624702 2.0876288e-20 0.00097385686 -1.0420291e-22 5.8737024e-37)
(0.28758694 -3.7693642e-05 1.2666256e-19 0.0010818604 -4.8438822e-23 2.0960318e-35)
(0.29446166 0.00078173242 6.0403116e-21 0.0011848359 2.4479975e-23 4.7080765e-38)
(0.2978783 0.0015128828 -2.6969928e-20 0.0012871844 -2.2027629e-22 9.4009404e-37)
(0.29807494 0.0021181235 5.8888534e-20 0.0013922089 7.2652843e-22 4.5767109e-36)
(0.29566846 0.002553861 -4.8879733e-20 0.0015004379 -8.090798e-22 3.2809853e-36)
(0.29143917 0.0028320719 1.334859e-19 0.0016083407 2.7840139e-21 2.5972642e-35)
(0.28619899 0.0030263227 3.6290211e-20 0.0017117362 9.2387368e-22 2.0788129e-36)
(0.28030975 0.0032166299 -9.6186355e-20 0.0018161799 -2.9091221e-21 1.6229038e-35)
(0.27367186 0.0034957132 1.5243437e-20 0.0019407314 5.4246423e-22 4.6154237e-37)
(0.26563004 0.0038653805 1.595708e-20 0.0021124588 6.5070404e-22 5.94262e-37)
(0.25496352 0.0042761691 2.8957216e-21 0.0023326698 1.3257802e-22 2.3722924e-38)
(0.2415255 0.0045659273 -3.4438831e-20 0.0025368963 -1.726785e-21 4.1663487e-36)
(0.22250317 0.0045722235 5.8712753e-20 0.0025933844 3.123328e-21 1.5786358e-35)
(0.20220395 0.0044229449 1.5244657e-20 0.0025397399 8.4247078e-22 1.4143199e-36)
(0.17187736 0.0038416761 2.1013705e-20 0.00251552 1.2552075e-21 3.9054206e-36)
(2.9822792e-09 -4.2573783e-08 3.7201436e-25 6.0777469e-07 -5.0024808e-24 2.6980612e-38)
(3.3985777e-08 -4.4131673e-07 -5.7393058e-25 5.7323074e-06 7.0790631e-24 1.0303507e-38)
(1.208492e-07 -1.4431731e-06 -2.6359776e-25 1.7248543e-05 2.9720074e-24 7.2849607e-40)
(3.0691341e-07 -3.3563264e-06 3.7976308e-25 3.6763265e-05 -3.9111092e-24 6.546619e-40)
(6.596511e-07 -6.5949719e-06 -2.6340117e-24 6.6105839e-05 2.479693e-23 1.5364485e-38)
(1.2854854e-06 -1.1722995e-05 -2.7090763e-25 0.00010730894 2.331902e-24 8.4879657e-41)
(2.3493169e-06 -1.9493748e-05 -4.6681102e-24 0.00016256707 3.6698436e-23 1.3847028e-38)
(4.1028283e-06 -3.0896142e-05 -6.6727778e-24 0.00023416208 4.7830814e-23 1.6056595e-38)
(6.9254083e-06 -4.7206941e-05 7.1409003e-23 0.0003243458 -4.6578627e-22 1.0710848e-36)
(1.1381914e-05 -7.0044261e-05 -8.2672507e-23 0.00043517054 4.8971245e-22 8.5237007e-37)
(1.8302832e-05 -0.00010141609 5.0897944e-23 0.00056825994 -2.7324178e-22 1.9477506e-37)
(2.8893357e-05 -0.000143754 9.5343328e-23 0.00072451844 -4.6296246e-22 4.1700555e-37)
(4.4878547e-05 -0.00019991826 -2.4037934e-22 0.00090378715 1.0537018e-21 1.6341053e-36)
(6.8691407e-05 -0.00027315609 -3.7663063e-23 0.0011044703 1.4875445e-22 2.4926752e-38)
(0.00010370898 -0.00036699235 1.8315407e-22 0.0013231781 -6.5054402e-22 3.6953575e-37)
(0.00015453764 -0.0004850332 1.5794466e-22 0.0015544599 -5.0354668e-22 1.7339217e-37)
(0.00022734225 -0.00063067191 -2.2869476e-22 0.0017907266 6.5318323e-22 2.31088e-37)
(0.00033020477 -0.00080670622 1.0287462e-21 0.0020224804 -2.6272654e-21 2.9948291e-36)
(0.00047348823 -0.0010149109 -7.5135079e-22 0.0022389576 1.7125814e-21 1.0323241e-36)
(0.00067017622 -0.001255657 4.5652549e-22 0.0024292375 -9.2703794e-22 2.4844109e-37)
(0.00093616144 -0.0015277182 -1.8777709e-21 0.0025837547 3.3915076e-21 2.7734894e-36)
(0.0012904742 -0.0018284275 -5.9142119e-22 0.0026959853 9.4862483e-22 1.8374823e-37)
(0.0017555286 -0.0021543429 1.4815977e-21 0.0027638998 -2.107712e-21 7.8154339e-37)
(0.0023576925 -0.0025025151 -2.6556638e-21 0.0027906776 3.3465696e-21 1.7268049e-36)
(0.0031276462 -0.0028717004 -1.2356382e-21 0.0027843128 1.3777324e-21 2.6090912e-37)
(0.0041001195 -0.0032627637 1.7342882e-21 0.002755719 -1.7106234e-21 3.671371e-37)
(0.0053180754 -0.003679561 1.1447403e-20 0.0027148395 -9.9756086e-21 1.1550403e-35)
(0.0068348187 -0.0041278196 5.9777417e-21 0.0026693841 -4.5984637e-21 2.3117535e-36)
(0.008711862 -0.0046124564 -3.4122551e-21 0.0026254638 2.3162032e-21 5.6491489e-37)
(0.011023237 -0.0051386676 4.1781362e-21 0.0025865865 -2.4961741e-21 6.3635972e-37)
(0.013857497 -0.005710893 -2.951991e-21 0.0025535799 1.5528776e-21 2.4608459e-37)
(0.01731866 -0.0063315161 -1.8960114e-20 0.0025255019 8.7562798e-21 7.8235858e-36)
(0.021527106 -0.0070008944 7.1518816e-21 0.0025004814 -2.8983414e-21 8.7365831e-37)
(0.026619992 -0.0077171891 2.3986644e-20 0.0024763067 -8.5202804e-21 7.783113e-36)
(0.032750594 -0.0084757967 -8.9298201e-21 0.0024506005 2.7790915e-21 8.6973101e-37)
(0.040085785 -0.0092680477 -1.3971083e-20 0.0024207538 3.8022269e-21 1.7152734e-36)
(0.048800282 -0.010079104 2.690139e-20 0.0023837883 -6.3956345e-21 5.1931103e-36)
(0.059065873 -0.010885187 9.1032298e-21 0.0023363406 -1.887104e-21 4.8850716e-37)
(0.071033623 -0.01165038 -1.7796239e-20 0.002274952 3.2115736e-21 1.5636371e-36)
(0.084806964 -0.012323666 -7.8167238e-21 0.0021968224 1.224232e-21 2.5436899e-37)
(0.10040496 -0.012837848 4.1067789e-20 0.0021012787 -5.5577808e-21 5.9416074e-36)
(0.11771749 -0.013113119 -1.2571665e-20 0.0019922142 1.4606382e-21 4.8232181e-37)
(0.1364601 -0.013067327 -1.9673495e-20 0.0018809006 1.951321e-21 1.0200139e-36)
(0.1561458 -0.012633685 -5.6381792e-20 0.001788064 4.7206878e-21 7.3255341e-36)
(0.17608211 -0.011785438 1.1398896e-19 0.0017438648 -7.9347689e-21 2.6654594e-35)
(0.19546081 -0.01056473 -7.7946123e-20 0.0017820598 4.4266128e-21 1.1213141e-35)
(0.21345274 -0.0090700498 -2.0648324e-20 0.0019228726 9.3477731e-22 7.1447406e-37)
(0.2293222 -0.0074213497 -8.4620391e-20 0.0021563504 2.9183526e-21 1.119944e-35)
(0.24251379 -0.0057566041 -1.0436231e-19 0.0024487639 2.5844487e-21 1.6067128e-35)
(0.25270489 -0.0041802177 -5.4162892e-21 0.0027543767 8.9026137e-23 4.1219857e-38)
(0.25975958 -0.0027355799 2.3137737e-20 0.0030400373 -1.7403318e-22 7.3491581e-37)
(0.26365733 -0.0014397596 -1.6987527e-19 0.0033043136 -1.1667929e-22 3.9450327e-35)
(0.26454246 -0.00033214932 -7.1677334e-20 0.0035647261 -5.884205e-22 7.0969211e-36)
(0.26282839 0.00050590376 -7.2169045e-20 0.0038353666 -1.125054e-21 7.4036247e-36)
(0.25927917 0.0010069861 -2.2997415e-20 0.0041112527 -5.348149e-22 7.8842028e-37)
(0.25477517 0.0011960292 -1.7046282e-19 0.0043685419 -5.2172035e-21 4.6455531e-35)
(0.25016382 0.001218967 6.4298129e-20 0.0045752097 2.5003627e-21 7.2245472e-36)
(0.24571434 0.0012673343 -1.8298291e-20 0.0047127456 -8.6585047e-22 6.5997396e-37)
(0.24110277 0.0015569305 -1.3938095e-19 0.0047856159 -7.9184977e-21 4.391148e-35)
(0.23546754 0.0021502706 -5.0651175e-20 0.0048195801 -3.3930385e-21 6.8788311e-36)
(0.22709674 0.0030162544 5.4159295e-20 0.0048337371 4.1818039e-21 9.7024002e-36)
(0.21580817 0.0039359594 1.6496117e-19 0.0047905164 1.437052e-20 1.1449618e-34)
(0.19809219 0.0045821991 -4.548262e-20 0.0045784357 -4.375847e-21 1.167453e-35)
(0.17963842 0.0051937301 -6.2623532e-20 0.0043215075 -6.6120412e-21 3.0326469e-35)
(0.15027016 0.0049643729 -2.1790714e-20 0.0040786562 -2.6148555e-21 5.5624669e-36)
(1.1876377e-08 -1.2072852e-07 -2.4491045e-24 1.2272613e-06 2.4165612e-23 3.0258791e-37)
(1.2233594e-07 -1.1903299e-06 7.7790923e-24 1.1582362e-05 -7.3593755e-23 5.3563402e-37)
(3.9993681e-07 -3.7342793e-06 -4.6434588e-24 3.487164e-05 4.1946958e-23 7.000531e-38)
(9.3304024e-07 -8.3292893e-06 7.345858e-25 7.4374025e-05 -6.323035e-24 8.269928e-40)
(1.8468298e-06 -1.571837e-05 -1.9963868e-23 0.00013383569 1.6347846e-22 3.2305514e-37)
(3.3216255e-06 -2.6865836e-05 2.7485245e-23 0.0002174382 -2.1371246e-22 3.4564284e-37)
(5.6151601e-06 -4.3007967e-05 -5.4283421e-23 0.00032972267 3.9974573e-22 7.9474944e-37)
(9.0931982e-06 -6.5709242e-05 3.2731858e-23 0.0004754483 -2.2758041e-22 1.7577708e-37)
(1.4271993e-05 -9.6923938e-05 1.5772532e-22 0.00065936511 -1.0319852e-21 2.5380102e-36)
(2.1875713e-05 -0.00013905592 -4.7654133e-23 0.00088588029 2.9239974e-22 1.4653891e-37)
(3.2913244e-05 -0.00019500858 -2.2670908e-22 0.0011586015 1.2999667e-21 2.1219201e-36)
(4.8779251e-05 -0.00026821207 8.6028614e-23 0.0014797493 -4.5936555e-22 1.9733626e-37)
(7.1384844e-05 -0.00036261068 7.1124582e-24 0.0018494506 -3.5240286e-23 8.7926395e-40)
(0.00010332271 -0.00048258812 -3.4436058e-22 0.0022649555 1.5777064e-21 1.3426426e-36)
(0.00014807034 -0.00063280631 1.3268754e-21 0.0027198646 -5.6011847e-21 1.3081787e-35)
(0.00021023196 -0.00081793549 -1.0007429e-21 0.0032035112 3.8785248e-21 4.9021314e-36)
(0.00029581557 -0.0010422657 -1.1686565e-23 0.0037007008 4.1436186e-23 4.4182981e-40)
(0.00041253538 -0.0013092146 8.2850856e-22 0.0041920563 -2.6780531e-21 1.4758239e-36)
(0.00057012408 -0.001620792 -2.5610272e-21 0.0046552071 7.5206613e-21 9.4163806e-36)
(0.00078063724 -0.0019771387 1.4649596e-21 0.0050669717 -3.8951772e-21 2.0714766e-36)
(0.001058737 -0.0023763233 2.635066e-21 0.0054064563 -6.3234005e-21 4.5416884e-36)
(0.0014219558 -0.0028146068 1.2800251e-21 0.0056586526 -2.7637613e-21 7.327713e-37)
(0.0018909934 -0.003287363 -7.5409685e-21 0.0058177195 1.4609806e-20 1.7624065e-35)
(0.0024903095 -0.0037907862 -4.6646972e-21 0.0058888672 8.0876812e-21 4.7268911e-36)
(0.0032488934 -0.0043238047 3.5384653e-21 0.0058879032 -5.4786296e-21 1.9388366e-36)
(0.0041993744 -0.0048882728 -2.4114637e-21 0.0058377649 3.3263803e-21 6.4822933e-37)
(0.0053821327 -0.0054903505 1.0459337e-20 0.0057608463 -1.2836238e-20 8.9563268e-36)
(0.0068479469 -0.0061389449 -3.4609707e-21 0.0056740233 3.7717076e-21 7.2867921e-37)
(0.0086547964 -0.0068417064 1.0681678e-20 0.0055898414 -1.0319857e-20 5.235077e-36)
(0.010872297 -0.0076064077 -6.8770803e-21 0.0055158797 5.8797888e-21 1.6590305e-36)
(0.013583214 -0.0084396432 4.8340094e-21 0.0054541026 -3.6501768e-21 6.3182337e-37)
(0.016884557 -0.009345103 -2.0019988e-20 0.0054025929 1.3337342e-20 8.4905085e-36)
(0.020887916 -0.010323466 3.2334003e-21 0.0053574381 -1.8980266e-21 1.7555958e-37)
(0.025719616 -0.011372124 -1.9177576e-20 0.0053139396 9.9023675e-21 4.9091519e-36)
(0.031519454 -0.012484295 2.0523196e-20 0.0052669772 -9.3148782e-21 4.5369274e-36)
(0.038437396 -0.013647095 7.3454293e-21 0.0052107678 -2.9259382e-21 4.6911347e-37)
(0.046626927 -0.014838483 -1.0136503e-19 0.0051384929 3.5415087e-20 7.3993277e-35)
(0.056233156 -0.01602324 -2.9282503e-20 0.0050422094 8.9561216e-21 5.1083281e-36)
(0.067373845 -0.017148423 2.6702169e-20 0.0049133955 -7.1352171e-21 3.5636735e-36)
(0.080111608 -0.018139301 -2.8754419e-20 0.004744592 6.6944668e-21 3.4918281e-36)
(0.09441736 -0.018898225 8.0916971e-21 0.0045327747 -1.6343794e-21 2.3442539e-37)
(0.11012744 -0.019310194 5.4786989e-20 0.0042849087 -9.5626293e-21 9.3234749e-36)
(0.12690253 -0.019258333 -2.7307337e-21 0.0040245874 4.0933418e-22 2.0381175e-38)
(0.14420329 -0.018651454 -2.1282693e-20 0.0037971874 2.7051718e-21 1.0746549e-36)
(0.16131873 -0.017465819 1.095602e-20 0.003669898 -1.1568247e-21 2.579611e-37)
(0.1774834 -0.015782999 -5.9316635e-21 0.0037154357 5.2199835e-22 6.4882278e-38)
(0.19194693 -0.013763097 -1.7617953e-20 0.0039737426 1.2425436e-21 5.442431e-37)
(0.20412062 -0.011602952 2.8005588e-19 0.0044217172 -1.5364992e-20 1.2973022e-34)
(0.21365952 -0.0095031664 -3.218192e-20 0.0049825351 1.2831111e-21 1.6251357e-36)
(0.22045045 -0.0075890384 3.0219678e-20 0.0055550467 -8.2049787e-22 1.3840069e-36)
(0.22451726 -0.0058946561 -2.8577458e-19 0.0060720488 4.258333e-21 1.2156755e-34)
(0.22596088 -0.0044317036 1.5579694e-19 0.0065369404 -5.4018499e-22 3.615507e-35)
(0.22503883 -0.0032630099 1.2629838e-19 0.0069949013 9.8952147e-22 2.4179166e-35)
(0.22228396 -0.0025050487 1.1739226e-19 0.0074797668 2.1967217e-21 2.1706235e-35)
(0.21854997 -0.0022319218 1.0889629e-19 0.0079803844 3.2261485e-21 1.9794185e-35)
(0.21473669 -0.002376589 1.6279771e-19 0.0084419693 6.6575802e-21 4.7905629e-35)
(0.21153324 -0.0026922282 -3.0674433e-19 0.0087882873 -1.6285218e-20 1.8815396e-34)
(0.2089695 -0.0028702256 1.7581307e-19 0.0089620128 1.1639027e-20 7.015622e-35)
(0.20631479 -0.0025761819 2.4492039e-19 0.0089412693 1.9730197e-20 1.5931616e-34)
(0.20245823 -0.0016805259 -1.6274389e-19 0.008744446 -1.572145e-20 8.4913775e-35)
(0.19520736 -0.00023618988 -4.6136202e-20 0.0084175652 -5.2217651e-21 8.5916595e-36)
(0.18467326 0.0014975234 -3.509555e-20 0.007948107 -4.5592626e-21 6.5141099e-36)
(0.16674762 0.0028771407 1.5221416e-19 0.0073152487 2.2550655e-20 1.6869813e-34)
(0.14864876 0.0042576047 9.3799785e-20 0.0066838887 1.5699527e-20 9.1017513e-35)
(0.1199986 0.0044741366 -3.2262443e-21 0.0060692371 -6.3765085e-22 1.7665117e-37)
(3.1929761e-08 -2.5041073e-07 2.8580316e-24 1.9638605e-06 -2.2026696e-23 1.5002728e-37)
(3.1569422e-07 -2.4199296e-06 -1.8573688e-23 1.8549958e-05 1.3982437e-22 1.156316e-36)
(9.9507858e-07 -7.4576947e-06 2.4463381e-23 5.5893916e-05 -1.793593e-22 7.6837344e-37)
(2.2325182e-06 -1.6320528e-05 -1.3168003e-23 0.00011931664 9.3877752e-23 1.0970712e-37)
(4.2445238e-06 -3.0201835e-05 -6.4040326e-24 0.0002149252 4.4328309e-23 1.4314172e-38)
(7.3226548e-06 -5.0590125e-05 7.1843072e-23 0.00034957696 -4.8199583e-22 1.0595535e-36)
(1.1858053e-05 -7.9323601e-05 -2.3208235e-23 0.00053077569 1.5057004e-22 6.7943407e-38)
(1.8373239e-05 -0.00011864628 -6.1890043e-23 0.00076646538 3.8724607e-22 3.0617827e-37)
(2.7564252e-05 -0.0001712648 -5.893277e-24 0.0010646885 3.5455881e-23 1.8013827e-39)
(4.0355007e-05 -0.00024039679 -6.1647819e-23 0.0014330732 3.5549078e-22 1.2989831e-37)
(5.7966953e-05 -0.00032980109 1.0562929e-22 0.001878118 -5.8183621e-22 2.5446018e-37)
(8.200715e-05 -0.00044377524 -8.9419387e-23 0.0024042542 4.6882679e-22 1.2276553e-37)
(0.0001145782 -0.00058710181 -4.0008094e-22 0.0030126954 1.9892597e-21 1.664065e-36)
(0.00015841292 -0.00076492112 -1.4092852e-23 0.0037001281 6.6197854e-23 1.401784e-39)
(0.00021703607 -0.00098250723 4.4762031e-22 0.00445737 -1.9783849e-21 9.6725792e-37)
(0.00029495371 -0.0012449291 3.825928e-22 0.0052682161 -1.5845885e-21 4.8344174e-37)
(0.0003978688 -0.0015565932 -3.9658464e-22 0.0061087959 1.5326945e-21 3.5621124e-37)
(0.00053291902 -0.0019206946 4.5646606e-23 0.006947858 -1.6390076e-22 3.2607098e-39)
(0.00070893135 -0.002338651 1.1140397e-21 0.0077484154 -3.7002002e-21 1.3351978e-36)
(0.00093668876 -0.0028096575 1.622505e-21 0.0084710712 -4.962939e-21 1.9632007e-36)
(0.0012292112 -0.0033305689 -2.2041123e-21 0.0090790154 6.181801e-21 2.5280714e-36)
(0.0016020638 -0.0038963418 -2.6267585e-21 0.0095441244 6.7262419e-21 2.5249639e-36)
(0.0020737215 -0.0045012185 4.1629074e-21 0.0098528998 -9.6924942e-21 4.501866e-36)
(0.0026661847 -0.005140776 -6.0315813e-21 0.010010402 1.2719207e-20 6.7787351e-36)
(0.0034060863 -0.0058145167 -1.2159443e-20 0.01004035 2.3139435e-20 1.999197e-35)
(0.0043236507 -0.0065259824 3.3095532e-20 0.0099805031 -5.6656478e-20 1.0900678e-34)
(0.0054558865 -0.0072842591 -2.0907744e-20 0.0098712626 3.2106285e-20 3.2432586e-35)
(0.0068497238 -0.0081014517 3.5346847e-20 0.009742153 -4.8560948e-20 6.9952607e-35)
(0.0085590687 -0.0089884141 -5.0117939e-20 0.0096146899 6.1448102e-20 1.0749903e-34)
(0.010647692 -0.0099555111 6.3206056e-20 0.00950286 -6.8990523e-20 1.3218156e-34)
(0.01319075 -0.011011301 -7.3521454e-20 0.0094109763 7.129108e-20 1.3984842e-34)
(0.016276107 -0.012160627 1.385862e-20 0.009336243 -1.1916645e-20 3.9334396e-36)
(0.020003936 -0.01340417 5.3547349e-20 0.0092721238 -4.0752576e-20 4.6730408e-35)
(0.024486506 -0.014738141 -3.3645757e-20 0.0092104623 2.2633059e-20 1.4857466e-35)
(0.029846317 -0.016153091 1.1682765e-20 0.0091421726 -6.9368422e-21 1.4569037e-36)
(0.036212002 -0.017631397 3.7633188e-21 0.0090568184 -1.9705544e-21 1.2482988e-37)
(0.04371066 -0.019143319 5.1458027e-20 0.008941935 -2.3712654e-20 1.9125341e-35)
(0.05245501 -0.020641879 1.8485216e-20 0.008782847 -7.4883396e-21 2.0510827e-36)
(0.062523723 -0.022057222 2.046794e-20 0.0085635897 -7.2707864e-21 2.109624e-36)
(0.073933671 -0.023291913 2.2020143e-20 0.0082698625 -6.8445331e-21 2.0884238e-36)
(0.086605017 -0.024220357 -1.218494e-19 0.007895169 3.3001009e-20 5.4902703e-35)
(0.10032272 -0.024697186 5.7760415e-20 0.0074509704 -1.3561436e-20 1.0697665e-35)
(0.11470314 -0.024579406 9.9583564e-21 0.0069789846 -2.0185508e-21 2.7351953e-37)
(0.12918451 -0.023767541 -1.2146083e-19 0.006561401 2.0939996e-20 3.6735323e-35)
(0.14309729 -0.022266786 -6.5201742e-20 0.0063193388 9.4818819e-21 9.4925879e-36)
(0.15578631 -0.020222801 3.3550377e-20 0.0063771013 -4.0581391e-21 2.3029686e-36)
(0.16668576 -0.017868776 1.270845e-19 0.0067905816 -1.2429327e-20 3.0456556e-35)
(0.17543374 -0.015471126 -5.6859807e-20 0.007509375 4.4053361e-21 5.757407e-36)
(0.18189867 -0.013256935 1.6982816e-19 0.0083889934 -9.7354385e-21 4.8976343e-35)
(0.18609888 -0.011333467 9.3335157e-20 0.0092521646 -3.7109162e-21 1.4392848e-35)
(0.18812368 -0.009697571 1.2888552e-19 0.0099950464 -3.0727543e-21 2.7185401e-35)
(0.18811039 -0.0083464349 3.4309715e-19 0.010642093 -2.6726172e-21 1.9413817e-34)
(0.18636473 -0.0073717838 -2.5993243e-19 0.011285449 -1.8414585e-21 1.1462869e-34)
(0.18349783 -0.0069288297 8.229218e-20 0.011986361 1.8920178e-21 1.2022254e-35)
(0.18039871 -0.007083324 -1.353659e-19 0.012722431 -4.9772253e-21 3.4936729e-35)
(0.1778814 -0.0076977393 -1.218429e-19 0.013397267 -6.4146237e-21 3.0998152e-35)
(0.17635209 -0.008403266 -4.4578484e-20 0.013878482 -3.1180517e-21 4.6628529e-36)
(0.17552226 -0.0087655651 -3.7504906e-19 0.014056298 -3.2643315e-20 3.8028389e-34)
(0.1741609 -0.008354028 -9.1786338e-20 0.013874832 -9.8457224e-21 2.7118687e-35)
(0.1709812 -0.0069877325 1.8806081e-19 0.013334434 2.4515798e-20 1.4028185e-34)
(0.16341245 -0.0048128413 6.2385701e-20 0.01254053 9.7396702e-21 1.9923763e-35)
(0.15213432 -0.002135054 -4.0115937e-20 0.011487869 -7.3097407e-21 1.1097488e-35)
(0.13314051 5.3498228e-05 -6.9298928e-20 0.010335102 -1.4625913e-20 4.7428347e-35)
(0.11432072 0.0020712457 -8.8886946e-20 0.0092040064 -2.1800297e-20 1.149748e-34)
(0.087293586 0.0026914432 5.1694533e-21 0.0081154123 1.5231663e-21 6.6856528e-37)
(6.7221316e-08 -4.2693223e-07 1.2966359e-23 2.7115092e-06 -8.1406274e-23 1.3928155e-36)
(6.5151659e-07 -4.087163e-06 8.8536723e-24 2.5640132e-05 -5.4819659e-23 1.2131505e-37)
(2.0162612e-06 -1.2487151e-05 -1.1430878e-23 7.7336703e-05 6.9651578e-23 7.9526259e-38)
(4.4330981e-06 -2.7067939e-05 -5.9367384e-23 0.0001652782 3.5564893e-22 1.0840654e-36)
(8.2493791e-06 -4.9588021e-05 4.3258505e-23 0.00029809533 -2.5450851e-22 3.2534919e-37)
(1.3909809e-05 -8.2178623e-05 -8.0212352e-23 0.00048554993 4.6287707e-22 6.7382431e-37)
(2.1981937e-05 -0.00012739643 4.3742593e-23 0.00073842316 -2.4716128e-22 1.2610928e-37)
(3.3186929e-05 -0.00018827066 1.2922838e-23 0.0010682678 -7.1350185e-23 7.1510785e-39)
(4.843827e-05 -0.00026834263 -8.964775e-23 0.0014869778 4.8253256e-22 2.289951e-37)
(6.8888924e-05 -0.00037168641 -2.3472222e-22 0.0020061211 1.2285067e-21 1.0630186e-36)
(9.5988764e-05 -0.00050289938 -1.4236542e-23 0.0026359847 7.2254847e-23 2.6765162e-39)
(0.00013155364 -0.00066704669 5.5952189e-22 0.0033842926 -2.7452487e-21 2.8691753e-36)
(0.00017784783 -0.00086954159 -9.2667401e-22 0.004254591 4.3812732e-21 5.4861291e-36)
(0.00023768142 -0.0011159418 1.7866421e-21 0.0052443526 -8.1115888e-21 1.4287915e-35)
(0.00031452394 -0.0014116445 -5.5646291e-22 0.0063429469 2.4170173e-21 9.7442982e-37)
(0.00041263569 -0.0017614707 1.4069192e-21 0.0075297585 -5.8231445e-21 4.390268e-36)
(0.00053721871 -0.0021691519 -2.0208532e-21 0.0087728929 7.9363719e-21 6.4016054e-36)
(0.00069458919 -0.0026367594 1.5568194e-21 0.010029069 -5.7752983e-21 2.6912108e-36)
(0.0008923769 -0.0031641748 -2.9111492e-22 0.011245379 1.015317e-21 6.6904475e-38)
(0.00113976 -0.0037487531 -1.3944951e-21 0.012363507 4.5502699e-21 1.0946857e-36)
(0.0014477508 -0.0043853934 3.9904303e-21 0.013326587 -1.2121311e-20 6.4248432e-36)
(0.0018295561 -0.0050672535 -6.604013e-21 0.014088149 1.8580464e-20 1.2699255e-35)