/*--------------------------------*- C++ -*----------------------------------*\
  =========                 |
  \\      /  F ield         | OpenFOAM: The Open Source CFD Toolbox
   \\    /   O peration     | Website:  https://openfoam.org
    \\  /    A nd           | Version:  13
     \\/     M anipulation  |
\*---------------------------------------------------------------------------*/
FoamFile
{
    format      ascii;
    class       volScalarField;
    location    "39.496259";
    object      pPrime2Mean;
}
// * * * * * * * * * * * * * * * * * * * * * * * * * * * * * * * * * * * * * //

dimensions      [0 4 -4 0 0 0 0];

internalField   nonuniform List<scalar> 
17140
(
7853.992
7853.9922
7853.9922
7853.992
7853.9915
7853.9908
7853.9898
7853.9884
7853.9865
7853.984
7853.9808
7853.9765
7853.9711
7853.9642
7853.9554
7853.9442
7853.9299
7853.9116
7853.8884
7853.8587
7853.8208
7853.7722
7853.7098
7853.6298
7853.5272
7853.3958
7853.2277
7853.0133
7852.7409
7852.3962
7851.9615
7851.4151
7850.7307
7849.8761
7848.8127
7847.4941
7845.8653
7843.8624
7841.4114
7838.4274
7834.8141
7830.4624
7825.2494
7819.0373
7811.6724
7802.9842
7792.7853
7780.8699
7767.0131
7750.9706
7732.4771
7711.2458
7686.9664
7659.3047
7627.8997
7592.3631
7552.2732
7507.1774
7456.5788
7399.952
7336.7066
7266.238
7187.8324
7100.8013
7004.307
7854.188
7854.1881
7854.1881
7854.1879
7854.1875
7854.1868
7854.1858
7854.1843
7854.1824
7854.1799
7854.1765
7854.1722
7854.1667
7854.1597
7854.1507
7854.1393
7854.1247
7854.1062
7854.0826
7854.0525
7854.014
7853.9648
7853.9018
7853.8212
7853.718
7853.5861
7853.4177
7853.2032
7852.931
7852.5867
7852.1527
7851.6073
7850.924
7850.0706
7849.0084
7847.691
7846.0636
7844.0622
7841.6129
7838.6309
7835.0199
7830.6709
7825.461
7819.2525
7811.8918
7803.2084
7793.0148
7781.1051
7767.2548
7751.2196
7732.7345
7711.5128
7687.2444
7659.5953
7628.2047
7592.6843
7552.6129
7507.5379
7456.9624
7400.3612
7337.1438
7266.7066
7188.3369
7101.3479
7004.8959
7854.6731
7854.6733
7854.6732
7854.673
7854.6725
7854.6718
7854.6707
7854.6692
7854.6671
7854.6644
7854.6609
7854.6564
7854.6506
7854.6432
7854.6338
7854.6219
7854.6067
7854.5875
7854.5631
7854.5321
7854.4926
7854.4423
7854.3782
7854.2965
7854.1923
7854.0597
7853.8908
7853.6764
7853.4047
7853.0615
7852.629
7852.0855
7851.4043
7850.5533
7849.4935
7848.1786
7846.554
7844.5557
7842.11
7839.1324
7835.5267
7831.184
7825.9816
7819.782
7812.4314
7803.7597
7793.5789
7781.6835
7767.8491
7751.8318
7733.3673
7712.1693
7687.928
7660.3099
7628.9546
7593.4745
7553.4485
7508.4246
7457.9062
7401.3683
7338.2209
7267.8617
7189.5797
7102.6911
7006.3398
7855.458
7855.4581
7855.4581
7855.4578
7855.4573
7855.4564
7855.4552
7855.4535
7855.4513
7855.4484
7855.4446
7855.4397
7855.4336
7855.4257
7855.4157
7855.4032
7855.3873
7855.3672
7855.3418
7855.3097
7855.2691
7855.2177
7855.1524
7855.0697
7854.9648
7854.8317
7854.6629
7854.449
7854.1784
7853.8368
7853.4064
7852.8653
7852.1868
7851.3388
7850.2822
7848.9709
7847.3504
7845.3569
7842.9171
7839.9465
7836.3492
7832.0166
7826.8263
7820.6408
7813.3066
7804.6533
7794.4932
7782.6207
7768.812
7752.824
7734.3931
7713.2337
7689.0368
7661.4694
7630.1719
7594.7573
7554.8054
7509.8647
7459.4394
7403.0047
7339.9717
7269.7393
7191.5997
7104.873
7008.6836
7856.5537
7856.5538
7856.5537
7856.5534
7856.5528
7856.5519
7856.5506
7856.5488
7856.5464
7856.5432
7856.5392
7856.5341
7856.5275
7856.5192
7856.5088
7856.4956
7856.4791
7856.4583
7856.4321
7856.3991
7856.3577
7856.3054
7856.2394
7856.1561
7856.0508
7855.9178
7855.7494
7855.5365
7855.2675
7854.9278
7854.4998
7853.9614
7853.286
7852.4413
7851.3886
7850.0819
7848.4668
7846.48
7844.0482
7841.0873
7837.5018
7833.1832
7828.0096
7821.8437
7814.5321
7805.9043
7795.7726
7783.932
7770.1594
7754.2126
7735.8291
7714.7243
7690.5901
7663.0943
7631.8783
7596.5561
7556.7084
7511.8847
7461.5901
7405.3005
7342.4284
7272.3748
7194.4356
7107.9362
7011.9742
7857.9716
7857.9717
7857.9715
7857.9712
7857.9705
7857.9695
7857.9681
7857.9662
7857.9637
7857.9605
7857.9563
7857.951
7857.9442
7857.9357
7857.925
7857.9115
7857.8947
7857.8735
7857.847
7857.8137
7857.7719
7857.7194
7857.6534
7857.5702
7857.4654
7857.333
7857.1657
7856.9543
7856.6871
7856.3496
7855.924
7855.3884
7854.7162
7853.8753
7852.8271
7851.5259
7849.9176
7847.9392
7845.5177
7842.5693
7838.9989
7834.6985
7829.5465
7823.4057
7816.1229
7807.5277
7797.4326
7785.6333
7771.9076
7756.0148
7737.6934
7716.6601
7692.6079
7665.2057
7634.0963
7598.8947
7559.183
7514.5117
7464.3873
7408.2867
7345.6245
7275.8042
7198.1266
7111.9237
7016.2593
7859.7266
7859.7267
7859.7265
7859.7261
7859.7254
7859.7244
7859.723
7859.721
7859.7185
7859.7152
7859.711
7859.7056
7859.6989
7859.6904
7859.6797
7859.6662
7859.6494
7859.6284
7859.602
7859.569
7859.5276
7859.4756
7859.4102
7859.3279
7859.224
7859.093
7858.9273
7858.7177
7858.4525
7858.1173
7857.6941
7857.1614
7856.4925
7855.6556
7854.6125
7853.3177
7851.7176
7849.7494
7847.3404
7844.4073
7840.8555
7836.5775
7831.452
7825.342
7818.0944
7809.539
7799.4891
7787.7411
7774.074
7758.2485
7740.0047
7719.0607
7695.1109
7667.8256
7636.8489
7601.7975
7562.2549
7517.7731
7467.8603
7411.9946
7349.5939
7280.0644
7202.7132
7116.8798
7021.5883
7861.8361
7861.8361
7861.8359
7861.8355
7861.8348
7861.8338
7861.8323
7861.8304
7861.8279
7861.8247
7861.8206
7861.8153
7861.8087
7861.8004
7861.79
7861.7769
7861.7605
7861.74
7861.7143
7861.6821
7861.6416
7861.5907
7861.5266
7861.4457
7861.3435
7861.2141
7861.0503
7860.8427
7860.5796
7860.2466
7859.8259
7859.2959
7858.6305
7857.7979
7856.7604
7855.473
7853.8822
7851.9258
7849.5316
7846.6167
7843.0869
7838.8355
7833.7414
7827.6679
7820.462
7811.954
7801.9582
7790.2721
7776.676
7760.9322
7742.7824
7721.9465
7698.1205
7670.9764
7640.16
7605.2896
7565.9506
7521.6971
7472.039
7416.4568
7354.3717
7285.1938
7208.2374
7122.8501
7028.0109
7864.3201
7864.3201
7864.3199
7864.3194
7864.3188
7864.3177
7864.3163
7864.3145
7864.3121
7864.309
7864.305
7864.3
7864.2937
7864.2857
7864.2757
7864.2632
7864.2475
7864.2277
7864.2029
7864.1718
7864.1326
7864.0831
7864.0206
7863.9414
7863.841
7863.7135
7863.5516
7863.3459
7863.0849
7862.754
7862.3356
7861.8084
7861.1464
7860.3185
7859.2872
7858.0079
7856.4276
7854.4846
7852.1072
7849.2132
7845.7091
7841.4884
7836.4304
7830.3989
7823.2412
7814.7886
7804.8563
7793.2434
7779.7315
7764.0844
7746.0459
7725.3379
7701.6583
7674.681
7644.0536
7609.3966
7570.2975
7526.3127
7476.9546
7421.706
7359.9933
7291.2309
7214.7412
7129.8809
7035.5787
7867.2004
7867.2004
7867.2001
7867.1997
7867.199
7867.198
7867.1967
7867.1949
7867.1926
7867.1896
7867.1858
7867.181
7867.175
7867.1674
7867.1578
7867.1458
7867.1308
7867.1118
7867.088
7867.0579
7867.0199
7866.9718
7866.9107
7866.8331
7866.7343
7866.6085
7866.4482
7866.2441
7865.9848
7865.6558
7865.2396
7864.7152
7864.0569
7863.234
7862.2094
7860.9389
7859.3703
7857.4423
7855.0838
7852.2133
7848.738
7844.5519
7839.5347
7833.5507
7826.4479
7818.0588
7808.2001
7796.6721
7783.258
7767.7236
7749.8148
7729.2556
7705.7461
7678.9624
7648.5543
7614.1444
7575.323
7531.6487
7482.6373
7427.7756
7366.4961
7298.217
7222.2698
7138.0215
7044.3436
7870.4963
7870.4962
7870.4959
7870.4955
7870.4948
7870.4938
7870.4925
7870.4908
7870.4885
7870.4857
7870.482
7870.4774
7870.4716
7870.4643
7870.4551
7870.4436
7870.429
7870.4107
7870.3876
7870.3584
7870.3214
7870.2743
7870.2143
7870.1379
7870.0402
7869.9155
7869.7564
7869.5535
7869.2955
7868.9681
7868.554
7868.0325
7867.3782
7866.5606
7865.5433
7864.2826
7862.7268
7860.8152
7858.4777
7855.6333
7852.19
7848.0422
7843.0703
7837.1392
7830.0981
7821.781
7812.006
7800.5752
7787.2735
7771.8685
7754.1086
7733.7203
7710.406
7683.844
7653.6865
7619.5591
7581.0548
7537.7354
7489.1207
7434.7023
7373.9194
7306.1946
7230.8677
7147.3189
7054.3582
7874.2252
7874.2251
7874.2248
7874.2244
7874.2237
7874.2227
7874.2214
7874.2196
7874.2174
7874.2146
7874.211
7874.2065
7874.2008
7874.1936
7874.1846
7874.1732
7874.159
7874.141
7874.1182
7874.0894
7874.0527
7874.0061
7873.9467
7873.8707
7873.7736
7873.6495
7873.491
7873.2889
7873.0319
7872.706
7872.2941
7871.7757
7871.1258
7870.3143
7869.3051
7868.0551
7866.5134
7864.6199
7862.3054
7859.4897
7856.0813
7851.9754
7847.0532
7841.1805
7834.2082
7825.9718
7816.2913
7804.9704
7791.7961
7776.5384
7758.9479
7738.7537
7715.6608
7689.3499
7659.4762
7625.6683
7587.5227
7544.6046
7496.4386
7442.5224
7382.3019
7315.2042
7240.5798
7157.8226
7065.6745
7878.3996
7878.3995
7878.3992
7878.3987
7878.398
7878.397
7878.3957
7878.3939
7878.3917
7878.3888
7878.3852
7878.3807
7878.3749
7878.3677
7878.3587
7878.3473
7878.333
7878.315
7878.2923
7878.2634
7878.2268
7878.1801
7878.1207
7878.0447
7877.9477
7877.8237
7877.6655
7877.464
7877.208
7876.8837
7876.4744
7875.9596
7875.3148
7874.5102
7873.5101
7872.2722
7870.746
7868.8725
7866.5832
7863.7988
7860.4283
7856.368
7851.4999
7845.6915
7838.7953
7830.6488
7821.0739
7809.8763
7796.8455
7781.7536
7764.3541
7744.3782
7721.5338
7695.5047
7665.9492
7632.4996
7594.7557
7552.2873
7504.6247
7451.2726
7391.6834
7325.29
7251.4521
7169.583
7078.3462
7883.0301
7883.03
7883.0297
7883.0292
7883.0284
7883.0274
7883.026
7883.0242
7883.0219
7883.019
7883.0153
7883.0107
7883.0048
7882.9975
7882.9883
7882.9768
7882.9623
7882.9441
7882.921
7882.8919
7882.8549
7882.808
7882.7481
7882.6719
7882.5747
7882.4507
7882.2929
7882.0921
7881.8374
7881.5153
7881.1091
7880.5988
7879.96
7879.1634
7878.1738
7876.9493
7875.4404
7873.589
7871.3273
7868.5769
7865.2476
7861.2366
7856.4275
7850.6895
7843.8773
7835.8305
7826.3731
7815.3131
7802.4424
7787.5358
7770.3493
7750.6168
7728.0492
7702.3336
7673.1322
7640.081
7602.7842
7560.8162
7513.715
7460.9911
7402.1055
7336.4939
7263.5315
7182.6498
7092.4257
7888.1275
7888.1274
7888.1271
7888.1266
7888.1258
7888.1247
7888.1233
7888.1215
7888.1191
7888.1161
7888.1123
7888.1075
7888.1015
7888.094
7888.0846
7888.0729
7888.0581
7888.0395
7888.0161
7887.9866
7887.9492
7887.9019
7887.8417
7887.7652
7887.6679
7887.5441
7887.3869
7887.1873
7886.9345
7886.6152
7886.213
7885.7082
7885.0767
7884.2893
7883.3116
7882.1024
7880.6129
7878.7858
7876.5543
7873.8407
7870.556
7866.5985
7861.8537
7856.1929
7849.4733
7841.5366
7832.2092
7821.3016
7808.6085
7793.9074
7776.9567
7757.4935
7735.2317
7709.8627
7681.0528
7648.4419
7611.6389
7570.2253
7523.7454
7471.7172
7413.6076
7348.861
7276.8637
7197.0723
7107.9656
7893.705
7893.7048
7893.7045
7893.704
7893.7032
7893.7021
7893.7007
7893.6988
7893.6963
7893.6933
7893.6894
7893.6845
7893.6785
7893.6708
7893.6613
7893.6493
7893.6343
7893.6155
7893.5918
7893.562
7893.5244
7893.4767
7893.4164
7893.3399
7893.2428
7893.1197
7892.9635
7892.7656
7892.5155
7892.1999
7891.8027
7891.3044
7890.681
7889.9043
7888.9402
7887.748
7886.28
7884.4797
7882.281
7879.6074
7876.371
7872.4718
7867.7971
7862.221
7855.603
7847.7874
7838.6032
7827.8636
7815.3661
7800.891
7784.1997
7765.0322
7743.1066
7718.1187
7689.7387
7657.6112
7621.352
7580.5487
7534.7526
7483.4885
7426.2321
7362.4335
7291.4946
7212.899
7125.0171
7899.7796
7899.7795
7899.7792
7899.7787
7899.7779
7899.7768
7899.7753
7899.7734
7899.771
7899.7679
7899.764
7899.7591
7899.7529
7899.7452
7899.7356
7899.7235
7899.7084
7899.6895
7899.6657
7899.6358
7899.5981
7899.5505
7899.4903
7899.4142
7899.3178
7899.1957
7899.0411
7898.8456
7898.5987
7898.2874
7897.8959
7897.4048
7896.7909
7896.0261
7895.0769
7893.9037
7892.4592
7890.6881
7888.525
7885.8948
7882.7108
7878.875
7874.2771
7868.7937
7862.287
7854.604
7845.5765
7835.0208
7822.7374
7808.5096
7792.1017
7773.2575
7751.6997
7727.128
7699.2177
7667.6196
7631.9561
7591.8203
7546.7728
7496.344
7440.0183
7377.2544
7307.4692
7230.178
7143.6311
7906.371
7906.3709
7906.3706
7906.3701
7906.3693
7906.3682
7906.3668
7906.3649
7906.3624
7906.3593
7906.3554
7906.3505
7906.3444
7906.3367
7906.3271
7906.315
7906.2999
7906.281
7906.2573
7906.2275
7906.19
7906.1428
7906.0831
7906.0077
7905.9123
7905.7917
7905.6392
7905.4465
7905.2033
7904.8968
7904.5115
7904.0285
7903.4248
7902.6729
7901.7402
7900.5875
7899.1686
7897.4289
7895.3045
7892.7211
7889.594
7885.8273
7881.3133
7875.9311
7869.5458
7862.0072
7853.1505
7842.7951
7830.7447
7816.7858
7800.6863
7782.1942
7761.0362
7736.9171
7709.5187
7678.498
7643.4824
7604.0753
7559.8418
7510.321
7455.0066
7393.3652
7324.8322
7248.9571
7163.8575
7913.4982
7913.4981
7913.4979
7913.4974
7913.4966
7913.4956
7913.4942
7913.4923
7913.4899
7913.4869
7913.4831
7913.4782
7913.4722
7913.4646
7913.455
7913.4431
7913.4282
7913.4095
7913.3861
7913.3567
7913.3197
7913.273
7913.2142
7913.1399
7913.046
7912.9273
7912.7772
7912.5877
7912.3486
7912.0474
7911.6688
7911.1944
7910.6017
7909.8638
7908.9487
7907.8182
7906.4268
7904.7209
7902.6377
7900.1049
7897.0395
7893.3482
7888.9255
7883.6535
7877.3999
7870.018
7861.3462
7851.2079
7839.4098
7825.7424
7809.9772
7791.8663
7771.1413
7747.5136
7720.6707
7690.2751
7655.9642
7617.3465
7573.9949
7525.4569
7471.2348
7410.8072
7343.6274
7269.2827
7185.7452
7921.1784
7921.1783
7921.1781
7921.1776
7921.1769
7921.1759
7921.1745
7921.1727
7921.1704
7921.1675
7921.1637
7921.159
7921.1531
7921.1457
7921.1364
7921.1247
7921.1101
7921.0918
7921.0689
7921.04
7921.0038
7920.9581
7920.9004
7920.8276
7920.7356
7920.6193
7920.4723
7920.2865
7920.0521
7919.7568
7919.3857
7918.9207
7918.3399
7917.6171
7916.7209
7915.6139
7914.2518
7912.5819
7910.5431
7908.0648
7905.0664
7901.4568
7897.1333
7891.9805
7885.8694
7878.6567
7870.1847
7860.2805
7848.755
7835.4019
7819.9971
7802.2974
7782.0407
7758.944
7732.7004
7702.982
7669.4329
7631.6671
7589.2669
7541.7868
7488.7416
7429.6207
7363.8976
7291.2002
7209.3412
7929.4242
7929.4241
7929.4239
7929.4235
7929.4228
7929.4219
7929.4206
7929.4189
7929.4167
7929.4138
7929.4103
7929.4057
7929.4
7929.3929
7929.3839
7929.3727
7929.3586
7929.3409
7929.3187
7929.2907
7929.2556
7929.2112
7929.1553
7929.0845
7928.995
7928.8818
7928.7385
7928.5574
7928.3287
7928.0405
7927.6781
7927.2238
7926.6563
7925.95
7925.0742
7923.9924
7922.6614
7921.03
7919.0387
7916.6191
7913.6931
7910.1719
7905.9555
7900.9314
7894.9738
7887.9433
7879.6864
7870.0341
7858.8014
7845.786
7830.7685
7813.5115
7793.7589
7771.233
7745.6362
7716.6487
7683.9184
7647.0693
7605.6901
7559.3465
7507.5642
7449.8454
7385.6844
7314.7538
7234.6907
7938.2469
7938.2469
7938.2467
7938.2463
7938.2457
7938.2448
7938.2436
7938.242
7938.2399
7938.2373
7938.2339
7938.2296
7938.2243
7938.2175
7938.209
7938.1983
7938.1849
7938.168
7938.1468
7938.1201
7938.0865
7938.044
7937.9902
7937.9221
7937.8358
7937.7265
7937.588
7937.4127
7937.1911
7936.9114
7936.5595
7936.118
7935.5658
7934.878
7934.0248
7932.9704
7931.6728
7930.0826
7928.1424
7925.7859
7922.9377
7919.5116
7915.4105
7910.5247
7904.7322
7897.8976
7889.8715
7880.4892
7869.5699
7856.916
7842.3135
7825.5315
7806.3187
7784.4067
7759.5069
7731.3021
7699.4509
7663.583
7623.2974
7578.1701
7527.7393
7471.5199
7409.0284
7339.9858
7261.8364
7947.6577
7947.6576
7947.6575
7947.6571
7947.6566
7947.6558
7947.6546
7947.6532
7947.6513
7947.6488
7947.6457
7947.6418
7947.6368
7947.6305
7947.6226
7947.6127
7947.6001
7947.5844
7947.5645
7947.5394
7947.5076
7947.4674
7947.4164
7947.3517
7947.2694
7947.1649
7947.0323
7946.864
7946.6508
7946.3815
7946.0419
7945.615
7945.0806
7944.4142
7943.5863
7942.5624
7941.3015
7939.756
7937.8709
7935.5824
7932.8177
7929.4937
7925.516
7920.7785
7915.1631
7908.5384
7900.7592
7891.6653
7881.0804
7868.8121
7854.6533
7838.3776
7819.7436
7798.4913
7774.3363
7746.9697
7716.0578
7681.2382
7642.1203
7598.2915
7549.3026
7494.6814
7433.9683
7366.9371
7290.819
7957.672
7957.672
7957.6718
7957.6715
7957.671
7957.6703
7957.6693
7957.668
7957.6663
7957.664
7957.6612
7957.6576
7957.653
7957.6472
7957.64
7957.6308
7957.6192
7957.6046
7957.5862
7957.5628
7957.5331
7957.4954
7957.4475
7957.3864
7957.3086
7957.2095
7957.0833
7956.9229
7956.7193
7956.4615
7956.136
7955.7262
7955.2121
7954.5697
7953.7704
7952.7804
7951.5602
7950.0641
7948.239
7946.0241
7943.3494
7940.1347
7936.289
7931.7103
7926.2842
7919.8836
7912.3679
7903.5805
7893.3502
7881.4928
7867.8051
7852.0711
7834.0576
7813.5094
7790.1486
7763.6771
7733.7658
7700.0634
7662.1895
7619.7434
7572.2885
7519.366
7460.5414
7395.6469
7321.6766
7968.3072
7968.3072
7968.3071
7968.3068
7968.3064
7968.3057
7968.3048
7968.3037
7968.3021
7968.3001
7968.2975
7968.2942
7968.29
7968.2847
7968.2781
7968.2696
7968.259
7968.2455
7968.2284
7968.2066
7968.1789
7968.1437
7968.0987
7968.0412
7967.9678
7967.8741
7967.7546
7967.6023
7967.4087
7967.1633
7966.8528
7966.4613
7965.9692
7965.3533
7964.5858
7963.6337
7962.4591
7961.0177
7959.2588
7957.1239
7954.5461
7951.4486
7947.7444
7943.3351
7938.111
7931.9489
7924.7115
7916.2476
7906.3951
7894.9728
7881.7883
7866.6336
7849.2807
7829.4816
7806.9681
7781.4471
7752.6005
7720.0863
7683.5348
7642.5573
7596.7304
7545.6084
7488.7832
7426.1531
7354.4455
7979.582
7979.582
7979.5819
7979.5817
7979.5813
7979.5807
7979.5799
7979.5788
7979.5773
7979.5755
7979.573
7979.57
7979.5661
7979.5611
7979.5548
7979.5469
7979.5368
7979.5241
7979.5079
7979.4874
7979.4612
7979.4278
7979.3851
7979.3306
7979.261
7979.172
7979.0586
7978.914
7978.7302
7978.497
7978.2019
7977.8294
7977.3609
7976.7737
7976.0408
7975.1306
7974.0062
7972.6251
7970.9386
7968.8908
7966.4176
7963.446
7959.893
7955.6648
7950.6544
7944.7432
7937.7997
7929.6811
7920.2281
7909.2698
7896.6226
7882.0823
7865.4306
7846.4282
7824.8132
7800.3022
7772.586
7741.3332
7706.1847
7666.7637
7622.6603
7573.4421
7518.7273
7458.492
7389.161
7991.5101
7991.5101
7991.51
7991.5098
7991.5095
7991.5089
7991.5081
7991.5071
7991.5057
7991.5038
7991.5015
7991.4985
7991.4946
7991.4898
7991.4837
7991.4759
7991.4661
7991.4537
7991.438
7991.418
7991.3927
7991.3604
7991.3193
7991.2669
7991.2001
7991.115
7991.0067
7990.869
7990.6944
7990.4731
7990.1932
7989.8402
7989.396
7988.8389
7988.143
7987.2779
7986.208
7984.8925
7983.2847
7981.3311
7978.9707
7976.1342
7972.742
7968.7044
7963.9198
7958.2748
7951.6447
7943.8911
7934.8626
7924.3993
7912.32
7898.4318
7882.5236
7864.3653
7843.7033
7820.2629
7793.7451
7763.8291
7730.1663
7692.3916
7650.109
7602.8989
7550.4067
7492.6982
7425.8587
8004.0976
8004.0977
8004.0976
8004.0974
8004.097
8004.0965
8004.0957
8004.0946
8004.0932
8004.0913
8004.0889
8004.0859
8004.082
8004.0771
8004.0708
8004.063
8004.0531
8004.0406
8004.0249
8004.005
8003.9799
8003.9481
8003.9078
8003.8567
8003.792
8003.71
8003.6061
8003.4747
8003.3086
8003.0989
8002.8343
8002.501
8002.082
8001.5565
8000.8999
8000.0828
7999.0713
7997.8261
7996.3025
7994.4495
7992.2091
7989.5153
7986.2935
7982.4584
7977.9135
7972.5518
7966.2536
7958.8865
7950.3109
7940.3696
7928.8918
7915.694
7900.5732
7883.3081
7863.6548
7841.348
7816.0989
7787.5972
7755.5052
7719.4694
7679.1068
7634.0104
7583.8532
7528.8039
7464.5764
8017.3431
8017.3432
8017.3431
8017.3429
8017.3425
8017.3419
8017.341
8017.3399
8017.3384
8017.3365
8017.334
8017.3308
8017.3268
8017.3217
8017.3154
8017.3073
8017.2972
8017.2846
8017.2686
8017.2487
8017.2236
8017.192
8017.1523
8017.1023
8017.0394
8016.9603
8016.8608
8016.7357
8016.5783
8016.3803
8016.1313
8015.8184
8015.4255
8014.933
8014.3173
8013.5506
8012.6003
8011.4291
8009.9944
8008.2476
8006.1341
8003.5919
8000.5509
7996.9304
7992.6402
7987.5787
7981.6309
7974.6755
7966.578
7957.1886
7946.3478
7933.8794
7919.5904
7903.2694
7884.6824
7863.5742
7839.6664
7812.6592
7782.2259
7748.0242
7709.6833
7666.8078
7619.0991
7566.8421
7505.3553
8031.2384
8031.2384
8031.2384
8031.2381
8031.2377
8031.2371
8031.2362
8031.2351
8031.2335
8031.2315
8031.229
8031.2257
8031.2216
8031.2165
8031.21
8031.2019
8031.1918
8031.1791
8031.1632
8031.1434
8031.1186
8031.0877
8031.049
8031.0006
8030.9402
8030.8647
8030.7703
8030.6522
8030.5044
8030.3192
8030.087
8029.7955
8029.4298
8028.9714
8028.3981
8027.6836
8026.7969
8025.7029
8024.3611
8022.7261
8020.7466
8018.3648
8015.5149
8012.1223
8008.102
8003.3562
7997.7806
7991.2606
7983.6671
7974.8619
7964.693
7952.9946
7939.5838
7924.2592
7906.7979
7886.9558
7864.4645
7839.0352
7810.3516
7778.0826
7741.8684
7701.3233
7656.1804
7606.8542
7548.2377
8045.7744
8045.7744
8045.7743
8045.774
8045.7736
8045.773
8045.7721
8045.771
8045.7694
8045.7675
8045.765
8045.7618
8045.7579
8045.7529
8045.7466
8045.7387
8045.7289
8045.7167
8045.7015
8045.6825
8045.6589
8045.6295
8045.5929
8045.5474
8045.4908
8045.4203
8045.3325
8045.2231
8045.0864
8044.9155
8044.7013
8044.4327
8044.0954
8043.6723
8043.1425
8042.4816
8041.6607
8040.6467
8039.402
8037.8843
8036.046
8033.8334
8031.1859
8028.0341
8024.2966
8019.8851
8014.7032
8008.6412
8001.5802
7993.3906
7983.9305
7973.0441
7960.559
7946.2848
7930.0107
7911.5041
7890.5076
7866.743
7839.9045
7809.6711
7775.6928
7737.591
7695.1367
7648.8953
7593.2688
8060.9447
8060.9447
8060.9446
8060.9444
8060.944
8060.9434
8060.9426
8060.9415
8060.9401
8060.9384
8060.9361
8060.9332
8060.9295
8060.925
8060.9192
8060.9121
8060.9031
8060.892
8060.8781
8060.8609
8060.8394
8060.8127
8060.7795
8060.7383
8060.6871
8060.6233
8060.5439
8060.445
8060.3213
8060.1663
8059.9717
8059.7271
8059.4193
8059.0325
8058.5476
8057.9419
8057.189
8056.2581
8055.1147
8053.7199
8052.0299
8049.9957
8047.5616
8044.6614
8041.2219
8037.1635
8032.3947
8026.8151
8020.3149
8012.7737
8004.0599
7994.0285
7982.5181
7969.3503
7954.3268
7937.2277
7917.8073
7895.7984
7870.9055
7842.8166
7811.19
7775.6498
7735.9996
7692.9682
7640.5703
8076.748
8076.748
8076.7479
8076.7477
8076.7473
8076.7469
8076.7462
8076.7453
8076.7441
8076.7426
8076.7406
8076.7381
8076.735
8076.7311
8076.7262
8076.7201
8076.7124
8076.7029
8076.691
8076.6762
8076.6577
8076.6347
8076.606
8076.5702
8076.5256
8076.4699
8076.4003
8076.3131
8076.2036
8076.0656
8075.8916
8075.6719
8075.3947
8075.0455
8074.6069
8074.0584
8073.3759
8072.5316
8071.4941
8070.228
8068.6938
8066.8474
8064.6355
8061.9992
8058.8737
8055.1849
8050.8497
8045.7772
8039.8663
8033.0067
8025.0774
8015.9448
8005.4595
7993.4557
7979.7484
7964.1315
7946.3722
7926.2149
7903.3738
7877.5462
7848.3981
7815.5442
7778.7883
7739.1854
7690.1811
8093.1861
8093.1861
8093.186
8093.1859
8093.1856
8093.1852
8093.1847
8093.1839
8093.183
8093.1817
8093.1801
8093.1781
8093.1756
8093.1724
8093.1684
8093.1634
8093.1571
8093.1493
8093.1395
8093.1272
8093.1119
8093.0928
8093.0689
8093.0388
8093.0012
8092.9539
8092.8943
8092.819
8092.7238
8092.6032
8092.4502
8092.2562
8092.0104
8091.7002
8091.3098
8090.8208
8090.2118
8089.458
8088.5314
8087.4003
8086.03
8084.3785
8082.3988
8080.0399
8077.2424
8073.9402
8070.0597
8065.5185
8060.2256
8054.081
8046.9749
8038.7856
8029.3769
8018.5966
8006.2735
7992.2164
7976.2071
7958.0026
7937.3278
7913.8886
7887.3547
7857.2963
7823.5707
7787.6029
7742.1486
8110.2582
8110.2582
8110.2581
8110.258
8110.2578
8110.2574
8110.257
8110.2564
8110.2556
8110.2545
8110.2532
8110.2516
8110.2495
8110.2468
8110.2435
8110.2394
8110.2342
8110.2278
8110.2197
8110.2096
8110.197
8110.1812
8110.1613
8110.1362
8110.1047
8110.0648
8110.0143
8109.9503
8109.8689
8109.7653
8109.6333
8109.4654
8109.2523
8108.9826
8108.6425
8108.2158
8107.6837
8107.0247
8106.2142
8105.225
8104.0249
8102.5764
8100.8402
8098.7704
8096.3153
8093.4175
8090.012
8086.0263
8081.3797
8075.9835
8069.7395
8062.5386
8054.2591
8044.7634
8033.8951
8021.4785
8007.3124
7991.1684
7972.7836
7951.8707
7928.0858
7901.0065
7870.4032
7838.2699
7796.6374
8127.9559
8127.9559
8127.9558
8127.9557
8127.9555
8127.9552
8127.9547
8127.9541
8127.9534
8127.9524
8127.9512
8127.9497
8127.9478
8127.9454
8127.9424
8127.9387
8127.934
8127.9283
8127.9211
8127.9122
8127.9012
8127.8874
8127.8703
8127.8488
8127.8219
8127.788
8127.7453
8127.6913
8127.6228
8127.5357
8127.4248
8127.2836
8127.104
8126.8763
8126.5884
8126.2267
8125.7752
8125.2154
8124.5266
8123.6847
8122.6609
8121.425
8119.9423
8118.1736
8116.0756
8113.5993
8110.6891
8107.2828
8103.3108
8098.6961
8093.3529
8087.1863
8080.0893
8071.9405
8062.5997
8051.9083
8039.6834
8025.7139
8009.7514
7991.5065
7970.6647
7946.7325
7919.3938
7891.2782
7853.8147
8146.2583
8146.2583
8146.2582
8146.258
8146.2577
8146.2574
8146.2569
8146.2562
8146.2554
8146.2544
8146.2531
8146.2515
8146.2495
8146.247
8146.244
8146.2402
8146.2355
8146.2298
8146.2229
8146.2143
8146.2039
8146.1911
8146.1755
8146.1564
8146.1329
8146.1039
8146.0679
8146.0231
8145.967
8145.896
8145.8061
8145.6918
8145.5462
8145.3613
8145.1273
8144.8327
8144.4645
8144.0078
8143.4451
8142.755
8141.9151
8140.9
8139.6806
8138.2257
8136.4997
8134.4622
8132.0676
8129.2643
8125.9948
8122.1944
8117.7914
8112.7053
8106.845
8100.1059
8092.3667
8083.4877
8073.3055
8061.6282
8048.2281
8032.837
8015.1276
7994.5808
7970.7478
7946.8144
7913.8124
8165.1334
8165.1333
8165.1331
8165.1329
8165.1326
8165.1321
8165.1316
8165.1308
8165.1299
8165.1287
8165.1272
8165.1254
8165.1232
8165.1204
8165.1171
8165.113
8165.1081
8165.1021
8165.0949
8165.0863
8165.0759
8165.0636
8165.049
8165.0316
8165.011
8164.9863
8164.9566
8164.9206
8164.8762
8164.821
8164.7515
8164.6635
8164.5516
8164.4096
8164.2299
8164.0038
8163.7213
8163.3706
8162.9367
8162.4039
8161.7547
8160.9685
8160.0234
8158.8952
8157.5563
8155.9752
8154.1165
8151.9401
8149.4007
8146.4476
8143.0237
8139.0647
8134.4953
8129.229
8123.1653
8116.1845
8108.1485
8098.894
8088.217
8075.8664
8061.5338
8044.6801
8024.7617
8005.1763
7976.623
8184.5376
8184.5375
8184.5373
8184.5371
8184.5367
8184.5362
8184.5355
8184.5347
8184.5337
8184.5324
8184.5308
8184.5289
8184.5266
8184.5237
8184.5203
8184.5161
8184.5111
8184.5051
8184.498
8184.4897
8184.4799
8184.4685
8184.4553
8184.4401
8184.4227
8184.4026
8184.3792
8184.3517
8184.3188
8184.2786
8184.2289
8184.1667
8184.0883
8183.9893
8183.8647
8183.7086
8183.5136
8183.2705
8182.9692
8182.5987
8182.1461
8181.5972
8180.9369
8180.148
8179.211
8178.1035
8176.8008
8175.2746
8173.4928
8171.4193
8169.0128
8166.2246
8162.9981
8159.2672
8154.9536
8149.9631
8144.1832
8137.48
8129.6912
8120.6058
8109.9423
8097.1744
8081.7534
8066.4344
8042.6606
8204.4255
8204.4253
8204.425
8204.4248
8204.4244
8204.4238
8204.4232
8204.4224
8204.4214
8204.4202
8204.4187
8204.4169
8204.4147
8204.412
8204.4089
8204.4052
8204.4008
8204.3957
8204.3896
8204.3826
8204.3745
8204.3652
8204.3547
8204.3429
8204.3295
8204.3145
8204.2976
8204.2782
8204.2559
8204.2297
8204.1988
8204.1622
8204.1176
8204.0622
8203.9935
8203.9079
8203.801
8203.6678
8203.5028
8203.299
8203.0495
8202.7465
8202.3812
8201.9441
8201.4232
8200.8061
8200.079
8199.226
8198.229
8197.068
8195.7171
8194.1461
8192.3168
8190.1845
8187.6959
8184.7839
8181.37
8177.3544
8172.6176
8167.0109
8160.3164
8152.1196
8141.9566
8131.5524
8113.6723
8225.6545
8225.6543
8225.654
8225.6537
8225.6532
8225.6527
8225.6521
8225.6514
8225.6505
8225.6494
8225.6482
8225.6467
8225.6449
8225.6428
8225.6404
8225.6375
8225.6341
8225.6301
8225.6255
8225.6203
8225.6143
8225.6075
8225.6
8225.5918
8225.5827
8225.5729
8225.5625
8225.5514
8225.5398
8225.5279
8225.5162
8225.5051
8225.4951
8225.4861
8225.4774
8225.4677
8225.4567
8225.4439
8225.4271
8225.4052
8225.3777
8225.3434
8225.3007
8225.2472
8225.1795
8225.0957
8224.9943
8224.8727
8224.7279
8224.5555
8224.349
8224.0975
8223.7848
8223.3905
8222.888
8222.2436
8221.413
8220.3419
8218.9595
8217.1861
8214.9057
8211.8872
8208.1368
8204.7196
8198.2079
8247.9912
8247.9909
8247.9906
8247.9902
8247.9898
8247.9894
8247.9888
8247.9882
8247.9875
8247.9867
8247.9858
8247.9847
8247.9835
8247.9821
8247.9804
8247.9785
8247.9762
8247.9737
8247.9708
8247.9676
8247.9639
8247.96
8247.9558
8247.9514
8247.947
8247.943
8247.9398
8247.9382
8247.939
8247.9437
8247.9541
8247.9721
8248.0005
8248.0409
8248.0959
8248.1683
8248.2617
8248.3778
8248.5191
8248.6911
8248.9
8249.1515
8249.4513
8249.8054
8250.2209
8250.7064
8251.2728
8251.9319
8252.6962
8253.5789
8254.5927
8255.7486
8257.0549
8258.5177
8260.1405
8261.9248
8263.8666
8265.96
8268.192
8270.5595
8273.0574
8275.6577
8278.6052
8282.4089
8285.2948
8270.292
8270.2918
8270.2915
8270.2911
8270.2908
8270.2905
8270.2901
8270.2897
8270.2893
8270.2889
8270.2885
8270.288
8270.2875
8270.2871
8270.2866
8270.2861
8270.2857
8270.2852
8270.2849
8270.2846
8270.2844
8270.2844
8270.2847
8270.2855
8270.2871
8270.2901
8270.2952
8270.3039
8270.3178
8270.3393
8270.372
8270.4197
8270.4859
8270.5755
8270.6933
8270.8446
8271.0357
8271.2745
8271.5703
8271.9336
8272.3767
8272.9122
8273.5532
8274.3144
8275.213
8276.2688
8277.5053
8278.9483
8280.6262
8282.5693
8284.8098
8287.3812
8290.3173
8293.6522
8297.4198
8301.6574
8306.4021
8311.6976
8317.5913
8324.1515
8331.4586
8339.6317
8348.9553
8359.7354
8371.7841
8292.4594
8292.4591
8292.4588
8292.4585
8292.4583
8292.4581
8292.4579
8292.4578
8292.4578
8292.4578
8292.4579
8292.4582
8292.4586
8292.4592
8292.4601
8292.4612
8292.4627
8292.4646
8292.4669
8292.4698
8292.4734
8292.4776
8292.4829
8292.4893
8292.4974
8292.5079
8292.522
8292.5416
8292.5694
8292.6087
8292.6639
8292.74
8292.844
8292.9824
8293.1612
8293.3897
8293.6784
8294.0395
8294.4876
8295.0394
8295.7135
8296.5294
8297.508
8298.6732
8300.0523
8301.6765
8303.5813
8305.8069
8308.397
8311.3996
8314.866
8318.8524
8323.4185
8328.6268
8334.5426
8341.2382
8348.7921
8357.2962
8366.8549
8377.6017
8389.6911
8403.3427
8418.8891
8436.7236
8457.4069
8314.3961
8314.3959
8314.3956
8314.3954
8314.3953
8314.3952
8314.3953
8314.3955
8314.3958
8314.3963
8314.397
8314.398
8314.3993
8314.4011
8314.4033
8314.406
8314.4094
8314.4136
8314.4186
8314.4246
8314.4318
8314.4403
8314.4504
8314.4624
8314.4771
8314.4955
8314.5191
8314.5502
8314.5921
8314.6496
8314.7283
8314.8354
8314.9787
8315.1657
8315.4068
8315.7135
8316.1
8316.5832
8317.1827
8317.921
8318.8231
8319.9156
8321.2277
8322.7925
8324.6479
8326.8359
8329.4045
8332.4075
8335.9044
8339.9604
8344.6466
8350.0413
8356.2293
8363.3016
8371.355
8380.4965
8390.8454
8402.5399
8415.7384
8430.6354
8447.4588
8466.5122
8488.2023
8513.0493
8541.8236
8336.0218
8336.0215
8336.0213
8336.0212
8336.0212
8336.0213
8336.0216
8336.022
8336.0227
8336.0236
8336.0249
8336.0265
8336.0286
8336.0313
8336.0347
8336.0388
8336.0438
8336.0499
8336.0572
8336.0659
8336.0762
8336.0884
8336.1027
8336.1199
8336.1406
8336.1662
8336.1988
8336.2412
8336.2978
8336.3743
8336.4776
8336.6162
8336.7989
8337.0365
8337.3408
8337.7265
8338.2112
8338.8163
8339.5662
8340.489
8341.6157
8342.9806