/*--------------------------------*- C++ -*----------------------------------*\
  =========                 |
  \\      /  F ield         | OpenFOAM: The Open Source CFD Toolbox
   \\    /   O peration     | Website:  https://openfoam.org
    \\  /    A nd           | Version:  13
     \\/     M anipulation  |
\*---------------------------------------------------------------------------*/
FoamFile
{
    format      ascii;
    class       volVectorField;
    location    "41.100963";
    object      wallShearStress;
}
// * * * * * * * * * * * * * * * * * * * * * * * * * * * * * * * * * * * * * //

dimensions      [0 2 -2 0 0 0 0];

internalField   uniform (0 0 0);

boundaryField
{
    inlet
    {
        type            calculated;
        value           uniform (0 0 0);
    }
    outlet
    {
        type            calculated;
        value           uniform (0 0 0);
    }
    cylinder
    {
        type            calculated;
        value           nonuniform List<vector> 
132
(
(-1.5874161e-05 0.0014127936 -2.7948868e-22)
(-4.3760573e-05 0.0011482742 7.9389252e-23)
(-5.7196532e-05 0.00087728736 4.3705541e-21)
(-5.5525402e-05 0.00060274629 -1.4616788e-20)
(-3.872107e-05 0.00033067529 1.0280754e-20)
(-6.9862488e-06 6.4584838e-05 3.1297199e-20)
(3.8870377e-05 -0.00019086531 -5.9078451e-21)
(9.7329903e-05 -0.00043132515 -2.3319893e-20)
(0.00016717881 -0.00065259058 2.1903182e-20)
(0.00024595323 -0.00085098679 -4.8949624e-20)
(0.00033114014 -0.0010234609 -8.8814667e-22)
(0.00041999397 -0.0011677152 3.0242141e-20)
(0.00050963056 -0.0012823794 4.921335e-20)
(0.00059738127 -0.0013671278 -3.9904306e-20)
(0.00068077678 -0.0014226958 4.1961961e-20)
(0.00075790074 -0.0014510925 6.7476294e-20)
(0.00082748411 -0.001455307 -4.4191645e-20)
(0.00088932772 -0.0014396163 7.0873583e-20)
(0.00094428798 -0.0014090291 9.3715924e-20)
(0.00099474026 -0.0013695331 -6.0809193e-20)
(0.0010448072 -0.0013278474 -7.7542092e-20)
(0.0011003707 -0.0012908915 2.7318661e-23)
(0.0011696953 -0.001266016 1.1262681e-20)
(0.0012628571 -0.001259791 -1.3493741e-20)
(0.0013916472 -0.0012775893 -2.2970172e-20)
(0.0015676933 -0.0013217395 4.9151588e-21)
(0.001798637 -0.0013889303 -4.4391445e-20)
(0.0020876196 -0.001471411 1.1860168e-20)
(0.0024265487 -0.0015541557 9.3097539e-21)
(0.0027961986 -0.001618176 -6.4067742e-20)
(0.0031735892 -0.0016473918 8.3503741e-20)
(0.0035292833 -0.0016279876 2.523527e-21)
(0.003836318 -0.0015535338 1.8158462e-20)
(0.0040468948 -0.0014159268 -2.1473219e-20)
(0.0040717573 -0.0012046599 6.8073829e-20)
(0.0037731633 -0.00091600626 -4.2945405e-21)
(0.002980758 -0.00056891149 1.7276662e-20)
(0.0014766392 -0.00021198866 -2.3655794e-21)
(-0.00094413614 5.5252551e-05 3.3843388e-21)
(-0.0045078065 9.2521433e-05 -2.1050298e-21)
(-0.0095681305 -0.00032346044 3.9202829e-21)
(-0.016071888 -0.0014971548 -1.2059143e-22)
(-0.023472779 -0.0036144245 4.4118811e-20)
(-0.031320331 -0.0067683087 -1.6966138e-20)
(-0.039022925 -0.010924698 1.5280925e-20)
(-0.046102273 -0.015956447 -9.8016424e-20)
(-0.052123065 -0.021636837 -1.5789165e-20)
(-0.056817139 -0.027706169 1.3853412e-19)
(-0.060002129 -0.03387686 -1.1813633e-19)
(-0.061639459 -0.039881181 -2.2572322e-21)
(-0.061733063 -0.045444297 3.6072862e-20)
(-0.06042515 -0.050369681 -3.3013058e-20)
(-0.057804689 -0.054415584 -6.5314473e-21)
(-0.054077908 -0.057439712 -4.2433571e-21)
(-0.049484452 -0.059357525 -7.0122333e-21)
(-0.044189932 -0.060024117 -2.0726486e-21)
(-0.038452613 -0.059428174 5.6552526e-22)
(-0.032488802 -0.057542636 4.7375592e-20)
(-0.026523891 -0.054394589 -7.3324324e-20)
(-0.020770039 -0.050040037 -7.8762178e-20)
(-0.015424747 -0.044566307 -3.2093605e-20)
(-0.010666864 -0.03809037 -7.374758e-20)
(-0.0066520283 -0.030753789 1.647751e-20)
(-0.0035078942 -0.022720927 2.3994115e-20)
(-0.0013378026 -0.014185109 -3.7302607e-20)
(-0.0001987593 -0.0053103569 -4.9824975e-21)
(2.5939937e-05 0.0016690448 -1.2881442e-21)
(8.156229e-05 0.0019176051 -7.6841436e-23)
(0.00015167049 0.0021565988 -4.4156195e-21)
(0.00023523104 0.0023814948 1.4813698e-20)
(0.00033104294 0.002587815 -1.0457965e-20)
(0.00043738036 0.0027710519 -3.195066e-20)
(0.00055195764 0.0029269861 6.0517197e-21)
(0.00067207867 0.0030517601 2.396348e-20)
(0.00079464069 0.0031421559 -2.2573306e-20)
(0.00091618528 0.0031956975 5.0579089e-20)
(0.001033105 0.0032109986 9.1979483e-22)
(0.0011417707 0.0031877487 -3.1380862e-20)
(0.0012388112 0.0031270501 -5.1146615e-20)
(0.0013213464 0.0030314577 4.1522142e-20)
(0.0013870729 0.0029045969 -4.3700755e-20)
(0.0014347976 0.0027517856 -7.0309762e-20)
(0.0014645429 0.002579527 4.6057979e-20)
(0.0014777768 0.0023953328 -7.3864949e-20)
(0.0014777374 0.002207657 -9.7648144e-20)
(0.0014693566 0.0020251944 6.3335614e-20)
(0.0014598105 0.0018571489 8.0723268e-20)
(0.0014581802 0.0017122166 7.2290145e-20)
(0.001476326 0.0015991671 5.9384936e-20)
(0.0015278498 0.0015251228 1.4025103e-20)
(0.0016283437 0.001495589 2.3865499e-20)
(0.0017917937 0.0015111333 -5.1056269e-21)
(0.002027109 0.0015656229 4.6110928e-20)
(0.002333658 0.0016449873 -1.2322794e-20)
(0.0026987857 0.0017286391 -9.6778357e-21)
(0.0030956548 0.0017916639 6.665651e-20)
(0.0034846019 0.0018091447 -8.6975157e-20)
(0.003833619 0.0017687713 -2.6165449e-21)
(0.0041116622 0.0016655797 4.3153626e-20)
(0.004254101 0.0014892 2.247395e-20)
(0.0041574113 0.0012311293 -7.1408482e-20)
(0.0036669588 0.0008919779 4.5167859e-21)
(0.0025983898 0.00049913835 1.3289819e-20)
(0.00071888812 0.00011258086 2.5025342e-21)
(-0.0021648666 -0.00015406651 -3.5895602e-21)
(-0.0062320443 -0.00013511991 2.2371676e-21)
(-0.011851946 0.0003958018 -4.1699797e-21)
(-0.018868844 0.0017538061 3.3800936e-20)
(-0.026633515 0.0040972411 -4.6773357e-20)
(-0.034667971 0.0074878489 1.7917464e-20)
(-0.042376508 0.011860239 -1.6062299e-20)
(-0.049332672 0.017071372 1.0248783e-19)
(-0.055106452 0.022871208 1.6414237e-20)
(-0.059474373 0.028998089 -1.4318488e-19)
(-0.062292474 0.03516633 1.2135414e-19)
(-0.063545321 0.041110855 2.3039178e-21)
(-0.063256991 0.046562872 -3.6553952e-20)
(-0.061593524 0.051340526 3.3170139e-20)
(-0.058634027 0.055193182 -5.2231501e-20)
(-0.054608098 0.057999957 4.1189583e-21)
(-0.049770334 0.059697496 -8.7068348e-21)
(-0.044260979 0.060117513 2.870348e-21)
(-0.038355724 0.059275152 -6.1481808e-22)
(-0.032266242 0.057144822 -4.9837939e-20)
(-0.02621672 0.053760497 7.6042987e-20)
(-0.02041727 0.049185131 8.0977872e-20)
(-0.015061557 0.043510562 3.2791312e-20)
(-0.010324683 0.036859634 7.4977764e-20)
(-0.0063572086 0.029377093 -1.6681771e-20)
(-0.0032815925 0.021232233 4.7995339e-20)
(-0.0011952413 0.012614897 3.7490308e-20)
(-0.00015171417 0.0037147753 4.9936883e-21)
)
;
    }
    frontAndBack
    {
        type            empty;
    }
}


// ************************************************************************* //
