/*--------------------------------*- C++ -*----------------------------------*\
  =========                 |
  \\      /  F ield         | OpenFOAM: The Open Source CFD Toolbox
   \\    /   O peration     | Website:  https://openfoam.org
    \\  /    A nd           | Version:  13
     \\/     M anipulation  |
\*---------------------------------------------------------------------------*/
FoamFile
{
    format      ascii;
    class       volSymmTensorField;
    location    "22.103598";
    object      UPrime2Mean;
}
// * * * * * * * * * * * * * * * * * * * * * * * * * * * * * * * * * * * * * //

dimensions      [0 2 -2 0 0 0 0];

internalField   nonuniform List<symmTensor> 
17140
(
(4.3746778e-12 -2.6050364e-10 -2.4993963e-27 1.7421249e-08 4.2244296e-26 1.358601e-40)
(4.3276787e-10 -4.2135303e-09 -1.236624e-27 1.6531824e-07 9.1884552e-27 1.1650801e-42)
(3.9231252e-09 -1.7536247e-08 2.1020024e-25 5.0025267e-07 -9.750799e-25 5.0770708e-39)
(1.8602398e-08 -4.9016441e-08 -4.6075172e-25 1.0728892e-06 1.507316e-24 6.1328844e-39)
(6.2474439e-08 -1.1074609e-07 9.3774189e-26 1.9428445e-06 -2.3224771e-25 8.3764473e-41)
(1.7149783e-07 -2.1963502e-07 -4.9244505e-25 3.1792035e-06 9.6362213e-25 8.9654936e-40)
(4.1226815e-07 -3.9831619e-07 -1.2611189e-24 4.8606589e-06 2.0003581e-24 2.5388069e-39)
(9.0165464e-07 -6.7594624e-07 9.0130573e-25 7.0750657e-06 -1.178979e-24 6.0442078e-40)
(1.8366851e-06 -1.0886122e-06 4.1971697e-24 9.9181303e-06 -4.5833286e-24 6.4664612e-39)
(3.538796e-06 -1.6788499e-06 1.4318726e-23 1.3490948e-05 -1.3175897e-23 3.883562e-38)
(6.5176773e-06 -2.4936011e-06 -2.8999767e-23 1.789606e-05 2.2649611e-23 8.5214784e-38)
(1.1560954e-05 -3.5797413e-06 3.477725e-23 2.3231723e-05 -2.3183669e-23 6.7504068e-38)
(1.9856535e-05 -4.9760846e-06 7.0751464e-24 2.9584194e-05 -4.0429896e-24 1.5765022e-39)
(3.3154082e-05 -6.7006947e-06 -5.2587692e-23 3.7017987e-05 2.5857917e-23 5.0235927e-38)
(5.3970159e-05 -8.7325607e-06 7.6035555e-24 4.5564403e-05 -3.2249082e-24 6.1643975e-40)
(8.583739e-05 -1.098744e-05 -7.7745898e-23 5.5209051e-05 2.8507136e-23 3.8467625e-38)
(0.00013359093 -1.3289284e-05 3.7012368e-24 6.5879613e-05 -1.1757349e-24 5.2933069e-41)
(0.00020367642 -1.5341322e-05 -1.0590504e-24 7.7435601e-05 2.9049346e-25 2.6303752e-42)
(0.00030445431 -1.6704711e-05 -9.4216491e-23 8.9662189e-05 2.2489389e-23 1.3114271e-38)
(0.00044647118 -1.6796701e-05 1.5256867e-22 0.00010227013 -3.1618533e-23 2.1768788e-38)
(0.00064267612 -1.4922849e-05 -9.0977646e-23 0.00011490331 1.6371403e-23 4.9706062e-39)
(0.00090858408 -1.0354803e-05 2.1248833e-23 0.00012715501 -3.3271316e-24 1.7768505e-40)
(0.0012625066 -2.4577126e-06 1.9016263e-22 0.00013859403 -2.5848985e-23 9.4360202e-39)
(0.0017261689 9.1506492e-06 -2.2766801e-22 0.00014880387 2.6897654e-23 9.1490752e-39)
(0.0023246654 2.4535016e-05 -4.3049101e-22 0.00015744245 4.4213179e-23 2.2565354e-38)
(0.0030872119 4.3634314e-05 4.0656896e-22 0.00016432087 -3.6322409e-23 1.4167484e-38)
(0.0040516346 6.5850817e-05 2.3265178e-21 0.0001694425 -1.8057951e-22 3.3226152e-37)
(0.0052645941 9.093876e-05 3.169433e-22 0.00017301086 -2.1338348e-23 4.4886069e-39)
(0.006780856 0.00011969183 -3.1876786e-21 0.00017536129 1.8640535e-22 3.3758908e-37)
(0.0086679775 0.00015249487 -8.5047921e-22 0.000176918 4.3045901e-23 1.8068335e-38)
(0.011007679 0.00018971994 -3.4417657e-21 0.00017807667 1.5061906e-22 2.2611034e-37)
(0.013897461 0.00023200814 5.114169e-21 0.00017909172 -1.9304687e-22 3.8644875e-37)
(0.01745264 0.00027995571 -1.4997642e-21 0.00018004606 4.8605549e-23 2.5972045e-38)
(0.021808101 0.00033411629 -8.0207667e-22 0.00018087341 2.2269052e-23 5.8902811e-39)
(0.027119651 0.00039500373 -8.810056e-21 0.00018141023 2.0773017e-22 5.6713954e-37)
(0.03356413 0.00046319572 4.2954859e-21 0.00018146788 -8.5634258e-23 1.0912658e-37)
(0.041336832 0.00053949166 -7.1746446e-21 0.00018089346 1.1947508e-22 2.480222e-37)
(0.050644798 0.00062508006 -5.3553712e-21 0.00017961634 7.3620065e-23 1.1382023e-37)
(0.061693651 0.00072180801 -2.692441e-21 0.00017771866 3.0023622e-23 2.3912227e-38)
(0.074665262 0.00083263307 8.899343e-21 0.00017548456 -7.8898022e-23 2.1994746e-37)
(0.089684861 0.00096170251 1.8233406e-20 0.00017342186 -1.2404452e-22 7.8331461e-37)
(0.10677798 0.0011140009 1.7844602e-20 0.00017218347 -8.8564956e-23 6.4369539e-37)
(0.12582511 0.0012935447 8.3446643e-21 0.00017237077 -2.7644215e-23 1.2218484e-37)
(0.14654315 0.0015011472 -4.3269863e-20 0.00017441532 7.8082648e-23 2.8755205e-36)
(0.16847254 0.0017315559 -3.3436837e-20 0.00017860406 1.4581531e-23 1.5240945e-36)
(0.19102923 0.0019694246 8.6136425e-21 0.00018503709 7.0449421e-24 9.1037519e-38)
(0.21367785 0.0021985775 -6.0928711e-20 0.00019379649 -1.213919e-22 4.152431e-36)
(0.23583004 0.0024041828 -2.135389e-20 0.00020484794 -6.6180955e-23 4.718516e-37)
(0.25702871 0.0025773579 2.226044e-20 0.00021779858 9.2543093e-23 4.8183846e-37)
(0.27707198 0.0027151079 5.5285141e-20 0.00023207004 2.8591859e-22 2.8370754e-36)
(0.29571704 0.0028209616 -3.423917e-20 0.00024745711 -2.1040906e-22 1.056372e-36)
(0.31258802 0.0029085205 -2.1548899e-20 0.00026532338 -1.5278214e-22 4.1319026e-37)
(0.32730403 0.0030143134 5.5527237e-20 0.00028585446 4.4940568e-22 2.7571181e-36)
(0.3395905 0.003155191 2.5690003e-20 0.00030821093 2.3516e-22 6.0439389e-37)
(0.34929607 0.0033215869 1.7740213e-20 0.0003322185 1.8239441e-22 3.0144674e-37)
(0.35652935 0.0035168818 -1.3395808e-20 0.00035748452 -1.5423354e-22 1.8287798e-37)
(0.36112817 0.0037373644 3.4209329e-20 0.00038155042 4.3832306e-22 1.309294e-36)
(0.36241916 0.0039649556 2.6783243e-20 0.00039941175 3.8138974e-22 8.9969947e-37)
(0.35919089 0.0041670005 6.1918888e-21 0.00040677607 9.76474e-23 5.5702614e-38)
(0.34993598 0.0043335701 -1.4566622e-20 0.0004014093 -2.5332646e-22 3.6594311e-37)
(0.33290799 0.0045016456 -1.0172222e-20 0.00038478503 -1.9561437e-22 2.222568e-37)
(0.3077301 0.0047685042 -3.3013321e-20 0.00038014026 -7.0234447e-22 3.0232572e-36)
(0.27213053 0.0051390238 -4.1415338e-21 0.00041778737 -9.8392991e-23 6.4765403e-38)
(0.23028475 0.0055502009 2.9188082e-20 0.00051488593 7.7693688e-22 4.5726286e-36)
(0.17681813 0.0055459729 -1.8003124e-20 0.00059635262 -5.5796631e-22 2.7320767e-36)
(2.6652985e-10 -6.2264364e-09 3.4662877e-27 1.4551059e-07 -6.971368e-26 1.1002431e-41)
(4.291034e-09 -7.632408e-08 -1.1503444e-24 1.3697396e-06 1.8437323e-23 1.3980026e-37)
(1.9438406e-08 -2.7997177e-07 2.0053144e-24 4.1154222e-06 -2.6267027e-23 1.1066236e-37)
(6.1000972e-08 -7.1913448e-07 -9.2071964e-25 8.7575571e-06 1.0021125e-23 8.2203503e-39)
(1.5691571e-07 -1.5364678e-06 -2.9599834e-24 1.5719821e-05 2.7198286e-23 3.5058195e-38)
(3.5705228e-07 -2.9344986e-06 8.3798681e-24 2.5468122e-05 -6.5771157e-23 1.2790572e-37)
(7.4677867e-07 -5.1924223e-06 -1.250919e-23 3.8498603e-05 8.4498282e-23 1.3885607e-37)
(1.4674833e-06 -8.6857127e-06 1.5373346e-24 5.5317406e-05 -8.9841785e-24 1.0742764e-39)
(2.7472339e-06 -1.3908153e-05 -6.5724606e-24 7.6409984e-05 3.3359127e-23 1.0455856e-38)
(4.9454138e-06 -2.1493899e-05 -1.5015799e-25 0.00010219799 6.6386341e-25 2.9818808e-42)
(8.6162353e-06 -3.223643e-05 -3.9373339e-23 0.00013298264 1.5201435e-22 1.1608152e-37)
(1.459693e-05 -4.7099614e-05 8.237123e-23 0.00016887478 -2.7822331e-22 2.9225755e-37)
(2.4126946e-05 -6.72143e-05 8.8754563e-24 0.00020971526 -2.6264762e-23 1.9866264e-39)
(3.9004095e-05 -9.3851989e-05 -1.1333543e-22 0.00025499265 2.9415984e-22 1.9264442e-37)
(6.178178e-05 -0.00012836652 4.4689551e-23 0.00030377182 -1.0180685e-22 1.8063454e-38)
(9.600761e-05 -0.00017209619 3.6180476e-23 0.00035465237 -7.237253e-23 7.2286715e-39)
(0.00014649739 -0.00022622441 -2.9057152e-22 0.00040578188 5.1042392e-22 2.8805117e-37)
(0.00021963017 -0.0002916081 1.189684e-21 0.0004549501 -1.8351226e-21 3.0199091e-36)
(0.00032364196 -0.00036860142 -9.2926793e-22 0.00049978366 1.2584206e-21 1.1663196e-36)
(0.00046889248 -0.00045692553 1.3782067e-21 0.00053804202 -1.6379677e-21 1.6445183e-36)
(0.00066808643 -0.00055565529 -2.4992463e-21 0.0005679823 2.6060036e-21 3.5155678e-36)
(0.00093645323 -0.00066339628 7.4554671e-22 0.00058871809 -6.81885e-22 2.0644109e-37)
(0.0012919964 -0.00077871466 3.7030565e-22 0.00060046004 -2.9704566e-22 3.4164029e-38)
(0.0017561225 -0.00090081703 -1.4464407e-21 0.00060452567 1.0174891e-21 3.5521185e-37)
(0.0023537303 -0.0010299732 6.1544328e-21 0.00060307887 -3.7978953e-21 4.4669166e-36)
(0.0031136869 -0.0011675257 1.0775994e-21 0.00059853834 -5.8341286e-22 9.6656203e-38)
(0.0040733559 -0.0013163214 -6.4864597e-21 0.00059257154 3.0843178e-21 2.5269978e-36)
(0.0052790978 -0.0014793792 8.3939661e-21 0.00058631145 -3.5050172e-21 3.0984786e-36)
(0.0067850059 -0.00165849 -1.3214718e-21 0.00058104278 4.8477298e-22 5.7356118e-38)
(0.0086578282 -0.0018557889 -1.4772333e-20 0.00057746277 4.7534768e-21 5.3918066e-36)
(0.010978292 -0.0020732118 1.7358712e-21 0.00057574964 -4.9002461e-22 5.714758e-38)
(0.013842643 -0.0023120706 1.5043708e-20 0.00057580324 -3.7192402e-21 3.3158777e-36)
(0.017364651 -0.0025733777 4.3058511e-22 0.00057732852 -9.290283e-23 2.0844504e-39)
(0.021677294 -0.0028577041 -1.4148399e-20 0.00057989728 2.6773084e-21 1.822678e-36)
(0.026933894 -0.0031648113 1.7629142e-20 0.00058297495 -2.9140336e-21 2.2676661e-36)
(0.033307994 -0.0034929036 -8.8359707e-21 0.00058594144 1.2739682e-21 4.605487e-37)
(0.040990448 -0.003837471 1.150915e-20 0.00058810739 -1.4455049e-21 6.4022151e-37)
(0.050182211 -0.0041897467 4.0417144e-20 0.0005887577 -4.4102837e-21 6.5043599e-36)
(0.061080757 -0.0045347987 9.9531661e-21 0.00058727691 -9.407958e-22 3.2792242e-37)
(0.073857199 -0.0048494367 4.2495011e-20 0.00058335192 -3.4663692e-21 5.0333458e-36)
(0.088622859 -0.0051011611 -5.910216e-20 0.00057738336 4.1385085e-21 8.2851759e-36)
(0.10538641 -0.0052500855 -5.8786911e-20 0.00057113607 3.5080303e-21 7.0284227e-36)
(0.12400992 -0.0052556132 -1.0822874e-20 0.00056848907 5.4528023e-22 2.0574959e-37)
(0.14418733 -0.0050867832 9.1912297e-20 0.00057590603 -3.8494164e-21 1.3119924e-35)
(0.16543209 -0.0047342547 -4.6066696e-20 0.00060225589 1.5754021e-21 2.9207121e-36)
(0.18715316 -0.0042251369 -1.6770921e-20 0.00065708625 4.5619981e-22 3.4825231e-37)
(0.20873506 -0.0036099444 9.3219749e-21 0.00074592021 -1.9331537e-22 9.9032092e-38)
(0.22963561 -0.002948087 3.0075098e-20 0.00086300496 -4.4438239e-22 9.5229575e-37)
(0.24946445 -0.0023064994 -1.505237e-20 0.00099259999 1.401842e-22 2.2485794e-37)
(0.26794041 -0.0017101281 2.7690863e-20 0.001117315 -1.1597884e-22 7.2803564e-37)
(0.28481384 -0.0011356251 1.6758491e-19 0.0012250929 9.9488668e-23 2.5979953e-35)
(0.29978363 -0.00055438686 7.970343e-21 0.0013164063 4.1596356e-23 5.8355726e-38)
(0.31254806 4.3327122e-05 -3.5460654e-20 0.0013978905 -3.3875939e-22 1.1652277e-36)
(0.32293598 0.00063949767 7.7105017e-20 0.0014747829 1.0770891e-21 5.6727325e-36)
(0.33099782 0.0012023959 -6.3677225e-20 0.0015483982 -1.1759237e-21 4.0667004e-36)
(0.33684324 0.0017506438 1.7280607e-19 0.0016123667 3.9929367e-21 3.2192368e-35)
(0.34041464 0.0023551381 4.6603695e-20 0.0016516247 1.3099008e-21 2.5766244e-36)
(0.34115358 0.0030870431 -1.2229768e-19 0.0016504322 -4.0899966e-21 2.0115319e-35)
(0.33786495 0.0040105003 1.9132939e-20 0.0015918551 7.5611369e-22 5.7206437e-37)
(0.32902867 0.0051387081 1.9704381e-20 0.0014614938 9.0759499e-22 7.3656247e-37)
(0.31271616 0.0064937072 3.5029492e-21 0.0012566264 1.8741579e-22 2.940348e-38)
(0.28839857 0.0081137166 -4.0548927e-20 0.0010348435 -2.5216389e-21 5.1639918e-36)
(0.25373327 0.0097910637 6.6797214e-20 0.0008660033 4.8375733e-21 1.9566412e-35)
(0.21310837 0.011492305 1.653221e-20 0.0008800473 1.405431e-21 1.7529775e-36)
(0.16109455 0.011702954 2.1402846e-20 0.0010247219 2.199019e-21 4.8405679e-36)
(2.3233622e-09 -3.3158975e-08 5.1651799e-25 4.7325481e-07 -6.9917956e-24 3.3441772e-38)
(2.6471553e-08 -3.4341695e-07 -8.1544887e-25 4.4570659e-06 1.0127378e-23 1.2771093e-38)
(9.4170914e-08 -1.1225353e-06 -3.7890831e-25 1.3397052e-05 4.3084421e-24 9.0296357e-40)
(2.3928549e-07 -2.609397e-06 5.4957896e-25 2.852262e-05 -5.7136619e-24 8.1144679e-40)
(5.1456541e-07 -5.1243807e-06 -3.8249344e-24 5.1225806e-05 3.6367184e-23 1.9044123e-38)
(1.0032502e-06 -9.1026746e-06 -3.9380991e-25 8.3042032e-05 3.4235489e-24 1.0520749e-40)
(1.8343252e-06 -1.5124008e-05 -6.7902479e-24 0.00012561284 5.3900926e-23 1.7163248e-38)
(3.2046198e-06 -2.3946743e-05 -9.7007802e-24 0.00018062192 7.018374e-23 1.9901982e-38)
(5.4106894e-06 -3.6545849e-05 1.0370777e-22 0.00024969701 -6.8243162e-22 1.3275981e-36)
(8.8937174e-06 -5.41506e-05 -1.1987872e-22 0.00033427095 7.1595249e-22 1.0565034e-36)
(1.4301639e-05 -7.8276756e-05 7.3661522e-23 0.00043539718 -3.9843934e-22 2.4142151e-37)
(2.2573371e-05 -0.00011074526 1.3766433e-22 0.00055352022 -6.7301463e-22 5.1687359e-37)
(3.5050418e-05 -0.00015367645 -3.4619339e-22 0.00068821015 1.5265794e-21 2.0254541e-36)
(5.3620739e-05 -0.00020944598 -5.4080949e-23 0.00083788408 2.1466633e-22 3.0896401e-38)
(8.0898227e-05 -0.00028058714 2.6222229e-22 0.0009995556 -9.3505386e-22 4.5803473e-37)
(0.00012043808 -0.00036962721 2.253855e-22 0.0011686751 -7.2054097e-22 2.149172e-37)
(0.00017698335 -0.00047885393 -3.2524293e-22 0.0013391432 9.3030705e-22 2.8643016e-37)
(0.00025673184 -0.00061002724 1.4579224e-21 0.0015035877 -3.7235815e-21 3.7120433e-36)
(0.00036760604 -0.00076408053 -1.0611419e-21 0.0016539803 2.415195e-21 1.279548e-36)
(0.00051950822 -0.00094089528 6.4243387e-22 0.0017826083 -1.3005401e-21 3.0793813e-37)
(0.00072454953 -0.0011392677 -2.6337641e-21 0.0018833186 4.7340434e-21 3.4376839e-36)
(0.0009972606 -0.0013571922 -8.2682719e-22 0.0019527993 1.3174239e-21 2.2775187e-37)
(0.0013548735 -0.001592567 2.0651564e-21 0.0019915304 -2.9129212e-21 9.6870413e-37)
(0.0018179634 -0.0018443405 -3.6907887e-21 0.0020039894 4.6029175e-21 2.1403295e-36)
(0.0024108397 -0.0021133862 -1.7120001e-21 0.001997871 1.8858909e-21 3.2338961e-37)
(0.0031613999 -0.0024024331 2.3992087e-21 0.0019821049 -2.3339174e-21 4.5505506e-37)
(0.0041057582 -0.0027166769 1.5794127e-20 0.0019633804 -1.3557244e-20 1.4316351e-35)
(0.0052893445 -0.0030621267 8.2270453e-21 0.0019459009 -6.2284811e-21 2.865341e-36)
(0.0067644462 -0.0034431549 -4.691629e-21 0.0019331302 3.1319064e-21 7.0019145e-37)
(0.0085956209 -0.003864356 5.7248161e-21 0.0019266597 -3.3644058e-21 7.8874554e-37)
(0.010860828 -0.0043299793 -4.0450892e-21 0.0019264967 2.0931288e-21 3.0501236e-37)
(0.013652886 -0.0048432484 -2.5896437e-20 0.0019319237 1.1776198e-20 9.697049e-36)
(0.017081278 -0.0054067099 9.7503009e-21 0.0019418636 -3.8947101e-21 1.0828679e-36)
(0.021273632 -0.0060219371 3.2634844e-20 0.001955023 -1.1440211e-20 9.6468959e-36)
(0.02637647 -0.0066887576 -1.2142887e-20 0.0019698036 3.7336664e-21 1.0780003e-36)
(0.032554427 -0.0074038465 -1.8952117e-20 0.0019841776 5.1033773e-21 2.1260237e-36)
(0.039986667 -0.008158587 3.643201e-20 0.0019955633 -8.5815673e-21 6.436693e-36)
(0.048858778 -0.0089361726 1.2300424e-20 0.0020008027 -2.5297316e-21 6.0549018e-37)
(0.059347971 -0.0097080631 -2.4037562e-20 0.0019964238 4.3078704e-21 1.9380814e-36)
(0.07159908 -0.010430298 -1.0548608e-20 0.0019793535 1.6420133e-21 3.152829e-37)
(0.085690329 -0.011041684 5.5302516e-20 0.0019484795 -7.4430907e-21 7.364464e-36)
(0.10159097 -0.011467457 -1.692996e-20 0.0019074789 1.9563803e-21 5.9782459e-37)
(0.11911931 -0.011630788 -2.6433326e-20 0.0018681287 2.6061997e-21 1.2642818e-36)
(0.13791923 -0.011471576 -7.5580918e-20 0.0018525204 6.281675e-21 9.0798365e-36)
(0.15746089 -0.010970543 1.5256945e-19 0.0018925985 -1.0513041e-20 3.3037805e-35)
(0.1771283 -0.010176705 -1.0410303e-19 0.0020230953 5.824156e-21 1.389847e-35)
(0.19631607 -0.0091928736 -2.7491304e-20 0.0022618268 1.2161017e-21 8.8557883e-37)
(0.21452938 -0.0081351569 -1.125144e-19 0.002589976 3.7355517e-21 1.3881514e-35)
(0.23142919 -0.0071133483 -1.3843098e-19 0.0029601281 3.2085513e-21 1.9914936e-35)
(0.24682928 -0.0061752054 -7.161718e-21 0.0033130924 1.0375223e-22 5.1091352e-38)
(0.26058791 -0.0052930467 3.0494535e-20 0.0036090502 -1.598626e-22 9.1091664e-37)
(0.27250895 -0.0044179752 -2.232455e-19 0.0038499605 -7.570744e-22 4.8897981e-35)
(0.28239304 -0.0035420111 -9.3825719e-20 0.0040623538 -1.0711958e-21 8.7964958e-36)
(0.29018603 -0.0027158203 -9.4019699e-20 0.0042696885 -1.8232426e-21 9.1766322e-36)
(0.29604515 -0.0019883487 -2.9778291e-20 0.0044727485 -8.2593356e-22 9.7722827e-37)
(0.30015191 -0.0013179767 -2.1916117e-19 0.0046471198 -7.8854236e-21 5.758034e-35)
(0.30249729 -0.00055729369 8.1890864e-20 0.0047489968 3.7068071e-21 8.9546073e-36)
(0.30247464 0.00047787077 -2.3036723e-20 0.004736435 -1.2692266e-21 8.1801472e-37)
(0.29880897 0.0019597876 -1.7290164e-19 0.0045675083 -1.1478894e-20 5.4426598e-35)
(0.28993812 0.0039428471 -6.1661611e-20 0.0042134583 -4.8859256e-21 8.5260259e-36)
(0.27379125 0.0064307148 6.4401422e-20 0.0036605908 6.0487443e-21 1.2025694e-35)
(0.24998528 0.0093759014 1.901035e-19 0.0030317635 2.1143071e-20 1.4191259e-34)
(0.21605849 0.012275011 -5.0364222e-20 0.0024573607 -6.6619203e-21 1.4470004e-35)
(0.17787756 0.01518034 -6.5554746e-20 0.0022638529 -1.0457076e-20 3.7588108e-35)
(0.1293883 0.015491695 -2.1175884e-20 0.0023411443 -4.1978351e-21 6.8943942e-36)
(9.2897631e-09 -9.4427357e-08 -3.4034766e-24 9.5982724e-07 3.3692634e-23 3.7505012e-37)
(9.5595171e-08 -9.2993522e-07 1.1054917e-23 9.0467742e-06 -1.0496916e-22 6.6391341e-37)
(3.1235732e-07 -2.9152456e-06 -6.6797419e-24 2.7212747e-05 6.0627476e-23 8.6770931e-38)
(7.2838155e-07 -6.4976422e-06 1.0641043e-24 5.7983987e-05 -9.2098155e-24 1.0250498e-39)
(1.4410562e-06 -1.225204e-05 -2.9018797e-23 0.00010423312 2.3905806e-22 4.0042381e-37)
(2.5905608e-06 -2.0922754e-05 4.0003642e-23 0.00016914646 -3.1300631e-22 4.2842101e-37)
(4.3770623e-06 -3.3461159e-05 -7.900056e-23 0.0002561558 5.8547863e-22 9.8508429e-37)
(7.0843412e-06 -5.1067028e-05 4.7596205e-23 0.00036881689 -3.330406e-22 2.1787397e-37)
(1.1112474e-05 -7.5232904e-05 2.2899639e-22 0.00051061952 -1.5077148e-21 3.1458384e-36)
(1.7021948e-05 -0.0001077857 -6.9057396e-23 0.0006847137 4.2631613e-22 1.8163349e-37)
(2.5592489e-05 -0.00015091884 -3.2774475e-22 0.00089354116 1.8903007e-21 2.6300979e-36)
(3.7900254e-05 -0.00020720476 1.2404429e-22 0.0011383691 -6.6599512e-22 2.4459616e-37)
(5.5417279e-05 -0.00027957432 1.023189e-23 0.0014187412 -5.0952295e-23 1.0898374e-39)
(8.0136698e-05 -0.00037124645 -4.9347785e-22 0.0017318862 2.2709333e-21 1.6641898e-36)
(0.00011472627 -0.00048559073 1.8950943e-21 0.0020721624 -8.0296447e-21 1.6214714e-35)
(0.00016271047 -0.00062590886 -1.4243029e-21 0.0024306622 5.5359867e-21 6.0761274e-36)
(0.00022867858 -0.00079513327 -1.657064e-23 0.0027951444 5.8864384e-23 5.4764186e-40)
(0.00031851219 -0.00099546408 1.1706165e-21 0.0031504887 -3.7867465e-21 1.8292613e-36)
(0.00043962249 -0.0012280026 -3.6053476e-21 0.0034798486 1.0581919e-20 1.1671448e-35)
(0.00060118929 -0.0014924896 2.0550656e-21 0.0037665773 -5.453637e-21 2.5675578e-36)
(0.00081440033 -0.001787299 3.6837922e-21 0.0039967968 -8.8092551e-21 5.6293328e-36)
(0.0010927042 -0.0021098485 1.7832913e-21 0.0041621811 -3.8306376e-21 9.0825428e-37)
(0.0014521377 -0.0024575429 -1.0475995e-20 0.0042622098 2.0156593e-20 2.1844609e-35)
(0.0019119742 -0.0028292948 -6.4612093e-21 0.0043049816 1.1106032e-20 5.8588598e-36)
(0.0024955004 -0.0032269563 4.8907839e-21 0.0043059266 -7.4940389e-21 2.4031327e-36)
(0.0032291805 -0.0036548697 -3.3231024e-21 0.0042840814 4.5297979e-21 8.0346093e-37)
(0.0041471601 -0.0041208215 1.4387942e-20 0.0042551543 -1.7425782e-20 1.1101078e-35)
(0.0052931824 -0.0046340084 -4.7501797e-21 0.0042286409 5.104074e-21 9.0317336e-37)
(0.006716849 -0.0052013685 1.463341e-20 0.0042113961 -1.3931783e-20 6.488694e-36)
(0.0084791571 -0.0058298498 -9.4052155e-21 0.0042068863 7.9230985e-21 2.0563081e-36)
(0.010653656 -0.0065259427 6.5945798e-21 0.0042152354 -4.908471e-21 7.8312254e-37)
(0.013327726 -0.0072946458 -2.7272874e-20 0.0042349214 1.7920116e-20 1.0523677e-35)
(0.016604027 -0.0081398256 4.3995738e-21 0.0042636865 -2.5492532e-21 2.1759964e-37)
(0.020601672 -0.00906373 -2.6029502e-20 0.0042987827 1.3283069e-20 6.0847229e-36)
(0.025456371 -0.010065814 2.7817285e-20 0.004336759 -1.2492137e-20 5.6233661e-36)
(0.031318825 -0.011140648 9.9264282e-21 0.0043730557 -3.9177967e-21 5.8145168e-37)
(0.038350184 -0.012274809 -1.3699233e-19 0.0044016531 4.7473133e-20 9.1712286e-35)
(0.046712685 -0.013442676 -3.9504642e-20 0.0044149797 1.1998379e-20 6.3316177e-36)
(0.056553465 -0.014601352 3.5990511e-20 0.0044043709 -9.5594195e-21 4.4170672e-36)
(0.067979339 -0.015685628 -3.8704576e-20 0.0043616672 8.9638878e-21 4.3280215e-36)
(0.081022617 -0.016605985 1.0863117e-20 0.0042828769 -2.1839267e-21 2.9056443e-37)
(0.095600774 -0.017254375 7.3535361e-20 0.0041745951 -1.2773819e-20 1.1556208e-35)
(0.11147855 -0.017521193 -3.6658969e-21 0.0040617055 5.4642477e-22 2.5261911e-38)
(0.12824733 -0.01732407 -2.8440296e-20 0.0039928404 3.590146e-21 1.3320123e-36)
(0.14535473 -0.016649088 1.4643199e-20 0.0040394577 -1.5315691e-21 3.1973688e-37)
(0.16221806 -0.015587415 -7.8426095e-21 0.0042764873 6.8089829e-22 8.0421144e-38)
(0.17829909 -0.014304243 -2.3368911e-20 0.0047380252 1.6113737e-21 6.7458121e-37)
(0.193222 -0.012985168 3.7114361e-19 0.0053815289 -1.9613734e-20 1.607984e-34)
(0.20680867 -0.011783456 -4.2517099e-20 0.0061008586 1.5911303e-21 2.0143299e-36)
(0.2190078 -0.010739547 3.9808056e-20 0.006766789 -9.6012605e-22 1.7154541e-36)
(0.22974901 -0.0097845301 -3.7511942e-19 0.0072997639 4.2198446e-21 1.5068096e-34)
(0.2388682 -0.0088401179 2.0370883e-19 0.0077126173 1.8624222e-22 4.481356e-35)
(0.24620649 -0.0079113505 1.6432758e-19 0.0080721424 2.1416391e-21 2.9969615e-35)
(0.25177984 -0.0070825895 1.51883e-19 0.0084337062 3.7870683e-21 2.6904413e-35)
(0.25581729 -0.0064107542 1.3991488e-19 0.0087998802 5.1889115e-21 2.4534413e-35)
(0.25852951 -0.0058144761 2.0736971e-19 0.0091190531 1.034358e-20 5.9377707e-35)
(0.25981849 -0.0050510646 -3.8649606e-19 0.0093015382 -2.4709434e-20 2.3321107e-34)
(0.2589554 -0.0038280924 2.185265e-19 0.0092665377 1.7361175e-20 8.6956236e-35)
(0.2545028 -0.0018815037 2.9930587e-19 0.0089352619 2.905691e-20 1.9746634e-34)
(0.24493613 0.00087920881 -1.9467108e-19 0.0082623618 -2.2908704e-20 1.0524717e-34)
(0.22817682 0.0044105479 -5.3725661e-20 0.0072248745 -7.6122254e-21 1.0648982e-35)
(0.20439493 0.0085937137 -3.9385795e-20 0.0060250201 -6.7251785e-21 8.073918e-36)
(0.17099408 0.01248408 1.6360253e-19 0.0049135403 3.3918852e-20 2.0909332e-34)
(0.13549175 0.016179842 9.4458698e-20 0.0043916808 2.4188849e-20 1.1281164e-34)
(0.092332353 0.016389614 -2.9694871e-21 0.0042795108 -9.8652717e-22 2.1895044e-37)
(2.4986911e-08 -1.9595505e-07 3.9647727e-24 1.5367422e-06 -3.0613687e-23 1.8595519e-37)
(2.4671431e-07 -1.8912904e-06 -2.6332103e-23 1.4498673e-05 1.9868132e-22 1.4332441e-36)
(7.7699742e-07 -5.8237591e-06 3.5117854e-23 4.3652211e-05 -2.5824876e-22 9.523925e-37)
(1.7417507e-06 -1.2734022e-05 -1.9039049e-23 9.3107899e-05 1.3622121e-22 1.3598106e-37)
(3.3085171e-06 -2.3543497e-05 -9.2928192e-24 0.00016756477 6.4584282e-23 1.7742296e-38)
(5.7024995e-06 -3.9397956e-05 1.0438573e-22 0.000272271 -7.0336902e-22 1.3133075e-36)
(9.2252312e-06 -6.1707449e-05 -3.3718749e-23 0.00041292995 2.1975716e-22 8.4215263e-38)
(1.4278749e-05 -9.2186551e-05 -8.9821375e-23 0.00059552309 5.6465639e-22 3.7950528e-37)
(2.1397537e-05 -0.00013289392 -8.5399832e-24 0.00082602475 5.1626469e-23 2.2327975e-39)
(3.1289651e-05 -0.00018626389 -8.913152e-23 0.0011099817 5.1647075e-22 1.6100776e-37)
(4.4889281e-05 -0.00025512228 1.5232764e-22 0.0014519358 -8.4313015e-22 3.1540099e-37)
(6.3423068e-05 -0.00034267524 -1.2858432e-22 0.0018546785 6.7738194e-22 1.5216667e-37)
(8.8492746e-05 -0.00045245707 -5.7345846e-22 0.0023183521 2.864417e-21 2.0625915e-36)
(0.00012217624 -0.0005882207 -2.0121794e-23 0.0028394521 9.4924416e-23 1.7374967e-39)
(0.00016714909 -0.00075375539 6.3714523e-22 0.0034098433 -2.8271206e-21 1.1989051e-36)
(0.00022682713 -0.00095262165 5.4253457e-22 0.0040159798 -2.2546875e-21 5.9922012e-37)
(0.00030552995 -0.0011878074 -5.6019974e-22 0.0046386003 2.1709733e-21 4.4151915e-37)
(0.0004086641 -0.0014613361 6.4295694e-23 0.0052532287 -2.3131336e-22 4.0416003e-39)
(0.00054292497 -0.0017738977 1.5618585e-21 0.0058318081 -5.1926103e-21 1.6549567e-36)
(0.00071651924 -0.0021246239 2.266149e-21 0.0063456649 -6.9306023e-21 2.4333535e-36)
(0.00093941777 -0.002511176 -3.0677556e-21 0.00676969 8.5916142e-21 3.1334965e-36)
(0.0012236588 -0.0029303208 -3.6441317e-21 0.0070871345 9.3046835e-21 3.1296398e-36)
(0.0015837342 -0.0033790949 5.7580164e-21 0.0072938466 -1.3347561e-20 5.5799585e-36)
(0.002037239 -0.0038565889 -8.3191922e-21 0.0074003746 1.7438658e-20 8.4020701e-36)
(0.0026059601 -0.0043659336 -1.6727041e-20 0.0074305549 3.1592506e-20 2.4779497e-35)
(0.0033148143 -0.0049136043 4.5430935e-20 0.0074162798 -7.7075854e-20 1.3511065e-34)
(0.0041953263 -0.0055103504 -2.8642381e-20 0.0073870748 4.3534927e-20 4.0199154e-35)
(0.0052884873 -0.0061684477 4.8324112e-20 0.0073599336 -6.5651917e-20 8.6703911e-35)
(0.0066409266 -0.0068976784 -6.8397006e-20 0.0073463285 8.2880096e-20 1.3324128e-34)
(0.0083088225 -0.0077072061 8.6102807e-20 0.0073531009 -9.287039e-20 1.6383431e-34)
(0.010359876 -0.0086055783 -9.9982449e-20 0.0073811516 9.582311e-20 1.7333706e-34)
(0.012874306 -0.0095993733 1.882183e-20 0.0074281012 -1.6004322e-20 4.8753537e-36)
(0.015945791 -0.01069342 7.2573063e-20 0.0074901048 -5.4665202e-20 5.7920676e-35)
(0.019682213 -0.01189017 -4.5530113e-20 0.007562298 3.0342809e-20 1.841531e-35)
(0.024205141 -0.013188101 1.5788286e-20 0.0076384415 -9.2974549e-21 1.8057821e-36)
(0.02964738 -0.014578966 5.0860261e-21 0.0077101642 -2.6438923e-21 1.5472214e-37)
(0.036147314 -0.01604375 6.932988e-20 0.0077662983 -3.1758451e-20 2.370525e-35)
(0.043838371 -0.01754728 2.4856255e-20 0.0077926935 -1.002038e-20 2.5422563e-36)
(0.052831757 -0.019031841 2.7464537e-20 0.0077729826 -9.7184718e-21 2.6148221e-36)
(0.063190943 -0.020411337 2.9544451e-20 0.0076915407 -9.1538312e-21 2.5885431e-36)
(0.074898935 -0.021569787 -1.6326279e-19 0.0075402243 4.4094961e-20 6.8050439e-35)
(0.087822068 -0.022370058 7.7275373e-20 0.0073300759 -1.8093435e-20 1.3259486e-35)
(0.10167938 -0.022677719 1.3259455e-20 0.0071053922 -2.6785111e-21 3.3902243e-37)
(0.11603533 -0.022403632 -1.6187766e-19 0.0069544861 2.7772031e-20 4.553263e-35)
(0.13036843 -0.021565085 -8.668287e-20 0.0070063277 1.2507992e-20 1.1765875e-35)
(0.14419161 -0.020320272 4.4537428e-20 0.0073886284 -5.3176189e-21 2.8544835e-36)
(0.15712663 -0.01890748 1.6812761e-19 0.0081446843 -1.610507e-20 3.7750375e-35)
(0.16898274 -0.017569616 -7.5058337e-20 0.0091883771 5.6142837e-21 7.1362034e-36)
(0.17973144 -0.016462084 2.2330759e-19 0.010323724 -1.2064986e-20 6.0705401e-35)
(0.1893698 -0.015574436 1.2227853e-19 0.011326567 -4.3599314e-21 1.783971e-35)
(0.19779738 -0.014770406 1.6818654e-19 0.012076316 -3.1592123e-21 3.3695856e-35)
(0.20479858 -0.013941268 4.4547921e-19 0.012618813 -7.6935123e-22 2.4063101e-34)
(0.21020404 -0.013121495 -3.3564556e-19 0.013086892 -4.8434813e-21 1.4208013e-34)
(0.21408286 -0.012443186 1.055031e-19 0.013579871 3.3478521e-21 1.4901358e-35)
(0.21671428 -0.011965334 -1.7219917e-19 0.014099308 -8.1901542e-21 4.3303261e-35)
(0.21827504 -0.011547072 -1.5341914e-19 0.01455754 -1.0089064e-20 3.8421402e-35)
(0.21850897 -0.010841126 -5.5428354e-20 0.014807477 -4.7623612e-21 5.7794756e-36)
(0.21656935 -0.0094551721 -4.5906942e-19 0.014715205 -4.9151037e-20 4.713491e-34)
(0.21085198 -0.0070634619 -1.1018019e-19 0.014156528 -1.4611105e-20 3.3612589e-35)
(0.20003402 -0.0035599618 2.2030564e-19 0.013062463 3.5922255e-20 1.738736e-34)
(0.18213826 0.00091879436 7.0962481e-20 0.011425965 1.4197107e-20 2.4694658e-35)
(0.15811374 0.006174097 -4.3778259e-20 0.0095205474 -1.0735996e-20 1.3754809e-35)
(0.12571538 0.010816566 -7.1867487e-20 0.0078075452 -2.1844892e-20 5.8785135e-35)
(0.093132844 0.014772154 -8.5773557e-20 0.0068619007 -3.3013866e-20 1.4250557e-34)
(0.057367381 0.014663863 4.4953079e-21 0.0064460412 2.3047943e-21 8.2865281e-37)
(5.248036e-08 -3.3330772e-07 1.7929764e-23 2.1168703e-06 -1.1270335e-22 1.7263627e-36)
(5.0790151e-07 -3.1868493e-06 1.250349e-23 1.9996147e-05 -7.7539774e-23 1.5036915e-37)
(1.5703234e-06 -9.7285917e-06 -1.6350184e-23 6.0272538e-05 9.9836394e-23 9.857223e-38)
(3.4492105e-06 -2.1070516e-05 -8.5541978e-23 0.00012872107 5.1376783e-22 1.3436913e-36)
(6.4118058e-06 -3.8565944e-05 6.2566192e-23 0.00023198623 -3.6918809e-22 4.0326796e-37)
(1.0799299e-05 -6.3849417e-05 -1.1617189e-22 0.00037755038 6.7255724e-22 8.3520029e-37)
(1.704589e-05 -9.8874252e-05 6.3345201e-23 0.00057363133 -3.5916818e-22 1.5631151e-37)
(2.5701716e-05 -0.00014594463 1.8693802e-23 0.00082896959 -1.0359413e-22 8.8637076e-39)
(3.7461602e-05 -0.00020774064 -1.2946165e-22 0.0011524701 6.9954046e-22 2.8383765e-37)
(5.3199991e-05 -0.00028732729 -3.3821118e-22 0.0015526568 1.7773399e-21 1.317603e-36)
(7.4013412e-05 -0.00038813887 -2.0448483e-23 0.0020369028 1.0421656e-22 3.3175205e-39)
(0.00010127151 -0.0005139267 8.0167234e-22 0.0026104113 -3.9502682e-21 3.5563179e-36)
(0.0001366781 -0.00066865722 -1.3232974e-21 0.0032749509 6.2836976e-21 6.8000071e-36)
(0.00018234356 -0.00085634681 2.5422944e-21 0.0040273991 -1.1592254e-20 1.7709733e-35)
(0.00024087015 -0.0010808231 -7.8883734e-22 0.0048582305 3.4407712e-21 1.2077957e-36)
(0.00031545214 -0.001345411 1.9865587e-21 0.0057501904 -8.2550615e-21 5.4416883e-36)
(0.00040999395 -0.0016525606 -2.8421777e-21 0.0066775269 1.1202751e-20 7.9347121e-36)
(0.00052924975 -0.0020034583 2.1808006e-21 0.0076062641 -8.1158849e-21 3.3357199e-36)
(0.00067899328 -0.0023977106 -4.0624996e-22 0.0084960438 1.420529e-21 8.2927104e-38)
(0.00086622922 -0.0028332284 -1.938504e-21 0.0093039396 6.3368352e-21 1.356845e-36)
(0.0010994646 -0.0033064836 5.5268504e-21 0.0099902654 -1.6803121e-20 7.9634763e-36)
(0.0013890675 -0.0038133103 -9.1160318e-21 0.010525713 2.564288e-20 1.574047e-35)