/*--------------------------------*- C++ -*----------------------------------*\
  =========                 |
  \\      /  F ield         | OpenFOAM: The Open Source CFD Toolbox
   \\    /   O peration     | Website:  https://openfoam.org
    \\  /    A nd           | Version:  13
     \\/     M anipulation  |
\*---------------------------------------------------------------------------*/
FoamFile
{
    format      ascii;
    class       volScalarField;
    location    "6.398663";
    object      k;
}
// * * * * * * * * * * * * * * * * * * * * * * * * * * * * * * * * * * * * * //

dimensions      [0 2 -2 0 0 0 0];

internalField   nonuniform List<scalar> 
17140
(
6.09222e-11
1.9143814e-09
1.565426e-08
6.7319858e-08
2.0714096e-07
5.2260703e-07
1.1584861e-06
2.3465334e-06
4.4488537e-06
8.0202721e-06
1.3896604e-05
2.331704e-05
3.8089177e-05
6.0802771e-05
9.5089794e-05
0.00014590807
0.00021978509
0.00032488702
0.00047066909
0.00066673265
0.00092042985
0.0012328861
0.0015937146
0.001975974
0.0023345766
0.0026060542
0.0027404961
0.0027814394
0.002749804
0.0026641513
0.0025626841
0.0024638113
0.0023719422
0.0022867565
0.0022076677
0.0021343197
0.0020664682
0.0020039915
0.0019468647
0.0018951655
0.0018490111
0.001808143
0.0017705341
0.0017314163
0.001687801
0.0016641155
0.0016564238
0.0016771268
0.00172569
0.0017947144
0.0018847424
0.0019830227
0.002079409
0.0021646675
0.0022184203
0.0022608867
0.0022640856
0.0021126634
0.0019200475
0.001664702
0.0014132946
0.0011853924
0.000995064
0.00083853929
0.00068303332
6.0214595e-11
1.8921462e-09
1.5472481e-08
6.6538478e-08
2.0473817e-07
5.1654959e-07
1.1450715e-06
2.3193964e-06
4.3974894e-06
7.9278772e-06
1.3736983e-05
2.3050272e-05
3.7655725e-05
6.0115827e-05
9.402593e-05
0.00014429707
0.00021740124
0.0003214467
0.00046584307
0.00066018544
0.00091189996
0.0012223145
0.0015814087
0.0019627581
0.0023218474
0.0025962012
0.0027336671
0.002776008
0.0027453955
0.0026602228
0.0025587499
0.0024596097
0.0023674386
0.0022818331
0.0022021958
0.002128158
0.0020594685
0.0019959932
0.0019377362
0.001884799
0.0018373264
0.0017950823
0.0017558442
0.001714109
0.0016618877
0.0016319656
0.001618375
0.0016156247
0.0016369731
0.0016609074
0.0016880216
0.0017023183
0.0017081869
0.0016907201
0.0016749185
0.0016586872
0.0015634898
0.0014650972
0.0013243016
0.0011589474
0.00099008041
0.00082500524
0.00067071995
0.00055062566
0.0004584029
5.8535339e-11
1.8393784e-09
1.5040994e-08
6.4682991e-08
1.9902951e-07
5.0214984e-07
1.1131623e-06
2.2548018e-06
4.2751355e-06
7.7076098e-06
1.3356122e-05
2.2413158e-05
3.6619482e-05
5.8471757e-05
9.1476714e-05
0.00014043168
0.00021167303
0.00031316602
0.00045420474
0.00064436099
0.00089122892
0.0011966146
0.0015513757
0.0019303424
0.0022904058
0.0025716619
0.0027168929
0.0027630399
0.0027363662
0.002652716
0.0025513037
0.0024515478
0.0023582657
0.002271294
0.002190054
0.0021141268
0.0020431681
0.0019768298
0.0019152154
0.0018585287
0.0018068883
0.0017601998
0.0017160173
0.0016674793
0.0016013849
0.0015623207
0.0015420851
0.0015278362
0.0015199716
0.0015128498
0.0014999424
0.0014688273
0.0014060833
0.0013083896
0.0011930317
0.001118998
0.00098284052
0.00090831685
0.00083090421
0.0007468743
0.00065240042
0.00054954706
0.00045179943
0.00037468515
0.00033032869
5.5900824e-11
1.7565934e-09
1.4364055e-08
6.1771993e-08
1.9007338e-07
4.7955832e-07
1.0630996e-06
2.1534552e-06
4.0831577e-06
7.3619773e-06
1.2758431e-05
2.1413175e-05
3.4992696e-05
5.5889976e-05
8.7471865e-05
0.00013435565
0.00020266181
0.00030012575
0.00043585125
0.00061936002
0.00085849237
0.0011557875
0.0015034733
0.0018783604
0.0022395817
0.0025312658
0.0026888224
0.0027411465
0.0027207367
0.0026407434
0.0025393295
0.0024379698
0.0023423875
0.0022524088
0.0021677595
0.0020881771
0.0020135439
0.0019441354
0.0018801384
0.0018221014
0.0017709464
0.0017270497
0.0016875997
0.0016435473
0.0015847881
0.0015555838
0.0015395709
0.0015332113
0.0015307937
0.0015316122
0.0015230155
0.0014835588
0.0013937303
0.0012458514
0.0010437939
0.00091248036
0.00074186411
0.00065716263
0.00060491612
0.00055384534
0.00049305514
0.00042155859
0.00035785181
0.0003126463
0.00028933367
5.2357451e-11
1.645249e-09
1.3453583e-08
5.785673e-08
1.7802729e-07
4.4917167e-07
9.9575986e-07
2.0171234e-06
3.82488e-06
6.8969045e-06
1.1954006e-05
2.006686e-05
3.2801461e-05
5.2410108e-05
8.2069012e-05
0.00012614843
0.00019046922
0.00028244106
0.00041088331
0.00058520531
0.00081351391
0.001099254
0.0014364142
0.0018044073
0.002165363
0.0024678089
0.0026460209
0.0027093868
0.0026994176
0.0026230095
0.0025213171
0.0024169185
0.0023176858
0.0022246087
0.0021370666
0.0020548539
0.0019782166
0.0019077232
0.0018441918
0.0017888139
0.001742908
0.0017065514
0.0016754754
0.0016360797
0.0015923431
0.0015740776
0.0015690516
0.0015791029
0.0016104711
0.0016591601
0.0016877482
0.0016963313
0.0015650755
0.0013730456
0.0010361321
0.00083290305
0.00063012231
0.00052739353
0.0004725035
0.00043395009
0.00039392377
0.00035253307
0.00031486892
0.0002909189
0.00027602389
4.8032835e-11
1.5093554e-09
1.2342368e-08
5.3078183e-08
1.6332491e-07
4.1208349e-07
9.1356535e-07
1.8507059e-06
3.5095716e-06
6.3290461e-06
1.0971564e-05
1.8422052e-05
3.0123125e-05
4.8153854e-05
7.5454695e-05
0.00011608839
0.0001754989
0.00026067832
0.00038006574
0.00054288305
0.0007574964
0.0010283892
0.0013516688
0.0017099836
0.0020693134
0.0023814815
0.0025835116
0.0026630731
0.0026658606
0.0025968787
0.0024960785
0.0023898744
0.0022881029
0.0021923918
0.002102541
0.0020187772
0.0019417934
0.0018726359
0.0018127454
0.0017634475
0.0017258394
0.0016996883
0.0016776637
0.001643297
0.001624569
0.0016229985
0.0016524151
0.0017063303
0.0017855269
0.0018672147
0.0019169266
0.0019331412
0.0017718834
0.0014979955
0.00108467
0.0007757178
0.00053563863
0.00043099018
0.00038844554
0.0003643539
0.00034065736
0.00031816328
0.00029563692
0.00028282081
0.00026910406
4.3107836e-11
1.3545957e-09
1.1076881e-08
4.7636183e-08
1.4658098e-07
3.6984406e-07
8.199501e-07
1.66115e-06
3.1503785e-06
5.6820328e-06
9.8518719e-06
1.6546721e-05
2.7067717e-05
4.3294604e-05
6.7895188e-05
0.00010457382
0.00015832984
0.00023565206
0.00034449944
0.00049380703
0.00069213465
0.0009450321
0.0012509287
0.0015961543
0.0019511899
0.0022717956
0.0025006324
0.0026049143
0.0026216194
0.0025645022
0.0024673684
0.0023602978
0.0022563437
0.0021585734
0.0020674161
0.0019835533
0.0019081145
0.0018424505
0.0017878967
0.0017451908
0.0017170315
0.0017014425
0.0016879975
0.0016778436
0.0016818716
0.0017108685
0.0017635027
0.0018318139
0.0019191421
0.0020204341
0.0020967565
0.0021257131
0.0019344331
0.0015569813
0.00110382
0.00071368927
0.00046658248
0.00036798688
0.00033848875
0.0003263848
0.00031409889
0.00030152892
0.00028677841
0.00027793804
0.00025673057
3.7771892e-11
1.1869226e-09
9.705794e-09
4.1740011e-08
1.2843929e-07
3.2407678e-07
7.1850946e-07
1.4557274e-06
2.7610569e-06
4.9805799e-06
8.6375398e-06
1.451185e-05
2.3749994e-05
3.8012877e-05
5.9667033e-05
9.2016976e-05
0.00013955834
0.00020819479
0.00030529642
0.00043937761
0.00061904931
0.00085082167
0.0011354617
0.0014632291
0.0018096493
0.0021351677
0.0023911487
0.0025296414
0.0025659589
0.0025256838
0.0024353839
0.0023288339
0.0022233262
0.0021242051
0.0020326285
0.0019495437
0.0018762049
0.0018138073
0.0017629814
0.0017305413
0.0017152304
0.001710204
0.0017155882
0.0017254212
0.0017499161
0.0017973023
0.0018558652
0.0019278571
0.0020218623
0.0021392264
0.002223072
0.0022563061
0.0020105318
0.0015700341
0.0010523545
0.00063217587
0.00039407581
0.00031242653
0.00029939622
0.00030125477
0.00029854665
0.00029241373
0.000279597
0.00026646392
0.00023866735
3.2246549e-11
1.0132977e-09
8.2860291e-09
3.5634452e-08
1.0965297e-07
2.7668148e-07
6.1345346e-07
1.2429606e-06
2.3577488e-06
4.2537421e-06
7.3787896e-06
1.24014e-05
2.0306382e-05
3.2524794e-05
5.1104581e-05
7.892313e-05
0.00011992962
0.0001793764
0.00026394558
0.00038159034
0.00054079364
0.00074884094
0.0010087368
0.0013148178
0.001648224
0.001975098
0.0022514233
0.0024279224
0.0024945159
0.002478597
0.002400588
0.0022977335
0.0021920289
0.0020919514
0.0020000414
0.001917629
0.0018459862
0.0017861227
0.0017433613
0.0017229
0.0017168595
0.0017249576
0.0017507315
0.0017714633
0.0018129614
0.0018696561
0.0019323691
0.0020128
0.002126201
0.0022603437
0.0023289362
0.0023155451
0.0020032684
0.0014919429
0.00094706687
0.00053879266
0.00033921475
0.00028375134
0.00028060077
0.00028995052
0.00029001713
0.00028536431
0.0002690865
0.00024875628
0.00021946697
2.6761829e-11
8.4094895e-10
6.8766891e-09
2.9573624e-08
9.1003895e-08
2.2963064e-07
5.0915389e-07
1.0317018e-06
1.9572269e-06
3.5317276e-06
6.1278834e-06
1.0302861e-05
1.6879312e-05
2.7056591e-05
4.2559088e-05
6.5825702e-05
0.00010023534
0.00015034262
0.00022205692
0.00032262688
0.0004601871
0.00064250445
0.00087451506
0.0011544724
0.0014693479
0.0017916881
0.0020816802
0.0022949908
0.0024019655
0.002419836
0.0023616296
0.002264953
0.0021594958
0.0020589197
0.0019671368
0.0018856319
0.0018156998
0.001758931
0.0017275403
0.0017163115
0.0017160819
0.0017399764
0.0017757025
0.0018070566
0.0018658056
0.0019296386
0.0019975968
0.0020856513
0.0022057745
0.0023317435
0.0023908821
0.0022702584
0.0018690402
0.00133852
0.00081633293
0.00044713485
0.00029840245
0.00026327053
0.0002684821
0.000284305
0.0002845194
0.00027662986
0.00025112297
0.00022881676
0.00020114629
2.1534526e-11
6.7668898e-10
5.5334854e-09
2.3797136e-08
7.3229319e-08
1.8478429e-07
4.0973393e-07
8.3030238e-07
1.5753244e-06
2.8430777e-06
4.9342643e-06
8.2991597e-06
1.3604154e-05
2.1824086e-05
3.4367371e-05
5.3239749e-05
8.1247144e-05
0.0001222243
0.00018124648
0.00026472685
0.00038021364
0.00053558294
0.00073722328
0.0009868719
0.0012772724
0.0015880856
0.001885276
0.0021277838
0.0022790048
0.0023336379
0.0023098979
0.002232407
0.0021335317
0.0020329179
0.0019401453
0.0018582954
0.00178908
0.0017379709
0.0017129622
0.0017057143
0.0017114418
0.0017405839
0.0017862161
0.0018362859
0.0019037418
0.0019723413
0.0020469008
0.0021380627
0.0022544469
0.002334848
0.0023473386
0.0021466548
0.0016905427
0.0011671135
0.00067628434
0.000363753
0.00026543954
0.00025155574
0.00026404881
0.00027745599
0.00027526897
0.00025926475
0.00023007664
0.00020928338
0.00018454847
1.6751699e-11
5.2639595e-10
4.3044931e-09
1.8511795e-08
5.6965667e-08
1.4374822e-07
3.1875404e-07
6.4597744e-07
1.225731e-06
2.2124987e-06
3.8408085e-06
6.4623955e-06
1.0599023e-05
1.701655e-05
2.6826857e-05
4.1624362e-05
6.366143e-05
9.6058946e-05
0.00014302918
0.00021004951
0.00030385708
0.0004320301
0.00060179926
0.00081767705
0.0010777171
0.0013690668
0.0016651358
0.0019283047
0.0021208708
0.0022213168
0.0022351239
0.0021833726
0.002096901
0.0020004229
0.0019087092
0.0018275567
0.0017595805
0.0017122154
0.0016906572
0.0016861388
0.0016981214
0.0017323371
0.001781479
0.0018389856
0.0019231594
0.0020057282
0.0020859701
0.0021723305
0.0022557919
0.0022959347
0.0022264611
0.0019469499
0.0014792657
0.00097903715
0.00053631865
0.00030495156
0.00024369609
0.00024534355
0.00026258606
0.00026959175
0.00026100927
0.00023473948
0.00021063557
0.00019245704
0.00017091333
1.2559133e-11
3.9465105e-10
3.2271749e-09
1.387872e-08
4.2708819e-08
1.0777414e-07
2.3899107e-07
4.8435853e-07
9.1914369e-07
1.6593297e-06
2.8811615e-06
4.8493479e-06
7.9574155e-06
1.2784852e-05
2.0176894e-05
3.1353694e-05
4.8055258e-05
7.2724828e-05
0.00010872267
0.00016053785
0.00023391778
0.00033575388
0.00047344445
0.00065333792
0.00087786979
0.0011414292
0.0014262042
0.0017011787
0.0019283536
0.0020766544
0.0021358687
0.0021190339
0.0020518758
0.0019644215
0.001875049
0.0017939552
0.0017266787
0.0016801989
0.001658856
0.0016552738
0.0016700426
0.0017092242
0.001764251
0.0018295589
0.0019178824
0.00200525
0.0020915098
0.0021708792
0.0022283914
0.0022023335
0.0020758175
0.0017055819
0.0012677733
0.00079601742
0.00041566642
0.00026411624
0.00023144613
0.00024143848
0.0002615172
0.00025898382
0.00023803001
0.00021217736
0.00019314698
0.00017781539
0.00015920079
9.0479657e-12
2.8431802e-10
2.324948e-09
9.9986232e-09
3.0768804e-08
7.7644944e-08
1.7218317e-07
3.4897491e-07
6.6227927e-07
1.1957486e-06
2.0766004e-06
3.4961469e-06
5.7393447e-06
9.227009e-06
1.4575525e-05
2.2680123e-05
3.4828611e-05
5.2851697e-05
7.9311399e-05
0.0001177159
0.00017272024
0.00025021632
0.00035712266
0.00050055696
0.00068596579
0.00091387003
0.0011755134
0.0014492403
0.0017013805
0.0018960334
0.0020087453
0.0020363418
0.0020035796
0.0019267691
0.001842026
0.001761842
0.0016936395
0.0016446035
0.0016198957
0.0016156747
0.0016295563
0.0016686299
0.0017253022
0.0018000151
0.00189333
0.0019866799
0.0020750241
0.0021458734
0.0021472536
0.0020865662
0.0018789274
0.0014795197
0.0010733986
0.00061958632
0.00032195367
0.0002350189
0.00022596256
0.00024271901
0.00025171149
0.00024160941
0.00021330707
0.00019399946
0.00017820033
0.00016551584
0.0001497735
6.24773e-12
1.9632495e-10
1.6054021e-09
6.9041531e-09
2.1246219e-08
5.3615093e-08
1.1889692e-07
2.4098242e-07
4.5735363e-07
8.2581791e-07
1.4343404e-06
2.4153318e-06
3.9663132e-06
6.3796552e-06
1.0085101e-05
1.5710031e-05
2.4163738e-05
3.6752826e-05
5.5334003e-05
8.2505294e-05
0.00012182209
0.00017799201
0.00025694076
0.00036553866
0.00051064166
0.00069699985
0.00092373255
0.0011798757
0.0014413223
0.0016734072
0.0018406141
0.0019264429
0.0019335418
0.0018949269
0.001815718
0.0017351577
0.0016644913
0.0016114925
0.0015807851
0.0015715386
0.0015797008
0.0016106854
0.0016663687
0.0017393846
0.0018340099
0.0019338326
0.002022967
0.0020668011
0.0020351746
0.0019266172
0.0016213506
0.0012867321
0.0008720042
0.00045459881
0.00026414843
0.00021867892
0.00022401152
0.00024223985
0.00023759803
0.00021283178
0.00019214368
0.00017919565
0.00016632891
0.00015537085
0.00014197457
4.1292726e-12
1.2975577e-10
1.0610467e-09
4.5631042e-09
1.4042066e-08
3.5435322e-08
7.8581649e-08
1.5927201e-07
3.0228322e-07
5.4583512e-07
9.4810685e-07
1.5967259e-06
2.6225398e-06
4.2195407e-06
6.6735913e-06
1.0403642e-05
1.6020444e-05
2.4409184e-05
3.6843508e-05
5.5137754e-05
8.1838985e-05
0.00012044528
0.00017560322
0.00025317207
0.00035993478
0.00050259233
0.00068557684
0.00090739405
0.0011561164
0.0014065647
0.0016235422
0.0017743906
0.0018431902
0.0018391521
0.0017956218
0.0017194793
0.0016445578
0.0015825665
0.0015427188
0.0015268603
0.0015296876
0.0015468468
0.0015901563
0.0016518774
0.0017357684
0.0018196594
0.0019071431
0.0019033224
0.0018508856
0.0016841942
0.0013871671
0.0010957638
0.00065342394
0.00032554032
0.00022576084
0.00021129683
0.00022508471
0.00022964285
0.00021141731
0.00018863533
0.00017511203
0.00016588165
0.00015577393
0.00014679341
0.00013570746
2.6120359e-12
8.2079023e-11
6.7118079e-10
2.8864515e-09
8.882451e-09
2.241483e-08
4.970692e-08
1.007468e-07
1.9120615e-07
3.4526011e-07
5.9971214e-07
1.0100068e-06
1.6589732e-06
2.6695154e-06
4.223007e-06
6.5859076e-06
1.0148173e-05
1.5478383e-05
2.3402077e-05
3.5111031e-05
5.2311041e-05
7.7411381e-05
0.00011374521
0.00016577805
0.0002391933
0.00034064051
0.00047678191
0.00065216227
0.00086558473
0.0011055427
0.0013473392
0.0015564603
0.0017002778
0.0017629042
0.0017572646
0.0017105254
0.0016398448
0.001573105
0.0015181841
0.001484303
0.0014773518
0.0014845522
0.0015071553
0.0015525983
0.001608875
0.001674576
0.0017106661
0.0016908634
0.0016191492
0.0014121703
0.0012325091
0.0008796417
0.00043874169
0.0002524143
0.00020541688
0.00020932122
0.00022259004
0.00021383936
0.00018834551
0.00017492172
0.00016350044
0.00015522484
0.00014695583
0.00013934848
0.00013019445
1.5845207e-12
4.9790997e-11
4.0715288e-10
1.7509786e-09
5.3882324e-09
1.3597031e-08
3.0152161e-08
6.1111487e-08
1.1597906e-07
2.0941403e-07
3.6372996e-07
6.1253814e-07
1.0060475e-06
1.618766e-06
2.5606899e-06
3.9935676e-06
6.1545505e-06
9.3905709e-06
1.4208165e-05
2.1345115e-05
3.1871816e-05
4.7330524e-05
6.9916947e-05
0.00010269629
0.00014981938
0.0002166457
0.00030958242
0.00043527282
0.0005986883
0.0007997428
0.0010288903
0.0012638953
0.0014715939
0.0016166486
0.0016823723
0.0016793073
0.0016396566
0.0015773763
0.0015184004
0.001471753
0.0014414515
0.0014309143
0.001436624
0.0014548394
0.0014816153
0.0015199318
0.0015185522
0.0014931197
0.0014152607
0.0012701544
0.0010632482
0.0005991431
0.00029759206
0.00020994886
0.00019737498
0.0002107258
0.0002087411
0.00018864142
0.00017418769
0.00016326181
0.00015325349
0.00014614334
0.00013936039
0.00013329812
0.00012591931
9.2544847e-13
2.9080703e-11
2.3779941e-10
1.0226632e-09
3.1469834e-09
7.9411991e-09
1.7609667e-08
3.5689589e-08
6.7729493e-08
1.2228551e-07
2.1237742e-07
3.5760937e-07
5.8725224e-07
9.4471945e-07
1.4940679e-06
2.3294541e-06
3.5889209e-06
5.4745536e-06
8.2820068e-06
1.2443746e-05
1.859205e-05
2.7649564e-05
4.0956006e-05
6.0437107e-05
8.8811509e-05
0.00012980501
0.0001882917
0.00027021543
0.00038202067
0.0005291031
0.00071294114
0.00092707991
0.001153563
0.0013619284
0.0015220568
0.0016005422
0.001607058
0.0015796616
0.0015314776
0.0014788492
0.0014420026
0.001417439
0.0014043446
0.001404962
0.0014110697
0.0014171469
0.0014113694
0.0013878523
0.0013141701
0.0011557886
0.00076620374
0.00035387417
0.00021991192
0.00019105547
0.00019530745
0.00020661515
0.00019391197
0.00017488685
0.00016178357
0.00015291527
0.00014527159
0.00013936613
0.0001326203
0.00012793555
0.00012226987
5.2344075e-13
1.6448263e-11
1.3450094e-10
5.7842339e-10
1.7799347e-09
4.4914799e-09
9.9596646e-09
2.0184593e-08
3.8303062e-08
6.9150825e-08
1.2008344e-07
2.0217026e-07
3.3192677e-07
5.3382492e-07
8.4393083e-07
1.3151841e-06
2.0250813e-06
3.0869065e-06
4.6662237e-06
7.0052124e-06
1.045866e-05
1.5547077e-05
2.3034266e-05
3.4037953e-05
5.018093e-05
7.3782978e-05
0.00010806891
0.00015732198
0.00022684949
0.0003225559
0.00044984699
0.00061148541
0.00080431014
0.0010155577
0.0012204965
0.0014063948
0.001507801
0.0015347593
0.0015190079
0.0014945314
0.0014620668
0.0014325975
0.0014131454
0.0014072621
0.0014076513
0.0014073317
0.0013938163
0.0013439148
0.0012113563
0.00087964334
0.0004062269
0.00023246379
0.00018643969
0.00018648403
0.00019661081
0.00019050301
0.00017215051
0.00016063965
0.00015221159
0.00014486866
0.00013798678
0.00013260331
0.0001271962
0.0001237153
0.00011924371
2.8842766e-13
9.0633631e-12
7.4112981e-11
3.1872315e-10
9.8077314e-10
2.4748459e-09
5.487749e-09
1.1121291e-08
2.110313e-08
3.8095893e-08
6.6147899e-08
1.1134774e-07
1.8277218e-07
2.9385571e-07
4.6436838e-07
7.2327407e-07
1.1128709e-06
1.6948136e-06
2.5589222e-06
3.8361562e-06
5.7178542e-06
8.4844115e-06
1.2548062e-05
1.8516268e-05
2.7284047e-05
4.0162983e-05
5.9050479e-05
8.6626693e-05
0.00012651982
0.00018332848
0.00026224782
0.00036822775
0.00050439958
0.00067000975
0.00085628603
0.0010505177
0.001245073
0.0013894055
0.001448349
0.001458658
0.001451957
0.0014463172
0.0014424286
0.001440345
0.0014378768
0.0014203342
0.001369509
0.0012345074
0.00089764818
0.00043026141
0.00023962774
0.00018340817
0.000177125
0.00018694383
0.00018659844
0.0001745075
0.00016221385
0.00015375983
0.00014541806
0.00013859763
0.00013278303
0.00012810686
0.00012311328
0.00012026219
0.00011660522
1.5644316e-13
4.9159668e-12
4.0198818e-11
1.7287456e-10
5.3196405e-10
1.3423181e-09
2.9764019e-09
6.0316748e-09
1.1444816e-08
2.06591e-08
3.5868316e-08
6.0370573e-08
9.9079412e-08
1.5926024e-07
2.5159049e-07
3.9168407e-07
6.0228585e-07
9.1643858e-07
1.382072e-06
2.0687158e-06
3.077449e-06
4.5556077e-06
6.7188564e-06
9.8843577e-06
1.4520337e-05
2.1318885e-05
3.1299154e-05
4.5945711e-05
6.7374931e-05
9.8500544e-05
0.00014311927
0.00020568502
0.00029059668
0.00040089693
0.00053628209
0.00069182336
0.0008633846
0.0010388262
0.0012151071
0.0013256471
0.0013724853
0.00139327
0.0014149297
0.0014187189
0.0013886172
0.0013244397
0.0011754749
0.00079535966
0.00040157298
0.00023647629
0.00018039146
0.00017005653
0.00017600994
0.00018491889
0.00017548119
0.00016057109
0.00015115799
0.0001434642
0.00013823281
0.0001327939
0.00012717584
0.00012314015
0.00011893291
0.00011673986
0.00011416417
8.6096988e-14
2.7054534e-12
2.2122953e-11
9.513872e-11
2.9275247e-10
7.3868659e-10
1.6378565e-09
3.3188865e-09
6.296818e-09
1.1364879e-08
1.972798e-08
3.3195921e-08
5.446198e-08
8.7503774e-08
1.3815754e-07
2.1494108e-07
3.3023302e-07
5.0196641e-07
7.5607165e-07
1.129996e-06
1.6777368e-06
2.4773216e-06
3.641758e-06
5.3351534e-06
7.7977586e-06
1.1383713e-05
1.6615686e-05
2.4263928e-05
3.5452949e-05
5.1790135e-05
7.5496752e-05
0.0001094873
0.00015731793
0.00022270437
0.00030856804
0.00041473691
0.00053972338
0.00067809819
0.00082348098
0.00097099069
0.0011031079
0.0011927891
0.001241272
0.0012246824
0.0011579443
0.00098699294
0.0005880446
0.00033735922
0.00022080346
0.00017634908
0.00016435195
0.00016833884
0.00017914193
0.0001719405
0.0001584178
0.00015052549
0.00014447003
0.00013889899
0.00013276486
0.00012813389
0.00012407056
0.0001206
0.000116719
0.00011467345
0.00011232365
5.4149067e-14
1.7015433e-12
1.3913778e-11
5.9834927e-11
1.8411385e-10
4.6454318e-10
1.029941e-09
2.0868378e-09
3.9588059e-09
7.1439444e-09
1.2398354e-08
2.0856641e-08
3.4204947e-08
5.4928168e-08
8.6661489e-08
1.3468814e-07
2.066415e-07
3.1349244e-07
4.7093589e-07
7.0134374e-07
1.0365517e-06
1.5218127e-06
2.2215656e-06
3.2280469e-06
4.6730382e-06
6.7448745e-06
9.71454e-06
1.397535e-05
2.0103502e-05
2.8935548e-05
4.1666035e-05
5.9944631e-05
8.59189e-05
0.00012219752
0.00017155071
0.00023627909
0.00031732158
0.00041420403
0.00052084932
0.00063759724
0.00074215824
0.00084663157
0.00086375391
0.00081766866
0.00065355647
0.00039989965
0.00026331217
0.00019370257
0.0001680844
0.00016019987
0.00016337807
0.00017308113
0.00016930697
0.00015837542
0.00015166818
0.00014580847
0.00013985046
0.00013438626
0.00012974995
0.00012492028
0.00012026061
0.00011695512
0.00011366603
0.00011219137
0.00011048385
4.6528007e-14
1.4620656e-12
1.195556e-11
5.1413643e-11
1.5819885e-10
3.9914444e-10
8.849079e-10
1.7928815e-09
3.4009484e-09
6.1368048e-09
1.0649532e-08
1.7912801e-08
2.9372767e-08
4.7158684e-08
7.438083e-08
1.1554889e-07
1.7715479e-07
2.6847713e-07
4.0268037e-07
5.9829904e-07
8.8121691e-07
1.2872732e-06
1.8656574e-06
2.683324e-06
3.8308366e-06
5.4305596e-06
7.6492856e-06
1.0715833e-05
1.4945449e-05
2.0776957e-05
2.882839e-05
4.0014137e-05
5.5596914e-05
7.7243371e-05
0.0001069676
0.00014680951
0.00019853506
0.00026308195
0.00033850305
0.00042143516
0.00050153557
0.0005279754
0.00048964326
0.0003670053
0.00026077577
0.00019565699
0.00016703033
0.00015374577
0.0001548863
0.00015896764
0.00016883393
0.00016752578
0.00015997544
0.00015235499
0.00014598515
0.00013970724
0.00013462721
0.00012982357
0.00012531787
0.00012144868
0.00011822762
0.00011528485
0.00011213273
0.00011080869
0.00010922579
5.4413777e-14
1.7098664e-12
1.398199e-11
6.0129044e-11
1.8502001e-10
4.668299e-10
1.0350128e-09
2.0971373e-09
3.9784527e-09
7.179749e-09
1.2461388e-08
2.0964563e-08
3.4385159e-08
5.5221319e-08
8.7123271e-08
1.3538326e-07
2.0761433e-07
3.1467829e-07
4.7193303e-07
7.0087293e-07
1.0312251e-06
1.5035301e-06
2.1721657e-06
3.1086617e-06
4.4048398e-06
6.1756026e-06
8.5621709e-06
1.1737159e-05
1.591091e-05
2.1348862e-05
2.8398338e-05
3.7555424e-05
4.958014e-05
6.5561075e-05
8.6833673e-05
0.00011485901
0.00015066718
0.000193424
0.00023783811
0.00027430272
0.00027566594
0.00024863632
0.00019483768
0.00016380402
0.00014477416
0.00013810636
0.00014168288
0.00014746806
0.00015820075
0.000166426
0.00016628556
0.00016190538
0.00015249223
0.00014601854
0.00014092627
0.00013659255
0.00013202721
0.00012742282
0.00012321083
0.0001195618
0.00011570282
0.00011282189
0.00011019606
0.0001091086
0.00010776521
6.7037061e-14
2.1065377e-12
1.7225854e-11
7.4081125e-11
2.2796192e-10
5.752195e-10
1.2754548e-09
2.584676e-09
4.9042364e-09
8.8524831e-09
1.536895e-08
2.5864914e-08
4.2439524e-08
6.8187881e-08
1.0763654e-07
1.6735307e-07
2.5678839e-07
3.8942195e-07
5.8428574e-07
8.6792751e-07
1.2768378e-06
1.860258e-06
2.6831274e-06
3.8285943e-06
5.3990379e-06
7.5142852e-06
1.0305168e-05
1.3903811e-05
1.8435311e-05
2.4014619e-05
3.0757233e-05
3.8803794e-05
4.8423295e-05
5.9903111e-05
7.333796e-05
8.8493533e-05
0.00010492517
0.00012006231
0.00012985141
0.00012818409
0.00011601743
0.00010885633
0.00010443919
0.00010829897
0.00011428277
0.00012601564
0.0001462966
0.00016050501
0.00016557715
0.00016618532
0.0001627303
0.00015302416
0.0001467847
0.00014231882
0.00013783303
0.00013253515
0.00012783095
0.00012372063
0.00012004494
0.00011659851
0.00011389318
0.00011141157
0.00010905274
0.00010818271
0.00010689514
6.8287749e-14
2.1458399e-12
1.7547304e-11
7.5464465e-11
2.3222468e-10
5.859997e-10
1.2994313e-09
2.6334514e-09
4.9972105e-09
9.0211909e-09
1.5663541e-08
2.6363716e-08
4.3262964e-08
6.9518355e-08
1.0974604e-07
1.7064e-07
2.6182331e-07
3.9699693e-07
5.9544743e-07
8.8395458e-07
1.2990605e-06
1.8895168e-06
2.7185948e-06
3.8654041e-06
5.4237281e-06
7.4966648e-06
1.0184953e-05
1.3568202e-05
1.7681413e-05
2.2499238e-05
2.7918549e-05
3.3728617e-05
3.961081e-05
4.5423481e-05
5.1114959e-05
5.6403653e-05
6.0340742e-05
6.1073004e-05
5.9321559e-05
5.9791604e-05
6.4043653e-05
7.1597713e-05
8.0413357e-05
9.6825933e-05
0.00011983944
0.00015121024
0.00016156839
0.00016522973
0.0001660172
0.00016311818
0.00015387901
0.00014751443
0.00014316805
0.00013844808
0.00013356643
0.00012931414
0.00012566204
0.00012202174
0.00011860151
0.00011526409
0.00011205845
0.00010965329
0.00010756271
0.00010686796
0.00010570911
5.418527e-14
1.7026896e-12
1.3923484e-11
5.9879847e-11
1.8426834e-10
4.6499391e-10
1.0311287e-09
2.0897518e-09
3.9655634e-09
7.1588687e-09
1.2429856e-08
2.0920265e-08
3.4327789e-08
5.5154074e-08
8.7054041e-08
1.353221e-07
2.0755851e-07
3.1456373e-07
4.7150409e-07
6.9936732e-07
1.026662e-06
1.4911829e-06
2.141285e-06
3.035864e-06
4.2418031e-06
5.8268059e-06
7.8457004e-06
1.0320239e-05
1.3212134e-05
1.6403657e-05
1.9702059e-05
2.2881148e-05
2.5734484e-05
2.8073067e-05
2.9647091e-05
3.0274153e-05
3.0388167e-05
3.1597499e-05
3.5409462e-05
4.0710017e-05
5.2043092e-05
6.6648942e-05
8.6930614e-05
0.00012193064
0.00015188906
0.00016324408
0.00016618899
0.0001664381
0.00016381688
0.00015545837
0.0001483208
0.00014379866
0.00013907686
0.000134761
0.00013078487
0.00012695642
0.00012309458
0.00011932016
0.0001160747
0.00011338895
0.00011084843
0.00010872169
0.00010680377
0.00010619263
0.00010500397
3.3576419e-14
1.0550861e-12
8.6277433e-12
3.7104323e-11
1.1417926e-10
2.8811987e-10
6.3888417e-10
1.2947251e-09
2.4566719e-09
4.4343148e-09
7.697723e-09
1.2952219e-08
2.1245239e-08
3.4117695e-08
5.381614e-08
8.358618e-08
1.2807123e-07
1.9384176e-07
2.9007413e-07
4.2937823e-07
6.2872552e-07
9.1033672e-07
1.3022255e-06
1.8378458e-06
2.5539712e-06
3.4856511e-06
4.6571441e-06
6.0688312e-06
7.682348e-06
9.4090433e-06
1.1117814e-05
1.26575e-05
1.3890666e-05
1.4729711e-05
1.5363175e-05
1.6702587e-05
1.9203774e-05
2.3187068e-05
3.0559386e-05
4.2808382e-05
6.1228988e-05
8.6081928e-05
0.00012307341
0.00015200395
0.00016434576
0.00016763262
0.00016746101
0.00016503106
0.00015715215
0.00014931544
0.00014433927
0.00013999111
0.00013609683
0.00013221761
0.00012814321
0.00012409227
0.00012063552
0.00011740675
0.00011450305
0.00011165721
0.000109194
0.0001072019
0.00010558703
0.00010512048
0.00010401955
1.7410477e-14
5.4709587e-13
4.473726e-12
1.9239324e-11
5.9202787e-11
1.493869e-10
3.3123595e-10
6.7120741e-10
1.2734243e-09
2.2981401e-09
3.9884726e-09
6.7088016e-09
1.0999453e-08
1.7653811e-08
2.7825797e-08
4.3177431e-08
6.6077534e-08
9.9862228e-08
1.4916362e-07
2.2030101e-07
3.2170318e-07
4.6428207e-07
6.6159886e-07
9.2954578e-07
1.2851233e-06
1.7438326e-06
2.3152445e-06
2.9972541e-06
3.7706896e-06
4.5982637e-06
5.4352856e-06
6.2563469e-06
7.1152205e-06
8.3446421e-06
1.0010714e-05
1.3054393e-05
1.8040347e-05
2.6347991e-05
4.0244113e-05
6.0196778e-05
8.5734699e-05
0.00012032158
0.000149264
0.00016494041
0.00016957624
0.00016901561
0.00016669126
0.00015909876
0.00015036868
0.00014543674
0.00014094656
0.00013718929
0.00013304205
0.00012898888
0.00012510089
0.00012188806
0.00011876543
0.00011575876
0.00011315241
0.00011067892
0.00010832258
0.00010649542
0.00010502282
0.00010452606
0.00010335072
8.3576821e-15
2.6262614e-13
2.147537e-12
9.2353654e-12
2.8418089e-11
7.1704648e-11
1.5898114e-10
3.2212638e-10
6.1106647e-10
1.1025985e-09
1.9131433e-09
3.2170214e-09
5.272407e-09
8.4578047e-09
1.3322674e-08
2.0656602e-08
3.1581906e-08
4.7674286e-08
7.1114093e-08
1.0486558e-07
1.5287089e-07
2.2022731e-07
3.1328913e-07
4.3960389e-07
6.0757333e-07
8.2578771e-07
1.1021909e-06
1.4437998e-06
1.8586882e-06
2.3602465e-06
2.9899146e-06
3.863339e-06
5.1925879e-06
7.3043785e-06
1.0724387e-05
1.6416881e-05
2.5581039e-05
3.9668547e-05
5.9002637e-05
8.3980029e-05
0.00011663048
0.0001468353
0.0001664567
0.00017197567
0.00017139473
0.00016904648
0.00016144332
0.00015211522
0.00014697961
0.00014227585
0.00013796632
0.00013415718
0.00013034262
0.0001268691
0.00012345858
0.00012019308
0.00011698042
0.00011397442
0.00011146166
0.00010906337
0.00010706184
0.0001054262
0.00010407958
0.00010366243
0.00010250128
4.7388497e-15
1.4891032e-13
1.2176602e-12
5.2364263e-12
1.6112621e-11
4.0654061e-11
9.0132905e-11
1.8261768e-10
3.464048e-10
6.2502262e-10
1.0844715e-09
1.8236199e-09
2.9890146e-09
4.7958025e-09
7.5570026e-09
1.1724016e-08
1.794197e-08
2.7124194e-08
4.0550728e-08
5.9996134e-08
8.7892383e-08
1.2753426e-07
1.8334151e-07
2.6119359e-07
3.6892438e-07
5.1719435e-07
7.2121382e-07
1.0044153e-06
1.4066973e-06
1.997677e-06
2.9002471e-06
4.3273147e-06
6.6428683e-06
1.039214e-05
1.633526e-05
2.5620712e-05
3.9314935e-05
5.7886703e-05
8.2594993e-05
0.00011444465
0.00014580123
0.00016774074
0.00017460886
0.00017436478
0.00017189897
0.00016411333
0.00015437878
0.00014893891
0.00014361595
0.00013910032
0.00013524058
0.000131819
0.00012803523
0.00012445826
0.00012095224
0.00011790396
0.0001151413
0.00011273062
0.00011052721
0.0001082988
0.00010617806
0.00010463072
0.00010354606
0.00010314681
0.00010189232
4.4825404e-15
1.408565e-13
1.151812e-12
4.9533174e-12
1.5241754e-11
3.8457847e-11
8.5268094e-11
1.7277676e-10
3.2778752e-10
5.9157446e-10
1.0268157e-09
1.7276124e-09
2.8338908e-09