/*--------------------------------*- C++ -*----------------------------------*\
  =========                 |
  \\      /  F ield         | OpenFOAM: The Open Source CFD Toolbox
   \\    /   O peration     | Website:  https://openfoam.org
    \\  /    A nd           | Version:  13
     \\/     M anipulation  |
\*---------------------------------------------------------------------------*/
FoamFile
{
    format      ascii;
    class       volVectorField;
    location    "6.398663";
    object      wallShearStress;
}
// * * * * * * * * * * * * * * * * * * * * * * * * * * * * * * * * * * * * * //

dimensions      [0 2 -2 0 0 0 0];

internalField   uniform (0 0 0);

boundaryField
{
    inlet
    {
        type            calculated;
        value           uniform (0 0 0);
    }
    outlet
    {
        type            calculated;
        value           uniform (0 0 0);
    }
    cylinder
    {
        type            calculated;
        value           nonuniform List<vector> 
132
(
(0.00011698774 -0.0016513992 -1.0587235e-22)
(0.00049390595 -0.0097656284 3.1013368e-23)
(0.0013108617 -0.017690799 1.8532726e-21)
(0.0025381287 -0.025135322 -6.9184533e-21)
(0.0041132577 -0.031808305 5.5353692e-21)
(0.0059412057 -0.037432209 1.9292236e-20)
(0.0078954179 -0.041766596 -4.1569786e-21)
(0.0098318511 -0.044619042 -1.8543992e-20)
(0.01159058 -0.04586271 1.9410533e-20)
(0.013010059 -0.045452593 -4.7547738e-20)
(0.013942329 -0.043436419 -9.2853613e-22)
(0.014271017 -0.039964791 3.3463642e-20)
(0.013929363 -0.035291488 5.6602728e-20)
(0.012920467 -0.029773711 -4.6929892e-20)
(0.011322134 -0.02383324 4.973567e-20)
(0.0092939901 -0.017931371 7.9630388e-20)
(0.0070471039 -0.012499023 -5.1467224e-20)
(0.0048085282 -0.0078606253 8.1003817e-20)
(0.0027920504 -0.0042204734 1.0486597e-19)
(0.0011322813 -0.0015993467 -6.6647814e-20)
(-9.0087416e-05 9.0332792e-05 -8.3389823e-20)
(-0.00093187054 0.001079897 2.8953859e-23)
(-0.0014675026 0.0015818955 1.1767123e-20)
(-0.001834898 0.0018287476 -1.3950337e-20)
(-0.0019760438 0.0018175322 -2.3500188e-20)
(-0.001803986 0.0015322372 4.9762687e-21)
(-0.00079143703 0.00063044291 -4.4416097e-20)
(0.00090863181 -0.00062144892 1.1801189e-20)
(0.0026090683 -0.0016585681 9.2526242e-21)
(0.0038473667 -0.0022226703 -6.39464e-20)
(0.0043560071 -0.0022628046 8.3693951e-20)
(0.0045282039 -0.0020913792 2.5360702e-21)
(0.0046579955 -0.001887684 1.8266059e-20)
(0.0048405474 -0.0016937713 -2.1618437e-20)
(0.0049039648 -0.0014504303 6.8631082e-20)
(0.0046270158 -0.001122467 -4.3398428e-21)
(0.0037950472 -0.00072271906 1.7516376e-20)
(0.0021682681 -0.00030637467 -2.4090374e-21)
(-0.00048361156 1.6670301e-05 3.4658761e-21)
(-0.004411052 8.729953e-05 -2.1699079e-21)
(-0.0099961304 -0.00033951058 4.0720051e-21)
(-0.017142527 -0.0015978697 -1.262725e-22)
(-0.025236369 -0.0038865346 4.6541087e-20)
(-0.033757401 -0.0072950555 -1.8012898e-20)
(-0.042040503 -0.011769173 1.6310676e-20)
(-0.049607835 -0.017169189 -1.0509152e-19)
(-0.05597381 -0.023234522 -1.6989496e-20)
(-0.060871989 -0.02968252 1.4955528e-19)
(-0.064139102 -0.036211494 -1.2792831e-19)
(-0.065738303 -0.042532037 -2.4528725e-21)
(-0.065704596 -0.048366771 3.9376446e-20)
(-0.064184933 -0.053502634 -3.6270859e-20)
(-0.061295238 -0.057700458 -7.2597114e-21)
(-0.057261619 -0.060820394 -4.8319053e-21)
(-0.052329601 -0.062769468 -8.6960229e-21)
(-0.046679383 -0.063404839 -1.0718494e-21)
(-0.040582134 -0.062718717 5.3842124e-22)
(-0.034264481 -0.06068719 4.7363989e-20)
(-0.027960892 -0.057341325 -7.4614074e-20)
(-0.021891602 -0.052742197 -8.0872328e-20)
(-0.016260794 -0.046982316 -3.313095e-20)
(-0.011253044 -0.040184629 -7.6400659e-20)
(-0.0070286436 -0.032497171 1.7112738e-20)
(-0.0037187206 -0.024090621 2.4965442e-20)
(-0.0014292827 -0.015167202 -3.8868844e-20)
(-0.00021781211 -0.0058919096 -5.1979044e-21)
(0.00018144218 0.0064492913 -4.9363185e-22)
(0.00068242914 0.01441469 -3.1172454e-23)
(0.0016073118 0.022039155 -1.9622012e-21)
(0.0029139817 0.02903707 7.3997145e-21)
(0.004528588 0.035130758 -5.9414837e-21)
(0.0063463055 0.04006552 -2.0667765e-20)
(0.0082357941 0.043628665 4.4283157e-21)
(0.010051067 0.045661695 1.9600155e-20)
(0.011635356 0.046078539 -2.033315e-20)
(0.012835921 0.044876382 4.9344407e-20)
(0.013520373 0.042149155 9.5487508e-22)
(0.013592671 0.038088499 -3.4104871e-20)
(0.013015659 0.032996499 -5.7219495e-20)
(0.011816988 0.027247689 4.7108696e-20)
(0.010107798 0.021288926 -4.9628493e-20)
(0.0080611617 0.015562851 -7.9123901e-20)
(0.0058874025 0.010450468 5.0995373e-20)
(0.0038071544 0.0062310337 -8.0163761e-20)
(0.0019933922 0.0030215688 -1.0377698e-19)
(0.00056055911 0.00080574921 6.6005369e-20)
(-0.0004674491 -0.00057453487 8.269997e-20)
(-0.0011506314 -0.0013394487 7.3032509e-20)
(-0.0015975871 -0.0017242985 5.9318556e-20)
(-0.0018922566 -0.0018875608 1.3874051e-20)
(-0.001922898 -0.0017714911 2.337231e-20)
(-0.001483947 -0.0012655594 -4.9487661e-21)
(-0.00022969031 -0.00019756374 4.4251567e-20)
(0.0015197605 0.0010536749 -1.1780326e-20)
(0.0030914738 0.001970591 -9.2598267e-21)
(0.0040618323 0.0023493051 6.4047756e-20)
(0.0044176503 0.0022958826 -8.3843773e-20)
(0.0045411195 0.0020974276 -2.5253852e-21)
(0.0046934074 0.0019019871 4.165099e-20)
(0.0048592859 0.0017006561 2.1691199e-20)
(0.0048484609 0.001434809 -6.8970023e-20)
(0.0044316078 0.0010764049 4.3689463e-21)
(0.0034040671 0.00065068241 1.2886138e-20)
(0.0015117863 0.00021976257 2.4351425e-21)
(-0.0014569819 -9.2807395e-05 -3.5098371e-21)
(-0.0057310565 -0.0001200437 2.2004437e-21)
(-0.011686801 0.00039304 -4.1310181e-21)
(-0.019155564 0.001782306 3.3747107e-20)
(-0.027442187 0.004223152 -4.7051658e-20)
(-0.036025456 0.0077822082 1.8144901e-20)
(-0.044247057 0.012384351 -1.635728e-20)
(-0.051636619 0.01786899 1.0484503e-19)
(-0.057749045 0.023968288 1.6848803e-20)
(-0.062347643 0.030399079 -1.4733592e-19)
(-0.065289384 0.036858056 1.2506333e-19)
(-0.066570949 0.043068006 2.3760361e-21)
(-0.066222092 0.048745055 -3.7688934e-20)
(-0.064433724 0.053707468 3.415639e-20)
(-0.061282763 0.057685898 -5.3587705e-20)
(-0.057026017 0.060567537 4.1914732e-21)
(-0.051935216 0.0622936 -8.5373011e-21)
(-0.046145031 0.062675892 3.3414015e-21)
(-0.039954682 0.061745537 -6.5995118e-22)
(-0.033581543 0.059473563 -5.2838885e-20)
(-0.027259662 0.055898384 8.0217186e-20)
(-0.021207086 0.051086863 8.5183897e-20)
(-0.015624279 0.04513499 3.4430496e-20)
(-0.010692494 0.038171053 7.8617212e-20)
(-0.0065673009 0.030345224 -1.7471801e-20)
(-0.0033752158 0.021833006 5.0218248e-20)
(-0.0012169121 0.012830021 3.9189531e-20)
(-0.00014834183 0.0035363422 5.2150409e-21)
)
;
    }
    frontAndBack
    {
        type            empty;
    }
}


// ************************************************************************* //
