/*--------------------------------*- C++ -*----------------------------------*\
  =========                 |
  \\      /  F ield         | OpenFOAM: The Open Source CFD Toolbox
   \\    /   O peration     | Website:  https://openfoam.org
    \\  /    A nd           | Version:  13
     \\/     M anipulation  |
\*---------------------------------------------------------------------------*/
FoamFile
{
    format      ascii;
    class       volScalarField;
    location    "25.695853";
    object      k;
}
// * * * * * * * * * * * * * * * * * * * * * * * * * * * * * * * * * * * * * //

dimensions      [0 2 -2 0 0 0 0];

internalField   nonuniform List<scalar> 
17140
(
1.4510488e-11
4.5596969e-10
3.7285925e-09
1.6034912e-08
4.9341745e-08
1.2450247e-07
2.7605864e-07
5.5941664e-07
1.0614444e-06
1.9159989e-06
3.3265415e-06
5.5988988e-06
9.1884861e-06
1.4768037e-05
2.3324244e-05
3.6294876e-05
5.5762032e-05
8.4722361e-05
0.00012746101
0.00019006215
0.00028109279
0.00041249369
0.00060069117
0.00086788687
0.0012433527
0.001764296
0.0024753891
0.0034253503
0.0046582804
0.0061978887
0.0080266614
0.010070865
0.012208992
0.014308934
0.016271601
0.018049863
0.019639816
0.021062132
0.022347206
0.023527101
0.024632529
0.025692252
0.026733382
0.027781829
0.028862852
0.030001361
0.031220999
0.032543608
0.033990809
0.035584682
0.037347848
0.039304284
0.041480205
0.043901616
0.046590402
0.049560071
0.052814231
0.056317655
0.059910818
0.063327262
0.066219605
0.068476784
0.070548912
0.072937956
0.074696671
1.4484905e-11
4.5516578e-10
3.7220276e-09
1.6006751e-08
4.9255364e-08
1.2428525e-07
2.7557877e-07
5.5844803e-07
1.0596142e-06
1.91271e-06
3.3208581e-06
5.5893811e-06
9.172949e-06
1.4743204e-05
2.3285254e-05
3.6234576e-05
5.5669984e-05
8.4583436e-05
0.00012725344
0.00018975484
0.0002806416
0.00041183648
0.00059974121
0.00086652438
0.0012414146
0.0017615649
0.0024715841
0.0034201266
0.0046512486
0.0061886681
0.0080149571
0.010056509
0.012191888
0.014289118
0.016249004
0.018024254
0.019610916
0.021029655
0.022310765
0.023486272
0.02458682
0.025641049
0.026675893
0.027717047
0.02878955
0.029918138
0.031126335
0.032436124
0.033869856
0.035451104
0.037205443
0.0391623
0.04135726
0.043831645
0.046631509
0.049805541
0.053390057
0.057378574
0.061597064
0.065666949
0.068991571
0.070914335
0.071653105
0.071713969
0.071082386
1.4348926e-11
4.5089283e-10
3.6870859e-09
1.5856481e-08
4.8792952e-08
1.2311842e-07
2.7299145e-07
5.5320472e-07
1.049665e-06
1.8947501e-06
3.2896756e-06
5.5368981e-06
9.0868225e-06
1.4604796e-05
2.3066705e-05
3.5894615e-05
5.5147974e-05
8.3790979e-05
0.00012606266
0.00018798226
0.00027802636
0.00040801159
0.0005941972
0.00085856609
0.0012301157
0.0017457322
0.0024497579
0.0033906628
0.0046125455
0.0061395807
0.0079553161
0.0099874321
0.012115492
0.014207686
0.016164172
0.01793676
0.019520812
0.020936614
0.022214324
0.023385879
0.024481839
0.025530732
0.026559336
0.027593155
0.028657034
0.029775525
0.030972078
0.032268963
0.033689456
0.035258952
0.037006564
0.03896814
0.041190211
0.043731933
0.04666768
0.050086536
0.054076753
0.058676654
0.063727803
0.068800512
0.073096935
0.075480217
0.075752342
0.074317241
0.072795661
1.4096646e-11
4.4296529e-10
3.6222596e-09
1.5577691e-08
4.7935062e-08
1.2095369e-07
2.6819149e-07
5.4347763e-07
1.0312083e-06
1.8614335e-06
3.2318314e-06
5.4395426e-06
8.9270595e-06
1.4348051e-05
2.2661293e-05
3.5263968e-05
5.4179582e-05
8.2320807e-05
0.00012385342
0.00018469348
0.00027317403
0.00040091502
0.00058391198
0.00084380484
0.0012091656
0.0017163926
0.002409347
0.003336179
0.0045411008
0.0060491841
0.0078458572
0.0098612861
0.011977001
0.014061554
0.016013912
0.01778418
0.019366382
0.020780047
0.022055004
0.023223056
0.024314685
0.025358327
0.02638063
0.027406923
0.028461876
0.02956986
0.030754229
0.032037585
0.033444186
0.035001364
0.03674201
0.038708794
0.040959797
0.043573037
0.04665299
0.050336309
0.054768032
0.060051154
0.066066002
0.072387037
0.078097772
0.081811693
0.082733057
0.081176038
0.079868191
1.3727122e-11
4.3135355e-10
3.5273068e-09
1.5169342e-08
4.6678507e-08
1.1778303e-07
2.6116113e-07
5.2923088e-07
1.0041762e-06
1.8126384e-06
3.1471154e-06
5.2969635e-06
8.6930896e-06
1.3972061e-05
2.2067602e-05
3.4340458e-05
5.2761507e-05
8.0167974e-05
0.00012061835
0.00017987762
0.00026606854
0.00039052301
0.00056885011
0.00082218713
0.0011784822
0.0016734172
0.0023501447
0.003256339
0.0044363676
0.005916607
0.0076852556
0.0096762003
0.011774006
0.013847905
0.015795179
0.017563385
0.019144485
0.020556816
0.02182967
0.022994646
0.024082147
0.025120535
0.026136336
0.027154728
0.028200188
0.02929687
0.030467996
0.031736401
0.033127241
0.034669653
0.036400136
0.038367898
0.040642032
0.043318876
0.046532398
0.050460275
0.055328024
0.061290179
0.068281802
0.075932566
0.083276155
0.088876277
0.091213448
0.090775913
0.090693915
1.3242744e-11
4.1613273e-10
3.4028417e-09
1.4634074e-08
4.5031402e-08
1.1362693e-07
2.5194579e-07
5.1055651e-07
9.6874335e-07
1.74868e-06
3.036075e-06
5.1100821e-06
8.3864232e-06
1.3479252e-05
2.1289457e-05
3.3130021e-05
5.0902832e-05
7.7346195e-05
0.00011637791
0.00017356476
0.00025675356
0.00037689784
0.0005490987
0.00079383153
0.0011382207
0.0016169983
0.0022723669
0.0031513424
0.0042984429
0.005741696
0.0074729116
0.0094309501
0.0115046
0.013564264
0.015505137
0.017271366
0.018852052
0.020263831
0.021535204
0.022697479
0.023780957
0.02481393
0.025822815
0.026832636
0.027867656
0.028951711
0.030107807
0.031358833
0.032730571
0.034253587
0.03596741
0.037926779
0.040210165
0.04293028
0.046247187
0.050377871
0.055581893
0.062116391
0.069949226
0.078790778
0.087742811
0.095334434
0.099348408
0.1002892
0.10083418
1.2649276e-11
3.9748393e-10
3.2503453e-09
1.3978256e-08
4.3013346e-08
1.0853482e-07
2.4065509e-07
4.876767e-07
9.2533137e-07
1.6703193e-06
2.9000307e-06
4.8811199e-06
8.0107041e-06
1.2875474e-05
2.0336085e-05
3.1646984e-05
4.8625501e-05
7.3888663e-05
0.00011118172
0.00016582823
0.00024533616
0.00036019389
0.00052487698
0.00075904376
0.0010887977
0.0015476848
0.0021767048
0.0030219995
0.0041281714
0.0055251529
0.0072091146
0.0091251301
0.011167533
0.013208612
0.015141234
0.016905281
0.018486114
0.019898065
0.021168528
0.022328384
0.023407794
0.024434976
0.025436226
0.026436408
0.027459527
0.028528974
0.029667361
0.030897406
0.032245077
0.033741795
0.035429182
0.037365886
0.039637583
0.042370228
0.045742118
0.049996386
0.055426712
0.062295718
0.070569337
0.080040011
0.090116276
0.09947143
0.10509706
0.10713988
0.10708047
1.1955946e-11
3.7569713e-10
3.0721885e-09
1.3212085e-08
4.0655717e-08
1.0258588e-07
2.2746461e-07
4.6094716e-07
8.7461512e-07
1.5787742e-06
2.7410968e-06
4.6136342e-06
7.571767e-06
1.2170098e-05
1.9222266e-05
2.991431e-05
4.5964704e-05
6.9848652e-05
0.00010510952
0.00015678611
0.00023198924
0.00034066137
0.00049654227
0.00071832613
0.0010309054
0.0014664063
0.002064362
0.0028697899
0.0039272339
0.0052686613
0.0068952117
0.0087593504
0.010762405
0.012779544
0.014701309
0.016462526
0.018043847
0.01945658
0.020726605
0.021884192
0.022959291
0.02398002
0.024972539
0.025961511
0.026970629
0.028022695
0.029139687
0.030343861
0.031660851
0.033122233
0.03477058
0.036666618
0.038901698
0.041610062
0.044974853
0.049242829
0.054701624
0.06159773
0.06985847
0.07920597
0.089780903
0.10005148
0.10658282
0.10897316
0.10739821
1.1175397e-11
3.5116956e-10
2.8716187e-09
1.2349527e-08
3.8001496e-08
9.5888583e-08
2.1261478e-07
4.3085512e-07
8.1751895e-07
1.4757131e-06
2.5621692e-06
4.3124976e-06
7.0776047e-06
1.1375961e-05
1.7968257e-05
2.796347e-05
4.2968697e-05
6.5299267e-05
9.8270842e-05
0.00014660078
0.000216951
0.00031864586
0.00046458989
0.00067237844
0.00096551523
0.0013744809
0.0019370729
0.0026968985
0.0036982144
0.004975
0.0065337785
0.0083354575
0.010289898
0.012276478
0.014183753
0.015940828
0.017522616
0.018936544
0.020206456
0.021361744
0.022432036
0.0234453
0.024427524
0.025403118
0.026395376
0.027426376
0.028517184
0.029689258
0.030967382
0.032382621
0.033977376
0.035813584
0.037988195
0.040634878
0.043922646
0.048065123
0.053264413
0.059629494
0.066965118
0.074913114
0.084637395
0.094923324
0.10169073
0.10354053
0.099294674
1.0323454e-11
3.2439857e-10
2.6527042e-09
1.1408076e-08
3.5104513e-08
8.8578729e-08
1.9640676e-07
3.9801083e-07
7.5520065e-07
1.3632256e-06
2.3668754e-06
3.9838138e-06
6.5382306e-06
1.0509149e-05
1.6599439e-05
2.583392e-05
3.9697992e-05
6.0332231e-05
9.0803221e-05
0.00013547634
0.00020052131
0.00029458332
0.00042964643
0.00062208959
0.00089386825
0.0012736066
0.0017970983
0.0025062251
0.0034446385
0.0046481331
0.0061287827
0.0078567768
0.0097520757
0.011699935
0.013587719
0.015338391
0.016920066
0.018335281
0.019605173
0.020757895
0.021822571
0.022826938
0.023796757
0.024756107
0.025727769
0.02673299
0.027791627
0.028924002
0.030153646
0.031510675
0.033036727
0.034797192
0.036893399
0.039445133
0.042582317
0.046418137
0.050896846
0.055741591
0.06033892
0.064963862
0.071596839
0.08044653
0.086837434
0.087673836
0.080111155
9.4186855e-12
2.9596762e-10
2.4202159e-09
1.040825e-08
3.2027901e-08
8.0815628e-08
1.7919377e-07
3.6313002e-07
6.8901818e-07
1.2437626e-06
2.15947e-06
3.6347424e-06
5.9653904e-06
9.5885298e-06
1.5145598e-05
2.3571964e-05
3.6223639e-05
5.5055295e-05
8.2868334e-05
0.00012365299
0.00018305354
0.00026898851
0.00039245382
0.0005685161
0.00081744744
0.0011658275
0.0016471898
0.0023013547
0.0031709674
0.0042932566
0.0056857204
0.0073283612
0.0091527135
0.011051899
0.012913434
0.014654112
0.01623425
0.01765034
0.018919962
0.020069525
0.021127393
0.022120933
0.023075596
0.024015036
0.024961374
0.025934933
0.02695409
0.028037731
0.029207936
0.030493884
0.031938017
0.033614672
0.035621204
0.038048879
0.04094684
0.044178055
0.047030374
0.048490661
0.047017162
0.045291551
0.046119345
0.051492288
0.057109471
0.057439846
0.046836661
8.4817794e-12
2.6652679e-10
2.1794691e-09
9.372909e-09
2.8842001e-08
7.277676e-08
1.6136932e-07
3.2701009e-07
6.2048447e-07
1.120055e-06
1.9446936e-06
3.2732609e-06
5.3721738e-06
8.6351367e-06
1.3639936e-05
2.1229235e-05
3.2624892e-05
4.9588714e-05
7.4646756e-05
0.00011139926
0.00016494332
0.00024243887
0.00035384656
0.00051285071
0.00073793568
0.0010534803
0.0014905251
0.002086489
0.0028825428
0.0039167896
0.0052117016
0.0067572187
0.0084976781
0.010336268
0.012162625
0.013887916
0.015463857
0.016879635
0.018148213
0.019293583
0.020342966
0.021323152
0.022259161
0.023174097
0.024089266
0.025023893
0.025994733
0.027018938
0.028117176
0.029318786
0.030673845
0.032265197
0.034170368
0.036429666
0.038904849
0.04082357
0.040119768
0.035473581
0.025033437
0.016832819
0.014838618
0.016100441
0.018370124
0.019086506
0.014053388
7.5346281e-12
2.3676402e-10
1.9360901e-09
8.3262476e-09
2.5621268e-08
6.4649995e-08
1.4334995e-07
2.904951e-07
5.5120094e-07
9.9499328e-07
1.7275645e-06
2.9078148e-06
4.7724387e-06
7.6712379e-06
1.2117614e-05
1.8860427e-05
2.8985737e-05
4.4059992e-05
6.6330099e-05
9.9000412e-05
0.00014661157
0.00021555002
0.00031471683
0.00045637367
0.00065714912
0.00093910578
0.0013305959
0.0018663141
0.002585449
0.0035262666
0.0047154372
0.0061524725
0.0077953029
0.0095593998
0.011339098
0.013041252
0.014608579
0.016021685
0.017287654
0.01842717
0.019465769
0.020429349
0.021342307
0.022227028
0.02310385
0.023990611
0.024902348
0.025854183
0.026865403
0.027970973
0.029237164
0.030735057
0.032501096
0.034445234
0.035898187
0.034779112
0.028714746
0.015065103
0.0077573454
0.0049086473
0.0041100861
0.004332897
0.0048470478
0.0050102698
0.0037058579
6.5993658e-12
2.0737483e-10
1.6957655e-09
7.2927211e-09
2.244095e-08
5.6625202e-08
1.2555667e-07
2.5443818e-07
4.827863e-07
8.7149925e-07
1.5131552e-06
2.5469417e-06
4.1801965e-06
6.7193527e-06
1.0614197e-05
1.6520882e-05
2.539119e-05
3.8598282e-05
5.8112618e-05
8.6745984e-05
0.0001284862
0.00018894921
0.00027597653
0.00040039901
0.00057696262
0.0008253477
0.0011710756
0.0016458347
0.002286322
0.0031301485
0.0042071089
0.0055253836
0.0070566595
0.0087306581
0.010449445
0.012117782
0.013669669
0.015076024
0.016336627
0.017467709
0.018492382
0.019435187
0.020319587
0.021167006
0.021996572
0.022824384
0.023663537
0.024526654
0.025431947
0.026435656
0.02760708
0.028966626
0.030445189
0.031509275
0.030396741
0.024653421
0.011312005
0.0047825929
0.0023228583
0.0014270459
0.001145483
0.0011508741
0.0012264352
0.0012486702
0.00096693453
5.6970419e-12
1.7902067e-10
1.4639048e-09
6.2955937e-09
1.9372635e-08
4.8883017e-08
1.0838997e-07
2.196509e-07
4.1678045e-07
7.5235254e-07
1.3062919e-06
2.1987644e-06
3.6087782e-06
5.8009093e-06
9.1635339e-06
1.4263281e-05
2.1922216e-05
3.332665e-05
5.0179565e-05
7.4912414e-05
0.00011097642
0.00016323765
0.00023850236
0.00034619544
0.00049919703
0.00071479446
0.0010156009
0.0014300826
0.0019919785
0.00273739
0.0036979458
0.0048890769
0.0062956439
0.0078629297
0.0095038759
0.011124312
0.012650782
0.014043864
0.015294561
0.016413273
0.017419679
0.018336304
0.019185196
0.019986428
0.020757444
0.021512167
0.022261156
0.02301338
0.023792867
0.024687482
0.025719085
0.026778023
0.027415908
0.026171432
0.020931465
0.0093432548
0.0036028589
0.0015063784
0.00074715263
0.00047272502
0.00038057343
0.00034636889
0.00033918379
0.00033322421
0.00028125713
4.8464848e-12
1.5229324e-10
1.2453468e-09
5.3556762e-09
1.6480365e-08
4.1585029e-08
9.2208156e-08
1.8685931e-07
3.5456092e-07
6.4003977e-07
1.1112919e-06
1.8705499e-06
3.0701113e-06
4.9350813e-06
7.7959157e-06
1.2134783e-05
1.8651312e-05
2.835535e-05
4.2697029e-05
6.3747814e-05
9.44501e-05
0.00013895699
0.0002030867
0.0002949148
0.00042551577
0.00060983127
0.00086756325
0.0012238296
0.0017090323
0.0023569541
0.0031996743
0.0042580732
0.005528766
0.0069728803
0.0085170067
0.010071891
0.011559121
0.012929088
0.014162755
0.015263136
0.016245188
0.017128473
0.017932894
0.018676491
0.019374145
0.020036907
0.020671187
0.021280274
0.021917163
0.022658219
0.023388789
0.023581547
0.022130329
0.016888424
0.0075167987
0.0029419589
0.001160014
0.00052785574
0.00030059227
0.0002165425
0.00018435862
0.00016903078
0.00015652189
0.0001517773
0.00013962091
4.0637867e-12
1.2769819e-10
1.0442261e-09
4.4907483e-09
1.3818846e-08
3.4869282e-08
7.7317311e-08
1.5668372e-07
2.9730484e-07
5.3668594e-07
9.3184507e-07
1.5685105e-06
2.5743946e-06
4.1382697e-06
6.5372658e-06
1.0175771e-05
1.564062e-05
2.3778992e-05
3.5807761e-05
5.3465889e-05
7.9224991e-05
0.00011657689
0.00017042012
0.0002475677
0.00035739153
0.00051259514
0.00073004985
0.0010315095
0.0014437968
0.0019977006
0.002724399
0.0036481147
0.0047748682
0.0060808383
0.0075083079
0.0089769291
0.010406854
0.011739634
0.012945535
0.014018647
0.014967661
0.015807862
0.016555861
0.017226456
0.017830583
0.018374419
0.018856258
0.019280535
0.019731374
0.02016059
0.020029764
0.01831383
0.012959674
0.0057333293
0.0023335586
0.00094873336
0.00042841411
0.00024290695
0.00017461102
0.0001469461
0.0001333684
0.00012477241
0.00011779199
0.00011515975
0.00011146773
3.3609595e-12
1.0561294e-10
8.6362844e-10
3.7140798e-09
1.1428913e-08
2.8838806e-08
6.3945877e-08
1.2958703e-07
2.4589047e-07
4.4387645e-07
7.7070435e-07
1.29728e-06
2.1292353e-06
3.4227068e-06
5.4069184e-06
8.4163669e-06
1.2936494e-05
1.9668189e-05
2.9618379e-05
4.4226434e-05
6.5539108e-05
9.6450062e-05
0.00014102316
0.00020492
0.00029594845
0.00042473356
0.00060547218
0.00085664656
0.0012014064
0.0016670503
0.0022826661
0.0030737419
0.004053096
0.0052098559
0.00650224
0.0078620908
0.0092125447
0.010489129
0.011651769
0.012684445
0.013587873
0.014371335
0.015046367
0.01562234
0.01610435
0.016488557
0.016756157
0.016945946
0.017038238
0.016678023
0.014740197
0.0093058511
0.0041763581
0.001769038
0.00075835609
0.00036335469
0.00021536879
0.00016040707
0.00013829963
0.00012703617
0.00011923926
0.00011280726
0.00010749198
0.0001053897
0.00010399296
2.7454482e-12
8.6271432e-11
7.0546688e-10
3.0338992e-09
9.3358857e-09
2.3557494e-08
5.2235534e-08
1.0585638e-07
2.0086275e-07
3.6259523e-07
6.2957863e-07
1.0597365e-06
1.7393603e-06
2.7959991e-06
4.4169075e-06
6.8753411e-06
1.0567874e-05
1.6067116e-05
2.4195782e-05
3.6130121e-05
5.3543215e-05
7.8801567e-05
0.00011523123
0.00016747155
0.00024193282
0.00034736459
0.00049551377
0.00070179115
0.0009857449
0.0013709297
0.0018834569
0.0025482178
0.0033819555
0.0043836842
0.0055262076
0.0067554074
0.0080015872
0.0091981426
0.010296396
0.011269814
0.012109533
0.012816645
0.013394935
0.013845089
0.014162212
0.014324826
0.014302045
0.014126881
0.013442016
0.011308744
0.0062331988
0.0029344096
0.0012941947
0.00058901865
0.00030609903
0.00019645268
0.00015379673
0.00013588272
0.00012712941
0.00012114995
0.00011524742
0.00010962432
0.00010430841
0.00010236395
0.00010163179
2.2196923e-12
6.9750368e-11
5.7036923e-10
2.4529057e-09
7.5480719e-09
1.9046315e-08
4.2232796e-08
8.5586077e-08
1.6240073e-07
2.9316572e-07
5.0903012e-07
8.5682766e-07
1.4063282e-06
2.2606587e-06
3.5712172e-06
5.5589299e-06
8.5444193e-06
1.2990622e-05
1.9562676e-05
2.9211575e-05
4.3290125e-05
6.3712189e-05
9.3168668e-05
0.00013541547
0.00019564824
0.00028097249
0.00040095925
0.00056823403
0.00079896158
0.0011129354
0.0015327469
0.0020812451
0.0027764465
0.0036237884
0.0046077978
0.0056881425
0.0068051762
0.0078943231
0.0089012689
0.0097896974
0.010539969
0.011142351
0.0115888
0.011867701
0.011954315
0.011821059
0.011441567
0.010491946
0.0080591303
0.0042668825
0.001986878
0.00092328393
0.00045053027
0.00025664197
0.00018012398
0.0001492341
0.0001354615
0.00012824494
0.00012271832
0.0001175208
0.00011209415
0.00010711476
0.00010260681
0.00010089894
9.9980087e-05
1.7812969e-12
5.5974482e-11
4.5771991e-10
1.9684525e-09
6.0573274e-09
1.5284723e-08
3.3892112e-08
6.8683832e-08
1.3032936e-07
2.3527211e-07
4.0851084e-07
6.8763195e-07
1.1286286e-06
1.8142628e-06
2.8660312e-06
4.4612185e-06
6.8570959e-06
1.0425099e-05
1.5698848e-05
2.3441211e-05
3.4737259e-05
5.1121927e-05
7.4753236e-05
0.00010864352
0.00015696115
0.00022541102
0.00032168964
0.0004559803
0.00064139396
0.00089415142
0.0012331281
0.0016781651
0.0022464256
0.0029464121
0.0037706444
0.0046903087
0.0056565171
0.0066099028
0.0074939524
0.0082643268
0.008890023
0.0093475636
0.0096129477
0.0096548396
0.009454693
0.0089405326
0.0078883047
0.0053954456
0.0027741101
0.0013495103
0.00065107887
0.00034476823
0.00021689062
0.00016619761
0.00014536233
0.0001354337
0.00012949469
0.00012423393
0.00011817565
0.00011275154
0.00010800797
0.00010401948
0.00010045534
9.8935544e-05
9.8049299e-05
1.4233835e-12
4.4727609e-11
3.6575095e-10
1.5729358e-09
4.8402543e-09
1.221368e-08
2.708258e-08
5.4884401e-08
1.0414539e-07
1.8800606e-07
3.2644388e-07
5.4949562e-07
9.0190713e-07
1.4498143e-06
2.2903021e-06
3.5650247e-06
5.479526e-06
8.330517e-06
1.2544182e-05
1.8729633e-05
2.7752947e-05
4.0838736e-05
5.9707809e-05
8.6760729e-05
0.00012531712
0.00017991754
0.00025668553
0.00036372532
0.00051148739
0.00071295398
0.00098336912
0.0013390707
0.0017948577
0.002359474
0.0030295915
0.0037843311
0.0045840217
0.0053757221
0.0061034737
0.0067170913
0.0071743476
0.0074358201
0.0074592868
0.0072370037
0.0066468143
0.0055409653
0.0033865583
0.0017631306
0.00088763295
0.00046248303
0.00026852201
0.00018666391
0.00015488716
0.00014206628
0.00013566355
0.00013100293
0.00012543249
0.00011916882
0.00011400533
0.00010988435
0.00010605709
0.00010264097
9.943649e-05
9.7872193e-05
9.7027091e-05
1.135191e-12
3.5671606e-11
2.9169731e-10
1.2544649e-09
3.8602631e-09
9.7408595e-09
2.1599495e-08
4.3772964e-08
8.3061755e-08
1.4994682e-07
2.6036254e-07
4.3826679e-07
7.1934944e-07
1.1563599e-06
1.8267284e-06
2.8434209e-06
4.3703306e-06
6.6439933e-06
1.0004053e-05
1.4935721e-05
2.2128476e-05
3.2556412e-05
4.7586786e-05
6.9124185e-05
9.9797499e-05
0.0001431943
0.00020413962
0.00028899912
0.00040595365
0.00056513276
0.00077840115
0.0010584677
0.0014168827
0.001860556
0.0023869476
0.0029792407
0.0036040257
0.0042140834
0.0047554778
0.0051743564
0.0054188215
0.0054369463
0.0052242128
0.0046615907
0.0035909157
0.0021114537
0.0011040622
0.00058181134
0.00032768283
0.00021437635
0.00016492666
0.00014546066
0.00013910564
0.00013552175
0.00013266331
0.0001268538
0.00012048658
0.00011565827
0.00011163869
0.00010782421
0.0001040476
0.00010099554
9.8182276e-05
9.6804656e-05
9.5814737e-05
9.0303403e-13
2.8376436e-11
2.3204265e-10
9.9791744e-10
3.0708205e-09
7.7488463e-09
1.7182505e-08
3.482192e-08
6.6077317e-08
1.1928713e-07
2.0712863e-07
3.4866262e-07
5.7228355e-07
9.1995685e-07
1.4532785e-06
2.2621021e-06
3.476762e-06
5.2853008e-06
7.957602e-06
1.1878952e-05
1.7596299e-05
2.588131e-05
3.7815069e-05
5.4899671e-05
7.9201372e-05
0.00011352719
0.00016163008
0.00022842331
0.0003201582
0.00044447339
0.00061015411
0.00082635004
0.0011009301
0.0014377092
0.0018326191
0.0022697298
0.0027190161
0.0031377563
0.0034751276
0.0036771488
0.0036890155
0.0035025713
0.0030133155
0.0021451155
0.0012377747
0.0006836825
0.00038088096
0.0002384359
0.00017386938
0.00014885437
0.00013829624
0.00013610925
0.0001354427
0.00013381993
0.00012880523
0.0001220253
0.00011726908
0.00011315598
0.00010893046
0.0001051272
0.00010182535
9.9281732e-05
9.6906942e-05
9.5619072e-05
9.474767e-05
7.1198312e-13
2.2372964e-11
1.8295058e-10
7.8679448e-10
2.4211549e-09
6.1095247e-09
1.3547522e-08
2.7455531e-08
5.209953e-08
9.4054507e-08
1.6331673e-07
2.7491591e-07
4.5124069e-07
7.2537786e-07
1.1458853e-06
1.7835817e-06
2.7411563e-06
4.1666902e-06
6.2725521e-06
9.3615876e-06
1.3863044e-05
2.0381204e-05
2.9760081e-05
4.3167497e-05
6.2200764e-05
8.9013129e-05
0.00012645341
0.0001781983
0.00024883413
0.00034380884
0.00046912325
0.00063056691
0.00083228757
0.0010745315
0.0013506616
0.0016442214
0.0019274602
0.0021625261
0.0023048419
0.0023067362
0.0021568691
0.001773424
0.0011968433
0.00070589915
0.00040771916
0.00025260818
0.00017549252
0.00014636651
0.00013409585
0.00013295373
0.00013444916
0.00013586071
0.00013487644
0.00013123153
0.00012352462
0.00011870661
0.00011441439
0.00011012319
0.00010646733
0.00010345716
0.00010068794
9.8425107e-05
9.6267929e-05
9.5015033e-05
9.4037707e-05
5.4855577e-13
1.7237515e-11
1.4095649e-10
6.0619601e-10
1.8654146e-09
4.7071907e-09
1.0437974e-08
2.1153797e-08
4.0141564e-08
7.2467201e-08
1.2583245e-07
2.1181639e-07
3.4766575e-07
5.5886393e-07
8.8279993e-07
1.373981e-06
2.1113963e-06
3.2088498e-06
4.8293458e-06
7.204919e-06
1.0663627e-05
1.5665693e-05
2.2850838e-05
3.3098372e-05
4.7600113e-05
6.7942729e-05
9.6189395e-05
0.00013493871
0.00018731955
0.00025685254
0.00034707532
0.00046079722
0.000598896
0.00075846459
0.00093082179
0.001099792
0.0012413053
0.0013249127
0.0013172491
0.0012056192
0.00094329132
0.00062782474
0.00038847014
0.00024360643
0.00016588928
0.00013492934
0.00012183744
0.00012419769
0.00012763798
0.00013500575
0.00013751636
0.00013659594
0.00013307292
0.00012482043
0.00012011338
0.00011579781
0.00011162615
0.00010806611
0.00010490683
0.0001019344
9.9195786e-05
9.7010876e-05
9.509274e-05
9.3891005e-05
9.2986121e-05
4.0399552e-13
1.2694931e-11
1.0381036e-10
4.464456e-10
1.3738227e-09
3.4667044e-09
7.6872375e-09
1.557903e-08
2.9562593e-08
5.3368255e-08
9.2666594e-08
1.5598147e-07
2.5600559e-07
4.1148626e-07
6.4991421e-07
1.0113352e-06
1.5537175e-06
2.3604509e-06
3.5507225e-06
5.2936951e-06
7.8275732e-06
1.1484685e-05
1.6723497e-05
2.4167689e-05
3.4650646e-05
4.9260129e-05
6.9371622e-05
9.6648659e-05
0.00013297373
0.00018025506
0.00024003147
0.00031283356
0.00039719019
0.00048849667
0.0005778918
0.00065171619
0.0006919623
0.00067942085
0.00060536989
0.00046095702
0.00031245202
0.00020828451
0.00014389522
0.00011446611
0.00010186715
0.00010604842
0.00011276673
0.00012678294
0.00013789447
0.00013935565
0.0001384182
0.00013483441
0.00012642589
0.00012177342
0.00011739044
0.00011314268
0.00010947637
0.00010607461
0.00010291282
0.00010016886
9.7867998e-05
9.5997511e-05
9.4270059e-05
9.3264516e-05
9.244197e-05
2.767237e-13
8.6956094e-12
7.1106572e-11
3.0579916e-10
9.4101413e-10
2.3745338e-09
5.2653306e-09
1.0670534e-08
2.0247611e-08
3.6550477e-08
6.3460389e-08
1.0680937e-07
1.7527723e-07
2.8167479e-07
4.447688e-07
6.9185915e-07
1.0623898e-06
1.6129579e-06
2.4241779e-06
3.6099335e-06
5.3295803e-06
7.8035528e-06
1.1332448e-05
1.6318761e-05
2.3288656e-05
3.2908002e-05
4.5981767e-05
6.341847e-05
8.6131841e-05
0.00011484307
0.000149758
0.00019008738
0.00023343218
0.00027525559
0.00030854417
0.00032394762
0.0003131655
0.00027097464
0.00020683656
0.00015099007
0.00010992036
8.8774694e-05
7.8497703e-05
8.1770832e-05
8.9914927e-05
0.00010764904
0.00013198118
0.0001397061
0.00014148418
0.00014048048
0.00013682141
0.00012810962
0.00012338719
0.00011882866
0.00011455559
0.00011082332
0.00010733302
0.00010414183
0.0001014616
9.9145217e-05
9.7011113e-05
9.5206598e-05
9.3589417e-05
9.250851e-05
9.1651579e-05
1.7128242e-13
5.3822784e-12
4.4012346e-11
1.8927703e-10
5.8244122e-10
1.4696879e-09
3.2588041e-09
6.6038587e-09
1.2530119e-08
2.2616835e-08
3.9262893e-08
6.6070522e-08
1.0839609e-07
1.7413565e-07
2.7483716e-07
4.2726236e-07
6.5555768e-07
9.9423376e-07
1.4921871e-06
2.2180086e-06
3.2667742e-06
4.7683397e-06
6.8967546e-06
9.8795998e-06
1.400462e-05
1.9618693e-05
2.7110813e-05
3.6866534e-05
4.9178223e-05
6.4095842e-05
8.121022e-05
9.9393506e-05
0.00011655338
0.00012951398
0.00013418571
0.00012782059
0.0001101225
8.910556e-05
7.1287482e-05
6.0692675e-05
5.5236885e-05
5.8449504e-05
6.4987884e-05
8.0339188e-05
0.00011129869
0.00013379746
0.00014217779
0.00014350884
0.00014250551
0.00013889345
0.00013003071
0.00012501381
0.00012039523
0.00011614652
0.00011241024
0.00010875192
0.00010552275
0.00010274268
0.00010020168
9.7853249e-05
9.5808604e-05
9.409429e-05
9.2628273e-05
9.1715961e-05
9.1051959e-05
9.3290766e-14
2.931511e-12
2.3971629e-11
1.0308972e-10
3.1721918e-10
8.0041675e-10
1.7746984e-09
3.5960693e-09
6.8223564e-09
1.2312325e-08
2.1369455e-08
3.5949069e-08
5.8954616e-08
9.4658218e-08
1.4929238e-07
2.3187371e-07
3.5533465e-07
5.3805188e-07
8.0586342e-07
1.1946463e-06
1.7534572e-06
2.5480758e-06
3.6644735e-06
5.2111586e-06
7.3184348e-06
1.0131285e-05
1.3791078e-05
1.8399731e-05
2.3960753e-05
3.0295755e-05
3.6945592e-05
4.3083117e-05
4.7481921e-05
4.8698563e-05
4.675705e-05
4.2757667e-05
3.8399194e-05
3.4775051e-05
3.4569401e-05
3.8299564e-05
4.381254e-05
5.6093213e-05
8.0461191e-05
0.00011474685
0.0001347399
0.00014369443
0.00014553449
0.00014457023
0.00014113516
0.00013228778
0.00012685537
0.0001219555
0.00011780973
0.00011391534
0.00011013778
0.00010682136
0.00010392755
0.00010119394
9.8797843e-05
9.6760123e-05
9.4989157e-05
9.3494571e-05
9.2165036e-05
9.126166e-05
9.0540405e-05
4.3883541e-14
1.3789669e-12
1.1276035e-11
4.8491517e-11
1.4920883e-10
3.7646676e-10
8.3463755e-10
1.6910161e-09
3.2075883e-09
5.7873566e-09
1.0041357e-08
1.6884849e-08
2.7674232e-08
4.4400108e-08
6.9956507e-08
1.085112e-07
1.6600613e-07
2.5081799e-07
3.7460173e-07
5.5331676e-07
8.0838103e-07
1.1677927e-06
1.6668698e-06
2.3479602e-06
3.2580557e-06
4.4427072e-06
5.9343879e-06
7.7336047e-06
9.7828699e-06
1.1938094e-05
1.3948368e-05
1.5461149e-05
1.6319375e-05
1.6741593e-05
1.7042491e-05
1.7625223e-05
1.9237566e-05
2.1810097e-05
2.7837832e-05
3.7550139e-05
5.5294613e-05
8.232609e-05
0.00011367137
0.00013280962
0.00014467191
0.00014741954
0.00014656773
0.00014347553
0.00013492545
0.00012878385
0.00012358347
0.0001194018
0.00011553659
0.00011165221
0.00010833445
0.00010523605
0.00010242486
9.9977411e-05
9.7867417e-05
9.5931423e-05
9.4192135e-05
9.2667409e-05
9.1336657e-05
9.048225e-05
8.9891895e-05
1.7948373e-14
5.6399641e-13
4.611841e-12
1.9832285e-11
6.1021359e-11
1.5395099e-10
3.4127669e-10
6.9133513e-10
1.3110664e-09
2.3648112e-09
4.1014137e-09
6.8929504e-09
1.1289531e-08
1.8095964e-08
2.847754e-08
4.4103474e-08
6.7336977e-08
1.0147932e-07
1.5106917e-07
2.2222445e-07
3.2298581e-07
4.6357211e-07
6.5638114e-07
9.1546077e-07
1.2550744e-06
1.6869179e-06
2.2157435e-06
2.8338263e-06
3.5163052e-06
4.2221704e-06
4.9349364e-06
5.7406618e-06
6.7059905e-06
7.9403116e-06
9.4874701e-06
1.230891e-05
1.6913515e-05
2.4704721e-05
3.7400168e-05
5.6481974e-05
8.1496571e-05
0.00010920544
0.00013025299
0.00014553109
0.0001493415
0.00014862316
0.00014596476
0.00013783977
0.0001308075
0.00012535596
0.00012112399
0.00011715424
0.0001133403
0.00010983257
0.00010659977
0.00010364005
0.00010114036
9.8840554e-05
9.6752518e-05
9.4900944e-05
9.3307744e-05
9.1950672e-05
9.0850279e-05
9.011071e-05
8.9534147e-05
7.1610854e-15
2.2502432e-13
1.8400278e-12
7.9125378e-12
2.4345157e-11
6.1417764e-11
1.3614133e-10
2.7576068e-10
5.2289462e-10
9.4300388e-10
1.6351422e-09
2.7472904e-09
4.4980039e-09
7.2066163e-09
1.1334788e-08
1.7542666e-08
2.6763102e-08
4.0296834e-08
5.9929658e-08
8.8068373e-08
1.2788479e-07
1.834442e-07
2.5978226e-07
3.6288518e-07
4.9953788e-07
6.7707177e-07
9.0318181e-07
1.1861198e-06
1.5418201e-06
2.0069711e-06
2.6564246e-06
3.5835854e-06
4.9570399e-06
7.0675162e-06
1.0441914e-05
1.6042967e-05
2.4855253e-05
3.7811886e-05
5.5679528e-05
7.8579261e-05
0.00010485455
0.00012902997
0.00014650301
0.00015142109
0.00015085512
0.00014852336
0.00014098138
0.00013293047
0.0001273818
0.00012294412
0.0001187838
0.00011496725
0.00011147256
0.00010801491
0.00010504336
0.00010236695
9.9958985e-05
9.7743762e-05
9.5874634e-05
9.4210354e-05
9.2753531e-05
9.1446877e-05
9.0288119e-05
8.9500472e-05
8.8958953e-05
4.0935291e-15
1.286321e-13
1.0518374e-12
4.5232562e-12
1.3917769e-11
3.5114557e-11
7.7846464e-11
1.5771147e-10
2.9913178e-10
5.396682e-10
9.3626255e-10
1.5742048e-09
2.5799207e-09
4.1390694e-09
6.521951e-09
1.0118869e-08
1.5488892e-08
2.3426468e-08
3.5051603e-08
5.1931234e-08
7.6242628e-08
1.1099634e-07
1.6035127e-07
2.300886e-07
3.2839137e-07
4.6721569e-07
6.6451221e-07
9.4858798e-07
1.3643452e-06
1.9862203e-06
2.9424585e-06
4.4386755e-06
6.7992504e-06
1.0522206e-05
1.6313985e-05
2.4981528e-05
3.7290629e-05
5.4171531e-05
7.6154291e-05
0.00010236484
0.00012825442
0.00014719555
0.00015348454
0.00015334491
0.0001511881
0.00014409311
0.00013516649
0.00012965184
0.00012490532
0.00012045571
0.00011665839
0.00011314928
0.0001096665
0.0001064812
0.00010371686
0.00010108636
9.8851878e-05
9.6853457e-05
9.5063675e-05
9.3419474e-05
9.1965113e-05