/*--------------------------------*- C++ -*----------------------------------*\
  =========                 |
  \\      /  F ield         | OpenFOAM: The Open Source CFD Toolbox
   \\    /   O peration     | Website:  https://openfoam.org
    \\  /    A nd           | Version:  13
     \\/     M anipulation  |
\*---------------------------------------------------------------------------*/
FoamFile
{
    format      ascii;
    class       volScalarField;
    location    "8.103939";
    object      pMean;
}
// * * * * * * * * * * * * * * * * * * * * * * * * * * * * * * * * * * * * * //

dimensions      [0 2 -2 0 0 0 0];

internalField   nonuniform List<scalar> 
17140
(
5.8740642
5.8738803
5.8736587
5.8734345
5.8731931
5.8729313
5.8726493
5.8723466
5.8720231
5.8716785
5.8713127
5.8709252
5.8705154
5.8700811
5.8696186
5.8691212
5.8685779
5.8679714
5.8672761
5.8664554
5.865459
5.86422
5.8626497
5.8606337
5.8580713
5.8549245
5.8511188
5.8464524
5.8407086
5.8336876
5.8251548
5.8148541
5.8025082
5.7878211
5.7704854
5.7501966
5.7266775
5.699716
5.6692219
5.6353075
5.5983852
5.5593001
5.5195111
5.481154
5.4470113
5.4204156
5.4047925
5.4032094
5.4180957
5.4506375
5.4997556
5.5630178
5.6371501
5.716948
5.7964694
5.8689203
5.9269676
5.9625135
5.972081
5.9563783
5.9224862
5.8768346
5.8269824
5.7735288
5.7207133
5.8705265
5.8703467
5.8701302
5.8699107
5.8696745
5.8694182
5.869142
5.8688456
5.8685289
5.8681915
5.8678334
5.8674543
5.8670536
5.8666293
5.8661779
5.8656929
5.8651636
5.8645731
5.8638961
5.8630964
5.8621241
5.8609128
5.8593743
5.8573946
5.8548694
5.8517581
5.8479908
5.8433671
5.8376671
5.8306905
5.8222018
5.8119434
5.7996364
5.7849828
5.7676725
5.747398
5.7238786
5.6968978
5.6663612
5.6323766
5.5953537
5.5561386
5.5161883
5.4776459
5.4433246
5.4165189
5.4006999
5.3990698
5.4139806
5.4464802
5.4957004
5.5591539
5.633333
5.7131794
5.7927922
5.8654426
5.9238408
5.9598266
5.9698676
5.9546198
5.9211377
5.8758433
5.8263299
5.7731728
5.7206114
5.861999
5.861829
5.8616248
5.8614169
5.8611929
5.8609498
5.8606878
5.8604066
5.860106
5.859786
5.8594465
5.8590875
5.8587085
5.858308
5.857883
5.8574275
5.8569314
5.8563787
5.8557451
5.8549952
5.8540802
5.8529344
5.8514713
5.8495781
5.8471423
5.8441165
5.8404405
5.8359188
5.8303243
5.8234549
5.8150729
5.8049174
5.7927053
5.7781338
5.7608867
5.7406492
5.7171316
5.6901079
5.6594733
5.6253254
5.5880677
5.5485471
5.508227
5.4692766
5.4345221
5.4073047
5.391136
5.3892601
5.4040927
5.4366229
5.4859499
5.5496407
5.6240639
5.7041136
5.7839949
5.8571327
5.9163478
5.9533332
5.9644296
5.9502026
5.9176811
5.873288
5.8246091
5.7721142
5.7200961
5.8486695
5.848515
5.8483301
5.8481404
5.8479358
5.8477137
5.8474741
5.8472168
5.8469417
5.846649
5.8463388
5.8460113
5.8456663
5.8453031
5.8449189
5.844509
5.8440642
5.8435697
5.8430024
5.8423288
5.8415014
5.8404559
5.8391081
5.8373475
5.8350518
5.8321604
5.828623
5.8242573
5.8188271
5.8121248
5.8039097
5.793916
5.7818543
5.7674142
5.7502701
5.7300959
5.7065887
5.6795074
5.6487314
5.6143433
5.5767372
5.5367618
5.4958895
5.4563215
5.4209224
5.3930922
5.3764073
5.3741824
5.3888817
5.4214841
5.4710604
5.5350916
5.6098401
5.6901959
5.7704541
5.8442828
5.9046599
5.9431021
5.9557692
5.9431318
5.91218
5.8693205
5.8220385
5.770683
5.7195782
5.8310032
5.8308694
5.8307102
5.8305451
5.8303666
5.8301727
5.8299632
5.8297382
5.8294975
5.8292414
5.8289704
5.828685
5.8283854
5.8280713
5.8277411
5.8273908
5.8270127
5.8265935
5.8261121
5.8255367
5.8248219
5.8239058
5.8227063
5.8211166
5.8190072
5.816296
5.8129362
5.80877
5.8035566
5.7970743
5.7890803
5.779302
5.7674423
5.7531806
5.7361796
5.7160984
5.6926172
5.6654754
5.6345319
5.5998503
5.5618127
5.5212697
5.4797116
5.4393767
5.4031879
5.3746105
5.3572856
5.3546267
5.3691946
5.4019608
5.4519299
5.5164913
5.5917735
5.6725925
5.7533434
5.8280009
5.8897508
5.9299349
5.9445168
5.9338841
5.9050247
5.8642129
5.8188073
5.7689401
5.7190211
5.8097594
5.809651
5.8095232
5.8093882
5.8092418
5.8090825
5.8089101
5.8087247
5.8085262
5.8083151
5.8080921
5.8078578
5.8076131
5.8073583
5.8070924
5.8068127
5.8065129
5.8061815
5.8057996
5.8053376
5.8047529
5.8039858
5.8029572
5.8015645
5.7996798
5.7971891
5.7940324
5.7900925
5.7851366
5.7789153
5.7711855
5.7616667
5.7500527
5.7360116
5.7191919
5.699236
5.6758039
5.6486124
5.6174959
5.5824954
5.5439785
5.5027978
5.4604707
5.4192784
5.3822168
5.352819
5.3347944
5.3316717
5.3461415
5.3791889
5.4297213
5.4950013
5.571007
5.6524377
5.7337558
5.8092986
5.872502
5.9145582
5.9312919
5.9230107
5.8967002
5.8584105
5.8152845
5.7671833
5.7186796
5.7859552
5.7858754
5.785781
5.7856807
5.7855715
5.7854522
5.7853226
5.7851829
5.7850331
5.7848738
5.7847058
5.7845301
5.7843477
5.7841595
5.7839654
5.7837636
5.7835493
5.7833128
5.7830372
5.7826959
5.7822488
5.7816396
5.7807922
5.7796082
5.7779642
5.775722
5.7727927
5.7690905
5.7644066
5.7584725
5.7510342
5.7418051
5.7304688
5.7166814
5.7000766
5.6802788
5.656926
5.6297101
5.5984383
5.5631267
5.5241275
5.4822954
5.4391821
5.3971184
5.3591762
5.3289429
5.3101822
5.3065536
5.3209254
5.3543291
5.405585
5.4718184
5.5487905
5.631007
5.7129859
5.7894364
5.8540265
5.897982
5.9169527
5.9111957
5.8877443
5.8522769
5.8116699
5.765476
5.7185185
5.7608089
5.7607602
5.7607022
5.7606398
5.7605712
5.7604957
5.7604131
5.7603235
5.7602271
5.7601246
5.7600167
5.7599046
5.7597895
5.7596726
5.7595542
5.7594335
5.7593069
5.7591661
5.7589966
5.7587741
5.7584617
5.7580063
5.7573355
5.7563547
5.7549457
5.7529681
5.750288
5.7468091
5.7423823
5.7367438
5.7296052
5.720679
5.7096384
5.6961277
5.6797659
5.6601593
5.636924
5.609726
5.5783449
5.5427707
5.5033392
5.460911
5.4170715
5.3742049
5.3354482
5.3044059
5.2848656
5.2806445
5.2948553
5.328639
5.3807301
5.4480593
5.5261755
5.6093643
5.6921668
5.7695658
5.835445
5.8811109
5.9021484
5.8990628
5.8786316
5.8461462
5.8081823
5.7639645
5.7186536
5.7356624
5.735646
5.7356256
5.7356027
5.7355765
5.7355467
5.7355133
5.7354763
5.735436
5.7353929
5.7353479
5.735302
5.7352564
5.7352124
5.7351707
5.7351306
5.7350893
5.73504
5.7349695
5.7348561
5.7346655
5.7343481
5.7338353
5.7330365
5.7318377
5.7301024
5.7276794
5.7244297
5.7202188
5.7148407
5.707997
5.6993683
5.6886252
5.6754019
5.6593055
5.6399255
5.6168574
5.5897429
5.5583349
5.5225983
5.4828544
5.439972
5.3955644
5.3520674
5.3126557
5.2808935
5.2605668
5.2556915
5.2696848
5.3037901
5.3566412
5.4250601
5.504385
5.5886097
5.6722783
5.7505089
5.8173807
5.8644408
5.8877433
5.8871185
5.8697406
5.8402374
5.8049153
5.7626668
5.7190457
5.7118745
5.7118897
5.7119065
5.7119226
5.7119385
5.7119542
5.7119698
5.7119854
5.7120012
5.7120177
5.7120356
5.7120558
5.7120794
5.7121073
5.7121399
5.7121768
5.7122153
5.712249
5.7122661
5.7122463
5.7121578
5.7119539
5.7115695
5.7109181
5.7098902
5.7083527
5.7061536
5.7031318
5.6991228
5.6939416
5.6873397
5.6789913
5.66854
5.6556126
5.6398049
5.6206946
5.5978612
5.5709272
5.5396228
5.5038921
5.4640461
5.4209632
5.376275
5.3324579
5.2926814
5.2604227
5.2394695
5.2340535
5.2478162
5.2820784
5.3355375
5.4049421
5.4852839
5.5703691
5.6547304
5.7336242
5.801297
5.8496105
5.8742679
5.8757767
5.8613482
5.8347174
5.8019725
5.7616663
5.7197863
5.6906962
5.6907407
5.6907919
5.6908444
5.6908996
5.6909582
5.6910201
5.6910855
5.6911547
5.6912281
5.6913062
5.6913896
5.6914791
5.691575
5.6916775
5.6917856
5.6918961
5.6920028
5.692094
5.6921504
5.6921417
5.6920236
5.6917337
5.6911894
5.6902851
5.6888918
5.6868588
5.6840195
5.6801971
5.6751971
5.6687827
5.660656
5.650468
5.6378365
5.6223469
5.6035677
5.5810677
5.5544559
5.5234505
5.4879823
5.4483585
5.4054637
5.3609447
5.3172948
5.2776356
5.2453445
5.2242154
5.2185613
5.2321316
5.2664432
5.3201395
5.3897976
5.4704994
5.5559563
5.6407088
5.720092
5.7880463
5.8366319
5.8616961
5.8653984
5.8536388
5.8296907
5.7994098
5.7609943
5.7208833
5.6731442
5.6732138
5.6732946
5.6733784
5.6734679
5.6735639
5.6736665
5.6737761
5.6738929
5.6740174
5.6741498
5.6742905
5.6744398
5.6745978
5.6747636
5.6749356
5.6751101
5.6752799
5.6754332
5.6755506
5.6756027
5.6755462
5.675321
5.6748471
5.6740223
5.6727217
5.6707983
5.668083
5.6643962
5.6595428
5.653291
5.6453623
5.63542
5.6230858
5.6079492
5.589581
5.5675494
5.5414608
5.5110247
5.4761739
5.4372186
5.3950466
5.3513082
5.3084682
5.2695656
5.2379104
5.2172266
5.2117601
5.2253083
5.2591113
5.3120179
5.3808653
5.4608923
5.5458286
5.6302957
5.7093888
5.7767417
5.8250728
5.8506925
5.8561365
5.8467337
5.8252457
5.7973056
5.7607304
5.7224336
5.6598848
5.6599733
5.6600767
5.6601847
5.6603008
5.6604263
5.6605613
5.6607064
5.6608619
5.6610283
5.6612058
5.6613948
5.6615951
5.6618062
5.6620271
5.6622551
5.6624857
5.6627111
5.6629187
5.6630888
5.6631918
5.6631852
5.6630099
5.6625875
5.6618179
5.6605787
5.658727
5.6561019
5.6525158
5.6477658
5.6416492
5.6339048
5.6242122
5.6122107
5.5974999
5.5796589
5.5582636
5.5329349
5.5034136
5.469624
5.4318829
5.3910742
5.3488201
5.3075126
5.270084
5.2397509
5.2201271
5.2153129
5.2284863
5.2610497
5.3121883
5.3792281
5.4574545
5.5408882
5.6242217
5.7022193
5.7683268
5.8158067
5.8413752
5.8480522
5.8407208
5.8214544
5.7957261
5.7609307
5.7244718
5.6511549
5.651255
5.6513723
5.6514956
5.6516288
5.6517734
5.6519301
5.6520994
5.6522819
5.6524781
5.6526884
5.6529132
5.6531523
5.6534051
5.6536701
5.6539444
5.654223
5.6544978
5.6547555
5.6549763
5.6551309
5.655177
5.6550566
5.6546918
5.6539835
5.6528108
5.6510311
5.6484845
5.6449966
5.6403872
5.6343794
5.6268262
5.6174123
5.6057972
5.5916047
5.574442
5.5539276
5.5296996
5.5014654
5.4692186
5.4332859
5.3945176
5.3544719
5.3154065
5.2801085
5.2516731
5.233588
5.2292305
5.2416414
5.2723994
5.3209849
5.3851293
5.4605345
5.5415688
5.6229977
5.6991007
5.7629327
5.8084309
5.8336329
5.8412098
5.8356651
5.8183913
5.7947546
5.7616752
5.7270873
5.646715
5.6468185
5.6469406
5.6470692
5.6472088
5.6473613
5.6475273
5.6477076
5.6479032
5.6481148
5.6483431
5.6485886
5.6488514
5.6491311
5.6494265
5.6497349
5.6500515
5.6503686
5.6506736
5.6509474
5.651162
5.6512768
5.6512353
5.6509621
5.6503594
5.6493059
5.6476597
5.6452625
5.6419381
5.6374993
5.6318177
5.6245407
5.615364
5.6042331
5.5907187
5.574444
5.5550312
5.5321587
5.5056207
5.4754391
5.4418965
5.4058106
5.3686152
5.3323753
5.2996956
5.2735289
5.2567753
5.2526009
5.2639282
5.2921972
5.3375212
5.3979839
5.4697313
5.5475854
5.6262371
5.6993749
5.7600083
5.8030339
5.8274902
5.835649
5.8316262
5.816126
5.7944641
5.7630282
5.7303195
5.6459553
5.6460547
5.6461734
5.6462975
5.6464329
5.6465816
5.6467444
5.6469223
5.6471165
5.6473281
5.647558
5.6478073
5.6480764
5.6483657
5.6486744
5.6490008
5.6493414
5.6496897
5.6500352
5.6503612
5.6506428
5.6508436
5.6509119
5.6507762
5.6503428
5.6494933
5.6480855
5.6459553
5.6429215
5.6388026
5.633415
5.6264634
5.6179677
5.6074845
5.5947108
5.5794689
5.5614258
5.5403089
5.5159488
5.4883001
5.45767
5.4247887
5.390908
5.3578933
5.3281004
5.3039892
5.2882911
5.284024
5.2936583
5.3190811
5.3606545
5.4168869
5.4844588
5.5585238
5.6335342
5.7026959
5.7593776
5.7994203
5.8228962
5.8313949
5.8286576
5.8147292
5.7949292
5.7650657
5.7342459
5.647925
5.648014
5.6481214
5.6482331
5.6483554
5.6484905
5.6486392
5.6488028
5.6489826
5.6491799
5.6493962
5.6496326
5.6498905
5.6501708
5.6504737
5.6507989
5.6511445
5.6515062
5.6518767
5.6522435
5.6525866
5.6528761
5.6530685
5.6531018
5.6528909
5.652325
5.6512629
5.6495388
5.6469715
5.64337
5.6385325
5.6323282
5.6245232
5.6148352
5.6032331
5.5893639
5.5730263
5.5540032
5.5321358
5.5074117
5.4800852
5.4507447
5.4204649
5.3908208
5.3637118
5.3413799
5.3264525
5.3214729
5.3291323
5.3514078
5.3890021
5.4407719
5.5038993
5.5736496
5.6441573
5.708295
5.7605909
5.7975621
5.8198317
5.8284726
5.8268066
5.8142644
5.7962143
5.7678473
5.7389093
5.6516548
5.6517291
5.6518196
5.6519133
5.6520163
5.6521307
5.6522576
5.6523979
5.6525533
5.6527251
5.6529151
5.6531248
5.6533561
5.6536104
5.6538892
5.6541933
5.6545229
5.6548764
5.65525
5.6556364
5.6560226
5.6563874
5.6566985
5.6569082
5.6569487
5.6567241
5.6561113
5.6549563
5.6530757
5.6502704
5.6463282
5.6410684
5.6342912
5.6258907
5.6156178
5.6034233
5.5891732
5.5725478
5.5534945
5.5319977
5.5082166
5.482606
5.4559736
5.4294988
5.4048049
5.3839453
5.3691746
5.3631638
5.3686154
5.3876742
5.4212297
5.4685564
5.5271966
5.5921454
5.6571542
5.7159702
5.7632155
5.7972575
5.8182796
5.8268926
5.826112
5.8147882
5.7983816
5.7714342
5.7443794
5.6561863
5.6562444
5.656315
5.6563882
5.6564693
5.6565598
5.6566607
5.6567732
5.6568986
5.6570385
5.6571945
5.6573684
5.6575624
5.6577783
5.6580184
5.6582847
5.6585786
5.6589012
5.6592521
5.6596286
5.6600248
5.6604289
5.6608213
5.6611707
5.6614298
5.6615308
5.6613772
5.6608398
5.6597588
5.657944
5.6551845
5.6512744
5.6460061
5.6392543
5.6308986
5.6208354
5.6088674
5.5949812
5.5790726
5.5610074
5.5409119
5.5190278
5.49585
5.4722734
5.4496322
5.4296716
5.4146555
5.4072499
5.4103763
5.4262472
5.4559559
5.4991309
5.5532672
5.6127779
5.6719261
5.7247358
5.7674831
5.7984186
5.8182039
5.8266566
5.8266039
5.8163479
5.8014847
5.7758756
5.7507005
5.6608224
5.6608644
5.6609148
5.6609684
5.661028
5.661095
5.6611702
5.6612545
5.6613492
5.6614558
5.6615757
5.6617108
5.6618631
5.6620349
5.6622284
5.6624463
5.6626912
5.6629657
5.6632716
5.66361
5.6639804
5.6643792
5.6647981
5.6652215
5.6656236
5.6659632
5.6661803
5.6661888
5.6658716
5.6650798
5.6636347
5.6613404
5.6579936
5.6534223
5.6474655
5.6399832
5.6309173
5.6202044
5.6076555
5.5932198
5.5768371
5.5585269
5.5385467
5.5174587
5.4963069
5.4767278
5.4610315
5.4520797
5.4528602
5.4657919
5.4921297
5.5315943
5.5810968
5.6348716
5.6877151
5.7344451
5.7729241
5.8010505
5.819576
5.8277574
5.8282996
5.8189807
5.8055735
5.7812267
5.7579319
5.6651072
5.6651357
5.6651699
5.6652068
5.6652482
5.6652948
5.6653474
5.6654069
5.6654743
5.6655506
5.6656374
5.665736
5.6658484
5.6659766
5.6661229
5.6662901
5.666481
5.6666989
5.6669472
5.6672288
5.6675465
5.667902
5.6682951
5.6687223
5.6691752
5.6696371
5.6700797
5.6704617
5.6707214
5.6707729
5.6705024
5.6697684
5.6684074
5.6662462
5.6631138
5.658833
5.6532427
5.6461814
5.6374946
5.6269558
5.6143249
5.5994501
5.5822896
5.5631375
5.542889
5.5232067
5.5065902
5.4960721
5.4948424
5.5055546
5.5293882
5.5656162
5.6100638
5.6577999
5.7037332
5.7452059
5.7795114
5.805075
5.822354
5.8301857
5.8312129
5.8227135
5.8106859
5.7875319
5.7661118
5.668865
5.6688834
5.6689057
5.6689299
5.668957
5.6689877
5.6690227
5.6690624
5.6691077
5.6691593
5.6692186
5.669287
5.669366
5.6694574
5.6695626
5.6696837
5.6698236
5.6699852
5.6701715
5.6703864
5.6706345
5.6709214
5.6712518
5.671629
5.6720558
5.6725326
5.6730578
5.6736251
5.6742219
5.6748261
5.6754017
5.6758925
5.6762231
5.6762902
5.6759519
5.6750185
5.6732497
5.6703591
5.6659625
5.6596168
5.6508751
5.639283
5.6245406
5.6068223
5.5870359
5.5670088
5.5494579
5.537718
5.5353168
5.5448229
5.5669008
5.5996369
5.6387281
5.6803272
5.7201116
5.7566092
5.7872631
5.8104437
5.8264978
5.833924
5.8353491
5.8275682
5.8168532
5.7948328
5.7752882
5.6721671
5.6721778
5.6721908
5.6722048
5.6722207
5.672239
5.6722598
5.6722835
5.6723107
5.6723424
5.67238
5.672423
5.6724707
5.6725236
5.6725854
5.6726602
5.6727519
5.6728637
5.6729986
5.6731575
5.6733398
5.6735494
5.6737967
5.6740921
5.6744458
5.6748699
5.6753792
5.6759898
5.6767239
5.6776071
5.678666
5.67993
5.681424
5.6831501
5.6850625
5.6870267
5.6887793
5.6898862
5.6897651
5.6877115
5.6828477
5.67435
5.6618101
5.645402
5.6260694
5.6058696
5.5879564
5.576103
5.5738998
5.5831858
5.6035583
5.6321473
5.6664296
5.7016286
5.7366504
5.7687006
5.7960843
5.8170668
5.831952
5.8389453
5.8407044
5.8335608
5.8241021
5.8031587
5.7854848
5.675184
5.6751876
5.675192
5.6751968
5.6752025
5.6752092
5.6752171
5.6752265
5.6752378
5.6752512
5.6752669
5.6752849
5.6753056
5.675331
5.6753638
5.6754058
5.675457
5.6755177
5.675591
5.6756846
5.6758062
5.6759576
5.676142
5.6763663
5.6766408
5.676988
5.677437
5.6780175
5.6787683
5.6797441
5.6810099
5.6826487
5.6847578
5.6874347
5.6907484
5.6946602
5.698953
5.7031785
5.706589
5.7081008
5.7065517
5.7009593
5.6907224
5.6758528
5.6574049
5.6379367
5.6214357
5.6115017
5.6107657
5.6200868
5.6382506
5.6629912
5.692209
5.7227033
5.7531685
5.7813824
5.8058949
5.8248765
5.8386665
5.8452211
5.8472717
5.8407008
5.8324522
5.8125348
5.796732
5.6781052
5.6780995
5.6780928
5.6780854
5.678077
5.6780686
5.6780606
5.6780531
5.6780462
5.6780402
5.6780352
5.6780315
5.6780295
5.6780294
5.678032
5.6780393
5.6780519
5.6780706
5.6780988
5.678142
5.6782047
5.6782893
5.6784012
5.6785561
5.6787703
5.6790612
5.6794581
5.6800018
5.6807433
5.6817424
5.6830777
5.6848572
5.6872166
5.6903122
5.6942527
5.6990489
5.7045793
5.7104155
5.7158219
5.7197883
5.7209871
5.7180789
5.7101037
5.6972509
5.6811081
5.6648516
5.6517645
5.6445686
5.64522
5.6543684
5.6699439
5.6917143
5.7163288
5.7428746
5.7696602
5.7946279
5.8166185
5.8338004
5.8465872
5.852719
5.8550373
5.8489924
5.8419172
5.8229804
5.8090673
5.680795
5.6807782
5.6807585
5.6807378
5.6807154
5.6806907
5.6806636
5.6806346
5.6806042
5.6805727
5.6805404
5.6805075
5.6804751
5.680444
5.680415
5.6803887
5.6803656
5.6803476
5.6803388
5.6803451
5.6803719
5.6804243
5.6805094
5.6806418
5.6808392
5.6811162
5.6814932
5.6820088
5.6827237
5.6837097
5.6850364
5.6867938
5.6891208
5.6921672
5.6960824
5.7009514
5.706711
5.7130864
5.7194938
5.7248868
5.727839
5.72698
5.7216796
5.712371
5.7003468
5.6881829
5.6788515
5.6742925
5.6763013
5.6849538
5.6992983
5.7175568
5.7392397
5.7625668
5.786211
5.8083919
5.8281918
5.8437773
5.8556648
5.861407
5.8639846
5.8584364
5.8525041
5.8345204
5.8225208
5.682476
5.6824521
5.6824241
5.6823946
5.6823629
5.6823285
5.6822915
5.6822518
5.6822095
5.6821647
5.6821175
5.6820685
5.6820181
5.6819673
5.6819174
5.68187
5.6818272
5.6817916
5.6817671
5.6817602
5.6817765
5.6818183
5.6818895
5.6820023
5.682176
5.6824311
5.6827884
5.6832763
5.6839404
5.684837
5.6860462
5.6876846
5.6898614
5.6926856
5.6962875
5.700793
5.706245
5.7125095
5.7191062
5.7251527
5.7295889
5.7311971
5.7292218
5.7235723
5.7156972
5.7080846
5.7025522
5.7003801
5.7041485
5.7125989
5.7255446
5.7418774
5.7610637
5.7817238
5.8027958
5.8226373
5.8405598
5.85475
5.8658505
5.8712518
5.8740929
5.8690251
5.8642123
5.8471529
5.8371071
5.6824645
5.6824422
5.682416
5.6823885
5.6823588
5.6823267
5.6822921
5.6822552
5.6822158
5.6821743
5.6821307
5.6820857
5.6820397
5.6819934
5.6819481
5.681905
5.6818659
5.6818332
5.6818092
5.6817973
5.6818032
5.6818335
5.681896
5.6820003
5.6821587
5.6823903
5.6827108
5.6831442
5.6837424
5.6845552
5.6856356
5.6870704
5.6889739
5.6914737
5.6947359
5.6989142
5.704079
5.7102249
5.7170382
5.7238664
5.7296998
5.7334284
5.7342957
5.732365
5.7288247
5.7254609
5.7232077
5.7240885
5.7290484
5.7377013
5.7496594
5.7645921
5.7819285
5.8005037
5.8194663
5.8373487
5.8536811
5.8666703
5.8771028
5.8822228
5.8853371
5.8807542
5.8770494
5.8609352
5.8528502
5.6808686
5.6808549
5.6808389
5.680822
5.6808038
5.6807841
5.680763
5.6807404
5.6807166
5.6806915
5.6806654
5.6806387
5.6806118
5.6805852
5.6805599
5.680537
5.6805181
5.680504
5.6804976
5.6805057
5.6805331
5.6805812
5.6806553
5.6807632
5.6809166
5.6811398
5.6814528
5.6818695
5.6824212
5.6831639
5.6841608
5.6855005
5.6873111
5.6897121
5.6928378
5.6968785
5.7020096
5.7082398
5.7153393
5.7228244
5.7298274
5.7354445
5.7388915
5.7402969
5.7406258
5.7409739
5.7420188
5.7453957
5.751536
5.7604373
5.7721071
5.786127
5.8020651
5.8189819
5.8362424
5.8525126
5.8675214
5.8794974
5.8893795
5.894284
5.8977003
5.8936141
5.8910091
5.8758538
5.8697081
5.678294
5.67829
5.6782855
5.6782808
5.6782759
5.6782707
5.6782653
5.6782598
5.6782544
5.6782492
5.6782445
5.6782405
5.6782377
5.6782369
5.6782391
5.6782455
5.6782577
5.6782779
5.6783091
5.6783546
5.6784173
5.6785031
5.678621
5.6787808
5.6789928
5.6792688
5.6796353
5.6801208
5.6807562
5.6815992
5.6827047
5.684141
5.6860232
5.6885008
5.691752
5.6959568
5.7012579
5.7077146
5.7151972
5.7232821
5.7312867
5.7383756
5.7439973
5.7483309
5.7520028
5.7552678
5.7591308
5.7647229
5.7721662
5.7816783
5.7932755
5.8066849
5.8216112
5.8372584
5.8531704
5.8681305
5.8820575
5.8931945
5.9026463
5.9074135
5.9111646
5.9075955
5.9060817
5.8919052
5.8877109
5.6754158
5.6754181
5.6754211
5.6754243
5.6754281
5.6754326
5.675438
5.6754445
5.6754523
5.6754618
5.6754734
5.6754877
5.6755054
5.6755274
5.675555
5.6755898
5.6756337
5.6756893
5.6757593
5.675848
5.6759629
5.6761128
5.6763053
5.6765507
5.6768619
5.6772575
5.6777705
5.6784272
5.6792487
5.6802826
5.6815988
5.6832816
5.6854481
5.6882302
5.6917814
5.6962984
5.7019569
5.7088197
5.7167771
5.7254514
5.7342893
5.7426713
5.7501413
5.7568735
5.7629081
5.7689049
5.7753804
5.7828053
5.7915064
5.8016881
5.8134325
5.8265173
5.8407416
5.8554301
5.8702932
5.8842089
5.897273
5.9077334
5.9168791
5.9215641
5.9256942
5.9226609
5.9222728
5.909021
5.9069824
5.6722978
5.6723027
5.6723088
5.6723156
5.6723235
5.6723327
5.6723435
5.6723562
5.6723713
5.6723893
5.6724109
5.6724368
5.6724683
5.6725064
5.6725531
5.6726105
5.6726812
5.6727689
5.6728782
5.6730148
5.6731865
5.6734021
5.6736731
5.6740147
5.6744448
5.6749849
5.6756597
5.6765018
5.6775518
5.6788558
5.6804819
5.6825251
5.685087
5.6882934
5.6923459
5.6974399
5.7037032
5.7111787
5.7197438
5.7291041
5.7387349
5.7482095
5.7572693
5.7659143
5.7742661
5.7824869
5.7909644
5.8000146
5.8099265
5.8208528
5.8328822
5.8458352
5.8596005
5.8735914
5.8876607
5.9007615
5.9131571
5.9230891
5.9320393
5.936704
5.9412815
5.9387797
5.9395816
5.9271997
5.9273865
5.6685938
5.6686005
5.6686087
5.6686179
5.6686287
5.6686413
5.6686562
5.6686739
5.6686949
5.6687199
5.66875
5.6687861
5.6688298
5.6688827
5.6689472
5.669026
5.6691225
5.6692414
5.6693881
5.6695697
5.6697953
5.6700759
5.6704259
5.6708625
5.671406
5.6720825
5.6729228
5.6739631
5.675254
5.6768587
5.6788554
5.6813287
5.6843962
5.6882479
5.6930635
5.6989787
5.7061012
5.7144183
5.7237654
5.7338837
5.7443668
5.754921
5.765477
5.7758295
5.7860561
5.7960647
5.8062417
5.8167458
5.8277829
5.8394573
5.8518603
5.8648334
5.8783326
5.8918364
5.9053241
5.9178062
5.9297042
5.939243
5.9481048
5.9528136
5.9579132
5.9559188
5.9579934
5.9464493
5.9488814
5.6637939
5.6638038
5.663816
5.6638296
5.6638452
5.6638636
5.6638851
5.6639103
5.6639401
5.6639753
5.6640171
5.6640669
5.6641265
5.6641981
5.6642843
5.6643885
5.6645149
5.6646687
5.6648566
5.6650867
5.6653693
5.6657175
5.6661474
5.666679
5.6673363
5.6681502
5.6691615
5.6704228
5.6719936
5.6739412
5.6763533
5.6793767
5.6831776
5.6878976
5.693693
5.700676
5.7088757
5.7181992
5.7285036
5.7394924
5.7509515
5.7627569
5.7746857
5.7864955
5.7982059
5.8098106
5.8214668
5.8332662
5.8453469
5.8577611
5.870592
5.8836906
5.8970691
5.9102543
5.9233353
5.9353641
5.9469117
5.9561781
5.965046
5.9698699
5.9755356
5.9741058
5.9774603
5.9667751
5.9714693
5.657497
5.6575126
5.6575318
5.6575528
5.6575768
5.6576045
5.6576366
5.6576738
5.657717
5.6577675
5.6578266
5.6578961
5.657978
5.6580749
5.65819
5.6583271
5.6584912
5.6586881
5.6589254
5.6592124
5.6595606
5.6599847
5.660504
5.6611419
5.661933
5.6629167
5.6641334
5.665642
5.6675289
5.6699085
5.6729135
5.6766919
5.6814056
5.6872099
5.6942162
5.702461
5.7118936
5.7223798
5.7337439
5.7457735
5.7584695
5.7715223
5.784663
5.7977844
5.8108757
5.8238846
5.8368569
5.8498231
5.8628642
5.8759891
5.8892723
5.9025676
5.9159333
5.9289306
5.9417451
5.9534576
5.9647799
5.9738804
5.9828422
5.9878341
5.9941381
5.9932639
5.997955
5.9881264
5.9950691
5.649356
5.6493798
5.6494087
5.6494401
5.6494758
5.6495165
5.6495631
5.6496165
5.6496779
5.6497487
5.6498306
5.6499257
5.6500363
5.6501656
5.6503171
5.6504952
5.6507054
5.6509546
5.6512518
5.6516064
5.6520331
5.6525522
5.6531844
5.6539556
5.6549003
5.6560703
5.6575403
5.6593974
5.6617497
5.6647342
5.6685132
5.6732606
5.6791384
5.6862628
5.6946779
5.7043432
5.7151414
5.7269192
5.7394758
5.7528454
5.7668082
5.7810038
5.7953491
5.8097668
5.8241556
5.8384381
5.8525999
5.8666219
5.880544
5.8943412
5.90808
5.9216141
5.935041
5.9479473
5.9606041
5.9721115
5.983311
5.9923369
6.0014593
6.0067084
6.0136448
6.013408
6.0193958
6.010491
6.0196116
5.6391606
5.6391948
5.6392362
5.6392809
5.6393312
5.6393882
5.639453
5.6395265
5.6396104
5.6397062
5.639816
5.6399421
5.6400874
5.6402557
5.6404505
5.6406736
5.6409339
5.6412462
5.6416174
5.6420534
5.6425689
5.6431884
5.6439453
5.6448776
5.6460341
5.6474828
5.6493142
5.6516454
5.654624
5.658423
5.6632287
5.669215
5.676514
5.6851789
5.6951765
5.7063932
5.7186754
5.7318371
5.7458592
5.7606386
5.7757887
5.7912227
5.8068566
5.8225386
5.8381584
5.8536186
5.8688656
5.8838464
5.8985718
5.9129931
5.9271721
5.9409627
5.954496
5.9673786
5.979957
5.991345
6.0025027
6.0115372
6.0208903
6.0264424
6.0340624
6.0345052
6.0417651
6.0337441
6.0451193
5.62671
5.6267567
5.6268129
5.6268733
5.6269413
5.6270182
5.627105
5.6272028
5.6273124
5.6274342
5.6275685
5.6277233
5.6279115
5.6281312
5.6283739
5.6286479
5.6289677
5.6293437
5.6297883
5.6303176
5.6309506
5.631713
5.6326442
5.6337973
5.6352431
5.6370766
5.6394216
5.642433
5.6462937
5.6512024
5.657349
5.6648793
5.6738669
5.6842792
5.6960103
5.7088913
5.7227361
5.7374969
5.7530862
5.7691728
5.7856477
5.8024261
5.8193412
5.8362561
5.8530472
5.8695983
5.8858337
5.9016783
5.9171248
5.9321103
5.9466952
5.9607351
5.9743912
5.9872891
5.9998412
6.0111785
6.0223587
6.0314632
6.0410893
6.0470183
6.0553484
6.0565647
6.0649999
6.0582736
6.0711101
5.6123291
5.6123902
5.6124618
5.6125358
5.6126175
5.6127155
5.6128326
5.6129589
5.6130901
5.6132355
5.6134034
5.6135967
5.6138189
5.614075
5.6143709
5.6147139
5.6151115
5.6155727
5.6161121
5.6167532
5.6175263
5.6184712
5.6196425
5.6211143
5.6229857
5.6253857
5.6284755
5.6324459
5.637504
5.6438516
5.6516473
5.6609764
5.6718298
5.6840962
5.6976312
5.7122204
5.7277981
5.7442666
5.7613159
5.7788336
5.7967343
5.8148481
5.8330313
5.8511371
5.8690298
5.8865822
5.9037062
5.9203154
5.9363928
5.9518696
5.9668083
5.9810719
5.9948449
6.0077737
6.0203263
6.0316528
6.0428926
6.0521229
6.0620482
6.068398
6.0774254
6.0794825
6.0890698
6.0833639
6.0979919
5.5963328
5.5964117
5.596495
5.596579
5.5966761
5.596788
5.5969155
5.5970606
5.597226
5.5974151
5.5976314
5.5978767
5.5981511
5.598457
5.5988028
5.5992004
5.5996619
5.600203
5.6008449
5.6016168
5.6025584
5.6037248
5.6051907
5.6070565
5.6094541
5.6125496
5.6165426
5.6216556
5.628112
5.6361046
5.6457444
5.6570583
5.6699797
5.6843042
5.6998038
5.7164061
5.7339271
5.7520728
5.7707155
5.7897856
5.8091207
5.8285769
5.8480034
5.8672474
5.8861678
5.9046325
5.9225488
5.9398266
5.9564448
5.972334
5.9875651
6.0020084
6.0158724
6.0288284
6.0413861
6.052727
6.0640457
6.0734379
6.0836852
6.0905293
6.1002455
6.1034114
6.1139634
6.1105735
6.1268827
5.5792414
5.579329
5.5794334
5.5795457
5.5796694
5.5798071
5.5799602
5.5801308
5.5803211
5.5805341
5.5807731
5.5810424
5.5813475
5.5816954
5.5820954
5.5825597
5.5831049
5.5837535
5.5845363
5.5854953
5.5866883
5.5881933
5.5901143
5.5925864
5.5957798
5.5998986
5.6051718
5.611834
5.6200948
5.6300959
5.6418765
5.6554166
5.670506
5.6869431
5.7045942
5.7232207
5.7425144
5.7623438
5.782645
5.8032503
5.8240197
5.844799
5.8654285
5.8857507
5.9056195
5.9249067
5.9435166
5.9613646
5.9784266
5.9946435
6.0100849
6.0246492
6.0385571
6.0515153
6.0640653
6.0754251
6.0868359
6.0964256
6.107019
6.1144168
6.1248277
6.1292648
6.1405772
6.1410658
6.1546196
5.5639148
5.5640127
5.5641321
5.5642553
5.5643909
5.5645417
5.5647093
5.5648957
5.5651039
5.5653371
5.5655998
5.5658974
5.5662374
5.5666294
5.5670865
5.5676266
5.5682739
5.5690616
5.5700349
5.5712552
5.5728047
5.5747922
5.5773575
5.5806751
5.5849533
5.5904257
5.5973333
5.605895
5.6162713
5.628521
5.6426405
5.6584481
5.6756964
5.6942219
5.7137675
5.7340354
5.7549396
5.7763963
5.7982184
5.8202584
5.8423489
5.8643232
5.8860134
5.9072572
5.9279099
5.947846
5.9669758
5.9852213
6.0025637
6.0189562
6.0344765
6.049051
6.0629084
6.0758123
6.0882919
6.0996646
6.1111179
6.1209519
6.1318297
6.1398959
6.1509173
6.1566837
6.1688883
6.1718644
6.185794
5.552712
5.5528157
5.552942
5.5530721
5.553215
5.5533737
5.55355
5.5537463
5.5539659
5.554213
5.5544933
5.5548139
5.5551849
5.5556197
5.5561366
5.5567607
5.557526
5.5584791
5.5596823
5.5612192
5.563199
5.5657619
5.5690823
5.5733684
5.5788558
5.585792
5.5944106
5.604896
5.6173452
5.6317586
5.6480407
5.6659417
5.6851554
5.7054258
5.7265316
5.7484191
5.7709159
5.7938298
5.8170066
5.8402782
5.8634702
5.886407
5.908917
5.9308398
5.9520362
5.9723892
5.9918167
6.0102521
6.0276824
6.0440805
6.059528
6.0739897
6.0876923
6.1004692
6.1128125
6.1241709
6.1356188
6.1457106
6.1568142
6.1656124
6.1771012
6.1843853
6.1971478
6.2030676
6.2171248
5.5490532
5.5491574
5.549284
5.5494144
5.5495575
5.5497165
5.5498934
5.550091
5.5503134
5.5505658
5.5508553
5.5511916
5.551588
5.5520623
5.5526394
5.5533528
5.5542481
5.5553865
5.5568493
5.5587426
5.5612018
5.5643958
5.5685269
5.5738262
5.5805419
5.5889158
5.5991531
5.6113871
5.6256472
5.6418674
5.6598855
5.6793241
5.6999684
5.7217036
5.7443391
5.7676161
5.7913717
5.8154476
5.8396704
5.8638633
5.8878452
5.9114351
5.9344616
5.9567696
5.9782276
5.9987292
6.0182012
6.0365905
6.0538921
6.0701018
6.0853062
6.0995128
6.1129396
6.1254955
6.1376217
6.1489114
6.1602963
6.1706187
6.1818974
6.1914024
6.2033294
6.2120335
6.2254246
6.2336537
6.2485579
5.5543992
5.5544992
5.5546197
5.5547448
5.5548821
5.5550349
5.5552056
5.5553976
5.5556158
5.5558668
5.5561595
5.5565065
5.5569248
5.5574376
5.5580769
5.5588858
5.5599219
5.5612618
5.5630051
5.5652793
5.5682431
5.572088
5.5770356
5.583328
5.5912097
5.6009023
5.6125707
5.626292
5.6420322
5.6596786
5.6789436
5.699584
5.7215129
5.7444074
5.7680325
5.7922341
5.8168399
5.8416738
5.8665523
5.8912868
5.9156885
5.9395735
5.9627727
5.985138
6.0065466
6.0269035
6.0461457
6.0642348
6.0811786
6.0969954
6.1117809
6.1255808
6.1386045
6.150832
6.1626547
6.1738051
6.1850715
6.1955784
6.2069958
6.2171685
6.2295196
6.2395922
6.2536327
6.2641912
6.2800443
5.5706446
5.5707363
5.5708452
5.57096
5.5710864
5.5712276
5.5713863
5.5715667
5.5717746
5.572018
5.5723082
5.5726603
5.5730956
5.5736428
5.5743412
5.5752432
5.5764181
5.5779567
5.5799749
5.5826182
5.5860629
5.5905159
5.5962075
5.6033793
5.6122615
5.6230453
5.6358505
5.6507018
5.6675183
5.6861283
5.7062823
5.7277938
5.7503791
5.77384
5.7979932
5.8226597
5.8476606