/*--------------------------------*- C++ -*----------------------------------*\
  =========                 |
  \\      /  F ield         | OpenFOAM: The Open Source CFD Toolbox
   \\    /   O peration     | Website:  https://openfoam.org
    \\  /    A nd           | Version:  13
     \\/     M anipulation  |
\*---------------------------------------------------------------------------*/
FoamFile
{
    format      ascii;
    class       volVectorField;
    location    "8.103939";
    object      wallShearStress;
}
// * * * * * * * * * * * * * * * * * * * * * * * * * * * * * * * * * * * * * //

dimensions      [0 2 -2 0 0 0 0];

internalField   uniform (0 0 0);

boundaryField
{
    inlet
    {
        type            calculated;
        value           uniform (0 0 0);
    }
    outlet
    {
        type            calculated;
        value           uniform (0 0 0);
    }
    cylinder
    {
        type            calculated;
        value           nonuniform List<vector> 
132
(
(0.00010801163 -0.001884633 -9.3203384e-23)
(0.00044873593 -0.0089564327 2.7348269e-23)
(0.0011737029 -0.015868796 1.6329889e-21)
(0.0022586518 -0.022379461 -6.0822994e-21)
(0.0036521854 -0.028246501 4.8523271e-21)
(0.0052759743 -0.033239839 1.6866412e-20)
(0.0070246893 -0.037154319 -3.6273022e-21)
(0.0087768653 -0.0398224 -1.6166132e-20)
(0.01039731 -0.041130046 1.6923839e-20)
(0.011746846 -0.041026685 -4.1503708e-20)
(0.012695187 -0.039537081 -8.1212899e-22)
(0.01313514 -0.036769047 2.9352811e-20)
(0.012997156 -0.032914394 4.9818305e-20)
(0.012267152 -0.028252985 -4.1458367e-20)
(0.010991202 -0.023122006 4.4100868e-20)
(0.0092857524 -0.017903377 7.0846951e-20)
(0.007316403 -0.012965562 -4.591173e-20)
(0.0052760261 -0.0086146202 7.2376628e-20)
(0.003357379 -0.0050631086 9.3752265e-20)
(0.0017039931 -0.0023832824 -5.9550605e-20)
(0.00040770128 -0.00054527723 -7.4440213e-20)
(-0.00052503502 0.00060026539 2.5778258e-23)
(-0.0011483092 0.0012346791 1.0472808e-20)
(-0.001563174 0.0015560321 -1.2398754e-20)
(-0.0018178557 0.001670068 -2.088154e-20)
(-0.001788208 0.0015148532 4.4191934e-21)
(-0.0012371469 0.00096957333 -3.9470023e-20)
(6.4848472e-05 -2.7790505e-05 1.0449722e-20)
(0.0017377114 -0.0010982632 8.177215e-21)
(0.0031682082 -0.0018260563 -5.640066e-20)
(0.0039778029 -0.0020639969 7.3856199e-20)
(0.0042672974 -0.001970329 2.2398689e-21)
(0.0043840224 -0.0017768311 1.6141012e-20)
(0.0045330428 -0.0015860545 -1.9095583e-20)
(0.0046549825 -0.0013760499 6.057664e-20)
(0.0045351444 -0.0010988158 -3.8273648e-21)
(0.0039567676 -0.00075108497 1.5435947e-20)
(0.0026915968 -0.00037422262 -2.1216646e-21)
(0.00050734599 -5.9151841e-05 3.05199e-21)
(-0.0028611673 5.0166616e-05 -1.9120595e-21)
(-0.0077975982 -0.00026494189 3.5943242e-21)
(-0.014311181 -0.0013374021 -1.1186264e-22)
(-0.021886046 -0.0033739769 4.141609e-20)
(-0.030039696 -0.0064951689 -1.6115623e-20)
(-0.038156362 -0.010685308 1.4674607e-20)
(-0.045690829 -0.015816372 -9.5033945e-20)
(-0.052160549 -0.021655353 -1.5435632e-20)
(-0.057262981 -0.027926125 1.363423e-19)
(-0.06078794 -0.034322682 -1.1688934e-19)
(-0.062687681 -0.040561189 -2.2421955e-21)
(-0.062964704 -0.04635245 3.5923204e-20)
(-0.061761446 -0.051484813 -3.2898989e-20)
(-0.059181466 -0.055712701 -6.4974129e-21)
(-0.055439859 -0.058887187 -4.1863799e-21)
(-0.050780492 -0.060912887 -6.6605225e-21)
(-0.045386652 -0.061650323 -2.5457297e-21)
(-0.03952348 -0.061083828 6.0123251e-22)
(-0.033417568 -0.059188283 4.9560272e-20)
(-0.027302731 -0.055992561 -7.6284977e-20)
(-0.02139865 -0.051555429 -8.174379e-20)
(-0.015909409 -0.045967868 -3.3271143e-20)
(-0.011019332 -0.039350836 -7.6420004e-20)
(-0.0068886623 -0.031850844 1.7074376e-20)
(-0.0036484719 -0.023636783 2.4870856e-20)
(-0.0014047467 -0.014909352 -3.8687608e-20)
(-0.00021510596 -0.0058317195 -5.1718684e-21)
(0.00015228068 0.0051815815 -4.3288618e-22)
(0.00057808179 0.01214776 -2.7187397e-23)
(0.0013766195 0.018846849 -1.7010482e-21)
(0.0025148325 0.025040594 6.3801903e-21)
(0.0039333079 0.030497286 -5.1019465e-21)
(0.0055466835 0.035000185 -1.7703524e-20)
(0.0072451474 0.038363802 3.7900631e-21)
(0.0089063848 0.040444244 1.6786031e-20)
(0.010396383 0.041154344 -1.7446961e-20)
(0.011581745 0.040473597 4.2465398e-20)
(0.012342548 0.038459062 8.2481484e-22)
(0.01258555 0.035248095 -2.959209e-20)
(0.012261871 0.031067516 -4.9885828e-20)
(0.011375482 0.026212431 4.1267777e-20)
(0.0099975692 0.021042435 -4.3673381e-20)
(0.0082571581 0.015928109 -6.9890593e-20)
(0.0063248472 0.011215058 4.5168195e-20)
(0.0043910163 0.0071752974 -7.110869e-20)
(0.0026269997 0.0039675545 -9.2077288e-20)
(0.0011523905 0.0016188325 5.851989e-20)
(3.2801701e-05 6.4582157e-05 7.3219862e-20)
(-0.00076075958 -0.0008796063 6.4560161e-20)
(-0.0012817308 -0.0013807326 5.2345697e-20)
(-0.0016449004 -0.0016387966 1.223294e-20)
(-0.0018095773 -0.0016639583 2.0601723e-20)
(-0.0016743914 -0.0014212353 -4.3604064e-21)
(-0.00085674218 -0.00067818879 3.8936956e-20)
(0.00062552548 0.0004233266 -1.0335077e-20)
(0.002225401 0.0014128126 -8.1013806e-21)
(0.0034696648 0.0020031003 5.5979151e-20)
(0.0040588785 0.0021076341 -7.3316846e-20)
(0.004271336 0.0019725116 -2.2105811e-21)
(0.0043939649 0.0017807277 3.6465784e-20)
(0.0045599615 0.0015955573 1.898323e-20)
(0.0046367304 0.00137121 -6.0316308e-20)
(0.0044086247 0.0010691931 3.8182949e-21)
(0.0036647133 0.00069743664 1.1255392e-20)
(0.0021725547 0.00030591691 2.1264232e-21)
(-0.00029539358 -3.4504341e-06 -3.0659386e-21)
(-0.0039912752 -7.7825557e-05 1.9244477e-21)
(-0.0092875269 0.00031569854 -3.6219096e-21)
(-0.016124264 0.0015037354 2.9713722e-20)
(-0.023922054 0.0036849168 -4.1641821e-20)
(-0.03217691 0.0069543541 1.6151907e-20)
(-0.040251695 0.011269218 -1.4643872e-20)
(-0.047640594 0.016489041 9.4337489e-20)
(-0.053877355 0.022365016 1.5227543e-20)
(-0.058690969 0.02861955 -1.3355544e-19)
(-0.061902129 0.034948926 1.1354139e-19)
(-0.063484625 0.041074087 2.1557637e-21)
(-0.063451896 0.046708432 -3.4070692e-20)
(-0.06197409 0.051659464 3.0605959e-20)
(-0.059133953 0.055665179 -4.7103965e-20)
(-0.055171957 0.058599971 3.5049789e-21)
(-0.05035055 0.060394316 -5.5264262e-21)
(-0.044818658 0.060875624 4.9339777e-21)
(-0.038862749 0.060059135 -7.287561e-22)
(-0.03270295 0.057918447 -5.5290401e-20)
(-0.026571884 0.054488752 8.2137409e-20)
(-0.020687185 0.049834994 8.6239832e-20)
(-0.015249145 0.044051678 3.4624559e-20)
(-0.010438687 0.037265136 7.8726099e-20)
(-0.0064112723 0.0296241 -1.7447659e-20)
(-0.0032932698 0.021302336 5.0058152e-20)
(-0.0011852405 0.012493684 3.9020694e-20)
(-0.00014331835 0.0033975506 5.1895349e-21)
)
;
    }
    frontAndBack
    {
        type            empty;
    }
}


// ************************************************************************* //
