/*--------------------------------*- C++ -*----------------------------------*\
  =========                 |
  \\      /  F ield         | OpenFOAM: The Open Source CFD Toolbox
   \\    /   O peration     | Website:  https://openfoam.org
    \\  /    A nd           | Version:  13
     \\/     M anipulation  |
\*---------------------------------------------------------------------------*/
FoamFile
{
    format      ascii;
    class       volScalarField;
    location    "43.496403";
    object      pMean;
}
// * * * * * * * * * * * * * * * * * * * * * * * * * * * * * * * * * * * * * //

dimensions      [0 2 -2 0 0 0 0];

internalField   nonuniform List<scalar> 
17140
(
0.90601565
0.90594341
0.90585621
0.90576702
0.90567041
0.90556494
0.90545043
0.90532656
0.90519301
0.90504946
0.90489574
0.90473161
0.90455686
0.90437113
0.90417374
0.90396354
0.90373842
0.90349497
0.90322775
0.90292863
0.90258573
0.90218228
0.9016953
0.90109376
0.90033616
0.89937131
0.89814779
0.89662
0.89474368
0.89246736
0.8897205
0.88641745
0.88246432
0.87775788
0.8721899
0.86565266
0.85804499
0.84927925
0.83928983
0.82804642
0.81557282
0.80197054
0.78745154
0.77236985
0.75723412
0.74274162
0.72971979
0.71890356
0.71103918
0.70677397
0.70658568
0.71079004
0.71965316
0.73313674
0.75115679
0.77301735
0.79848347
0.82582873
0.8560511
0.8858273
0.92044382
0.95069834
0.98663621
1.0043146
1.0318943
0.90492468
0.90485383
0.9047683
0.90468097
0.90458634
0.90448294
0.90437064
0.90424917
0.90411818
0.90397738
0.90382661
0.90366565
0.90349427
0.90331217
0.9031187
0.90291271
0.90269221
0.90245384
0.90219227
0.90189946
0.90156364
0.90116822
0.90069033
0.90009918
0.89935352
0.89840211
0.89719319
0.89568109
0.89382128
0.89156157
0.88883092
0.88554343
0.88160515
0.87691246
0.87135673
0.86482963
0.85722936
0.84846748
0.83847768
0.82722876
0.81474366
0.80112321
0.7865789
0.77146472
0.75629501
0.7417657
0.72869222
0.71784733
0.70996712
0.70567771
0.70546649
0.70965368
0.71849601
0.73196823
0.75000336
0.77190358
0.79746335
0.82497938
0.85542089
0.88535527
0.9198879
0.94981843
0.9853554
1.002757
1.0306589
0.9023783
0.90231096
0.90222977
0.90214668
0.90205656
0.90195802
0.90185099
0.90173518
0.90161024
0.90147591
0.90133202
0.9011784
0.90101489
0.90084122
0.90065683
0.90046071
0.90025093
0.90002434
0.89977585
0.89949764
0.89917826
0.8988014
0.8983446
0.89777751
0.89705949
0.8961392
0.89496398
0.89348719
0.89166373
0.88944104
0.88674769
0.88349706
0.87959469
0.87493609
0.86941144
0.86291088
0.85533088
0.84658106
0.83659303
0.82533354
0.81282349
0.79916263
0.784563
0.76938066
0.75414004
0.73954662
0.7263985
0.71548484
0.70755588
0.70322905
0.70297515
0.70710423
0.71587704
0.72927856
0.74725576
0.7691178
0.79469451
0.8222887
0.85285954
0.88302127
0.9176967
0.94769181
0.98319087
1.000606
1.0290094
0.89842276
0.89836095
0.89828664
0.8982101
0.89812702
0.89803623
0.89793754
0.89783061
0.89771513
0.89759095
0.8974579
0.89731582
0.89716466
0.89700419
0.89683399
0.89665316
0.89646003
0.89625172
0.89602342
0.89576772
0.8954736
0.89512529
0.89470083
0.89417059
0.89349488
0.89262257
0.89149951
0.89007702
0.88830922
0.88614348
0.88350827
0.88031577
0.8764706
0.87186699
0.86639322
0.85993713
0.85239243
0.84366573
0.83368541
0.82241488
0.8098721
0.79615581
0.7814791
0.7662028
0.75086583
0.73618357
0.72293975
0.71194636
0.70395649
0.6995799
0.69927138
0.70332293
0.71198905
0.72526251
0.74310832
0.76483723
0.79031618
0.81789438
0.84856203
0.87905664
0.91410594
0.94457091
0.98042879
0.99808404
1.0270945
0.89318161
0.89312723
0.89306211
0.89299447
0.89292093
0.89284046
0.89275286
0.89265784
0.89255516
0.89244469
0.89232621
0.89219967
0.89206503
0.89192221
0.89177091
0.89161043
0.89143938
0.89125511
0.8910533
0.89082704
0.8905659
0.89025469
0.88987229
0.88938991
0.88876917
0.88795993
0.88690607
0.88555524
0.88386067
0.88177037
0.87921262
0.87609856
0.87233123
0.86780336
0.86240079
0.85600836
0.84851633
0.83982735
0.82986556
0.81859011
0.80601543
0.79223931
0.77747707
0.7620977
0.74665871
0.73187762
0.71853588
0.70746851
0.69942695
0.69501221
0.69465216
0.69861818
0.70715622
0.72026617
0.73792746
0.75946162
0.78480788
0.81237401
0.84320466
0.87419516
0.90989056
0.94104943
0.97743517
0.99549169
1.025034
0.88685778
0.88681249
0.8867586
0.88670189
0.88664009
0.88657235
0.88649845
0.88641817
0.88633126
0.88623756
0.88613701
0.88602956
0.88591526
0.88579407
0.88566586
0.88553009
0.88538563
0.88523026
0.88506007
0.8848687
0.88464644
0.88437894
0.88404595
0.88361979
0.8830635
0.88232888
0.88135797
0.88009399
0.87848813
0.87648859
0.87402464
0.87100713
0.86733658
0.86290404
0.85759274
0.85128416
0.84386441
0.83523155
0.82530461
0.81403777
0.80144184
0.78761388
0.77277239
0.75729742
0.74176674
0.72689258
0.71347258
0.70235284
0.69428067
0.68984792
0.68945481
0.69334479
0.70175649
0.71468914
0.73213106
0.75343022
0.77860293
0.8061814
0.83735976
0.86907853
0.90558443
0.93765643
0.97452992
0.99294773
1.022941
0.8797264
0.87969146
0.87965001
0.87960592
0.87955769
0.87950467
0.87944666
0.87938342
0.87931478
0.87924059
0.87916083
0.87907549
0.87898464
0.87888835
0.87878657
0.87867895
0.8785646
0.87844162
0.87830661
0.87815382
0.87797425
0.87775444
0.87747523
0.87711016
0.87662389
0.87597042
0.87509195
0.87392724
0.87242202
0.87052417
0.86816639
0.86525996
0.86170216
0.8573824
0.8521813
0.84597685
0.8386508
0.83009605
0.82022606
0.80898981
0.79639434
0.78253641
0.76763904
0.75209495
0.73649757
0.72155794
0.70809191
0.69694348
0.68886277
0.684431
0.68402203
0.68785231
0.69615438
0.70892604
0.72616882
0.74725222
0.77229343
0.80002151
0.8317024
0.86439404
0.90189141
0.93486792
0.97202724
0.99064068
1.020887
0.87212041
0.87209673
0.87206849
0.87203827
0.87200498
0.87196816
0.87192761
0.87188318
0.87183473
0.87178211
0.8717253
0.87166436
0.87159936
0.8715304
0.87145749
0.87138043
0.87129845
0.87121002
0.8711121
0.87099954
0.87086403
0.87069307
0.87046864
0.87016563
0.86975039
0.86917918
0.86839678
0.86733858
0.86594195
0.86415283
0.86190863
0.85912219
0.85568927
0.85149667
0.84642278
0.84034217
0.8331323
0.82468078
0.81489546
0.80372013
0.79115851
0.77730732
0.76239504
0.74682738
0.7312028
0.71623958
0.70276227
0.69160345
0.68352501
0.67910376
0.67869092
0.68247745
0.69068919
0.70333358
0.7204205
0.74138437
0.76642038
0.79447402
0.82688162
0.86071593
0.89924685
0.93297549
0.97009973
0.98888036
1.0192131
0.86440955
0.86439761
0.86438318
0.86436745
0.86434985
0.86433006
0.86430798
0.86428342
0.86425628
0.86422648
0.86419402
0.8641589
0.86412122
0.86408106
0.86403846
0.86399322
0.86394473
0.86389158
0.86383106
0.86375844
0.86366615
0.86354253
0.86337066
0.86312687
0.86277926
0.86228627
0.86159552
0.86064384
0.85936201
0.85768571
0.85555515
0.85289224
0.84959159
0.84553619
0.84060355
0.83466524
0.82759468
0.81927459
0.80960763
0.79853302
0.7860516
0.77226026
0.75739243
0.74186465
0.72626973
0.71133646
0.69788547
0.68673489
0.67866624
0.67425694
0.67383762
0.67758779
0.68574175
0.69830785
0.71531234
0.7362622
0.76143993
0.79005007
0.82345804
0.85869631
0.8982433
0.93245076
0.96924859
0.98792835
1.0178713
0.856975
0.85697476
0.8569741
0.8569729
0.85697103
0.8569684
0.8569649
0.85696042
0.85695488
0.85694826
0.85694051
0.85693167
0.85692179
0.85691089
0.85689894
0.85688573
0.8568706
0.85685221
0.85682802
0.85679363
0.85674191
0.85666199
0.85653791
0.85634738
0.85606021
0.85563708
0.85502833
0.85417354
0.85300347
0.85144518
0.849429
0.84688336
0.8437151
0.83980568
0.83502668
0.82924801
0.82234053
0.81418331
0.80467511
0.7937515
0.78141091
0.76775039
0.75300655
0.7376002
0.72211558
0.70728527
0.69391265
0.68280793
0.67476604
0.67036601
0.66994644
0.67369219
0.68183357
0.69437599
0.71138451
0.73245556
0.75803636
0.787564
0.82228367
0.85877737
0.89889347
0.93307293
0.96892542
0.98726579
1.016635
0.85017589
0.85018669
0.8501991
0.85021171
0.85022484
0.85023863
0.85025298
0.85026785
0.85028323
0.85029909
0.85031544
0.85033224
0.85034951
0.85036721
0.85038521
0.85040315
0.85042032
0.85043526
0.85044545
0.85044662
0.85043193
0.85039106
0.85030891
0.85016428
0.84992859
0.84956458
0.84902523
0.8482531
0.84718095
0.8457349
0.84383859
0.84141299
0.83836977
0.83460265
0.82998601
0.82438515
0.81766802
0.80971145
0.80041145
0.78970124
0.77757796
0.7641386
0.74962179
0.73444002
0.71917307
0.70454539
0.69133483
0.6803426
0.672363
0.66799227
0.66758875
0.67131794
0.67943736
0.6919902
0.70909133
0.73046486
0.75674827
0.78733326
0.82313271
0.86036158
0.90037092
0.93399299
0.96894045
0.9872236
1.0154446
0.8443195
0.84434014
0.84436415
0.8443891
0.84441573
0.84444433
0.84447486
0.84450736
0.84454188
0.84457843
0.84461702
0.84465766
0.84470028
0.84474476
0.84479087
0.84483813
0.84488559
0.84493173
0.8449738
0.84500755
0.84502626
0.84501996
0.84497405
0.84486835
0.84467553
0.84436016
0.84387762
0.84317354
0.84218344
0.84083462
0.83904951
0.83674592
0.83383526
0.83021457
0.82576532
0.8203573
0.81385886
0.80614543
0.79711178
0.78669005
0.77487651
0.76176726
0.74759891
0.7327696
0.71784949
0.70354173
0.6905998
0.6798083
0.67195696
0.66762815
0.6671668
0.67082586
0.67889282
0.69147162
0.70874741
0.73062374
0.75768993
0.78924659
0.82572557
0.86315199
0.9027148
0.93576579
0.96953785
0.98755053
1.0141912
0.83962776
0.83965638
0.83968987
0.83972499
0.83976277
0.83980368
0.83984779
0.8398952
0.83994602
0.84000033
0.84005817
0.84011961
0.84018455
0.84025283
0.84032415
0.84039787
0.84047296
0.84054763
0.84061909
0.84068292
0.84073243
0.8407578
0.84074488
0.84067408
0.84051913
0.84024605
0.83981212
0.83916573
0.838246
0.83698259
0.8352979
0.83311046
0.83033371
0.82686934
0.82260516
0.81741435
0.81116854
0.80374556
0.79504359
0.7849947
0.77359478
0.76093624
0.74724675
0.73291187
0.71847965
0.70461419
0.69204627
0.68155399
0.67384965
0.66951423
0.66895603
0.67252535
0.6805437
0.69320034
0.71077908
0.73323183
0.76109327
0.79340078
0.83024989
0.86750184
0.9061235
0.93794773
0.97041826
0.98786454
1.0127666
0.83621754
0.83625188
0.83629216
0.83633464
0.83638059
0.83643061
0.83648486
0.83654352
0.8366068
0.83667487
0.83674786
0.83682585
0.83690882
0.83699665
0.837089
0.8371852
0.83728415
0.83738404
0.83748197
0.83757351
0.83765205
0.83770793
0.83772741
0.8376915
0.83757475
0.83734413
0.83695845
0.83636804
0.83551506
0.83433384
0.83275388
0.830676
0.8280385
0.82474249
0.82068105
0.81573341
0.80978475
0.80271351
0.79441874
0.78483563
0.7739599
0.76187776
0.748803
0.7351001
0.72128164
0.70796842
0.6958777
0.68570335
0.67813062
0.67377042
0.67312501
0.6765893
0.68459524
0.6973999
0.7153186
0.73832923
0.76686279
0.7997553
0.83645904
0.87300718
0.91013469
0.94079776
0.97146523
0.98819909
1.011519
0.83408346
0.83412086
0.83416497
0.8342116
0.83426225
0.83431767
0.83437805
0.83444367
0.83451484
0.83459185
0.83467492
0.83476423
0.83485989
0.83496184
0.83506985
0.83518338
0.83530139
0.83542218
0.83554302
0.83565971
0.83576592
0.83585248
0.83590628
0.8359092
0.83583678
0.83565725
0.83533078
0.8348092
0.83403638
0.83294746
0.8314746
0.82956385
0.82708834
0.82394479
0.82011446
0.81545618
0.80984734
0.80318241
0.79537102
0.78634907
0.77610827
0.76472515
0.75239332
0.73944076
0.72633527
0.71367459
0.70207897
0.69221012
0.68477171
0.68039078
0.67964678
0.68304685
0.6910824
0.70404936
0.7222747
0.74589455
0.77503788
0.80803403
0.84413126
0.8794037
0.91492493
0.94378015
0.97254648
0.98844178
1.0102728
0.83311647
0.83315435
0.83319932
0.8332468
0.83329861
0.8333555
0.83341776
0.83348577
0.8335599
0.83364055
0.83372808
0.83382278
0.83392494
0.83403465
0.83415188
0.83427632
0.83440721
0.83454317
0.83468192
0.83481983
0.83495128
0.83506804
0.83515823
0.83520521
0.83518612
0.83507081
0.83482103
0.83438961
0.83372136
0.83275426
0.8314218
0.82965521
0.82735507
0.82450046
0.82093112
0.81655665
0.81134886
0.80517546
0.79793947
0.78957779
0.78007976
0.76950787
0.75802423
0.74591395
0.73361247
0.72161686
0.71051096
0.70095129
0.69362794
0.68923931
0.68843239
0.6918102
0.69988506
0.71300267
0.73169258
0.7559397
0.78522215
0.81774538
0.85281579
0.88652616
0.9198291
0.94679539
0.97370742
0.98877074
1.0093164
0.83310571
0.83314179
0.83318493
0.83323028
0.83327992
0.83333467
0.83339484
0.83346086
0.8335332
0.83361234
0.83369873
0.83379285
0.83389508
0.83400581
0.83412519
0.83425327
0.83438966
0.83453355
0.83468327
0.83483611
0.83498764
0.83513106
0.83525632
0.83534905
0.8353892
0.83534955
0.8351942
0.83487854
0.83434917
0.83354454
0.83239806
0.83083698
0.82880511
0.82621303
0.82295966
0.81905199
0.81431257
0.80867323
0.80208635
0.79447658
0.78581935
0.77615134
0.76559767
0.75441075
0.74292482
0.73159444
0.7209819
0.71170366
0.70450023
0.70011899
0.69929825
0.7026489
0.71077093
0.72425664
0.74348029
0.76793368
0.7968564
0.82869987
0.86213692
0.8937711
0.92484237
0.94983828
0.97501719
0.98925213
1.0086602
0.83380553
0.83383789
0.83387689
0.83391767
0.83396246
0.83401202
0.83406676
0.83412709
0.83419353
0.83426662
0.83434689
0.83443491
0.83453129
0.83463652
0.83475108
0.83487533
0.83500938
0.835153
0.83530539
0.83546487
0.83562857
0.83579163
0.83594658
0.83608222
0.83618247
0.83622462
0.83617815
0.83600314
0.83564964
0.83505839
0.8341633
0.83289182
0.83117729
0.82894671
0.82614681
0.82267136
0.81847907
0.8135351
0.80769295
0.8009199
0.79318575
0.78449502
0.77494317
0.76469445
0.75402967
0.74337106
0.73321223
0.72420874
0.71712946
0.71278211
0.71191859
0.71527909
0.72369212
0.73764696
0.75705096
0.78133234
0.80990203
0.84022654
0.8715953
0.90109847
0.92975018
0.95301448
0.97657153
0.99002582
1.0084211
0.83494514
0.83497252
0.83500573
0.83504033
0.83507843
0.8351208
0.83516776
0.83521977
0.83527733
0.83534099
0.83541134
0.83548903
0.8355747
0.83566906
0.83577275
0.83588646
0.8360107
0.8361458
0.83629181
0.83644815
0.83661342
0.83678496
0.83695812
0.83712545
0.8372756
0.83739208
0.83745133
0.83742117
0.83725977
0.83691452
0.83632334
0.83541583
0.83412161
0.83236382
0.8300838
0.82721746
0.82372145
0.81949195
0.81450244
0.80868122
0.80195235
0.7943105
0.785784
0.77648345
0.76664737
0.75660968
0.74688887
0.73812616
0.73115494
0.72678522
0.72595727
0.72953475
0.73835819
0.75253685
0.77193551
0.79608348
0.82344946
0.85180742
0.88116132
0.90812929
0.9347694
0.95636231
0.97844235
0.99111323
1.0085956
0.8362947
0.83631656
0.83634319
0.83637085
0.83640145
0.83643561
0.83647362
0.8365159
0.83656293
0.83661524
0.83667337
0.83673803
0.83680985
0.83688962
0.8369781
0.83707615
0.83718459
0.83730417
0.8374356
0.83757923
0.83773501
0.83790212
0.8380786
0.83826068
0.83844201
0.83861255
0.83875725
0.8388543
0.8388735
0.83877463
0.838507
0.83800929
0.83721406
0.83604727
0.83444089
0.83232032
0.82961952
0.82629404
0.82227655
0.81747605
0.81183111
0.80527516
0.79779294
0.78944585
0.78037836
0.77092155
0.76156212
0.75300345
0.74606548
0.7417789
0.74114187
0.74509987
0.75427568
0.76856489
0.78808943
0.81137927
0.83689966
0.86345878
0.89021286
0.91519175
0.93987848
0.95994247
0.98065712
0.992566
1.0092299
0.83766917
0.83768553
0.8377053
0.83772615
0.83774926
0.83777514
0.83780407
0.83783639
0.83787252
0.83791292
0.83795809
0.83800866
0.83806527
0.83812863
0.8381996
0.83827907
0.83836798
0.83846736
0.83857826
0.83870168
0.83883854
0.8389894
0.83915433
0.83933262
0.83952244
0.83971986
0.83991778
0.8401051
0.84026501
0.84037363
0.84039802
0.84029446
0.84000874
0.8394763
0.8386263
0.83738203
0.83566792
0.83339866
0.83048491
0.82684775
0.82237127
0.81695303
0.81053078
0.80307999
0.7947253
0.78574588
0.77666383
0.76823646
0.76144196
0.75737946
0.75716737
0.76164636
0.77106193
0.78573271
0.80480311
0.82652164
0.85041688
0.87456371
0.89925099
0.9222335
0.94515079
0.96378698
0.98324238
0.99439757
1.0103225
0.83895785
0.83896916
0.83898269
0.83899722
0.83901341
0.83903158
0.83905197
0.83907489
0.83910066
0.83912974
0.83916258
0.83919961
0.83924127
0.8392882
0.83934105
0.83940064
0.83946804
0.83954442
0.83963101
0.83972914
0.83984021
0.83996579
0.84010745
0.84026669
0.84044469
0.84064214
0.8408587
0.84109245
0.84133938
0.8415921
0.84183755
0.84205532
0.84221562
0.84227497
0.84217512
0.84184081
0.84118168
0.84009032
0.83844299
0.8360975
0.83289572
0.82867965
0.82330697
0.81670496
0.80897151
0.80037029
0.7915347
0.7833154
0.77675203
0.77320491
0.77371149
0.77862859
0.78877965
0.8034249
0.82131655
0.84137526
0.86339977
0.88540554
0.90809809
0.9293216
0.9506159
0.9679141
0.98620664
0.99662752
1.0118881
0.84010819
0.84011493
0.840123
0.84013176
0.84014161
0.8401527
0.84016524
0.84017968
0.84019631
0.84021475
0.84023463
0.84025655
0.84028176
0.84031159
0.84034726
0.8403892
0.84043733
0.84049211
0.84055438
0.84062536
0.84070715
0.84080221
0.84091312
0.84104305
0.84119533
0.84137362
0.84158239
0.84182709
0.84211303
0.84244537
0.84282923
0.8432676
0.84375664
0.84428327
0.84481633
0.84529993
0.84564603
0.84572493
0.84536945
0.84437592
0.84250087
0.8395125
0.83516618
0.82939147
0.82221366
0.81399202
0.80544308
0.79749386
0.79160888
0.78911174
0.79030958
0.79630897
0.80686116
0.82071214
0.83710638
0.85589664
0.87563707
0.89593367
0.91689355
0.93648488
0.95628922
0.97233862
0.98955828
0.99925934
1.0139156
0.84111819
0.84112055
0.84112343
0.84112654
0.84112998
0.84113403
0.84113903
0.84114507
0.84115225
0.84116065
0.84117045
0.84118201
0.84119561
0.84121153
0.84122994
0.8412509
0.84127543
0.84130585
0.84134334
0.84138758
0.84143978
0.84150351
0.84158334
0.8416833
0.84180629
0.84195667
0.84214273
0.84237474
0.84266451
0.84302604
0.84347557
0.84403665
0.84473079
0.84556554
0.84654141
0.84763475
0.8487749
0.84983621
0.85062159
0.85086688
0.85024215
0.84840344
0.8450666
0.84007458
0.83346617
0.82571422
0.81771884
0.81073054
0.8063563
0.80483262
0.80739012
0.81424327
0.82439588
0.83705241
0.85246522
0.86928086
0.88759459
0.90628811
0.92563807
0.94374122
0.96217848
0.97706335
0.99329663
1.0022988
1.0164106
0.8419725
0.84197024
0.84196762
0.84196491
0.84196204
0.84195901
0.84195595
0.84195313
0.84195104
0.84194986
0.84194871
0.84194656
0.84194359
0.84194081
0.84193951
0.8419413
0.84194786
0.84196066
0.84198029
0.84200507
0.84203475
0.8420731
0.84212484
0.84219433
0.8422867
0.84240857
0.84256922
0.84278196
0.84306328
0.84343196
0.8439107
0.84453343
0.84532796
0.84632058
0.84754345
0.84899639
0.85063447
0.85234596
0.85395118
0.85512964
0.85552112
0.8546825
0.85226601
0.84804011
0.84219564
0.83541231
0.82882256
0.82369936
0.8206052
0.82069571
0.82447407
0.83118933
0.84073843
0.85276625
0.8667576
0.88234609
0.89920553
0.91644687
0.93436874
0.95110795
0.96829298
0.98209432
0.99741593
1.0057439
1.0193651
0.84261757
0.84261056
0.84260229
0.84259361
0.84258417
0.84257387
0.84256282
0.8425512
0.84253917
0.84252661
0.84251334
0.84249928
0.84248494
0.8424713
0.84245905
0.84244847
0.84243925
0.8424311
0.84242579
0.84242631
0.84243537
0.84245583
0.84248992
0.84254034
0.84261377
0.84271934
0.84286614
0.843066
0.84333571
0.84369428
0.84417337
0.84480069
0.84560841
0.84664688
0.8479558
0.84955435
0.85142875
0.85348165
0.85554319
0.85732335
0.85840597
0.85831037
0.85666904
0.85342648
0.84894227
0.84391327
0.83938462
0.83591113
0.83464676
0.83629916
0.84023011
0.84709497
0.85613908
0.86751494
0.88049166
0.89488835
0.91052443
0.92648165
0.94310352
0.95859654
0.97463679
0.98743081
1.0019142
1.0095945
1.0227726
0.84285821
0.84284724
0.84283432
0.8428207
0.84280596
0.84278991
0.84277253
0.8427538
0.84273369
0.84271222
0.84268946
0.8426656
0.84264097
0.84261596
0.84259108
0.84256721
0.84254531
0.84252647
0.84251168
0.842502
0.84249948
0.84250671
0.84252654
0.84256227
0.84262044
0.84271222
0.84284895
0.84304049
0.84330106
0.84364941
0.84411427
0.84473316
0.84553807
0.84657204
0.84787934
0.84947619
0.85136865
0.8535181
0.85573955
0.85776591
0.8592279
0.85978676
0.8591903
0.85741174
0.85471404
0.85185474
0.84921377
0.84760535
0.84831793
0.85049133
0.85507588
0.86196081
0.87088288
0.88143505
0.89362746
0.90706381
0.92160918
0.93640568
0.95186139
0.96621889
0.98121332
0.99307259
1.0067833
1.0138422
1.0266258
0.84251196
0.84249904
0.8424839
0.84246791
0.84245059
0.84243178
0.84241144
0.84238953
0.84236606
0.84234107
0.84231466
0.84228696
0.84225825
0.84222882
0.8421992
0.84217003
0.84214216
0.84211673
0.84209524
0.84207945
0.84207168
0.84207565
0.84209657
0.84213814
0.84220224
0.84229399
0.84242441
0.84260642
0.84284582
0.84316816
0.84361567
0.84421181
0.84496943
0.8459223
0.8471214
0.84862741
0.85044128
0.85253179
0.85478371
0.8569937
0.85893218
0.86031694
0.86094356
0.86077213
0.86008873
0.85914938
0.8582823
0.85893315
0.86067958
0.86382136
0.86919219
0.87603331
0.88460861
0.89475839
0.90631195
0.91889647
0.93248954
0.94625565
0.96066187
0.97398502
0.988024
0.99901824
1.0120187
1.0184911
1.0309177
0.84137027
0.84135853
0.84134473
0.84133018
0.84131445
0.84129737
0.8412789
0.84125907
0.84123786
0.84121531
0.84119156
0.84116675
0.84114117
0.84111516
0.84108923
0.84106407
0.84104055
0.84101973
0.84100312
0.8409925
0.84098995
0.84099829
0.84102122
0.84106336
0.84113034
0.84122512
0.84135179
0.84152755
0.84178304
0.84211964
0.84253943
0.84308408
0.84378537
0.84468901
0.84584193
0.84727355
0.84900812
0.85105683
0.85337986
0.8558653
0.85835596
0.86065482
0.86257337
0.86407604
0.8651697
0.86581599
0.86723689
0.869485
0.87225083
0.87656317
0.88219519
0.88925309
0.89778805
0.90757741
0.91858588
0.93045387
0.94321314
0.95605795
0.96952175
0.98190387
0.99507169
1.0052662
1.0176131
1.0235313
1.0356298
0.83951937
0.83951085
0.83950084
0.83949033
0.839479
0.83946676
0.83945359
0.83943955
0.83942467
0.83940904
0.83939279
0.83937615
0.83935941
0.83934298
0.8393274
0.83931337
0.83930183
0.839294
0.83929136
0.83929579
0.83930961
0.83933587
0.83937792
0.83943766
0.83951885
0.83963034
0.83978806
0.83999952
0.84026033
0.84059003
0.84102823
0.84159962
0.84231616
0.84320715
0.84433493
0.84575733
0.84751057
0.8496308
0.85213858
0.85500901
0.85815869
0.86142182
0.86460875
0.86758652
0.86996548
0.87268272
0.87599172
0.87922883
0.88327823
0.88838115
0.89459412
0.90191758
0.91041425
0.91995921
0.93053425
0.94178629
0.95381631
0.96584126
0.97845906
0.98998627
1.0023591
1.0118145
1.0235587
1.0289545
1.0407588
0.83703656
0.83703176
0.83702618
0.83702039
0.83701428
0.8370078
0.83700101
0.836994
0.8369869
0.83697985
0.83697308
0.8369669
0.83696167
0.83695799
0.83695648
0.83695802
0.83696362
0.83697471
0.83699311
0.83702111
0.83706138
0.83711628
0.83718901
0.83728383
0.83740727
0.83756909
0.83777299
0.83803379
0.8383726
0.83878875
0.83929136
0.83991456
0.84069387
0.84166618
0.84287615
0.84437992
0.84624611
0.84855874
0.85139259
0.85479059
0.85867346
0.862889
0.86724801
0.87118574
0.87529218
0.87985023
0.88410811
0.88859362
0.89382022
0.89972962
0.90646547
0.9140767
0.92263271
0.93200576
0.94222237
0.95294887
0.96434107
0.97563357
0.98749253
0.99823828
1.0098859
1.0186571
1.0298522
1.0347418
1.0463181
0.83401403
0.83401234
0.8340105
0.83400874
0.83400711
0.83400569
0.83400458
0.83400398
0.83400409
0.83400516
0.83400757
0.83401177
0.83401832
0.83402798
0.83404164
0.8340605
0.83408601
0.83411996
0.83416464
0.83422273
0.83429725
0.83439155
0.83451064
0.8346605
0.83484889
0.83508861
0.83538473
0.83573691
0.83616127
0.83667804
0.83730262
0.83805758
0.83897082
0.84007626
0.8414294
0.84311225
0.8452282
0.84790331
0.85125282
0.85530964
0.85997963
0.86516125
0.87025909
0.87552025
0.88125183
0.88671807
0.89208619
0.8978871
0.90403423
0.91068464
0.91796296
0.9258902
0.93453508
0.94379188
0.95371906
0.96399387
0.97482561
0.98546249
0.99663781
1.0066686
1.0176577
1.0257894
1.0364881
1.0408856
1.0522733
0.83032947
0.83033033
0.8303316
0.83033327
0.83033553
0.83033855
0.83034256
0.83034783
0.83035465
0.83036352
0.83037489
0.8303895
0.83040812
0.8304318
0.83046181
0.83049974
0.8305475
0.83060745
0.83068244
0.83077593
0.8308919
0.8310363
0.83121488
0.83143381
0.83170128
0.83202432
0.83241256
0.83287727
0.83343042
0.83408664
0.8348633
0.83578002
0.83686568
0.83817389
0.83978105
0.84179205
0.84434933
0.84760479
0.85165424
0.85648634
0.86203773
0.867907
0.8739693
0.88062468
0.88720585
0.89363466
0.90026935
0.90703155
0.91405502
0.92142089
0.9292149
0.93745746
0.94622092
0.95540287
0.96509073
0.97497367
0.98530957
0.99535602
1.0059132
1.0152885
1.0256783
1.0332075
1.0434616
1.0473806
1.0586099
0.82571745
0.82572133
0.82572625
0.82573197
0.82573884
0.82574714
0.82575721
0.82576943
0.82578431
0.82580243
0.82582456
0.82585162
0.82588469
0.82592518
0.82597477
0.82603548
0.82610982
0.82620072
0.82631182
0.8264473
0.82661222
0.82681311
0.82705612
0.82734845
0.82769933
0.82811826
0.82861604
0.82920514
0.82989827
0.83070903
0.83165613
0.83277259
0.83410689
0.83572647
0.83773673
0.84027961
0.84351183
0.84756166
0.85245473
0.85818366
0.86449474
0.87110453
0.87844443
0.88594445
0.89339407
0.90093655
0.90852276
0.91620565
0.92403524
0.93205564
0.94034004
0.94889213
0.95778338
0.9669155
0.97640158
0.98593897
0.99583091
1.0053415
1.0153351
1.0241077
1.0339464
1.0409191
1.0507592
1.0542225
1.0653184
0.81981863
0.81982712
0.81983759
0.81984934
0.81986301
0.81987904
0.81989788
0.81992007
0.81994628
0.81997733
0.82001421
0.82005811
0.82011047
0.82017304
0.82024793
0.82033768
0.82044527
0.82057435
0.82072917
0.82091471
0.82113677
0.82140209
0.82171839
0.8220941
0.82253966
0.82306589
0.82368324
0.8244049
0.82524863
0.82623835
0.82740605
0.82879832
0.83048609
0.83257377
0.83519787
0.8385108
0.84264377
0.84765462
0.85353386
0.86016955
0.86721148
0.87502475
0.88328985
0.8915861
0.90003487
0.90849653
0.91699565
0.92551757
0.93408346
0.94271137
0.95145129
0.96029368
0.96931145
0.97840635
0.98771423
0.99693947
1.0064273
1.0154462
1.024921
1.0331347
1.0424659
1.0489133
1.0583748
1.0613997
1.072377
0.81227317
0.81228844
0.81230705
0.81232761
0.8123511
0.81237822
0.81240949
0.81244569
0.81248768
0.81253652
0.81259346
0.81266001
0.81273799
0.81282953
0.81293716
0.81306386
0.8132132
0.81338945
0.8135975
0.8138426
0.81413148
0.81447255
0.81487378
0.815344
0.81589358
0.81653592
0.8172881
0.81816922
0.81920468
0.82043065
0.82190009
0.82368985
0.82590605
0.8286832
0.83216856
0.83648987
0.84171443
0.84784267
0.85479892
0.8622727
0.8705332
0.87943363
0.88849087
0.89774244
0.90706649
0.91642885
0.92577665
0.93507444
0.94431855
0.95350036
0.96265498
0.97176073
0.98089147
0.98994882
0.99908942
1.0080236
1.0171351
1.0256957
1.0346863
1.042383
1.0512309
1.0571971
1.0662905
1.0689087
1.0797544
0.80278905
0.80281351
0.80284314
0.80287554
0.80291218
0.80295397
0.80300169
0.80305625
0.80311876
0.80319055
0.80327316
0.80336836
0.8034784
0.80360587
0.80375344
0.80392354
0.80412143
0.80435407
0.80462519
0.80493911
0.80530346
0.80572757
0.80622202
0.80679805
0.80746894
0.80825196
0.80916941
0.81025181
0.81154198
0.8131006
0.81501217
0.81738889
0.82036778
0.82409559
0.82869698
0.83424203
0.84073884
0.84811574
0.85611381
0.86485446
0.87437236
0.88416668
0.89417405
0.90433524
0.91458025
0.92481143
0.93496375
0.94498369
0.95484761
0.96452925
0.97405211
0.9833852
0.99260486
1.0016129
1.010585
1.0192369
1.0279883
1.0361164
1.0446485
1.0518582
1.0602492
1.0657686
1.0744999
1.076717
1.0874791
0.79107848
0.79111453
0.79115791
0.79120509
0.79125816
0.79131833
0.79138645
0.79146369
0.79155139
0.79164921
0.79175488
0.79187745
0.79203089
0.79220841
0.79240294
0.79262313
0.79287718
0.79317053
0.79350923
0.79390013
0.79435106
0.79487167
0.79547438
0.79617462
0.7969921
0.79795326
0.79909434
0.80046578
0.80213751
0.80420383
0.80678569
0.81002488
0.81407031
0.81904476
0.82501628
0.83199917
0.83991079
0.84851938
0.85786769
0.86804388
0.87859341
0.88937711
0.90039531
0.91154005
0.9226945
0.93376665
0.94467929
0.95536474
0.96578733
0.9759084
0.98574437
0.99525841
1.0045309
1.0134658
1.0222557
1.0306244
1.0390209
1.0467297
1.0548191
1.0615705
1.0695221
1.0746429
1.0829987
1.0849797
1.095426
0.77714713
0.77719764
0.77725767
0.77732045
0.77738711
0.7774642
0.77755867
0.77766599
0.77778095
0.77790822
0.7780531
0.77821788
0.77840489
0.77861667
0.77885673
0.77913226
0.77945383
0.77982419
0.78024142
0.78071565
0.78126225
0.78189481
0.78263073
0.78349339
0.78451448
0.78573729
0.78722108
0.78904572
0.79131535
0.79415851
0.79772158
0.80215124
0.80757214
0.81404439
0.8215903
0.83013162
0.83939106
0.84945229
0.86038327
0.87173583
0.88337832
0.89530157
0.9073881
0.9195088
0.93155962
0.94343876
0.95506041
0.96634902
0.97726193
0.98775396
0.99783842
1.007477
1.0167544
1.0255798
1.0341616
1.0422323
1.0502669
1.057562
1.0652121
1.071522
1.079034
1.0837825
1.0917369
1.0933708
1.103512
0.76107191
0.76114249
0.76121286
0.76128162
0.76136306
0.76145871
0.76156911
0.76169628
0.76184294
0.76201199
0.7622048
0.76242128
0.76266176
0.76292764
0.76322355
0.76355729
0.76393605
0.76436672
0.7648581
0.76542165
0.76607181
0.76682762
0.76771464
0.76876769
0.77003457
0.77158056
0.77349329
0.7758868
0.77890182
0.78269964
0.78744537
0.7932799
0.80028888
0.80848189
0.81780111
0.827976
0.83905178
0.85098403
0.86335661
0.87601049
0.88895899
0.9020771
0.91524163
0.92834207
0.94126717
0.95391131
0.96618527
0.97801043
0.98934175
1.0001323
1.0103961
1.0200961
1.0293239
1.0379966
1.046336
1.0540876
1.0617451
1.0686231
1.0758334
1.0817209
1.0887977
1.0932704
1.1008347
1.1026901
1.1131308
0.74268509
0.74276455
0.74285965
0.74296217
0.7430754
0.74320154
0.74334209
0.74349875
0.74367341
0.74386837
0.74408615
0.74432976
0.74460277
0.74490936
0.74525469
0.74564503
0.74608815
0.74659397
0.74717514
0.74784845
0.74863625
0.74956866
0.75068651
0.75204512
0.75371854
0.75580404
0.75842527
0.76173202
0.76589355
0.77108254
0.77744923
0.78508908
0.79401315
0.80415825
0.81534428
0.82750002
0.84055492
0.85404745
0.86781894
0.88190788
0.89617233
0.91048821
0.92474173
0.93881227
0.9525835
0.96594752
0.97881367
0.99110376
1.0027735
1.0137795
1.0241366
1.0338167
1.0429171
1.0513682
1.0594031
1.0667847
1.0740199
1.0804487
1.0871849
1.0926338
1.0992302
1.1034455
1.1103788
1.1129643
1.1206845
0.72375496
0.72384835
0.72396246
0.72408042
0.7242104
0.72435518
0.72451602
0.72469473
0.72489346
0.72511474
0.72536158
0.72563749
0.72594686
0.726295
0.7266887
0.72713665
0.7276501
0.72824395
0.72893802
0.72975896
0.73074267
0.73193744
0.73340773
0.73523837
0.73753832
0.74044288
0.7441121
0.74872263
0.75445093
0.76144794
0.76980993
0.77954401
0.79057819
0.80284159
0.81607942
0.8301187
0.84462061
0.85949098
0.87473886
0.89019218
0.90571578
0.9211818
0.93645891
0.9514181
0.96593895