/*--------------------------------*- C++ -*----------------------------------*\
  =========                 |
  \\      /  F ield         | OpenFOAM: The Open Source CFD Toolbox
   \\    /   O peration     | Website:  https://openfoam.org
    \\  /    A nd           | Version:  13
     \\/     M anipulation  |
\*---------------------------------------------------------------------------*/
FoamFile
{
    format      ascii;
    class       surfaceScalarField;
    location    "0.007";
    object      CrankNicolson:ddtCorrDdt0(phi);
}
// * * * * * * * * * * * * * * * * * * * * * * * * * * * * * * * * * * * * * //

dimensions      [1 0 -2 0 0 0 0];

internalField   nonuniform List<scalar> 
999
(
-6.50011e-09
1.72516e-08
-6.36807e-09
1.54855e-09
-3.57316e-09
2.53926e-08
1.60195e-08
1.85598e-08
-1.84079e-08
-2.49022e-09
-4.28105e-08
1.41651e-08
-2.3444e-08
-6.45256e-08
-5.08622e-08
1.64687e-08
2.10104e-08
-2.76097e-08
4.91241e-08
4.40698e-09
2.70972e-08
3.26243e-09
5.70148e-08
1.2754e-08
-3.45537e-09
-2.12621e-08
2.02694e-08
-5.97278e-08
-3.00667e-08
-1.97833e-08
-4.49205e-08
3.23019e-08
-4.09267e-08
1.45763e-08
-2.20592e-08
-1.43844e-09
8.00572e-09
2.90715e-08
6.54737e-09
1.38963e-08
-1.59334e-08
-1.12656e-09
-1.31112e-08
-8.36429e-09
2.72992e-08
-1.66819e-08
1.24368e-08
1.26466e-08
-1.03264e-09
-3.32026e-08
3.11497e-08
2.9575e-08
-1.84267e-08
-5.17651e-08
2.78827e-08
2.15162e-08
-2.69857e-08
-2.28128e-09
2.7828e-08
1.49879e-08
-5.17478e-09
4.48791e-08
-4.63758e-08
-1.89747e-08
3.7825e-08
-3.94777e-08
-4.6261e-08
-5.75994e-08
2.83852e-08
-4.42087e-08
4.88142e-10
3.30457e-08
2.38596e-08
4.06595e-08
6.36373e-08
1.05227e-08
-8.41919e-09
-9.46744e-09
-4.10356e-08
-1.76784e-08
-3.20534e-08
-2.04034e-08
1.16387e-08
-8.90859e-09
-2.24968e-08
4.8632e-09
-2.56325e-08
-1.86609e-08
7.92564e-09
-3.22993e-08
-3.49812e-08
-1.79217e-08
-2.91306e-08
-9.51959e-09
-7.87705e-09
-3.46523e-08
-1.94831e-08
3.30658e-09
-3.66727e-08
3.85359e-08
-1.76021e-09
5.77615e-08
2.26356e-08
2.22348e-08
5.03686e-09
3.32913e-08
5.06373e-08
-4.115e-08
9.76129e-09
-1.31241e-09
2.01245e-08
3.02199e-09
3.20061e-08
2.68971e-08
-6.6997e-09
7.40809e-09
5.11093e-09
-1.4307e-08
2.50704e-08
-2.15567e-08
1.17143e-08
-1.37554e-08
-3.94743e-08
1.32722e-08
-1.18568e-08
-4.92341e-09
-8.38154e-09
6.61845e-09
-3.69079e-09
4.33949e-08
2.46255e-08
-4.93046e-08
-8.30698e-09
-3.69584e-09
1.99627e-08
-6.91347e-09
2.3389e-08
-1.22928e-08
3.34373e-09
-2.10602e-08
-3.19356e-09
2.76228e-09
1.31716e-08
1.60067e-08
6.69155e-09
3.44124e-08
1.10656e-08
-2.02426e-08
-6.52325e-09
2.77932e-08
2.05143e-09
9.62123e-09
1.52213e-08
1.29662e-08
7.166e-08
-8.54917e-09
3.77566e-08
-1.13473e-08
2.39168e-08
-2.49347e-09
2.50979e-08
-2.2255e-08
-2.46013e-08
-1.88583e-08
4.70115e-09
-1.68006e-08
-2.71535e-08
9.218e-09
-3.34255e-08
3.32309e-08
8.13658e-08
1.1222e-07
2.51266e-07
5.12425e-07
9.92253e-07
1.96493e-06
3.78547e-06
7.29528e-06
1.38849e-05
2.63056e-05
4.96168e-05
9.286e-05
0.000172753
0.000319293
0.000586471
0.00107006
0.00193952
0.00349172
0.0062435
0.0110869
0.01955
0.0342284
0.0594956
0.102658
0.175818
0.298842
0.504048
0.843524
1.40042
2.30619
3.76651
6.09989
9.79425
15.5887
24.5902
38.4359
59.5178
91.2847
138.64
208.454
310.207
456.761
665.268
958.157
1364.17
1919.27
2667.39
3660.63
4958.79
6627.92
8737.66
11357.1
14549.5
18365.5
22836.4
27967.1
33730.9
40066.6
46878.8
54042.1
61408.7
68818.6
76111.3
83136.7
89764.4
95889.7
101442
106393
110742
114512
117736
120457
122723
124580
126074
127249
128143
128793
129230
129482
129573
129525
129356
129082
128716
128271
127757
127182
126554
125879
125164
124412
123629
122817
121979
121120
120239
119341
118427
117498
116555
115601
114635
113660
112676
111684
110685
109680
108669
107653
106633
105609
104582
103552
102521
101487
100453
99418.6
98383.8
97349.4
96315.7
95283.2
94252.2
93223.2
92196.4
91172.2
90150.9
89132.8
88118.2
87107.3
86100.5
85097.9
84099.7
83106.2
82117.5
81133.9
80155.5
79182.5
78214.9
77253.1
76296.9
75346.7
74402.5
73464.3
72532.3
71606.6
70687.3
69774.3
68867.8
67967.8
67074.4
66187.7
65307.6
64434.2
63567.5
62707.6
61854.5
61008.2
60168.7
59336.1
58510.3
57691.4
56879.3
56074.2
55275.9
54484.5
53700
52922.3
52151.6
51387.7
50630.6
49880.5
49137.1
48400.6
47670.9
46948
46231.9
45522.5
44819.9
44124.1
43435
42752.5
42076.8
41407.6
40745.2
40089.3
39440.1
38797.4
38161.2
37531.6
36908.4
36291.8
35681.6
35077.7
34480.3
33889.3
33304.6
32726.2
32154
31588.2
31028.5
30475.1
29927.8
29386.7
28851.7
28322.7
27799.9
27283
26772.1
26267.2
25768.3
25275.2
24788
24306.7
23831.1
23361.4
22897.4
22439.1
21986.5
21539.6
21098.3
20662.6
20232.5
19807.9
19388.8
18975.2
18567
18164.2
17766.9
17374.8
16988.1
16606.7
16230.5
15859.6
15493.8
15133.2
14777.8
14427.4
14082.2
13741.9
13406.7
13076.4
12751.1
12430.7
12115.2
11804.6
11498.8
11197.7
10901.5
10609.9
10323.1
10041
9763.44
9490.54
9222.21
8958.44
8699.19
8444.44
8194.14
7948.28
7706.82
7469.73
7236.98
7008.54
6784.39
6564.49
6348.82
6137.34
5930.03
5726.86
5527.79
5332.8
5141.86
4954.94
4772.02
4593.05
4418.03
4246.9
4079.66
3916.26
3756.69
3600.91
3448.89
3300.6
3156.03
3015.13
2877.89
2744.26
2614.24
2487.78
2364.86
2245.45
2129.52
2017.05
1908
1802.36
1700.08
1601.15
1505.54
1413.21
1324.13
1238.29
1155.65
1076.17
999.84
926.621
856.483
789.396
725.327
664.245
606.117
550.91
498.589
449.118
402.46
358.574
317.419
278.951
243.123
209.887
179.189
150.974
125.179
101.737
80.5749
61.6133
44.7661
29.9399
17.0337
5.93858
-3.46241
-11.2934
-17.6847
-22.7708
-26.6883
-29.5738
-31.5624
-32.787
-33.3801
-33.477
-33.2215
-32.7697
-32.2904
-31.9535
-31.9057
-32.2083
-32.8176
-33.5357
-33.9827
-33.613
-31.7848
-27.8734
-21.3992
-12.1366
-0.178389
14.0536
29.8418
46.2318
62.1005
76.2343
87.4142
94.5074
96.5676
92.9486
83.4247
68.307
48.529
25.6674
1.86822
-20.352
-38.3444
-49.7335
-52.8234
-46.9224
-32.5022
-11.1501
14.6618
41.925
67.4739
88.3453
101.99
106.579
101.213
86.0755
62.5045
32.9672
0.895017
-29.6475
-54.4477
-69.759
-72.7968
-62.3844
-39.2874
-6.20555
32.6009
71.9645
106.596
131.836
144.275
142.051
125.202
95.7066
57.2986
15.064
-25.167
-57.5966
-77.3108
-81.0948
-67.9193
-39.352
0.584898
46.0185
90.1777
126.501
149.686
156.506
146.176
120.534
83.7683
41.7917
1.34633
-31.0488
-50.1507
-52.8856
-38.8326
-10.4072
27.5341
68.5567
105.811
133.257
146.705
144.504
127.73
99.9973
66.7723
34.3814
8.8598
-5.14758
-5.2334
8.38748
32.9339
63.6462
94.7588
120.654
136.957
141.352
133.947
117.187
95.2906
73.3474
56.2535
47.7166
49.5311
61.2861
80.5225
103.336
125.278
142.344
151.829
152.863
146.506
135.43
123.245
113.637
109.536
112.475
122.316
137.369
154.873
171.715
185.204
193.703
196.968
196.132
193.346
191.187
191.986
197.256
207.366
221.531
238.101
255.071
270.64
283.695
294.075
302.565
310.633
319.996
332.144
347.962
367.558
390.321
415.192
441.054
467.112
493.169
519.704
547.756
578.654
613.695
653.879
699.786
751.619
809.405
873.252
943.584
1021.27
1107.67
1204.67
1315.11
1444.06
1601.84
1809.51
2108.24
2573.13
3332.09
4588.93
6648.59
9939.78
15028.5
22612.9
33490.2
48486.2
68342.4
93567.5
124267
159985
199593
241275
282630
320901
353285
377288
391030
393456
384423
364647
335568
299152
257677
213542
169105
126544
87751.1
54222.3
26974.1
6474.01
-7382.78
-15233.6
-18138.1
-17408.2
-14411.9
-10389.7
-6320.89
-2857.92
-328.97
1207.66
1881.03
1919.75
1576.38
1073.64
574.97
176.667
-84.4368
-214.627
-244.632
-213.224
-155.623
-97.3292
-52.595
-26.0422
-15.7892
-16.7563
-23.3068
-30.8787
-36.6446
-39.4566
-39.3988
-37.2291
-33.8985
-30.235
-26.798
-23.8647
-21.4921
-19.6038
-18.0705
-16.7642
-15.5877
-14.4818
-13.4212
-12.4048
-11.4461
-10.5652
-9.78384
-9.12117
-8.59161
-8.20272
-7.95394
-7.8362
-7.83238
-7.91888
-8.06795
-8.25046
-8.43882
-8.60958
-8.74554
-8.83715
-8.88308
-8.88984
-8.87063
-8.84322
-8.82715
-8.84054
-8.89681
-9.00203
-9.1531
-9.33744
-9.53425
-9.71724
-9.85854
-9.93328
-9.92399
-9.8242
-9.64049
-9.3926
-9.11136
-8.83463
-8.60177
-8.44744
-8.3959
-8.45672
-8.62281
-8.87138
-9.16742
-9.46942
-9.73599
-9.9324
-10.0358
-10.0383
-9.94823
-9.78908
-9.5964
-9.41365
-9.2865
-9.25629
-9.3531
-9.58965
-9.95732
-10.4259
-10.9478
-11.4661
-11.9257
-12.2832
-12.5147
-12.6181
-12.6108
-12.5246
-12.3996
-12.2795
-12.209
-12.2316
-12.3857
-12.6979
-13.1745
-13.7939
-14.5056
-15.2377
-15.9092
-16.4506
-16.8274
-17.0416
-17.1135
-17.1003
-17.0966
-17.11
-17.0711
-17.135
-17.4491
-17.5144
-17.3584
-18.5449
-20.1146
-18.486
-18.8379
-26.986
-22.6364
-1.51077
-21.8151
-52.3245
50.477
94.8163
-190.755
-63.2477
734.193
-70.8454
-1553.9
2123.14
4245.24
-6983.54
-3974.8
27222
-1201.86
-66734.4
66752.4
166101
-270861
-230332
1.05122e+06
94521
-3.11266e+06
2.8411e+06
1.00261e+07
5.04751e+06
1.22541e+06
204669
33002.4
5449.6
902.064
149.285
24.7011
4.08689
0.676179
0.111874
0.0185096
0.00306242
0.000506678
8.38285e-05
1.3849e-05
2.3311e-06
3.65721e-07
6.25334e-08
6.73774e-09
1.86428e-10
-4.20758e-12
-2.83875e-09
-4.94967e-09
3.17283e-10
-3.00475e-10
4.83441e-09
8.05215e-09
3.32928e-09
5.07249e-09
-3.41863e-09
-8.35367e-10
4.28814e-09
-1.98946e-09
-1.40329e-09
1.27295e-09
2.6485e-10
-3.79375e-09
-3.7067e-10
4.4202e-09
-1.0487e-09
-4.761e-09
-1.92152e-09
6.33286e-09
-3.08082e-09
-3.0085e-09
-9.35815e-09
-1.80076e-09
-5.37577e-09
-2.84441e-09
-1.55278e-10
1.87395e-09
3.68506e-09
6.28226e-09
7.79443e-09
8.46459e-09
9.34738e-09
1.0891e-08
6.44568e-09
8.57329e-09
1.08932e-08
7.06958e-09
6.40242e-09
3.49253e-09
2.76117e-09
-5.97613e-10
-5.40008e-09
-4.71588e-09
-9.8142e-09
-1.02749e-08
-1.18658e-08
-1.26473e-08
-7.11498e-09
-6.63995e-09
-4.62467e-09
-5.98536e-09
-9.24954e-10
-3.86988e-09
1.2559e-09
1.99669e-09
-2.83955e-09
7.58149e-11
-1.58478e-09
-8.5006e-10
-1.55485e-09
-1.67407e-09
-4.2999e-10
3.11047e-09
-2.3432e-09
-1.77288e-09
-2.20861e-09
-7.28605e-10
-2.24534e-09
3.1914e-10
-1.45598e-09
-3.2301e-09
-2.57742e-09
5.59593e-10
-9.91475e-10
-2.54252e-09
-1.95259e-09
1.14115e-10
5.22286e-10
-7.58113e-11
1.34676e-09
-5.33173e-12
3.76333e-09
-1.0422e-09
3.53133e-09
3.20953e-09
1.64074e-09
1.25031e-08
1.48074e-08
1.62046e-08
9.53126e-09
7.39071e-09
8.70956e-09
)
;

boundaryField
{
    sides
    {
        type            calculated;
        value           nonuniform List<scalar> 2(3.76644e-09 1.79354e-09);
    }
    empty
    {
        type            empty;
    }
}


// ************************************************************************* //
