/*--------------------------------*- C++ -*----------------------------------*\
  =========                 |
  \\      /  F ield         | OpenFOAM: The Open Source CFD Toolbox
   \\    /   O peration     | Website:  https://openfoam.org
    \\  /    A nd           | Version:  13
     \\/     M anipulation  |
\*---------------------------------------------------------------------------*/
FoamFile
{
    format      ascii;
    class       volScalarField;
    location    "0.007";
    object      CrankNicolson:ddt0(rho,e);
}
// * * * * * * * * * * * * * * * * * * * * * * * * * * * * * * * * * * * * * //

dimensions      [1 -1 -3 0 0 0 0];

internalField   nonuniform List<scalar> 
1000
(
-2.38191e-07
3.57178e-06
4.32417e-08
1.19456e-07
-3.44245e-07
7.05417e-08
1.03405e-06
-2.34663e-08
1.08282e-06
1.12824e-06
-5.05944e-07
2.6641e-06
-2.96455e-06
-2.27243e-06
-2.23064e-06
1.37396e-06
-1.15752e-06
3.15329e-06
2.31329e-06
1.08115e-06
-6.27671e-08
1.29447e-06
3.12051e-06
-3.41874e-07
1.51063e-08
-1.65149e-06
1.79836e-06
3.79338e-06
4.3068e-07
9.82713e-07
4.71894e-08
7.07633e-07
-4.72341e-07
-5.38693e-07
-1.07859e-06
1.59937e-06
-2.32306e-06
-1.2253e-07
-4.60584e-07
3.04689e-06
-2.16497e-06
-4.92713e-06
3.72439e-06
-1.20234e-07
-2.16011e-06
2.31893e-06
5.09059e-07
6.13828e-07
4.90773e-06
-1.36344e-06
-7.25571e-07
-3.93444e-06
2.44751e-06
-9.2289e-07
-2.31931e-06
5.23211e-07
2.03208e-06
-4.77577e-08
-7.10999e-07
-6.49927e-07
-2.20635e-06
2.15996e-06
1.00579e-07
-1.38093e-06
1.52551e-06
1.81784e-07
-3.13028e-08
8.77027e-07
-1.9142e-06
-1.06106e-06
2.84799e-06
-2.10689e-06
2.52016e-06
4.31885e-06
2.3655e-06
2.69959e-06
3.3404e-06
2.69135e-06
2.79546e-06
-2.88025e-06
1.40544e-06
-1.19213e-06
-3.11618e-06
3.68938e-07
-1.44283e-06
-2.58598e-06
-2.4158e-08
-1.44091e-07
1.32588e-07
2.48112e-06
-9.67274e-07
1.28797e-06
1.08512e-06
3.42653e-06
6.15808e-07
2.58994e-06
-2.63356e-06
1.89939e-06
1.85975e-06
-1.18132e-07
1.16764e-06
-2.46702e-06
6.65666e-07
-2.38503e-06
2.4361e-06
1.23705e-06
-1.19739e-06
-1.48882e-06
-2.41767e-08
1.44579e-06
-1.6171e-06
2.13211e-07
7.35328e-07
-5.51484e-08
2.19079e-06
5.76919e-07
-8.54867e-07
-3.83362e-07
2.6877e-07
2.25083e-06
-9.53169e-07
2.1399e-06
-5.16895e-06
-3.62873e-07
-4.17074e-07
2.56623e-06
-2.6056e-07
-2.23807e-07
-1.58593e-06
-1.31681e-06
-4.04213e-07
2.42162e-06
-7.73978e-07
4.75672e-07
-2.84253e-06
2.55887e-06
-3.51671e-07
2.40088e-06
-3.54706e-06
2.90969e-06
-1.04864e-07
-8.02819e-07
1.03536e-06
1.43532e-06
-1.02429e-06
-2.175e-07
-2.12917e-06
8.1635e-07
5.6444e-07
8.99756e-07
1.98508e-06
8.0401e-07
3.51625e-08
3.48336e-07
-1.84329e-07
2.30444e-06
-8.2962e-07
1.2184e-06
1.84165e-06
-8.34281e-07
-2.96101e-07
-3.72499e-06
-1.15642e-06
-1.69614e-06
5.78847e-07
-1.81066e-06
-2.22802e-06
1.92526e-06
-1.50808e-06
-2.09489e-06
-2.67067e-06
-1.80841e-06
-8.36079e-06
-8.69005e-06
-2.20129e-05
-4.57082e-05
-9.00055e-05
-0.000175052
-0.000328863
-0.000634941
-0.00119753
-0.00225255
-0.00420477
-0.00779929
-0.0143779
-0.0263282
-0.0479112
-0.0865751
-0.155398
-0.277025
-0.490418
-0.862058
-1.5045
-2.60663
-4.48283
-7.65172
-12.9612
-21.7848
-36.3269
-60.0907
-98.5884
-160.405
-258.768
-413.839
-655.997
-1030.48
-1603.82
-2472.62
-3775.28
-5707.21
-8540.27
-12646.6
-18527.1
-26843.4
-38452.3
-54439.5
-76147.6
-105192
-143459
-193070
-256314
-335528
-432933
-550425
-689340
-850207
-1.03254e+06
-1.23471e+06
-1.45386e+06
-1.68605e+06
-1.92644e+06
-2.16962e+06
-2.41002e+06
-2.64228e+06
-2.86165e+06
-3.0642e+06
-3.24705e+06
-3.40875e+06
-3.54902e+06
-3.6684e+06
-3.76801e+06
-3.84931e+06
-3.91393e+06
-3.96359e+06
-3.99996e+06
-4.02463e+06
-4.03904e+06
-4.04453e+06
-4.04227e+06
-4.0333e+06
-4.01854e+06
-3.99878e+06
-3.97471e+06
-3.94692e+06
-3.91593e+06
-3.88217e+06
-3.84604e+06
-3.80785e+06
-3.76789e+06
-3.7264e+06
-3.68358e+06
-3.63963e+06
-3.5947e+06
-3.54891e+06
-3.5024e+06
-3.45527e+06
-3.4076e+06
-3.35947e+06
-3.31096e+06
-3.26214e+06
-3.21305e+06
-3.16375e+06
-3.11428e+06
-3.06469e+06
-3.01501e+06
-2.96529e+06
-2.91555e+06
-2.86583e+06
-2.81615e+06
-2.76655e+06
-2.71704e+06
-2.66766e+06
-2.61842e+06
-2.56934e+06
-2.52046e+06
-2.47178e+06
-2.42332e+06
-2.37511e+06
-2.32716e+06
-2.27948e+06
-2.2321e+06
-2.18501e+06
-2.13825e+06
-2.09181e+06
-2.04571e+06
-1.99996e+06
-1.95458e+06
-1.90956e+06
-1.86493e+06
-1.82068e+06
-1.77682e+06
-1.73337e+06
-1.69032e+06
-1.64768e+06
-1.60547e+06
-1.56367e+06
-1.5223e+06
-1.48136e+06
-1.44086e+06
-1.40079e+06
-1.36115e+06
-1.32196e+06
-1.28322e+06
-1.24491e+06
-1.20705e+06
-1.16964e+06
-1.13268e+06
-1.09616e+06
-1.06009e+06
-1.02447e+06
-989299
-954574
-920297
-886467
-853083
-820144
-787650
-755599
-723990
-692823
-662095
-631806
-601953
-572535
-543552
-515000
-486878
-459184
-431917
-405074
-378654
-352654
-327073
-301908
-277157
-252819
-228890
-205369
-182254
-159542
-137231
-115319
-93802.6
-72680.7
-51950.4
-31609.5
-11655.6
7913.8
27101
45908.4
64338.4
82393.5
100076
117389
134334
150913
167130
182987
198486
213629
228420
242860
256953
270699
284103
297166
309891
322281
334337
346062
357460
368531
379279
389706
399814
409607
419086
428253
437112
445665
453913
461860
469508
476859
483916
490680
497155
503343
509246
514867
520207
525269
530056
534570
538813
542787
546495
549940
553122
556045
558711
561123
563281
565190
566850
568264
569435
570365
571055
571508
571726
571712
571467
570994
570295
569372
568227
566863
565280
563483
561471
559249
556817
554179
551335
548288
545040
541594
537950
534112
530081
525859
521448
516850
512067
507101
501955
496629
491126
485448
479596
473573
467381
461020
454494
447804
440951
433938
426766
419437
411953
404315
396526
388585
380496
372260
363877
355350
346680
337868
328914
319821
310589
301218
291709
282063
272280
262359
252299
242101
231762
221281
210655
199881
188956
177875
166632
155221
143633
131861
119893
107719
95326.2
82702.8
69836.3
56715.6
43332.7
29685
15778.6
1633.55
-12710.1
-27183.4
-41678
-56033.3
-70021.8
-83335
-95570.8
-106229
-114717
-120380
-122553
-120643
-114242
-103238
-87950.7
-69110.6
-47906.8
-25927.5
-4974.34
13195.2
27140.5
35956.3
39379.4
37768.7
31984.5
23214.6
12800.9
2075.84
-7718.51
-15500.3
-20420.6
-21914.3
-19742.1
-14024.5
-5266.91
5638.25
17446.4
28655.2
37649.8
42950.3
43332.6
38102.3
27294.8
11744.2
-6996.93
-26877.8
-45652.7
-61195
-71747.2
-76112.5
-73680.6
-64433.9
-49039.7
-28808.1
-5610.87
18250.8
40240
57844.3
68875.9
71807.5
65986.4
51759.6
30623.7
5065.36
-21780.1
-46591.4
-66346.3
-78727.8
-82402.2
-77126.1
-63651.2
-43739.2
-19941.2
4705.52
27043.8
44198.4
53959.6
55119
47622.3
32593.1
12258.3
-10391.7
-32078.4
-49754.1
-61065.1
-64678.9
-60441.5
-49290.7
-33159.4
-14661.6
3309.47
18023
27324.8
29965.7
25787.5
15694.6
1535.55
-14234.1
-28991.1
-40402.6
-46813.3
-47499.2
-42729.8
-33677.8
-22196.3
-10469.7
-618.768
5670.17
7429.39
4556
-2218.24
-11479.7
-21430.5
-30250.2
-36446.2
-39122.2
-38118.4
-33989.6
-27867.6
-21206.6
-15477.5
-11873.3
-11084.8
-13188.6
-17671.6
-23566.3
-29683
-34876.6
-38288.9
-39515
-38659
-36276.7
-33225.6
-30454.3
-28785.5
-28739.3
-30437.4
-33605.3
-37662.9
-41884.1
-45579.2
-48257.6
-49731.3
-50136.7
-49878.5
-49510.3
-49587.5
-50530
-52529.7
-55522.4
-59227.9
-63242.6
-67158.6
-70674.2
-73668.8
-76222.8
-78582.5
-81084
-84057.6
-87743.6
-92240.4
-97497.8
-103355
-109608
-116084
-122705
-129517
-136684
-144449
-153077
-162808
-173818
-186219
-200086
-215495
-232569
-251504
-272580
-296169
-322807
-353421
-389884
-436112
-499966
-596211
-750710
-1.00583e+06
-1.42666e+06
-2.10725e+06
-3.1753e+06
-4.79337e+06
-7.15401e+06
-1.04665e+07
-1.49331e+07
-2.07158e+07
-2.78943e+07
-3.64241e+07
-4.61007e+07
-5.65439e+07
-6.72088e+07
-7.74284e+07
-8.64846e+07
-9.36949e+07
-9.84974e+07
-1.00519e+08
-9.96105e+07
-9.58547e+07
-8.95363e+07
-8.10993e+07
-7.10927e+07
-6.01183e+07
-4.87846e+07
-3.76691e+07
-2.72878e+07
-1.80687e+07
-1.03282e+07
-4.25195e+06
116629
2.87397e+06
4.23757e+06
4.51042e+06
4.03432e+06
3.14151e+06
2.11423e+06
1.15944e+06
401062
-112571
-391055
-480161
-441056
-333933
-207553
-94601.1
-11739.7
37301
57273.4
56978.2
45740
31184.1
18283.2
9382.54
4805.81
3667.24
4618.38
6382.02
8036.39
9088.31
9408.4
9104.54
8391.87
7493.53
6583.25
5765.66
5082.29
4530.17
4082.78
3707.04
3374.14
3064.36
2767.66
2481.79
2209.58
1956.36
1728.01
1529.69
1365.19
1236.61
1144.3
1086.85
1061.1
1062.26
1084.05
1119.09
1159.43
1197.25
1225.7
1239.67
1236.48
1216.17
1181.56
1137.7
1091.1
1048.55
1015.96
997.202
993.355
1002.36
1019.3
1037.1
1047.82
1043.93
1019.71
972.288
902.219
813.578
713.462
611.061
516.382
438.803
385.642
360.946
364.688
392.57
436.515
485.831
528.87
554.903
555.834
527.463
470.08
388.363
290.676
187.932
92.171
14.9819
-34.1507
-49.4161
-29.935
19.6194
89.3428
165.503
232.872
277.504
289.289
263.642
201.965
110.965
1.23975
-114.331
-222.043
-308.674
-362.881
-376.917
-348.521
-282.405
-190.574
-90.9044
-3.82024
52.339
65.5501
32.3705
-41.744
-144.358
-261.163
-379.776
-487.34
-572.598
-634.801
-667.696
-641.132
-563.239
-499.559
-391.124
-129.787
-23.3077
-246.861
109.055
827.027
-588.268
-1753.09
2940.4
3314.36
-8701.02
2068.17
34115.7
-10463.5
-57725.1
117906
147873
-339792
-24266.4
1.22074e+06
-423461
-2.60607e+06
3.95437e+06
5.94254e+06
-1.35205e+07
-4.31073e+06
4.76124e+07
-4.72711e+06
-1.0845e+08
2.35221e+08
2.68097e+08
1.60337e+07
-9.39663e+06
-1.33563e+06
-194087
-32404.7
-5409.99
-897.613
-148.61
-24.591
-4.06871
-0.673173
-0.111376
-0.0184276
-0.00304853
-0.000503721
-8.41937e-05
-1.38739e-05
-1.66366e-06
-6.14038e-07
-6.47263e-07
-1.08499e-06
2.70593e-07
-1.96469e-07
-4.28141e-07
1.553e-08
8.75191e-08
3.30112e-08
2.47629e-07
-9.73126e-08
-3.56102e-07
-4.89609e-07
3.41933e-08
-2.38928e-07
7.02674e-09
1.03853e-07
-4.29004e-11
1.88553e-08
-2.37292e-09
5.09667e-07
4.49141e-07
1.08803e-07
5.22954e-07
-1.37958e-07
7.27028e-08
-4.59426e-07
-2.21113e-07
-3.95266e-07
-5.03994e-07
1.78678e-07
3.64767e-07
-2.31878e-08
9.91379e-08
6.33036e-09
-2.94709e-07
-5.73849e-07
-1.49992e-07
3.20967e-07
5.63719e-07
-2.73382e-07
2.76921e-07
-4.17541e-07
3.50843e-07
-1.91871e-07
-5.59911e-08
-2.1843e-08
-3.46544e-07
-4.44982e-07
-1.13248e-07
-1.73485e-07
4.1615e-07
4.28313e-08
-2.13619e-07
-3.83604e-08
-1.13077e-07
6.79047e-07
-3.90039e-08
-7.18097e-07
-5.38245e-08
-3.0058e-07
2.30328e-08
-4.76606e-07
4.80056e-08
-1.39729e-07
4.35279e-07
-9.19312e-08
1.12628e-07
-3.9988e-07
-6.5614e-07
-8.28107e-07
2.61152e-07
4.2671e-07
4.10149e-07
3.56908e-07
6.60522e-07
7.32314e-08
-2.36099e-07
-6.92268e-07
-1.38302e-07
-2.849e-08
-1.22502e-09
3.39961e-07
-3.59328e-08
1.33292e-08
-1.6181e-07
-2.73167e-07
-8.15081e-07
1.52735e-07
4.72515e-07
-1.33536e-07
-3.84477e-07
-2.33368e-08
1.6251e-07
-7.17311e-07
-1.16167e-06
6.45646e-07
3.62086e-07
1.45425e-07
)
;

boundaryField
{
    sides
    {
        type            calculated;
        value           nonuniform List<scalar> 2(1.45425e-07 -2.38191e-07);
    }
    empty
    {
        type            empty;
    }
}


// ************************************************************************* //
