/*--------------------------------*- C++ -*----------------------------------*\
  =========                 |
  \\      /  F ield         | OpenFOAM: The Open Source CFD Toolbox
   \\    /   O peration     | Website:  https://openfoam.org
    \\  /    A nd           | Version:  13
     \\/     M anipulation  |
\*---------------------------------------------------------------------------*/
FoamFile
{
    format      ascii;
    class       volScalarField;
    location    "0.007";
    object      p;
}
// * * * * * * * * * * * * * * * * * * * * * * * * * * * * * * * * * * * * * //

dimensions      [1 -1 -2 0 0 0 0];

internalField   nonuniform List<scalar> 
1000
(
100000
100000
100000
100000
100000
100000
100000
100000
100000
100000
100000
100000
100000
100000
100000
100000
100000
100000
100000
100000
100000
100000
100000
100000
100000
100000
100000
100000
100000
100000
100000
100000
100000
100000
100000
100000
100000
100000
100000
100000
100000
100000
100000
100000
100000
100000
100000
100000
100000
100000
100000
100000
100000
100000
100000
100000
100000
100000
100000
100000
100000
100000
100000
100000
100000
100000
100000
100000
100000
100000
100000
100000
100000
100000
100000
100000
100000
100000
100000
100000
100000
100000
100000
100000
100000
100000
100000
100000
100000
100000
100000
100000
100000
100000
100000
100000
100000
100000
100000
100000
100000
100000
100000
100000
100000
100000
100000
100000
100000
100000
100000
100000
100000
100000
100000
100000
100000
100000
100000
100000
100000
100000
100000
100000
100000
100000
100000
100000
100000
100000
100000
100000
100000
100000
100000
100000
100000
100000
100000
100000
100000
100000
100000
100000
100000
100000
100000
100000
100000
100000
100000
100000
100000
100000
100000
100000
100000
100000
100000
100000
100000
100000
100000
100000
100000
100000
100000
100000
100000
100000
100000
100000
100000
100000
100000
100000
100000
100000
100000
100000
100000
100000
100000
100000
100000
100000
100000
100000
100000
100000
100000
100000
100000
100000
100000
100000
100000
100000
100000
100000
100000
100000
100000
99999.9
99999.9
99999.8
99999.7
99999.5
99999.3
99998.9
99998.2
99997.4
99996
99994.1
99991.4
99987.5
99982.1
99974.6
99964.4
99950.5
99932.2
99908
99876.8
99837.1
99787.1
99725.3
99650
99559.6
99452.7
99328.1
99185.1
99023.1
98842
98642.2
98424.2
98189.2
97938.2
97672.5
97393.6
97102.7
96801.3
96490.5
96171.4
95845.2
95512.6
95174.6
94831.9
94485.1
94134.7
93781.3
93425.2
93067
92706.8
92344.9
91981.7
91617.4
91252
90885.9
90519.2
90151.9
89784.2
89416.3
89048.2
88680.1
88311.9
87943.7
87575.8
87208
86840.4
86473.2
86106.4
85739.9
85373.9
85008.4
84643.4
84279
83915.2
83552.1
83189.6
82827.9
82466.8
82106.6
81747.1
81388.4
81030.6
80673.6
80317.5
79962.4
79608.1
79254.8
78902.5
78551.1
78200.7
77851.3
77503
77155.6
76809.3
76464.1
76119.9
75776.8
75434.8
75093.9
74754.1
74415.4
74077.8
73741.3
73405.9
73071.7
72738.6
72406.6
72075.8
71746.1
71417.6
71090.2
70764
70438.9
70115
69792.2
69470.6
69150.2
68830.9
68512.8
68195.8
67880
67565.4
67251.9
66939.6
66628.5
66318.5
66009.6
65702
65395.5
65090.1
64785.9
64482.8
64180.9
63880.2
63580.6
63282.2
62984.9
62688.7
62393.7
62099.8
61807.1
61515.5
61225
60935.7
60647.5
60360.4
60074.5
59789.7
59506
59223.4
58942
58661.6
58382.4
58104.3
57827.2
57551.3
57276.5
57002.8
56730.2
56458.7
56188.2
55918.9
55650.7
55383.5
55117.4
54852.4
54588.5
54325.6
54063.8
53803.1
53543.4
53284.8
53027.2
52770.8
52515.3
52260.9
52007.6
51755.3
51504
51253.8
51004.6
50756.5
50509.4
50263.3
50018.2
49774.2
49531.1
49289.1
49048.1
48808.1
48569.1
48331.1
48094.2
47858.2
47623.2
47389.2
47156.2
46924.2
46693.1
46463.1
46234
46005.9
45778.8
45552.6
45327.4
45103.2
44880
44657.7
44436.3
44215.9
43996.5
43778
43560.5
43343.9
43128.2
42913.5
42699.8
42486.9
42275
42064
41854
41644.9
41436.7
41229.4
41023
40817.6
40613
40409.4
40206.7
40004.9
39804.1
39604.1
39405
39206.8
39009.6
38813.2
38617.7
38423.2
38229.5
38036.7
37844.9
37653.9
37463.8
37274.6
37086.3
36898.9
36712.4
36526.8
36342.1
36158.3
35975.4
35793.5
35612.4
35432.2
35252.9
35074.6
34897.2
34720.7
34545.2
34370.5
34196.9
34024.2
33852.5
33681.7
33512
33343.3
33175.6
33009
32843.4
32678.9
32515.6
32353.4
32192.5
32032.7
31874.3
31717.3
31561.6
31407.5
31254.9
31104
30954.9
30807.8
30662.7
30520
30379.7
30242.2
30107.7
29976.6
29849.3
29726.4
29608.2
29495.7
29389.4
29290.3
29199.6
29118.5
29048.5
28991.2
28948.6
28922.9
28916.4
28931.6
28971.3
29038
29133.8
29260.6
29418.7
29607.4
29823.7
30062.2
30314.8
30570.7
30816.7
31038.7
31222.2
31354.9
31427.7
31436.2
31381.6
31269.9
31111.2
30918.5
30705.8
30487.4
30276.5
30084.9
29922.3
29796.5
29713.2
29675.7
29685.3
29740.6
29837.7
29970.2
30128.7
30301.7
30476
30637.7
30773.5
30872.3
30926.5
30933
30893.8
30815.1
30706.5
30580
30448.2
30323.3
30215.9
30134.6
30085.3
30070.7
30090.3
30140.7
30215.5
30306.2
30402.7
30494.9
30572.9
30628.9
30658.1
30658.7
30632.6
30584.8
30522.5
30453.9
30387.5
30330.8
30290
30268.5
30267.8
30286.3
30320.4
30364.9
30413.2
30459
30496.3
30520.8
30530.2
30524.3
30505.3
30476.9
30443.9
30411.3
30383.7
30364.6
30356.1
30358.4
30370.4
30389.5
30412
30434.4
30453.1
30465.5
30470.3
30467.4
30458
30444.2
30428.7
30414.2
30403.1
30396.8
30396.1
30400.4
30408.5
30418.7
30429
30437.4
30442.7
30444.3
30442.1
30437.1
30430.4
30423.5
30417.7
30414
30412.9
30414.3
30417.7
30422.2
30426.8
30430.5
30432.7
30433.1
30431.9
30429.4
30426.3
30423.4
30421.3
30420.3
30420.6
30421.8
30423.7
30425.7
30427.4
30428.4
30428.6
30428
30426.8
30425.5
30424.3
30423.6
30423.3
30423.6
30424.3
30425.2
30426
30426.5
30426.7
30426.5
30426.1
30425.5
30425
30424.7
30424.6
30424.8
30425.1
30425.5
30425.8
30425.9
30426
30425.8
30425.6
30425.4
30425.3
30425.2
30425.2
30425.3
30425.5
30425.6
30425.7
30425.7
30425.6
30425.5
30425.4
30425.4
30425.4
30425.4
30425.5
30425.5
30425.6
30425.6
30425.6
30425.5
30425.5
30425.5
30425.5
30425.5
30425.5
30425.5
30425.5
30425.5
30425.4
30425.4
30425.3
30425.3
30425.2
30425.2
30425.1
30425.1
30425.1
30425.1
30425.1
30425.2
30425.3
30425.4
30425.5
30425.7
30425.8
30425.9
30426
30426.1
30426.1
30426.1
30426.1
30426
30426
30425.9
30425.8
30425.8
30425.7
30425.7
30425.7
30425.7
30425.7
30425.8
30425.8
30425.8
30425.8
30425.8
30425.8
30425.8
30425.8
30425.8
30425.8
30425.8
30425.8
30425.8
30425.8
30425.8
30425.8
30425.8
30425.8
30425.8
30425.8
30425.8
30425.8
30425.8
30425.8
30425.8
30425.8
30425.8
30425.8
30425.8
30425.8
30425.8
30425.8
30425.8
30425.8
30425.8
30425.8
30425.8
30425.9
30425.9
30425.9
30425.9
30425.9
30425.9
30425.9
30425.9
30425.9
30425.9
30425.9
30425.9
30425.9
30425.9
30425.9
30425.9
30425.9
30425.9
30425.9
30425.9
30425.9
30425.9
30425.9
30425.9
30425.9
30426
30426
30426
30426
30426
30426
30426
30426
30426
30426
30426
30426
30426
30426
30426
30426
30426
30426
30426
30426.1
30426.1
30426.1
30426.1
30426.1
30426.1
30426.1
30426.1
30426.1
30426.1
30426.1
30426.1
30426.2
30426.2
30426.2
30426.2
30426.2
30426.2
30426.2
30426.2
30426.2
30426.2
30426.2
30426.2
30426.2
30426.3
30426.3
30426.3
30426.3
30426.3
30426.3
30426.3
30426.3
30426.3
30426.3
30426.4
30426.4
30426.4
30426.4
30426.4
30426.4
30426.5
30426.5
30426.5
30426.5
30426.6
30426.6
30426.6
30426.6
30426.6
30426.6
30426.6
30426.5
30426.5
30426.6
30426.4
30425.8
30426.4
30427.2
30423.8
30421.9
30429.6
30424.3
30398.4
30421.1
30463
30346.2
30274.6
30607.3
30479.3
29439.7
30288.1
32263.9
25946.4
15633.9
11168
10200.1
10032.7
10005.4
10000.9
10000.1
10000
10000
10000
10000
10000
10000
10000
10000
10000
10000
10000
10000
10000
10000
10000
10000
10000
10000
10000
10000
10000
10000
10000
10000
10000
10000
10000
10000
10000
10000
10000
10000
10000
10000
10000
10000
10000
10000
10000
10000
10000
10000
10000
10000
10000
10000
10000
10000
10000
10000
10000
10000
10000
10000
10000
10000
10000
10000
10000
10000
10000
10000
10000
10000
10000
10000
10000
10000
10000
10000
10000
10000
10000
10000
10000
10000
10000
10000
10000
10000
10000
10000
10000
10000
10000
10000
10000
10000
10000
10000
10000
10000
10000
10000
10000
10000
10000
10000
10000
10000
10000
10000
10000
10000
10000
10000
10000
10000
10000
10000
)
;

boundaryField
{
    sides
    {
        type            zeroGradient;
    }
    empty
    {
        type            empty;
    }
}


// ************************************************************************* //
