/*--------------------------------*- C++ -*----------------------------------*\
  =========                 |
  \\      /  F ield         | OpenFOAM: The Open Source CFD Toolbox
   \\    /   O peration     | Website:  https://openfoam.org
    \\  /    A nd           | Version:  13
     \\/     M anipulation  |
\*---------------------------------------------------------------------------*/
FoamFile
{
    format      ascii;
    class       volScalarField;
    location    "0.007";
    object      p_0;
}
// * * * * * * * * * * * * * * * * * * * * * * * * * * * * * * * * * * * * * //

dimensions      [1 -1 -2 0 0 0 0];

internalField   nonuniform List<scalar> 
1000
(
100000
100000
100000
100000
100000
100000
100000
100000
100000
100000
100000
100000
100000
100000
100000
100000
100000
100000
100000
100000
100000
100000
100000
100000
100000
100000
100000
100000
100000
100000
100000
100000
100000
100000
100000
100000
100000
100000
100000
100000
100000
100000
100000
100000
100000
100000
100000
100000
100000
100000
100000
100000
100000
100000
100000
100000
100000
100000
100000
100000
100000
100000
100000
100000
100000
100000
100000
100000
100000
100000
100000
100000
100000
100000
100000
100000
100000
100000
100000
100000
100000
100000
100000
100000
100000
100000
100000
100000
100000
100000
100000
100000
100000
100000
100000
100000
100000
100000
100000
100000
100000
100000
100000
100000
100000
100000
100000
100000
100000
100000
100000
100000
100000
100000
100000
100000
100000
100000
100000
100000
100000
100000
100000
100000
100000
100000
100000
100000
100000
100000
100000
100000
100000
100000
100000
100000
100000
100000
100000
100000
100000
100000
100000
100000
100000
100000
100000
100000
100000
100000
100000
100000
100000
100000
100000
100000
100000
100000
100000
100000
100000
100000
100000
100000
100000
100000
100000
100000
100000
100000
100000
100000
100000
100000
100000
100000
100000
100000
100000
100000
100000
100000
100000
100000
100000
100000
100000
100000
100000
100000
100000
100000
100000
100000
100000
100000
100000
100000
100000
100000
100000
100000
100000
99999.9
99999.9
99999.8
99999.7
99999.6
99999.4
99999
99998.5
99997.7
99996.6
99995
99992.6
99989.2
99984.4
99977.8
99968.7
99956.3
99939.8
99918
99889.7
99853.3
99807.4
99750.3
99680.3
99595.7
99495.1
99377.2
99241
99086
98911.9
98718.9
98507.4
98278.3
98032.8
97772.1
97497.6
97210.7
96912.7
96604.8
96288.2
95964.1
95633.3
95296.8
94955.3
94609.4
94259.8
93907
93551.4
93193.4
92833.4
92471.6
92108.4
91744
91378.5
91012.1
90645.1
90277.5
89909.5
89541.2
89172.6
88804
88435.3
88066.7
87698.1
87329.8
86961.7
86593.9
86226.4
85859.3
85492.6
85126.5
84760.8
84395.8
84031.3
83667.4
83304.3
82941.8
82580
82219
81858.8
81499.4
81140.8
80783.1
80426.2
80070.3
79715.3
79361.2
79008.1
78655.9
78304.7
77954.6
77605.4
77257.3
76910.2
76564.2
76219.3
75875.4
75532.6
75190.9
74850.3
74510.8
74172.4
73835.1
73499
73163.9
72830.1
72497.3
72165.7
71835.3
71506
71177.8
70850.8
70525
70200.3
69876.8
69554.4
69233.2
68913.2
68594.3
68276.6
67960.1
67644.7
67330.5
67017.5
66705.6
66394.9
66085.3
65776.9
65469.7
65163.6
64858.7
64555
64252.4
63950.9
63650.6
63351.5
63053.5
62756.7
62461
62166.4
61873
61580.8
61289.6
60999.6
60710.8
60423.1
60136.5
59851
59566.7
59283.5
59001.4
58720.4
58440.5
58161.8
57884.1
57607.6
57332.2
57057.9
56784.6
56512.5
56241.5
55971.6
55702.7
55435
55168.3
54902.7
54638.2
54374.7
54112.4
53851.1
53590.8
53331.7
53073.6
52816.5
52560.5
52305.6
52051.7
51798.9
51547.1
51296.3
51046.6
50797.9
50550.3
50303.7
50058.1
49813.5
49570
49327.5
49086
48845.5
48606
48367.5
48130.1
47893.6
47658.1
47423.6
47190.2
46957.7
46726.2
46495.6
46266.1
46037.5
45810
45583.4
45357.7
45133
44909.3
44686.6
44464.8
44244
44024.1
43805.2
43587.2
43370.2
43154.2
42939
42724.8
42511.6
42299.3
42087.9
41877.4
41667.9
41459.3
41251.6
41044.9
40839.1
40634.2
40430.2
40227.1
40024.9
39823.6
39623.3
39423.9
39225.3
39027.7
38831
38635.1
38440.2
38246.2
38053.1
37860.9
37669.5
37479.1
37289.6
37101
36913.2
36726.4
36540.5
36355.4
36171.3
35988.1
35805.8
35624.4
35443.9
35264.3
35085.7
34908
34731.2
34555.3
34380.4
34206.5
34033.5
33861.5
33690.5
33520.4
33351.4
33183.5
33016.5
32850.7
32686
32522.4
32359.9
32198.7
32038.7
31880
31722.7
31566.8
31412.3
31259.5
31108.4
30959
30811.6
30666.3
30523.3
30382.8
30245
30110.3
29979
29851.5
29728.2
29609.9
29497
29390.5
29291.2
29200.2
29118.9
29048.6
28991
28948.2
28922.2
28915.4
28930.4
28969.9
29036.3
29132
29258.5
29416.6
29605.2
29821.5
30060.1
30312.9
30569
30815.5
31037.8
31221.8
31354.9
31428
31436.8
31382.4
31270.8
31112
30919.2
30706.3
30487.7
30276.7
30084.8
29922.1
29796.2
29712.9
29675.5
29685.2
29740.6
29838
29970.6
30129.3
30302.5
30476.9
30638.6
30774.3
30872.9
30926.8
30933
30893.4
30814.3
30705.4
30578.8
30446.9
30322
30214.8
30133.8
30084.9
30070.7
30090.8
30141.6
30216.7
30307.6
30404.2
30496.2
30574
30629.6
30658.3
30658.4
30631.9
30583.7
30521.2
30452.5
30386.2
30329.8
30289.3
30268.3
30268
30286.9
30321.4
30366
30414.4
30460
30497.1
30521.2
30530.2
30523.9
30504.6
30476
30442.9
30410.4
30383
30364.2
30356
30358.7
30371
30390.2
30412.8
30435.1
30453.6
30465.8
30470.3
30467.2
30457.5
30443.6
30428.1
30413.7
30402.8
30396.7
30396.2
30400.7
30408.9
30419.2
30429.4
30437.7
30442.9
30444.2
30442
30436.8
30430.1
30423.2
30417.5
30413.9
30413
30414.5
30418
30422.5
30427
30430.7
30432.8
30433.1
30431.7
30429.2
30426.2
30423.3
30421.2
30420.3
30420.6
30421.9
30423.8
30425.8
30427.5
30428.4
30428.5
30427.9
30426.8
30425.4
30424.3
30423.5
30423.3
30423.7
30424.4
30425.2
30426
30426.5
30426.7
30426.5
30426
30425.5
30425
30424.7
30424.6
30424.8
30425.1
30425.5
30425.8
30426
30426
30425.8
30425.6
30425.4
30425.2
30425.2
30425.2
30425.4
30425.5
30425.6
30425.7
30425.7
30425.6
30425.5
30425.4
30425.4
30425.4
30425.4
30425.5
30425.5
30425.6
30425.6
30425.6
30425.5
30425.5
30425.5
30425.5
30425.5
30425.5
30425.5
30425.5
30425.5
30425.4
30425.4
30425.3
30425.2
30425.2
30425.1
30425.1
30425.1
30425.1
30425.1
30425.2
30425.2
30425.3
30425.5
30425.6
30425.7
30425.8
30426
30426
30426.1
30426.1
30426.1
30426.1
30426
30425.9
30425.9
30425.8
30425.8
30425.7
30425.7
30425.7
30425.7
30425.8
30425.8
30425.8
30425.8
30425.8
30425.8
30425.8
30425.8
30425.8
30425.8
30425.8
30425.8
30425.8
30425.8
30425.8
30425.8
30425.8
30425.8
30425.8
30425.8
30425.8
30425.8
30425.8
30425.8
30425.8
30425.8
30425.8
30425.8
30425.8
30425.8
30425.8
30425.8
30425.8
30425.8
30425.8
30425.8
30425.8
30425.8
30425.9
30425.9
30425.9
30425.9
30425.9
30425.9
30425.9
30425.9
30425.9
30425.9
30425.9
30425.9
30425.9
30425.9
30425.9
30425.9
30425.9
30425.9
30425.9
30425.9
30425.9
30425.9
30425.9
30425.9
30426
30426
30426
30426
30426
30426
30426
30426
30426
30426
30426
30426
30426
30426
30426
30426
30426
30426
30426
30426
30426.1
30426.1
30426.1
30426.1
30426.1
30426.1
30426.1
30426.1
30426.1
30426.1
30426.2
30426.2
30426.2
30426.2
30426.2
30426.2
30426.2
30426.2
30426.2
30426.2
30426.2
30426.2
30426.2
30426.2
30426.3
30426.3
30426.3
30426.3
30426.3
30426.3
30426.3
30426.3
30426.3
30426.3
30426.3
30426.4
30426.4
30426.4
30426.4
30426.4
30426.5
30426.5
30426.5
30426.5
30426.5
30426.6
30426.6
30426.6
30426.6
30426.6
30426.6
30426.6
30426.5
30426.6
30426.6
30426
30425.8
30427.1
30425.9
30421.7
30425.7
30430.6
30409.4
30400.7
30453.7
30420.7
30264.7
30425.7
30690.8
29903.7
29476.9
31780.9
30140.4
19831.9
12482.5
10450.4
10074.3
10012.2
10002
10000.3
10000.1
10000
10000
10000
10000
10000
10000
10000
10000
10000
10000
10000
10000
10000
10000
10000
10000
10000
10000
10000
10000
10000
10000
10000
10000
10000
10000
10000
10000
10000
10000
10000
10000
10000
10000
10000
10000
10000
10000
10000
10000
10000
10000
10000
10000
10000
10000
10000
10000
10000
10000
10000
10000
10000
10000
10000
10000
10000
10000
10000
10000
10000
10000
10000
10000
10000
10000
10000
10000
10000
10000
10000
10000
10000
10000
10000
10000
10000
10000
10000
10000
10000
10000
10000
10000
10000
10000
10000
10000
10000
10000
10000
10000
10000
10000
10000
10000
10000
10000
10000
10000
10000
10000
10000
10000
10000
10000
10000
10000
10000
10000
)
;

boundaryField
{
    sides
    {
        type            calculated;
        value           nonuniform List<scalar> 2(10000 100000);
    }
    empty
    {
        type            empty;
    }
}


// ************************************************************************* //
