/*--------------------------------*- C++ -*----------------------------------*\
  =========                 |
  \\      /  F ield         | OpenFOAM: The Open Source CFD Toolbox
   \\    /   O peration     | Website:  https://openfoam.org
    \\  /    A nd           | Version:  13
     \\/     M anipulation  |
\*---------------------------------------------------------------------------*/
FoamFile
{
    format      ascii;
    class       surfaceScalarField;
    location    "0.007";
    object      phi_0;
}
// * * * * * * * * * * * * * * * * * * * * * * * * * * * * * * * * * * * * * //

dimensions      [1 0 -1 0 0 0 0];

internalField   nonuniform List<scalar> 
999
(
-1.09816e-11
-1.19081e-11
-1.10137e-11
-1.07237e-11
-1.07812e-11
-1.11598e-11
-1.16977e-11
-1.17771e-11
-1.15675e-11
-1.18321e-11
-1.14466e-11
-1.20224e-11
-1.16521e-11
-1.04525e-11
-8.40752e-12
-8.90789e-12
-7.84638e-12
-7.58749e-12
-7.42711e-12
-7.79584e-12
-8.11098e-12
-9.30592e-12
-1.14168e-11
-1.16458e-11
-1.16981e-11
-1.11893e-11
-1.20862e-11
-1.30678e-11
-1.41007e-11
-1.62859e-11
-1.70346e-11
-1.65512e-11
-1.53979e-11
-1.58809e-11
-1.46889e-11
-1.52309e-11
-1.60296e-11
-1.52186e-11
-1.51791e-11
-1.55099e-11
-1.48569e-11
-1.42601e-11
-1.48044e-11
-1.42396e-11
-1.44038e-11
-1.48096e-11
-1.57458e-11
-1.5547e-11
-1.606e-11
-1.54165e-11
-1.49248e-11
-1.44191e-11
-1.54162e-11
-1.57131e-11
-1.46582e-11
-1.43564e-11
-1.55398e-11
-1.53558e-11
-1.58884e-11
-1.46476e-11
-1.41682e-11
-1.47938e-11
-1.51096e-11
-1.44834e-11
-1.54603e-11
-1.40923e-11
-1.44892e-11
-1.43823e-11
-1.26201e-11
-1.14554e-11
-1.19974e-11
-1.06968e-11
-1.15929e-11
-1.37739e-11
-1.43341e-11
-1.41908e-11
-1.451e-11
-1.43991e-11
-1.50014e-11
-1.43154e-11
-1.49983e-11
-1.38532e-11
-1.27474e-11
-1.22494e-11
-1.19388e-11
-1.15127e-11
-1.18166e-11
-1.25887e-11
-1.25703e-11
-1.51533e-11
-1.49419e-11
-1.58746e-11
-1.61825e-11
-1.68155e-11
-1.66172e-11
-1.75244e-11
-1.71593e-11
-1.72079e-11
-1.77443e-11
-1.68937e-11
-1.6628e-11
-1.61512e-11
-1.58739e-11
-1.59714e-11
-1.47658e-11
-1.56534e-11
-1.59696e-11
-1.50397e-11
-1.3594e-11
-1.45223e-11
-1.3217e-11
-1.2534e-11
-1.10413e-11
-1.09497e-11
-1.11998e-11
-1.13991e-11
-1.15927e-11
-1.01068e-11
-1.09542e-11
-1.11927e-11
-1.0906e-11
-1.13073e-11
-1.16227e-11
-1.12676e-11
-1.05987e-11
-1.16896e-11
-1.11193e-11
-1.10808e-11
-1.10464e-11
-1.08821e-11
-1.11251e-11
-1.10423e-11
-1.10324e-11
-1.05482e-11
-9.49386e-12
-1.01577e-11
-1.01031e-11
-1.0808e-11
-1.05142e-11
-1.09405e-11
-1.12039e-11
-1.07381e-11
-1.07032e-11
-1.06623e-11
-1.08263e-11
-1.07283e-11
-1.07816e-11
-9.62139e-12
-8.77104e-12
-9.21208e-12
-8.84356e-12
-8.73864e-12
-7.50392e-12
-6.4633e-12
-6.5177e-12
-7.58137e-12
-6.91486e-12
-6.34579e-12
-7.37534e-12
-6.75588e-12
-6.23415e-12
-5.36399e-12
-5.42569e-12
-4.18047e-12
-4.49788e-12
-3.89826e-12
-4.09007e-12
-4.04448e-12
-1.90635e-12
-7.5895e-13
1.08815e-12
2.74467e-12
8.48459e-12
1.72646e-11
3.59203e-11
7.29612e-11
1.44872e-10
2.8356e-10
5.47689e-10
1.05117e-09
2.00279e-09
3.79136e-09
7.12871e-09
1.33211e-08
2.47336e-08
4.56333e-08
8.36524e-08
1.52354e-07
2.75659e-07
4.95453e-07
8.84515e-07
1.56835e-06
2.76169e-06
4.82905e-06
8.38413e-06
1.44518e-05
2.47288e-05
4.20006e-05
7.07997e-05
0.000118434
0.00019658
0.000323714
0.000528793
0.000856745
0.00137656
0.00219305
0.00346374
0.00542265
0.00841336
0.0129343
0.0196989
0.0297157
0.0443896
0.0656495
0.0961032
0.139219
0.19953
0.282851
0.396497
0.549474
0.752618
1.01865
1.36209
1.79903
2.34674
3.02301
3.84547
4.83063
5.993
7.34426
8.89248
10.6417
12.5918
14.7384
17.0736
19.5861
22.2624
25.0876
28.0464
31.1236
34.3049
37.5768
40.927
44.3441
47.8183
51.3407
54.9034
58.4995
62.1231
65.7689
69.4322
73.1091
76.7961
80.4902
84.1885
87.8889
91.5892
95.2877
98.9826
102.673
106.356
110.033
113.701
117.36
121.009
124.647
128.273
131.887
135.488
139.076
142.65
146.21
149.754
153.284
156.798
160.296
163.777
167.242
170.69
174.121
177.534
180.929
184.306
187.665
191.005
194.327
197.63
200.913
204.178
207.423
210.648
213.854
217.04
220.206
223.352
226.478
229.584
232.669
235.735
238.779
241.804
244.808
247.791
250.754
253.696
256.618
259.519
262.4
265.26
268.099
270.918
273.716
276.493
279.251
281.987
284.703
287.399
290.074
292.728
295.363
297.976
300.57
303.143
305.697
308.229
310.742
313.235
315.708
318.16
320.593
323.006
325.399
327.772
330.126
332.46
334.774
337.069
339.345
341.601
343.837
346.054
348.253
350.432
352.591
354.732
356.854
358.957
361.041
363.107
365.153
367.181
369.191
371.182
373.154
375.109
377.045
378.962
380.862
382.743
384.607
386.453
388.28
390.09
391.882
393.657
395.414
397.153
398.875
400.58
402.267
403.938
405.591
407.227
408.845
410.447
412.033
413.601
415.152
416.687
418.206
419.708
421.193
422.662
424.115
425.551
426.972
428.376
429.764
431.137
432.493
433.834
435.159
436.468
437.762
439.04
440.303
441.551
442.783
444
445.201
446.388
447.56
448.716
449.858
450.985
452.097
453.195
454.278
455.347
456.401
457.44
458.466
459.477
460.473
461.456
462.425
463.38
464.32
465.247
466.161
467.06
467.946
468.818
469.677
470.522
471.354
472.173
472.978
473.77
474.55
475.316
476.069
476.809
477.536
478.251
478.953
479.642
480.319
480.983
481.634
482.274
482.901
483.515
484.118
484.708
485.287
485.853
486.407
486.95
487.48
487.999
488.507
489.002
489.486
489.959
490.42
490.87
491.308
491.735
492.151
492.556
492.95
493.333
493.704
494.065
494.415
494.755
495.083
495.401
495.708
496.005
496.291
496.567
496.833
497.088
497.332
497.567
497.791
498.006
498.21
498.404
498.588
498.762
498.926
499.08
499.224
499.359
499.483
499.598
499.702
499.797
499.882
499.957
500.022
500.076
500.121
500.155
500.179
500.193
500.196
500.188
500.169
500.14
500.101
500.051
499.991
499.922
499.845
499.762
499.674
499.584
499.494
499.409
499.332
499.266
499.215
499.179
499.161
499.159
499.171
499.195
499.225
499.258
499.29
499.318
499.339
499.351
499.356
499.354
499.346
499.334
499.321
499.311
499.304
499.304
499.312
499.329
499.354
499.387
499.423
499.459
499.491
499.515
499.526
499.524
499.506
499.474
499.431
499.38
499.326
499.275
499.231
499.198
499.181
499.182
499.2
499.235
499.283
499.339
499.398
499.452
499.495
499.522
499.53
499.518
499.487
499.442
499.388
499.332
499.279
499.237
499.21
499.201
499.21
499.236
499.275
499.321
499.367
499.408
499.438
499.453
499.452
499.434
499.404
499.365
499.324
499.286
499.257
499.24
499.236
499.246
499.267
499.294
499.324
499.35
499.37
499.379
499.377
499.364
499.343
499.318
499.292
499.27
499.255
499.248
499.251
499.26
499.274
499.29
499.304
499.313
499.316
499.311
499.301
499.287
499.271
499.256
499.244
499.237
499.235
499.238
499.243
499.25
499.255
499.257
499.256
499.251
499.242
499.232
499.221
499.211
499.204
499.199
499.197
499.196
499.196
499.196
499.194
499.19
499.183
499.175
499.166
499.157
499.148
499.141
499.134
499.129
499.124
499.119
499.113
499.106
499.097
499.087
499.077
499.066
499.054
499.044
499.033
499.022
499.012
499
498.988
498.974
498.959
498.943
498.926
498.908
498.89
498.871
498.85
498.829
498.806
498.782
498.755
498.726
498.695
498.661
498.625
498.585
498.542
498.495
498.443
498.385
498.318
498.239
498.138
498.004
497.814
497.532
497.108
496.468
495.513
494.116
492.122
489.356
485.632
480.769
474.614
467.066
458.093
447.757
436.211
423.703
410.555
397.137
383.84
371.045
359.094
348.269
338.78
330.756
324.244
319.217
315.575
313.163
311.785
311.217
311.232
311.615
312.18
312.781
313.319
313.738
314.02
314.175
314.228
314.214
314.162
314.098
314.039
313.994
313.967
313.954
313.952
313.957
313.965
313.973
313.979
313.983
313.986
313.987
313.988
313.988
313.989
313.99
313.991
313.992
313.993
313.995
313.996
313.997
313.998
313.999
313.999
314
314.001
314.001
314.002
314.002
314.003
314.003
314.003
314.004
314.004
314.004
314.004
314.005
314.005
314.005
314.005
314.005
314.006
314.006
314.006
314.006
314.006
314.007
314.007
314.007
314.007
314.008
314.008
314.008
314.008
314.008
314.009
314.009
314.009
314.009
314.01
314.01
314.01
314.01
314.011
314.011
314.011
314.011
314.011
314.012
314.012
314.012
314.012
314.012
314.012
314.013
314.013
314.013
314.013
314.013
314.014
314.014
314.014
314.014
314.014
314.014
314.014
314.015
314.015
314.015
314.015
314.015
314.016
314.016
314.016
314.016
314.017
314.017
314.017
314.017
314.017
314.018
314.018
314.018
314.018
314.018
314.019
314.019
314.019
314.019
314.02
314.02
314.02
314.021
314.021
314.021
314.021
314.022
314.022
314.022
314.022
314.022
314.023
314.023
314.023
314.024
314.024
314.024
314.024
314.025
314.025
314.024
314.024
314.028
314.022
314.011
314.026
314.033
313.967
313.965
314.112
313.951
313.551
314.144
314.625
312.236
312.015
318.249
313.052
296.341
320.45
348.933
226.324
74.9818
15.6324
2.55923
0.416695
0.0688837
0.0114014
0.0018867
0.00031217
5.16493e-05
8.5454e-06
1.41384e-06
2.33919e-07
3.87013e-08
6.40237e-09
1.05861e-09
1.74496e-10
2.82278e-11
4.12064e-12
-2.46861e-13
-8.38455e-13
-7.41601e-13
-7.89501e-13
-8.48157e-13
-7.28706e-13
-6.368e-13
-6.1563e-13
-6.30359e-13
-6.89023e-13
-7.59764e-13
-9.1114e-13
-1.05097e-12
-1.02228e-12
-1.05565e-12
-1.08584e-12
-9.92605e-13
-1.01e-12
-9.15867e-13
-9.21989e-13
-9.40218e-13
-9.29245e-13
-9.53351e-13
-9.47296e-13
-8.94665e-13
-8.59267e-13
-8.82271e-13
-8.39758e-13
-6.74117e-13
-3.69167e-13
-2.94507e-13
-2.20701e-13
8.4292e-14
2.48599e-13
1.44635e-13
1.04788e-13
8.81251e-14
1.60002e-13
3.24889e-13
4.49961e-13
7.0222e-13
8.98297e-13
8.39828e-13
7.23806e-13
7.71799e-13
6.43799e-13
3.99003e-13
2.85024e-13
2.33501e-13
6.28021e-14
-1.73139e-13
-1.50051e-13
-1.58591e-13
-1.53461e-13
-1.66586e-13
-1.53621e-13
-1.11497e-13
-2.37434e-13
-3.30242e-13
-3.54057e-13
-5.18932e-13
-5.91797e-13
-6.25438e-13
-6.72726e-13
-7.00753e-13
-6.00542e-13
-5.69228e-13
-4.75407e-13
-4.11729e-13
-4.67621e-13
-4.78252e-13
-5.20393e-13
-4.95421e-13
-3.60099e-13
-3.50712e-13
-7.91151e-14
-6.62508e-14
-2.00492e-13
-2.85829e-13
-2.19624e-13
-1.16547e-13
-1.10907e-13
-1.15342e-13
-3.30663e-14
-3.0936e-14
-4.73049e-14
-3.70127e-14
-1.2064e-13
-1.92997e-13
-3.1293e-13
-3.08182e-13
-4.43753e-13
-4.98416e-13
-6.92949e-13
-9.40112e-13
-1.30782e-12
-1.46227e-12
-1.25986e-12
-1.0727e-12
)
;

boundaryField
{
    sides
    {
        type            calculated;
        value           nonuniform List<scalar> 2(-8.73115e-13 1.14087e-11);
    }
    empty
    {
        type            empty;
    }
}


// ************************************************************************* //
