/*--------------------------------*- C++ -*----------------------------------*\
  =========                 |
  \\      /  F ield         | OpenFOAM: The Open Source CFD Toolbox
   \\    /   O peration     | Website:  https://openfoam.org
    \\  /    A nd           | Version:  13
     \\/     M anipulation  |
\*---------------------------------------------------------------------------*/
FoamFile
{
    format      ascii;
    class       volScalarField;
    location    "0.007";
    object      rho;
}
// * * * * * * * * * * * * * * * * * * * * * * * * * * * * * * * * * * * * * //

dimensions      [1 -3 0 0 0 0 0];

internalField   nonuniform List<scalar> 
1000
(
0.997575
0.997575
0.997575
0.997575
0.997575
0.997575
0.997575
0.997575
0.997575
0.997575
0.997575
0.997575
0.997575
0.997575
0.997575
0.997575
0.997575
0.997575
0.997575
0.997575
0.997575
0.997575
0.997575
0.997575
0.997575
0.997575
0.997575
0.997575
0.997575
0.997575
0.997575
0.997575
0.997575
0.997575
0.997575
0.997575
0.997575
0.997575
0.997575
0.997575
0.997575
0.997575
0.997575
0.997575
0.997575
0.997575
0.997575
0.997575
0.997575
0.997575
0.997575
0.997575
0.997575
0.997575
0.997575
0.997575
0.997575
0.997575
0.997575
0.997575
0.997575
0.997575
0.997575
0.997575
0.997575
0.997575
0.997575
0.997575
0.997575
0.997575
0.997575
0.997575
0.997575
0.997575
0.997575
0.997575
0.997575
0.997575
0.997575
0.997575
0.997575
0.997575
0.997575
0.997575
0.997575
0.997575
0.997575
0.997575
0.997575
0.997575
0.997575
0.997575
0.997575
0.997575
0.997575
0.997575
0.997575
0.997575
0.997575
0.997575
0.997575
0.997575
0.997575
0.997575
0.997575
0.997575
0.997575
0.997575
0.997575
0.997575
0.997575
0.997575
0.997575
0.997575
0.997575
0.997575
0.997575
0.997575
0.997575
0.997575
0.997575
0.997575
0.997575
0.997575
0.997575
0.997575
0.997575
0.997575
0.997575
0.997575
0.997575
0.997575
0.997575
0.997575
0.997575
0.997575
0.997575
0.997575
0.997575
0.997575
0.997575
0.997575
0.997575
0.997575
0.997575
0.997575
0.997575
0.997575
0.997575
0.997575
0.997575
0.997575
0.997575
0.997575
0.997575
0.997575
0.997575
0.997575
0.997575
0.997575
0.997575
0.997575
0.997575
0.997575
0.997575
0.997575
0.997575
0.997575
0.997575
0.997575
0.997575
0.997575
0.997575
0.997575
0.997575
0.997575
0.997575
0.997575
0.997575
0.997575
0.997575
0.997575
0.997575
0.997575
0.997575
0.997575
0.997575
0.997575
0.997575
0.997575
0.997575
0.997575
0.997575
0.997575
0.997575
0.997575
0.997575
0.997575
0.997575
0.997574
0.997574
0.997574
0.997574
0.997574
0.997574
0.997573
0.997572
0.997571
0.997569
0.997566
0.997562
0.997556
0.997546
0.997533
0.997513
0.997486
0.997447
0.997394
0.997321
0.997222
0.997091
0.99692
0.996697
0.996414
0.996058
0.995618
0.995081
0.994437
0.993675
0.992786
0.991765
0.990609
0.989316
0.987888
0.986329
0.984647
0.98285
0.980946
0.978945
0.976858
0.974692
0.972457
0.970161
0.96781
0.965412
0.962972
0.960495
0.957986
0.955449
0.952887
0.950303
0.9477
0.94508
0.942446
0.939798
0.937139
0.93447
0.931792
0.929106
0.926413
0.923715
0.921011
0.918303
0.915591
0.912875
0.910157
0.907437
0.904715
0.901991
0.899267
0.896542
0.893816
0.891091
0.888366
0.885641
0.882918
0.880195
0.877475
0.874755
0.872038
0.869323
0.86661
0.8639
0.861193
0.858488
0.855787
0.853088
0.850394
0.847703
0.845015
0.842332
0.839652
0.836977
0.834306
0.831639
0.828977
0.826319
0.823666
0.821018
0.818374
0.815736
0.813103
0.810474
0.807851
0.805233
0.80262
0.800013
0.797411
0.794814
0.792223
0.789638
0.787058
0.784483
0.781915
0.779352
0.776794
0.774243
0.771697
0.769157
0.766622
0.764094
0.761571
0.759055
0.756544
0.754039
0.75154
0.749047
0.74656
0.744079
0.741603
0.739134
0.736671
0.734214
0.731763
0.729318
0.726879
0.724446
0.722019
0.719598
0.717183
0.714774
0.712371
0.709974
0.707584
0.705199
0.702821
0.700448
0.698082
0.695721
0.693367
0.691019
0.688677
0.686341
0.684011
0.681687
0.679369
0.677057
0.674751
0.672452
0.670158
0.66787
0.665589
0.663313
0.661043
0.65878
0.656522
0.654271
0.652026
0.649786
0.647553
0.645325
0.643104
0.640888
0.638679
0.636475
0.634278
0.632086
0.629901
0.627721
0.625547
0.62338
0.621218
0.619062
0.616912
0.614768
0.61263
0.610498
0.608371
0.606251
0.604136
0.602028
0.599925
0.597828
0.595737
0.593652
0.591572
0.589499
0.587431
0.585369
0.583313
0.581263
0.579219
0.57718
0.575147
0.573121
0.571099
0.569084
0.567074
0.56507
0.563072
0.56108
0.559093
0.557113
0.555138
0.553168
0.551205
0.549247
0.547295
0.545348
0.543408
0.541473
0.539544
0.53762
0.535702
0.53379
0.531884
0.529983
0.528088
0.526199
0.524316
0.522438
0.520566
0.518699
0.516839
0.514984
0.513134
0.511291
0.509453
0.507621
0.505795
0.503975
0.50216
0.500351
0.498548
0.496751
0.494959
0.493174
0.491394
0.489621
0.487853
0.486091
0.484335
0.482585
0.480841
0.479104
0.477372
0.475647
0.473928
0.472215
0.470509
0.468809
0.467115
0.465429
0.463749
0.462076
0.46041
0.458751
0.4571
0.455456
0.453819
0.452191
0.45057
0.448959
0.447356
0.445762
0.444177
0.442603
0.441039
0.439487
0.437946
0.436418
0.434903
0.433403
0.431919
0.430452
0.429004
0.427577
0.426173
0.424795
0.423446
0.422128
0.420848
0.419609
0.418417
0.41728
0.416205
0.415203
0.414283
0.41346
0.412748
0.412165
0.411731
0.411467
0.411398
0.41155
0.411949
0.412622
0.413591
0.414872
0.41647
0.418375
0.420557
0.42296
0.425502
0.428073
0.430543
0.432769
0.434608
0.435937
0.436666
0.436752
0.436206
0.435087
0.433497
0.431563
0.429427
0.42723
0.425106
0.423173
0.421531
0.420259
0.419415
0.419036
0.419131
0.41969
0.420672
0.42201
0.423611
0.425357
0.427115
0.428745
0.430113
0.431107
0.431652
0.431718
0.431322
0.430528
0.429432
0.428155
0.426824
0.425561
0.424475
0.423652
0.423152
0.423003
0.423202
0.423711
0.424468
0.425385
0.426362
0.427293
0.428081
0.428647
0.428941
0.428946
0.428681
0.428196
0.427564
0.426868
0.426194
0.42562
0.425204
0.424986
0.424977
0.425164
0.42551
0.42596
0.42645
0.426913
0.42729
0.427538
0.427632
0.427571
0.427377
0.427087
0.42675
0.426418
0.426136
0.425941
0.425853
0.425876
0.425996
0.426188
0.426417
0.426643
0.426831
0.426957
0.427004
0.426973
0.426875
0.426733
0.426573
0.426424
0.426309
0.426243
0.426234
0.426276
0.426357
0.426459
0.426561
0.426646
0.426698
0.426711
0.426687
0.426634
0.426563
0.42649
0.426429
0.426388
0.426374
0.426386
0.426418
0.426462
0.426506
0.426541
0.42656
0.426561
0.426545
0.426516
0.426482
0.426449
0.426424
0.42641
0.426408
0.426417
0.426433
0.426449
0.426462
0.426468
0.426466
0.426455
0.426438
0.42642
0.426402
0.426389
0.426381
0.426378
0.42638
0.426382
0.426384
0.426383
0.426378
0.426369
0.426357
0.426343
0.42633
0.426318
0.426308
0.4263
0.426294
0.426287
0.42628
0.42627
0.426258
0.426244
0.426229
0.426213
0.426196
0.42618
0.426163
0.426147
0.426129
0.426111
0.42609
0.426066
0.426041
0.426013
0.425983
0.425951
0.425916
0.425879
0.425838
0.425793
0.425743
0.425683
0.425612
0.42552
0.425395
0.425216
0.424949
0.424548
0.423943
0.423045
0.42174
0.419893
0.41735
0.413955
0.409558
0.404037
0.39732
0.389398
0.38034
0.370298
0.359496
0.348219
0.336788
0.325535
0.314776
0.304793
0.29581
0.287991
0.281428
0.276148
0.272111
0.269224
0.267346
0.266306
0.265914
0.26598
0.266327
0.266805
0.267299
0.267731
0.268061
0.268278
0.268392
0.268427
0.26841
0.268365
0.268313
0.268266
0.268232
0.268211
0.268203
0.268202
0.268207
0.268213
0.268219
0.268224
0.268227
0.268229
0.26823
0.26823
0.268231
0.268231
0.268232
0.268233
0.268234
0.268235
0.268236
0.268237
0.268238
0.268239
0.26824
0.26824
0.268241
0.268241
0.268242
0.268242
0.268242
0.268243
0.268243
0.268243
0.268243
0.268244
0.268244
0.268244
0.268244
0.268245
0.268245
0.268245
0.268245
0.268245
0.268245
0.268246
0.268246
0.268246
0.268246
0.268246
0.268246
0.268247
0.268247
0.268247
0.268247
0.268247
0.268247
0.268247
0.268248
0.268248
0.268248
0.268248
0.268248
0.268248
0.268249
0.268249
0.268249
0.268249
0.268249
0.268249
0.268249
0.268249
0.268249
0.26825
0.26825
0.26825
0.26825
0.26825
0.26825
0.26825
0.268251
0.268251
0.268251
0.268251
0.268251
0.268251
0.268251
0.268251
0.268251
0.268251
0.268252
0.268252
0.268252
0.268252
0.268252
0.268252
0.268252
0.268252
0.268252
0.268252
0.268253
0.268253
0.268253
0.268253
0.268253
0.268253
0.268253
0.268253
0.268253
0.268253
0.268253
0.268253
0.268254
0.268254
0.268254
0.268254
0.268254
0.268254
0.268254
0.268254
0.268255
0.268255
0.268255
0.268255
0.268255
0.268255
0.268255
0.268256
0.268256
0.268256
0.268256
0.268256
0.268255
0.268255
0.268256
0.268255
0.268251
0.268255
0.268259
0.268236
0.268229
0.268279
0.268231
0.268074
0.268255
0.268475
0.267662
0.267394
0.269586
0.268182
0.26179
0.269089
0.280708
0.237841
0.169023
0.135156
0.126524
0.124991
0.124745
0.124705
0.124698
0.124697
0.124697
0.124697
0.124697
0.124697
0.124697
0.124697
0.124697
0.124697
0.124697
0.124697
0.124697
0.124697
0.124697
0.124697
0.124697
0.124697
0.124697
0.124697
0.124697
0.124697
0.124697
0.124697
0.124697
0.124697
0.124697
0.124697
0.124697
0.124697
0.124697
0.124697
0.124697
0.124697
0.124697
0.124697
0.124697
0.124697
0.124697
0.124697
0.124697
0.124697
0.124697
0.124697
0.124697
0.124697
0.124697
0.124697
0.124697
0.124697
0.124697
0.124697
0.124697
0.124697
0.124697
0.124697
0.124697
0.124697
0.124697
0.124697
0.124697
0.124697
0.124697
0.124697
0.124697
0.124697
0.124697
0.124697
0.124697
0.124697
0.124697
0.124697
0.124697
0.124697
0.124697
0.124697
0.124697
0.124697
0.124697
0.124697
0.124697
0.124697
0.124697
0.124697
0.124697
0.124697
0.124697
0.124697
0.124697
0.124697
0.124697
0.124697
0.124697
0.124697
0.124697
0.124697
0.124697
0.124697
0.124697
0.124697
0.124697
0.124697
0.124697
0.124697
0.124697
0.124697
0.124697
0.124697
0.124697
0.124697
0.124697
)
;

boundaryField
{
    sides
    {
        type            calculated;
        value           nonuniform List<scalar> 2(0.124697 0.997575);
    }
    empty
    {
        type            empty;
    }
}


// ************************************************************************* //
