/*--------------------------------*- C++ -*----------------------------------*\
  =========                 |
  \\      /  F ield         | OpenFOAM: The Open Source CFD Toolbox
   \\    /   O peration     | Website:  https://openfoam.org
    \\  /    A nd           | Version:  13
     \\/     M anipulation  |
\*---------------------------------------------------------------------------*/
FoamFile
{
    format      ascii;
    class       volScalarField;
    location    "0.007";
    object      rho_0;
}
// * * * * * * * * * * * * * * * * * * * * * * * * * * * * * * * * * * * * * //

dimensions      [1 -3 0 0 0 0 0];

internalField   nonuniform List<scalar> 
1000
(
0.997575
0.997575
0.997575
0.997575
0.997575
0.997575
0.997575
0.997575
0.997575
0.997575
0.997575
0.997575
0.997575
0.997575
0.997575
0.997575
0.997575
0.997575
0.997575
0.997575
0.997575
0.997575
0.997575
0.997575
0.997575
0.997575
0.997575
0.997575
0.997575
0.997575
0.997575
0.997575
0.997575
0.997575
0.997575
0.997575
0.997575
0.997575
0.997575
0.997575
0.997575
0.997575
0.997575
0.997575
0.997575
0.997575
0.997575
0.997575
0.997575
0.997575
0.997575
0.997575
0.997575
0.997575
0.997575
0.997575
0.997575
0.997575
0.997575
0.997575
0.997575
0.997575
0.997575
0.997575
0.997575
0.997575
0.997575
0.997575
0.997575
0.997575
0.997575
0.997575
0.997575
0.997575
0.997575
0.997575
0.997575
0.997575
0.997575
0.997575
0.997575
0.997575
0.997575
0.997575
0.997575
0.997575
0.997575
0.997575
0.997575
0.997575
0.997575
0.997575
0.997575
0.997575
0.997575
0.997575
0.997575
0.997575
0.997575
0.997575
0.997575
0.997575
0.997575
0.997575
0.997575
0.997575
0.997575
0.997575
0.997575
0.997575
0.997575
0.997575
0.997575
0.997575
0.997575
0.997575
0.997575
0.997575
0.997575
0.997575
0.997575
0.997575
0.997575
0.997575
0.997575
0.997575
0.997575
0.997575
0.997575
0.997575
0.997575
0.997575
0.997575
0.997575
0.997575
0.997575
0.997575
0.997575
0.997575
0.997575
0.997575
0.997575
0.997575
0.997575
0.997575
0.997575
0.997575
0.997575
0.997575
0.997575
0.997575
0.997575
0.997575
0.997575
0.997575
0.997575
0.997575
0.997575
0.997575
0.997575
0.997575
0.997575
0.997575
0.997575
0.997575
0.997575
0.997575
0.997575
0.997575
0.997575
0.997575
0.997575
0.997575
0.997575
0.997575
0.997575
0.997575
0.997575
0.997575
0.997575
0.997575
0.997575
0.997575
0.997575
0.997575
0.997575
0.997575
0.997575
0.997575
0.997575
0.997575
0.997575
0.997575
0.997575
0.997575
0.997575
0.997575
0.997575
0.997575
0.997574
0.997574
0.997574
0.997574
0.997574
0.997574
0.997573
0.997573
0.997572
0.99757
0.997568
0.997564
0.997558
0.99755
0.997539
0.997522
0.997498
0.997464
0.997416
0.997351
0.997264
0.997146
0.996991
0.996789
0.99653
0.996203
0.995796
0.995297
0.994694
0.993977
0.993136
0.992165
0.991058
0.989815
0.988436
0.986924
0.985285
0.983528
0.98166
0.979692
0.977633
0.975493
0.973279
0.971002
0.968667
0.966283
0.963854
0.961387
0.958886
0.956355
0.953799
0.951219
0.948619
0.946002
0.943369
0.940722
0.938063
0.935394
0.932715
0.930028
0.927335
0.924634
0.921929
0.919218
0.916504
0.913786
0.911065
0.908342
0.905617
0.90289
0.900162
0.897433
0.894704
0.891975
0.889246
0.886518
0.883791
0.881064
0.878339
0.875616
0.872894
0.870175
0.867457
0.864743
0.862031
0.859321
0.856615
0.853912
0.851213
0.848517
0.845825
0.843136
0.840452
0.837772
0.835096
0.832424
0.829757
0.827094
0.824436
0.821782
0.819134
0.81649
0.813852
0.811218
0.80859
0.805967
0.803349
0.800737
0.79813
0.795528
0.792932
0.790341
0.787756
0.785176
0.782602
0.780034
0.777472
0.774915
0.772364
0.769819
0.767279
0.764746
0.762218
0.759696
0.757181
0.754671
0.752167
0.749669
0.747177
0.74469
0.74221
0.739736
0.737268
0.734806
0.73235
0.7299
0.727456
0.725018
0.722586
0.72016
0.717741
0.715327
0.712919
0.710518
0.708123
0.705733
0.70335
0.700973
0.698602
0.696237
0.693878
0.691525
0.689178
0.686837
0.684503
0.682174
0.679852
0.677535
0.675225
0.672921
0.670623
0.668331
0.666044
0.663764
0.661491
0.659223
0.656961
0.654705
0.652455
0.650211
0.647974
0.645742
0.643516
0.641296
0.639083
0.636875
0.634673
0.632477
0.630288
0.628104
0.625926
0.623754
0.621588
0.619428
0.617274
0.615126
0.612984
0.610848
0.608718
0.606593
0.604475
0.602362
0.600255
0.598155
0.59606
0.593971
0.591887
0.58981
0.587739
0.585673
0.583613
0.581559
0.579511
0.577469
0.575432
0.573402
0.571377
0.569358
0.567344
0.565337
0.563335
0.561339
0.559349
0.557365
0.555386
0.553413
0.551446
0.549485
0.547529
0.54558
0.543636
0.541697
0.539765
0.537838
0.535917
0.534001
0.532091
0.530187
0.528289
0.526397
0.52451
0.522629
0.520754
0.518884
0.51702
0.515162
0.51331
0.511463
0.509622
0.507787
0.505958
0.504134
0.502316
0.500505
0.498698
0.496898
0.495104
0.493315
0.491533
0.489756
0.487985
0.48622
0.484461
0.482709
0.480962
0.479221
0.477487
0.475759
0.474037
0.472322
0.470612
0.46891
0.467214
0.465524
0.463842
0.462166
0.460497
0.458836
0.457182
0.455535
0.453896
0.452265
0.450642
0.449027
0.447422
0.445825
0.444238
0.442662
0.441095
0.43954
0.437997
0.436466
0.434949
0.433447
0.43196
0.430491
0.42904
0.427611
0.426204
0.424824
0.423472
0.422152
0.420869
0.419627
0.418433
0.417294
0.416216
0.415211
0.414289
0.413463
0.412749
0.412163
0.411726
0.411459
0.411388
0.411537
0.411934
0.412605
0.413572
0.414851
0.416448
0.418353
0.420535
0.422939
0.425483
0.428057
0.43053
0.43276
0.434604
0.435937
0.436669
0.436758
0.436214
0.435096
0.433505
0.43157
0.429432
0.427233
0.425107
0.423172
0.421529
0.420256
0.419412
0.419033
0.41913
0.41969
0.420674
0.422014
0.423617
0.425365
0.427124
0.428754
0.430121
0.431113
0.431655
0.431717
0.431318
0.43052
0.429422
0.428143
0.426811
0.425548
0.424464
0.423644
0.423148
0.423003
0.423206
0.42372
0.42448
0.425399
0.426376
0.427306
0.428092
0.428654
0.428943
0.428943
0.428674
0.428185
0.427551
0.426854
0.426181
0.425609
0.425198
0.424984
0.42498
0.425171
0.42552
0.425972
0.426462
0.426923
0.427298
0.427542
0.427631
0.427567
0.427369
0.427078
0.42674
0.426408
0.426128
0.425936
0.425852
0.425878
0.426001
0.426195
0.426424
0.426649
0.426836
0.426959
0.427004
0.42697
0.42687
0.426726
0.426567
0.426418
0.426305
0.426241
0.426234
0.426278
0.42636
0.426463
0.426565
0.426648
0.426698
0.42671
0.426685
0.42663
0.426559
0.426487
0.426426
0.426386
0.426374
0.426387
0.42642
0.426463
0.426507
0.426541
0.42656
0.42656
0.426543
0.426514
0.426479
0.426446
0.426422
0.426409
0.426408
0.426417
0.426433
0.426449
0.426462
0.426467
0.426464
0.426453
0.426436
0.426418
0.4264
0.426387
0.42638
0.426377
0.426378
0.426381
0.426383
0.426381
0.426376
0.426366
0.426354
0.42634
0.426327
0.426315
0.426305
0.426298
0.426291
0.426284
0.426277
0.426267
0.426255
0.42624
0.426225
0.426208
0.426192
0.426175
0.426158
0.426142
0.426124
0.426104
0.426083
0.426059
0.426033
0.426005
0.425974
0.425941
0.425906
0.425868
0.425826
0.425779
0.425726
0.425664
0.425588
0.425488
0.42535
0.42515
0.424851
0.424399
0.423721
0.422719
0.421273
0.419242
0.416469
0.412797
0.408084
0.402219
0.395146
0.386879
0.37751
0.367214
0.356235
0.344872
0.333452
0.322306
0.311743
0.302028
0.29337
0.285912
0.279726
0.274819
0.271135
0.268563
0.266954
0.266128
0.265893
0.266061
0.266462
0.266956
0.267438
0.267842
0.268138
0.268322
0.26841
0.268426
0.268398
0.268349
0.268298
0.268255
0.268224
0.268208
0.268202
0.268203
0.268208
0.268215
0.268221
0.268225
0.268228
0.268229
0.26823
0.268231
0.268231
0.268232
0.268232
0.268233
0.268235
0.268236
0.268237
0.268238
0.268238
0.268239
0.26824
0.26824
0.268241
0.268241
0.268242
0.268242
0.268242
0.268243
0.268243
0.268243
0.268244
0.268244
0.268244
0.268244
0.268244
0.268245
0.268245
0.268245
0.268245
0.268245
0.268246
0.268246
0.268246
0.268246
0.268246
0.268246
0.268247
0.268247
0.268247
0.268247
0.268247
0.268247
0.268247
0.268248
0.268248
0.268248
0.268248
0.268248
0.268248
0.268248
0.268249
0.268249
0.268249
0.268249
0.268249
0.268249
0.268249
0.268249
0.268249
0.26825
0.26825
0.26825
0.26825
0.26825
0.26825
0.26825
0.268251
0.268251
0.268251
0.268251
0.268251
0.268251
0.268251
0.268251
0.268251
0.268252
0.268252
0.268252
0.268252
0.268252
0.268252
0.268252
0.268252
0.268252
0.268252
0.268253
0.268253
0.268253
0.268253
0.268253
0.268253
0.268253
0.268253
0.268253
0.268253
0.268253
0.268253
0.268254
0.268254
0.268254
0.268254
0.268254
0.268254
0.268254
0.268254
0.268254
0.268255
0.268255
0.268255
0.268255
0.268255
0.268255
0.268256
0.268256
0.268256
0.268256
0.268256
0.268256
0.268255
0.268256
0.268256
0.268252
0.268251
0.268259
0.268249
0.268225
0.268256
0.268279
0.268134
0.268111
0.268453
0.26815
0.267212
0.268471
0.269837
0.264391
0.263036
0.278705
0.26548
0.197693
0.145829
0.128827
0.125368
0.124806
0.124715
0.1247
0.124697
0.124697
0.124697
0.124697
0.124697
0.124697
0.124697
0.124697
0.124697
0.124697
0.124697
0.124697
0.124697
0.124697
0.124697
0.124697
0.124697
0.124697
0.124697
0.124697
0.124697
0.124697
0.124697
0.124697
0.124697
0.124697
0.124697
0.124697
0.124697
0.124697
0.124697
0.124697
0.124697
0.124697
0.124697
0.124697
0.124697
0.124697
0.124697
0.124697
0.124697
0.124697
0.124697
0.124697
0.124697
0.124697
0.124697
0.124697
0.124697
0.124697
0.124697
0.124697
0.124697
0.124697
0.124697
0.124697
0.124697
0.124697
0.124697
0.124697
0.124697
0.124697
0.124697
0.124697
0.124697
0.124697
0.124697
0.124697
0.124697
0.124697
0.124697
0.124697
0.124697
0.124697
0.124697
0.124697
0.124697
0.124697
0.124697
0.124697
0.124697
0.124697
0.124697
0.124697
0.124697
0.124697
0.124697
0.124697
0.124697
0.124697
0.124697
0.124697
0.124697
0.124697
0.124697
0.124697
0.124697
0.124697
0.124697
0.124697
0.124697
0.124697
0.124697
0.124697
0.124697
0.124697
0.124697
0.124697
0.124697
0.124697
0.124697
)
;

boundaryField
{
    sides
    {
        type            calculated;
        value           nonuniform List<scalar> 2(0.124697 0.997575);
    }
    empty
    {
        type            empty;
    }
}


// ************************************************************************* //
