/*--------------------------------*- C++ -*----------------------------------*\
  =========                 |
  \\      /  F ield         | OpenFOAM: The Open Source CFD Toolbox
   \\    /   O peration     | Website:  https://openfoam.org
    \\  /    A nd           | Version:  13
     \\/     M anipulation  |
\*---------------------------------------------------------------------------*/
FoamFile
{
    format      ascii;
    class       volScalarField;
    location    "0.007";
    object      T;
}
// * * * * * * * * * * * * * * * * * * * * * * * * * * * * * * * * * * * * * //

dimensions      [0 0 0 1 0 0 0];

internalField   nonuniform List<scalar> 
1000
(
348.432
348.432
348.432
348.432
348.432
348.432
348.432
348.432
348.432
348.432
348.432
348.432
348.432
348.432
348.432
348.432
348.432
348.432
348.432
348.432
348.432
348.432
348.432
348.432
348.432
348.432
348.432
348.432
348.432
348.432
348.432
348.432
348.432
348.432
348.432
348.432
348.432
348.432
348.432
348.432
348.432
348.432
348.432
348.432
348.432
348.432
348.432
348.432
348.432
348.432
348.432
348.432
348.432
348.432
348.432
348.432
348.432
348.432
348.432
348.432
348.432
348.432
348.432
348.432
348.432
348.432
348.432
348.432
348.432
348.432
348.432
348.432
348.432
348.432
348.432
348.432
348.432
348.432
348.432
348.432
348.432
348.432
348.432
348.432
348.432
348.432
348.432
348.432
348.432
348.432
348.432
348.432
348.432
348.432
348.432
348.432
348.432
348.432
348.432
348.432
348.432
348.432
348.432
348.432
348.432
348.432
348.432
348.432
348.432
348.432
348.432
348.432
348.432
348.432
348.432
348.432
348.432
348.432
348.432
348.432
348.432
348.432
348.432
348.432
348.432
348.432
348.432
348.432
348.432
348.432
348.432
348.432
348.432
348.432
348.432
348.432
348.432
348.432
348.432
348.432
348.432
348.432
348.432
348.432
348.432
348.432
348.432
348.432
348.432
348.432
348.432
348.432
348.432
348.432
348.432
348.432
348.432
348.432
348.432
348.432
348.432
348.432
348.432
348.432
348.432
348.432
348.432
348.432
348.432
348.432
348.432
348.432
348.432
348.432
348.432
348.432
348.432
348.432
348.432
348.432
348.432
348.432
348.432
348.432
348.432
348.432
348.432
348.432
348.432
348.432
348.432
348.432
348.432
348.432
348.432
348.432
348.432
348.432
348.432
348.432
348.432
348.432
348.432
348.432
348.432
348.432
348.432
348.432
348.431
348.431
348.43
348.429
348.428
348.426
348.423
348.42
348.414
348.407
348.396
348.383
348.364
348.34
348.309
348.269
348.22
348.158
348.082
347.992
347.885
347.76
347.617
347.454
347.272
347.071
346.851
346.614
346.36
346.091
345.808
345.512
345.205
344.887
344.561
344.226
343.884
343.535
343.18
342.821
342.457
342.088
341.716
341.341
340.962
340.581
340.197
339.811
339.423
339.032
338.64
338.247
337.851
337.455
337.057
336.657
336.257
335.855
335.452
335.049
334.644
334.239
333.832
333.425
333.017
332.609
332.199
331.79
331.379
330.968
330.557
330.145
329.732
329.319
328.906
328.493
328.079
327.665
327.25
326.835
326.42
326.005
325.59
325.174
324.759
324.343
323.927
323.511
323.095
322.678
322.262
321.846
321.429
321.013
320.597
320.18
319.764
319.348
318.932
318.515
318.099
317.683
317.267
316.851
316.435
316.019
315.604
315.188
314.773
314.358
313.942
313.527
313.112
312.698
312.283
311.868
311.454
311.04
310.626
310.212
309.798
309.385
308.971
308.558
308.145
307.733
307.32
306.908
306.495
306.083
305.671
305.26
304.848
304.437
304.026
303.615
303.205
302.794
302.384
301.974
301.565
301.155
300.746
300.337
299.928
299.519
299.111
298.703
298.295
297.887
297.48
297.073
296.666
296.259
295.853
295.447
295.041
294.635
294.229
293.824
293.419
293.014
292.61
292.206
291.802
291.398
290.995
290.592
290.189
289.786
289.384
288.981
288.58
288.178
287.777
287.376
286.975
286.574
286.174
285.774
285.374
284.975
284.576
284.177
283.778
283.38
282.982
282.584
282.187
281.79
281.393
280.996
280.6
280.204
279.808
279.412
279.017
278.622
278.228
277.834
277.44
277.046
276.653
276.259
275.867
275.474
275.082
274.69
274.299
273.907
273.517
273.126
272.736
272.346
271.956
271.567
271.178
270.789
270.401
270.013
269.625
269.238
268.851
268.464
268.078
267.692
267.307
266.922
266.537
266.152
265.768
265.385
265.001
264.618
264.236
263.854
263.472
263.091
262.71
262.329
261.95
261.57
261.191
260.812
260.434
260.057
259.679
259.303
258.927
258.551
258.176
257.802
257.428
257.055
256.683
256.311
255.94
255.57
255.2
254.831
254.464
254.097
253.731
253.366
253.003
252.64
252.279
251.919
251.561
251.204
250.85
250.497
250.146
249.798
249.452
249.11
248.77
248.435
248.103
247.777
247.455
247.14
246.832
246.532
246.241
245.961
245.694
245.441
245.204
244.987
244.793
244.626
244.489
244.387
244.326
244.312
244.351
244.449
244.612
244.844
245.15
245.529
245.979
246.491
247.05
247.638
248.228
248.79
249.293
249.706
250.003
250.165
250.184
250.062
249.812
249.456
249.022
248.539
248.04
247.555
247.112
246.734
246.44
246.245
246.158
246.181
246.311
246.539
246.848
247.216
247.615
248.014
248.382
248.69
248.913
249.035
249.05
248.962
248.786
248.542
248.256
247.957
247.672
247.427
247.241
247.128
247.094
247.14
247.256
247.428
247.635
247.855
248.064
248.241
248.368
248.434
248.436
248.378
248.271
248.131
247.977
247.828
247.7
247.608
247.56
247.558
247.601
247.679
247.78
247.889
247.993
248.077
248.133
248.155
248.142
248.101
248.038
247.965
247.892
247.831
247.789
247.77
247.777
247.804
247.848
247.899
247.95
247.992
248.021
248.033
248.027
248.007
247.977
247.944
247.913
247.889
247.876
247.875
247.886
247.905
247.929
247.953
247.973
247.986
247.99
247.987
247.977
247.964
247.95
247.939
247.932
247.931
247.935
247.944
247.956
247.968
247.977
247.984
247.987
247.986
247.982
247.978
247.973
247.971
247.971
247.973
247.978
247.985
247.991
247.998
248.002
248.005
248.007
248.007
248.007
248.008
248.009
248.012
248.016
248.021
248.026
248.032
248.037
248.041
248.045
248.048
248.052
248.055
248.06
248.065
248.071
248.077
248.084
248.091
248.098
248.105
248.112
248.119
248.127
248.135
248.144
248.154
248.164
248.176
248.188
248.201
248.214
248.228
248.244
248.261
248.279
248.299
248.321
248.345
248.372
248.402
248.437
248.478
248.532
248.605
248.709
248.865
249.101
249.456
249.985
250.759
251.862
253.396
255.474
258.216
261.744
266.169
271.583
278.05
285.591
294.172
303.699
314.007
324.863
335.967
346.973
357.51
367.219
375.783
382.971
388.653
392.822
395.582
397.127
397.711
397.612
397.093
396.38
395.648
395.009
394.522
394.203
394.035
393.983
394.009
394.075
394.152
394.22
394.271
394.302
394.315
394.315
394.309
394.299
394.291
394.284
394.279
394.276
394.275
394.274
394.273
394.272
394.271
394.27
394.268
394.266
394.265
394.264
394.262
394.261
394.26
394.259
394.259
394.258
394.257
394.257
394.256
394.256
394.255
394.255
394.255
394.254
394.254
394.254
394.254
394.254
394.253
394.253
394.253
394.253
394.253
394.253
394.252
394.252
394.252
394.252
394.251
394.251
394.251
394.251
394.251
394.25
394.25
394.25
394.25
394.25
394.249
394.249
394.249
394.249
394.249
394.249
394.248
394.248
394.248
394.248
394.248
394.248
394.248
394.248
394.248
394.248
394.247
394.247
394.247
394.247
394.247
394.247
394.247
394.247
394.247
394.247
394.247
394.247
394.247
394.247
394.247
394.247
394.247
394.247
394.246
394.246
394.246
394.246
394.246
394.246
394.246
394.246
394.246
394.246
394.246
394.246
394.246
394.246
394.246
394.246
394.246
394.246
394.246
394.246
394.246
394.246
394.246
394.246
394.246
394.246
394.246
394.246
394.246
394.246
394.246
394.246
394.246
394.246
394.246
394.246
394.246
394.246
394.246
394.246
394.246
394.246
394.243
394.244
394.249
394.239
394.225
394.251
394.253
394.148
394.176
394.396
394.076
393.541
394.632
395.038
390.881
391.237
399.507
379.187
321.503
287.213
280.217
278.999
278.788
278.753
278.747
278.746
278.746
278.746
278.746
278.746
278.746
278.746
278.746
278.746
278.746
278.746
278.746
278.746
278.746
278.746
278.746
278.746
278.746
278.746
278.746
278.746
278.746
278.746
278.746
278.746
278.746
278.746
278.746
278.746
278.746
278.746
278.746
278.746
278.746
278.746
278.746
278.746
278.746
278.746
278.746
278.746
278.746
278.746
278.746
278.746
278.746
278.746
278.746
278.746
278.746
278.746
278.746
278.746
278.746
278.746
278.746
278.746
278.746
278.746
278.746
278.746
278.746
278.746
278.746
278.746
278.746
278.746
278.746
278.746
278.746
278.746
278.746
278.746
278.746
278.746
278.746
278.746
278.746
278.746
278.746
278.746
278.746
278.746
278.746
278.746
278.746
278.746
278.746
278.746
278.746
278.746
278.746
278.746
278.746
278.746
278.746
278.746
278.746
278.746
278.746
278.746
278.746
278.746
278.746
278.746
278.746
278.746
278.746
278.746
278.746
)
;

boundaryField
{
    sides
    {
        type            zeroGradient;
    }
    empty
    {
        type            empty;
    }
}


// ************************************************************************* //
