/*--------------------------------*- C++ -*----------------------------------*\
  =========                 |
  \\      /  F ield         | OpenFOAM: The Open Source CFD Toolbox
   \\    /   O peration     | Website:  https://openfoam.org
    \\  /    A nd           | Version:  13
     \\/     M anipulation  |
\*---------------------------------------------------------------------------*/
FoamFile
{
    format      ascii;
    class       volVectorField;
    location    "0.007";
    object      U;
}
// * * * * * * * * * * * * * * * * * * * * * * * * * * * * * * * * * * * * * //

dimensions      [0 1 -1 0 0 0 0];

internalField   nonuniform List<vector> 
1000
(
(-2.88342e-12 0 0)
(-2.73269e-12 0 0)
(-2.96122e-12 0 0)
(-2.57709e-12 0 0)
(-2.86397e-12 0 0)
(-2.63058e-12 0 0)
(-2.93691e-12 0 0)
(-2.77159e-12 0 0)
(-3.09251e-12 0 0)
(-2.78617e-12 0 0)
(-3.17031e-12 0 0)
(-2.82507e-12 0 0)
(-3.15572e-12 0 0)
(-2.67434e-12 0 0)
(-2.62085e-12 0 0)
(-2.12002e-12 0 0)
(-2.14433e-12 0 0)
(-1.85745e-12 0 0)
(-1.90607e-12 0 0)
(-1.67268e-12 0 0)
(-2.18809e-12 0 0)
(-2.09571e-12 0 0)
(-2.53333e-12 0 0)
(-2.87856e-12 0 0)
(-2.78617e-12 0 0)
(-2.96608e-12 0 0)
(-2.8348e-12 0 0)
(-3.30645e-12 0 0)
(-3.46691e-12 0 0)
(-3.86077e-12 0 0)
(-4.27894e-12 0 0)
(-4.23518e-12 0 0)
(-3.93371e-12 0 0)
(-4.04554e-12 0 0)
(-3.75866e-12 0 0)
(-3.87536e-12 0 0)
(-3.82187e-12 0 0)
(-4.02609e-12 0 0)
(-3.55444e-12 0 0)
(-3.95802e-12 0 0)
(-3.69059e-12 0 0)
(-3.8316e-12 0 0)
(-3.49609e-12 0 0)
(-3.68572e-12 0 0)
(-3.64682e-12 0 0)
(-3.4426e-12 0 0)
(-4.01151e-12 0 0)
(-3.63224e-12 0 0)
(-4.2449e-12 0 0)
(-3.79756e-12 0 0)
(-4.01151e-12 0 0)
(-3.46205e-12 0 0)
(-3.88995e-12 0 0)
(-3.72462e-12 0 0)
(-4.00178e-12 0 0)
(-3.4815e-12 0 0)
(-3.97261e-12 0 0)
(-3.71004e-12 0 0)
(-4.04068e-12 0 0)
(-3.65169e-12 0 0)
(-3.7927e-12 0 0)
(-3.39884e-12 0 0)
(-3.98233e-12 0 0)
(-3.58361e-12 0 0)
(-3.97261e-12 0 0)
(-3.51068e-12 0 0)
(-3.77811e-12 0 0)
(-3.71976e-12 0 0)
(-3.35508e-12 0 0)
(-3.13627e-12 0 0)
(-2.85425e-12 0 0)
(-2.90287e-12 0 0)
(-2.62571e-12 0 0)
(-3.16544e-12 0 0)
(-3.37939e-12 0 0)
(-3.47664e-12 0 0)
(-3.676e-12 0 0)
(-3.58361e-12 0 0)
(-3.84618e-12 0 0)
(-3.61279e-12 0 0)
(-3.86563e-12 0 0)
(-3.59334e-12 0 0)
(-3.43288e-12 0 0)
(-3.07306e-12 0 0)
(-3.08764e-12 0 0)
(-3.0293e-12 0 0)
(-2.8737e-12 0 0)
(-3.17031e-12 0 0)
(-3.03902e-12 0 0)
(-3.65655e-12 0 0)
(-3.62251e-12 0 0)
(-4.14765e-12 0 0)
(-3.98233e-12 0 0)
(-4.22545e-12 0 0)
(-4.35188e-12 0 0)
(-4.16224e-12 0 0)
(-4.5561e-12 0 0)
(-4.29353e-12 0 0)
(-4.32756e-12 0 0)
(-4.43454e-12 0 0)
(-4.09903e-12 0 0)
(-4.06013e-12 0 0)
(-3.93857e-12 0 0)
(-4.07472e-12 0 0)
(-3.59334e-12 0 0)
(-4.02609e-12 0 0)
(-3.73921e-12 0 0)
(-3.88508e-12 0 0)
(-3.57875e-12 0 0)
(-3.62251e-12 0 0)
(-3.3648e-12 0 0)
(-3.29673e-12 0 0)
(-2.77645e-12 0 0)
(-2.87856e-12 0 0)
(-2.68892e-12 0 0)
(-2.90773e-12 0 0)
(-2.8348e-12 0 0)
(-2.70351e-12 0 0)
(-2.5625e-12 0 0)
(-2.84452e-12 0 0)
(-2.6792e-12 0 0)
(-2.93691e-12 0 0)
(-2.68406e-12 0 0)
(-2.99526e-12 0 0)
(-2.70837e-12 0 0)
(-2.75214e-12 0 0)
(-2.91746e-12 0 0)
(-2.68406e-12 0 0)
(-2.88342e-12 0 0)
(-2.6403e-12 0 0)
(-2.84452e-12 0 0)
(-2.68406e-12 0 0)
(-2.89801e-12 0 0)
(-2.62085e-12 0 0)
(-2.4847e-12 0 0)
(-2.55764e-12 0 0)
(-2.48957e-12 0 0)
(-2.5625e-12 0 0)
(-2.6792e-12 0 0)
(-2.80076e-12 0 0)
(-2.73269e-12 0 0)
(-2.81535e-12 0 0)
(-2.5236e-12 0 0)
(-2.74727e-12 0 0)
(-2.70351e-12 0 0)
(-2.68406e-12 0 0)
(-2.66461e-12 0 0)
(-2.4847e-12 0 0)
(-2.34369e-12 0 0)
(-2.29021e-12 0 0)
(-2.15892e-12 0 0)
(-2.20754e-12 0 0)
(-1.89635e-12 0 0)
(-1.8769e-12 0 0)
(-1.41011e-12 0 0)
(-1.86717e-12 0 0)
(-1.64836e-12 0 0)
(-1.72616e-12 0 0)
(-1.59974e-12 0 0)
(-1.83314e-12 0 0)
(-1.54139e-12 0 0)
(-1.43928e-12 0 0)
(-1.42469e-12 0 0)
(-1.26423e-12 0 0)
(-1.13295e-12 0 0)
(-1.05029e-12 0 0)
(-1.06974e-12 0 0)
(-1.04056e-12 0 0)
(-7.73127e-13 0 0)
(-2.43122e-13 0 0)
(9.72486e-14 0 0)
(7.87714e-13 0 0)
(1.65809e-12 0 0)
(4.33729e-12 0 0)
(8.48008e-12 0 0)
(1.75582e-11 0 0)
(3.48102e-11 0 0)
(6.81664e-11 0 0)
(1.31937e-10 0 0)
(2.529e-10 0 0)
(4.8212e-10 0 0)
(9.12474e-10 0 0)
(1.71611e-09 0 0)
(3.2064e-09 0 0)
(5.95398e-09 0 0)
(1.09848e-08 0 0)
(2.01375e-08 0 0)
(3.66771e-08 0 0)
(6.63642e-08 0 0)
(1.19286e-07 0 0)
(2.12971e-07 0 0)
(3.77651e-07 0 0)
(6.65061e-07 0 0)
(1.16303e-06 0 0)
(2.01946e-06 0 0)
(3.48138e-06 0 0)
(5.95788e-06 0 0)
(1.01207e-05 0 0)
(1.7063e-05 0 0)
(2.85482e-05 0 0)
(4.7394e-05 0 0)
(7.80612e-05 0 0)
(0.000127543 0 0)
(0.000206693 0 0)
(0.000332185 0 0)
(0.000529362 0 0)
(0.000836327 0 0)
(0.00130972 0 0)
(0.00203273 0 0)
(0.00312612 0 0)
(0.00476291 0 0)
(0.00718772 0 0)
(0.0107417 0 0)
(0.0158937 0 0)
(0.0232779 0 0)
(0.0337392 0 0)
(0.0483828 0 0)
(0.0686288 0 0)
(0.0962667 0 0)
(0.133504 0 0)
(0.183004 0 0)
(0.247902 0 0)
(0.331792 0 0)
(0.438674 0 0)
(0.572866 0 0)
(0.73886 0 0)
(0.941142 0 0)
(1.18399 0 0)
(1.47124 0 0)
(1.8061 0 0)
(2.19094 0 0)
(2.62719 0 0)
(3.11529 0 0)
(3.65466 0 0)
(4.24383 0 0)
(4.88051 0 0)
(5.56182 0 0)
(6.28451 0 0)
(7.04514 0 0)
(7.84029 0 0)
(8.66664 0 0)
(9.52108 0 0)
(10.4007 0 0)
(11.3029 0 0)
(12.2253 0 0)
(13.1658 0 0)
(14.1225 0 0)
(15.0938 0 0)
(16.0782 0 0)
(17.0744 0 0)
(18.0814 0 0)
(19.0982 0 0)
(20.1239 0 0)
(21.1578 0 0)
(22.1992 0 0)
(23.2476 0 0)
(24.3024 0 0)
(25.3632 0 0)
(26.4297 0 0)
(27.5013 0 0)
(28.5779 0 0)
(29.6592 0 0)
(30.7448 0 0)
(31.8346 0 0)
(32.9284 0 0)
(34.0259 0 0)
(35.1269 0 0)
(36.2314 0 0)
(37.3391 0 0)
(38.45 0 0)
(39.5638 0 0)
(40.6804 0 0)
(41.7998 0 0)
(42.9218 0 0)
(44.0462 0 0)
(45.1731 0 0)
(46.3022 0 0)
(47.4336 0 0)
(48.567 0 0)
(49.7025 0 0)
(50.8399 0 0)
(51.9791 0 0)
(53.1202 0 0)
(54.2629 0 0)
(55.4072 0 0)
(56.5531 0 0)
(57.7005 0 0)
(58.8493 0 0)
(59.9995 0 0)
(61.151 0 0)
(62.3037 0 0)
(63.4576 0 0)
(64.6127 0 0)
(65.7689 0 0)
(66.9261 0 0)
(68.0844 0 0)
(69.2436 0 0)
(70.4037 0 0)
(71.5648 0 0)
(72.7267 0 0)
(73.8894 0 0)
(75.0529 0 0)
(76.2171 0 0)
(77.3821 0 0)
(78.5478 0 0)
(79.7141 0 0)
(80.8811 0 0)
(82.0487 0 0)
(83.2169 0 0)
(84.3857 0 0)
(85.555 0 0)
(86.7249 0 0)
(87.8953 0 0)
(89.0662 0 0)
(90.2375 0 0)
(91.4094 0 0)
(92.5816 0 0)
(93.7544 0 0)
(94.9275 0 0)
(96.101 0 0)
(97.2749 0 0)
(98.4492 0 0)
(99.6239 0 0)
(100.799 0 0)
(101.974 0 0)
(103.15 0 0)
(104.326 0 0)
(105.502 0 0)
(106.679 0 0)
(107.856 0 0)
(109.033 0 0)
(110.211 0 0)
(111.388 0 0)
(112.566 0 0)
(113.745 0 0)
(114.923 0 0)
(116.102 0 0)
(117.281 0 0)
(118.46 0 0)
(119.639 0 0)
(120.819 0 0)
(121.999 0 0)
(123.179 0 0)
(124.359 0 0)
(125.54 0 0)
(126.72 0 0)
(127.901 0 0)
(129.082 0 0)
(130.263 0 0)
(131.444 0 0)
(132.626 0 0)
(133.807 0 0)
(134.989 0 0)
(136.171 0 0)
(137.353 0 0)
(138.535 0 0)
(139.717 0 0)
(140.899 0 0)
(142.082 0 0)
(143.264 0 0)
(144.447 0 0)
(145.63 0 0)
(146.813 0 0)
(147.996 0 0)
(149.179 0 0)
(150.362 0 0)
(151.545 0 0)
(152.729 0 0)
(153.912 0 0)
(155.096 0 0)
(156.279 0 0)
(157.463 0 0)
(158.647 0 0)
(159.831 0 0)
(161.015 0 0)
(162.199 0 0)
(163.383 0 0)
(164.567 0 0)
(165.751 0 0)
(166.935 0 0)
(168.119 0 0)
(169.303 0 0)
(170.488 0 0)
(171.672 0 0)
(172.856 0 0)
(174.041 0 0)
(175.225 0 0)
(176.409 0 0)
(177.594 0 0)
(178.778 0 0)
(179.963 0 0)
(181.147 0 0)
(182.332 0 0)
(183.516 0 0)
(184.701 0 0)
(185.885 0 0)
(187.07 0 0)
(188.254 0 0)
(189.438 0 0)
(190.623 0 0)
(191.807 0 0)
(192.992 0 0)
(194.176 0 0)
(195.36 0 0)
(196.544 0 0)
(197.729 0 0)
(198.913 0 0)
(200.097 0 0)
(201.281 0 0)
(202.465 0 0)
(203.649 0 0)
(204.833 0 0)
(206.016 0 0)
(207.2 0 0)
(208.384 0 0)
(209.567 0 0)
(210.751 0 0)
(211.934 0 0)
(213.117 0 0)
(214.3 0 0)
(215.483 0 0)
(216.666 0 0)
(217.849 0 0)
(219.031 0 0)
(220.214 0 0)
(221.396 0 0)
(222.578 0 0)
(223.76 0 0)
(224.942 0 0)
(226.124 0 0)
(227.305 0 0)
(228.486 0 0)
(229.667 0 0)
(230.848 0 0)
(232.028 0 0)
(233.208 0 0)
(234.388 0 0)
(235.568 0 0)
(236.747 0 0)
(237.926 0 0)
(239.105 0 0)
(240.283 0 0)
(241.461 0 0)
(242.639 0 0)
(243.816 0 0)
(244.993 0 0)
(246.169 0 0)
(247.345 0 0)
(248.52 0 0)
(249.695 0 0)
(250.869 0 0)
(252.043 0 0)
(253.216 0 0)
(254.388 0 0)
(255.56 0 0)
(256.731 0 0)
(257.901 0 0)
(259.07 0 0)
(260.238 0 0)
(261.405 0 0)
(262.572 0 0)
(263.737 0 0)
(264.9 0 0)
(266.063 0 0)
(267.224 0 0)
(268.384 0 0)
(269.542 0 0)
(270.698 0 0)
(271.852 0 0)
(273.005 0 0)
(274.155 0 0)
(275.302 0 0)
(276.447 0 0)
(277.589 0 0)
(278.728 0 0)
(279.863 0 0)
(280.994 0 0)
(282.121 0 0)
(283.243 0 0)
(284.36 0 0)
(285.47 0 0)
(286.574 0 0)
(287.671 0 0)
(288.759 0 0)
(289.837 0 0)
(290.905 0 0)
(291.96 0 0)
(293.001 0 0)
(294.026 0 0)
(295.033 0 0)
(296.019 0 0)
(296.979 0 0)
(297.912 0 0)
(298.812 0 0)
(299.673 0 0)
(300.49 0 0)
(301.255 0 0)
(301.96 0 0)
(302.594 0 0)
(303.145 0 0)
(303.601 0 0)
(303.945 0 0)
(304.161 0 0)
(304.23 0 0)
(304.131 0 0)
(303.842 0 0)
(303.345 0 0)
(302.62 0 0)
(301.655 0 0)
(300.444 0 0)
(298.995 0 0)
(297.329 0 0)
(295.489 0 0)
(293.538 0 0)
(291.559 0 0)
(289.654 0 0)
(287.932 0 0)
(286.505 0 0)
(285.469 0 0)
(284.895 0 0)
(284.816 0 0)
(285.226 0 0)
(286.082 0 0)
(287.307 0 0)
(288.804 0 0)
(290.462 0 0)
(292.172 0 0)
(293.83 0 0)
(295.343 0 0)
(296.632 0 0)
(297.633 0 0)
(298.3 0 0)
(298.604 0 0)
(298.534 0 0)
(298.099 0 0)
(297.329 0 0)
(296.276 0 0)
(295.013 0 0)
(293.633 0 0)
(292.24 0 0)
(290.947 0 0)
(289.86 0 0)
(289.067 0 0)
(288.63 0 0)
(288.574 0 0)
(288.885 0 0)
(289.515 0 0)
(290.387 0 0)
(291.407 0 0)
(292.473 0 0)
(293.487 0 0)
(294.36 0 0)
(295.023 0 0)
(295.427 0 0)
(295.548 0 0)
(295.388 0 0)
(294.976 0 0)
(294.364 0 0)
(293.62 0 0)
(292.826 0 0)
(292.069 0 0)
(291.427 0 0)
(290.965 0 0)
(290.724 0 0)
(290.719 0 0)
(290.934 0 0)
(291.33 0 0)
(291.847 0 0)
(292.418 0 0)
(292.972 0 0)
(293.444 0 0)
(293.786 0 0)
(293.965 0 0)
(293.971 0 0)
(293.816 0 0)
(293.528 0 0)
(293.153 0 0)
(292.745 0 0)
(292.358 0 0)
(292.043 0 0)
(291.836 0 0)
(291.758 0 0)
(291.808 0 0)
(291.97 0 0)
(292.212 0 0)
(292.494 0 0)
(292.773 0 0)
(293.01 0 0)
(293.173 0 0)
(293.246 0 0)
(293.225 0 0)
(293.12 0 0)
(292.956 0 0)
(292.76 0 0)
(292.567 0 0)
(292.405 0 0)
(292.297 0 0)
(292.256 0 0)
(292.282 0 0)
(292.365 0 0)
(292.486 0 0)
(292.622 0 0)
(292.749 0 0)
(292.847 0 0)
(292.901 0 0)
(292.907 0 0)
(292.869 0 0)
(292.796 0 0)
(292.706 0 0)
(292.615 0 0)
(292.54 0 0)
(292.493 0 0)
(292.479 0 0)
(292.499 0 0)
(292.544 0 0)
(292.604 0 0)
(292.667 0 0)
(292.719 0 0)
(292.752 0 0)
(292.762 0 0)
(292.748 0 0)
(292.717 0 0)
(292.676 0 0)
(292.635 0 0)
(292.601 0 0)
(292.581 0 0)
(292.578 0 0)
(292.59 0 0)
(292.613 0 0)
(292.641 0 0)
(292.668 0 0)
(292.687 0 0)
(292.696 0 0)
(292.694 0 0)
(292.682 0 0)
(292.664 0 0)
(292.645 0 0)
(292.63 0 0)
(292.62 0 0)
(292.619 0 0)
(292.625 0 0)
(292.635 0 0)
(292.648 0 0)
(292.659 0 0)
(292.667 0 0)
(292.669 0 0)
(292.666 0 0)
(292.659 0 0)
(292.651 0 0)
(292.643 0 0)
(292.638 0 0)
(292.636 0 0)
(292.638 0 0)
(292.643 0 0)
(292.648 0 0)
(292.653 0 0)
(292.656 0 0)
(292.657 0 0)
(292.655 0 0)
(292.652 0 0)
(292.648 0 0)
(292.645 0 0)
(292.644 0 0)
(292.644 0 0)
(292.645 0 0)
(292.647 0 0)
(292.649 0 0)
(292.651 0 0)
(292.652 0 0)
(292.651 0 0)
(292.65 0 0)
(292.649 0 0)
(292.647 0 0)
(292.647 0 0)
(292.647 0 0)
(292.647 0 0)
(292.648 0 0)
(292.649 0 0)
(292.65 0 0)
(292.65 0 0)
(292.65 0 0)
(292.649 0 0)
(292.649 0 0)
(292.649 0 0)
(292.649 0 0)
(292.65 0 0)
(292.652 0 0)
(292.654 0 0)
(292.659 0 0)
(292.665 0 0)
(292.673 0 0)
(292.685 0 0)
(292.702 0 0)
(292.722 0 0)
(292.747 0 0)
(292.775 0 0)
(292.804 0 0)
(292.832 0 0)
(292.857 0 0)
(292.875 0 0)
(292.884 0 0)
(292.881 0 0)
(292.865 0 0)
(292.835 0 0)
(292.793 0 0)
(292.739 0 0)
(292.677 0 0)
(292.61 0 0)
(292.543 0 0)
(292.479 0 0)
(292.424 0 0)
(292.382 0 0)
(292.357 0 0)
(292.35 0 0)
(292.363 0 0)
(292.392 0 0)
(292.433 0 0)
(292.483 0 0)
(292.534 0 0)
(292.581 0 0)
(292.621 0 0)
(292.65 0 0)
(292.669 0 0)
(292.677 0 0)
(292.678 0 0)
(292.674 0 0)
(292.667 0 0)
(292.66 0 0)
(292.653 0 0)
(292.648 0 0)
(292.645 0 0)
(292.644 0 0)
(292.643 0 0)
(292.644 0 0)
(292.645 0 0)
(292.646 0 0)
(292.647 0 0)
(292.647 0 0)
(292.648 0 0)
(292.648 0 0)
(292.648 0 0)
(292.647 0 0)
(292.647 0 0)
(292.647 0 0)
(292.647 0 0)
(292.647 0 0)
(292.647 0 0)
(292.648 0 0)
(292.648 0 0)
(292.648 0 0)
(292.648 0 0)
(292.648 0 0)
(292.648 0 0)
(292.648 0 0)
(292.648 0 0)
(292.648 0 0)
(292.648 0 0)
(292.648 0 0)
(292.648 0 0)
(292.648 0 0)
(292.648 0 0)
(292.648 0 0)
(292.648 0 0)
(292.648 0 0)
(292.648 0 0)
(292.648 0 0)
(292.648 0 0)
(292.648 0 0)
(292.648 0 0)
(292.648 0 0)
(292.648 0 0)
(292.648 0 0)
(292.648 0 0)
(292.648 0 0)
(292.648 0 0)
(292.648 0 0)
(292.648 0 0)
(292.648 0 0)
(292.648 0 0)
(292.648 0 0)
(292.648 0 0)
(292.648 0 0)
(292.648 0 0)
(292.648 0 0)
(292.648 0 0)
(292.648 0 0)
(292.648 0 0)
(292.648 0 0)
(292.648 0 0)
(292.648 0 0)
(292.649 0 0)
(292.649 0 0)
(292.649 0 0)
(292.649 0 0)
(292.649 0 0)
(292.649 0 0)
(292.649 0 0)
(292.649 0 0)
(292.649 0 0)
(292.649 0 0)
(292.649 0 0)
(292.649 0 0)
(292.649 0 0)
(292.649 0 0)
(292.649 0 0)
(292.649 0 0)
(292.649 0 0)
(292.649 0 0)
(292.649 0 0)
(292.649 0 0)
(292.649 0 0)
(292.649 0 0)
(292.649 0 0)
(292.649 0 0)
(292.649 0 0)
(292.649 0 0)
(292.649 0 0)
(292.65 0 0)
(292.65 0 0)
(292.65 0 0)
(292.65 0 0)
(292.65 0 0)
(292.65 0 0)
(292.65 0 0)
(292.65 0 0)
(292.65 0 0)
(292.65 0 0)
(292.65 0 0)
(292.651 0 0)
(292.651 0 0)
(292.651 0 0)
(292.651 0 0)
(292.651 0 0)
(292.651 0 0)
(292.651 0 0)
(292.651 0 0)
(292.651 0 0)
(292.652 0 0)
(292.652 0 0)
(292.652 0 0)
(292.652 0 0)
(292.652 0 0)
(292.652 0 0)
(292.652 0 0)
(292.653 0 0)
(292.653 0 0)
(292.653 0 0)
(292.653 0 0)
(292.653 0 0)
(292.653 0 0)
(292.653 0 0)
(292.653 0 0)
(292.653 0 0)
(292.653 0 0)
(292.653 0 0)
(292.653 0 0)
(292.654 0 0)
(292.654 0 0)
(292.654 0 0)
(292.654 0 0)
(292.654 0 0)
(292.653 0 0)
(292.653 0 0)
(292.653 0 0)
(292.651 0 0)
(292.646 0 0)
(292.647 0 0)
(292.648 0 0)
(292.624 0 0)
(292.608 0 0)
(292.645 0 0)
(292.601 0 0)
(292.437 0 0)
(292.535 0 0)
(292.707 0 0)
(291.964 0 0)
(291.481 0 0)
(293.141 0 0)
(291.988 0 0)
(285.72 0 0)
(289.907 0 0)
(294.826 0 0)
(243.502 0 0)
(122.682 0 0)
(31.7449 0 0)
(5.77523 0 0)
(0.97708 0 0)
(0.160996 0 0)
(0.0266047 0 0)
(0.00440114 0 0)
(0.000728169 0 0)
(0.000120476 0 0)
(1.99329e-05 0 0)
(3.29791e-06 0 0)
(5.45638e-07 0 0)
(9.02742e-08 0 0)
(1.49338e-08 0 0)
(2.46925e-09 0 0)
(4.06845e-10 0 0)
(6.56624e-11 0 0)
(9.13652e-12 0 0)
(3.88995e-14 0 0)
(-1.40524e-12 0 0)
(-1.54139e-12 0 0)
(-1.56084e-12 0 0)
(-1.75048e-12 0 0)
(-1.30313e-12 0 0)
(-1.3469e-12 0 0)
(-1.02111e-12 0 0)
(-1.42469e-12 0 0)
(-1.24965e-12 0 0)
(-1.65323e-12 0 0)
(-1.9158e-12 0 0)
(-2.03736e-12 0 0)
(-2.19782e-12 0 0)
(-2.08112e-12 0 0)
(-2.17837e-12 0 0)
(-1.92066e-12 0 0)
(-1.94984e-12 0 0)
(-1.86718e-12 0 0)
(-1.84286e-12 0 0)
(-1.89149e-12 0 0)
(-1.92066e-12 0 0)
(-1.9547e-12 0 0)
(-1.8769e-12 0 0)
(-1.80883e-12 0 0)
(-1.59488e-12 0 0)
(-1.81369e-12 0 0)
(-1.63864e-12 0 0)
(-1.04542e-12 0 0)
(-8.75239e-13 0 0)
(-5.10556e-13 0 0)
(-2.67434e-13 0 0)
(4.81381e-13 0 0)
(4.23032e-13 0 0)
(4.03582e-13 0 0)
(2.43122e-13 0 0)
(4.23032e-13 0 0)
(6.27255e-13 0 0)
(9.38451e-13 0 0)
(1.26423e-12 0 0)
(1.81855e-12 0 0)
(1.87204e-12 0 0)
(1.80883e-12 0 0)
(1.66782e-12 0 0)
(1.47332e-12 0 0)
(1.10864e-12 0 0)
(7.24503e-13 0 0)
(3.84133e-13 0 0)
(3.50096e-13 0 0)
(-4.66794e-13 0 0)
(-3.93858e-13 0 0)
(-6.07805e-13 0 0)
(-4.57069e-13 0 0)
(-5.44593e-13 0 0)
(-4.32757e-13 0 0)
(-4.42482e-13 0 0)
(-3.16059e-13 0 0)
(-7.87715e-13 0 0)
(-5.54318e-13 0 0)
(-1.02111e-12 0 0)
(-9.7735e-13 0 0)
(-1.308e-12 0 0)
(-1.2302e-12 0 0)
(-1.6435e-12 0 0)
(-1.20588e-12 0 0)
(-1.18644e-12 0 0)
(-1.10377e-12 0 0)
(-8.26615e-13 0 0)
(-9.62763e-13 0 0)
(-7.7799e-13 0 0)
(-1.23992e-12 0 0)
(-8.60652e-13 0 0)
(-1.04056e-12 0 0)
(-5.93218e-13 0 0)
(-6.07805e-13 0 0)
(1.16699e-13 0 0)
(-4.08445e-13 0 0)
(-4.23032e-13 0 0)
(-6.3698e-13 0 0)
(-3.30646e-13 0 0)
(-2.77159e-13 0 0)
(-1.6046e-13 0 0)
(-1.94498e-13 0 0)
(9.72488e-15 0 0)
(-6.32117e-14 0 0)
(-7.7799e-14 0 0)
(-1.21561e-13 0 0)
(-1.94498e-13 0 0)
(-5.5918e-13 0 0)
(-5.10556e-13 0 0)
(-7.29366e-13 0 0)
(-7.87715e-13 0 0)
(-1.12322e-12 0 0)
(-1.36635e-12 0 0)
(-1.89635e-12 0 0)
(-2.58196e-12 0 0)
(-2.55764e-12 0 0)
(-2.32911e-12 0 0)
(-1.63864e-12 0 0)
)
;

boundaryField
{
    sides
    {
        type            zeroGradient;
    }
    empty
    {
        type            empty;
    }
}


// ************************************************************************* //
