/*--------------------------------*- C++ -*----------------------------------*\
  =========                 |
  \\      /  F ield         | OpenFOAM: The Open Source CFD Toolbox
   \\    /   O peration     | Website:  https://openfoam.org
    \\  /    A nd           | Version:  13
     \\/     M anipulation  |
\*---------------------------------------------------------------------------*/
FoamFile
{
    format      ascii;
    class       volScalarField;
    location    "8.297499";
    object      pPrime2Mean;
}
// * * * * * * * * * * * * * * * * * * * * * * * * * * * * * * * * * * * * * //

dimensions      [0 4 -4 0 0 0 0];

internalField   nonuniform List<scalar> 
17140
(
37357.166
37357.168
37357.17
37357.17
37357.17
37357.168
37357.166
37357.161
37357.154
37357.145
37357.132
37357.114
37357.091
37357.061
37357.022
37356.972
37356.908
37356.825
37356.72
37356.584
37356.411
37356.188
37355.903
37355.536
37355.066
37354.463
37353.689
37352.7
37351.444
37349.852
37347.843
37345.315
37342.145
37338.183
37333.244
37327.112
37319.526
37310.182
37298.729
37284.76
37267.812
37247.358
37222.799
37193.46
37158.587
37117.341
37068.803
37011.969
36945.753
36868.986
36780.42
36678.72
36562.447
36430.063
36279.917
36110.227
35919.064
35704.347
35463.76
35194.748
34894.47
34559.854
34187.567
33774.054
33315.644
37358.126
37358.128
37358.13
37358.13
37358.13
37358.128
37358.125
37358.121
37358.114
37358.104
37358.09
37358.073
37358.049
37358.018
37357.979
37357.928
37357.862
37357.778
37357.67
37357.533
37357.356
37357.131
37356.842
37356.473
37356
37355.393
37354.617
37353.628
37352.372
37350.783
37348.777
37346.253
37343.088
37339.13
37334.198
37328.071
37320.491
37311.155
37299.71
37285.751
37268.816
37248.375
37223.833
37194.513
37159.66
37118.439
37069.927
37013.121
36946.935
36870.203
36781.676
36680.019
36563.797
36431.472
36281.392
36111.776
35920.697
35706.072
35465.59
35196.696
34896.553
34562.088
34189.974
33776.656
33318.443
37360.501
37360.503
37360.505
37360.505
37360.504
37360.502
37360.499
37360.494
37360.486
37360.475
37360.461
37360.442
37360.417
37360.384
37360.342
37360.288
37360.22
37360.132
37360.02
37359.878
37359.696
37359.465
37359.171
37358.795
37358.317
37357.706
37356.928
37355.938
37354.684
37353.099
37351.099
37348.584
37345.428
37341.481
37336.559
37330.444
37322.878
37313.557
37302.13
37288.194
37271.285
37250.877
37226.373
37197.098
37162.298
37121.134
37072.686
37015.95
36949.84
36873.193
36784.762
36683.216
36567.119
36434.939
36285.024
36115.592
35924.717
35710.322
35470.099
35201.497
34901.682
34567.588
34195.888
33783.042
33325.305
37364.34
37364.341
37364.342
37364.342
37364.341
37364.339
37364.335
37364.328
37364.32
37364.308
37364.292
37364.271
37364.244
37364.209
37364.164
37364.107
37364.034
37363.942
37363.825
37363.677
37363.489
37363.252
37362.951
37362.57
37362.087
37361.473
37360.694
37359.705
37358.455
37356.876
37354.885
37352.38
37349.237
37345.303
37340.395
37334.297
37326.75
37317.453
37306.055
37292.154
37275.288
37254.932
37230.489
37201.287
37166.569
37125.499
37077.153
37020.528
36954.542
36878.033
36789.76
36688.393
36572.504
36440.56
36290.914
36121.785
35931.247
35717.228
35477.428
35209.302
34910.02
34576.524
34205.496
33793.414
33336.443
37369.69
37369.692
37369.692
37369.692
37369.69
37369.687
37369.682
37369.675
37369.665
37369.652
37369.635
37369.612
37369.583
37369.546
37369.498
37369.438
37369.361
37369.265
37369.144
37368.991
37368.798
37368.556
37368.25
37367.865
37367.379
37366.764
37365.986
37365.001
37363.756
37362.185
37360.204
37357.71
37354.579
37350.66
37345.77
37339.693
37332.172
37322.907
37311.549
37297.696
37280.89
37260.605
37236.247
37207.144
37172.54
37131.597
37083.392
37026.923
36961.109
36884.795
36796.744
36695.631
36580.034
36448.425
36299.16
36130.458
35940.397
35726.912
35487.71
35220.255
34921.725
34589.07
34218.985
33807.976
33352.082
37376.6
37376.601
37376.602
37376.601
37376.599
37376.595
37376.589
37376.582
37376.571
37376.557
37376.538
37376.515
37376.484
37376.445
37376.396
37376.333
37376.255
37376.156
37376.033
37375.877
37375.682
37375.438
37375.131
37374.745
37374.259
37373.646
37372.872
37371.892
37370.654
37369.091
37367.119
37364.637
37361.52
37357.617
37352.748
37346.696
37339.207
37329.982
37318.675
37304.884
37288.153
37267.96
37243.712
37214.735
37180.276
37139.494
37091.469
37035.201
36969.612
36893.552
36805.791
36705.012
36589.796
36458.626
36309.86
36141.72
35952.285
35739.501
35501.084
35234.507
34936.958
34605.4
34236.546
33826.938
33372.451
37385.133
37385.134
37385.134
37385.133
37385.13
37385.126
37385.12
37385.112
37385.1
37385.086
37385.067
37385.042
37385.011
37384.972
37384.922
37384.859
37384.781
37384.682
37384.558
37384.403
37384.209
37383.965
37383.66
37383.277
37382.794
37382.186
37381.417
37380.445
37379.215
37377.66
37375.698
37373.228
37370.124
37366.239
37361.392
37355.37
37347.919
37338.743
37327.497
37313.782
37297.144
37277.063
37252.947
37224.124
37189.84
37149.255
37101.451
37045.431
36980.123
36904.381
36816.984
36716.62
36601.882
36471.258
36323.116
36155.678
35967.029
35755.122
35517.687
35252.208
34955.883
34625.694
34258.375
33850.512
33397.787
37395.362
37395.362
37395.361
37395.36
37395.357
37395.352
37395.346
37395.337
37395.326
37395.311
37395.292
37395.268
37395.237
37395.198
37395.149
37395.088
37395.01
37394.913
37394.792
37394.64
37394.449
37394.21
37393.909
37393.531
37393.055
37392.453
37391.692
37390.728
37389.506
37387.96
37386.007
37383.548
37380.459
37376.592
37371.77
37365.782
37358.375
37349.256
37338.081
37324.455
37307.926
37287.976
37264.016
37235.373
37201.294
37160.942
37113.403
37057.684
36992.716
36917.36
36830.403
36730.544
36616.383
36486.422
36339.033
36172.444
35984.748
35773.907
35537.665
35273.514
34978.67
34650.135
34284.672
33878.919
33428.328
37407.371
37407.371
37407.37
37407.368
37407.365
37407.36
37407.353
37407.345
37407.333
37407.319
37407.3
37407.276
37407.247
37407.209
37407.161
37407.102
37407.027
37406.933
37406.815
37406.668
37406.482
37406.249
37405.955
37405.583
37405.114
37404.519
37403.766
37402.81
37401.596
37400.058
37398.115
37395.667
37392.592
37388.746
37383.952
37378.001
37370.643
37361.588
37350.494
37336.969
37320.565
37300.765
37276.982
37248.545
37214.702
37174.62
37127.391
37072.026
37007.462
36932.565
36846.132
36746.872
36633.397
36504.219
36357.72
36192.137
36005.57
35795.994
35561.161
35298.584
35005.492
34678.913
34315.643
33912.38
33464.32
37421.254
37421.253
37421.252
37421.25
37421.246
37421.242
37421.235
37421.226
37421.215
37421.201
37421.182
37421.159
37421.13
37421.094
37421.048
37420.99
37420.918
37420.827
37420.713
37420.57
37420.39
37420.162
37419.874
37419.51
37419.047
37418.459
37417.712
37416.762
37415.555
37414.026
37412.092
37409.655
37406.596
37402.771
37398.007
37392.097
37384.794
37375.808
37364.804
37351.392
37335.127
37315.494
37291.908
37263.701
37230.122
37190.348
37143.475
37088.521
37024.426
36950.066
36864.246
36765.685
36653.011
36524.746
36379.283
36214.87
36029.618
35821.512
35588.325
35327.583
35036.527
34712.22
34351.496
33951.124
33506.008
37437.093
37437.093
37437.091
37437.089
37437.085
37437.08
37437.073
37437.064
37437.053
37437.039
37437.021
37436.998
37436.97
37436.934
37436.889
37436.834
37436.763
37436.675
37436.565
37436.425
37436.249
37436.025
37435.742
37435.382
37434.924
37434.341
37433.598
37432.653
37431.452
37429.929
37428.004
37425.58
37422.538
37418.738
37414.007
37408.141
37400.896
37391.988
37381.081
37367.793
37351.678
37332.227
37308.857
37280.901
37247.617
37208.187
37161.716
37107.228
37043.671
36969.929
36884.817
36787.068
36675.32
36548.108
36403.835
36240.763
36057.021
35850.611
35619.32
35360.675
35071.954
34750.252
34392.443
33995.38
33553.642
37454.966
37454.965
37454.963
37454.96
37454.956
37454.951
37454.944
37454.935
37454.924
37454.909
37454.891
37454.868
37454.84
37454.805
37454.761
37454.705
37454.636
37454.549
37454.439
37454.301
37454.127
37453.905
37453.624
37453.266
37452.81
37452.229
37451.489
37450.547
37449.351
37447.835
37445.919
37443.509
37440.487
37436.713
37432.018
37426.201
37419.021
37410.195
37399.394
37386.238
37370.285
37351.03
37327.89
37300.208
37267.247
37228.198
37182.175
37128.212
37065.264
36992.228
36907.931
36811.116
36700.429
36574.418
36431.501
36269.955
36087.933
35883.448
35654.299
35398.033
35111.959
34793.206
34438.699
34045.382
33607.473
37474.927
37474.926
37474.924
37474.921
37474.916
37474.911
37474.903
37474.894
37474.882
37474.867
37474.849
37474.826
37474.797
37474.761
37474.717
37474.661
37474.591
37474.504
37474.394
37474.256
37474.08
37473.859
37473.577
37473.219
37472.763
37472.183
37471.444
37470.504
37469.312
37467.804
37465.9
37463.506
37460.506
37456.763
37452.11
37446.346
37439.235
37430.499
37419.813
37406.798
37391.017
37371.969
37349.077
37321.69
37289.082
37250.453
37204.927
37151.548
37089.288
37017.055
36933.685
36837.927
36728.442
36603.789
36462.399
36302.574
36122.487
35920.164
35693.424
35439.831
35156.728
34841.285
34490.48
34101.364
33667.751
37497.025
37497.024
37497.022
37497.018
37497.014
37497.008
37497
37496.991
37496.978
37496.963
37496.944
37496.92
37496.891
37496.854
37496.809
37496.752
37496.681
37496.592
37496.481
37496.341
37496.164
37495.94
37495.656
37495.297
37494.84
37494.259
37493.521
37492.584
37491.398
37489.899
37488.01
37485.637
37482.665
37478.957
37474.35
37468.645
37461.611
37452.972
37442.408
37429.543
37413.946
37395.118
37372.491
37345.424
37313.201
37275.034
37230.058
37177.333
37115.846
37044.513
36962.181
36867.611
36759.472
36636.337
36496.655
36338.751
36160.826
35960.922
35736.862
35486.243
35206.448
34894.689
34548.003
34163.558
33734.726
37521.315
37521.314
37521.312
37521.308
37521.304
37521.297
37521.29
37521.28
37521.267
37521.251
37521.232
37521.207
37521.177
37521.139
37521.092
37521.034
37520.962
37520.871
37520.758
37520.616
37520.436
37520.21
37519.924
37519.563
37519.104
37518.524
37517.788
37516.856
37515.678
37514.192
37512.319
37509.97
37507.031
37503.365
37498.809
37493.171
37486.221
37477.688
37467.255
37454.551
37439.148
37420.556
37398.214
37371.495
37339.695
37302.037
37257.673
37205.676
37145.047
37074.716
36993.54
36900.287
36793.643
36672.191
36534.403
36378.633
36203.105
36005.874
35784.777
35537.447
35261.308
34953.621
34611.483
34232.199
33808.648
37547.864
37547.863
37547.861
37547.857
37547.853
37547.847
37547.839
37547.828
37547.816
37547.8
37547.78
37547.755
37547.724
37547.686
37547.638
37547.579
37547.506
37547.414
37547.299
37547.155
37546.973
37546.746
37546.458
37546.095
37545.637
37545.057
37544.325
37543.399
37542.232
37540.76
37538.91
37536.59
37533.685
37530.064
37525.568
37520.004
37513.146
37504.728
37494.435
37481.902
37466.708
37448.369
37426.338
37399.999
37368.664
37331.571
37287.884
37236.692
37177.011
37107.786
37027.881
36936.08
36831.078
36711.48
36575.78
36422.362
36249.473
36055.179
35837.337
35593.621
35321.498
35018.283
34681.138
34307.519
33889.763
37576.762
37576.761
37576.759
37576.756
37576.751
37576.745
37576.737
37576.727
37576.714
37576.698
37576.678
37576.653
37576.622
37576.584
37576.536
37576.476
37576.402
37576.31
37576.194
37576.049
37575.868
37575.639
37575.352
37574.989
37574.532
37573.956
37573.228
37572.311
37571.155
37569.7
37567.873
37565.581
37562.716
37559.146
37554.713
37549.228
37542.47
37534.175
37524.033
37511.685
37496.716
37478.654
37456.963
37431.042
37400.219
37363.747
37320.805
37270.5
37211.861
37143.845
37065.329
36975.112
36871.907
36754.337
36620.926
36470.088
36300.082
36108.995
35894.709
35654.94
35387.207
35088.875
34757.182
34389.745
33978.31
37608.108
37608.107
37608.105
37608.102
37608.098
37608.092
37608.084
37608.075
37608.062
37608.046
37608.027
37608.002
37607.971
37607.933
37607.885
37607.826
37607.752
37607.66
37607.545
37607.4
37607.219
37606.992
37606.706
37606.346
37605.892
37605.319
37604.598
37603.69
37602.546
37601.108
37599.303
37597.043
37594.219
37590.701
37586.335
37580.936
37574.284
37566.121
37556.141
37543.993
37529.269
37511.509
37490.191
37464.731
37434.472
37398.682
37356.557
37307.219
37249.714
37183.012
37106.006
37017.51
36916.255
36800.894
36669.982
36521.949
36355.082
36167.478
35957.057
35721.582
35458.621
35165.598
34839.827
34479.107
34074.529
37642.001
37642
37641.999
37641.996
37641.992
37641.986
37641.979
37641.97
37641.957
37641.942
37641.923
37641.899
37641.869
37641.831
37641.785
37641.726
37641.653
37641.562
37641.449
37641.306
37641.127
37640.903
37640.62
37640.264
37639.816
37639.25
37638.537
37637.639
37636.508
37635.088
37633.306
37631.076
37628.293
37624.829
37620.533
37615.223
37608.684
37600.661
37590.855
37578.922
37564.466
37547.037
37526.132
37501.178
37471.535
37436.489
37395.254
37346.968
37290.691
37225.409
37150.034
37063.396
36964.252
36851.289
36723.086
36578.095
36414.618
36230.783
36024.545
35793.719
35535.926
35248.648
34929.283
34575.824
34178.651
37678.526
37678.526
37678.524
37678.522
37678.518
37678.513
37678.506
37678.497
37678.485
37678.471
37678.452
37678.429
37678.4
37678.364
37678.318
37678.261
37678.191
37678.102
37677.991
37677.851
37677.676
37677.456
37677.179
37676.83
37676.389
37675.833
37675.132
37674.247
37673.134
37671.733
37669.977
37667.779
37665.038
37661.629
37657.404
37652.187
37645.765
37637.89
37628.271
37616.571
37602.407
37585.343
37564.889
37540.488
37511.518
37477.282
37437.011
37389.86
37334.906
37271.152
37197.528
37112.889
37016.023
36905.651
36780.372
36638.664
36478.836
36299.063
36097.337
35871.525
35619.303
35338.216
35025.753
34680.113
34290.9
37717.747
37717.747
37717.745
37717.743
37717.74
37717.735
37717.729
37717.72
37717.709
37717.696
37717.678
37717.656
37717.628
37717.593
37717.55
37717.495
37717.427
37717.342
37717.234
37717.1
37716.93
37716.717
37716.448
37716.109
37715.68
37715.137
37714.452
37713.587
37712.497
37711.124
37709.4
37707.242
37704.549
37701.2
37697.051
37691.93
37685.63
37677.91
37668.489
37657.04
37643.194
37626.528
37606.567
37582.77
37554.531
37521.171
37481.938
37436.005
37382.468
37320.347
37248.595
37166.099
37071.689
36964.105
36841.975
36703.784
36547.879
36372.468
36175.591
35955.168
35708.931
35434.492
35129.435
34792.183
34411.49
37759.718
37759.718
37759.717
37759.715
37759.712
37759.707
37759.701
37759.694
37759.684
37759.671
37759.654
37759.634
37759.608
37759.575
37759.534
37759.482
37759.418
37759.337
37759.235
37759.106
37758.944
37758.74
37758.482
37758.156
37757.742
37757.219
37756.556
37755.717
37754.658
37753.322
37751.642
37749.536
37746.903
37743.626
37739.564
37734.548
37728.379
37720.824
37711.614
37700.436
37686.933
37670.7
37651.274
37628.131
37600.682
37568.264
37530.144
37485.512
37433.481
37373.097
37303.344
37223.149
37131.375
37026.779
36908.017
36773.589
36621.883
36451.144
36259.462
36044.813
35804.985
35537.66
35240.522
34912.235
34540.625
37804.491
37804.49
37804.489
37804.488
37804.485
37804.481
37804.476
37804.469
37804.46
37804.448
37804.433
37804.414
37804.39
37804.36
37804.322
37804.274
37804.214
37804.138
37804.043
37803.922
37803.77
37803.577
37803.333
37803.023
37802.629
37802.129
37801.494
37800.689
37799.669
37798.38
37796.756
37794.714
37792.158
37788.971
37785.014
37780.121
37774.102
37766.731
37757.753
37746.868
37733.738
37717.972
37699.123
37676.682
37650.078
37618.666
37581.729
37538.474
37488.038
37429.498
37361.88
37284.153
37195.192
37093.795
36978.615
36848.205
36700.982
36535.236
36349.104
36140.621
35907.635
35647.896
35359.197
35040.465
34678.496
37852.138
37852.137
37852.137
37852.135
37852.133
37852.129
37852.125
37852.118
37852.11
37852.099
37852.086
37852.069
37852.047
37852.019
37851.985
37851.941
37851.885
37851.816
37851.727
37851.616
37851.474
37851.293
37851.064
37850.772
37850.4
37849.925
37849.322
37848.554
37847.58
37846.345
37844.786
37842.823
37840.36
37837.282
37833.451
37828.707
37822.865
37815.708
37806.992
37796.435
37783.712
37768.45
37750.217
37728.525
37702.819
37672.472
37636.778
37594.969
37546.217
37489.642
37424.308
37349.212
37263.251
37165.246
37053.884
36927.752
36785.306
36624.88
36444.663
36242.748
36017.046
35765.372
35485.638
35177.058
34825.287
37902.74
37902.74
37902.739
37902.738
37902.736
37902.733
37902.729
37902.723
37902.716
37902.706
37902.694
37902.678
37902.659
37902.634
37902.602
37902.562
37902.511
37902.446
37902.365
37902.261
37902.129
37901.961
37901.746
37901.471
37901.12
37900.672
37900.101
37899.372
37898.445
37897.269
37895.782
37893.905
37891.545
37888.59
37884.907
37880.34
37874.707
37867.803
37859.391
37849.201
37836.924
37822.202
37804.629
37783.732
37758.97
37729.731
37695.337
37655.059
37608.103
37553.623
37490.726
37418.416
37335.645
37241.239
37133.93
37012.344
36874.977
36720.21
36546.282
36351.346
36133.376
35890.255
35620.014
35322.194
34981.168
37956.387
37956.387
37956.387
37956.386
37956.384
37956.382
37956.378
37956.373
37956.367
37956.358
37956.347
37956.332
37956.314
37956.29
37956.261
37956.223
37956.176
37956.115
37956.038
37955.94
37955.815
37955.656
37955.452
37955.192
37954.859
37954.434
37953.891
37953.199
37952.318
37951.201
37949.786
37948.001
37945.754
37942.936
37939.42
37935.052
37929.659
37923.041
37914.97
37905.187
37893.397
37879.263
37862.39
37842.324
37818.548
37790.479
37757.468
37718.82
37673.776
37621.526
37561.2
37491.855
37412.449
37321.859
37218.851
37102.089
36970.112
36821.352
36654.097
36466.56
36256.777
36022.701
35762.485
35476.047
35146.307
38013.153
38013.153
38013.153
38013.152
38013.15
38013.148
38013.144
38013.14
38013.133
38013.125
38013.114
38013.1
38013.082
38013.059
38013.03
38012.994
38012.947
38012.888
38012.814
38012.718
38012.598
38012.443
38012.247
38011.997
38011.677
38011.27
38010.752
38010.093
38009.257
38008.197
38006.856
38005.164
38003.034
38000.363
37997.025
37992.877
37987.747
37981.443
37973.746
37964.407
37953.143
37939.631
37923.497
37904.316
37881.592
37854.764
37823.223
37786.311
37743.291
37693.404
37635.804
37569.585
37493.742
37407.191
37308.737
37197.087
37070.822
36928.426
36768.238
36588.529
36387.398
36162.865
35913.207
35638.779
35320.874
38073.07
38073.07
38073.07
38073.069
38073.068
38073.065
38073.062
38073.057
38073.05
38073.041
38073.03
38073.016
38072.997
38072.974
38072.945
38072.908
38072.861
38072.801
38072.726
38072.632
38072.512
38072.36
38072.168
38071.924
38071.614
38071.222
38070.726
38070.097
38069.302
38068.298
38067.031
38065.434
38063.427
38060.908
38057.76
38053.842
38048.992
38043.023
38035.723
38026.856
38016.151
38003.305
37987.966
37969.727
37948.119
37922.613
37892.639
37857.561
37816.692
37769.301
37714.585
37651.666
37579.587
37497.306
37403.669
37297.426
37177.207
37041.544
36888.829
36717.388
36525.382
36310.895
36072.331
35810.545
35505.048
38136.128
38136.128
38136.128
38136.127
38136.125
38136.122
38136.118
38136.113
38136.106
38136.097
38136.085
38136.07
38136.051
38136.026
38135.996
38135.958
38135.91
38135.849
38135.773
38135.678
38135.558
38135.407
38135.217
38134.979
38134.678
38134.3
38133.824
38133.225
38132.472
38131.524
38130.332
38128.834
38126.951
38124.589
38121.636
38117.958
38113.398
38107.779
38100.899
38092.532
38082.424
38070.289
38055.797
38038.562
38018.143
37994.045
37965.731
37932.601
37894.008
37849.255
37797.577
37738.142
37670.038
37592.265
37503.716
37403.188
37289.358
37160.811
37015.986
36853.267
36670.871
36466.941
36240.013
35991.501
35699.025
38202.282
38202.282
38202.282
38202.281
38202.279
38202.276
38202.271
38202.266
38202.258
38202.249
38202.236
38202.221
38202.201
38202.176
38202.145
38202.107
38202.058
38201.997
38201.921
38201.826
38201.708
38201.56
38201.374
38201.143
38200.854
38200.492
38200.04
38199.474
38198.766
38197.878
38196.764
38195.366
38193.612
38191.412
38188.659
38185.226
38180.967
38175.712
38169.272
38161.434
38151.96
38140.583
38126.991
38110.824
38091.668
38069.067
38042.513
38011.442
37975.251
37933.28
37884.808
37829.049
37765.135
37692.116
37608.936
37514.441
37407.358
37286.321
37149.819
36996.292
36824.007
36631.155
36416.422
36181.844
35903.006
38271.483
38271.483
38271.482
38271.481
38271.479
38271.476
38271.472
38271.466
38271.459
38271.449
38271.437
38271.422
38271.402
38271.378
38271.348
38271.31
38271.263
38271.204
38271.131
38271.04
38270.927
38270.785
38270.61
38270.391
38270.119
38269.781
38269.359
38268.833
38268.176
38267.355
38266.326
38265.034
38263.413
38261.377
38258.829
38255.649
38251.699
38246.823
38240.843
38233.562
38224.759
38214.183
38201.545
38186.509
38168.694
38147.673
38122.974
38094.08
38060.423
38021.385
37976.291
37924.404
37864.905
37796.894
37719.373
37631.241
37531.274
37418.161
37290.437
37146.591
36984.936
36803.701
36601.746
36381.837
36117.206
38343.701
38343.701
38343.701
38343.699
38343.697
38343.695
38343.691
38343.685
38343.679
38343.67
38343.659
38343.645
38343.627
38343.605
38343.577
38343.542
38343.499
38343.446
38343.379
38343.295
38343.192
38343.063
38342.904
38342.705
38342.458
38342.151
38341.768
38341.291
38340.694
38339.947
38339.009
38337.829
38336.345
38334.48
38332.141
38329.219
38325.588
38321.105
38315.605
38308.908
38300.811
38291.08
38279.447
38265.603
38249.199
38229.844
38207.104
38180.502
38149.511
38113.56
38072.022
38024.21
37969.357
37906.619
37835.055
37753.627
37661.164
37556.406
37437.937
37304.291
37153.818
36984.764
36796.138
36591.494
36342.203
38418.933
38418.933
38418.933
38418.932
38418.93
38418.927
38418.924
38418.919
38418.914
38418.906
38418.897
38418.884
38418.869
38418.85
38418.826
38418.797
38418.76
38418.713
38418.656
38418.584
38418.494
38418.383
38418.244
38418.071
38417.855
38417.586
38417.249
38416.827
38416.297
38415.629
38414.786
38413.722
38412.38
38410.688
38408.564
38405.909
38402.609
38398.534
38393.537
38387.452
38380.095
38371.25
38360.671
38348.079
38333.157
38315.553
38294.872
38270.678
38242.491
38209.784
38171.982
38128.451
38078.482
38021.289
37955.995
37881.625
37797.069
37701.121
37592.414
37469.524
37330.836
37174.555
36999.687
36811.348
36578.185
38497.191
38497.191
38497.19
38497.189
38497.188
38497.186
38497.183
38497.179
38497.174
38497.168
38497.16
38497.151
38497.138
38497.122
38497.103
38497.078
38497.048
38497.009
38496.962
38496.902
38496.828
38496.735
38496.618
38496.472
38496.289
38496.059
38495.769
38495.403
38494.939
38494.351
38493.606
38492.66
38491.462
38489.95
38488.048
38485.671
38482.717
38479.069
38474.598
38469.155
38462.571
38454.652
38445.176
38433.895
38420.527
38404.758
38386.235
38364.567
38339.318
38310.014
38276.132
38237.093
38192.251
38140.886
38082.183
38015.238
37939.011
37852.356
37753.953
37642.424
37516.167
37373.181
37212.718
37041.668
36825.376
38578.47
38578.47
38578.469
38578.468
38578.467
38578.465
38578.463
38578.46
38578.455
38578.45
38578.444
38578.435
38578.425
38578.412
38578.395
38578.375
38578.35
38578.318
38578.278
38578.229
38578.167
38578.089
38577.992
38577.869
38577.714
38577.519
38577.272
38576.957
38576.557
38576.048
38575.398
38574.572
38573.523
38572.197
38570.528
38568.442
38565.85
38562.651
38558.731
38553.958
38548.181
38541.227
38532.904
38522.993
38511.249
38497.398
38481.132
38462.104
38439.93
38414.187
38384.408
38350.076
38310.611
38265.362
38213.584
38154.448
38086.993
38010.143
37922.633
37823.121
37709.936
37581.119
37435.499
37282.687
37084.56
38662.73
38662.73
38662.729
38662.728
38662.727
38662.725
38662.723
38662.72
38662.716
38662.711
38662.705
38662.697
38662.687
38662.675
38662.66
38662.641
38662.618
38662.59
38662.555
38662.511
38662.456
38662.388
38662.303
38662.197
38662.064
38661.896
38661.684
38661.416
38661.074
38660.639
38660.085
38659.379
38658.483
38657.349
38655.924
38654.142
38651.929
38649.2
38645.855
38641.778
38636.84
38630.893
38623.77
38615.288
38605.239
38593.391
38579.479
38563.205
38544.24
38522.216
38496.725
38467.316
38433.48
38394.643
38350.136
38299.211
38240.993
38174.489
38098.503
38011.682
37912.494
37798.644
37668.545
37534.842
37356.534
38749.87
38749.869
38749.869
38749.868
38749.866
38749.864
38749.861
38749.858
38749.854
38749.848
38749.842
38749.834
38749.823
38749.811
38749.795
38749.777
38749.753
38749.725
38749.69
38749.648
38749.596
38749.533
38749.455
38749.359
38749.241
38749.095
38748.913
38748.685
38748.398
38748.035
38747.574
38746.988
38746.247
38745.311
38744.136
38742.669
38740.85
38738.608
38735.857
38732.502
38728.436
38723.535
38717.662
38710.669
38702.387
38692.624
38681.162
38667.757
38652.133
38633.984
38612.967
38588.701
38560.752
38528.625
38491.741
38449.441
38400.942
38345.345
38281.547
38208.301
38124.01
38026.263
37912.833
37799.023
37641.926
38839.735
38839.735
38839.734
38839.732
38839.731
38839.728
38839.725
38839.721
38839.716
38839.71
38839.703
38839.694
38839.682
38839.668
38839.651
38839.631
38839.607
38839.577
38839.541
38839.498
38839.446
38839.384
38839.31
38839.222
38839.116
38838.988
38838.833
38838.642
38838.406
38838.11
38837.74
38837.272
38836.684
38835.947
38835.026
38833.881
38832.466
38830.723
38828.584
38825.976
38822.812
38818.997
38814.426
38808.985
38802.542
38794.948
38786.035
38775.611
38763.46
38749.343
38732.986
38714.084
38692.279
38667.161
38638.251
38604.984
38566.697
38522.626
38471.783
38413
38344.771
38264.589
38169.775
38076.645
37940.703
38932.114
38932.114
38932.113
38932.111
38932.109
38932.106
38932.103
38932.098
38932.093
38932.086
38932.079
38932.069
38932.057
38932.043
38932.025
38932.004
38931.979
38931.949
38931.914
38931.872
38931.822
38931.764
38931.696
38931.616
38931.523
38931.413
38931.284
38931.128
38930.94
38930.71
38930.426
38930.075
38929.641
38929.103
38928.441
38927.625
38926.621
38925.388
38923.879
38922.039
38919.808
38917.119
38913.901
38910.072
38905.539
38900.197
38893.928
38886.597
38878.052
38868.12
38856.604
38843.274
38827.86
38810.05
38789.468
38765.671
38738.119
38706.186
38669.083
38625.832
38575.054
38514.307
38440.883
38368.046
38254.831
39026.786
39026.785
39026.783
39026.782
39026.78
39026.777
39026.773
39026.769
39026.764
39026.758
39026.75
39026.741
39026.73
39026.716
39026.701
39026.682
39026.66
39026.634
39026.603
39026.566
39026.524
39026.475
39026.418
39026.352
39026.275
39026.186
39026.082
39025.96
39025.815
39025.644
39025.443
39025.207
39024.928
39024.595
39024.194
39023.71
39023.124
39022.413
39021.549
39020.5
39019.234
39017.713
39015.897
39013.74
39011.186
39008.177
39004.646
39000.518
38995.706
38990.117
38983.625
38976.087
38967.322
38957.119
38945.221
38931.315
38915.02
38895.873
38873.289
38846.587
38814.689
38775.685
38727.273
38677.807
38592.63
39127.822
39127.821
39127.82
39127.818
39127.815
39127.813
39127.809
39127.806
39127.801
39127.796
39127.789
39127.782
39127.773
39127.762
39127.749
39127.734
39127.717
39127.696
39127.671
39127.643
39127.609
39127.57
39127.525
39127.473
39127.413
39127.344
39127.265
39127.176
39127.076
39126.967
39126.851
39126.732
39126.615
39126.498
39126.38
39126.257
39126.128
39125.987
39125.827
39125.642
39125.43
39125.187
39124.905
39124.572
39124.175
39123.702
39123.148
39122.501
39121.744
39120.859
39119.813
39118.556
39117.008
39115.075
39112.628
39109.511
39105.507
39100.368
39093.741
39085.275
39074.374
39060.002
39042.098
39025.854
38994.791
39234.098
39234.097
39234.095
39234.093
39234.091
39234.088
39234.086
39234.083
39234.079
39234.075
39234.07
39234.064
39234.058
39234.05
39234.041
39234.031
39234.019
39234.004
39233.987
39233.967
39233.943
39233.915
39233.883
39233.846
39233.804
39233.758
39233.708
39233.659
39233.613
39233.579
39233.565
39233.582
39233.646
39233.765
39233.951
39234.219
39234.584
39235.055
39235.646
39236.384
39237.296
39238.413
39239.761
39241.368
39243.27
39245.507
39248.131
39251.199
39254.769
39258.905
39263.667
39269.107
39275.263
39282.168
39289.833
39298.273
39307.459
39317.375
39327.943
39339.175
39351.006
39363.36
39377.323
39395.421
39409.08
39340.17
39340.169
39340.167
39340.166
39340.164
39340.162
39340.16
39340.158
39340.156
39340.154
39340.152
39340.149
39340.146
39340.143
39340.14
39340.136
39340.132
39340.127
39340.121
39340.113
39340.105
39340.094
39340.08
39340.065
39340.048
39340.031
39340.017
39340.013
39340.026
39340.07
39340.162
39340.32
39340.567
39340.921
39341.406
39342.048
39342.878
39343.934
39345.261
39346.909
39348.937
39351.406
39354.378
39357.924
39362.126
39367.078
39372.892
39379.691
39387.61
39396.793
39407.393
39419.569
39433.482
39449.294
39467.165
39487.277
39509.798
39534.949
39562.937
39594.113
39628.824
39667.685
39711.984
39763.261
39820.52
39445.57
39445.569
39445.567
39445.566
39445.565
39445.564
39445.563
39445.562
39445.562
39445.562
39445.562
39445.563
39445.565
39445.567
39445.569
39445.573
39445.578
39445.583
39445.589
39445.596
39445.603
39445.611
39445.619
39445.628
39445.639
39445.656
39445.683
39445.73
39445.809
39445.938
39446.138
39446.436
39446.863
39447.448
39448.225
39449.237
39450.533
39452.173
39454.227
39456.774
39459.903
39463.709
39468.29
39473.76
39480.251
39487.909
39496.905
39507.43
39519.691
39533.917
39550.351
39569.261
39590.931
39615.657
39643.751
39675.557
39711.444
39751.859
39797.284
39848.375
39905.838
39970.757
40044.663
40129.491
40227.835
39549.839
39549.838
39549.837
39549.836
39549.836
39549.835
39549.836
39549.836
39549.838
39549.84
39549.843
39549.848
39549.853
39549.861
39549.87
39549.881
39549.894
39549.91
39549.928
39549.949
39549.973
39549.999
39550.029
39550.063
39550.105
39550.158
39550.23
39550.331
39550.48
39550.697
39551.013
39551.46
39552.073
39552.895
39553.972
39555.359
39557.125
39559.349
39562.126
39565.564
39569.781
39574.906
39581.077
39588.452
39597.212
39607.556
39619.713
39633.939
39650.517
39669.757
39691.997
39717.609
39746.997
39780.593
39818.857
39862.301
39911.486
39967.079
40029.821
40100.654
40180.639
40271.252
40374.387
40492.569
40629.408
39652.6
39652.599
39652.598
39652.598
39652.598
39652.598
39652.6
39652.602
39652.605
39652.609
39652.615
39652.622
39652.632
39652.644
39652.658
39652.676
39652.696
39652.721
39652.75
39652.783
39652.82
39652.864
39652.913
39652.972
39653.042
39653.13
39653.245
39653.403
39653.624
39653.935
39654.37
39654.97
39655.778
39656.844
39658.225
39659.992
39662.229
39665.037
39668.534
39672.854