/*--------------------------------*- C++ -*----------------------------------*\
  =========                 |
  \\      /  F ield         | OpenFOAM: The Open Source CFD Toolbox
   \\    /   O peration     | Website:  https://openfoam.org
    \\  /    A nd           | Version:  13
     \\/     M anipulation  |
\*---------------------------------------------------------------------------*/
FoamFile
{
    format      ascii;
    class       volScalarField;
    location    "0.0055";
    object      CrankNicolson:ddt0(rho,e);
}
// * * * * * * * * * * * * * * * * * * * * * * * * * * * * * * * * * * * * * //

dimensions      [1 -1 -3 0 0 0 0];

internalField   nonuniform List<scalar> 
1000
(
3.47448e-06
1.5495e-06
-1.74598e-06
2.99252e-06
2.94459e-07
7.20752e-07
4.47082e-07
-3.17729e-07
1.79584e-06
-1.45381e-06
4.42636e-07
-2.77774e-06
-1.71397e-06
-8.52515e-07
2.9092e-06
1.33265e-06
-2.85907e-07
4.24893e-07
-1.5366e-07
-3.23402e-07
-1.50824e-07
2.89587e-06
-2.13142e-06
-5.41768e-07
-3.18861e-07
-1.0138e-06
-3.64823e-06
9.9575e-07
-4.54551e-07
6.82384e-07
3.17028e-06
3.68132e-06
-3.7068e-07
-8.45352e-07
-3.63018e-07
1.40707e-07
-1.77722e-07
1.68478e-06
-2.96428e-06
-1.66095e-06
-3.21742e-06
3.41692e-06
3.09279e-06
-2.21739e-06
-4.14306e-07
-1.90784e-06
1.07637e-06
-1.43183e-06
1.32354e-06
1.05921e-06
1.71387e-06
-5.78976e-08
2.54211e-07
-2.9472e-06
1.50331e-06
-1.77132e-06
-3.17054e-06
1.30302e-06
2.74346e-06
5.52317e-07
1.9238e-07
6.39547e-08
1.76063e-06
-1.56981e-06
-9.38047e-08
8.27503e-07
-9.91252e-07
2.89582e-06
-4.55485e-07
4.68948e-06
-1.94087e-08
-1.04366e-06
4.3392e-06
-1.70694e-08
-2.49294e-06
-4.81599e-07
-1.13759e-06
1.43481e-06
-7.73101e-07
-3.52827e-07
-6.59635e-07
-4.98409e-07
5.09731e-06
4.78599e-06
2.20975e-06
-1.39122e-06
-3.5479e-07
-1.65787e-06
-1.7094e-06
-4.71012e-06
1.8789e-06
2.97977e-06
1.80278e-06
3.57039e-07
2.73902e-06
-1.08534e-06
7.99349e-07
9.69527e-07
-2.30424e-06
-1.24208e-06
1.21048e-06
-5.87789e-07
-1.67912e-06
1.22325e-06
8.33322e-08
7.40658e-09
6.08609e-06
2.10965e-06
3.71169e-06
8.06554e-07
4.76942e-06
7.60938e-07
-3.83614e-06
-1.49375e-06
1.05181e-06
4.7046e-10
-1.39861e-06
-8.71068e-07
5.64834e-06
-1.23701e-06
-3.97711e-08
-1.96177e-06
-6.69157e-07
-2.88364e-07
-1.1084e-06
-2.48211e-09
-1.88318e-07
-1.56275e-06
-1.76972e-06
-2.74235e-06
-3.58008e-07
9.95502e-07
-2.32181e-06
2.23325e-06
3.59592e-07
-1.04601e-06
5.46951e-07
1.44997e-09
-3.90526e-06
-1.55742e-06
6.19078e-06
9.77416e-07
1.1913e-06
2.4079e-07
-5.54547e-07
-1.68077e-06
-2.84107e-06
3.26248e-07
-1.04703e-06
-9.94129e-07
-3.47194e-06
-7.67216e-07
-3.17501e-07
-1.90308e-06
4.71512e-07
1.666e-06
-1.41527e-07
-1.55436e-06
1.48401e-06
-1.74563e-06
1.21253e-06
-1.24211e-06
-2.71856e-07
-1.37233e-06
1.76198e-06
-1.00451e-07
1.71396e-06
-2.75565e-06
1.2608e-06
-9.40724e-07
2.64811e-06
-3.23867e-06
-1.87149e-06
3.90684e-07
-2.96888e-06
4.02663e-06
2.46438e-06
4.7801e-06
6.87416e-07
-1.36898e-06
-2.79599e-06
-9.30987e-07
-2.87843e-06
-4.74659e-07
2.92e-07
-3.75899e-07
1.86143e-07
-2.07088e-06
-1.41805e-06
3.87523e-08
-2.09698e-07
9.54674e-07
9.63418e-07
3.69548e-06
3.30992e-06
3.80265e-06
-5.77074e-07
-1.17453e-06
-2.07582e-06
-2.49083e-06
2.10096e-07
-3.50928e-06
-1.30625e-06
-1.57802e-07
-3.25033e-06
1.66959e-06
1.89332e-06
-1.43773e-06
-8.98257e-07
-6.77114e-07
-2.26254e-06
-2.80965e-07
1.31683e-06
3.24e-07
-1.07511e-06
1.48373e-06
-1.40413e-06
-2.64563e-06
1.11374e-06
-8.82268e-07
-7.97524e-07
1.24605e-07
7.48885e-07
1.90436e-06
1.15582e-06
8.13254e-07
2.00166e-07
-9.04661e-07
1.66168e-06
3.90634e-07
-1.17932e-07
2.62614e-06
-1.06299e-06
-5.03094e-06
-6.76761e-06
-1.64336e-05
-4.02295e-05
-7.87908e-05
-0.000153427
-0.000316623
-0.000633133
-0.00127145
-0.00252589
-0.00497382
-0.00972161
-0.0188693
-0.0363577
-0.0694986
-0.131833
-0.24812
-0.463226
-0.857806
-1.57539
-2.86898
-5.18018
-9.27202
-16.4493
-28.9194
-50.3763
-86.9313
-148.578
-251.464
-421.349
-698.805
-1146.86
-1862.06
-2990.1
-4747.45
-7450.39
-11553
-17695.2
-26760.2
-39940.9
-58809.6
-85384.2
-122177
-172210
-238973
-326306
-438174
-578343
-749946
-954988
-1.19384e+06
-1.46483e+06
-1.764e+06
-2.08515e+06
-2.42018e+06
-2.75968e+06
-3.09381e+06
-3.4131e+06
-3.70926e+06
-3.97576e+06
-4.20858e+06
-4.40654e+06
-4.57038e+06
-4.70208e+06
-4.80441e+06
-4.88043e+06
-4.93331e+06
-4.96608e+06
-4.98152e+06
-4.98215e+06
-4.97018e+06
-4.94754e+06
-4.91586e+06
-4.87657e+06
-4.83085e+06
-4.77973e+06
-4.72405e+06
-4.66455e+06
-4.60182e+06
-4.53639e+06
-4.46869e+06
-4.39908e+06
-4.32789e+06
-4.25538e+06
-4.18177e+06
-4.10727e+06
-4.03204e+06
-3.95623e+06
-3.87997e+06
-3.80338e+06
-3.72656e+06
-3.64959e+06
-3.57256e+06
-3.49554e+06
-3.41861e+06
-3.34181e+06
-3.26522e+06
-3.18889e+06
-3.11286e+06
-3.03718e+06
-2.96191e+06
-2.88707e+06
-2.8127e+06
-2.73886e+06
-2.66556e+06
-2.59284e+06
-2.52073e+06
-2.44927e+06
-2.37847e+06
-2.30836e+06
-2.23896e+06
-2.17029e+06
-2.10238e+06
-2.03524e+06
-1.96889e+06
-1.90333e+06
-1.83859e+06
-1.77467e+06
-1.71159e+06
-1.64936e+06
-1.58798e+06
-1.52745e+06
-1.4678e+06
-1.40901e+06
-1.3511e+06
-1.29406e+06
-1.23791e+06
-1.18264e+06
-1.12825e+06
-1.07475e+06
-1.02213e+06
-970391
-919536
-869562
-820467
-772248
-724904
-678430
-632824
-588082
-544200
-501175
-459003
-417678
-377196
-337553
-298744
-260763
-223606
-187267
-151741
-117023
-83106.3
-49986
-17656.2
13888.8
44654.9
74647.9
103874
132339
160048
187009
213226
238707
263457
287483
310790
333385
355275
376464
396960
416769
435897
454351
472135
489258
505724
521541
536714
551250
565155
578435
591096
603144
614587
625428
635676
645336
654414
662915
670848
678216
685027
691285
696998
702172
706811
710922
714512
717585
720147
722205
723764
724831
725409
725507
725128
724279
722966
721193
718967
716294
713177
709625
705640
701230
696400
691154
685498
679439
672980
666127
658886
651262
643259
634884
626141
617035
607571
597755
587592
577086
566242
555066
543561
531734
519588
507129
494361
481288
467916
454248
440288
426042
411513
396705
381622
366268
350645
334758
318609
302201
285537
268618
251448
234027
216358
198443
180285
161887
143254
124395
105321
86050.6
66611.6
47044.6
27408.9
7789.54
-11693.5
-30874
-49526
-67348.3
-83950.1
-98838.9
-111418
-120998
-126835
-128203
-124504
-115411
-101035
-82051
-59786.6
-36067
-13179.4
6438.15
20618
27886.4
27758.4
20809.8
8519.02
-7040.77
-23547.3
-38734.4
-50593.6
-57422
-57994.4
-51665.2
-38455.1
-19127.1
4766.21
30899.1
56296.9
77620.7
91560.4
95510.3
87634.9
67673.9
37205.3
-453.505
-40743.1
-78627.4
-109412
-129384
-136261
-129207
-108739
-76940.9
-37269
5745.94
46933.3
81061.9
103522
111055
102340
78080.6
41428.4
-2435.85
-47150.6
-86272.1
-114362
-127781
-125226
-107490
-77521.6
-40035
-821.459
34105.6
59431.1
71365.1
68342.1
51099.9
22748.9
-11705.9
-46301.7
-75250.7
-93997.1
-99986.4
-93001
-74989.9
-49787.4
-22368.2
2077.72
19097.1
25775.2
21274.3
6838.68
-14397.1
-38093.6
-59644.8
-75141
-82136.4
-80080.2
-70266.2
-55533.6
-39596.9
-26219.9
-18412.7
-17817.2
-24425.6
-36672.4
-51842.3
-66758.2
-78549.4
-85305.5
-86469
-82861
-76416.9
-69654.3
-65025.8
-64325.5
-68289.3
-76493.2
-87538.6
-99484.8
-110405
-118905
-124466
-127525
-129298
-131407
-135410
-142393
-152724
-166035
-181429
-197830
-214385
-230772
-247340
-265042
-285182
-309054
-337591
-371160
-409709
-453523
-504968
-571750
-672242
-843318
-1.1507e+06
-1.70091e+06
-2.65265e+06
-4.22391e+06
-6.68955e+06
-1.03637e+07
-1.55622e+07
-2.25437e+07
-3.14347e+07
-4.21506e+07
-5.43349e+07
-6.73388e+07
-8.02612e+07
-9.20509e+07
-1.01655e+08
-1.08179e+08
-1.11017e+08
-1.09932e+08
-1.05056e+08
-9.68477e+07
-8.60024e+07
-7.33542e+07
-5.97868e+07
-4.61597e+07
-3.32519e+07
-2.17175e+07
-1.20476e+07
-4.53822e+06
729572
3.889e+06
5.25718e+06
5.27576e+06
4.43302e+06
3.18552e+06
1.89759e+06
809942
38779.1
-401841
-565587
-538207
-408354
-248599
-106924
-6627.64
48440.5
66483.4
60679.9
43914.1
25814.3
11855
3873.34
1265.25
2264.52
4940.26
7781.11
9900.49
10982.6
11103.8
10534.7
9585.38
8513.23
7488.15
6595.25
5856.39
5255.54
4760.13
4335.44
3952.58
3591.59
3241.45
2898.49
2564.14
2242.66
1939.37
1659.48
1407.62
1187.82
1003.65
858.226
753.898
691.549
669.757
684.081
726.814
787.406
853.576
912.927
954.703
971.338
959.471
920.301
859.28
785.239
709.08
642.127
594.262
572.04
577.109
605.346
647.096
688.711
715.159
713.115
673.684
594.007
477.424
332.374
170.692
6.01194
-147.406
-275.708
-366.82
-412.471
-410.883
-369.059
-302.387
-231.471
-178.71
-163.035
-191.561
-261.514
-373.029
-517.193
-661.336
-810.668
-1013.36
-1166.85
-1114.5
-1127.63
-1329
-784.033
181.608
-998.923
-1823.06
3071.89
3021.14
-9075.07
2795.83
34018.1
-13337.3
-56103.8
124402
138164
-353639
8573.51
1.22772e+06
-531155
-2.56119e+06
4.23522e+06
5.62962e+06
-1.40563e+07
-2.95592e+06
4.83355e+07
-8.75413e+06
-1.06263e+08
2.4717e+08
2.59383e+08
1.27069e+07
-9.01221e+06
-1.25544e+06
-183956
-30735
-5129.89
-851.016
-140.886
-23.3119
-3.85693
-0.63811
-0.105571
-0.0174656
-0.0028893
-0.000478335
-7.94574e-05
-1.3555e-05
-2.35756e-06
-5.05824e-08
2.59784e-07
-1.34892e-10
2.71399e-07
-9.32856e-07
2.12228e-07
-7.24739e-08
-1.21353e-08
-3.49253e-07
2.61042e-07
7.16253e-08
-1.42616e-08
-9.08085e-08
-5.48548e-08
-2.79552e-07
5.17555e-07
2.58362e-07
3.92551e-07
6.70578e-08
1.43686e-07
-1.06199e-07
-1.50029e-07
7.14587e-07
-4.37269e-08
-1.83358e-07
3.42005e-07
7.82872e-07
3.51052e-07
-3.41376e-07
4.05617e-07
5.94925e-08
1.9423e-07
3.42951e-08
3.21238e-09
-6.15577e-08
3.35074e-08
-9.38553e-07
-5.5025e-07
5.74484e-07
-6.87215e-07
-5.26281e-07
2.05051e-07
1.17466e-08
2.58504e-07
3.02739e-08
3.7411e-07
-2.63951e-07
4.8717e-07
4.87449e-07
-1.61133e-07
-3.44986e-08
2.87638e-07
7.22275e-08
3.52118e-07
-4.2929e-08
3.68788e-07
3.48361e-07
2.90341e-08
-1.24458e-07
7.52182e-07
5.82969e-07
8.49776e-08
5.91522e-07
-6.02144e-07
-4.27059e-08
-5.36804e-09
9.42978e-08
3.77422e-07
-2.7931e-07
-7.34712e-08
3.17689e-07
-2.59213e-07
8.86983e-07
3.3852e-08
3.71778e-07
5.64568e-07
-1.88355e-07
-5.19729e-07
-1.41219e-07
-8.24507e-07
-8.42156e-08
9.35859e-07
3.74122e-07
6.36364e-07
3.01677e-07
3.26054e-07
5.28476e-07
-2.04633e-07
-1.79241e-07
-1.22563e-07
-2.77092e-07
-6.95935e-07
-8.3958e-07
-5.43597e-07
-5.73755e-07
-7.86879e-10
-1.5774e-07
3.07054e-07
-5.46051e-07
-1.40666e-07
-3.52778e-07
-1.35041e-07
-1.39539e-07
1.53572e-09
5.44831e-07
4.35896e-07
2.47703e-08
-5.45879e-07
-1.65305e-08
-2.28527e-07
2.67842e-07
5.59459e-07
-1.24921e-09
-7.43232e-08
3.47691e-08
-1.55305e-08
-1.31215e-07
2.07475e-07
8.0672e-07
-5.98235e-07
5.78637e-07
-2.20836e-07
-1.65882e-08
-2.55116e-07
-6.08298e-07
5.50364e-07
-6.97602e-08
-2.44264e-07
3.21072e-07
4.55026e-07
1.36274e-07
4.92365e-07
1.8249e-07
8.8064e-07
-2.25631e-08
2.93687e-07
-3.68543e-07
-1.44975e-07
3.53742e-07
2.07947e-07
-7.76448e-07
7.18326e-08
8.56377e-08
9.98012e-07
1.60467e-07
-1.21522e-07
-3.17388e-07
-2.45414e-07
-2.00716e-07
-1.21005e-07
-1.30599e-08
-6.46787e-07
2.65921e-07
1.3241e-07
4.73046e-09
3.35368e-07
9.87159e-07
-3.6674e-07
-8.58651e-08
-2.02799e-08
-1.692e-07
-4.46978e-08
2.7458e-07
-1.50887e-07
7.65558e-08
1.21576e-07
2.37895e-07
-4.91225e-08
-6.15918e-07
-3.51214e-07
5.11196e-07
-3.44063e-07
-8.62169e-08
4.70372e-07
-2.98154e-07
-3.51984e-07
-5.47058e-07
4.3037e-08
-1.87436e-07
-9.80089e-08
1.02052e-07
)
;

boundaryField
{
    sides
    {
        type            calculated;
        value           nonuniform List<scalar> 2(1.02052e-07 3.47448e-06);
    }
    empty
    {
        type            empty;
    }
}


// ************************************************************************* //
