/*--------------------------------*- C++ -*----------------------------------*\
  =========                 |
  \\      /  F ield         | OpenFOAM: The Open Source CFD Toolbox
   \\    /   O peration     | Website:  https://openfoam.org
    \\  /    A nd           | Version:  13
     \\/     M anipulation  |
\*---------------------------------------------------------------------------*/
FoamFile
{
    format      ascii;
    class       volScalarField;
    location    "0.0055";
    object      CrankNicolson:ddt0(rho);
}
// * * * * * * * * * * * * * * * * * * * * * * * * * * * * * * * * * * * * * //

dimensions      [1 -3 -1 0 0 0 0];

internalField   nonuniform List<scalar> 
1000
(
-3.85749e-11
7.78454e-12
-1.20059e-11
1.17028e-11
1.05102e-12
-4.50822e-12
2.30909e-12
2.65439e-11
-1.02582e-11
9.89715e-12
2.17783e-12
-4.18534e-11
-9.95505e-12
1.70406e-12
-2.2443e-12
1.84307e-11
1.43612e-11
-1.0922e-11
5.20822e-12
1.10267e-13
1.65161e-11
-3.14786e-12
4.78716e-11
1.9182e-11
-4.32295e-11
-2.29061e-11
1.9226e-11
-1.18907e-11
5.80264e-11
4.05478e-11
-3.34508e-11
-1.71109e-11
1.6573e-12
1.26565e-11
-2.91801e-11
8.5063e-12
-2.72367e-12
-4.86708e-11
3.6404e-11
-7.48669e-11
-5.95879e-11
-3.1271e-11
4.60854e-12
4.77239e-11
-2.13472e-11
5.32064e-11
1.38383e-11
-5.21191e-13
-4.10135e-12
-3.70264e-13
-7.05811e-12
-3.37395e-13
-3.3097e-13
-3.05744e-11
-1.58807e-11
3.74413e-11
3.69491e-11
-3.6001e-11
-1.69617e-11
2.51634e-11
2.19293e-13
-1.06075e-12
1.82133e-11
2.88694e-12
-4.81384e-11
-2.82062e-11
-3.30147e-11
2.42784e-11
3.04999e-12
3.06743e-11
1.55757e-14
3.99202e-14
-2.60219e-11
-1.14214e-11
-1.52852e-11
3.44728e-11
-4.29516e-12
5.35669e-11
-5.19917e-13
4.80166e-11
3.5648e-11
3.44539e-12
8.55343e-12
-3.51116e-11
-1.29185e-12
1.39496e-12
-8.77454e-12
2.23784e-11
-2.25146e-12
-1.66617e-11
1.62976e-11
-4.16984e-11
1.69257e-11
3.3319e-12
1.7108e-11
1.92374e-12
-5.20621e-11
3.32683e-11
-3.33317e-11
2.44045e-12
2.36406e-14
1.66856e-11
6.65362e-11
-1.29734e-11
-9.107e-12
1.2457e-11
-5.56745e-11
1.38122e-12
-2.74517e-11
-8.81624e-12
-3.79115e-11
-2.7322e-11
-3.34705e-11
-2.75086e-11
-3.2323e-13
2.16593e-11
2.11841e-11
8.25166e-12
-1.71576e-11
-1.69125e-11
-2.27677e-13
-5.61434e-12
8.35742e-12
2.9088e-11
4.42739e-14
-3.1492e-13
3.80147e-11
-1.99385e-11
2.41232e-11
-1.65876e-11
3.53898e-11
-4.16645e-12
1.02345e-11
9.91877e-12
-6.3282e-12
1.08882e-11
-8.31852e-12
1.07496e-12
-4.15521e-12
3.44756e-11
-1.19282e-12
-1.23009e-11
3.67504e-11
4.63341e-11
-7.08731e-12
-1.77205e-11
4.20149e-12
-4.33937e-13
1.59713e-11
5.81744e-12
-1.66475e-11
2.7648e-13
1.90544e-12
-5.00414e-11
-1.33344e-12
-1.80745e-11
-3.1745e-11
-1.68447e-11
-3.97171e-11
4.82069e-11
-1.18707e-12
-2.14179e-12
-2.48961e-11
-1.8448e-11
1.92196e-11
-7.03987e-11
-2.26139e-11
8.03592e-12
-3.3435e-11
-2.38146e-11
-3.59916e-11
-1.65115e-11
-3.48543e-12
6.50543e-12
-2.39263e-12
-2.90823e-11
-7.21741e-13
1.6522e-11
3.47216e-11
2.4524e-11
-1.66867e-11
2.66281e-12
6.25474e-12
-4.8844e-11
-3.36483e-11
3.46623e-13
-2.53445e-11
-1.32406e-12
-4.1463e-12
-8.72105e-13
2.3712e-13
3.39899e-11
1.64032e-11
3.46116e-11
1.53269e-12
-3.43276e-12
2.64487e-13
4.2436e-12
4.89111e-12
-1.7696e-11
-4.36866e-11
-2.23576e-11
2.46408e-11
-3.43369e-11
-1.19974e-11
-2.10967e-11
-4.14927e-11
-1.6128e-11
-1.95778e-11
-4.22966e-12
-3.27833e-13
-2.07932e-12
-4.78774e-11
1.20291e-11
-7.02584e-12
5.20072e-13
1.49576e-12
-2.13978e-11
-1.68513e-11
-4.58383e-11
1.01294e-11
2.46554e-12
-1.36438e-14
-2.05865e-11
-9.90069e-12
1.75573e-11
1.73408e-11
9.44898e-12
2.89226e-11
-1.76316e-11
5.20936e-12
3.81937e-11
7.6255e-12
-6.42611e-11
-1.51813e-10
-3.92222e-10
-7.64307e-10
-1.52185e-09
-3.11397e-09
-6.27806e-09
-1.26704e-08
-2.5266e-08
-5.01356e-08
-9.879e-08
-1.93086e-07
-3.74813e-07
-7.21889e-07
-1.37996e-06
-2.61727e-06
-4.925e-06
-9.19371e-06
-1.70228e-05
-3.1259e-05
-5.69195e-05
-0.00010276
-0.000183909
-0.00032623
-0.000573477
-0.000998856
-0.00172347
-0.00294534
-0.00498435
-0.0083508
-0.0138483
-0.0227251
-0.0368932
-0.0592376
-0.094044
-0.147575
-0.228821
-0.350448
-0.529948
-0.790941
-1.16458
-1.69086
-2.41964
-3.41097
-4.73441
-6.4668
-8.6881
-11.4753
-14.894
-18.9893
-23.776
-29.2307
-35.2866
-41.8341
-48.7258
-55.7879
-62.8347
-69.6845
-76.1741
-82.1702
-87.585
-92.3847
-96.5733
-100.179
-103.247
-105.828
-107.976
-109.745
-111.183
-112.336
-113.243
-113.94
-114.456
-114.816
-115.044
-115.158
-115.172
-115.102
-114.958
-114.749
-114.483
-114.168
-113.81
-113.412
-112.979
-112.514
-112.022
-111.503
-110.96
-110.396
-109.811
-109.208
-108.588
-107.951
-107.3
-106.634
-105.955
-105.264
-104.561
-103.848
-103.124
-102.391
-101.65
-100.9
-100.143
-99.3793
-98.6092
-97.8334
-97.0525
-96.2669
-95.4772
-94.6838
-93.8871
-93.0877
-92.2858
-91.4819
-90.6764
-89.8696
-89.0618
-88.2534
-87.4446
-86.6357
-85.827
-85.0187
-84.211
-83.4042
-82.5984
-81.7938
-80.9907
-80.1891
-79.3892
-78.5911
-77.795
-77.0011
-76.2093
-75.4198
-74.6328
-73.8482
-73.0663
-72.2869
-71.5104
-70.7366
-69.9657
-69.1977
-68.4327
-67.6708
-66.9119
-66.1561
-65.4035
-64.6541
-63.908
-63.1651
-62.4255
-61.6892
-60.9563
-60.2268
-59.5006
-58.7779
-58.0587
-57.3429
-56.6305
-55.9217
-55.2163
-54.5145
-53.8162
-53.1214
-52.4302
-51.7425
-51.0584
-50.3779
-49.7009
-49.0275
-48.3577
-47.6914
-47.0288
-46.3697
-45.7142
-45.0623
-44.414
-43.7693
-43.1281
-42.4906
-41.8566
-41.2262
-40.5994
-39.9762
-39.3566
-38.7405
-38.1279
-37.519
-36.9136
-36.3117
-35.7134
-35.1186
-34.5274
-33.9396
-33.3554
-32.7748
-32.1976
-31.6239
-31.0537
-30.487
-29.9238
-29.364
-28.8078
-28.2549
-27.7055
-27.1596
-26.6171
-26.078
-25.5423
-25.01
-24.4811
-23.9556
-23.4335
-22.9148
-22.3994
-21.8874
-21.3787
-20.8733
-20.3713
-19.8725
-19.3771
-18.885
-18.3961
-17.9105
-17.4282
-16.9492
-16.4734
-16.0008
-15.5314
-15.0653
-14.6023
-14.1425
-13.6859
-13.2325
-12.7822
-12.335
-11.891
-11.45
-11.0122
-10.5774
-10.1456
-9.71687
-9.29113
-8.86835
-8.44852
-8.03158
-7.61751
-7.20626
-6.79778
-6.39202
-5.98892
-5.58841
-5.19041
-4.79485
-4.40164
-4.01069
-3.62191
-3.23521
-2.85054
-2.46784
-2.08714
-1.70852
-1.33221
-0.958607
-0.588392
-0.222625
0.1371
0.488461
0.82817
1.15169
1.45295
1.72404
1.95506
2.13414
2.24791
2.28259
2.22581
2.06934
1.8124
1.4648
1.04906
0.599509
0.160808
-0.218319
-0.494006
-0.636336
-0.635623
-0.503827
-0.271043
0.0212059
0.327389
0.604202
0.814361
0.928074
0.925071
0.795653
0.541616
0.177298
-0.269442
-0.75697
-1.23138
-1.63081
-1.89288
-1.96524
-1.81246
-1.4295
-0.84749
-0.131635
0.629141
1.33778
1.90534
2.26359
2.37217
2.21896
1.81854
1.21271
0.466652
-0.336392
-1.10233
-1.73589
-2.1526
-2.2918
-2.12765
-1.67462
-0.992665
-0.179591
0.6452
1.36168
1.86959
2.10341
2.04027
1.6981
1.13381
0.435256
-0.291333
-0.936573
-1.40412
-1.62569
-1.57272
-1.26016
-0.746418
-0.123997
0.497796
1.01358
1.34115
1.43509
1.29258
0.950884
0.480654
-0.027633
-0.480356
-0.797742
-0.928171
-0.857243
-0.608776
-0.240187
0.170003
0.539079
0.797359
0.901796
0.843267
0.645984
0.361334
0.0557954
-0.203814
-0.364548
-0.398032
-0.305309
-0.115047
0.124111
0.355824
0.529585
0.612136
0.594128
0.490541
0.335667
0.173615
0.0469452
-0.0136558
0.00382691
0.0910844
0.222976
0.365218
0.484058
0.555192
0.569532
0.534449
0.470529
0.404921
0.363312
0.362891
0.408245
0.49122
0.594487
0.697621
0.783694
0.844336
0.881805
0.907643
0.938522
0.990734
1.07517
1.19451
1.34383
1.51534
1.70761
1.93977
2.27135
2.82859
3.83734
5.66019
8.8318
14.0808
22.3217
34.5977
51.9574
75.2612
104.931
140.688
181.346
224.743
267.87
307.216
339.264
361.026
370.487
366.853
350.574
323.176
286.978
244.765
199.486
154.011
110.942
72.4592
40.2003
15.1512
-2.41964
-12.9579
-17.5225
-17.5868
-14.7794
-10.6223
-6.32992
-2.70469
-0.13402
1.33506
1.88133
1.79051
1.35809
0.825917
0.353911
0.0197153
-0.163828
-0.224035
-0.204792
-0.149011
-0.0887586
-0.0422724
-0.0156756
-0.00696238
-0.0102562
-0.0191323
-0.0285635
-0.0356042
-0.0392106
-0.0396445
-0.0378136
-0.0347532
-0.0313189
-0.0280688
-0.0252753
-0.0229989
-0.0211755
-0.0196891
-0.0184205
-0.0172723
-0.0161784
-0.0151024
-0.0140333
-0.0129787
-0.011959
-0.0110016
-0.0101362
-0.0093895
-0.00878173
-0.00832428
-0.00801885
-0.00785834
-0.00782878
-0.0079115
-0.00808473
-0.00832443
-0.00860435
-0.00889618
-0.00917039
-0.0093985
-0.00955659
-0.00962961
-0.00961521
-0.00952594
-0.00938866
-0.00924081
-0.00912387
-0.00907532
-0.00912084
-0.00926878
-0.00950828
-0.00981158
-0.0101401
-0.0104525
-0.0107123
-0.0108941
-0.0109861
-0.0109905
-0.0109212
-0.0108029
-0.0106687
-0.0105592
-0.0105198
-0.0105931
-0.0108091
-0.0111774
-0.0116815
-0.0122722
-0.0128747
-0.0134168
-0.0138302
-0.0140361
-0.0140371
-0.0139763
-0.0138794
-0.0136414
-0.0136619
-0.0142839
-0.0142284
-0.0131642
-0.0143374
-0.0156946
-0.00925803
-0.00703554
-0.024158
-0.0163715
0.0282915
-0.0209394
-0.0983998
0.130843
0.249561
-0.389277
-0.139847
1.67793
-0.100652
-3.6811
4.40682
9.69373
-15.7352
-10.588
61.3258
0.352274
-156.121
145.598
409.131
-644.886
-646.63
3170.36
3727.26
1427.72
310.713
50.7233
8.24303
1.3625
0.225518
0.0373181
0.0061744
0.00102153
0.000169007
2.79612e-05
4.62602e-06
7.65346e-07
1.26623e-07
2.09499e-08
3.46782e-09
5.6732e-10
1.07726e-10
1.26446e-11
3.65844e-13
6.96304e-14
-2.34741e-12
1.67252e-12
1.64665e-12
-5.85968e-13
-5.20486e-13
9.28001e-13
1.65759e-12
-2.08238e-12
-3.53977e-14
-8.80142e-15
-2.12535e-12
-4.13503e-12
-7.91984e-12
-2.14675e-12
1.62652e-12
-3.06923e-13
5.40164e-13
-4.65546e-13
1.34524e-12
-3.24689e-12
-3.88797e-12
1.39625e-12
-6.28153e-12
-1.1124e-11
-2.74012e-12
-2.08358e-12
-4.21419e-12
1.48595e-12
-2.15515e-12
-2.08424e-12
-1.94817e-12
-2.11572e-12
5.20163e-13
2.02439e-12
-3.20097e-12
-2.17113e-12
8.60157e-12
4.6744e-12
2.58207e-13
-7.69869e-14
-1.05456e-13
-3.5283e-13
3.93786e-12
7.70306e-12
1.60302e-12
3.74838e-12
4.39193e-13
2.48097e-13
-3.83809e-12
3.50024e-12
-5.08347e-13
5.05153e-13
2.44378e-12
-1.27722e-13
1.9923e-13
3.05443e-12
-1.0449e-12
-3.71601e-12
-2.16433e-14
-4.18582e-12
7.68071e-13
5.89446e-12
9.21775e-14
-1.14888e-12
5.45056e-13
9.79837e-13
1.35333e-13
6.09587e-12
1.94666e-12
-3.643e-12
4.9387e-12
-2.34264e-12
-2.60612e-12
-1.78401e-13
1.64055e-12
2.04101e-12
3.30816e-12
-1.52061e-13
2.8778e-12
-6.36991e-13
-2.91743e-12
-4.70546e-12
-3.71419e-12
-7.43155e-12
3.05341e-12
-1.82256e-12
3.23951e-13
2.25265e-12
4.20252e-12
3.52194e-12
2.10144e-12
7.26572e-12
3.28436e-14
-3.58211e-12
1.82108e-12
5.20519e-12
-6.8998e-14
-3.06961e-12
8.13339e-13
-1.18816e-16
1.77927e-14
-1.62511e-14
3.77738e-12
-2.43517e-12
4.1682e-12
2.00842e-12
2.58271e-13
-2.287e-14
-1.55745e-12
3.02689e-14
5.53988e-13
9.444e-17
-6.30908e-13
-5.34336e-13
-1.03286e-12
-2.86413e-12
9.34059e-13
-1.54244e-12
7.92197e-12
-3.08904e-13
3.76032e-12
2.59547e-12
1.32243e-12
6.60817e-12
1.02514e-11
4.34175e-13
1.41595e-12
-1.62141e-12
-5.18486e-12
-5.55076e-12
-6.36348e-12
-6.9621e-12
-7.43205e-12
-2.60024e-13
-2.732e-12
-9.66825e-13
-2.17305e-12
-1.47565e-12
1.32065e-12
-5.50298e-13
-4.31319e-12
-3.49662e-12
4.2203e-12
2.42619e-12
3.12227e-12
1.92076e-12
3.62017e-12
4.94046e-12
3.1225e-12
-1.9114e-16
-7.82651e-13
-3.40584e-14
-1.31646e-12
-5.44355e-12
1.39964e-12
2.64237e-14
-3.96832e-13
-2.53221e-13
1.03173e-13
-9.15537e-15
-3.84621e-12
1.69505e-16
5.19323e-13
-4.68202e-12
-4.8849e-12
3.16283e-12
-4.73394e-12
-2.30097e-12
-3.07315e-13
-7.78917e-13
-7.83174e-13
4.74272e-12
5.26557e-12
8.75582e-13
7.94086e-12
4.6126e-12
2.4176e-12
4.745e-12
)
;

boundaryField
{
    sides
    {
        type            calculated;
        value           nonuniform List<scalar> 2(4.745e-12 -3.85749e-11);
    }
    empty
    {
        type            empty;
    }
}


// ************************************************************************* //
