/*--------------------------------*- C++ -*----------------------------------*\
  =========                 |
  \\      /  F ield         | OpenFOAM: The Open Source CFD Toolbox
   \\    /   O peration     | Website:  https://openfoam.org
    \\  /    A nd           | Version:  13
     \\/     M anipulation  |
\*---------------------------------------------------------------------------*/
FoamFile
{
    format      ascii;
    class       volVectorField;
    location    "0.0055";
    object      CrankNicolson:ddt0(rho,U);
}
// * * * * * * * * * * * * * * * * * * * * * * * * * * * * * * * * * * * * * //

dimensions      [1 -2 -2 0 0 0 0];

internalField   nonuniform List<vector> 
1000
(
(-2.91038e-09 0 0)
(-5.82077e-09 0 0)
(-1.45519e-09 0 0)
(2.91038e-09 0 0)
(-4.36557e-09 0 0)
(-1.45519e-09 0 0)
(2.91038e-09 0 0)
(-5.82077e-09 0 0)
(-7.27596e-09 0 0)
(2.91038e-09 0 0)
(1.45519e-09 0 0)
(-5.82077e-09 0 0)
(-8.73115e-09 0 0)
(-4.36557e-09 0 0)
(-1.45519e-09 0 0)
(1.45519e-09 0 0)
(1.45519e-09 0 0)
(-6.9677e-23 0 0)
(1.01863e-08 0 0)
(1.45519e-08 0 0)
(2.91038e-09 0 0)
(-2.91038e-09 0 0)
(-2.91038e-09 0 0)
(-2.91038e-09 0 0)
(-4.36557e-09 0 0)
(-1.30967e-08 0 0)
(-8.73115e-09 0 0)
(-7.27596e-09 0 0)
(-4.36557e-09 0 0)
(-2.91038e-09 0 0)
(-7.27596e-09 0 0)
(-5.82077e-09 0 0)
(-4.36557e-09 0 0)
(-1.45519e-09 0 0)
(2.07933e-22 0 0)
(2.91038e-09 0 0)
(5.82077e-09 0 0)
(5.82077e-09 0 0)
(2.91038e-09 0 0)
(1.45519e-08 0 0)
(1.60071e-08 0 0)
(4.36557e-09 0 0)
(-5.82077e-09 0 0)
(-4.36557e-09 0 0)
(-1.45519e-09 0 0)
(1.45519e-09 0 0)
(1.65436e-22 0 0)
(2.91038e-09 0 0)
(5.82077e-09 0 0)
(8.42367e-24 0 0)
(1.45519e-09 0 0)
(-3.61892e-24 0 0)
(3.57756e-23 0 0)
(1.45519e-09 0 0)
(1.45519e-09 0 0)
(-5.82077e-09 0 0)
(-7.27596e-09 0 0)
(3.65963e-23 0 0)
(7.27919e-23 0 0)
(-2.91038e-09 0 0)
(-1.45519e-09 0 0)
(-4.36557e-09 0 0)
(1.45519e-09 0 0)
(2.91038e-09 0 0)
(5.82077e-09 0 0)
(4.36557e-09 0 0)
(-2.91038e-09 0 0)
(-2.91038e-09 0 0)
(1.32349e-23 0 0)
(-6.72084e-23 0 0)
(-4.9424e-23 0 0)
(7.29858e-23 0 0)
(-2.91038e-09 0 0)
(-1.45519e-09 0 0)
(-2.97785e-23 0 0)
(-1.45519e-09 0 0)
(1.45519e-09 0 0)
(1.45519e-09 0 0)
(-5.82077e-09 0 0)
(-2.91038e-09 0 0)
(-4.36557e-09 0 0)
(-1.16415e-08 0 0)
(-1.30967e-08 0 0)
(-2.91038e-09 0 0)
(-1.89819e-22 0 0)
(-2.91038e-09 0 0)
(-2.91038e-09 0 0)
(5.02512e-23 0 0)
(2.91038e-09 0 0)
(1.45519e-09 0 0)
(4.36557e-09 0 0)
(2.02375e-22 0 0)
(-4.36557e-09 0 0)
(1.45519e-09 0 0)
(1.45519e-09 0 0)
(2.91038e-09 0 0)
(3.22187e-22 0 0)
(1.45519e-09 0 0)
(5.82077e-09 0 0)
(-1.02984e-22 0 0)
(-5.82077e-09 0 0)
(-2.91038e-09 0 0)
(-2.91038e-09 0 0)
(1.45519e-09 0 0)
(-1.45519e-09 0 0)
(1.45519e-09 0 0)
(1.45519e-09 0 0)
(-2.91038e-09 0 0)
(-2.91038e-09 0 0)
(-5.82077e-09 0 0)
(1.82083e-22 0 0)
(-8.73115e-09 0 0)
(-5.82077e-09 0 0)
(-1.45519e-09 0 0)
(-1.12703e-22 0 0)
(-1.45519e-09 0 0)
(-4.36557e-09 0 0)
(4.36557e-09 0 0)
(7.27596e-09 0 0)
(-1.45519e-09 0 0)
(-4.36557e-09 0 0)
(8.09991e-23 0 0)
(4.36557e-09 0 0)
(2.91038e-09 0 0)
(-2.91038e-09 0 0)
(-1.45519e-09 0 0)
(-2.91038e-09 0 0)
(1.45519e-09 0 0)
(4.36557e-09 0 0)
(4.36557e-09 0 0)
(-4.36557e-09 0 0)
(-5.82077e-09 0 0)
(2.91038e-09 0 0)
(-1.45519e-09 0 0)
(-4.36557e-09 0 0)
(9.44957e-23 0 0)
(1.45519e-09 0 0)
(-4.52881e-23 0 0)
(-1.45519e-09 0 0)
(-1.37519e-23 0 0)
(-7.27596e-09 0 0)
(-1.60071e-08 0 0)
(-7.27596e-09 0 0)
(-1.45519e-09 0 0)
(2.91038e-09 0 0)
(1.45519e-09 0 0)
(2.91038e-09 0 0)
(1.45519e-09 0 0)
(1.45519e-09 0 0)
(-2.91038e-09 0 0)
(-2.91038e-09 0 0)
(-1.45519e-09 0 0)
(-1.45519e-09 0 0)
(1.45519e-09 0 0)
(-4.36557e-09 0 0)
(-8.73115e-09 0 0)
(-1.38553e-23 0 0)
(4.36557e-09 0 0)
(1.45519e-09 0 0)
(4.36557e-09 0 0)
(3.32876e-23 0 0)
(-1.45519e-09 0 0)
(5.82077e-09 0 0)
(-2.91038e-09 0 0)
(-4.36557e-09 0 0)
(2.91038e-09 0 0)
(1.36898e-22 0 0)
(2.91038e-09 0 0)
(-1.45519e-09 0 0)
(-1.45519e-09 0 0)
(-1.45519e-09 0 0)
(-7.27596e-09 0 0)
(-1.01863e-08 0 0)
(-7.27596e-09 0 0)
(-2.91038e-09 0 0)
(-1.45519e-09 0 0)
(-4.36557e-09 0 0)
(-4.36557e-09 0 0)
(-4.36557e-09 0 0)
(-7.27596e-09 0 0)
(-2.91038e-09 0 0)
(4.36557e-09 0 0)
(4.36557e-09 0 0)
(4.36557e-09 0 0)
(2.91038e-09 0 0)
(4.36557e-09 0 0)
(2.91038e-09 0 0)
(2.06795e-25 0 0)
(-1.45519e-09 0 0)
(-2.91038e-09 0 0)
(-4.36557e-09 0 0)
(-2.91038e-09 0 0)
(2.23339e-23 0 0)
(2.91038e-09 0 0)
(1.45519e-09 0 0)
(1.45519e-09 0 0)
(2.91038e-09 0 0)
(8.73115e-09 0 0)
(8.73115e-09 0 0)
(4.36557e-09 0 0)
(5.82077e-09 0 0)
(4.36557e-09 0 0)
(5.82077e-09 0 0)
(1.16415e-08 0 0)
(5.82077e-09 0 0)
(1.45519e-09 0 0)
(-4.36557e-09 0 0)
(7.44463e-24 0 0)
(-2.91038e-09 0 0)
(-8.73115e-09 0 0)
(4.36557e-09 0 0)
(1.45519e-09 0 0)
(-5.82077e-09 0 0)
(-4.36557e-09 0 0)
(-1.45519e-09 0 0)
(-5.88332e-23 0 0)
(7.27596e-09 0 0)
(5.82077e-09 0 0)
(2.91038e-09 0 0)
(2.91038e-09 0 0)
(3.61892e-23 0 0)
(-4.36557e-09 0 0)
(-7.27596e-09 0 0)
(-2.91038e-09 0 0)
(-1.45519e-09 0 0)
(-2.5229e-23 0 0)
(-1.45519e-09 0 0)
(6.2394e-23 0 0)
(1.45519e-09 0 0)
(5.82077e-09 0 0)
(8.73115e-09 0 0)
(1.16415e-08 0 0)
(1.16415e-08 0 0)
(2.91038e-08 0 0)
(6.98492e-08 0 0)
(1.36788e-07 0 0)
(2.86673e-07 0 0)
(6.02449e-07 0 0)
(1.22236e-06 0 0)
(2.45927e-06 0 0)
(4.93455e-06 0 0)
(9.85456e-06 0 0)
(1.95418e-05 0 0)
(3.84563e-05 0 0)
(7.51344e-05 0 0)
(0.000145716 0 0)
(0.000280463 0 0)
(0.000535666 0 0)
(0.00101518 0 0)
(0.0019088 0 0)
(0.00356033 0 0)
(0.00658688 0 0)
(0.0120857 0 0)
(0.0219887 0 0)
(0.0396649 0 0)
(0.0709286 0 0)
(0.125712 0 0)
(0.220801 0 0)
(0.384252 0 0)
(0.662434 0 0)
(1.13109 0 0)
(1.91243 0 0)
(3.20126 0 0)
(5.30395 0 0)
(8.69593 0 0)
(14.1045 0 0)
(22.6259 0 0)
(35.8866 0 0)
(56.2601 0 0)
(87.1494 0 0)
(133.342 0 0)
(201.439 0 0)
(300.341 0 0)
(441.764 0 0)
(640.72 0 0)
(915.878 0 0)
(1289.67 0 0)
(1787.96 0 0)
(2439.24 0 0)
(3272.93 0 0)
(4317.1 0 0)
(5595.29 0 0)
(7123.02 0 0)
(8904.17 0 0)
(10928 0 0)
(13167.7 0 0)
(15580 0 0)
(18108.1 0 0)
(20685.7 0 0)
(23242.6 0 0)
(25710.6 0 0)
(28029.3 0 0)
(30150.8 0 0)
(32044.7 0 0)
(33699.2 0 0)
(35116.8 0 0)
(36309.5 0 0)
(37294.7 0 0)
(38093.1 0 0)
(38725.7 0 0)
(39213.3 0 0)
(39575.1 0 0)
(39828.6 0 0)
(39989.2 0 0)
(40070.3 0 0)
(40083.6 0 0)
(40039.1 0 0)
(39945.1 0 0)
(39809 0 0)
(39636.7 0 0)
(39433.5 0 0)
(39203.6 0 0)
(38950.9 0 0)
(38678.3 0 0)
(38388.4 0 0)
(38083.7 0 0)
(37765.8 0 0)
(37436.5 0 0)
(37097.2 0 0)
(36749 0 0)
(36393 0 0)
(36030.2 0 0)
(35661.2 0 0)
(35286.8 0 0)
(34907.7 0 0)
(34524.5 0 0)
(34137.5 0 0)
(33747.3 0 0)
(33354.4 0 0)
(32959.2 0 0)
(32561.9 0 0)
(32163 0 0)
(31762.9 0 0)
(31361.7 0 0)
(30959.9 0 0)
(30557.6 0 0)
(30155.3 0 0)
(29753.1 0 0)
(29351.2 0 0)
(28949.9 0 0)
(28549.5 0 0)
(28150.1 0 0)
(27751.9 0 0)
(27355.1 0 0)
(26959.8 0 0)
(26566.3 0 0)
(26174.7 0 0)
(25785.2 0 0)
(25397.8 0 0)
(25012.6 0 0)
(24629.9 0 0)
(24249.7 0 0)
(23872.1 0 0)
(23497.2 0 0)
(23125 0 0)
(22755.7 0 0)
(22389.3 0 0)
(22025.9 0 0)
(21665.6 0 0)
(21308.3 0 0)
(20954.2 0 0)
(20603.2 0 0)
(20255.5 0 0)
(19911 0 0)
(19569.8 0 0)
(19231.9 0 0)
(18897.3 0 0)
(18566 0 0)
(18238.1 0 0)
(17913.6 0 0)
(17592.5 0 0)
(17274.8 0 0)
(16960.4 0 0)
(16649.5 0 0)
(16342 0 0)
(16037.9 0 0)
(15737.2 0 0)
(15439.9 0 0)
(15146 0 0)
(14855.5 0 0)
(14568.5 0 0)
(14284.8 0 0)
(14004.5 0 0)
(13727.6 0 0)
(13454 0 0)
(13183.8 0 0)
(12917 0 0)
(12653.5 0 0)
(12393.3 0 0)
(12136.4 0 0)
(11882.9 0 0)
(11632.6 0 0)
(11385.6 0 0)
(11141.8 0 0)
(10901.3 0 0)
(10664 0 0)
(10429.9 0 0)
(10199.1 0 0)
(9971.36 0 0)
(9746.82 0 0)
(9525.44 0 0)
(9307.18 0 0)
(9092.03 0 0)
(8879.98 0 0)
(8671 0 0)
(8465.08 0 0)
(8262.2 0 0)
(8062.34 0 0)
(7865.49 0 0)
(7671.62 0 0)
(7480.71 0 0)
(7292.76 0 0)
(7107.72 0 0)
(6925.6 0 0)
(6746.37 0 0)
(6570.01 0 0)
(6396.49 0 0)
(6225.81 0 0)
(6057.94 0 0)
(5892.86 0 0)
(5730.56 0 0)
(5571.01 0 0)
(5414.19 0 0)
(5260.08 0 0)
(5108.67 0 0)
(4959.93 0 0)
(4813.85 0 0)
(4670.4 0 0)
(4529.56 0 0)
(4391.33 0 0)
(4255.66 0 0)
(4122.55 0 0)
(3991.98 0 0)
(3863.93 0 0)
(3738.37 0 0)
(3615.28 0 0)
(3494.66 0 0)
(3376.47 0 0)
(3260.7 0 0)
(3147.33 0 0)
(3036.34 0 0)
(2927.71 0 0)
(2821.41 0 0)
(2717.44 0 0)
(2615.77 0 0)
(2516.38 0 0)
(2419.25 0 0)
(2324.37 0 0)
(2231.71 0 0)
(2141.25 0 0)
(2052.99 0 0)
(1966.88 0 0)
(1882.93 0 0)
(1801.1 0 0)
(1721.39 0 0)
(1643.76 0 0)
(1568.21 0 0)
(1494.71 0 0)
(1423.25 0 0)
(1353.8 0 0)
(1286.35 0 0)
(1220.87 0 0)
(1157.36 0 0)
(1095.79 0 0)
(1036.14 0 0)
(978.403 0 0)
(922.549 0 0)
(868.562 0 0)
(816.425 0 0)
(766.119 0 0)
(717.627 0 0)
(670.93 0 0)
(626.01 0 0)
(582.849 0 0)
(541.429 0 0)
(501.73 0 0)
(463.735 0 0)
(427.425 0 0)
(392.782 0 0)
(359.787 0 0)
(328.422 0 0)
(298.667 0 0)
(270.504 0 0)
(243.913 0 0)
(218.873 0 0)
(195.364 0 0)
(173.366 0 0)
(152.856 0 0)
(133.812 0 0)
(116.208 0 0)
(100.019 0 0)
(85.2141 0 0)
(71.7613 0 0)
(59.6236 0 0)
(48.7581 0 0)
(39.1144 0 0)
(30.6315 0 0)
(23.235 0 0)
(16.8332 0 0)
(11.3125 0 0)
(6.53275 0 0)
(2.32211 0 0)
(-1.52667 0 0)
(-5.25715 0 0)
(-9.1436 0 0)
(-13.474 0 0)
(-18.5155 0 0)
(-24.4546 0 0)
(-31.3085 0 0)
(-38.8113 0 0)
(-46.2942 0 0)
(-52.6046 0 0)
(-56.137 0 0)
(-55.0436 0 0)
(-47.711 0 0)
(-33.2779 0 0)
(-12.5489 0 0)
(11.9306 0 0)
(36.1433 0 0)
(55.5501 0 0)
(66.4133 0 0)
(66.9283 0 0)
(57.6619 0 0)
(41.158 0 0)
(20.9806 0 0)
(0.654165 0 0)
(-17.0617 0 0)
(-30.4074 0 0)
(-38.71 0 0)
(-41.9221 0 0)
(-40.2017 0 0)
(-33.5894 0 0)
(-21.8959 0 0)
(-4.85826 0 0)
(17.4372 0 0)
(43.9815 0 0)
(72.2869 0 0)
(98.3568 0 0)
(116.573 0 0)
(121.922 0 0)
(111.076 0 0)
(83.9067 0 0)
(43.9871 0 0)
(-2.1962 0 0)
(-47.0198 0 0)
(-83.6765 0 0)
(-107.614 0 0)
(-116.748 0 0)
(-111.176 0 0)
(-92.7512 0 0)
(-63.8413 0 0)
(-26.9986 0 0)
(14.9787 0 0)
(58.6782 0 0)
(99.6967 0 0)
(132.682 0 0)
(151.954 0 0)
(152.62 0 0)
(132.94 0 0)
(94.8589 0 0)
(44.1935 0 0)
(-10.5283 0 0)
(-60.0947 0 0)
(-96.6665 0 0)
(-115.303 0 0)
(-114.038 0 0)
(-94.228 0 0)
(-59.4916 0 0)
(-14.9379 0 0)
(33.3659 0 0)
(78.8607 0 0)
(115.017 0 0)
(136.212 0 0)
(138.542 0 0)
(121.342 0 0)
(87.5729 0 0)
(43.4795 0 0)
(-2.63329 0 0)
(-42.2399 0 0)
(-68.4257 0 0)
(-77.1269 0 0)
(-67.5493 0 0)
(-42.2657 0 0)
(-6.27741 0 0)
(33.8774 0 0)
(71.159 0 0)
(99.1212 0 0)
(113.034 0 0)
(110.693 0 0)
(93.228 0 0)
(64.8146 0 0)
(31.8147 0 0)
(1.36289 0 0)
(-20.2281 0 0)
(-28.8122 0 0)
(-23.0973 0 0)
(-4.88227 0 0)
(21.6058 0 0)
(50.6829 0 0)
(76.408 0 0)
(93.8093 0 0)
(99.9018 0 0)
(94.3176 0 0)
(79.3924 0 0)
(59.5224 0 0)
(40.0657 0 0)
(26.0204 0 0)
(20.842 0 0)
(25.7258 0 0)
(39.4095 0 0)
(58.6445 0 0)
(79.0894 0 0)
(96.4177 0 0)
(107.383 0 0)
(110.574 0 0)
(106.715 0 0)
(98.3822 0 0)
(89.2372 0 0)
(83.0013 0 0)
(82.4575 0 0)
(88.7667 0 0)
(101.254 0 0)
(117.73 0 0)
(135.209 0 0)
(150.819 0 0)
(162.629 0 0)
(170.17 0 0)
(174.523 0 0)
(177.931 0 0)
(183.096 0 0)
(192.379 0 0)
(207.163 0 0)
(227.576 0 0)
(252.632 0 0)
(280.73 0 0)
(310.312 0 0)
(340.44 0 0)
(371.133 0 0)
(403.471 0 0)
(439.734 0 0)
(484.156 0 0)
(545.108 0 0)
(639.591 0 0)
(800.716 0 0)
(1088.25 0 0)
(1601.32 0 0)
(2490.88 0 0)
(3968.21 0 0)
(6303.91 0 0)
(9811.76 0 0)
(14812.1 0 0)
(21573.2 0 0)
(30235.3 0 0)
(40730.4 0 0)
(52717.9 0 0)
(65562.8 0 0)
(78373 0 0)
(90101.5 0 0)
(99694.2 0 0)
(106251 0 0)
(109162 0 0)
(108179 0 0)
(103431 0 0)
(95368 0 0)
(84674.7 0 0)
(72174.9 0 0)
(58742 0 0)
(45229.2 0 0)
(32415.1 0 0)
(20959.5 0 0)
(11363.3 0 0)
(3933.44 0 0)
(-1241.72 0 0)
(-4294 0 0)
(-5545.99 0 0)
(-5449.89 0 0)
(-4505.96 0 0)
(-3180.35 0 0)
(-1842.04 0 0)
(-730.973 0 0)
(41.6765 0 0)
(469.128 0 0)
(612.568 0 0)
(564.022 0 0)
(416.407 0 0)
(244.395 0 0)
(96.2231 0 0)
(-5.80807 0 0)
(-59.4523 0 0)
(-74.559 0 0)
(-65.6194 0 0)
(-46.3311 0 0)
(-26.649 0 0)
(-12.0105 0 0)
(-4.01307 0 0)
(-1.75597 0 0)
(-3.2176 0 0)
(-6.29959 0 0)
(-9.41501 0 0)
(-11.6723 0 0)
(-12.7911 0 0)
(-12.8959 0 0)
(-12.3 0 0)
(-11.3408 0 0)
(-10.2873 0 0)
(-9.30803 0 0)
(-8.47977 0 0)
(-7.81416 0 0)
(-7.28694 0 0)
(-6.86107 0 0)
(-6.50104 0 0)
(-6.17946 0 0)
(-5.8784 0 0)
(-5.58808 0 0)
(-5.30499 0 0)
(-5.03018 0 0)
(-4.76813 0 0)
(-4.52564 0 0)
(-4.31075 0 0)
(-4.13122 0 0)
(-3.993 0 0)
(-3.89901 0 0)
(-3.84872 0 0)
(-3.83857 0 0)
(-3.86315 0 0)
(-3.91652 0 0)
(-3.99328 0 0)
(-4.08884 0 0)
(-4.19901 0 0)
(-4.31916 0 0)
(-4.44351 0 0)
(-4.5651 0 0)
(-4.67662 0 0)
(-4.77198 0 0)
(-4.84805 0 0)
(-4.90591 0 0)
(-4.95097 0 0)
(-4.99179 0 0)
(-5.03779 0 0)
(-5.09662 0 0)
(-5.17202 0 0)
(-5.26291 0 0)
(-5.36408 0 0)
(-5.46808 0 0)
(-5.5678 0 0)
(-5.65874 0 0)
(-5.74021 0 0)
(-5.81504 0 0)
(-5.8881 0 0)
(-5.96435 0 0)
(-6.04738 0 0)
(-6.13914 0 0)
(-6.24065 0 0)
(-6.35387 0 0)
(-6.48344 0 0)
(-6.63659 0 0)
(-6.82046 0 0)
(-7.03917 0 0)
(-7.29041 0 0)
(-7.55992 0 0)
(-7.82379 0 0)
(-8.06446 0 0)
(-8.27188 0 0)
(-8.42626 0 0)
(-8.53031 0 0)
(-8.64176 0 0)
(-8.75334 0 0)
(-8.77256 0 0)
(-8.8402 0 0)
(-9.10359 0 0)
(-8.96801 0 0)
(-8.36745 0 0)
(-9.06427 0 0)
(-10.0148 0 0)
(-6.83459 0 0)
(-5.38435 0 0)
(-13.6838 0 0)
(-8.60015 0 0)
(17.7904 0 0)
(-3.72791 0 0)
(-44.3761 0 0)
(75.6767 0 0)
(152.024 0 0)
(-173.915 0 0)
(-60.6692 0 0)
(931.768 0 0)
(125.877 0 0)
(-1778.7 0 0)
(2365.43 0 0)
(5595.22 0 0)
(-7340.21 0 0)
(-5547.72 0 0)
(32641.2 0 0)
(4342.19 0 0)
(-78801.8 0 0)
(75238.2 0 0)
(225867 0 0)
(-299779 0 0)
(-260525 0 0)
(1.80789e+06 0 0)
(1.98688e+06 0 0)
(658966 0 0)
(121680 0 0)
(20687.8 0 0)
(3418.01 0 0)
(562.849 0 0)
(93.0436 0 0)
(15.3922 0 0)
(2.54655 0 0)
(0.421315 0 0)
(0.0697042 0 0)
(0.0115321 0 0)
(0.00190793 0 0)
(0.000315655 0 0)
(5.22225e-05 0 0)
(8.63984e-06 0 0)
(1.42973e-06 0 0)
(2.37924e-07 0 0)
(4.01997e-08 0 0)
(6.91216e-09 0 0)
(9.09495e-10 0 0)
(-3.63798e-10 0 0)
(-3.63798e-10 0 0)
(-3.63798e-10 0 0)
(-1.61732e-23 0 0)
(-5.45697e-10 0 0)
(-7.27596e-10 0 0)
(3.63798e-10 0 0)
(-3.63798e-10 0 0)
(-7.27596e-10 0 0)
(1.81899e-10 0 0)
(1.81899e-10 0 0)
(1.81899e-10 0 0)
(-1.81899e-10 0 0)
(-5.45697e-10 0 0)
(-7.27596e-10 0 0)
(-5.45697e-10 0 0)
(7.27596e-10 0 0)
(3.63798e-10 0 0)
(1.81899e-10 0 0)
(1.92101e-23 0 0)
(-5.45697e-10 0 0)
(-5.45697e-10 0 0)
(-1.09139e-09 0 0)
(-1.63709e-09 0 0)
(-1.09139e-09 0 0)
(-5.45697e-10 0 0)
(1.81899e-10 0 0)
(1.81899e-10 0 0)
(-5.45697e-10 0 0)
(-1.09139e-09 0 0)
(-1.63709e-09 0 0)
(-1.09139e-09 0 0)
(-7.27596e-10 0 0)
(-7.27596e-10 0 0)
(-1.81899e-10 0 0)
(5.45697e-10 0 0)
(1.81899e-10 0 0)
(1.81899e-10 0 0)
(3.63798e-10 0 0)
(-3.63477e-24 0 0)
(4.51016e-24 0 0)
(1.81899e-10 0 0)
(7.27596e-10 0 0)
(3.63798e-10 0 0)
(5.45697e-10 0 0)
(3.63798e-10 0 0)
(7.27596e-10 0 0)
(7.27596e-10 0 0)
(1.01976e-23 0 0)
(-7.27596e-10 0 0)
(-9.09495e-10 0 0)
(-1.09139e-09 0 0)
(-1.27329e-09 0 0)
(-5.45697e-10 0 0)
(1.81899e-10 0 0)
(-1.81899e-10 0 0)
(-3.63798e-10 0 0)
(-7.27596e-10 0 0)
(-3.63798e-10 0 0)
(-5.45697e-10 0 0)
(-1.09139e-09 0 0)
(-7.27596e-10 0 0)
(7.27596e-10 0 0)
(5.45697e-10 0 0)
(-1.81899e-10 0 0)
(1.81899e-10 0 0)
(5.45697e-10 0 0)
(5.45697e-10 0 0)
(9.09495e-10 0 0)
(3.63798e-10 0 0)
(1.81899e-10 0 0)
(7.27596e-10 0 0)
(5.45697e-10 0 0)
(1.81899e-10 0 0)
(1.81899e-10 0 0)
(3.63798e-10 0 0)
(1.81899e-10 0 0)
(-1.81899e-10 0 0)
(-7.47613e-24 0 0)
(-1.09139e-09 0 0)
(-7.27596e-10 0 0)
(1.55355e-23 0 0)
(-1.09139e-09 0 0)
(-1.27329e-09 0 0)
(-1.63709e-09 0 0)
(-5.45697e-10 0 0)
(7.292e-24 0 0)
(1.81899e-10 0 0)
(5.45697e-10 0 0)
(1.81899e-10 0 0)
(5.45697e-10 0 0)
(1.81899e-10 0 0)
(-1.81899e-10 0 0)
(1.08826e-23 0 0)
(-1.81899e-10 0 0)
(3.63798e-10 0 0)
(1.81899e-10 0 0)
(1.81899e-10 0 0)
(3.63798e-10 0 0)
(1.16322e-24 0 0)
(-7.27596e-10 0 0)
(-5.45697e-10 0 0)
(5.45697e-10 0 0)
(1.46049e-24 0 0)
(-3.63798e-10 0 0)
(-1.63368e-23 0 0)
(3.63798e-10 0 0)
(-3.63798e-10 0 0)
(-1.09139e-09 0 0)
(-3.63798e-10 0 0)
(-3.63798e-10 0 0)
(3.63798e-10 0 0)
(1.81899e-10 0 0)
(-1.81899e-10 0 0)
(3.63798e-10 0 0)
(-5.09152e-24 0 0)
(-1.81899e-10 0 0)
(1.81899e-10 0 0)
(7.27596e-10 0 0)
(1.09139e-09 0 0)
(1.09139e-09 0 0)
(1.27329e-09 0 0)
(1.63709e-09 0 0)
(3.63798e-10 0 0)
(9.09495e-10 0 0)
(1.27329e-09 0 0)
(5.45697e-10 0 0)
(1.81899e-10 0 0)
(1.81899e-10 0 0)
(5.45697e-10 0 0)
(-7.27596e-10 0 0)
(-2.00089e-09 0 0)
(-2.72848e-09 0 0)
(-2.72848e-09 0 0)
(-2.18279e-09 0 0)
(-1.09139e-09 0 0)
(-9.09495e-10 0 0)
(1.81899e-10 0 0)
(1.81899e-10 0 0)
(2.18427e-24 0 0)
(3.63798e-10 0 0)
(1.82238e-24 0 0)
(-3.63798e-10 0 0)
(7.27596e-10 0 0)
(7.27596e-10 0 0)
(1.81899e-10 0 0)
(1.81899e-10 0 0)
(5.45697e-10 0 0)
(1.45519e-09 0 0)
(9.09495e-10 0 0)
(-3.63798e-10 0 0)
(-3.48967e-24 0 0)
(7.06234e-24 0 0)
(-2.41515e-24 0 0)
(3.63798e-10 0 0)
(3.63798e-10 0 0)
(3.63798e-10 0 0)
(-7.27596e-10 0 0)
(-5.45697e-10 0 0)
(1.81899e-10 0 0)
(-2.06795e-25 0 0)
(-5.45697e-10 0 0)
(1.81899e-10 0 0)
(3.63798e-10 0 0)
(1.09139e-09 0 0)
(1.09139e-09 0 0)
(7.27596e-10 0 0)
(3.63798e-10 0 0)
(1.27329e-09 0 0)
(1.63709e-09 0 0)
(2.18279e-09 0 0)
(2.00089e-09 0 0)
(1.27329e-09 0 0)
(1.45519e-09 0 0)
(1.45519e-09 0 0)
(1.45519e-09 0 0)
(1.09139e-09 0 0)
(1.27329e-09 0 0)
(7.27596e-10 0 0)
)
;

boundaryField
{
    sides
    {
        type            calculated;
        value           nonuniform List<vector> 2((7.27596e-10 0 0) (-2.91038e-09 0 0));
    }
    empty
    {
        type            empty;
    }
}


// ************************************************************************* //
