/*--------------------------------*- C++ -*----------------------------------*\
  =========                 |
  \\      /  F ield         | OpenFOAM: The Open Source CFD Toolbox
   \\    /   O peration     | Website:  https://openfoam.org
    \\  /    A nd           | Version:  13
     \\/     M anipulation  |
\*---------------------------------------------------------------------------*/
FoamFile
{
    format      ascii;
    class       volScalarField;
    location    "0.0055";
    object      p;
}
// * * * * * * * * * * * * * * * * * * * * * * * * * * * * * * * * * * * * * //

dimensions      [1 -1 -2 0 0 0 0];

internalField   nonuniform List<scalar> 
1000
(
100000
100000
100000
100000
100000
100000
100000
100000
100000
100000
100000
100000
100000
100000
100000
100000
100000
100000
100000
100000
100000
100000
100000
100000
100000
100000
100000
100000
100000
100000
100000
100000
100000
100000
100000
100000
100000
100000
100000
100000
100000
100000
100000
100000
100000
100000
100000
100000
100000
100000
100000
100000
100000
100000
100000
100000
100000
100000
100000
100000
100000
100000
100000
100000
100000
100000
100000
100000
100000
100000
100000
100000
100000
100000
100000
100000
100000
100000
100000
100000
100000
100000
100000
100000
100000
100000
100000
100000
100000
100000
100000
100000
100000
100000
100000
100000
100000
100000
100000
100000
100000
100000
100000
100000
100000
100000
100000
100000
100000
100000
100000
100000
100000
100000
100000
100000
100000
100000
100000
100000
100000
100000
100000
100000
100000
100000
100000
100000
100000
100000
100000
100000
100000
100000
100000
100000
100000
100000
100000
100000
100000
100000
100000
100000
100000
100000
100000
100000
100000
100000
100000
100000
100000
100000
100000
100000
100000
100000
100000
100000
100000
100000
100000
100000
100000
100000
100000
100000
100000
100000
100000
100000
100000
100000
100000
100000
100000
100000
100000
100000
100000
100000
100000
100000
100000
100000
100000
100000
100000
100000
100000
100000
100000
100000
100000
100000
100000
100000
100000
100000
100000
100000
100000
100000
100000
100000
100000
100000
100000
100000
100000
100000
100000
100000
100000
100000
100000
100000
100000
100000
100000
100000
100000
100000
100000
100000
100000
100000
100000
100000
100000
100000
100000
100000
100000
100000
100000
100000
100000
100000
100000
100000
100000
100000
100000
100000
100000
100000
100000
100000
100000
100000
100000
100000
100000
100000
100000
100000
100000
100000
100000
100000
99999.9
99999.9
99999.8
99999.7
99999.5
99999.1
99998.6
99997.8
99996.5
99994.7
99991.8
99987.7
99981.6
99972.9
99960.7
99943.6
99920.3
99888.9
99847.3
99793.2
99724.1
99637.3
99530.4
99400.9
99247
99067.2
98860.8
98627.6
98368.1
98083.6
97775.7
97446.5
97098.1
96732.7
96352.5
95959.3
95555.1
95141.3
94719.3
94290.5
93855.7
93416.1
92972.3
92525
92074.8
91622.2
91167.6
90711.4
90253.9
89795.5
89336.2
88876.5
88416.4
87956.1
87495.7
87035.5
86575.5
86115.9
85656.6
85197.9
84739.8
84282.5
83825.9
83370.1
82915.3
82461.4
82008.6
81556.8
81106.2
80656.8
80208.7
79761.8
79316.2
78872
78429.3
77987.9
77548.1
77109.7
76672.9
76237.6
75804
75371.9
74941.5
74512.7
74085.6
73660.3
73236.6
72814.6
72394.4
71975.9
71559.2
71144.2
70731
70319.6
69910.1
69502.3
69096.3
68692.1
68289.7
67889.2
67490.5
67093.6
66698.5
66305.2
65913.8
65524.2
65136.4
64750.5
64366.4
63984.1
63603.6
63225
62848.1
62473.1
62099.9
61728.5
61359
60991.2
60625.2
60261.1
59898.7
59538.1
59179.3
58822.3
58467.1
58113.7
57762
57412.1
57063.9
56717.5
56372.9
56030
55688.9
55349.5
55011.8
54675.9
54341.6
54009.1
53678.4
53349.3
53021.9
52696.2
52372.2
52049.9
51729.3
51410.4
51093.1
50777.5
50463.5
50151.2
49840.6
49531.6
49224.2
48918.5
48614.4
48311.9
48011.1
47711.8
47414.1
47118.1
46823.6
46530.8
46239.5
45949.8
45661.6
45375.1
45090.1
44806.6
44524.8
44244.4
43965.6
43688.4
43412.6
43138.4
42865.8
42594.6
42325
42056.9
41790.2
41525.1
41261.5
40999.4
40738.8
40479.6
40222
39965.8
39711.1
39457.9
39206.2
38955.9
38707.1
38459.8
38214
37969.6
37726.7
37485.2
37245.2
37006.7
36769.7
36534.2
36300.1
36067.5
35836.4
35606.8
35378.8
35152.2
34927.2
34703.7
34481.8
34261.4
34042.7
33825.5
33610
33396.3
33184.2
32973.9
32765.4
32558.8
32354.1
32151.4
31950.9
31752.5
31556.5
31363
31172
30984
30799
30617.3
30439.3
30265.3
30095.9
29931.4
29772.6
29620.3
29475.2
29338.6
29211.6
29095.9
28993
28905.3
28834.9
28784.8
28758
28757.9
28788
28852
28952.9
29093.4
29274.5
29495
29751.1
30035.2
30335.8
30637.6
30922.2
31170
31362.3
31484.1
31526.5
31488.1
31375
31199.8
30979.5
30733.3
30480.3
30238.4
30023.4
29848
29722
29651.8
29640.4
29687.1
29787.6
29933.3
30111.9
30307.9
30503.4
30680.1
30821
30913
30948.7
30927.4
30854.9
30742.6
30605.5
30460
30322.1
30205.9
30122.1
30077.7
30075
30111.9
30181.8
30274.8
30378.4
30479.3
30565
30625.3
30654.1
30649.8
30615.6
30558.6
30488.6
30416.4
30352
30303.8
30277.3
30274.4
30293.6
30330.4
30377.8
30427.7
30472.2
30504.8
30521.3
30520.5
30504.2
30476.5
30443.2
30410.3
30383.5
30366.7
30361.8
30368.6
30384.7
30406.3
30428.8
30448.1
30460.9
30465.4
30461.6
30451.1
30436.8
30421.9
30409.4
30401.6
30399.5
30403
30410.7
30420.5
30430.1
30437.4
30441.1
30440.8
30437.1
30431.2
30424.7
30419.2
30415.8
30415.2
30417
30420.6
30424.8
30428.5
30431
30431.6
30430.5
30428.3
30425.6
30423.2
30421.7
30421.4
30422.3
30423.8
30425.5
30426.9
30427.7
30427.6
30426.9
30425.9
30424.9
30424.2
30424
30424.3
30424.9
30425.6
30426.1
30426.3
30426.2
30425.8
30425.5
30425.1
30425
30425.1
30425.3
30425.5
30425.6
30425.7
30425.6
30425.4
30425.3
30425.1
30425.1
30425.1
30425.1
30425
30425
30424.9
30424.9
30425
30425.1
30425.3
30425.4
30425.6
30425.8
30426
30426.1
30426.2
30426.3
30426.3
30426.3
30426.2
30426.1
30426
30425.9
30425.9
30425.8
30425.8
30425.8
30425.8
30425.8
30425.9
30425.9
30425.9
30425.9
30425.9
30425.9
30425.9
30425.9
30425.9
30425.9
30425.9
30425.9
30425.9
30425.9
30425.9
30426
30426
30426
30426
30426
30426
30426
30426
30426
30426
30426.1
30426.1
30426.1
30426.1
30426.1
30426.1
30426.1
30426.1
30426.1
30426.1
30426.1
30426.1
30426.1
30426.1
30426.1
30426.1
30426.2
30426.2
30426.2
30426.2
30426.2
30426.2
30426.2
30426.2
30426.2
30426.2
30426.2
30426.2
30426.3
30426.3
30426.3
30426.3
30426.3
30426.4
30426.4
30426.4
30426.4
30426.4
30426.5
30426.5
30426.5
30426.5
30426.5
30426.5
30426.5
30426.5
30426.6
30426.6
30426.6
30426.6
30426.7
30426.7
30426.7
30426.7
30426.7
30426.8
30426.8
30426.8
30426.8
30426.9
30426.9
30426.9
30426.9
30427
30427
30427
30427
30427.1
30427.1
30427.1
30427.2
30427.1
30427.1
30427.3
30427.1
30426.4
30427.1
30427.9
30424.5
30422.9
30430.7
30424.5
30398.8
30423.6
30463.1
30341.4
30279.9
30619.3
30458.3
29420.9
30364.7
32236.1
25623.8
15409.5
11110.4
10189.7
10031
10005.1
10000.8
10000.1
10000
10000
10000
10000
10000
10000
10000
10000
10000
10000
10000
10000
10000
10000
10000
10000
10000
10000
10000
10000
10000
10000
10000
10000
10000
10000
10000
10000
10000
10000
10000
10000
10000
10000
10000
10000
10000
10000
10000
10000
10000
10000
10000
10000
10000
10000
10000
10000
10000
10000
10000
10000
10000
10000
10000
10000
10000
10000
10000
10000
10000
10000
10000
10000
10000
10000
10000
10000
10000
10000
10000
10000
10000
10000
10000
10000
10000
10000
10000
10000
10000
10000
10000
10000
10000
10000
10000
10000
10000
10000
10000
10000
10000
10000
10000
10000
10000
10000
10000
10000
10000
10000
10000
10000
10000
10000
10000
10000
10000
10000
10000
10000
10000
10000
10000
10000
10000
10000
10000
10000
10000
10000
10000
10000
10000
10000
10000
10000
10000
10000
10000
10000
10000
10000
10000
10000
10000
10000
10000
10000
10000
10000
10000
10000
10000
10000
10000
10000
10000
10000
10000
10000
10000
10000
10000
10000
10000
10000
10000
10000
10000
10000
10000
10000
10000
10000
10000
10000
10000
10000
10000
10000
10000
10000
10000
10000
10000
10000
10000
10000
10000
10000
10000
10000
10000
10000
10000
10000
10000
10000
10000
10000
)
;

boundaryField
{
    sides
    {
        type            zeroGradient;
    }
    empty
    {
        type            empty;
    }
}


// ************************************************************************* //
