/*--------------------------------*- C++ -*----------------------------------*\
  =========                 |
  \\      /  F ield         | OpenFOAM: The Open Source CFD Toolbox
   \\    /   O peration     | Website:  https://openfoam.org
    \\  /    A nd           | Version:  13
     \\/     M anipulation  |
\*---------------------------------------------------------------------------*/
FoamFile
{
    format      ascii;
    class       surfaceScalarField;
    location    "0.0055";
    object      phi;
}
// * * * * * * * * * * * * * * * * * * * * * * * * * * * * * * * * * * * * * //

dimensions      [1 0 -1 0 0 0 0];

internalField   nonuniform List<scalar> 
999
(
-1.08549e-11
-1.07641e-11
-9.95504e-12
-1.08123e-11
-1.17205e-11
-1.09175e-11
-1.08465e-11
-1.19031e-11
-1.11883e-11
-1.05619e-11
-1.06285e-11
-9.28656e-12
-8.56146e-12
-8.2911e-12
-8.62022e-12
-8.84559e-12
-9.291e-12
-9.1672e-12
-8.12629e-12
-7.82416e-12
-9.89282e-12
-1.06465e-11
-1.13792e-11
-1.10414e-11
-1.08061e-11
-1.01247e-11
-8.89126e-12
-9.06844e-12
-9.85648e-12
-1.14706e-11
-1.21942e-11
-1.31757e-11
-1.24159e-11
-1.22708e-11
-1.21152e-11
-1.1657e-11
-1.18504e-11
-1.1247e-11
-1.11469e-11
-8.25294e-12
-6.43868e-12
-6.95714e-12
-6.73565e-12
-6.96059e-12
-6.48111e-12
-6.89484e-12
-6.53126e-12
-6.26692e-12
-7.25415e-12
-6.43907e-12
-6.96405e-12
-7.11888e-12
-7.19953e-12
-6.84247e-12
-6.51395e-12
-6.75428e-12
-6.79108e-12
-5.89818e-12
-6.71424e-12
-7.0912e-12
-7.72569e-12
-7.44583e-12
-8.04824e-12
-8.17034e-12
-6.64537e-12
-7.26063e-12
-6.30317e-12
-7.09283e-12
-6.62529e-12
-7.47423e-12
-7.57209e-12
-7.19091e-12
-7.94872e-12
-7.52711e-12
-7.52689e-12
-7.60472e-12
-7.02229e-12
-8.06616e-12
-8.94627e-12
-9.03241e-12
-1.00998e-11
-1.15997e-11
-1.26541e-11
-1.22622e-11
-1.32022e-11
-1.28507e-11
-1.25908e-11
-1.22242e-11
-1.22683e-11
-1.17891e-11
-1.19673e-11
-1.25082e-11
-1.25905e-11
-1.2358e-11
-1.35464e-11
-1.29053e-11
-1.24951e-11
-1.25876e-11
-1.22213e-11
-1.271e-11
-1.28775e-11
-1.26705e-11
-1.35054e-11
-1.3024e-11
-1.33525e-11
-1.1958e-11
-1.27472e-11
-1.19061e-11
-1.25146e-11
-1.14406e-11
-1.17694e-11
-1.15644e-11
-9.92897e-12
-9.03504e-12
-9.83407e-12
-9.40497e-12
-9.0631e-12
-8.41241e-12
-9.21056e-12
-9.36497e-12
-8.91208e-12
-8.31618e-12
-7.91438e-12
-8.91884e-12
-8.51448e-12
-8.97105e-12
-8.84831e-12
-7.7362e-12
-7.00371e-12
-6.27045e-12
-7.42806e-12
-7.26187e-12
-6.64368e-12
-8.37996e-12
-8.12702e-12
-7.70528e-12
-8.37561e-12
-8.56034e-12
-7.42859e-12
-7.21961e-12
-9.53414e-12
-9.55793e-12
-1.05723e-11
-1.14197e-11
-1.12683e-11
-1.08305e-11
-1.00104e-11
-9.97796e-12
-1.03869e-11
-1.04625e-11
-9.42384e-12
-9.18719e-12
-8.86483e-12
-7.46771e-12
-8.26985e-12
-7.90088e-12
-7.20242e-12
-6.48423e-12
-6.76838e-12
-5.60676e-12
-7.01203e-12
-6.57892e-12
-6.54408e-12
-7.37281e-12
-7.78195e-12
-6.55743e-12
-5.40069e-12
-4.34599e-12
-4.0579e-12
-2.66172e-12
-1.91416e-12
-8.9145e-13
-3.37832e-13
9.55492e-13
1.65763e-12
1.04097e-12
5.03306e-13
-1.25404e-12
-2.31879e-12
-2.45562e-12
-7.5136e-13
1.68429e-13
9.08502e-13
1.40205e-12
1.3185e-12
1.701e-12
1.5438e-12
2.41251e-12
2.01187e-12
2.31155e-12
2.01731e-12
1.5915e-12
5.46166e-13
-9.92275e-13
-2.40899e-12
-2.73538e-12
-2.92851e-12
-2.53553e-12
-2.979e-12
-1.72376e-12
-3.67324e-13
3.49167e-13
2.27853e-12
2.84786e-12
3.35327e-12
3.38995e-12
3.07707e-12
4.43057e-12
4.26643e-12
5.2849e-12
6.85392e-12
5.75327e-12
5.62051e-12
6.01841e-12
7.23671e-12
7.62659e-12
8.01735e-12
7.73904e-12
7.96965e-12
8.39436e-12
8.34643e-12
8.24076e-12
8.76073e-12
8.81596e-12
9.1632e-12
9.10908e-12
8.23354e-12
9.1632e-12
8.87442e-12
9.05041e-12
8.69007e-12
7.67522e-12
8.10097e-12
1.24079e-11
2.10953e-11
4.04829e-11
8.0802e-11
1.6326e-10
3.28489e-10
6.63123e-10
1.33457e-09
2.67349e-09
5.31944e-09
1.05142e-08
2.0636e-08
4.02126e-08
7.77867e-08
1.49354e-07
2.84608e-07
5.38202e-07
1.00986e-06
1.87992e-06
3.47163e-06
6.35895e-06
1.15515e-05
2.08083e-05
3.71635e-05
6.57986e-05
0.00011547
0.00020082
0.000346064
0.000590803
0.000999049
0.00167304
0.00277404
0.00455317
0.00739632
0.0118882
0.0189019
0.0297218
0.0462065
0.0710012
0.107803
0.161684
0.239458
0.350084
0.50507
0.718821
1.00888
1.39595
1.90368
2.55806
3.38646
4.41629
5.67335
7.18014
8.95416
11.0066
13.3414
15.9553
18.8377
21.9721
25.3374
28.9095
32.6639
36.5766
40.6249
44.7882
49.0478
53.3873
57.7923
62.2503
66.7505
71.2838
75.8421
80.4186
85.0076
89.6039
94.2032
98.8019
103.397
107.985
112.564
117.131
121.686
126.226
130.749
135.254
139.741
144.208
148.653
153.077
157.478
161.855
166.208
170.536
174.839
179.115
183.365
187.587
191.782
195.949
200.087
204.196
208.275
212.325
216.345
220.335
224.294
228.223
232.12
235.986
239.821
243.625
247.396
251.136
254.844
258.52
262.164
265.776
269.356
272.903
276.418
279.901
283.352
286.77
290.156
293.511
296.832
300.122
303.38
306.606
309.8
312.961
316.092
319.19
322.257
325.292
328.296
331.268
334.21
337.12
339.999
342.847
345.664
348.451
351.207
353.932
356.627
359.292
361.927
364.532
367.107
369.653
372.168
374.655
377.112
379.54
381.938
384.308
386.649
388.962
391.246
393.501
395.729
397.928
400.099
402.243
404.359
406.447
408.508
410.542
412.548
414.528
416.481
418.407
420.307
422.18
424.027
425.848
427.643
429.412
431.155
432.873
434.566
436.233
437.875
439.493
441.085
442.653
444.196
445.715
447.209
448.68
450.126
451.549
452.948
454.323
455.675
457.004
458.31
459.592
460.852
462.089
463.304
464.496
465.666
466.813
467.939
469.043
470.125
471.185
472.224
473.242
474.238
475.213
476.168
477.101
478.014
478.907
479.779
480.631
481.462
482.274
483.066
483.838
484.59
485.323
486.037
486.731
487.406
488.063
488.7
489.319
489.919
490.501
491.065
491.61
492.137
492.647
493.138
493.612
494.068
494.507
494.929
495.333
495.72
496.09
496.444
496.78
497.1
497.404
497.691
497.962
498.217
498.455
498.678
498.885
499.076
499.251
499.411
499.555
499.684
499.798
499.896
499.979
500.047
500.1
500.138
500.162
500.171
500.165
500.145
500.112
500.066
500.008
499.939
499.861
499.776
499.686
499.594
499.505
499.423
499.35
499.291
499.249
499.225
499.218
499.227
499.247
499.272
499.298
499.318
499.329
499.328
499.316
499.292
499.26
499.223
499.186
499.154
499.133
499.125
499.136
499.166
499.215
499.279
499.355
499.433
499.505
499.562
499.596
499.602
499.578
499.525
499.449
499.359
499.264
499.176
499.103
499.054
499.035
499.048
499.091
499.16
499.245
499.337
499.422
499.489
499.53
499.538
499.513
499.459
499.385
499.301
499.219
499.151
499.105
499.087
499.098
499.134
499.19
499.255
499.318
499.369
499.399
499.405
499.386
499.346
499.293
499.236
499.184
499.145
499.125
499.126
499.144
499.176
499.213
499.247
499.272
499.282
499.276
499.256
499.224
499.188
499.154
499.128
499.113
499.11
499.118
499.132
499.148
499.161
499.166
499.162
499.148
499.127
499.103
499.079
499.059
499.045
499.038
499.036
499.037
499.037
499.034
499.025
499.011
498.992
498.97
498.948
498.926
498.908
498.891
498.877
498.863
498.847
498.828
498.805
498.778
498.747
498.714
498.679
498.643
498.607
498.568
498.526
498.48
498.428
498.369
498.303
498.228
498.142
498.036
497.897
497.696
497.385
496.892
496.107
494.882
493.026
490.31
486.482
481.292
474.528
466.051
455.834
443.987
430.762
416.538
401.787
387.027
372.773
359.491
347.563
337.262
328.745
322.053
317.121
313.789
311.824
310.949
310.866
311.284
311.95
312.667
313.3
313.777
314.081
314.229
314.261
314.221
314.149
314.075
314.014
313.975
313.955
313.951
313.956
313.964
313.973
313.98
313.984
313.986
313.987
313.987
313.988
313.988
313.989
313.991
313.992
313.994
313.995
313.997
313.998
313.999
314
314.001
314.002
314.003
314.004
314.004
314.005
314.006
314.006
314.007
314.007
314.008
314.008
314.009
314.009
314.009
314.01
314.01
314.01
314.011
314.011
314.011
314.012
314.012
314.012
314.013
314.013
314.013
314.014
314.014
314.015
314.015
314.015
314.016
314.016
314.016
314.017
314.017
314.018
314.018
314.018
314.019
314.019
314.02
314.02
314.021
314.021
314.021
314.022
314.022
314.023
314.023
314.024
314.024
314.024
314.025
314.026
314.026
314.027
314.027
314.028
314.028
314.029
314.029
314.03
314.031
314.031
314.032
314.032
314.032
314.033
314.034
314.034
314.033
314.036
314.037
314.027
314.026
314.048
314.02
313.956
314.049
314.118
313.73
313.688
314.64
313.791
311.253
314.827
318.607
303.744
300.441
344.46
309.435
143.208
36.6847
6.617
1.06122
0.174665
0.028907
0.00478401
0.000791565
0.000130963
2.16673e-05
3.58474e-06
5.93073e-07
9.81195e-08
1.62323e-08
2.68462e-09
4.4328e-10
7.2652e-11
1.12013e-11
8.29688e-13
-1.03542e-12
-1.26625e-12
-1.4282e-12
-1.53565e-12
-1.60608e-12
-1.66409e-12
-1.74048e-12
-1.72962e-12
-1.58647e-12
-1.84969e-12
-1.69125e-12
-1.63467e-12
-1.67076e-12
-1.60111e-12
-1.60162e-12
-1.51677e-12
-1.50894e-12
-1.65651e-12
-1.69453e-12
-1.71753e-12
-1.69427e-12
-1.77923e-12
-1.68877e-12
-1.54138e-12
-1.59774e-12
-1.32939e-12
-1.16145e-12
-1.02439e-12
-8.84903e-13
-8.88477e-13
-9.25525e-13
-7.42931e-13
-6.31467e-13
-4.72409e-13
-3.18048e-13
-2.2032e-13
1.37913e-14
1.11567e-13
1.97716e-14
-1.16827e-13
-1.81024e-13
-2.45597e-13
-2.41774e-13
-1.95505e-13
-2.85661e-13
-3.3966e-13
-5.53237e-13
-6.38723e-13
-7.00068e-13
-7.44136e-13
-8.12373e-13
-8.1597e-13
-6.73072e-13
-6.63291e-13
-5.95417e-13
-5.5166e-13
-3.60104e-13
-3.43785e-13
-4.52116e-13
-4.3896e-13
-4.60798e-13
-4.62929e-13
-4.29736e-13
-3.32378e-13
-3.16922e-13
-3.38114e-13
-4.02812e-13
-3.18357e-13
-2.71206e-13
-3.36343e-13
-4.48514e-13
-7.46838e-13
-6.56992e-13
-7.00448e-13
-6.22426e-13
-7.70267e-13
-7.02473e-13
-7.53655e-13
-8.32994e-13
-8.87068e-13
-1.00405e-12
-1.1841e-12
-1.08445e-12
-1.14129e-12
-1.08344e-12
-9.97703e-13
-7.97222e-13
-6.84027e-13
-6.21203e-13
-5.63575e-13
-6.00254e-13
-6.70946e-13
-6.94544e-13
-7.84168e-13
-7.27643e-13
-8.25086e-13
-6.4473e-13
-7.18456e-13
-8.52334e-13
-8.18304e-13
-7.07532e-13
-7.15248e-13
-7.48689e-13
-6.65922e-13
-7.39869e-13
-9.48036e-13
-7.72039e-13
-7.36171e-13
-6.37111e-13
-7.32467e-13
-6.79074e-13
-6.26151e-13
-6.11864e-13
-5.20062e-13
-5.55929e-13
-4.82523e-13
-3.97089e-13
-5.43383e-13
-4.51651e-13
-5.00167e-13
-4.85171e-13
-5.79731e-13
-6.56987e-13
-6.54298e-13
-8.38482e-13
-1.0172e-12
-1.11112e-12
-1.49345e-12
-1.50058e-12
-1.6275e-12
-1.45736e-12
-1.50105e-12
-1.35746e-12
-1.20978e-12
-9.57968e-13
-7.57433e-13
-5.5534e-13
-3.62969e-13
-3.59737e-13
-3.04584e-13
-2.57518e-13
-1.60173e-13
-5.86349e-14
-2.12923e-13
-1.82149e-13
-1.19599e-13
-1.69683e-13
-2.0766e-13
-7.96153e-14
-1.32592e-13
-1.19711e-13
-3.98786e-13
-4.91303e-13
-3.99494e-13
-3.09941e-13
-2.53589e-13
-1.25226e-13
2.35356e-15
-8.81841e-15
-6.47272e-14
-3.50291e-14
5.42755e-14
1.16462e-13
2.49284e-13
3.80417e-13
4.07217e-13
6.20056e-13
7.5141e-13
7.28937e-13
8.46788e-13
1.06e-12
1.11538e-12
1.10175e-12
9.2147e-13
7.4662e-13
6.26581e-13
5.16517e-13
3.89031e-13
3.06752e-13
2.37359e-13
)
;

boundaryField
{
    sides
    {
        type            calculated;
        value           nonuniform List<scalar> 2(3.63798e-14 1.07102e-11);
    }
    empty
    {
        type            empty;
    }
}


// ************************************************************************* //
