/*--------------------------------*- C++ -*----------------------------------*\
  =========                 |
  \\      /  F ield         | OpenFOAM: The Open Source CFD Toolbox
   \\    /   O peration     | Website:  https://openfoam.org
    \\  /    A nd           | Version:  13
     \\/     M anipulation  |
\*---------------------------------------------------------------------------*/
FoamFile
{
    format      ascii;
    class       surfaceScalarField;
    location    "0.0055";
    object      phi_0;
}
// * * * * * * * * * * * * * * * * * * * * * * * * * * * * * * * * * * * * * //

dimensions      [1 0 -1 0 0 0 0];

internalField   nonuniform List<scalar> 
999
(
-1.05694e-11
-1.05174e-11
-1.00509e-11
-1.09559e-11
-1.14991e-11
-1.09772e-11
-1.09244e-11
-1.13827e-11
-1.13003e-11
-1.06352e-11
-1.07106e-11
-8.88256e-12
-8.20104e-12
-8.08339e-12
-8.67706e-12
-9.01906e-12
-9.1997e-12
-9.37057e-12
-8.65127e-12
-8.26402e-12
-9.61641e-12
-1.06826e-11
-1.12925e-11
-1.11055e-11
-1.03977e-11
-9.48605e-12
-8.59518e-12
-8.63954e-12
-9.78506e-12
-1.13168e-11
-1.19773e-11
-1.29842e-11
-1.2341e-11
-1.23349e-11
-1.21107e-11
-1.18693e-11
-1.21405e-11
-1.12127e-11
-1.1818e-11
-9.03011e-12
-6.7452e-12
-6.63715e-12
-6.55326e-12
-6.93505e-12
-6.36904e-12
-7.1521e-12
-6.34137e-12
-6.57506e-12
-7.35436e-12
-6.40483e-12
-6.98209e-12
-7.08899e-12
-7.22051e-12
-7.00247e-12
-6.39753e-12
-6.39386e-12
-6.88055e-12
-5.78449e-12
-6.47207e-12
-7.17956e-12
-7.44016e-12
-7.2993e-12
-8.40866e-12
-8.19545e-12
-7.0133e-12
-7.10063e-12
-6.16871e-12
-7.07641e-12
-6.51344e-12
-7.60139e-12
-7.52873e-12
-7.27764e-12
-7.68851e-12
-7.67363e-12
-7.35798e-12
-7.64808e-12
-7.03598e-12
-8.14995e-12
-8.3528e-12
-9.24196e-12
-9.70945e-12
-1.10181e-11
-1.22697e-11
-1.22893e-11
-1.31858e-11
-1.28073e-11
-1.23126e-11
-1.25738e-11
-1.22532e-11
-1.1771e-11
-1.22889e-11
-1.21359e-11
-1.25905e-11
-1.25271e-11
-1.36286e-11
-1.33073e-11
-1.20644e-11
-1.30494e-11
-1.22975e-11
-1.24498e-11
-1.26307e-11
-1.26408e-11
-1.3462e-11
-1.31587e-11
-1.32702e-11
-1.22616e-11
-1.23269e-11
-1.21276e-11
-1.19897e-11
-1.15616e-11
-1.16647e-11
-1.10901e-11
-9.87485e-12
-8.83918e-12
-9.89091e-12
-9.24792e-12
-8.91952e-12
-8.8162e-12
-9.44088e-12
-9.01803e-12
-8.86415e-12
-8.3326e-12
-8.02393e-12
-9.03688e-12
-8.40535e-12
-8.71997e-12
-9.03961e-12
-7.775e-12
-7.21599e-12
-6.14055e-12
-7.19915e-12
-7.22307e-12
-6.76487e-12
-8.13323e-12
-8.18821e-12
-7.753e-12
-8.34866e-12
-8.55121e-12
-7.2074e-12
-7.3171e-12
-8.92404e-12
-8.9211e-12
-1.04486e-11
-1.15469e-11
-1.13984e-11
-1.09172e-11
-1.01405e-11
-1.00124e-11
-1.03435e-11
-1.0337e-11
-9.22341e-12
-9.26045e-12
-8.9931e-12
-7.2675e-12
-7.86312e-12
-7.91708e-12
-7.20537e-12
-6.80563e-12
-6.49926e-12
-6.13174e-12
-6.61715e-12
-6.80783e-12
-6.70864e-12
-7.03042e-12
-8.16292e-12
-6.49897e-12
-5.33472e-12
-4.5836e-12
-3.85564e-12
-2.58683e-12
-1.81374e-12
-4.42673e-13
2.12672e-14
1.06645e-12
1.79827e-12
1.32063e-12
8.15581e-13
-9.61422e-13
-2.34737e-12
-2.25225e-12
-7.94728e-13
-1.39496e-13
6.16993e-13
1.36325e-12
1.26166e-12
1.37798e-12
1.67096e-12
2.36001e-12
2.17784e-12
2.38025e-12
2.26383e-12
1.67205e-12
6.17593e-13
-1.15846e-12
-2.51832e-12
-2.97461e-12
-3.04058e-12
-3.07237e-12
-3.2077e-12
-1.84474e-12
-8.30684e-13
1.5787e-13
1.77151e-12
2.4906e-12
3.21882e-12
3.40798e-12
3.32705e-12
4.26004e-12
4.63628e-12
5.39586e-12
6.72676e-12
5.70556e-12
6.11862e-12
6.01841e-12
7.39376e-12
7.33965e-12
7.86303e-12
7.60894e-12
7.63478e-12
8.56033e-12
8.2446e-12
8.67769e-12
9.0342e-12
8.79954e-12
9.25885e-12
8.93855e-12
8.3995e-12
9.15702e-12
8.81596e-12
8.71664e-12
8.33827e-12
6.98419e-12
7.33284e-12
1.0067e-11
1.62809e-11
3.09307e-11
6.07737e-11
1.22265e-10
2.45836e-10
4.96851e-10
1.0027e-09
2.01398e-09
4.01935e-09
7.97076e-09
1.56954e-08
3.06879e-08
5.95641e-08
1.14761e-07
2.19451e-07
4.16453e-07
7.84201e-07
1.46511e-06
2.71547e-06
4.99225e-06
9.10267e-06
1.6459e-05
2.95082e-05
5.24473e-05
9.24016e-05
0.00016134
0.000279154
0.000478528
0.00081256
0.00136649
0.0022755
0.00375122
0.00612073
0.00988249
0.0157855
0.0249383
0.0389562
0.0601541
0.0917918
0.138375
0.206009
0.302795
0.439234
0.62861
0.887282
1.23481
1.69382
2.28957
3.04915
4.00019
5.16942
6.58088
8.25424
10.2033
12.4348
14.9482
17.7356
20.7825
24.0693
27.5727
31.2681
35.131
39.1382
43.2681
47.5012
51.8203
56.21
60.6574
65.1508
69.6805
74.2381
78.8163
83.409
88.0108
92.6171
97.224
101.828
106.426
111.016
115.596
120.162
124.715
129.251
133.77
138.271
142.752
147.212
151.65
156.066
160.459
164.827
169.17
173.489
177.781
182.046
186.284
190.495
194.677
198.831
202.956
207.052
211.118
215.154
219.159
223.134
227.079
230.992
234.874
238.725
242.544
246.331
250.087
253.81
257.502
261.161
264.788
268.383
271.945
275.476
278.973
282.439
285.872
289.273
292.641
295.977
299.281
302.553
305.793
309
312.176
315.319
318.431
321.511
324.56
327.576
330.562
333.516
336.438
339.33
342.19
345.02
347.818
350.586
353.323
356.03
358.707
361.353
363.969
366.555
369.112
371.638
374.135
376.603
379.041
381.45
383.83
386.181
388.504
390.797
393.063
395.299
397.508
399.689
401.841
403.966
406.063
408.133
410.175
412.19
414.179
416.14
418.074
419.982
421.863
423.718
425.546
427.349
429.125
430.876
432.601
434.301
435.975
437.624
439.248
440.847
442.421
443.971
445.496
446.997
448.473
449.926
451.354
452.759
454.14
455.498
456.832
458.143
459.431
460.696
461.938
463.157
464.354
465.529
466.681
467.811
468.92
470.006
471.071
472.114
473.136
474.136
475.115
476.073
477.011
477.927
478.823
479.699
480.554
481.389
482.204
482.999
483.774
484.529
485.265
485.981
486.679
487.356
488.015
488.655
489.277
489.879
490.463
491.029
491.577
492.106
492.617
493.111
493.586
494.044
494.485
494.908
495.314
495.702
496.074
496.429
496.767
497.088
497.393
497.681
497.953
498.208
498.448
498.671
498.879
499.071
499.247
499.407
499.552
499.682
499.796
499.894
499.978
500.046
500.1
500.138
500.161
500.17
500.165
500.145
500.112
500.066
500.008
499.939
499.861
499.775
499.686
499.594
499.505
499.422
499.35
499.291
499.249
499.225
499.219
499.228
499.247
499.273
499.298
499.318
499.329
499.328
499.315
499.291
499.259
499.221
499.184
499.153
499.131
499.124
499.135
499.165
499.214
499.279
499.355
499.434
499.506
499.563
499.597
499.603
499.577
499.524
499.448
499.357
499.262
499.174
499.101
499.052
499.034
499.047
499.091
499.161
499.247
499.338
499.423
499.49
499.53
499.537
499.512
499.457
499.382
499.298
499.217
499.149
499.103
499.086
499.098
499.135
499.191
499.256
499.319
499.369
499.399
499.404
499.384
499.344
499.29
499.233
499.181
499.143
499.124
499.125
499.144
499.176
499.213
499.247
499.272
499.281
499.275
499.253
499.221
499.185
499.151
499.126
499.111
499.109
499.117
499.132
499.148
499.16
499.164
499.159
499.145
499.124
499.099
499.076
499.056
499.043
499.036
499.034
499.034
499.034
499.031
499.022
499.007
498.988
498.965
498.943
498.921
498.902
498.886
498.872
498.857
498.841
498.821
498.797
498.77
498.738
498.704
498.669
498.633
498.595
498.556
498.513
498.465
498.411
498.351
498.282
498.205
498.114
498.001
497.847
497.621
497.268
496.704
495.811
494.427
492.349
489.339
485.142
479.514
472.26
463.27
452.556
440.267
426.696
412.255
397.436
382.762
368.739
355.812
344.333
334.542
326.563
320.402
315.964
313.066
311.458
310.852
310.949
311.467
312.168
312.872
313.463
313.888
314.141
314.249
314.254
314.201
314.126
314.054
314
313.967
313.953
313.952
313.958
313.967
313.975
313.981
313.985
313.987
313.987
313.988
313.988
313.989
313.99
313.991
313.993
313.994
313.996
313.997
313.999
314
314.001
314.002
314.003
314.003
314.004
314.005
314.005
314.006
314.007
314.007
314.008
314.008
314.008
314.009
314.009
314.009
314.01
314.01
314.01
314.011
314.011
314.011
314.012
314.012
314.012
314.013
314.013
314.014
314.014
314.014
314.015
314.015
314.015
314.016
314.016
314.017
314.017
314.017
314.018
314.018
314.019
314.019
314.019
314.02
314.02
314.021
314.021
314.022
314.022
314.022
314.023
314.023
314.024
314.024
314.025
314.025
314.026
314.026
314.027
314.028
314.028
314.029
314.029
314.03
314.03
314.031
314.031
314.032
314.032
314.033
314.034
314.034
314.033
314.034
314.038
314.033
314.023
314.038
314.044
313.977
313.981
314.128
313.952
313.564
314.193
314.617
312.164
312.15
318.395
312.571
296.206
322.001
347.866
221.052
71.9614
14.8525
2.42396
0.39503
0.0653093
0.0108094
0.00178866
0.000295938
4.89617e-05
8.10045e-06
1.34017e-06
2.21723e-07
3.66817e-08
6.06778e-09
1.003e-09
1.65096e-10
2.64152e-11
3.81668e-12
-7.07193e-13
-1.21723e-12
-1.26079e-12
-1.4197e-12
-1.52817e-12
-1.58259e-12
-1.6783e-12
-1.71063e-12
-1.69728e-12
-1.6133e-12
-1.81394e-12
-1.6936e-12
-1.63467e-12
-1.69729e-12
-1.59937e-12
-1.59251e-12
-1.48009e-12
-1.46807e-12
-1.67254e-12
-1.72594e-12
-1.71517e-12
-1.71517e-12
-1.7624e-12
-1.66785e-12
-1.51102e-12
-1.53242e-12
-1.28992e-12
-1.11436e-12
-1.02422e-12
-8.95929e-13
-8.73898e-13
-9.09476e-13
-6.82313e-13
-5.757e-13
-4.36514e-13
-2.83353e-13
-2.14486e-13
1.318e-14
1.23252e-13
1.65599e-14
-1.38954e-13
-1.99572e-13
-2.49934e-13
-2.41774e-13
-2.07488e-13
-3.02668e-13
-3.37507e-13
-5.94155e-13
-6.44801e-13
-7.47405e-13
-7.58617e-13
-8.0855e-13
-7.69049e-13
-6.44699e-13
-5.98239e-13
-5.56385e-13
-5.55997e-13
-3.68778e-13
-3.20803e-13
-4.35969e-13
-4.20018e-13
-4.39898e-13
-4.38991e-13
-3.77522e-13
-3.05697e-13
-3.66612e-13
-3.28683e-13
-4.08863e-13
-3.53052e-13
-2.89581e-13
-3.21547e-13
-4.99431e-13
-7.52472e-13
-6.83553e-13
-7.28968e-13
-6.48177e-13
-7.5292e-13
-7.25212e-13
-7.51329e-13
-8.34464e-13
-8.94174e-13
-9.89917e-13
-1.12066e-12
-1.0964e-12
-1.12907e-12
-1.03372e-12
-9.5034e-13
-7.01396e-13
-7.06225e-13
-6.05154e-13
-5.81976e-13
-5.98712e-13
-6.90007e-13
-7.30292e-13
-7.56433e-13
-7.36857e-13
-8.29152e-13
-6.45514e-13
-7.26102e-13
-8.74018e-13
-8.33126e-13
-7.06331e-13
-7.0067e-13
-7.06105e-13
-6.7234e-13
-7.48326e-13
-9.51221e-13
-7.58785e-13
-7.55502e-13
-6.44757e-13
-6.83978e-13
-6.47932e-13
-6.15909e-13
-6.07527e-13
-5.37409e-13
-5.55929e-13
-4.73849e-13
-4.27447e-13
-5.29318e-13
-4.38641e-13
-5.28956e-13
-5.02275e-13
-6.47308e-13
-6.84063e-13
-7.34199e-13
-8.80039e-13
-9.93088e-13
-1.18088e-12
-1.53765e-12
-1.54108e-12
-1.61289e-12
-1.50387e-12
-1.50061e-12
-1.31287e-12
-1.09631e-12
-8.49889e-13
-6.37814e-13
-5.03639e-13
-3.02378e-13
-3.36485e-13
-3.47266e-13
-2.53008e-13
-1.57404e-13
-5.40546e-14
-2.08072e-13
-1.78596e-13
-1.70613e-13
-1.84948e-13
-2.13738e-13
-9.8163e-14
-1.61652e-13
-1.80599e-13
-4.10914e-13
-4.75156e-13
-4.07383e-13
-2.9693e-13
-2.79853e-13
-1.40318e-13
-1.1441e-14
-4.4816e-15
-3.43695e-14
-2.63555e-14
5.42755e-14
1.07545e-13
2.83514e-13
3.51211e-13
3.77156e-13
5.68236e-13
7.26541e-13
7.05711e-13
8.25471e-13
9.93964e-13
1.04423e-12
1.0112e-12
8.78394e-13
6.84385e-13
5.46069e-13
4.88437e-13
3.3765e-13
2.54073e-13
2.04255e-13
)
;

boundaryField
{
    sides
    {
        type            calculated;
        value           nonuniform List<scalar> 2(7.27596e-15 1.05938e-11);
    }
    empty
    {
        type            empty;
    }
}


// ************************************************************************* //
