/*--------------------------------*- C++ -*----------------------------------*\
  =========                 |
  \\      /  F ield         | OpenFOAM: The Open Source CFD Toolbox
   \\    /   O peration     | Website:  https://openfoam.org
    \\  /    A nd           | Version:  13
     \\/     M anipulation  |
\*---------------------------------------------------------------------------*/
FoamFile
{
    format      ascii;
    class       volScalarField;
    location    "0.0055";
    object      T;
}
// * * * * * * * * * * * * * * * * * * * * * * * * * * * * * * * * * * * * * //

dimensions      [0 0 0 1 0 0 0];

internalField   nonuniform List<scalar> 
1000
(
348.432
348.432
348.432
348.432
348.432
348.432
348.432
348.432
348.432
348.432
348.432
348.432
348.432
348.432
348.432
348.432
348.432
348.432
348.432
348.432
348.432
348.432
348.432
348.432
348.432
348.432
348.432
348.432
348.432
348.432
348.432
348.432
348.432
348.432
348.432
348.432
348.432
348.432
348.432
348.432
348.432
348.432
348.432
348.432
348.432
348.432
348.432
348.432
348.432
348.432
348.432
348.432
348.432
348.432
348.432
348.432
348.432
348.432
348.432
348.432
348.432
348.432
348.432
348.432
348.432
348.432
348.432
348.432
348.432
348.432
348.432
348.432
348.432
348.432
348.432
348.432
348.432
348.432
348.432
348.432
348.432
348.432
348.432
348.432
348.432
348.432
348.432
348.432
348.432
348.432
348.432
348.432
348.432
348.432
348.432
348.432
348.432
348.432
348.432
348.432
348.432
348.432
348.432
348.432
348.432
348.432
348.432
348.432
348.432
348.432
348.432
348.432
348.432
348.432
348.432
348.432
348.432
348.432
348.432
348.432
348.432
348.432
348.432
348.432
348.432
348.432
348.432
348.432
348.432
348.432
348.432
348.432
348.432
348.432
348.432
348.432
348.432
348.432
348.432
348.432
348.432
348.432
348.432
348.432
348.432
348.432
348.432
348.432
348.432
348.432
348.432
348.432
348.432
348.432
348.432
348.432
348.432
348.432
348.432
348.432
348.432
348.432
348.432
348.432
348.432
348.432
348.432
348.432
348.432
348.432
348.432
348.432
348.432
348.432
348.432
348.432
348.432
348.432
348.432
348.432
348.432
348.432
348.432
348.432
348.432
348.432
348.432
348.432
348.432
348.432
348.432
348.432
348.432
348.432
348.432
348.432
348.432
348.432
348.432
348.432
348.432
348.432
348.432
348.432
348.432
348.432
348.432
348.432
348.432
348.432
348.432
348.432
348.432
348.432
348.432
348.432
348.432
348.432
348.432
348.432
348.432
348.432
348.432
348.432
348.432
348.432
348.432
348.432
348.432
348.432
348.432
348.432
348.432
348.432
348.432
348.432
348.432
348.432
348.432
348.432
348.432
348.432
348.432
348.432
348.432
348.432
348.432
348.432
348.432
348.432
348.432
348.432
348.432
348.432
348.432
348.432
348.432
348.432
348.432
348.432
348.432
348.432
348.432
348.432
348.432
348.432
348.431
348.431
348.431
348.43
348.429
348.427
348.424
348.42
348.414
348.405
348.393
348.376
348.352
348.321
348.28
348.226
348.157
348.07
347.963
347.833
347.679
347.499
347.291
347.056
346.795
346.507
346.196
345.862
345.508
345.135
344.746
344.343
343.927
343.501
343.064
342.619
342.166
341.707
341.242
340.771
340.296
339.817
339.333
338.847
338.357
337.864
337.369
336.872
336.372
335.87
335.366
334.86
334.353
333.844
333.334
332.822
332.309
331.795
331.28
330.764
330.246
329.728
329.209
328.689
328.169
327.648
327.126
326.603
326.08
325.557
325.033
324.508
323.984
323.459
322.933
322.408
321.882
321.356
320.83
320.304
319.777
319.251
318.724
318.198
317.671
317.145
316.619
316.092
315.566
315.04
314.513
313.987
313.462
312.936
312.41
311.885
311.36
310.835
310.31
309.785
309.261
308.737
308.213
307.689
307.166
306.643
306.12
305.598
305.075
304.553
304.032
303.51
302.989
302.469
301.948
301.428
300.908
300.389
299.87
299.351
298.833
298.315
297.797
297.28
296.763
296.246
295.73
295.215
294.699
294.184
293.669
293.155
292.641
292.128
291.615
291.102
290.59
290.078
289.567
289.056
288.545
288.035
287.525
287.016
286.507
285.999
285.491
284.983
284.476
283.969
283.463
282.957
282.452
281.947
281.443
280.939
280.435
279.932
279.43
278.928
278.426
277.925
277.425
276.924
276.425
275.926
275.427
274.929
274.432
273.934
273.438
272.942
272.446
271.951
271.457
270.963
270.47
269.977
269.485
268.994
268.503
268.012
267.522
267.033
266.545
266.057
265.57
265.083
264.597
264.112
263.627
263.143
262.66
262.178
261.696
261.216
260.736
260.257
259.779
259.301
258.825
258.35
257.875
257.402
256.93
256.46
255.99
255.522
255.055
254.59
254.126
253.665
253.205
252.747
252.291
251.838
251.388
250.94
250.496
250.056
249.62
249.188
248.762
248.341
247.927
247.521
247.124
246.738
246.363
246.002
245.657
245.332
245.028
244.751
244.504
244.294
244.125
244.006
243.943
243.945
244.021
244.179
244.425
244.767
245.203
245.73
246.337
247.004
247.703
248.396
249.044
249.602
250.031
250.301
250.395
250.31
250.059
249.669
249.175
248.618
248.042
247.488
246.991
246.583
246.29
246.126
246.1
246.211
246.447
246.786
247.2
247.651
248.097
248.497
248.815
249.021
249.102
249.055
248.894
248.643
248.336
248.008
247.696
247.432
247.241
247.14
247.135
247.22
247.38
247.592
247.828
248.056
248.25
248.386
248.451
248.443
248.368
248.242
248.086
247.926
247.782
247.675
247.616
247.611
247.655
247.739
247.847
247.96
248.06
248.134
248.173
248.173
248.138
248.078
248.006
247.935
247.877
247.841
247.832
247.849
247.887
247.937
247.989
248.033
248.064
248.076
248.07
248.049
248.021
247.99
247.966
247.951
247.95
247.96
247.98
248.005
248.029
248.048
248.06
248.063
248.059
248.05
248.04
248.032
248.03
248.033
248.042
248.055
248.069
248.083
248.094
248.102
248.106
248.108
248.109
248.112
248.117
248.125
248.135
248.148
248.162
248.176
248.189
248.201
248.213
248.225
248.238
248.253
248.27
248.29
248.313
248.337
248.364
248.392
248.423
248.456
248.495
248.541
248.601
248.686
248.813
249.013
249.332
249.835
250.611
251.773
253.459
255.823
259.028
263.235
268.589
275.195
283.107
292.305
302.68
314.024
326.027
338.287
350.336
361.683
371.869
380.521
387.403
392.446
395.745
397.535
398.142
397.929
397.242
396.371
395.525
394.834
394.349
394.07
393.959
393.965
394.034
394.124
394.207
394.269
394.305
394.32
394.319
394.311
394.301
394.291
394.285
394.281
394.279
394.278
394.278
394.278
394.277
394.275
394.274
394.272
394.27
394.268
394.267
394.265
394.264
394.263
394.262
394.261
394.26
394.26
394.259
394.258
394.258
394.257
394.257
394.256
394.256
394.256
394.255
394.255
394.255
394.255
394.255
394.254
394.254
394.254
394.254
394.254
394.254
394.253
394.253
394.253
394.253
394.253
394.252
394.252
394.252
394.252
394.252
394.252
394.252
394.252
394.251
394.251
394.251
394.251
394.251
394.251
394.251
394.25
394.25
394.25
394.25
394.25
394.25
394.25
394.25
394.25
394.25
394.25
394.25
394.25
394.25
394.25
394.25
394.25
394.25
394.25
394.25
394.25
394.25
394.25
394.25
394.25
394.25
394.25
394.25
394.25
394.25
394.25
394.25
394.247
394.248
394.253
394.243
394.229
394.257
394.256
394.15
394.186
394.403
394.059
393.551
394.689
394.989
390.75
391.455
399.552
377.816
319.889
286.776
280.143
278.986
278.786
278.753
278.747
278.746
278.746
278.746
278.746
278.746
278.746
278.746
278.746
278.746
278.746
278.746
278.746
278.746
278.746
278.746
278.746
278.746
278.746
278.746
278.746
278.746
278.746
278.746
278.746
278.746
278.746
278.746
278.746
278.746
278.746
278.746
278.746
278.746
278.746
278.746
278.746
278.746
278.746
278.746
278.746
278.746
278.746
278.746
278.746
278.746
278.746
278.746
278.746
278.746
278.746
278.746
278.746
278.746
278.746
278.746
278.746
278.746
278.746
278.746
278.746
278.746
278.746
278.746
278.746
278.746
278.746
278.746
278.746
278.746
278.746
278.746
278.746
278.746
278.746
278.746
278.746
278.746
278.746
278.746
278.746
278.746
278.746
278.746
278.746
278.746
278.746
278.746
278.746
278.746
278.746
278.746
278.746
278.746
278.746
278.746
278.746
278.746
278.746
278.746
278.746
278.746
278.746
278.746
278.746
278.746
278.746
278.746
278.746
278.746
278.746
278.746
278.746
278.746
278.746
278.746
278.746
278.746
278.746
278.746
278.746
278.746
278.746
278.746
278.746
278.746
278.746
278.746
278.746
278.746
278.746
278.746
278.746
278.746
278.746
278.746
278.746
278.746
278.746
278.746
278.746
278.746
278.746
278.746
278.746
278.746
278.746
278.746
278.746
278.746
278.746
278.746
278.746
278.746
278.746
278.746
278.746
278.746
278.746
278.746
278.746
278.746
278.746
278.746
278.746
278.746
278.746
278.746
278.746
278.746
278.746
278.746
278.746
278.746
278.746
278.746
278.746
278.746
278.746
278.746
278.746
278.746
278.746
278.746
278.746
278.746
278.746
278.746
278.746
278.746
278.746
278.746
278.746
)
;

boundaryField
{
    sides
    {
        type            zeroGradient;
    }
    empty
    {
        type            empty;
    }
}


// ************************************************************************* //
