/*--------------------------------*- C++ -*----------------------------------*\
  =========                 |
  \\      /  F ield         | OpenFOAM: The Open Source CFD Toolbox
   \\    /   O peration     | Website:  https://openfoam.org
    \\  /    A nd           | Version:  13
     \\/     M anipulation  |
\*---------------------------------------------------------------------------*/
FoamFile
{
    format      ascii;
    class       volVectorField;
    location    "0.0055";
    object      U;
}
// * * * * * * * * * * * * * * * * * * * * * * * * * * * * * * * * * * * * * //

dimensions      [0 1 -1 0 0 0 0];

internalField   nonuniform List<vector> 
1000
(
(-2.70351e-12 0 0)
(-2.70351e-12 0 0)
(-2.65975e-12 0 0)
(-2.60626e-12 0 0)
(-3.00012e-12 0 0)
(-2.63544e-12 0 0)
(-2.97095e-12 0 0)
(-2.57709e-12 0 0)
(-3.14599e-12 0 0)
(-2.53819e-12 0 0)
(-2.76186e-12 0 0)
(-2.38259e-12 0 0)
(-2.38745e-12 0 0)
(-1.98873e-12 0 0)
(-2.23186e-12 0 0)
(-2.09571e-12 0 0)
(-2.33883e-12 0 0)
(-2.21727e-12 0 0)
(-2.29507e-12 0 0)
(-1.90121e-12 0 0)
(-2.35828e-12 0 0)
(-2.46525e-12 0 0)
(-2.83966e-12 0 0)
(-2.8348e-12 0 0)
(-2.6403e-12 0 0)
(-2.73755e-12 0 0)
(-2.26589e-12 0 0)
(-2.32424e-12 0 0)
(-2.29507e-12 0 0)
(-2.7959e-12 0 0)
(-2.8737e-12 0 0)
(-3.287e-12 0 0)
(-3.06819e-12 0 0)
(-3.11682e-12 0 0)
(-3.09251e-12 0 0)
(-2.9904e-12 0 0)
(-2.86883e-12 0 0)
(-3.03902e-12 0 0)
(-2.65489e-12 0 0)
(-2.57709e-12 0 0)
(-1.88176e-12 0 0)
(-1.56084e-12 0 0)
(-1.74561e-12 0 0)
(-1.69699e-12 0 0)
(-1.67754e-12 0 0)
(-1.55112e-12 0 0)
(-1.85259e-12 0 0)
(-1.38093e-12 0 0)
(-1.88176e-12 0 0)
(-1.55112e-12 0 0)
(-1.84286e-12 0 0)
(-1.56084e-12 0 0)
(-1.94984e-12 0 0)
(-1.58515e-12 0 0)
(-1.80882e-12 0 0)
(-1.55112e-12 0 0)
(-1.75048e-12 0 0)
(-1.53167e-12 0 0)
(-1.61919e-12 0 0)
(-1.66295e-12 0 0)
(-1.94497e-12 0 0)
(-1.7991e-12 0 0)
(-2.08112e-12 0 0)
(-1.90121e-12 0 0)
(-1.98873e-12 0 0)
(-1.73103e-12 0 0)
(-1.67754e-12 0 0)
(-1.60946e-12 0 0)
(-1.7602e-12 0 0)
(-1.76506e-12 0 0)
(-1.7991e-12 0 0)
(-1.92552e-12 0 0)
(-1.88662e-12 0 0)
(-1.97901e-12 0 0)
(-1.83314e-12 0 0)
(-1.95956e-12 0 0)
(-1.82341e-12 0 0)
(-1.89635e-12 0 0)
(-2.12002e-12 0 0)
(-2.27562e-12 0 0)
(-2.41663e-12 0 0)
(-2.72296e-12 0 0)
(-3.00985e-12 0 0)
(-3.18976e-12 0 0)
(-3.07792e-12 0 0)
(-3.41829e-12 0 0)
(-3.06819e-12 0 0)
(-3.19948e-12 0 0)
(-2.9126e-12 0 0)
(-3.19462e-12 0 0)
(-2.85425e-12 0 0)
(-3.11682e-12 0 0)
(-3.04874e-12 0 0)
(-3.09737e-12 0 0)
(-3.31618e-12 0 0)
(-3.19462e-12 0 0)
(-3.24324e-12 0 0)
(-3.05361e-12 0 0)
(-3.14113e-12 0 0)
(-3.13141e-12 0 0)
(-3.11682e-12 0 0)
(-3.35022e-12 0 0)
(-3.23352e-12 0 0)
(-3.31618e-12 0 0)
(-3.12654e-12 0 0)
(-3.25783e-12 0 0)
(-3.04874e-12 0 0)
(-3.18489e-12 0 0)
(-3.00985e-12 0 0)
(-3.03416e-12 0 0)
(-2.78617e-12 0 0)
(-3.01957e-12 0 0)
(-2.58195e-12 0 0)
(-2.44094e-12 0 0)
(-2.30966e-12 0 0)
(-2.4069e-12 0 0)
(-2.31452e-12 0 0)
(-2.12002e-12 0 0)
(-2.23672e-12 0 0)
(-2.43608e-12 0 0)
(-2.05681e-12 0 0)
(-2.30479e-12 0 0)
(-1.838e-12 0 0)
(-2.22699e-12 0 0)
(-2.09085e-12 0 0)
(-2.20268e-12 0 0)
(-2.36314e-12 0 0)
(-1.91094e-12 0 0)
(-1.90607e-12 0 0)
(-1.58029e-12 0 0)
(-1.88662e-12 0 0)
(-1.66295e-12 0 0)
(-1.86717e-12 0 0)
(-1.82341e-12 0 0)
(-2.04708e-12 0 0)
(-2.0325e-12 0 0)
(-1.89635e-12 0 0)
(-2.23186e-12 0 0)
(-1.87204e-12 0 0)
(-1.92552e-12 0 0)
(-1.96442e-12 0 0)
(-2.49443e-12 0 0)
(-2.50901e-12 0 0)
(-2.74241e-12 0 0)
(-2.92718e-12 0 0)
(-2.61599e-12 0 0)
(-2.73755e-12 0 0)
(-2.45553e-12 0 0)
(-2.48957e-12 0 0)
(-2.69379e-12 0 0)
(-2.28048e-12 0 0)
(-2.59654e-12 0 0)
(-2.12488e-12 0 0)
(-2.16378e-12 0 0)
(-1.76993e-12 0 0)
(-2.18809e-12 0 0)
(-1.84286e-12 0 0)
(-1.78937e-12 0 0)
(-1.61919e-12 0 0)
(-1.59974e-12 0 0)
(-1.53653e-12 0 0)
(-1.69699e-12 0 0)
(-1.7213e-12 0 0)
(-1.71644e-12 0 0)
(-1.9547e-12 0 0)
(-1.77965e-12 0 0)
(-1.52194e-12 0 0)
(-1.16698e-12 0 0)
(-1.16212e-12 0 0)
(-7.24502e-13 0 0)
(-6.8074e-13 0 0)
(-2.52846e-13 0 0)
(-1.65323e-13 0 0)
(5.34868e-14 0 0)
(3.5982e-13 0 0)
(3.30645e-13 0 0)
(2.77159e-13 0 0)
(-1.06974e-13 0 0)
(-4.76518e-13 0 0)
(-6.17529e-13 0 0)
(-3.69545e-13 0 0)
(-1.31286e-13 0 0)
(2.18809e-13 0 0)
(2.13947e-13 0 0)
(4.42481e-13 0 0)
(2.77159e-13 0 0)
(4.18169e-13 0 0)
(4.27894e-13 0 0)
(6.46703e-13 0 0)
(5.25143e-13 0 0)
(5.64042e-13 0 0)
(4.42481e-13 0 0)
(4.08444e-13 0 0)
(-1.70185e-13 0 0)
(-2.72296e-13 0 0)
(-7.97439e-13 0 0)
(-5.5918e-13 0 0)
(-8.70375e-13 0 0)
(-6.02942e-13 0 0)
(-7.43952e-13 0 0)
(-1.6046e-13 0 0)
(-8.75238e-14 0 0)
(3.54958e-13 0 0)
(6.75878e-13 0 0)
(7.53677e-13 0 0)
(8.12026e-13 0 0)
(9.77349e-13 0 0)
(8.46063e-13 0 0)
(1.17185e-12 0 0)
(1.1524e-12 0 0)
(1.5657e-12 0 0)
(1.55112e-12 0 0)
(1.48304e-12 0 0)
(1.39066e-12 0 0)
(1.68726e-12 0 0)
(1.89635e-12 0 0)
(1.94011e-12 0 0)
(2.01791e-12 0 0)
(1.87204e-12 0 0)
(2.13947e-12 0 0)
(1.93039e-12 0 0)
(2.15406e-12 0 0)
(2.12002e-12 0 0)
(2.29021e-12 0 0)
(2.21727e-12 0 0)
(2.27076e-12 0 0)
(2.21727e-12 0 0)
(2.06653e-12 0 0)
(2.35828e-12 0 0)
(2.27562e-12 0 0)
(2.06653e-12 0 0)
(2.12975e-12 0 0)
(1.89149e-12 0 0)
(2.55764e-12 0 0)
(4.01151e-12 0 0)
(7.50273e-12 0 0)
(1.46602e-11 0 0)
(2.94761e-11 0 0)
(5.94189e-11 0 0)
(1.19801e-10 0 0)
(2.41527e-10 0 0)
(4.84896e-10 0 0)
(9.67896e-10 0 0)
(1.9186e-09 0 0)
(3.77806e-09 0 0)
(7.38565e-09 0 0)
(1.4335e-08 0 0)
(2.76166e-08 0 0)
(5.28075e-08 0 0)
(1.00209e-07 0 0)
(1.88695e-07 0 0)
(3.52533e-07 0 0)
(6.53398e-07 0 0)
(1.20127e-06 0 0)
(2.19042e-06 0 0)
(3.96084e-06 0 0)
(7.10161e-06 0 0)
(1.26234e-05 0 0)
(2.22421e-05 0 0)
(3.88413e-05 0 0)
(6.72135e-05 0 0)
(0.000115237 0 0)
(0.000195713 0 0)
(0.0003292 0 0)
(0.000548313 0 0)
(0.00090414 0 0)
(0.00147566 0 0)
(0.00238332 0 0)
(0.0038082 0 0)
(0.0060185 0 0)
(0.00940528 0 0)
(0.0145295 0 0)
(0.0221817 0 0)
(0.033456 0 0)
(0.049837 0 0)
(0.0732968 0 0)
(0.106398 0 0)
(0.152388 0 0)
(0.215278 0 0)
(0.299879 0 0)
(0.411787 0 0)
(0.557281 0 0)
(0.743143 0 0)
(0.976377 0 0)
(1.26385 0 0)
(1.61189 0 0)
(2.02587 0 0)
(2.50982 0 0)
(3.06616 0 0)
(3.6956 0 0)
(4.39705 0 0)
(5.16786 0 0)
(6.00403 0 0)
(6.90064 0 0)
(7.85231 0 0)
(8.85359 0 0)
(9.89919 0 0)
(10.9842 0 0)
(12.104 0 0)
(13.2547 0 0)
(14.4327 0 0)
(15.6348 0 0)
(16.8582 0 0)
(18.1008 0 0)
(19.3604 0 0)
(20.6352 0 0)
(21.9239 0 0)
(23.2251 0 0)
(24.5377 0 0)
(25.8607 0 0)
(27.1933 0 0)
(28.5348 0 0)
(29.8846 0 0)
(31.242 0 0)
(32.6066 0 0)
(33.9779 0 0)
(35.3556 0 0)
(36.7393 0 0)
(38.1286 0 0)
(39.5234 0 0)
(40.9232 0 0)
(42.3279 0 0)
(43.7372 0 0)
(45.151 0 0)
(46.5689 0 0)
(47.9909 0 0)
(49.4166 0 0)
(50.846 0 0)
(52.2789 0 0)
(53.7151 0 0)
(55.1545 0 0)
(56.5969 0 0)
(58.0421 0 0)
(59.4901 0 0)
(60.9408 0 0)
(62.3939 0 0)
(63.8494 0 0)
(65.3072 0 0)
(66.7671 0 0)
(68.2291 0 0)
(69.6931 0 0)
(71.1589 0 0)
(72.6265 0 0)
(74.0958 0 0)
(75.5667 0 0)
(77.0391 0 0)
(78.5131 0 0)
(79.9884 0 0)
(81.465 0 0)
(82.9429 0 0)
(84.4221 0 0)
(85.9024 0 0)
(87.3838 0 0)
(88.8663 0 0)
(90.3498 0 0)
(91.8342 0 0)
(93.3196 0 0)
(94.8059 0 0)
(96.293 0 0)
(97.7809 0 0)
(99.2697 0 0)
(100.759 0 0)
(102.249 0 0)
(103.74 0 0)
(105.232 0 0)
(106.724 0 0)
(108.217 0 0)
(109.71 0 0)
(111.204 0 0)
(112.699 0 0)
(114.194 0 0)
(115.689 0 0)
(117.185 0 0)
(118.682 0 0)
(120.179 0 0)
(121.676 0 0)
(123.174 0 0)
(124.672 0 0)
(126.17 0 0)
(127.669 0 0)
(129.169 0 0)
(130.668 0 0)
(132.168 0 0)
(133.669 0 0)
(135.169 0 0)
(136.67 0 0)
(138.171 0 0)
(139.673 0 0)
(141.174 0 0)
(142.676 0 0)
(144.178 0 0)
(145.681 0 0)
(147.184 0 0)
(148.686 0 0)
(150.189 0 0)
(151.693 0 0)
(153.196 0 0)
(154.7 0 0)
(156.203 0 0)
(157.707 0 0)
(159.211 0 0)
(160.715 0 0)
(162.22 0 0)
(163.724 0 0)
(165.229 0 0)
(166.733 0 0)
(168.238 0 0)
(169.743 0 0)
(171.248 0 0)
(172.753 0 0)
(174.258 0 0)
(175.763 0 0)
(177.268 0 0)
(178.773 0 0)
(180.278 0 0)
(181.783 0 0)
(183.288 0 0)
(184.793 0 0)
(186.299 0 0)
(187.804 0 0)
(189.309 0 0)
(190.814 0 0)
(192.319 0 0)
(193.824 0 0)
(195.329 0 0)
(196.834 0 0)
(198.339 0 0)
(199.843 0 0)
(201.348 0 0)
(202.852 0 0)
(204.356 0 0)
(205.861 0 0)
(207.365 0 0)
(208.868 0 0)
(210.372 0 0)
(211.876 0 0)
(213.379 0 0)
(214.882 0 0)
(216.384 0 0)
(217.887 0 0)
(219.389 0 0)
(220.891 0 0)
(222.393 0 0)
(223.894 0 0)
(225.395 0 0)
(226.895 0 0)
(228.395 0 0)
(229.895 0 0)
(231.394 0 0)
(232.892 0 0)
(234.391 0 0)
(235.888 0 0)
(237.385 0 0)
(238.881 0 0)
(240.377 0 0)
(241.872 0 0)
(243.366 0 0)
(244.859 0 0)
(246.351 0 0)
(247.842 0 0)
(249.333 0 0)
(250.822 0 0)
(252.31 0 0)
(253.797 0 0)
(255.282 0 0)
(256.766 0 0)
(258.248 0 0)
(259.729 0 0)
(261.207 0 0)
(262.684 0 0)
(264.158 0 0)
(265.63 0 0)
(267.1 0 0)
(268.566 0 0)
(270.03 0 0)
(271.49 0 0)
(272.946 0 0)
(274.398 0 0)
(275.846 0 0)
(277.288 0 0)
(278.725 0 0)
(280.155 0 0)
(281.578 0 0)
(282.993 0 0)
(284.399 0 0)
(285.795 0 0)
(287.18 0 0)
(288.551 0 0)
(289.907 0 0)
(291.246 0 0)
(292.565 0 0)
(293.861 0 0)
(295.13 0 0)
(296.368 0 0)
(297.57 0 0)
(298.73 0 0)
(299.841 0 0)
(300.893 0 0)
(301.876 0 0)
(302.779 0 0)
(303.587 0 0)
(304.284 0 0)
(304.848 0 0)
(305.26 0 0)
(305.492 0 0)
(305.519 0 0)
(305.311 0 0)
(304.839 0 0)
(304.078 0 0)
(303.006 0 0)
(301.615 0 0)
(299.912 0 0)
(297.929 0 0)
(295.723 0 0)
(293.385 0 0)
(291.034 0 0)
(288.813 0 0)
(286.875 0 0)
(285.365 0 0)
(284.401 0 0)
(284.054 0 0)
(284.337 0 0)
(285.206 0 0)
(286.566 0 0)
(288.29 0 0)
(290.227 0 0)
(292.229 0 0)
(294.151 0 0)
(295.869 0 0)
(297.277 0 0)
(298.294 0 0)
(298.866 0 0)
(298.966 0 0)
(298.596 0 0)
(297.791 0 0)
(296.619 0 0)
(295.177 0 0)
(293.592 0 0)
(292.009 0 0)
(290.576 0 0)
(289.43 0 0)
(288.68 0 0)
(288.385 0 0)
(288.555 0 0)
(289.143 0 0)
(290.058 0 0)
(291.181 0 0)
(292.377 0 0)
(293.514 0 0)
(294.476 0 0)
(295.172 0 0)
(295.542 0 0)
(295.566 0 0)
(295.259 0 0)
(294.676 0 0)
(293.899 0 0)
(293.031 0 0)
(292.184 0 0)
(291.465 0 0)
(290.958 0 0)
(290.716 0 0)
(290.752 0 0)
(291.042 0 0)
(291.525 0 0)
(292.119 0 0)
(292.735 0 0)
(293.285 0 0)
(293.697 0 0)
(293.923 0 0)
(293.947 0 0)
(293.781 0 0)
(293.463 0 0)
(293.053 0 0)
(292.62 0 0)
(292.235 0 0)
(291.952 0 0)
(291.809 0 0)
(291.817 0 0)
(291.961 0 0)
(292.205 0 0)
(292.499 0 0)
(292.788 0 0)
(293.024 0 0)
(293.172 0 0)
(293.214 0 0)
(293.152 0 0)
(293.008 0 0)
(292.815 0 0)
(292.613 0 0)
(292.44 0 0)
(292.327 0 0)
(292.287 0 0)
(292.323 0 0)
(292.418 0 0)
(292.548 0 0)
(292.684 0 0)
(292.798 0 0)
(292.869 0 0)
(292.886 0 0)
(292.854 0 0)
(292.782 0 0)
(292.691 0 0)
(292.603 0 0)
(292.536 0 0)
(292.502 0 0)
(292.506 0 0)
(292.541 0 0)
(292.597 0 0)
(292.658 0 0)
(292.71 0 0)
(292.741 0 0)
(292.746 0 0)
(292.728 0 0)
(292.694 0 0)
(292.653 0 0)
(292.618 0 0)
(292.595 0 0)
(292.59 0 0)
(292.6 0 0)
(292.623 0 0)
(292.649 0 0)
(292.672 0 0)
(292.686 0 0)
(292.689 0 0)
(292.68 0 0)
(292.665 0 0)
(292.648 0 0)
(292.634 0 0)
(292.627 0 0)
(292.628 0 0)
(292.635 0 0)
(292.646 0 0)
(292.656 0 0)
(292.663 0 0)
(292.665 0 0)
(292.662 0 0)
(292.656 0 0)
(292.649 0 0)
(292.644 0 0)
(292.642 0 0)
(292.643 0 0)
(292.647 0 0)
(292.652 0 0)
(292.656 0 0)
(292.659 0 0)
(292.661 0 0)
(292.665 0 0)
(292.672 0 0)
(292.685 0 0)
(292.705 0 0)
(292.732 0 0)
(292.766 0 0)
(292.805 0 0)
(292.846 0 0)
(292.883 0 0)
(292.913 0 0)
(292.933 0 0)
(292.936 0 0)
(292.922 0 0)
(292.888 0 0)
(292.835 0 0)
(292.765 0 0)
(292.682 0 0)
(292.593 0 0)
(292.505 0 0)
(292.424 0 0)
(292.357 0 0)
(292.312 0 0)
(292.292 0 0)
(292.299 0 0)
(292.331 0 0)
(292.383 0 0)
(292.447 0 0)
(292.514 0 0)
(292.576 0 0)
(292.626 0 0)
(292.661 0 0)
(292.681 0 0)
(292.688 0 0)
(292.686 0 0)
(292.678 0 0)
(292.668 0 0)
(292.658 0 0)
(292.651 0 0)
(292.647 0 0)
(292.645 0 0)
(292.644 0 0)
(292.645 0 0)
(292.647 0 0)
(292.648 0 0)
(292.649 0 0)
(292.65 0 0)
(292.65 0 0)
(292.65 0 0)
(292.65 0 0)
(292.65 0 0)
(292.65 0 0)
(292.649 0 0)
(292.649 0 0)
(292.649 0 0)
(292.649 0 0)
(292.65 0 0)
(292.65 0 0)
(292.65 0 0)
(292.65 0 0)
(292.65 0 0)
(292.65 0 0)
(292.65 0 0)
(292.65 0 0)
(292.65 0 0)
(292.65 0 0)
(292.65 0 0)
(292.65 0 0)
(292.65 0 0)
(292.65 0 0)
(292.65 0 0)
(292.65 0 0)
(292.65 0 0)
(292.651 0 0)
(292.651 0 0)
(292.651 0 0)
(292.651 0 0)
(292.651 0 0)
(292.651 0 0)
(292.651 0 0)
(292.651 0 0)
(292.651 0 0)
(292.651 0 0)
(292.651 0 0)
(292.652 0 0)
(292.652 0 0)
(292.652 0 0)
(292.652 0 0)
(292.652 0 0)
(292.652 0 0)
(292.652 0 0)
(292.652 0 0)
(292.652 0 0)
(292.652 0 0)
(292.652 0 0)
(292.653 0 0)
(292.653 0 0)
(292.653 0 0)
(292.653 0 0)
(292.653 0 0)
(292.653 0 0)
(292.653 0 0)
(292.653 0 0)
(292.653 0 0)
(292.653 0 0)
(292.654 0 0)
(292.654 0 0)
(292.654 0 0)
(292.654 0 0)
(292.654 0 0)
(292.655 0 0)
(292.655 0 0)
(292.655 0 0)
(292.655 0 0)
(292.655 0 0)
(292.656 0 0)
(292.656 0 0)
(292.656 0 0)
(292.656 0 0)
(292.657 0 0)
(292.657 0 0)
(292.657 0 0)
(292.657 0 0)
(292.658 0 0)
(292.658 0 0)
(292.658 0 0)
(292.658 0 0)
(292.659 0 0)
(292.659 0 0)
(292.659 0 0)
(292.66 0 0)
(292.66 0 0)
(292.66 0 0)
(292.66 0 0)
(292.659 0 0)
(292.659 0 0)
(292.66 0 0)
(292.658 0 0)
(292.653 0 0)
(292.654 0 0)
(292.655 0 0)
(292.63 0 0)
(292.616 0 0)
(292.653 0 0)
(292.605 0 0)
(292.443 0 0)
(292.552 0 0)
(292.711 0 0)
(291.944 0 0)
(291.516 0 0)
(293.194 0 0)
(291.837 0 0)
(285.605 0 0)
(290.286 0 0)
(294.424 0 0)
(240.695 0 0)
(118.97 0 0)
(30.266 0 0)
(5.4834 0 0)
(0.926367 0 0)
(0.152631 0 0)
(0.0252232 0 0)
(0.00417251 0 0)
(0.00069032 0 0)
(0.00011421 0 0)
(1.88955e-05 0 0)
(3.12615e-06 0 0)
(5.17201e-07 0 0)
(8.55651e-08 0 0)
(1.41539e-08 0 0)
(2.33927e-09 0 0)
(3.85042e-10 0 0)
(6.16314e-11 0 0)
(8.09596e-12 0 0)
(-8.50927e-13 0 0)
(-2.227e-12 0 0)
(-2.8737e-12 0 0)
(-2.76673e-12 0 0)
(-3.31618e-12 0 0)
(-3.146e-12 0 0)
(-3.66142e-12 0 0)
(-3.28701e-12 0 0)
(-3.3405e-12 0 0)
(-3.56903e-12 0 0)
(-3.28701e-12 0 0)
(-3.54472e-12 0 0)
(-3.16545e-12 0 0)
(-3.51068e-12 0 0)
(-2.94178e-12 0 0)
(-3.35022e-12 0 0)
(-2.91746e-12 0 0)
(-3.21893e-12 0 0)
(-3.21893e-12 0 0)
(-3.7538e-12 0 0)
(-3.07306e-12 0 0)
(-3.72463e-12 0 0)
(-3.28701e-12 0 0)
(-3.47178e-12 0 0)
(-2.9515e-12 0 0)
(-3.10224e-12 0 0)
(-2.33883e-12 0 0)
(-2.32911e-12 0 0)
(-1.77965e-12 0 0)
(-1.89635e-12 0 0)
(-1.71158e-12 0 0)
(-1.77965e-12 0 0)
(-1.27396e-12 0 0)
(-1.16212e-12 0 0)
(-7.48816e-13 0 0)
(-4.71657e-13 0 0)
(-3.35508e-13 0 0)
(3.5982e-13 0 0)
(3.88995e-14 0 0)
(7.29366e-14 0 0)
(-4.66794e-13 0 0)
(-2.43122e-13 0 0)
(-7.00191e-13 0 0)
(-1.55598e-13 0 0)
(-7.39091e-13 0 0)
(-3.88995e-13 0 0)
(-1.00652e-12 0 0)
(-1.12809e-12 0 0)
(-1.34203e-12 0 0)
(-1.42956e-12 0 0)
(-1.71158e-12 0 0)
(-1.48304e-12 0 0)
(-1.66782e-12 0 0)
(-1.05029e-12 0 0)
(-1.43928e-12 0 0)
(-1.10864e-12 0 0)
(-9.82213e-13 0 0)
(-5.20281e-13 0 0)
(-9.968e-13 0 0)
(-7.19641e-13 0 0)
(-9.19001e-13 0 0)
(-9.7735e-13 0 0)
(-7.9744e-13 0 0)
(-7.73128e-13 0 0)
(-7.05054e-13 0 0)
(-5.54318e-13 0 0)
(-7.87715e-13 0 0)
(-7.87715e-13 0 0)
(-4.3762e-13 0 0)
(-7.24503e-13 0 0)
(-7.05054e-13 0 0)
(-1.2302e-12 0 0)
(-1.41011e-12 0 0)
(-1.37121e-12 0 0)
(-1.32745e-12 0 0)
(-1.35662e-12 0 0)
(-1.40524e-12 0 0)
(-1.61919e-12 0 0)
(-1.37121e-12 0 0)
(-1.8769e-12 0 0)
(-1.73103e-12 0 0)
(-2.34856e-12 0 0)
(-2.227e-12 0 0)
(-2.19782e-12 0 0)
(-2.27562e-12 0 0)
(-1.94498e-12 0 0)
(-1.89149e-12 0 0)
(-1.40038e-12 0 0)
(-1.33717e-12 0 0)
(-1.07946e-12 0 0)
(-1.30313e-12 0 0)
(-1.1913e-12 0 0)
(-1.37121e-12 0 0)
(-1.49763e-12 0 0)
(-1.45387e-12 0 0)
(-1.62892e-12 0 0)
(-1.44901e-12 0 0)
(-1.31286e-12 0 0)
(-1.58029e-12 0 0)
(-1.67754e-12 0 0)
(-1.56571e-12 0 0)
(-1.39552e-12 0 0)
(-1.49763e-12 0 0)
(-1.32258e-12 0 0)
(-1.50249e-12 0 0)
(-1.72617e-12 0 0)
(-1.7602e-12 0 0)
(-1.47332e-12 0 0)
(-1.36635e-12 0 0)
(-1.45387e-12 0 0)
(-1.28855e-12 0 0)
(-1.38093e-12 0 0)
(-1.18644e-12 0 0)
(-1.14754e-12 0 0)
(-1.04056e-12 0 0)
(-1.10377e-12 0 0)
(-7.63403e-13 0 0)
(-9.53038e-13 0 0)
(-1.01625e-12 0 0)
(-9.19001e-13 0 0)
(-9.91938e-13 0 0)
(-9.7735e-13 0 0)
(-1.33231e-12 0 0)
(-1.24478e-12 0 0)
(-1.54139e-12 0 0)
(-1.82341e-12 0 0)
(-2.08112e-12 0 0)
(-2.71324e-12 0 0)
(-2.95636e-12 0 0)
(-3.17031e-12 0 0)
(-3.06334e-12 0 0)
(-3.08279e-12 0 0)
(-2.75214e-12 0 0)
(-2.64517e-12 0 0)
(-2.09571e-12 0 0)
(-1.73589e-12 0 0)
(-1.2302e-12 0 0)
(-9.48176e-13 0 0)
(-6.41842e-13 0 0)
(-7.09916e-13 0 0)
(-5.54318e-13 0 0)
(-5.00831e-13 0 0)
(-1.94498e-14 0 0)
(-3.30646e-13 0 0)
(-2.96609e-13 0 0)
(-4.13307e-13 0 0)
(-2.43122e-13 0 0)
(-3.54958e-13 0 0)
(-3.25783e-13 0 0)
(-6.32117e-14 0 0)
(-4.81381e-13 0 0)
(-2.09085e-13 0 0)
(-1.21075e-12 0 0)
(-6.32117e-13 0 0)
(-9.04414e-13 0 0)
(-3.40371e-13 0 0)
(-6.12667e-13 0 0)
(6.80741e-14 0 0)
(-9.23863e-14 0 0)
(3.88995e-14 0 0)
(-2.33397e-13 0 0)
(1.06974e-13 0 0)
(2.43122e-14 0 0)
(4.95969e-13 0 0)
(5.9808e-13 0 0)
(7.68265e-13 0 0)
(9.968e-13 0 0)
(1.40524e-12 0 0)
(1.45387e-12 0 0)
(1.63378e-12 0 0)
(1.86718e-12 0 0)
(2.28535e-12 0 0)
(2.12002e-12 0 0)
(2.05681e-12 0 0)
(1.61433e-12 0 0)
(1.44414e-12 0 0)
(1.1913e-12 0 0)
(8.21752e-13 0 0)
(6.85604e-13 0 0)
(6.71017e-13 0 0)
(1.02111e-13 0 0)
)
;

boundaryField
{
    sides
    {
        type            zeroGradient;
    }
    empty
    {
        type            empty;
    }
}


// ************************************************************************* //
