/*--------------------------------*- C++ -*----------------------------------*\
  =========                 |
  \\      /  F ield         | OpenFOAM: The Open Source CFD Toolbox
   \\    /   O peration     | Website:  https://openfoam.org
    \\  /    A nd           | Version:  13
     \\/     M anipulation  |
\*---------------------------------------------------------------------------*/
FoamFile
{
    format      ascii;
    class       volVectorField;
    location    "0.0055";
    object      U_0;
}
// * * * * * * * * * * * * * * * * * * * * * * * * * * * * * * * * * * * * * //

dimensions      [0 1 -1 0 0 0 0];

internalField   nonuniform List<vector> 
1000
(
(-2.67434e-12 0 0)
(-2.63544e-12 0 0)
(-2.64516e-12 0 0)
(-2.63544e-12 0 0)
(-2.97581e-12 0 0)
(-2.62085e-12 0 0)
(-2.9904e-12 0 0)
(-2.51874e-12 0 0)
(-3.08278e-12 0 0)
(-2.55764e-12 0 0)
(-2.78617e-12 0 0)
(-2.33397e-12 0 0)
(-2.29021e-12 0 0)
(-1.92552e-12 0 0)
(-2.21727e-12 0 0)
(-2.12002e-12 0 0)
(-2.35342e-12 0 0)
(-2.21727e-12 0 0)
(-2.39718e-12 0 0)
(-2.02763e-12 0 0)
(-2.38745e-12 0 0)
(-2.42635e-12 0 0)
(-2.82021e-12 0 0)
(-2.8348e-12 0 0)
(-2.59654e-12 0 0)
(-2.61599e-12 0 0)
(-2.15892e-12 0 0)
(-2.23186e-12 0 0)
(-2.23186e-12 0 0)
(-2.77645e-12 0 0)
(-2.82021e-12 0 0)
(-3.23838e-12 0 0)
(-3.03416e-12 0 0)
(-3.10223e-12 0 0)
(-3.10223e-12 0 0)
(-3.00985e-12 0 0)
(-2.92718e-12 0 0)
(-3.06819e-12 0 0)
(-2.72296e-12 0 0)
(-2.75214e-12 0 0)
(-2.02277e-12 0 0)
(-1.57543e-12 0 0)
(-1.68726e-12 0 0)
(-1.66295e-12 0 0)
(-1.65323e-12 0 0)
(-1.5657e-12 0 0)
(-1.85259e-12 0 0)
(-1.41011e-12 0 0)
(-1.93039e-12 0 0)
(-1.56084e-12 0 0)
(-1.84772e-12 0 0)
(-1.56084e-12 0 0)
(-1.94984e-12 0 0)
(-1.60946e-12 0 0)
(-1.81369e-12 0 0)
(-1.48304e-12 0 0)
(-1.71644e-12 0 0)
(-1.53167e-12 0 0)
(-1.59002e-12 0 0)
(-1.63378e-12 0 0)
(-1.93039e-12 0 0)
(-1.75534e-12 0 0)
(-2.10543e-12 0 0)
(-1.94984e-12 0 0)
(-2.03736e-12 0 0)
(-1.76506e-12 0 0)
(-1.63864e-12 0 0)
(-1.58029e-12 0 0)
(-1.75048e-12 0 0)
(-1.77479e-12 0 0)
(-1.80882e-12 0 0)
(-1.92552e-12 0 0)
(-1.85745e-12 0 0)
(-1.96442e-12 0 0)
(-1.82341e-12 0 0)
(-1.9547e-12 0 0)
(-1.82827e-12 0 0)
(-1.91094e-12 0 0)
(-2.05195e-12 0 0)
(-2.23672e-12 0 0)
(-2.39232e-12 0 0)
(-2.60626e-12 0 0)
(-2.88828e-12 0 0)
(-3.14113e-12 0 0)
(-3.07792e-12 0 0)
(-3.40856e-12 0 0)
(-3.03902e-12 0 0)
(-3.21893e-12 0 0)
(-2.94177e-12 0 0)
(-3.19948e-12 0 0)
(-2.88828e-12 0 0)
(-3.10709e-12 0 0)
(-3.00498e-12 0 0)
(-3.11196e-12 0 0)
(-3.34049e-12 0 0)
(-3.24324e-12 0 0)
(-3.24324e-12 0 0)
(-3.06819e-12 0 0)
(-3.19948e-12 0 0)
(-3.11196e-12 0 0)
(-3.05847e-12 0 0)
(-3.30159e-12 0 0)
(-3.21407e-12 0 0)
(-3.33077e-12 0 0)
(-3.13141e-12 0 0)
(-3.27242e-12 0 0)
(-3.05361e-12 0 0)
(-3.15572e-12 0 0)
(-2.98067e-12 0 0)
(-2.98553e-12 0 0)
(-2.78617e-12 0 0)
(-2.94177e-12 0 0)
(-2.5236e-12 0 0)
(-2.41663e-12 0 0)
(-2.29021e-12 0 0)
(-2.40204e-12 0 0)
(-2.27076e-12 0 0)
(-2.16378e-12 0 0)
(-2.30966e-12 0 0)
(-2.42149e-12 0 0)
(-2.01305e-12 0 0)
(-2.30479e-12 0 0)
(-1.85259e-12 0 0)
(-2.26589e-12 0 0)
(-2.09085e-12 0 0)
(-2.15892e-12 0 0)
(-2.35342e-12 0 0)
(-1.94497e-12 0 0)
(-1.94011e-12 0 0)
(-1.6046e-12 0 0)
(-1.85259e-12 0 0)
(-1.61433e-12 0 0)
(-1.8769e-12 0 0)
(-1.81855e-12 0 0)
(-2.01305e-12 0 0)
(-2.04222e-12 0 0)
(-1.91094e-12 0 0)
(-2.22213e-12 0 0)
(-1.84772e-12 0 0)
(-1.89635e-12 0 0)
(-1.90121e-12 0 0)
(-2.33397e-12 0 0)
(-2.41663e-12 0 0)
(-2.74727e-12 0 0)
(-2.97581e-12 0 0)
(-2.63058e-12 0 0)
(-2.76672e-12 0 0)
(-2.47012e-12 0 0)
(-2.49443e-12 0 0)
(-2.67434e-12 0 0)
(-2.24158e-12 0 0)
(-2.59168e-12 0 0)
(-2.13947e-12 0 0)
(-2.14919e-12 0 0)
(-1.70671e-12 0 0)
(-2.12975e-12 0 0)
(-1.85259e-12 0 0)
(-1.82341e-12 0 0)
(-1.62405e-12 0 0)
(-1.63378e-12 0 0)
(-1.54625e-12 0 0)
(-1.6824e-12 0 0)
(-1.7602e-12 0 0)
(-1.69699e-12 0 0)
(-1.94011e-12 0 0)
(-1.81855e-12 0 0)
(-1.51222e-12 0 0)
(-1.19616e-12 0 0)
(-1.15726e-12 0 0)
(-7.0019e-13 0 0)
(-6.66153e-13 0 0)
(-1.7991e-13 0 0)
(-5.34868e-14 0 0)
(1.16698e-13 0 0)
(3.88995e-13 0 0)
(3.64682e-13 0 0)
(3.50095e-13 0 0)
(-4.37619e-14 0 0)
(-4.52206e-13 0 0)
(-5.73767e-13 0 0)
(-3.4037e-13 0 0)
(-1.84772e-13 0 0)
(1.65323e-13 0 0)
(1.7991e-13 0 0)
(4.13307e-13 0 0)
(2.33397e-13 0 0)
(3.98719e-13 0 0)
(4.37619e-13 0 0)
(6.61291e-13 0 0)
(5.54317e-13 0 0)
(6.17529e-13 0 0)
(4.81381e-13 0 0)
(4.08444e-13 0 0)
(-1.9936e-13 0 0)
(-2.96608e-13 0 0)
(-8.21751e-13 0 0)
(-6.07804e-13 0 0)
(-9.48174e-13 0 0)
(-7.0019e-13 0 0)
(-7.87714e-13 0 0)
(-2.38259e-13 0 0)
(-1.31286e-13 0 0)
(3.06333e-13 0 0)
(5.5918e-13 0 0)
(6.95328e-13 0 0)
(8.07164e-13 0 0)
(1.01139e-12 0 0)
(8.65513e-13 0 0)
(1.18157e-12 0 0)
(1.22047e-12 0 0)
(1.55112e-12 0 0)
(1.5268e-12 0 0)
(1.55112e-12 0 0)
(1.44414e-12 0 0)
(1.70185e-12 0 0)
(1.88662e-12 0 0)
(1.8769e-12 0 0)
(1.97901e-12 0 0)
(1.81369e-12 0 0)
(2.12002e-12 0 0)
(1.94011e-12 0 0)
(2.18809e-12 0 0)
(2.20268e-12 0 0)
(2.31938e-12 0 0)
(2.23186e-12 0 0)
(2.26103e-12 0 0)
(2.23186e-12 0 0)
(2.07626e-12 0 0)
(2.34369e-12 0 0)
(2.22699e-12 0 0)
(1.97901e-12 0 0)
(2.00332e-12 0 0)
(1.72616e-12 0 0)
(2.17837e-12 0 0)
(3.14599e-12 0 0)
(5.79116e-12 0 0)
(1.11058e-11 0 0)
(2.20852e-11 0 0)
(4.44621e-11 0 0)
(8.96924e-11 0 0)
(1.81257e-10 0 0)
(3.64823e-10 0 0)
(7.30352e-10 0 0)
(1.45229e-09 0 0)
(2.86931e-09 0 0)
(5.62766e-09 0 0)
(1.096e-08 0 0)
(2.11868e-08 0 0)
(4.06536e-08 0 0)
(7.74162e-08 0 0)
(1.46293e-07 0 0)
(2.74296e-07 0 0)
(5.10236e-07 0 0)
(9.41506e-07 0 0)
(1.72314e-06 0 0)
(3.12759e-06 0 0)
(5.62897e-06 0 0)
(1.00443e-05 0 0)
(1.77669e-05 0 0)
(3.11491e-05 0 0)
(5.41187e-05 0 0)
(9.31637e-05 0 0)
(0.000158879 0 0)
(0.000268366 0 0)
(0.000448895 0 0)
(0.000743416 0 0)
(0.0012187 0 0)
(0.00197715 0 0)
(0.00317365 0 0)
(0.00503906 0 0)
(0.00791216 0 0)
(0.0122822 0 0)
(0.0188439 0 0)
(0.0285658 0 0)
(0.0427727 0 0)
(0.06324 0 0)
(0.0922952 0 0)
(0.132918 0 0)
(0.188829 0 0)
(0.264541 0 0)
(0.36537 0 0)
(0.497368 0 0)
(0.667173 0 0)
(0.881764 0 0)
(1.14813 0 0)
(1.47288 0 0)
(1.86182 0 0)
(2.31954 0 0)
(2.84912 0 0)
(3.45193 0 0)
(4.12754 0 0)
(4.87388 0 0)
(5.6874 0 0)
(6.56344 0 0)
(7.49674 0 0)
(8.48183 0 0)
(9.5133 0 0)
(10.5861 0 0)
(11.6954 0 0)
(12.8371 0 0)
(14.0074 0 0)
(15.2031 0 0)
(16.4211 0 0)
(17.6591 0 0)
(18.9149 0 0)
(20.1866 0 0)
(21.4726 0 0)
(22.7717 0 0)
(24.0826 0 0)
(25.4043 0 0)
(26.7359 0 0)
(28.0766 0 0)
(29.4259 0 0)
(30.783 0 0)
(32.1475 0 0)
(33.5189 0 0)
(34.8968 0 0)
(36.2809 0 0)
(37.6708 0 0)
(39.0661 0 0)
(40.4667 0 0)
(41.8722 0 0)
(43.2825 0 0)
(44.6972 0 0)
(46.1163 0 0)
(47.5394 0 0)
(48.9664 0 0)
(50.3971 0 0)
(51.8314 0 0)
(53.2691 0 0)
(54.7099 0 0)
(56.1539 0 0)
(57.6008 0 0)
(59.0505 0 0)
(60.5029 0 0)
(61.9578 0 0)
(63.4152 0 0)
(64.8748 0 0)
(66.3367 0 0)
(67.8006 0 0)
(69.2666 0 0)
(70.7344 0 0)
(72.2041 0 0)
(73.6755 0 0)
(75.1486 0 0)
(76.6232 0 0)
(78.0993 0 0)
(79.5768 0 0)
(81.0557 0 0)
(82.5359 0 0)
(84.0173 0 0)
(85.5 0 0)
(86.9837 0 0)
(88.4685 0 0)
(89.9544 0 0)
(91.4412 0 0)
(92.929 0 0)
(94.4177 0 0)
(95.9073 0 0)
(97.3977 0 0)
(98.8888 0 0)
(100.381 0 0)
(101.873 0 0)
(103.367 0 0)
(104.861 0 0)
(106.356 0 0)
(107.851 0 0)
(109.347 0 0)
(110.843 0 0)
(112.34 0 0)
(113.838 0 0)
(115.336 0 0)
(116.835 0 0)
(118.334 0 0)
(119.833 0 0)
(121.333 0 0)
(122.834 0 0)
(124.334 0 0)
(125.836 0 0)
(127.337 0 0)
(128.839 0 0)
(130.341 0 0)
(131.844 0 0)
(133.347 0 0)
(134.85 0 0)
(136.354 0 0)
(137.857 0 0)
(139.361 0 0)
(140.866 0 0)
(142.37 0 0)
(143.875 0 0)
(145.38 0 0)
(146.886 0 0)
(148.391 0 0)
(149.897 0 0)
(151.403 0 0)
(152.909 0 0)
(154.415 0 0)
(155.921 0 0)
(157.428 0 0)
(158.935 0 0)
(160.442 0 0)
(161.949 0 0)
(163.456 0 0)
(164.963 0 0)
(166.47 0 0)
(167.978 0 0)
(169.485 0 0)
(170.993 0 0)
(172.5 0 0)
(174.008 0 0)
(175.516 0 0)
(177.024 0 0)
(178.532 0 0)
(180.039 0 0)
(181.547 0 0)
(183.055 0 0)
(184.563 0 0)
(186.071 0 0)
(187.579 0 0)
(189.087 0 0)
(190.595 0 0)
(192.102 0 0)
(193.61 0 0)
(195.118 0 0)
(196.625 0 0)
(198.133 0 0)
(199.64 0 0)
(201.147 0 0)
(202.655 0 0)
(204.162 0 0)
(205.668 0 0)
(207.175 0 0)
(208.682 0 0)
(210.188 0 0)
(211.694 0 0)
(213.2 0 0)
(214.706 0 0)
(216.211 0 0)
(217.717 0 0)
(219.222 0 0)
(220.726 0 0)
(222.231 0 0)
(223.735 0 0)
(225.238 0 0)
(226.741 0 0)
(228.244 0 0)
(229.746 0 0)
(231.248 0 0)
(232.75 0 0)
(234.25 0 0)
(235.751 0 0)
(237.25 0 0)
(238.749 0 0)
(240.248 0 0)
(241.745 0 0)
(243.242 0 0)
(244.738 0 0)
(246.233 0 0)
(247.727 0 0)
(249.22 0 0)
(250.712 0 0)
(252.203 0 0)
(253.692 0 0)
(255.18 0 0)
(256.667 0 0)
(258.152 0 0)
(259.635 0 0)
(261.117 0 0)
(262.596 0 0)
(264.073 0 0)
(265.548 0 0)
(267.02 0 0)
(268.49 0 0)
(269.956 0 0)
(271.419 0 0)
(272.878 0 0)
(274.333 0 0)
(275.783 0 0)
(277.228 0 0)
(278.667 0 0)
(280.1 0 0)
(281.526 0 0)
(282.944 0 0)
(284.353 0 0)
(285.752 0 0)
(287.139 0 0)
(288.513 0 0)
(289.872 0 0)
(291.213 0 0)
(292.535 0 0)
(293.834 0 0)
(295.106 0 0)
(296.347 0 0)
(297.552 0 0)
(298.714 0 0)
(299.828 0 0)
(300.883 0 0)
(301.869 0 0)
(302.775 0 0)
(303.586 0 0)
(304.285 0 0)
(304.852 0 0)
(305.266 0 0)
(305.501 0 0)
(305.53 0 0)
(305.324 0 0)
(304.854 0 0)
(304.094 0 0)
(303.023 0 0)
(301.633 0 0)
(299.93 0 0)
(297.945 0 0)
(295.737 0 0)
(293.396 0 0)
(291.042 0 0)
(288.817 0 0)
(286.876 0 0)
(285.363 0 0)
(284.397 0 0)
(284.048 0 0)
(284.331 0 0)
(285.201 0 0)
(286.564 0 0)
(288.289 0 0)
(290.229 0 0)
(292.233 0 0)
(294.157 0 0)
(295.876 0 0)
(297.284 0 0)
(298.301 0 0)
(298.871 0 0)
(298.967 0 0)
(298.594 0 0)
(297.786 0 0)
(296.609 0 0)
(295.164 0 0)
(293.577 0 0)
(291.993 0 0)
(290.561 0 0)
(289.418 0 0)
(288.672 0 0)
(288.383 0 0)
(288.559 0 0)
(289.153 0 0)
(290.073 0 0)
(291.198 0 0)
(292.395 0 0)
(293.532 0 0)
(294.491 0 0)
(295.182 0 0)
(295.546 0 0)
(295.563 0 0)
(295.251 0 0)
(294.662 0 0)
(293.881 0 0)
(293.012 0 0)
(292.166 0 0)
(291.45 0 0)
(290.949 0 0)
(290.713 0 0)
(290.757 0 0)
(291.052 0 0)
(291.539 0 0)
(292.136 0 0)
(292.752 0 0)
(293.298 0 0)
(293.706 0 0)
(293.927 0 0)
(293.945 0 0)
(293.772 0 0)
(293.45 0 0)
(293.038 0 0)
(292.606 0 0)
(292.223 0 0)
(291.945 0 0)
(291.807 0 0)
(291.821 0 0)
(291.969 0 0)
(292.216 0 0)
(292.51 0 0)
(292.798 0 0)
(293.032 0 0)
(293.176 0 0)
(293.213 0 0)
(293.147 0 0)
(293 0 0)
(292.806 0 0)
(292.604 0 0)
(292.434 0 0)
(292.323 0 0)
(292.288 0 0)
(292.326 0 0)
(292.424 0 0)
(292.555 0 0)
(292.691 0 0)
(292.802 0 0)
(292.871 0 0)
(292.886 0 0)
(292.85 0 0)
(292.777 0 0)
(292.686 0 0)
(292.599 0 0)
(292.533 0 0)
(292.502 0 0)
(292.507 0 0)
(292.544 0 0)
(292.601 0 0)
(292.662 0 0)
(292.712 0 0)
(292.742 0 0)
(292.746 0 0)
(292.727 0 0)
(292.691 0 0)
(292.651 0 0)
(292.616 0 0)
(292.594 0 0)
(292.59 0 0)
(292.602 0 0)
(292.625 0 0)
(292.651 0 0)
(292.674 0 0)
(292.687 0 0)
(292.688 0 0)
(292.679 0 0)
(292.663 0 0)
(292.646 0 0)
(292.633 0 0)
(292.627 0 0)
(292.628 0 0)
(292.636 0 0)
(292.647 0 0)
(292.657 0 0)
(292.663 0 0)
(292.665 0 0)
(292.661 0 0)
(292.655 0 0)
(292.648 0 0)
(292.643 0 0)
(292.642 0 0)
(292.644 0 0)
(292.648 0 0)
(292.652 0 0)
(292.656 0 0)
(292.66 0 0)
(292.663 0 0)
(292.667 0 0)
(292.675 0 0)
(292.69 0 0)
(292.712 0 0)
(292.741 0 0)
(292.777 0 0)
(292.817 0 0)
(292.857 0 0)
(292.893 0 0)
(292.921 0 0)
(292.936 0 0)
(292.935 0 0)
(292.915 0 0)
(292.875 0 0)
(292.816 0 0)
(292.742 0 0)
(292.657 0 0)
(292.567 0 0)
(292.479 0 0)
(292.402 0 0)
(292.341 0 0)
(292.302 0 0)
(292.29 0 0)
(292.305 0 0)
(292.344 0 0)
(292.401 0 0)
(292.467 0 0)
(292.534 0 0)
(292.592 0 0)
(292.638 0 0)
(292.669 0 0)
(292.685 0 0)
(292.688 0 0)
(292.684 0 0)
(292.675 0 0)
(292.665 0 0)
(292.656 0 0)
(292.65 0 0)
(292.646 0 0)
(292.644 0 0)
(292.645 0 0)
(292.646 0 0)
(292.647 0 0)
(292.648 0 0)
(292.649 0 0)
(292.65 0 0)
(292.65 0 0)
(292.65 0 0)
(292.65 0 0)
(292.65 0 0)
(292.65 0 0)
(292.65 0 0)
(292.65 0 0)
(292.65 0 0)
(292.65 0 0)
(292.65 0 0)
(292.65 0 0)
(292.65 0 0)
(292.65 0 0)
(292.65 0 0)
(292.65 0 0)
(292.65 0 0)
(292.65 0 0)
(292.65 0 0)
(292.65 0 0)
(292.65 0 0)
(292.65 0 0)
(292.65 0 0)
(292.65 0 0)
(292.65 0 0)
(292.65 0 0)
(292.65 0 0)
(292.651 0 0)
(292.651 0 0)
(292.651 0 0)
(292.651 0 0)
(292.651 0 0)
(292.651 0 0)
(292.651 0 0)
(292.651 0 0)
(292.651 0 0)
(292.651 0 0)
(292.651 0 0)
(292.652 0 0)
(292.652 0 0)
(292.652 0 0)
(292.652 0 0)
(292.652 0 0)
(292.652 0 0)
(292.652 0 0)
(292.652 0 0)
(292.652 0 0)
(292.653 0 0)
(292.653 0 0)
(292.653 0 0)
(292.653 0 0)
(292.653 0 0)
(292.653 0 0)
(292.653 0 0)
(292.653 0 0)
(292.653 0 0)
(292.653 0 0)
(292.653 0 0)
(292.654 0 0)
(292.654 0 0)
(292.654 0 0)
(292.654 0 0)
(292.654 0 0)
(292.655 0 0)
(292.655 0 0)
(292.655 0 0)
(292.655 0 0)
(292.655 0 0)
(292.655 0 0)
(292.656 0 0)
(292.656 0 0)
(292.656 0 0)
(292.656 0 0)
(292.657 0 0)
(292.657 0 0)
(292.657 0 0)
(292.658 0 0)
(292.658 0 0)
(292.658 0 0)
(292.658 0 0)
(292.659 0 0)
(292.659 0 0)
(292.659 0 0)
(292.66 0 0)
(292.66 0 0)
(292.66 0 0)
(292.66 0 0)
(292.66 0 0)
(292.659 0 0)
(292.66 0 0)
(292.66 0 0)
(292.655 0 0)
(292.653 0 0)
(292.657 0 0)
(292.645 0 0)
(292.616 0 0)
(292.633 0 0)
(292.648 0 0)
(292.51 0 0)
(292.451 0 0)
(292.704 0 0)
(292.413 0 0)
(291.47 0 0)
(292.325 0 0)
(293.324 0 0)
(288.262 0 0)
(285.998 0 0)
(296.066 0 0)
(275.393 0 0)
(177.709 0 0)
(60.4116 0 0)
(12.0645 0 0)
(2.0867 0 0)
(0.345451 0 0)
(0.0570146 0 0)
(0.00942899 0 0)
(0.00155992 0 0)
(0.000258082 0 0)
(4.26982e-05 0 0)
(7.06417e-06 0 0)
(1.16872e-06 0 0)
(1.93356e-07 0 0)
(3.19869e-08 0 0)
(5.28975e-09 0 0)
(8.72749e-10 0 0)
(1.42387e-10 0 0)
(2.14093e-11 0 0)
(1.38093e-12 0 0)
(-2.00819e-12 0 0)
(-2.38746e-12 0 0)
(-2.86398e-12 0 0)
(-2.74728e-12 0 0)
(-3.28701e-12 0 0)
(-3.13627e-12 0 0)
(-3.64683e-12 0 0)
(-3.21893e-12 0 0)
(-3.35022e-12 0 0)
(-3.54958e-12 0 0)
(-3.24811e-12 0 0)
(-3.54958e-12 0 0)
(-3.18976e-12 0 0)
(-3.53499e-12 0 0)
(-2.93691e-12 0 0)
(-3.29673e-12 0 0)
(-2.83966e-12 0 0)
(-3.19462e-12 0 0)
(-3.26756e-12 0 0)
(-3.77325e-12 0 0)
(-3.08765e-12 0 0)
(-3.73435e-12 0 0)
(-3.25297e-12 0 0)
(-3.41829e-12 0 0)
(-2.85425e-12 0 0)
(-2.9904e-12 0 0)
(-2.26103e-12 0 0)
(-2.27562e-12 0 0)
(-1.78452e-12 0 0)
(-1.90121e-12 0 0)
(-1.67754e-12 0 0)
(-1.69213e-12 0 0)
(-1.1524e-12 0 0)
(-1.06487e-12 0 0)
(-6.80741e-13 0 0)
(-4.32757e-13 0 0)
(-3.30646e-13 0 0)
(3.45233e-13 0 0)
(5.34868e-14 0 0)
(5.83493e-14 0 0)
(-5.05694e-13 0 0)
(-2.62572e-13 0 0)
(-7.00191e-13 0 0)
(-1.6046e-13 0 0)
(-7.7799e-13 0 0)
(-4.08445e-13 0 0)
(-1.05029e-12 0 0)
(-1.17671e-12 0 0)
(-1.41011e-12 0 0)
(-1.48791e-12 0 0)
(-1.7213e-12 0 0)
(-1.42469e-12 0 0)
(-1.59488e-12 0 0)
(-9.62763e-13 0 0)
(-1.33717e-12 0 0)
(-1.06487e-12 0 0)
(-9.968e-13 0 0)
(-5.05694e-13 0 0)
(-9.67625e-13 0 0)
(-6.80741e-13 0 0)
(-8.80101e-13 0 0)
(-9.33588e-13 0 0)
(-7.19641e-13 0 0)
(-6.95329e-13 0 0)
(-7.43953e-13 0 0)
(-5.9808e-13 0 0)
(-7.82853e-13 0 0)
(-8.21752e-13 0 0)
(-4.91106e-13 0 0)
(-7.29366e-13 0 0)
(-7.5854e-13 0 0)
(-1.27882e-12 0 0)
(-1.43442e-12 0 0)
(-1.43928e-12 0 0)
(-1.38093e-12 0 0)
(-1.36148e-12 0 0)
(-1.41983e-12 0 0)
(-1.62892e-12 0 0)
(-1.37607e-12 0 0)
(-1.89149e-12 0 0)
(-1.7213e-12 0 0)
(-2.26103e-12 0 0)
(-2.17837e-12 0 0)
(-2.19782e-12 0 0)
(-2.20755e-12 0 0)
(-1.85259e-12 0 0)
(-1.75048e-12 0 0)
(-1.3469e-12 0 0)
(-1.33717e-12 0 0)
(-1.08432e-12 0 0)
(-1.32745e-12 0 0)
(-1.21561e-12 0 0)
(-1.42469e-12 0 0)
(-1.50249e-12 0 0)
(-1.42956e-12 0 0)
(-1.64837e-12 0 0)
(-1.44414e-12 0 0)
(-1.32258e-12 0 0)
(-1.59488e-12 0 0)
(-1.71158e-12 0 0)
(-1.59488e-12 0 0)
(-1.3858e-12 0 0)
(-1.43928e-12 0 0)
(-1.28855e-12 0 0)
(-1.51708e-12 0 0)
(-1.72617e-12 0 0)
(-1.74075e-12 0 0)
(-1.48304e-12 0 0)
(-1.39552e-12 0 0)
(-1.41497e-12 0 0)
(-1.21075e-12 0 0)
(-1.35176e-12 0 0)
(-1.15726e-12 0 0)
(-1.17671e-12 0 0)
(-1.05515e-12 0 0)
(-1.08919e-12 0 0)
(-7.92578e-13 0 0)
(-9.62763e-13 0 0)
(-1.00166e-12 0 0)
(-9.23863e-13 0 0)
(-1.04056e-12 0 0)
(-1.05515e-12 0 0)
(-1.42956e-12 0 0)
(-1.3469e-12 0 0)
(-1.66295e-12 0 0)
(-1.84286e-12 0 0)
(-2.12489e-12 0 0)
(-2.8348e-12 0 0)
(-3.03902e-12 0 0)
(-3.1849e-12 0 0)
(-3.08765e-12 0 0)
(-3.13627e-12 0 0)
(-2.70352e-12 0 0)
(-2.48471e-12 0 0)
(-1.8769e-12 0 0)
(-1.51708e-12 0 0)
(-1.05515e-12 0 0)
(-8.31477e-13 0 0)
(-5.5918e-13 0 0)
(-7.34228e-13 0 0)
(-5.88355e-13 0 0)
(-4.91106e-13 0 0)
(-3.88995e-14 0 0)
(-3.20921e-13 0 0)
(-2.67434e-13 0 0)
(-4.71657e-13 0 0)
(-3.01471e-13 0 0)
(-3.69545e-13 0 0)
(-3.40371e-13 0 0)
(-1.16699e-13 0 0)
(-5.88355e-13 0 0)
(-2.72297e-13 0 0)
(-1.20102e-12 0 0)
(-6.32117e-13 0 0)
(-9.04414e-13 0 0)
(-3.40371e-13 0 0)
(-6.51567e-13 0 0)
(3.88995e-14 0 0)
(-1.11836e-13 0 0)
(9.72488e-14 0 0)
(-1.89635e-13 0 0)
(9.23863e-14 0 0)
(1.45873e-14 0 0)
(5.39731e-13 0 0)
(5.93218e-13 0 0)
(7.19641e-13 0 0)
(9.09276e-13 0 0)
(1.32745e-12 0 0)
(1.39552e-12 0 0)
(1.59488e-12 0 0)
(1.77479e-12 0 0)
(2.15406e-12 0 0)
(1.9547e-12 0 0)
(1.9158e-12 0 0)
(1.51222e-12 0 0)
(1.308e-12 0 0)
(1.08432e-12 0 0)
(7.34228e-13 0 0)
(5.7863e-13 0 0)
(5.7863e-13 0 0)
(5.34868e-14 0 0)
)
;

boundaryField
{
    sides
    {
        type            calculated;
        value           nonuniform List<vector> 2((5.34868e-14 0 0) (-2.67434e-12 0 0));
    }
    empty
    {
        type            empty;
    }
}


// ************************************************************************* //
