/*--------------------------------*- C++ -*----------------------------------*\
  =========                 |
  \\      /  F ield         | OpenFOAM: The Open Source CFD Toolbox
   \\    /   O peration     | Website:  https://openfoam.org
    \\  /    A nd           | Version:  13
     \\/     M anipulation  |
\*---------------------------------------------------------------------------*/
FoamFile
{
    format      ascii;
    class       volVectorField;
    location    "33.103936";
    object      wallShearStress;
}
// * * * * * * * * * * * * * * * * * * * * * * * * * * * * * * * * * * * * * //

dimensions      [0 2 -2 0 0 0 0];

internalField   uniform (0 0 0);

boundaryField
{
    inlet
    {
        type            calculated;
        value           uniform (0 0 0);
    }
    outlet
    {
        type            calculated;
        value           uniform (0 0 0);
    }
    cylinder
    {
        type            calculated;
        value           nonuniform List<vector> 
132
(
(1.5814255e-05 -0.00089579287 -2.5515766e-22)
(5.1458177e-05 -0.0011759529 7.2619923e-23)
(0.00010315579 -0.0014491775 4.0055388e-21)
(0.00017002357 -0.001710511 -1.3422708e-20)
(0.00025102817 -0.0019550844 9.459685e-21)
(0.00034458124 -0.0021780211 2.8853911e-20)
(0.00044854603 -0.0023746714 -5.4568809e-21)
(0.00056026546 -0.0025407816 -2.1577756e-20)
(0.00067654811 -0.0026727011 2.0300007e-20)
(0.00079399766 -0.0027675737 -4.5432935e-20)
(0.00090890419 -0.002823471 -8.2536868e-22)
(0.0010175315 -0.0028397111 2.8133528e-20)
(0.0011162848 -0.0028168556 4.5817874e-20)
(0.0012019786 -0.0027568947 -3.7170988e-20)
(0.0012721511 -0.0026634035 3.9098928e-20)
(0.0013249407 -0.0025406912 6.2875884e-20)
(0.0013599882 -0.0023950848 -4.117187e-20)
(0.0013783172 -0.0022339272 6.6007171e-20)
(0.0013824143 -0.0020651435 8.7236358e-20)
(0.0013765782 -0.0018972914 -5.6569324e-20)
(0.001366918 -0.0017390176 -7.2084888e-20)
(0.0013616565 -0.0015989882 2.5370487e-23)
(0.0013713052 -0.0014855739 1.0454719e-20)
(0.0014086123 -0.0014062942 -1.2517098e-20)
(0.0014886151 -0.0013674388 -2.1294455e-20)
(0.001626457 -0.001371816 4.5542665e-21)
(0.0018345034 -0.0014168769 -4.1116615e-20)
(0.0021166195 -0.0014918725 1.0983341e-20)
(0.0024665362 -0.0015796285 8.6215975e-21)
(0.0028599157 -0.0016548921 -5.9350342e-20)
(0.003259954 -0.0016921255 7.739652e-20)
(0.0036333746 -0.0016759649 2.3405891e-21)
(0.0039516231 -0.0016002084 1.6856304e-20)
(0.0041734761 -0.0014601243 -1.9952599e-20)
(0.0042197202 -0.001248197 6.3328806e-20)
(0.0039557445 -0.00095984474 -4.0012318e-21)
(0.003214028 -0.00061241223 1.6127314e-20)
(0.0017797476 -0.0002523447 -2.2134422e-21)
(-0.00055386525 2.4355103e-05 3.1759362e-21)
(-0.0040189638 8.0271613e-05 -1.9819564e-21)
(-0.0089635726 -0.00030436973 3.7056803e-21)
(-0.015355534 -0.0014314598 -1.1450182e-22)
(-0.022663474 -0.0034907298 4.2072881e-20)
(-0.030442356 -0.0065794798 -1.6248079e-20)
(-0.038121513 -0.010673136 1.4691545e-20)
(-0.045204883 -0.015646436 -9.4553786e-20)
(-0.051256206 -0.021277905 -1.5277296e-20)
(-0.05600419 -0.027310598 1.3436844e-19)
(-0.059255987 -0.033456403 -1.1481378e-19)
(-0.060971428 -0.039449725 -2.196962e-21)
(-0.061148133 -0.045014437 3.5141401e-20)
(-0.059925221 -0.04995366 -3.216404e-20)
(-0.057391877 -0.054027695 -6.3559777e-21)
(-0.053747403 -0.057089349 -4.1099765e-21)
(-0.049229688 -0.059052668 -6.6525093e-21)
(-0.044008453 -0.059778425 -2.2794974e-21)
(-0.038336645 -0.05924986 5.7143404e-22)
(-0.032430507 -0.057440466 4.7444574e-20)
(-0.026514378 -0.054376413 -7.3225108e-20)
(-0.020799426 -0.050112569 -7.8575817e-20)
(-0.015482544 -0.044735693 -3.2010585e-20)
(-0.010741736 -0.038361288 -7.3573773e-20)
(-0.0067322551 -0.031130561 1.6447499e-20)
(-0.0035811289 -0.023205734 2.3969847e-20)
(-0.0013915552 -0.01478268 -3.7304078e-20)
(-0.00021903957 -0.0060129137 -4.989395e-21)
(-4.4934573e-06 -0.00061060812 -1.1738636e-21)
(-9.2159856e-06 -0.00031963502 -6.9903857e-23)
(1.9598662e-06 -2.4994335e-05 -4.0101354e-21)
(2.9689655e-05 0.00026907319 1.3432699e-20)
(7.399269e-05 0.00055750908 -9.4697931e-21)
(0.00013421851 0.00083506388 -2.8896262e-20)
(0.0002089737 0.0010964605 5.4675901e-21)
(0.00029640074 0.0013365752 2.1633114e-20)
(0.00039406469 0.0015505856 -2.0366683e-20)
(0.00049895694 0.001734223 4.5620624e-20)
(0.000607753 0.001883984 8.2956445e-22)
(0.00071683069 0.0019972956 -2.8308088e-20)
(0.00082249464 0.0020728601 -4.6157632e-20)
(0.00092114721 0.0021105958 3.7495391e-20)
(0.0010097154 0.0021121553 -3.9494492e-20)
(0.0010856309 0.0020802785 -6.360276e-20)
(0.0011476766 0.0020199068 4.170838e-20)
(0.001195354 0.0019363105 -6.6964548e-20)
(0.0012304413 0.0018371928 -8.8626603e-20)
(0.0012560455 0.0017303753 5.7548949e-20)
(0.0012771551 0.0016241354 7.3425787e-20)
(0.0013017117 0.0015280045 6.5819194e-20)
(0.001339267 0.0014503644 5.4115339e-20)
(0.0014024581 0.0013997497 1.2789716e-20)
(0.0015047065 0.0013819464 2.1775582e-20)
(0.0016595178 0.0013995696 -4.6603649e-21)
(0.0018773841 0.0014500132 4.2099255e-20)
(0.0021592412 0.0015220735 -1.1251535e-20)
(0.0024956477 0.0015985384 -8.8360451e-21)
(0.0028631472 0.0016570564 6.08496e-20)
(0.0032321631 0.0016779572 -7.9379388e-20)
(0.0035746976 0.0016491362 -2.3875214e-21)
(0.0038565216 0.001562015 3.9367971e-20)
(0.0040213377 0.0014074324 2.0497221e-20)
(0.0039740796 0.0011764449 -6.5112375e-20)
(0.0035684858 0.00086741737 4.1175961e-21)
(0.0026304012 0.00050409552 1.2113443e-20)
(0.00093734935 0.00014063505 2.2809722e-21)
(-0.00170544 -0.00011863814 -3.2725809e-21)
(-0.005490031 -0.00011730198 2.040701e-21)
(-0.010777664 0.00036128885 -3.8076958e-21)
(-0.017454403 0.0016235367 3.0910447e-20)
(-0.024926731 0.0038359663 -4.2850858e-20)
(-0.032742389 0.0070732862 1.644468e-20)
(-0.040300596 0.011280427 -1.4763288e-20)
(-0.047166024 0.016322753 9.4287532e-20)
(-0.052918942 0.021964707 1.5103394e-20)
(-0.057317347 0.027947676 -1.3161526e-19)
(-0.06020529 0.033989225 1.1126393e-19)
(-0.061559924 0.039827447 2.1021802e-21)
(-0.061393172 0.045191847 -3.3072279e-20)
(-0.059868172 0.049903165 2.9573505e-20)
(-0.057055547 0.053707938 -4.5248077e-20)
(-0.053180377 0.056484021 3.332329e-21)
(-0.048496423 0.058169792 -4.9865506e-21)
(-0.04313949 0.058594359 5.0153915e-21)
(-0.037383429 0.057772455 -7.1765409e-22)
(-0.031437775 0.055677197 -5.4018113e-20)
(-0.025525034 0.052341382 7.9940789e-20)
(-0.019853895 0.04782673 8.3735547e-20)
(-0.014616832 0.042223822 3.3563847e-20)
(-0.0099879235 0.035654091 7.6220331e-20)
(-0.006116936 0.028260962 -1.6875902e-20)
(-0.003125608 0.020212264 4.8379067e-20)
(-0.001110929 0.011694659 3.7686366e-20)
(-0.00012742276 0.0029060467 5.0091543e-21)
)
;
    }
    frontAndBack
    {
        type            empty;
    }
}


// ************************************************************************* //
