/*--------------------------------*- C++ -*----------------------------------*\
  =========                 |
  \\      /  F ield         | OpenFOAM: The Open Source CFD Toolbox
   \\    /   O peration     | Website:  https://openfoam.org
    \\  /    A nd           | Version:  13
     \\/     M anipulation  |
\*---------------------------------------------------------------------------*/
FoamFile
{
    format      ascii;
    class       volScalarField;
    location    "40.503516";
    object      p;
}
// * * * * * * * * * * * * * * * * * * * * * * * * * * * * * * * * * * * * * //

dimensions      [0 2 -2 0 0 0 0];

internalField   nonuniform List<scalar> 
17140
(
-0.30612636
-0.30613432
-0.30614375
-0.30615382
-0.30616487
-0.30617707
-0.3061905
-0.30620526
-0.30622146
-0.3062392
-0.3062586
-0.30627976
-0.30630278
-0.30632774
-0.30635473
-0.3063838
-0.30641499
-0.3064483
-0.30648371
-0.30652118
-0.30656063
-0.306602
-0.30664524
-0.30669043
-0.30673784
-0.30678812
-0.30684258
-0.30690361
-0.30697535
-0.30706456
-0.30718173
-0.30734204
-0.3075653
-0.30787311
-0.30828247
-0.30879713
-0.30940163
-0.3100624
-0.31073579
-0.3113783
-0.31195505
-0.31244392
-0.31283375
-0.31312715
-0.3133436
-0.31349669
-0.31358727
-0.31361737
-0.31356629
-0.31339884
-0.31300978
-0.31229245
-0.31094729
-0.30882135
-0.30557961
-0.30144494
-0.2960596
-0.29066152
-0.28874644
-0.29779566
-0.32236832
-0.29967975
-0.19102841
-0.11873651
-0.058864338
-0.30512276
-0.30513123
-0.30514063
-0.3051493
-0.30515967
-0.30517244
-0.30518611
-0.30520067
-0.30521661
-0.30523411
-0.30525323
-0.3052741
-0.30529681
-0.30532144
-0.30534808
-0.30537677
-0.30540757
-0.30544046
-0.30547543
-0.30551242
-0.30555135
-0.30559212
-0.30563468
-0.30567904
-0.3057254
-0.30577431
-0.30582694
-0.30588547
-0.30595376
-0.30603816
-0.30614868
-0.3062999
-0.3065109
-0.30680257
-0.30719125
-0.30768011
-0.30825311
-0.30887585
-0.30950331
-0.31008994
-0.31059792
-0.31100134
-0.31128441
-0.31144269
-0.31148729
-0.31142214
-0.31123412
-0.31091014
-0.31040572
-0.30966175
-0.30854335
-0.3069275
-0.30449643
-0.30119727
-0.29698872
-0.29279022
-0.2892924
-0.28845453
-0.29452887
-0.31747216
-0.35961649
-0.34671834
-0.21989388
-0.12731686
-0.047091571
-0.30417766
-0.30418579
-0.30419488
-0.30420332
-0.3042132
-0.30422576
-0.30423928
-0.30425337
-0.30426886
-0.30428588
-0.3043045
-0.30432481
-0.30434692
-0.30437093
-0.30439689
-0.30442488
-0.30445492
-0.30448702
-0.30452115
-0.30455725
-0.30459522
-0.30463495
-0.30467635
-0.30471939
-0.30476419
-0.3048112
-0.30486142
-0.30491681
-0.30498088
-0.30505956
-0.30516224
-0.30530273
-0.30549922
-0.30577173
-0.30613587
-0.30659437
-0.30713088
-0.30771062
-0.3082876
-0.30881442
-0.30925051
-0.30956621
-0.30974109
-0.30976408
-0.30963775
-0.30935678
-0.30889665
-0.30822426
-0.30727926
-0.30597971
-0.30416512
-0.30169964
-0.29824212
-0.2938078
-0.28888083
-0.28473086
-0.28264239
-0.28635598
-0.29991273
-0.33644655
-0.39184901
-0.38719814
-0.24332955
-0.12877135
-0.036466368
-0.30329777
-0.30330511
-0.3033138
-0.30332308
-0.30333323
-0.30334444
-0.30335677
-0.30337033
-0.30338522
-0.30340155
-0.30341941
-0.30343891
-0.30346015
-0.30348323
-0.3035082
-0.30353513
-0.30356406
-0.30359498
-0.30362786
-0.30366263
-0.30369919
-0.3037374
-0.30377715
-0.30381836
-0.30386107
-0.30390562
-0.30395285
-0.30400445
-0.30406359
-0.30413567
-0.30422939
-0.30435763
-0.30453753
-0.304788
-0.30512386
-0.30554751
-0.3060427
-0.30657476
-0.30709703
-0.30756049
-0.30792204
-0.30814845
-0.30821471
-0.30810349
-0.30780892
-0.30731599
-0.30658867
-0.30558103
-0.30421252
-0.30238296
-0.29990991
-0.2966458
-0.29218293
-0.28689048
-0.28155307
-0.27726609
-0.27588999
-0.28308477
-0.30411586
-0.35191794
-0.41907358
-0.41517148
-0.26020654
-0.12286676
-0.02562981
-0.30248851
-0.30249547
-0.30250368
-0.30251243
-0.30252202
-0.3025326
-0.30254425
-0.30255707
-0.30257114
-0.30258657
-0.30260347
-0.30262193
-0.30264205
-0.30266392
-0.30268761
-0.30271318
-0.30274065
-0.30277003
-0.30280128
-0.30283432
-0.30286905
-0.30290532
-0.30294297
-0.30298187
-0.303022
-0.30306358
-0.30310727
-0.3031545
-0.30320804
-0.30327272
-0.30335645
-0.30347107
-0.30363244
-0.30385824
-0.30416246
-0.30454739
-0.30499709
-0.30547697
-0.30594023
-0.30633701
-0.30662181
-0.30675799
-0.30671608
-0.30647264
-0.3060137
-0.30531572
-0.30433162
-0.30300273
-0.30123171
-0.2989022
-0.29581572
-0.29180523
-0.28642804
-0.28060896
-0.27487031
-0.27023296
-0.26968985
-0.2786157
-0.30632809
-0.36268458
-0.43762865
-0.42906787
-0.26836104
-0.11204449
-0.017321606
-0.30175375
-0.30176027
-0.30176819
-0.30177631
-0.3017852
-0.30179503
-0.30180586
-0.30181776
-0.30183085
-0.3018452
-0.30186093
-0.30187813
-0.30189688
-0.30191729
-0.30193941
-0.30196331
-0.301989
-0.3020165
-0.30204576
-0.3020767
-0.30210919
-0.30214309
-0.3021782
-0.30221434
-0.30225142
-0.30228952
-0.30232912
-0.30237138
-0.30241865
-0.30247518
-0.30254798
-0.30264777
-0.302789
-0.30298795
-0.3032576
-0.30360002
-0.30399997
-0.30442373
-0.30482475
-0.30515231
-0.30535892
-0.30540479
-0.30525626
-0.30488415
-0.30426666
-0.30337212
-0.30214362
-0.300511
-0.29836167
-0.29556611
-0.29191763
-0.28720329
-0.28117659
-0.27485672
-0.26863708
-0.26365103
-0.26363863
-0.27376591
-0.30650224
-0.36900582
-0.44450695
-0.42926562
-0.26980507
-0.098228001
-0.010781047
-0.30109632
-0.30110224
-0.30110946
-0.30111688
-0.30112498
-0.30113395
-0.30114383
-0.30115469
-0.30116664
-0.30117975
-0.30119414
-0.30120988
-0.30122706
-0.30124578
-0.30126609
-0.30128804
-0.30131167
-0.30133697
-0.3013639
-0.30139237
-0.30142225
-0.30145336
-0.3014855
-0.30151843
-0.30155199
-0.30158614
-0.30162118
-0.30165799
-0.30169849
-0.30174627
-0.30180747
-0.30189154
-0.30201143
-0.30218189
-0.30241479
-0.302712
-0.30305896
-0.30342323
-0.30375904
-0.3040153
-0.30414293
-0.3040992
-0.30384654
-0.30335054
-0.30258196
-0.30150122
-0.30004285
-0.29812652
-0.29562544
-0.29240097
-0.28823602
-0.28283728
-0.27640686
-0.26963709
-0.26281743
-0.25745384
-0.25758677
-0.26854987
-0.3048342
-0.37041353
-0.43998492
-0.41774329
-0.26582377
-0.089576977
-0.0083452065
-0.30051694
-0.30052224
-0.30052869
-0.30053531
-0.30054255
-0.30055056
-0.30055939
-0.3005691
-0.30057979
-0.30059153
-0.30060442
-0.30061854
-0.30063398
-0.30065081
-0.3006691
-0.30068888
-0.3007102
-0.30073303
-0.30075734
-0.30078304
-0.30080997
-0.30083796
-0.30086676
-0.3008961
-0.30092575
-0.30095556
-0.30098563
-0.30101658
-0.30104988
-0.3010885
-0.30113761
-0.30120539
-0.30130317
-0.30144405
-0.30163868
-0.30188864
-0.30218027
-0.30248259
-0.30275103
-0.30293469
-0.30298326
-0.30285148
-0.30249818
-0.30188423
-0.30097337
-0.29971868
-0.29804705
-0.29586915
-0.29304498
-0.28943289
-0.28478716
-0.27880122
-0.27201334
-0.2648375
-0.25735808
-0.25159534
-0.2515923
-0.2637027
-0.30123022
-0.36637801
-0.42747507
-0.39733823
-0.249662
-0.087606328
-0.0085732611
-0.30001521
-0.30001984
-0.30002546
-0.30003124
-0.30003755
-0.30004454
-0.30005224
-0.30006072
-0.30007005
-0.30008033
-0.30009161
-0.300104
-0.30011755
-0.30013235
-0.30014846
-0.3001659
-0.30018471
-0.30020488
-0.30022634
-0.30024902
-0.30027276
-0.30029735
-0.30032253
-0.30034799
-0.30037342
-0.30039858
-0.30042338
-0.30044817
-0.30047401
-0.3005032
-0.30054
-0.30059123
-0.30066661
-0.30077744
-0.30093304
-0.30113464
-0.30136948
-0.30160827
-0.30180806
-0.30191858
-0.30188882
-0.30167139
-0.30122192
-0.30049714
-0.2994542
-0.29803935
-0.29617279
-0.29375707
-0.29064026
-0.2866841
-0.28159479
-0.27518732
-0.26797726
-0.26034071
-0.25219225
-0.24601265
-0.24617216
-0.25974425
-0.29637626
-0.35744345
-0.4068523
-0.36935614
-0.22658508
-0.087161004
-0.010173685
-0.2995893
-0.29959322
-0.29959797
-0.29960287
-0.29960822
-0.29961414
-0.29962067
-0.29962787
-0.2996358
-0.29964454
-0.29965416
-0.29966473
-0.29967632
-0.299689
-0.29970281
-0.2997178
-0.29973398
-0.29975133
-0.2997698
-0.2997893
-0.29980965
-0.29983065
-0.299852
-0.29987337
-0.29989438
-0.29991467
-0.29993401
-0.29995246
-0.29997069
-0.29999038
-0.30001485
-0.30004962
-0.30010274
-0.3001837
-0.30030035
-0.30045346
-0.3006311
-0.30080584
-0.30093664
-0.30097439
-0.3008679
-0.30056811
-0.30002792
-0.29920053
-0.29803698
-0.2964771
-0.2944353
-0.29180637
-0.28842827
-0.2841683
-0.27866486
-0.271987
-0.26432316
-0.25610037
-0.247433
-0.24129291
-0.24158909
-0.25525526
-0.29041415
-0.34494899
-0.38012738
-0.33712352
-0.20496224
-0.086276512
-0.013081966
-0.29923598
-0.29923919
-0.29924305
-0.29924706
-0.29925145
-0.29925629
-0.29926164
-0.29926755
-0.29927406
-0.29928125
-0.29928918
-0.29929791
-0.29930751
-0.29931803
-0.29932951
-0.29934199
-0.29935548
-0.29936996
-0.29938537
-0.29940159
-0.29941847
-0.29943578
-0.2994532
-0.29947036
-0.29948683
-0.29950215
-0.29951593
-0.299528
-0.29953864
-0.29954892
-0.29956127
-0.29957998
-0.29961142
-0.29966328
-0.29974187
-0.29984733
-0.29996848
-0.30007975
-0.30014231
-0.30010865
-0.29992793
-0.29955
-0.29892554
-0.29800474
-0.29673318
-0.2950446
-0.29284832
-0.29003055
-0.2864227
-0.28188407
-0.2759975
-0.26911877
-0.26100449
-0.25230891
-0.24321894
-0.23697897
-0.23660006
-0.24908863
-0.28290721
-0.32744263
-0.34958835
-0.30210937
-0.18624645
-0.086098166
-0.01706746
-0.29895103
-0.29895355
-0.29895655
-0.29895969
-0.29896313
-0.29896693
-0.29897112
-0.29897576
-0.29898088
-0.29898655
-0.29899282
-0.29899974
-0.29900738
-0.29901576
-0.29902495
-0.29903495
-0.29904577
-0.29905738
-0.29906973
-0.29908269
-0.2990961
-0.2991097
-0.29912318
-0.29913612
-0.29914803
-0.29915838
-0.29916664
-0.2991724
-0.29917556
-0.29917668
-0.29917733
-0.29918061
-0.29919133
-0.2992154
-0.29925753
-0.29931715
-0.29938362
-0.29943318
-0.29942939
-0.29932672
-0.29907527
-0.29862435
-0.29792303
-0.29691897
-0.29555295
-0.29375296
-0.29142343
-0.28844075
-0.28463429
-0.27982632
-0.27365922
-0.26643667
-0.25806003
-0.24866811
-0.2390782
-0.23154291
-0.23052355
-0.24251744
-0.27501355
-0.30722351
-0.31655927
-0.26735809
-0.1709371
-0.085838902
-0.021693965
-0.29872918
-0.29873103
-0.29873322
-0.29873555
-0.29873809
-0.29874089
-0.29874399
-0.29874743
-0.29875123
-0.29875546
-0.29876015
-0.29876536
-0.29877112
-0.29877747
-0.29878445
-0.29879207
-0.29880033
-0.29880919
-0.29881858
-0.29882838
-0.29883842
-0.29884843
-0.29885807
-0.29886689
-0.29887437
-0.29887988
-0.29888276
-0.2988824
-0.29887838
-0.29887072
-0.29886027
-0.298849
-0.29884027
-0.2988383
-0.29884623
-0.29886263
-0.29887725
-0.298868
-0.29880088
-0.29863267
-0.29831494
-0.29779708
-0.2970272
-0.29595076
-0.29450453
-0.29261089
-0.29016905
-0.28704483
-0.28306694
-0.27800769
-0.27168093
-0.26399034
-0.25515476
-0.2449761
-0.23419731
-0.22596703
-0.224772
-0.23755174
-0.26336407
-0.28428467
-0.28246265
-0.23923261
-0.15627052
-0.086847531
-0.026602962
-0.29856498
-0.29856625
-0.29856774
-0.29856931
-0.29857104
-0.29857294
-0.29857505
-0.29857739
-0.29857999
-0.2985829
-0.29858615
-0.29858978
-0.29859382
-0.29859831
-0.29860325
-0.29860867
-0.29861455
-0.29862085
-0.29862749
-0.29863434
-0.2986412
-0.29864782
-0.29865383
-0.29865875
-0.29866201
-0.2986629
-0.29866065
-0.29865444
-0.29864358
-0.29862763
-0.29860672
-0.29858186
-0.29855508
-0.29852906
-0.29850541
-0.29848186
-0.29844838
-0.29838431
-0.29825806
-0.29802888
-0.29765028
-0.29707231
-0.29624281
-0.29510523
-0.29359316
-0.29162305
-0.2890876
-0.28584208
-0.28169618
-0.27641459
-0.26979955
-0.2617538
-0.25229312
-0.24128369
-0.22986387
-0.22248013
-0.22169482
-0.23288177
-0.2522262
-0.26383007
-0.24891831
-0.2167397
-0.14391046
-0.087210972
-0.031436759
-0.29845211
-0.29845287
-0.29845375
-0.29845468
-0.2984557
-0.29845682
-0.29845807
-0.29845947
-0.29846104
-0.29846281
-0.2984648
-0.29846706
-0.2984696
-0.29847245
-0.29847561
-0.2984791
-0.29848288
-0.2984869
-0.29849109
-0.29849529
-0.29849932
-0.29850288
-0.2985056
-0.29850696
-0.29850635
-0.29850299
-0.29849598
-0.29848436
-0.29846713
-0.29844347
-0.2984129
-0.29837557
-0.29833232
-0.29828464
-0.29823257
-0.29817271
-0.2980954
-0.29798118
-0.2978008
-0.29751604
-0.29708264
-0.29645186
-0.29557187
-0.29438415
-0.29281988
-0.29078873
-0.28817486
-0.28482003
-0.28048859
-0.27496884
-0.26796638
-0.25958308
-0.24959351
-0.23828881
-0.22773129
-0.22052896
-0.21927452
-0.22741153
-0.23639126
-0.24298415
-0.22729132
-0.19653052
-0.13497213
-0.087651334
-0.036013406
-0.29838566
-0.29838601
-0.29838642
-0.29838684
-0.29838729
-0.29838779
-0.29838835
-0.29838898
-0.29838971
-0.29839056
-0.29839155
-0.29839269
-0.29839401
-0.29839552
-0.29839722
-0.2983991
-0.29840114
-0.29840327
-0.2984054
-0.29840737
-0.29840898
-0.29840991
-0.29840977
-0.29840802
-0.29840398
-0.29839681
-0.2983855
-0.29836891
-0.29834582
-0.29831502
-0.2982755
-0.29822665
-0.2981681
-0.29810059
-0.2980221
-0.29792984
-0.29781375
-0.29765491
-0.29742639
-0.29709223
-0.2966106
-0.29593432
-0.29501226
-0.29378415
-0.29217923
-0.29009806
-0.28741818
-0.28394356
-0.27943083
-0.27365619
-0.26631999
-0.25754679
-0.24755392
-0.23670128
-0.22609549
-0.21929626
-0.21648205
-0.22148493
-0.22551577
-0.2214552
-0.20747905
-0.17992849
-0.12717898
-0.087747825
-0.040234728
-0.29835915
-0.29835921
-0.29835928
-0.29835933
-0.29835939
-0.29835945
-0.29835953
-0.29835963
-0.29835977
-0.29835997
-0.29836023
-0.29836058
-0.29836102
-0.29836156
-0.29836219
-0.2983629
-0.29836364
-0.29836435
-0.29836491
-0.29836517
-0.29836489
-0.29836375
-0.29836131
-0.298357
-0.29835009
-0.29833964
-0.29832455
-0.29830351
-0.29827503
-0.29823759
-0.2981897
-0.29813011
-0.29805662
-0.29797414
-0.29787591
-0.29775252
-0.29760128
-0.29740257
-0.29713137
-0.29675368
-0.29622989
-0.29551432
-0.29455662
-0.29329508
-0.29165635
-0.28953218
-0.28678405
-0.28318489
-0.27846757
-0.27247992
-0.26489256
-0.25632058
-0.24627567
-0.23519127
-0.22446406
-0.21719494
-0.21383822
-0.21371687
-0.21313918
-0.20885036
-0.19218577
-0.16685092
-0.12100292
-0.087674395
-0.04396082
-0.29837004
-0.29836996
-0.29836986
-0.29836973
-0.29836959
-0.29836943
-0.29836926
-0.29836909
-0.29836892
-0.29836878
-0.29836866
-0.29836857
-0.29836853
-0.29836852
-0.29836855
-0.29836857
-0.29836854
-0.29836838
-0.29836796
-0.29836711
-0.29836558
-0.29836302
-0.29835895
-0.29835276
-0.29834365
-0.29833061
-0.29831241
-0.29828758
-0.29825443
-0.2982111
-0.29815573
-0.29808655
-0.29800088
-0.29789782
-0.29777514
-0.29762828
-0.29744919
-0.29721582
-0.29690831
-0.29649269
-0.29593164
-0.29518053
-0.29418979
-0.29289558
-0.29122578
-0.28905505
-0.28624284
-0.28248962
-0.27766284
-0.27152158
-0.26401155
-0.25508747
-0.24471126
-0.23304295
-0.22279231
-0.21517832
-0.20995695
-0.20681855
-0.20275329
-0.19529796
-0.17838153
-0.15556648
-0.11555196
-0.087334552
-0.047223553
-0.29841314
-0.29841307
-0.29841299
-0.29841288
-0.29841276
-0.29841263
-0.29841248
-0.29841234
-0.29841219
-0.29841206
-0.29841195
-0.29841186
-0.29841179
-0.29841173
-0.29841168
-0.29841158
-0.29841138
-0.29841099
-0.29841027
-0.29840901
-0.29840695
-0.29840369
-0.29839872
-0.29839137
-0.29838075
-0.29836576
-0.29834502
-0.29831689
-0.29827945
-0.29823056
-0.29816793
-0.29808916
-0.29799375
-0.29787437
-0.29773154
-0.29756189
-0.29735333
-0.29709057
-0.2967495
-0.29629935
-0.29570266
-0.29491533
-0.2938881
-0.29255727
-0.29084897
-0.28863955
-0.28573324
-0.28193327
-0.27708256
-0.27076812
-0.26284233
-0.25343569
-0.24239674
-0.23101661
-0.22063357
-0.21189165
-0.20557824
-0.19940796
-0.19331063
-0.18470025
-0.16741321
-0.14644261
-0.110999
-0.086784142
-0.049966401
-0.29848962
-0.29848975
-0.29848989
-0.29849003
-0.29849018
-0.29849034
-0.29849051
-0.29849071
-0.29849094
-0.29849121
-0.29849153
-0.29849189
-0.29849229
-0.29849272
-0.29849315
-0.29849355
-0.29849383
-0.29849389
-0.29849357
-0.29849265
-0.2984908
-0.29848761
-0.2984825
-0.29847472
-0.29846329
-0.29844698
-0.29842427
-0.29839332
-0.29835195
-0.29829773
-0.29822802
-0.29814005
-0.29803174
-0.29789739
-0.29773633
-0.29754566
-0.29731046
-0.29701835
-0.29664532
-0.29615969
-0.29552393
-0.29469325
-0.29361965
-0.29223993
-0.29050275
-0.28823642
-0.28531405
-0.2815393
-0.27644946
-0.26975749
-0.26120538
-0.25094394
-0.23951312
-0.22838672
-0.21713919
-0.20830412
-0.1996654
-0.19286751
-0.18487996
-0.17485378
-0.15757557
-0.13839941
-0.10689381
-0.086012472
-0.052230298
-0.29859869
-0.29859921
-0.29859981
-0.29860044
-0.29860113
-0.29860188
-0.2986027
-0.29860361
-0.2986046
-0.2986057
-0.29860691
-0.29860822
-0.29860963
-0.29861113
-0.29861268
-0.29861422
-0.29861568
-0.29861692
-0.29861776
-0.29861793
-0.29861708
-0.29861473
-0.29861021
-0.29860268
-0.29859106
-0.29857394
-0.29854963
-0.29851605
-0.29847078
-0.29841105
-0.29833386
-0.29823609
-0.29811467
-0.29796623
-0.29778653
-0.29757206
-0.29731146
-0.29698968
-0.2965824
-0.2960562
-0.29537326
-0.29448857
-0.29336027
-0.29194083
-0.29017552
-0.28791005
-0.28501277
-0.2810145
-0.27548782
-0.26803623
-0.25844883
-0.24744942
-0.23638169
-0.22435926
-0.21307294
-0.20322915
-0.19451733
-0.18631922
-0.17688956
-0.16624254
-0.14927338
-0.13158999
-0.10327124
-0.08504741
-0.054013826
-0.29874848
-0.29874958
-0.29875089
-0.29875227
-0.29875377
-0.29875543
-0.29875724
-0.29875922
-0.29876139
-0.29876375
-0.29876632
-0.29876909
-0.29877206
-0.2987752
-0.29877848
-0.29878183
-0.29878513
-0.29878824
-0.29879093
-0.29879291
-0.29879374
-0.29879286
-0.29878953
-0.29878278
-0.29877137
-0.29875373
-0.29872795
-0.29869171
-0.2986423
-0.29857663
-0.29849138
-0.29838302
-0.29824787
-0.29808252
-0.29788333
-0.29764429
-0.29735533
-0.29699931
-0.29655116
-0.29597459
-0.29523487
-0.29429492
-0.29311586
-0.29170402
-0.28995456
-0.28767915
-0.28455504
-0.2800413
-0.27369685
-0.26503843
-0.25459297
-0.24391172
-0.23181775
-0.2195384
-0.20846373
-0.19861354
-0.18893923
-0.17994765
-0.16964054
-0.15845846
-0.14183916
-0.12548955
-0.09991194
-0.083893995
-0.055356982
-0.29894759
-0.2989495
-0.29895175
-0.29895414
-0.29895674
-0.2989596
-0.29896274
-0.29896616
-0.29896989
-0.29897395
-0.29897833
-0.29898305
-0.29898809
-0.29899342
-0.298999
-0.29900472
-0.29901046
-0.29901604
-0.29902117
-0.29902549
-0.29902851
-0.29902955
-0.29902775
-0.299022
-0.29901086
-0.29899258
-0.29896498
-0.2989255
-0.29887111
-0.29879843
-0.29870376
-0.29858317
-0.29843253
-0.2982487
-0.29802741
-0.29776077
-0.2974385
-0.29704102
-0.2965436
-0.2959107
-0.29512411
-0.29414038
-0.29298296
-0.29158606
-0.28979286
-0.28726567
-0.28360932
-0.27821247
-0.27053381
-0.26083252
-0.25067073
-0.23893748
-0.22638506
-0.21483154
-0.20384032
-0.19347646
-0.18339887
-0.17375391
-0.16275232
-0.15134532
-0.1352503
-0.12007192
-0.096791989
-0.082569591
-0.056279793
-0.2992181
-0.29922098
-0.29922438
-0.29922799
-0.29923193
-0.29923626
-0.29924099
-0.29924615
-0.29925176
-0.29925784
-0.2992644
-0.29927143
-0.29927893
-0.29928684
-0.29929509
-0.29930358
-0.29931213
-0.2993205
-0.29932836
-0.29933526
-0.29934059
-0.29934357
-0.29934319
-0.29933814
-0.29932682
-0.29930724
-0.29927698
-0.29923323
-0.2991727
-0.29909175
-0.29898663
-0.29885486
-0.29868245
-0.29847119
-0.29822704
-0.2979286
-0.29756796
-0.29712474
-0.29658029
-0.2958988
-0.29508477
-0.29411303
-0.29297025
-0.29149069
-0.28945673
-0.28635449
-0.28179662
-0.27503369
-0.26603279
-0.25662648
-0.24542036
-0.23295581
-0.22131543
-0.20985956
-0.19875993
-0.1882571
-0.17777683
-0.16768228
-0.15630926
-0.14480991
-0.12924649
-0.11510065
-0.093803708
-0.08108005
-0.056816444
-0.29958618
-0.29959014
-0.29959481
-0.29959976
-0.29960516
-0.29961109
-0.29961756
-0.2996246
-0.29963224
-0.29964051
-0.29964939
-0.2996589
-0.29966899
-0.2996796
-0.29969064
-0.29970195
-0.29971331
-0.29972442
-0.29973486
-0.29974407
-0.29975133
-0.2997557
-0.29975599
-0.2997507
-0.299738
-0.29971564
-0.29968099
-0.29963095
-0.2995619
-0.29947016
-0.29935668
-0.29919483
-0.29899311
-0.2987747
-0.29850025
-0.29816371
-0.29776214
-0.29727126
-0.29668086
-0.29600024
-0.29517653
-0.29419385
-0.29296319
-0.29122894
-0.28861631
-0.2845284
-0.27881091
-0.27039509
-0.26156682
-0.25118234
-0.2389774
-0.22752875
-0.21603005
-0.20466084
-0.19355495
-0.18285742
-0.1721311
-0.16174262
-0.15014441
-0.13868983
-0.12371786
-0.11049874
-0.090908736
-0.079434989
-0.056992017
-0.30009575
-0.30010076
-0.30010666
-0.30011293
-0.30011975
-0.30012723
-0.30013537
-0.30014422
-0.3001538
-0.30016412
-0.30017518
-0.30018696
-0.3001994
-0.30021242
-0.30022586
-0.30023954
-0.30025315
-0.3002663
-0.30027847
-0.30028898
-0.30029694
-0.30030122
-0.30030043
-0.30029283
-0.30027634
-0.30024844
-0.30020621
-0.30014621
-0.30006439
-0.29996077
-0.29981717
-0.29963696
-0.29942987
-0.29917709
-0.2988661
-0.29849259
-0.29804118
-0.29752869
-0.29690758
-0.2962014
-0.29535501
-0.29427373
-0.2927601
-0.29042442
-0.28678757
-0.28140124
-0.27392579
-0.26573221
-0.25607651
-0.24440068
-0.23323324
-0.22195406
-0.21051807
-0.19923715
-0.1881057
-0.17733045
-0.16645101
-0.15589445
-0.14423863
-0.13292239
-0.11854122
-0.10615213
-0.088052527
-0.077639387
-0.056832924
-0.30079542
-0.30080128
-0.30080819
-0.30081551
-0.30082347
-0.30083216
-0.30084162
-0.30085187
-0.30086292
-0.30087478
-0.30088742
-0.30090081
-0.30091486
-0.30092943
-0.30094432
-0.30095927
-0.30097388
-0.30098767
-0.30099997
-0.30100993
-0.30101649
-0.30101832
-0.30101376
-0.30100083
-0.30097715
-0.30093995
-0.30088599
-0.30081093
-0.30070888
-0.30058603
-0.30044634
-0.30024934
-0.29998705
-0.29969175
-0.29934161
-0.29893364
-0.29846164
-0.29789317
-0.29724939
-0.29648227
-0.29551143
-0.29413779
-0.29201817
-0.28870369
-0.28380257
-0.27692548
-0.26907797
-0.26045657
-0.24909039
-0.23831434
-0.22747857
-0.21613948
-0.20482683
-0.1936183
-0.18250651
-0.17168788
-0.16073984
-0.15012065
-0.13850866
-0.12740226
-0.11362105
-0.10198896
-0.085198831
-0.075695081
-0.056363835
-0.30175423
-0.30176055
-0.30176798
-0.30177585
-0.30178437
-0.30179366
-0.30180373
-0.30181459
-0.30182625
-0.30183868
-0.30185185
-0.30186567
-0.30188001
-0.30189467
-0.30190939
-0.3019238
-0.30193742
-0.30194961
-0.30195954
-0.3019662
-0.30196828
-0.30196421
-0.30195207
-0.30192958
-0.30189401
-0.30184207
-0.3017696
-0.30167467
-0.30157543
-0.30143629
-0.30122341
-0.30097539
-0.3006969
-0.30036331
-0.29997694
-0.29951045
-0.29898018
-0.29836404
-0.29764406
-0.29673747
-0.29545596
-0.29347947
-0.29041447
-0.2858991
-0.27956691
-0.27217786
-0.26411898
-0.25381703
-0.24281139
-0.23244524
-0.22135885
-0.2101746
-0.19895092
-0.18781288
-0.1767377
-0.16593132
-0.15498732
-0.14439044
-0.13291361
-0.1220729
-0.10888309
-0.097944585
-0.082316803
-0.073606433
-0.055605252
-0.30303176
-0.30303806
-0.30304544
-0.30305322
-0.30306162
-0.30307073
-0.30308055
-0.30309107
-0.30310226
-0.30311408
-0.30312643
-0.30313918
-0.30315213
-0.30316502
-0.30317747
-0.303189
-0.30319897
-0.30320656
-0.30321076
-0.30321028
-0.30320355
-0.30318869
-0.3031634
-0.30312465
-0.30306862
-0.30300017
-0.30292811
-0.30282858
-0.3026498
-0.30243112
-0.30220437
-0.30192406
-0.30159108
-0.30119515
-0.30074169
-0.30022208
-0.29961137
-0.29890771
-0.29802907
-0.29679342
-0.29492103
-0.29203459
-0.28783429
-0.28196208
-0.27492766
-0.26738136
-0.2576014
-0.24712197
-0.23687843
-0.22614046
-0.21516397
-0.20405387
-0.19289619
-0.18183258
-0.17081895
-0.16006417
-0.149183
-0.13867818
-0.1274003
-0.1168659
-0.10425966
-0.093965797
-0.079379054
-0.071371682
-0.054574648
-0.30471028
-0.30471601
-0.30472271
-0.30472971
-0.30473722
-0.30474529
-0.30475388
-0.30476297
-0.30477249
-0.30478233
-0.30479234
-0.30480233
-0.30481199
-0.30482095
-0.30482871
-0.30483463
-0.30483788
-0.30483742
-0.30483196
-0.30481994
-0.30479943
-0.30476777
-0.30472188
-0.30466555
-0.30460022
-0.30450927
-0.30436807
-0.30418469
-0.30397636
-0.30373193
-0.30343584
-0.30308552
-0.30267628
-0.30220824
-0.30167512
-0.30106885
-0.30036162
-0.29947627
-0.29826292
-0.29643671
-0.29369071
-0.2897175
-0.28424688
-0.27749646
-0.27033551
-0.26115603
-0.25096487
-0.24108942
-0.23053595
-0.21979674
-0.20882552
-0.19775621
-0.18666306
-0.17567664
-0.16474426
-0.15407906
-0.14331128
-0.13295562
-0.12192923
-0.11173379
-0.0996994
-0.090009888
-0.076364554
-0.068992277
-0.053287239
-0.30688488
-0.30688957
-0.30689501
-0.30690062
-0.30690653
-0.30691276
-0.30691923
-0.30692586
-0.30693253
-0.30693906
-0.30694521
-0.30695068
-0.30695504
-0.30695779
-0.30695822
-0.3069555
-0.30694853
-0.30693599
-0.30691626
-0.30688729
-0.30684648
-0.30679193
-0.30672507
-0.30663655
-0.30651202
-0.30635156
-0.3061615
-0.30593774
-0.30566697
-0.30534513
-0.30496708
-0.30453137
-0.30403758
-0.3034796
-0.3028489
-0.30211779
-0.30121459
-0.29998607
-0.29819924
-0.29551224
-0.2917573
-0.28657069
-0.2800963
-0.27322324
-0.2645571
-0.25466328
-0.24494623
-0.23470746
-0.22411328
-0.21330348
-0.20231788
-0.1912803
-0.18024356
-0.16934032
-0.15850982
-0.14796683
-0.13735481
-0.12719575
-0.11646071
-0.10662892
-0.095155516
-0.086039488
-0.073254142
-0.066466131
-0.051755541
-0.30967421
-0.30967748
-0.30968119
-0.30968486
-0.30968856
-0.30969222
-0.30969572
-0.30969891
-0.30970156
-0.30970341
-0.3097041
-0.30970316
-0.30970001
-0.3096939
-0.30968391
-0.30966887
-0.30964738
-0.30961767
-0.30957763
-0.30952473
-0.30945664
-0.30936964
-0.30925854
-0.30911396
-0.30893683
-0.30872819
-0.30847642
-0.30817563
-0.30782039
-0.30740793
-0.30693788
-0.30640646
-0.30580967
-0.30513925
-0.3043662
-0.303419
-0.30215599
-0.30035014
-0.29773115
-0.29404051
-0.2892545
-0.28292397
-0.27630549
-0.26799703
-0.25831764
-0.24871719
-0.23868481
-0.22826859
-0.21754802
-0.20664718
-0.19562977
-0.18460687
-0.17362482
-0.16281297
-0.1521037
-0.14171305
-0.13129385
-0.12137139
-0.1109606
-0.10151306
-0.090590679
-0.082024148
-0.070032272
-0.063792605
-0.049989793
-0.31328081
-0.31328195
-0.31328306
-0.31328386
-0.31328428
-0.31328416
-0.31328332
-0.31328148
-0.31327832
-0.31327342
-0.31326627
-0.3132562
-0.31324239
-0.31322384
-0.31319928
-0.3131672
-0.31312574
-0.31307265
-0.31300528
-0.31292053
-0.31281473
-0.31268309
-0.3125215
-0.31232543
-0.31208914
-0.31180663
-0.31147211
-0.31108153
-0.31063264
-0.31012164
-0.30954538
-0.30890095
-0.308177
-0.30734229
-0.30632491
-0.30498865
-0.30312317
-0.30047007
-0.29680121
-0.29198601
-0.28591106
-0.27926577
-0.27137454
-0.26199207
-0.25245636
-0.24262896
-0.2323194
-0.22168119
-0.21080215
-0.19979417
-0.1887286
-0.17771386
-0.1667882
-0.15607847
-0.14551061
-0.13530056
-0.12510719
-0.11545608
-0.10539685
-0.096350749
-0.085971592
-0.077936922
-0.066685289
-0.060969277
-0.048000479
-0.31798533
-0.31798308
-0.31798009
-0.3179764
-0.31797172
-0.3179658
-0.31795832
-0.31794891
-0.31793707
-0.31792222
-0.31790363
-0.31788041
-0.31785144
-0.31781539
-0.31777064
-0.31771523
-0.31764682
-0.31756263
-0.3174594
-0.31733337
-0.31718022
-0.31699514
-0.31677283
-0.31650752
-0.31619356
-0.31582602
-0.31540054
-0.3149125
-0.31435808
-0.31373454
-0.31303614
-0.31224852
-0.31133699
-0.31022845
-0.30879213
-0.30683253
-0.30411264
-0.30042083
-0.2956305
-0.28964822
-0.28282281
-0.2752545
-0.26589454
-0.256478
-0.24672393
-0.23646433
-0.22582084
-0.21491799
-0.20384548
-0.19270941
-0.1815839
-0.17057366
-0.15970997
-0.14911606
-0.13871082
-0.12870898
-0.11877225
-0.10942373
-0.099740403
-0.091111427
-0.081270563
-0.073755246
-0.063202005
-0.05799558
-0.045795593
-0.32409073
-0.32408333
-0.32407414
-0.32406369
-0.32405142
-0.32403691
-0.32401971
-0.32399928
-0.32397495
-0.32394592
-0.3239112
-0.32386962
-0.32381975
-0.32375989
-0.32368799
-0.32360164
-0.32349798
-0.32337369
-0.32322493
-0.32304732
-0.32283594
-0.32258549
-0.32229056
-0.32194569
-0.3215453
-0.32108388
-0.32055664
-0.31995936
-0.31928682
-0.31853004
-0.31767009
-0.31666727
-0.31544562
-0.31387736
-0.31177956
-0.30893352
-0.30514418
-0.3002942
-0.29430201
-0.28741543
-0.27983892
-0.27077408
-0.26113902
-0.25139023
-0.24092239
-0.23015415
-0.21912294
-0.20791469
-0.19662184
-0.18534423
-0.17415388
-0.16315162
-0.15236079
-0.1419003
-0.13168123
-0.12191577
-0.11226558
-0.10324897
-0.093964347
-0.085767376
-0.076463091
-0.069458146
-0.059572231
-0.054865076
-0.043383673
-0.33196561
-0.3319509
-0.33193296
-0.33191301
-0.33189015
-0.33186371
-0.33183309
-0.33179757
-0.33175625
-0.33170808
-0.3316518
-0.33158589
-0.33150853
-0.33141765
-0.33131079
-0.33118507
-0.33103711
-0.33086308
-0.33065871
-0.33041922
-0.33013944
-0.32981383
-0.32943649
-0.32900154
-0.3285033
-0.32793608
-0.32729367
-0.32656787
-0.32574522
-0.32480084
-0.32368855
-0.32232784
-0.32059189
-0.31830627
-0.31526803
-0.31129274
-0.30627415
-0.30013074
-0.29303
-0.285308
-0.27619184
-0.26645546
-0.25641802
-0.24579145
-0.23480904
-0.22356184
-0.21212183
-0.20059301
-0.1890669
-0.17764344
-0.16639156
-0.1554075
-0.14470627
-0.13440149
-0.12439538
-0.11489611
-0.10556295
-0.096907049
-0.088043964
-0.080294097
-0.071528591
-0.065028073
-0.055788493
-0.051574536
-0.040782602
-0.34192672
-0.34190224
-0.34187263
-0.34184008
-0.34180323
-0.34176114
-0.34171303
-0.34165797
-0.34159481
-0.34152223
-0.34143872
-0.34134254
-0.34123141
-0.34110279
-0.34095387
-0.34078135
-0.34058141
-0.34034981
-0.34008194
-0.33977265
-0.33941635
-0.33900718
-0.33853896
-0.33800515
-0.33739858
-0.33671055
-0.335929
-0.33503488
-0.33399614
-0.33275879
-0.3312359
-0.32929907
-0.32677813
-0.32348179
-0.3192343
-0.3139341
-0.3075192
-0.30007955
-0.29203447
-0.28273412
-0.27267421
-0.26228717
-0.25133726
-0.24002941
-0.22842369
-0.2166298
-0.20474767
-0.19287769
-0.18111143
-0.16954586
-0.1582441
-0.14729648
-0.13670852
-0.12658727
-0.11682504
-0.10762433
-0.098640184
-0.090374297
-0.081956579
-0.074669627
-0.06644939
-0.060448976
-0.051845821
-0.048123092
-0.037971519
-0.35430353
-0.35426683
-0.35422266
-0.35417443
-0.35412021
-0.3540588
-0.3539893
-0.35391021
-0.35381972
-0.35371982
-0.35361834
-0.35349865
-0.35333577
-0.35314808
-0.35294937
-0.35272552
-0.35246837
-0.35217341
-0.35183591
-0.35145064
-0.35101134
-0.35051115
-0.34994228
-0.34929533
-0.34855813
-0.34771339
-0.34673489
-0.34558163
-0.34418983
-0.34246423
-0.34027194
-0.33744627
-0.33380136
-0.3291775
-0.32346593
-0.31663403
-0.30873576
-0.30022159
-0.29055346
-0.27999255
-0.26908772
-0.25768467
-0.24589595
-0.23381733
-0.22154893
-0.20919953
-0.19686902
-0.18466112
-0.17266565
-0.16097588
-0.14964821
-0.13876577
-0.12832371