/*--------------------------------*- C++ -*----------------------------------*\
  =========                 |
  \\      /  F ield         | OpenFOAM: The Open Source CFD Toolbox
   \\    /   O peration     | Website:  https://openfoam.org
    \\  /    A nd           | Version:  13
     \\/     M anipulation  |
\*---------------------------------------------------------------------------*/
FoamFile
{
    format      ascii;
    class       volVectorField;
    location    "19.098487";
    object      UMean;
}
// * * * * * * * * * * * * * * * * * * * * * * * * * * * * * * * * * * * * * //

dimensions      [0 1 -1 0 0 0 0];

internalField   nonuniform List<vector> 
17140
(
(-3.2145529e-06 0.0001288277 -2.228628e-22)
(-4.3858769e-05 0.00039590966 -1.7782014e-23)
(-0.00013226788 0.00068716307 1.1753246e-21)
(-0.00028702724 0.001003825 -1.292556e-21)
(-0.00052483003 0.0013471744 1.5117106e-22)
(-0.00086846684 0.0017182122 -4.9487554e-22)
(-0.0013458556 0.002117586 -8.3356901e-22)
(-0.0019905445 0.0025454616 4.0760516e-22)
(-0.0028426876 0.0030013729 1.3347746e-21)
(-0.0039499538 0.003484048 3.2773018e-21)
(-0.0053683863 0.0039912154 -4.8681055e-21)
(-0.0071631461 0.0045194002 4.3463662e-21)
(-0.0094090619 0.0050637215 6.6604414e-22)
(-0.012190844 0.0056177093 -3.7832823e-21)
(-0.015602813 0.0061731783 4.2126621e-22)
(-0.019747976 0.0067201867 -3.3524423e-21)
(-0.024736291 0.0072471429 1.2607742e-22)
(-0.030682008 0.0077411033 -2.745001e-23)
(-0.037700077 0.0081883178 -2.013329e-21)
(-0.045901813 0.0085750441 2.629247e-21)
(-0.055390218 0.0088886208 -1.271611e-21)
(-0.066255613 0.0091187105 2.4608653e-22)
(-0.078573372 0.0092585482 1.8107913e-21)
(-0.092406979 0.0093059993 -1.8088528e-21)
(-0.10780563 0.0092643537 -2.8874443e-21)
(-0.12480542 0.0091421343 2.3314938e-21)
(-0.14344542 0.0089505871 1.143592e-20)
(-0.16379176 0.0087027886 1.3368e-21)
(-0.18591433 0.0084145202 -1.1830212e-20)
(-0.2098711 0.0080972595 -2.7512656e-21)
(-0.23573153 0.0077555719 -9.8287069e-21)
(-0.26355921 0.0073891328 1.2961273e-20)
(-0.29340592 0.0069946418 -3.3609503e-21)
(-0.32530504 0.0065670177 -1.613839e-21)
(-0.35926202 0.0060999631 -1.5757629e-20)
(-0.39524236 0.0055865396 6.941219e-21)
(-0.43315703 0.0050196158 -1.0388966e-20)
(-0.47284447 0.0043922643 -7.0004679e-21)
(-0.51404837 0.0036975828 -3.1818277e-21)
(-0.55639398 0.0029307087 9.6363593e-21)
(-0.59936669 0.0020900259 1.8019921e-20)
(-0.64228954 0.0011766911 1.6204855e-20)
(-0.68430078 0.00019206979 7.0119907e-21)
(-0.72435186 -0.00086629434 -3.3483195e-20)
(-0.7611881 -0.0020018873 -2.41024e-20)
(-0.79341982 -0.0032088623 5.8403149e-21)
(-0.81971718 -0.0044896867 -3.9040327e-20)
(-0.83849234 -0.005838997 -1.3049325e-20)
(-0.84819364 -0.0072321238 1.311542e-20)
(-0.84761103 -0.0086247224 3.1745697e-20)
(-0.83573593 -0.0099643176 -1.9414087e-20)
(-0.81166826 -0.011219287 -1.2227863e-20)
(-0.7746718 -0.012422055 3.1857534e-20)
(-0.72414699 -0.013552758 1.5125389e-20)
(-0.65952423 -0.014512511 1.0892312e-20)
(-0.58068597 -0.015227937 -8.589005e-21)
(-0.48760532 -0.015584664 2.3781604e-20)
(-0.38066295 -0.01544809 2.016176e-20)
(-0.26060006 -0.014640828 5.1597182e-21)
(-0.12937587 -0.012997759 -1.3423281e-20)
(0.010659163 -0.010456851 -1.0715633e-20)
(0.15425059 -0.0072162615 -4.0254058e-20)
(0.29785933 -0.0036339776 -5.9706006e-21)
(0.43038171 -0.00029005403 5.0496142e-20)
(0.5545748 0.0015504882 -3.920465e-20)
(-3.430476e-05 0.00080007894 6.3212812e-23)
(-0.00013872268 0.0024601666 -6.1544989e-21)
(-0.00029596217 0.0042716435 5.4777223e-21)
(-0.00052448707 0.0062427983 -1.4941479e-21)
(-0.0008410349 0.0083812559 -3.0870155e-21)
(-0.0012682362 0.010693057 5.9008936e-21)
(-0.0018336939 0.013182092 -6.1557734e-21)
(-0.0025704555 0.015849348 5.4217504e-22)
(-0.0035179495 0.018692 -1.6941682e-21)
(-0.0047228528 0.021702372 -2.8297272e-23)
(-0.0062399131 0.024866786 -5.6713072e-21)
(-0.0081326612 0.028164338 9.0303141e-21)
(-0.010473938 0.031565691 7.4733621e-22)
(-0.013346106 0.035031993 -7.3959139e-21)
(-0.016840796 0.038514126 2.2795379e-21)
(-0.021058045 0.041952532 1.4520079e-21)
(-0.026104656 0.045277923 -9.2360321e-21)
(-0.032091682 0.048413253 3.0208168e-20)
(-0.039131033 0.051277296 -1.8987634e-20)
(-0.047331364 0.053790048 2.28249e-20)
(-0.056793639 0.055879944 -3.3852307e-20)
(-0.06760699 0.057492376 8.3312651e-21)
(-0.079846475 0.058598388 3.448378e-21)
(-0.093575961 0.059201733 -1.1275632e-20)
(-0.10884687 0.059342314 4.0698639e-20)
(-0.12569693 0.059091245 6.0479632e-21)
(-0.14416581 0.058530204 -3.1607669e-20)
(-0.16432142 0.057736137 3.5432709e-20)
(-0.18623397 0.056771223 -4.9383256e-21)
(-0.20996048 0.055681571 -4.7788273e-20)
(-0.23556877 0.054492932 4.9983982e-21)
(-0.26312048 0.053214496 3.7922332e-20)
(-0.29266454 0.051844084 8.9318743e-22)
(-0.32423058 0.050370889 -2.8262832e-20)
(-0.3578195 0.048776546 3.1564785e-20)
(-0.39339128 0.047035647 -1.416908e-20)
(-0.4308503 0.045115986 1.678072e-20)
(-0.47002688 0.042978925 5.3021099e-20)
(-0.51065507 0.040580148 1.1766396e-20)
(-0.55234903 0.037873813 4.589113e-20)
(-0.59458051 0.034816359 -5.8640528e-20)
(-0.63665509 0.031367701 -5.3313487e-20)
(-0.67768744 0.027490069 -8.9101365e-21)
(-0.71659099 0.023151386 7.1693874e-20)
(-0.75206433 0.018344161 -3.3166011e-20)
(-0.78269241 0.013108684 -1.1292684e-20)
(-0.80698919 0.0074814947 6.0926273e-21)
(-0.82342019 0.0014930055 1.8516757e-20)
(-0.83048988 -0.0047120986 -8.9639943e-21)
(-0.82689094 -0.010963904 1.6026096e-20)
(-0.81159325 -0.017145731 9.6043193e-20)
(-0.7837779 -0.023177647 4.5959822e-21)
(-0.74277896 -0.029019326 -2.0716471e-20)
(-0.68807316 -0.034627346 4.6312087e-20)
(-0.61929542 -0.039891154 -3.9906567e-20)
(-0.53633837 -0.044690666 1.1469463e-19)
(-0.43930619 -0.048870925 3.312261e-20)
(-0.32879136 -0.052183268 -9.5313265e-20)
(-0.20566667 -0.054299683 1.6325164e-20)
(-0.072065744 -0.054799034 1.9109445e-20)
(0.069618241 -0.053260554 3.9106776e-21)
(0.21382551 -0.049610634 -5.2452904e-20)
(0.35731767 -0.04373587 1.0363139e-19)
(0.48942855 -0.036829763 3.1176205e-20)
(0.6129025 -0.029569813 5.2170358e-20)
(-0.00010210519 0.0014575903 3.4811703e-21)
(-0.00034545638 0.004482761 -1.8521387e-21)
(-0.00065243637 0.0077847008 -4.9261065e-22)
(-0.0010411834 0.011378954 4.6741232e-22)
(-0.0015284609 0.015279687 -2.2651404e-21)
(-0.0021364577 0.019498289 -1.6808902e-22)
(-0.0028919797 0.024042327 -2.1540878e-21)
(-0.003826856 0.028914186 -2.3224084e-21)
(-0.0049787868 0.034109428 1.9011339e-20)
(-0.0063921211 0.039614907 -1.6996857e-20)
(-0.0081185994 0.045406669 8.1475592e-21)
(-0.010217996 0.051447708 1.1958547e-20)
(-0.012758605 0.057685727 -2.3774373e-20)
(-0.015817444 0.064051109 -2.9485401e-21)
(-0.019480057 0.070455448 1.1432301e-20)
(-0.023839784 0.076791097 7.8861879e-21)
(-0.028996342 0.082932303 -9.1837428e-21)
(-0.035053642 0.088738615 3.3388119e-20)
(-0.04211682 0.094061227 -1.9839698e-20)
(-0.050288634 0.098752744 9.8506371e-21)
(-0.059665556 0.10268038 -3.341267e-20)
(-0.070334101 0.10574177 -8.7334412e-21)
(-0.08236866 0.10788135 1.8319466e-20)
(-0.095833918 0.109104 -2.7672514e-20)
(-0.11078599 0.10948174 -1.0898571e-20)
(-0.12726566 0.10914573 1.3239793e-20)
(-0.14531506 0.10824997 7.5139808e-20)
(-0.16500455 0.10693716 3.3969107e-20)
(-0.18640389 0.10531644 -1.715913e-20)
(-0.20956962 0.10347057 1.8148985e-20)
(-0.23456481 0.10144843 -1.1591657e-20)
(-0.26144656 0.099269492 -6.4917771e-20)
(-0.29025708 0.096932874 2.1775388e-20)
(-0.32101735 0.094421919 6.4938166e-20)
(-0.35371735 0.091706181 -2.1950676e-20)
(-0.38830381 0.088741581 -3.0518411e-20)
(-0.42466502 0.085470222 5.2836648e-20)
(-0.46261144 0.081821158 1.5988383e-20)
(-0.50185335 0.077712215 -2.8730463e-20)
(-0.54197688 0.073055428 -1.1561426e-20)
(-0.58241925 0.067763169 5.4976495e-20)
(-0.6224419 0.06175038 -1.5755857e-20)
(-0.66110339 0.054934993 -2.2510004e-20)
(-0.69724333 0.047251324 -5.9253507e-20)
(-0.72948611 0.038687021 1.1207282e-19)
(-0.75635244 0.029317422 -7.1719431e-20)
(-0.77627978 0.019249389 -1.7702446e-20)
(-0.7877011 0.0085771294 -7.0325439e-20)
(-0.78917171 -0.0024684059 -8.3853047e-20)
(-0.77949965 -0.01358063 -4.2214059e-21)
(-0.75779394 -0.024518441 1.774717e-20)
(-0.72340503 -0.035157858 -1.3186831e-19)
(-0.6758217 -0.045460667 -5.6578871e-20)
(-0.61466965 -0.055362465 -5.8686911e-20)
(-0.53974576 -0.064722029 -1.9409751e-20)
(-0.45114377 -0.07336395 -1.5319272e-19)
(-0.34922612 -0.081069496 6.1468004e-20)
(-0.23480933 -0.087507328 -1.9190812e-20)
(-0.10895886 -0.092199838 -1.599085e-19)
(0.025927548 -0.094482854 -6.4648188e-20)
(0.16733272 -0.093582724 7.8562019e-20)
(0.30945108 -0.089233446 2.7472168e-19)
(0.4492434 -0.080902044 -8.9100906e-20)
(0.5763252 -0.070299921 -1.444146e-19)
(0.69257623 -0.057277942 -6.2116261e-20)
(-0.0002044545 0.0020784715 -1.1600339e-20)
(-0.0006574859 0.0063939063 1.3262556e-20)
(-0.0011904712 0.011106112 -4.7968325e-21)
(-0.0018209921 0.016238027 5.2178752e-22)
(-0.002565867 0.021810619 -1.0316447e-20)
(-0.0034466077 0.027841111 1.0682373e-20)
(-0.0044888054 0.034341495 -1.6213915e-20)
(-0.0057224373 0.041316612 7.6393622e-21)
(-0.0071825781 0.048761833 2.9070559e-20)
(-0.0089100414 0.056660375 -7.0038439e-21)
(-0.010951997 0.064980297 -2.6714356e-20)
(-0.013362507 0.073671242 8.177126e-21)
(-0.016202936 0.082661145 5.5038509e-22)
(-0.019542141 0.091853172 -2.1521012e-20)
(-0.023456349 0.10112339 6.7606089e-20)
(-0.028028604 0.11031976 -4.1699925e-20)
(-0.033347678 0.11926338 -3.9895342e-22)
(-0.03950637 0.1277528 2.33219e-20)
(-0.046599189 0.13557267 -5.9610267e-20)
(-0.054719506 0.14250731 2.8343586e-20)
(-0.063956468 0.14835943 4.2589671e-20)
(-0.07439208 0.15297316 1.7354725e-20)
(-0.086099271 0.15625841 -8.6690837e-20)
(-0.099143659 0.15821197 -4.5624669e-20)
(-0.11358741 0.15892877 2.9837398e-20)
(-0.1294767 0.15859382 -1.7442441e-20)
(-0.14685877 0.15743532 6.6077394e-20)
(-0.16580544 0.15566344 -1.9069347e-20)
(-0.18638635 0.15343646 5.1773639e-20)
(-0.20865888 0.15087663 -2.9485597e-20)
(-0.23267797 0.1480587 1.822039e-20)
(-0.25849401 0.14501392 -6.7427973e-20)
(-0.28613892 0.14174314 9.7853719e-21)
(-0.31562072 0.13822381 -5.1413926e-20)
(-0.34691309 0.1344129 4.952565e-20)
(-0.37994274 0.13024735 1.5656699e-20)
(-0.41457369 0.12564339 -1.9909455e-19)
(-0.45058735 0.12049697 -5.1859751e-20)
(-0.48765923 0.11468715 4.3257513e-20)
(-0.52533454 0.10808279 -4.252427e-20)
(-0.56300164 0.10054972 1.0778131e-20)
(-0.59986244 0.091954343 6.8321638e-20)
(-0.63490399 0.082168146 -3.2277174e-21)
(-0.66688133 0.071094312 -2.2442218e-20)
(-0.69436188 0.058728026 1.1132319e-20)
(-0.71585816 0.045188642 -4.9383136e-21)
(-0.72977204 0.03064213 -1.5242843e-20)
(-0.73458135 0.01529143 2.386487e-19)
(-0.72898422 -0.00048568364 -2.6442813e-20)
(-0.71199534 -0.016262553 2.4444839e-20)
(-0.68292332 -0.03170662 -2.2953054e-19)
(-0.64130255 -0.046654283 1.2629156e-19)
(-0.5867816 -0.061063078 1.0400398e-19)
(-0.51914882 -0.074865184 1.0014725e-19)
(-0.43840153 -0.087894536 9.7489891e-20)
(-0.34491893 -0.09993671 1.5517679e-19)
(-0.23932519 -0.11073922 -3.1395404e-19)
(-0.12271113 -0.11990102 1.9632747e-19)
(0.0036796366 -0.12679452 3.0370404e-19)
(0.13710416 -0.1305407 -2.2617574e-19)
(0.274878 -0.13000648 -7.3802395e-20)
(0.41086121 -0.12478362 -6.6076586e-20)
(0.54232106 -0.11396123 3.3652337e-19)
(0.65920192 -0.099537889 2.4935561e-19)
(0.76194169 -0.080984276 -1.0939131e-20)
(-0.00033660415 0.0026398766 8.1142476e-21)
(-0.0010604833 0.0081237913 -1.9306846e-20)
(-0.0018854844 0.014115354 1.5746015e-20)
(-0.0028285208 0.020645009 -5.9533517e-21)
(-0.0039065171 0.0277408 -2.1517601e-21)
(-0.0051401609 0.035426403 1.8531636e-20)
(-0.0065535308 0.043719232 -4.7002548e-21)
(-0.0081742761 0.052628055 -9.9896321e-21)
(-0.010034151 0.062150074 -7.6832125e-22)
(-0.012169473 0.07226754 -6.5345839e-21)
(-0.014621573 0.082943896 9.1704343e-21)
(-0.01743718 0.094119565 -6.3936382e-21)
(-0.02066872 0.10570758 -2.3633874e-20)
(-0.024374465 0.1175894 -6.8710728e-22)
(-0.028618471 0.12961153 1.8238575e-20)
(-0.033470222 0.14158362 1.2991269e-20)
(-0.039003936 0.15327923 -1.1248977e-20)
(-0.045297454 0.16444051 1.095973e-21)
(-0.052430729 0.1747882 2.2300341e-20)
(-0.060483975 0.18403817 2.7395871e-20)
(-0.069535681 0.19192496 -3.157096e-20)
(-0.079660743 0.19823154 -3.2085842e-20)
(-0.090929122 0.20282199 4.3614631e-20)
(-0.10340695 0.20567113 -5.4458773e-20)
(-0.11716206 0.20688232 -9.5086686e-20)
(-0.13224999 0.20668346 2.2614761e-19)
(-0.14872529 0.20537712 -1.253674e-19)
(-0.16665812 0.20324186 1.8649297e-19)
(-0.18612163 0.20049081 -2.3412107e-19)
(-0.20717544 0.19728867 2.6204792e-19)
(-0.22986347 0.19373966 -2.7155668e-19)
(-0.25422741 0.1898894 4.5965999e-20)
(-0.28028602 0.18574162 1.5824122e-19)
(-0.30803083 0.18126798 -8.9394261e-20)
(-0.33741523 0.1764127 2.8037477e-20)
(-0.36834136 0.17109325 8.3241305e-21)
(-0.40064328 0.16519947 1.0084319e-19)
(-0.43406702 0.15859379 3.2653186e-20)
(-0.46824759 0.15111591 3.2626536e-20)
(-0.50268353 0.14259024 3.2707545e-20)
(-0.53670865 0.13283387 -1.6646548e-19)
(-0.56946243 0.12166185 7.2847359e-20)
(-0.59986265 0.1088995 1.1114339e-20)
(-0.62660067 0.094429511 -1.318498e-19)
(-0.6482424 0.078275709 -6.5988667e-20)
(-0.66333105 0.060619046 3.2523961e-20)
(-0.67035001 0.041682141 1.1583349e-19)
(-0.66791514 0.02180136 -5.049852e-20)
(-0.65490005 0.001493643 1.4490622e-19)
(-0.6304705 -0.018682361 7.8350434e-20)
(-0.59409739 -0.038314401 1.0826911e-19)
(-0.54546906 -0.057226847 2.8945169e-19)
(-0.48435675 -0.075392975 -2.251971e-19)
(-0.41070451 -0.092733023 7.3000401e-20)
(-0.32474403 -0.1090351 -1.2852762e-19)
(-0.2271836 -0.12403365 -1.2333096e-19)
(-0.11899865 -0.13745682 -4.8543351e-20)
(-0.0016666056 -0.14889319 -4.5515996e-19)
(0.12341499 -0.15756515 -1.250607e-19)
(0.25306127 -0.16238816 2.9100103e-19)
(0.38444139 -0.16186308 1.1151731e-19)
(0.51107541 -0.1555584 -8.5729577e-20)
(0.63054133 -0.1422684 -1.7925811e-19)
(0.73331071 -0.12395233 -2.7956412e-19)
(0.81884606 -0.1002478 2.1596767e-20)
(-0.00049123359 0.0031198596 2.4525062e-20)
(-0.0015322721 0.0096052584 6.1825024e-21)
(-0.002699396 0.01669631 -5.0106189e-21)
(-0.0040088478 0.024430982 -1.8505911e-20)
(-0.0054777492 0.03284463 1.0145108e-20)
(-0.0071259293 0.041968045 -1.4615375e-20)
(-0.008975818 0.051825219 6.3307772e-21)
(-0.011052479 0.062430604 1.5096778e-21)
(-0.013383933 0.073785728 -8.560737e-21)
(-0.016001397 0.085875216 -1.8488744e-20)
(-0.018939525 0.098662205 -9.2719882e-22)
(-0.022236594 0.11208324 3.058013e-20)
(-0.02593465 0.12604286 -4.2471401e-20)
(-0.03007956 0.14040822 6.8930431e-20)
(-0.034720973 0.1550044 -1.8122592e-20)
(-0.039912147 0.16961128 3.8763066e-20)
(-0.045709623 0.18396319 -4.7268086e-20)
(-0.052172755 0.19775303 3.0987125e-20)
(-0.059363103 0.21064255 -4.954487e-21)
(-0.067343739 0.22228061 -2.0319825e-20)
(-0.0761786 0.2323304 4.9993775e-20)
(-0.085931994 0.24050511 -7.1510315e-20)
(-0.096668387 0.24660891 7.8804447e-20)
(-0.10845323 0.25057632 1.3643945e-20)
(-0.12135705 0.25249943 -1.3635542e-19)
(-0.13545077 0.25263039 1.394282e-19)
(-0.15079557 0.2513354 -9.1713519e-20)
(-0.16745731 0.24897193 1.0374429e-19)
(-0.18552098 0.24581825 9.7168201e-21)
(-0.20504648 0.24207933 6.0476713e-21)
(-0.2260666 0.2378936 -4.2127121e-20)
(-0.24861205 0.23332627 2.6647363e-21)
(-0.27268674 0.22838618 -1.5972124e-19)
(-0.29826351 0.22304012 4.3582814e-20)
(-0.32527285 0.21721963 1.3000303e-19)
(-0.3535892 0.2108223 -6.0940264e-20)
(-0.38301404 0.20371128 5.0340564e-20)
(-0.41325612 0.19571593 -5.0366387e-20)
(-0.44390839 0.1866365 -2.8113592e-19)
(-0.47442241 0.17625214 1.5546326e-19)
(-0.50408003 0.16432973 3.7851373e-20)
(-0.53196583 0.15063311 -2.1391419e-19)
(-0.55694695 0.13494711 1.2849011e-20)
(-0.57769628 0.11715085 2.6231309e-20)
(-0.59285334 0.097318223 2.7742059e-19)
(-0.60104128 0.075697665 6.3617109e-20)
(-0.6009227 0.052573191 -9.8829611e-20)
(-0.59127725 0.028404885 -1.0009682e-19)
(-0.57107998 0.003827451 -1.4091833e-19)
(-0.53954069 -0.020475077 -1.7255666e-19)
(-0.49623566 -0.04399701 -1.0488096e-19)
(-0.44099762 -0.066547915 -1.6406419e-19)
(-0.3737416 -0.088117675 5.6501832e-20)
(-0.29459549 -0.10860305 -3.4978557e-19)
(-0.2040706 -0.12773092 -2.3524237e-20)
(-0.10325474 -0.14518776 -2.0650009e-20)
(0.0064892795 -0.16069759 -1.116277e-20)
(0.12329889 -0.17388592 4.9004568e-19)
(0.24552574 -0.18384062 1.9542708e-19)
(0.36952799 -0.18930866 -3.0620505e-19)
(0.49231827 -0.18845241 -4.4856445e-19)
(0.60730207 -0.18081286 -2.043434e-19)
(0.7121085 -0.16506726 -6.7580663e-20)
(0.7981269 -0.14293365 3.9662078e-19)
(0.86459877 -0.11472947 -1.0020575e-19)
(-0.00065853484 0.0034988499 -4.5900875e-21)
(-0.0020435943 0.010778092 -1.0382871e-20)
(-0.003581655 0.018744612 2.5073535e-20)
(-0.0052890119 0.027443629 -9.3398947e-22)
(-0.0071828811 0.036917969 -1.2227404e-20)
(-0.0092823457 0.047206121 -5.3943456e-21)
(-0.011608243 0.058339813 -3.9880981e-21)
(-0.014183055 0.070341056 7.8724834e-21)
(-0.017030992 0.083218437 -4.083595e-20)
(-0.020178001 0.096962728 3.0897983e-20)
(-0.023651756 0.11154171 -1.4969366e-21)
(-0.027481607 0.12689434 -1.8827283e-20)
(-0.031698507 0.1429243 7.0770856e-20)
(-0.03633492 0.15949349 -7.0933227e-20)
(-0.04142472 0.17641579 9.5212077e-21)
(-0.047003112 0.19345231 5.9328604e-20)
(-0.05310662 0.21030929 -5.6312809e-20)
(-0.059773189 0.22664061 1.9908468e-20)
(-0.067042479 0.24205706 -3.9105001e-20)
(-0.074956395 0.25614468 5.083903e-20)
(-0.083559957 0.26849395 9.6762614e-20)
(-0.092902451 0.27874004 -9.7170059e-20)
(-0.10303881 0.28661146 -1.4425614e-19)
(-0.11403099 0.29198014 2.8202188e-19)
(-0.12595037 0.29490072 -2.2888706e-19)
(-0.13887998 0.29562256 1.3421058e-19)
(-0.15289294 0.29455396 -3.4974597e-20)
(-0.16805799 0.29214648 8.3081019e-20)
(-0.18446359 0.28875432 -8.5794969e-20)
(-0.20217414 0.28462125 -1.1585156e-19)
(-0.2212179 0.27992541 7.7509069e-20)
(-0.24160908 0.27475929 1.2828895e-19)
(-0.26333699 0.26914096 -1.1445189e-20)
(-0.28635426 0.26303434 -4.7975538e-21)
(-0.31056682 0.25635867 -8.3250799e-20)
(-0.33582056 0.24899211 3.6078403e-20)
(-0.3618843 0.24077171 1.3232528e-19)
(-0.38843003 0.23149415 6.6377385e-20)
(-0.41501067 0.22092052 -1.0189455e-19)
(-0.44103485 0.20878477 8.0726024e-20)
(-0.46574015 0.19480403 -6.8103722e-20)
(-0.48817203 0.17869436 2.3085741e-20)
(-0.50717724 0.16021308 8.6250057e-20)
(-0.52146963 0.13925974 -2.0515683e-19)
(-0.52982415 0.11597251 -1.2131468e-19)
(-0.53102146 0.090658164 -7.8076648e-20)
(-0.52392286 0.063658316 2.4273505e-19)
(-0.50741307 0.035493299 1.5603718e-19)
(-0.48041828 0.0068877008 1.8159088e-19)
(-0.44213235 -0.021316867 3.1482243e-19)
(-0.39226642 -0.048474118 -1.0826385e-19)
(-0.33082187 -0.074366354 2.2755415e-20)
(-0.25788462 -0.099009176 1.8187716e-19)
(-0.17382413 -0.1222702 5.3768477e-19)
(-0.079498552 -0.14379654 3.5849143e-19)
(0.023579156 -0.16323177 1.4321389e-19)
(0.13373023 -0.18031138 4.2484863e-19)
(0.2487615 -0.1947329 -2.92932e-19)
(0.36672628 -0.20545915 3.0689321e-20)
(0.48354584 -0.21109074 4.9376568e-19)
(0.59601396 -0.20955478 3.4163486e-19)
(0.69775692 -0.20034476 1.6237303e-20)
(0.78627915 -0.18217484 -5.621206e-19)
(0.85389523 -0.15651854 5.9371726e-20)
(0.90067893 -0.12460527 -8.5691419e-20)
(-0.00082697921 0.0037608002 -1.7946797e-20)
(-0.0025590199 0.011592747 8.5825432e-21)
(-0.0044714286 0.020173925 -1.1599991e-20)
(-0.0065809479 0.029556343 -6.597253e-21)
(-0.0089049725 0.03979021 1.8427327e-20)
(-0.011462051 0.05092209 1.7220406e-20)
(-0.014271661 0.062992436 -1.7695914e-20)
(-0.017353968 0.076032565 2.1318858e-21)
(-0.020729661 0.090060835 4.9491157e-22)
(-0.024419719 0.10507802 3.5274386e-20)
(-0.028445128 0.12106178 -3.8848983e-21)
(-0.03282656 0.13796022 -7.1652855e-20)
(-0.037584033 0.15568471 5.7567228e-20)
(-0.042736585 0.17410209 -1.9978229e-21)
(-0.048302022 0.19302699 -3.908648e-20)
(-0.054296801 0.21221506 -3.394427e-21)
(-0.060736178 0.23135848 8.7149899e-21)
(-0.067634732 0.25008587 3.9714285e-20)
(-0.075007408 0.26796899 -7.3649018e-20)
(-0.082871224 0.28453928 1.3124286e-19)
(-0.091247669 0.29931674 -2.8742664e-20)
(-0.10016574 0.31185265 2.1401851e-20)
(-0.10966529 0.32178446 -1.7923341e-20)
(-0.11980009 0.32889645 7.1897863e-22)
(-0.13063981 0.33317357 -1.0910425e-19)
(-0.14227106 0.33482889 -1.1020654e-19)
(-0.15478872 0.33428209 2.2068249e-19)
(-0.16827044 0.33206348 3.7052271e-20)
(-0.18279239 0.32863584 -1.3040711e-19)
(-0.19843513 0.32429777 -4.6672524e-20)
(-0.21523057 0.31925676 -1.0588313e-19)
(-0.2331734 0.31364239 1.2031946e-19)
(-0.25223699 0.30749098 5.2801398e-20)
(-0.27235269 0.30076626 -1.2324284e-19)
(-0.29340231 0.29337727 5.2045539e-20)
(-0.31520374 0.28518425 2.4336943e-20)
(-0.33749425 0.2759992 -7.3150351e-20)
(-0.35991133 0.2655872 -1.9125398e-19)
(-0.38197154 0.2536714 -5.7987125e-20)
(-0.40304602 0.23994165 3.8862418e-20)
(-0.42233836 0.22406842 9.2062659e-20)
(-0.43887356 0.20572833 9.4725756e-20)
(-0.45151096 0.1846685 1.0427433e-19)
(-0.45906519 0.16083371 2.17386e-19)
(-0.46047443 0.13444284 -5.9404221e-21)
(-0.4547229 0.10583336 9.0407817e-20)
(-0.44080807 0.075358584 -4.8416191e-19)
(-0.41759032 0.043525098 -1.3299489e-19)
(-0.38388165 0.011145104 -1.5085591e-19)
(-0.3390037 -0.020719729 -4.1583122e-19)
(-0.28289683 -0.051245746 4.8474277e-19)
(-0.21573548 -0.080196289 -1.0831303e-19)
(-0.13777693 -0.10759619 -3.4992532e-19)
(-0.049654013 -0.13326533 -4.3397816e-19)
(0.047403585 -0.15676867 -5.5926563e-20)
(0.15149899 -0.17773838 1.4245579e-19)
(0.26068246 -0.19594506 2.3322478e-19)
(0.37248605 -0.21116814 -1.0002447e-19)
(0.48476718 -0.22223521 1.8306263e-19)
(0.59308019 -0.22764418 -1.5537213e-19)
(0.69394688 -0.22516275 -5.3077567e-20)
(0.78130387 -0.21416879 -1.587688e-19)
(0.85254794 -0.19349936 7.0101867e-19)
(0.90062047 -0.16461803 2.2687098e-20)
(0.92822309 -0.13001966 2.8195064e-19)
(-0.00098374032 0.0038944903 1.6689524e-20)
(-0.0030391743 0.012014326 3.1562441e-21)
(-0.0053009496 0.020922933 -3.4702252e-21)
(-0.0077863887 0.030678375 -1.7066558e-20)
(-0.010513265 0.041337811 2.04839e-20)
(-0.013499877 0.052955899 -1.7411263e-20)
(-0.016764728 0.065582421 -8.330341e-21)
(-0.020326161 0.079259374 4.4759916e-22)
(-0.024201971 0.094017221 7.0569221e-21)
(-0.028408926 0.10987028 4.0219433e-20)
(-0.032962213 0.12681108 -6.7714667e-20)
(-0.037874825 0.14480361 8.1630374e-20)
(-0.043156908 0.16377557 -2.4070549e-20)
(-0.048815139 0.1836096 -3.2823713e-20)
(-0.054852191 0.20413414 5.0639389e-20)
(-0.061266436 0.22511447 -1.0051569e-19)
(-0.068052017 0.24624544 1.2281878e-19)
(-0.075199554 0.26714783 1.9448772e-21)
(-0.082697651 0.28737096 7.1844348e-20)
(-0.090535526 0.30640531 -2.8873846e-19)
(-0.098706798 0.32370836 7.0877698e-20)
(-0.10721447 0.33874675 2.973805e-19)
(-0.11607655 0.35105476 -1.427319e-19)
(-0.12533151 0.36030431 -1.7276806e-19)
(-0.13504197 0.36637451 4.4114967e-20)
(-0.14529473 0.36939992 2.3366449e-19)
(-0.15619484 0.36976986 -3.5860837e-19)
(-0.1678455 0.36805102 4.0193294e-19)
(-0.18031988 0.36482475 -3.1943499e-19)
(-0.19368909 0.36050942 6.1662889e-20)
(-0.20800354 0.35534002 -1.0628875e-19)
(-0.22325024 0.34946495 -1.5208015e-19)
(-0.23938398 0.34295225 6.0496319e-20)
(-0.25631559 0.33577933 1.5819973e-20)
(-0.27390147 0.32784916 2.2515311e-19)
(-0.29193204 0.31900549 -4.4111453e-20)
(-0.31011457 0.30903657 1.1295898e-19)
(-0.32805458 0.2976774 -9.566043e-20)
(-0.34523506 0.28461487 5.7124583e-20)
(-0.36099435 0.26949748 3.7028596e-20)
(-0.37451072 0.25195534 3.1652727e-20)
(-0.38480475 0.23163822 3.1382195e-20)
(-0.3907772 0.20830452 -1.9046022e-19)
(-0.39138332 0.18196898 -1.4878658e-19)
(-0.3857066 0.15293149 4.1748418e-20)
(-0.37290529 0.12152315 -2.614134e-20)
(-0.35200863 0.08804049 1.0865864e-19)
(-0.32177636 0.052933104 -2.1337216e-19)
(-0.28112124 0.017141414 -2.4644142e-19)
(-0.22973715 -0.018025478 -7.1129173e-20)
(-0.16783382 -0.051598184 -1.8707288e-19)
(-0.095690068 -0.083304406 6.0100899e-21)
(-0.013680903 -0.11317237 9.1144094e-20)
(0.077294454 -0.14095372 4.4532189e-19)
(0.17566329 -0.16612216 -2.2473915e-19)
(0.27922983 -0.18830629 9.1699858e-20)
(0.38581765 -0.20733385 -2.7249098e-19)
(0.49289581 -0.22306241 4.6383374e-19)
(0.59816102 -0.23416934 -2.698204e-19)
(0.69675878 -0.23891764 9.4134624e-20)
(0.78507768 -0.2351351 -1.3615943e-22)
(0.85723703 -0.22221034 7.6093547e-20)
(0.91027322 -0.19912009 2.8376869e-19)
(0.93808237 -0.16784624 -5.3928011e-19)
(0.94829856 -0.13190402 5.5088752e-19)
(-0.0011155932 0.0038948396 -3.6931786e-20)
(-0.0034435892 0.012026505 -1.7866839e-20)
(-0.0060003214 0.020962136 2.8066824e-20)
(-0.0088037744 0.030764747 -7.3935655e-22)
(-0.011872279 0.041497588 -2.5422154e-20)
(-0.015224197 0.053222923 -1.3308881e-20)
(-0.01887753 0.065999889 2.8097904e-20)
(-0.022849465 0.07988187 -4.6214971e-21)
(-0.027155787 0.094913042 6.5332747e-20)
(-0.031810188 0.11112402 -1.2772679e-20)
(-0.036823461 0.12852638 -3.2758093e-22)
(-0.042202595 0.147106 4.7360277e-20)
(-0.047949804 0.16681497 -1.5262171e-19)
(-0.054061534 0.18756229 7.1593545e-20)
(-0.060527558 0.20920343 1.2929959e-19)
(-0.067330307 0.23152941 -1.3910006e-19)
(-0.074444643 0.25425653 1.7299293e-20)
(-0.081838367 0.27701845 -9.9590363e-20)
(-0.089473832 0.29936367 -7.5037753e-20)
(-0.097310992 0.32076186 2.3976422e-19)
(-0.10531226 0.34062381 -1.8308762e-19)
(-0.11344915 0.35833908 2.4527269e-19)
(-0.12171038 0.37333408 -2.9368763e-20)
(-0.13011024 0.38514806 1.2198669e-19)
(-0.13869529 0.39351758 -2.6981107e-19)
(-0.14754642 0.39844862 6.490266e-20)
(-0.15677243 0.40024572 1.6607605e-19)
(-0.16649176 0.39946252 -4.0651964e-19)
(-0.17680635 0.39675743 1.7871121e-19)
(-0.18777476 0.39269742 1.9385277e-19)
(-0.19943388 0.38762982 -1.6154446e-19)
(-0.21179324 0.38173538 -2.155407e-20)
(-0.22479139 0.37508493 1.0971378e-19)
(-0.23831581 0.36766753 -6.1060053e-20)
(-0.2522035 0.35939477 9.4073921e-20)
(-0.26621926 0.35010147 -3.3244878e-19)
(-0.28003993 0.33955618 1.7524818e-19)
(-0.29323858 0.32746674 1.057947e-19)
(-0.30526463 0.31348606 2.1753742e-19)
(-0.31542611 0.29722586 2.86369e-20)
(-0.32288184 0.2782845 -2.3382117e-19)
(-0.32665943 0.25630126 9.4008195e-20)
(-0.32572071 0.23106963 1.383631e-19)
(-0.31915482 0.20267953 2.1677554e-20)
(-0.30615562 0.17149331 -1.3254773e-19)
(-0.28597337 0.13781744 -1.1566499e-19)
(-0.25760103 0.10184138 3.490001e-19)
(-0.21985171 0.063986978 1.8349256e-19)
(-0.17210542 0.025338205 3.9606136e-19)
(-0.11454419 -0.012600333 1.3860361e-19)
(-0.047548452 -0.048770528 5.3703595e-20)
(0.028585047 -0.082907118 3.9850442e-19)
(0.11339709 -0.11498726 1.5759128e-19)
(0.20576176 -0.14464128 -5.3255635e-19)
(0.30384068 -0.17123194 4.305601e-19)
(0.40518947 -0.19439854 -3.9906806e-19)
(0.50759086 -0.21404302 1.9287158e-19)
(0.60869212 -0.23003906 -9.3883399e-19)
(0.70580348 -0.24090365 -4.723742e-19)
(0.79385102 -0.24491893 1.9173693e-19)
(0.86899023 -0.23985688 3.0113291e-19)
(0.92498042 -0.22497216 5.0449538e-19)
(0.95834311 -0.19967285 8.8190207e-20)
(0.96614752 -0.1667965 6.991476e-20)
(0.96247962 -0.13085391 -7.3564925e-19)
(-0.001210145 0.0037639928 -6.640749e-22)
(-0.0037342306 0.011634934 3.3108834e-20)
(-0.0065036794 0.020299802 -3.9055641e-20)
(-0.0095371327 0.029825071 -1.8809742e-20)
(-0.012853579 0.040278722 3.7708639e-20)
(-0.016471718 0.051729528 1.2228375e-20)
(-0.020409525 0.064245246 -5.939125e-20)
(-0.024683759 0.077890445 6.4026936e-20)
(-0.029309214 0.092723535 1.3536887e-20)
(-0.034297874 0.10879293 5.3995926e-20)
(-0.039657897 0.12613207 -1.4385204e-19)
(-0.04539246 0.14475313 -1.7629586e-21)
(-0.051498469 0.16463919 1.3034647e-19)
(-0.057965197 0.18573471 -1.4074183e-19)
(-0.064772928 0.20793441 1.0146574e-19)
(-0.071891775 0.23107075 3.7937391e-20)
(-0.079280906 0.25490087 -8.0033171e-20)
(-0.086888511 0.27909442 7.3043707e-20)
(-0.094652972 0.30322498 9.8466224e-20)
(-0.10250581 0.32676862 -2.1218675e-21)
(-0.11037683 0.34911493 -1.5983516e-19)
(-0.11820191 0.36959592 1.0037024e-19)
(-0.12593321 0.38753797 -5.6815056e-20)
(-0.13355073 0.40233811 -2.7922345e-19)
(-0.14107301 0.41355908 -9.4665182e-20)
(-0.14856341 0.42102548 2.6110138e-19)
(-0.15612689 0.42488963 -2.6416869e-20)
(-0.16389214 0.42562478 3.0231265e-19)
(-0.17198058 0.42390999 -1.8122194e-19)
(-0.18047446 0.42043201 9.6635017e-20)
(-0.18941187 0.41570671 -1.4164195e-19)
(-0.19877416 0.41000988 -3.4802795e-20)
(-0.20849395 0.40344546 1.7706935e-19)
(-0.21846263 0.39601693 -1.8443722e-19)
(-0.22849443 0.38763615 -2.7219206e-19)
(-0.23832777 0.37812756 2.8086626e-20)
(-0.24761043 0.36724201 2.9968526e-19)
(-0.25588253 0.35466286 -3.8655845e-19)
(-0.26255914 0.34001632 8.4243756e-20)
(-0.26691867 0.32288435 -1.8070776e-19)
(-0.268106 0.30284394 2.7898091e-20)
(-0.26516363 0.27953761 -2.8361009e-19)
(-0.25712878 0.25280225 -1.3600848e-19)
(-0.24317463 0.22281539 -1.6790859e-19)
(-0.22258059 0.18997957 6.7431899e-19)
(-0.19463014 0.15455861 2.1850051e-19)
(-0.15832725 0.11666205 -2.9001774e-19)
(-0.11287692 0.076720289 2.3475529e-19)
(-0.058327612 0.035944623 1.955315e-19)
(0.0047643336 -0.0041045056 -2.2027395e-19)
(0.07596039 -0.042408264 -1.1517586e-19)
(0.15497669 -0.078672571 -2.7047278e-19)
(0.2413021 -0.11272672 -1.3166179e-19)
(0.3336591 -0.14404783 4.5126607e-19)
(0.42997437 -0.17188763 2.5497056e-19)
(0.52763674 -0.19592003 4.1158132e-20)
(0.62467862 -0.21617055 -1.8658648e-21)
(0.71894862 -0.23243244 2.3285847e-19)
(0.80712641 -0.24308448 -3.3663559e-19)
(0.88404343 -0.24604396 -4.3750484e-19)
(0.94519053 -0.23923635 -1.2289516e-19)
(0.98317895 -0.22224748 -9.322018e-19)
(0.99528816 -0.19538099 -7.4044673e-19)
(0.98562993 -0.16244898 -1.8831757e-19)
(0.97290152 -0.12796261 -9.9629269e-20)
(-0.0012572351 0.003512159 2.2422179e-20)
(-0.0038797771 0.01086991 1.3865287e-20)
(-0.0067565727 0.018986751 -2.885208e-20)
(-0.0099067862 0.027930738 4.9483793e-20)
(-0.01335003 0.037772721 1.2398056e-20)
(-0.017105496 0.048586203 -5.3175907e-20)
(-0.021191517 0.060445964 2.7216512e-22)
(-0.025625073 0.073426447 -3.1912391e-20)
(-0.030420963 0.087599456 9.5406809e-21)
(-0.035590858 0.10303105 -2.1514975e-22)