/*--------------------------------*- C++ -*----------------------------------*\
  =========                 |
  \\      /  F ield         | OpenFOAM: The Open Source CFD Toolbox
   \\    /   O peration     | Website:  https://openfoam.org
    \\  /    A nd           | Version:  13
     \\/     M anipulation  |
\*---------------------------------------------------------------------------*/
FoamFile
{
    format      ascii;
    class       volVectorField;
    location    "13.29785";
    object      UMean;
}
// * * * * * * * * * * * * * * * * * * * * * * * * * * * * * * * * * * * * * //

dimensions      [0 1 -1 0 0 0 0];

internalField   nonuniform List<vector> 
17140
(
(-3.2505595e-06 0.00013994093 -2.775321e-22)
(-4.1876626e-05 0.00043071851 -2.3256523e-23)
(-0.0001252961 0.00074841926 1.5369031e-21)
(-0.00027110215 0.001094344 -1.690287e-21)
(-0.00049509515 0.0014698287 1.9770125e-22)
(-0.00081895657 0.0018759267 -6.4730507e-22)
(-0.0012693458 0.0023133335 -1.0904853e-21)
(-0.0018784619 0.0027822573 5.3318965e-22)
(-0.0026850633 0.0032822667 1.7465649e-21)
(-0.003735466 0.0038121126 4.2894609e-21)
(-0.0050845345 0.0043695279 -6.3728172e-21)
(-0.0067966224 0.0049510098 5.6915755e-21)
(-0.0089463871 0.0055515972 8.7275734e-22)
(-0.011619359 0.006164655 -4.9577989e-21)
(-0.014912114 0.0067817021 5.5242948e-22)
(-0.018931879 0.0073923086 -4.3987638e-21)
(-0.023795372 0.0079841313 1.653191e-22)
(-0.029626719 0.0085431318 -3.6375748e-23)
(-0.036554302 0.0090540599 -2.6510145e-21)
(-0.044706582 0.0095012585 3.4668723e-21)
(-0.054207092 0.0098698251 -1.6812661e-21)
(-0.065169145 0.010147104 3.2525668e-22)
(-0.077690985 0.010324347 2.4060914e-21)
(-0.091852975 0.01039828 -2.4137399e-21)
(-0.10771996 0.0103721 -3.8691077e-21)
(-0.12534272 0.01025549 3.1350723e-21)
(-0.14475236 0.010063083 1.5467507e-20)
(-0.16598691 0.0098101777 1.8225938e-21)
(-0.18911262 0.0095098456 -1.6172065e-20)
(-0.21418065 0.0091732081 -3.7889287e-21)
(-0.24123577 0.0088084344 -1.3609522e-20)
(-0.27033907 0.0084197701 1.8039187e-20)
(-0.30154001 0.0080087197 -4.7095722e-21)
(-0.33487167 0.0075749444 -2.2701777e-21)
(-0.37034261 0.007116897 -2.231832e-20)
(-0.40792509 0.0066318272 9.8669161e-21)
(-0.44754018 0.00611559 -1.4857364e-20)
(-0.48903785 0.0055624436 -1.0061352e-20)
(-0.53217062 0.0049646041 -4.5974659e-21)
(-0.57656058 0.00431272 1.3965852e-20)
(-0.6216606 0.0035955074 2.6240277e-20)
(-0.66671277 0.0028015194 2.3695954e-20)
(-0.71070434 0.0019199402 1.0291018e-20)
(-0.75234593 0.00094313383 -4.9430581e-20)
(-0.79007108 -0.00012939508 -3.5745464e-20)
(-0.82203755 -0.001281311 8.6958215e-21)
(-0.84632561 -0.0024907591 -5.8392097e-20)
(-0.86098952 -0.0037392409 -1.9604149e-20)
(-0.86395653 -0.0050021437 1.9779052e-20)
(-0.85382169 -0.0062333952 4.8033555e-20)
(-0.82924543 -0.0073744995 -2.94458e-20)
(-0.78924489 -0.0083963235 -1.8576804e-20)
(-0.73282274 -0.0093499246 4.8435834e-20)
(-0.65947138 -0.010275644 2.2996428e-20)
(-0.56823535 -0.011117149 1.6543308e-20)
(-0.45958847 -0.011777726 -1.3039741e-20)
(-0.33400981 -0.012223022 3.5973021e-20)
(-0.19319708 -0.012383887 3.0409951e-20)
(-0.040291187 -0.012097993 7.7404406e-21)
(0.11853478 -0.011208639 -2.0068301e-20)
(0.27479205 -0.009606761 -1.5846807e-20)
(0.4181083 -0.0074020435 -5.8866828e-20)
(0.54356048 -0.0048360491 -8.6280088e-21)
(0.64401104 -0.0022426887 7.2331926e-20)
(0.72601747 -0.00021690405 -5.576894e-20)
(-3.286243e-05 0.00076775067 7.8787812e-23)
(-0.00013228102 0.0023631101 -8.0517479e-21)
(-0.0002813881 0.004106937 7.1668884e-21)
(-0.0004976814 0.0060083001 -1.9548941e-21)
(-0.00079704083 0.008075904 -4.0395556e-21)
(-0.0012010344 0.010317246 7.7226823e-21)
(-0.0017360657 0.012738138 -8.0569011e-21)
(-0.0024339065 0.015342029 7.0972008e-22)
(-0.0033326763 0.018129187 -2.2181273e-21)
(-0.004477799 0.021095736 -3.718906e-23)
(-0.0059229548 0.024232561 -7.428623e-21)
(-0.0077309826 0.027524097 1.1831033e-20)
(-0.0099746663 0.030947063 9.7950329e-22)
(-0.012737287 0.03446921 -9.6974198e-21)
(-0.0161128 0.038048247 2.989993e-21)
(-0.020205473 0.041631134 1.9059221e-21)
(-0.025128806 0.045154012 -1.213569e-20)
(-0.031003559 0.04854313 3.9731293e-20)
(-0.03795478 0.051717143 -2.5006777e-20)
(-0.046107838 0.05459115 3.0116521e-20)
(-0.055583674 0.057082725 -4.4760266e-20)
(-0.066493742 0.059119798 1.1043566e-20)
(-0.078935392 0.060649791 4.58358e-21)
(-0.09298906 0.061648509 -1.5056584e-20)
(-0.1087204 0.062126515 5.4550903e-20)
(-0.12618248 0.062130525 8.1614481e-21)
(-0.14540811 0.061736394 -4.2771459e-20)
(-0.16643625 0.061027943 4.8230248e-20)
(-0.18933443 0.060080033 -6.7319064e-21)
(-0.21415396 0.058953371 -6.5791014e-20)
(-0.24093883 0.057695791 6.9078006e-21)
(-0.26974805 0.056335449 5.2865077e-20)
(-0.30062895 0.054883843 1.2756206e-21)
(-0.33361139 0.053340874 -3.9853514e-20)
(-0.36869965 0.051697317 4.4733585e-20)
(-0.4058605 0.049935146 -2.0195946e-20)
(-0.44500775 0.048026343 2.3986283e-20)
(-0.48598207 0.045931258 7.6231997e-20)
(-0.52852412 0.043597041 1.7021278e-20)
(-0.57224121 0.040957484 6.663731e-20)
(-0.61656767 0.037934487 -8.5438546e-20)
(-0.66072218 0.034442798 -7.80995e-20)
(-0.70366483 0.030398842 -1.3158475e-20)
(-0.74407166 0.025732734 1.0583034e-19)
(-0.78032984 0.020406521 -4.9285669e-20)
(-0.81055892 0.014441195 -1.6872323e-20)
(-0.83274626 0.0079174371 9.09692e-21)
(-0.8449024 0.00095331583 2.7836068e-20)
(-0.84516392 -0.0062506864 -1.352273e-20)
(-0.83189825 -0.01348259 2.427238e-20)
(-0.80380424 -0.020609064 1.4575395e-19)
(-0.75988433 -0.027538901 6.9777719e-21)
(-0.69932011 -0.034242537 -3.1499457e-20)
(-0.62150403 -0.040719034 7.042742e-20)
(-0.52610424 -0.046806482 -6.0632492e-20)
(-0.41332027 -0.052286239 1.739971e-19)
(-0.28384955 -0.05696047 5.0157988e-20)
(-0.13967151 -0.060347534 -1.4377826e-19)
(0.015856491 -0.061696499 2.4568173e-20)
(0.17630697 -0.060089239 2.8525448e-20)
(0.33296018 -0.054949345 5.7791702e-21)
(0.47515322 -0.047020825 -7.6813597e-20)
(0.59801969 -0.037327292 1.4986155e-19)
(0.69557441 -0.027726873 4.4719074e-20)
(0.77415594 -0.019594476 7.423578e-20)
(-9.6746261e-05 0.0013815999 4.3406769e-21)
(-0.00032717917 0.0042530586 -2.4265253e-21)
(-0.00061767823 0.007392507 -6.454499e-22)
(-0.00098548275 0.010816922 6.124087e-22)
(-0.0014465978 0.014542507 -2.9683606e-21)
(-0.0020222783 0.018583435 -2.2044472e-22)
(-0.0027382922 0.022950978 -2.823604e-21)
(-0.0036253908 0.027652302 -3.0447685e-21)
(-0.0047202 0.03268901 2.4924683e-20)
(-0.0060660857 0.038055417 -2.2287397e-20)
(-0.0077140189 0.043736584 1.0685632e-20)
(-0.0097233981 0.049706117 1.5688773e-20)
(-0.012162771 0.055923855 -3.1198367e-20)
(-0.015110355 0.062333565 -3.8715749e-21)
(-0.018654226 0.068860897 1.5015055e-20)
(-0.022892036 0.075411973 1.0364682e-20)
(-0.027930096 0.081873069 -1.2079227e-20)
(-0.033881677 0.088112039 4.3962698e-20)
(-0.040864405 0.093982177 -2.6154442e-20)
(-0.048996778 0.099329218 1.3012204e-20)
(-0.058393951 0.10400196 -4.4222529e-20)
(-0.069163221 0.1078664 -1.1591271e-20)
(-0.08139985 0.11082238 2.4385862e-20)
(-0.095184303 0.11282007 -3.6985193e-20)
(-0.11058382 0.11387242 -1.4648144e-20)
(-0.12765595 0.11405867 1.7828296e-20)
(-0.14643737 0.11351344 1.0185006e-19)
(-0.16696889 0.112391 4.634807e-20)
(-0.18931953 0.11082892 -2.346824e-20)
(-0.21354105 0.10893791 2.5078614e-20)
(-0.23967549 0.10680798 -1.6023465e-20)
(-0.26777634 0.1044932 -9.060175e-20)
(-0.29788585 0.10201589 3.0561855e-20)
(-0.33002598 0.099376414 9.1718043e-20)
(-0.36419091 0.096557544 -3.1074289e-20)
(-0.40033438 0.093525315 -4.3516008e-20)
(-0.43835338 0.090227076 7.5733432e-20)
(-0.47806704 0.086588236 2.3073088e-20)
(-0.51918867 0.082509709 -4.1542843e-20)
(-0.56129099 0.077866838 -1.6773725e-20)
(-0.60376507 0.072512306 8.0259709e-20)
(-0.64577594 0.066284313 -2.3002707e-20)
(-0.68621876 0.059023123 -3.3089001e-20)
(-0.72369544 0.05059378 -8.7651042e-20)
(-0.75650657 0.040919627 1.6639324e-19)
(-0.78269691 0.03003437 -1.0701302e-19)
(-0.80024215 0.018113891 -2.6615553e-20)
(-0.80714679 0.005410671 -1.0584694e-19)
(-0.80155989 -0.007766154 -1.2665858e-19)
(-0.7819358 -0.021031476 -6.4103301e-21)
(-0.74716735 -0.034079941 2.7025377e-20)
(-0.69648402 -0.046748506 -2.005378e-19)
(-0.62930467 -0.05900358 -8.6083559e-20)
(-0.54525103 -0.070797017 -8.9262716e-20)
(-0.44424003 -0.081910356 -2.9516316e-20)
(-0.32665628 -0.091977955 -2.3240559e-19)
(-0.19359519 -0.10054503 9.315215e-20)
(-0.047274947 -0.10680095 -2.8963235e-20)
(0.10879335 -0.10941463 -2.4047433e-19)
(0.26795515 -0.10670103 -9.6683565e-20)
(0.4212029 -0.097584815 1.1637055e-19)
(0.55768487 -0.083494207 4.0251067e-19)
(0.67282573 -0.06655424 -1.2886667e-19)
(0.76245765 -0.049999597 -2.0720665e-19)
(0.83214268 -0.035645154 -8.8561438e-20)
(-0.0001927347 0.0019596909 -1.4485657e-20)
(-0.00062002136 0.0060339826 1.7414922e-20)
(-0.0011229369 0.010490229 -6.298994e-21)
(-0.0017183333 0.015353336 6.8517921e-22)
(-0.0024224009 0.020647118 -1.354941e-20)
(-0.0032559194 0.026392741 1.4030531e-20)
(-0.0042436961 0.032607471 -2.1298915e-20)
(-0.0054149401 0.039303007 1.0035162e-20)
(-0.0068040212 0.046483433 3.8196057e-20)
(-0.008451195 0.054142785 -9.2027388e-21)
(-0.010403337 0.062262267 -3.5112081e-20)
(-0.012714635 0.070807108 1.0749194e-20)
(-0.015447219 0.079723204 7.2289526e-22)
(-0.018671612 0.088933731 -2.8310469e-20)
(-0.022466933 0.098336053 8.8969888e-20)
(-0.026920726 0.10779943 -5.4906398e-20)
(-0.032128272 0.1171642 -5.2577871e-22)
(-0.038191271 0.12624325 3.0760838e-20)
(-0.045215808 0.13482707 -7.8726175e-20)
(-0.053309569 0.14269304 3.7492077e-20)
(-0.062578452 0.14962012 5.6458787e-20)
(-0.07312289 0.15540886 2.3079606e-20)
(-0.08503437 0.15990532 -1.1559822e-19)
(-0.098392884 0.1630257 -6.1093012e-20)
(-0.11326771 0.16477579 4.0072059e-20)
(-0.1297222 0.16525807 -2.3585426e-20)
(-0.14779984 0.16466 8.9702026e-20)
(-0.16754469 0.16320846 -2.6048842e-20)
(-0.18902573 0.16110382 7.1103951e-20)
(-0.21229692 0.15850747 -4.0713723e-20)
(-0.23739808 0.15555543 2.5356188e-20)
(-0.26437331 0.15233102 -9.4298395e-20)
(-0.29325714 0.14886901 1.3740813e-20)
(-0.32405937 0.14517068 -7.2750201e-20)
(-0.35675872 0.14121039 7.040338e-20)
(-0.3912891 0.13693748 2.2458513e-20)
(-0.4275222 0.13227351 -2.8572597e-19)
(-0.46524496 0.12710765 -7.4842704e-20)
(-0.50413027 0.12129259 6.2623573e-20)
(-0.54370053 0.1146434 -6.1823788e-20)
(-0.58328532 0.10694158 1.5783737e-20)
(-0.62197632 0.097947588 1.0018574e-19)
(-0.65858564 0.087425122 -4.7342938e-21)
(-0.69162563 0.075177131 -3.3292612e-20)
(-0.7193082 0.061098427 1.6464343e-20)
(-0.73964018 0.045259661 -7.5488317e-21)
(-0.75063615 0.027932892 -2.2978679e-20)
(-0.750347 0.0095108971 3.5936731e-19)
(-0.7370939 -0.00952014 -3.9962046e-20)
(-0.70960683 -0.028590209 3.7047642e-20)
(-0.6670854 -0.047255522 -3.4864706e-19)
(-0.60905619 -0.065294103 1.9201337e-19)
(-0.53520024 -0.082668503 1.5829834e-19)
(-0.44536125 -0.099315899 1.5236434e-19)
(-0.33969865 -0.11495444 1.4818011e-19)
(-0.21894096 -0.12909895 2.3546059e-19)
(-0.084522734 -0.14110462 -4.7560401e-19)
(0.061117647 -0.1498585 2.9668119e-19)
(0.21434261 -0.15344332 4.5700082e-19)
(0.36814182 -0.14936377 -3.3879145e-19)
(0.51305379 -0.13604121 -1.0942362e-19)
(0.63847348 -0.11568137 -9.6383789e-20)
(0.74073266 -0.091737637 4.8834201e-19)
(0.81739307 -0.068584367 3.5836098e-19)
(0.87378371 -0.048615158 -1.5610404e-20)
(-0.00031622742 0.0024803794 1.015246e-20)
(-0.00099686439 0.007639634 -2.5429496e-20)
(-0.0017732178 0.01328555 2.0740261e-20)
(-0.0026616838 0.019450898 -7.8419985e-21)
(-0.0036787211 0.026167168 -2.8346623e-21)
(-0.0048445395 0.033462862 2.4414171e-20)
(-0.006182756 0.04136192 -6.1920106e-21)
(-0.0077206493 0.049881657 -1.3162465e-20)
(-0.0094897428 0.05903021 -1.0121898e-21)
(-0.011526349 0.068803514 -8.6116823e-21)
(-0.013872127 0.079181753 1.2087922e-20)
(-0.016574604 0.090125364 -8.4286584e-21)
(-0.019687656 0.10157068 -3.1166372e-20)
(-0.023271874 0.11342543 -9.0693088e-22)
(-0.027394748 0.1255645 2.4064586e-20)
(-0.032130601 0.13782657 1.7150425e-20)
(-0.037560169 0.15001236 -1.4861799e-20)
(-0.043769745 0.16188577 1.4460953e-21)
(-0.050849826 0.17317912 2.951737e-20)
(-0.058893237 0.18360414 3.6328107e-20)
(-0.06799281 0.19286969 -4.1948456e-20)
(-0.078238836 0.20070682 -4.2740163e-20)
(-0.089716597 0.2068997 5.8273253e-20)
(-0.10250437 0.21131866 -7.3041829e-20)
(-0.11667343 0.21394811 -1.2812496e-19)
(-0.13229229 0.21489953 3.0603494e-19)
(-0.14941654 0.21440197 -1.705308e-19)
(-0.16809367 0.2127526 2.5519071e-19)
(-0.18838787 0.21021826 -3.2210621e-19)
(-0.2103625 0.20701383 3.6275719e-19)
(-0.23405516 0.20332322 -3.7820663e-19)
(-0.25949574 0.19926403 6.432063e-20)
(-0.28670909 0.19488686 2.2297689e-19)
(-0.31568919 0.19019501 -1.266242e-19)
(-0.34639493 0.18515439 3.9893061e-20)
(-0.37873492 0.17969669 1.1857032e-20)
(-0.4125489 0.17371631 1.4496096e-19)
(-0.44758373 0.16706459 4.7238358e-20)
(-0.48346314 0.15954471 4.7485247e-20)
(-0.51965024 0.1509098 4.7644785e-20)
(-0.55540383 0.14086897 -2.4341728e-19)
(-0.58973442 0.12910422 1.0695068e-19)
(-0.62136871 0.11530437 1.6542321e-20)
(-0.64873751 0.099216264 -1.9533975e-19)
(-0.66999646 0.08072415 -9.8310872e-20)
(-0.68318572 0.059965794 4.8561222e-20)
(-0.68643861 0.037341386 1.7399111e-19)
(-0.67799591 0.013383527 -7.6003301e-20)
(-0.65644247 -0.01122713 2.1912582e-19)
(-0.62082307 -0.035732141 1.1884572e-19)
(-0.57062247 -0.059564149 1.6452354e-19)
(-0.50561699 -0.082482078 4.4072971e-19)
(-0.42568297 -0.10448456 -3.4294461e-19)
(-0.33084765 -0.12550132 1.1134246e-19)
(-0.2215485 -0.14517091 -1.9551392e-19)
(-0.09894153 -0.16287393 -1.8739808e-19)
(0.035088036 -0.17781347 -7.3799951e-20)
(0.17776809 -0.18865101 -6.8851632e-19)
(0.32529443 -0.19286153 -1.8827836e-19)
(0.47014287 -0.18707305 4.3573524e-19)
(0.60224601 -0.16936673 1.65819e-19)
(0.71210343 -0.14285458 -1.2532043e-19)
(0.79752058 -0.1123993 -2.5936486e-19)
(0.85806941 -0.083341405 -4.023358e-19)
(0.89991983 -0.058770073 3.0623656e-20)
(-0.00046019812 0.0029230244 3.0759487e-20)
(-0.0014363784 0.0090067579 8.1742377e-21)
(-0.0025318472 0.015668944 -6.624066e-21)
(-0.0037625513 0.022950015 -2.4468019e-20)
(-0.005145324 0.030889093 1.3414587e-20)
(-0.0066997958 0.039522333 -1.9326133e-20)
(-0.0084482935 0.048881069 8.3717022e-21)
(-0.010415956 0.058989475 1.9965654e-21)
(-0.012631113 0.069861635 -1.1322115e-20)
(-0.01512561 0.081498024 -2.445462e-20)
(-0.017935149 0.093881361 -1.2276801e-21)
(-0.021099605 0.10697185 4.0456262e-20)
(-0.024663304 0.12070188 -5.6198825e-20)
(-0.028675253 0.13497048 9.1224594e-20)
(-0.033189267 0.14963785 -2.3990607e-20)
(-0.038263968 0.16452058 5.1338737e-20)
(-0.043962614 0.17938875 -6.2632176e-20)
(-0.050352718 0.19396584 4.1091014e-20)
(-0.057505428 0.20793346 -6.5749508e-21)
(-0.065494677 0.2209427 -2.700848e-20)
(-0.074396119 0.23263365 6.6588077e-20)
(-0.084285982 0.2426643 -9.5478703e-20)
(-0.095239942 0.25074777 1.0554882e-19)
(-0.10733213 0.25669375 1.8378082e-20)
(-0.12063472 0.26044631 -1.8410103e-19)
(-0.13522006 0.26210593 1.8916564e-19)
(-0.15115837 0.26192442 -1.2504201e-19)
(-0.16850257 0.26025726 1.423001e-19)
(-0.18731095 0.25745187 1.3508234e-20)
(-0.20766033 0.2537836 8.4847745e-21)
(-0.22958694 0.24947649 -5.8744466e-20)
(-0.25310365 0.24468996 3.809325e-21)
(-0.27822331 0.2394977 -2.2548944e-19)
(-0.30492174 0.23390748 6.176766e-20)
(-0.33313457 0.22787719 1.8549696e-19)
(-0.36274099 0.22132007 -8.7311598e-20)
(-0.39354426 0.21410232 7.2392933e-20)
(-0.42524691 0.2060367 -7.2858189e-20)
(-0.45741931 0.19687607 -4.0817208e-19)
(-0.4894612 0.18631083 2.2660525e-19)
(-0.52055909 0.17397708 5.5471473e-20)
(-0.54964631 0.15948024 -3.1474493e-19)
(-0.57537862 0.14244 1.8727705e-20)
(-0.59613822 0.12255986 3.8726318e-20)
(-0.61009083 0.099738578 4.1344321e-19)
(-0.6154234 0.074210713 9.5203188e-20)
(-0.61046221 0.046520153 -1.4857205e-19)
(-0.59374917 0.017331969 -1.5097027e-19)
(-0.56412614 -0.012484848 -2.1332064e-19)
(-0.52084124 -0.042007071 -2.6211961e-19)
(-0.46353586 -0.07055695 -1.5971089e-19)
(-0.39216452 -0.097880534 -2.4978296e-19)
(-0.30675747 -0.12401663 8.5964137e-20)
(-0.20754652 -0.14887305 -5.3292788e-19)
(-0.095337122 -0.17198207 -3.5979569e-20)
(0.028162088 -0.19259167 -3.1401131e-20)
(0.16051675 -0.20981041 -1.7193525e-20)
(0.29848369 -0.22217753 7.4193112e-19)
(0.43793791 -0.22658087 2.9505819e-19)
(0.570582 -0.21873146 -4.6029375e-19)
(0.68611363 -0.1965531 -6.6816559e-19)
(0.77699272 -0.16429083 -3.0102433e-19)
(0.84319069 -0.128185 -9.8125721e-20)
(0.88674044 -0.094346422 5.7194272e-19)
(0.91514497 -0.06646231 -1.4363123e-19)
(-0.00061534023 0.003269494 -5.7728224e-21)
(-0.0019106879 0.010079517 -1.3786694e-20)
(-0.003350642 0.017543503 3.3294106e-20)
(-0.004951283 0.025709047 -1.2397911e-21)
(-0.0067297532 0.034622725 -1.6236701e-20)
(-0.0087052024 0.044328515 -7.1636523e-21)
(-0.010898719 0.054865796 -5.2963963e-21)
(-0.013333305 0.066266845 1.0455159e-20)
(-0.016034029 0.078553678 -5.423543e-20)
(-0.019028121 0.091734215 4.1036564e-20)
(-0.022345065 0.10579768 -1.9890631e-21)
(-0.026016656 0.12070926 -2.5008628e-20)
(-0.030077052 0.13640399 9.4013534e-20)
(-0.034562799 0.15278023 -9.4241239e-20)
(-0.039512832 0.16969289 1.2649305e-20)
(-0.044968468 0.1869472 7.8860796e-20)
(-0.050973409 0.204294 -7.4881629e-20)
(-0.057573759 0.22142792 2.6482736e-20)
(-0.064818107 0.23799046 -5.2078932e-20)
(-0.072757706 0.25358027 6.7797354e-20)
(-0.081446766 0.26777284 1.2927611e-19)
(-0.090942918 0.2801515 -1.3012012e-19)
(-0.10130774 0.2903494 -1.9379259e-19)
(-0.11260723 0.2980991 3.8021273e-19)
(-0.12491181 0.3032812 -3.0986754e-19)
(-0.13829654 0.30595857 1.8256084e-19)
(-0.15284221 0.30637991 -4.7786216e-20)
(-0.16861563 0.30494 1.142386e-19)
(-0.18567471 0.30207637 -1.1850404e-19)
(-0.20409576 0.29813565 -1.6112447e-19)
(-0.22392271 0.2933749 1.0834495e-19)
(-0.24515792 0.28800367 1.8057767e-19)
(-0.26779365 0.28212862 -1.6134233e-20)
(-0.29178782 0.27576617 -6.7862542e-21)
(-0.31704982 0.26886793 -1.1895925e-19)
(-0.34342685 0.26132874 5.1822669e-20)
(-0.37068358 0.25298658 1.9089659e-19)
(-0.39847625 0.24361543 9.6294442e-20)
(-0.42632027 0.23291724 -1.4826832e-19)
(-0.45355301 0.22052012 1.1775857e-19)
(-0.4792943 0.20598953 -9.9962131e-20)
(-0.5024146 0.18885971 3.375123e-20)
(-0.52152815 0.16869199 1.2751118e-19)
(-0.53502262 0.14516802 -3.0475492e-19)
(-0.54116467 0.11823308 -1.808329e-19)
(-0.53839836 0.088235351 -1.1699244e-19)
(-0.52532247 0.05584818 3.6567241e-19)
(-0.50077703 0.021840798 2.3590897e-19)
(-0.46373449 -0.012793485 2.754322e-19)
(-0.41345885 -0.04696988 4.7888465e-19)
(-0.34969082 -0.079866282 -1.6520281e-19)
(-0.27255693 -0.1111956 3.4732401e-20)
(-0.18224855 -0.14103699 2.7759262e-19)
(-0.079266338 -0.16925214 8.2023027e-19)
(0.035114213 -0.19522443 5.463197e-19)
(0.15852577 -0.21807732 2.1799672e-19)
(0.28800077 -0.23686805 6.4563916e-19)
(0.41977822 -0.25008416 -4.4449612e-19)
(0.54908138 -0.25405294 4.6920664e-20)
(0.66654248 -0.24367421 7.4306513e-19)
(0.76266444 -0.21710156 5.0930412e-19)
(0.83235334 -0.17985034 2.3671835e-20)
(0.87873583 -0.1392607 -8.2013985e-19)
(0.90639793 -0.10203912 8.6779822e-20)
(0.92400601 -0.072150621 -1.2335594e-19)
(-0.0007707635 0.0035052658 -2.2638697e-20)
(-0.0023864299 0.010812998 1.144995e-20)
(-0.0041721943 0.018830888 -1.5475643e-20)
(-0.0061446897 0.027612953 -8.8016399e-21)
(-0.0083213911 0.037212795 2.4584472e-20)
(-0.010721137 0.047682148 2.2974658e-20)
(-0.013363966 0.059068848 -2.3608812e-20)
(-0.016270956 0.07141433 2.8448047e-21)
(-0.01946415 0.084750394 6.6026045e-22)
(-0.022966414 0.099095246 4.7061668e-20)
(-0.026801257 0.11444868 -5.181773e-21)
(-0.030992625 0.13078628 -9.5594988e-20)
(-0.035564662 0.14805284 7.6804602e-20)
(-0.040541477 0.16615485 -2.6653323e-21)
(-0.045946946 0.1849526 -5.2155316e-20)
(-0.051804584 0.20425235 -4.5287447e-21)
(-0.058137583 0.22379946 1.1632386e-20)
(-0.064969089 0.24327427 5.303435e-20)
(-0.072322828 0.26229233 -9.8439783e-20)
(-0.080224185 0.28041212 1.7564038e-19)
(-0.088701862 0.2971529 -3.8523098e-20)
(-0.097789954 0.3120254 2.8763284e-20)
(-0.10753046 0.32457654 -2.413014e-20)
(-0.11797569 0.33444552 9.9716775e-22)
(-0.12918966 0.34142376 -1.4815799e-19)
(-0.14124787 0.34550397 -1.5035551e-19)
(-0.15423556 0.34689906 3.0259801e-19)
(-0.16824004 0.34601392 5.1120689e-20)
(-0.1833258 0.34335613 -1.8069624e-19)
(-0.19955156 0.33937659 -6.5040986e-20)
(-0.21698073 0.33438201 -1.4863481e-19)
(-0.23561793 0.32861065 1.6965784e-19)
(-0.25542473 0.32221814 7.4899963e-20)
(-0.27634043 0.315241 -1.7560772e-19)
(-0.29824609 0.3076276 7.4476312e-20)
(-0.32095622 0.29925635 3.5286041e-20)
(-0.3441959 0.28993756 -1.0546647e-19)
(-0.36757436 0.27940682 -2.7735424e-19)
(-0.39055321 0.26731653 -8.4600904e-20)
(-0.41241161 0.25323539 5.6762454e-20)
(-0.43221315 0.23666374 1.3509981e-19)
(-0.44878691 0.21707492 1.3973541e-19)
(-0.46074357 0.19398979 1.5449339e-19)
(-0.46653691 0.16709547 3.2332974e-19)
(-0.46462654 0.13641557 -8.9874996e-21)
(-0.45376344 0.10241983 1.3535649e-19)
(-0.4328496 0.065853124 -7.303472e-19)
(-0.40089591 0.027518247 -2.0135714e-19)
(-0.35682699 -0.011528931 -2.2906847e-19)
(-0.29992829 -0.050012433 -6.332951e-19)
(-0.23014665 -0.086907222 7.3998495e-19)
(-0.147809 -0.12188512 -1.6551439e-19)
(-0.053285406 -0.15504579 -5.3482098e-19)
(0.052588368 -0.18616452 -6.6267231e-19)
(0.16800989 -0.21444587 -8.513817e-20)
(0.28993701 -0.23891974 2.1745831e-19)
(0.41495848 -0.25864526 3.5549243e-19)
(0.53888629 -0.27203696 -1.5245304e-19)
(0.6559353 -0.27488042 2.7803609e-19)
(0.75575155 -0.26167329 -2.3359803e-19)
(0.83032769 -0.23100564 -7.9280813e-20)
(0.87803311 -0.18963627 -2.34392e-19)
(0.90573468 -0.14608267 1.0235613e-18)
(0.92004053 -0.10702358 3.3475543e-20)
(0.93003011 -0.076316304 4.0450672e-19)
(-0.00091458025 0.0036207844 2.1117286e-20)
(-0.0028270171 0.011177438 4.2313141e-21)
(-0.0049335138 0.019478699 -4.652092e-21)
(-0.0072513367 0.028584023 -2.2879046e-20)
(-0.0097984316 0.038553269 2.7460056e-20)
(-0.012593536 0.049445495 -2.334043e-20)
(-0.015655929 0.061317028 -1.1167258e-20)
(-0.01900516 0.074219093 6.0000048e-22)
(-0.022660755 0.088194707 9.4591797e-21)
(-0.02664184 0.10327479 5.3908583e-20)
(-0.030966709 0.11947334 -9.0756638e-20)
(-0.035652321 0.13678157 1.0940075e-19)
(-0.040713765 0.15516092 -3.2256522e-20)
(-0.046163708 0.17453501 -4.3985677e-20)
(-0.052011907 0.19478069 6.7856913e-20)
(-0.058264843 0.21571865 -1.3469908e-19)
(-0.064925622 0.23710445 1.6462093e-19)
(-0.071994271 0.25862126 2.6098558e-21)
(-0.079468668 0.27987664 9.6396815e-20)
(-0.087346261 0.30040592 -3.8780921e-19)
(-0.095626786 0.31968609 9.5342013e-20)
(-0.10431599 0.33716337 4.0094058e-19)
(-0.11343017 0.35229744 -1.9295536e-19)
(-0.1230009 0.36462159 -2.3441287e-19)
(-0.13307874 0.37381254 6.0075782e-20)
(-0.14373433 0.37975618 3.1987616e-19)
(-0.15505513 0.38258729 -4.932818e-19)
(-0.16713754 0.38268013 5.5578562e-19)
(-0.18006902 0.38057334 -4.4398327e-19)
(-0.19390271 0.37682733 8.6169294e-20)
(-0.20868794 0.37186246 -1.4951477e-19)
(-0.22444826 0.3659363 -2.1515189e-19)
(-0.24113337 0.35922937 8.5789714e-20)
(-0.25865191 0.35182163 2.2442134e-20)
(-0.27685903 0.34367324 3.2295785e-19)
(-0.29553261 0.33464989 -6.3344857e-20)
(-0.31435753 0.32453521 1.634069e-19)
(-0.33289636 0.31302755 -1.3924273e-19)
(-0.35055929 0.29973292 8.3012098e-20)
(-0.3665733 0.28416615 5.4301459e-20)
(-0.37995794 0.26577199 4.6715845e-20)
(-0.38952381 0.24397848 4.6334475e-20)
(-0.39391443 0.21828976 -2.8270708e-19)
(-0.39169686 0.18842845 -2.2221128e-19)
(-0.38158324 0.15451834 6.2390777e-20)
(-0.36258495 0.11714233 -3.9522236e-20)
(-0.33385833 0.07703218 1.6379358e-19)
(-0.29441572 0.034940134 -3.2388107e-19)
(-0.24317498 -0.0080299165 -3.7554326e-19)
(-0.17972822 -0.050368653 -1.08785e-19)
(-0.10436248 -0.090851069 -2.8589388e-19)
(-0.017565233 -0.12909419 9.1755099e-21)
(0.080156729 -0.16519779 1.3928955e-19)
(0.18757881 -0.19883035 6.8139257e-19)
(0.30235824 -0.22898707 -3.4369309e-19)
(0.42089054 -0.25463231 1.404471e-19)
(0.53945279 -0.27486558 -4.151294e-19)
(0.65359689 -0.28791001 7.0532542e-19)
(0.75620518 -0.28900619 -4.0838449e-19)
(0.83614684 -0.27255462 1.4190662e-19)
(0.88805735 -0.23822003 -4.9762189e-22)
(0.91455759 -0.1942925 1.1218311e-19)
(0.92607565 -0.14935411 4.1530588e-19)
(0.93030961 -0.10992725 -7.8143708e-19)
(0.93558341 -0.079332272 7.9319642e-19)
(-0.0010347286 0.0036125805 -4.6868627e-20)
(-0.0031955176 0.011161545 -2.4066174e-20)
(-0.0055707747 0.019466292 3.7804588e-20)
(-0.008178422 0.028590407 -9.9584386e-22)
(-0.011036973 0.038598854 -3.4240259e-20)
(-0.014165277 0.049557128 -1.7924673e-20)
(-0.017582205 0.061529537 3.784045e-20)
(-0.021306295 0.07457711 -6.2237261e-21)
(-0.025355259 0.088754782 8.7974691e-20)
(-0.029745422 0.10410782 -1.7197333e-20)
(-0.034491034 0.12066723 -4.4165667e-22)
(-0.039603511 0.13844411 6.3754027e-20)
(-0.045090573 0.15742268 -2.054197e-19)
(-0.050955368 0.17755191 9.6348983e-20)
(-0.057195607 0.198736 1.7398857e-19)
(-0.063802838 0.22082364 -1.8716969e-19)
(-0.070762018 0.24359697 2.328772e-20)
(-0.078051572 0.26676122 -1.3405459e-19)
(-0.085644245 0.28993717 -1.010577e-19)
(-0.093509078 0.31265909 3.2323423e-19)
(-0.10161474 0.3343823 -2.471825e-19)
(-0.10993456 0.35450462 3.3184756e-19)
(-0.11845299 0.37240629 -3.9832868e-20)
(-0.12717292 0.38750974 1.6610258e-19)
(-0.13612232 0.3993563 -3.6883581e-19)
(-0.14535815 0.40768772 8.9143091e-20)
(-0.15496437 0.41251072 2.2929323e-19)
(-0.16504232 0.41411585 -5.6400309e-19)
(-0.17569267 0.41302609 2.4907422e-19)
(-0.18699211 0.40986923 2.7180295e-19)
(-0.19897225 0.40520326 -2.2766135e-19)
(-0.21163956 0.3993895 -3.0605524e-20)
(-0.22496406 0.39263406 1.5625399e-19)
(-0.23883129 0.38502931 -8.7321083e-20)
(-0.25306043 0.37655557 1.3523735e-19)
(-0.26739906 0.36708334 -4.7979076e-19)
(-0.28149004 0.3563774 2.5408174e-19)
(-0.29484826 0.3441037 1.540924e-19)
(-0.30683405 0.32982703 3.1834404e-19)
(-0.316628 0.31301636 4.249604e-20)
(-0.3232176 0.29307349 -3.4429299e-19)
(-0.32541451 0.26939971 1.3895999e-19)
(-0.32192132 0.24150694 2.0523535e-19)
(-0.31144357 0.20917938 3.1960504e-20)
(-0.29293865 0.1726452 -1.9901169e-19)
(-0.26559304 0.13256819 -1.7438032e-19)
(-0.22871294 0.089606248 5.2828155e-19)
(-0.18130418 0.044429864 2.7879586e-19)
(-0.12263741 -0.0017872089 6.0384819e-19)
(-0.052876185 -0.047323447 2.1187403e-19)
(0.027367676 -0.090827047 8.2302477e-20)
(0.11755406 -0.13190169 6.1123152e-19)
(0.21705254 -0.17060257 2.4147506e-19)
(0.32427058 -0.20640805 -8.1624952e-19)
(0.43635125 -0.23809097 6.5948918e-19)
(0.54928353 -0.26457251 -6.1014336e-19)
(0.65939977 -0.28499084 2.9448454e-19)
(0.76180894 -0.29721589 -1.4291104e-18)
(0.84773709 -0.29602379 -7.1634444e-19)
(0.90608638 -0.27657483 2.8903562e-19)
(0.93536261 -0.2397883 4.5006201e-19)
(0.94289001 -0.19457504 7.4672379e-19)
(0.94170462 -0.14985785 1.2946822e-19)
(0.93921685 -0.111297 1.014294e-19)
(0.94188047 -0.081462389 -1.0597202e-18)
(-0.0011201988 0.0034842582 -8.4497591e-22)
(-0.0034581295 0.010775592 4.4791398e-20)
(-0.0060254189 0.01881019 -5.2834786e-20)
(-0.0088405768 0.027654142 -2.5444568e-20)
(-0.011922699 0.037375949 5.100785e-20)
(-0.015290909 0.048046142 1.6539895e-20)
(-0.018964005 0.059735848 -8.0325701e-20)
(-0.022960056 0.072515103 8.6587101e-20)
(-0.027295769 0.086450502 1.8304211e-20)
(-0.031985765 0.10160211 7.3001082e-20)
(-0.03704171 0.11801944 -1.9445553e-19)
(-0.042471309 0.13573621 -2.3802014e-21)
(-0.048277177 0.15476384 1.7612526e-19)
(-0.054455606 0.17508327 -1.9013105e-19)
(-0.060995315 0.19663522 1.3704317e-19)
(-0.067876258 0.21930869 5.1231392e-20)
(-0.07506869 0.24292826 -1.0807873e-19)
(-0.082532733 0.26724091 9.8651847e-20)
(-0.090218768 0.29190398 1.3306086e-19)
(-0.098069085 0.31647702 -2.8720344e-21)
(-0.10602137 0.34042134 -2.1650318e-19)
(-0.11401422 0.3631124 1.3625808e-19)
(-0.12199514 0.38387085 -7.7354738e-20)
(-0.12993019 0.40201642 -3.8145367e-19)
(-0.13781407 0.41694542 -1.2993663e-19)
(-0.14567806 0.42822411 3.5987336e-19)
(-0.15359169 0.43567837 -3.6607473e-20)
(-0.16165482 0.43944879 4.2093363e-19)
(-0.16997789 0.43997741 -2.534359e-19)
(-0.1786536 0.43790403 1.3595192e-19)
(-0.18772929 0.43389311 -2.0022262e-19)
(-0.19720296 0.42846512 -4.9494411e-20)
(-0.20701383 0.42191471 2.5282318e-19)
(-0.21703918 0.41436279 -2.6443721e-19)
(-0.22708879 0.40580882 -3.9246097e-19)
(-0.23687259 0.39612495 4.0059884e-20)
(-0.24599116 0.38506133 4.3530583e-19)
(-0.2539142 0.37225805 -5.6369303e-19)
(-0.25995431 0.35724813 1.2314249e-19)
(-0.26325149 0.33946677 -2.6552227e-19)
(-0.26277226 0.31828832 4.1300857e-20)
(-0.25734664 0.29310647 -4.2008482e-19)
(-0.2457523 0.26346108 -2.0217605e-19)
(-0.22684457 0.2292079 -2.5136485e-19)
(-0.19974782 0.19067327 1.0138879e-18)
(-0.16378895 0.14855581 3.3042976e-19)
(-0.1183702 0.10344824 -4.3983735e-19)
(-0.062732292 0.055965341 3.5758074e-19)
(0.0031584397 0.0073552929 2.9898653e-19)
(0.078562169 -0.040568758 -3.3761702e-19)
(0.16266331 -0.086465968 -1.7682562e-19)
(0.25494355 -0.12996482 -4.1552541e-19)
(0.35465652 -0.17094064 -2.0218986e-19)
(0.45989621 -0.20861561 6.9280475e-19)
(0.56730163 -0.24157481 3.9103903e-19)
(0.672737 -0.26876713 6.3083598e-20)
(0.77282009 -0.28927244 -2.6593203e-21)
(0.86169839 -0.30045121 3.5424223e-19)
(0.92878129 -0.29689359 -5.1050141e-19)
(0.96450033 -0.27467124 -6.5936757e-19)
(0.97247322 -0.23630515 -1.839663e-19)
(0.96450034 -0.19148404 -1.3806355e-18)
(0.95451223 -0.14834416 -1.0846171e-18)
(0.94805423 -0.1115259 -2.7386075e-19)
(0.94926285 -0.082836713 -1.4442766e-19)
(-0.0011622994 0.0032469478 2.8596899e-20)
(-0.0035880496 0.010052919 1.882723e-20)
(-0.0062508348 0.017566832 -3.9175256e-20)
(-0.0091695677 0.025855379 6.7185169e-20)
(-0.012363816 0.034988653 1.6831121e-20)
(-0.015853026 0.045040289 -7.2187089e-20)
(-0.019656163 0.056086369 3.6944336e-22)
(-0.023791294 0.068204243 -4.3310139e-20)
(-0.028274877 0.081470746 1.294699e-20)
(-0.033120937 0.0959598 -2.9086905e-22)
(-0.038340072 0.1117391 7.0842495e-20)