/*--------------------------------*- C++ -*----------------------------------*\
  =========                 |
  \\      /  F ield         | OpenFOAM: The Open Source CFD Toolbox
   \\    /   O peration     | Website:  https://openfoam.org
    \\  /    A nd           | Version:  13
     \\/     M anipulation  |
\*---------------------------------------------------------------------------*/
FoamFile
{
    format      ascii;
    class       volScalarField;
    location    "16.497352";
    object      yPlus;
}
// * * * * * * * * * * * * * * * * * * * * * * * * * * * * * * * * * * * * * //

dimensions      [];

internalField   uniform 0;

boundaryField
{
    inlet
    {
        type            calculated;
        value           uniform 0;
    }
    outlet
    {
        type            calculated;
        value           uniform 0;
    }
    cylinder
    {
        type            calculated;
        value           nonuniform List<scalar> 
132
(
1.082145e-06
1.0776558e-06
1.066219e-06
1.0476292e-06
1.0219514e-06
9.8932227e-07
9.4996502e-07
9.041823e-07
8.523343e-07
7.9473759e-07
7.3182715e-07
6.6440374e-07
5.9371466e-07
5.214117e-07
4.4942691e-07
3.7976625e-07
3.1437525e-07
2.54898e-07
2.025219e-07
1.5786019e-07
1.2094857e-07
9.1347371e-08
6.8430921e-08
5.1656306e-08
4.0737323e-08
3.5024873e-08
3.2789427e-08
3.1381094e-08
2.8366672e-08
2.3395925e-08
1.7532329e-08
1.2061529e-08
7.804393e-09
5.1749823e-09
4.3872528e-09
4.9070748e-09
6.0523647e-09
7.600606e-09
9.5644411e-09
1.20015e-08
1.5050049e-08
1.8864055e-08
2.3165622e-08
2.7890843e-08
3.2902991e-08
3.8068815e-08
4.3263384e-08
4.8375445e-08
5.3327092e-08
5.8063744e-08
6.2547755e-08
6.6761786e-08
7.0683445e-08
7.428965e-08
7.7620512e-08
8.0676724e-08
8.3436741e-08
8.5909468e-08
8.809387e-08
9.0008426e-08
9.1657503e-08
9.3038445e-08
9.4142135e-08
9.4981932e-08
9.5554846e-08
9.5855565e-08
1.0795142e-06
1.0697555e-06
1.0530056e-06
1.0291589e-06
9.9832611e-07
9.6061849e-07
9.1641055e-07
8.6614465e-07
8.1022869e-07
7.4909162e-07
6.8339201e-07
6.1418306e-07
5.4292333e-07
4.7138347e-07
4.0150203e-07
3.3519039e-07
2.7417212e-07
2.197782e-07
1.7280128e-07
1.3347233e-07
1.0150189e-07
7.6304404e-08
5.7284344e-08
4.4105021e-08
3.6526182e-08
3.3476979e-08
3.2678341e-08
3.1308046e-08
2.7704729e-08
2.2212243e-08
1.62185e-08
1.0938851e-08
7.0311583e-09
4.8357739e-09
4.4481624e-09
5.1581802e-09
6.4079412e-09
8.0534511e-09
1.0124271e-08
1.2680412e-08
1.5863603e-08
1.9816849e-08
2.4237547e-08
2.9054488e-08
3.412421e-08
3.9320261e-08
4.4515332e-08
4.9600813e-08
5.4512959e-08
5.9195947e-08
6.3620725e-08
6.7772767e-08
7.1628405e-08
7.5157928e-08
7.8431541e-08
8.1412073e-08
8.4101245e-08
8.6498233e-08
8.8615363e-08
9.0459451e-08
9.2045775e-08
9.3349937e-08
9.4386514e-08
9.5153636e-08
9.5650571e-08
9.5882631e-08
)
;
    }
    frontAndBack
    {
        type            empty;
    }
}


// ************************************************************************* //
