/*--------------------------------*- C++ -*----------------------------------*\
  =========                 |
  \\      /  F ield         | OpenFOAM: The Open Source CFD Toolbox
   \\    /   O peration     | Website:  https://openfoam.org
    \\  /    A nd           | Version:  13
     \\/     M anipulation  |
\*---------------------------------------------------------------------------*/
FoamFile
{
    format      ascii;
    class       volVectorField;
    location    "39.602222";
    object      U;
}
// * * * * * * * * * * * * * * * * * * * * * * * * * * * * * * * * * * * * * //

dimensions      [0 1 -1 0 0 0 0];

internalField   nonuniform List<vector> 
17140
(
(-1.1005952e-06 7.4006307e-05 3.2702329e-23)
(-4.9007613e-06 0.00023156998 3.6199813e-24)
(-1.1265481e-05 0.00040701298 -2.3881105e-22)
(-2.095333e-05 0.00060047181 2.6233487e-22)
(-3.4859955e-05 0.00081198118 -3.0639385e-23)
(-5.4136612e-05 0.0010414785 1.0016651e-22)
(-8.0231075e-05 0.0012887989 1.6840338e-22)
(-0.00011492878 0.0015536792 -8.2055739e-23)
(-0.00016043275 0.0018357669 -2.6803745e-22)
(-0.0002194479 0.0021346402 -6.5572096e-22)
(-0.00029528305 0.0024498403 9.6913687e-22)
(-0.00039196626 0.0027809176 -8.6027215e-22)
(-0.00051437781 0.0031274957 -1.3109563e-22)
(-0.00066839883 0.0034893522 7.367031e-22)
(-0.00086107527 0.0038665184 -8.1249434e-23)
(-0.0011007933 0.0042593937 6.3793584e-22)
(-0.0013974611 0.0046688697 -2.347657e-23)
(-0.0017626865 0.0050964513 5.224904e-24)
(-0.0022099382 0.0055443572 3.636254e-22)
(-0.0027546672 0.0060155699 -4.6334383e-22)
(-0.0034143634 0.0065137986 2.187748e-22)
(-0.0042085079 0.0070433034 -4.0702145e-23)
(-0.0051583723 0.0076085252 -2.9297228e-22)
(-0.0062866061 0.0082134634 2.8362943e-22)
(-0.0076165409 0.0088607628 4.3798291e-22)
(-0.0091711317 0.0095505127 -3.4052892e-22)
(-0.010971466 0.010278856 -1.6163688e-21)
(-0.013034797 0.011036663 -1.8411746e-22)
(-0.015372173 0.01180879 1.5580921e-21)
(-0.017985922 0.012574746 3.5111887e-22)
(-0.020867659 0.013311799 1.2037819e-21)
(-0.023997852 0.014000859 -1.5162296e-21)
(-0.027348096 0.014633342 3.7648251e-22)
(-0.030886205 0.015214862 1.7006698e-22)
(-0.034582 0.015762944 1.5911247e-21)
(-0.03841076 0.016301098 -6.6051819e-22)
(-0.042353225 0.01685422 9.4625398e-22)
(-0.046393865 0.017447599 6.1274235e-22)
(-0.050519519 0.018108669 2.7118249e-22)
(-0.054719251 0.01887007 -7.9911435e-22)
(-0.058985398 0.019773259 -1.481443e-21)
(-0.063315799 0.020872443 -1.3311058e-21)
(-0.067716096 0.022238987 -5.796292e-22)
(-0.072204586 0.023966082 2.8306753e-21)
(-0.076817417 0.026171491 2.0844472e-21)
(-0.081606224 0.028998057 -5.1734339e-22)
(-0.086641558 0.03262023 3.5437248e-21)
(-0.092013969 0.037251713 1.2148554e-21)
(-0.097821697 0.043143915 -1.2478422e-21)
(-0.1041688 0.050588051 -3.0728197e-21)
(-0.11112989 0.059907245 1.9025212e-21)
(-0.11878057 0.071417519 1.2051646e-21)
(-0.12710559 0.085320267 -3.1519341e-21)
(-0.13620212 0.10143291 -1.4945941e-21)
(-0.14590303 0.11875255 -1.071233e-21)
(-0.15649376 0.13472945 8.5035542e-22)
(-0.16728131 0.1441749 -2.3476915e-21)
(-0.17895106 0.13918572 -2.0182371e-21)
(-0.18909021 0.10364964 -5.2600888e-22)
(-0.19471506 0.017584428 1.4558948e-21)
(-0.1669231 -0.13635211 9.9390257e-22)
(-0.085483761 -0.31836148 2.9482166e-21)
(0.015324511 -0.43114711 2.8383052e-22)
(0.070981293 -0.41845407 -1.7586473e-21)
(0.14364273 -0.23720676 1.2923415e-21)
(-4.3554851e-06 0.00010460036 -9.2980349e-24)
(-1.511257e-05 0.00032628907 1.2517667e-21)
(-2.9021396e-05 0.00057255007 -1.1132699e-21)
(-4.6983613e-05 0.0008441226 3.0325167e-22)
(-6.9838571e-05 0.0011417028 6.2590099e-22)
(-9.872995e-05 0.001465922 -1.1946318e-21)
(-0.00013508226 0.0018173374 1.2434954e-21)
(-0.00018064503 0.0021964276 -1.0924847e-22)
(-0.0002375687 0.002603591 3.4034295e-22)
(-0.00030848917 0.0030391496 5.7537505e-24)
(-0.00039662622 0.0035033617 1.1295262e-21)
(-0.00050589687 0.0039964414 -1.7872724e-21)
(-0.00064104564 0.0045185894 -1.4690032e-22)
(-0.00080779105 0.0050700326 1.4406777e-21)
(-0.0010129875 0.005651072 -4.3894973e-22)
(-0.0012647989 0.0062621356 -2.7603617e-22)
(-0.0015728794 0.0069038285 1.7316161e-21)
(-0.0019485506 0.0075769675 -5.5622328e-21)
(-0.0024049623 0.0082825818 3.4249302e-21)
(-0.0029572154 0.0090218506 -4.024438e-21)
(-0.0036224193 0.009795942 5.8142551e-21)
(-0.0044196451 0.010605704 -1.3898507e-21)
(-0.0053697269 0.01145116 -5.5735264e-22)
(-0.0064948498 0.01233075 1.7690056e-21)
(-0.0078178537 0.013240306 -6.1674659e-21)
(-0.0093611755 0.014171781 -8.9134407e-22)
(-0.01114536 0.015111885 4.4694644e-21)
(-0.013187107 0.016040994 -4.8481096e-21)
(-0.015496923 0.016933038 6.4288304e-22)
(-0.018076662 0.017757505 6.0909152e-21)
(-0.020917607 0.018484822 -6.0851443e-22)
(-0.024000093 0.019095166 -4.4747093e-21)
(-0.027295757 0.01958739 -1.0888223e-22)
(-0.03077244 0.019981739 3.0327943e-21)
(-0.034399775 0.020313162 -3.2110801e-21)
(-0.038152506 0.020620491 1.3736604e-21)
(-0.042010485 0.020939504 -1.5371278e-21)
(-0.045956954 0.02130233 -4.6947472e-21)
(-0.049977115 0.021740749 -1.0176668e-21)
(-0.054057846 0.022290701 -3.8765016e-21)
(-0.058188516 0.022996885 4.8902038e-21)
(-0.062362914 0.023917276 4.4633475e-21)
(-0.066581143 0.025127837 7.6457702e-22)
(-0.070853866 0.026727479 -6.1260951e-21)
(-0.075206574 0.028839649 2.9120279e-21)
(-0.079676771 0.031611205 1.0194282e-21)
(-0.084316452 0.035220006 -5.6483292e-22)
(-0.089192302 0.039880743 -1.7436682e-21)
(-0.094372184 0.045841322 8.6307099e-22)
(-0.099922905 0.053384613 -1.5560721e-21)
(-0.10587563 0.062822991 -9.4911538e-21)
(-0.11225949 0.074462197 -4.6145695e-22)
(-0.11902095 0.088506289 2.0707753e-21)
(-0.12624767 0.10477813 -4.6160607e-21)
(-0.13380392 0.12229739 3.9773314e-21)
(-0.14203781 0.13849014 -1.149762e-20)
(-0.15023364 0.14819526 -3.4368195e-21)
(-0.15917886 0.14335661 9.9496936e-21)
(-0.16640936 0.10710262 -1.8106519e-21)
(-0.16754754 0.015406237 -2.0531117e-21)
(-0.12751229 -0.15229085 -4.0236098e-22)
(-0.026922015 -0.34457601 4.5829154e-21)
(0.073619568 -0.4521019 -5.0767417e-21)
(0.11136999 -0.43300711 -5.6487186e-22)
(0.14648484 -0.26786832 -1.5954871e-21)
(-9.331142e-06 0.00013424956 -5.1164306e-22)
(-3.0508093e-05 0.00041807516 3.7785061e-22)
(-5.5867419e-05 0.00073294581 1.0043568e-22)
(-8.6329806e-05 0.0010802146 -9.5155782e-23)
(-0.00012276062 0.0014612323 4.6072588e-22)
(-0.00016631518 0.001877318 3.4241227e-23)
(-0.00021841704 0.0023297467 4.3665806e-22)
(-0.00028079964 0.0028197381 4.6968163e-22)
(-0.00035557864 0.003348443 -3.8299749e-21)
(-0.00044533236 0.0039169345 3.4105144e-21)
(-0.00055319595 0.0045261999 -1.6267215e-21)
(-0.00068296979 0.0051771362 -2.3739767e-21)
(-0.00083924467 0.0058705484 4.6840233e-21)
(-0.0010275427 0.0066071492 5.764249e-22)
(-0.0012544732 0.0073875574 -2.2080847e-21)
(-0.0015279011 0.0082122906 -1.5041146e-21)
(-0.0018571212 0.009081743 1.7249844e-21)
(-0.0022530306 0.0099961354 -6.1619595e-21)
(-0.0027282843 0.010955417 3.5850758e-21)
(-0.0032974149 0.01195909 -1.7412338e-21)
(-0.0039768863 0.013005929 5.7500894e-21)
(-0.004785047 0.014093532 1.4619469e-21)
(-0.0057419312 0.015217679 -2.9713005e-21)
(-0.0068688501 0.016371436 4.3509052e-21)
(-0.0081877021 0.017544005 1.6643916e-21)
(-0.0097199283 0.018719367 -1.9384687e-21)
(-0.011485046 0.019874927 -1.0684421e-20)
(-0.013498739 0.02098061 -4.6891987e-21)
(-0.015770586 0.021999326 2.2650946e-21)
(-0.018301723 0.022890208 -2.3523547e-21)
(-0.021083089 0.02361618 1.4153726e-21)
(-0.024095191 0.024155687 7.7388117e-21)
(-0.0273103 0.024513922 -2.4808202e-21)
(-0.030697035 0.024724989 -7.0860514e-21)
(-0.034225497 0.02484112 2.2472413e-21)
(-0.037870295 0.024916836 3.0021223e-21)
(-0.041610508 0.024999282 -4.9699305e-21)
(-0.045428012 0.025127751 -1.4558791e-21)
(-0.049306059 0.025338428 2.520838e-21)
(-0.053228877 0.025670381 9.9465882e-22)
(-0.057182254 0.026171191 -4.6976416e-21)
(-0.061155126 0.026902061 1.3145817e-21)
(-0.065141004 0.027942855 1.9261413e-21)
(-0.069141509 0.029397304 5.1901868e-21)
(-0.073169444 0.031393567 -9.9887984e-21)
(-0.077245554 0.03408155 6.5433882e-21)
(-0.081399529 0.03764138 1.6639017e-21)
(-0.08566878 0.042287447 6.7280601e-21)
(-0.090083043 0.0482629 8.1801589e-21)
(-0.094660264 0.055841368 4.2534895e-22)
(-0.099370645 0.065324757 -1.7576472e-21)
(-0.10416953 0.077012274 1.3303521e-20)
(-0.10892445 0.091122038 5.7231668e-21)
(-0.11365307 0.10750238 5.9377626e-21)
(-0.11815291 0.1252192 1.9830691e-21)
(-0.12267648 0.14166953 1.5640652e-20)
(-0.1262656 0.15176297 -6.6253609e-21)
(-0.12953413 0.14733966 2.4211104e-21)
(-0.12934576 0.11063086 1.8994352e-20)
(-0.11991088 0.012178219 8.3042482e-21)
(-0.055958085 -0.17004076 -9.5901433e-21)
(0.07134402 -0.36972324 -2.3862428e-20)
(0.16951421 -0.46526969 4.4044177e-21)
(0.18165474 -0.4375254 3.8200871e-21)
(0.18149602 -0.28454536 9.983522e-22)
(-1.5924505e-05 0.00016242058 1.7115383e-21)
(-5.0891725e-05 0.00050530034 -2.7213345e-21)
(-9.1404998e-05 0.00088539298 9.8342092e-22)
(-0.00013842318 0.0013046478 -1.0683146e-22)
(-0.00019286613 0.001765054 2.1102654e-21)
(-0.00025592599 0.0022686041 -2.1810345e-21)
(-0.00032904928 0.0028172789 3.3042177e-21)
(-0.0004139753 0.0034130298 -1.5519524e-21)
(-0.00051280355 0.0040577563 -5.8891132e-21)
(-0.00062806855 0.0047532833 1.4124321e-21)
(-0.0007628278 0.005501336 5.3634626e-21)
(-0.00092076318 0.0063035122 -1.6311169e-21)
(-0.0011062981 0.0071612507 -1.0842447e-22)
(-0.00132473 0.0080757936 4.2251058e-21)
(-0.0015823763 0.009048138 -1.3125993e-20)
(-0.0018867336 0.010078971 7.9904798e-21)
(-0.0022466411 0.01116858 7.5502264e-23)
(-0.0026724432 0.012316717 -4.3230314e-21)
(-0.0031761354 0.013522409 1.0824513e-20)
(-0.0037714751 0.014783673 -5.0260332e-21)
(-0.0044740292 0.016097108 -7.3605898e-21)
(-0.005301122 0.017457318 -2.9206717e-21)
(-0.0062716367 0.018856121 1.4129528e-20)
(-0.0074056102 0.020281515 7.2131645e-21)
(-0.0087235555 0.021716389 -4.5476637e-21)
(-0.010245439 0.023137065 2.5882977e-21)
(-0.011989258 0.024511912 -9.451483e-21)
(-0.013969196 0.025800584 2.6468154e-21)
(-0.016193478 0.026954961 -6.9523529e-21)
(-0.018662223 0.027923488 3.8212233e-21)
(-0.021365934 0.02866076 -2.2955505e-21)
(-0.024285494 0.029142126 8.1544304e-21)
(-0.027394336 0.029377491 -1.1262194e-21)
(-0.030662584 0.029413544 5.7082487e-21)
(-0.034061508 0.029319393 -5.2261581e-21)
(-0.037566061 0.02916559 -1.6048252e-21)
(-0.041154721 0.02901126 1.9134942e-20)
(-0.044807919 0.028903313 4.8220064e-21)
(-0.048506675 0.028882497 -3.8801177e-21)
(-0.052232125 0.028990866 3.7377169e-21)
(-0.055965883 0.029278494 -9.4269644e-22)
(-0.059691242 0.029809215 -5.9517275e-21)
(-0.063394091 0.030665989 2.816798e-22)
(-0.067065639 0.03195632 2.0185455e-21)
(-0.070703994 0.033811975 -9.8675767e-22)
(-0.074310511 0.036384804 4.8540749e-22)
(-0.077889137 0.03985565 1.4653766e-21)
(-0.08144246 0.044436904 -2.3243711e-20)
(-0.084954308 0.050365025 2.617432e-21)
(-0.088382025 0.057902309 -2.4634836e-21)
(-0.091616989 0.067338518 2.3368948e-20)
(-0.09451295 0.078967028 -1.2932279e-20)
(-0.096819419 0.093027938 -1.0676972e-20)
(-0.0984286 0.10940134 -1.0300643e-20)
(-0.098957068 0.12721261 -1.008306e-20)
(-0.098315751 0.14386207 -1.6309663e-20)
(-0.094984017 0.15436832 3.3923151e-20)
(-0.089091658 0.15033555 -2.2418955e-20)
(-0.076077208 0.11324768 -3.7427375e-20)
(-0.047794948 0.0065540547 3.2559324e-20)
(0.055767262 -0.19100941 9.255666e-21)
(0.21121375 -0.39213258 4.9666386e-21)
(0.30614574 -0.46895733 -1.6215346e-20)
(0.2828757 -0.42806968 -4.4964562e-21)
(0.24617265 -0.28624009 -4.5645902e-22)
(-2.4007367e-05 0.00018860882 -1.2040522e-21)
(-7.587293e-05 0.0005863969 3.9947408e-21)
(-0.00013495443 0.0010271529 -3.255065e-21)
(-0.00020227085 0.0015133979 1.2293451e-21)
(-0.00027882329 0.0020477342 4.4380059e-22)
(-0.00036586559 0.0026328049 -3.8152285e-21)
(-0.00046489135 0.0032712758 9.6510375e-22)
(-0.00057766828 0.0039658132 2.046469e-21)
(-0.00070629962 0.0047190532 1.5673602e-22)
(-0.00085329198 0.0055335678 1.3287401e-21)
(-0.0010216354 0.0064118243 -1.8556326e-21)
(-0.0012148956 0.0073561374 1.2854972e-21)
(-0.001437321 0.0083686104 4.7177539e-21)
(-0.001693963 0.0094510638 1.367847e-22)
(-0.0019908104 0.010604944 -3.5660774e-21)
(-0.0023349329 0.011831205 -2.5074433e-21)
(-0.0027346317 0.013130153 2.1387824e-21)
(-0.0031995864 0.01450124 -2.029887e-22)
(-0.003740986 0.015942773 -4.0751154e-21)
(-0.0043716268 0.017451529 -4.8940781e-21)
(-0.0051059478 0.019022229 5.4930588e-21)
(-0.005959971 0.020646823 5.425876e-21)
(-0.0069510991 0.022313558 -7.1524812e-21)
(-0.0080977148 0.024005794 8.6559828e-21)
(-0.0094185175 0.025700562 1.4649739e-20)
(-0.010931531 0.027366987 -3.3682932e-20)
(-0.012652736 0.028964829 1.8077279e-20)
(-0.014594319 0.030443797 -2.6092388e-20)
(-0.016762688 0.031744844 3.1730479e-20)
(-0.01915657 0.032805421 -3.4427141e-20)
(-0.021765839 0.03357085 3.4517543e-20)
(-0.024571826 0.034011683 -5.6084342e-21)
(-0.027549532 0.034140382 -1.8661621e-20)
(-0.030671253 0.034014398 1.0079505e-20)
(-0.033910154 0.033718941 -3.006111e-21)
(-0.037242081 0.033340889 -8.4029072e-22)
(-0.040645178 0.032952066 -9.9361073e-21)
(-0.044098415 0.032607608 -3.1324995e-21)
(-0.047580346 0.032353081 -3.0443557e-21)
(-0.051068611 0.032233423 -2.9620245e-21)
(-0.054540087 0.032300805 1.4873331e-20)
(-0.057971672 0.032621038 -6.4934625e-21)
(-0.061340645 0.033279273 -1.0343274e-21)
(-0.064626479 0.034385588 1.2029068e-20)
(-0.067810753 0.036074025 6.170555e-21)
(-0.070872675 0.038497322 -3.0916762e-21)
(-0.073787271 0.04183507 -1.1290072e-20)
(-0.076517006 0.046295334 5.0126714e-21)
(-0.078992153 0.052105301 -1.4663357e-20)
(-0.08109825 0.059512576 -8.0382108e-21)
(-0.082631127 0.06879104 -1.1213461e-20)
(-0.083318933 0.080227121 -3.0169493e-20)
(-0.082772874 0.094087919 2.3517305e-20)
(-0.080757555 0.11029148 -7.6815735e-21)
(-0.07655175 0.12798903 1.3555286e-20)
(-0.069303282 0.14447889 1.3223046e-20)
(-0.056131881 0.15510347 5.7981027e-21)
(-0.037292886 0.15123509 5.4731686e-20)
(-0.0056227958 0.11339631 1.6058627e-20)
(0.053239032 -0.0039819753 -4.14503e-20)
(0.20555563 -0.21496496 -1.576446e-20)
(0.37854453 -0.41117316 6.9125421e-21)
(0.46879312 -0.45825082 7.8929889e-21)
(0.41379236 -0.40140683 3.9422661e-21)
(0.33908891 -0.27091424 6.6881906e-23)
(-3.339703e-05 0.00021232374 -3.6658983e-21)
(-0.00010488756 0.00065984853 -1.2930196e-21)
(-0.00018553531 0.0011555796 1.0463423e-21)
(-0.0002764393 0.0017025773 3.8615115e-21)
(-0.0003787072 0.0023040231 -2.1141858e-21)
(-0.00049367858 0.0029631783 3.0401769e-21)
(-0.00062291775 0.0036833644 -1.3139717e-21)
(-0.00076824364 0.0044679367 -3.1255189e-22)
(-0.00093178422 0.005320248 1.7659899e-21)
(-0.0011160362 0.0062436055 3.798303e-21)
(-0.0013239358 0.0072412171 1.9040416e-22)
(-0.0015589402 0.0083161264 -6.2099314e-21)
(-0.0018251219 0.0094711311 8.5600633e-21)
(-0.0021272751 0.010708682 -1.3761147e-20)
(-0.0024710337 0.012030752 3.5771863e-21)
(-0.0028629983 0.013438673 -7.552985e-21)
(-0.0033108674 0.014932923 9.0624563e-21)
(-0.0038235646 0.016512841 -5.8339398e-21)
(-0.0044113514 0.018176262 9.116205e-22)
(-0.0050859047 0.019919026 3.6551297e-21)
(-0.0058603364 0.021734335 -8.7651377e-21)
(-0.0067491209 0.023611915 1.2181808e-20)
(-0.007767885 0.025536934 -1.3026854e-20)
(-0.0089330101 0.02748866 -2.1990935e-21)
(-0.010260983 0.029438867 2.1162271e-20)
(-0.011767438 0.031350099 -2.0967545e-20)
(-0.013465852 0.033174105 1.3352396e-20)
(-0.01536591 0.034851136 -1.4672665e-20)
(-0.0174717 0.036311468 -1.3706768e-21)
(-0.019780108 0.037481327 -8.3814012e-22)
(-0.022280054 0.038295763 5.412598e-21)
(-0.024953222 0.03871856 -3.5743539e-22)
(-0.027776405 0.038762065 1.9176944e-20)
(-0.030724635 0.038492047 -4.986099e-21)
(-0.033773689 0.038008605 -1.4335864e-20)
(-0.036900938 0.037415074 6.4085398e-21)
(-0.040084559 0.036796807 -5.0564566e-21)
(-0.043302137 0.036217937 4.900411e-21)
(-0.046529591 0.03572923 2.6569919e-20)
(-0.04974071 0.035378476 -1.438614e-20)
(-0.052907113 0.035219537 -3.4895685e-21)
(-0.055998597 0.035319497 1.9641826e-20)
(-0.058982898 0.035764707 -1.1270749e-21)
(-0.061826519 0.036666484 -2.4145413e-21)
(-0.064492848 0.038159663 -2.6458385e-20)
(-0.066936561 0.040396372 -6.1981066e-21)
(-0.069099989 0.043553094 9.8436667e-21)
(-0.070901225 0.047830556 1.0163956e-20)
(-0.072209797 0.053443282 1.4566928e-20)
(-0.072829516 0.060619665 1.8083391e-20)
(-0.072446305 0.069612364 1.1079969e-20)
(-0.070647012 0.080698899 1.7421181e-20)
(-0.066922725 0.0941989 -5.9791231e-21)
(-0.060909376 0.10998457 3.7430052e-20)
(-0.050976136 0.12719483 2.6304594e-21)
(-0.035325071 0.14300028 2.3779924e-21)
(-0.0099439517 0.15322638 1.5671992e-21)
(0.025468265 0.14888698 -6.0255286e-20)
(0.080765382 0.10852874 -2.7578536e-20)
(0.18262557 -0.020401957 4.755213e-20)
(0.37775083 -0.23971385 6.455925e-20)
(0.55110949 -0.42513743 2.0045839e-20)
(0.62448681 -0.44140344 3.1349721e-21)
(0.56296689 -0.35890391 -2.6714965e-21)
(0.45413166 -0.23725944 -1.4653875e-21)
(-4.3856957e-05 0.0002331127 6.9202213e-22)
(-0.00013720718 0.00072425512 2.1978651e-21)
(-0.00024188075 0.0012682286 -5.3026097e-21)
(-0.00035907528 0.0018685921 1.9700017e-22)
(-0.00049002795 0.0025290633 2.5788551e-21)
(-0.00063618651 0.003253481 1.1358043e-21)
(-0.00079920867 0.0040457836 8.3787732e-22)
(-0.00098098713 0.0049099809 -1.6491823e-21)
(-0.0011836963 0.0058501135 8.5254429e-21)
(-0.0014098431 0.0068702035 -6.4219069e-21)
(-0.0016623273 0.0079741909 3.1002383e-22)
(-0.0019445105 0.0091658546 3.86828e-21)
(-0.0022602966 0.010448713 -1.4425223e-20)
(-0.0026142219 0.011825897 1.4321468e-20)
(-0.0030115543 0.013299989 -1.8986631e-21)
(-0.0034583997 0.014872818 -1.1682533e-20)
(-0.0039618114 0.016545194 1.0911353e-20)
(-0.0045298937 0.018316563 -3.78291e-21)
(-0.0051718894 0.020184561 7.2800137e-21)
(-0.0058982345 0.022144439 -9.2400138e-21)
(-0.0067205551 0.024188303 -1.7129806e-20)
(-0.007651576 0.026304155 1.671154e-20)
(-0.0087048994 0.028474669 2.4086295e-20)
(-0.0098946034 0.030675688 -4.5626349e-20)
(-0.011234606 0.032874458 3.5872543e-20)
(-0.01273774 0.035027718 -2.0388437e-20)
(-0.014414516 0.037079975 5.1406952e-21)
(-0.01627161 0.038962703 -1.188524e-20)
(-0.018310257 0.04059592 1.188013e-20)
(-0.020524974 0.041894541 1.5637902e-20)
(-0.022903255 0.042782368 -1.0121954e-20)
(-0.025426829 0.043214267 -1.6304077e-20)
(-0.02807428 0.043199338 1.3804836e-21)
(-0.030823759 0.042808567 5.5404214e-22)
(-0.033654342 0.042155132 9.3895623e-21)
(-0.036545627 0.041358723 -3.8996967e-21)
(-0.039476314 0.040519096 -1.3752385e-20)
(-0.042422791 0.03971033 -6.7025817e-21)
(-0.045358261 0.03898894 9.9266098e-21)
(-0.048252366 0.038405613 -7.6549354e-21)
(-0.051071005 0.03801552 6.4485778e-21)
(-0.05377622 0.037886274 -2.1199101e-21)
(-0.056325351 0.038104358 -8.1720733e-21)
(-0.05867079 0.038780886 1.9704006e-20)
(-0.060756074 0.040049774 1.1842254e-20)
(-0.062509531 0.042060834 7.7859036e-21)
(-0.06383728 0.044985282 -2.4824019e-20)
(-0.064608792 0.049013199 -1.6258215e-20)
(-0.064626817 0.054342581 -1.922716e-20)
(-0.063605069 0.061177348 -3.3755586e-20)
(-0.061108461 0.06974365 1.1680616e-20)
(-0.056570625 0.080332626 -2.4905816e-21)
(-0.049466164 0.093256635 -1.9770817e-20)
(-0.038724685 0.10829062 -5.9011669e-20)
(-0.021647091 0.12448557 -3.9938597e-20)
(0.0045988021 0.13896549 -1.6358648e-20)
(0.043920724 0.1480698 -5.0363964e-20)
(0.097771855 0.14220797 3.6903878e-20)
(0.18100991 0.096704777 -4.9924183e-21)
(0.33098027 -0.04283933 -7.7259417e-20)
(0.55825607 -0.26190723 -4.9303683e-20)
(0.71742909 -0.42950706 -1.5881603e-21)
(0.75327009 -0.42253541 2.0380503e-20)
(0.69577243 -0.31325505 -3.800875e-22)
(0.58169174 -0.18874015 -2.2224444e-21)
(-5.5102385e-05 0.00025057916 2.7313999e-21)
(-0.00017195467 0.00077838891 -1.8413128e-21)
(-0.00030246473 0.0013629546 2.4862665e-21)
(-0.00044794542 0.0020082853 1.4123984e-21)
(-0.00060978312 0.0027185836 -3.9388587e-21)
(-0.00078955391 0.0034982162 -3.6741821e-21)
(-0.00098902995 0.0043516904 3.7665655e-21)
(-0.0012101994 0.0052836268 -4.5277473e-22)
(-0.0014553052 0.0062987155 -1.0472084e-22)
(-0.001726886 0.007401664 -7.427964e-21)
(-0.0020278261 0.0085971268 8.1260637e-22)
(-0.0023614106 0.0098896169 1.4907488e-20)
(-0.0027313907 0.011283392 -1.1881815e-20)
(-0.0031420556 0.012782311 4.0776173e-22)
(-0.0035983116 0.014389644 7.8970457e-21)
(-0.0041057655 0.016107837 6.7579012e-22)
(-0.0046708083 0.017938203 -1.707822e-21)
(-0.0053006916 0.019880524 -7.6367146e-21)
(-0.0060035867 0.021932539 1.3863552e-20)
(-0.0067886094 0.024089283 -2.4120502e-20)
(-0.0076657901 0.026342235 5.1390509e-21)
(-0.0086459567 0.028678236 -3.7256719e-21)
(-0.0097404949 0.03107813 3.0147189e-21)
(-0.010960937 0.033515101 -1.2703112e-22)
(-0.012318334 0.035952725 1.7292408e-20)
(-0.013822354 0.038342862 1.693229e-20)
(-0.015480119 0.040623724 -3.290259e-20)
(-0.017294799 0.042718885 -5.3796243e-21)
(-0.019264224 0.044538749 1.8345034e-20)
(-0.021379934 0.04598703 6.3813412e-21)
(-0.023627376 0.046975438 1.4157625e-20)
(-0.025987779 0.047447726 -1.5541995e-20)
(-0.028441221 0.047406247 -6.6132647e-21)
(-0.030969117 0.046923417 1.4837831e-20)
(-0.033554418 0.046122979 -6.0109005e-21)
(-0.036179716 0.045140462 -2.7954084e-21)
(-0.038824864 0.044090884 7.7334098e-21)
(-0.041465377 0.043059407 1.967746e-20)
(-0.044071771 0.042109028 5.8464625e-21)
(-0.046609335 0.041293498 -3.7862076e-21)
(-0.049037841 0.040668954 -8.920136e-21)
(-0.051310999 0.040302774 -9.1964159e-21)
(-0.053374966 0.040280434 -1.0184726e-20)
(-0.055166951 0.040711277 -2.1473049e-20)
(-0.056609199 0.041726506 6.365838e-22)
(-0.057601683 0.043471709 -9.2024282e-21)
(-0.058011833 0.046110154 5.0817909e-20)
(-0.057656019 0.049818073 1.4222545e-20)
(-0.056264769 0.054772579 1.636791e-20)
(-0.053453874 0.061146713 4.5634714e-20)
(-0.048647288 0.069137435 -5.3558606e-20)
(-0.041167434 0.079061028 1.1995145e-20)
(-0.030326496 0.091135652 3.8967896e-20)
(-0.013720048 0.10491045 4.8788586e-20)
(0.012033249 0.11938981 6.3276423e-21)
(0.05091525 0.1320555 -1.6530948e-20)
(0.10536791 0.13941368 -2.8213962e-20)
(0.17761533 0.13064651 1.2940697e-20)
(0.29270436 0.077148133 -2.7064431e-20)
(0.49114839 -0.070458107 2.4704434e-20)
(0.73923771 -0.27944871 6.9083544e-21)
(0.86896284 -0.4223255 1.2814125e-20)
(0.85584683 -0.39946366 -2.6060955e-20)
(0.78378555 -0.27719273 -3.8664192e-22)
(0.70275379 -0.13726959 4.7447443e-21)
(-6.6808135e-05 0.00026439799 -2.5649673e-21)
(-0.00020812815 0.00082124256 -6.8666546e-22)
(-0.00036554392 0.0014379955 7.5412135e-22)
(-0.00054049765 0.0021190606 3.7043344e-21)
(-0.00073454085 0.0028690667 -4.4392073e-21)
(-0.00094939524 0.00369285 3.7659581e-21)
(-0.0011869662 0.0045954309 1.7977264e-21)
(-0.0014493576 0.0055819873 -9.6222152e-23)
(-0.0017389028 0.0066578116 -1.5126032e-21)
(-0.0020581956 0.0078282572 -8.5828498e-21)
(-0.0024101284 0.0090986652 1.4370697e-20)
(-0.0027979347 0.010474271 -1.7207592e-20)
(-0.0032252375 0.011960083 5.0320714e-21)
(-0.0036961023 0.013560722 6.7953895e-21)
(-0.0042150949 0.015280219 -1.0359579e-20)
(-0.0047873399 0.017121752 2.0275858e-20)
(-0.0054185761 0.019087305 -2.437091e-20)
(-0.0061152034 0.021177226 -3.8036509e-22)
(-0.0068843088 0.023389664 -1.3686364e-20)
(-0.0077336578 0.025719832 5.3668011e-20)
(-0.0086716302 0.028159077 -1.2823084e-20)
(-0.009707072 0.030693684 -5.2302507e-20)
(-0.010849029 0.03330339 2.4344771e-20)
(-0.012106317 0.035959566 2.8582529e-20)
(-0.013486889 0.038623085 -7.0658415e-21)
(-0.01499696 0.041241991 -3.6373514e-20)
(-0.016639883 0.043749323 5.4164769e-20)
(-0.01841487 0.046061843 -5.9036104e-20)
(-0.020315783 0.048081228 4.5647141e-20)
(-0.022330515 0.049700372 -8.5723438e-21)
(-0.024441698 0.050818314 1.4434119e-20)
(-0.026629255 0.0513656 2.0099724e-20)
(-0.028874129 0.051334126 -7.6599473e-21)
(-0.031160811 0.050793302 -1.8965311e-21)
(-0.033476522 0.04987408 -2.6721152e-20)
(-0.035807629 0.048726727 4.9669143e-21)
(-0.038135906 0.047482241 -1.2398916e-20)
(-0.040436505 0.046238163 1.0231132e-20)
(-0.04267742 0.045064927 -5.8059754e-21)
(-0.044819474 0.044019679 -3.7658215e-21)
(-0.046815988 0.04315925 -3.2055001e-21)
(-0.048611819 0.04255002 -3.1293014e-21)
(-0.050141221 0.042275258 1.9194911e-20)
(-0.051325191 0.042440876 1.5274874e-20)
(-0.052063321 0.043173396 -4.2759151e-21)
(-0.052225417 0.044612184 2.8027741e-21)
(-0.051637362 0.046909796 -1.1666976e-20)
(-0.050058419 0.050224912 2.3458319e-20)
(-0.047141375 0.054709261 2.7499946e-20)
(-0.042394383 0.06049532 8.0040634e-21)
(-0.03507499 0.067771288 2.1166513e-20)
(-0.024478495 0.07682108 -6.7715105e-22)
(-0.0091142712 0.087623957 -1.0415638e-20)
(0.014591796 0.099538991 -5.1131783e-20)
(0.050789771 0.11162279 2.5937014e-20)
(0.10320463 0.12208391 -1.0643233e-20)
(0.17190887 0.1274419 3.2955984e-20)
(0.26416187 0.11378452 -6.1633704e-20)
(0.41633804 0.050110578 3.9577849e-20)
(0.66332927 -0.10075719 -1.4193718e-20)
(0.91174928 -0.29016438 1.1023282e-22)
(0.99258643 -0.40024829 -7.3421873e-21)
(0.93114513 -0.36754872 -9.3946533e-21)
(0.83573507 -0.25085593 4.0122813e-21)
(0.78414648 -0.10313582 7.9975217e-21)
(-7.8618859e-05 0.0002743417 5.7302989e-21)
(-0.00024464468 0.00085210499 3.9400716e-21)
(-0.00042922706 0.001492106 -6.1829028e-21)
(-0.00063396368 0.0021990765 1.6267288e-22)
(-0.0008605763 0.002978008 5.584048e-21)
(-0.0011109471 0.0038341404 2.9176291e-21)
(-0.0013871304 0.0047729426 -6.1441332e-21)
(-0.0016913646 0.0058000873 1.0076963e-21)
(-0.0020260938 0.0069214118 -1.4190367e-20)
(-0.0023939907 0.0081428648 2.7613323e-21)
(-0.0027979831 0.0094704351 7.0679868e-23)
(-0.0032412823 0.010910057 -1.0113037e-20)
(-0.003727416 0.012467483 3.2316602e-20)
(-0.004260262 0.014148122 -1.5007651e-20)
(-0.0048440832 0.015956823 -2.6780075e-20)
(-0.0054835608 0.017897597 2.8401672e-20)
(-0.0061838207 0.019973253 -3.4773577e-21)
(-0.0069504472 0.022184928 1.9617316e-20)
(-0.0077894741 0.024531479 1.4459682e-20)
(-0.0087073375 0.027008693 -4.508693e-20)
(-0.0097107728 0.029608282 3.3516378e-20)
(-0.010806628 0.032316598 -4.3636082e-20)
(-0.012001561 0.035113031 5.0648796e-21)
(-0.013301582 0.037968041 -2.0432108e-20)
(-0.014711405 0.040840842 4.3805832e-20)
(-0.016233575 0.043676846 -1.0232065e-20)
(-0.01786738 0.046405198 -2.5456036e-20)
(-0.019607663 0.048937143 6.0587907e-20)
(-0.021443776 0.05116679 -2.5904889e-20)
(-0.023359258 0.052976935 -2.7447401e-20)
(-0.025333025 0.054253731 2.2269529e-20)
(-0.027342646 0.054912742 2.9199526e-21)
(-0.029368915 0.054931686 -1.4318183e-20)
(-0.031398791 0.054371993 7.6931057e-21)
(-0.033423865 0.053367528 -1.1478931e-20)
(-0.035435009 0.052081391 3.9010749e-20)
(-0.037416831 0.050660968 -1.9861523e-20)
(-0.039344816 0.049217588 -1.1640073e-20)
(-0.041184784 0.047830319 -2.3348689e-20)
(-0.042893099 0.046560237 -3.1362268e-21)
(-0.044416378 0.0454647 2.4143066e-20)
(-0.045690143 0.044608352 -9.6423276e-21)
(-0.046636035 0.044071029 -1.4237725e-20)
(-0.047157769 0.043953465 -2.1745356e-21)
(-0.047130884 0.044375421 1.4199679e-20)
(-0.046393266 0.045467817 1.2593898e-20)
(-0.044725113 0.047370057 -3.8744651e-20)
(-0.041824521 0.050219265 -2.0722811e-20)
(-0.037259983 0.054136724 -4.5351977e-20)
(-0.030407984 0.059207392 -1.6026469e-20)
(-0.020378046 0.065621485 -6.2332847e-21)
(-0.0062829044 0.073509411 -4.6237366e-20)
(0.014745156 0.082552327 -1.8348363e-20)
(0.047051765 0.091961349 6.2241965e-20)
(0.094964292 0.10120473 -5.0180778e-20)
(0.15952508 0.109031 4.6988424e-20)
(0.24289976 0.11187925 -2.3348159e-20)
(0.36102601 0.091429278 1.2474914e-19)
(0.56125817 0.0168967 6.7823942e-20)
(0.84764876 -0.12888072 -2.6630053e-20)
(1.0616796 -0.28952719 -3.6616874e-20)
(1.0772948 -0.37014747 -4.1030001e-20)
(0.97768965 -0.32935534 -2.6648939e-21)
(0.87194741 -0.22662312 -7.8460861e-22)
(0.8240689 -0.091428526 -1.0038741e-20)
(-9.0169791e-05 0.00028028462 1.0392533e-22)
(-0.00028037239 0.00087058208 -7.3934876e-21)
(-0.00049154666 0.0015245893 8.7120321e-21)
(-0.00072545969 0.0022472964 4.1900625e-21)
(-0.00098400853 0.0030439877 -8.3864191e-21)
(-0.0012692456 0.003920236 -2.713956e-21)
(-0.001583387 0.0048818867 1.3148161e-20)
(-0.0019288211 0.0059350376 -1.4130324e-20)
(-0.002308123 0.0070860035 -2.9759355e-21)
(-0.0027240679 0.008341268 -1.1814455e-20)
(-0.0031796475 0.009707416 3.1295973e-20)
(-0.0036780856 0.011191041 3.7982722e-22)
(-0.0042228548 0.012798623 -2.7919293e-20)
(-0.0048176918 0.014536362 2.9838834e-20)
(-0.0054666103 0.016409962 -2.124915e-20)
(-0.0061739083 0.018424345 -7.8305655e-21)
(-0.0069441649 0.02058328 1.6242875e-20)
(-0.0077822203 0.022888886 -1.4535896e-20)
(-0.0086931288 0.025341002 -1.9171638e-20)
(-0.0096820708 0.027936359 4.0287514e-22)
(-0.010754205 0.030667518 2.956051e-20)
(-0.011914438 0.03352151 -1.8047791e-20)
(-0.013167074 0.036478137 9.9207614e-21)
(-0.014515319 0.039507869 4.7280338e-20)
(-0.015960597 0.042569358 1.55827e-20)
(-0.017501666 0.045606646 -4.1685542e-20)
(-0.019133543 0.048546391 4.1069644e-21)
(-0.020846364 0.051295819 -4.5738041e-20)
(-0.022624476 0.053742902 2.6693795e-20)
(-0.024446345 0.055761445 -1.3928113e-20)
(-0.026286181 0.057224995 1.9906396e-20)
(-0.028117919 0.05803287 4.7897667e-21)
(-0.029920827 0.058145171 -2.3638737e-20)
(-0.031683207 0.057610024 2.3847466e-20)
(-0.033400686 0.056559018 3.4232495e-20)
(-0.03506922 0.05516513 -3.1924401e-21)
(-0.036677249 0.053591968 -3.5039567e-20)
(-0.038201518 0.05196606 4.3775753e-20)
(-0.03960623 0.05037654 -9.2257268e-21)
(-0.040843431 0.04888919 1.9516047e-20)
(-0.041852841 0.047561888 -3.0240755e-21)
(-0.042560159 0.046456869 3.0151963e-20)
(-0.042873606 0.045649303 1.4481181e-20)
(-0.04267835 0.045233024 1.8237492e-20)
(-0.041824243 0.045319123 -7.4366091e-20)
(-0.040115425 0.046026363 -2.4647086e-20)
(-0.037277516 0.047479741 3.3166233e-20)
(-0.032944966 0.049791592 -2.7240667e-20)
(-0.026586301 0.053043165 -2.2982505e-20)
(-0.017396532 0.057279375 2.608489e-20)
(-0.0043788852 0.062647061 1.3673977e-20)
(0.014047812 0.069006923 3.2199386e-20)
(0.042215139 0.07577139 1.5574153e-20)