/*--------------------------------*- C++ -*----------------------------------*\
  =========                 |
  \\      /  F ield         | OpenFOAM: The Open Source CFD Toolbox
   \\    /   O peration     | Website:  https://openfoam.org
    \\  /    A nd           | Version:  13
     \\/     M anipulation  |
\*---------------------------------------------------------------------------*/
FoamFile
{
    format      ascii;
    class       volScalarField;
    location    "25.695854";
    object      p;
}
// * * * * * * * * * * * * * * * * * * * * * * * * * * * * * * * * * * * * * //

dimensions      [0 2 -2 0 0 0 0];

internalField   nonuniform List<scalar> 
17140
(
-0.25579448
-0.25580565
-0.25581895
-0.25583305
-0.25584851
-0.25586556
-0.25588432
-0.25590489
-0.25592743
-0.25595204
-0.25597888
-0.25600806
-0.25603968
-0.25607387
-0.25611068
-0.2561502
-0.25619245
-0.25623746
-0.25628522
-0.25633573
-0.25638904
-0.25644525
-0.25650468
-0.25656802
-0.25663658
-0.25671277
-0.25680079
-0.25690763
-0.2570444
-0.25722759
-0.25747942
-0.25782568
-0.25828961
-0.25888298
-0.25959821
-0.26040671
-0.26126422
-0.26212013
-0.2629264
-0.26364366
-0.26424435
-0.26471303
-0.26504496
-0.26524228
-0.2653086
-0.26525128
-0.26507165
-0.26475454
-0.26426637
-0.26356436
-0.26255337
-0.26114766
-0.25910314
-0.25633009
-0.25223011
-0.24704411
-0.23937101
-0.23093995
-0.21854626
-0.20903879
-0.19270677
-0.18650896
-0.16445353
-0.16417937
-0.13089918
-0.25645625
-0.25646738
-0.25648091
-0.25649487
-0.25651014
-0.25652703
-0.2565456
-0.25656597
-0.25658828
-0.25661266
-0.25663924
-0.25666813
-0.25669945
-0.2567333
-0.25676976
-0.25680888
-0.2568507
-0.25689525
-0.25694251
-0.2569925
-0.25704525
-0.25710088
-0.25715972
-0.25722246
-0.25729045
-0.25736613
-0.25745374
-0.25756033
-0.25769705
-0.25788046
-0.25813281
-0.25847995
-0.25894526
-0.25954075
-0.26025935
-0.26107309
-0.26193849
-0.2628058
-0.2636279
-0.26436648
-0.26499518
-0.26550001
-0.26587804
-0.2661334
-0.26627251
-0.26630621
-0.26623897
-0.26605973
-0.26573869
-0.26523602
-0.26445496
-0.26330081
-0.26150585
-0.25892624
-0.25487897
-0.24941912
-0.24099756
-0.23106725
-0.21619753
-0.20355091
-0.18338298
-0.17401662
-0.1498971
-0.15080159
-0.12205625
-0.25722623
-0.25723707
-0.25725022
-0.25726381
-0.25727871
-0.25729517
-0.25731328
-0.25733315
-0.25735492
-0.25737871
-0.25740465
-0.25743284
-0.25746341
-0.25749644
-0.25753202
-0.2575702
-0.25761102
-0.2576545
-0.25770062
-0.2577494
-0.25780087
-0.25785516
-0.25791261
-0.25797391
-0.25804042
-0.25811457
-0.25820062
-0.25830556
-0.25844049
-0.2586218
-0.25887157
-0.25921546
-0.25967685
-0.26026809
-0.26098287
-0.26179434
-0.26266029
-0.26353226
-0.26436439
-0.26511963
-0.26577295
-0.26631187
-0.26673523
-0.26704921
-0.26726321
-0.26739147
-0.26744192
-0.26740809
-0.26726491
-0.26697598
-0.26644473
-0.26556882
-0.26405743
-0.26171424
-0.25777254
-0.2520662
-0.24283038
-0.23130485
-0.2138479
-0.19790721
-0.1739452
-0.1614252
-0.13539592
-0.13776799
-0.11298163
-0.258102
-0.25811236
-0.25812491
-0.25813794
-0.25815221
-0.25816799
-0.25818536
-0.25820443
-0.25822531
-0.25824814
-0.25827303
-0.25830011
-0.25832946
-0.25836118
-0.25839536
-0.25843204
-0.25847125
-0.25851302
-0.25855733
-0.2586042
-0.25865367
-0.25870586
-0.2587611
-0.25882011
-0.25888421
-0.25895584
-0.25903917
-0.25914108
-0.25927246
-0.25944937
-0.25969346
-0.26002996
-0.2604821
-0.26106261
-0.26176625
-0.26256772
-0.26342662
-0.26429622
-0.26513227
-0.26589921
-0.26657345
-0.26714405
-0.26761163
-0.26798439
-0.26827496
-0.26850098
-0.26867396
-0.26879283
-0.26883801
-0.26877772
-0.26851677
-0.2679475
-0.26675631
-0.26469221
-0.26087012
-0.25496131
-0.24492189
-0.23169551
-0.21149222
-0.19209474
-0.16446308
-0.14897432
-0.12116829
-0.12562187
-0.10490497
-0.25907878
-0.2590885
-0.25910022
-0.25911246
-0.25912588
-0.25914072
-0.25915706
-0.259175
-0.25919466
-0.25921616
-0.25923961
-0.25926513
-0.2592928
-0.25932272
-0.25935495
-0.25938956
-0.25942657
-0.259466
-0.25950784
-0.2595521
-0.25959882
-0.25964814
-0.25970038
-0.25975624
-0.25981704
-0.25988514
-0.25996461
-0.26006215
-0.26018828
-0.26035854
-0.26059392
-0.26091898
-0.26135663
-0.26192001
-0.26260518
-0.26338888
-0.264233
-0.26509303
-0.26592667
-0.26670007
-0.26739122
-0.26799075
-0.268501
-0.26893229
-0.26930056
-0.26962697
-0.26992662
-0.27020485
-0.27044833
-0.27063128
-0.27066156
-0.27042842
-0.26959691
-0.26785774
-0.26421422
-0.25812735
-0.24725683
-0.23221283
-0.20909041
-0.18609635
-0.15494251
-0.13674799
-0.10804131
-0.11486511
-0.098218884
-0.26014861
-0.2601575
-0.26016819
-0.26017943
-0.26019176
-0.2602054
-0.26022043
-0.26023694
-0.26025504
-0.26027485
-0.26029647
-0.26032
-0.26034554
-0.26037316
-0.26040293
-0.26043491
-0.26046912
-0.26050558
-0.26054429
-0.26058525
-0.26062852
-0.26067421
-0.26072267
-0.26077457
-0.26083119
-0.26089481
-0.26096935
-0.26106123
-0.26118051
-0.26134204
-0.26156588
-0.26187571
-0.2622939
-0.26283402
-0.26349362
-0.2642519
-0.26507353
-0.26591669
-0.26674139
-0.26751575
-0.26821944
-0.26884475
-0.26939567
-0.2698847
-0.27033125
-0.27075975
-0.27118943
-0.27163278
-0.27208348
-0.27252338
-0.27286537
-0.27299829
-0.27256671
-0.27120326
-0.26778918
-0.2615548
-0.24983213
-0.23282409
-0.20658442
-0.17982645
-0.14529147
-0.1248024
-0.095826954
-0.10580478
-0.093005001
-0.26130024
-0.26130815
-0.26131761
-0.26132764
-0.26133867
-0.26135087
-0.26136432
-0.26137911
-0.26139535
-0.26141312
-0.26143253
-0.26145367
-0.26147663
-0.26150149
-0.2615283
-0.26155712
-0.26158797
-0.26162086
-0.26165581
-0.26169282
-0.26173195
-0.26177332
-0.26181725
-0.26186442
-0.26191603
-0.2619743
-0.26204292
-0.26212799
-0.26223898
-0.26238989
-0.26259967
-0.26289085
-0.2632851
-0.26379629
-0.26442367
-0.26514919
-0.2659408
-0.26675981
-0.26756894
-0.26833852
-0.26905006
-0.26969755
-0.2702866
-0.27083196
-0.27135655
-0.27188781
-0.27244986
-0.27306279
-0.27372812
-0.27443689
-0.27510938
-0.27563678
-0.27564351
-0.27470286
-0.27157166
-0.26521986
-0.2526091
-0.23346542
-0.20381554
-0.1732187
-0.13538142
-0.11303431
-0.084990882
-0.098203252
-0.088644711
-0.26251933
-0.26252612
-0.2625342
-0.26254285
-0.26255237
-0.26256292
-0.26257455
-0.26258736
-0.26260143
-0.26261685
-0.26263371
-0.2626521
-0.26267209
-0.26269375
-0.26271714
-0.2627423
-0.26276927
-0.26279805
-0.26282866
-0.26286111
-0.26289546
-0.26293184
-0.26297058
-0.2630123
-0.26305817
-0.26311028
-0.26317211
-0.26324934
-0.26335079
-0.26348949
-0.26368308
-0.2639527
-0.26431913
-0.26479642
-0.26538554
-0.26607149
-0.26682589
-0.26761362
-0.2684005
-0.26915935
-0.26987368
-0.27053925
-0.27116331
-0.27176284
-0.27236421
-0.27299782
-0.27369316
-0.27447836
-0.27536346
-0.27635022
-0.27736869
-0.2783142
-0.27879033
-0.27831442
-0.27551652
-0.26906864
-0.25552046
-0.2339802
-0.20089984
-0.166122
-0.12519934
-0.10145063
-0.075020278
-0.09166721
-0.085141743
-0.26378834
-0.26379391
-0.26380055
-0.26380766
-0.2638155
-0.2638242
-0.26383381
-0.26384441
-0.26385607
-0.26386888
-0.2638829
-0.26389821
-0.26391488
-0.26393297
-0.26395254
-0.26397362
-0.26399625
-0.26402043
-0.2640462
-0.26407356
-0.26410258
-0.2641334
-0.26416634
-0.264202
-0.26424149
-0.26428676
-0.26434105
-0.2644096
-0.26450052
-0.26462573
-0.26480144
-0.26504722
-0.26538272
-0.26582199
-0.26636768
-0.26700796
-0.26771845
-0.26846804
-0.26922602
-0.269968
-0.27067968
-0.27135865
-0.27201385
-0.27266455
-0.27334019
-0.27407436
-0.2749021
-0.27585993
-0.27696679
-0.27823637
-0.27961031
-0.28098701
-0.28195114
-0.28197067
-0.27954444
-0.27299064
-0.25839183
-0.23414181
-0.1971064
-0.15768792
-0.11458869
-0.090016558
-0.06597393
-0.086052981
-0.081437027
-0.26508772
-0.26509198
-0.26509705
-0.26510251
-0.26510854
-0.26511525
-0.26512268
-0.2651309
-0.26513996
-0.26514993
-0.26516088
-0.26517286
-0.26518594
-0.26520016
-0.26521558
-0.26523223
-0.26525014
-0.26526934
-0.26528983
-0.26531165
-0.26533488
-0.26535965
-0.26538628
-0.26541534
-0.2654479
-0.26548574
-0.26553187
-0.26559105
-0.26567063
-0.26578139
-0.26593798
-0.26615829
-0.26646057
-0.26685869
-0.26735677
-0.26794619
-0.26860677
-0.26931175
-0.27003428
-0.27075307
-0.27145623
-0.27214329
-0.27282495
-0.27352279
-0.27426871
-0.27509986
-0.27605693
-0.27718465
-0.27851081
-0.28006172
-0.28178986
-0.28359309
-0.28504606
-0.28557587
-0.28352373
-0.27680631
-0.26105694
-0.233714
-0.1933273
-0.14938036
-0.10460154
-0.079523331
-0.058660735
-0.081190754
-0.077960156
-0.26639529
-0.26639818
-0.26640163
-0.26640536
-0.2664095
-0.26641413
-0.26641928
-0.26642499
-0.26643133
-0.26643833
-0.26644605
-0.26645453
-0.26646382
-0.26647397
-0.26648502
-0.266497
-0.26650994
-0.26652385
-0.26653878
-0.26655474
-0.26657183
-0.2665902
-0.26661015
-0.26663224
-0.26665745
-0.26668744
-0.26672495
-0.26677427
-0.266842
-0.26693771
-0.26707448
-0.26726837
-0.26753606
-0.26789093
-0.26833836
-0.26887272
-0.26947817
-0.27013253
-0.27081318
-0.27150227
-0.27219058
-0.27287965
-0.27358205
-0.27432175
-0.27513221
-0.27605462
-0.27713508
-0.27842589
-0.2799629
-0.2817838
-0.28384659
-0.28605016
-0.2879721
-0.2889827
-0.28725573
-0.28023327
-0.26289866
-0.23269638
-0.18828909
-0.14065263
-0.095263001
-0.070463238
-0.053491467
-0.07763849
-0.074323319
-0.26768886
-0.26769035
-0.26769216
-0.26769414
-0.26769637
-0.26769889
-0.26770172
-0.2677049
-0.26770846
-0.26771243
-0.26771686
-0.26772176
-0.26772719
-0.26773317
-0.26773974
-0.26774692
-0.26775473
-0.26776321
-0.26777238
-0.26778228
-0.267793
-0.26780471
-0.26781769
-0.26783249
-0.26785001
-0.26787178
-0.26790026
-0.26793929
-0.26799469
-0.26807489
-0.26819136
-0.26835833
-0.2685907
-0.26890125
-0.26929626
-0.26977263
-0.27031879
-0.27091723
-0.27154986
-0.2722026
-0.27286918
-0.27355334
-0.27426962
-0.27504414
-0.27591148
-0.27691686
-0.27811095
-0.27955273
-0.28128387
-0.28334715
-0.28570022
-0.2882491
-0.2905855
-0.29199481
-0.29041079
-0.28271378
-0.26352325
-0.23026991
-0.18371633
-0.13578912
-0.091568399
-0.068861194
-0.053766982
-0.076329465
-0.073710006
-0.26894438
-0.26894452
-0.26894472
-0.26894499
-0.26894534
-0.26894579
-0.26894634
-0.26894703
-0.26894786
-0.26894885
-0.26895002
-0.2689514
-0.268953
-0.26895485
-0.26895697
-0.26895937
-0.26896209
-0.26896513
-0.26896855
-0.26897237
-0.2689767
-0.2689817
-0.26898766
-0.26899507
-0.26900478
-0.26901819
-0.26903748
-0.26906606
-0.26910904
-0.26917374
-0.2692701
-0.26941087
-0.26960826
-0.26987404
-0.27021567
-0.27063181
-0.27111516
-0.27165279
-0.27223135
-0.27284082
-0.27347815
-0.27414945
-0.27487131
-0.27567152
-0.27658566
-0.27766243
-0.27895551
-0.28052944
-0.2824248
-0.28467601
-0.28724931
-0.29006271
-0.29270199
-0.29429532
-0.29248481
-0.28360214
-0.26238097
-0.22747578
-0.18126462
-0.13593667
-0.096110559
-0.075239917
-0.061016792
-0.077301577
-0.078041726
-0.27014198
-0.27014085
-0.27013954
-0.27013819
-0.27013677
-0.27013526
-0.27013367
-0.27013199
-0.27013023
-0.27012838
-0.27012646
-0.27012447
-0.27012241
-0.2701203
-0.27011813
-0.27011593
-0.27011371
-0.27011148
-0.27010927
-0.27010714
-0.27010517
-0.27010351
-0.27010244
-0.27010242
-0.27010422
-0.27010905
-0.27011888
-0.27013664
-0.27016675
-0.27021547
-0.27029104
-0.27040529
-0.27056447
-0.2707873
-0.27107739
-0.27143318
-0.27185214
-0.27232531
-0.27284438
-0.27340361
-0.27400354
-0.27465286
-0.27537027
-0.27618477
-0.27713214
-0.27826443
-0.27963559
-0.28131289
-0.28332023
-0.28567917
-0.28837773
-0.29133669
-0.29405382
-0.29547311
-0.29274681
-0.28221272
-0.25901471
-0.22297298
-0.1785538
-0.13751293
-0.10210407
-0.083468659
-0.069066792
-0.08037893
-0.080284545
-0.27125903
-0.27125676
-0.2712541
-0.2712513
-0.27124829
-0.27124502
-0.27124149
-0.27123767
-0.27123356
-0.27122915
-0.27122441
-0.27121935
-0.27121394
-0.27120819
-0.2712021
-0.27119565
-0.27118885
-0.27118171
-0.27117425
-0.27116652
-0.27115858
-0.27115058
-0.27114275
-0.2711355
-0.27112949
-0.27112581
-0.27112612
-0.27113296
-0.27115011
-0.27118271
-0.27123626
-0.27133501
-0.27146883
-0.27163527
-0.27187366
-0.27216652
-0.27251854
-0.27292325
-0.27337712
-0.27387867
-0.27443208
-0.27504877
-0.27574939
-0.27656438
-0.27752573
-0.27869225
-0.28011293
-0.28184916
-0.28388806
-0.28625266
-0.28895935
-0.29185129
-0.29433873
-0.29487716
-0.29076417
-0.27800829
-0.25265545
-0.2174629
-0.17644506
-0.14043419
-0.10820478
-0.089814462
-0.075615557
-0.082300475
-0.0808086
-0.27228468
-0.27228144
-0.27227762
-0.27227359
-0.27226922
-0.27226445
-0.27225925
-0.2722536
-0.27224747
-0.27224083
-0.27223366
-0.27222592
-0.2722176
-0.27220868
-0.27219912
-0.27218893
-0.27217808
-0.27216657
-0.2721544
-0.27214161
-0.27212825
-0.27211443
-0.27210033
-0.27208631
-0.27207291
-0.27206105
-0.27205213
-0.27204831
-0.27205263
-0.27206913
-0.27211038
-0.27216835
-0.27224282
-0.27238236
-0.27258435
-0.2728142
-0.27310002
-0.27343423
-0.27381817
-0.27425459
-0.27475152
-0.27532308
-0.27599144
-0.27678656
-0.27774258
-0.2789112
-0.28034046
-0.28206323
-0.2840348
-0.28628366
-0.28882697
-0.2914085
-0.29309322
-0.29244665
-0.2861357
-0.27055808
-0.24476747
-0.2115958
-0.17470891
-0.14154713
-0.11283114
-0.095413134
-0.081569319
-0.084105954
-0.082318776
-0.27320072
-0.27319674
-0.27319204
-0.27318707
-0.27318165
-0.27317571
-0.27316922
-0.27316214
-0.27315443
-0.27314605
-0.27313696
-0.27312711
-0.27311647
-0.27310499
-0.27309265
-0.2730794
-0.27306522
-0.27305008
-0.27303396
-0.27301685
-0.27299877
-0.27297976
-0.27295996
-0.27293957
-0.27291898
-0.27289886
-0.27288026
-0.27286481
-0.27285495
-0.27285394
-0.27286725
-0.27289818
-0.27296976
-0.27306893
-0.27318879
-0.27336892
-0.27358699
-0.27384923
-0.27415865
-0.27452228
-0.27495168
-0.27546335
-0.27608068
-0.27683162
-0.27774864
-0.27887804
-0.28025223
-0.28186092
-0.28365479
-0.285636
-0.28783512
-0.28974087
-0.29048383
-0.28783984
-0.27855647
-0.2613742
-0.23664751
-0.20524696
-0.17269957
-0.14284384
-0.11650953
-0.099501737
-0.085981296
-0.085509768
-0.082626416
-0.27400879
-0.27400432
-0.27399905
-0.27399345
-0.27398734
-0.27398063
-0.27397328
-0.27396524
-0.27395646
-0.2739469
-0.27393648
-0.27392517
-0.27391291
-0.27389964
-0.27388531
-0.27386987
-0.27385327
-0.27383544
-0.27381635
-0.27379595
-0.27377419
-0.27375108
-0.27372662
-0.27370092
-0.27367418
-0.27364683
-0.27361957
-0.27359359
-0.27357075
-0.27355361
-0.27354664
-0.27355412
-0.27358284
-0.27363547
-0.27371463
-0.27383028
-0.27397861
-0.27416479
-0.27439388
-0.27467573
-0.27502454
-0.27545812
-0.27600011
-0.27667316
-0.27750858
-0.27853934
-0.27975597
-0.28116045
-0.28262692
-0.28421023
-0.28593552
-0.2871042
-0.28611286
-0.28063824
-0.26919226
-0.25180014
-0.22722353
-0.19996661
-0.16990781
-0.14308145
-0.11901552
-0.1027389
-0.089604313
-0.086670735
-0.083220204
-0.2747014
-0.27469675
-0.27469126
-0.27468541
-0.27467902
-0.27467199
-0.27466428
-0.27465582
-0.27464657
-0.27463647
-0.27462545
-0.27461345
-0.27460039
-0.27458622
-0.27457087
-0.27455425
-0.2745363
-0.27451692
-0.27449604
-0.27447354
-0.27444933
-0.2744233
-0.27439535
-0.27436538
-0.27433339
-0.27429947
-0.2742639
-0.27422736
-0.2741911
-0.27415577
-0.27412525
-0.27410455
-0.27409751
-0.27410627
-0.27413521
-0.27418893
-0.27426786
-0.27437602
-0.27451992
-0.2747107
-0.27496376
-0.27529653
-0.27572989
-0.27628204
-0.27697795
-0.27782548
-0.27879895
-0.27988072
-0.2809197
-0.28226692
-0.28332721
-0.28307103
-0.27956476
-0.27189163
-0.25948437
-0.24132874
-0.21880352
-0.19396788
-0.16723187
-0.14284568
-0.12074851
-0.10502645
-0.092267666
-0.087292475
-0.083150068
-0.27528914
-0.27528462
-0.27527928
-0.27527358
-0.27526735
-0.27526048
-0.27525293
-0.27524465
-0.27523557
-0.27522562
-0.27521475
-0.27520287
-0.27518992
-0.27517582
-0.27516047
-0.27514379
-0.27512566
-0.27510597
-0.27508459
-0.27506135
-0.27503606
-0.27500849
-0.27497839
-0.27494546
-0.27490939
-0.27486991
-0.27482682
-0.27478012
-0.27473019
-0.27467796
-0.27462424
-0.27457258
-0.27452709
-0.27448986
-0.27446482
-0.2744548
-0.27446122
-0.27448735
-0.27453925
-0.27462712
-0.27476499
-0.27496676
-0.27524868
-0.27562581
-0.27612191
-0.27669549
-0.27737365
-0.27809811
-0.27899813
-0.27979492
-0.27971018
-0.27733469
-0.27160114
-0.26273574
-0.2490728
-0.23124732
-0.21120023
-0.1883447
-0.16418513
-0.141964
-0.12159548
-0.10653156
-0.094116808
-0.087632886
-0.082978993
-0.27577929
-0.27577524
-0.27577044
-0.27576532
-0.2757597
-0.27575351
-0.27574669
-0.27573919
-0.27573096
-0.27572192
-0.27571201
-0.27570116
-0.27568927
-0.27567627
-0.27566206
-0.27564651
-0.2756295
-0.27561087
-0.27559043
-0.27556793
-0.27554309
-0.27551555
-0.27548485
-0.27545045
-0.27541172
-0.27536793
-0.27531833
-0.27526219
-0.27519899
-0.27512861
-0.2750514
-0.27496916
-0.27488391
-0.27479853
-0.27471609
-0.27463908
-0.27456889
-0.27450753
-0.27445836
-0.27442782
-0.27442599
-0.27445582
-0.27453716
-0.27469186
-0.27489904
-0.27523178
-0.27566014
-0.27629623
-0.2767155
-0.27651725
-0.27494864
-0.27004471
-0.26333358
-0.25284212
-0.23844482
-0.22265205
-0.20357799
-0.18279161
-0.16095733
-0.14058891
-0.12178526
-0.1072834
-0.095007423
-0.087705647
-0.08242524
-0.27619261
-0.27618936
-0.27618551
-0.2761814
-0.27617688
-0.27617189
-0.27616638
-0.27616031
-0.27615361
-0.27614624
-0.27613812
-0.27612919
-0.27611935
-0.27610852
-0.27609657
-0.27608338
-0.27606878
-0.27605257
-0.27603449
-0.27601423
-0.27599137
-0.27596539
-0.27593563
-0.27590127
-0.27586129
-0.2758145
-0.27575952
-0.27569488
-0.27561912
-0.27553101
-0.27542979
-0.27531556
-0.27518942
-0.27505356
-0.27491046
-0.27476232
-0.2746097
-0.27445253
-0.27428873
-0.27411865
-0.27394294
-0.2737638
-0.27360688
-0.27349631
-0.27350223
-0.27369833
-0.27402778
-0.27427591
-0.27377961
-0.27243216
-0.26813076
-0.26254467
-0.25407888
-0.24227913
-0.22953895
-0.21401431
-0.19649634
-0.17743422
-0.15749506
-0.13874924
-0.12129761
-0.10734301
-0.09548323
-0.087449826
-0.081598475
-0.2765511
-0.276549
-0.27654651
-0.27654383
-0.27654089
-0.27653762
-0.276534
-0.27652998
-0.27652551
-0.27652056
-0.27651506
-0.27650893
-0.2765021
-0.27649446
-0.27648589
-0.27647622
-0.27646528
-0.27645279
-0.27643843
-0.27642179
-0.27640232
-0.27637932
-0.27635189
-0.27631889
-0.27627892
-0.27623026
-0.2761709
-0.27609856
-0.27601084
-0.27590538
-0.2757802
-0.27563377
-0.27546605
-0.27527871
-0.27507289
-0.27485001
-0.2746084
-0.27434505
-0.27404884
-0.27371582
-0.27335359
-0.2729306
-0.2725787
-0.27230213
-0.27226778
-0.27235509
-0.27230176
-0.27169636
-0.26991924
-0.26625529
-0.26130153
-0.25420524
-0.24382107
-0.23337063
-0.22065361
-0.20610807
-0.1897007
-0.17209253
-0.15382075
-0.1364935
-0.12026771
-0.10683588
-0.095327709
-0.086827438
-0.080413465
-0.27689043
-0.2768898
-0.27688904
-0.27688821
-0.27688727
-0.2768862
-0.27688497
-0.27688357
-0.27688196
-0.27688009
-0.27687792
-0.27687538
-0.27687238
-0.27686881
-0.27686454
-0.27685937
-0.27685308
-0.27684535
-0.27683576
-0.27682378
-0.27680872
-0.27678967
-0.27676549
-0.2767347
-0.27669548
-0.27664561
-0.27658245
-0.27650296
-0.27640381
-0.27628161
-0.27613327
-0.27595581
-0.27574631
-0.27550747
-0.27523764
-0.27493688
-0.27459931
-0.27421959
-0.27377883
-0.27328409
-0.27271784
-0.27219653
-0.27172011
-0.2714481
-0.27129194
-0.27093801
-0.27011805
-0.26819526
-0.2645438
-0.25973145
-0.25378397
-0.24459841
-0.23518334
-0.22474311
-0.21239028
-0.19848823
-0.18311852
-0.16680241
-0.14995084
-0.13387218
-0.11871584
-0.10584975
-0.094647988
-0.085936833
-0.079104536
-0.27725525
-0.27725632
-0.27725757
-0.27725887
-0.27726026
-0.27726173
-0.27726329
-0.27726492
-0.27726659
-0.27726828
-0.27726994
-0.2772715
-0.27727288
-0.27727395
-0.27727456
-0.27727448
-0.27727341
-0.27727099
-0.27726668
-0.27725983
-0.27724956
-0.27723477
-0.27721402
-0.27718552
-0.27714704
-0.27709587
-0.2770288
-0.27694212
-0.2768316
-0.27669335
-0.27652785
-0.27631202
-0.27605611
-0.27577266
-0.27544161
-0.27506479
-0.27463115
-0.27414422
-0.27355444
-0.27294275
-0.27232373
-0.2717591
-0.27125883
-0.27084776
-0.27021991
-0.26911069
-0.26698987
-0.2633252
-0.2586396
-0.25308947
-0.24531176
-0.23597741
-0.22700084
-0.2163894
-0.20440885
-0.19117252
-0.17671103
-0.16150538
-0.14588992
-0.13091472
-0.11672253
-0.10440501
-0.093551341
-0.084641559
-0.077586947
-0.27770923
-0.27771208
-0.27771543
-0.27771895
-0.27772275
-0.27772686
-0.2777313
-0.27773605
-0.27774111
-0.27774644
-0.27775201
-0.27775775
-0.27776355
-0.27776929
-0.27777475
-0.27777968
-0.2777837
-0.27778635
-0.277787
-0.27778483
-0.27777877
-0.2777675
-0.2777493
-0.27772206
-0.27768318
-0.27762953
-0.27755744
-0.2774625
-0.27733941
-0.27719302
-0.27699416
-0.2767458
-0.27646727
-0.27613344
-0.27574644
-0.27530185
-0.27478362
-0.27420195
-0.27357376
-0.27289819
-0.27226446
-0.27168555
-0.27100483
-0.27013592
-0.26873185
-0.26637549
-0.2626341
-0.25794997
-0.25266422
-0.24529718
-0.23695945
-0.22841249
-0.21889157
-0.20837938
-0.19675261
-0.18407232
-0.17041404
-0.15618802
-0.14164702
-0.12765566
-0.11432102
-0.10255037
-0.092050597
-0.083093046
-0.075864808
-0.27833069
-0.27833515
-0.27834039
-0.27834591
-0.27835188
-0.27835836
-0.27836537
-0.27837289
-0.27838093
-0.27838946
-0.27839844
-0.27840778
-0.27841736
-0.27842701
-0.27843649
-0.27844546
-0.27845348
-0.27845997
-0.27846416
-0.27846506
-0.27846142
-0.27845167
-0.27843381
-0.27840544
-0.27836361
-0.27830483
-0.27822519
-0.27812009
-0.27797704
-0.27779766
-0.27759399
-0.2773407
-0.27702304
-0.27665255
-0.27621867
-0.27571464
-0.27515724
-0.27453441
-0.27388455
-0.27320749
-0.27251293
-0.27170056
-0.27060295
-0.26893903
-0.2663695
-0.26250944
-0.25772836
-0.25255753
-0.24553179
-0.23752643
-0.22955344
-0.22055197
-0.21101954
-0.200618
-0.18929145
-0.17713196
-0.16418985
-0.15082474
-0.13722693
-0.12411697
-0.1115577
-0.10032552
-0.090159448
-0.081314953
-0.073924543
-0.27921345
-0.27921907
-0.27922566
-0.2792326
-0.2792401
-0.27924824
-0.27925703
-0.27926646
-0.27927652
-0.27928718
-0.27929837
-0.27930999
-0.2793219
-0.27933385
-0.27934556
-0.2793566
-0.27936644
-0.27937436
-0.27937943
-0.27938049
-0.27937607
-0.27936435
-0.27934307
-0.2793095
-0.27926035
-0.27919182
-0.27909931
-0.27897602
-0.27883993
-0.27867744
-0.27843799
-0.2781201
-0.27776767
-0.27736751
-0.27691006
-0.27638431
-0.27578716
-0.27514503
-0.27447197
-0.27370354
-0.27279207
-0.27153194
-0.26966452
-0.26691951
-0.26296126
-0.25801091
-0.25287167
-0.24605473
-0.23820628
-0.23039271
-0.22197102
-0.2129402
-0.20333793
-0.19303015
-0.18199497
-0.17030167
-0.15799667
-0.1453975
-0.13263267
-0.12032066
-0.10846271
-0.097768689
-0.087933995
-0.079309413
-0.071802237
-0.28045303
-0.2804591
-0.28046621
-0.28047368
-0.28048173
-0.28049044
-0.28049981
-0.28050981
-0.28052043
-0.28053161
-0.28054325
-0.28055521
-0.28056729
-0.28057921
-0.28059057
-0.28060087
-0.28060945
-0.28061543
-0.28061775
-0.28061501
-0.28060555
-0.28058729
-0.2805577
-0.28051337
-0.28045033
-0.28037409
-0.28028469
-0.28017174
-0.27998581
-0.2797379
-0.27947879
-0.27916591
-0.27879188
-0.27835892
-0.27784922
-0.27728587
-0.2766704
-0.27597676
-0.27518618
-0.27419812
-0.27284186
-0.27081221
-0.26797769
-0.26395802
-0.25882061
-0.25363227
-0.2469727
-0.23913187
-0.23136903
-0.22319906
-0.21457038
-0.20540459
-0.19576329
-0.1855693
-0.17479932
-0.16353294
-0.15180127
-0.13988772
-0.12786559
-0.11628144
-0.10506549
-0.094904823
-0.085393353
-0.077083583
-0.069488785
-0.28214244
-0.28214817
-0.28215486
-0.28216185
-0.28216934
-0.28217738
-0.28218596
-0.28219503
-0.28220453
-0.28221438
-0.28222442
-0.28223446
-0.28224422
-0.28225333
-0.2822613
-0.2822675
-0.28227111
-0.2822711
-0.28226617
-0.28225475
-0.28223486
-0.28220388
-0.28215905
-0.28210326
-0.28203091
-0.28193934
-0.28181233
-0.28162106
-0.28139808
-0.28115116
-0.28084636
-0.28048513
-0.28005863
-0.27957211
-0.27902659
-0.27841187
-0.27771841
-0.27690916
-0.27588325
-0.27444793
-0.27236735
-0.26939252
-0.26552985
-0.26022614
-0.25498
-0.24837348
-0.24042918
-0.23259587
-0.22454211
-0.21606114
-0.20719991
-0.19792822
-0.18826488
-0.17817857
-0.16765849
-0.15678413
-0.14557126
-0.13427837
-0.12292526
-0.11201222
-0.10138911
-0.091760018
-0.082572812
-0.074641502
-0.067000001
-0.28435172
-0.28435649
-0.28436201
-0.28436772
-0.28437375
-0.28438012
-0.28438677
-0.28439362
-0.28440056
-0.28440743
-0.28441401
-0.28442002
-0.28442507
-0.28442867
-0.28443017
-0.28442876
-0.2844234
-0.28441284
-0.28439547
-0.28436917
-0.28433175
-0.28428472
-0.2842218
-0.2841391
-0.2840304
-0.28387359
-0.28368435
-0.28346965
-0.2832085
-0.28289669
-0.28252813
-0.28209987
-0.28161277
-0.28106319
-0.28044423
-0.27974406
-0.27891613
-0.27785261
-0.27636842
-0.27421862
-0.27118575
-0.26713713
-0.26194531
-0.25652714
-0.25002326
-0.24208321
-0.23414207
-0.22611615
-0.21767078
-0.20890958
-0.19984588
-0.19046564
-0.18078808
-0.17081158
-0.16052628
-0.15001551
-0.13927777
-0.12855273
-0.11780935
-0.10752115
-0.097452001
-0.088351282
-0.079489072
-0.071990547
-0.064336996
-0.28718184
-0.28718519
-0.28718901
-0.28719283
-0.2871967
-0.28720059
-0.28720438
-0.28720793
-0.28721104
-0.28721348
-0.2872149
-0.28721489
-0.28721291
-0.28720826
-0.28720009
-0.28718733
-0.28716863
-0.28714236
-0.28710648
-0.28705866
-0.28699746
-0.28691855
-0.28681517
-0.28667998
-0.28651444
-0.28631863
-0.28608275
-0.28580014
-0.285465
-0.28507371
-0.28462571
-0.28411824
-0.2835473
-0.28290956
-0.28218629
-0.28132683
-0.28022439
-0.2786967
-0.27650933
-0.27344948
-0.26938636
-0.26420344
-0.25845972
-0.25216842
-0.24408661
-0.23603943
-0.22800231
-0.2195265
-0.21074793
-0.20171547
-0.19245113
-0.18297019
-0.17328715
-0.16341956
-0.15335885
-0.14318989
-0.13289279
-0.1226942
-0.11251414
-0.10281426
-0.09326936
-0.084694714
-0.076163626
-0.069135809
-0.061503985
-0.29078805
-0.29078939
-0.29079075
-0.29079186
-0.29079264
-0.29079298
-0.29079268
-0.29079152
-0.29078918
-0.2907853
-0.29077939
-0.29077085
-0.29075891
-0.29074265
-0.29072091
-0.29069226
-0.29065497
-0.29060694
-0.29054571
-0.29046854
-0.29037184
-0.29024749
-0.290095
-0.2899139
-0.2896947
-0.2894318
-0.28911959
-0.28875369
-0.28833179
-0.2878511
-0.28730878
-0.28670323
-0.28602763
-0.2852607
-0.28434948
-0.28318629
-0.28160004
-0.27936084
-0.27627167
-0.27220789
-0.26704907
-0.26121803
-0.25487552
-0.24699215
-0.23860797
-0.23048163
-0.2217945
-0.21287153
-0.20373886
-0.19442737
-0.18497147
-0.17539518
-0.16571365
-0.15595734
-0.1461148
-0.13627194
-0.12638991
-0.11668626
-0.1070343
-0.097894329
-0.088852031
-0.08080111
-0.072608759
-0.06608199
-0.058505388
-0.29541971
-0.29541796
-0.29541558
-0.29541257
-0.29540869
-0.2954037
-0.29539732
-0.29538919
-0.29537887
-0.29536581
-0.29534934
-0.29532863
-0.29530265
-0.29527016
-0.29522963
-0.29517925
-0.29511681
-0.2950397
-0.29494486
-0.29482873
-0.29468722
-0.29451572
-0.29430938
-0.29406264
-0.29376981
-0.29342603
-0.29302741
-0.29256985
-0.29204983
-0.29146535
-0.29081315
-0.29008396
-0.28925297
-0.28826428
-0.28701219
-0.28533047
-0.28301223
-0.27984551
-0.27575274
-0.27057849
-0.26459718
-0.25817728
-0.25027142
-0.2418619
-0.23342521
-0.22451425
-0.2153717
-0.20604438
-0.19656477
-0.18698757
-0.17734986
-0.16768822
-0.15801844
-0.14837862
-0.13875294
-0.12922719
-0.11974311
-0.1105121
-0.1013632
-0.092762214
-0.084208563
-0.076679505
-0.068837437
-0.062834483
-0.055343054
-0.30137242
-0.30136595
-0.30135789
-0.30134868
-0.30133784
-0.30132496
-0.30130963
-0.30129137
-0.30126953
-0.30124338
-0.30121201
-0.30117431
-0.30112895
-0.30107434
-0.30100855
-0.30092932
-0.30083395
-0.30071931
-0.30058176
-0.30041714
-0.30022079
-0.29998755
-0.29971218
-0.29938951
-0.29901438
-0.29858159
-0.29808658
-0.29752587
-0.29689579
-0.29619032
-0.29539625
-0.29448397
-0.29339364
-0.29201975
-0.2902039
-0.2877505
-0.28447012
-0.28024872
-0.27506092
-0.26884777
-0.26224767
-0.25431634
-0.24569896
-0.23699798
-0.22781704
-0.21839504
-0.20876954
-0.1990093
-0.18918076
-0.17934057
-0.16953163
-0.15979714
-0.15015182
-0.14063799
-0.1312333
-0.12202227
-0.11292715
-0.10415485
-0.095493158
-0.087416665
-0.079344578
-0.072335182
-0.064858597
-0.059392552
-0.052024431
-0.30899007
-0.30897686
-0.30896073
-0.30894275
-0.3089221
-0.30889819
-0.30887044
-0.30883818
-0.30880058
-0.30875665
-0.30870521
-0.30864486
-0.30857388
-0.3084903
-0.30839182
-0.3082757
-0.30813875
-0.3079773
-0.30778725
-0.30756407
-0.3073028
-0.30699818
-0.30664459
-0.30623636
-0.30576817
-0.30523496
-0.30463155
-0.30395167
-0.30318536
-0.30231394
-0.30130139
-0.3000823
-0.29854971
-0.29655002
-0.29389811
-0.29041643
-0.28598741
-0.28058201
-0.27420383
-0.26734661
-0.25925377
-0.25034678
-0.24127223
-0.23178651
-0.22199871
-0.21199708
-0.20186162
-0.19167576
-0.18150581
-0.17141645
-0.16145357
-0.1516644
-0.14206163
-0.13268883
-0.1235156
-0.11462395
-0.10591683
-0.097597295
-0.089415477
-0.081855031
-0.07426408
-0.067772319
-0.060680653
-0.055759547
-0.0485603
-0.3185854
-0.3185631
-0.31853611
-0.31850639
-0.31847272
-0.3184342
-0.31839013
-0.3183396
-0.31828156
-0.31821477
-0.31813776
-0.31804891
-0.31794609
-0.31782689
-0.31768864
-0.31752823
-0.31734201
-0.31712592
-0.31687552
-0.31658587
-0.31625162
-0.31586719
-0.31542675
-0.31492428
-0.31435342
-0.31370686
-0.31297489
-0.31214252
-0.31118432
-0.31005641
-0.30868615
-0.30696246
-0.30473373
-0.30182045
-0.29805499
-0.29331782
-0.28756786
-0.28084698
-0.2734724
-0.26521429
-0.25590685
-0.24639682
-0.23652151
-0.22629636
-0.21583511
-0.20523496
-0.19458528
-0.183972
-0.17346987
-0.16314789
-0.15305266
-0.14323252
-0.13369607
-0.12448553
-0.11556091
-0.10700035
-0.098687952
-0.090822685
-0.083121174
-0.076073626
-0.068969681
-0.062992859
-0.056310835
-0.051939329
-0.044917057
-0.3304752
-0.33044143
-0.33040075
-0.33035628
-0.33030626
-0.33024959
-0.3301854
-0.3301124
-0.33002883
-0.32993416
-0.32983518
-0.32972349
-0.32957683
-0.32940411
-0.32921765
-0.3290077
-0.32876666
-0.32848993
-0.32817275
-0.32781025
-0.32739652
-0.32692518
-0.32638919
-0.32578028
-0.32508811
-0.32429833
-0.32338939
-0.32232735
-0.32105863
-0.31950142
-0.31753876
-0.31501877
-0.3117681
-0.30762477
-0.30248183
-0.2962764
-0.28909015
-0.28118245
-0.27241784
-0.26261888
-0.2525712
-0.24216987
-0.2314017
-0.22037895
-0.20920845
-0.19799111
-0.18682183
-0.17579207
-0.16497865
-0.15445158