/*--------------------------------*- C++ -*----------------------------------*\
  =========                 |
  \\      /  F ield         | OpenFOAM: The Open Source CFD Toolbox
   \\    /   O peration     | Website:  https://openfoam.org
    \\  /    A nd           | Version:  13
     \\/     M anipulation  |
\*---------------------------------------------------------------------------*/
FoamFile
{
    format      ascii;
    class       volVectorField;
    location    "25.695854";
    object      U;
}
// * * * * * * * * * * * * * * * * * * * * * * * * * * * * * * * * * * * * * //

dimensions      [0 1 -1 0 0 0 0];

internalField   nonuniform List<vector> 
17140
(
(-1.1784982e-06 7.7918723e-05 2.3721557e-23)
(-5.5941574e-06 0.00024032435 2.627748e-24)
(-1.3295739e-05 0.00041954428 -1.7340784e-22)
(-2.5354583e-05 0.00061844368 1.9057116e-22)
(-4.2975466e-05 0.00084019239 -2.2269451e-23)
(-6.7725116e-05 0.0010882523 7.2857704e-23)
(-0.00010155135 0.0013663652 1.225942e-22)
(-0.00014684406 0.0016785218 -5.9783283e-23)
(-0.00020652931 0.0020289144 -1.9555063e-22)
(-0.00028417576 0.0024218653 -4.79141e-22)
(-0.00038411641 0.0028617259 7.0943792e-22)
(-0.00051158738 0.0033527415 -6.3115729e-22)
(-0.00067288446 0.0038988733 -9.6452175e-23)
(-0.00087553623 0.0045035703 5.4367977e-22)
(-0.0011284913 0.0051694841 -6.0180401e-23)
(-0.0014423147 0.0058981188 4.7480732e-22)
(-0.001829385 0.0066894103 -1.7522328e-23)
(-0.0023040791 0.0075412336 3.9844219e-24)
(-0.002882927 0.0084488393 2.7584793e-22)
(-0.0035847076 0.0094042295 -3.5426457e-22)
(-0.0044304519 0.010395496 1.6891899e-22)
(-0.0054433039 0.011406158 -3.1733335e-23)
(-0.0066481787 0.012414562 -2.3040429e-22)
(-0.0080711421 0.013393437 2.2605609e-22)
(-0.0097384238 0.01430977 3.5235369e-22)
(-0.011674973 0.015125229 -2.7665064e-22)
(-0.013902481 0.015797562 -1.3278339e-21)
(-0.01643688 0.016283584 -1.5268784e-22)
(-0.019285483 0.01654461 1.2978347e-21)
(-0.0224443 0.016554913 2.9414036e-22)
(-0.025896496 0.016312003 1.0088889e-21)
(-0.029613317 0.015843756 -1.2670253e-21)
(-0.033558297 0.015204803 3.1440324e-22)
(-0.037693683 0.014460177 1.4159218e-22)
(-0.041985727 0.013665864 1.312165e-21)
(-0.046406268 0.01285838 -5.4217954e-22)
(-0.050931296 0.012055316 7.8066271e-22)
(-0.055538936 0.011260784 5.0754201e-22)
(-0.060208326 0.010470382 2.25134e-22)
(-0.064919669 0.0096738196 -6.6671464e-22)
(-0.069655221 0.008855347 -1.2435976e-21)
(-0.074400924 0.0079925211 -1.1233216e-21)
(-0.079148722 0.0070537357 -4.9116422e-22)
(-0.083898649 0.0059946739 2.4097279e-21)
(-0.08866106 0.0047538861 1.7814315e-21)
(-0.093459676 0.0032475946 -4.4287325e-22)
(-0.098327104 0.0013650126 3.0602229e-21)
(-0.10329922 -0.0010363602 1.0528872e-21)
(-0.10840697 -0.0041375768 -1.0860032e-21)
(-0.1136672 -0.0081661732 -2.6882112e-21)
(-0.11904472 -0.013399742 1.6674346e-21)
(-0.12445145 -0.020163005 1.0582828e-21)
(-0.1296369 -0.028802792 -2.7665949e-21)
(-0.13427822 -0.039621732 -1.3068319e-21)
(-0.13766027 -0.052707558 -9.205983e-22)
(-0.13923142 -0.06773649 7.2231207e-22)
(-0.13768378 -0.083527303 -1.8733671e-21)
(-0.1329855 -0.09752799 -1.5183982e-21)
(-0.12354733 -0.10559038 -3.590732e-22)
(-0.11269703 -0.10283417 9.018134e-22)
(-0.096585196 -0.083902205 6.630502e-22)
(-0.083837652 -0.04474371 2.324337e-21)
(-0.059921291 0.012884796 3.001233e-22)
(-0.047736201 0.084553822 -2.5733138e-21)
(-0.018547938 0.14898194 1.6157678e-21)
(-4.9733604e-06 0.0001190375 -6.776061e-24)
(-1.7425194e-05 0.00036763964 9.122935e-22)
(-3.3860681e-05 0.00064198786 -8.1165937e-22)
(-5.55958e-05 0.00094568184 2.2118012e-22)
(-8.3891557e-05 0.001282677 4.5678269e-22)
(-0.00012042928 0.0016572465 -8.724456e-22)
(-0.00016727685 0.0020739618 9.0885754e-22)
(-0.00022694324 0.0025376512 -7.9928241e-23)
(-0.00030247245 0.0030533354 2.4931764e-22)
(-0.0003975458 0.0036261342 4.2371679e-24)
(-0.00051659856 0.0042611386 8.3023787e-22)
(-0.00066495166 0.0049632406 -1.3166016e-21)
(-0.00084895994 0.0057369114 -1.0849204e-22)
(-0.001076175 0.0065859197 1.0676157e-21)
(-0.0013555203 0.0075129819 -3.2650066e-22)
(-0.0016974735 0.0085193332 -2.0635776e-22)
(-0.0021142473 0.009604215 1.3012901e-21)
(-0.0026199575 0.010764274 -4.2054746e-21)
(-0.0032307579 0.011992877 2.6079948e-21)
(-0.003964919 0.013279344 -3.0899657e-21)
(-0.0048428131 0.014608137 4.5038922e-21)
(-0.0058867615 0.015958031 -1.0877121e-21)
(-0.0071206857 0.017301343 -4.4020769e-22)
(-0.0085694887 0.018603331 1.4140877e-21)
(-0.010258087 0.019821925 -4.9809498e-21)
(-0.012210004 0.020908107 -7.2862738e-22)
(-0.014445478 0.021807424 3.6803872e-21)
(-0.016979079 0.022463476 -4.0275286e-21)
(-0.019817066 0.022824546 5.3736425e-22)
(-0.022954986 0.022854327 5.1112555e-21)
(-0.026376444 0.02254558 -5.0790026e-22)
(-0.030054165 0.021930552 -3.7517912e-21)
(-0.03395398 0.02107801 -9.3626726e-23)
(-0.038040638 0.02007312 2.5219959e-21)
(-0.042282486 0.018991839 -2.6586507e-21)
(-0.046652788 0.017886144 1.1366364e-21)
(-0.051128386 0.016783774 -1.2702433e-21)
(-0.055687896 0.015695053 -3.8940665e-21)
(-0.06031082 0.014619619 -8.4941537e-22)
(-0.064977764 0.013550377 -3.2538893e-21)
(-0.069671554 0.012474713 4.1137449e-21)
(-0.074379009 0.011373652 3.7824427e-21)
(-0.079093442 0.010219447 6.5015808e-22)
(-0.083816861 0.0089718762 -5.2411249e-21)
(-0.088562638 0.0075736249 2.5228616e-21)
(-0.093358966 0.005943961 8.8739766e-22)
(-0.098243753 0.0039715187 -4.6849111e-22)
(-0.10326022 0.001509839 -1.5228558e-21)
(-0.10844849 -0.0016299817 7.5233197e-22)
(-0.11383532 -0.0056908008 -1.4061258e-21)
(-0.11939489 -0.010975191 -8.4586483e-21)
(-0.12504399 -0.017845266 -3.9639678e-22)
(-0.13052541 -0.026698696 1.8164878e-21)
(-0.13548336 -0.037904002 -4.1002667e-21)
(-0.13913243 -0.051624673 3.4541733e-21)
(-0.14078665 -0.067557706 -9.66652e-21)
(-0.13892368 -0.084488404 -2.6995642e-21)
(-0.13344457 -0.09979198 7.2170808e-21)
(-0.12272382 -0.10896296 -1.1700447e-21)
(-0.11043925 -0.10703784 -1.2704202e-21)
(-0.093783472 -0.088401763 -2.2814567e-22)
(-0.082303972 -0.049873053 2.6692088e-21)
(-0.062026912 0.0076398838 -4.847334e-21)
(-0.055207163 0.078986475 -1.2549605e-21)
(-0.028552913 0.14340111 -2.1277184e-21)
(-1.1134151e-05 0.00015994607 -3.7423392e-22)
(-3.6413058e-05 0.00049430919 2.7655383e-22)
(-6.6947933e-05 0.00086330637 7.3539043e-23)
(-0.00010416501 0.0012712763 -6.9697642e-23)
(-0.00014946813 0.0017229499 3.3768326e-22)
(-0.00020467654 0.0022234016 2.5124684e-23)
(-0.00027199681 0.0027780234 3.2054324e-22)
(-0.00035407372 0.0033924723 3.4514598e-22)
(-0.00045407898 0.0040725897 -2.817629e-21)
(-0.00057580675 0.0048242879 2.5128205e-21)
(-0.00072378215 0.0056533954 -1.2007276e-21)
(-0.0009033828 0.0065654535 -1.7563484e-21)
(-0.0011209747 0.007565452 3.4744941e-21)
(-0.0013840607 0.0086574967 4.2904065e-22)
(-0.0017014381 0.0098443955 -1.6496148e-21)
(-0.0020833618 0.011127155 -1.1289575e-21)
(-0.0025417041 0.012504376 1.3015794e-21)
(-0.0030900985 0.01397155 -4.6788843e-21)
(-0.0037440524 0.01552025 2.741226e-21)
(-0.0045210017 0.017137227 -1.3426018e-21)
(-0.005440277 0.018803446 4.4726138e-21)
(-0.0065229369 0.020493088 1.1474106e-21)
(-0.0077914143 0.022172609 -2.3580892e-21)
(-0.0092689088 0.023799961 3.4904835e-21)
(-0.01097845 0.025324189 1.3513483e-21)
(-0.01294156 0.026685721 -1.5892751e-21)
(-0.015176461 0.027817985 -8.8423386e-21)
(-0.01769589 0.02865134 -3.9151441e-21)
(-0.020504726 0.029120823 1.8998771e-21)
(-0.023597978 0.029179075 -1.9829954e-21)
(-0.026959954 0.028813337 1.1894786e-21)
(-0.030565502 0.028059319 6.5021751e-21)
(-0.034383643 0.026999219 -2.0801934e-21)
(-0.038382509 0.02573815 -5.9036516e-21)
(-0.042533178 0.024372378 1.8548172e-21)
(-0.046810644 0.022969901 2.4863378e-21)
(-0.051192604 0.021569116 -4.1318586e-21)
(-0.055657966 0.020186937 -1.2267554e-21)
(-0.060186224 0.018827325 2.1090141e-21)
(-0.064757855 0.01748663 8.2774499e-22)
(-0.069355556 0.016155657 -3.9843106e-21)
(-0.073966112 0.014819245 1.1363449e-21)
(-0.078583016 0.013453942 1.6488328e-21)
(-0.083208693 0.012024209 4.4697817e-21)
(-0.087857708 0.010477604 -8.6607856e-21)
(-0.092559972 0.0087371186 5.739287e-21)
(-0.09735524 0.0066914532 1.4913968e-21)
(-0.1022902 0.0041910946 5.9781265e-21)
(-0.10740892 0.001039581 7.305047e-21)
(-0.11274154 -0.0030214575 3.7039453e-22)
(-0.11826316 -0.0083210024 -1.6856148e-21)
(-0.1238851 -0.01526225 1.2126004e-20)
(-0.12932829 -0.024301969 5.186809e-21)
(-0.13418402 -0.035887445 5.3076417e-21)
(-0.13756717 -0.050253356 1.761554e-21)
(-0.13860258 -0.067197205 1.317151e-20)
(-0.13553205 -0.085459172 -5.1418629e-21)
(-0.12804639 -0.10225644 1.427756e-21)
(-0.11441569 -0.11267299 1.1182358e-20)
(-0.098700491 -0.11152714 4.1475782e-21)
(-0.078745883 -0.09284963 -4.3089549e-21)
(-0.065133191 -0.054438877 -1.4178619e-20)
(-0.043777649 0.003520925 4.1358814e-21)
(-0.037307091 0.074242144 6.5973149e-21)
(-0.0049549872 0.13697359 2.2815498e-21)
(-1.96126e-05 0.00019985915 1.2574737e-21)
(-6.2545576e-05 0.00061793131 -2.0006774e-21)
(-0.00011247218 0.0010793364 7.2325389e-22)
(-0.00017095008 0.0015891309 -7.8596672e-23)
(-0.00023955628 0.0021528003 1.5535829e-21)
(-0.00032027247 0.0027761997 -1.6067053e-21)
(-0.00041546472 0.0034655221 2.4362362e-21)
(-0.00052792934 0.0042272358 -1.1453145e-21)
(-0.00066097442 0.0050679882 -4.35182e-21)
(-0.00081850617 0.0059944743 1.0451776e-21)
(-0.0010051265 0.0070132574 3.9767062e-21)
(-0.0012262413 0.0081305338 -1.2119964e-21)
(-0.0014881801 0.0093518307 -8.0683531e-23)
(-0.0017983255 0.010681625 3.1584132e-21)
(-0.0021652493 0.012122868 -9.8498955e-21)
(-0.0025988508 0.013676416 6.0234008e-21)
(-0.0031104897 0.015340336 5.7170012e-23)
(-0.0037131012 0.0171091 -3.2968102e-21)
(-0.0044212801 0.018972663 8.3144039e-21)
(-0.005251308 0.020915424 -3.8917558e-21)
(-0.006221097 0.022915105 -5.7503951e-21)
(-0.0073500082 0.024941593 -2.3056542e-21)
(-0.0086584962 0.026955813 1.1264644e-20)
(-0.010167519 0.028908774 5.8146785e-21)
(-0.011897648 0.030740992 -3.7019082e-21)
(-0.01386781 0.032382687 2.1319956e-21)
(-0.016093648 0.033755428 -7.8577766e-21)
(-0.018585558 0.034776433 2.2202563e-21)
(-0.021346672 0.035367305 -5.8637137e-21)
(-0.024371317 0.035468975 3.2359965e-21)
(-0.027644691 0.035061954 -1.9513455e-21)
(-0.031144325 0.034183814 6.8877817e-21)
(-0.034843267 0.032928772 -9.4621159e-22)
(-0.038713927 0.031421277 4.7862658e-21)
(-0.042730802 0.029778164 -4.3598582e-21)
(-0.046870967 0.028084174 -1.3439869e-21)
(-0.051113012 0.026389082 1.5954961e-20)
(-0.055435925 0.024716927 4.0388094e-21)
(-0.059818789 0.023076362 -3.2675606e-21)
(-0.064241383 0.021467467 3.1691919e-21)
(-0.068685512 0.019884745 -8.2194958e-22)
(-0.073136938 0.018317182 -5.0950232e-21)
(-0.077588019 0.01674605 2.3464644e-22)
(-0.082039924 0.015141077 1.7639004e-21)
(-0.086506323 0.013455446 -8.8510039e-22)
(-0.091015881 0.011616394 4.7253301e-22)
(-0.09560644 0.0095137546 1.345616e-21)
(-0.10032376 0.0069958842 -2.0831882e-20)
(-0.1052102 0.0038591535 2.4058064e-21)
(-0.11029212 -0.00017034392 -2.242834e-21)
(-0.11553655 -0.005449205 2.1422786e-20)
(-0.12083837 -0.012425512 -1.1809713e-20)
(-0.12588208 -0.021623357 -9.8500111e-21)
(-0.1301876 -0.033583226 -9.3922058e-21)
(-0.13273121 -0.048652087 -8.9590962e-21)
(-0.132418 -0.066712278 -1.3714511e-20)
(-0.127201 -0.08647984 2.6489007e-20)
(-0.11648028 -0.10502048 -1.5474365e-20)
(-0.098356991 -0.11687583 -2.1463991e-20)
(-0.077355454 -0.11655832 1.4037011e-20)
(-0.051482465 -0.097600226 4.1058529e-21)
(-0.032454805 -0.058956093 3.7598709e-21)
(-0.0053841998 3.2684199e-05 -1.2784267e-20)
(0.0067258889 0.06967057 -1.015532e-20)
(0.052072311 0.12941792 3.2915401e-22)
(-3.0308343e-05 0.00023796259 -8.8872697e-22)
(-9.5514984e-05 0.00073598248 2.9505099e-21)
(-0.00016989843 0.0012856746 -2.405046e-21)
(-0.00025516801 0.0018927835 9.0871941e-22)
(-0.00035310211 0.0025635157 3.2824188e-22)
(-0.00046586775 0.0033044757 -2.8236573e-21)
(-0.00059600974 0.0041226279 7.1478766e-22)
(-0.00074649038 0.0050252245 1.5173391e-21)
(-0.00092076187 0.0060196978 1.1631517e-22)
(-0.0011228413 0.007113511 9.8782508e-22)
(-0.0013573947 0.0083139577 -1.3821985e-21)
(-0.0016298289 0.0096278993 9.5957463e-22)
(-0.0019463919 0.011061428 3.5316419e-21)
(-0.0023142787 0.012619441 1.0278235e-22)
(-0.0027417421 0.014305115 -2.6882145e-21)
(-0.0032382006 0.016119268 -1.899007e-21)
(-0.0038143393 0.018059587 1.6288167e-21)
(-0.0044821919 0.020119734 -1.55017e-22)
(-0.0052551896 0.022288302 -3.1442966e-21)
(-0.0061481576 0.024547656 -3.8082707e-21)
(-0.007177232 0.026872662 4.313423e-21)
(-0.0083596625 0.029229357 4.3011282e-21)
(-0.0097134558 0.031573643 -5.7275163e-21)
(-0.011256809 0.033850133 7.0084232e-21)
(-0.013007273 0.035991392 1.1995395e-20)
(-0.0149806 0.037917983 -2.7857427e-20)
(-0.017189275 0.039540088 1.5091349e-20)
(-0.019640822 0.040762042 -2.197288e-20)
(-0.022336198 0.04149187 2.6882906e-20)
(-0.025268811 0.041658004 -2.9277911e-20)
(-0.028424801 0.041232585 2.9373943e-20)
(-0.031784798 0.040252757 -4.757963e-21)
(-0.03532663 0.038822573 -1.5780461e-20)
(-0.039027864 0.037084655 8.4869518e-21)
(-0.042867158 0.03517653 -2.5246416e-21)
(-0.046824091 0.033200535 -6.9459424e-22)
(-0.050878224 0.031218766 -8.3153827e-21)
(-0.055008422 0.029263107 -2.624543e-21)
(-0.059192942 0.027347371 -2.6044251e-21)
(-0.063410244 0.025475691 -2.5133104e-21)
(-0.067640415 0.023646543 1.2757385e-20)
(-0.071867108 0.02185337 -5.6167015e-21)
(-0.076080106 0.020082568 -9.0885931e-22)
(-0.080277523 0.018309687 1.057086e-20)
(-0.084469698 0.016494294 5.4496414e-21)
(-0.088680881 0.014568492 -2.7079335e-21)
(-0.092942937 0.012424266 -1.0143251e-20)
(-0.097295533 0.0099091172 4.4480406e-21)
(-0.10177294 0.0068128101 -1.3420781e-20)
(-0.10638964 0.0028461148 -7.4347939e-21)
(-0.11109444 -0.0023759649 -1.0351305e-20)
(-0.11575345 -0.0093498053 -2.8426407e-20)
(-0.11999782 -0.018675619 2.209013e-20)
(-0.12325305 -0.031004537 -7.3623286e-21)
(-0.12432808 -0.046813143 1.2295487e-20)
(-0.12187823 -0.066110394 1.1438352e-20)
(-0.11350474 -0.087597624 4.3618786e-21)
(-0.098276053 -0.10815953 3.6438069e-20)
(-0.074112464 -0.12165966 8.8921276e-21)
(-0.046151822 -0.1223108 -1.8315213e-20)
(-0.012244666 -0.1029548 -5.5236923e-21)
(0.014866571 -0.063860153 4.1078886e-21)
(0.050748828 -0.0037270566 7.0667805e-21)
(0.073540849 0.064407905 1.080704e-20)
(0.1358445 0.12035449 -6.2329538e-22)
(-4.3026749e-05 0.00027341494 -2.718784e-21)
(-0.00013472342 0.00084586352 -9.5963317e-22)
(-0.00023818774 0.0014777899 7.7673628e-22)
(-0.00035529915 0.0021755848 2.8680311e-21)
(-0.00048806266 0.0029461307 -1.5711544e-21)
(-0.00063885101 0.0037967382 2.2607823e-21)
(-0.00081040499 0.0047351021 -9.7791104e-22)
(-0.0010058657 0.0057692222 -2.328536e-22)
(-0.0012288363 0.0069072855 1.3172664e-21)
(-0.0014834437 0.0081575035 2.8374439e-21)
(-0.0017744068 0.0095278938 1.426538e-22)
(-0.0021071093 0.011025995 -4.657837e-21)
(-0.0024876771 0.012658498 6.4381933e-21)
(-0.0029230584 0.014430789 -1.0382969e-20)
(-0.0034211031 0.016346372 2.709443e-21)
(-0.0039906378 0.018406176 -5.7478242e-21)
(-0.0046415293 0.020607714 6.9328544e-21)
(-0.0053847274 0.022944102 -4.4909722e-21)
(-0.0062322754 0.025402917 7.0655424e-22)
(-0.0071972701 0.027964913 2.8560738e-21)
(-0.0082937483 0.030602604 -6.9111934e-21)
(-0.0095364707 0.033278776 9.6996103e-21)
(-0.010940565 0.035944987 -1.0479582e-20)
(-0.012520981 0.038540207 -1.7919026e-21)
(-0.014291723 0.040989841 1.7404562e-20)
(-0.016264807 0.043205585 -1.742969e-20)
(-0.018448983 0.045086924 1.1202376e-20)
(-0.020848349 0.046525764 -1.2419539e-20)
(-0.023461194 0.047416516 -1.1808992e-21)
(-0.026279647 0.047674236 -7.2316977e-22)
(-0.029290657 0.047260698 4.6322971e-21)
(-0.032478163 0.04620964 -3.12724e-22)
(-0.03582536 0.044631913 1.630753e-20)
(-0.039315807 0.042686478 -4.2119951e-21)
(-0.042933113 0.040531407 -1.2103026e-20)
(-0.046659875 0.038287588 5.3915669e-21)
(-0.050476775 0.036030618 -4.2547472e-21)
(-0.054362384 0.033801142 4.1708712e-21)
(-0.058293697 0.031618731 2.2597027e-20)
(-0.0622472 0.029491942 -1.2327437e-20)
(-0.066200359 0.027423496 -3.0042926e-21)
(-0.070133543 0.025411573 1.7117727e-20)
(-0.074032355 0.023448063 -9.6802292e-22)
(-0.077889916 0.021514873 -2.1127126e-21)
(-0.081710594 0.019578624 -2.3652266e-20)
(-0.085510347 0.01757709 -5.5533399e-21)
(-0.089310805 0.015405375 8.9363331e-21)
(-0.093139558 0.012911657 9.2737903e-21)
(-0.097015043 0.0098799161 1.3446015e-20)
(-0.1009301 0.0060062446 1.6957236e-20)
(-0.10480285 0.00087708538 1.0543782e-20)
(-0.10845511 -0.0060551475 1.6379177e-20)
(-0.1114425 -0.015474748 -5.5582159e-21)
(-0.11306937 -0.028159355 3.5350143e-20)
(-0.11194613 -0.044741502 2.5530195e-21)
(-0.10644351 -0.065388008 1.9655463e-21)
(-0.093751186 -0.088798534 1.1895785e-21)
(-0.072595322 -0.11165885 -4.0091937e-20)
(-0.040757016 -0.12697839 -1.3774075e-20)
(-0.0043842194 -0.12872036 1.8605298e-20)
(0.038986445 -0.10895715 2.1533381e-20)
(0.075853234 -0.069260105 8.4471397e-21)
(0.12199089 -0.0082245838 2.406133e-21)
(0.15793812 0.058130346 -1.3774538e-20)
(0.23771648 0.11001656 2.4933755e-21)
(-5.7475634e-05 0.00030538307 5.1574534e-22)
(-0.00017927272 0.00094500007 1.6391002e-21)
(-0.00031577887 0.0016511926 -3.9559357e-21)
(-0.00046905961 0.0024309438 1.469808e-22)
(-0.00064136756 0.0032917542 1.9257619e-21)
(-0.00083529848 0.0042415853 8.4876943e-22)
(-0.0010538036 0.0052888097 6.2665381e-22)
(-0.0013002137 0.0064421277 -1.2346388e-21)
(-0.001578289 0.0077104419 6.3904025e-21)
(-0.0018922655 0.009102685 -4.8206515e-21)
(-0.0022469063 0.010627588 2.3327057e-22)
(-0.0026475523 0.012293378 2.9156709e-21)
(-0.003100175 0.014107388 -1.0901852e-20)
(-0.0036114269 0.016075567 1.0858511e-20)
(-0.0041886874 0.018201871 -1.4446298e-21)
(-0.0048400999 0.02048752 -8.9327878e-21)
(-0.0055745941 0.022930101 8.3876763e-21)
(-0.0064018859 0.02552251 -2.9249893e-21)
(-0.0073324437 0.028251722 5.671229e-21)
(-0.0083774077 0.031097398 -7.2565934e-21)
(-0.0095484413 0.034030331 -1.3573799e-20)
(-0.010857493 0.037010796 1.3371265e-20)
(-0.012316433 0.039986856 1.9477761e-20)
(-0.01393654 0.042892786 -3.7294109e-20)
(-0.015727787 0.045647851 2.9642844e-20)
(-0.01769793 0.04815591 -1.7030855e-20)
(-0.019851429 0.0503067 4.3326611e-21)
(-0.022188379 0.051980383 -1.0103725e-20)
(-0.02470384 0.053057887 1.015419e-20)
(-0.027388154 0.053440036 1.3437534e-20)
(-0.030228718 0.05307598 -8.6959325e-21)
(-0.033212706 0.051992444 -1.4022446e-20)
(-0.03632903 0.050303129 1.1732181e-21)
(-0.039567963 0.048180652 4.6013527e-22)
(-0.042918901 0.045803063 7.9608303e-21)
(-0.046368079 0.043310768 -3.3208137e-21)
(-0.049897551 0.040794273 -1.1658461e-20)
(-0.053485472 0.038304136 -5.6971738e-21)
(-0.057107144 0.035866431 8.5228567e-21)
(-0.060736383 0.033494574 -6.6138717e-21)
(-0.064347062 0.031195809 5.6193144e-21)
(-0.067914969 0.028973288 -1.8221232e-21)
(-0.071419802 0.02682473 -7.2052333e-21)
(-0.07484749 0.024738926 1.7624611e-20)
(-0.078193462 0.022690046 1.0590181e-20)
(-0.081460959 0.020622357 7.1055969e-21)
(-0.084656428 0.01843544 -2.2872894e-20)
(-0.08778836 0.015979498 -1.515184e-20)
(-0.090849597 0.013033904 -1.8083434e-20)
(-0.093798808 0.0092812679 -3.2116979e-20)
(-0.096506702 0.0042801825 1.1403711e-20)
(-0.098728653 -0.0025702353 -2.4322657e-21)
(-0.099913002 -0.012044437 -1.9303173e-20)
(-0.099207598 -0.025060353 -5.668936e-20)
(-0.09498142 -0.042427534 -3.6895241e-20)
(-0.085265215 -0.064508182 -1.417318e-20)
(-0.066759086 -0.090004425 -3.9149125e-20)
(-0.03787519 -0.11538645 2.494733e-20)
(0.0036623295 -0.13249224 -2.0873656e-21)
(0.049833238 -0.13534873 -3.0087024e-20)
(0.10344187 -0.11515093 -1.6602149e-20)
(0.1506378 -0.074701328 -9.6126845e-22)
(0.20679624 -0.012902257 1.514056e-20)
(0.25567247 0.051010551 -1.3061601e-21)
(0.3515478 0.099157171 1.9067376e-21)
(-7.3262507e-05 0.00033307075 2.0457597e-21)
(-0.00022796764 0.0010309277 -1.3800145e-21)
(-0.00040058829 0.001801584 1.8640525e-21)
(-0.00059340265 0.0026525463 1.0594153e-21)
(-0.00080892146 0.0035918638 -2.9560082e-21)
(-0.0010499772 0.004628081 -2.759246e-21)
(-0.0013197427 0.005770184 2.8308662e-21)
(-0.0016217472 0.0070275146 -3.4071578e-22)
(-0.001959913 0.0084096417 -7.8889375e-23)
(-0.0023385858 0.0099261835 -5.6036685e-21)
(-0.0027625669 0.011586568 6.138841e-22)
(-0.0032371416 0.013399718 1.12915e-20)
(-0.0037681046 0.015373651 -9.0240614e-21)
(-0.0043617788 0.017514965 3.1051972e-22)
(-0.0050250249 0.019828204 6.0402956e-21)
(-0.0057652381 0.022315082 5.190741e-22)
(-0.0065903258 0.024973538 -1.3190758e-21)
(-0.0075086602 0.027796623 -5.935079e-21)
(-0.0085289971 0.030771194 1.0852903e-20)
(-0.0096603482 0.033876415 -1.9037509e-20)
(-0.010911794 0.037082094 4.0914203e-21)
(-0.012292218 0.040346863 -2.996839e-21)
(-0.013809933 0.043616304 2.44748e-21)
(-0.015472188 0.046821137 -1.0624349e-22)
(-0.017284518 0.049875726 1.4363628e-20)
(-0.019249949 0.052677374 1.4208364e-20)
(-0.021368126 0.055107293 -2.7894692e-20)
(-0.023634561 0.05703487 -4.5991675e-21)
(-0.026040453 0.058327927 1.5785695e-20)
(-0.028573692 0.058872344 5.5048352e-21)
(-0.031221493 0.058602288 1.228437e-20)
(-0.03397384 0.057533344 -1.3460008e-20)
(-0.03682537 0.055777183 -5.7105532e-21)
(-0.039773611 0.053516373 1.2727159e-20)
(-0.042814582 0.050947718 -5.1155519e-21)
(-0.045938904 0.048231999 -2.4212835e-21)
(-0.049130382 0.045476238 6.5970126e-21)
(-0.052366715 0.042742323 1.6869233e-20)
(-0.055621102 0.040063759 5.0600575e-21)
(-0.058863957 0.037459343 -3.3082033e-21)
(-0.062064515 0.034941122 -7.8009429e-21)
(-0.065192559 0.03251742 -8.1262204e-21)
(-0.068219997 0.030192053 -9.0900318e-21)
(-0.071123055 0.027961135 -1.930265e-20)
(-0.073884711 0.025806769 5.4082684e-22)
(-0.07649067 0.023680522 -8.3831695e-21)
(-0.078926023 0.021487998 4.7211395e-20)
(-0.081171517 0.019082644 1.3305729e-20)
(-0.083181794 0.016240626 1.5526064e-20)
(-0.084864194 0.012632863 4.3863822e-20)
(-0.086017992 0.0077917683 -5.2356888e-20)
(-0.086297908 0.0010626833 1.1875306e-20)
(-0.084997673 -0.0084212072 3.8620828e-20)
(-0.081057002 -0.021727343 4.7249833e-20)
(-0.07252328 -0.039858507 5.6773637e-21)
(-0.05697458 -0.063407131 -1.5064992e-20)
(-0.0304946 -0.091051243 -2.2761488e-20)
(0.0087657726 -0.11900082 9.0346712e-21)
(0.062535179 -0.13765704 -1.2950577e-20)
(0.12087596 -0.14093506 9.1323468e-21)
(0.18461714 -0.12024301 2.1184968e-21)
(0.24144772 -0.078866467 4.5723647e-21)
(0.30590486 -0.016646737 -1.8542647e-20)
(0.36557347 0.044174772 -8.5860642e-23)
(0.4750932 0.088844802 -8.5550919e-21)
(-8.9906007e-05 0.00035576363 -1.9307053e-21)
(-0.00027933858 0.0011014278 -5.1722091e-22)
(-0.0004900542 0.0019250895 5.6820038e-22)
(-0.00072458063 0.0028346939 2.7923632e-21)
(-0.00098568544 0.0038387593 -3.3481273e-21)
(-0.0012764471 0.0049463329 2.842207e-21)
(-0.0016002674 0.0061669369 1.3579351e-21)
(-0.0019608801 0.0075104841 -7.271756e-23)
(-0.0023623729 0.0089871486 -1.1450028e-21)
(-0.0028092027 0.010607187 -6.5069901e-21)
(-0.0033062076 0.012380699 1.0914755e-20)
(-0.0038586117 0.014317305 -1.3098304e-20)
(-0.0044720223 0.016425744 3.840406e-21)
(-0.005152416 0.018713344 5.2031714e-21)
(-0.0059061107 0.021185383 -7.962613e-21)
(-0.0067397196 0.023844281 1.5655613e-20)
(-0.0076600821 0.026688632 -1.891903e-20)
(-0.0086741664 0.029712047 -2.9784987e-22)
(-0.0097889364 0.032901788 -1.0768302e-20)
(-0.011011174 0.036237191 4.2562968e-20)
(-0.012347247 0.039687889 -1.0260436e-20)
(-0.013802806 0.043211857 -4.2270814e-20)
(-0.015382399 0.046753345 1.9878507e-20)
(-0.017088988 0.050240827 2.3597535e-20)
(-0.018923349 0.053585219 -5.8959247e-21)
(-0.020883389 0.056678804 -3.0700075e-20)
(-0.022963465 0.059395782 4.6158015e-20)
(-0.025153938 0.061596058 -5.0765054e-20)
(-0.027441455 0.063135067 3.9530013e-20)
(-0.029810632 0.063883328 -7.4593748e-21)
(-0.032247581 0.063757768 1.2590269e-20)
(-0.034744256 0.062758404 1.7521482e-20)
(-0.037300583 0.060989102 -6.6312598e-21)
(-0.039921579 0.058637478 -1.6170301e-21)
(-0.04261067 0.055916931 -2.2982217e-20)
(-0.045363722 0.053009141 4.2235846e-21)
(-0.048166839 0.050039396 -1.0655101e-20)
(-0.050997344 0.047082606 8.875408e-21)
(-0.053825968 0.044180857 -5.0105157e-21)
(-0.056618969 0.04135896 -3.3072886e-21)
(-0.059339817 0.038634069 -2.8671592e-21)
(-0.061950722 0.036019827 -2.7922434e-21)
(-0.064413688 0.033526322 1.7260483e-20)
(-0.066692369 0.031157286 1.3910276e-20)
(-0.068753072 0.028903038 -3.9722544e-21)
(-0.070558521 0.026723172 2.6455897e-21)
(-0.072064702 0.024530798 -1.0805605e-20)
(-0.073213435 0.022183718 2.2401877e-20)
(-0.073904293 0.019456244 2.6752107e-20)
(-0.073968824 0.016009831 7.996208e-21)
(-0.073098531 0.011353357 2.0786358e-20)
(-0.070793637 0.0047807545 -6.4666101e-22)
(-0.066124336 -0.004663183 -1.0089757e-20)
(-0.057732902 -0.018199607 -5.1038577e-20)
(-0.043178236 -0.037031507 2.5242435e-20)
(-0.019349968 -0.061992703 -1.0492024e-20)
(0.018528568 -0.091627358 2.6739323e-20)
(0.072487044 -0.1217233 -4.0447288e-20)
(0.14187894 -0.14105543 1.9971818e-20)
(0.21603882 -0.14315523 -4.9094276e-21)
(0.28932663 -0.12118121 -4.1947183e-23)
(0.35382441 -0.078770643 -2.8447704e-21)
(0.42318344 -0.016619938 -5.7082159e-21)
(0.49025651 0.039904019 1.5826978e-20)
(0.61022572 0.081523442 -1.4901161e-20)
(-0.00010685595 0.00037285113 4.3347306e-21)
(-0.00033166678 0.0011546109 2.9824833e-21)
(-0.00058119928 0.0020184023 -4.6817722e-21)
(-0.00085823341 0.0029725185 1.2325096e-22)
(-0.0011657963 0.0040258544 4.232481e-21)
(-0.001507215 0.0051878673 2.2129982e-21)
(-0.0018861227 0.0064685267 -4.6636267e-21)
(-0.0023064596 0.0078782329 7.6579049e-22)
(-0.0027724818 0.0094276913 -1.0795223e-20)
(-0.0032887599 0.011127739 2.1036993e-21)
(-0.0038601713 0.012989106 5.3995362e-23)
(-0.0044918818 0.015022103 -7.7362499e-21)
(-0.0051893143 0.017236215 2.4786329e-20)
(-0.005958102 0.019639582 -1.1547334e-20)
(-0.0068040226 0.022238345 -2.0685068e-20)
(-0.0077329086 0.025035846 2.2037074e-20)
(-0.0087505307 0.028031642 -2.713744e-21)
(-0.0098624481 0.03122032 1.5399178e-20)
(-0.011073821 0.034590094 1.1432065e-20)
(-0.012389178 0.038121174 -3.5934322e-20)
(-0.013812134 0.041783891 2.6953435e-20)
(-0.015345045 0.04553662 -3.5441199e-20)
(-0.016988595 0.049323536 4.1553142e-21)
(-0.018741311 0.053072325 -1.6956544e-20)
(-0.020599003 0.056692089 3.6753059e-20)
(-0.022554172 0.060071867 -8.6823467e-21)
(-0.02459549 0.063080654 -2.1821517e-20)
(-0.026707633 0.065570529 5.2394041e-20)
(-0.028871975 0.067385694 -2.255534e-20)
(-0.031068896 0.068381347 -2.4034394e-20)
(-0.033282191 0.068455286 1.9545844e-20)
(-0.03550448 0.067587491 2.5804411e-21)
(-0.037739987 0.065867517 -1.2517395e-20)
(-0.040001009 0.063481787 6.7008971e-21)
(-0.04229901 0.060656881 -9.9463627e-21)
(-0.044636057 0.057595276 3.376654e-20)
(-0.047001288 0.054442302 -1.7236655e-20)
(-0.049371884 0.051287856 -1.0115234e-20)
(-0.05171582 0.048184024 -2.0464042e-20)
(-0.053994441 0.045162408 -2.8061176e-21)
(-0.05616423 0.042245597 2.1433364e-20)
(-0.058178074 0.039452644 -8.69278e-21)
(-0.059985678 0.036799943 -1.2901187e-20)
(-0.061534764 0.034298945 -1.941804e-21)
(-0.062769836 0.031948336 1.318216e-20)
(-0.063624239 0.029716295 1.1865313e-20)
(-0.064014868 0.027524639 -3.6801084e-20)
(-0.06382976 0.025236266 -1.988115e-20)
(-0.062889993 0.022624614 -4.4083063e-20)
(-0.060915332 0.019343866 -1.5798356e-20)
(-0.057433118 0.014883433 -6.312454e-21)
(-0.051708972 0.0084930165 -4.7494244e-20)
(-0.042486793 -0.00086073474 -1.8613771e-20)
(-0.02793517 -0.014556384 6.3216822e-20)
(-0.0047855886 -0.033977205 -5.0291854e-20)
(0.031269154 -0.060161051 4.4131572e-20)
(0.086318393 -0.091303002 -1.9986415e-20)
(0.16217645 -0.12195334 8.3415796e-20)
(0.25332279 -0.14063222 3.3700608e-20)
(0.34644571 -0.13888024 -9.4004828e-21)
(0.42969845 -0.11302365 -1.0275246e-20)
(0.49769488 -0.069312332 -1.338215e-20)
(0.56607057 -0.0082561631 -7.7546587e-22)
(0.63618676 0.042368633 -2.0945244e-21)
(0.76063501 0.080441291 1.9079368e-20)
(-0.00012350478 0.00038388921 7.8997321e-23)
(-0.00038307905 0.0011890967 -5.6238249e-21)
(-0.00067076503 0.0020791022 6.6290713e-21)
(-0.00098958983 0.0030624463 3.1896714e-21)
(-0.0013428357 0.004148298 -6.3874169e-21)
(-0.0017340741 0.0053464221 -2.0684169e-21)
(-0.0021671664 0.0066671343 1.0028892e-20)
(-0.002646258 0.0081212261 -1.0788558e-20)
(-0.0031757733 0.0097198468 -2.2749417e-21)
(-0.0037603996 0.011474339 -9.0448091e-21)
(-0.0044050604 0.013396011 2.4002481e-20)
(-0.0051148739 0.015495834 2.9191863e-22)
(-0.0058950952 0.017784051 -2.1516639e-20)
(-0.006751037 0.020269666 2.3069894e-20)
(-0.0076879668 0.022959808 -1.6491292e-20)
(-0.0087109748 0.025858934 -6.1052548e-21)
(-0.0098248094 0.028967851 1.2731322e-20)
(-0.011033675 0.032282526 -1.1463898e-20)
(-0.01234099 0.035792672 -1.5230728e-20)
(-0.013749092 0.039480071 3.2161397e-22)
(-0.015258904 0.043316641 2.3886431e-20)
(-0.016869535 0.04726225 -1.4731093e-20)
(-0.018577833 0.051262319 8.1861462e-21)
(-0.020377876 0.0552453 3.9425058e-20)
(-0.022260434 0.059120263 1.3148758e-20)
(-0.024212435 0.062774981 -3.5548654e-20)
(-0.026216578 0.06607534 3.5402453e-21)
(-0.028251386 0.068867634 -3.9772348e-20)
(-0.03029224 0.070986483 2.3384035e-20)
(-0.032314229 0.072272441 -1.2273977e-20)
(-0.034297367 0.072602945 1.7607922e-20)
(-0.036233193 0.071933851 4.2468317e-21)
(-0.03812856 0.070333474 -2.0843473e-20)
(-0.040002182 0.067979563 2.0965994e-20)
(-0.041873876 0.065106813 3.0046939e-20)
(-0.043752867 0.061937286 -2.7364972e-21)
(-0.045632268 0.058637909 -3.0644687e-20)
(-0.047489582 0.055315754 3.8394208e-20)
(-0.049289861 0.052034624 -8.1322417e-21)
(-0.050988784 0.048833884 1.7329459e-20)
(-0.052534531 0.045741934 -2.7107705e-21)
(-0.053868677 0.042783261 2.7254427e-20)
(-0.054925851 0.039980439 1.321056e-20)
(-0.055633809 0.037352416 1.6909041e-20)
(-0.055908919 0.034906282 -6.9681782e-20)
(-0.055647284 0.032619055 -2.3410872e-20)
(-0.054713404 0.030421861 3.176549e-20)
(-0.052921329 0.028182735 -2.6623264e-20)
(-0.049980118 0.025674169 -2.2867615e-20)
(-0.045443116 0.022544749 2.6341626e-20)