/*--------------------------------*- C++ -*----------------------------------*\
  =========                 |
  \\      /  F ield         | OpenFOAM: The Open Source CFD Toolbox
   \\    /   O peration     | Website:  https://openfoam.org
    \\  /    A nd           | Version:  13
     \\/     M anipulation  |
\*---------------------------------------------------------------------------*/
FoamFile
{
    format      ascii;
    class       volScalarField;
    location    "26.702207";
    object      pPrime2Mean;
}
// * * * * * * * * * * * * * * * * * * * * * * * * * * * * * * * * * * * * * //

dimensions      [0 4 -4 0 0 0 0];

internalField   nonuniform List<scalar> 
17140
(
11615.93
11615.93
11615.93
11615.93
11615.93
11615.929
11615.928
11615.926
11615.923
11615.92
11615.915
11615.909
11615.901
11615.892
11615.879
11615.863
11615.842
11615.815
11615.781
11615.738
11615.683
11615.612
11615.52
11615.404
11615.254
11615.062
11614.816
11614.502
11614.104
11613.599
11612.962
11612.161
11611.157
11609.903
11608.342
11606.405
11604.011
11601.067
11597.462
11593.07
11587.751
11581.341
11573.659
11564.499
11553.633
11540.808
11525.745
11508.138
11487.653
11463.928
11436.571
11405.155
11369.222
11328.278
11281.79
11229.183
11169.838
11103.087
11028.2
10944.402
10850.831
10746.588
10630.63
10501.922
10359.238
11616.222
11616.222
11616.222
11616.222
11616.222
11616.221
11616.22
11616.218
11616.215
11616.212
11616.207
11616.201
11616.193
11616.183
11616.17
11616.153
11616.132
11616.105
11616.071
11616.027
11615.971
11615.899
11615.807
11615.689
11615.538
11615.345
11615.099
11614.785
11614.387
11613.883
11613.247
11612.447
11611.445
11610.193
11608.633
11606.698
11604.306
11601.364
11597.761
11593.373
11588.057
11581.651
11573.973
11564.819
11553.959
11541.141
11526.086
11508.487
11488.012
11464.298
11436.953
11405.552
11369.635
11328.71
11282.242
11229.66
11170.342
11103.621
11028.768
10945.009
10851.48
10747.285
10631.382
10502.736
10360.114
11616.945
11616.945
11616.945
11616.945
11616.945
11616.944
11616.942
11616.94
11616.937
11616.934
11616.929
11616.922
11616.914
11616.903
11616.89
11616.872
11616.85
11616.822
11616.787
11616.741
11616.684
11616.61
11616.516
11616.397
11616.244
11616.05
11615.803
11615.49
11615.092
11614.589
11613.956
11613.159
11612.16
11610.911
11609.355
11607.423
11605.035
11602.098
11598.5
11594.119
11588.81
11582.414
11574.747
11565.606
11554.761
11541.961
11526.924
11509.347
11488.896
11465.208
11437.893
11406.527
11370.651
11329.771
11283.356
11230.833
11171.583
11104.937
11030.168
10946.503
10853.079
10749.001
10633.229
10504.732
10362.258
11618.114
11618.115
11618.115
11618.114
11618.114
11618.113
11618.111
11618.109
11618.106
11618.102
11618.096
11618.089
11618.08
11618.069
11618.055
11618.036
11618.013
11617.984
11617.946
11617.9
11617.84
11617.765
11617.669
11617.548
11617.394
11617.2
11616.953
11616.64
11616.244
11615.743
11615.112
11614.319
11613.324
11612.079
11610.527
11608.601
11606.22
11603.289
11599.7
11595.329
11590.033
11583.651
11576.003
11566.882
11556.062
11543.289
11528.283
11510.74
11490.326
11466.682
11439.417
11408.108
11372.297
11331.493
11285.164
11232.738
11173.597
11107.074
11032.443
10948.931
10855.677
10751.79
10636.229
10507.972
10365.738
11619.746
11619.747
11619.747
11619.746
11619.745
11619.744
11619.742
11619.74
11619.736
11619.732
11619.726
11619.719
11619.709
11619.697
11619.682
11619.663
11619.639
11619.608
11619.57
11619.522
11619.461
11619.384
11619.287
11619.165
11619.011
11618.816
11618.57
11618.258
11617.864
11617.366
11616.739
11615.949
11614.958
11613.718
11612.172
11610.253
11607.879
11604.958
11601.381
11597.024
11591.745
11585.385
11577.761
11568.669
11557.883
11545.147
11530.184
11512.687
11492.327
11468.744
11441.549
11410.321
11374.603
11333.905
11287.696
11235.408
11176.421
11110.071
11035.633
10952.336
10859.323
10755.702
10640.439
10512.519
10370.62
11621.857
11621.857
11621.857
11621.857
11621.856
11621.854
11621.853
11621.85
11621.846
11621.842
11621.836
11621.828
11621.818
11621.806
11621.79
11621.77
11621.746
11621.715
11621.676
11621.627
11621.565
11621.488
11621.391
11621.269
11621.115
11620.921
11620.676
11620.367
11619.975
11619.48
11618.856
11618.071
11617.084
11615.849
11614.31
11612.398
11610.035
11607.126
11603.564
11599.225
11593.969
11587.635
11580.043
11570.989
11560.245
11547.558
11532.648
11515.213
11494.922
11471.419
11444.316
11413.193
11377.597
11337.038
11290.987
11238.877
11180.091
11113.968
11039.782
10956.765
10864.064
10760.791
10645.917
10518.434
10376.974
11624.468
11624.468
11624.468
11624.468
11624.467
11624.465
11624.463
11624.46
11624.457
11624.452
11624.446
11624.438
11624.428
11624.416
11624.4
11624.38
11624.356
11624.325
11624.286
11624.237
11624.176
11624.1
11624.004
11623.883
11623.73
11623.538
11623.295
11622.988
11622.599
11622.107
11621.487
11620.705
11619.723
11618.494
11616.962
11615.06
11612.708
11609.814
11606.27
11601.954
11596.725
11590.424
11582.872
11573.863
11563.171
11550.543
11535.7
11518.341
11498.137
11474.733
11447.744
11416.754
11381.309
11340.922
11295.068
11243.181
11184.646
11118.803
11044.93
10962.263
10869.951
10767.111
10652.72
10525.783
10384.872
11627.604
11627.604
11627.604
11627.603
11627.603
11627.601
11627.599
11627.596
11627.593
11627.588
11627.582
11627.574
11627.565
11627.552
11627.537
11627.518
11627.494
11627.463
11627.425
11627.378
11627.318
11627.243
11627.149
11627.03
11626.88
11626.69
11626.449
11626.145
11625.759
11625.27
11624.653
11623.875
11622.898
11621.675
11620.151
11618.259
11615.921
11613.044
11609.522
11605.233
11600.036
11593.775
11586.268
11577.313
11566.683
11554.125
11539.362
11522.094
11501.995
11478.712
11451.862
11421.032
11385.77
11345.592
11299.976
11248.356
11190.122
11124.618
11051.124
10968.878
10877.035
10774.717
10660.909
10534.63
10394.385
11631.294
11631.294
11631.294
11631.293
11631.292
11631.291
11631.289
11631.286
11631.283
11631.278
11631.272
11631.265
11631.256
11631.244
11631.229
11631.211
11631.187
11631.158
11631.122
11631.076
11631.018
11630.945
11630.853
11630.736
11630.588
11630.401
11630.163
11629.861
11629.478
11628.992
11628.378
11627.604
11626.632
11625.416
11623.9
11622.02
11619.697
11616.84
11613.342
11609.084
11603.925
11597.709
11590.255
11581.363
11570.803
11558.327
11543.658
11526.498
11506.523
11483.383
11456.698
11426.057
11391.012
11351.081
11305.744
11254.44
11196.562
11131.456
11058.407
10976.658
10885.368
10783.664
10670.545
10545.043
10405.588
11635.57
11635.57
11635.569
11635.569
11635.568
11635.566
11635.564
11635.562
11635.558
11635.554
11635.548
11635.541
11635.532
11635.521
11635.507
11635.489
11635.467
11635.439
11635.403
11635.359
11635.303
11635.232
11635.142
11635.027
11634.882
11634.696
11634.461
11634.161
11633.78
11633.297
11632.686
11631.916
11630.949
11629.74
11628.234
11626.366
11624.06
11621.225
11617.755
11613.531
11608.414
11602.249
11594.856
11586.033
11575.554
11563.171
11548.611
11531.577
11511.747
11488.773
11462.28
11431.858
11397.065
11357.421
11312.408
11261.47
11204.004
11139.358
11066.825
10985.651
10895.003
10794.013
10681.693
10557.093
10418.559
11640.458
11640.458
11640.458
11640.457
11640.456
11640.454
11640.452
11640.45
11640.447
11640.442
11640.437
11640.43
11640.421
11640.41
11640.397
11640.38
11640.358
11640.331
11640.297
11640.253
11640.199
11640.129
11640.04
11639.928
11639.784
11639.6
11639.366
11639.068
11638.689
11638.208
11637.599
11636.833
11635.872
11634.67
11633.175
11631.322
11629.034
11626.223
11622.784
11618.598
11613.528
11607.419
11600.092
11591.347
11580.959
11568.682
11554.246
11537.355
11517.691
11494.909
11468.636
11438.467
11403.962
11364.646
11320.004
11269.485
11212.489
11148.371
11076.427
10995.911
10905.997
10805.825
10694.42
10570.853
10433.376
11645.985
11645.985
11645.984
11645.984
11645.982
11645.981
11645.979
11645.976
11645.973
11645.969
11645.963
11645.956
11645.948
11645.937
11645.924
11645.907
11645.886
11645.859
11645.825
11645.782
11645.728
11645.659
11645.571
11645.459
11645.316
11645.133
11644.9
11644.603
11644.225
11643.746
11643.141
11642.379
11641.424
11640.231
11638.748
11636.91
11634.642
11631.857
11628.452
11624.308
11619.289
11613.241
11605.987
11597.328
11587.042
11574.883
11560.586
11543.858
11524.382
11501.817
11475.795
11445.913
11411.736
11372.792
11328.571
11278.525
11222.061
11158.539
11087.262
11007.49
10918.408
10819.161
10708.793
10586.394
10450.117
11652.168
11652.168
11652.167
11652.166
11652.165
11652.164
11652.162
11652.159
11652.156
11652.151
11652.146
11652.139
11652.13
11652.119
11652.106
11652.089
11652.068
11652.041
11652.007
11651.964
11651.91
11651.841
11651.753
11651.641
11651.498
11651.315
11651.082
11650.786
11650.409
11649.933
11649.331
11648.574
11647.626
11646.444
11644.973
11643.153
11640.908
11638.152
11634.783
11630.685
11625.722
11619.74
11612.565
11604
11593.825
11581.8
11567.658
11551.111
11531.847
11509.528
11483.788
11454.23
11420.422
11381.895
11338.145
11288.631
11232.764
11169.909
11099.379
11020.443
10932.293
10834.087
10724.879
10603.793
10468.861
11659.023
11659.022
11659.022
11659.021
11659.02
11659.018
11659.016
11659.013
11659.01
11659.005
11659
11658.993
11658.984
11658.973
11658.959
11658.942
11658.92
11658.893
11658.859
11658.815
11658.761
11658.691
11658.603
11658.49
11658.347
11658.164
11657.931
11657.636
11657.261
11656.788
11656.191
11655.44
11654.501
11653.33
11651.875
11650.074
11647.854
11645.13
11641.801
11637.752
11632.849
11626.94
11619.851
11611.389
11601.337
11589.458
11575.489
11559.146
11540.118
11518.074
11492.65
11463.452
11430.054
11391.992
11348.768
11299.845
11244.641
11182.529
11112.832
11034.825
10947.715
10850.664
10742.749
10623.123
10489.686
11666.565
11666.565
11666.564
11666.563
11666.562
11666.56
11666.558
11666.555
11666.552
11666.547
11666.541
11666.534
11666.525
11666.514
11666.5
11666.482
11666.46
11666.432
11666.397
11666.354
11666.298
11666.228
11666.139
11666.026
11665.882
11665.7
11665.468
11665.174
11664.802
11664.333
11663.741
11662.999
11662.071
11660.913
11659.475
11657.696
11655.504
11652.815
11649.531
11645.535
11640.697
11634.865
11627.87
11619.521
11609.605
11597.887
11584.11
11567.992
11549.227
11527.487
11502.412
11473.614
11440.669
11403.121
11360.478
11312.208
11257.738
11196.449
11127.672
11050.694
10964.732
10868.959
10762.471
10644.457
10512.671
11674.815
11674.815
11674.814
11674.813
11674.812
11674.81
11674.808
11674.805
11674.801
11674.797
11674.791
11674.783
11674.774
11674.763
11674.748
11674.73
11674.708
11674.68
11674.645
11674.6
11674.544
11674.474
11674.385
11674.271
11674.128
11673.946
11673.716
11673.425
11673.057
11672.592
11672.008
11671.275
11670.358
11669.216
11667.798
11666.043
11663.883
11661.233
11657.996
11654.058
11649.29
11643.543
11636.65
11628.425
11618.658
11607.118
11593.552
11577.682
11559.207
11537.802
11513.112
11484.752
11452.306
11415.323
11373.318
11325.766
11272.102
11211.718
11143.954
11068.108
10983.407
10889.037
10784.113
10667.867
10537.892
11683.799
11683.798
11683.798
11683.797
11683.796
11683.794
11683.792
11683.789
11683.785
11683.78
11683.774
11683.767
11683.758
11683.746
11683.731
11683.713
11683.691
11683.663
11683.627
11683.583
11683.527
11683.456
11683.367
11683.254
11683.112
11682.931
11682.703
11682.415
11682.052
11681.593
11681.017
11680.295
11679.391
11678.266
11676.869
11675.143
11673.016
11670.408
11667.223
11663.348
11658.655
11653.001
11646.22
11638.13
11628.527
11617.183
11603.848
11588.25
11570.092
11549.053
11524.783
11496.903
11465.002
11428.637
11387.329
11340.563
11287.783
11228.388
11161.732
11087.123
11003.8
10910.96
10807.742
10693.426
10565.423
11693.545
11693.545
11693.544
11693.543
11693.542
11693.54
11693.538
11693.535
11693.532
11693.527
11693.521
11693.514
11693.504
11693.493
11693.478
11693.46
11693.438
11693.409
11693.374
11693.33
11693.274
11693.204
11693.115
11693.004
11692.863
11692.684
11692.459
11692.175
11691.816
11691.365
11690.797
11690.086
11689.198
11688.091
11686.718
11685.021
11682.931
11680.368
11677.238
11673.431
11668.822
11663.267
11656.609
11648.668
11639.243
11628.111
11615.029
11599.727
11581.914
11561.274
11537.461
11510.103
11478.795
11443.103
11402.555
11356.645
11304.825
11246.51
11181.061
11107.796
11025.97
10934.791
10833.425
10721.202
10595.339
11704.083
11704.083
11704.083
11704.082
11704.081
11704.079
11704.077
11704.074
11704.07
11704.066
11704.06
11704.053
11704.044
11704.032
11704.018
11704
11703.978
11703.95
11703.915
11703.871
11703.816
11703.747
11703.66
11703.55
11703.411
11703.235
11703.013
11702.733
11702.38
11701.936
11701.378
11700.679
11699.806
11698.719
11697.371
11695.705
11693.655
11691.141
11688.071
11684.337
11679.817
11674.372
11667.847
11660.067
11650.836
11639.936
11627.127
11612.146
11594.707
11574.499
11551.182
11524.389
11493.725
11458.762
11419.037
11374.055
11323.279
11266.134
11201.991
11130.183
11049.973
10960.59
10861.225
10751.266
10627.712
11715.439
11715.439
11715.439
11715.438
11715.437
11715.435
11715.433
11715.431
11715.427
11715.423
11715.417
11715.41
11715.401
11715.39
11715.376
11715.359
11715.337
11715.31
11715.275
11715.233
11715.179
11715.111
11715.025
11714.917
11714.781
11714.609
11714.391
11714.116
11713.77
11713.334
11712.786
11712.1
11711.243
11710.178
11708.856
11707.225
11705.216
11702.754
11699.747
11696.092
11691.669
11686.344
11679.964
11672.359
11663.337
11652.687
11640.173
11625.54
11608.504
11588.762
11565.98
11539.799
11509.829
11475.653
11436.817
11392.838
11343.192
11287.31
11224.577
11154.335
11075.867
10988.417
10891.206
10783.683
10662.611
11727.632
11727.632
11727.632
11727.631
11727.63
11727.629
11727.627
11727.624
11727.621
11727.617
11727.611
11727.604
11727.596
11727.585
11727.572
11727.555
11727.534
11727.508
11727.475
11727.433
11727.381
11727.315
11727.232
11727.127
11726.994
11726.827
11726.614
11726.346
11726.008
11725.582
11725.046
11724.375
11723.537
11722.494
11721.202
11719.605
11717.641
11715.234
11712.296
11708.725
11704.407
11699.21
11692.987
11685.571
11676.776
11666.395
11654.2
11639.939
11623.338
11604.097
11581.89
11556.366
11527.143
11493.813
11455.936
11413.04
11364.608
11310.086
11248.865
11180.306
11103.707
11018.331
10923.43
10818.521
10700.104
11740.679
11740.679
11740.679
11740.678
11740.677
11740.676
11740.674
11740.672
11740.668
11740.664
11740.659
11740.653
11740.645
11740.635
11740.622
11740.606
11740.586
11740.561
11740.53
11740.49
11740.44
11740.377
11740.297
11740.196
11740.068
11739.906
11739.701
11739.442
11739.114
11738.7
11738.179
11737.526
11736.71
11735.693
11734.432
11732.874
11730.957
11728.609
11725.743
11722.264
11718.058
11713
11706.946
11699.734
11691.182
11681.091
11669.237
11655.377
11639.241
11620.537
11598.946
11574.125
11545.702
11513.282
11476.437
11434.702
11387.573
11334.505
11274.905
11208.146
11133.547
11050.389
10957.957
10855.84
10740.253
11754.596
11754.596
11754.596
11754.595
11754.594
11754.593
11754.591
11754.589
11754.586
11754.583
11754.578
11754.572
11754.565
11754.555
11754.544
11754.529
11754.51
11754.487
11754.457
11754.42
11754.373
11754.313
11754.238
11754.142
11754.02
11753.865
11753.668
11753.419
11753.104
11752.705
11752.202
11751.57
11750.779
11749.793
11748.568
11747.053
11745.189
11742.903
11740.117
11736.735
11732.651
11727.742
11721.869
11714.874
11706.584
11696.803
11685.315
11671.883
11656.244
11638.112
11617.178
11593.106
11565.541
11534.097
11498.357
11457.864
11412.128
11360.613
11302.741
11237.905
11165.439
11084.646
10994.845
10895.702
10783.119
11769.406
11769.406
11769.406
11769.405
11769.404
11769.403
11769.402
11769.4
11769.397
11769.394
11769.39
11769.384
11769.378
11769.369
11769.358
11769.345
11769.327
11769.306
11769.278
11769.244
11769.2
11769.144
11769.073
11768.982
11768.867
11768.72
11768.534
11768.296
11767.994
11767.613
11767.131
11766.524
11765.762
11764.811
11763.627
11762.161
11760.355
11758.14
11755.44
11752.165
11748.211
11743.461
11737.781
11731.021
11723.01
11713.561
11702.464
11689.487
11674.374
11656.848
11636.611
11613.342
11586.695
11556.295
11521.731
11482.566
11438.312
11388.451
11332.422
11269.632
11199.435
11121.155
11034.147
10938.165
10828.758
11785.134
11785.134
11785.134
11785.134
11785.133
11785.132
11785.131
11785.129
11785.127
11785.124
11785.12
11785.115
11785.109
11785.101
11785.091
11785.079
11785.063
11785.043
11785.018
11784.985
11784.944
11784.892
11784.826
11784.741
11784.632
11784.493
11784.316
11784.091
11783.804
11783.44
11782.981
11782.401
11781.672
11780.759
11779.622
11778.211
11776.471
11774.336
11771.732
11768.573
11764.76
11760.181
11754.709
11748.198
11740.486
11731.39
11720.705
11708.207
11693.65
11676.768
11657.276
11634.863
11609.195
11579.904
11546.597
11508.84
11466.163
11418.061
11363.989
11303.372
11235.585
11159.968
11075.917
10983.285
10877.224
11801.809
11801.809
11801.809
11801.809
11801.808
11801.807
11801.806
11801.804
11801.802
11801.799
11801.796
11801.791
11801.786
11801.778
11801.769
11801.757
11801.742
11801.724
11801.7
11801.669
11801.63
11801.581
11801.518
11801.437
11801.334
11801.203
11801.035
11800.821
11800.548
11800.203
11799.766
11799.214
11798.52
11797.65
11796.564
11795.215
11793.549
11791.502
11789.004
11785.972
11782.312
11777.918
11772.668
11766.424
11759.028
11750.302
11740.052
11728.062
11714.095
11697.899
11679.201
11657.697
11633.067
11604.957
11572.98
11536.719
11495.716
11449.482
11397.486
11339.173
11273.935
11201.135
11120.205
11031.115
10928.569
11819.45
11819.45
11819.45
11819.45
11819.45
11819.449
11819.448
11819.446
11819.444
11819.441
11819.438
11819.433
11819.428
11819.421
11819.412
11819.4
11819.386
11819.367
11819.344
11819.315
11819.277
11819.229
11819.169
11819.091
11818.992
11818.866
11818.706
11818.502
11818.244
11817.916
11817.502
11816.979
11816.321
11815.495
11814.464
11813.182
11811.596
11809.647
11807.264
11804.371
11800.878
11796.683
11791.67
11785.706
11778.642
11770.309
11760.52
11749.067
11735.728
11720.264
11702.404
11681.865
11658.336
11631.476
11600.91
11566.234
11527.005
11482.749
11432.952
11377.075
11314.531
11244.701
11167.059
11081.706
10982.845
11838.068
11838.068
11838.068
11838.067
11838.067
11838.066
11838.065
11838.063
11838.061
11838.059
11838.055
11838.051
11838.045
11838.038
11838.028
11838.017
11838.002
11837.984
11837.961
11837.931
11837.894
11837.847
11837.787
11837.712
11837.616
11837.495
11837.341
11837.147
11836.901
11836.59
11836.199
11835.705
11835.085
11834.306
11833.333
11832.122
11830.623
11828.778
11826.521
11823.776
11820.46
11816.475
11811.713
11806.048
11799.338
11791.421
11782.12
11771.238
11758.567
11743.873
11726.902
11707.385
11685.021
11659.483
11630.411
11597.412
11560.061
11517.899
11470.426
11417.122
11357.418
11290.715
11216.527
11135.107
11040.108
11857.659
11857.659
11857.659
11857.659
11857.658
11857.658
11857.656
11857.655
11857.653
11857.65
11857.646
11857.641
11857.635
11857.628
11857.619
11857.607
11857.592
11857.573
11857.55
11857.52
11857.483
11857.436
11857.378
11857.304
11857.211
11857.094
11856.946
11856.761
11856.528
11856.235
11855.867
11855.404
11854.822
11854.092
11853.18
11852.044
11850.636
11848.901
11846.775
11844.188
11841.059
11837.299
11832.804
11827.455
11821.119
11813.644
11804.859
11794.584
11782.618
11768.739
11752.71
11734.272
11713.139
11688.998
11661.504
11630.279
11594.913
11554.962
11509.944
11459.353
11402.64
11339.222
11268.655
11191.365
11100.42
11878.213
11878.213
11878.213
11878.212
11878.212
11878.211
11878.209
11878.208
11878.206
11878.203
11878.199
11878.194
11878.188
11878.18
11878.171
11878.159
11878.144
11878.125
11878.102
11878.072
11878.036
11877.99
11877.933
11877.861
11877.772
11877.66
11877.521
11877.346
11877.127
11876.853
11876.509
11876.078
11875.536
11874.858
11874.009
11872.95
11871.636
11870.015
11868.027
11865.606
11862.676
11859.153
11854.94
11849.927
11843.988
11836.979
11828.743
11819.109
11807.886
11794.87
11779.835
11762.535
11742.701
11720.035
11694.206
11664.855
11631.585
11593.969
11551.54
11503.808
11450.241
11390.27
11323.498
11250.543
11163.843
11899.714
11899.714
11899.714
11899.713
11899.713
11899.712
11899.711
11899.709
11899.707
11899.704
11899.7
11899.695
11899.69
11899.682
11899.673
11899.661
11899.647
11899.629
11899.606
11899.578
11899.543
11899.5
11899.446
11899.378
11899.294
11899.19
11899.06
11898.898
11898.696
11898.443
11898.126
11897.729
11897.229
11896.602
11895.818
11894.838
11893.622
11892.12
11890.276
11888.029
11885.308
11882.036
11878.122
11873.464
11867.943
11861.426
11853.769
11844.811
11834.375
11822.268
11808.28
11792.182
11773.717
11752.604
11728.532
11701.157
11670.099
11634.946
11595.246
11550.526
11500.266
11443.91
11381.115
11312.722
11230.444
11922.153
11922.153
11922.153
11922.153
11922.152
11922.151
11922.15
11922.149
11922.147
11922.144
11922.141
11922.136
11922.131
11922.124
11922.116
11922.105
11922.092
11922.075
11922.055
11922.029
11921.997
11921.958
11921.909
11921.848
11921.772
11921.678
11921.56
11921.414
11921.231
11921.001
11920.713
11920.351
11919.895
11919.322
11918.603
11917.706
11916.59
11915.211
11913.518
11911.453
11908.953
11905.944
11902.345
11898.06
11892.978
11886.981
11879.934
11871.687
11862.079
11850.93
11838.046
11823.212
11806.189
11786.713
11764.491
11739.198
11710.472
11677.916
11641.094
11599.547
11552.766
11500.198
11441.55
11377.906
11300.403
11945.529
11945.529
11945.529
11945.528
11945.528
11945.527
11945.526
11945.525
11945.523
11945.521
11945.518
11945.514
11945.509
11945.504
11945.496
11945.487
11945.476
11945.462
11945.444
11945.422
11945.395
11945.361
11945.318
11945.265
11945.199
11945.117
11945.014
11944.885
11944.722
11944.518
11944.26
11943.934
11943.524
11943.006
11942.356
11941.543
11940.532
11939.281
11937.745
11935.872
11933.602
11930.871
11927.602
11923.705
11919.086
11913.635
11907.228
11899.73
11890.992
11880.851
11869.126
11855.621
11840.114
11822.36
11802.085
11778.985
11752.716
11722.9
11689.113
11650.91
11607.796
11559.202
11504.834
11446.261
11373.777
11969.843
11969.843
11969.843
11969.842
11969.842
11969.841
11969.841
11969.839
11969.838
11969.836
11969.834
11969.831
11969.827
11969.822
11969.816
11969.809
11969.8
11969.788
11969.774
11969.755
11969.733
11969.704
11969.669
11969.624
11969.569
11969.498
11969.41
11969.299
11969.157
11968.979
11968.752
11968.464
11968.1
11967.639
11967.061
11966.336
11965.434
11964.317
11962.946
11961.272
11959.245
11956.803
11953.877
11950.39
11946.255
11941.374
11935.638
11928.925
11921.101
11912.016
11901.508
11889.398
11875.483
11859.539
11841.312
11820.519
11796.839
11769.911
11739.329
11704.659
11665.411
11620.952
11571.067
11517.87
11450.636
11995.094
11995.094
11995.094
11995.094
11995.094
11995.093
11995.093
11995.092
11995.09
11995.089
11995.087
11995.084
11995.081
11995.077
11995.073
11995.066
11995.059
11995.049
11995.037
11995.022
11995.004
11994.98
11994.951
11994.913
11994.867
11994.808
11994.733
11994.638
11994.517
11994.363
11994.167
11993.918
11993.602
11993.201
11992.697
11992.064
11991.276
11990.3
11989.101
11987.637
11985.862
11983.721
11981.154
11978.094
11974.465
11970.181
11965.147
11959.255
11952.385
11944.407
11935.174
11924.525
11912.28
11898.236
11882.161
11863.795
11842.841
11818.961
11791.767
11760.834
11725.652
11685.599
11640.332
11592.807
11531.224
12021.271
12021.271
12021.271
12021.271
12021.271
12021.27
12021.27
12021.269
12021.268
12021.266
12021.264
12021.262
12021.259
12021.256
12021.251
12021.246
12021.239
12021.23
12021.22
12021.207
12021.19
12021.17
12021.144
12021.112
12021.072
12021.022
12020.959
12020.878
12020.777
12020.647
12020.482
12020.272
12020.005
12019.667
12019.24
12018.704
12018.035
12017.206
12016.187
12014.941
12013.427
12011.6
12009.407
12006.792
12003.691
12000.03
11995.728
11990.692
11984.819
11977.996
11970.095
11960.976
11950.48
11938.428
11924.612
11908.798
11890.715
11870.052
11846.44
11819.454
11788.625
11753.227
11712.788
11671.206
11615.789
12048.343
12048.342
12048.342
12048.342
12048.342
12048.341
12048.34
12048.339
12048.338
12048.337
12048.335
12048.332
12048.329
12048.326
12048.321
12048.316
12048.309
12048.3
12048.29
12048.277
12048.262
12048.243
12048.22
12048.191
12048.156
12048.113
12048.06
12047.993
12047.909
12047.803
12047.669
12047.499
12047.283
12047.008
12046.66
12046.224
12045.678
12045.002
12044.169
12043.148
12041.906
12040.404
12038.601
12036.45
12033.898
12030.886
12027.346
12023.201
12018.367
12012.748
12006.237
11998.716
11990.049
11980.082
11968.635
11955.501
11940.44
11923.168
11903.346
11880.58
11854.385
11823.994
11788.74
11753.344
11704.526
12076.261
12076.26
12076.26
12076.26
12076.259
12076.259
12076.258
12076.257
12076.255
12076.254
12076.251
12076.249
12076.245
12076.241
12076.236
12076.23
12076.223
12076.214
12076.204
12076.191
12076.175
12076.157
12076.135
12076.11
12076.079
12076.042
12075.998
12075.944
12075.877
12075.795
12075.691
12075.559
12075.393
12075.181
12074.915
12074.579
12074.16
12073.641
12072.999
12072.21
12071.25
12070.087
12068.689
12067.021
12065.041
12062.703
12059.956
12056.738
12052.983
12048.617
12043.554
12037.699
12030.941
12023.152
12014.183
12003.858
11991.971
11978.282
11962.488
11944.22
11923.019
11898.091
11868.627
11839.661
11797.422
12104.961
12104.961
12104.961
12104.96
12104.96
12104.959
12104.958
12104.957
12104.955
12104.953
12104.951
12104.948
12104.945
12104.94
12104.935
12104.929
12104.922
12104.913
12104.902
12104.89
12104.875
12104.858
12104.839
12104.816
12104.79
12104.76
12104.725
12104.683
12104.634
12104.573
12104.499
12104.406
12104.288
12104.141
12103.956
12103.724
12103.434
12103.074
12102.628
12102.079
12101.409
12100.597
12099.621
12098.454
12097.068
12095.431
12093.505
12091.248
12088.614
12085.548
12081.99
12077.866
12073.095
12067.576
12061.196
12053.814
12045.264
12035.349
12023.827
12010.388
11994.614
11975.729
11952.917
11930.261
11895.092
12134.376
12134.376
12134.376
12134.375
12134.375
12134.374
12134.373
12134.372
12134.37
12134.369
12134.366
12134.364
12134.36
12134.357
12134.352
12134.346
12134.34
12134.332
12134.323
12134.313
12134.301
12134.287
12134.271
12134.253
12134.233
12134.211
12134.185
12134.156
12134.122
12134.082
12134.035
12133.98
12133.913
12133.83
12133.727
12133.6
12133.441
12133.243
12132.998
12132.696
12132.326
12131.878
12131.337
12130.69
12129.92
12129.008
12127.933
12126.672
12125.198
12123.481
12121.484
12119.16
12116.455
12113.301
12109.62
12105.313
12100.262
12094.322
12087.314
12079.021
12069.117
12056.993
12041.958
12026.571
12000.118
12165.775
12165.775
12165.774
12165.774
12165.773
12165.772
12165.771
12165.77
12165.769
12165.767
12165.766
12165.763
12165.761
12165.758
12165.754
12165.75
12165.745
12165.739
12165.732
12165.724
12165.715
12165.705
12165.694
12165.681
12165.667
12165.652
12165.636
12165.619
12165.601
12165.582
12165.564
12165.547
12165.531
12165.516
12165.503
12165.487
12165.47
12165.45
12165.425
12165.391
12165.35
12165.299
12165.235
12165.156
12165.056
12164.932
12164.782
12164.602
12164.388
12164.134
12163.829
12163.457
12162.994
12162.411
12161.668
12160.714
12159.484
12157.899
12155.853
12153.229
12149.854
12145.389
12139.839
12134.785
12125.149
12198.811
12198.811
12198.81
12198.81
12198.809
12198.809
12198.808
12198.807
12198.806
12198.805
12198.803
12198.802
12198.8
12198.798
12198.795
12198.792
12198.789
12198.785
12198.781
12198.776
12198.771
12198.765
12198.758
12198.751
12198.744
12198.738
12198.733
12198.729
12198.73
12198.736
12198.75
12198.776
12198.817
12198.876
12198.956
12199.062
12199.199
12199.37
12199.578
12199.831
12200.14
12200.511
12200.954
12201.477
12202.091
12202.809
12203.647
12204.622
12205.752
12207.058
12208.558
12210.267
12212.199
12214.363
12216.762
12219.401
12222.272
12225.367
12228.667
12232.168
12235.86
12239.705
12244.062
12249.688
12253.952
12231.794
12231.794
12231.793
12231.793
12231.793
12231.792
12231.791
12231.791
12231.79
12231.79
12231.789
12231.788
12231.788
12231.787
12231.786
12231.786
12231.785
12231.784
12231.783
12231.783
12231.782
12231.782
12231.782
12231.783
12231.785
12231.789
12231.796
12231.808
12231.828
12231.859
12231.906
12231.976
12232.073
12232.205
12232.378
12232.6
12232.882
12233.234
12233.671
12234.207
12234.862
12235.653
12236.6
12237.726
12239.054
12240.616
12242.444
12244.578
12247.06
12249.934
12253.248
12257.051
12261.393
12266.325
12271.897
12278.164
12285.181
12293.013
12301.728
12311.43
12322.235
12334.323
12348.11
12364.054
12381.871
12264.579
12264.579
12264.579
12264.578
12264.578
12264.578
12264.577
12264.577
12264.577
12264.577
12264.577
12264.578
12264.578
12264.579
12264.58
12264.582
12264.584
12264.587
12264.59
12264.594
12264.599
12264.606
12264.613
12264.622
12264.634
12264.649
12264.669
12264.697
12264.738
12264.795
12264.876
12264.987
12265.14
12265.344
12265.607
12265.944
12266.37
12266.903
12267.565
12268.38
12269.376
12270.582
12272.029
12273.752
12275.791
12278.193
12281.01
12284.301
12288.132
12292.573
12297.7
12303.595
12310.349
12318.052
12326.801
12336.703
12347.875
12360.452
12374.588
12390.482
12408.361
12428.552
12451.543
12477.92
12508.508
12297.023
12297.023
12297.022
12297.022
12297.022
12297.022
12297.022
12297.022
12297.023
12297.023
12297.024
12297.026
12297.028
12297.03
12297.034
12297.038
12297.043
12297.049
12297.056
12297.065
12297.075
12297.088
12297.102
12297.12
12297.141
12297.168
12297.202
12297.247
12297.309
12297.393
12297.508
12297.666
12297.877
12298.152
12298.508
12298.961
12299.531
12300.245
12301.131
12302.222
12303.555
12305.17
12307.11
12309.424
12312.167
12315.403
12319.201
12323.643
12328.814
12334.813
12341.744
12349.723
12358.875
12369.335
12381.245
12394.765
12410.071
12427.367
12446.887
12468.919
12493.8
12521.979
12554.057
12590.806
12633.362
12329.006
12329.006
12329.006
12329.006
12329.006
12329.006
12329.006
12329.007
12329.008
12329.009
12329.011
12329.013
12329.017
12329.021
12329.025
12329.032
12329.039
12329.048
12329.059
12329.071
12329.086
12329.104
12329.125
12329.15
12329.18
12329.218
12329.265
12329.327
12329.41
12329.523
12329.675
12329.879
12330.148
12330.499
12330.948
12331.517
12332.233
12333.127
12334.235
12335.599
12337.265
12339.282