/*--------------------------------*- C++ -*----------------------------------*\
  =========                 |
  \\      /  F ield         | OpenFOAM: The Open Source CFD Toolbox
   \\    /   O peration     | Website:  https://openfoam.org
    \\  /    A nd           | Version:  13
     \\/     M anipulation  |
\*---------------------------------------------------------------------------*/
FoamFile
{
    format      ascii;
    class       volScalarField;
    location    "13.495886";
    object      nut;
}
// * * * * * * * * * * * * * * * * * * * * * * * * * * * * * * * * * * * * * //

dimensions      [0 2 -1 0 0 0 0];

internalField   nonuniform List<scalar> 
17140
(
2.7443725e-17
5.3374445e-15
1.4216531e-13
1.4413079e-12
8.7172493e-12
3.862703e-11
1.3950758e-10
4.3665806e-10
1.2305666e-09
3.2021966e-09
7.8299785e-09
1.8217936e-08
4.0710363e-08
8.7992175e-08
1.8496456e-07
3.7975452e-07
7.6413859e-07
1.5110937e-06
2.9432662e-06
5.6567277e-06
1.0741942e-05
2.0169037e-05
3.742278e-05
6.8402499e-05
0.00012215226
0.0002095518
0.00033606898
0.0003813564
0.00040602241
0.00042212949
0.00043283513
0.00043864304
0.00044330049
0.00044881891
0.00045596517
0.00046511613
0.00047670159
0.0004913713
0.00050998233
0.00053368468
0.00056397463
0.00060349667
0.00066152029
0.00076409297
0.00096432709
0.0012984972
0.0012525088
0.0012282336
0.0011891139
0.0011650518
0.0011345021
0.001111024
0.0010877586
0.0010700699
0.0010518341
0.0010374101
0.0010287747
0.0010287524
0.001034966
0.0010346665
0.0010035786
0.00083202171
0.00076169608
0.0006471676
0.00055499872
2.7201226e-17
5.2902775e-15
1.4090916e-13
1.4285769e-12
8.6402908e-12
3.8286227e-11
1.3827754e-10
4.3281081e-10
1.2197321e-09
3.1740217e-09
7.7611234e-09
1.805779e-08
4.0352525e-08
8.7218497e-08
1.8333688e-07
3.7640757e-07
7.5738787e-07
1.4976987e-06
2.9170568e-06
5.6060655e-06
1.0645095e-05
1.998601e-05
3.7081968e-05
6.7783183e-05
0.00012107748
0.00020784241
0.00033373453
0.00038219607
0.00040717594
0.00042342494
0.00043432803
0.00044029377
0.0004450643
0.00045071031
0.00045805108
0.00046750891
0.00047959074
0.0004950326
0.00051487605
0.00054052294
0.00057372721
0.00061676041
0.00068067209
0.000793895
0.0010151458
0.0013538588
0.0013269296
0.0013152855
0.0013007233
0.0012943027
0.0012854875
0.0012779264
0.0012682836
0.0012598109
0.0012540217
0.0012491111
0.0012424404
0.0012313637
0.001220423
0.0011875796
0.0011205478
0.00091951428
0.00080787833
0.00067645666
0.00057219255
2.6567873e-17
5.1670979e-15
1.3762819e-13
1.3953135e-12
8.4391062e-12
3.7394728e-11
1.350575e-10
4.227305e-10
1.1913164e-09
3.1000433e-09
7.5800979e-09
1.7636126e-08
3.9408719e-08
8.5173831e-08
1.7902533e-07
3.6751843e-07
7.3940476e-07
1.4618965e-06
2.8467502e-06
5.4696525e-06
1.0383362e-05
1.9489751e-05
3.6155689e-05
6.609875e-05
0.00011816115
0.00020324453
0.00032760703
0.00038673306
0.00041291899
0.00042988792
0.00044165761
0.00044829617
0.00045372801
0.00046023408
0.000468787
0.00047998893
0.00049453274
0.00051327447
0.00053769829
0.00057014328
0.00061187639
0.00066777159
0.0007521887
0.00090325254
0.0012018233
0.0015261024
0.001555205
0.0015893358
0.0016296328
0.0016755262
0.0017240192
0.0017705801
0.0018081171
0.0018346238
0.0018476437
0.0018490281
0.001823284
0.0017496881
0.0016195663
0.0014513098
0.0012327854
0.00096250389
0.00077041215
0.00059265224
0.0004677038
2.5543976e-17
4.9679632e-15
1.3232413e-13
1.3415389e-12
8.1138622e-12
3.5953465e-11
1.2985159e-10
4.0643298e-10
1.1453731e-09
2.9804279e-09
7.2873851e-09
1.6954276e-08
3.7882463e-08
8.1867176e-08
1.7205231e-07
3.5314148e-07
7.1031848e-07
1.4039882e-06
2.7330347e-06
5.2490289e-06
9.9601071e-06
1.8687358e-05
3.4658062e-05
6.3374202e-05
0.00011343686
0.00019577094
0.00031759868
0.00039533175
0.00042370435
0.00044209937
0.00045532512
0.00046361433
0.00047063048
0.00047909967
0.00049034691
0.00050545864
0.00052592795
0.0005522129
0.00058705785
0.00063445186
0.0006971424
0.00078333162
0.00091447959
0.0011517331
0.0014372702
0.001777389
0.0020428441
0.0021782424
0.0023308107
0.0024925715
0.0026579893
0.0028118858
0.0029251787
0.0029886414
0.0030196972
0.0030123699
0.0028198293
0.002617673
0.0022251963
0.0017865829
0.0013188309
0.00098125378
0.00072855138
0.00053403388
0.00042136119
2.4157103e-17
4.6982347e-15
1.251398e-13
1.2687017e-12
7.6733229e-12
3.4001297e-11
1.2280032e-10
3.8435871e-10
1.0831464e-09
2.8184255e-09
6.8909739e-09
1.6030965e-08
3.5816031e-08
7.7391137e-08
1.6261588e-07
3.3369231e-07
6.7098793e-07
1.3257268e-06
2.5794513e-06
4.9512789e-06
9.3893473e-06
1.7606109e-05
3.2640575e-05
5.9700696e-05
0.00010704488
0.00018557504
0.00030373513
0.00040872196
0.00044033759
0.00046097642
0.00047635242
0.00048738915
0.00049714242
0.00050929385
0.00052602195
0.00054746088
0.00057643676
0.00061554441
0.00066839314
0.00073999278
0.00083572046
0.00096638739
0.00116474
0.001442173
0.001742764
0.0021254545
0.002577131
0.0029770059
0.0032789712
0.0035917054
0.0039108801
0.0042145252
0.0044826543
0.0046415311
0.0047200586
0.0047202224
0.004343369
0.0038546271
0.0030693521
0.0021614174
0.0013932322
0.00092330913
0.00062771026
0.00044249413
0.00035110003
2.2449078e-17
4.3660469e-15
1.1629185e-13
1.1789981e-12
7.13077e-12
3.1597081e-11
1.1411635e-10
3.5717372e-10
1.0065156e-09
2.618935e-09
6.4028785e-09
1.4894268e-08
3.3272544e-08
7.1883308e-08
1.5100852e-07
3.0977996e-07
6.2265993e-07
1.2296284e-06
2.3910112e-06
4.586257e-06
8.6901757e-06
1.6282213e-05
3.0169338e-05
5.5189913e-05
9.9142234e-05
0.0001727763
0.00028580636
0.00042720071
0.00046330089
0.0004882034
0.00050646558
0.00052129385
0.00053544212
0.00055295325
0.00057559754
0.00060639069
0.00064825292
0.00070517398
0.00078235255
0.00088635608
0.0010245294
0.0012105248
0.0014808491
0.001775304
0.0021281573
0.002545353
0.0030272513
0.0035921645
0.0042473785
0.0047878354
0.0052900591
0.0057614544
0.0061847268
0.006478923
0.0066476957
0.006720369
0.006222526
0.0053555347
0.0040219959
0.0024279118
0.0013805014
0.00083320557
0.00053877951
0.00038771892
0.00033462534
2.0468243e-17
3.9808014e-15
1.0603068e-13
1.0749665e-12
6.5015551e-12
2.8808833e-11
1.0404527e-10
3.256468e-10
9.1764779e-10
2.3875999e-09
5.8369168e-09
1.3576411e-08
3.0324282e-08
6.5500749e-08
1.3756281e-07
2.8209396e-07
5.6673884e-07
1.1185101e-06
2.1732895e-06
4.1648483e-06
7.8835219e-06
1.475506e-05
2.7315777e-05
4.9961765e-05
8.9895422e-05
0.00015748463
0.00026346559
0.0004093178
0.00049424355
0.00052481767
0.00054786488
0.00056747501
0.0005870451
0.00061078819
0.00064223183
0.00068512196
0.00074360823
0.00082316354
0.00093067515
0.0010742076
0.0012621001
0.0015098877
0.0018217503
0.0021704353
0.0025699053
0.0030200039
0.003532222
0.0041270192
0.0048159485
0.0056225159
0.0065803874
0.0072242274
0.0077877496
0.0082101507
0.0084755952
0.0086158857
0.0080522639
0.0067916877
0.0046682355
0.0025682806
0.0012643925
0.00069356571
0.00043312898
0.00032860694
0.00031893928
1.828482e-17
3.5561552e-15
9.4720045e-14
9.6029522e-13
5.8079909e-12
2.5735461e-11
9.2944564e-11
2.908979e-10
8.1970379e-10
2.1326627e-09
5.2133045e-09
1.2124629e-08
2.7077415e-08
5.847476e-08
1.2277011e-07
2.5165695e-07
5.0531853e-07
9.9660321e-07
1.934748e-06
3.7038344e-06
7.0024294e-06
1.3089236e-05
2.4204799e-05
4.4252996e-05
7.9734438e-05
0.00014041574
0.00023773286
0.00037720413
0.00053545908
0.00057394283
0.0006029326
0.00062886479
0.00065487477
0.00068664489
0.00072892965
0.00078661274
0.00086527651
0.00097197373
0.0011151326
0.001303627
0.0015453119
0.0018560007
0.0022096434
0.0026089287
0.0030481867
0.0035285509
0.0040673524
0.0046844092
0.0053962105
0.0062334604
0.0072262513
0.0084057221
0.0091572414
0.0096680553
0.0099792087
0.010116677
0.009476868
0.0077246604
0.0049569568
0.0023626439
0.0010354807
0.00054480833
0.00036517691
0.00031895319
0.00034541775
1.5978794e-17
3.107663e-15
8.2774223e-14
8.3918454e-13
5.0754849e-12
2.2489574e-11
8.1221046e-11
2.5420102e-10
7.1627661e-10
1.8634837e-09
4.5549664e-09
1.0592383e-08
2.3651799e-08
5.1065564e-08
1.0718072e-07
2.1960786e-07
4.4071438e-07
8.6854527e-07
1.6845592e-06
3.2211566e-06
6.0816248e-06
1.1351177e-05
2.096148e-05
3.8292599e-05
6.9054949e-05
0.00012216455
0.0002091917
0.00033901749
0.00050590232
0.00063929614
0.0006771532
0.00070921508
0.00074348891
0.00078485141
0.00083996055
0.00091502394
0.0010171841
0.0011549809
0.0013378038
0.0015739538
0.0018687181
0.0022277067
0.002628501
0.0030691192
0.0035401973
0.0040444806
0.0046014821
0.0052325795
0.0059582246
0.0068050228
0.0077959014
0.0089571505
0.010203068
0.010717732
0.011024833
0.011051691
0.010231871
0.0080734753
0.0046832667
0.0019027844
0.00078608707
0.00042629982
0.00031584262
0.00031518275
0.00037454141
1.3634547e-17
2.6517381e-15
7.063043e-14
7.1606706e-13
4.330846e-12
1.9189965e-11
6.9303805e-11
2.1689939e-10
6.1115247e-10
1.5899189e-09
3.886016e-09
9.0358303e-09
2.0173091e-08
4.3545311e-08
9.1368406e-08
1.8712954e-07
3.7531981e-07
7.3910427e-07
1.4320972e-06
2.7350398e-06
5.1561917e-06
9.6078082e-06
1.7712293e-05
3.2316714e-05
5.8288417e-05
0.00010347975
0.00017897497
0.00029595203
0.0004559004
0.00063943961
0.00077696629
0.00081913878
0.00086169348
0.00091414887
0.00098262467
0.0010764887
0.0012046742
0.0013766467
0.0016016269
0.0018855808
0.0022291971
0.0026290059
0.0030657072
0.0035337399
0.0040229898
0.0045386369
0.0050999476
0.0057289707
0.0064455434
0.007274175
0.0082421954
0.00935276
0.010660112
0.011311268
0.011537606
0.011375843
0.010392862
0.0076653312
0.0037371571
0.0012964571
0.00056092337
0.00034090236
0.00029982202
0.00034722336
0.00043521043
1.1335991e-17
2.2046987e-15
5.8723229e-14
5.9534754e-13
3.6007128e-12
1.5954677e-11
5.7619193e-11
1.8032744e-10
5.0809174e-10
1.3217523e-09
3.2303732e-09
7.5106136e-09
1.6765616e-08
3.6182694e-08
7.5898053e-08
1.5538239e-07
3.1147258e-07
6.12913e-07
1.1864164e-06
2.262974e-06
4.2595873e-06
7.9226327e-06
1.4577099e-05
2.655093e-05
4.7858655e-05
8.5146915e-05
0.00014844058
0.00024986038
0.00039679963
0.00057976555
0.00076913833
0.00093475779
0.0010238914
0.0010862855
0.001170764
0.0012856586
0.0014410343
0.0016478701
0.0019141948
0.0022419735
0.0026262029
0.0030558075
0.0035120513
0.0039871195
0.0044716036
0.0049733024
0.0055140358
0.0061156155
0.0068016644
0.0075906434
0.0085057174
0.0095518969
0.010806856
0.011456556
0.011499909
0.011136011
0.0097455338
0.0062976484
0.0024766233
0.00082621344
0.00040618762
0.00029009195
0.00030447851
0.00038164736
0.00047805446
9.1605366e-18
1.7816008e-15
4.7453726e-14
4.8109358e-13
2.9096871e-12
1.2892704e-11
4.6560734e-11
1.4571648e-10
4.1056276e-10
1.0680033e-09
2.6100704e-09
6.0679262e-09
1.3543562e-08
2.9223947e-08
6.1285748e-08
1.2542231e-07
2.5128906e-07
4.9413937e-07
9.5560303e-07
1.8204517e-06
3.4211956e-06
6.3509864e-06
1.1659839e-05
2.1191464e-05
3.8142047e-05
6.7904276e-05
0.00011902799
0.00020324684
0.00033171964
0.00050473384
0.00070176963
0.00089026421
0.0010513235
0.0011896296
0.0013259405
0.0014798498
0.0016653029
0.0018880004
0.0021514905
0.0024573954
0.0028140765
0.0032315352
0.0037182003
0.0042736774
0.0048328841
0.0052899341
0.0057850463
0.0063378714
0.0069752073
0.0077179001
0.0085684293
0.0095599791
0.010777189
0.011134864
0.010994299
0.010296777
0.0082540203
0.0042821302
0.0013808618
0.00051079064
0.00029859537
0.00026812475
0.00033283794
0.00043547231
0.00053740522
7.1750274e-18
1.3954454e-15
3.7168247e-14
3.7681656e-13
2.2790059e-12
1.0098139e-11
3.6468177e-11
1.1412949e-10
3.2155915e-10
8.3645373e-10
2.0441067e-09
4.7518726e-09
1.0605169e-08
2.288046e-08
4.7973215e-08
9.8149365e-08
1.9656338e-07
3.8629204e-07
7.4640561e-07
1.4202709e-06
2.6650146e-06
4.937538e-06
9.0435881e-06
1.639457e-05
2.9441789e-05
5.237176e-05
9.2061205e-05
0.00015882366
0.0002651362
0.00041894515
0.00061184953
0.00081593647
0.0010028299
0.0011650699
0.0013186641
0.0014821212
0.0016713604
0.0018963033
0.0021617907
0.002470417
0.0028299532
0.0032498567
0.0037384189
0.0042973688
0.0049196262
0.0054874436
0.0059306869
0.0064314842
0.0070116934
0.0076811136
0.0084401424
0.0093831715
0.010392354
0.010381102
0.010021386
0.0088605651
0.0059959319
0.0022695887
0.00073092735
0.00032247464
0.00024290917
0.00027319877
0.00036674783
0.00046739439
0.0005652153
5.4316844e-18
1.0563881e-15
2.8137273e-14
2.8525847e-13
1.7252521e-12
7.6444558e-12
2.7606817e-11
8.6396445e-11
2.4341804e-10
6.3317707e-10
1.5473002e-09
3.5968168e-09
8.0268597e-09
1.7316299e-08
3.6302136e-08
7.4256422e-08
1.4866769e-07
2.9203106e-07
5.6388355e-07
1.0718949e-06
2.0085017e-06
3.7141957e-06
6.7866157e-06
1.2268317e-05
2.1967547e-05
3.8991093e-05
6.855965e-05
0.00011898737
0.00020194952
0.00032949262
0.00050479184
0.00071155869
0.00091938614
0.001107487
0.0012770975
0.0014513838
0.0016453882
0.0018703253
0.0021345909
0.0024419551
0.0027988962
0.0032137094
0.0036938794
0.0042427388
0.0048517281
0.0054890492
0.0059065299
0.006334001
0.006832315
0.0074053623
0.0080975568
0.0090080233
0.0094378438
0.0092651488
0.0085984225
0.006740896
0.0033243294
0.0010728659
0.00037271472
0.00022425643
0.00022816481
0.00030928634
0.00041415547
0.00050649627
0.00061014574
3.963539e-18
7.7085348e-16
2.0531921e-14
2.08154e-13
1.2589172e-12
5.5781357e-12
2.0144477e-11
6.3042285e-11
1.7761698e-10
4.6201037e-10
1.129003e-09
2.6244097e-09
5.8566559e-09
1.263414e-08
2.6485067e-08
5.4170797e-08
1.0843789e-07
2.1294962e-07
4.1099843e-07
7.8069933e-07
1.4612066e-06
2.6976446e-06
4.9179342e-06
8.8643185e-06
1.5818594e-05
2.7983897e-05
4.9106632e-05
8.5379471e-05
0.00014634989
0.00024451665
0.00039057881
0.00058270103
0.00079906624
0.0010103955
0.0012029453
0.0013861894
0.001581632
0.0018045453
0.0020606055
0.0023574811
0.0027011532
0.0030979764
0.0035542232
0.0040747459
0.0046509629
0.0052514303
0.0056837139
0.0060319251
0.0064453624
0.0069452907
0.0076215043
0.0082904908
0.0082245105
0.0078289215
0.0066221904
0.0040407202
0.0014292803
0.00047160954
0.00020786619
0.00018616692
0.00024530346
0.00035027613
0.00044806371
0.00053482164
0.000633584
2.7816537e-18
5.4099302e-16
1.44095e-14
1.4608408e-13
8.8351416e-13
3.9147412e-12
1.4137321e-11
4.4242534e-11
1.2464925e-10
3.242314e-10
7.9231617e-10
1.8417819e-09
4.1102071e-09
8.8669054e-09
1.8588494e-08
3.8021227e-08
7.611187e-08
1.4946343e-07
2.884253e-07
5.4766846e-07
1.0243138e-06
1.8887221e-06
3.4365888e-06
6.1772477e-06
1.0984127e-05
1.9351567e-05
3.3827288e-05
5.8703941e-05
0.00010097261
0.00017110231
0.00028195337
0.00044261119
0.00064714558
0.00087091493
0.0010877116
0.0012878219
0.0014858602
0.0017006052
0.0019481183
0.0022292682
0.0025509861
0.0029198233
0.003340475
0.003817805
0.0043448282
0.0048904217
0.0052942772
0.0055723325
0.0059195936
0.0063984703
0.0070356304
0.0070455091
0.0067980418
0.0059807642
0.0041849276
0.0016888998
0.00056098694
0.00020905349
0.00014863796
0.00019282466
0.00029665581
0.00039932893
0.00048834287
0.00057235881
0.00067624346
1.8748637e-18
3.6463501e-16
9.7121469e-15
9.8461846e-14
5.9549283e-13
2.6385382e-12
9.5284969e-12
2.9819093e-11
8.4012211e-11
2.1852875e-10
5.3401974e-10
1.2413937e-09
2.7705005e-09
5.9772921e-09
1.2532362e-08
2.5638451e-08
5.1335039e-08
1.0083277e-07
1.9462204e-07
3.695844e-07
6.9111354e-07
1.273532e-06
2.3141795e-06
4.1504024e-06
7.3554478e-06
1.2901352e-05
2.2436492e-05
3.8750712e-05
6.6508668e-05
0.0001132225
0.00018991409
0.00030954886
0.00048002469
0.00069306937
0.00092328778
0.0011461209
0.0013550522
0.0015663773
0.0017966793
0.002059126
0.0023565259
0.002690012
0.0030643011
0.0034843412
0.0039465852
0.0044239798
0.0047820929
0.0050212277
0.0053508214
0.0058147501
0.0058603645
0.0056820729
0.0050844898
0.0038363407
0.0017639338
0.00059342583
0.00021460345
0.00011852918
0.0001509572
0.00023755758
0.00033218953
0.00041669702
0.00050501326
0.00059547045
0.00070790228
1.2133718e-18
2.3598398e-16
6.2854862e-15
6.3722135e-14
3.8538655e-13
1.7075769e-12
6.1664879e-12
1.9297676e-11
5.4369053e-11
1.4142309e-10
3.4560327e-10
8.0343203e-10
1.7932155e-09
3.8693287e-09
8.1143039e-09
1.6604907e-08
3.3260757e-08
6.5365004e-08
1.2624347e-07
2.3990021e-07
4.4888776e-07
8.2742515e-07
1.5030032e-06
2.6917842e-06
4.7575673e-06
8.3098507e-06
1.4370146e-05
2.4654981e-05
4.204871e-05
7.1343437e-05
0.00012020609
0.00019979805
0.00032309662
0.00049779336
0.00071546755
0.00095134894
0.0011805395
0.0013973383
0.0016168191
0.0018540419
0.0021182872
0.0024153326
0.0027411899
0.0030954264
0.0034787542
0.0038704114
0.0042049566
0.0044573318
0.0047231472
0.004731865
0.0045892427
0.0041252036
0.0032255952
0.0016342594
0.00058294586
0.0002110577
9.9794313e-05
0.00011451477
0.00018637223
0.00028712652
0.0003807925
0.00046079847
0.00054067816
0.00062462323
0.00074096042
7.5498547e-19
1.4683411e-16
3.910953e-15
3.9649054e-14
2.3979297e-13
1.0624697e-12
3.8368104e-12
1.2006991e-11
3.3828258e-11
8.7993605e-11
2.1503993e-10
4.9993462e-10
1.1159334e-09
2.4083012e-09
5.0516666e-09
1.0341421e-08
2.0725395e-08
4.0758935e-08
7.8791924e-08
1.4989431e-07
2.8082981e-07
5.1834172e-07
9.426973e-07
1.6894771e-06
2.9840506e-06
5.1974181e-06
8.9391538e-06
1.5222591e-05
2.5730704e-05
4.32685e-05
7.2466604e-05
0.00012071088
0.00019880274
0.00031962137
0.00049174746
0.00070891493
0.00094831788
0.0011805001
0.0014017577
0.0016230967
0.0018556584
0.0021055415
0.0023745532
0.0026604005
0.002960265
0.003255655
0.0035117987
0.0036906876
0.0037010724
0.0035815075
0.0032199412
0.0025482298
0.0013739984
0.00051164869
0.00019332836
8.7145965e-05
8.3390156e-05
0.00014222058
0.00024201635
0.00032979272
0.00039913501
0.00047806952
0.00057216884
0.00066496229
0.00077667026
4.528713e-19
8.8077108e-17
2.3459469e-15
2.3783028e-14
1.4383611e-13
6.3730025e-13
2.3014072e-12
7.2020033e-12
2.0290683e-11
5.2780105e-11
1.2898763e-10
2.9989199e-10
6.6947261e-10
1.4450355e-09
3.0319313e-09
6.2093016e-09
1.2451588e-08
2.4508029e-08
4.7430392e-08
9.0362807e-08
1.6959595e-07
3.1366392e-07
5.7165937e-07
1.0265252e-06
1.8159962e-06
3.1654396e-06
5.439091e-06
9.217822e-06
1.543724e-05
2.5644041e-05
4.2392795e-05
6.9857802e-05
0.00011466528
0.0001865929
0.00029784009
0.00045830798
0.00066648765
0.00090240836
0.0011341088
0.0013542511
0.0015683813
0.0017810541
0.0019945829
0.0022085286
0.0024225911
0.0026155511
0.0027705421
0.0027788866
0.0026902824
0.0024131686
0.0019186611
0.0010721665
0.00040623552
0.00016491479
7.5312139e-05
6.2719108e-05
0.00011247614
0.00020810765
0.00029069141
0.00036334312
0.00041962075
0.00051331512
0.00059743083
0.00069071244
0.00081067458
2.6296949e-19
5.1143885e-17
1.3622241e-15
1.3810085e-14
8.352073e-14
3.7005498e-13
1.3363209e-12
4.1818252e-12
1.1781648e-11
3.0646447e-11
7.4897194e-11
1.7414138e-10
3.8878448e-10
8.3931182e-10
1.7614766e-09
3.6089111e-09
7.2413915e-09
1.4265524e-08
2.7642052e-08
5.275007e-08
9.921518e-08
1.8397848e-07
3.3631797e-07
6.0585043e-07
1.0749933e-06
1.8781042e-06
3.2308415e-06
5.4761228e-06
9.1546504e-06
1.5104278e-05
2.4639446e-05
3.9897437e-05
6.4372182e-05
0.00010352097
0.00016538238
0.00026034982
0.00039842229
0.00058378082
0.00080549285
0.0010267664
0.0012360367
0.0014311382
0.0016075859
0.0017651234
0.0019004084
0.0020099741
0.0020139241
0.0019449769
0.0017427727
0.0013764273
0.00077142428
0.00029556064
0.00012831273
6.275153e-05
5.0436323e-05
9.0979451e-05
0.00017252806
0.00025630079
0.00027689939
0.00031959169
0.00037644969
0.00046839938
0.0005884584
0.00072377649
0.00084481845
1.4853399e-19
2.8887778e-17
7.6942897e-16
7.8003662e-15
4.7174771e-14
2.0901484e-13
7.5477215e-13
2.3619177e-12
6.654253e-12
1.730893e-11
4.2301686e-11
9.8357103e-11
2.1960401e-10
4.7414109e-10
9.9529723e-10
2.0398644e-09
4.0952404e-09
8.0740972e-09
1.5663321e-08
2.9939935e-08
5.6438603e-08
1.0496126e-07
1.9256317e-07
3.4832436e-07
6.2069483e-07
1.0883825e-06
1.877117e-06
3.1847453e-06
5.3216961e-06
8.7731235e-06
1.4292878e-05
2.2979671e-05
3.649122e-05
5.7400494e-05
8.9824526e-05
0.00013962121
0.00021427353
0.00032167968
0.00046659209
0.00064729521
0.00084149973
0.0010132349
0.0011753926
0.0012930394
0.0013808859
0.0013777237
0.0013239168
0.0011768183
0.00091518648
0.00049035471
0.0001964259
9.264611e-05
4.937693e-05
4.1841761e-05
7.5110876e-05
0.00014445079
0.00022809707
0.00020704676
0.00022470703
0.00024954463
0.0002955846
0.00037629677
0.00049039632
0.00072138249
0.00087527687
8.2397214e-20
1.6025094e-17
4.2682941e-16
4.3271242e-15
2.6169231e-14
1.1594538e-13
4.186839e-13
1.310174e-12
3.6911203e-12
9.6012187e-12
2.3464771e-11
5.4560215e-11
1.2182513e-10
2.6305845e-10
5.5230395e-10
1.1322854e-09
2.2742292e-09
4.4869452e-09
8.7133551e-09
1.6680148e-08
3.1509963e-08
5.8773083e-08
1.0825129e-07
1.9680796e-07
3.5288882e-07
6.2331383e-07
1.0829434e-06
1.8480648e-06
3.0947914e-06
5.0875905e-06
8.2335506e-06
1.3175778e-05
2.0874213e-05
3.2663922e-05
5.029977e-05
7.6245697e-05
0.0001143001
0.00016882067
0.00024391751
0.00034148204
0.00045806655
0.00058348833
0.00069697225
0.0007872848
0.00081498851
0.00078779678
0.00070608771
0.00053166086
0.00027083143
0.00011994857
6.2054553e-05
3.7164746e-05
3.5093482e-05
6.437767e-05
0.00012366596
0.00018156861
0.00015370902
0.00016075617
0.00017960358
0.0002162152
0.00027256491
0.00035177499
0.00046421852
0.00067147574
0.00085083664
4.6040721e-20
8.9542682e-18
2.3849722e-16
2.4178351e-15
1.4622254e-14
6.4784389e-14
2.3393445e-13
7.3202351e-13
2.0622416e-12
5.3640204e-12
1.3108749e-11
3.047906e-11
6.8052975e-11
1.4694695e-10
3.085392e-10
6.3263771e-10
1.2710576e-09
2.5090681e-09
4.8767004e-09
9.3479554e-09
1.7693169e-08
3.3092642e-08
6.1184515e-08
1.1180949e-07
2.0184223e-07
3.5957512e-07
6.310264e-07
1.0885442e-06
1.8418249e-06
3.0511061e-06
4.9414639e-06
7.8353356e-06
1.2207382e-05
1.8842951e-05
2.8834476e-05
4.363056e-05
6.4499343e-05
9.308688e-05
0.00013101631
0.00017955388
0.00023763183
0.00030055965
0.0003594329
0.00039967583
0.00040324295
0.00036535436
0.00026256903
0.00013611605
6.9741815e-05
3.980485e-05
2.7335696e-05
3.002489e-05
5.699664e-05
0.00010958648
0.00013726205
0.00011132462
0.00011622025
0.00013144988
0.00015669165
0.0001877713
0.0002282366
0.00029585636
0.00040177716
0.00060059169
0.00080475993
2.7923277e-20
5.4306845e-18
1.4464652e-16
1.4663952e-15
8.8682327e-15
3.9290742e-14
1.4187638e-13
4.4395212e-13
1.2506769e-12
3.2530448e-12
7.9497717e-12
1.8483696e-11
4.126936e-11
8.9111211e-11
1.8709848e-10
3.8362104e-10
7.7075034e-10
1.5215725e-09
2.9579595e-09
5.6724606e-09
1.0745384e-08
2.0127076e-08
3.7301832e-08
6.8420083e-08
1.2416204e-07
2.2270896e-07
3.9414503e-07
6.8665036e-07
1.1743038e-06
1.9654769e-06
3.2109715e-06
5.1131178e-06
7.9384222e-06
1.2018998e-05
1.7862228e-05
2.6233803e-05
3.8243233e-05
5.4869947e-05
7.6578253e-05
0.00010309441
0.00013372579
0.00016549237
0.0001922974
0.00019892224
0.00017805937
0.00011751673
6.5060113e-05
3.8611609e-05
2.5133086e-05
2.0299426e-05
2.6732686e-05
5.2336815e-05
0.00010022518
0.00010170133
8.4881892e-05
8.950164e-05
0.00010139262
0.00011607527
0.00013329632
0.00016096395
0.00020750373
0.00028138018
0.0003883438
0.00058417653
0.00080500176
2.081151e-20
4.0475508e-18
1.0780718e-16
1.0929355e-15
6.6097692e-15
2.9285189e-14
1.0575014e-13
3.3092255e-13
9.3231653e-13
2.4252006e-12
5.9274269e-12
1.3783916e-11
3.0782695e-11
6.6486649e-11
1.3964644e-10
2.8645736e-10
5.7585242e-10
1.1375653e-09
2.2131743e-09
4.2481368e-09
8.0562148e-09
1.5110183e-08
2.8049273e-08
5.1550331e-08
9.3790163e-08
1.6882598e-07
3.0030231e-07
5.2660095e-07
9.0707774e-07
1.5282623e-06
2.5072442e-06
3.9910109e-06
6.1557972e-06
9.2130469e-06
1.3441291e-05
1.9231664e-05
2.7033536e-05
3.7302832e-05
5.034059e-05
6.5761926e-05
8.2726261e-05
9.6407134e-05
9.6151723e-05
7.8716487e-05
4.9403919e-05
3.0230957e-05
2.1076041e-05
1.6051868e-05
1.5479642e-05
2.4960007e-05
4.9479654e-05
9.4054184e-05
7.8814812e-05
7.008775e-05
7.4878126e-05
8.2720596e-05
9.1370059e-05
0.00010224828
0.00012167802
0.00015258632
0.00019290918
0.00025268021
0.00034994432
0.0005351962
0.00078622106
1.9688939e-20
3.829232e-18
1.0199296e-16
1.0340079e-15
6.2535528e-15
2.7708052e-14
1.0006109e-13
3.1314772e-13
8.8235089e-13
2.2956319e-12
5.6120984e-12
1.305484e-11
2.916687e-11
6.3031426e-11
1.3248304e-10
2.7200809e-10
5.4742755e-10
1.0829536e-09
2.1106615e-09
4.0602681e-09
7.7207996e-09
1.4529202e-08
2.7080132e-08
5.0013397e-08
9.1525076e-08
1.6585486e-07
2.9717803e-07
5.2511548e-07
9.1121827e-07
1.5436386e-06
2.5351044e-06
4.0105603e-06
6.0905729e-06
8.8878451e-06
1.2536577e-05
1.7227624e-05
2.3216863e-05
3.0413031e-05
3.7989879e-05
4.4014161e-05
4.5967201e-05
4.0789511e-05
2.9522978e-05
1.9872395e-05
1.4268928e-05
1.1697359e-05
1.0883921e-05
1.2555261e-05
2.4062293e-05
4.8169038e-05
8.9734385e-05
6.6752545e-05
6.368837e-05
6.7532168e-05
7.3113142e-05
7.8097405e-05
8.5517183e-05
9.8213928e-05
0.00011617597
0.00013968948
0.00017730805
0.00024314293
0.00034064467
0.00052220742
0.00078252782
2.0575569e-20
4.0016762e-18
1.0658688e-16
1.0806e-15
6.5355241e-15
2.8958691e-14
1.0458448e-13
3.2733572e-13
9.2245471e-13
2.4004257e-12
5.8697924e-12
1.3658953e-11
3.0530248e-11
6.6016083e-11
1.3885954e-10
2.8536882e-10
5.7499676e-10
1.1391702e-09
2.2242683e-09
4.2883445e-09
8.1765515e-09
1.5437004e-08
2.8884369e-08
5.3592439e-08
9.860667e-08
1.798001e-07
3.2433668e-07
5.7701125e-07
1.0070412e-06
1.7102768e-06
2.7967132e-06
4.3560339e-06
6.4135328e-06
8.8844962e-06
1.1670587e-05
1.4656148e-05
1.7520331e-05
1.9691457e-05
2.0359996e-05
1.833118e-05
1.4655435e-05
1.0738089e-05
8.2285133e-06
7.4000422e-06
6.9198404e-06
7.8645161e-06
1.1267004e-05
2.3324417e-05
4.7157109e-05
8.6741233e-05
6.3714514e-05
6.3087813e-05
6.60279e-05
6.9315489e-05
7.3025737e-05
7.7809565e-05
8.5872201e-05
9.6617611e-05
0.00011227301
0.00013859617
0.00017681302
0.00023683272
0.00033267194
0.00051576423
0.00079513223
1.9380359e-20
3.7692253e-18
1.0039563e-16
1.0178361e-15
6.1559613e-15
2.727709e-14
9.8512596e-14
3.0833715e-13
8.6893829e-13
2.2612479e-12
5.5297361e-12
1.2868497e-11
2.8765885e-11
6.2207613e-11
1.3086579e-10
2.6898254e-10
5.4207555e-10
1.0741553e-09
2.09774e-09
4.0451354e-09
7.713842e-09
1.4563846e-08
2.7246421e-08
5.0531104e-08
9.2894195e-08
1.6913638e-07
3.0439042e-07
5.3926226e-07
9.3437134e-07
1.5672387e-06
2.5095116e-06
3.7765261e-06
5.248823e-06
6.684627e-06
7.9288689e-06
8.7247178e-06
8.8043219e-06
8.0123605e-06
6.553571e-06
5.249799e-06
4.3671633e-06
3.9117622e-06
4.1522499e-06
4.7670359e-06
6.1037561e-06
1.0591692e-05
2.3734406e-05
4.7766913e-05
8.367144e-05
6.6073696e-05
6.6456956e-05
6.776085e-05
6.9837276e-05
7.225755e-05
7.5536324e-05
8.0585073e-05
8.773543e-05
9.8252176e-05
0.00011415646
0.00013623456
0.00017007293
0.00022878213
0.00032085677
0.00050205076
0.00079831537
1.4876261e-20
2.8932345e-18
7.7062772e-17
7.8127342e-16
4.7251133e-15
2.0936292e-14
7.5608623e-14
2.3663198e-13
6.6679399e-13
1.7349589e-12
4.2419107e-12
9.8689741e-12
2.2053166e-11
4.7668991e-11
1.0021962e-10
2.0582599e-10
4.1435767e-10
8.1993513e-10
1.5983688e-09
3.0749284e-09
5.8458441e-09
1.0993683e-08
2.0463583e-08
3.770706e-08
6.8749221e-08
1.2386509e-07
2.1995638e-07
3.8320676e-07
6.4990845e-07
1.060094e-06
1.6352527e-06
2.3396212e-06
3.0301795e-06
3.561842e-06
3.7780305e-06
3.5957422e-06
3.0930109e-06
2.5246331e-06
2.2269364e-06
2.1156731e-06
2.2643977e-06
2.6495206e-06
3.5473654e-06
5.3201868e-06
1.1052131e-05
2.4570163e-05
4.7355626e-05
8.1654674e-05
7.5033587e-05
7.3661595e-05
7.3049182e-05
7.3464576e-05
7.4677303e-05
7.608662e-05
7.9499882e-05
8.424644e-05
9.1392324e-05
0.00010168091
0.00011577409
0.00013880521
0.000173501
0.00023242038
0.00032522822
0.00051190797
0.00081604861
9.2160164e-21
1.7923898e-18
4.7740839e-17
4.8399348e-16
2.9270631e-15
1.2968584e-14
4.682989e-14
1.4654332e-13
4.1285834e-13
1.0739494e-12
2.624824e-12
6.103808e-12
1.3630755e-11
2.9438389e-11
6.182188e-11
1.2677949e-10
2.5473455e-10
5.0281082e-10
9.7699793e-10
1.8716899e-09
3.5392286e-09
6.6101284e-09
1.2196234e-08
2.2223066e-08
3.9947023e-08
7.0693464e-08
1.2273734e-07
2.0789442e-07
3.4059623e-07
5.3289535e-07
7.828587e-07
1.0568577e-06
1.2849915e-06
1.3939745e-06
1.3644146e-06
1.2565277e-06
1.1631924e-06
1.1583982e-06
1.1959214e-06
1.4944944e-06
2.0513526e-06
3.1161123e-06
5.332864e-06
1.1494157e-05
2.4248276e-05
4.6499508e-05
7.8523774e-05
9.3249647e-05
8.6329227e-05
8.2054199e-05
8.0079604e-05
7.8968953e-05
7.8623846e-05
8.0323512e-05
8.35968e-05
8.8631544e-05
9.5985858e-05
0.00010604462
0.00012064236
0.00014245631
0.00017395995
0.00023076894
0.00032126914
0.00050820809
0.0008236237
4.7838298e-21
9.3038804e-19
2.4780923e-17
2.5122128e-16
1.5192509e-15
6.7306708e-15
2.4301954e-14
7.6035322e-14
2.1416782e-13
5.5693539e-13
1.3606364e-12
3.1622959e-12
7.0567037e-12
1.5225563e-11
3.1933435e-11
6.5376929e-11
1.3107319e-10
2.5798612e-10
4.9944301e-10
9.5226923e-10
1.7896673e-09
3.3162984e-09
6.0574305e-09
1.0896096e-08
1.9267703e-08
3.3397526e-08
5.6493945e-08
9.2648583e-08
1.4593739e-07
2.1801361e-07
3.0417246e-07
3.905607e-07
4.5876724e-07
5.0885547e-07
5.5721181e-07
5.9013243e-07
6.8281426e-07
8.3671131e-07
1.1981435e-06
1.8513125e-06
2.9998471e-06
5.3598458e-06
1.1220803e-05
2.3483743e-05
4.51121e-05
7.5111683e-05
0.00011042403
0.00010754053
9.6937058e-05
9.041932e-05
8.5973135e-05
8.3230883e-05
8.3314664e-05
8.4731128e-05
8.8200986e-05
9.341596e-05
0.00010080151
0.00011132106
0.00012551173
0.0001470033
0.00017932732
0.00023781833
0.00032998433
0.00052284481
0.00083520419
2.2514051e-21
4.3786599e-19
1.1662472e-17
1.1822775e-16
7.149463e-16
3.167171e-15
1.1434277e-14
3.5769952e-14
1.0073225e-13
2.6187839e-13
6.3955506e-13
1.4856922e-12
3.3132478e-12
7.1427961e-12
1.4965025e-11
3.0595527e-11
6.1231709e-11
1.2024535e-10
2.3210704e-10
4.408991e-10
8.2467556e-10
1.5189261e-09
2.7532709e-09
4.905244e-09
8.5712303e-09
1.4642908e-08
2.4349838e-08
3.9185104e-08
6.0599329e-08
8.9433033e-08
1.2523584e-07
1.6621585e-07
2.1675138e-07
2.8261913e-07
3.7233083e-07
4.9704192e-07
6.9691374e-07
1.0953199e-06
1.7432989e-06
2.870587e-06
5.1804366e-06
1.0652996e-05
2.2557907e-05
4.3506841e-05
7.1519013e-05
0.0001032056
0.00013348983
0.00012019701
0.00010595295
9.6340978e-05
9.0468788e-05
8.8187577e-05
8.7609877e-05
8.9104363e-05
9.2584248e-05
9.7932007e-05
0.00010581664
0.00011668365
0.00013114149
0.00015322811
0.00018465831
0.00024102419