/*--------------------------------*- C++ -*----------------------------------*\
  =========                 |
  \\      /  F ield         | OpenFOAM: The Open Source CFD Toolbox
   \\    /   O peration     | Website:  https://openfoam.org
    \\  /    A nd           | Version:  13
     \\/     M anipulation  |
\*---------------------------------------------------------------------------*/
FoamFile
{
    format      ascii;
    class       volScalarField;
    location    "5.500439";
    object      p;
}
// * * * * * * * * * * * * * * * * * * * * * * * * * * * * * * * * * * * * * //

dimensions      [0 2 -2 0 0 0 0];

internalField   nonuniform List<scalar> 
17140
(
-0.12028183
-0.12051556
-0.12079755
-0.12108299
-0.12139057
-0.1217242
-0.1220837
-0.12246929
-0.12288132
-0.12332001
-0.12378565
-0.12427888
-0.1248013
-0.12535612
-0.12594934
-0.12659122
-0.12729818
-0.12809524
-0.12901883
-0.13012012
-0.13146842
-0.13315493
-0.13530066
-0.13805976
-0.14154348
-0.14578335
-0.1509064
-0.15719114
-0.16490939
-0.1743307
-0.18577152
-0.19957768
-0.21612662
-0.23582581
-0.25910491
-0.28640026
-0.31813062
-0.35466166
-0.39625728
-0.44301505
-0.49478806
-0.55110525
-0.61103856
-0.67291406
-0.73437653
-0.79201859
-0.84158304
-0.87871376
-0.88910841
-0.87207087
-0.82409422
-0.73497471
-0.6170908
-0.47468702
-0.31554475
-0.14623984
0.0051547265
0.1181099
0.17487017
0.18484959
0.16432863
0.13271214
0.101759
0.073434544
0.054849584
-0.12442851
-0.12465699
-0.12493233
-0.12521154
-0.12551248
-0.12583895
-0.12619076
-0.12656813
-0.12697137
-0.12740063
-0.12785612
-0.12833841
-0.1288489
-0.12939064
-0.12996937
-0.13059502
-0.13128366
-0.13205984
-0.13295956
-0.13403346
-0.13535035
-0.13700092
-0.13910525
-0.14181695
-0.14525291
-0.14944757
-0.15451972
-0.16074693
-0.1684055
-0.17776448
-0.18914123
-0.20288261
-0.21936723
-0.23900388
-0.26222362
-0.28946426
-0.3211459
-0.35763555
-0.39919839
-0.44593372
-0.49769819
-0.55402493
-0.61398482
-0.67592528
-0.73754417
-0.79547464
-0.84527795
-0.88164841
-0.89420073
-0.87766069
-0.82766581
-0.73931122
-0.62135624
-0.47940086
-0.32081952
-0.15157435
-3.5616719e-06
0.11358263
0.17089038
0.18139929
0.16152017
0.13058426
0.10022985
0.07282652
0.054248951
-0.13461435
-0.13482991
-0.1350891
-0.13535309
-0.13563782
-0.13594679
-0.13627987
-0.13663721
-0.13701904
-0.13742539
-0.13785628
-0.13831202
-0.13879368
-0.13930382
-0.13984759
-0.14043414
-0.14107861
-0.14180451
-0.14264664
-0.14365442
-0.14489543
-0.14645911
-0.14846334
-0.15106005
-0.15437943
-0.15846361
-0.16341212
-0.16949902
-0.17701165
-0.18621821
-0.19743817
-0.21102086
-0.22734774
-0.24683077
-0.26990436
-0.29700967
-0.3285699
-0.36495464
-0.40643119
-0.45310113
-0.50482733
-0.5611504
-0.62114342
-0.68322817
-0.74514634
-0.8035874
-0.85416805
-0.89094461
-0.90455739
-0.88904796
-0.83842985
-0.74967727
-0.63163905
-0.49063341
-0.33331004
-0.16425326
-0.012269045
0.10237076
0.1609665
0.17272228
0.15439744
0.12507109
0.096382914
0.069907909
0.053156912
-0.15058056
-0.15077572
-0.15100951
-0.1512494
-0.15150845
-0.15178972
-0.15209311
-0.15241875
-0.1527667
-0.15313682
-0.15352887
-0.15394279
-0.15437914
-0.15483978
-0.15532893
-0.15585458
-0.15643044
-0.15707838
-0.15783136
-0.15873681
-0.15986035
-0.16128938
-0.16313837
-0.16555612
-0.16869244
-0.17260224
-0.17735867
-0.18322675
-0.19051095
-0.19947806
-0.21045028
-0.22378078
-0.23985525
-0.25909025
-0.28192505
-0.3088055
-0.34015895
-0.37635814
-0.4176725
-0.46420601
-0.51582903
-0.57209371
-0.63208561
-0.69433194
-0.75662176
-0.81573027
-0.86727312
-0.90512132
-0.92037995
-0.90568812
-0.85454798
-0.76530001
-0.64717228
-0.50764599
-0.35228083
-0.18376044
-0.031232022
0.084785128
0.14516003
0.15903454
0.14344281
0.11700981
0.09088473
0.06701801
0.050708715
-0.17170633
-0.17187413
-0.17207399
-0.17228147
-0.17250596
-0.17274992
-0.17301335
-0.1732963
-0.17359867
-0.17392013
-0.17426011
-0.17461814
-0.17499416
-0.17538919
-0.1758063
-0.17625204
-0.17673833
-0.17728486
-0.17792217
-0.17869504
-0.17966633
-0.18092068
-0.18256825
-0.18475284
-0.18764455
-0.19132096
-0.1958284
-0.20141024
-0.20838903
-0.21703594
-0.22767471
-0.24066321
-0.25639207
-0.27528296
-0.2977804
-0.32433523
-0.35537869
-0.39128599
-0.43232762
-0.47860906
-0.53000809
-0.58609559
-0.6459897
-0.70831948
-0.77098489
-0.83091097
-0.883728
-0.92313752
-0.94033008
-0.9268029
-0.87522038
-0.78495423
-0.66654715
-0.52878089
-0.37583972
-0.20810823
-0.05527919
0.062257471
0.12453153
0.14127418
0.12941552
0.10679552
0.084103658
0.062582121
0.048484536
-0.19700818
-0.19714259
-0.19730117
-0.1974689
-0.19765096
-0.1978491
-0.19806344
-0.19829395
-0.1985404
-0.19880223
-0.19907862
-0.19936865
-0.19967165
-0.19998779
-0.20031893
-0.20067004
-0.20105097
-0.201479
-0.20198175
-0.20260079
-0.20339549
-0.20444693
-0.20586139
-0.20777608
-0.21035968
-0.2137355
-0.21796354
-0.22322484
-0.22983182
-0.23809117
-0.24832243
-0.26088863
-0.27618508
-0.29463854
-0.31669843
-0.34281981
-0.37343681
-0.40892567
-0.44955668
-0.49543695
-0.54645347
-0.60220257
-0.66185946
-0.72417101
-0.78720176
-0.84805362
-0.90242489
-0.94390609
-0.96345363
-0.95138427
-0.89938469
-0.80765552
-0.6886786
-0.55271408
-0.4023341
-0.23577461
-0.082905577
0.035967452
0.10025642
0.12053798
0.11333123
0.095368327
0.076568309
0.058097895
0.045557421
-0.22517507
-0.22527198
-0.22538669
-0.22550874
-0.22564185
-0.2257873
-0.22594516
-0.22611534
-0.22629747
-0.22649086
-0.22669446
-0.22690703
-0.2271274
-0.22735494
-0.22759043
-0.22783728
-0.22810334
-0.22840325
-0.22876153
-0.2292161
-0.22982226
-0.23065677
-0.23182142
-0.23344631
-0.23569378
-0.2387345
-0.24265411
-0.24756363
-0.25375955
-0.26158586
-0.27135575
-0.28343741
-0.29822995
-0.31616423
-0.33769328
-0.36327506
-0.39334503
-0.42827904
-0.46834675
-0.51365879
-0.56411435
-0.61934346
-0.67861331
-0.74080825
-0.8041883
-0.86608091
-0.92230964
-0.96638211
-0.98880654
-0.97861243
-0.92625234
-0.83259461
-0.71256753
-0.5781189
-0.42986532
-0.26510474
-0.11243758
0.0075694959
0.073806131
0.098072747
0.096096338
0.083163196
0.068514274
0.052859947
0.042465824
-0.25467057
-0.25472684
-0.25479405
-0.25486642
-0.25494618
-0.25503413
-0.25513031
-0.25523455
-0.25534644
-0.25546521
-0.25558971
-0.25571854
-0.2558502
-0.25598356
-0.25611857
-0.2562574
-0.25640609
-0.25657691
-0.2567913
-0.25708345
-0.25750429
-0.25812571
-0.2590443
-0.26038419
-0.26229928
-0.2649683
-0.26853802
-0.27311612
-0.27891657
-0.28628215
-0.29556178
-0.30711881
-0.32135639
-0.33870769
-0.35962773
-0.38457537
-0.41398569
-0.44823327
-0.48758788
-0.53216614
-0.58188563
-0.63642049
-0.69516048
-0.75714231
-0.82085211
-0.88389259
-0.94227621
-0.98943797
-1.0152776
-1.0074229
-0.95478823
-0.85891207
-0.7374816
-0.6038181
-0.45727644
-0.29339653
-0.14132871
-0.021283727
0.046485346
0.074971061
0.078483711
0.070693539
0.060143423
0.047408805
0.038861334
-0.28381693
-0.28383129
-0.28384946
-0.2838704
-0.2838948
-0.28392295
-0.28395487
-0.28399036
-0.28402899
-0.28407001
-0.28411233
-0.28415456
-0.28419519
-0.28423294
-0.28426734
-0.28429981
-0.28433515
-0.28438374
-0.28446437
-0.28460775
-0.28486057
-0.28528962
-0.28598576
-0.28706695
-0.28867953
-0.29099662
-0.29420248
-0.29844847
-0.30389616
-0.31082416
-0.31960985
-0.33063656
-0.34430022
-0.36103354
-0.38129097
-0.40553115
-0.43418771
-0.46763389
-0.50614134
-0.54983499
-0.5986597
-0.65234608
-0.71041406
-0.77207038
-0.83605784
-0.90027783
-0.96095575
-1.0114432
-1.0409457
-1.0357084
-0.98293255
-0.88493656
-0.76208728
-0.62855566
-0.48309701
-0.32077592
-0.17208014
-0.04925544
0.01952563
0.052116808
0.061021776
0.058139163
0.051509676
0.041467009
0.034910272
-0.31094491
-0.31091828
-0.31088834
-0.31085866
-0.31082842
-0.31079736
-0.31076548
-0.31073256
-0.31069821
-0.31066176
-0.31062231
-0.31057872
-0.31052974
-0.31047432
-0.31041212
-0.31034445
-0.31027557
-0.31021476
-0.31017896
-0.31019614
-0.31030926
-0.31058045
-0.31109489
-0.31196401
-0.31332715
-0.3153507
-0.31822113
-0.32212788
-0.32726253
-0.33384587
-0.34218857
-0.35269533
-0.36578885
-0.38189298
-0.40146129
-0.42494799
-0.45278245
-0.48533636
-0.52288431
-0.56556373
-0.61335149
-0.66604592
-0.72328831
-0.78445737
-0.84856078
-0.91377505
-0.97651459
-1.0300488
-1.0629209
-1.0600461
-1.0072293
-0.9080539
-0.78409037
-0.65099226
-0.50565918
-0.34640018
-0.19664946
-0.075712754
-0.0061000167
0.03010959
0.04404779
0.045683876
0.04268691
0.035243691
0.030566996
-0.33454127
-0.33447691
-0.33440255
-0.33432591
-0.33424473
-0.33415826
-0.33406642
-0.33396897
-0.33386553
-0.3337556
-0.33363851
-0.33351352
-0.33337988
-0.33323713
-0.33308556
-0.33292696
-0.3327659
-0.33261152
-0.33247996
-0.33239756
-0.33240464
-0.33255952
-0.33294251
-0.33365908
-0.33484169
-0.33665001
-0.33926713
-0.34289023
-0.34772449
-0.35399797
-0.36199411
-0.37207247
-0.38464499
-0.40014251
-0.41901837
-0.44172475
-0.46868762
-0.50027659
-0.53676973
-0.57831886
-0.62493174
-0.67647682
-0.73269458
-0.79310964
-0.85697405
-0.92265873
-0.98670965
-1.0422814
-1.0773155
-1.0759808
-1.0238101
-0.92471062
-0.80125319
-0.66910868
-0.52326082
-0.36353816
-0.21187873
-0.10153379
-0.029863676
0.0093355167
0.0277413
0.033390181
0.033722658
0.028704811
0.025931905
-0.35340154
-0.35330515
-0.35319289
-0.35307595
-0.35295077
-0.35281612
-0.35267179
-0.35251749
-0.35235281
-0.35217735
-0.3519907
-0.35179253
-0.35158268
-0.35136148
-0.3511301
-0.35089136
-0.35065078
-0.35041823
-0.35021018
-0.3500526
-0.34998453
-0.35006199
-0.35036176
-0.3509846
-0.35205701
-0.35373148
-0.35618519
-0.35961535
-0.36423313
-0.37026594
-0.3779813
-0.38770034
-0.39981774
-0.41475958
-0.43296929
-0.45489103
-0.48094653
-0.51150467
-0.54684853
-0.58714574
-0.6324332
-0.68263057
-0.73755431
-0.79682562
-0.8598756
-0.92515765
-0.98924765
-1.0451855
-1.080767
-1.0800565
-1.0292195
-0.93215001
-0.81162946
-0.68125949
-0.53466993
-0.37943149
-0.22847884
-0.12435344
-0.051412553
-0.0099691924
0.012209325
0.021350366
0.024704506
0.021981213
0.02106123
-0.36679109
-0.36667074
-0.36652992
-0.36638227
-0.36622323
-0.36605109
-0.36586548
-0.36566594
-0.36545196
-0.36522313
-0.36497916
-0.36471999
-0.36444595
-0.36415802
-0.36385827
-0.36355057
-0.36324161
-0.36294238
-0.36267031
-0.36245189
-0.36232609
-0.36234804
-0.36259281
-0.36315848
-0.36416785
-0.36576841
-0.36813079
-0.37144623
-0.37592287
-0.38178471
-0.38928128
-0.39871408
-0.41045784
-0.42489465
-0.44246188
-0.46359452
-0.488708
-0.51816914
-0.55226283
-0.59117044
-0.63495372
-0.68356185
-0.73688179
-0.79445973
-0.85597566
-0.91975943
-0.98240493
-1.0369059
-1.0713721
-1.0705606
-1.0214995
-0.92909578
-0.81377565
-0.6858463
-0.54000166
-0.38961874
-0.2428252
-0.14267927
-0.070739327
-0.027703029
-0.0024875083
0.0096381333
0.015720238
0.015136355
0.016035871
-0.37450934
-0.37437502
-0.37421722
-0.37405091
-0.37387083
-0.37367491
-0.37346253
-0.37323297
-0.37298551
-0.37271957
-0.37243478
-0.37213109
-0.37180897
-0.37146974
-0.37111594
-0.37075211
-0.37038573
-0.37002864
-0.36969906
-0.36942411
-0.36924303
-0.36921085
-0.36940213
-0.36991418
-0.37086881
-0.37241209
-0.37471205
-0.3779557
-0.38234854
-0.38808511
-0.39558354
-0.40471837
-0.41605338
-0.42998032
-0.44690849
-0.4672344
-0.49135612
-0.51963391
-0.55235327
-0.58970489
-0.63176456
-0.67849293
-0.72975551
-0.7852385
-0.8443484
-0.90552203
-0.96529474
-1.0168168
-1.0489513
-1.0474151
-1.0012858
-0.91570005
-0.80710956
-0.68204114
-0.53765822
-0.39005547
-0.2542803
-0.15795467
-0.087930405
-0.043869932
-0.016295785
-0.0016513879
0.0068734838
0.0082744252
0.010920748
-0.3770007
-0.37686332
-0.37670079
-0.37652923
-0.37634258
-0.37613845
-0.37591594
-0.37567407
-0.37541178
-0.37512816
-0.37482252
-0.3744945
-0.37414433
-0.37377305
-0.37338304
-0.37297866
-0.37256723
-0.37216038
-0.37177598
-0.37144059
-0.37119264
-0.37108618
-0.37119479
-0.37161525
-0.3724698
-0.3739061
-0.3760941
-0.37922037
-0.38349365
-0.38910258
-0.3959727
-0.40492803
-0.4163519
-0.42976963
-0.44602012
-0.46546992
-0.48850092
-0.51546633
-0.5466423
-0.58222568
-0.6223002
-0.6668307
-0.71566113
-0.76845127
-0.8245048
-0.88221396
-0.93808649
-0.98571418
-1.0147304
-1.0124987
-0.9702861
-0.89311128
-0.7916813
-0.66998299
-0.52861002
-0.38815834
-0.26204483
-0.17065796
-0.10298697
-0.058480362
-0.029158093
-0.012426748
-0.0017389528
0.0014737464
0.0057835106
-0.37513626
-0.37500607
-0.37485015
-0.37468674
-0.37450814
-0.37431167
-0.37409627
-0.37386065
-0.37360341
-0.37332322
-0.3730189
-0.37268953
-0.37233466
-0.37195455
-0.37155065
-0.37112616
-0.37068696
-0.37024288
-0.36980944
-0.3694103
-0.36908026
-0.36886918
-0.3688462
-0.3691041
-0.36976265
-0.37096966
-0.37289833
-0.3757398
-0.37969379
-0.38496408
-0.39175997
-0.40065488
-0.41105312
-0.42393599
-0.43969646
-0.45821856
-0.48002963
-0.50550546
-0.53491231
-0.56846336
-0.60625182
-0.64824675
-0.69427243
-0.74394203
-0.79646029
-0.85017924
-0.9016511
-0.94504883
-0.97072266
-0.96820823
-0.93111017
-0.8627474
-0.76796892
-0.64968565
-0.51377089
-0.38196527
-0.26690599
-0.18097151
-0.11599751
-0.071558188
-0.041022409
-0.022599595
-0.01002654
-0.0051838759
0.00068275793
-0.37025266
-0.37013821
-0.36999979
-0.36985561
-0.36969727
-0.36952202
-0.36932869
-0.36911579
-0.36888162
-0.36862449
-0.3683427
-0.36803471
-0.36769923
-0.36733547
-0.36694348
-0.36652466
-0.36608255
-0.36562389
-0.36516018
-0.36470991
-0.36430142
-0.36397668
-0.36379597
-0.36384298
-0.36422992
-0.36510108
-0.36663322
-0.36903089
-0.3725164
-0.37731016
-0.38366577
-0.39159947
-0.4015372
-0.41395201
-0.42844753
-0.44577684
-0.46616431
-0.48989464
-0.51722005
-0.54840464
-0.58355657
-0.62266104
-0.66554334
-0.71178632
-0.76053457
-0.81009958
-0.85722759
-0.89641605
-0.91907613
-0.91737715
-0.88638814
-0.82594122
-0.73660361
-0.62214947
-0.49424348
-0.37387155
-0.26944607
-0.18907462
-0.1270452
-0.083122256
-0.05183943
-0.03209383
-0.017911512
-0.01163133
-0.0043241085
-0.36366646
-0.36357349
-0.3634599
-0.36334229
-0.36321245
-0.36306782
-0.36290722
-0.36272908
-0.36253157
-0.36231275
-0.36207062
-0.3618031
-0.36150818
-0.36118405
-0.36082935
-0.36044352
-0.36002738
-0.35958398
-0.35911981
-0.35864659
-0.35818374
-0.35776173
-0.35742655
-0.35724515
-0.35731167
-0.3577536
-0.35873616
-0.36046254
-0.36316871
-0.36710194
-0.37253567
-0.37965706
-0.38872263
-0.39976551
-0.41322687
-0.42902249
-0.44734245
-0.46899434
-0.49386217
-0.52228638
-0.55440286
-0.59024574
-0.62967927
-0.67230238
-0.71723608
-0.76283461
-0.80590467
-0.8413436
-0.8621533
-0.86307838
-0.83816164
-0.78364103
-0.69823704
-0.59307413
-0.47208079
-0.36362673
-0.26997216
-0.19513472
-0.13622116
-0.093207386
-0.061580913
-0.040855178
-0.025331277
-0.017805047
-0.0091856512
-0.35661827
-0.3565487
-0.35646388
-0.35637567
-0.35627767
-0.3561678
-0.3560449
-0.35590748
-0.35575378
-0.35558185
-0.35538958
-0.35517467
-0.35493469
-0.35466717
-0.35436969
-0.35404015
-0.35367707
-0.35328021
-0.35285134
-0.35239552
-0.35192292
-0.35145142
-0.35101019
-0.35064454
-0.350422
-0.35043953
-0.35083095
-0.35177261
-0.35348528
-0.35622492
-0.36027303
-0.36589441
-0.37335893
-0.38279227
-0.39431028
-0.40803937
-0.42457502
-0.44363603
-0.46545273
-0.49067309
-0.51930928
-0.55149449
-0.58719535
-0.62608876
-0.66734845
-0.70932801
-0.74888408
-0.78184875
-0.8030222
-0.80796838
-0.78752324
-0.73557135
-0.65584727
-0.55651323
-0.45336812
-0.35264233
-0.26875428
-0.19937948
-0.14365662
-0.10185722
-0.070226531
-0.048831827
-0.032229743
-0.0236545
-0.013853288
-0.34998503
-0.3499383
-0.34988265
-0.34982213
-0.34975436
-0.34967793
-0.34959174
-0.34949448
-0.34938462
-0.34926042
-0.34911991
-0.34896087
-0.34878088
-0.34857727
-0.34834718
-0.34808772
-0.34779607
-0.34746983
-0.34710748
-0.34670913
-0.34627765
-0.34582034
-0.34535142
-0.34489541
-0.34449185
-0.34420145
-0.34411355
-0.34435426
-0.34509362
-0.3465484
-0.34897718
-0.35265808
-0.35788091
-0.36486469
-0.37387478
-0.38512789
-0.39863363
-0.41436281
-0.43291141
-0.45441488
-0.47910915
-0.50728179
-0.53902897
-0.5741881
-0.61207662
-0.65099681
-0.68830755
-0.72124643
-0.74501857
-0.75368558
-0.73437913
-0.68485492
-0.6119292
-0.51942433
-0.42971154
-0.34200365
-0.26605921
-0.20194311
-0.14945634
-0.10911688
-0.077776221
-0.055995352
-0.038556771
-0.029126693
-0.018282479
-0.34428614
-0.34425753
-0.34422301
-0.34418517
-0.34414244
-0.34409382
-0.34403847
-0.34397535
-0.34390325
-0.34382077
-0.34372629
-0.34361795
-0.34349361
-0.34335086
-0.34318702
-0.34299914
-0.34278411
-0.34253875
-0.34226008
-0.34194565
-0.34159421
-0.34120653
-0.34078678
-0.34034443
-0.3398971
-0.33947443
-0.33912315
-0.33891341
-0.33894622
-0.33936079
-0.34033705
-0.34209936
-0.34491174
-0.34903598
-0.35473805
-0.36224163
-0.37176565
-0.38355545
-0.39782342
-0.41486566
-0.43508334
-0.45890598
-0.48660923
-0.51833532
-0.55330593
-0.59033307
-0.6280672
-0.6635699
-0.69055606
-0.70105508
-0.67949209
-0.63245483
-0.56372626
-0.48866971
-0.4067693
-0.33026713
-0.26188465
-0.20294452
-0.15372181
-0.11504582
-0.084250784
-0.062341475
-0.044282885
-0.03417949
-0.022433695
-0.33971361
-0.33969727
-0.33967743
-0.33965551
-0.33963053
-0.33960184
-0.33956886
-0.33953086
-0.33948698
-0.33943622
-0.33937737
-0.33930906
-0.33922965
-0.33913727
-0.33902977
-0.33890487
-0.33875997
-0.33859211
-0.33839811
-0.3381747
-0.33791897
-0.33762899
-0.33730444
-0.33694693
-0.33656083
-0.33615506
-0.33574577
-0.33535804
-0.3350312
-0.33483303
-0.33483047
-0.33511263
-0.33584566
-0.33720666
-0.33942199
-0.34276405
-0.34755046
-0.35414927
-0.36299462
-0.37462074
-0.38965216
-0.4087059
-0.43232125
-0.46087015
-0.49434382
-0.53223046
-0.57300167
-0.61178838
-0.6396028
-0.64469965
-0.62306091
-0.57907263
-0.52075281
-0.45592449
-0.38581223
-0.31838459
-0.2566828
-0.20260947
-0.15659718
-0.11971996
-0.089676228
-0.067863119
-0.049391025
-0.038785111
-0.02627033
-0.33608039
-0.33607153
-0.33606074
-0.33604878
-0.33603511
-0.33601934
-0.33600114
-0.33598007
-0.33595561
-0.33592716
-0.33589398
-0.33585522
-0.33581004
-0.33575723
-0.33569258
-0.33561347
-0.33552253
-0.33541912
-0.33529757
-0.33515541
-0.33499537
-0.33481911
-0.33462204
-0.33439627
-0.33413704
-0.33384753
-0.33353101
-0.33318487
-0.33282548
-0.33242263
-0.33192478
-0.33136323
-0.33076995
-0.33013974
-0.32952638
-0.32909559
-0.32914972
-0.33019252
-0.33295253
-0.33834654
-0.34743438
-0.36144573
-0.38143114
-0.40817745
-0.44210301
-0.48344161
-0.52788423
-0.56619892
-0.58971945
-0.58890688
-0.57187172
-0.52743055
-0.48293713
-0.42598702
-0.36535123
-0.30591592
-0.25047088
-0.20104689
-0.15819175
-0.12321385
-0.094090283
-0.072568741
-0.053869616
-0.042920707
-0.029760555
-0.33309677
-0.3330941
-0.33309085
-0.33308722
-0.33308301
-0.33307811
-0.33307235
-0.33306558
-0.33305756
-0.33304801
-0.33303666
-0.33302351
-0.33300787
-0.33298283
-0.33294818
-0.33291811
-0.3328926
-0.33286411
-0.33283432
-0.3327877
-0.33270434
-0.33259535
-0.33248384
-0.33237605
-0.33226243
-0.33212667
-0.3319546
-0.33172938
-0.33143056
-0.33100199
-0.33037761
-0.32952391
-0.32832786
-0.3266044
-0.32425029
-0.32126031
-0.31780813
-0.31439777
-0.31196919
-0.31181405
-0.3157326
-0.3250861
-0.34161647
-0.36857294
-0.40642821
-0.44912241
-0.49002313
-0.52316273
-0.54079319
-0.53883785
-0.51931156
-0.48779527
-0.44678531
-0.39815644
-0.34584634
-0.29340013
-0.24356713
-0.198458
-0.1586462
-0.12561543
-0.097539789
-0.076473423
-0.057713384
-0.046570997
-0.03288567
-0.33012358
-0.33012969
-0.33013693
-0.33014464
-0.33015305
-0.33016224
-0.33017224
-0.33018304
-0.33019462
-0.33020699
-0.33022011
-0.33023372
-0.33024728
-0.33026324
-0.33028836
-0.33031785
-0.33033305
-0.33032622
-0.33030618
-0.33029927
-0.33031382
-0.33030652
-0.33025642
-0.33020721
-0.33019059
-0.33017945
-0.33014723
-0.33006818
-0.32988957
-0.32956782
-0.3290276
-0.32815664
-0.32680893
-0.32478013
-0.32184368
-0.31779734
-0.31258055
-0.30661519
-0.30091835
-0.29698836
-0.2966187
-0.30395878
-0.32138161
-0.34895852
-0.38265926
-0.41925816
-0.45456119
-0.48238687
-0.49473458
-0.49308906
-0.47360059
-0.44828449
-0.41426731
-0.37269046
-0.32713561
-0.28079433
-0.23604851
-0.19495801
-0.15806955
-0.12700523
-0.10007436
-0.079600178
-0.060925806
-0.049724537
-0.035629181
-0.32719818
-0.32721807
-0.32724156
-0.32726647
-0.32729359
-0.32732323
-0.32735547
-0.32739039
-0.32742807
-0.32746854
-0.3275118
-0.32755798
-0.32760709
-0.32765613
-0.32769917
-0.32773713
-0.32777724
-0.32782057
-0.32787483
-0.32795753
-0.32806237
-0.32816086
-0.32822983
-0.32827339
-0.32833211
-0.32840392
-0.32841207
-0.32831791
-0.32813228
-0.32783438
-0.32731636
-0.3264305
-0.32501166
-0.32282438
-0.31960485
-0.31512027
-0.30948854
-0.30304637
-0.29668732
-0.29203388
-0.29257786
-0.29897703
-0.31238755
-0.33478817
-0.36355647
-0.39474373
-0.42290598
-0.4409532
-0.45581583
-0.44936354
-0.43656314
-0.41512557
-0.3852801
-0.34914879
-0.30933117
-0.26830415
-0.22809999
-0.1907
-0.15658415
-0.12747026
-0.10174938
-0.081977336
-0.063516727
-0.052377295
-0.037985256
-0.32447828
-0.32451125
-0.32455001
-0.32459096
-0.32463539
-0.32468379
-0.32473625
-0.3247929
-0.32485383
-0.32491905
-0.32498852
-0.32506206
-0.3251394
-0.32522011
-0.32530385
-0.32539042
-0.32547913
-0.32556881
-0.32565822
-0.32574493
-0.32582766
-0.32590569
-0.32595711
-0.3259493
-0.32592714
-0.32596084
-0.3260035
-0.32596331
-0.325803
-0.32551204
-0.32503194
-0.32418906
-0.32290279
-0.32114732
-0.31874417
-0.31529679
-0.31061759
-0.3052916
-0.29999323
-0.29587707
-0.29441469
-0.29822707
-0.30986558
-0.32845373
-0.35160747
-0.3741978
-0.3979929
-0.41152444
-0.41518567
-0.41629706
-0.4036662
-0.38455363
-0.35877652
-0.32735157
-0.29237137
-0.2559578
-0.21980819
-0.18578984
-0.15428949
-0.12708948
-0.10262016
-0.083636898
-0.065500679
-0.054528392
-0.039949251
-0.32401166
-0.32404561
-0.32408554
-0.32412769
-0.3241734
-0.32422316
-0.3242771
-0.32433536
-0.32439803
-0.32446515
-0.32453669
-0.32461248
-0.32469227
-0.32477565
-0.32486207
-0.32495086
-0.32504124
-0.32513224
-0.32522267
-0.32531158
-0.32539774
-0.32547965
-0.32555517
-0.32562204
-0.32567848
-0.32572606
-0.32575246
-0.32572352
-0.32562413
-0.32549249
-0.32522289
-0.32470919
-0.32395997
-0.32266486
-0.3207154
-0.31821461
-0.31495986
-0.31081473
-0.30619058
-0.30228008
-0.30076483
-0.30336365
-0.31122313
-0.32499954
-0.34094651
-0.35869898
-0.37513608
-0.38586511
-0.38682267
-0.38493088
-0.3742666
-0.3576157
-0.33485618
-0.30718945
-0.2762648
-0.24383441
-0.21127837
-0.18033703
-0.15128478
-0.12594091
-0.10274233
-0.084613197
-0.066896003
-0.05618215
-0.041522761
-0.32531131
-0.32533553
-0.32536403
-0.32539418
-0.32542694
-0.32546271
-0.32550161
-0.32554378
-0.32558934
-0.32563839
-0.32569097
-0.32574705
-0.32580654
-0.32586927
-0.32593487
-0.32600284
-0.32607404
-0.32615124
-0.3262317
-0.32631021
-0.32638643
-0.32646077
-0.3265351
-0.32661054
-0.32667322
-0.3267338
-0.32683699
-0.32692808
-0.32702013
-0.3271249
-0.32703065
-0.32674615
-0.32635593
-0.32568711
-0.32456581
-0.32273497
-0.32011273
-0.31675943
-0.31289156
-0.30931336
-0.30723008
-0.30813869
-0.31329586
-0.32226253
-0.33232386
-0.34480598
-0.35647645
-0.36051938
-0.36159042
-0.35860354
-0.34860631
-0.33332164
-0.31298267
-0.28844653
-0.26094036
-0.23195029
-0.20257543
-0.17442512
-0.14765299
-0.12409546
-0.10217013
-0.084942027
-0.067723051
-0.057345479
-0.042705702
-0.32821137
-0.32822246
-0.32823556
-0.32824948
-0.32826468
-0.32828136
-0.3282996
-0.32831951
-0.32834118
-0.32836469
-0.32839011
-0.32841748
-0.32844682
-0.32847776
-0.32850994
-0.32854829
-0.32860157
-0.32865477
-0.32868555
-0.32870893
-0.3287445
-0.32878976
-0.32883971
-0.32889732
-0.32896268
-0.32905696
-0.32918974
-0.32927835
-0.32931841
-0.32937651
-0.32939662
-0.32930862
-0.3290357
-0.3284861
-0.32753849
-0.32608274
-0.32402934
-0.32130544
-0.3180322
-0.31474105
-0.31238605
-0.31200256
-0.31449171
-0.31923499
-0.3258204
-0.3334369
-0.33858287
-0.34119056
-0.34006255
-0.33530931
-0.325563
-0.31142256
-0.29299765
-0.27099728
-0.24635581
-0.2203261
-0.19375659
-0.16812871
-0.14347044
-0.12161928
-0.10095503
-0.084658897
-0.0680036
-0.058028864
-0.04350017
-0.33134415
-0.33134686
-0.33135006
-0.33135347
-0.33135719
-0.33136126
-0.3313657
-0.33137051
-0.33137567
-0.33138118
-0.33138697
-0.33139298
-0.33139909
-0.33140514
-0.33141096
-0.33141639
-0.33142022
-0.33141971
-0.33141602
-0.33141217
-0.33140751
-0.33140061
-0.33139111
-0.3313849
-0.33137401
-0.33133656
-0.33126697
-0.33119288
-0.33113147
-0.33106278
-0.33096558
-0.33077655
-0.33046434
-0.32999051
-0.32926159
-0.3281604
-0.32654212
-0.32427376
-0.32136866
-0.31819805
-0.31539061
-0.31369913
-0.31406424
-0.31550317
-0.31899061
-0.32184797
-0.32360466
-0.32329134
-0.32042931
-0.31464337
-0.30491873
-0.29152371
-0.27458759
-0.25466453
-0.23243314
-0.20895403
-0.18485787
-0.16150557
-0.13880066
-0.11857108
-0.099145646
-0.083799438
-0.067760382
-0.058245028
-0.043907916
-0.33448902
-0.3344898
-0.33449063
-0.33449135
-0.33449194
-0.33449234
-0.33449245
-0.33449214
-0.33449125
-0.33448955
-0.33448678
-0.33448256
-0.33447643
-0.33446782
-0.33445597
-0.33443999
-0.33441877
-0.33439082
-0.33435423
-0.3343072
-0.33424775
-0.33417367
-0.33408266
-0.33397122
-0.3338398
-0.33368032
-0.33348678
-0.33327254
-0.3330318
-0.3327546
-0.33245514
-0.33213832
-0.33177019
-0.33130852
-0.33067402
-0.32972017
-0.32824567
-0.32605912
-0.32316859
-0.31981001
-0.31640086
-0.31407655
-0.3125114
-0.31148215
-0.31062234
-0.31094245
-0.30989836
-0.30746367
-0.3030005
-0.29608865
-0.28616674
-0.27329869
-0.25753394
-0.23930656
-0.21910214
-0.19782058
-0.17590368
-0.1546021
-0.13369857
-0.11500353
-0.09678652
-0.082397548
-0.067016312
-0.058009326
-0.04393326
-0.33804769
-0.33804884
-0.33804996
-0.33805079
-0.33805126
-0.33805121
-0.33805046
-0.33804873
-0.3380457
-0.33804096
-0.33803397
-0.33802405
-0.33801038
-0.33799191
-0.33796735
-0.3379351
-0.33789326
-0.33783952
-0.33777118
-0.33768509
-0.33757772
-0.33744518
-0.3372834
-0.33708832
-0.33685612
-0.33658262
-0.33626622
-0.3359073
-0.33551364
-0.33509883
-0.33466759
-0.33422132
-0.33375072
-0.33320621
-0.33247182
-0.33135389
-0.32962001
-0.32711355
-0.32386914
-0.31994648
-0.31631058
-0.31291212
-0.30928447
-0.30648383
-0.30332338
-0.30065884
-0.29732992
-0.29291087
-0.28696365
-0.27912638
-0.26896246
-0.2564491
-0.24160368
-0.22477054
-0.2062796
-0.18689783
-0.16690483
-0.14745242
-0.12820898
-0.11096247
-0.09391888
-0.080485951
-0.065794633
-0.057338307
-0.043582917
-0.34268366
-0.34268356
-0.34268308
-0.34268201
-0.34268016
-0.34267727
-0.34267303
-0.34266706
-0.34265885
-0.34264779
-0.3426331
-0.34261382
-0.34258877
-0.34255648
-0.34251519
-0.34246273
-0.34239655
-0.34231359
-0.34221033
-0.34208271
-0.34192625
-0.34173611
-0.34150731
-0.34123506
-0.34091503
-0.3405446
-0.34012519
-0.33966183
-0.33915952
-0.33862677
-0.33807367
-0.33749643
-0.33685919
-0.3360689
-0.33496312
-0.33332556
-0.33096985
-0.32783472
-0.32387542
-0.3195824
-0.3152077
-0.3100027
-0.30509515
-0.30016252
-0.29538193
-0.29064287
-0.28540873
-0.27935655
-0.27213643
-0.26344918
-0.25298966
-0.24071178
-0.22659667
-0.21091802
-0.19388378
-0.17615175
-0.15786261
-0.1400808
-0.12236832
-0.10648723
-0.090579448
-0.078094985
-0.064118415
-0.056249212
-0.042867713
-0.34898962
-0.34898516
-0.3489794
-0.3489725
-0.34896403
-0.34895358
-0.3489407
-0.34892484
-0.3489053
-0.34888125
-0.34885163
-0.34881519
-0.3487704
-0.34871539
-0.34864793
-0.34856539
-0.34846465
-0.34834208
-0.34819356
-0.34801448
-0.34779978
-0.34754414
-0.3472423
-0.34689006
-0.34648476
-0.34602501
-0.34551132
-0.34494761
-0.34434
-0.34369132
-0.34299221
-0.34220486
-0.3412436
-0.33996418
-0.33817928
-0.3357042
-0.33246293
-0.32837254
-0.32363668
-0.31868453
-0.3125657
-0.30627351
-0.30000204
-0.29372038
-0.28734219
-0.28083358
-0.27396285
-0.26648265
-0.25813677
-0.24870641
-0.23795899
-0.22584391
-0.21232076
-0.19761212
-0.1818292
-0.16554073
-0.14876907
-0.13250223
-0.11620514
-0.1016113
-0.086801568
-0.075252759
-0.062010458
-0.054761008
-0.041795521
-0.35742143
-0.35740969
-0.35739517
-0.35737873
-0.35735955
-0.357337
-0.35731047
-0.35727918
-0.35724222
-0.35719847
-0.35714657
-0.35708493
-0.35701162
-0.35692432
-0.35682037
-0.35669664
-0.3565495
-0.35637482
-0.35616799
-0.35592412
-0.35563825
-0.35530556
-0.35492155
-0.35448226
-0.35398506
-0.35342931
-0.35281555
-0.35214345
-0.35140735
-0.35058729
-0.34963577
-0.34846296
-0.34693042
-0.34486634
-0.34210365
-0.33854681
-0.33415827
-0.32893823
-0.32340196
-0.31668387
-0.30940187
-0.30210585
-0.29458398
-0.28687241
-0.27903072
-0.27103176
-0.26275487
-0.2540472
-0.24473047
-0.23464837
-0.2236289
-0.2116328
-0.19860369
-0.18472525
-0.17003174
-0.1550193
-0.13960982
-0.12472431
-0.10974111
-0.096362177
-0.082614334
-0.071982743
-0.059491073
-0.052876193
-0.040388654
-0.36847182
-0.36844992
-0.36842323
-0.36839361
-0.36835972
-0.36832067
-0.36827563
-0.36822359
-0.36816338
-0.36809356
-0.36801247
-0.36791815
-0.36780833
-0.36768024
-0.36753073
-0.36735636
-0.36715316
-0.36691678
-0.36664256
-0.36632556
-0.36596071
-0.36554326
-0.36506899
-0.36453435
-0.3639361
-0.36327042
-0.36253027
-0.36170031
-0.36074842
-0.35961442
-0.35819934
-0.35636196
-0.35393617
-0.35076483
-0.34674713
-0.34185376
-0.33609526
-0.32985134
-0.32254343
-0.31446226
-0.30618007
-0.29758189
-0.28870437
-0.27964846
-0.27045313
-0.26112229
-0.25160864
-0.24182959
-0.23166965
-0.22102686
-0.2097727
-0.19788063
-0.18528303
-0.17213441
-0.15840728
-0.14453824
-0.13036465
-0.11674823
-0.10299222
-0.09076302
-0.078044903
-0.068311609
-0.056588123
-0.050641624
-0.038654266
-0.38264809
-0.38261318
-0.38257093
-0.38252455
-0.38247213
-0.38241245
-0.38234446
-0.38226686
-0.38217814
-0.38207635
-0.38195991
-0.38183121
-0.38168309
-0.38150286
-0.3812963
-0.38106513
-0.38079977
-0.38049538
-0.3801474
-0.37975077
-0.3793003
-0.37879069
-0.37821624
-0.37757017
-0.3768429
-0.37601883
-0.37507098
-0.37395313
-0.37259044
-0.37087218
-0.36865193
-0.36576339
-0.36205804
-0.35742887
-0.35184653
-0.34536126
-0.33826156
-0.33028517
-0.3213615
-0.31211689
-0.30250686
-0.29254221
-0.28233724
-0.27196627
-0.26149193
-0.2509508
-0.2403398
-0.22962725
-0.21874524
-0.20763234
-0.19619221
-0.18441067