/*--------------------------------*- C++ -*----------------------------------*\
  =========                 |
  \\      /  F ield         | OpenFOAM: The Open Source CFD Toolbox
   \\    /   O peration     | Website:  https://openfoam.org
    \\  /    A nd           | Version:  13
     \\/     M anipulation  |
\*---------------------------------------------------------------------------*/
FoamFile
{
    format      ascii;
    class       volScalarField;
    location    "15.903875";
    object      nut;
}
// * * * * * * * * * * * * * * * * * * * * * * * * * * * * * * * * * * * * * //

dimensions      [0 2 -1 0 0 0 0];

internalField   nonuniform List<scalar> 
17140
(
1.9014216e-17
3.6980163e-15
9.8498509e-14
9.9860022e-13
6.0396466e-12
2.6762004e-11
9.6653748e-11
3.025217e-10
8.5254389e-10
2.21851e-09
5.424814e-09
1.2622611e-08
2.8210017e-08
6.0985102e-08
1.2823172e-07
2.6338939e-07
5.3031463e-07
1.049576e-06
2.0465698e-06
3.9389456e-06
7.4943293e-06
1.4112337e-05
2.6321294e-05
4.8625466e-05
8.8843132e-05
0.00015982217
0.00028028601
0.00047079039
0.00073892871
0.00085682099
0.00092551502
0.00097851688
0.0010189713
0.0010550819
0.0010886891
0.0011247
0.0011667797
0.0012173323
0.0012788806
0.001356383
0.0014517545
0.0015696335
0.0017140812
0.0018992395
0.0021393064
0.0024445403
0.0028437935
0.0028608373
0.0027681994
0.0026616589
0.0025447685
0.0024197428
0.0022955103
0.0021751344
0.0020663673
0.0019703786
0.0019011927
0.0018588855
0.0018269588
0.0018146952
0.0017999182
0.0017126081
0.0014675557
0.0012333241
0.0010294773
1.8868872e-17
3.6697459e-15
9.7745612e-14
9.9096981e-13
5.9935202e-12
2.6557727e-11
9.5916399e-11
3.0021518e-10
8.4604745e-10
2.2016133e-09
5.3835141e-09
1.2526536e-08
2.7995301e-08
6.0520756e-08
1.2725451e-07
2.613791e-07
5.2625745e-07
1.0415188e-06
2.0307864e-06
3.9083894e-06
7.4357838e-06
1.4001248e-05
2.6112658e-05
4.8238777e-05
8.8141361e-05
0.00015859672
0.00027829916
0.0004679971
0.00073596429
0.00086580506
0.00093705796
0.0009926294
0.001035678
0.001074012
0.0011113281
0.0011516649
0.0011990727
0.001256517
0.001327309
0.0014154195
0.0015236415
0.0016567175
0.0018195826
0.0020282654
0.0022776244
0.0025857534
0.0029717863
0.0031702933
0.0031260772
0.0030659592
0.0029858945
0.0028919846
0.0027897017
0.0026754697
0.0025535887
0.0024370949
0.0023349487
0.0022536112
0.0022099319
0.0021729419
0.0021583123
0.0020806375
0.0018799653
0.0015579539
0.0012659011
1.8465795e-17
3.5913521e-15
9.5657532e-14
9.6980005e-13
5.8654786e-12
2.5990331e-11
9.3866969e-11
2.9379948e-10
8.2796255e-10
2.1545341e-09
5.2683282e-09
1.2258298e-08
2.7395126e-08
5.9221192e-08
1.2451595e-07
2.557376e-07
5.1485518e-07
1.0188413e-06
1.9862973e-06
3.8221291e-06
7.2702457e-06
1.3686568e-05
2.5520249e-05
4.7136856e-05
8.6129387e-05
0.00015504366
0.00027240894
0.00045931202
0.00072556793
0.00088357373
0.00095950198
0.0010200977
0.0010683053
0.0011110826
0.0011549954
0.0012038896
0.0012617491
0.0013329079
0.0014212357
0.0015309904
0.0016664566
0.0018319836
0.0020318022
0.0022734468
0.0025526599
0.0028763025
0.0032482217
0.0036753099
0.00385706
0.0039271688
0.0039620228
0.0039691172
0.0039577359
0.0039148659
0.0038277185
0.0037238712
0.0035831506
0.003434153
0.0033016653
0.0031232581
0.0029518678
0.0026329154
0.0022006934
0.0017148875
0.0013618803
1.7804915e-17
3.4628194e-15
9.2233978e-14
9.3509074e-13
5.6555471e-12
2.5060064e-11
9.0506896e-11
2.8328103e-10
7.9831338e-10
2.0773531e-09
5.0795025e-09
1.1818599e-08
2.6411388e-08
5.7091319e-08
1.2002833e-07
2.4649465e-07
4.9617832e-07
9.8170686e-07
1.9134728e-06
3.6809891e-06
6.9995149e-06
1.317214e-05
2.4552045e-05
4.5335518e-05
8.2835952e-05
0.00014920608
0.00026264959
0.00044466508
0.00070736725
0.00091155155
0.00099345036
0.0010613323
0.0011177989
0.0011690771
0.0012221176
0.0012827528
0.0013562493
0.0014475195
0.0015614691
0.0017032964
0.0018778675
0.002088574
0.0023379356
0.0026223997
0.0029383946
0.0032818045
0.0036542504
0.0040795789
0.0045705513
0.0050295412
0.0052590786
0.0054579276
0.0056257263
0.0057113132
0.0057274696
0.0057091702
0.0055784246
0.0053052648
0.0049746156
0.0044715963
0.0038515234
0.0030134164
0.0022857173
0.0016722191
0.0012073752
1.6902482e-17
3.2873079e-15
8.7559138e-14
8.8769571e-13
5.3688909e-12
2.3789822e-11
8.5918929e-11
2.6891912e-10
7.5783177e-10
1.971979e-09
4.8217195e-09
1.1218384e-08
2.5068705e-08
5.4184815e-08
1.1390576e-07
2.3388807e-07
4.7071438e-07
9.3110172e-07
1.8142871e-06
3.4888853e-06
6.6312959e-06
1.2472992e-05
2.3236988e-05
4.2889318e-05
7.8359555e-05
0.00014124628
0.00024923865
0.00042421514
0.00068118661
0.00095235328
0.0010416592
0.0011182108
0.0011860349
0.0012484341
0.0013143341
0.001391053
0.0014852053
0.0016028875
0.0017501704
0.001932957
0.0021556608
0.0024194289
0.0027221792
0.0030555932
0.0034115205
0.0037825649
0.0041706674
0.0046058893
0.0051218312
0.0057344473
0.0064748288
0.007015089
0.0073790244
0.0076740641
0.0078535819
0.0079239398
0.0078920554
0.0075672377
0.0070472954
0.0061648629
0.0049126743
0.0032945012
0.0021588567
0.0014304929
0.00096806878
1.5784655e-17
3.0699056e-15
8.1768522e-14
8.2898862e-13
5.0138173e-12
2.2216417e-11
8.0236056e-11
2.5113016e-10
7.0769205e-10
1.8414713e-09
4.502474e-09
1.0475139e-08
2.3406308e-08
5.0586944e-08
1.0632885e-07
2.1829236e-07
4.3922661e-07
8.6855935e-07
1.6917844e-06
3.2517997e-06
6.1772314e-06
1.1611551e-05
2.1617712e-05
3.9877505e-05
7.284128e-05
0.00013139314
0.00023247202
0.00039811352
0.00064638845
0.00097171069
0.0011070644
0.0011942008
0.0012753529
0.0013525099
0.0014351866
0.0015323647
0.001652234
0.0018023543
0.0019897392
0.0022201316
0.0024960837
0.0028151786
0.0031705012
0.0035512929
0.0039468518
0.0043477651
0.0047575186
0.0052131624
0.0057492717
0.0063931241
0.0071766355
0.0081251984
0.0090351955
0.0095184505
0.0098537965
0.01004796
0.010135647
0.0098425959
0.0091847476
0.0079315902
0.0058020408
0.003485669
0.0019650799
0.0011976256
0.00076665962
1.448257e-17
2.8166678e-15
7.5023419e-14
7.6060463e-13
4.6002158e-12
2.038367e-11
7.3616552e-11
2.3040964e-10
6.4929107e-10
1.689467e-09
4.1306677e-09
9.609608e-09
2.1470658e-08
4.6398474e-08
9.751042e-08
2.0014731e-07
4.0260738e-07
7.9586314e-07
1.5494831e-06
2.9765945e-06
5.6505625e-06
1.0613079e-05
1.9741702e-05
3.6387292e-05
6.6434414e-05
0.00011989168
0.00021265668
0.0003664691
0.00060206642
0.00092132088
0.001194491
0.0012957509
0.0013903789
0.0014864089
0.0015900075
0.0017122916
0.0018630954
0.0020512948
0.0022840734
0.0025655232
0.0028946864
0.003264807
0.0036657684
0.0040871859
0.0045179794
0.0049472482
0.005380311
0.0058576948
0.0064120107
0.007075358
0.0078783821
0.0088582306
0.010034945
0.01110688
0.011567156
0.0118648
0.012045864
0.011789192
0.010982402
0.0092514279
0.0062378285
0.0032391645
0.0016272062
0.00092438518
0.00060101209
1.3038505e-17
2.5358166e-15
6.7542814e-14
6.8476397e-13
4.1415162e-12
1.8351099e-11
6.6275406e-11
2.0743069e-10
5.8452688e-10
1.5209095e-09
3.7184051e-09
8.6500116e-09
1.9325006e-08
4.175668e-08
8.7740687e-08
1.8005334e-07
3.6207714e-07
7.154581e-07
1.3922239e-06
2.6727619e-06
5.0697568e-06
9.5132592e-06
1.7677442e-05
3.2548946e-05
5.9382931e-05
0.00010718488
0.00019054737
0.00033041668
0.00054959795
0.00085774051
0.0012317354
0.0014318582
0.0015433439
0.0016582299
0.0017866234
0.0019391862
0.0021266377
0.0023582985
0.0026398794
0.0029717855
0.0033481933
0.0037594624
0.0041941763
0.004644165
0.0051013179
0.0055526837
0.0060038534
0.0064953511
0.0070627033
0.0077370259
0.0085489333
0.0095335527
0.010722062
0.012143606
0.012911194
0.013253405
0.013443687
0.01314725
0.012117424
0.009838421
0.0059992182
0.002633592
0.0012386474
0.00070099343
0.00050120718
1.1501717e-17
2.2369313e-15
5.9581833e-14
6.0405326e-13
3.653364e-12
1.6188034e-11
5.846306e-11
1.8297738e-10
5.1560995e-10
1.3415547e-09
3.2797733e-09
7.6291714e-09
1.7042843e-08
3.6820866e-08
7.7355849e-08
1.5870447e-07
3.1904254e-07
6.3015224e-07
1.2255418e-06
2.3510987e-06
4.4556875e-06
8.3521284e-06
1.5501122e-05
2.8506064e-05
5.1953373e-05
9.3753064e-05
0.00016695546
0.00029113105
0.0004900592
0.00078016997
0.0011506096
0.0015553087
0.001750047
0.0018883783
0.002045127
0.0022310834
0.0024593439
0.0027393497
0.0030727239
0.0034542633
0.0038724534
0.0043146631
0.0047703275
0.0052320155
0.0056941069
0.0061454313
0.0065968207
0.0070840526
0.0076506
0.0083246418
0.0091293176
0.01009864
0.011260883
0.012636385
0.013797458
0.014127812
0.014217445
0.013769162
0.012477941
0.0095853517
0.0048778404
0.0018402301
0.00090172211
0.00055019584
0.00044583456
9.9240515e-18
1.9300961e-15
5.1409112e-14
5.21196e-13
3.1522309e-12
1.3967466e-11
5.0443141e-11
1.5787495e-10
4.4486629e-10
1.1574568e-09
2.8295826e-09
6.5815698e-09
1.4701303e-08
3.1757999e-08
6.6707647e-08
1.3682509e-07
2.7496739e-07
5.4285689e-07
1.0551506e-06
2.0226933e-06
3.8296716e-06
7.1703395e-06
1.3289718e-05
2.4403385e-05
4.4415642e-05
8.0092822e-05
0.00014276895
0.00025009335
0.00042553625
0.00069058171
0.00104668
0.0014600918
0.0018745649
0.0022006454
0.002390531
0.0026117778
0.0028853412
0.0032138657
0.0035949334
0.0040195253
0.004461509
0.0048766409
0.0053463319
0.0058445112
0.0062824022
0.0067027561
0.0071223448
0.0075802135
0.0081226818
0.008774028
0.009549875
0.010482245
0.011591627
0.012906879
0.014191956
0.014434252
0.01433445
0.013635927
0.01193816
0.0080547183
0.0032439109
0.0011979172
0.00065602735
0.00045274414
0.00042789488
8.3577762e-18
1.625476e-15
4.3295371e-14
4.3893649e-13
2.6547139e-12
1.1762937e-11
4.2481265e-11
1.3295474e-10
3.7463865e-10
9.7471193e-10
2.3827387e-09
5.5418889e-09
1.2377897e-08
2.6735662e-08
5.6148546e-08
1.1513955e-07
2.3131147e-07
4.5646565e-07
8.8670602e-07
1.6984699e-06
3.2125992e-06
6.0075074e-06
1.1117848e-05
2.038074e-05
3.7030921e-05
6.6691065e-05
0.00011889089
0.00020893482
0.00035871384
0.00059244982
0.00092243327
0.0013300325
0.0017650749
0.0021750889
0.0025362844
0.0028557078
0.003156759
0.0034630564
0.0037890238
0.0041411812
0.0045270604
0.0049596664
0.0054464759
0.0059866862
0.0065887303
0.0071634312
0.0075212995
0.0079292115
0.0084253676
0.0090341771
0.009762005
0.010635893
0.01166993
0.012962602
0.014086698
0.014148055
0.013780663
0.012668802
0.010320618
0.0054615844
0.0017940591
0.00077986588
0.00049071511
0.00040173825
0.00043470542
6.853747e-18
1.3329619e-15
3.5504067e-14
3.5994599e-13
2.1769692e-12
9.6460302e-12
3.4835924e-11
1.0902571e-10
3.0720636e-10
7.9924989e-10
1.9537362e-09
4.5438379e-09
1.0147911e-08
2.1916472e-08
4.6020116e-08
9.4348567e-08
1.8948371e-07
3.7376319e-07
7.2563145e-07
1.3888596e-06
2.6243227e-06
4.9010915e-06
9.0557367e-06
1.6569293e-05
3.0044304e-05
5.4008831e-05
9.6199577e-05
0.00016933991
0.00029270199
0.00049073806
0.00078366068
0.0011689193
0.0016092836
0.00204934
0.0024498441
0.00280429
0.0031333979
0.0034570134
0.0037937142
0.0041517369
0.0045431951
0.0049812542
0.0054721021
0.0060174974
0.0066248377
0.0072877661
0.0077584582
0.0081125786
0.0085562117
0.0091120816
0.0097765556
0.010563561
0.011513356
0.012796197
0.013445998
0.013295477
0.012508004
0.010920251
0.0074869677
0.0027334865
0.00094850415
0.00052848686
0.00039453162
0.00039079862
0.00047408723
5.4591308e-18
1.0617274e-15
2.8279577e-14
2.8670226e-13
1.7339828e-12
7.6831473e-12
2.7746913e-11
8.6838299e-11
2.4468378e-10
6.3657075e-10
1.556017e-09
3.6186688e-09
8.0811086e-09
1.7450998e-08
3.6638247e-08
7.5099089e-08
1.5078187e-07
2.9730653e-07
5.7688714e-07
1.1033555e-06
2.0828029e-06
3.8847552e-06
7.1660438e-06
1.3085295e-05
2.3672056e-05
4.2453584e-05
7.5483026e-05
0.00013288305
0.00023066068
0.00039126979
0.0006389026
0.00098512724
0.0014109481
0.0018673234
0.002303495
0.0026959924
0.0030495446
0.0033922177
0.0037394503
0.0041042003
0.0045000513
0.0049399006
0.0054298086
0.0059726758
0.0065743914
0.0072282026
0.0078316469
0.0081119089
0.0084807993
0.0089526501
0.0095199492
0.010196358
0.011119156
0.012343048
0.012333742
0.011867662
0.010566288
0.0082517035
0.003883429
0.0012823953
0.00054616463
0.00037133149
0.00035557837
0.00041581386
0.00051845253
4.2134269e-18
8.1945437e-16
2.1826497e-14
2.2127947e-13
1.3382994e-12
5.9298734e-12
2.1414973e-11
6.7020726e-11
1.888408e-10
4.912779e-10
1.2008282e-09
2.7925186e-09
6.2357919e-09
1.3464936e-08
2.826623e-08
5.7929125e-08
1.1628184e-07
2.2920653e-07
4.4454509e-07
8.4969561e-07
1.6025508e-06
2.9854091e-06
5.498256e-06
1.0019368e-05
1.8080688e-05
3.233659e-05
5.7346116e-05
0.00010081097
0.00017528226
0.00029968186
0.00049816756
0.00079163858
0.0011804414
0.0016318531
0.0020930669
0.0025232076
0.0029100667
0.0032697587
0.0036277328
0.0039950328
0.0043878158
0.0048186249
0.0052944696
0.0058186564
0.0063961556
0.0070219929
0.0076557929
0.0078801978
0.0081603224
0.0085344833
0.0089946414
0.0096109437
0.010552863
0.011042807
0.010783123
0.0098102524
0.0080364604
0.0045949507
0.0015813519
0.00056537821
0.00034280012
0.00031109953
0.00035827823
0.00045223217
0.00055530797
3.1442312e-18
6.1150997e-16
1.6287791e-14
1.6512697e-13
9.9868487e-13
4.4250497e-12
1.5980363e-11
5.0011883e-11
1.4091366e-10
3.6658563e-10
8.9601897e-10
2.0836124e-09
4.6525633e-09
1.0045656e-08
2.1086578e-08
4.3210169e-08
8.6722454e-08
1.7090189e-07
3.3135234e-07
6.3302963e-07
1.1930568e-06
2.2202722e-06
4.083212e-06
7.4263014e-06
1.3367795e-05
2.3835901e-05
4.2134178e-05
7.3865522e-05
0.00012833022
0.00022024679
0.00037064423
0.00060365717
0.00093490678
0.0013537724
0.0018187892
0.0022791888
0.0027045011
0.0030884122
0.0034556617
0.0038275361
0.0042136378
0.0046285516
0.0050810282
0.0055749034
0.0061125975
0.0066926869
0.0072750844
0.007446784
0.0076298691
0.0079015901
0.0082872842
0.0089346618
0.0096193775
0.0094466073
0.0087294283
0.0072690372
0.0046163008
0.0017865137
0.00061541534
0.00029732959
0.00025772105
0.0002985633
0.00038787788
0.00048800437
0.0005819945
2.2646992e-18
4.4045295e-16
1.1731613e-14
1.1893576e-13
7.1931833e-13
3.1871913e-12
1.1509936e-11
3.6020898e-11
1.0149114e-10
2.6402356e-10
6.4532e-10
1.5005962e-09
3.3506288e-09
7.2343118e-09
1.5184717e-08
3.1114516e-08
6.2441876e-08
1.230388e-07
2.3851034e-07
4.5552741e-07
8.5811733e-07
1.5957605e-06
2.9313538e-06
5.3224853e-06
9.5586312e-06
1.6992483e-05
2.9929017e-05
5.2271674e-05
9.055375e-05
0.00015542117
0.00026322005
0.00043607468
0.00069673534
0.001054846
0.0014915944
0.0019616265
0.0024184271
0.0028383233
0.0032217195
0.0035940737
0.003976406
0.0043727089
0.0047935337
0.0052482149
0.0057322588
0.0062492762
0.006764096
0.0068395045
0.0069388529
0.0071448673
0.0075552435
0.0082250427
0.0080616295
0.0074685417
0.0062765757
0.0041854935
0.001719386
0.00060114131
0.00024711356
0.00020776279
0.00025348483
0.00033968889
0.00043344816
0.00051578335
0.00061863166
1.5726319e-18
3.058554e-16
8.1465555e-15
8.2590023e-14
4.9949862e-13
2.2131889e-12
7.9924411e-12
2.5012452e-11
7.0473213e-11
1.8332939e-10
4.4808209e-10
1.0419325e-09
2.3264643e-09
5.023007e-09
1.0543212e-08
2.1603933e-08
4.3356333e-08
8.5432993e-08
1.6561126e-07
3.1628087e-07
5.9570553e-07
1.1073657e-06
2.0327545e-06
3.6864413e-06
6.6079688e-06
1.1715019e-05
2.0559023e-05
3.5750855e-05
6.1658191e-05
0.000105491
0.00017878153
0.00029873945
0.00048756647
0.00076590693
0.001138666
0.0015821525
0.0020505669
0.0025028883
0.0029158546
0.0032961442
0.0036658785
0.0040472858
0.0044372407
0.004842527
0.0052658152
0.0057036166
0.0060851669
0.0061089258
0.0061828151
0.006413532
0.0068922377
0.0067395865
0.006203024
0.0051879034
0.0034709092
0.0014602994
0.00054955281
0.00021732515
0.00016006357
0.00019897364
0.00028129938
0.00037625016
0.0004661567
0.00055197933
0.00065286154
1.0526682e-18
2.0472956e-16
5.4530305e-15
5.5282834e-14
3.3434513e-13
1.4814135e-12
5.3497501e-12
1.6741939e-11
4.7170274e-11
1.2270751e-10
2.9991072e-10
6.9738284e-10
1.5571449e-09
3.3620445e-09
7.0571431e-09
1.4461657e-08
2.9025775e-08
5.7203527e-08
1.1091065e-07
2.1186397e-07
3.9912861e-07
7.4203854e-07
1.3619789e-06
2.4685988e-06
4.4195227e-06
7.8186469e-06
1.367721e-05
2.368014e-05
4.0624672e-05
6.9128284e-05
0.0001167033
0.0001951527
0.00032166582
0.00051759416
0.00080143029
0.0011755181
0.0016145239
0.0020748266
0.0025188125
0.0029209497
0.0032912266
0.0036462614
0.0040007867
0.0043578737
0.0047131392
0.005065472
0.0052995652
0.0053482295
0.0054770821
0.0057174503
0.0055218803
0.005020562
0.0041285068
0.0026845638
0.0011204676
0.00045226
0.00018736053
0.00011994079
0.00015411148
0.00023809494
0.00033844501
0.00042320717
0.00049909541
0.00057892594
0.00068569412
6.7977875e-19
1.3220757e-16
3.5213809e-15
3.5699677e-14
2.1590711e-13
9.5663291e-13
3.4546086e-12
1.0811023e-11
3.0459643e-11
7.9236132e-11
1.9366061e-10
4.5031961e-10
1.0055057e-09
2.1710708e-09
4.5575163e-09
9.3404078e-09
1.8750239e-08
3.6961983e-08
7.1689639e-08
1.3700498e-07
2.5824538e-07
4.8041889e-07
8.823489e-07
1.6000584e-06
2.8647591e-06
5.063732e-06
8.8383082e-06
1.5243272e-05
2.6010604e-05
4.3969264e-05
7.3716899e-05
0.00012260989
0.0002019891
0.00032801169
0.00052027442
0.00079545629
0.0011550142
0.0015762155
0.0020186342
0.0024448078
0.0028290729
0.0031762657
0.0034916365
0.0037912661
0.0040706936
0.0043251511
0.0045188684
0.0046360275
0.0045908725
0.0043950144
0.0039225599
0.003158942
0.0019607347
0.0007961454
0.00033679388
0.00014899079
9.3713119e-05
0.00012692851
0.00020174453
0.00030008444
0.00037663024
0.00044184723
0.00051964783
0.0006046346
0.00071379895
4.2438445e-19
8.2536882e-17
2.1983876e-15
2.2287149e-14
1.3478924e-13
5.9721518e-13
2.1566563e-12
6.7490859e-12
1.9015114e-11
4.9464545e-11
1.2089563e-10
2.8112054e-10
6.2771937e-10
1.3554246e-09
2.8455548e-09
5.8326602e-09
1.1711283e-08
2.309385e-08
4.4812633e-08
8.5694969e-08
1.6166146e-07
3.0104259e-07
5.535335e-07
1.0049799e-06
1.8013169e-06
3.1866597e-06
5.5631254e-06
9.5833241e-06
1.629293e-05
2.7363537e-05
4.5492003e-05
7.4975577e-05
0.00012254174
0.00019832263
0.0003164239
0.00049369206
0.00074446279
0.0010709998
0.0014546245
0.0018626833
0.0022546498
0.0026032407
0.0029061351
0.0031567845
0.0033594062
0.0035078533
0.0035821708
0.0035355265
0.0033572221
0.0029428591
0.002294446
0.001329648
0.00052675734
0.00023460287
0.00011077911
7.3129742e-05
0.00010357284
0.00017004841
0.00026538556
0.00029534617
0.00032294452
0.00037755504
0.00045676837
0.00064268456
0.00075817958
2.5706714e-19
4.9995997e-17
1.3316533e-15
1.3500212e-14
8.1646883e-14
3.6175355e-13
1.3063511e-12
4.0880909e-12
1.1517844e-11
2.9961513e-11
7.3228458e-11
1.7028077e-10
3.8023284e-10
8.2107416e-10
1.7239128e-09
3.5341395e-09
7.0978932e-09
1.4001802e-08
2.7184652e-08
5.2024535e-08
9.8243338e-08
1.8318815e-07
3.3737813e-07
6.13681e-07
1.1021479e-06
1.9534587e-06
3.415275e-06
5.8878875e-06
1.0009049e-05
1.6782608e-05
2.7756993e-05
4.532254e-05
7.3198066e-05
0.00011711197
0.0001853758
0.00028915537
0.00044135628
0.00065280475
0.00092512479
0.0012452235
0.0015865793
0.001915509
0.0021949615
0.002410184
0.0025502957
0.0025892848
0.0025426435
0.0023924884
0.002053321
0.0015326873
0.00080117311
0.00032390271
0.00015445697
7.8703924e-05
5.6422717e-05
8.4950253e-05
0.00014501241
0.00023435421
0.00021502573
0.00022928462
0.00026545726
0.00033062907
0.00041689322
0.0005748169
0.00074158134
1.5200103e-19
2.9562088e-17
7.8739142e-16
7.9825074e-15
4.8276624e-14
2.1389867e-13
7.7241859e-13
2.4171889e-12
6.8101796e-12
1.7715329e-11
4.3297766e-11
1.006828e-10
2.2482792e-10
4.8551802e-10
1.0194794e-09
2.0903267e-09
4.199205e-09
8.2867756e-09
1.6097872e-08
3.0832025e-08
5.8288541e-08
1.088509e-07
2.0086245e-07
3.6624327e-07
6.5959673e-07
1.1725488e-06
2.0556238e-06
3.5506756e-06
6.0409679e-06
1.0125805e-05
1.6731485e-05
2.7265503e-05
4.3782647e-05
6.9261934e-05
0.00010799949
0.00016623697
0.00025168498
0.00037251663
0.00053445672
0.00073644345
0.00096687766
0.0012021675
0.0014152391
0.0015735934
0.0016456894
0.0016272076
0.0015249953
0.0012901356
0.00090036951
0.00043923631
0.00019023501
9.6274695e-05
5.4214853e-05
4.3989467e-05
7.0640326e-05
0.00012541669
0.00020806706
0.00015636315
0.0001657507
0.00019069236
0.00022606646
0.00027620651
0.00035060263
0.00050274648
0.00069020549
8.8828794e-20
1.7275959e-17
4.6014778e-16
4.6649346e-15
2.8212553e-14
1.2500076e-13
4.5139461e-13
1.4125815e-12
3.9798007e-12
1.0352686e-11
2.5303035e-11
5.8839584e-11
1.3139484e-10
2.8376442e-10
5.9589864e-10
1.2220105e-09
2.4554576e-09
4.847417e-09
9.421729e-09
1.8059663e-08
3.4180792e-08
6.3931112e-08
1.1822147e-07
2.1615201e-07
3.9061548e-07
6.9716945e-07
1.2275224e-06
2.1296337e-06
3.6357196e-06
6.1022073e-06
1.0067812e-05
1.634367e-05
2.6147567e-05
4.1240717e-05
6.4008643e-05
9.7363333e-05
0.00014499249
0.00021123575
0.00029974265
0.00041102539
0.00054003322
0.00067354166
0.00079430255
0.00087520281
0.00090038531
0.00085396086
0.00071386444
0.00045983604
0.00022051744
0.00010797806
5.8708043e-05
3.7075873e-05
3.5094503e-05
6.0194101e-05
0.00011075647
0.0001503766
0.00011705953
0.00012531229
0.00014144716
0.00016109831
0.00019253167
0.00024520222
0.00031858307
0.00045450008
0.00062492879
5.2655175e-20
1.0240696e-17
2.7276256e-16
2.765244e-15
1.6723648e-14
7.4097344e-14
2.6757696e-13
8.3735482e-13
2.3591902e-12
6.1371011e-12
1.5000166e-11
3.4882962e-11
7.7902739e-11
1.6825865e-10
3.5339237e-10
7.2485779e-10
1.4569424e-09
2.8774441e-09
5.5961474e-09
1.0735775e-08
2.0342938e-08
3.8110615e-08
7.0629817e-08
1.2951918e-07
2.3496426e-07
4.2142515e-07
7.4650301e-07
1.3040475e-06
2.2424724e-06
3.7879291e-06
6.2729441e-06
1.0172928e-05
1.6158693e-05
2.5177488e-05
3.8628085e-05
5.832164e-05
8.6410286e-05
0.00012448022
0.0001736345
0.00023333285
0.0003008622
0.00036829279
0.0004268699
0.00044825264
0.00043383897
0.00034976574
0.00021156764
0.00010586405
5.8765995e-05
3.5436633e-05
2.5850838e-05
2.9311463e-05
5.3173309e-05
9.9712538e-05
0.00011015959
9.4135013e-05
0.0001026808
0.00011248534
0.00012469192
0.00014455024
0.00017451551
0.00022236436
0.00029411218
0.00042592605
0.00060423785
3.3213427e-20
6.4595526e-18
1.7205161e-16
1.7442543e-15
1.0549007e-14
4.6740122e-14
1.6878962e-13
5.2822656e-13
1.4883057e-12
3.8718358e-12
9.4641507e-12
2.2011025e-11
4.9162413e-11
1.0620083e-10
2.2310056e-10
4.5774457e-10
9.2042234e-10
1.8188213e-09
3.539943e-09
6.7979893e-09
1.2898799e-08
2.4207917e-08
4.4969366e-08
8.271659e-08
1.5065706e-07
2.7159123e-07
4.8413214e-07
8.5201913e-07
1.4770398e-06
2.5154509e-06
4.1962861e-06
6.8393329e-06
1.0872036e-05
1.6845762e-05
2.5439339e-05
3.7543625e-05
5.4219437e-05
7.676913e-05
0.00010560751
0.00013969098
0.00017493695
0.00020584099
0.00021638519
0.00020425675
0.00015165945
9.0173852e-05
4.9925316e-05
3.1392193e-05
2.1628347e-05
1.8541448e-05
2.5559841e-05
4.832974e-05
9.1550339e-05
8.8395749e-05
8.2954685e-05
9.0347926e-05
9.5882879e-05
0.0001028381
0.00011496111
0.00013309892
0.00016148728
0.00020569333
0.0002695025
0.0003921772
0.0005676149
2.3421932e-20
4.5552466e-18
1.2133051e-16
1.2300576e-15
7.4393519e-15
3.2962936e-14
1.1904202e-13
3.7256405e-13
1.0498052e-12
2.7313777e-12
6.6774438e-12
1.5532887e-11
3.4701875e-11
7.4987014e-11
1.5759223e-10
3.2350293e-10
6.5090549e-10
1.287264e-09
2.5079235e-09
4.8223469e-09
9.1652704e-09
1.7237759e-08
3.2109732e-08
5.927046e-08
1.0842674e-07
1.9651042e-07
3.5253647e-07
6.2502942e-07
1.0924733e-06
1.8762842e-06
3.1537239e-06
5.1662072e-06
8.2189308e-06
1.2672372e-05
1.8929124e-05
2.7420396e-05
3.8537887e-05
5.2509688e-05
6.8866236e-05
8.5436772e-05
9.8602404e-05
9.8854738e-05
8.6491874e-05
5.9499403e-05
3.6373526e-05
2.3328921e-05
1.6562651e-05
1.3674874e-05
1.4131051e-05
2.2772968e-05
4.4936174e-05
8.5662327e-05
7.7602843e-05
7.790461e-05
8.3994831e-05
8.7209414e-05
9.2046375e-05
9.9914023e-05
0.00011122236
0.00012882086
0.00015530044
0.00019896458
0.00026562927
0.00038647035
0.0005652291
1.8468412e-20
3.5918581e-18
9.5670828e-17
9.6992928e-16
5.8662218e-15
2.5993398e-14
9.3876737e-14
2.938246e-13
8.2801308e-13
2.1545995e-12
5.2683016e-12
1.2257796e-11
2.7393227e-11
5.9216663e-11
1.2451072e-10
2.557535e-10
5.1499501e-10
1.0194806e-09
1.9886284e-09
3.8295916e-09
7.2920334e-09
1.3746125e-08
2.567765e-08
4.7559878e-08
8.7365755e-08
1.5913345e-07
2.8717091e-07
5.1255362e-07
9.0234547e-07
1.5604748e-06
2.6365585e-06
4.3250505e-06
6.8459858e-06
1.040536e-05
1.5143744e-05
2.1077196e-05
2.8000464e-05
3.5251923e-05
4.1353582e-05
4.4005138e-05
4.0361633e-05
3.1785512e-05
2.2038565e-05
1.4498494e-05
1.1032141e-05
9.4631551e-06
8.9753559e-06
1.1424631e-05
2.1050837e-05
4.2486605e-05
8.1247206e-05
7.602391e-05
7.6602397e-05
8.2148782e-05
8.4118145e-05
8.8240686e-05
9.3612701e-05
0.00010061082
0.00011141102
0.00012803025
0.00015316392
0.0001926242
0.00025220971
0.0003685129
0.00055039083
1.5046488e-20
2.9263422e-18
7.7944771e-17
7.9022492e-16
4.7794061e-15
2.1178035e-14
7.6487686e-14
2.3940765e-13
6.7470022e-13
1.7557955e-12
4.2936297e-12
9.9914657e-12
2.2332798e-11
4.8289396e-11
1.0156686e-10
2.087079e-10
4.2046733e-10
8.3284638e-10
1.6257149e-09
3.1332598e-09
5.9716447e-09
1.1268727e-08
2.1074007e-08
3.9082336e-08
7.1891718e-08
1.3113746e-07
2.3697736e-07
4.2342175e-07
7.4543364e-07
1.2864437e-06
2.1605783e-06
3.4995546e-06
5.4122692e-06
7.9155919e-06
1.0850396e-05
1.3838513e-05
1.6396822e-05
1.7757368e-05
1.7099519e-05
1.4380275e-05
1.0813145e-05
7.9996233e-06
6.3290651e-06
5.5734773e-06
5.603005e-06
6.706627e-06
9.7513109e-06
1.9802041e-05
4.1713033e-05
7.8636711e-05
7.9927647e-05
7.9226933e-05
8.2924881e-05
8.5086901e-05
8.8250421e-05
9.1834503e-05
9.6320254e-05
0.00010384325
0.00011447479
0.00013041492
0.00015334996
0.00019327201
0.00025525314
0.0003724787
0.0005563995
1.1320826e-20
2.2017499e-18
5.8644783e-17
5.9455385e-16
3.5959182e-15
1.5933587e-14
5.7545032e-14
1.8011036e-13
5.0756451e-13
1.3207739e-12
3.2295817e-12
7.5146529e-12
1.6794566e-11
3.630839e-11
7.6351003e-11
1.5684809e-10
3.1587089e-10
6.2535164e-10
1.2198646e-09
2.3489385e-09
4.4713943e-09
8.423975e-09
1.5719525e-08
2.9066698e-08
5.3257274e-08
9.6634495e-08
1.7340237e-07
3.0694378e-07
5.3369713e-07
9.0546371e-07
1.4850905e-06
2.3262423e-06
3.4292418e-06
4.6823694e-06
5.8385705e-06
6.6225761e-06
6.70076e-06
5.9981886e-06
4.9008243e-06
3.9561822e-06
3.2762664e-06
2.9890002e-06
3.2552812e-06
3.7691949e-06
5.2241925e-06
9.02831e-06
2.0045377e-05
4.1236899e-05
7.5326979e-05
8.8525507e-05
8.58249e-05
8.7207165e-05
8.8178623e-05
9.0195916e-05
9.1888487e-05
9.49687e-05
0.00010045414
0.00010812216
0.00011843311
0.00013409811
0.00015700464
0.00019547706
0.00025186928
0.00036563575
0.00055522297
7.375011e-21
1.4343399e-18
3.820421e-17
3.8731706e-16
2.3424611e-15
1.037899e-14
3.7481599e-14
1.1730194e-13
3.3052039e-13
8.5991611e-13
2.1021756e-12
4.8898322e-12
1.0923801e-11
2.3603534e-11
4.959967e-11
1.0179939e-10
2.0476618e-10
4.0476366e-10
7.879864e-10
1.5133972e-09
2.871247e-09
5.3860682e-09
9.9951176e-09
1.8351087e-08
3.3320299e-08
5.9765114e-08
1.0567892e-07
1.8359521e-07
3.1170334e-07
5.1303607e-07
8.0911435e-07
1.2035247e-06
1.6572969e-06
2.0708767e-06
2.3158302e-06
2.3055253e-06
2.102302e-06
1.8526988e-06
1.6539684e-06
1.6037738e-06
1.7387673e-06
2.1087784e-06
2.9127497e-06
4.6499281e-06
9.2962887e-06
1.9771937e-05
3.9609463e-05
7.1811887e-05
0.00010495388
9.6967568e-05
9.5468752e-05
9.3722907e-05
9.3483247e-05
9.3723851e-05
9.5395233e-05
9.952899e-05
0.00010507748
0.000113036
0.00012381039
0.00013981053
0.00016146364
0.00019881489
0.00025783514
0.00037655003
0.00056553542
4.0983722e-21
7.9707683e-19
2.123029e-17
2.1522954e-16
1.3016356e-15
5.7669002e-15
2.082386e-14
6.5160721e-14
1.8356647e-13
4.7745883e-13
1.1667976e-12
2.7128026e-12
6.0566508e-12
1.3076421e-11
2.7449773e-11
5.6262374e-11
1.1297183e-10
2.2280724e-10
4.3249018e-10
8.2751207e-10
1.5623883e-09
2.9126821e-09
5.3623787e-09
9.7459526e-09
1.7468557e-08
3.0821533e-08
5.3372336e-08
9.0294174e-08
1.4823182e-07
2.3386399e-07
3.4995507e-07
4.8859109e-07
6.2533856e-07
7.242323e-07
7.7025049e-07
7.9302461e-07
8.0909535e-07
8.3975838e-07
9.0920089e-07
1.1767987e-06
1.6564747e-06
2.614233e-06
4.6105908e-06
9.2817888e-06
1.9032019e-05
3.801332e-05
6.8211574e-05
0.00010704122
0.00011536302
0.00010831992
0.00010254165
9.9253795e-05
9.7335627e-05
9.7552382e-05
9.9832974e-05
0.00010365952
0.00010945913
0.00011818919
0.00012931091
0.00014546512
0.00016755293
0.00020606247
0.00026125097
0.00038059806
0.00057230534
2.0000471e-21
3.8898087e-19
1.0360479e-17
1.0503039e-16
6.3515826e-16
2.8138537e-15
1.0159462e-14
3.1785242e-14
8.9523598e-14
2.3278341e-13
5.6864587e-13
1.3214219e-12
2.9482511e-12
6.3597768e-12
1.3335232e-11
2.7292616e-11
5.4698953e-11
1.0761817e-10
2.082484e-10
3.968713e-10
7.4551042e-10
1.3808298e-09
2.5212901e-09
4.5347231e-09
8.0214774e-09
1.3920556e-08
2.3613064e-08
3.8946978e-08
6.2020413e-08
9.4489992e-08
1.3632018e-07
1.8458335e-07
2.3571444e-07
2.8920484e-07
3.4087985e-07
4.0963272e-07
5.0969306e-07
6.5801826e-07
9.7051803e-07
1.5279647e-06
2.5217247e-06
4.480354e-06
8.7801874e-06
1.7859975e-05
3.6111602e-05
6.4373475e-05
9.9870561e-05
0.00013722452
0.00012811807
0.00011573795
0.00010832374
0.00010334481
0.00010127785
0.00010160908
0.00010353322
0.00010794113
0.00011451201
0.00012355149
0.00013518245
0.00015257239
0.00017436239
0.0002118912
0.00026794615
0.00038854664
0.00057892348
9.6402591e-22
1.8748911e-19
4.9937224e-18
5.062333e-17
3.061261e-16
1.3561013e-15
4.8957707e-15
1.5315133e-14
4.3128059e-14
1.1211919e-13
2.7380978e-13
6.3605601e-13
1.4184867e-12
3.0581633e-12
6.407922e-12
1.3103457e-11
2.6233361e-11
5.1544913e-11
9.9581013e-11
1.8940211e-10
3.5493634e-10
6.5553915e-10
1.1929766e-09
2.1375242e-09
3.7655444e-09
6.5082862e-09
1.1004218e-08
1.8137981e-08
2.9031218e-08
4.4966444e-08
6.7361387e-08
9.7979465e-08
1.3885054e-07
1.935183e-07
2.7188181e-07
3.9000933e-07
5.6755457e-07
8.9663515e-07
1.4322102e-06
2.3717367e-06
4.2110155e-06
8.1679811e-06
1.6799855e-05
3.418337e-05
6.0439296e-05
9.2483173e-05
0.00012636863
0.00015621012
0.00013449431
0.00012113171
0.00011194565
0.00010701192
0.00010489814
0.00010503941
0.00010758963
0.00011227305
0.00011873254
0.00012866078
0.00014121312
0.00015896055
0.00018125724
0.00022079439
0.00027698684
0.00040234978
0.00059177369
6.2922827e-22
1.223759e-19
3.259458e-18
3.3042534e-17
1.9981359e-16
8.8515741e-16
3.1956362e-15
9.9970695e-15
2.8153993e-14
7.3199296e-14