/*--------------------------------*- C++ -*----------------------------------*\
  =========                 |
  \\      /  F ield         | OpenFOAM: The Open Source CFD Toolbox
   \\    /   O peration     | Website:  https://openfoam.org
    \\  /    A nd           | Version:  13
     \\/     M anipulation  |
\*---------------------------------------------------------------------------*/
FoamFile
{
    format      ascii;
    class       volScalarField;
    location    "5.097613";
    object      k;
}
// * * * * * * * * * * * * * * * * * * * * * * * * * * * * * * * * * * * * * //

dimensions      [0 2 -2 0 0 0 0];

internalField   nonuniform List<scalar> 
17140
(
3.7658552e-11
1.1833595e-09
9.6765733e-09
4.1613471e-08
1.2804454e-07
3.2305838e-07
7.1617611e-07
1.4507779e-06
2.7510758e-06
4.9610926e-06
8.6002303e-06
1.4441187e-05
2.361688e-05
3.7762839e-05
5.9198646e-05
9.114341e-05
0.00013794102
0.00020523375
0.00029995964
0.00042995747
0.0006028603
0.00082391239
0.001092498
0.0013977345
0.0017145598
0.0020030319
0.0022040652
0.0022902746
0.0023074654
0.0022577294
0.0021694729
0.0020730286
0.0019815648
0.0018974787
0.0018201799
0.0017491718
0.0016842324
0.0016252821
0.0015723517
0.0015255762
0.0014852102
0.0014516135
0.0014248464
0.0014044727
0.0013912676
0.0013848093
0.0014071445
0.0014509097
0.0015154092
0.0015945249
0.0016869002
0.0017828873
0.001884051
0.0019839579
0.0020542809
0.0021112676
0.0021086841
0.0019555074
0.0017167208
0.0014458824
0.0011749956
0.0009152394
0.00067206104
0.00047028735
0.00033066996
3.720282e-11
1.1690389e-09
9.5594964e-09
4.1110194e-08
1.2649683e-07
3.191561e-07
7.0753252e-07
1.4332868e-06
2.7179527e-06
4.901466e-06
8.4971065e-06
1.4268566e-05
2.3335763e-05
3.7315887e-05
5.8503351e-05
9.0083983e-05
0.00013635994
0.00020292529
0.00029666995
0.00042539882
0.00059675017
0.00081604808
0.0010828705
0.0013866657
0.0017028194
0.0019918626
0.0021952776
0.0022832252
0.0023017919
0.0022530425
0.0021647238
0.0020676568
0.0019752073
0.0018898339
0.0018109042
0.0017378453
0.0016703489
0.0016082532
0.0015514964
0.0015000431
0.0014539676
0.0014133606
0.0013778779
0.0013454393
0.0013145523
0.0012965596
0.0012894277
0.0012900213
0.0013022359
0.0013089029
0.0013116262
0.0013041693
0.0012850212
0.00125388
0.0012319826
0.001203156
0.0011496683
0.0010743433
0.00099094873
0.00088384081
0.00076033146
0.00064451634
0.00052617677
0.00040825243
0.0003094223
3.6115804e-11
1.1348812e-09
9.280184e-09
3.990907e-08
1.2280126e-07
3.0983353e-07
6.8687119e-07
1.391451e-06
2.6386758e-06
4.7586561e-06
8.2499344e-06
1.385449e-05
2.266086e-05
3.6241869e-05
5.6830914e-05
8.7532924e-05
0.00013254824
0.00019735267
0.00028871699
0.00041436019
0.0005819283
0.00079693474
0.0010594277
0.0013596713
0.0016741725
0.0019646793
0.0021743357
0.0022671947
0.0022893515
0.0022428222
0.0021543429
0.0020553672
0.0019599699
0.0018709282
0.0017875315
0.001708979
0.0016346216
0.0015639819
0.0014969528
0.001433075
0.0013720793
0.0013136572
0.0012570405
0.0011995377
0.0011359677
0.001082184
0.0010339202
0.00099470799
0.00095484658
0.00091380277
0.00086624803
0.00081274689
0.0007578176
0.00069898478
0.00065393287
0.00062559665
0.00060184849
0.00057330587
0.00055211213
0.0005205655
0.00047001041
0.00042027246
0.00038055779
0.00032996357
0.00026812056
3.4408013e-11
1.0812167e-09
8.841363e-09
3.8022007e-08
1.1699521e-07
2.9518692e-07
6.544099e-07
1.3257209e-06
2.5141158e-06
4.5342611e-06
7.8615248e-06
1.3203726e-05
2.1599992e-05
3.4553211e-05
5.420043e-05
8.3518496e-05
0.00012654587
0.00018856906
0.00027616545
0.00039690898
0.00055844292
0.00076655896
0.0010220242
0.0013163711
0.0016278674
0.0019201823
0.0021392601
0.0022402614
0.0022670127
0.0022247243
0.0021358377
0.0020330585
0.0019314692
0.0018348703
0.001742587
0.001653692
0.0015676417
0.0014840307
0.001402223
0.0013220882
0.0012436428
0.0011671237
0.0010924361
0.0010171394
0.00093635607
0.00087299169
0.00081646568
0.00077431194
0.00073597342
0.00070910998
0.00067345269
0.00063735131
0.00058768906
0.00052483571
0.00047438321
0.00043438484
0.00041853371
0.00040614001
0.00040054115
0.00038936848
0.00036723079
0.00033870397
0.000322462
0.0002997123
0.0002521243
3.2103634e-11
1.0088055e-09
8.2492467e-09
3.5475711e-08
1.0916072e-07
2.7542264e-07
6.1060412e-07
1.2370126e-06
2.3459921e-06
4.2313338e-06
7.3370533e-06
1.2324691e-05
2.0166298e-05
3.2269551e-05
5.0639761e-05
7.8077521e-05
0.00011839628
0.00017661481
0.00025902762
0.00037297564
0.00052603883
0.00072429654
0.00096936853
0.001254359
0.0015597599
0.0018516766
0.0020824023
0.0022019993
0.0022338743
0.0021955768
0.0021062158
0.0019981633
0.0018892887
0.0017839563
0.0016817081
0.0015816307
0.0014831928
0.0013861215
0.0012904211
0.0011965808
0.001105466
0.0010184032
0.00093615362
0.00085721487
0.00077794719
0.00072998325
0.00070132631
0.00068662624
0.00067770915
0.00067342369
0.00066693501
0.00063872032
0.00058150464
0.00050085196
0.00042552773
0.00036686082
0.00034382104
0.00033639123
0.00033435465
0.00033246281
0.00032345682
0.0003067352
0.00029785208
0.00028606766
0.00024894745
2.9289338e-11
9.2037097e-10
7.5261041e-09
3.2365937e-08
9.9592373e-08
2.5128373e-07
5.5710028e-07
1.1286585e-06
2.1406148e-06
3.8612287e-06
6.6961373e-06
1.1250162e-05
1.8413001e-05
2.9475136e-05
4.6279127e-05
7.1406641e-05
0.00010838933
0.00016190631
0.00023788465
0.00034334546
0.00048574029
0.00067143748
0.00090304521
0.0011755894
0.001472405
0.0017628934
0.002005309
0.0021446946
0.0021873651
0.0021571691
0.0020689135
0.0019565283
0.0018398745
0.0017251755
0.0016125962
0.0015014459
0.0013915024
0.0012830378
0.0011769314
0.0010745545
0.00097792633
0.00088951269
0.00081108904
0.00074234396
0.00069594825
0.00067583062
0.00066975164
0.00068044784
0.00070375171
0.00073854716
0.00075554636
0.0007410722
0.00065450644
0.00053816497
0.0004191868
0.00033394563
0.0003008229
0.00029413299
0.00029514623
0.00030387638
0.00030053372
0.00029220683
0.00028682185
0.00027615711
0.00024314176
2.6103103e-11
8.2024886e-10
6.7073897e-09
2.8845154e-08
8.8759308e-08
2.2395374e-07
4.9652152e-07
1.0059703e-06
1.9080489e-06
3.442074e-06
5.9701424e-06
1.0032653e-05
1.6425607e-05
2.630582e-05
4.1329573e-05
6.3826652e-05
9.7001993e-05
0.00014513608
0.00021371565
0.00030936044
0.00043932
0.0006102209
0.0008257326
0.0010830587
0.0013688746
0.0016565696
0.0019078117
0.0020701592
0.0021283171
0.0021107936
0.0020269462
0.0019116442
0.0017877222
0.0016639742
0.0015417066
0.0014207196
0.0013013482
0.0011846496
0.0010724359
0.00096721436
0.00087201492
0.00079023378
0.00072430679
0.00068281659
0.00066314737
0.00065844212
0.00067202311
0.00070588812
0.00076806072
0.00080638504
0.00082612078
0.00079838836
0.00069498267
0.00056567224
0.00041739403
0.00030658109
0.00026702849
0.00026273192
0.0002725061
0.00028905172
0.00028786423
0.00028455561
0.00027913044
0.00026546476
0.00022891706
2.2686194e-11
7.1287814e-10
5.8293997e-09
2.5069442e-08
7.7141699e-08
1.9464374e-07
4.3155115e-07
8.7437834e-07
1.658577e-06
2.992372e-06
5.1910379e-06
8.7255878e-06
1.4290882e-05
2.2898977e-05
3.6003459e-05
5.5658136e-05
8.4706216e-05
0.00012697954
0.0001874549
0.00027225822
0.00038832339
0.00054241524
0.00073917605
0.00097799583
0.0012490644
0.0015300829
0.0017864177
0.0019716883
0.0020541459
0.0020559566
0.0019817246
0.0018663789
0.0017365467
0.0016046757
0.0014739862
0.0013450525
0.0012188391
0.0010972105
0.0009828121
0.00087900072
0.00078952637
0.00071798721
0.00067492145
0.00065422841
0.00064758827
0.00065320374
0.00068466325
0.00073457434
0.00078868259
0.00082590968
0.0008394403
0.00080083531
0.00069621337
0.00056806778
0.00039387587
0.00027994195
0.00024411869
0.00024222289
0.00026219007
0.00028058757
0.00028075398
0.00027810977
0.00026953565
0.00024740473
0.00021083511
1.9183898e-11
6.0282408e-10
4.9294631e-09
2.1199321e-08
6.5233414e-08
1.6459947e-07
3.6494954e-07
7.3947067e-07
1.4027842e-06
2.5311798e-06
4.3917807e-06
7.3841133e-06
1.2098556e-05
1.9397051e-05
3.0521825e-05
4.7236588e-05
7.1999764e-05
0.00010815709
0.00016011563
0.00023341521
0.0003345401
0.00047021796
0.00064587457
0.00086296292
0.0011152727
0.0013852721
0.0016429103
0.001849726
0.0019638328
0.0019896634
0.0019330096
0.0018230289
0.001690544
0.0015525451
0.0014150137
0.001279773
0.0011485574
0.0010239843
0.00090948917
0.0008090273
0.00072649118
0.00067174454
0.00064535997
0.00063567106
0.00063452033
0.00065050722
0.0006854836
0.00072763558
0.00075198589
0.00075803817
0.00075729141
0.00070960625
0.00062522062
0.00052212244
0.00035212027
0.00025180657
0.00022447485
0.00023163642
0.0002591682
0.00027518632
0.00027504161
0.0002696927
0.00025167729
0.00022516968
0.0001929954
1.574937e-11
4.9489935e-10
4.0469326e-09
1.7404001e-08
5.35551e-08
1.3513458e-07
2.9962888e-07
6.0714608e-07
1.151854e-06
2.0786581e-06
3.6072987e-06
6.0668217e-06
9.9443047e-06
1.5952674e-05
2.5123124e-05
3.8927298e-05
5.9431481e-05
8.9476853e-05
0.00013286146
0.00019446425
0.00028019104
0.00039653506
0.00054945043
0.00074221244
0.00097215782
0.0012269109
0.001482
0.0017029852
0.0018499322
0.0019062809
0.0018801252
0.0017831976
0.0016512241
0.0015082771
0.0013649928
0.0012249766
0.0010905637
0.00096488589
0.0008517885
0.00075527522
0.00068043255
0.00063999177
0.00062320995
0.0006185891
0.00062299249
0.0006460368
0.0006741973
0.00068484735
0.00065402361
0.00062586609
0.00061635229
0.00058927917
0.00053941641
0.00046134274
0.00030790316
0.00022977654
0.00021417896
0.00022626352
0.00025964785
0.00027015956
0.00026789421
0.00025595109
0.00022843647
0.00020430083
0.00017688524
1.2524326e-11
3.9355732e-10
3.2182289e-09
1.3840138e-08
4.25888e-08
1.0746526e-07
2.3828548e-07
4.828672e-07
9.1614714e-07
1.6534958e-06
2.8700022e-06
4.8281609e-06
7.9172202e-06
1.2708383e-05
2.0030918e-05
3.1074554e-05
4.7522268e-05
7.1712711e-05
0.00010681939
0.00015700852
0.00022749109
0.00032431099
0.00045361479
0.00062007344
0.00082419593
0.0010587209
0.0013053253
0.001534316
0.0017098532
0.0018013021
0.0018089339
0.0017391676
0.0016198407
0.0014785565
0.0013321364
0.0011880951
0.0010504559
0.00092290028
0.00080966351
0.00071504733
0.00064803558
0.00061472901
0.00060239996
0.00060058401
0.00060971363
0.00063210761
0.0006421626
0.00062068955
0.00056004919
0.00051572611
0.00051588698
0.00051066765
0.00048699235
0.00041725791
0.00026963535
0.000211715
0.00020924093
0.00022864519
0.00025950696
0.00026292838
0.00025601108
0.00023344203
0.00020758229
0.00018628311
0.00016320613
9.6242123e-12
3.0242573e-10
2.4730187e-09
1.0635333e-08
3.2727194e-08
8.2582391e-08
1.8311663e-07
3.7108746e-07
7.0411543e-07
1.2709529e-06
2.2063916e-06
3.71274e-06
6.0905057e-06
9.7817705e-06
1.5430674e-05
2.3966149e-05
3.6711972e-05
5.5526896e-05
8.2970663e-05
0.00012247539
0.00017846938
0.0002563435
0.00036206444
0.00050114146
0.00067661471
0.00088593184
0.0011172885
0.0013473544
0.0015435731
0.0016736226
0.0017204298
0.0016845239
0.0015853522
0.0014522082
0.0013062065
0.0011597445
0.0010200977
0.00089185253
0.00077922103
0.0006863365
0.00062204903
0.00059038505
0.00057966486
0.00057919262
0.00058971734
0.00060500722
0.00060556799
0.00057103197
0.00049439828
0.00046070261
0.00046771049
0.0004710565
0.00044959147
0.00036354405
0.00023465941
0.0001993136
0.00020588411
0.00023516386
0.00025437
0.00025263481
0.00023654836
0.00021161412
0.00018927965
0.00017121161
0.00015201516
7.1299532e-12
2.2404751e-10
1.8320971e-09
7.879019e-09
2.4245531e-08
6.1180765e-08
1.356637e-07
2.7493301e-07
5.2169791e-07
9.4176941e-07
1.6351613e-06
2.7521348e-06
4.5162273e-06
7.2570389e-06
1.1456427e-05
1.7812671e-05
2.7327773e-05
4.1422601e-05
6.2081329e-05
9.2017598e-05
0.00013483454
0.00019511152
0.00027828363
0.00039008518
0.00053523471
0.00071505307
0.00092405605
0.001146545
0.0013557664
0.0015190131
0.0016091691
0.0016148226
0.0015508205
0.0014328799
0.0012927297
0.0011477792
0.001006313
0.00087478426
0.00075884712
0.00066471268
0.0006002628
0.00056787924
0.00055543665
0.00055441547
0.00056185658
0.00057225012
0.00056657005
0.00053358065
0.00045550953
0.00043834845
0.00045070796
0.00045503314
0.00042426722
0.00031545599
0.00021184604
0.00019272641
0.00020478734
0.00023831434
0.00024580059
0.00023728016
0.00021287266
0.00019300096
0.0001738128
0.00015885607
0.00014306257
5.0823802e-12
1.5970571e-10
1.3059554e-09
5.6163174e-09
1.7282716e-08
4.3611171e-08
9.6705644e-08
1.9598593e-07
3.7190699e-07
6.714115e-07
1.1658749e-06
1.9626186e-06
3.2215019e-06
5.1786866e-06
8.1804233e-06
1.2730607e-05
1.9556764e-05
2.9699681e-05
4.4631129e-05
6.6400199e-05
9.7798031e-05
0.00014250711
0.00020515624
0.00029112736
0.00040585855
0.00055330231
0.00073326709
0.0009378697
0.0011485377
0.0013365761
0.0014702064
0.0015263455
0.001505689
0.0014195503
0.001291545
0.0011498665
0.0010086692
0.00087614007
0.00075851251
0.00066141678
0.00058807686
0.00054565179
0.00052915521
0.00052638644
0.00052980715
0.00053230833
0.00052413516
0.00048820795
0.00043523635
0.00043144956
0.00045380825
0.00045200996
0.00040423984
0.00025104612
0.00019241369
0.00019052073
0.00021305517
0.00023503311
0.00023247284
0.0002131959
0.0001928948
0.0001772506
0.00016115604
0.00014896441
0.0001360558
3.4812407e-12
1.093924e-10
8.9452917e-10
3.8469545e-09
1.1837962e-08
2.9871912e-08
6.6239751e-08
1.3424429e-07
2.5474964e-07
4.5992142e-07
7.9868302e-07
1.3446377e-06
2.2075196e-06
3.5496737e-06
5.6096516e-06
8.7357837e-06
1.3433511e-05
2.0431222e-05
3.0769879e-05
4.5920933e-05
6.7932672e-05
9.9593465e-05
0.00014457454
0.00020746594
0.0002935385
0.00040795811
0.00055409973
0.00073072042
0.00092836047
0.0011266975
0.0012960309
0.0014045842
0.0014353585
0.001399261
0.0013027696
0.0011698798
0.0010289661
0.00089292314
0.00077060942
0.00066801558
0.0005900572
0.00053886015
0.0005078034
0.00049537281
0.00049227567
0.00048920171
0.00047845004
0.00044332722
0.00043263471
0.00045131453
0.0004872056
0.0004585198
0.00034702302
0.00021303612
0.00018236753
0.00018962461
0.00021605027
0.00022449547
0.00021401054
0.00019097326
0.00017648008
0.00016397414
0.0001507546
0.00014086391
0.00013040425
2.291148e-12
7.199563e-11
5.8872567e-10
2.53183e-09
7.7909944e-09
1.9659706e-08
4.359439e-08
8.8349854e-08
1.6765741e-07
3.0268753e-07
5.2564475e-07
8.8499301e-07
1.4530233e-06
2.3367788e-06
3.6937755e-06
5.7545425e-06
8.8547771e-06
1.3480868e-05
2.0333561e-05
3.04152e-05
4.5145329e-05
6.6505244e-05
9.7200164e-05
0.0001408011
0.00020177842
0.00028525538
0.00039620105
0.00053770413
0.00070809798
0.00089736038
0.0010846172
0.0012400309
0.0013344269
0.0013534245
0.001306713
0.001203436
0.0010705479
0.00093418257
0.00080650452
0.00069387442
0.00060563458
0.00054496173
0.00050730922
0.00048332229
0.00046936909
0.00046142803
0.00044416745
0.00044256548
0.00046454814
0.0005273528
0.00051966573
0.00045066093
0.00025368957
0.00018594707
0.00017812701
0.00019607723
0.00021640748
0.00021032599
0.00018806126
0.00017378545
0.00016318562
0.00015283497
0.00014210561
0.00013408564
0.00012566976
1.4509158e-12
4.5592681e-11
3.7282198e-10
1.6033259e-09
4.9337553e-09
1.2449672e-08
2.7606173e-08
5.5946686e-08
1.0616521e-07
1.9166513e-07
3.328349e-07
5.6035704e-07
9.2000416e-07
1.4795734e-06
2.3388927e-06
3.644235e-06
5.6090381e-06
8.5435931e-06
1.2897333e-05
1.9318432e-05
2.8736225e-05
4.2471543e-05
6.2376398e-05
9.0993707e-05
0.00013170278
0.00018876742
0.00026711683
0.00037158958
0.00050528404
0.00066677702
0.00084658995
0.0010246864
0.0011722107
0.0012612269
0.0012742821
0.0012317669
0.001134741
0.001004427
0.00087133042
0.00075074936
0.00064780095
0.00057246903
0.00052265958
0.00049109589
0.00047464994
0.00046298433
0.00046717301
0.00049321773
0.00057415567
0.00059772631
0.00053644975
0.0003352593
0.00020452511
0.00017266013
0.00017807247
0.00019947669
0.00020240898
0.00018846878
0.0001735072
0.00016200118
0.00015192899
0.00014344133
0.00013494999
0.00012845029
0.0001216663
8.8677671e-13
2.7865517e-11
2.2786251e-10
9.7992248e-10
3.015396e-09
7.6088585e-09
1.6871752e-08
3.4191442e-08
6.487988e-08
1.1712519e-07
2.0338037e-07
3.4238189e-07
5.6207467e-07
9.0384163e-07
1.4286108e-06
2.2256683e-06
3.4253719e-06
5.2174883e-06
7.8776053e-06
1.1805034e-05
1.7576737e-05
2.6022766e-05
3.8328607e-05
5.6166666e-05
8.1849168e-05
0.00011847255
0.0001699833
0.00024102057
0.00033627739
0.00045903954
0.00060865885
0.00077728172
0.00094732893
0.0010926783
0.0011890387
0.0012013459
0.0011693283
0.0010937723
0.00097859362
0.00085458378
0.00074139352
0.00064461212
0.00057954827
0.00053669224
0.0005187164
0.00052422565
0.00055502797
0.00065674202
0.00068355804
0.0006274574
0.00044010634
0.00023375839
0.0001746903
0.00016826311
0.00018434753
0.00019991806
0.00019114938
0.00017189798
0.0001596996
0.00015025381
0.00014242441
0.00013495599
0.00012878898
0.00012383629
0.00011839798
5.2568183e-13
1.6518689e-11
1.3507676e-10
5.8089566e-10
1.7875057e-09
4.5104194e-09
1.000113e-08
2.0267194e-08
3.8456339e-08
6.9419651e-08
1.2053293e-07
2.0288956e-07
3.3302733e-07
5.3542269e-07
8.4608851e-07
1.3177618e-06
2.0273882e-06
3.0869342e-06
4.6590296e-06
6.9796171e-06
1.0390699e-05
1.538739e-05
2.2684541e-05
3.3308454e-05
4.871678e-05
7.0941354e-05
0.0001027286
0.00014761219
0.00020979935
0.00029367625
0.00040266333
0.00053709978
0.00069143199
0.00085166119
0.001000216
0.0011070642
0.0011327018
0.001114182
0.0010687614
0.0009889716
0.00089466253
0.00080163666
0.00072853999
0.00067245118
0.00067230953
0.00070026274
0.00078408687
0.00077819642
0.00072092801
0.00053523779
0.00026462389
0.00017929533
0.00016243013
0.00016912836
0.00018748668
0.00018415601
0.00017002304
0.00015913492
0.00015068482
0.00014318329
0.00013638668
0.0001301493
0.00012475913
0.00012000615
0.00011566236
3.0415428e-13
9.5575464e-12
7.815396e-11
3.36099e-10
1.034221e-09
2.6096206e-09
5.7863014e-09
1.1725541e-08
2.2247875e-08
4.0158383e-08
6.9720699e-08
1.1734467e-07
1.9258045e-07
3.0955168e-07
4.890184e-07
7.6134395e-07
1.1707644e-06
1.7815416e-06
2.6868546e-06
4.0216879e-06
5.9815662e-06
8.8498069e-06
1.3037012e-05
1.9137612e-05
2.8008817e-05
4.0876057e-05
5.9462561e-05
8.6121792e-05
0.00012391774
0.00017653869
0.00024789648
0.00034122378
0.0004575946
0.00059357801
0.00074045594
0.00088680379
0.0010135843
0.0010614948
0.0010563328
0.0010425748
0.0010118611
0.00096365948
0.00092180185
0.00089711083
0.00090731188
0.00091152113
0.00088944711
0.00081166407
0.00058711625
0.00028367759
0.00018231207
0.00015809879
0.00016156969
0.00017608541
0.00017986497
0.00017105937
0.00015853929
0.00015060218
0.00014359567
0.00013707426
0.00013096942
0.00012563743
0.00012094566
0.00011678632
0.00011336665
1.7343649e-13
5.4499553e-12
4.456534e-11
1.9165156e-10
5.8973324e-10
1.48804e-09
3.299366e-09
6.6857562e-09
1.2684949e-08
2.2895547e-08
3.9746629e-08
6.6888449e-08
1.0975632e-07
1.7638192e-07
2.7855777e-07
4.3350639e-07
6.6627181e-07
1.0131495e-06
1.5266165e-06
2.2824436e-06
3.3899994e-06
5.0072471e-06
7.3626274e-06
1.0786941e-05
1.5759377e-05
2.2972615e-05
3.3420648e-05
4.8509063e-05
7.0174289e-05
0.0001009709
0.0001440272
0.00020273709
0.00027997167
0.00037692967
0.00049186493
0.00062021126
0.00075192924
0.00088909907
0.00097110939
0.00099778384
0.0010047611
0.0010064374
0.0010069946
0.0010052896
0.00099421469
0.00095566543
0.00084573898
0.00056093541
0.00028289918
0.00018043003
0.00015413264
0.00015511446
0.0001685319
0.00017863808
0.00017321385
0.00016017536
0.00015201877
0.00014456117
0.00013765993
0.00013203431
0.00012691574
0.00012240889
0.00011819925
0.00011446468
0.0001115422
9.9560031e-14
3.1285092e-12
2.5582404e-11
1.1001589e-10
3.38529e-10
8.5418144e-10
1.8939076e-09
3.837677e-09
7.2810178e-09
1.3141187e-08
2.2811652e-08
3.8385735e-08
6.2979e-08
1.0119221e-07
1.5977367e-07
2.4856502e-07
3.8184951e-07
5.8027191e-07
8.7357377e-07
1.3045226e-06
1.9345371e-06
2.8518011e-06
4.1830406e-06
6.1106758e-06
8.8977957e-06
1.2924151e-05
1.8736952e-05
2.7119551e-05
3.9178332e-05
5.6438427e-05
8.0918458e-05
0.0001151313
0.00016186742
0.00022363789
0.0003016681
0.00039537745
0.00050008631
0.0006139678
0.0007304408
0.0008353431
0.00090071755
0.00093676129
0.00094913119
0.00093275758
0.00088382801
0.00075613203
0.00044786634
0.00025448204
0.00017301118
0.00014931493
0.00014913175
0.00016021682
0.00017280892
0.00016976307
0.0001594963
0.0001513747
0.0001447681
0.00013901524
0.00013384611
0.00012872189
0.00012357571
0.00011955102
0.00011551942
0.00011237333
0.00010991054
6.0536459e-14
1.9022578e-12
1.5555111e-11
6.6893904e-11
2.0583766e-10
5.1936771e-10
1.1515345e-09
2.3333317e-09
4.4267502e-09
7.9892318e-09
1.3867379e-08
2.3332459e-08
3.8275406e-08
6.1486231e-08
9.7053215e-08
1.5093083e-07
2.3174566e-07
3.5193833e-07
5.2938026e-07
7.8963735e-07
1.1691698e-06
1.7198528e-06
2.5153601e-06
3.6603634e-06
5.3039032e-06
7.6582165e-06
1.1025842e-05
1.5837712e-05
2.270485e-05
3.2482979e-05
4.6341168e-05
6.5809822e-05
9.2776329e-05
0.00012934057
0.00017751344
0.00023857075
0.00031183148
0.00039547163
0.0004855337
0.00057625983
0.00065326886
0.00072110718
0.0007186814
0.00067827708
0.0005462023
0.0003277574
0.00020819188
0.00015755043
0.00014113854
0.00014340618
0.00015507194
0.00016859691
0.00016816378
0.0001619334
0.00015360948
0.00014728991
0.00014133772
0.00013552798
0.00012983581
0.00012519633
0.0001210192
0.000117451
0.00011356096
0.00011084952
0.00010862841
4.2742181e-14
1.3431032e-12
1.0982838e-11
4.7231424e-11
1.4533616e-10
3.6671606e-10
8.130933e-10
1.6475963e-09
3.1258828e-09
5.6416737e-09
9.7929409e-09
1.6477566e-08
2.7030853e-08
4.3422185e-08
6.8534826e-08
1.0656198e-07
1.6356451e-07
2.4825207e-07
3.7307163e-07
5.5571653e-07
8.2121868e-07
1.2048274e-06
1.7559811e-06
2.5436435e-06
3.6634063e-06
5.2476094e-06
7.4797351e-06
1.0613853e-05
1.500197e-05
2.1131201e-05
2.966362e-05
4.1499351e-05
5.7801921e-05
7.9977422e-05
0.00010954559
0.00014789461
0.00019571425
0.00025286491
0.0003173453
0.00038321232
0.00044448678
0.00045831326
0.0004279506
0.00032156992
0.00022022839
0.00016092645
0.00013633236
0.00013072984
0.00013565732
0.00015206744
0.00016511498
0.00016731358
0.00016372023
0.00015443938
0.00014764498
0.00014186146
0.00013610074
0.00013100821
0.00012672336
0.00012251971
0.00011821265
0.00011502147
0.00011165471
0.00010952086
0.00010754506
3.6858621e-14
1.1582239e-12
9.4711163e-12
4.0731077e-11
1.2533821e-10
3.1627357e-10
7.0130388e-10
1.4212185e-09
2.6967451e-09
4.8679595e-09
8.4516193e-09
1.4224094e-08
2.3340652e-08
3.7506111e-08
5.9217535e-08
9.2107284e-08
1.4142445e-07
2.1470507e-07
3.2269641e-07
4.8061765e-07
7.0985798e-07
1.04023e-06
1.5129113e-06
2.1842029e-06
3.1303226e-06
4.4533687e-06
6.288142e-06
8.8116001e-06
1.2255583e-05
1.6925197e-05
2.3225152e-05
3.1695119e-05
4.3043761e-05
5.816196e-05
7.8072347e-05
0.00010374825
0.00013566037
0.00017292888
0.00021201283
0.00024423438
0.00024798081
0.00022697419
0.00017316801
0.00013854119
0.00011973286
0.0001137887
0.00011767989
0.00012800787
0.00015174378
0.00016308952
0.00016637809
0.00016389118
0.00015523762
0.0001485175
0.00014315309
0.00013773802
0.00013312362
0.00012854701
0.00012384505
0.00011999537
0.00011654161
0.00011353023
0.00011027374
0.00010825219
0.00010657236
3.5387451e-14
1.1119968e-12
9.0931913e-12
3.9106779e-11
1.2034572e-10
3.0369883e-10
6.7349338e-10
1.365056e-09
2.5906555e-09
4.6775325e-09
8.1232947e-09
1.3676155e-08
2.245052e-08
3.6092566e-08
5.7016015e-08
8.8735586e-08
1.3633482e-07
2.0711609e-07
3.1149277e-07
4.6419505e-07
6.8586717e-07
1.0051284e-06
1.4611374e-06
2.1066395e-06
3.0113172e-06
4.2651849e-06
5.9816866e-06
8.3000907e-06
1.1386795e-05
1.5437872e-05
2.0684062e-05
2.7399659e-05
3.5904234e-05
4.6541382e-05
5.9565605e-05
7.4912567e-05
9.203037e-05
0.00010836535
0.00011964578
0.00011836777
0.000105225
9.4756342e-05
8.6510722e-05
8.8227126e-05
9.3427557e-05
0.00010378047
0.0001278649
0.00015215894
0.00016223763
0.00016532722
0.00016408146
0.00015724925
0.00014998623
0.00014471245
0.00013970225
0.00013494413
0.00012992636
0.0001255379
0.00012173762
0.00011803953
0.00011450596
0.00011170141
0.00010895983
0.00010725143
0.00010583846
3.1902937e-14
1.0025022e-12
8.1978619e-12
3.5256889e-11
1.0850214e-10
2.7382682e-10
6.0729724e-10
1.2310161e-09
2.3365693e-09
4.2194139e-09
7.3289974e-09
1.2341387e-08
2.0263934e-08
3.258523e-08
5.1488562e-08
8.0153491e-08
1.2317801e-07
1.8716261e-07
2.8150605e-07
4.1946741e-07
6.1954382e-07
9.0718753e-07
1.3168247e-06
1.8940202e-06
2.6974311e-06
3.7999019e-06
5.2877922e-06
7.2573974e-06
9.8064e-06
1.3020967e-05
1.6960163e-05
2.1650334e-05
2.705314e-05
3.305137e-05
3.944773e-05
4.5763196e-05
5.1054921e-05
5.3731374e-05
5.2787274e-05
5.1650099e-05
5.293664e-05
5.7795941e-05
6.3883389e-05
7.6981311e-05
9.4845858e-05
0.00013078368
0.00015306339
0.00016202781
0.00016497168
0.00016419986
0.00015964376
0.00015072776
0.0001453393
0.00014040884
0.00013557586
0.00013077194
0.0001266628
0.00012268782
0.00011896086
0.00011575362
0.00011288184
0.00011037763
0.00010779168
0.0001061814
0.00010498483
2.4217965e-14
7.6101321e-13
6.2231058e-12
2.676404e-11
8.2366387e-11
2.0787124e-10
4.6102871e-10
9.3454091e-10
1.7738568e-09
3.2032576e-09
5.5638471e-09
9.3685451e-09
1.5381216e-08
2.4729795e-08
3.9066841e-08
6.0795423e-08
9.3383489e-08
1.417952e-07
2.1307161e-07
3.1709206e-07
4.6753535e-07
6.8302526e-07
9.8837154e-07
1.4156832e-06
2.0049132e-06
2.8030942e-06
3.861215e-06
5.2276072e-06
6.9378708e-06
8.999174e-06
1.1377504e-05
1.3990483e-05
1.6697863e-05
1.9333478e-05
2.1658002e-05
2.3311178e-05
2.4242165e-05
2.545699e-05
2.819241e-05
3.2441792e-05
3.9319164e-05
5.1063288e-05
6.7966908e-05
9.4574338e-05
0.00013269018
0.00015308192
0.0001623781
0.00016524236
0.00016485087
0.00016113961
0.00015153271
0.00014609061
0.00014162403
0.00013718262
0.00013283141
0.00012876979
0.00012472725
0.00012098689
0.00011760853
0.00011450769
0.00011145872
0.00010897972
0.00010671701
0.00010534055
0.00010423196
1.515205e-14
4.7612983e-13
3.8934803e-12
1.6744727e-11
5.15312e-11
1.300485e-10
2.8841914e-10
5.8461612e-10
1.1095697e-09
2.0034285e-09
3.4792017e-09
5.8569069e-09
9.6125637e-09
1.5447972e-08
2.4389264e-08
3.7924672e-08
5.8194653e-08
8.8249817e-08
1.3239281e-07
1.9661678e-07
2.8914082e-07
4.2101378e-07
6.067015e-07
8.6447697e-07
1.2162901e-06
1.6866194e-06
2.2996492e-06
3.0741813e-06
4.0165299e-06
5.111426e-06
6.3170659e-06
7.5667846e-06
8.7794682e-06
9.8845619e-06
1.0896294e-05
1.2215e-05
1.4301524e-05
1.7260811e-05
2.266435e-05
3.0971681e-05
4.5046339e-05
6.5408973e-05
9.4476736e-05
0.00012987175
0.00015078555
0.00016252211
0.00016593629
0.00016567374
0.00016242431
0.00015309508
0.00014742849
0.00014285718
0.00013845256
0.0001339864
0.00012978968
0.00012555032
0.00012186159
0.00011851625
0.00011530791
0.00011252222
0.00011006951
0.00010791991
0.00010567954
0.00010446285
0.0001034157
8.1645975e-15
2.5655945e-13
2.0979599e-12
9.0225596e-12
2.7765746e-11
7.0068832e-11
1.5538683e-10
3.1493304e-10
5.9764271e-10
1.0788907e-09
1.8731402e-09
3.1521641e-09
5.1710998e-09
8.3053988e-09
1.310273e-08
2.0355036e-08
3.1197095e-08
4.723872e-08
7.073734e-08
1.0481484e-07
1.5371456e-07
2.230778e-07
3.2018749e-07
4.5408049e-07
6.3536564e-07
8.755242e-07
1.1854608e-06
1.57317e-06
2.0411742e-06
2.5847284e-06
3.1937893e-06
3.8636672e-06
4.6181791e-06
5.5911854e-06
7.0078968e-06
9.2455648e-06
1.2766483e-05
1.8557917e-05
2.8185974e-05
4.3196499e-05
6.4001868e-05
9.1635363e-05
0.00012447826
0.00014832777
0.00016340873
0.00016720746
0.00016691677
0.0001641272
0.00015537134
0.00014896834
0.00014374825
0.00013921273
0.00013510965
0.00013108636
0.00012712066
0.00012355077
0.00012011513
0.00011683244
0.00011404088
0.00011139132
0.00010877608
0.00010675907
0.00010479343
0.00010381513
0.0001027726
4.2844757e-15
1.3463261e-13
1.1009206e-12
4.7345573e-12
1.4569401e-11
3.676461e-11
8.1523017e-11
1.6520813e-10
3.1346261e-10
5.6576158e-10
9.8200974e-10
1.6520294e-09
2.7091011e-09
4.3491242e-09
6.8574699e-09
1.0646173e-08
1.6304706e-08
2.4668004e-08
3.6905416e-08
5.4633166e-08
8.0050095e-08
1.1609052e-07
1.6657853e-07
2.3635717e-07
3.3135427e-07
4.5857042e-07
6.260332e-07
8.4298875e-07
1.1210489e-06
1.4776996e-06
1.9446634e-06
2.5859983e-06
3.5308103e-06
4.9914391e-06
7.3380956e-06
1.1176689e-05
1.7350346e-05
2.7218976e-05
4.1711286e-05
6.1485317e-05
8.8060732e-05
0.00011961063
0.00014715213
0.00016454651
0.00016915753
0.00016864605
0.00016614659
0.00015803643
0.00015039522
0.00014483107
0.00014030879
0.00013658616
0.00013269549
0.00012868486
0.00012503835
0.00012140916
0.00011820468
0.00011529491
0.00011248305
0.00011001346
0.00010778386
0.0001058099
0.00010397988
0.00010306497
0.0001021246
2.890084e-15
9.0816122e-14
7.426212e-13
3.1936296e-12
9.827257e-12
2.47969e-11
5.4981643e-11
1.1141284e-10
2.1137638e-10
3.8148462e-10
6.6213347e-10
1.1139272e-09
1.8268798e-09
2.9335068e-09
4.6273219e-09
7.1887719e-09
1.1021297e-08
1.6700999e-08
2.5044375e-08
3.719971e-08
5.4769265e-08
7.9971797e-08
1.1585979e-07
1.6661703e-07
2.379893e-07
3.379634e-07
4.7794558e-07
6.7499338e-07
9.5633886e-07
1.3681148e-06
1.9871637e-06
2.945341e-06
4.4657113e-06
6.9173305e-06
1.0854952e-05
1.7012697e-05
2.659408e-05
4.0459008e-05
5.9495883e-05
8.5380302e-05
0.00011652053
0.00014575973
0.00016546186
0.00017144109
0.00017100952
0.00016868336
0.00016098437
0.00015217435
0.00014641903
0.00014191928
0.00013786189
0.00013388942
0.00012995019
0.00012620322
0.00012262176
0.00011934511
0.00011633583
0.00011351744
0.00011106625
0.0001088263
0.00010671642
0.00010497407
0.00010335774
0.00010251468
0.00010159502
3.0594494e-15
9.6138244e-14
7.8614426e-13
3.380812e-12
1.0403242e-11
2.625026e-11
5.8204597e-11
1.17947e-10
2.2378741e-10
4.0393166e-10
7.0123469e-10
1.1800801e-09
1.9362895e-09
3.1113349e-09
4.9126443e-09
7.642516e-09
1.1739191e-08
1.7835127e-08
2.6839744e-08
4.0057382e-08
5.9356974e-08
8.7419951e-08
1.2811159e-07
1.8705711e-07
2.7257594e-07
3.973541e-07
5.8123888e-07
8.5577298e-07
1.2709669e-06
1.9075452e-06
2.8993879e-06
4.4630093e-06
6.9401169e-06
1.0846574e-05
1.6967055e-05
2.6239198e-05
3.9614645e-05
5.8218605e-05
8.3268541e-05
0.00011372785
0.00014361491
0.00016563053
0.00017357688
0.00017381349
0.00017153135
0.00016405582
0.00015433435
0.00014857267
0.00014367768
0.00013918957
0.00013505131
0.00013150435
0.00012784295
0.00012425806