/*--------------------------------*- C++ -*----------------------------------*\
  =========                 |
  \\      /  F ield         | OpenFOAM: The Open Source CFD Toolbox
   \\    /   O peration     | Website:  https://openfoam.org
    \\  /    A nd           | Version:  13
     \\/     M anipulation  |
\*---------------------------------------------------------------------------*/
FoamFile
{
    format      ascii;
    class       volScalarField;
    location    "25.600933";
    object      pPrime2Mean;
}
// * * * * * * * * * * * * * * * * * * * * * * * * * * * * * * * * * * * * * //

dimensions      [0 4 -4 0 0 0 0];

internalField   nonuniform List<scalar> 
17140
(
12163.717
12163.718
12163.718
12163.717
12163.717
12163.715
12163.713
12163.711
12163.707
12163.702
12163.696
12163.688
12163.677
12163.664
12163.647
12163.626
12163.6
12163.566
12163.524
12163.472
12163.406
12163.323
12163.219
12163.088
12162.923
12162.716
12162.454
12162.123
12161.706
12161.18
12160.518
12159.687
12158.646
12157.346
12155.727
12153.719
12151.239
12148.188
12144.451
12139.9
12134.382
12127.728
12119.747
12110.222
12098.915
12085.559
12069.863
12051.506
12030.14
12005.386
11976.831
11944.028
11906.496
11863.717
11815.129
11760.132
11698.073
11628.252
11549.905
11462.218
11364.291
11255.181
11133.801
10999.064
10849.691
12164.017
12164.017
12164.017
12164.017
12164.016
12164.014
12164.013
12164.01
12164.006
12164.001
12163.995
12163.987
12163.976
12163.963
12163.946
12163.925
12163.898
12163.865
12163.823
12163.77
12163.704
12163.621
12163.518
12163.387
12163.222
12163.015
12162.754
12162.424
12162.008
12161.483
12160.823
12159.994
12158.954
12157.656
12156.039
12154.032
12151.553
12148.504
12144.77
12140.22
12134.705
12128.054
12120.076
12110.556
12099.255
12085.906
12070.217
12051.869
12030.514
12005.771
11977.229
11944.442
11906.928
11864.167
11815.602
11760.631
11698.6
11628.812
11550.501
11462.854
11364.972
11255.914
11134.592
10999.922
10850.614
12164.756
12164.757
12164.757
12164.756
12164.755
12164.754
12164.752
12164.749
12164.746
12164.741
12164.734
12164.726
12164.716
12164.703
12164.686
12164.665
12164.638
12164.605
12164.563
12164.511
12164.446
12164.363
12164.26
12164.13
12163.967
12163.761
12163.501
12163.173
12162.759
12162.237
12161.579
12160.753
12159.717
12158.421
12156.807
12154.804
12152.328
12149.282
12145.552
12141.007
12135.499
12128.855
12120.887
12111.378
12100.09
12086.757
12071.088
12052.763
12031.433
12006.718
11978.209
11945.459
11907.988
11865.277
11816.768
11761.859
11699.9
11630.191
11551.969
11464.422
11366.652
11257.717
11136.534
11002.02
10852.867
12165.961
12165.961
12165.961
12165.961
12165.96
12165.958
12165.957
12165.954
12165.95
12165.945
12165.939
12165.931
12165.92
12165.907
12165.891
12165.87
12165.844
12165.811
12165.77
12165.718
12165.653
12165.572
12165.469
12165.341
12165.179
12164.975
12164.717
12164.392
12163.981
12163.462
12162.809
12161.987
12160.955
12159.664
12158.055
12156.057
12153.586
12150.545
12146.822
12142.285
12136.786
12130.156
12122.202
12112.712
12101.446
12088.14
12072.501
12054.212
12032.922
12008.254
11979.798
11947.109
11909.709
11867.078
11818.66
11763.854
11702.01
11632.431
11554.355
11466.97
11369.379
11260.646
11139.686
11005.424
10856.519
12167.654
12167.654
12167.654
12167.654
12167.653
12167.651
12167.649
12167.647
12167.643
12167.638
12167.632
12167.624
12167.614
12167.601
12167.584
12167.564
12167.538
12167.505
12167.465
12167.414
12167.35
12167.269
12167.168
12167.041
12166.881
12166.679
12166.424
12166.102
12165.695
12165.181
12164.532
12163.716
12162.69
12161.405
12159.802
12157.81
12155.346
12152.314
12148.6
12144.075
12138.591
12131.978
12124.046
12114.581
12103.346
12090.076
12074.481
12056.242
12035.009
12010.407
11982.026
11949.423
11912.121
11869.603
11821.313
11766.651
11704.97
11635.573
11557.701
11470.544
11373.206
11264.753
11144.106
11010.197
10861.643
12169.856
12169.856
12169.856
12169.855
12169.855
12169.853
12169.851
12169.849
12169.845
12169.84
12169.834
12169.826
12169.816
12169.803
12169.787
12169.766
12169.741
12169.709
12169.669
12169.619
12169.555
12169.476
12169.377
12169.251
12169.094
12168.894
12168.643
12168.325
12167.922
12167.413
12166.771
12165.96
12164.942
12163.664
12162.069
12160.085
12157.631
12154.61
12150.909
12146.4
12140.935
12134.345
12126.44
12117.009
12105.814
12092.593
12077.053
12058.878
12037.72
12013.203
11984.919
11952.429
11915.256
11872.884
11824.761
11770.287
11708.818
11639.659
11562.052
11475.19
11378.182
11270.094
11149.855
11016.405
10868.311
12172.589
12172.589
12172.589
12172.588
12172.587
12172.586
12172.584
12172.581
12172.577
12172.572
12172.566
12172.558
12172.548
12172.536
12172.52
12172.5
12172.475
12172.443
12172.404
12172.354
12172.292
12172.214
12172.116
12171.993
12171.838
12171.642
12171.394
12171.081
12170.684
12170.181
12169.546
12168.743
12167.732
12166.463
12164.877
12162.905
12160.463
12157.455
12153.771
12149.282
12143.841
12137.28
12129.41
12120.021
12108.876
12095.713
12080.243
12062.147
12041.081
12016.669
11988.508
11956.158
11919.145
11876.956
11829.039
11774.799
11713.593
11644.729
11567.451
11480.957
11384.358
11276.725
11156.994
11024.116
10876.596
12175.876
12175.876
12175.875
12175.875
12175.874
12175.872
12175.87
12175.867
12175.864
12175.859
12175.853
12175.845
12175.835
12175.822
12175.807
12175.787
12175.762
12175.732
12175.693
12175.645
12175.584
12175.507
12175.412
12175.291
12175.139
12174.947
12174.703
12174.395
12174.004
12173.509
12172.881
12172.087
12171.085
12169.827
12168.252
12166.292
12163.864
12160.874
12157.21
12152.745
12147.333
12140.807
12132.979
12123.641
12112.556
12099.463
12084.075
12066.076
12045.12
12020.837
11992.822
11960.641
11923.821
11881.853
11834.185
11780.226
11719.336
11650.827
11573.946
11487.895
11391.789
11284.704
11165.585
11033.396
10886.575
12179.745
12179.745
12179.744
12179.744
12179.743
12179.741
12179.739
12179.736
12179.732
12179.728
12179.721
12179.714
12179.704
12179.691
12179.676
12179.657
12179.633
12179.603
12179.565
12179.517
12179.458
12179.384
12179.29
12179.172
12179.023
12178.835
12178.596
12178.294
12177.909
12177.421
12176.801
12176.016
12175.025
12173.777
12172.215
12170.27
12167.86
12164.889
12161.25
12156.813
12151.435
12144.95
12137.172
12127.892
12116.877
12103.868
12088.577
12070.69
12049.866
12025.733
11997.893
11965.912
11929.32
11887.61
11840.234
11786.606
11726.089
11657.997
11581.584
11496.053
11400.528
11294.088
11175.69
11044.317
10898.325
12184.225
12184.225
12184.225
12184.224
12184.223
12184.222
12184.22
12184.217
12184.213
12184.208
12184.202
12184.194
12184.185
12184.173
12184.157
12184.139
12184.115
12184.086
12184.049
12184.003
12183.945
12183.872
12183.781
12183.666
12183.52
12183.336
12183.102
12182.805
12182.427
12181.946
12181.334
12180.558
12179.577
12178.341
12176.794
12174.864
12172.473
12169.526
12165.914
12161.51
12156.171
12149.733
12142.012
12132.8
12121.867
12108.953
12093.773
12076.017
12055.344
12031.387
12003.749
11971.999
11935.671
11894.261
11847.225
11793.98
11733.894
11666.285
11590.411
11505.484
11410.631
11304.94
11187.38
11056.953
10911.927
12189.349
12189.349
12189.349
12189.348
12189.347
12189.345
12189.343
12189.34
12189.336
12189.332
12189.326
12189.318
12189.309
12189.297
12189.282
12189.263
12189.241
12189.212
12189.176
12189.131
12189.074
12189.004
12188.914
12188.802
12188.659
12188.479
12188.249
12187.956
12187.584
12187.109
12186.505
12185.738
12184.768
12183.545
12182.012
12180.1
12177.73
12174.809
12171.226
12166.86
12161.565
12155.181
12147.524
12138.39
12127.549
12114.743
12099.69
12082.083
12061.584
12037.828
12010.421
11978.936
11942.911
11901.843
11855.196
11802.388
11742.793
11675.736
11600.48
11516.242
11422.158
11317.324
11200.722
11071.377
10927.46
12195.145
12195.145
12195.144
12195.143
12195.142
12195.14
12195.138
12195.135
12195.132
12195.127
12195.121
12195.113
12195.104
12195.092
12195.078
12195.06
12195.037
12195.009
12194.974
12194.93
12194.875
12194.805
12194.718
12194.607
12194.467
12194.289
12194.063
12193.775
12193.407
12192.938
12192.341
12191.582
12190.622
12189.412
12187.894
12186.002
12183.655
12180.761
12177.213
12172.887
12167.642
12161.319
12153.735
12144.688
12133.948
12121.264
12106.355
12088.916
12068.613
12045.084
12017.94
11986.756
11951.072
11910.394
11864.185
11811.873
11752.835
11686.401
11611.842
11528.383
11435.169
11331.303
11215.786
11087.668
10945.01
12201.636
12201.636
12201.636
12201.635
12201.634
12201.632
12201.63
12201.627
12201.623
12201.619
12201.613
12201.605
12201.596
12201.584
12201.57
12201.552
12201.53
12201.502
12201.468
12201.424
12201.37
12201.302
12201.216
12201.107
12200.969
12200.793
12200.57
12200.285
12199.921
12199.457
12198.866
12198.116
12197.166
12195.968
12194.467
12192.594
12190.272
12187.408
12183.897
12179.617
12174.427
12168.171
12160.668
12151.718
12141.093
12128.545
12113.796
12096.544
12076.461
12053.188
12026.339
11995.492
11960.193
11919.95
11874.234
11822.477
11764.061
11698.326
11624.549
11541.963
11449.725
11346.948
11232.646
11105.903
10964.657
12208.846
12208.846
12208.845
12208.844
12208.843
12208.841
12208.839
12208.836
12208.832
12208.828
12208.822
12208.814
12208.805
12208.794
12208.78
12208.762
12208.74
12208.713
12208.679
12208.636
12208.582
12208.515
12208.43
12208.322
12208.185
12208.012
12207.79
12207.508
12207.147
12206.688
12206.103
12205.361
12204.421
12203.237
12201.753
12199.902
12197.607
12194.775
12191.305
12187.074
12181.946
12175.764
12168.351
12159.507
12149.01
12136.612
12122.041
12104.999
12085.161
12062.173
12035.652
12005.182
11970.31
11930.552
11885.384
11834.243
11776.522
11711.563
11638.656
11557.043
11465.891
11364.323
11251.375
11126.163
10986.484
12216.794
12216.793
12216.793
12216.792
12216.791
12216.789
12216.787
12216.784
12216.78
12216.776
12216.77
12216.763
12216.754
12216.742
12216.728
12216.711
12216.689
12216.662
12216.628
12216.586
12216.533
12216.466
12216.381
12216.274
12216.139
12215.966
12215.747
12215.467
12215.109
12214.655
12214.076
12213.342
12212.413
12211.244
12209.778
12207.95
12205.683
12202.888
12199.461
12195.286
12190.225
12184.124
12176.81
12168.083
12157.727
12145.495
12131.122
12114.312
12094.746
12072.073
12045.916
12015.86
11981.461
11942.239
11897.677
11847.218
11790.263
11726.163
11654.219
11573.682
11483.73
11383.5
11272.046
11148.521
11010.571
12225.502
12225.502
12225.502
12225.501
12225.499
12225.498
12225.496
12225.493
12225.489
12225.485
12225.479
12225.472
12225.463
12225.452
12225.438
12225.421
12225.399
12225.372
12225.338
12225.297
12225.244
12225.177
12225.093
12224.987
12224.852
12224.681
12224.463
12224.185
12223.832
12223.382
12222.809
12222.084
12221.167
12220.013
12218.566
12216.763
12214.527
12211.771
12208.393
12204.277
12199.289
12193.279
12186.072
12177.476
12167.274
12155.226
12141.07
12124.516
12105.249
12082.924
12057.165
12027.566
11993.687
11955.054
11911.157
11861.448
11805.334
11742.18
11671.293
11591.939
11503.308
11404.546
11294.73
11173.057
11037
12235
12235
12234.999
12234.998
12234.997
12234.995
12234.993
12234.99
12234.987
12234.982
12234.977
12234.969
12234.96
12234.95
12234.936
12234.919
12234.897
12234.871
12234.837
12234.795
12234.743
12234.677
12234.593
12234.487
12234.353
12234.183
12233.967
12233.691
12233.341
12232.895
12232.33
12231.614
12230.71
12229.571
12228.146
12226.368
12224.165
12221.451
12218.126
12214.075
12209.168
12203.255
12196.167
12187.713
12177.681
12165.835
12151.918
12135.645
12116.706
12094.76
12069.438
12040.338
12007.027
11969.038
11925.868
11876.978
11821.787
11759.666
11689.937
11611.877
11524.686
11427.526
11319.496
11199.842
11065.849
12245.316
12245.316
12245.315
12245.315
12245.313
12245.312
12245.309
12245.307
12245.303
12245.299
12245.293
12245.286
12245.277
12245.266
12245.252
12245.235
12245.214
12245.187
12245.154
12245.112
12245.059
12244.993
12244.91
12244.805
12244.671
12244.502
12244.287
12244.013
12243.666
12243.225
12242.667
12241.96
12241.068
12239.947
12238.542
12236.793
12234.627
12231.957
12228.689
12224.709
12219.89
12214.084
12207.124
12198.826
12188.979
12177.354
12163.699
12147.732
12129.15
12107.617
12082.771
12054.214
12021.521
11984.233
11941.855
11893.857
11839.668
11778.675
11710.207
11633.552
11547.928
11452.506
11346.413
11228.951
11097.193
12256.482
12256.481
12256.481
12256.48
12256.479
12256.477
12256.475
12256.472
12256.469
12256.464
12256.459
12256.451
12256.443
12256.432
12256.418
12256.4
12256.379
12256.352
12256.318
12256.276
12256.223
12256.157
12256.074
12255.968
12255.834
12255.666
12255.452
12255.181
12254.837
12254.401
12253.849
12253.151
12252.272
12251.168
12249.787
12248.067
12245.939
12243.319
12240.112
12236.209
12231.484
12225.793
12218.974
12210.844
12201.2
12189.816
12176.444
12160.811
12142.616
12121.532
12097.2
12069.233
12037.211
12000.681
11959.161
11912.131
11859.031
11799.26
11732.157
11657.025
11573.092
11479.55
11375.55
11260.456
11131.109
12268.521
12268.521
12268.52
12268.52
12268.518
12268.517
12268.515
12268.512
12268.509
12268.504
12268.498
12268.491
12268.482
12268.471
12268.457
12268.439
12268.418
12268.39
12268.356
12268.314
12268.26
12268.194
12268.11
12268.004
12267.871
12267.703
12267.49
12267.221
12266.88
12266.449
12265.903
12265.216
12264.35
12263.263
12261.906
12260.218
12258.13
12255.563
12252.423
12248.602
12243.979
12238.413
12231.745
12223.799
12214.374
12203.251
12190.187
12174.914
12157.138
12136.539
12112.764
12085.433
12054.134
12018.424
11977.83
11931.846
11879.925
11821.472
11755.843
11682.349
11600.239
11508.719
11406.973
11294.427
11167.67
12281.452
12281.452
12281.452
12281.451
12281.45
12281.448
12281.446
12281.444
12281.44
12281.435
12281.43
12281.423
12281.413
12281.402
12281.388
12281.37
12281.348
12281.321
12281.286
12281.244
12281.19
12281.123
12281.039
12280.934
12280.801
12280.634
12280.422
12280.156
12279.819
12279.394
12278.856
12278.179
12277.328
12276.261
12274.93
12273.275
12271.232
12268.721
12265.651
12261.919
12257.406
12251.974
12245.47
12237.721
12228.533
12217.691
12204.959
12190.075
12172.751
12152.673
12129.498
12102.85
12072.328
12037.5
11997.905
11953.05
11902.395
11845.362
11781.315
11709.58
11629.424
11540.074
11440.745
11330.932
11206.946
12295.286
12295.286
12295.286
12295.285
12295.284
12295.283
12295.281
12295.278
12295.274
12295.27
12295.264
12295.257
12295.248
12295.237
12295.223
12295.205
12295.183
12295.156
12295.121
12295.079
12295.026
12294.959
12294.876
12294.772
12294.641
12294.475
12294.267
12294.005
12293.674
12293.256
12292.728
12292.064
12291.23
12290.186
12288.883
12287.267
12285.271
12282.821
12279.827
12276.19
12271.794
12266.506
12260.178
12252.641
12243.708
12233.169
12220.794
12206.326
12189.488
12169.969
12147.434
12121.518
12091.828
12057.948
12019.428
11975.786
11926.491
11870.978
11808.622
11738.771
11660.706
11573.677
11476.931
11370.037
11249.004
12310.031
12310.031
12310.031
12310.03
12310.029
12310.028
12310.026
12310.023
12310.019
12310.015
12310.01
12310.003
12309.994
12309.983
12309.97
12309.952
12309.931
12309.904
12309.871
12309.83
12309.778
12309.713
12309.632
12309.53
12309.402
12309.241
12309.038
12308.782
12308.459
12308.051
12307.537
12306.889
12306.075
12305.058
12303.789
12302.215
12300.273
12297.889
12294.978
12291.443
12287.173
12282.04
12275.9
12268.591
12259.93
12249.715
12237.722
12223.701
12207.379
12188.456
12166.603
12141.468
12112.671
12079.808
12042.442
12000.095
11952.255
11898.363
11837.816
11769.973
11694.139
11609.583
11515.588
11411.805
11293.907
12325.698
12325.698
12325.698
12325.697
12325.696
12325.695
12325.693
12325.69
12325.687
12325.683
12325.678
12325.672
12325.664
12325.653
12325.64
12325.625
12325.604
12325.579
12325.548
12325.509
12325.46
12325.398
12325.32
12325.223
12325.1
12324.945
12324.749
12324.502
12324.189
12323.795
12323.297
12322.669
12321.881
12320.895
12319.665
12318.14
12316.258
12313.948
12311.128
12307.705
12303.57
12298.603
12292.665
12285.599
12277.229
12267.36
12255.773
12242.226
12226.451
12208.159
12187.033
12162.733
12134.892
12103.119
12066.981
12026.019
11979.728
11927.564
11868.941
11803.238
11729.778
11647.849
11556.776
11456.299
11341.716
12342.306
12342.306
12342.306
12342.305
12342.304
12342.303
12342.302
12342.3
12342.297
12342.293
12342.289
12342.283
12342.275
12342.266
12342.255
12342.24
12342.221
12342.198
12342.17
12342.133
12342.088
12342.03
12341.958
12341.866
12341.75
12341.603
12341.416
12341.18
12340.881
12340.502
12340.023
12339.419
12338.661
12337.711
12336.526
12335.057
12333.243
12331.015
12328.296
12324.994
12321.007
12316.218
12310.496
12303.69
12295.631
12286.127
12274.969
12261.92
12246.725
12229.104
12208.753
12185.346
12158.526
12127.91
12093.082
12053.592
12008.947
11958.622
11902.044
11838.613
11767.672
11688.529
11600.549
11503.576
11392.487
12359.882
12359.882
12359.882
12359.882
12359.881
12359.88
12359.879
12359.877
12359.875
12359.871
12359.867
12359.862
12359.856
12359.847
12359.837
12359.824
12359.808
12359.787
12359.761
12359.728
12359.686
12359.633
12359.566
12359.481
12359.372
12359.234
12359.058
12358.834
12358.549
12358.188
12357.731
12357.154
12356.429
12355.52
12354.386
12352.978
12351.239
12349.103
12346.493
12343.324
12339.497
12334.901
12329.411
12322.881
12315.149
12306.031
12295.324
12282.803
12268.223
12251.316
12231.793
12209.333
12183.598
12154.212
12120.776
12082.847
12039.951
11991.577
11937.169
11876.147
11807.872
11731.675
11646.961
11553.693
11446.275
12378.456
12378.456
12378.456
12378.456
12378.455
12378.455
12378.453
12378.452
12378.45
12378.447
12378.444
12378.439
12378.433
12378.426
12378.417
12378.405
12378.39
12378.372
12378.347
12378.317
12378.279
12378.23
12378.168
12378.089
12377.987
12377.858
12377.692
12377.481
12377.211
12376.869
12376.435
12375.888
12375.198
12374.334
12373.254
12371.914
12370.257
12368.22
12365.73
12362.705
12359.051
12354.662
12349.418
12343.18
12335.793
12327.083
12316.855
12304.894
12290.967
12274.821
12256.172
12234.718
12210.132
12182.053
12150.09
12113.817
12072.775
12026.468
11974.358
11915.883
11850.426
11777.337
11696.061
11606.704
11503.137
12398.051
12398.051
12398.051
12398.05
12398.05
12398.049
12398.048
12398.047
12398.045
12398.042
12398.039
12398.035
12398.03
12398.023
12398.014
12398.004
12397.99
12397.972
12397.95
12397.922
12397.887
12397.841
12397.783
12397.708
12397.613
12397.49
12397.334
12397.135
12396.881
12396.558
12396.149
12395.632
12394.981
12394.164
12393.144
12391.876
12390.307
12388.376
12386.014
12383.143
12379.673
12375.504
12370.521
12364.593
12357.573
12349.295
12339.574
12328.207
12314.974
12299.63
12281.908
12261.521
12238.151
12211.453
12181.05
12146.531
12107.451
12063.331
12013.651
11957.866
11895.381
11825.562
11747.9
11662.658
11563.132
12418.676
12418.676
12418.676
12418.675
12418.675
12418.674
12418.673
12418.672
12418.67
12418.668
12418.664
12418.66
12418.655
12418.649
12418.64
12418.63
12418.616
12418.6
12418.579
12418.551
12418.517
12418.474
12418.418
12418.348
12418.257
12418.141
12417.994
12417.806
12417.568
12417.265
12416.881
12416.396
12415.786
12415.02
12414.062
12412.869
12411.393
12409.574
12407.348
12404.639
12401.365
12397.429
12392.723
12387.125
12380.495
12372.675
12363.491
12352.753
12340.252
12325.757
12309.018
12289.757
12267.672
12242.434
12213.68
12181.014
12144.009
12102.201
12055.086
12002.138
11942.781
11876.4
11802.528
11721.608
11626.322
12440.326
12440.326
12440.325
12440.325
12440.325
12440.324
12440.323
12440.322
12440.319
12440.317
12440.314
12440.31
12440.305
12440.298
12440.29
12440.279
12440.266
12440.25
12440.229
12440.203
12440.17
12440.127
12440.074
12440.007
12439.921
12439.812
12439.673
12439.497
12439.274
12438.991
12438.634
12438.183
12437.615
12436.902
12436.009
12434.897
12433.517
12431.816
12429.732
12427.195
12424.127
12420.439
12416.028
12410.779
12404.561
12397.225
12388.61
12378.538
12366.811
12353.214
12337.509
12319.436
12298.709
12275.011
12247.998
12217.29
12182.475
12143.108
12098.7
12048.741
11992.675
11929.901
11860.001
11783.619
11692.772
12462.987
12462.987
12462.986
12462.986
12462.986
12462.985
12462.984
12462.982
12462.981
12462.978
12462.975
12462.971
12462.965
12462.959
12462.951
12462.941
12462.928
12462.911
12462.891
12462.866
12462.834
12462.794
12462.743
12462.679
12462.598
12462.496
12462.367
12462.204
12461.998
12461.737
12461.408
12460.992
12460.47
12459.811
12458.987
12457.957
12456.678
12455.1
12453.165
12450.809
12447.959
12444.531
12440.432
12435.552
12429.77
12422.946
12414.933
12405.562
12394.651
12382.001
12367.387
12350.567
12331.269
12309.196
12284.018
12255.376
12222.873
12186.081
12144.527
12097.717
12045.109
11986.117
11920.381
11848.768
11762.558
12486.643
12486.643
12486.643
12486.643
12486.642
12486.641
12486.64
12486.639
12486.637
12486.635
12486.632
12486.628
12486.623
12486.617
12486.609
12486.599
12486.587
12486.572
12486.553
12486.529
12486.499
12486.461
12486.414
12486.355
12486.281
12486.187
12486.069
12485.92
12485.732
12485.495
12485.196
12484.819
12484.343
12483.742
12482.988
12482.045
12480.871
12479.421
12477.642
12475.476
12472.855
12469.702
12465.931
12461.441
12456.117
12449.834
12442.454
12433.822
12423.771
12412.117
12398.653
12383.151
12365.358
12344.995
12321.751
12295.285
12265.219
12231.143
12192.6
12149.108
12100.138
12045.11
11983.712
11917.068
11835.859
12511.281
12511.281
12511.281
12511.281
12511.28
12511.28
12511.279
12511.277
12511.276
12511.273
12511.271
12511.267
12511.263
12511.257
12511.25
12511.242
12511.231
12511.217
12511.2
12511.179
12511.152
12511.119
12511.077
12511.024
12510.958
12510.874
12510.769
12510.637
12510.47
12510.26
12509.993
12509.655
12509.227
12508.687
12508.005
12507.151
12506.086
12504.77
12503.155
12501.187
12498.806
12495.943
12492.518
12488.436
12483.594
12477.879
12471.163
12463.308
12454.161
12443.555
12431.299
12417.184
12400.973
12382.408
12361.2
12337.026
12309.529
12278.316
12242.948
12202.956
12157.821
12106.945
12050.024
11988.694
11912.726
12536.892
12536.892
12536.892
12536.891
12536.891
12536.891
12536.89
12536.889
12536.887
12536.886
12536.883
12536.881
12536.877
12536.873
12536.867
12536.86
12536.85
12536.839
12536.825
12536.807
12536.785
12536.757
12536.722
12536.677
12536.62
12536.549
12536.459
12536.345
12536.2
12536.017
12535.784
12535.487
12535.109
12534.629
12534.022
12533.26
12532.308
12531.131
12529.687
12527.928
12525.8
12523.24
12520.174
12516.519
12512.183
12507.063
12501.045
12494.005
12485.808
12476.301
12465.313
12452.652
12438.104
12421.429
12402.36
12380.599
12355.808
12327.616
12295.599
12259.304
12218.209
12171.661
12119.43
12063.724
11993.242
12563.466
12563.466
12563.466
12563.466
12563.465
12563.465
12563.464
12563.463
12563.462
12563.461
12563.459
12563.457
12563.455
12563.452
12563.447
12563.442
12563.435
12563.427
12563.416
12563.403
12563.386
12563.364
12563.336
12563.3
12563.255
12563.197
12563.122
12563.028
12562.906
12562.751
12562.551
12562.295
12561.967
12561.549
12561.018
12560.35
12559.517
12558.486
12557.22
12555.679
12553.814
12551.57
12548.879
12545.671
12541.863
12537.365
12532.077
12525.892
12518.69
12510.335
12500.676
12489.54
12476.734
12462.041
12445.219
12425.996
12404.058
12379.054
12350.58
12318.191
12281.352
12239.411
12192.009
12142.239
12077.659
12590.995
12590.994
12590.994
12590.994
12590.994
12590.994
12590.993
12590.993
12590.992
12590.991
12590.991
12590.989
12590.988
12590.986
12590.983
12590.98
12590.975
12590.97
12590.963
12590.954
12590.942
12590.926
12590.906
12590.879
12590.844
12590.799
12590.74
12590.664
12590.564
12590.435
12590.268
12590.053
12589.775
12589.418
12588.966
12588.397
12587.685
12586.806
12585.727
12584.413
12582.822
12580.904
12578.605
12575.862
12572.604
12568.754
12564.23
12558.939
12552.778
12545.629
12537.359
12527.817
12516.835
12504.221
12489.758
12473.201
12454.268
12432.63
12407.901
12379.643
12347.357
12310.284
12267.935
12224.384
12166.238
12619.459
12619.459
12619.459
12619.458
12619.458
12619.458
12619.458
12619.458
12619.457
12619.457
12619.457
12619.456
12619.455
12619.454
12619.453
12619.451
12619.449
12619.446
12619.442
12619.437
12619.429
12619.419
12619.405
12619.386
12619.361
12619.327
12619.282
12619.221
12619.142
12619.038
12618.902
12618.726
12618.498
12618.205
12617.834
12617.365
12616.781
12616.059
12615.173
12614.094
12612.785
12611.207
12609.314
12607.053
12604.367
12601.195
12597.468
12593.11
12588.035
12582.144
12575.324
12567.448
12558.372
12547.933
12535.943
12522.188
12506.415
12488.324
12467.565
12443.719
12416.28
12384.446
12347.526
12310.447
12259.184
12648.829
12648.828
12648.829
12648.828
12648.828
12648.828
12648.828
12648.828
12648.828
12648.827
12648.827
12648.827
12648.827
12648.826
12648.826
12648.825
12648.824
12648.823
12648.82
12648.817
12648.813
12648.806
12648.797
12648.783
12648.765
12648.739
12648.705
12648.658
12648.596
12648.516
12648.409
12648.272
12648.094
12647.865
12647.576
12647.211
12646.758
12646.198
12645.511
12644.673
12643.656
12642.43
12640.957
12639.197
12637.106
12634.64
12631.743
12628.357
12624.413
12619.832
12614.523
12608.385
12601.299
12593.131
12583.728
12572.904
12560.452
12546.112
12529.568
12510.429
12488.215
12462.095
12431.238
12400.882
12356.496
12679.051
12679.051
12679.051
12679.05
12679.05
12679.05
12679.05
12679.05
12679.049
12679.049
12679.049
12679.049
12679.049
12679.048
12679.048
12679.047
12679.046
12679.045
12679.044
12679.042
12679.039
12679.034
12679.027
12679.017
12679.003
12678.984
12678.958
12678.923
12678.877
12678.818
12678.741
12678.642
12678.514
12678.352
12678.145
12677.888
12677.568
12677.175
12676.691
12676.101
12675.386
12674.521
12673.483
12672.242
12670.771
12669.037
12667.003
12664.627
12661.857
12658.636
12654.897
12650.562
12645.547
12639.749
12633.049
12625.301
12616.336
12605.943
12593.872
12579.787
12563.253
12543.455
12519.557
12495.799
12458.813
12710.062
12710.062
12710.062
12710.062
12710.061
12710.061
12710.061
12710.06
12710.06
12710.059
12710.059
12710.059
12710.058
12710.057
12710.056
12710.056
12710.054
12710.053
12710.051
12710.049
12710.045
12710.041
12710.034
12710.026
12710.014
12709.999
12709.98
12709.955
12709.924
12709.885
12709.837
12709.776
12709.701
12709.605
12709.484
12709.335
12709.152
12708.926
12708.651
12708.317
12707.911
12707.42
12706.83
12706.128
12705.298
12704.324
12703.184
12701.853
12700.3
12698.49
12696.381
12693.922
12691.061
12687.731
12683.851
12679.315
12674.01
12667.773
12660.423
12651.723
12641.333
12628.611
12612.847
12596.7
12568.879
12743.183
12743.183
12743.182
12743.182
12743.181
12743.181
12743.18
12743.18
12743.179
12743.178
12743.177
12743.176
12743.175
12743.173
12743.172
12743.17
12743.167
12743.164
12743.161
12743.157
12743.152
12743.146
12743.139
12743.131
12743.12
12743.108
12743.094
12743.078
12743.061
12743.042
12743.021
12743
12742.976
12742.95
12742.922
12742.891
12742.856
12742.816
12742.77
12742.714
12742.646
12742.563
12742.465
12742.352
12742.222
12742.075
12741.907
12741.71
12741.476
12741.195
12740.852
12740.43
12739.91
12739.264
12738.453
12737.425
12736.112
12734.43
12732.268
12729.502
12725.944
12721.238
12715.394
12710.049
12699.832
12778.027
12778.026
12778.026
12778.025
12778.025
12778.024
12778.023
12778.022
12778.021
12778.02
12778.019
12778.017
12778.015
12778.013
12778.01
12778.008
12778.004
12778
12777.995
12777.99
12777.983
12777.976
12777.968
12777.959
12777.95
12777.941
12777.933
12777.927
12777.925
12777.929
12777.94
12777.961
12777.996
12778.046
12778.115
12778.21
12778.336
12778.496
12778.694
12778.935
12779.228
12779.581
12780.009
12780.524
12781.141
12781.876
12782.743
12783.755
12784.927
12786.276
12787.818
12789.572
12791.554
12793.778
12796.252
12798.979
12801.953
12805.165
12808.595
12812.236
12816.076
12820.068
12824.591
12830.427
12834.823
12812.802
12812.802
12812.801
12812.8
12812.8
12812.799
12812.798
12812.797
12812.796
12812.795
12812.793
12812.792
12812.79
12812.788
12812.785
12812.782
12812.779
12812.775
12812.77
12812.765
12812.76
12812.754
12812.748
12812.742
12812.738
12812.735
12812.736
12812.743
12812.759
12812.788
12812.832
12812.896
12812.987
12813.11
12813.274
12813.489
12813.766
12814.116
12814.55
12815.084
12815.736
12816.525
12817.478
12818.622
12819.987
12821.605
12823.507
12825.73
12828.313
12831.299
12834.739
12838.683
12843.187
12848.304
12854.092
12860.611
12867.919
12876.085
12885.18
12895.309
12906.592
12919.213
12933.609
12950.252
12968.843
12847.36
12847.36
12847.359
12847.358
12847.358
12847.357
12847.356
12847.356
12847.355
12847.354
12847.352
12847.351
12847.349
12847.348
12847.346
12847.344
12847.341
12847.339
12847.335
12847.333
12847.329
12847.327
12847.324
12847.323
12847.325
12847.331
12847.343
12847.364
12847.398
12847.45
12847.525
12847.631
12847.776
12847.972
12848.229
12848.563
12848.989
12849.526
12850.195
12851.018
12852.024
12853.246
12854.721
12856.491
12858.6
12861.095
12864.028
12867.458
12871.447
12876.07
12881.405
12887.541
12894.568
12902.583
12911.691
12922.009
12933.66
12946.789
12961.555
12978.163
12996.849
13017.952
13041.984
13069.555
13101.527
12881.537
12881.536
12881.536
12881.535
12881.535
12881.534
12881.533
12881.533
12881.532
12881.531
12881.531
12881.53
12881.529
12881.529
12881.528
12881.527
12881.526
12881.526
12881.526
12881.526
12881.527
12881.529
12881.532
12881.538
12881.548
12881.564
12881.588
12881.626
12881.68
12881.759
12881.868
12882.019
12882.221
12882.49
12882.84
12883.292
12883.867
12884.59
12885.49
12886.6
12887.959
12889.609
12891.603
12893.992
12896.837
12900.202
12904.157
12908.783
12914.171
12920.42
12927.642
12935.956
12945.492
12956.391
12968.805
12982.905
12998.88
13016.944
13037.341
13060.373
13086.387
13115.854
13149.401
13187.836
13232.345
12915.201
12915.2
12915.2
12915.2
12915.199
12915.199
12915.198
12915.198
12915.198
12915.197
12915.197
12915.198
12915.198
12915.198
12915.199
12915.2
12915.202
12915.204
12915.207
12915.211
12915.216
12915.223
12915.233
12915.247
12915.266
12915.294
12915.333
12915.389
12915.466
12915.574
12915.721
12915.919
12916.181
12916.523
12916.968
12917.538
12918.261
12919.17
12920.3
12921.695
12923.402
12925.477