/*--------------------------------*- C++ -*----------------------------------*\
  =========                 |
  \\      /  F ield         | OpenFOAM: The Open Source CFD Toolbox
   \\    /   O peration     | Website:  https://openfoam.org
    \\  /    A nd           | Version:  13
     \\/     M anipulation  |
\*---------------------------------------------------------------------------*/
FoamFile
{
    format      ascii;
    class       volScalarField;
    location    "3900";
    object      epsilon;
}
// * * * * * * * * * * * * * * * * * * * * * * * * * * * * * * * * * * * * * //

dimensions      [0 2 -3 0 0 0 0];

internalField   nonuniform List<scalar> 
25000
(
0.0027966
0.00279517
0.00279309
0.00279081
0.00278876
0.00278713
0.00278593
0.00278511
0.00278459
0.00278431
0.00278427
0.00278442
0.00278476
0.00278527
0.00278594
0.00278675
0.0027877
0.00278876
0.00278993
0.00279117
0.00279248
0.00279384
0.00279522
0.0027966
0.00279797
0.0027993
0.00280058
0.00280179
0.0028029
0.0028039
0.00280478
0.00280553
0.00280612
0.00280655
0.00280681
0.0028069
0.00280681
0.00280655
0.00280611
0.0028055
0.00280474
0.00280384
0.00280282
0.00280173
0.00280063
0.0027996
0.00279874
0.00279817
0.00279782
0.00279738
0.0159755
0.0159665
0.0159532
0.0159387
0.0159257
0.0159153
0.0159077
0.0159024
0.0158991
0.0158974
0.015897
0.015898
0.0159001
0.0159034
0.0159076
0.0159128
0.0159188
0.0159256
0.015933
0.0159409
0.0159492
0.0159578
0.0159666
0.0159754
0.0159841
0.0159926
0.0160007
0.0160084
0.0160155
0.0160219
0.0160274
0.0160322
0.016036
0.0160387
0.0160404
0.016041
0.0160404
0.0160387
0.0160359
0.0160321
0.0160272
0.0160215
0.0160151
0.0160081
0.0160011
0.0159945
0.0159891
0.0159855
0.0159833
0.0159806
0.0285995
0.0285828
0.028559
0.0285329
0.0285097
0.0284912
0.0284778
0.0284686
0.0284629
0.0284601
0.02846
0.0284622
0.0284666
0.0284729
0.0284812
0.0284911
0.0285025
0.0285153
0.0285292
0.0285441
0.0285596
0.0285756
0.0285919
0.0286081
0.0286241
0.0286397
0.0286545
0.0286684
0.0286812
0.0286927
0.0287026
0.0287111
0.0287176
0.0287222
0.0287249
0.0287255
0.028724
0.0287204
0.0287149
0.0287074
0.0286981
0.0286872
0.028675
0.028662
0.0286488
0.0286365
0.0286262
0.0286191
0.0286145
0.0286091
0.0388755
0.0388513
0.0388199
0.0387857
0.0387559
0.0387323
0.0387156
0.0387046
0.0386983
0.0386964
0.0386981
0.0387031
0.0387112
0.0387221
0.0387355
0.0387514
0.0387692
0.0387889
0.03881
0.0388323
0.0388553
0.0388787
0.0389022
0.0389255
0.0389482
0.03897
0.0389905
0.0390094
0.0390265
0.0390416
0.0390544
0.0390647
0.0390722
0.0390769
0.0390787
0.0390776
0.0390735
0.0390665
0.0390567
0.0390443
0.0390294
0.0390124
0.0389936
0.038974
0.038954
0.0389354
0.0389194
0.0389077
0.038899
0.0388902
0.0444971
0.0444675
0.0444334
0.044397
0.044366
0.0443421
0.0443258
0.0443158
0.0443114
0.0443121
0.0443172
0.0443264
0.0443391
0.0443553
0.0443743
0.0443962
0.0444203
0.0444465
0.044474
0.0445027
0.0445319
0.0445613
0.0445904
0.0446188
0.044646
0.0446717
0.0446954
0.0447169
0.0447358
0.0447519
0.0447651
0.0447749
0.0447809
0.0447835
0.0447825
0.044778
0.0447698
0.0447582
0.0447432
0.0447253
0.0447045
0.0446816
0.0446567
0.0446311
0.0446052
0.0445811
0.0445594
0.0445428
0.044529
0.0445164
0.0456126
0.0455809
0.0455474
0.0455122
0.0454832
0.0454613
0.045447
0.045439
0.0454369
0.0454403
0.0454482
0.0454606
0.0454767
0.0454964
0.0455191
0.0455448
0.0455727
0.0456026
0.0456337
0.0456659
0.0456983
0.0457306
0.0457623
0.0457928
0.0458218
0.0458488
0.0458733
0.0458951
0.0459138
0.0459294
0.0459415
0.0459497
0.0459536
0.0459539
0.0459501
0.0459426
0.0459311
0.045916
0.0458974
0.0458758
0.0458512
0.0458247
0.0457963
0.0457674
0.0457383
0.0457111
0.0456862
0.0456664
0.0456491
0.0456344
0.0442413
0.0442098
0.0441778
0.0441446
0.0441177
0.0440978
0.0440852
0.0440787
0.0440782
0.0440831
0.0440924
0.0441062
0.0441236
0.0441446
0.0441686
0.0441954
0.0442244
0.0442553
0.0442874
0.0443203
0.0443533
0.044386
0.0444179
0.0444486
0.0444774
0.044504
0.044528
0.0445492
0.0445671
0.0445816
0.0445926
0.0445995
0.044602
0.0446008
0.0445956
0.0445865
0.0445735
0.0445569
0.0445368
0.0445138
0.0444881
0.0444605
0.0444311
0.0444014
0.0443715
0.0443436
0.044318
0.0442972
0.0442789
0.0442635
0.0420061
0.041976
0.0419453
0.0419139
0.0418885
0.04187
0.0418585
0.0418529
0.041853
0.0418584
0.041868
0.041882
0.0418995
0.0419204
0.0419442
0.0419707
0.0419993
0.0420297
0.0420611
0.0420933
0.0421255
0.0421575
0.0421885
0.0422182
0.0422461
0.0422718
0.0422949
0.042315
0.042332
0.0423457
0.0423558
0.0423619
0.0423638
0.042362
0.0423562
0.0423467
0.0423334
0.0423166
0.0422965
0.0422736
0.0422481
0.0422208
0.042192
0.0421628
0.0421335
0.0421062
0.0420811
0.0420607
0.0420428
0.0420276
0.0396664
0.0396378
0.0396082
0.0395782
0.039554
0.0395364
0.0395255
0.0395204
0.0395208
0.0395262
0.0395357
0.0395493
0.0395662
0.0395865
0.0396095
0.0396351
0.0396626
0.0396919
0.0397221
0.0397531
0.0397841
0.0398148
0.0398445
0.039873
0.0398997
0.0399243
0.0399464
0.0399657
0.0399818
0.0399948
0.0400043
0.0400099
0.0400115
0.0400095
0.0400037
0.0399943
0.0399813
0.039965
0.0399454
0.0399233
0.0398986
0.0398723
0.0398444
0.0398163
0.0397882
0.039762
0.0397379
0.0397183
0.0397013
0.0396869
0.0374823
0.0374552
0.0374266
0.0373977
0.0373743
0.0373575
0.0373471
0.0373423
0.0373427
0.0373479
0.037357
0.0373701
0.0373863
0.0374057
0.0374277
0.0374522
0.0374786
0.0375066
0.0375355
0.0375651
0.0375948
0.0376241
0.0376526
0.0376799
0.0377054
0.037729
0.0377501
0.0377685
0.0377839
0.0377963
0.0378053
0.0378106
0.0378121
0.0378102
0.0378046
0.0377955
0.0377829
0.0377672
0.0377485
0.0377272
0.0377036
0.0376784
0.0376517
0.0376248
0.0375979
0.0375728
0.0375499
0.0375313
0.0375154
0.0375017
0.0355141
0.0354885
0.0354607
0.0354328
0.0354102
0.0353939
0.0353838
0.0353792
0.0353796
0.0353846
0.0353933
0.0354058
0.0354213
0.0354398
0.0354608
0.0354843
0.0355095
0.0355362
0.0355639
0.0355922
0.0356206
0.0356486
0.0356759
0.035702
0.0357265
0.035749
0.0357692
0.0357869
0.0358017
0.0358135
0.0358222
0.0358273
0.0358287
0.0358269
0.0358215
0.0358129
0.0358008
0.0357858
0.0357679
0.0357475
0.0357249
0.0357008
0.0356753
0.0356496
0.0356239
0.0355998
0.035578
0.0355604
0.0355455
0.0355325
0.0337563
0.0337319
0.033705
0.0336778
0.0336559
0.0336401
0.0336303
0.0336259
0.0336262
0.033631
0.0336393
0.0336512
0.033666
0.0336837
0.0337038
0.0337262
0.0337503
0.0337759
0.0338024
0.0338295
0.0338567
0.0338836
0.0339097
0.0339347
0.0339582
0.0339798
0.0339992
0.0340162
0.0340304
0.0340418
0.0340502
0.0340551
0.0340566
0.0340548
0.0340497
0.0340414
0.03403
0.0340156
0.0339984
0.033979
0.0339573
0.0339342
0.0339098
0.0338852
0.0338606
0.0338376
0.0338168
0.0338001
0.0337861
0.0337738
0.0321854
0.0321621
0.0321359
0.0321095
0.0320881
0.0320728
0.0320633
0.032059
0.0320593
0.0320638
0.0320717
0.0320831
0.0320972
0.0321142
0.0321334
0.0321549
0.032178
0.0322025
0.0322279
0.0322539
0.03228
0.0323058
0.0323309
0.032355
0.0323775
0.0323983
0.032417
0.0324334
0.0324471
0.0324581
0.0324662
0.0324709
0.0324724
0.0324708
0.032466
0.032458
0.0324471
0.0324333
0.0324169
0.0323982
0.0323775
0.0323553
0.0323319
0.0323083
0.0322847
0.0322626
0.0322427
0.0322268
0.0322137
0.032202
0.030776
0.0307537
0.0307282
0.0307025
0.0306817
0.0306668
0.0306575
0.0306533
0.0306535
0.0306578
0.0306653
0.0306762
0.0306898
0.030706
0.0307245
0.0307451
0.0307673
0.0307909
0.0308153
0.0308403
0.0308653
0.0308902
0.0309143
0.0309375
0.0309592
0.0309793
0.0309973
0.0310131
0.0310263
0.031037
0.0310448
0.0310494
0.0310509
0.0310494
0.0310448
0.0310373
0.0310268
0.0310136
0.0309978
0.0309799
0.03096
0.0309387
0.0309163
0.0308935
0.0308708
0.0308496
0.0308306
0.0308154
0.030803
0.0307919
0.0295056
0.0294841
0.0294592
0.0294343
0.0294139
0.0293994
0.0293903
0.0293862
0.0293864
0.0293904
0.0293977
0.0294081
0.0294211
0.0294367
0.0294545
0.0294743
0.0294956
0.0295183
0.0295418
0.0295658
0.02959
0.0296139
0.0296372
0.0296595
0.0296805
0.0296999
0.0297173
0.0297325
0.0297454
0.0297557
0.0297633
0.0297678
0.0297693
0.0297679
0.0297636
0.0297563
0.0297463
0.0297336
0.0297185
0.0297013
0.0296821
0.0296616
0.02964
0.0296181
0.0295962
0.0295758
0.0295576
0.0295431
0.0295314
0.0295208
0.0283548
0.0283342
0.0283099
0.0282856
0.0282657
0.0282515
0.0282426
0.0282386
0.0282387
0.0282426
0.0282495
0.0282595
0.028272
0.028287
0.0283042
0.0283232
0.0283438
0.0283656
0.0283883
0.0284115
0.0284348
0.0284579
0.0284804
0.0285019
0.0285222
0.028541
0.0285578
0.0285726
0.028585
0.0285951
0.0286024
0.0286069
0.0286084
0.0286071
0.0286029
0.028596
0.0285863
0.0285742
0.0285596
0.028543
0.0285246
0.0285049
0.028484
0.0284628
0.0284418
0.0284221
0.0284046
0.0283907
0.0283796
0.0283694
0.027308
0.0272881
0.0272644
0.0272406
0.0272212
0.0272073
0.0271987
0.0271947
0.0271948
0.0271984
0.0272051
0.0272147
0.0272268
0.0272412
0.0272577
0.0272761
0.0272959
0.027317
0.0273389
0.0273613
0.0273838
0.0274062
0.0274279
0.0274488
0.0274684
0.0274866
0.0275029
0.0275172
0.0275293
0.027539
0.0275462
0.0275506
0.0275521
0.0275509
0.0275469
0.0275403
0.027531
0.0275193
0.0275053
0.0274893
0.0274715
0.0274525
0.0274323
0.0274119
0.0273916
0.0273726
0.0273557
0.0273423
0.0273317
0.027322
0.026352
0.0263328
0.0263096
0.0262864
0.0262674
0.0262538
0.0262453
0.0262414
0.0262414
0.0262449
0.0262514
0.0262606
0.0262722
0.0262862
0.0263021
0.0263198
0.026339
0.0263594
0.0263805
0.0264022
0.026424
0.0264456
0.0264667
0.0264869
0.0265059
0.0265235
0.0265394
0.0265533
0.026565
0.0265745
0.0265815
0.0265858
0.0265873
0.0265862
0.0265824
0.0265761
0.0265671
0.0265559
0.0265423
0.0265269
0.0265098
0.0264913
0.0264719
0.0264521
0.0264324
0.026414
0.0263977
0.0263849
0.0263748
0.0263655
0.025476
0.0254574
0.0254347
0.025412
0.0253934
0.0253801
0.0253718
0.025368
0.0253679
0.0253713
0.0253774
0.0253864
0.0253976
0.025411
0.0254264
0.0254436
0.0254621
0.0254818
0.0255023
0.0255233
0.0255444
0.0255653
0.0255858
0.0256054
0.0256238
0.0256409
0.0256563
0.0256698
0.0256813
0.0256905
0.0256973
0.0257015
0.0257031
0.0257021
0.0256985
0.0256924
0.0256838
0.0256729
0.0256598
0.0256449
0.0256283
0.0256105
0.0255917
0.0255725
0.0255535
0.0255357
0.0255199
0.0255076
0.025498
0.025489
0.0246708
0.0246529
0.0246307
0.0246084
0.0245902
0.0245772
0.0245691
0.0245653
0.0245652
0.0245684
0.0245743
0.0245829
0.0245938
0.0246068
0.0246217
0.0246383
0.0246562
0.0246753
0.0246952
0.0247155
0.024736
0.0247563
0.0247761
0.0247951
0.0248131
0.0248297
0.0248446
0.0248578
0.024869
0.024878
0.0248846
0.0248887
0.0248903
0.0248894
0.024886
0.0248801
0.0248718
0.0248613
0.0248487
0.0248343
0.0248182
0.024801
0.0247827
0.0247641
0.0247457
0.0247284
0.0247132
0.0247013
0.0246921
0.0246835
0.0239291
0.0239116
0.0238899
0.0238681
0.0238503
0.0238375
0.0238296
0.0238258
0.0238257
0.0238287
0.0238345
0.0238428
0.0238532
0.0238658
0.0238802
0.0238963
0.0239137
0.0239322
0.0239515
0.0239712
0.023991
0.0240108
0.02403
0.0240485
0.024066
0.0240821
0.0240967
0.0241095
0.0241204
0.0241292
0.0241357
0.0241398
0.0241413
0.0241405
0.0241372
0.0241316
0.0241236
0.0241135
0.0241013
0.0240873
0.0240718
0.024055
0.0240373
0.0240193
0.0240014
0.0239847
0.0239699
0.0239584
0.0239496
0.0239413
0.0232442
0.0232272
0.023206
0.0231846
0.0231671
0.0231546
0.0231468
0.0231431
0.023143
0.0231459
0.0231514
0.0231594
0.0231695
0.0231817
0.0231957
0.0232113
0.0232281
0.0232461
0.0232648
0.0232839
0.0233032
0.0233224
0.0233411
0.0233591
0.0233761
0.0233918
0.023406
0.0234185
0.0234291
0.0234377
0.0234441
0.0234481
0.0234497
0.0234489
0.0234458
0.0234404
0.0234327
0.0234229
0.0234111
0.0233975
0.0233825
0.0233662
0.0233491
0.0233316
0.0233142
0.0232979
0.0232836
0.0232725
0.023264
0.023256
0.0226107
0.0225942
0.0225734
0.0225525
0.0225353
0.022523
0.0225153
0.0225117
0.0225115
0.0225143
0.0225196
0.0225273
0.0225372
0.022549
0.0225625
0.0225776
0.022594
0.0226114
0.0226296
0.0226482
0.022667
0.0226856
0.0227038
0.0227213
0.0227378
0.0227532
0.022767
0.0227792
0.0227896
0.022798
0.0228043
0.0228082
0.0228098
0.0228091
0.0228062
0.0228009
0.0227935
0.022784
0.0227726
0.0227595
0.0227449
0.0227291
0.0227124
0.0226954
0.0226785
0.0226627
0.0226488
0.022638
0.0226299
0.0226221
0.0220238
0.0220078
0.0219874
0.0219669
0.0219501
0.021938
0.0219305
0.0219269
0.0219267
0.0219293
0.0219344
0.0219419
0.0219514
0.0219629
0.021976
0.0219907
0.0220066
0.0220235
0.0220412
0.0220593
0.0220775
0.0220957
0.0221134
0.0221304
0.0221466
0.0221615
0.022175
0.0221869
0.0221971
0.0222053
0.0222114
0.0222153
0.022217
0.0222164
0.0222135
0.0222085
0.0222013
0.0221921
0.022181
0.0221683
0.0221541
0.0221388
0.0221226
0.0221061
0.0220896
0.0220743
0.0220608
0.0220504
0.0220425
0.022035
0.0214796
0.0214641
0.021444
0.0214239
0.0214074
0.0213955
0.0213881
0.0213846
0.0213843
0.0213869
0.0213918
0.021399
0.0214083
0.0214194
0.0214321
0.0214464
0.0214618
0.0214783
0.0214954
0.0215131
0.0215308
0.0215485
0.0215657
0.0215824
0.0215981
0.0216127
0.0216259
0.0216375
0.0216474
0.0216555
0.0216615
0.0216654
0.021667
0.0216665
0.0216638
0.0216589
0.021652
0.0216431
0.0216324
0.02162
0.0216063
0.0215914
0.0215756
0.0215595
0.0215435
0.0215285
0.0215154
0.0215053
0.0214978
0.0214905
0.0209745
0.0209593
0.0209396
0.0209199
0.0209037
0.020892
0.0208848
0.0208812
0.0208809
0.0208834
0.0208881
0.0208951
0.0209041
0.0209149
0.0209273
0.0209411
0.0209561
0.0209721
0.0209888
0.021006
0.0210233
0.0210405
0.0210573
0.0210735
0.0210889
0.0211031
0.021116
0.0211274
0.0211371
0.021145
0.0211509
0.0211547
0.0211564
0.021156
0.0211534
0.0211487
0.021142
0.0211334
0.021123
0.021111
0.0210976
0.0210831
0.0210678
0.0210521
0.0210365
0.021022
0.0210092
0.0209994
0.0209921
0.020985
0.0205052
0.0204904
0.0204711
0.0204518
0.0204358
0.0204244
0.0204172
0.0204138
0.0204134
0.0204157
0.0204203
0.0204271
0.0204358
0.0204463
0.0204583
0.0204718
0.0204864
0.020502
0.0205182
0.0205349
0.0205518
0.0205685
0.020585
0.0206008
0.0206158
0.0206297
0.0206423
0.0206534
0.0206629
0.0206707
0.0206765
0.0206803
0.0206819
0.0206816
0.0206791
0.0206746
0.0206681
0.0206598
0.0206497
0.0206381
0.020625
0.020611
0.020596
0.0205808
0.0205656
0.0205514
0.020539
0.0205294
0.0205224
0.0205155
0.0200691
0.0200547
0.0200358
0.0200168
0.0200011
0.0199899
0.0199828
0.0199794
0.019979
0.0199812
0.0199856
0.0199922
0.0200006
0.0200108
0.0200225
0.0200356
0.0200498
0.020065
0.0200808
0.0200971
0.0201135
0.0201299
0.0201459
0.0201614
0.020176
0.0201896
0.0202019
0.0202128
0.0202222
0.0202298
0.0202355
0.0202392
0.0202409
0.0202406
0.0202383
0.020234
0.0202277
0.0202196
0.0202098
0.0201985
0.0201858
0.0201721
0.0201576
0.0201427
0.0201279
0.020114
0.0201019
0.0200927
0.0200859
0.0200792
0.0196638
0.0196497
0.0196312
0.0196125
0.0195971
0.019586
0.0195791
0.0195757
0.0195752
0.0195774
0.0195817
0.019588
0.0195962
0.0196061
0.0196175
0.0196302
0.0196441
0.0196588
0.0196743
0.0196901
0.0197062
0.0197221
0.0197378
0.0197529
0.0197671
0.0197804
0.0197925
0.0198032
0.0198123
0.0198198
0.0198255
0.0198292
0.0198309
0.0198306
0.0198284
0.0198243
0.0198182
0.0198103
0.0198008
0.0197898
0.0197775
0.0197642
0.01975
0.0197355
0.019721
0.0197075
0.0196957
0.0196867
0.0196801
0.0196736
0.0192871
0.0192733
0.0192551
0.0192367
0.0192216
0.0192107
0.0192039
0.0192005
0.0192
0.0192021
0.0192062
0.0192124
0.0192203
0.0192299
0.019241
0.0192534
0.0192669
0.0192813
0.0192963
0.0193118
0.0193274
0.019343
0.0193583
0.019373
0.019387
0.0194
0.0194119
0.0194223
0.0194313
0.0194386
0.0194442
0.0194479
0.0194496
0.0194494
0.0194473
0.0194433
0.0194375
0.0194299
0.0194206
0.0194099
0.0193979
0.0193849
0.0193711
0.019357
0.0193429
0.0193297
0.0193182
0.0193094
0.019303
0.0192967
0.018937
0.0189236
0.0189057
0.0188876
0.0188727
0.018862
0.0188553
0.018852
0.0188515
0.0188534
0.0188574
0.0188634
0.0188711
0.0188804
0.0188912
0.0189032
0.0189164
0.0189304
0.0189451
0.0189602
0.0189755
0.0189907
0.0190056
0.01902
0.0190337
0.0190464
0.019058
0.0190683
0.0190771
0.0190843
0.0190898
0.0190934
0.0190952
0.0190951
0.0190931
0.0190892
0.0190836
0.0190762
0.0190672
0.0190568
0.0190451
0.0190325
0.019019
0.0190052
0.0189914
0.0189785
0.0189673
0.0189588
0.0189526
0.0189464
0.0186119
0.0185987
0.0185812
0.0185634
0.0185488
0.0185382
0.0185316
0.0185283
0.0185277
0.0185296
0.0185334
0.0185392
0.0185467
0.0185558
0.0185663
0.018578
0.0185908
0.0186045
0.0186188
0.0186336
0.0186485
0.0186633
0.0186779
0.018692
0.0187054
0.0187179
0.0187292
0.0187393
0.018748
0.0187551
0.0187605
0.0187641
0.0187659
0.0187658
0.0187639
0.0187602
0.0187547
0.0187476
0.0187389
0.0187288
0.0187174
0.018705
0.0186919
0.0186784
0.018665
0.0186524
0.0186415
0.0186331
0.0186271
0.018621
0.0183101
0.0182973
0.01828
0.0182626
0.0182481
0.0182378
0.0182312
0.0182279
0.0182273
0.0182291
0.0182328
0.0182384
0.0182457
0.0182545
0.0182647
0.0182762
0.0182887
0.018302
0.018316
0.0183304
0.0183449
0.0183595
0.0183737
0.0183875
0.0184006
0.0184128
0.018424
0.0184339
0.0184424
0.0184494
0.0184547
0.0184583
0.0184601
0.0184601
0.0184583
0.0184548
0.0184495
0.0184425
0.018434
0.0184242
0.0184131
0.0184011
0.0183883
0.0183751
0.018362
0.0183497
0.018339
0.0183309
0.018325
0.0183191
0.0180303
0.0180178
0.0180008
0.0179836
0.0179695
0.0179592
0.0179528
0.0179495
0.0179489
0.0179505
0.0179541
0.0179596
0.0179666
0.0179752
0.0179852
0.0179963
0.0180085
0.0180215
0.0180351
0.0180492
0.0180634
0.0180776
0.0180916
0.0181051
0.0181179
0.0181299
0.0181408
0.0181505
0.0181589
0.0181658
0.0181711
0.0181746
0.0181764
0.0181765
0.0181748
0.0181714
0.0181663
0.0181596
0.0181513
0.0181417
0.0181309
0.0181192
0.0181067
0.0180938
0.018081
0.018069
0.0180585
0.0180506
0.0180449
0.0180391
0.0177713
0.0177589
0.0177423
0.0177254
0.0177114
0.0177014
0.017695
0.0176917
0.0176911
0.0176927
0.0176961
0.0177014
0.0177082
0.0177166
0.0177263
0.0177372
0.017749
0.0177617
0.017775
0.0177888
0.0178027
0.0178166
0.0178302
0.0178435
0.017856
0.0178678
0.0178785
0.017888
0.0178962
0.017903
0.0179082
0.0179118
0.0179136
0.0179138
0.0179122
0.0179089
0.0179039
0.0178974
0.0178894
0.0178801
0.0178696
0.0178581
0.0178459
0.0178333
0.0178208
0.017809
0.0177988
0.0177911
0.0177855
0.0177798
0.0175317
0.0175197
0.0175033
0.0174867
0.0174729
0.017463
0.0174567
0.0174535
0.0174528
0.0174543
0.0174576
0.0174627
0.0174694
0.0174775
0.0174869
0.0174976
0.0175091
0.0175215
0.0175345
0.0175479
0.0175615
0.0175751
0.0175885
0.0176014
0.0176138
0.0176253
0.0176358
0.0176452
0.0176533
0.01766
0.0176651
0.0176686
0.0176705
0.0176707
0.0176692
0.0176661
0.0176613
0.0176549
0.0176471
0.0176381
0.0176278
0.0176166
0.0176047
0.0175924
0.0175802
0.0175687
0.0175587
0.0175511
0.0175457
0.0175401
0.0173107
0.0172989
0.0172828
0.0172665
0.0172529
0.0172431
0.0172369
0.0172337
0.017233
0.0172344
0.0172376
0.0172426
0.017249
0.0172569
0.0172661
0.0172764
0.0172877
0.0172998
0.0173125
0.0173256
0.0173389
0.0173522
0.0173653
0.017378
0.0173901
0.0174014
0.0174117
0.0174209
0.0174289
0.0174355
0.0174406
0.0174441
0.017446
0.0174463
0.0174449
0.0174418
0.0174372
0.0174311
0.0174235
0.0174146
0.0174046
0.0173937
0.0173821
0.0173701
0.0173581
0.0173468
0.0173371
0.0173297
0.0173244
0.0173189
0.0171072
0.0170956
0.0170798
0.0170638
0.0170504
0.0170408
0.0170346
0.0170314
0.0170307
0.017032
0.0170351
0.0170399
0.0170462
0.0170539
0.0170628
0.0170729
0.0170839
0.0170957
0.0171081
0.0171209
0.0171339
0.017147
0.0171598
0.0171722
0.0171841
0.0171951
0.0172053
0.0172143
0.0172222
0.0172287
0.0172337
0.0172372
0.0172392
0.0172395
0.0172382
0.0172353
0.0172308
0.0172248
0.0172175
0.0172089
0.0171991
0.0171885
0.0171771
0.0171653
0.0171536
0.0171426
0.0171331
0.0171259
0.0171207
0.0171153
0.0169204
0.0169091
0.0168935
0.0168777
0.0168646
0.0168551
0.016849
0.0168458
0.016845
0.0168462
0.0168492
0.0168539
0.01686
0.0168675
0.0168762
0.016886
0.0168968
0.0169083
0.0169204
0.0169329
0.0169457
0.0169584
0.016971
0.0169831
0.0169948
0.0170056
0.0170156
0.0170245
0.0170323
0.0170387
0.0170437
0.0170472
0.0170491
0.0170495
0.0170483
0.0170455
0.0170411
0.0170354
0.0170282
0.0170198
0.0170103
0.0169999
0.0169888
0.0169773
0.0169659
0.0169551
0.0169458
0.0169387
0.0169336
0.0169284
0.0167495
0.0167384
0.0167231
0.0167075
0.0166946
0.0166852
0.0166792
0.016676
0.0166752
0.0166764
0.0166792
0.0166837
0.0166897
0.0166969
0.0167054
0.016715
0.0167255
0.0167368
0.0167486
0.0167609
0.0167733
0.0167858
0.0167981
0.01681
0.0168214
0.0168321
0.0168419
0.0168507
0.0168583
0.0168646
0.0168696
0.0168731
0.016875
0.0168755
0.0168743
0.0168717
0.0168675
0.0168619
0.0168549
0.0168468
0.0168375
0.0168273
0.0168165
0.0168053
0.016794
0.0167835
0.0167744
0.0167674
0.0167625
0.0167573
0.0165937
0.0165828
0.0165678
0.0165525
0.0165397
0.0165305
0.0165245
0.0165213
0.0165205
0.0165216
0.0165244
0.0165287
0.0165345
0.0165415
0.0165498
0.0165591
0.0165694
0.0165804
0.016592
0.0166039
0.0166161
0.0166284
0.0166404
0.0166521
0.0166633
0.0166738
0.0166834
0.0166921
0.0166996
0.0167058
0.0167107
0.0167142
0.0167162
0.0167167
0.0167156
0.0167131
0.0167091
0.0167036
0.0166969
0.0166889
0.0166799
0.01667
0.0166594
0.0166484
0.0166374
0.0166271
0.0166181
0.0166113
0.0166065
0.0166014
0.0164524
0.0164418
0.016427
0.0164119
0.0163993
0.0163902
0.0163843
0.0163811
0.0163802
0.0163813
0.0163839
0.0163881
0.0163937
0.0164006
0.0164087
0.0164178
0.0164278
0.0164385
0.0164498
0.0164615
0.0164735
0.0164854
0.0164973
0.0165087
0.0165197
0.01653
0.0165395
0.016548
0.0165554
0.0165616
0.0165665
0.0165699
0.0165719
0.0165725
0.0165715
0.0165691
0.0165652
0.0165599
0.0165534
0.0165456
0.0165368
0.0165271
0.0165168
0.016506
0.0164953
0.0164851
0.0164764
0.0164698
0.016465
0.01646
0.016325
0.0163145
0.0163
0.0162852
0.0162727
0.0162637
0.0162579
0.0162548
0.0162538
0.0162548
0.0162573
0.0162614
0.0162668
0.0162735
0.0162814
0.0162903
0.0163
0.0163105
0.0163216
0.016333
0.0163447
0.0163564
0.016368
0.0163793
0.0163901
0.0164002
0.0164095
0.0164179
0.0164252
0.0164313
0.0164361
0.0164396
0.0164416
0.0164422
0.0164413
0.016439
0.0164353
0.0164302
0.0164238
0.0164162
0.0164076
0.0163982
0.0163881
0.0163776
0.016367
0.0163571
0.0163485
0.016342
0.0163374
0.0163324
0.0162109
0.0162006
0.0161863
0.0161717
0.0161595
0.0161506
0.0161448
0.0161417
0.0161407
0.0161416
0.016144
0.016148
0.0161532
0.0161597
0.0161674
0.016176
0.0161856
0.0161958
0.0162066
0.0162178
0.0162293
0.0162408
0.0162521
0.0162632
0.0162738
0.0162837
0.0162929
0.0163011
0.0163083
0.0163144
0.0163192
0.0163226
0.0163247
0.0163253
0.0163245
0.0163223
0.0163187
0.0163138
0.0163076
0.0163002
0.0162918
0.0162826
0.0162727
0.0162624
0.0162521
0.0162424
0.016234
0.0162276
0.0162231
0.0162182
0.0161095
0.0160994
0.0160854
0.016071
0.0160589
0.0160501
0.0160444
0.0160413
0.0160403
0.0160411
0.0160435
0.0160473
0.0160524
0.0160587
0.0160661
0.0160746
0.0160839
0.0160939
0.0161045
0.0161155
0.0161266
0.0161379
0.016149
0.0161599
0.0161703
0.0161801
0.0161891
0.0161972
0.0162043
0.0162103
0.0162151
0.0162185
0.0162206
0.0162213
0.0162206
0.0162185
0.016215
0.0162102
0.0162042
0.016197
0.0161889
0.0161798
0.0161702
0.0161601
0.01615
0.0161405
0.0161323
0.016126
0.0161216
0.0161167
0.0160204
0.0160106
0.0159968
0.0159826
0.0159707
0.015962
0.0159563
0.0159532
0.0159522
0.0159529
0.0159552
0.0159589
0.0159638
0.01597
0.0159772
0.0159854
0.0159945
0.0160043
0.0160146
0.0160254
0.0160363
0.0160474
0.0160583
0.0160689
0.0160791
0.0160888
0.0160976
0.0161057
0.0161127
0.0161186
0.0161233
0.0161267
0.0161288
0.0161296
0.016129
0.016127
0.0161236
0.016119
0.0161131
0.0161062
0.0160982
0.0160894
0.01608
0.0160701
0.0160602
0.0160509
0.0160428
0.0160367
0.0160323
0.0160275
0.0159432
0.0159336
0.01592
0.015906
0.0158943
0.0158857
0.0158801
0.015877
0.0158759
0.0158766
0.0158787
0.0158823
0.0158871
0.0158931
0.0159001
0.0159081
0.015917
0.0159266
0.0159367
0.0159472
0.0159579
0.0159687
0.0159794
0.0159899
0.0159999
0.0160094
0.0160181
0.016026
0.0160329
0.0160388
0.0160435
0.0160469
0.016049
0.0160498
0.0160493
0.0160474
0.0160442
0.0160397
0.016034
0.0160272
0.0160195
0.0160109
0.0160016
0.015992
0.0159823
0.0159732
0.0159653
0.0159593
0.015955
0.0159502
0.0158775
0.015868
0.0158546
0.0158408
0.0158293
0.0158208
0.0158152
0.0158121
0.0158111
0.0158116
0.0158137
0.0158171
0.0158218
0.0158276
0.0158344
0.0158423
0.0158509
0.0158603
0.0158701
0.0158804
0.0158909
0.0159015
0.015912
0.0159223
0.0159321
0.0159414
0.0159501
0.0159578
0.0159647
0.0159705
0.0159751
0.0159786
0.0159807
0.0159816
0.0159811
0.0159793
0.0159762
0.0159719
0.0159664
0.0159598
0.0159522
0.0159438
0.0159348
0.0159254
0.0159159
0.0159069
0.0158992
0.0158933
0.015889
0.0158844
0.0158227
0.0158134
0.0158003
0.0157867
0.0157754
0.015767
0.0157615
0.0157584
0.0157572
0.0157578
0.0157597
0.015763
0.0157675
0.0157732
0.0157798
0.0157875
0.0157959
0.015805
0.0158147
0.0158247
0.015835
0.0158454
0.0158557
0.0158658
0.0158755
0.0158846
0.0158931
0.0159008
0.0159076
0.0159133
0.0159179
0.0159213
0.0159235
0.0159244
0.015924
0.0159224
0.0159194
0.0159152
0.0159098
0.0159034
0.015896
0.0158879
0.015879
0.0158698
0.0158605
0.0158518
0.0158441
0.0158384
0.0158342
0.0158295
0.0157788
0.0157696
0.0157567
0.0157434
0.0157321
0.0157238
0.0157184
0.0157153
0.0157141
0.0157146
0.0157164
0.0157196
0.015724
0.0157294
0.0157359
0.0157434
0.0157516
0.0157605
0.01577
0.0157798
0.0157899
0.0158001
0.0158102
0.01582
0.0158296
0.0158386
0.0158469
0.0158545
0.0158612
0.0158669
0.0158715
0.0158749
0.0158771
0.0158781
0.0158777
0.0158762
0.0158733
0.0158693
0.0158641
0.0158578
0.0158506
0.0158426
0.015834
0.015825
0.0158159
0.0158073
0.0157998
0.0157942
0.0157901
0.0157855
0.0157451
0.0157362
0.0157235
0.0157103
0.0156992
0.0156911
0.0156856
0.0156826
0.0156814
0.0156817
0.0156835
0.0156866
0.0156908
0.0156961
0.0157024
0.0157097
0.0157177
0.0157264
0.0157356
0.0157453
0.0157551
0.0157651
0.015775
0.0157847
0.0157941
0.015803
0.0158112
0.0158187
0.0158253
0.0158309
0.0158355
0.0158389
0.0158411
0.0158421
0.0158419
0.0158404
0.0158377
0.0158338
0.0158287
0.0158227
0.0158156
0.0158078
0.0157994
0.0157906
0.0157817
0.0157733
0.0157659
0.0157604
0.0157563
0.0157518
0.0157216
0.0157128
0.0157003
0.0156874
0.0156765
0.0156684
0.015663
0.0156599
0.0156587
0.015659
0.0156607
0.0156636
0.0156677
0.0156729
0.015679
0.0156861
0.0156939
0.0157024
0.0157114
0.0157208
0.0157305
0.0157403
0.01575
0.0157595
0.0157687
0.0157775
0.0157856
0.0157929
0.0157995
0.0158051
0.0158096
0.015813
0.0158153
0.0158163
0.0158162
0.0158148
0.0158122
0.0158084
0.0158035
0.0157976
0.0157908
0.0157832
0.0157749
0.0157663
0.0157576
0.0157493
0.0157421
0.0157367
0.0157327
0.0157282
0.0157079
0.0156993
0.015687
0.0156743
0.0156635
0.0156555
0.0156502
0.0156471
0.0156458
0.0156461
0.0156477
0.0156505
0.0156544
0.0156594
0.0156654
0.0156723
0.0156799
0.0156882
0.015697
0.0157062
0.0157157
0.0157253
0.0157348
0.0157442
0.0157532
0.0157618
0.0157698
0.0157771
0.0157835
0.0157891
0.0157936
0.015797
0.0157993
0.0158004
0.0158003
0.015799
0.0157965
0.0157929
0.0157882
0.0157824
0.0157758
0.0157683
0.0157603
0.0157518
0.0157433
0.0157352
0.0157282
0.0157228
0.0157189
0.0157144
0.0157038
0.0156953
0.0156832
0.0156707
0.0156601
0.0156522
0.0156469
0.0156438
0.0156425
0.0156427
0.0156442
0.0156469
0.0156507
0.0156555
0.0156613
0.015668
0.0156755
0.0156836
0.0156922
0.0157012
0.0157105
0.0157199
0.0157292
0.0157384
0.0157473
0.0157558
0.0157636
0.0157708
0.0157772
0.0157827
0.0157872
0.0157906
0.0157929
0.0157941
0.015794
0.0157928
0.0157905
0.015787
0.0157824
0.0157768
0.0157703
0.0157631
0.0157552
0.015747
0.0157386
0.0157307
0.0157238
0.0157185
0.0157146
0.0157101
0.015709
0.0157007
0.0156888
0.0156764
0.0156659
0.0156581
0.0156529
0.0156498
0.0156485
0.0156486
0.01565
0.0156526
0.0156563
0.015661
0.0156666
0.0156731
0.0156804
0.0156883
0.0156967
0.0157055
0.0157146
0.0157238
0.015733
0.015742
0.0157507
0.0157591
0.0157668
0.0157739
0.0157802
0.0157857
0.0157901
0.0157935
0.0157959
0.0157971
0.0157971
0.015796
0.0157938
0.0157904
0.015786
0.0157806
0.0157743
0.0157672
0.0157595
0.0157514
0.0157433
0.0157355
0.0157287
0.0157235
0.0157197
0.0157153
0.0157233
0.0157151
0.0157034
0.0156913
0.0156809
0.0156732
0.015668
0.0156649
0.0156635
0.0156636
0.0156649
0.0156674
0.0156709
0.0156755
0.015681
0.0156873
0.0156944
0.0157021
0.0157103
0.0157189
0.0157278
0.0157368
0.0157458
0.0157547
0.0157633
0.0157715
0.0157791
0.0157861
0.0157924
0.0157978
0.0158022
0.0158056
0.015808
0.0158093
0.0158094
0.0158084
0.0158062
0.015803
0.0157987
0.0157934
0.0157873
0.0157804
0.0157729
0.015765
0.015757
0.0157494
0.0157428
0.0157377
0.0157339
0.0157295
0.0157464
0.0157385
0.015727
0.015715
0.0157048
0.0156972
0.015692
0.0156889
0.0156875
0.0156875
0.0156887
0.0156911
0.0156945
0.0156989
0.0157042
0.0157104
0.0157173
0.0157248
0.0157328
0.0157413
0.01575
0.0157588
0.0157676
0.0157763
0.0157848
0.0157929
0.0158004
0.0158073
0.0158135
0.0158188
0.0158232
0.0158267
0.0158291
0.0158304
0.0158306
0.0158296
0.0158276
0.0158245
0.0158204
0.0158153
0.0158093
0.0158026
0.0157953
0.0157875
0.0157797
0.0157722
0.0157657
0.0157607
0.015757
0.0157526
0.0157783
0.0157705
0.0157592
0.0157474
0.0157374
0.0157298
0.0157247
0.0157216
0.0157202
0.0157201
0.0157212
0.0157235
0.0157268
0.015731
0.0157362
0.0157422
0.0157489
0.0157562
0.0157641
0.0157723
0.0157808
0.0157895
0.0157982
0.0158067
0.015815
0.015823
0.0158304
0.0158372
0.0158433
0.0158486
0.015853
0.0158565
0.0158589
0.0158602
0.0158605
0.0158597
0.0158577
0.0158547
0.0158508
0.0158458
0.01584
0.0158335
0.0158263
0.0158188
0.0158111
0.0158038
0.0157974
0.0157925
0.0157888
0.0157844
0.0158188
0.0158111
0.0158
0.0157884
0.0157785
0.015771
0.0157659
0.0157628
0.0157614
0.0157612
0.0157623
0.0157645
0.0157676
0.0157717
0.0157767
0.0157825
0.0157891
0.0157962
0.0158039
0.0158119
0.0158203
0.0158288
0.0158373
0.0158457
0.0158538
0.0158616
0.015869
0.0158757
0.0158818
0.015887
0.0158914
0.0158948
0.0158973
0.0158987
0.015899
0.0158983
0.0158964
0.0158936
0.0158897
0.0158849
0.0158793
0.0158729
0.015866
0.0158586
0.0158511
0.0158439
0.0158376
0.0158328
0.0158291
0.0158248
0.0158676
0.0158601
0.0158492
0.0158378
0.015828
0.0158206
0.0158155
0.0158125
0.0158109
0.0158108
0.0158117
0.0158138