/*--------------------------------*- C++ -*----------------------------------*\
  =========                 |
  \\      /  F ield         | OpenFOAM: The Open Source CFD Toolbox
   \\    /   O peration     | Website:  https://openfoam.org
    \\  /    A nd           | Version:  13
     \\/     M anipulation  |
\*---------------------------------------------------------------------------*/
FoamFile
{
    format      ascii;
    class       volVectorField;
    location    "3900";
    object      wallShearStress;
}
// * * * * * * * * * * * * * * * * * * * * * * * * * * * * * * * * * * * * * //

dimensions      [0 2 -2 0 0 0 0];

internalField   uniform (0 0 0);

boundaryField
{
    movingWall
    {
        type            calculated;
        value           nonuniform List<vector> 
50
(
(0.120277 -3.33665e-07 0)
(0.120193 -3.59107e-07 0)
(0.120102 -3.87845e-07 0)
(0.120002 -4.04206e-07 0)
(0.119897 -4.22786e-07 0)
(0.119786 -4.30082e-07 0)
(0.119672 -4.35969e-07 0)
(0.119556 -4.31587e-07 0)
(0.119439 -4.22665e-07 0)
(0.119324 -4.03662e-07 0)
(0.119213 -3.78367e-07 0)
(0.119109 -3.44252e-07 0)
(0.119011 -3.01787e-07 0)
(0.118925 -2.44428e-07 0)
(0.118853 -1.99325e-07 0)
(0.118791 -1.46523e-07 0)
(0.118744 -8.27263e-08 0)
(0.118713 -1.27298e-08 0)
(0.1187 5.81914e-08 0)
(0.118706 1.16645e-07 0)
(0.118727 1.92582e-07 0)
(0.118768 2.56053e-07 0)
(0.118826 3.07288e-07 0)
(0.118897 3.56396e-07 0)
(0.118983 3.96246e-07 0)
(0.11908 4.27304e-07 0)
(0.119187 4.46414e-07 0)
(0.119299 4.56892e-07 0)
(0.119417 4.58978e-07 0)
(0.119536 4.52596e-07 0)
(0.119655 4.38881e-07 0)
(0.119773 4.18215e-07 0)
(0.119886 3.92196e-07 0)
(0.119994 3.61644e-07 0)
(0.120096 3.28124e-07 0)
(0.120189 2.91508e-07 0)
(0.120274 2.53421e-07 0)
(0.12035 2.14724e-07 0)
(0.120417 1.67743e-07 0)
(0.120469 1.06353e-07 0)
(0.120509 7.52643e-08 0)
(0.120539 3.14647e-08 0)
(0.120559 -2.1543e-08 0)
(0.120561 -6.49932e-08 0)
(0.120555 -9.20266e-08 0)
(0.120538 -1.50757e-07 0)
(0.120506 -1.89725e-07 0)
(0.120464 -2.25508e-07 0)
(0.120413 -2.58187e-07 0)
(0.12035 -2.99982e-07 0)
)
;
    }
    bottomWall
    {
        type            calculated;
        value           nonuniform List<vector> 
50
(
(-0.000512211 1.12228e-07 0)
(-0.000512031 2.37393e-10 0)
(-0.000511865 1.80424e-10 0)
(-0.000511689 1.48806e-10 0)
(-0.000511545 9.43923e-11 0)
(-0.00051143 5.18108e-11 0)
(-0.000511353 4.78549e-12 0)
(-0.000511303 -4.45692e-11 0)
(-0.000511282 -8.88723e-11 0)
(-0.000511289 -1.38907e-10 0)
(-0.000511319 -1.76086e-10 0)
(-0.000511372 -2.16608e-10 0)
(-0.000511444 -2.44855e-10 0)
(-0.000511535 -2.77005e-10 0)
(-0.00051164 -2.98552e-10 0)
(-0.000511762 -3.21151e-10 0)
(-0.000511894 -3.32831e-10 0)
(-0.000512038 -3.43102e-10 0)
(-0.000512188 -3.43301e-10 0)
(-0.000512343 -3.41115e-10 0)
(-0.000512501 -3.3047e-10 0)
(-0.000512659 -3.16801e-10 0)
(-0.000512813 -2.96439e-10 0)
(-0.000512963 -2.72823e-10 0)
(-0.000513106 -2.44168e-10 0)
(-0.00051324 -2.12538e-10 0)
(-0.000513362 -1.77834e-10 0)
(-0.000513472 -1.40694e-10 0)
(-0.000513568 -1.03698e-10 0)
(-0.000513649 -6.45205e-11 0)
(-0.000513716 -2.43391e-11 0)
(-0.000513765 2.14159e-11 0)
(-0.000513794 6.32539e-11 0)
(-0.000513805 1.03313e-10 0)
(-0.000513798 1.38469e-10 0)
(-0.000513774 1.78043e-10 0)
(-0.00051373 2.08246e-10 0)
(-0.00051367 2.44107e-10 0)
(-0.000513591 2.65397e-10 0)
(-0.000513498 2.94191e-10 0)
(-0.000513387 3.02402e-10 0)
(-0.000513266 3.2158e-10 0)
(-0.000513133 3.13841e-10 0)
(-0.000512998 3.23922e-10 0)
(-0.000512856 2.97841e-10 0)
(-0.000512726 3.0445e-10 0)
(-0.000512598 2.61089e-10 0)
(-0.000512496 2.70485e-10 0)
(-0.000512398 2.13572e-10 0)
(-0.000512315 2.29553e-10 0)
)
;
    }
    cyc_half0
    {
        type            cyclic;
    }
    cyc_half1
    {
        type            cyclic;
    }
    frontAndBack
    {
        type            empty;
    }
}


// ************************************************************************* //
