/*--------------------------------*- C++ -*----------------------------------*\
  =========                 |
  \\      /  F ield         | OpenFOAM: The Open Source CFD Toolbox
   \\    /   O peration     | Website:  https://openfoam.org
    \\  /    A nd           | Version:  13
     \\/     M anipulation  |
\*---------------------------------------------------------------------------*/
FoamFile
{
    format      ascii;
    class       volSymmTensorField;
    location    "16.299655";
    object      UPrime2Mean;
}
// * * * * * * * * * * * * * * * * * * * * * * * * * * * * * * * * * * * * * //

dimensions      [0 2 -2 0 0 0 0];

internalField   nonuniform List<symmTensor> 
17140
(
(5.136068e-12 -3.0840056e-10 -3.4289853e-27 1.9287927e-08 5.3607282e-26 1.8421489e-40)
(3.4216653e-10 -6.435089e-09 -1.8626629e-27 1.8258932e-07 1.150378e-26 1.5797886e-42)
(2.7337819e-09 -2.9289473e-08 3.2534012e-25 5.5125871e-07 -1.2104275e-24 6.8842452e-39)
(1.2206089e-08 -8.6722002e-08 -7.2445872e-25 1.1791925e-06 1.8604483e-24 8.3158731e-39)
(3.9617028e-08 -2.0428247e-07 1.4886936e-25 2.1289213e-06 -2.8544809e-25 1.1358027e-40)
(1.0635889e-07 -4.1922547e-07 -7.8667684e-25 3.4716126e-06 1.1803748e-24 1.2156742e-39)
(2.5163131e-07 -7.8394323e-07 -2.0227076e-24 5.2864835e-06 2.4428124e-24 3.4424892e-39)
(5.4361391e-07 -1.3701202e-06 1.4492546e-24 7.659336e-06 -1.4352756e-24 8.1956267e-40)
(1.0963149e-06 -2.2735243e-06 6.7567784e-24 1.0679859e-05 -5.5621835e-24 8.7681783e-39)
(2.0942813e-06 -3.6190544e-06 2.3058076e-23 1.4437365e-05 -1.5935687e-23 5.2659024e-38)
(3.8278812e-06 -5.5654952e-06 -4.6682045e-23 1.9014583e-05 2.7292206e-23 1.1554664e-37)
(6.7423357e-06 -8.3091722e-06 5.5924919e-23 2.4479271e-05 -2.7823134e-23 9.1531824e-38)
(1.1503844e-05 -1.2085307e-05 1.1358184e-23 3.0873547e-05 -4.8310577e-24 2.1376497e-39)
(1.9085811e-05 -1.7165521e-05 -8.4266877e-23 3.8201245e-05 3.0743673e-23 6.8117076e-38)
(3.0877092e-05 -2.3849741e-05 1.2153436e-23 4.6414162e-05 -3.8138651e-24 8.3585674e-40)
(4.8812061e-05 -3.245091e-05 -1.2392667e-22 5.5398823e-05 3.3512539e-23 5.215982e-38)
(7.5518998e-05 -4.3271714e-05 5.8852303e-24 6.4966343e-05 -1.372411e-24 7.1773965e-41)
(0.00011448003 -5.6574312e-05 -1.6718986e-24 7.4848826e-05 3.3784696e-25 3.5666347e-42)
(0.00017019361 -7.2547049e-05 -1.4866821e-22 8.4706292e-05 2.5877785e-23 1.7782094e-38)
(0.00024833262 -9.1275896e-05 2.3989088e-22 9.4147697e-05 -3.6071345e-23 2.951699e-38)
(0.00035590118 -0.00011273177 -1.4248895e-22 0.0001027678 1.8512872e-23 6.7397888e-39)
(0.00050141036 -0.00013678493 3.3188318e-23 0.00011019816 -3.7223902e-24 2.4092742e-40)
(0.00069518396 -0.00016326231 2.9573397e-22 0.00011616492 -2.8662594e-23 1.2794504e-38)
(0.00095002116 -0.00019206297 -3.5275844e-22 0.00012054068 2.9542065e-23 1.24054e-38)
(0.0012810947 -0.00022318014 -6.6481235e-22 0.00012337734 4.8096724e-23 3.0596701e-38)
(0.0017067861 -0.00025651617 6.2608646e-22 0.00012489824 -3.9133046e-23 1.920985e-38)
(0.0022536506 -0.00029277935 3.5714591e-21 0.00012538576 -1.9285819e-22 4.5051634e-37)
(0.0029547144 -0.0003326489 4.8490116e-22 0.00012509401 -2.2602235e-23 6.0861382e-39)
(0.0038479509 -0.00037572374 -4.8681993e-21 0.00012421289 1.9515717e-22 4.5773861e-37)
(0.0049844896 -0.00042255867 -1.295365e-21 0.00012289918 4.4557418e-23 2.4498932e-38)
(0.0064308655 -0.0004738407 -5.2321596e-21 0.00012125502 1.535765e-22 3.065836e-37)
(0.008269397 -0.00052965619 7.7618253e-21 0.00011934025 -1.9321687e-22 5.2398627e-37)
(0.010600328 -0.00058997753 -2.2714693e-21 0.0001171679 4.7641656e-23 3.521553e-38)
(0.013546662 -0.00065448893 -1.2135871e-21 0.00011471008 2.1217433e-23 7.986628e-39)
(0.017255928 -0.00072250112 -1.3303391e-20 0.00011191372 1.9189895e-22 7.6898488e-37)
(0.02190242 -0.00079287475 6.4808465e-21 0.0001087079 -7.5826286e-23 1.4796468e-37)
(0.027687854 -0.00086385937 -1.0806011e-20 0.00010501133 1.0066313e-22 3.3629363e-37)
(0.034839404 -0.0009329368 -8.055045e-21 0.00010074543 5.7978494e-23 1.5432914e-37)
(0.043603672 -0.00099669153 -4.0436694e-21 9.5861905e-05 2.1525853e-23 3.2422702e-38)
(0.054234655 -0.0010504578 1.3356415e-20 9.0356538e-05 -4.8637211e-23 2.9822782e-37)
(0.066974847 -0.0010884376 2.7327764e-20 8.4308133e-05 -5.8733641e-23 1.0621018e-36)
(0.082028125 -0.0011038063 2.6711144e-20 7.7936486e-05 -2.1350598e-23 8.7279228e-37)
(0.099527602 -0.0010897004 1.247517e-20 7.1636669e-05 5.4339545e-24 1.6567168e-37)
(0.11952379 -0.0010403741 -6.4538918e-20 6.5984794e-05 -1.0065006e-22 3.898958e-36)
(0.14197088 -0.00095316361 -4.9762811e-20 6.1711362e-05 -1.301024e-22 2.0665442e-36)
(0.16675284 -0.00083251098 1.2788664e-20 5.9481942e-05 4.6059518e-23 1.2343936e-37)
(0.19380451 -0.00068367893 -9.0180911e-20 5.9539039e-05 -4.0835673e-22 5.6303602e-36)
(0.22301135 -0.0005097722 -3.1492251e-20 6.1603108e-05 -1.7027347e-22 6.39793e-37)
(0.25429736 -0.00030917682 3.2691658e-20 6.4946805e-05 2.0439548e-22 6.5333437e-37)
(0.28760279 -7.7139247e-05 8.0787613e-20 6.864674e-05 5.7056267e-22 3.8468444e-36)
(0.3224341 0.0001936347 -4.9739711e-20 7.2142252e-05 -3.8975432e-22 1.4323524e-36)
(0.35769202 0.00051144246 -3.1082904e-20 7.6602568e-05 -2.6662832e-22 5.6024988e-37)
(0.39175182 0.00089828258 7.9377575e-20 8.1108487e-05 7.4407306e-22 3.7383997e-36)
(0.42259947 0.0013511553 3.6317587e-20 8.424764e-05 3.7136924e-22 8.1949905e-37)
(0.44785617 0.0018305779 2.4727393e-20 8.6826942e-05 2.7524705e-22 4.087299e-37)
(0.46502565 0.002300279 -1.8332162e-20 9.0312501e-05 -2.2204841e-22 2.4796219e-37)
(0.47100359 0.0027093141 4.5724664e-20 9.5808715e-05 6.0118052e-22 1.7752392e-36)
(0.46200142 0.002985812 3.4709953e-20 0.00010315032 4.9564062e-22 1.219872e-36)
(0.43439275 0.0030327504 7.7046936e-21 0.00011172684 1.1926977e-22 7.5524687e-38)
(0.38599687 0.0028048998 -1.7213989e-20 0.00011945618 -2.8783277e-22 4.9616377e-37)
(0.31862974 0.0023866064 -1.1251071e-20 0.00012095049 -2.0503843e-22 3.0134559e-37)
(0.24086138 0.0020184556 -3.3717008e-20 0.00010913713 -6.8084188e-22 4.0990607e-36)
(0.16518391 0.0017293209 -3.8857818e-21 8.4224913e-05 -8.8849801e-23 8.7812093e-38)
(0.10649196 0.0015051983 2.5247545e-20 5.7181204e-05 6.6018767e-22 6.1998348e-36)
(0.063454764 0.0012769898 -1.4569106e-20 4.0063544e-05 -4.6863131e-22 3.7043456e-36)
(2.2455588e-10 -5.2860225e-09 5.1715573e-27 1.244757e-07 -1.0537047e-25 1.4918381e-41)
(3.3360578e-09 -6.2399484e-08 -1.7649941e-24 1.173337e-06 2.835496e-23 1.8956196e-37)
(1.4340573e-08 -2.2358728e-07 3.1227421e-24 3.5301881e-06 -4.0782981e-23 1.5005246e-37)
(4.315373e-08 -5.638213e-07 -1.4487017e-24 7.5214141e-06 1.5639795e-23 1.114637e-38)
(1.0735282e-07 -1.1872398e-06 -4.6899795e-24 1.3515579e-05 4.2548436e-23 4.7537098e-38)
(2.3767369e-07 -2.2408422e-06 1.3341301e-23 2.1918199e-05 -1.029486e-22 1.7343352e-37)
(4.8582565e-07 -3.9262051e-06 -1.9980415e-23 3.316205e-05 1.3219339e-22 1.8828159e-37)
(9.3619929e-07 -6.5132598e-06 2.4606024e-24 4.7690848e-05 -1.4037739e-23 1.4566624e-39)
(1.7231535e-06 -1.0355775e-05 -1.0531596e-23 6.5934502e-05 5.2029995e-23 1.4177588e-38)
(3.0558999e-06 -1.5907044e-05 -2.4030889e-25 8.8274411e-05 1.0316978e-24 4.0432777e-42)
(5.2534843e-06 -2.3733752e-05 -6.309819e-23 0.00011499789 2.3593427e-22 1.574003e-37)
(8.7927754e-06 -3.4525091e-05 1.3189865e-22 0.00014624197 -4.3050229e-22 3.9628531e-37)
(1.4372539e-05 -4.909316e-05 1.4192552e-23 0.00018192929 -4.0498138e-23 2.6937556e-39)
(2.2996354e-05 -6.8359674e-05 -1.8090776e-22 0.00022170171 4.5181473e-22 2.6121499e-37)
(3.6076115e-05 -9.3323893e-05 7.1181618e-23 0.00026486205 -1.5570984e-22 2.4493003e-38)
(5.5556024e-05 -0.00012500806 5.7478732e-23 0.00031033894 -1.1017269e-22 9.8016512e-39)
(8.4054273e-05 -0.00016438052 -4.6025575e-22 0.00035669393 7.7306816e-22 3.9057988e-37)
(0.00012501668 -0.00021226386 1.8785932e-21 0.00040219166 -2.7645777e-21 4.0948066e-36)
(0.00018287492 -0.00026924643 -1.4625384e-21 0.00044494821 1.8850971e-21 1.5814531e-36)
(0.00026320486 -0.00033562825 2.1615636e-21 0.00048315934 -2.4391604e-21 2.2298548e-36)
(0.00037288928 -0.00041144125 -3.9062738e-21 0.00051538507 3.8574038e-21 4.7668591e-36)
(0.00052030524 -0.00049657882 1.1612807e-21 0.00054083459 -1.0032241e-21 2.7991868e-37)
(0.00071563934 -0.00059106885 5.7492108e-22 0.00055956609 -4.3445323e-22 4.6323736e-38)
(0.00097155311 -0.00069549235 -2.2377444e-21 0.00057251419 1.4794257e-21 4.8163821e-37)
(0.0013031928 -0.00081107344 9.4927863e-21 0.00058131377 -5.4931608e-21 6.0567567e-36)
(0.0017287419 -0.00093949364 1.6562987e-21 0.00058782809 -8.3959632e-22 1.3105734e-37)
(0.0022744963 -0.0010839282 -9.9484974e-21 0.00059322178 4.4216343e-21 3.4263769e-36)
(0.0029733877 -0.0012479309 1.2839217e-20 0.0005983876 -5.0065068e-21 4.201246e-36)
(0.0038630736 -0.0014342635 -2.0184779e-21 0.0006048228 6.9057402e-22 7.7769271e-38)
(0.0049940897 -0.0016472834 -2.2492292e-20 0.00061338228 6.7495558e-21 7.3107652e-36)
(0.0064320972 -0.0018913716 2.6397091e-21 0.00062401325 -6.9421489e-22 7.7486384e-38)
(0.0082585521 -0.0021700476 2.2814135e-20 0.00063643497 -5.2546275e-21 4.4960021e-36)
(0.010572336 -0.0024864708 6.4791728e-22 0.00065027339 -1.306771e-22 2.8263411e-39)
(0.013494749 -0.0028432597 -2.1386321e-20 0.00066503813 3.7660486e-21 2.4713696e-36)
(0.017171116 -0.0032420509 2.661254e-20 0.00068014496 -4.0908817e-21 3.0747284e-36)
(0.02177294 -0.0036830462 -1.3317519e-20 0.00069489473 1.7848193e-21 6.2445844e-37)
(0.027498352 -0.0041642089 1.7337339e-20 0.00070843447 -2.0216062e-21 8.680761e-37)
(0.034569781 -0.0046802174 6.0784187e-20 0.00071976991 -6.1543836e-21 8.8192737e-36)
(0.043227715 -0.0052212415 1.4942233e-20 0.00072786471 -1.3094861e-21 4.446316e-37)
(0.053718097 -0.0057714632 6.3734507e-20 0.00073181439 -4.8101306e-21 6.8247431e-36)
(0.066272724 -0.0063082412 -8.8565397e-20 0.00073133493 5.7179724e-21 1.1233925e-35)
(0.081081457 -0.0068028592 -8.7939415e-20 0.00072760606 4.8146926e-21 9.529907e-36)
(0.098259838 -0.0072242727 -1.6144507e-20 0.00072421828 7.4092796e-22 2.7897904e-37)
(0.11783394 -0.0075459239 1.3708089e-19 0.00072769305 -5.1507689e-21 1.7789475e-35)
(0.13972549 -0.0077535756 -6.8499871e-20 0.00074728954 2.059946e-21 3.960244e-36)
(0.16379888 -0.0078576221 -2.486555e-20 0.00079314525 5.755679e-22 4.7220222e-37)
(0.18990946 -0.0078836731 1.3802061e-20 0.00087009265 -2.2908698e-22 1.3427923e-37)
(0.21795856 -0.0078592734 4.4322591e-20 0.00096805574 -4.7032913e-22 1.2912368e-36)
(0.24789825 -0.0077986712 -2.2090243e-20 0.001065938 1.1060426e-22 3.0488927e-37)
(0.27953922 -0.0076498389 4.0419142e-20 0.0011425423 1.1982004e-23 9.871577e-37)
(0.31231967 -0.0073035609 2.4313879e-19 0.0011846862 1.3012826e-21 3.5226663e-35)
(0.34514696 -0.0066546016 1.1479899e-20 0.0011966719 1.1880158e-22 7.9125304e-38)
(0.37642492 -0.0056381659 -5.0606e-20 0.0011912789 -7.6771766e-22 1.5799418e-36)
(0.40422192 -0.0042403728 1.0877253e-19 0.0011804595 2.2007286e-21 7.6916699e-36)
(0.4263894 -0.0024844656 -8.8517203e-20 0.0011745762 -2.2643219e-21 5.5140184e-36)
(0.44046391 -0.00036357889 2.3570609e-19 0.0011758044 7.3915159e-21 4.3649184e-35)
(0.44351922 0.0021508618 6.2021402e-20 0.0011775635 2.348502e-21 3.4935869e-36)
(0.43211697 0.0050130359 -1.5754667e-19 0.0011779539 -7.141909e-21 2.7273675e-35)
(0.40278174 0.0080055903 2.3638814e-20 0.0011761231 1.2773547e-21 7.7563895e-37)
(0.35366915 0.010659888 2.3003316e-20 0.001171672 1.4780025e-21 9.9866731e-37)
(0.28682221 0.012274033 3.8044825e-21 0.0011499603 2.8900877e-22 3.9866491e-38)
(0.21103666 0.012299314 -4.0393829e-20 0.0011039073 -3.5923428e-21 7.0015598e-36)
(0.13872007 0.010352624 6.0403317e-20 0.0009705052 6.177607e-21 2.6529094e-35)
(0.083826774 0.0076679569 1.3539569e-20 0.00078320135 1.569629e-21 2.3767864e-36)
(0.045366925 0.004925575 1.6038535e-20 0.00057033888 2.1847808e-21 6.5631877e-36)
(1.6713185e-09 -2.3892077e-08 7.872826e-25 3.4155705e-07 -1.0718273e-23 4.5344268e-38)
(1.8653087e-08 -2.4499806e-07 -1.2698631e-24 3.2189959e-06 1.5830252e-23 1.7316955e-38)
(6.5266205e-08 -7.946405e-07 -5.9691015e-25 9.6842139e-06 6.8087194e-24 1.2243728e-39)
(1.631357e-07 -1.8328386e-06 8.7204139e-25 2.0630464e-05 -9.0846496e-24 1.1002805e-39)
(3.4530084e-07 -3.5720196e-06 -6.0953385e-24 3.7063485e-05 5.7992383e-23 2.582286e-38)
(6.630207e-07 -6.2978204e-06 -6.289719e-25 6.0085955e-05 5.4626502e-24 1.4265601e-40)
(1.1944761e-06 -1.0387085e-05 -1.0863263e-23 9.0869726e-05 8.6001322e-23 2.3272483e-38)
(2.0572501e-06 -1.6328401e-05 -1.5529053e-23 0.00013060972 1.1185472e-22 2.698606e-38)
(3.4261109e-06 -2.4744637e-05 1.6603196e-22 0.00018045487 -1.0858511e-21 1.8001539e-36)
(5.5577657e-06 -3.6415003e-05 -1.9183111e-22 0.00024141205 1.1367155e-21 1.4325632e-36)
(8.8246856e-06 -5.2293441e-05 1.1776681e-22 0.00031422066 -6.3095386e-22 3.2735476e-37)
(1.376044e-05 -7.3518859e-05 2.1979294e-22 0.0003991993 -1.0624984e-21 7.0085282e-37)
(2.1119079e-05 -0.00010141116 -5.5179516e-22 0.000496072 2.4017795e-21 2.7464051e-36)
(3.1950924e-05 -0.00013744599 -8.6013252e-23 0.00060379098 3.3640675e-22 4.1893804e-38)
(4.7696305e-05 -0.00018320087 4.160997e-22 0.00072038457 -1.4592535e-21 6.2106902e-37)
(7.0297513e-05 -0.00024026826 3.5668055e-22 0.00084287293 -1.1192628e-21 2.9141517e-37)
(0.00010232739 -0.00031013719 -5.1321447e-22 0.00096730483 1.437949e-21 3.8838204e-37)
(0.00014713121 -0.00039405708 2.2933081e-21 0.0010889719 -5.7249585e-21 5.0332991e-36)
(0.00020897762 -0.00049291338 -1.6638453e-21 0.0012028413 3.692944e-21 1.7349839e-36)
(0.00029321807 -0.00060716591 1.0038683e-21 0.0013042054 -1.9770163e-21 4.1754326e-37)
(0.00040646215 -0.00073691232 -4.1021144e-21 0.0013894776 7.1548169e-21 4.6612551e-36)
(0.00055678837 -0.00088213025 -1.2835395e-21 0.0014569693 1.9794099e-21 3.0881456e-37)
(0.00075407298 -0.0010431391 3.1958145e-21 0.0015074051 -4.3516331e-21 1.3134869e-36)
(0.00101065 -0.0012212828 -5.6935377e-21 0.0015439317 6.8381822e-21 2.9021115e-36)
(0.0013415824 -0.0014191956 -2.632369e-21 0.0015715336 2.786786e-21 4.3848888e-37)
(0.0017645872 -0.0016403471 3.6814535e-21 0.001595678 -3.4347515e-21 6.1701387e-37)
(0.0023052455 -0.0018903225 2.4164989e-20 0.0016197868 -1.9869107e-20 1.9411656e-35)
(0.0029962691 -0.0021756383 1.255339e-20 0.0016462302 -9.0960887e-21 3.8851341e-36)
(0.0038745736 -0.002502176 -7.1484115e-21 0.0016788468 4.5630434e-21 9.4939143e-37)
(0.004989158 -0.0028777916 8.6950432e-21 0.0017200379 -4.8864264e-21 1.0694631e-36)
(0.0064036793 -0.0033106021 -6.14239e-21 0.0017697259 3.0366339e-21 4.1356581e-37)
(0.0081975417 -0.0038075507 -3.9212317e-20 0.0018269243 1.7042253e-20 1.3148234e-35)
(0.010466454 -0.0043748318 1.4740605e-20 0.0018903753 -5.6275224e-21 1.4682606e-36)
(0.013327637 -0.0050178949 4.925435e-20 0.0019585223 -1.650554e-20 1.308023e-35)
(0.016921278 -0.0057405719 -1.8321842e-20 0.0020294574 5.3838685e-21 1.4616577e-36)
(0.021412115 -0.0065442278 -2.8536293e-20 0.0021008809 7.3479047e-21 2.8826757e-36)
(0.026989511 -0.0074263151 5.4779698e-20 0.0021699687 -1.2342706e-20 8.7275207e-36)
(0.033864637 -0.0083783696 1.8457557e-20 0.0022333366 -3.6330339e-21 8.2098712e-37)
(0.0422631 -0.0093835801 -3.6063436e-20 0.0022872996 6.1824549e-21 2.6278512e-36)
(0.052411222 -0.010414151 -1.5814381e-20 0.002328555 2.3528934e-21 4.2749326e-37)
(0.064514849 -0.011429446 8.2738763e-20 0.0023556832 -1.0630716e-20 9.9855351e-36)
(0.07872943 -0.012377191 -2.5328619e-20 0.0023719484 2.7836192e-21 8.1059399e-37)
(0.095126841 -0.01320021 -3.9452015e-20 0.0023885423 3.6801394e-21 1.7142526e-36)
(0.11367637 -0.013849588 -1.1250725e-19 0.002426733 8.770539e-21 1.231148e-35)
(0.1342387 -0.014302139 2.2661846e-19 0.002517477 -1.4436248e-20 4.4796482e-35)
(0.15662214 -0.014584159 -1.5415439e-19 0.0026938998 7.79746e-21 1.8845192e-35)
(0.18065893 -0.014758607 -4.0533208e-20 0.0029675654 1.5659418e-21 1.2007765e-36)
(0.20624954 -0.014883685 -1.6537975e-19 0.0033031911 4.4904382e-21 1.8822237e-35)
(0.23329695 -0.014970797 -2.0254416e-19 0.0036322692 3.3626584e-21 2.7003076e-35)
(0.26157738 -0.014922333 -1.0417586e-20 0.0038778634 7.5589635e-23 6.9275796e-38)
(0.29050587 -0.014546548 4.4060525e-20 0.0039949001 1.2002421e-22 1.2351294e-36)
(0.31897972 -0.013649096 -3.2011607e-19 0.0039967018 -3.9574318e-21 6.6301508e-35)
(0.34544912 -0.012115671 -1.3324193e-19 0.00393023 -2.8869941e-21 1.1927255e-35)
(0.36813164 -0.0099295339 -1.319002e-19 0.0038427105 -4.1270568e-21 1.2442627e-35)
(0.38511732 -0.007107193 -4.1128584e-20 0.003760066 -1.7152149e-21 1.3250212e-36)
(0.39425501 -0.0036068999 -2.9670596e-19 0.00368161 -1.5678138e-20 7.8072407e-35)
(0.39306507 0.00065609723 1.0801837e-19 0.0035883842 7.1032924e-21 1.2141362e-35)
(0.37857076 0.0056830856 -2.934537e-20 0.0034771667 -2.3752233e-21 1.1091179e-36)
(0.34780175 0.011157105 -2.1052798e-19 0.0033673085 -2.081815e-20 7.3794729e-35)
(0.29946533 0.016212048 -7.0700931e-20 0.0033104316 -8.5307504e-21 1.1560013e-35)
(0.23596594 0.019417223 6.8249389e-20 0.0033026156 1.000146e-20 1.6304967e-35)
(0.16625267 0.019563884 1.8258189e-19 0.0032992089 3.2191126e-20 1.9241113e-34)
(0.10224434 0.016013618 -4.3252705e-20 0.0030044939 -9.0177401e-21 1.9619135e-35)
(0.056115988 0.011126653 -4.9856105e-20 0.0024306772 -1.216191e-20 5.0964079e-35)
(0.026531086 0.0064299462 -1.431184e-20 0.0016785595 -4.2412678e-21 9.3478949e-36)
(6.21505e-09 -6.3213719e-08 -5.2191878e-24 6.4295669e-07 5.1823245e-23 5.0853727e-37)
(6.3450426e-08 -6.2020195e-07 1.730241e-23 6.0625324e-06 -1.647188e-22 9.0023375e-37)
(2.0592903e-07 -1.9383789e-06 -1.0573996e-23 1.8248409e-05 9.6241449e-23 1.1765708e-37)
(4.7663866e-07 -4.3050747e-06 1.6956294e-24 3.8896353e-05 -1.4715122e-23 1.3899166e-39)
(9.3551842e-07 -8.0854938e-06 -4.6403121e-23 6.9919592e-05 3.8317514e-22 5.4295475e-37)
(1.6675871e-06 -1.3746934e-05 6.4073283e-23 0.00011342146 -5.0225613e-22 5.8091747e-37)
(2.7925237e-06 -2.1879847e-05 -1.2659011e-22 0.0001716459 9.3925428e-22 1.3357248e-36)
(4.4777177e-06 -3.3220675e-05 7.6250875e-23 0.00024689351 -5.3375429e-22 2.9542608e-37)
(6.956108e-06 -4.8675797e-05 3.6654989e-22 0.00034139513 -2.412313e-21 4.2655969e-36)
(1.055e-05 -6.9343273e-05 -1.1040866e-22 0.00045713397 6.8068089e-22 2.4628568e-37)
(1.5702488e-05 -9.6528612e-05 -5.2313218e-22 0.00059561203 3.0102417e-21 3.5662762e-36)
(2.3018307e-05 -0.00013174921 1.9761853e-22 0.00075756151 -1.0574355e-21 3.3165952e-37)
(3.331605e-05 -0.00017672062 1.627218e-23 0.0009426143 -8.0662787e-23 1.4777605e-39)
(4.7693573e-05 -0.00023331693 -7.8240633e-22 0.0011489592 3.5796137e-21 2.2565507e-36)
(6.7608193e-05 -0.00030349832 2.9963939e-21 0.0013730397 -1.2604223e-20 2.1986247e-35)
(9.497231e-05 -0.00038920165 -2.2453213e-21 0.0016093714 8.650567e-21 8.2388801e-36)
(0.0001322649 -0.00049219939 -2.6038228e-23 0.0018505818 9.152828e-23 7.4256995e-40)
(0.00018265829 -0.00061394501 1.8335243e-21 0.0020877835 -5.8579982e-21 2.4803659e-36)
(0.00025016025 -0.00075544322 -5.6280244e-21 0.0023113682 1.6281523e-20 1.5825736e-35)
(0.00033977626 -0.00091720908 3.1972726e-21 0.0025122327 -8.3445149e-21 3.4814362e-36)
(0.00045770217 -0.0010993912 5.7121216e-21 0.0026833139 -1.3402406e-20 7.6329795e-36)
(0.00061156717 -0.0013021232 2.7557741e-21 0.0028211282 -5.7940822e-21 1.231526e-36)
(0.00081078041 -0.0015261342 -1.6141294e-20 0.0029268503 3.0322875e-20 2.9619593e-35)
(0.0010671705 -0.0017736256 -9.9249898e-21 0.0030064303 1.6617368e-20 7.9441373e-36)
(0.0013955984 -0.0020488485 7.4946779e-21 0.0030695095 -1.1160853e-20 3.2584417e-36)
(0.0018131721 -0.002357104 -5.0765928e-21 0.0031270081 6.7139254e-21 1.0894222e-36)
(0.0023442917 -0.0027063373 2.1933655e-20 0.0031865072 -2.5735465e-20 1.5052042e-35)
(0.0030212295 -0.0031060459 -7.2237737e-21 0.0032524455 7.5127453e-21 1.2246184e-36)
(0.0038798688 -0.0035650559 2.2209066e-20 0.0033316773 -2.0452089e-20 8.7980467e-36)
(0.0049667408 -0.0040942287 -1.4248817e-20 0.0034292765 1.1605692e-20 2.7881531e-36)
(0.0063425689 -0.0047054493 9.9678887e-21 0.003545902 -7.1733621e-21 1.0618381e-36)
(0.0080834214 -0.0054089487 -4.1173937e-20 0.0036795778 2.6153988e-20 1.4269065e-35)
(0.010280322 -0.0062136458 6.6358392e-21 0.0038276393 -3.7169958e-21 2.9504315e-37)
(0.013044205 -0.0071274698 -3.9178791e-20 0.0039868461 1.9337201e-20 8.2502818e-36)
(0.016507309 -0.0081561248 4.1826151e-20 0.0041531854 -1.8172439e-20 7.6247251e-36)
(0.020824022 -0.0093016744 1.4886578e-20 0.004321682 -5.6895662e-21 7.8839332e-37)
(0.026170287 -0.010560463 -2.0551611e-19 0.0044861698 6.8967307e-20 1.2435284e-34)
(0.032739871 -0.011920178 -5.9176345e-20 0.0046392415 1.7414174e-20 8.5850651e-36)
(0.040735929 -0.01335613 5.3874382e-20 0.0047726712 -1.3865569e-20 5.9891193e-36)
(0.050355592 -0.014827238 -5.7868663e-20 0.0048788913 1.2982805e-20 5.8683889e-36)
(0.061766647 -0.016273312 1.6199463e-20 0.0049543054 -3.1526758e-21 3.9397966e-37)
(0.075076236 -0.01761692 1.0963789e-19 0.0050052353 -1.8381206e-20 1.5669171e-35)
(0.090298253 -0.018774283 -5.4661762e-21 0.0050553636 7.8203848e-22 3.4252765e-38)
(0.10733373 -0.019676739 -4.2189777e-20 0.0051511221 5.0795777e-21 1.806098e-36)
(0.1259865 -0.020304136 2.1706665e-20 0.0053609914 -2.1369675e-21 4.3353567e-37)
(0.14604456 -0.02071888 -1.1491984e-20 0.0057541825 9.2795996e-22 1.0904631e-37)
(0.16734888 -0.021033982 -3.4305431e-20 0.0063475319 2.1236811e-21 9.1468219e-37)
(0.18983045 -0.021347058 5.433619e-19 0.007060877 -2.4386446e-20 2.1803004e-34)
(0.2134319 -0.021659642 -6.1906772e-20 0.0077400796 1.7695085e-21 2.731277e-36)
(0.23791005 -0.021800531 5.7630137e-20 0.0082152807 -8.1050649e-22 2.3260204e-36)
(0.26260084 -0.021467895 -5.3918986e-19 0.0083963163 -1.0552992e-22 2.0431116e-34)
(0.28632731 -0.02038816 2.9033628e-19 0.0083224687 4.0964336e-21 6.0763363e-35)
(0.30756559 -0.018438229 2.317212e-19 0.0081064951 6.5680696e-21 4.0636126e-35)
(0.32471292 -0.015631843 2.1139679e-19 0.0078524486 9.1058789e-21 3.6479805e-35)
(0.33617976 -0.011996812 1.9153028e-19 0.0076092985 1.1282357e-20 3.326612e-35)
(0.34022986 -0.0074641129 2.778505e-19 0.0073714523 2.1276378e-20 8.0509473e-35)
(0.33484546 -0.0018913725 -5.0368385e-19 0.0070969624 -4.8872336e-20 3.1620594e-34)
(0.31762664 0.0047605072 2.7457132e-19 0.0067771429 3.3340392e-20 1.1790127e-34)
(0.28622632 0.012087751 3.5818076e-19 0.006461109 5.4242591e-20 2.6773649e-34)
(0.24008285 0.018909148 -2.1836538e-19 0.0062951809 -4.1185532e-20 1.4269947e-34)
(0.18194932 0.023169975 -5.5297413e-20 0.0063139048 -1.2958851e-20 1.4438362e-35)
(0.12096146 0.023153016 -3.6312291e-20 0.0063938528 -1.0514325e-20 1.0946966e-35)
(0.068350761 0.018255487 1.3346293e-19 0.0058745985 4.687846e-20 2.8349872e-34)
(0.033415866 0.011833288 6.7240799e-20 0.00468374 2.8438565e-20 1.5295635e-34)
(0.013558215 0.0061704614 -1.8955203e-21 0.0031032224 -1.006021e-21 2.9687103e-37)
(1.600277e-08 -1.2554053e-07 6.0851913e-24 9.8485904e-07 -4.7070234e-23 2.521403e-37)
(1.5736526e-07 -1.2093727e-06 -4.1230814e-23 9.2943284e-06 3.1166625e-22 1.9434105e-36)
(4.9391654e-07 -3.7187806e-06 5.5625773e-23 2.8000552e-05 -4.0994814e-22 1.2913986e-36)
(1.1026589e-06 -8.1157902e-06 -3.0355967e-23 5.9739462e-05 2.1770271e-22 1.8438379e-37)
(2.0846635e-06 -1.4968646e-05 -1.4866324e-23 0.00010749846 1.035676e-22 2.4057698e-38)
(3.5738665e-06 -2.4975182e-05 1.6721016e-22 0.00017458093 -1.1292952e-21 1.7807815e-36)
(5.7471039e-06 -3.8983494e-05 -5.4018314e-23 0.00026453879 3.5280612e-22 1.141918e-37)
(8.8370098e-06 -5.8012178e-05 -1.4378661e-22 0.00038105315 9.0560174e-22 5.1459059e-37)
(1.3148878e-05 -8.326939e-05 -1.3654973e-23 0.00052775087 8.2677333e-23 3.0275631e-39)
(1.9082194e-05 -0.00011616678 -1.4225955e-22 0.00070794179 8.2530253e-22 2.1831851e-37)
(2.7157958e-05 -0.00015832432 2.4261357e-22 0.0009242676 -1.343858e-21 4.2766787e-37)
(3.8053042e-05 -0.00021156057 -2.0431142e-22 0.0011782602 1.0765314e-21 2.0633023e-37)
(5.264304e-05 -0.00027786224 -9.0869332e-22 0.0014698248 4.5368988e-21 2.7967671e-36)
(7.205497e-05 -0.00035932617 -3.1781582e-23 0.0017966873 1.4974743e-22 2.3559541e-39)
(9.773154e-05 -0.00045806922 1.0034843e-21 0.002153881 -4.4431347e-21 1.6256502e-36)
(0.00013150885 -0.00057610614 8.5159512e-22 0.0025333924 -3.5277335e-21 8.1250899e-37)
(0.0001757093 -0.00071520356 -8.7622647e-22 0.0029241237 3.3805303e-21 5.9867447e-37)
(0.00023325294 -0.0008767352 1.0029218e-22 0.0033123583 -3.5867249e-22 5.4801621e-39)
(0.00030779225 -0.0010615824 2.4257952e-21 0.0036828871 -8.0039623e-21 2.2440174e-36)
(0.00040387888 -0.0012701474 3.5069652e-21 0.0040208565 -1.0624764e-20 3.2994676e-36)
(0.00052717706 -0.0015025597 -4.7312882e-21 0.0043141897 1.3099532e-20 4.2488048e-36)
(0.00068474338 -0.0017591404 -5.6020313e-21 0.0045561458 1.4110058e-20 4.2435636e-36)
(0.00088539771 -0.0020411266 8.8248188e-21 0.0047472909 -2.0133956e-20 7.5659949e-36)
(0.0011403276 -0.0023516556 -1.2713075e-20 0.0048960268 2.6170352e-20 1.1392528e-35)
(0.0014639875 -0.0026966989 -2.5491555e-20 0.0050171197 4.7183254e-20 3.3598906e-35)
(0.0018730162 -0.0030836561 6.9075895e-20 0.0051284314 -1.146366e-19 1.8319811e-34)
(0.0023901785 -0.0035228254 -4.3453711e-20 0.0052444586 6.451535e-20 5.4506376e-35)
(0.0030467534 -0.0040263702 7.3154205e-20 0.0053718719 -9.6983091e-20 1.1756238e-34)
(0.003877652 -0.0046059006 -1.0334765e-19 0.0055204765 1.2212182e-19 1.8066243e-34)
(0.0049262637 -0.0052747699 1.2987e-19 0.0056995456 -1.3654501e-19 2.2214344e-34)
(0.0062495412 -0.006048522 -1.5056748e-19 0.0059121512 1.4063494e-19 2.3502807e-34)
(0.007918744 -0.0069403461 2.8313256e-20 0.006155259 -2.346041e-20 6.6104943e-36)
(0.010019155 -0.0079615403 1.0898574e-19 0.0064242226 -8.0016293e-20 7.8534712e-35)
(0.01265351 -0.0091219672 -6.8294336e-20 0.0067135095 4.4374799e-20 2.4969336e-35)
(0.015943633 -0.010428611 2.3659383e-20 0.0070161625 -1.3589091e-20 2.4484613e-36)
(0.020030505 -0.011883563 7.6249201e-21 0.0073233838 -3.8664978e-21 2.0978722e-37)
(0.025072939 -0.013481322 1.0365503e-19 0.0076241827 -4.636199e-20 3.214201e-35)
(0.031242829 -0.015204891 3.71013e-20 0.007905287 -1.461298e-20 3.447059e-36)
(0.038715395 -0.017020691 4.0915853e-20 0.0081517272 -1.4152495e-20 3.545462e-36)
(0.047652457 -0.018873251 4.4019645e-20 0.0083494149 -1.332542e-20 3.5098235e-36)
(0.058177761 -0.020681864 -2.4293149e-19 0.0084911189 6.4044051e-20 9.2270177e-35)
(0.070345615 -0.022344251 1.1480011e-19 0.0085874 -2.6178566e-20 1.7978676e-35)
(0.084111778 -0.023753494 1.9598994e-20 0.0086804541 -3.8432425e-21 4.5968791e-37)
(0.099322401 -0.024832647 -2.3937177e-19 0.0088551443 3.9555462e-20 6.17384e-35)
(0.11576183 -0.025588748 -1.277624e-19 0.0092357489 1.7562676e-20 1.595357e-35)
(0.1332509 -0.02614658 6.5476726e-20 0.0099386868 -7.3131863e-21 3.8704442e-36)
(0.15170893 -0.026682327 2.4595405e-19 0.010971549 -2.1447091e-20 5.1186568e-35)
(0.17114469 -0.027317152 -1.093605e-19 0.012178714 7.0924955e-21 9.6761215e-36)
(0.19151919 -0.027999557 3.232903e-19 0.01327736 -1.3831365e-20 8.2311875e-35)
(0.21249735 -0.028439035 1.7586086e-19 0.013973981 -3.9862463e-21 2.4189264e-35)
(0.23325451 -0.028208758 2.400422e-19 0.014136506 -8.7387315e-22 4.5688857e-35)
(0.25248994 -0.026978089 6.2969668e-19 0.013864299 9.9882246e-21 3.262758e-34)
(0.2687016 -0.024660028 -4.6907722e-19 0.013373717 -1.6554121e-20 1.9264819e-34)
(0.28050004 -0.021341608 1.4532926e-19 0.012845984 8.2012688e-21 2.0204909e-35)
(0.28664979 -0.017085924 -2.3302644e-19 0.012355119 -1.821019e-20 5.8714834e-35)
(0.2858461 -0.011805807 -2.029022e-19 0.011882313 -2.1020001e-20 5.2095248e-35)
(0.27650193 -0.0053078125 -7.1173665e-20 0.011353021 -9.506256e-21 7.8362989e-36)
(0.25684159 0.0024652084 -5.6641678e-19 0.01074428 -9.5828419e-20 6.3908822e-34)
(0.22520071 0.011011828 -1.2895281e-19 0.010133047 -2.7700191e-20 4.5573945e-35)
(0.18202431 0.018901629 2.4029491e-19 0.0097832072 6.5614667e-20 2.3574664e-34)
(0.13054452 0.02361755 7.0586918e-20 0.0098061771 2.450368e-20 3.3482147e-35)
(0.079902822 0.023135344 -3.8618005e-20 0.0099611274 -1.6968293e-20 1.8649369e-35)
(0.040346388 0.017299129 -5.5730665e-20 0.0091183863 -3.0404629e-20 7.9703752e-35)
(0.017053736 0.010296165 -5.8217067e-20 0.0070970302 -3.8794315e-20 1.9321695e-34)
(0.0058664504 0.0048099796 2.7835176e-21 0.0045186312 2.3322071e-21 1.1235541e-36)
(3.2541987e-08 -2.0672338e-07 2.746809e-23 1.3132147e-06 -1.7286153e-22 2.3408124e-36)
(3.1412573e-07 -1.9742179e-06 1.9534883e-23 1.2407668e-05 -1.2131163e-22 2.0389368e-37)
(9.6926277e-07 -6.0227389e-06 -2.5848995e-23 3.7424587e-05 1.5811018e-22 1.3365941e-37)
(2.1233852e-06 -1.3029046e-05 -1.3614634e-22 7.9950157e-05 8.1932769e-22 1.8219834e-36)
(3.9344021e-06 -2.3807447e-05 9.9917565e-23 0.00014407494 -5.9087063e-22 5.4681272e-37)
(6.6009858e-06 -3.9328868e-05 -1.8575306e-22 0.00023435919 1.0778303e-21 1.1324928e-36)
(1.0372329e-05 -6.0738576e-05 1.0127712e-22 0.0003557594 -5.7557522e-22 2.1195112e-37)
(1.5559751e-05 -8.9369914e-05 2.9859973e-23 0.0005134875 -1.6585867e-22 1.2018771e-38)
(2.255115e-05 -0.00012675348 -2.064828e-22 0.00071278713 1.118299e-21 3.8487041e-37)
(3.1828493e-05 -0.00017461699 -5.3836468e-22 0.00095860312 2.8355444e-21 1.7866067e-36)
(4.3989112e-05 -0.00023487204 -3.2460928e-23 0.0012551288 1.6579268e-22 4.4983988e-39)
(5.977155e-05 -0.00030958248 1.2696669e-21 0.0016052211 -6.2687105e-21 4.8221923e-36)
(8.0087066e-05 -0.00040090948 -2.0894759e-21 0.0020096951 9.9390726e-21 9.2204695e-36)
(0.00010605829 -0.00051102965 4.0012034e-21 0.002466539 -1.8269723e-20 2.4013492e-35)
(0.00013906694 -0.00064202498 -1.2371811e-21 0.0029701384 5.4012786e-21 1.6377076e-36)
(0.00018081339 -0.00079574979 3.1041141e-21 0.0035106589 -1.2902824e-20 7.3786351e-36)
(0.00023339308 -0.0009736922 -4.4244042e-21 0.0040738026 1.7430837e-20 1.0759025e-35)
(0.00029939456 -0.0011768576 3.381809e-21 0.0046412036 -1.2567255e-20 4.5230414e-36)
(0.00038203037 -0.0014057283 -6.2763505e-22 0.0051917259 2.1889137e-21 1.1244407e-37)
(0.00048531237 -0.0016603648 -2.9835593e-21 0.0057038188 9.714209e-21 1.8397945e-36)
(0.00061428732 -0.0019407216 8.4754473e-21 0.0061588284 -2.5624449e-20 1.0797934e-35)