/*--------------------------------*- C++ -*----------------------------------*\
  =========                 |
  \\      /  F ield         | OpenFOAM: The Open Source CFD Toolbox
   \\    /   O peration     | Website:  https://openfoam.org
    \\  /    A nd           | Version:  13
     \\/     M anipulation  |
\*---------------------------------------------------------------------------*/
FoamFile
{
    format      ascii;
    class       volScalarField;
    location    "8.996256";
    object      k;
}
// * * * * * * * * * * * * * * * * * * * * * * * * * * * * * * * * * * * * * //

dimensions      [0 2 -2 0 0 0 0];

internalField   nonuniform List<scalar> 
17140
(
2.5271343e-11
7.9411223e-10
6.4936616e-09
2.7926193e-08
8.5933254e-08
2.1683079e-07
4.8075336e-07
9.7408403e-07
1.8477044e-06
3.3334897e-06
5.7823431e-06
9.7180851e-06
1.5912578e-05
2.5488213e-05
4.0053568e-05
6.18751e-05
9.4079396e-05
0.00014086212
0.00020764483
0.00030106198
0.00042857633
0.00059742802
0.00081258446
0.0010735069
0.0013700739
0.0016789976
0.0019632448
0.0021714901
0.0022716723
0.0023014221
0.0022754876
0.0022095856
0.002132431
0.0020572954
0.0019871448
0.0019216181
0.0018602012
0.0018026072
0.0017486588
0.0016982318
0.0016513926
0.0016083523
0.0015692653
0.0015336326
0.0014989779
0.0014603371
0.0014191806
0.0014013356
0.0013944784
0.0014073469
0.0014389013
0.0014844368
0.0015420235
0.0016031542
0.0016634148
0.0017207663
0.0017509142
0.0017755676
0.001761328
0.0016642639
0.0014658176
0.0012480045
0.0010482227
0.00088188638
0.00073058196
2.4985024e-11
7.8511514e-10
6.4201068e-09
2.7610004e-08
8.496086e-08
2.1437891e-07
4.7532164e-07
9.6308981e-07
1.8268765e-06
3.2959744e-06
5.7174038e-06
9.6092413e-06
1.5734992e-05
2.5205111e-05
3.9611494e-05
6.1197933e-05
9.3061362e-05
0.00013936073
0.00020547588
0.0002980009
0.00042437252
0.0005918418
0.00080545577
0.0010648588
0.0013602368
0.0016687159
0.0019537044
0.0021647302
0.0022677342
0.0022988121
0.0022742312
0.002209296
0.0021326879
0.0020578994
0.0019881416
0.0019231104
0.0018623123
0.001805483
0.0017525449
0.0017036465
0.0016588894
0.001618601
0.0015831096
0.0015520923
0.0015230233
0.0014903589
0.0014564546
0.0014441242
0.0014427712
0.0014653271
0.0014956083
0.0015357688
0.0015706785
0.0015906023
0.0015996357
0.0015879243
0.0015381196
0.0015094258
0.0014870486
0.001378023
0.0012492186
0.0010892848
0.00093896365
0.00080495582
0.00065908555
2.4334024e-11
7.6465848e-10
6.2528279e-09
2.6890632e-08
8.2747363e-08
2.0879432e-07
4.6294201e-07
9.3801482e-07
1.7793373e-06
3.210276e-06
5.5689271e-06
9.3601426e-06
1.532815e-05
2.4555806e-05
3.8596346e-05
5.964087e-05
9.0717117e-05
0.00013589789
0.00020046444
0.00029091378
0.00041461709
0.00057884311
0.00078881435
0.0010445908
0.0013370665
0.00164433
0.001930826
0.0021480996
0.0022577119
0.0022919938
0.0022709106
0.002208082
0.0021327535
0.0020589072
0.0019901964
0.001926523
0.0018674889
0.0018129657
0.001763024
0.0017179032
0.001678177
0.0016444755
0.0016175097
0.0015971475
0.001580259
0.0015585874
0.001539887
0.0015364001
0.0015525099
0.0015842219
0.0016154692
0.0016395588
0.0016523773
0.001635069
0.0015783972
0.0014861922
0.0013215222
0.0011652119
0.0010287371
0.00090161331
0.00079758102
0.00069644797
0.00060103255
0.00050749258
0.0004172
2.3320727e-11
7.3281726e-10
5.9924552e-09
2.5770912e-08
7.9301983e-08
2.0010164e-07
4.4367217e-07
8.9898266e-07
1.7053339e-06
3.0768631e-06
5.3377628e-06
8.9722722e-06
1.469455e-05
2.3544367e-05
3.7014522e-05
5.7213576e-05
8.706057e-05
0.0001304924
0.00019263355
0.00027982452
0.0003993258
0.00055842163
0.000762593
0.001012534
0.0013002368
0.0016053016
0.0018938208
0.002120536
0.0022406574
0.002280148
0.0022648048
0.0022057069
0.0021325241
0.0020602845
0.0019932986
0.0019318588
0.0018757195
0.0018249353
0.0017798104
0.0017408215
0.0017086786
0.0016853964
0.0016731339
0.0016680496
0.001667012
0.0016609094
0.0016586274
0.001685843
0.0017322317
0.0017926074
0.0018587536
0.0019046363
0.0019337196
0.0019409745
0.0018176038
0.0016634232
0.0013281752
0.0010964905
0.00084067457
0.00068772296
0.0005930278
0.00051632343
0.00044273595
0.00037294985
0.00031517095
2.1967145e-11
6.9028313e-10
5.6446445e-09
2.4275168e-08
7.4699547e-08
1.8848957e-07
4.1793015e-07
8.4683901e-07
1.6064667e-06
2.8986122e-06
5.0288739e-06
8.4539053e-06
1.3847588e-05
2.2191905e-05
3.489843e-05
5.39645e-05
8.2162051e-05
0.00012324285
0.00018211555
0.00026490041
0.00037869218
0.00053076932
0.00072692378
0.00096866022
0.0012494113
0.0015507938
0.0018411263
0.0020791719
0.0022144557
0.0022620491
0.0022551286
0.0022019134
0.0021316749
0.0020616789
0.0019969354
0.0019383518
0.001885844
0.0018396299
0.0018001962
0.0017684671
0.0017500933
0.0017422402
0.0017413383
0.0017574897
0.0017812134
0.0017974602
0.0018398066
0.0019251393
0.0020403716
0.0021935805
0.0023716938
0.0025420295
0.0026476619
0.0026904483
0.0024217019
0.0021594357
0.0015486711
0.0011090137
0.000760865
0.00057187726
0.00047127711
0.00040768863
0.00035470097
0.00030848058
0.00027318173
2.0314171e-11
6.3834111e-10
5.2199034e-09
2.244858e-08
6.9079046e-08
1.743087e-07
3.8649276e-07
7.8315622e-07
1.4857134e-06
2.6808824e-06
4.6515217e-06
7.8205234e-06
1.2812418e-05
2.0538267e-05
3.2309727e-05
4.9986843e-05
7.6159067e-05
0.00011434673
0.00016918518
0.0002465091
0.00035318401
0.00049644212
0.00068240542
0.00091351935
0.0011849513
0.0014808106
0.0017722367
0.0020202667
0.0021763293
0.0022385861
0.0022432404
0.0021963222
0.0021296453
0.0020623473
0.0020003898
0.0019450091
0.0018965312
0.0018553597
0.0018238127
0.0018070451
0.0018010631
0.0018028555
0.0018279216
0.0018742543
0.0019366189
0.0019972854
0.0021268241
0.0023152295
0.0025734871
0.0029072218
0.0032944469
0.0036567846
0.0038598694
0.0039263298
0.0033303253
0.0027456237
0.0018018038
0.0011214074
0.00066990379
0.00046408476
0.000374367
0.00033081155
0.00030027253
0.00027691217
0.00025604701
1.8420035e-11
5.78821e-10
4.7331943e-09
2.0355492e-08
6.2638464e-08
1.5805848e-07
3.5046703e-07
7.1017589e-07
1.3473215e-06
2.431324e-06
4.2189431e-06
7.0942873e-06
1.1625123e-05
1.8640777e-05
2.9337449e-05
4.5415906e-05
6.9252652e-05
0.00010409553
0.00015425351
0.00022521099
0.00032353353
0.00045634493
0.00063007344
0.00084816862
0.001107743
0.0013957946
0.0016868229
0.0019446573
0.0021244843
0.0022064359
0.0022223598
0.0021874156
0.0021259398
0.0020616097
0.0020029334
0.0019509157
0.001906857
0.0018728127
0.0018548045
0.001848667
0.0018510605
0.0018765809
0.0019319027
0.0020189792
0.0021351993
0.0022718381
0.0025213491
0.0028547152
0.0033072155
0.0038658726
0.0044953693
0.0050731362
0.0053880646
0.0054792086
0.0043913212
0.0031867514
0.0019141978
0.0010550358
0.00057383623
0.00038646132
0.00031949827
0.00029251216
0.00027432606
0.00026252696
0.00024864815
1.6351243e-11
5.1381253e-10
4.2016044e-09
1.8069385e-08
5.5603874e-08
1.4030919e-07
3.1111662e-07
6.304562e-07
1.1961371e-06
2.1586623e-06
3.7462276e-06
6.3004477e-06
1.032679e-05
1.6564668e-05
2.6082832e-05
4.0405362e-05
6.167082e-05
9.2819236e-05
0.0001377843
0.00020163489
0.00029055413
0.00041146318
0.00057100875
0.00077360227
0.001018367
0.0012954259
0.001583044
0.0018482955
0.002052405
0.0021616826
0.0021935715
0.0021734191
0.0021199474
0.0020588649
0.0020031752
0.0019555203
0.0019161416
0.0018938065
0.001885616
0.0018856265
0.0019063634
0.0019580578
0.0020486786
0.0021856159
0.0023684748
0.0026090162
0.0029969516
0.0035011654
0.0041651647
0.0049519051
0.0058082443
0.0064843492
0.0068061291
0.0068327641
0.0051577725
0.0033830664
0.0019254144
0.00091952293
0.00046559661
0.00031928824
0.00027825027
0.00026842585
0.00026157132
0.00025581153
0.00024396949
1.4185855e-11
4.457686e-10
3.6451905e-09
1.5676511e-08
4.8240679e-08
1.2173041e-07
2.6992578e-07
5.4700321e-07
1.0378584e-06
1.8731666e-06
3.2511603e-06
5.4688221e-06
8.9660695e-06
1.4387466e-05
2.2666815e-05
3.5140115e-05
5.3690672e-05
8.0924465e-05
0.00012036053
0.00017659426
0.00025534422
0.00036322036
0.00050696199
0.00069183372
0.00091895342
0.00118176
0.0014627832
0.0017331332
0.0019575444
0.0020988639
0.0021530995
0.0021524437
0.0021103041
0.0020542433
0.0020010572
0.0019571972
0.0019265325
0.0019128389
0.0019102875
0.0019222593
0.0019624109
0.0020414574
0.0021710227
0.0023638135
0.0026206468
0.0029733922
0.0034970803
0.0041637921
0.0050091799
0.0059688725
0.0069542303
0.0076287029
0.0079212417
0.0074095043
0.0054328479
0.0033526065
0.0016388379
0.00071584767
0.00037169682
0.00027736802
0.00025873713
0.00025760269
0.00025571164
0.0002506181
0.00023497908
1.2006137e-11
3.7727435e-10
3.0850931e-09
1.3267781e-08
4.0828613e-08
1.0302792e-07
2.2845916e-07
4.6298634e-07
8.7849482e-07
1.5856714e-06
2.7525149e-06
4.6309135e-06
7.5944256e-06
1.2191323e-05
1.9217856e-05
2.9817201e-05
4.5608776e-05
6.8848941e-05
0.00010261448
0.00015097976
0.00021912041
0.00031321377
0.00043992107
0.00060515539
0.00081185095
0.0010567306
0.0013268378
0.0015978399
0.0018369944
0.0020105428
0.0020994227
0.002120835
0.0020947178
0.0020464602
0.0019969971
0.0019563182
0.0019339816
0.0019260935
0.0019281715
0.0019528791
0.00201223
0.002117952
0.0022855985
0.0025318529
0.002853904
0.0033066519
0.0039433044
0.0047432378
0.0057241153
0.0067879249
0.0077186205
0.0081952106
0.0083455104
0.0074308924
0.0051052432
0.002786478
0.0012682483
0.00052879934
0.00030712902
0.00025162524
0.00024849841
0.00025217898
0.00025103763
0.00024348354
0.00021934683
9.892517e-12
3.1085707e-10
2.5419769e-09
1.0932054e-08
3.3641105e-08
8.4891703e-08
1.8824658e-07
3.8150527e-07
7.2392573e-07
1.3067826e-06
2.2686844e-06
3.8176213e-06
6.2624188e-06
1.0057135e-05
1.5862861e-05
2.4632141e-05
3.7721206e-05
5.7033232e-05
8.5189561e-05
0.00012571126
0.00018316447
0.00026317248
0.00037212087
0.00051629234
0.00070012164
0.00092339834
0.0011777937
0.0014441949
0.0016935632
0.0018938169
0.0020193292
0.0020699262
0.0020691609
0.0020334234
0.0019894426
0.00195249
0.0019332078
0.0019291179
0.001940851
0.0019784089
0.0020521233
0.0021787548
0.0023774365
0.0026649563
0.00304195
0.0035748038
0.0042950882
0.0051775713
0.0062030092
0.0072213537
0.0079376099
0.0082311222
0.0079256484
0.0066003188
0.0041493663
0.0021255783
0.00089063262
0.00039399039
0.00026291695
0.00023743466
0.00024333687
0.00024880819
0.00024497299
0.0002305498
0.00019992508
7.9178412e-12
2.4880589e-10
2.0345637e-09
8.7498677e-09
2.6925997e-08
6.7947096e-08
1.5067465e-07
3.0536997e-07
5.794829e-07
1.0461238e-06
1.8163739e-06
3.0570474e-06
5.0161222e-06
8.0588244e-06
1.2718243e-05
1.9765245e-05
3.0302974e-05
4.5890552e-05
6.8697082e-05
0.00010167769
0.00014874306
0.00021485576
0.00030592331
0.00042827075
0.0005873938
0.00078571328
0.0010193699
0.0012749543
0.0015283963
0.0017489611
0.0019091165
0.0019962777
0.002022096
0.0020075041
0.0019740348
0.0019424352
0.0019264595
0.0019242234
0.001938881
0.0019816743
0.0020681028
0.0022113631
0.0024291066
0.0027364744
0.0031453574
0.0037060999
0.0044311183
0.0052893653
0.0062429125
0.0071878395
0.0077518462
0.0076818499
0.0070685506
0.0053332947
0.0031160591
0.0014681952
0.00057958625
0.00030243177
0.00023388267
0.00023043306
0.00024136068
0.00024235936
0.00023264746
0.00020949274
0.00018505082
6.1421531e-12
1.9300761e-10
1.5782827e-09
6.7875793e-09
2.0887506e-08
5.2709511e-08
1.1688652e-07
2.3689794e-07
4.4956607e-07
8.116429e-07
1.4093954e-06
2.3724667e-06
3.8937887e-06
6.2579771e-06
9.8814503e-06
1.5368433e-05
2.3587838e-05
3.5776245e-05
5.3670813e-05
7.9670719e-05
0.000117013
0.00016992227
0.00024364592
0.00034421155
0.00047764965
0.00064836568
0.00085646262
0.0010943547
0.0013441646
0.0015787082
0.0017685553
0.0018937458
0.0019535151
0.0019629835
0.0019448502
0.0019213766
0.0019089141
0.001909042
0.0019267745
0.0019725751
0.002060218
0.0022043716
0.0024218712
0.002727225
0.0031334957
0.0036843383
0.0043855296
0.0052003244
0.0060747221
0.00688021
0.0070931213
0.0067849158
0.0058671724
0.0039607498
0.0021614304
0.00093845852
0.00039915931
0.00024873507
0.00021930458
0.00022757064
0.00023795914
0.00023304742
0.00021014873
0.00019176484
0.00017121035
4.6078822e-12
1.4479549e-10
1.1840363e-09
5.0920754e-09
1.5669935e-08
3.9543199e-08
8.769032e-08
1.7772829e-07
3.3728939e-07
6.0897182e-07
1.0575531e-06
1.7804421e-06
2.9227386e-06
4.6988045e-06
7.4229417e-06
1.1552629e-05
1.7748711e-05
2.6957697e-05
4.0521325e-05
6.0316376e-05
8.8920895e-05
0.00012978679
0.00018736637
0.00026708344
0.00037495409
0.00051656804
0.00069511744
0.00090839677
0.001145476
0.0013851251
0.0015990876
0.0017615524
0.0018600397
0.0019003935
0.00190146
0.0018884263
0.0018778416
0.0018793286
0.0018982944
0.0019452333
0.0020309083
0.0021707843
0.0023801269
0.0026718894
0.0030578609
0.0035703792
0.0042013394
0.0049053326
0.0055964665
0.0061239831
0.006033888
0.0055872405
0.0044059744
0.0027838841
0.0014070179
0.00056651893
0.00028798585
0.00021713855
0.00021407081
0.00022757188
0.00022753923
0.00021440284
0.00019016442
0.00017633478
0.000159677
3.336655e-12
1.0484913e-10
8.5738196e-10
3.6872585e-09
1.1346866e-08
2.8633961e-08
6.349851e-08
1.2869839e-07
2.4424631e-07
4.4099934e-07
7.658945e-07
1.2895467e-06
2.1172237e-06
3.4046243e-06
5.3804437e-06
8.3784386e-06
1.2882604e-05
1.9590043e-05
2.9496872e-05
4.4012295e-05
6.5103246e-05
9.5463731e-05
0.00013868382
0.00019935549
0.00028298725
0.00039550618
0.00054203364
0.00072463848
0.00093913262
0.0011719682
0.0013997609
0.0015941311
0.0017350016
0.0018150935
0.0018448831
0.0018462307
0.0018413263
0.0018428266
0.0018577975
0.0018986224
0.001975393
0.0020998685
0.0022854923
0.0025424323
0.0028786795
0.0033102431
0.0038267526
0.0043531659
0.0048745861
0.0050251175
0.0048439517
0.0042855984
0.0030953509
0.0018458158
0.00083559577
0.00036638878
0.00022866991
0.00020347834
0.00021181162
0.00022210493
0.00021360648
0.00018924041
0.00017422161
0.00016415751
0.00014995755
2.329051e-12
7.3186741e-11
5.9846883e-10
2.5737721e-09
7.9203019e-09
1.9986958e-08
4.4322961e-08
8.9833713e-08
1.7048936e-07
3.0783216e-07
5.3463605e-07
9.002234e-07
1.4781587e-06
2.3773405e-06
3.7579333e-06
5.8541548e-06
9.0066921e-06
1.3708464e-05
2.0668478e-05
3.0899318e-05
4.583356e-05
6.7471343e-05
9.8552056e-05
0.00014272179
0.00020462634
0.00028978808
0.00040402548
0.00055208535
0.00073521157
0.00094784157
0.0011747792
0.0013917329
0.0015723114
0.001697349
0.0017659864
0.001791383
0.0017968848
0.0018010369
0.0018129535
0.0018435652
0.0019058088
0.0020079063
0.0021606282
0.0023706987
0.0026411961
0.0029720961
0.0033592872
0.0037127117
0.0040042415
0.0039583572
0.00370933
0.0030436134
0.0021137043
0.0011432279
0.00047807761
0.000256995
0.00019886776
0.00019976348
0.00021198091
0.00020832541
0.00018664995
0.00017283432
0.0001617896
0.00015365258
0.0001422257
1.5663383e-12
4.9219697e-11
4.0248314e-10
1.7309132e-09
5.326544e-09
1.3441528e-08
2.9807696e-08
6.0413828e-08
1.1465463e-07
2.0701714e-07
3.5954282e-07
6.0540676e-07
9.9410239e-07
1.5989297e-06
2.5277822e-06
3.9386446e-06
6.0617961e-06
9.2314851e-06
1.3930834e-05
2.085483e-05
3.0997175e-05
4.5766615e-05
6.7135354e-05
9.7812442e-05
0.00014141268
0.00020254781
0.00028669174
0.00039956845
0.00054572478
0.00072602626
0.00093434576
0.0011549999
0.0013639413
0.0015354131
0.00165306
0.0017206176
0.0017471102
0.0017559224
0.0017656257
0.001787248
0.0018326828
0.0019093058
0.0020247891
0.0021830769
0.0023817462
0.0026179305
0.0028577959
0.0030974421
0.0031420488
0.0030481427
0.0027405632
0.0021473668
0.0013904797
0.00063696506
0.00030209977
0.00020425887
0.00018813156
0.00019910902
0.00020373051
0.00018944466
0.00017144162
0.00016033465
0.00015046041
0.00014478469
0.00013504269
1.0156642e-12
3.1915629e-11
2.6098265e-10
1.1223754e-09
3.4538732e-09
8.7157865e-09
1.9327791e-08
3.9172786e-08
7.4341625e-08
1.3422611e-07
2.3311465e-07
3.9251213e-07
6.4450151e-07
1.0366026e-06
1.6387812e-06
2.5535459e-06
3.9304749e-06
5.9870858e-06
9.0387422e-06
1.3541303e-05
2.0151388e-05
2.981016e-05
4.3856553e-05
6.4173259e-05
9.3359779e-05
0.00013490524
0.00019328914
0.00027386175
0.0003822577
0.00052300827
0.00069709828
0.00089876949
0.0011130475
0.0013165532
0.0014833106
0.0016014807
0.0016728546
0.0017051995
0.0017201452
0.0017353298
0.0017645382
0.0018164068
0.0018960232
0.0020060169
0.0021390284
0.0022903247
0.0024298779
0.0025260765
0.0024958986
0.0023621054
0.0020275234
0.0015188723
0.00080003303
0.00035788018
0.00021453046
0.00018221609
0.00018583445
0.00019800421
0.00019019326
0.00017011184
0.00015807811
0.00014998563
0.00014235916
0.00013769399
0.00012959918
6.362796e-13
1.9994062e-11
1.6349654e-10
7.031273e-10
2.1637144e-09
5.4600482e-09
1.2107842e-08
2.453924e-08
4.6569055e-08
8.4078854e-08
1.4601532e-07
2.4584124e-07
4.0363734e-07
6.4913973e-07
1.026122e-06
1.598712e-06
2.4604958e-06
3.7476415e-06
5.6578213e-06
8.4774733e-06
1.2620958e-05
1.8686382e-05
2.7533993e-05
4.0393331e-05
5.900291e-05
8.5777723e-05
0.0001239808
0.00017783721
0.00025246098
0.00035334268
0.00048509957
0.00064924592
0.0008411968
0.0010477703
0.0012472077
0.0014169334
0.0015429586
0.001622449
0.0016653827
0.0016896239
0.0017117386
0.0017440758
0.0017940417
0.0018622068
0.0019461917
0.0020269547
0.0021078182
0.0021055454
0.0020464203
0.0018699863
0.0015399655
0.00091544038
0.00041076767
0.00022855917
0.00017811936
0.00017689445
0.00018782963
0.0001849617
0.00016863894
0.00015647811
0.00014823387
0.00014157584
0.00013526743
0.00013101897
0.00012435345
3.8647265e-13
1.2144277e-11
9.9306729e-11
4.2707387e-10
1.3142158e-09
3.3163435e-09
7.3540072e-09
1.4904235e-08
2.8283499e-08
5.1062722e-08
8.8672636e-08
1.49283e-07
2.450752e-07
3.9407955e-07
6.2282344e-07
9.7014503e-07
1.4926868e-06
2.2728164e-06
3.4300682e-06
5.137699e-06
7.6466735e-06
1.1320371e-05
1.6684522e-05
2.4498098e-05
3.5851375e-05
5.229551e-05
7.6000557e-05
0.00010992037
0.00015790593
0.00022466494
0.00031537627
0.00043466842
0.00058470322
0.00076255441
0.0009577103
0.0011524142
0.0013267485
0.0014656109
0.0015637399
0.0016218207
0.0016614356
0.0016930339
0.0017235422
0.0017687272
0.0018142945
0.0018681816
0.0018739272
0.0018413342
0.0017339806
0.001490735
0.00094372715
0.00044194084
0.00023733236
0.0001765745
0.00016764781
0.00017754266
0.00018363861
0.00017282698
0.00015800415
0.00014934851
0.00014172222
0.00013517997
0.00012905533
0.0001250345
0.00012014347
2.2871877e-13
7.1871164e-12
5.8770769e-11
2.5274631e-10
7.7776166e-10
1.9626189e-09
4.352063e-09
8.8200788e-09
1.6737215e-08
3.0215879e-08
5.2467919e-08
8.8323538e-08
1.4498158e-07
2.3309122e-07
3.683084e-07
5.7353268e-07
8.8212222e-07
1.3425189e-06
2.024917e-06
3.0309069e-06
4.5074711e-06
6.6673529e-06
9.8187215e-06
1.4408205e-05
2.1082584e-05
3.0775122e-05
4.4821368e-05
6.5103516e-05
9.4203498e-05
0.00013551411
0.00019320907
0.0002719285
0.00037599199
0.00050797099
0.00066651062
0.00084432892
0.0010282174
0.0012022409
0.001352049
0.0014739054
0.0015554592
0.0016098916
0.0016481082
0.0016882742
0.0017280596
0.0017271042
0.0016964308
0.0016006286
0.0013807944
0.0008773374
0.00042819174
0.0002355673
0.00017387408
0.00016168675
0.00016654637
0.0001795183
0.0001712434
0.00015473784
0.00014641896
0.00013980857
0.0001336875
0.00012905387
0.0001246336
0.00012131405
0.00011701352
1.3292649e-13
4.1769985e-12
3.4156285e-11
1.4689037e-10
4.5201552e-10
1.1406172e-09
2.5292658e-09
5.1258313e-09
9.7266525e-09
1.7558921e-08
3.0488119e-08
5.1318773e-08
8.4228793e-08
1.3539467e-07
2.1388915e-07
3.3296795e-07
5.1191297e-07
7.7867348e-07
1.1736575e-06
1.7551903e-06
2.6074046e-06
3.8517011e-06
5.6634661e-06
8.2965106e-06
1.2118721e-05
1.7663558e-05
2.5703027e-05
3.7346227e-05
5.4164081e-05
7.8327278e-05
0.00011271284
0.00016089279
0.00022684374
0.00031429329
0.00042559843
0.00056040066
0.00071404965
0.00087754408
0.0010388407
0.0011873001
0.0013178243
0.0014207895
0.0014897482
0.001541336
0.0015385537
0.0015041977
0.0014034564
0.001183815
0.00070554718
0.00036824351
0.0002235733
0.00016974407
0.00015644312
0.00016057522
0.00017248386
0.00016744056
0.00015426649
0.00014679253
0.00014096681
0.00013519815
0.00012967858
0.00012489812
0.00012020941
0.00011702018
0.00011354639
7.7242714e-14
2.4272258e-12
1.9847969e-11
8.535681e-11
2.6266176e-10
6.6279793e-10
1.4697117e-09
2.9784923e-09
5.6518073e-09
1.020257e-08
1.7714313e-08
2.9815606e-08
4.8931674e-08
7.8646073e-08
1.2421862e-07
1.9332577e-07
2.9711692e-07
4.517197e-07
6.8038576e-07
1.0165692e-06
1.5083306e-06
2.2246825e-06
3.2647832e-06
4.7713276e-06
6.95012e-06
1.0098638e-05
1.46473e-05
2.1217774e-05
3.0701779e-05
4.4360946e-05
6.393813e-05
9.1750709e-05
0.00013070294
0.00018406134
0.0002549111
0.00034511923
0.00045435398
0.00057924893
0.00071345386
0.00084736285
0.00097420357
0.0010805728
0.0011636469
0.0011977609
0.0011726514
0.0010841209
0.00086268167
0.00050656872
0.00029832614
0.00019846941
0.00016195911
0.00015160868
0.00015543255
0.00016670402
0.00016445446
0.00015458306
0.0001472376
0.00014086991
0.00013429321
0.00012891556
0.00012438065
0.000120671
0.00011727851
0.00011472517
0.00011175483
4.6885408e-14
1.4732972e-12
1.2047481e-11
5.1810536e-11
1.5943206e-10
4.0230712e-10
8.9208229e-10
1.8078523e-09
3.4303913e-09
6.1922738e-09
1.0750812e-08
1.8093638e-08
2.9690829e-08
4.7713202e-08
7.5344708e-08
1.172276e-07
1.8009555e-07
2.7367262e-07
4.1194848e-07
6.1496596e-07
9.1136657e-07
1.3419917e-06
1.9649886e-06
2.8631415e-06
4.1546034e-06
6.0081362e-06
8.6652236e-06
1.2471846e-05
1.792301e-05
2.5722498e-05
3.6857795e-05
5.2680813e-05
7.4966003e-05
0.00010591062
0.00014799842
0.0002035575
0.00027400192
0.00035871743
0.00045466494
0.00055529782
0.0006538399
0.0007389324
0.00079812194
0.00078813804
0.00072217637
0.00053207673
0.00033622356
0.00022471979
0.00017086837
0.00014936068
0.00014583766
0.0001503237
0.00016193947
0.00016161409
0.00015619036
0.00014802548
0.00014085086
0.00013493109
0.00013025142
0.00012607538
0.00012202192
0.00011831572
0.00011458812
0.00011193488
0.00010946611
3.2318299e-14
1.0155504e-12
8.3044033e-12
3.5713474e-11
1.098985e-10
2.7731694e-10
6.149318e-10
1.2462043e-09
2.3646938e-09
4.2686106e-09
7.4110826e-09
1.2472882e-08
2.0467111e-08
3.288916e-08
5.1930531e-08
8.0782336e-08
1.2406415e-07
1.8842735e-07
2.8340041e-07
4.2257411e-07
6.2524487e-07
9.1870174e-07
1.3414096e-06
1.9473855e-06
2.8120618e-06
4.0405799e-06
5.7799461e-06
8.2353563e-06
1.1693601e-05
1.6555844e-05
2.3381622e-05
3.294339e-05
4.6254552e-05
6.4669485e-05
8.9781385e-05
0.00012329198
0.00016663134
0.00022044718
0.00028362582
0.00035188949
0.00041758694
0.00046755868
0.00046267843
0.00041531719
0.00029878514
0.00021325321
0.0001646699
0.00014279096
0.00013590358
0.00013862261
0.00014692414
0.00015848503
0.00016046284
0.000157299
0.00014853307
0.00014115098
0.00013600742
0.00013162919
0.00012704443
0.00012274078
0.00011872593
0.00011546311
0.00011236488
0.00011020884
0.00010809767
2.6920141e-14
8.4592301e-13
6.917356e-12
2.9748731e-11
9.1545149e-11
2.3100991e-10
5.1226705e-10
1.0381977e-09
1.9701293e-09
3.556677e-09
6.1757244e-09
1.039519e-08
1.7060525e-08
2.7420045e-08
4.3303524e-08
6.7375255e-08
1.0349045e-07
1.5719374e-07
2.36411e-07
3.5240114e-07
5.210522e-07
7.6462532e-07
1.1140714e-06
1.6120683e-06
2.3169678e-06
3.3079558e-06
4.6910257e-06
6.6075211e-06
9.2455429e-06
1.2856028e-05
1.7775438e-05
2.4455973e-05
3.350089e-05
4.5698608e-05
6.200799e-05
8.3464702e-05
0.00011091246
0.00014432727
0.00018181611
0.00021793056
0.00024140525
0.00023558355
0.00020193727
0.00016193102
0.00013551318
0.00012075472
0.00011759822
0.00012191326
0.00013214868
0.0001491791
0.00015722689
0.00015984542
0.00015732376
0.00014892646
0.00014174333
0.00013741001
0.00013264618
0.0001277088
0.0001232244
0.00011949942
0.00011606747
0.00011312678
0.00011022694
0.00010829706
0.00010663218
2.5507817e-14
8.0154408e-13
6.5545005e-12
2.8188658e-11
8.6746517e-11
2.1890901e-10
4.8545934e-10
9.8394064e-10
1.8673554e-09
3.3715783e-09
5.8552929e-09
9.8578532e-09
1.6182671e-08
2.601676e-08
4.1101139e-08
6.397226e-08
9.8301575e-08
1.493691e-07
2.2471693e-07
3.3503933e-07
4.9537514e-07
7.266705e-07
1.057769e-06
1.5278536e-06
2.189312e-06
3.1109044e-06
4.3809476e-06
6.1103731e-06
8.4357719e-06
1.1523006e-05
1.5571802e-05
2.0821746e-05
2.7559876e-05
3.6120473e-05
4.6832721e-05
5.9855482e-05
7.5143319e-05
9.1223844e-05
0.00010532137
0.0001117981
0.00010699425
9.6709655e-05
8.9630324e-05
8.7662147e-05
9.14372e-05
9.6993102e-05
0.00010903028
0.00013432782
0.00015126826
0.00015700794
0.00015913405
0.00015713479
0.00014966926
0.00014261332
0.0001384341
0.00013333059
0.00012848667
0.00012476124
0.00012118111
0.00011776202
0.00011447026
0.00011161098
0.00010887685
0.00010703063
0.00010550808
2.3547464e-14
7.3994358e-13
6.0507968e-12
2.6022665e-11
8.0082439e-11
2.0209746e-10
4.4819487e-10
9.0845874e-10
1.7242162e-09
3.1133869e-09
5.4074257e-09
9.1048592e-09
1.4948448e-08
2.4035776e-08
3.797679e-08
5.9116638e-08
9.0848242e-08
1.3804614e-07
2.0766055e-07
3.0951643e-07
4.5736298e-07
6.7020753e-07
9.7393435e-07
1.4031357e-06
2.0029513e-06
2.8305198e-06
3.9554492e-06
5.458019e-06
7.4243821e-06
9.9386203e-06
1.3072731e-05
1.6877498e-05
2.1371151e-05
2.6516897e-05
3.222059e-05
3.8237202e-05
4.4058395e-05
4.8418688e-05
4.9764197e-05
4.9610367e-05
5.0414868e-05
5.4114827e-05
6.0284542e-05
6.8825851e-05
8.3516429e-05
0.00010587822
0.00013954009
0.00015264446
0.00015758135
0.0001590351
0.00015724721
0.00015080775
0.00014338138
0.00013907764
0.00013403224
0.00012975792
0.00012609018
0.00012215479
0.00011820762
0.00011501776
0.00011201667
0.00010950838
0.00010704273
0.00010563788
0.00010438861
1.8707984e-14
5.8787001e-13
4.8072274e-12
2.0674397e-11
6.3623421e-11
1.6056036e-10
3.5607406e-10
7.2172469e-10
1.3697655e-09
2.4732548e-09
4.2953426e-09
7.2316668e-09
1.1871365e-08
1.9084332e-08
3.0145148e-08
4.6907654e-08
7.2048402e-08
1.094018e-07
1.6441367e-07
2.4474104e-07
3.6101971e-07
5.2780052e-07
7.6460767e-07
1.0969814e-06
1.5572145e-06
2.1842732e-06
3.0221481e-06
4.115722e-06
5.5034336e-06
7.2075401e-06
9.2202032e-06
1.1496576e-05
1.3946191e-05
1.6450755e-05
1.8850585e-05
2.0906302e-05
2.2394202e-05
2.3698186e-05
2.6129899e-05
3.0035899e-05
3.4960192e-05
4.5028612e-05
5.8066109e-05
7.7717269e-05
0.00010887032
0.00014052961
0.00015412656
0.00015839972
0.00015933697
0.00015766466
0.00015186446
0.00014371201
0.00013952832
0.00013480967
0.00013095897
0.00012700333
0.00012286665
0.00011941986
0.0001164817
0.00011370247
0.00011078774
0.00010847264
0.00010610686
0.00010465159
0.00010356554
1.2364185e-14
3.8852524e-13
3.1770945e-12
1.366353e-11
4.2047276e-11
1.0610719e-10
2.3530171e-10
4.7689703e-10
9.0501181e-10
1.6338579e-09
2.836991e-09
4.7751188e-09
7.8360109e-09
1.2591372e-08
1.9877244e-08
3.0906578e-08
4.7424962e-08
7.1922729e-08
1.0791784e-07
1.603224e-07
2.3589764e-07
3.437828e-07
4.9604349e-07
7.0811579e-07
9.9891376e-07
1.3902383e-06
1.9049426e-06
2.5632648e-06
3.3773225e-06
4.3439734e-06
5.4384725e-06
6.6140665e-06
7.8082271e-06
8.9587863e-06
1.0035837e-05
1.1269052e-05
1.3206476e-05
1.57098e-05
2.0018445e-05
2.6752804e-05
3.786778e-05
5.457719e-05
7.7997565e-05
0.00011033282
0.00014072232
0.0001550134
0.00015962786
0.00016008158
0.00015850093
0.00015296818
0.00014453886
0.00014035622
0.00013596123
0.00013204881
0.00012789428
0.00012396054
0.0001208264
0.00011774389
0.00011437935
0.00011148756
0.00010889322
0.00010669147
0.00010475184
0.00010364965
0.00010257549
7.0369692e-15
2.2112546e-13
1.8081997e-12
7.7762714e-12
2.3929457e-11
6.0383539e-11
1.3389593e-10
2.7134511e-10
5.1486027e-10
9.2931939e-10
1.6132296e-09
2.7144053e-09
4.4523976e-09
7.1503283e-09
1.1279663e-08
1.7522495e-08
2.6856985e-08
4.0672504e-08
6.0921048e-08
9.0309727e-08
1.3253352e-07
1.9253477e-07
2.7675328e-07
3.9329327e-07
5.5187918e-07
7.6341771e-07
1.0389569e-06
1.3878325e-06
1.8153953e-06
2.3210591e-06
2.8987471e-06
3.543581e-06
4.2689851e-06
5.1659674e-06
6.420231e-06
8.3162319e-06
1.1276693e-05
1.5887522e-05
2.3549905e-05
3.598171e-05
5.3859638e-05
7.759366e-05
0.00010832544
0.00013800602
0.00015536592
0.00016119731
0.00016135521
0.00015979178
0.00015433522
0.00014559594
0.00014121621
0.0001366848
0.00013279984
0.00012866373
0.00012510931
0.00012185855
0.00011844588
0.00011523946
0.00011260677
0.00011035199
0.00010799387
0.00010590443
0.00010379277
0.00010281556
0.00010197553
3.8589601e-15
1.2126146e-13
9.9157884e-13
4.2642669e-12
1.3121739e-11
3.3109638e-11
7.3412585e-11
1.4875798e-10
2.8222021e-10
5.0931518e-10
8.8393377e-10
1.4868782e-09
2.4380514e-09
3.9137208e-09
6.1707424e-09
9.5801774e-09
1.4673307e-08
2.2203543e-08
3.3227861e-08
4.9210748e-08
7.2151453e-08
1.0473076e-07
1.5046585e-07
2.1385124e-07
3.0045396e-07
4.1693521e-07
5.7102605e-07
7.7161414e-07
1.0294692e-06
1.3597893e-06
1.7886063e-06
2.3664284e-06
3.1943485e-06
4.4421387e-06
6.4010889e-06
9.5966291e-06
1.4761394e-05
2.2918517e-05
3.541417e-05
5.2841714e-05
7.601599e-05
0.00010564418
0.00013592152
0.0001566155
0.00016320523
0.00016336428
0.00016168015
0.00015597035
0.00014704052
0.0001423188
0.00013762838
0.00013374426
0.00012995803
0.00012641062
0.00012295061
0.00011944369
0.00011658767
0.00011401497
0.00011135777
0.00010881437
0.00010638768
0.0001047176
0.00010303749
0.00010204251
0.00010108619
2.6446515e-15
8.31038e-14
6.7955521e-13
2.922396e-12
8.9924787e-12
2.2689877e-11
5.0307833e-11
1.0193717e-10
1.933884e-10
3.4900035e-10
6.0571532e-10
1.0189538e-09
1.6710296e-09
2.6831251e-09
4.2322162e-09
6.5748135e-09
1.0079987e-08
1.5274883e-08
2.2906823e-08
3.4027125e-08
5.0103105e-08
7.3166706e-08
1.06012e-07
1.5246245e-07
2.177494e-07
3.0909234e-07
4.3667892e-07
6.1548157e-07
8.6890835e-07
1.2357712e-06
1.7802346e-06
2.6118967e-06
3.9165813e-06
6.0029534e-06
9.3527685e-06
1.4619494e-05
2.2842489e-05
3.5000952e-05
5.1972369e-05
7.483612e-05
0.00010395529
0.00013476137
0.00015750832
0.00016534733
0.00016587237
0.0001640013
0.00015797858
0.00014886966
0.00014384195
0.00013879252
0.00013486276
0.00013109897
0.00012751432
0.00012378011
0.0001205242
0.00011768601
0.00011487658
0.00011208849
0.00010955299
0.00010754554
0.00010546639
0.00010370673
0.00010200818
0.00010139078
0.0001005647
2.7996626e-15
8.7974872e-14
7.1939055e-13
3.0937343e-12
9.5198294e-12
2.4021012e-11
5.3261214e-11
1.0792839e-10
2.0477577e-10
3.6961031e-10
6.4164096e-10