/*--------------------------------*- C++ -*----------------------------------*\
  =========                 |
  \\      /  F ield         | OpenFOAM: The Open Source CFD Toolbox
   \\    /   O peration     | Website:  https://openfoam.org
    \\  /    A nd           | Version:  13
     \\/     M anipulation  |
\*---------------------------------------------------------------------------*/
FoamFile
{
    format      ascii;
    class       surfaceScalarField;
    location    "22.303765";
    object      phi;
}
// * * * * * * * * * * * * * * * * * * * * * * * * * * * * * * * * * * * * * //

dimensions      [0 3 -1 0 0 0 0];

internalField   nonuniform List<scalar> 
34068
(
-2.4760049e-08
-8.4015148e-09
3.3161564e-08
-1.1012155e-07
-2.8642994e-08
1.1400449e-07
-2.761554e-07
-5.5544277e-08
2.2157813e-07
-5.4802171e-07
-9.1333045e-08
3.6319935e-07
-9.5709646e-07
-1.3895639e-07
5.4803113e-07
-1.5423163e-06
-2.022718e-07
7.8749162e-07
-2.351774e-06
-2.8628441e-07
1.0957421e-06
-3.4446006e-06
-3.9742709e-07
1.4902537e-06
-4.8931661e-06
-5.4388649e-07
1.992452e-06
-6.7856311e-06
-7.3597249e-07
2.6284375e-06
-9.2288725e-06
-9.8652199e-07
3.4297634e-06
-1.2351794e-05
-1.3113212e-06
4.4342426e-06
-1.6309005e-05
-1.7295147e-06
5.6867263e-06
-2.1284834e-05
-2.2639523e-06
7.2397811e-06
-2.7497553e-05
-2.9414005e-06
9.1541194e-06
-3.5203676e-05
-3.7925076e-06
1.1498631e-05
-4.4702027e-05
-4.851376e-06
1.4349727e-05
-5.6337191e-05
-6.1545386e-06
1.7789702e-05
-7.0501724e-05
-7.7390814e-06
2.1903615e-05
-8.7636322e-05
-9.6396117e-06
2.677421e-05
-0.00010822677
-1.1883727e-05
3.2474179e-05
-0.00013279623
-1.4485707e-05
3.9055167e-05
-0.00016189102
-1.7438309e-05
4.6533099e-05
-0.00019605805
-2.0703161e-05
5.4870191e-05
-0.00023581266
-2.4201387e-05
6.3955998e-05
-0.00028159823
-2.7808452e-05
7.3594018e-05
-0.00033374476
-3.1360319e-05
8.350685e-05
-0.00039244319
-3.4679389e-05
9.3377817e-05
-0.00045775857
-3.7620951e-05
0.00010293633
-0.00052969422
-4.0119482e-05
0.00011205514
-0.0006082853
-4.2197956e-05
0.00012078903
-0.0006936753
-4.3926784e-05
0.00012931678
-0.00078614713
-4.5364496e-05
0.00013783633
-0.00088611754
-4.6518191e-05
0.0001464886
-0.00099411932
-4.732997e-05
0.00015533174
-0.0011107886
-4.7674679e-05
0.00016434398
-0.0012368641
-4.7355649e-05
0.00017343109
-0.0013731987
-4.6091868e-05
0.00018242654
-0.0015207857
-4.3492934e-05
0.00019107989
-0.0016807979
-3.9017305e-05
0.00019902955
-0.0018546449
-3.1906545e-05
0.00020575348
-0.0020440474
-2.108448e-05
0.00021048705
-0.002251123
-5.0157407e-06
0.00021209126
-0.0024785237
1.8570305e-05
0.00020883044
-0.002729533
5.2917082e-05
0.00019809225
-0.0030081823
0.00010274777
0.0001759015
-0.0033192858
0.00017482603
0.00013627742
-0.003668567
0.00027893215
7.0349068e-05
-0.0040626667
0.00042915832
-3.5058617e-05
-0.004509052
0.00064549069
-0.00019910534
-0.0050158479
0.00095589498
-0.00044909914
-0.0055916608
0.0013985489
-0.00082273591
-0.0062456506
0.002023779
-0.0013697893
-0.006988369
0.0028943512
-0.0021516327
-0.0078341151
0.0040821196
-0.0032363735
-0.0088050952
0.0056552539
-0.0046842737
-0.0099387305
0.0076486689
-0.0065150336
-0.011291717
0.010010011
-0.0086570246
-0.012941924
0.01251296
-0.010862753
-0.014977467
0.014757175
-0.012721632
-0.01744857
0.016003999
-0.013532896
-0.020185123
0.015015194
-0.012278641
-0.022635447
0.010124894
-0.0076745695
-0.023361472
-0.0011518325
0.0018778571
-0.018205852
-0.020513067
0.015357448
-2.4795011e-08
1.6393496e-08
-1.1027716e-07
5.6839152e-08
-2.7655458e-07
1.1073314e-07
-5.488372e-07
1.8094958e-07
-9.5857341e-07
2.7077982e-07
-1.5448034e-06
3.8395814e-07
-2.3557662e-06
5.2467844e-07
-3.4507961e-06
6.9760275e-07
-4.9025423e-06
9.0785974e-07
-6.799546e-06
1.1610312e-06
-9.2491968e-06
1.4631289e-06
-1.2381082e-05
1.8205634e-06
-1.6350715e-05
2.2401184e-06
-2.1343603e-05
2.7289362e-06
-2.7579552e-05
3.2945489e-06
-3.5317041e-05
3.9449808e-06
-4.485739e-05
4.6889731e-06
-5.6548322e-05
5.5363932e-06
-7.07863e-05
6.4988969e-06
-8.8016816e-05
7.590904e-06
-0.00010873147
8.8309255e-06
-0.00013346036
1.024318e-05
-0.00016275793
1.1859264e-05
-0.0001971804
1.3719312e-05
-0.00023725342
1.5871636e-05
-0.00028343125
1.8369376e-05
-0.0003360545
2.1262932e-05
-0.00039532312
2.4589222e-05
-0.00046130795
2.8363881e-05
-0.00053401384
3.2586408e-05
-0.00061347342
3.7261625e-05
-0.00069982542
4.2425214e-05
-0.00079334759
4.8157673e-05
-0.00089445189
5.4586118e-05
-0.0010036664
6.1884502e-05
-0.0011216213
7.0280248e-05
-0.0012490467
8.0069769e-05
-0.0013867825
9.1643874e-05
-0.001535801
0.00010552558
-0.0016972437
0.00012242548
-0.0018724728
0.00014332249
-0.0020631378
0.00016958054
-0.0022712679
0.00020311432
-0.0024993491
0.00024665158
-0.0027504737
0.00030404167
-0.0030283849
0.00038065899
-0.0033375061
0.00048394718
-0.0036830274
0.00062445346
-0.0040708803
0.00081701119
-0.004507596
0.0010822064
-0.0050000838
0.0014483828
-0.005555392
0.001953857
-0.0061806574
0.0026490444
-0.0068837709
0.0035974647
-0.0076752963
0.0048736449
-0.0085715524
0.00655151
-0.009599523
0.0086766395
-0.01079366
0.011204148
-0.012185722
0.013905022
-0.013791032
0.016362485
-0.015583496
0.017796462
-0.017261587
0.016693286
-0.01817494
0.011038246
-0.016994187
-0.0023325859
-0.023037508
-0.012162531
-2.4371774e-08
4.076527e-08
-1.0839245e-07
1.4085983e-07
-2.7183109e-07
2.7417177e-07
-5.3948994e-07
4.4860843e-07
-9.423244e-07
6.7361427e-07
-1.5187838e-06
9.6041752e-07
-2.316405e-06
1.3222997e-06
-3.3936981e-06
1.7748958e-06
-4.8223534e-06
2.3365151e-06
-6.6898124e-06
3.0284902e-06
-9.1022198e-06
3.8755363e-06
-1.2187779e-05
4.9061229e-06
-1.61005e-05
6.1528387e-06
-2.1024296e-05
7.6527327e-06
-2.7177352e-05
9.4476043e-06
-3.4816582e-05
1.1584211e-05
-4.4241938e-05
1.4114329e-05
-5.5800144e-05
1.7094599e-05
-6.9887286e-05
2.0586039e-05
-8.6949427e-05
2.4653045e-05
-0.00010748009
2.9361593e-05
-0.00013201317
3.4776257e-05
-0.00016110934
4.0955428e-05
-0.00019533405
4.7944029e-05
-0.00023522572
5.5763302e-05
-0.00028125479
6.4398444e-05
-0.00033378041
7.3788553e-05
-0.00039302042
8.3829233e-05
-0.00045905819
9.4401649e-05
-0.00053190115
0.00010542937
-0.00061157365
0.00011693412
-0.00069819841
0.00012904997
-0.00079203378
0.00014199304
-0.00089347122
0.00015602356
-0.0010030169
0.00017143016
-0.0011212757
0.00018853911
-0.0012489461
0.00020774008
-0.0013868254
0.00022952326
-0.0015358287
0.00025452882
-0.0016970175
0.0002836143
-0.0018716431
0.00031794804
-0.0020612017
0.00035913912
-0.0022675038
0.00040941645
-0.0024927475
0.0004718953
-0.0027396132
0.00055090738
-0.0030112829
0.00065232865
-0.0033114224
0.00078408667
-0.0036441895
0.00095722055
-0.0040141117
0.0011869334
-0.0044258116
0.0014939063
-0.0048835944
0.0019061656
-0.0053909267
0.0024611893
-0.0059499574
0.0032080752
-0.0065615511
0.0042090584
-0.0072261656
0.0055382594
-0.0079448984
0.0072702428
-0.0087215521
0.0094532932
-0.0095513517
0.012033948
-0.010401259
0.014754929
-0.011201559
0.017162785
-0.011830103
0.018425006
-0.011870103
0.016733286
-0.010734215
0.0099023586
-0.0071514599
-0.005915341
-0.030528056
0.00033908777
-2.3453929e-08
6.4219199e-08
-1.0431879e-07
2.2172469e-07
-2.616397e-07
4.3149269e-07
-5.1932665e-07
7.0629538e-07
-9.0724286e-07
1.0615305e-06
-1.4625102e-06
1.5156848e-06
-2.2310663e-06
2.0908558e-06
-3.2695055e-06
2.8133349e-06
-4.6472461e-06
3.7142557e-06
-6.4490544e-06
4.8302984e-06
-8.77796e-06
6.2044419e-06
-1.1758576e-05
7.8867391e-06
-1.5540831e-05
9.9350932e-06
-2.0304068e-05
1.241597e-05
-2.6261453e-05
1.5404989e-05
-3.3664522e-05
1.898728e-05
-4.2807642e-05
2.325745e-05
-5.4032008e-05
2.8318964e-05
-6.7728596e-05
3.4282628e-05
-8.4339301e-05
4.126375e-05
-0.00010435515
4.9377438e-05
-0.00012831009
5.8731197e-05
-0.00015676857
6.9413909e-05
-0.0001903048
8.1480265e-05
-0.00022947207
9.4930568e-05
-0.00027476236
0.00010968873
-0.00032656172
0.00012558792
-0.00038511587
0.00014238338
-0.00045052899
0.00015981477
-0.00052281389
0.00017771427
-0.00060198171
0.00019610194
-0.0006881277
0.00021519596
-0.00078147554
0.00023534088
-0.00088237912
0.00025692714
-0.00099130413
0.00028035517
-0.0011088093
0.00030604427
-0.0012355362
0.00033446695
-0.0013722093
0.00036619641
-0.0015196466
0.00040196613
-0.0016787791
0.00044274674
-0.0018506799
0.00048984891
-0.0020366026
0.00054506176
-0.002238024
0.00061083793
-0.0024566929
0.00069056412
-0.0026946711
0.00078888559
-0.0029542927
0.00091195034
-0.0032380873
0.0010678812
-0.0035486667
0.0012677999
-0.0038884455
0.0015267122
-0.0042591541
0.0018646149
-0.0046611067
0.0023081183
-0.0050922005
0.0028922831
-0.0055467391
0.0036626138
-0.006014495
0.0046768143
-0.0064801698
0.0060039342
-0.006921866
0.0077119389
-0.0073110284
0.0098424555
-0.0075938686
0.012316788
-0.0076706994
0.01483176
-0.0073906152
0.016882701
-0.006558059
0.01759245
-0.0046840187
0.014859246
-0.0012566524
0.0064749923
0.0050135833
-0.012185577
-0.040992007
0.015477534
-2.2026057e-08
8.6245256e-08
-9.7985101e-08
2.9768373e-07
-2.4579516e-07
5.7930275e-07
-4.8797143e-07
9.4847165e-07
-8.52663e-07
1.4262221e-06
-1.3749013e-06
2.0379231e-06
-2.0980885e-06
2.8140431e-06
-3.0757704e-06
3.7910169e-06
-4.3737202e-06
5.0122055e-06
-6.0723875e-06
6.5289658e-06
-8.2697272e-06
8.4017816e-06
-1.1084452e-05
1.0701464e-05
-1.4659695e-05
1.3510336e-05
-1.9167092e-05
1.6923367e-05
-2.4811189e-05
2.1049086e-05
-3.1834082e-05
2.6010173e-05
-4.0520046e-05
3.1943414e-05
-5.1199841e-05
3.8998759e-05
-6.4254161e-05
4.7336947e-05
-8.0115488e-05
5.7125077e-05
-9.92673e-05
6.852925e-05
-0.00012223922
8.1703121e-05
-0.00014959629
9.6770975e-05
-0.0001819202
0.00011380418
-0.00021978061
0.00013279097
-0.00026369598
0.00015360411
-0.00031408788
0.00017597982
-0.00037124085
0.00019953636
-0.00043529025
0.00022386416
-0.00050625942
0.00024868345
-0.00058414319
0.00027398572
-0.00066899828
0.00030005105
-0.00076099765
0.00032734024
-0.00086043914
0.00035636863
-0.00096772792
0.00038764396
-0.0010833541
0.00042167043
-0.0012078762
0.00045898909
-0.0013419137
0.0005002339
-0.0014861468
0.0005461992
-0.0016413232
0.0005979232
-0.0018082701
0.0006567958
-0.0019879078
0.00072469947
-0.0021812619
0.00080419195
-0.0023894702
0.00089877244
-0.0026137644
0.0010131798
-0.0028553514
0.0011535373
-0.0031152462
0.0013277761
-0.0033940065
0.0015465602
-0.0036912467
0.0018239524
-0.0040048663
0.0021782346
-0.0043298924
0.0026331443
-0.0046568445
0.0032192352
-0.0049696798
0.0039754492
-0.0052437432
0.0049508777
-0.0054437598
0.0062039507
-0.0055195658
0.007787745
-0.0054052598
0.0097281495
-0.0049964718
0.011908
-0.0041330801
0.013968368
-0.0025879665
0.015337587
-0.00013327034
0.015137754
0.0037808716
0.010945104
0.0097264668
0.00052939701
0.018941317
-0.021400427
-0.054679815
0.032629125
-2.0092969e-08
1.0633822e-07
-8.9405111e-08
3.6699588e-07
-2.2432288e-07
7.1422051e-07
-4.4546209e-07
1.1696109e-06
-7.7863405e-07
1.759394e-06
-1.256009e-06
2.5152981e-06
-1.9175137e-06
3.4755478e-06
-2.8124941e-06
4.6859973e-06
-4.0016928e-06
6.2014042e-06
-5.5595686e-06
8.0868416e-06
-7.5770048e-06
1.0419218e-05
-1.0164438e-05
1.3288897e-05
-1.3455425e-05
1.6801323e-05
-1.7610638e-05
2.107858e-05
-2.2822257e-05
2.6260706e-05
-2.9318666e-05
3.2506581e-05
-3.7369268e-05
3.9994016e-05
-4.7289139e-05
4.891863e-05
-5.944306e-05
5.9490869e-05
-7.4248275e-05
7.1930292e-05
-9.2174965e-05
8.645594e-05
-0.00011374317
0.00010327132
-0.00013951432
0.00012254212
-0.00017007523
0.00014436509
-0.00020601234
0.00016872809
-0.00024787468
0.00019546644
-0.00029612759
0.00022423273
-0.00035110641
0.00025451518
-0.00041299036
0.00028574811
-0.00048182201
0.0003175151
-0.00055757982
0.00034974352
-0.00064027235
0.00038274358
-0.00073000543
0.00041707333
-0.0008270011
0.0004533643
-0.00093158235
0.00049222521
-0.0010441468
0.0005342349
-0.0011651428
0.00057998507
-0.0012950514
0.00063014253
-0.0014343741
0.00068552188
-0.0015836229
0.00074717197
-0.0017433105
0.0008164834
-0.0019139357
0.00089532469
-0.0020959567
0.0009862129
-0.0022897451
0.0010925609
-0.0024954935
0.0012189282
-0.0027130151
0.0013710589
-0.0029414515
0.0015562125
-0.0031788259
0.0017839347
-0.0034213159
0.0020664423
-0.0036621438
0.0024190625
-0.0038899176
0.002860918
-0.0040862524
0.00341557
-0.0042227605
0.0041119573
-0.0042579639
0.0049860811
-0.0041340885
0.0060800754
-0.003770231
0.0074238875
-0.0030605177
0.0090184362
-0.0018446827
0.010692165
8.1171191e-05
0.012042514
0.0029937908
0.012424968
0.0071922121
0.010939333
0.013215525
0.0049217913
0.021854925
-0.0081100031
0.034319866
-0.033865368
-0.071799061
0.051439112
-1.7672718e-08
1.2401094e-07
-7.8660981e-08
4.2798414e-07
-1.9742835e-07
8.3298788e-07
-3.922033e-07
1.3643858e-06
-6.8585209e-07
2.0530428e-06
-1.1069367e-06
2.9363826e-06
-1.6909869e-06
4.0595981e-06
-2.4820288e-06
5.4770392e-06
-3.5344057e-06
7.253781e-06
-4.9149367e-06
9.4673726e-06
-6.7054533e-06
1.2209734e-05
-9.0057603e-06
1.5589204e-05
-1.1937032e-05
1.9732595e-05
-1.5645696e-05
2.4787244e-05
-2.0307747e-05
3.0922757e-05
-2.6133466e-05
3.8332301e-05
-3.3372408e-05
4.7232958e-05
-4.2318418e-05
5.786464e-05
-5.331431e-05
7.0486761e-05
-6.6755659e-05
8.5371641e-05
-8.3092823e-05
0.0001027931
-0.00010282995
0.00012300845
-0.00012651939
0.00014623156
-0.00015474923
0.00017259492
-0.00018812134
0.0002021002
-0.00022721783
0.00023456293
-0.00027255516
0.00026957005
-0.00032453178
0.0003064918
-0.00038338609
0.00034460242
-0.00044919304
0.00038332205
-0.00052191944
0.00042246992
-0.00060151901
0.00046234316
-0.00068801462
0.00050356893
-0.0007815315
0.00054688119
-0.00088228727
0.00059298097
-0.00099056193
0.00064250956
-0.0011066652
0.00069608831
-0.0012309065
0.00075438389
-0.0013635678
0.00081818312
-0.0015048737
0.00088847795
-0.0016549572
0.00096656687
-0.0018138104
0.0010541779
-0.0019812133
0.0011536158
-0.002156626
0.0012679736
-0.0023390113
0.0014013135
-0.0025265377
0.0015585852
-0.0027161447
0.0017458195
-0.0029028897
0.0019706797
-0.0030789488
0.0022425013
-0.0032321358
0.0025722496
-0.0033437025
0.0029724847
-0.0033851443
0.0034570118
-0.0033142226
0.0040410355
-0.0030711424
0.0047430009
-0.002574738
0.005583671
-0.0017127627
0.0065619122
-0.00033969254
0.007645366
0.0017686276
0.0085838452
0.0048621781
0.0089489638
0.0092225141
0.0080646319
0.015228019
0.0049338273
0.023497003
-0.0033471924
0.034989883
-0.019602883
0.050971081
-0.049846565
-0.0925378
0.07170982
-1.480578e-08
1.3881672e-07
-6.5930699e-08
4.7910906e-07
-1.6555487e-07
9.3261205e-07
-3.2906712e-07
1.5278981e-06
-5.7582661e-07
2.2998023e-06
-9.3008788e-07
3.2906439e-06
-1.4221237e-06
4.5516339e-06
-2.0895846e-06
6.1445001e-06
-2.9791261e-06
8.1433225e-06
-4.1483621e-06
1.0636609e-05
-5.668181e-06
1.3729553e-05
-7.6254722e-06
1.7546495e-05
-1.0126323e-05
2.2233446e-05
-1.3299691e-05
2.7960612e-05
-1.7301608e-05
3.4924673e-05
-2.2319849e-05
4.3350542e-05
-2.857904e-05
5.3492149e-05
-3.6346034e-05
6.5631634e-05
-4.5935278e-05
8.0076004e-05
-5.7713688e-05
9.7150051e-05
-7.2104391e-05
0.00011718381
-8.9588203e-05
0.00014049227
-0.00011070136
0.00016734472
-0.00013602729
0.00019792085
-0.00016617978
0.00023225269
-0.00020177399
0.00027015715
-0.00024338285
0.00031117891
-0.00029147977
0.00035458872
-0.00034637994
0.00039950259
-0.00040820916
0.00044515126
-0.000476934
0.00049119476
-0.00055245177
0.00053786093
-0.0006346883
0.00058580546
-0.00072365061
0.0006358435
-0.00081942611
0.00068875648
-0.00092215054
0.000745234
-0.0010319659
0.00080590367
-0.0011489769
0.00087139488
-0.0012732059
0.00094241209
-0.0014045416
0.0010198137
-0.0015426753
0.0011047006
-0.0016870142
0.0011985167
-0.0018365586
0.0013031603
-0.0019897251
0.00142114
-0.0021440781
0.0015556665
-0.0022959185
0.0017104256
-0.0024396933
0.0018895944
-0.0025671175
0.0020981038
-0.0026658813
0.0023412651
-0.0027177724
0.0026241407
-0.0026959057
0.002950618
-0.0025606632
0.0033217693
-0.0022547833
0.0037351556
-0.0016991734
0.0041873911
-0.00078945247
0.0046739501
0.00061646002
0.0051559997
0.0027187593
0.0055430667
0.0058144729
0.0054881315
0.010158956
0.0046044808
0.016037299
0.0021862893
0.023937175
-0.0029660492
0.034615477
-0.014025494
0.049202183
-0.034189589
0.068889442
-0.069533825
-0.11665739
0.093009028
-1.1556016e-08
1.5037274e-07
-5.1496095e-08
5.1904914e-07
-1.2940364e-07
1.0105196e-06
-2.5743506e-07
1.6559295e-06
-4.5094897e-07
2.4933162e-06
-7.2927918e-07
3.5689741e-06
-1.1166834e-06
4.9390381e-06
-1.6434948e-06
6.6713115e-06
-2.3475288e-06
8.8473565e-06
-3.2757793e-06
1.1564859e-05
-4.4864646e-06
1.4940239e-05
-6.0514738e-06
1.9111504e-05
-8.0592779e-06
2.424125e-05
-1.0618337e-05
3.0519672e-05
-1.3861095e-05
3.8167431e-05
-1.7948545e-05
4.7437992e-05
-2.3075384e-05
5.8618988e-05
-2.9475651e-05
7.2031901e-05
-3.7428758e-05
8.8029111e-05
-4.7265503e-05
0.0001069868
-5.937358e-05
0.00012929188
-7.4201762e-05
0.00015532045
-9.2261331e-05
0.00018540429
-0.00011412285
0.00021978237
-0.00014040532
0.00025853516
-0.0001717536
0.00030150542
-0.00020879909
0.0003482244
-0.00025210008
0.00039788971
-0.00030206726
0.00044946978
-0.00035890143
0.00050198543
-0.00042258899
0.00055488232
-0.00049297707
0.00060824901
-0.00056988466
0.00066271305
-0.00065317957
0.00071913841
-0.00074279286
0.00077836977
-0.0008386879
0.00084112903
-0.0009408091
0.00090802487
-0.0010490235
0.00097960927
-0.0011630561
0.0010564447
-0.0012824142
0.0011391718
-0.0014062914
0.0012285778
-0.0015334398
0.0013256651
-0.0016619915
0.001431712
-0.0017892055
0.0015483541
-0.0019111016
0.0016775626
-0.0020219237
0.0018212477
-0.0021133769
0.0019810476
-0.0021735068
0.0021582338
-0.0021850949
0.0023528532
-0.0021233555
0.0025624013
-0.0019525482
0.0027798106
-0.0016209613
0.0029901824
-0.0010550271
0.0031692215
-0.00015548771
0.0032878517
0.0012059936
0.0033124688
0.0032099861
0.0031520072
0.0061466056
0.0026064472
0.010337996
0.0012967406
0.015988056
-0.0010455787
0.023464451
-0.005290106
0.033416914
-0.012918512
0.046751748
-0.027360328
0.064721031
-0.052158873
0.088025389
-0.092838183
-0.1425417
0.1139097
-8.0121322e-09
1.5838487e-07
-3.5749415e-08
5.4678642e-07
-8.9952812e-08
1.064723e-06
-1.7923543e-07
1.7452121e-06
-3.1456531e-07
2.6286461e-06
-5.0986533e-07
3.7642741e-06
-7.8276166e-07
5.2119344e-06
-1.1555052e-06
7.0440551e-06
-1.6561178e-06
9.347969e-06
-2.3197907e-06
1.2228532e-05
-3.1906182e-06
1.5811066e-05
-4.3236892e-06
2.0244575e-05
-5.7876467e-06
2.5705207e-05
-7.6677642e-06
3.2399789e-05
-1.0069624e-05
4.0569291e-05
-1.3123475e-05
5.0491842e-05
-1.6989301e-05
6.2484814e-05
-2.1862679e-05
7.6905279e-05
-2.7981289e-05
9.4147721e-05
-3.5632015e-05
0.00011463752
-4.5158245e-05
0.00013881811
-5.6966755e-05
0.00016712896
-7.1533166e-05
0.0001999707
-8.9404161e-05
0.00023765337
-0.00011119367
0.00028032467
-0.00013756828
0.00032788003
-0.00016921495
0.00037987107
-0.00020678264
0.00043545741
-0.0002507955
0.00049348263
-0.00030155815
0.00055274809
-0.00035910713
0.0006124313
-0.00042325711
0.00067239899
-0.00049371806
0.00073317399
-0.00057020002
0.00079562037
-0.00065245085
0.0008606206
-0.00074023179
0.00092890997
-0.00083325897
0.001001052
-0.00093112927
0.0010774796
-0.0010332347
0.0011585501
-0.0011386598
0.0012445969
-0.0012460514
0.0013359694
-0.001353446
0.0014330597
-0.0014580327
0.0015362987
-0.0015558181
0.0016461395
-0.0016411546
0.0017628991
-0.00170607
0.001886163
-0.0017393105
0.0020142882
-0.0017249539
0.0021438771
-0.0016404559
0.0022683553
-0.0014538662
0.0023758117
-0.001119736
0.0024456804
-0.00057295842
0.0024434049
0.00027816923
0.0023180938
0.0015548683
0.0020111525
0.0034144872
0.0014528499
0.0061135189
0.00045297552
0.010014201
-0.0012942351
0.015357146
-0.0040462044
0.022392889
-0.0080813215
0.031668075
-0.014565292
0.04396683
-0.025217267
0.060325963
-0.043719462
0.081883619
-0.073716528
0.10751889
-0.11847345
-0.1663096
0.13128678
-4.2859424e-09
1.6267081e-07
-1.9186183e-08
5.6168666e-07
-4.8442008e-08
1.0939788e-06
-9.6920362e-08
1.7936904e-06
-1.709387e-07
2.7026644e-06
-2.7867788e-07
3.8720133e-06
-4.3070857e-07
5.3639651e-06
-6.4066328e-07
7.2540098e-06
-9.2608467e-07
9.6333904e-06
-1.3095014e-06
1.2611949e-05
-1.81978e-06
1.6321345e-05
-2.493833e-06
2.0918628e-05
-3.3787363e-06
2.6590111e-05
-4.5343894e-06
3.3555442e-05
-6.0367677e-06
4.207167e-05
-7.981944e-06
5.2437019e-05
-1.0490966e-05
6.4993836e-05
-1.3715679e-05
8.0129993e-05
-1.7845627e-05
9.8277669e-05
-2.3116003e-05
0.0001199079
-2.9816581e-05
0.00014551869
-3.8301217e-05
0.00017561359
-4.8997339e-05
0.00021066682
-6.2413919e-05
0.00025106995
-7.9145337e-05
0.00029705609
-9.9866393e-05
0.00034860109
-0.00012530995
0.00040531462
-0.0001562147
0.00046636216
-0.00019323186
0.00053049979
-0.00023680087
0.00059631709
-0.00028704911
0.00066267954
-0.00034379155
0.00072914144
-0.00040663936
0.0007960218
-0.00047513231
0.00086411332
-0.00054880889
0.00093429718
-0.00062719726
0.0010072983
-0.0007097534
0.0010836082
-0.00079577204
0.0011634982
-0.00088427857
0.0012470567
-0.00097389793
0.0013342162
-0.0010626879
0.0014247594
-0.0011479189
0.0015182907
-0.001225775
0.0016141548
-0.0012909324
0.001711297
-0.0013359729
0.0018079395
-0.0013505664
0.0019007565
-0.0013202918
0.0019840136
-0.0012249381
0.0020485235
-0.0010361208
0.002079538
-0.00071387702
0.0020535679
-0.00020167856
0.0019334819
0.00058123794
0.0016604884
0.0017475076
0.0011518241
0.0034452709
0.00031338922
0.0058865663
-0.00098844546
0.0094220819
-0.0030825401
0.014367226
-0.0062393789
0.020947904
-0.010626883
0.029632175
-0.016765592
0.041076937
-0.026010054
0.056177453
-0.040317783
0.075927722
-0.06346973
0.1003412
-0.098130002
0.12463823
-0.14277049
-0.18338443
0.14171307
-5.1466231e-10
1.6318548e-07
-2.4160748e-09
5.6358807e-07
-6.3954745e-09
1.0979582e-06
-1.3505597e-08
1.8008006e-06
-2.5316056e-08
2.7144749e-06
-4.4134634e-08
3.8908319e-06
-7.3297761e-08
5.3931282e-06
-1.1757152e-07
7.2982835e-06
-1.8368603e-07
9.6995049e-06
-2.810474e-07
1.270931e-05
-4.2268799e-07
1.6462985e-05
-6.265061e-07
2.1122446e-05
-9.1690482e-07
2.6880509e-05
-1.326917e-06
3.3965454e-05
-1.9009488e-06
4.2645702e-05
-2.6983058e-06
5.3234376e-05
-3.7976592e-06
6.6093189e-05
-5.3026771e-06
8.1635011e-05
-7.349013e-06
0.000100324
-1.0112818e-05
0.0001226717
-1.3820955e-05
0.00014922683
-1.8762868e-05
0.00018055551
-2.5303781e-05
0.00021720773
-3.3898376e-05
0.00025966455
-4.5102732e-05
0.00030826044
-5.9580011e-05
0.00036307836
-7.8090844e-05
0.00042382546
-0.00010145263
0.00048972395
-0.00013044828
0.00055949544
-0.00016568002
0.00063154883
-0.00020741521
0.00070441473
-0.00025552061
0.00077724683
-0.00030953779
0.00085003898
-0.00036883504
0.00092341058
-0.00043271873
0.00099818086
-0.00050045222
0.0010750318
-0.00057119835
0.0011543543
-0.00064391744
0.0012362173
-0.00071723652
0.0013203758
-0.00078928789
0.0014062676
-0.00085750378
0.0014929753
-0.00091834612
0.001579133
-0.00096694084
0.0016627495
-0.00099656544
0.0017409216
-0.00099793365
0.0018093078
-0.00095820756
0.0018610304
-0.00085954918
0.0018853552
-0.00067702024
0.0018659945
-0.00037558785
0.0017781056
9.4185676e-05
0.0015837943
0.00080244234
0.0012252253
0.0018492483
0.00061368246
0.003374681
-0.00037360863
0.0055698031
-0.0018817328
0.0087369686
-0.004155611
0.013238858
-0.0075844293
0.019361063
-0.012361584
0.027521827
-0.018787647
0.038358201
-0.027601967
0.052524282
-0.040176135
0.070831148
-0.058624649
0.093454795
-0.086093377
0.11729789
-0.12197309
0.13519958
-0.16067218
-0.19374345
0.1455586
3.150797e-09
1.6003468e-07
1.3892483e-08
5.5284639e-07
3.4513522e-08
1.0773372e-06
6.7697814e-08
1.7676163e-06
1.1653233e-07
2.6656404e-06
1.8449246e-07
3.8228718e-06
2.7538165e-07
5.302239e-06
3.932154e-07
7.1804498e-06
5.4201296e-07
9.5507074e-06
7.2546522e-07
1.2525858e-05
9.4643237e-07
1.6242018e-05
1.2061858e-06
2.0862693e-05
1.5033394e-06
2.6583356e-05
1.8323216e-06
3.3636472e-05
2.1812677e-06
4.2296756e-05
2.5291406e-06
5.2886503e-05
2.8418539e-06
6.5780476e-05
3.0671054e-06
8.1409759e-05
3.1276579e-06
0.00010026345
2.9126305e-06
0.00012288673
2.2665062e-06
0.00014987295
9.7549957e-07
0.00018184651
-1.248837e-06
0.00021943207
-4.7883718e-06
0.00026320408
-1.0138227e-05
0.0003136103
-1.7923657e-05
0.00037086379
-2.8905327e-05
0.00043480713
-4.395562e-05
0.00050477424
-6.3979611e-05
0.00057951943
-8.97604e-05
0.00065732962
-0.00012175681
0.00073641114
-0.00015995132
0.00081544135
-0.00020387562
0.00089396327
-0.00025274113
0.0009722761
-0.00030560804
0.0010510478
-0.00036144685
0.0011308706
-0.00041909416
0.0012120016
-0.00047714319
0.0012942663
-0.00053379133
0.0013770239
-0.00058664735
0.0014591236
-0.00063248487
0.0015388128
-0.00066691757
0.0016135658
-0.00068396102
0.001679793
-0.00067541883
0.0017323794
-0.00063001968
0.0017639086
-0.00053220807
0.0017632188
-0.00036034672
0.0017134938
-8.4035542e-05
0.0015896833
0.00033985521
0.0013542148
0.00097299101
0.00095065854
0.0019035396
0.00029467665
0.0032574502
-0.00074022809
0.0052159779
-0.0023321364
0.0080461352
-0.0047118901
0.012123674
-0.0082331498
0.017819123
-0.013279878
0.025581497
-0.020123958
0.03601021
-0.02921636
0.049659091
-0.041250848
0.066934075
-0.057451118
0.087741618
-0.079432193
0.10979579
-0.10814755
0.12771376
-0.13989106
0.13870901
-0.17166744
-0.20076536
0.14573093
6.5354349e-09
1.5349924e-07
2.8960659e-08
5.3042116e-07
7.2334173e-08
1.0339637e-06
1.4282221e-07
1.6971282e-06
2.4786875e-07
2.5605938e-06
3.9637165e-07
3.6743689e-06
5.9886239e-07
5.0997483e-06
8.6766024e-07
6.9116519e-06
1.2170024e-06
9.2013652e-06
1.6630961e-06
1.2079764e-05
2.2240667e-06
1.5681048e-05
2.9197338e-06
2.0167026e-05
3.7711349e-06
2.5731955e-05
4.7996774e-06
3.260793e-05
6.0257701e-06
4.1070663e-05
7.466729e-06
5.1445544e-05
9.1337135e-06
6.4113492e-05
1.1027318e-05
7.9516155e-05
1.3131454e-05
9.8159315e-05
1.5404993e-05
0.00012061319
1.7770579e-05
0.00014750737
2.0100012e-05
0.00017951708
2.2195606e-05
0.00021733647
2.3767205e-05
0.00026163248
2.4405519e-05
0.00031297199
2.3554383e-05
0.00037171493
2.0489815e-05
0.00043787169
1.4322977e-05
0.00051094108
4.0579425e-06
0.00058978447
-1.1258431e-05
0.00067264599
-3.2318441e-05
0.00075747115
-5.9307098e-05
0.00084243001
-9.1845311e-05
0.00092650148
-0.00012901527
0.0010094461
-0.00016963937
0.0010916719
-0.0002123747
0.001173606
-0.00025569925
0.0012553262
-0.00029780467
0.0013363718
-0.00033642601
0.0014156452
-0.00036861699
0.0014913146
-0.00039045803
0.0015606538
-0.00039666986
0.0016197776
-0.00038009009
0.0016632132
-0.00033093806
0.0016832273
-0.00023576914
0.0016687397
-7.5947581e-05
0.0016033972
0.00017464179
0.0014629045
0.00055326159
0.0012110635
0.0011138976
0.0007935788
0.0019353845
0.00012917164
0.003131636
-0.00090157487
0.0048691212
-0.0024777132
0.0074008704
-0.0048638855
0.011103001
-0.0084140207
0.016437048
-0.013567196
0.023949571
-0.020792402
0.034226553
-0.030400939
0.047676667
-0.042666475
0.06427332
-0.057847501
0.083354005
-0.076531803
0.10291637
-0.098994557
0.11937544
-0.12460662
0.13056306
-0.15107869
0.1381701
-0.17927447
-0.20704069
0.14444543
9.4850148e-09
1.4401423e-07
4.2104034e-08
4.9780214e-07
1.0535053e-07
9.7071718e-07
2.0846125e-07
1.5940175e-06
3.6273284e-07
2.4063223e-06
5.8188493e-07
3.4552168e-06
8.824468e-07
4.7991864e-06
1.2841871e-06
6.5099116e-06
1.8105504e-06
8.6750019e-06
2.4890933e-06
1.1401221e-05
3.3518796e-06
1.4818261e-05
4.4357967e-06
1.9083109e-05
5.7826809e-06
2.4385071e-05
7.4392102e-06
3.09514e-05
9.4563442e-06
3.9053529e-05
1.1888162e-05
4.9013726e-05
1.478977e-05
6.1211884e-05
1.8213994e-05
7.6091931e-05
2.2206237e-05
9.4167073e-05
2.6797047e-05
0.00011602238
3.1991506e-05
0.00014231291
3.7754587e-05
0.000173754
4.3991472e-05
0.00021109959
5.0521869e-05
0.00025510208
5.704799e-05
0.00030644586
6.3117579e-05
0.00036564534
6.8087732e-05
0.00043290154
7.1104613e-05
0.0005079242
7.1128001e-05
0.00058976108
6.7051217e-05
0.00067672277
5.8000391e-05
0.00076652198
4.3316406e-05
0.00085711399
2.3395183e-05
0.0009464227
-8.0979507e-07
0.001033651
-2.7958406e-05
0.0011188205
-5.641272e-05
0.0012020603
-8.426594e-05
0.0012831794
-0.00010927004
0.0013613759
-0.00012865968
0.0014350349
-0.00013889608
0.001501551
-0.00013532226
0.00155708
-0.00011170101
0.0015961563
-5.9582792e-05
0.001611095
3.2592487e-05
0.0015910521
0.00018079946
0.0015205327
0.00040744035
0.0013767563
0.00074444465
0.0011259002
0.0012386598
0.00071684838
0.0019600691
7.216953e-05
0.0030135278
-0.00092428705
0.0045549755
-0.0024430226
0.0068275055
-0.0047502433
0.010218413
-0.0082547929
0.015275182
-0.01347079
0.022667593
-0.020959607
0.033013583
-0.031138392
0.046481078
-0.043868434
0.06249452
-0.058679916
0.079735262
-0.075088243
0.096415082
-0.093211623
0.11059762
-0.1131771
0.12109824
-0.13510723
0.12919711
-0.15917756
0.13648091
-0.18655827
-0.21398019
0.1434204
1.1837675e-08
1.3217655e-07
5.2596457e-08
4.5704336e-07
1.3173249e-07
8.9158114e-07
2.6096942e-07
1.4647806e-06
4.5474513e-07
2.2125465e-06
7.3072313e-07
3.1792388e-06
1.1103815e-06
4.4195281e-06
1.6196693e-06
6.0006238e-06
2.2897307e-06
8.0049406e-06
3.1576919e-06
1.053326e-05
4.2674767e-06
1.3708476e-05
5.6706221e-06
1.7679963e-05
7.4270384e-06
2.2628654e-05
9.6055963e-06
2.8772842e-05
1.2284453e-05
3.6374672e-05
1.5550873e-05
4.5747306e-05
1.9500316e-05
5.726244e-05
2.4234362e-05
7.1357886e-05
2.9857049e-05
8.8544385e-05
3.6468825e-05
0.00010941061
4.4157338e-05
0.00013462439
5.2983845e-05
0.00016492749
6.2963937e-05
0.0002011195
7.4041009e-05
0.00024402501
8.6051236e-05
0.00029443564
9.8679833e-05
0.00035301674
0.00011141194
0.00042016944
0.00012349009
0.00049584604
0.00013391062
0.00057934056
0.00014148308
0.00066915031
0.00014495046
0.0007630546
0.00014366406
0.00085840039
0.00013771036
0.00095237641
0.00012771832
0.0010436431
0.00011517949
0.0011313593
0.00010206184
0.0012151779
9.068797e-05
0.0012945533
8.3776204e-05
0.0013682876
8.462965e-05
0.0014341814
9.742365e-05
0.001488757
0.00012761649
0.0015268872
0.00018251151
0.0015412613
0.00027204373
0.0015215627
0.00040992596
0.0014531698
0.00061535783
0.0013151008
0.00091582045
0.0010762937
0.0013517991
0.00068992156
0.001985176
8.3471427e-05
0.0029114219
-0.00085407637
0.0042791706
-0.0022920358
0.0063261325
-0.0044899846
0.0094592085