/*--------------------------------*- C++ -*----------------------------------*\
  =========                 |
  \\      /  F ield         | OpenFOAM: The Open Source CFD Toolbox
   \\    /   O peration     | Website:  https://openfoam.org
    \\  /    A nd           | Version:  13
     \\/     M anipulation  |
\*---------------------------------------------------------------------------*/
FoamFile
{
    format      ascii;
    class       volScalarField;
    location    "0.0025";
    object      p;
}
// * * * * * * * * * * * * * * * * * * * * * * * * * * * * * * * * * * * * * //

dimensions      [1 -1 -2 0 0 0 0];

internalField   nonuniform List<scalar> 
1000
(
100000
100000
100000
100000
100000
100000
100000
100000
100000
100000
100000
100000
100000
100000
100000
100000
100000
100000
100000
100000
100000
100000
100000
100000
100000
100000
100000
100000
100000
100000
100000
100000
100000
100000
100000
100000
100000
100000
100000
100000
100000
100000
100000
100000
100000
100000
100000
100000
100000
100000
100000
100000
100000
100000
100000
100000
100000
100000
100000
100000
100000
100000
100000
100000
100000
100000
100000
100000
100000
100000
100000
100000
100000
100000
100000
100000
100000
100000
100000
100000
100000
100000
100000
100000
100000
100000
100000
100000
100000
100000
100000
100000
100000
100000
100000
100000
100000
100000
100000
100000
100000
100000
100000
100000
100000
100000
100000
100000
100000
100000
100000
100000
100000
100000
100000
100000
100000
100000
100000
100000
100000
100000
100000
100000
100000
100000
100000
100000
100000
100000
100000
100000
100000
100000
100000
100000
100000
100000
100000
100000
100000
100000
100000
100000
100000
100000
100000
100000
100000
100000
100000
100000
100000
100000
100000
100000
100000
100000
100000
100000
100000
100000
100000
100000
100000
100000
100000
100000
100000
100000
100000
100000
100000
100000
100000
100000
100000
100000
100000
100000
100000
100000
100000
100000
100000
100000
100000
100000
100000
100000
100000
100000
100000
100000
100000
100000
100000
100000
100000
100000
100000
100000
100000
100000
100000
100000
100000
100000
100000
100000
100000
100000
100000
100000
100000
100000
100000
100000
100000
100000
100000
100000
100000
100000
100000
100000
100000
100000
100000
100000
100000
100000
100000
100000
100000
100000
100000
100000
100000
100000
100000
100000
100000
100000
100000
100000
100000
100000
100000
100000
100000
100000
100000
100000
100000
100000
100000
100000
100000
100000
100000
100000
100000
100000
100000
100000
100000
100000
100000
100000
100000
100000
100000
100000
100000
100000
100000
100000
100000
100000
100000
100000
100000
100000
100000
100000
100000
100000
100000
100000
100000
100000
100000
100000
100000
100000
100000
100000
100000
100000
100000
100000
100000
100000
100000
100000
100000
100000
100000
100000
100000
100000
100000
100000
100000
100000
100000
100000
100000
100000
100000
100000
100000
100000
100000
100000
100000
100000
100000
100000
100000
100000
100000
100000
100000
100000
100000
100000
100000
100000
100000
100000
100000
100000
100000
100000
100000
100000
100000
100000
100000
100000
100000
100000
100000
100000
100000
100000
100000
100000
100000
100000
100000
100000
100000
100000
100000
100000
100000
100000
100000
100000
100000
99999.9
99999.9
99999.8
99999.6
99999.3
99998.9
99998.2
99997
99995.1
99992.1
99987.5
99980.5
99969.9
99954.1
99931.1
99897.9
99850.9
99785.5
99696.1
99576.1
99417.9
99213.6
98955
98634.7
98246.9
97788.5
97259.7
96663.5
96005.9
95295.1
94540.1
93750
92933.5
92097.9
91249.2
90391.9
89529.5
88664.3
87798.1
86932
86066.9
85203.3
84341.8
83482.7
82626.3
81773.1
80923.1
80076.8
79234.4
78396
77562
76732.4
75907.5
75087.4
74272.4
73462.5
72657.9
71858.8
71065.2
70277.2
69495.1
68718.8
67948.5
67184.2
66426.1
65674.3
64928.7
64189.5
63456.8
62730.5
62010.9
61297.9
60591.5
59891.9
59199.1
58513.1
57834
57161.8
56496.6
55838.4
55187.3
54543.3
53906.5
53276.8
52654.4
52039.2
51431.3
50830.8
50237.8
49652.1
49074
48503.4
47940.4
47385
46837.4
46297.4
45765.3
45241.1
44724.8
44216.5
43716.3
43224.3
42740.4
42264.8
41797.7
41338.9
40888.8
40447.2
40014.4
39590.5
39175.5
38769.5
38372.6
37985
37606.8
37238
36878.8
36529.2
36189.5
35859.6
35539.7
35229.9
34930.2
34640.8
34361.7
34093
33834.7
33586.8
33349.5
33122.6
32906.2
32700.2
32504.7
32319.4
32144.3
31979.3
31824.3
31679
31543.2
31416.8
31299.5
31190.9
31090.9
30999
30915
30838.4
30769
30706.4
30650
30599.7
30554.9
30515.2
30480.3
30449.8
30423.3
30400.4
30380.8
30364.2
30350.1
30338.4
30328.7
30320.8
30314.5
30309.5
30305.6
30302.8
30300.7
30299.3
30298.4
30298
30298
30298.2
30298.7
30299.4
30300.2
30301
30302
30303
30304
30305
30306
30307
30308
30309
30309.9
30310.9
30311.8
30312.6
30313.5
30314.3
30315.1
30315.9
30316.7
30317.5
30318.2
30318.9
30319.6
30320.3
30321
30321.7
30322.4
30323
30323.6
30324.3
30324.9
30325.5
30326.1
30326.7
30327.2
30327.8
30328.4
30328.9
30329.4
30329.9
30330.4
30330.9
30331.3
30331.8
30332.2
30332.6
30333
30333.4
30333.7
30334
30334.2
30334.4
30334.4
30334.4
30334.2
30333.9
30333.4
30332.6
30331.5
30330
30328.1
30325.6
30322.5
30318.6
30313.6
30307.5
30300
30290.8
30279.5
30265.7
30249
30228.8
30204.3
30174.7
30139.1
30096.1
30044.4
29982.1
29907.3
29817.3
29709
29578.5
29421.3
29231.6
29002
28723.6
28384.9
27971.2
27463.2
26835.8
26054.7
25072.2
23818.4
22188.6
20041.3
17285.5
14212.6
11768.4
10560.9
10151.5
10038.2
10009.4
10002.3
10000.6
10000.1
10000
10000
10000
10000
10000
10000
10000
10000
10000
10000
10000
10000
10000
10000
10000
10000
10000
10000
10000
10000
10000
10000
10000
10000
10000
10000
10000
10000
10000
10000
10000
10000
10000
10000
10000
10000
10000
10000
10000
10000
10000
10000
10000
10000
10000
10000
10000
10000
10000
10000
10000
10000
10000
10000
10000
10000
10000
10000
10000
10000
10000
10000
10000
10000
10000
10000
10000
10000
10000
10000
10000
10000
10000
10000
10000
10000
10000
10000
10000
10000
10000
10000
10000
10000
10000
10000
10000
10000
10000
10000
10000
10000
10000
10000
10000
10000
10000
10000
10000
10000
10000
10000
10000
10000
10000
10000
10000
10000
10000
10000
10000
10000
10000
10000
10000
10000
10000
10000
10000
10000
10000
10000
10000
10000
10000
10000
10000
10000
10000
10000
10000
10000
10000
10000
10000
10000
10000
10000
10000
10000
10000
10000
10000
10000
10000
10000
10000
10000
10000
10000
10000
10000
10000
10000
10000
10000
10000
10000
10000
10000
10000
10000
10000
10000
10000
10000
10000
10000
10000
10000
10000
10000
10000
10000
10000
10000
10000
10000
10000
10000
10000
10000
10000
10000
10000
10000
10000
10000
10000
10000
10000
10000
10000
10000
10000
10000
10000
10000
10000
10000
10000
10000
10000
10000
10000
10000
10000
10000
10000
10000
10000
10000
10000
10000
10000
10000
10000
10000
10000
10000
10000
10000
10000
10000
10000
10000
10000
10000
10000
10000
10000
10000
10000
10000
10000
10000
10000
10000
10000
10000
10000
10000
10000
10000
10000
10000
10000
10000
10000
10000
10000
10000
10000
10000
10000
10000
10000
10000
10000
10000
10000
10000
10000
10000
10000
10000
10000
10000
10000
10000
10000
10000
10000
10000
10000
10000
10000
10000
10000
10000
10000
10000
10000
10000
10000
10000
10000
10000
10000
10000
10000
10000
10000
10000
10000
10000
10000
10000
10000
10000
10000
10000
10000
10000
10000
10000
10000
10000
10000
10000
10000
10000
10000
10000
10000
10000
10000
10000
10000
10000
10000
10000
10000
10000
10000
10000
10000
10000
10000
10000
10000
10000
10000
10000
10000
10000
10000
10000
10000
10000
10000
10000
10000
10000
10000
10000
10000
10000
)
;

boundaryField
{
    sides
    {
        type            zeroGradient;
    }
    empty
    {
        type            empty;
    }
}


// ************************************************************************* //
