/*--------------------------------*- C++ -*----------------------------------*\
  =========                 |
  \\      /  F ield         | OpenFOAM: The Open Source CFD Toolbox
   \\    /   O peration     | Website:  https://openfoam.org
    \\  /    A nd           | Version:  13
     \\/     M anipulation  |
\*---------------------------------------------------------------------------*/
FoamFile
{
    format      ascii;
    class       surfaceScalarField;
    location    "0.0025";
    object      phi;
}
// * * * * * * * * * * * * * * * * * * * * * * * * * * * * * * * * * * * * * //

dimensions      [1 0 -1 0 0 0 0];

internalField   nonuniform List<scalar> 
999
(
-1.49719e-12
-4.81658e-13
-4.62947e-13
-5.06307e-13
-5.93753e-13
-6.17761e-13
-3.24222e-13
8.09299e-14
-4.20562e-13
-8.74834e-15
6.90934e-14
-1.62785e-14
-6.67424e-14
1.27301e-13
-3.60281e-13
-7.56539e-13
-1.69193e-12
-2.02496e-12
-1.88345e-12
-1.73213e-12
-2.14208e-12
-1.82503e-12
-1.7965e-12
-1.04871e-12
-1.42692e-12
-1.02155e-12
-3.52537e-13
7.44826e-15
1.35045e-13
2.99196e-13
-5.66161e-13
-8.82504e-13
-7.96919e-13
-3.78939e-13
-8.58068e-13
-1.09749e-12
-1.15864e-12
-1.15542e-12
-1.27391e-12
-4.9213e-13
1.23704e-13
-8.47449e-14
6.86518e-14
7.20171e-13
4.40756e-13
5.48277e-13
3.76382e-13
7.71557e-13
8.29765e-13
4.03333e-13
-2.26251e-13
-5.96496e-13
-3.23246e-13
-4.00165e-13
-4.36651e-13
-9.54126e-13
-7.7291e-13
-4.84173e-13
-1.49774e-13
4.66556e-13
3.46489e-13
4.04697e-13
6.84381e-14
9.35292e-14
6.9322e-13
7.54866e-13
1.2838e-12
1.29635e-12
1.52165e-12
1.07034e-12
9.77437e-13
1.28997e-12
1.06123e-12
1.29155e-12
1.40387e-12
8.89337e-13
8.34567e-13
1.10918e-12
1.52099e-12
1.28724e-12
4.6154e-13
4.39391e-13
4.03333e-13
3.43761e-13
5.22035e-13
8.04888e-13
3.70925e-13
2.79387e-13
7.98722e-13
1.34637e-12
1.31648e-12
1.16466e-12
6.34357e-13
9.16288e-13
1.51082e-13
3.68852e-13
6.41179e-13
1.78688e-13
6.79301e-15
-2.80366e-13
-3.21547e-13
-6.84368e-13
-4.3387e-13
-6.35443e-13
-5.70254e-13
-5.28364e-13
-1.88881e-13
-5.10735e-13
-5.84495e-14
-1.19051e-13
-5.89286e-13
-7.72255e-13
-1.59149e-13
-3.94053e-13
5.11977e-14
3.43052e-13
1.73231e-13
6.39601e-13
6.63649e-14
-1.30621e-13
-1.24561e-13
-6.6555e-13
-9.66725e-13
-8.26583e-13
-7.55937e-13
-1.21177e-12
-1.14091e-12
-1.0965e-12
-1.06661e-12
-1.80763e-12
-1.15471e-12
-1.01092e-12
-9.34866e-13
-6.28675e-13
-5.21261e-13
-2.43705e-13
-2.30997e-14
-1.69338e-14
-6.28675e-13
-4.39327e-13
-8.06949e-13
-4.28252e-13
-2.48827e-13
-4.23732e-13
6.86518e-14
6.41781e-13
4.22151e-13
1.01213e-12
1.43491e-12
8.76189e-13
8.52463e-13
3.22267e-13
7.92891e-13
9.34892e-13
2.09731e-13
-2.33447e-13
1.13498e-13
7.60751e-14
6.50007e-14
5.71683e-13
5.90394e-13
8.9343e-13
6.39601e-13
1.75959e-13
4.20573e-13
2.61986e-13
4.37318e-13
5.2455e-13
6.32071e-13
6.09922e-13
3.0072e-13
9.93314e-13
1.23951e-12
1.14797e-12
6.43145e-13
3.01429e-13
1.33604e-15
-3.84998e-13
-5.59835e-13
-8.64234e-13
-5.62563e-13
-9.08571e-14
-1.49065e-13
-6.23286e-14
1.60137e-13
-2.1575e-14
-2.34437e-13
-7.22524e-14
-3.02355e-13
3.95147e-13
-3.01346e-14
-3.60548e-13
-1.05483e-12
-1.02995e-12
-1.26997e-12
-1.73197e-12
-1.35671e-12
-1.69237e-12
-1.18597e-12
-1.19213e-12
-1.1588e-12
-8.71643e-13
-9.17626e-13
-1.8971e-12
-1.55015e-12
-1.63209e-12
-1.34815e-12
-1.20184e-12
-1.347e-12
-1.38524e-12
-1.09377e-12
-1.39975e-12
-1.12252e-12
-1.75641e-12
-1.16556e-12
-1.50683e-12
-1.83976e-12
-1.75929e-12
-1.70568e-12
-1.2577e-12
-8.80859e-13
-9.88689e-14
8.84064e-14
2.84523e-13
1.02349e-12
1.02076e-12
7.37037e-13
4.75183e-13
6.79699e-13
4.83582e-13
2.85446e-13
8.90541e-13
1.45532e-12
1.2454e-12
1.34665e-12
1.74456e-12
1.47436e-12
2.11687e-12
2.28877e-12
2.40246e-12
2.51543e-12
3.18648e-12
2.49034e-12
2.13204e-12
1.99277e-12
2.28179e-12
2.38931e-12
1.89496e-12
2.23602e-12
2.53289e-12
2.40518e-12
1.41866e-12
1.63016e-12
1.65378e-12
1.68564e-12
2.16401e-12
1.81814e-12
2.04688e-12
1.79119e-12
2.1196e-12
2.26024e-12
2.27426e-12
2.43371e-12
2.26024e-12
2.04825e-12
2.22014e-12
2.60812e-12
3.25014e-12
3.96216e-12
4.53626e-12
4.94306e-12
4.28582e-12
4.38707e-12
4.67128e-12
4.65268e-12
5.1233e-12
4.19657e-12
4.57974e-12
4.00504e-12
4.01131e-12
4.00504e-12
3.22592e-12
2.8835e-12
3.25014e-12
2.40655e-12
2.35243e-12
2.70751e-12
3.0375e-12
3.0076e-12
3.84438e-12
3.21774e-12
3.0873e-12
3.07279e-12
2.89277e-12
2.89549e-12
2.36372e-12
2.40655e-12
2.99036e-12
2.73037e-12
2.38794e-12
2.77477e-12
2.71419e-12
3.20666e-12
4.07584e-12
4.36113e-12
4.4864e-12
5.16528e-12
5.00416e-12
4.78139e-12
4.59927e-12
4.3814e-12
4.29143e-12
5.27796e-12
5.02039e-12
4.63492e-12
4.30357e-12
4.32886e-12
4.71462e-12
4.26549e-12
4.28295e-12
4.27187e-12
4.47907e-12
4.56307e-12
4.5658e-12
4.61618e-12
4.45722e-12
4.61834e-12
4.40037e-12
4.81366e-12
4.24198e-12
3.62671e-12
3.85924e-12
4.4072e-12
3.75527e-12
3.1442e-12
3.29864e-12
2.74826e-12
3.05539e-12
2.54192e-12
1.63374e-12
1.67743e-12
2.10472e-12
2.52583e-12
1.80634e-12
2.21213e-12
4.32543e-12
9.25622e-12
2.0167e-11
4.38517e-11
9.63111e-11
2.09461e-10
4.49701e-10
9.56451e-10
2.01859e-09
4.22509e-09
8.77596e-09
1.80857e-08
3.69751e-08
7.49839e-08
1.50823e-07
3.00853e-07
5.95072e-07
1.16697e-06
2.26864e-06
4.37147e-06
8.34798e-06
1.57966e-05
2.96146e-05
5.49972e-05
0.000101157
0.000184246
0.000332253
0.000593105
0.00104786
0.00183188
0.00316828
0.00541993
0.00916873
0.0153345
0.0253498
0.0414107
0.0668301
0.106521
0.167642
0.260425
0.399215
0.603696
0.900279
1.32354
1.91759
2.73702
3.84731
5.32404
7.25068
9.71446
12.7999
16.5799
21.1041
26.3885
32.4138
39.1265
46.4451
54.2698
62.4937
71.0126
79.7333
88.5773
97.4824
106.402
115.302
124.158
132.955
141.68
150.326
158.887
167.358
175.736
184.018
192.2
200.281
208.258
216.129
223.892
231.546
239.089
246.519
253.836
261.038
268.125
275.096
281.95
288.687
295.306
301.807
308.189
314.453
320.598
326.624
332.532
338.321
343.992
349.544
354.979
360.296
365.496
370.578
375.545
380.395
385.13
389.751
394.257
398.65
402.929
407.097
411.153
415.099
418.935
422.662
426.281
429.792
433.198
436.497
439.693
442.785
445.774
448.663
451.451
454.139
456.73
459.223
461.621
463.924
466.134
468.251
470.278
472.215
474.064
475.826
477.503
479.096
480.606
482.035
483.385
484.657
485.853
486.975
488.024
489.003
489.912
490.754
491.532
492.246
492.899
493.494
494.031
494.515
494.946
495.327
495.661
495.949
496.195
496.401
496.568
496.701
496.8
496.87
496.911
496.927
496.919
496.891
496.844
496.78
496.702
496.612
496.511
496.401
496.284
496.161
496.033
495.902
495.769
495.634
495.499
495.363
495.228
495.093
494.959
494.826
494.693
494.561
494.43
494.298
494.165
494.032
493.896
493.757
493.615
493.468
493.314
493.151
492.978
492.791
492.587
492.36
492.103
491.81
491.469
491.068
490.592
490.022
489.336
488.509
487.512
486.314
484.881
483.176
481.163
478.806
476.071
472.926
469.348
465.318
460.827
455.875
450.474
444.646
438.426
431.858
424.996
417.906
410.655
403.319
395.973
388.694
381.554
374.623
367.962
361.624
355.653
350.085
344.941
340.237
335.977
332.155
328.76
325.773
323.171
320.927
319.01
317.389
316.033
314.91
313.991
313.247
312.653
312.185
311.821
311.543
311.334
311.181
311.072
310.996
310.944
310.911
310.889
310.873
310.86
310.845
310.825
310.797
310.756
310.7
310.626
310.527
310.401
310.24
310.038
309.788
309.479
309.1
308.637
308.074
307.392
306.565
305.566
304.359
302.901
301.142
299.016
296.445
293.33
289.548
284.942
279.311
272.394
263.844
253.195
239.788
222.656
200.302
170.482
130.886
83.1752
39.4518
13.8056
3.89172
0.991315
0.245068
0.0601987
0.0147709
0.0036236
0.000888864
0.000218016
5.34684e-05
1.31117e-05
3.21491e-06
7.88186e-07
1.93213e-07
4.73578e-08
1.16062e-08
2.844e-09
6.96763e-10
1.70675e-10
4.17551e-11
1.02102e-11
2.45382e-12
5.39957e-13
6.99005e-14
-5.70514e-14
-6.65576e-14
-7.50647e-14
-6.30882e-14
-3.8465e-14
-1.02987e-13
-1.25709e-13
-5.92857e-14
-2.21793e-13
-2.31535e-13
-2.47988e-13
-2.48208e-13
-3.02817e-13
-2.8222e-13
-2.75948e-13
-2.2497e-13
-2.22338e-13
-2.66209e-13
-2.12437e-13
-1.41654e-13
-1.41321e-13
-1.55366e-13
-2.05893e-13
-2.67778e-13
-2.88761e-13
-2.88594e-13
-3.375e-13
-2.7522e-13
-2.88432e-13
-2.53737e-13
-2.74891e-13
-3.25027e-13
-3.76342e-13
-3.77739e-13
-3.91113e-13
-4.55802e-13
-4.47636e-13
-3.97166e-13
-3.20838e-13
-3.32478e-13
-3.82614e-13
-4.11203e-13
-3.67501e-13
-4.49204e-13
-3.65267e-13
-4.32364e-13
-3.42333e-13
-3.55037e-13
-4.08639e-13
-4.37955e-13
-3.94867e-13
-3.6768e-13
-2.73331e-13
-3.16191e-13
-3.29e-13
-3.60733e-13
-3.68229e-13
-4.90496e-13
-4.74884e-13
-4.85966e-13
-4.3169e-13
-3.94757e-13
-4.23017e-13
-4.04613e-13
-3.17377e-13
-2.86489e-13
-2.78153e-13
-1.81183e-13
-2.41569e-13
-1.7324e-13
-1.59139e-13
-1.22376e-13
-8.29854e-14
-9.08184e-14
-9.32272e-14
2.55667e-14
3.02632e-14
5.88515e-14
1.49878e-14
2.74639e-14
-3.3747e-14
-4.08524e-14
-7.89269e-15
-3.54817e-14
-1.34379e-14
-3.75575e-14
-6.49902e-15
-5.54617e-14
-9.75947e-14
-8.45576e-14
-1.8305e-14
-3.75311e-15
-3.92882e-14
-4.29282e-14
5.29358e-14
2.93772e-14
7.3903e-14
-9.79794e-15
-5.02042e-14
-5.45677e-14
-1.00341e-13
-9.34017e-14
-6.15026e-14
-1.06938e-13
-9.79318e-14
-9.14965e-14
-1.7968e-14
6.65923e-15
-2.76942e-14
3.03884e-14
-5.95893e-14
-2.59595e-14
-5.7351e-14
-9.11514e-14
-1.00166e-13
-1.50515e-14
-4.62191e-14
2.03585e-14
-3.54857e-14
-9.77652e-14
-6.16729e-16
4.68829e-14
3.77057e-14
2.72934e-14
3.45693e-14
2.19227e-14
3.45693e-14
2.74639e-14
1.03556e-13
1.27114e-13
1.54914e-14
1.72261e-14
-9.57789e-16
-3.56523e-14
2.93652e-14
6.83618e-14
5.03444e-14
8.22395e-14
8.62166e-14
6.50708e-14
6.49003e-14
2.22637e-14
5.63972e-14
-6.23926e-14
-9.1322e-14
-4.98591e-14
-1.13621e-14
1.32531e-14
5.80658e-15
-2.35945e-15
6.33321e-14
-2.01439e-15
-5.23174e-14
-5.61239e-14
-1.49981e-14
-1.32674e-14
3.45773e-14
7.14941e-14
5.58856e-14
3.85464e-14
1.86238e-14
3.78683e-14
6.31616e-14
1.23478e-13
7.14941e-14
1.23824e-13
9.98824e-14
1.88621e-13
2.67292e-13
1.96242e-13
2.07491e-13
2.39886e-13
2.30371e-13
2.97798e-13
2.48226e-13
2.26744e-13
2.53597e-13
2.44923e-13
1.69892e-13
2.01779e-13
1.31603e-13
1.40102e-13
8.53305e-14
-2.72993e-15
-5.78466e-14
-1.50295e-13
-1.46829e-13
-1.43534e-13
-3.794e-14
-7.41452e-14
-3.67089e-14
-9.30607e-14
-1.50555e-14
-4.79579e-14
-1.95322e-14
4.58344e-15
6.10898e-14
1.01655e-13
7.00965e-14
-1.24307e-14
1.32531e-14
2.03585e-14
1.2912e-14
-1.48356e-14
-2.69786e-14
-4.22541e-14
-5.78666e-14
-3.40841e-14
-4.29282e-14
-5.96053e-14
-2.57475e-14
6.09233e-14
8.44779e-14
5.60522e-14
-2.68081e-14
-9.29035e-15
1.34236e-14
-4.50195e-16
8.22342e-15
4.96329e-14
1.07333e-13
1.6418e-13
2.3194e-13
2.49287e-13
1.97977e-13
8.72398e-14
6.50708e-14
5.06895e-14
-2.90464e-14
3.49104e-14
4.3576e-14
4.01106e-14
2.4165e-14
1.6893e-14
-1.22562e-14
-4.9189e-14
-2.01439e-15
2.08701e-14
5.03484e-14
7.98267e-14
1.03215e-13
8.60381e-14
1.05624e-13
1.14297e-13
2.93732e-14
1.03019e-13
1.62105e-13
2.36624e-13
2.61247e-13
3.57087e-13
3.91054e-13
3.11497e-13
2.90351e-13
2.12021e-13
1.19984e-13
1.66252e-13
1.46675e-13
1.85168e-13
2.20865e-13
2.09055e-13
1.30725e-13
1.413e-13
1.09068e-13
7.68394e-14
9.2785e-14
1.49462e-13
1.8169e-13
1.51026e-13
2.38367e-13
2.12192e-13
1.73187e-13
1.82364e-13
1.44424e-13
1.16514e-13
1.50315e-13
1.69559e-13
2.10623e-13
1.80463e-13
1.59147e-13
1.83932e-13
2.30371e-13
1.66252e-13
1.82031e-13
2.08885e-13
1.44595e-13
1.49299e-13
1.21211e-13
1.65266e-14
1.04375e-13
1.05939e-13
1.46837e-13
1.73528e-13
5.01524e-14
-1.48236e-14
-4.67267e-14
-7.88498e-14
-1.57583e-13
-8.75234e-14
-9.60265e-14
-1.15442e-13
-7.14033e-14
-7.69406e-14
-8.858e-14
-7.95654e-14
-1.20467e-13
-4.77833e-14
-6.16729e-16
1.34236e-14
-2.54105e-14
-1.25471e-13
-5.49087e-14
-8.59632e-14
-1.03814e-13
2.51166e-15
-1.80245e-15
-9.46887e-15
-4.43259e-14
-1.29997e-13
-1.63298e-13
-1.02587e-13
-2.17825e-14
-5.97185e-14
-6.78925e-14
-8.54102e-14
-5.57494e-14
-5.63064e-14
-9.63676e-14
-1.27926e-13
-1.2082e-13
-1.31562e-13
-1.71464e-13
)
;

boundaryField
{
    sides
    {
        type            calculated;
        value           nonuniform List<scalar> 2(-2.18279e-13 1.16415e-12);
    }
    empty
    {
        type            empty;
    }
}


// ************************************************************************* //
