/*--------------------------------*- C++ -*----------------------------------*\
  =========                 |
  \\      /  F ield         | OpenFOAM: The Open Source CFD Toolbox
   \\    /   O peration     | Website:  https://openfoam.org
    \\  /    A nd           | Version:  13
     \\/     M anipulation  |
\*---------------------------------------------------------------------------*/
FoamFile
{
    format      ascii;
    class       volScalarField;
    location    "0.003";
    object      CrankNicolson:ddt0(rho);
}
// * * * * * * * * * * * * * * * * * * * * * * * * * * * * * * * * * * * * * //

dimensions      [1 -3 -1 0 0 0 0];

internalField   nonuniform List<scalar> 
1000
(
-1.14489e-11
-3.19137e-12
6.70158e-12
1.24879e-11
1.09338e-11
-1.26293e-13
2.86234e-11
1.24616e-11
4.87904e-14
1.25139e-11
1.0701e-11
2.01496e-12
-5.01207e-11
-2.26522e-11
-2.65739e-11
-8.34802e-12
-8.50648e-15
3.32966e-11
-4.42343e-12
3.34689e-11
-5.6392e-11
3.53884e-11
4.03321e-11
1.53069e-11
-2.09126e-12
-8.61747e-13
1.03265e-12
4.4973e-12
-2.08495e-11
3.90541e-12
4.21643e-12
3.04765e-13
2.11739e-12
1.88065e-22
4.13135e-12
-8.00136e-12
2.40769e-12
-1.66052e-11
-6.9048e-12
-3.34854e-13
-1.17002e-12
6.23858e-12
2.59987e-13
3.32246e-11
-7.79675e-13
-9.36255e-12
-2.29004e-11
-3.17645e-11
-3.37648e-11
-2.13209e-11
-2.08169e-11
-2.51611e-12
-4.18215e-12
-3.59242e-12
-1.11531e-11
2.99001e-11
-3.95692e-11
1.15632e-11
-5.34688e-11
-5.54915e-11
-4.35428e-11
-2.02736e-11
-3.01998e-11
1.35359e-11
1.97596e-11
4.2421e-11
8.13017e-12
5.1281e-13
1.76276e-14
5.08114e-15
-4.18169e-12
1.80997e-17
-8.05951e-12
2.71043e-11
3.65758e-11
2.55932e-11
-3.12296e-12
-2.2744e-11
-6.47829e-11
-1.66681e-11
-3.81612e-11
-1.22628e-11
-5.20007e-12
4.88421e-13
-5.99192e-13
-2.45083e-11
2.6002e-12
-1.664e-11
3.05923e-14
2.9663e-11
1.48835e-11
-2.63016e-11
4.78679e-13
-4.17172e-12
-4.51552e-13
-2.08978e-12
-8.32704e-12
9.62229e-14
4.23497e-17
-1.72378e-11
-8.3886e-12
-7.89977e-12
-1.04022e-11
3.84437e-11
-1.37998e-13
-3.89478e-12
2.75967e-12
-2.26321e-11
-4.61159e-11
-1.56461e-11
1.61007e-11
-1.31408e-11
-3.12277e-12
-4.72842e-12
-7.2091e-12
-1.90281e-14
-3.14249e-11
1.63615e-11
-3.30472e-11
6.09868e-12
-1.55153e-11
-2.89726e-11
1.2499e-11
8.8551e-12
-1.09369e-11
-1.10591e-12
2.42867e-16
4.16272e-12
8.63172e-12
-2.91871e-11
-1.35028e-11
-7.26132e-12
-2.46564e-11
4.00355e-12
-1.03554e-11
-6.49505e-13
2.43639e-12
1.31737e-11
7.07828e-11
6.75866e-11
2.48802e-11
-1.05504e-11
5.09819e-11
6.88765e-12
4.16334e-11
-3.20206e-11
2.86473e-11
-1.43177e-12
4.76409e-11
4.64746e-11
1.41539e-12
1.72828e-11
3.67567e-11
-7.26156e-12
2.3286e-11
1.93836e-11
-2.86346e-12
1.95073e-13
-3.98646e-11
-2.90731e-11
-8.10682e-12
1.12257e-11
1.67277e-11
2.598e-12
-2.11622e-12
2.51974e-11
2.44003e-11
6.54334e-14
4.79709e-12
-2.49729e-11
4.1639e-11
2.43397e-11
-3.67112e-12
-8.61651e-14
-1.6637e-11
-4.90206e-12
3.14849e-11
5.51901e-11
1.22542e-11
-4.43577e-12
3.39999e-12
-6.41572e-12
4.996e-11
4.38681e-11
-2.13174e-12
6.13072e-12
2.64186e-12
-4.64825e-11
1.0103e-11
5.12368e-11
6.18567e-12
5.98482e-12
2.01658e-12
-3.22655e-11
-2.19276e-15
1.62538e-14
3.55759e-14
-1.45919e-11
4.996e-11
1.33664e-13
2.99524e-11
5.16227e-13
-4.16771e-12
1.47888e-13
-1.65723e-11
-1.683e-11
-1.69516e-12
-2.67037e-12
9.44162e-12
2.8979e-11
1.6881e-11
2.84285e-13
3.34037e-11
1.95154e-13
2.12944e-11
-2.08218e-11
1.18496e-17
-4.09881e-15
1.45395e-11
3.34748e-11
-8.2331e-14
-3.34815e-11
-7.23677e-12
9.42121e-13
1.19697e-11
-1.73465e-11
1.66513e-11
4.94472e-11
1.35298e-11
-7.65683e-12
1.45778e-11
1.31931e-11
-2.31547e-11
2.91318e-11
-1.72633e-12
-5.68479e-14
2.18575e-11
-2.29791e-12
5.25053e-11
2.90951e-12
3.7773e-12
-2.5045e-11
7.2833e-11
-4.99728e-11
1.33147e-12
-3.80721e-11
1.10668e-13
-8.11638e-15
4.59431e-12
2.17294e-11
2.08505e-11
-1.26906e-12
3.24505e-13
4.11105e-11
-1.7171e-11
2.22804e-12
-1.30712e-13
-3.642e-11
2.14826e-12
1.52847e-11
-2.10099e-12
4.17801e-12
2.44976e-12
1.4568e-11
4.54082e-11
4.40758e-11
1.09613e-11
7.903e-11
-1.99354e-11
9.55717e-12
3.06907e-11
2.5e-12
3.90282e-13
-4.92817e-11
3.12677e-11
9.12357e-12
-4.90074e-12
3.74718e-11
-9.03081e-12
1.09708e-11
-1.07132e-12
2.29299e-11
6.04497e-11
4.51828e-11
3.31767e-12
2.06947e-12
1.56034e-11
-7.91834e-12
-8.33358e-12
-1.3287e-11
1.11451e-11
-3.35465e-11
3.35333e-11
1.81699e-11
1.57468e-11
-4.56426e-12
1.23803e-11
-2.04253e-11
-1.09161e-11
2.49483e-11
-1.69138e-11
2.06014e-13
1.62448e-11
3.20079e-11
2.4748e-11
-3.00429e-11
-9.62741e-12
1.29835e-13
2.77761e-11
3.07983e-13
4.85864e-13
-1.70161e-11
-8.10607e-13
6.08412e-11
7.25464e-11
4.98203e-11
3.04653e-12
1.57093e-12
-4.07897e-11
-1.05783e-11
-4.45931e-12
-1.09284e-11
-1.6656e-11
-2.48284e-11
6.08229e-12
-1.07518e-12
-2.43296e-11
-1.93997e-11
8.8476e-12
-1.51282e-11
3.54813e-12
-8.35846e-12
-1.45771e-11
-1.60508e-11
-2.17963e-11
9.08444e-15
-5.38718e-11
-2.35112e-12
-1.11713e-10
-1.29063e-10
-4.80166e-10
-1.0879e-09
-2.63997e-09
-6.24356e-09
-1.48016e-08
-3.44682e-08
-7.96751e-08
-1.82033e-07
-4.11794e-07
-9.21536e-07
-2.04006e-06
-4.46625e-06
-9.66801e-06
-2.06883e-05
-4.37525e-05
-9.14227e-05
-0.000188696
-0.000384593
-0.00077382
-0.00153652
-0.00300986
-0.0058144
-0.0110725
-0.0207768
-0.0383986
-0.0698615
-0.12506
-0.220142
-0.380823
-0.646963
-1.07857
-1.76307
-2.82336
-4.42505
-6.78083
-10.1483
-14.8176
-21.0841
-29.2067
-39.3521
-51.5359
-65.5743
-81.0644
-97.4052
-113.863
-129.667
-144.113
-156.692
-167.224
-175.768
-182.513
-187.698
-191.57
-194.357
-196.256
-197.432
-198.021
-198.133
-197.856
-197.26
-196.4
-195.321
-194.059
-192.642
-191.092
-189.428
-187.665
-185.814
-183.886
-181.889
-179.831
-177.716
-175.551
-173.341
-171.089
-168.801
-166.479
-164.127
-161.749
-159.348
-156.927
-154.489
-152.037
-149.573
-147.101
-144.622
-142.139
-139.654
-137.169
-134.686
-132.207
-129.734
-127.267
-124.809
-122.36
-119.923
-117.497
-115.083
-112.684
-110.299
-107.929
-105.575
-103.238
-100.917
-98.6139
-96.3286
-94.0615
-91.8129
-89.5832
-87.3726
-85.1814
-83.0096
-80.8577
-78.7256
-76.6135
-74.5215
-72.4498
-70.3984
-68.3674
-66.3568
-64.3667
-62.397
-60.448
-58.5194
-56.6114
-54.7239
-52.857
-51.0106
-49.1847
-47.3792
-45.5942
-43.8295
-42.0853
-40.3614
-38.6578
-36.9744
-35.3113
-33.6684
-32.0457
-30.4431
-28.8607
-27.2985
-25.7565
-24.2347
-22.7331
-21.252
-19.7913
-18.3513
-16.9323
-15.5346
-14.1586
-12.8048
-11.4741
-10.1675
-8.88615
-7.63188
-6.40694
-5.21431
-4.05794
-2.94304
-1.87647
-0.867245
0.0728586
0.928636
1.68074
2.30512
2.77286
3.05087
3.10431
2.90141
2.42195
1.66928
0.684641
-0.440848
-1.56302
-2.49979
-3.05085
-3.04762
-2.41227
-1.19829
0.41167
2.15212
3.74196
4.94154
5.58421
5.5726
4.87015
3.51626
1.62697
-0.603243
-2.90434
-4.94861
-6.39161
-6.93898
-6.40889
-4.78783
-2.30049
0.619209
3.43141
5.62651
6.83696
6.89744
5.8256
3.82194
1.25132
-1.41457
-3.67581
-5.09643
-5.39854
-4.52129
-2.65057
-0.212831
2.23032
4.13296
5.10414
4.99353
3.89255
2.11884
0.142121
-1.5324
-2.48988
-2.51149
-1.62272
-0.0919052
1.64267
3.11022
3.95292
4.02851
3.43221
2.45992
1.50332
0.919139
0.935454
1.6608
3.22996
6.08211
11.3004
20.8614
37.6153
64.847
105.34
160.044
226.772
299.586
369.535
426.718
462.839
473.113
456.896
417.187
359.559
290.96
218.628
149.22
88.1788
39.3025
4.48837
-16.3514
-25.107
-24.9576
-19.5887
-12.3646
-5.72337
-0.954274
1.66318
2.50871
2.23641
1.47984
0.693048
0.112975
-0.200903
-0.296088
-0.259919
-0.173492
-0.0902863
-0.0341882
-0.00798879
-0.00423617
-0.0134335
-0.0280977
-0.043583
-0.0573805
-0.0682252
-0.0755784
-0.079473
-0.0804443
-0.0793537
-0.077192
-0.0749184
-0.0731044
-0.0717215
-0.0707951
-0.0706041
-0.070241
-0.0688605
-0.0694587
-0.0726318
-0.0696099
-0.0642448
-0.0768772
-0.0794978
-0.0313695
-0.0397376
-0.145542
-0.0188698
0.223672
-0.26425
-0.529907
1.18044
0.955724
-3.37442
0.876656
10.9007
-7.26399
-21.3358
42.8111
41.3788
-135.495
7.45928
438.718
-252.391
-1067.73
2064.39
4129.59
2008.1
493.061
84.5828
13.5954
2.24223
0.371047
0.0613903
0.0101552
0.00167978
0.00027785
4.59586e-05
7.60189e-06
1.2574e-06
2.07981e-07
3.44037e-08
5.68826e-09
9.51587e-10
1.55479e-10
3.3356e-11
1.00256e-11
2.57921e-12
-3.89025e-12
-1.2897e-14
1.83018e-14
2.01213e-12
-5.39062e-13
1.07638e-12
1.76699e-12
-2.04185e-12
1.03268e-12
1.77241e-13
4.24213e-12
8.33668e-12
3.73298e-12
-7.84114e-13
-4.58674e-13
-3.88598e-13
-5.70073e-12
-4.164e-12
-3.90929e-12
-1.04503e-12
-2.71751e-13
2.03571e-13
-9.23842e-12
-1.17157e-12
3.89515e-12
6.52098e-13
2.81537e-13
4.96006e-13
-1.626e-14
3.82376e-12
-1.07741e-12
4.41541e-12
-1.31034e-13
7.75629e-12
-2.66784e-15
-2.10864e-12
-1.25673e-12
-1.20834e-11
-2.03156e-12
-1.05979e-12
1.06154e-12
3.98503e-12
1.65247e-14
4.40364e-13
-5.84256e-13
3.09806e-12
-4.52166e-12
4.20112e-12
-4.63618e-13
-4.02114e-12
-2.42516e-12
2.00831e-12
-4.17096e-12
4.15786e-12
3.20142e-14
1.72388e-12
2.04914e-12
3.15096e-13
1.83009e-12
2.05271e-12
7.73074e-13
-5.93636e-12
1.89266e-13
-1.30487e-13
-5.92038e-12
-2.99164e-12
-1.96173e-13
3.64343e-12
1.55269e-12
-3.93562e-12
1.06514e-12
5.70802e-13
-3.17885e-13
-9.64512e-14
6.20022e-12
6.83259e-12
-2.38849e-12
2.58644e-13
-1.04354e-12
-4.74115e-12
-3.48156e-12
-5.59448e-12
7.80963e-13
-1.21565e-12
-1.48611e-12
-2.61128e-12
4.22819e-12
-1.04355e-12
-4.52928e-12
4.59409e-12
-2.14641e-12
3.07428e-12
1.11277e-11
-1.29874e-12
8.30539e-12
9.69162e-13
4.33417e-12
1.55007e-12
2.07908e-12
5.20519e-12
3.66941e-12
3.61039e-12
2.29601e-12
1.98612e-12
3.6588e-12
1.33577e-12
-2.27732e-12
-4.01791e-12
1.30092e-12
-4.98759e-13
4.53253e-12
3.21397e-12
9.6564e-14
1.56125e-12
-4.58965e-12
5.65122e-12
-2.48859e-12
9.57477e-13
-1.04646e-12
1.69154e-12
6.7611e-12
1.92661e-12
2.08128e-12
1.14466e-11
2.9924e-12
9.77813e-13
3.06092e-13
-4.19131e-12
-3.1198e-12
2.12251e-12
4.15514e-12
-2.08383e-12
2.36036e-13
2.09869e-12
-5.19566e-13
5.21443e-13
-3.39948e-12
5.28524e-13
8.16748e-12
3.51504e-12
-6.58881e-12
-2.11005e-12
-5.95641e-12
-1.69684e-13
1.95632e-13
3.94394e-12
-2.35004e-12
6.27755e-12
6.9304e-12
4.46773e-15
-1.46342e-12
-1.98358e-12
5.52957e-12
-1.04283e-12
4.14066e-12
-2.60262e-13
7.79561e-13
4.42154e-12
4.8158e-12
2.1687e-12
9.51405e-13
1.21941e-13
-4.51034e-12
1.77138e-12
-3.62157e-12
8.08696e-12
6.17492e-12
-1.22006e-14
1.44018e-12
-2.31584e-14
1.95093e-13
-1.0321e-12
-2.93673e-13
6.4725e-13
-3.76311e-12
6.8708e-13
2.23767e-12
6.74932e-12
9.08117e-13
2.08192e-12
-2.47249e-12
-3.15116e-12
3.28542e-12
-2.0492e-12
5.08887e-12
3.12129e-12
2.00043e-12
-8.81571e-13
-6.73419e-15
-4.19049e-12
-3.89502e-12
-1.9541e-12
2.40664e-12
1.30367e-13
3.09947e-14
-3.54154e-12
-2.08854e-13
7.83076e-12
5.20071e-12
5.46514e-12
-2.07257e-12
4.14365e-12
-2.27633e-12
-2.88671e-13
5.85577e-13
-2.8369e-12
-8.02995e-13
2.38228e-12
-1.26799e-12
-3.90516e-12
-1.9495e-12
1.28749e-12
-4.13525e-12
-3.0691e-15
1.62611e-13
6.12952e-15
7.30314e-12
3.64362e-12
4.38268e-12
2.92752e-12
5.25829e-12
-1.12691e-12
-3.27317e-12
-3.12953e-13
-1.85397e-12
3.53128e-12
-1.33236e-12
-2.09195e-13
-1.70853e-13
7.43621e-12
-5.66781e-12
3.25935e-12
2.6712e-12
2.19546e-12
-2.24435e-12
3.52094e-12
7.07507e-13
-2.16521e-13
-8.11401e-14
-1.18466e-13
2.77271e-12
-1.23486e-13
-5.69612e-12
-2.60097e-12
-1.08062e-12
1.03677e-12
7.72111e-13
2.1876e-12
1.33941e-12
4.79746e-12
-1.49745e-12
-1.19069e-12
3.33424e-12
1.14149e-12
1.88495e-12
6.91323e-13
4.35824e-12
-3.11435e-12
8.34589e-13
-2.06313e-12
1.17092e-12
7.56176e-13
4.19102e-12
-7.74241e-14
5.56792e-13
-1.75187e-12
-2.23397e-16
-1.9844e-12
1.59782e-14
-7.31939e-13
6.62959e-12
6.83251e-12
4.63259e-12
-4.16574e-12
-1.17905e-13
-2.14721e-12
9.71665e-13
-3.12008e-12
-3.934e-12
-2.08703e-12
3.12215e-12
9.08719e-13
-2.24204e-12
1.29706e-12
-1.23243e-12
2.56749e-12
-3.95135e-14
1.29989e-12
1.05582e-12
3.87763e-12
7.28381e-12
7.44847e-12
7.37735e-12
1.30877e-12
-6.37374e-13
6.01151e-13
2.21033e-12
-2.41251e-12
-6.11056e-15
-1.22812e-12
1.02905e-12
9.31069e-13
-2.38695e-12
-4.69033e-12
1.25402e-12
-1.00024e-12
5.13486e-12
2.59799e-12
1.72446e-12
-1.56054e-12
-2.20084e-12
3.23409e-12
1.80902e-12
1.65457e-13
4.04582e-12
)
;

boundaryField
{
    sides
    {
        type            calculated;
        value           nonuniform List<scalar> 2(4.04582e-12 -1.14489e-11);
    }
    empty
    {
        type            empty;
    }
}


// ************************************************************************* //
