/*--------------------------------*- C++ -*----------------------------------*\
  =========                 |
  \\      /  F ield         | OpenFOAM: The Open Source CFD Toolbox
   \\    /   O peration     | Website:  https://openfoam.org
    \\  /    A nd           | Version:  13
     \\/     M anipulation  |
\*---------------------------------------------------------------------------*/
FoamFile
{
    format      ascii;
    class       surfaceScalarField;
    location    "0.003";
    object      CrankNicolson:ddtCorrDdt0(phi);
}
// * * * * * * * * * * * * * * * * * * * * * * * * * * * * * * * * * * * * * //

dimensions      [1 0 -2 0 0 0 0];

internalField   nonuniform List<scalar> 
999
(
-4.3045e-08
2.41828e-08
-2.51391e-08
6.63309e-09
2.28514e-08
-7.94662e-09
1.36475e-08
-4.67616e-08
-3.05528e-09
-5.77544e-09
-5.16531e-08
-5.04983e-09
1.67365e-08
-1.80645e-08
-1.22664e-08
-1.77546e-10
-1.33446e-09
2.03932e-08
-4.08266e-08
1.87005e-08
-3.84341e-08
2.31205e-09
4.12963e-08
-2.54906e-08
4.09596e-09
3.50125e-09
-8.01279e-09
1.01773e-08
-3.56915e-09
6.77307e-10
1.81966e-10
8.30388e-09
-1.21056e-08
1.291e-08
9.16618e-09
1.00207e-08
-1.87573e-08
-2.38041e-08
2.13485e-08
2.53258e-09
3.83013e-09
-3.6762e-08
1.3394e-08
-8.02858e-09
-1.43792e-08
-1.60802e-08
-1.10316e-08
8.57086e-09
1.80264e-08
4.1959e-08
-1.38547e-08
-1.62792e-08
2.22237e-08
-8.58365e-09
-8.25984e-09
3.93199e-10
-4.98529e-09
-2.19956e-09
-3.13451e-08
-2.57694e-08
-2.96203e-08
1.60551e-08
-2.76005e-08
-5.41927e-10
-9.29157e-09
-1.60911e-08
-1.28997e-08
-9.94388e-09
4.98002e-09
7.56519e-09
-2.22325e-08
-2.16251e-08
4.34204e-09
-1.62946e-09
1.38594e-08
-1.43709e-10
4.55493e-09
1.38412e-08
-2.27797e-08
2.60304e-08
-9.41843e-09
-7.73973e-09
1.78486e-08
-2.57084e-09
2.47332e-09
-5.48564e-08
-1.45669e-08
-7.75909e-09
6.49492e-10
-1.63694e-08
2.89688e-08
9.72407e-09
2.16912e-08
-5.57576e-09
5.37036e-09
-3.26836e-09
1.15867e-08
-8.40369e-09
7.10806e-09
-9.38531e-09
4.50351e-09
1.51048e-08
-2.20461e-08
-6.72733e-09
-2.72569e-08
4.76735e-09
1.64681e-08
4.93231e-08
2.42237e-08
7.86396e-09
8.13654e-10
-2.75745e-08
-4.62028e-08
-1.74681e-08
-3.33372e-08
-3.14103e-08
-1.10793e-08
2.7975e-08
-1.42787e-08
2.01854e-08
-9.7033e-09
2.22444e-08
-6.18935e-09
-4.84876e-09
-1.09744e-08
1.68991e-08
-1.33642e-08
-1.21034e-10
3.10551e-08
4.35399e-08
-8.71877e-09
-5.96082e-09
-3.27556e-08
-3.91434e-08
-2.18496e-09
-1.94147e-08
-7.72809e-09
1.33554e-08
2.99829e-08
3.17555e-09
-2.73053e-09
-3.29763e-08
4.90012e-09
1.86866e-08
3.41141e-08
1.14538e-08
1.61811e-08
6.1378e-09
2.85024e-09
-2.83186e-09
-1.10886e-08
-1.31567e-08
3.16669e-08
1.51733e-08
3.50646e-08
-3.69807e-09
9.39066e-10
-9.07328e-09
1.8873e-10
-4.60861e-09
1.85624e-08
9.00128e-09
1.83199e-08
-1.49535e-08
-1.25931e-08
5.78642e-09
-2.83276e-08
-3.03323e-09
-7.56998e-09
-1.4301e-08
-1.98409e-08
-9.72887e-09
1.87785e-08
2.51487e-08
1.97919e-08
-4.30585e-08
-3.89663e-08
4.52341e-09
-8.43793e-09
-2.00336e-08
1.48676e-08
-5.38285e-09
8.25644e-09
2.23511e-08
4.19988e-08
5.01818e-08
6.19743e-09
-3.65142e-09
-8.22179e-09
-2.89226e-08
-3.25249e-08
-2.18767e-08
1.67009e-09
-2.22297e-08
-8.19114e-09
-1.43264e-09
2.5267e-08
-2.00328e-08
3.50209e-09
-1.91546e-08
-8.05574e-10
1.23732e-09
-6.8386e-09
-3.45651e-09
-4.59766e-09
1.64212e-08
-1.35876e-08
6.09687e-09
-1.01365e-08
4.38428e-08
1.47047e-08
-5.277e-09
4.41225e-08
-2.61019e-08
2.58402e-08
1.38982e-09
1.29894e-08
1.09629e-08
-2.36598e-08
1.03759e-08
5.6206e-09
-1.53232e-08
-4.90763e-08
-5.08864e-08
-3.29179e-08
-2.10572e-08
-2.24221e-08
1.27646e-09
-2.80696e-08
-1.43308e-08
5.36508e-08
1.81119e-08
4.53184e-08
6.46607e-09
-8.64647e-10
6.13121e-09
2.98514e-09
-7.67784e-10
-3.08734e-08
-4.88012e-10
2.03903e-08
-2.5106e-08
-4.09415e-09
2.63726e-08
-5.46889e-09
5.02511e-09
-9.21074e-09
-1.40972e-08
2.11582e-08
1.65671e-09
8.18938e-09
-2.46606e-08
-2.06714e-08
4.6979e-08
1.05445e-08
1.70665e-08
2.61e-08
1.77295e-08
-9.3466e-09
-7.27731e-09
1.0855e-08
8.28646e-09
-1.26993e-08
-1.20062e-08
-2.77282e-08
-1.77248e-08
-4.03848e-08
1.60279e-08
-1.84703e-08
-1.21738e-08
2.39994e-08
2.76643e-09
3.75834e-08
2.3431e-08
-2.02913e-09
5.899e-09
1.1262e-08
-4.62353e-09
4.71002e-09
-5.4326e-09
-2.48889e-08
-9.82722e-09
6.93576e-10
-1.02378e-08
-2.32555e-08
-3.99848e-09
7.01697e-09
3.08797e-09
-8.46953e-09
1.99639e-08
1.46016e-08
3.81717e-08
3.75996e-08
3.87802e-08
-2.38344e-08
-1.22241e-08
9.46941e-09
-2.62961e-09
3.87841e-09
-1.33067e-08
-1.4354e-08
-3.33614e-08
-6.50804e-09
1.07294e-08
1.84599e-09
8.11588e-09
5.71835e-10
2.98474e-09
3.47015e-09
2.39724e-10
1.14604e-08
1.43327e-08
-2.54696e-08
1.99852e-08
2.02956e-08
2.29296e-08
-1.16554e-08
-1.83226e-08
-1.77739e-08
2.91981e-08
3.07904e-09
-4.03049e-09
-5.8323e-09
1.38287e-08
2.21178e-08
3.1979e-08
-6.64878e-09
2.72536e-08
4.91314e-09
3.55866e-08
-2.27468e-08
-4.25345e-08
-1.56508e-08
-1.58667e-09
-1.51101e-09
1.07821e-08
2.41388e-08
1.01348e-07
1.73779e-07
4.64666e-07
1.097e-06
2.64724e-06
6.2737e-06
1.4867e-05
3.48222e-05
8.08498e-05
0.000185538
0.000421551
0.000947753
0.00210782
0.0046368
0.0100866
0.0216927
0.0461129
0.0968642
0.201011
0.411975
0.833658
1.66508
3.28146
6.37868
12.2253
23.0931
42.9737
78.7443
142.007
251.905
439.276
752.533
1265.58
2087.82
3375.67
5344.29
8276.52
12524.9
18500.5
26643.3
37368.7
50991.9
67638.3
87158.8
109077
132589
156638
180044
201663
220543
236171
248527
257860
264549
269003
271616
272730
272639
271583
269755
267312
264378
261053
257414
253526
249437
245188
240811
236332
231773
227151
222480
217774
213043
208295
203540
198784
194034
189297
184577
179880
175211
170575
165976
161418
156905
152440
148026
143668
139366
135125
130945
126830
122781
118799
114886
111043
107271
103570
99942.2
96387.2
92905.4
89497.1
86162.5
82901.7
79714.4
76600.7
73560.2
70592.8
67697.9
64875.3
62124.5
59445.1
56836.3
54297.8
51828.9
49428.9
47097.2
44833.1
42636
40505.1
38439.7
36439
34502.3
32628.7
30817.7
29068.3
27379.8
25751.3
24182.1
22671.3
21218.2
19821.9
18481.6
17196.6
15966
14788.9
13664.5
12592.1
11570.8
10599.8
9678.37
8805.58
7980.63
7202.7
6470.99
5784.68
5142.97
4545.05
3990.08
3477.21
3005.59
2574.36
2182.65
1829.59
1514.26
1235.73
992.957
784.88
610.332
468.055
356.656
274.56
219.942
190.65
184.104
197.181
226.086
266.203
311.942
356.652
392.649
411.526
404.873
365.587
289.761
178.871
41.6073
-105.779
-239.844
-334.056
-365.205
-320.148
-199.94
-19.6793
195.264
414.381
606.991
743.503
799.531
759.281
619.018
390.344
102.287
-199.705
-459.147
-619.723
-633.337
-478.494
-171.097
235.996
665.41
1034.63
1273.98
1339.61
1212.93
911.92
491.13
34.0181
-361.655
-603.46
-627.178
-409.364
14.9001
556.242
1093.27
1505.71
1705.77
1659.83
1389.84
975.758
538.028
207.244
89.3725
236.145
631.676
1190.35
1782.49
2275.95
2579.12
2669.6
2595.13
2456.34
2367.24
2423.3
2717.31
3444.4
5109.73
8816.42
16534.6
31195.5
56432.4
95827.6
151648
223316
306215
391634
468301
525125
553964
551299
518414
460458
385009
300637
215709
137523
71713.6
21824.5
-10961.9
-27833.7
-31952.2
-27626
-19261.6
-10437.3
-3389.07
1013.4
2931.07
3077.43
2289.89
1251.93
380.532
-161.619
-388.359
-398.65
-304.475
-190.417
-102.094
-52.9019
-37.5787
-44.4068
-62.5068
-84.3742
-105.604
-123.765
-137.56
-146.548
-151.158
-152.519
-152.096
-151.494
-151.976
-153.5
-155.392
-158.273
-161.552
-161.225
-160.127
-167.881
-171.653
-155.69
-168.685
-218.914
-156.783
-55.7603
-278.719
-350.106
425.591
208.459
-1675.82
499.48
4605.4
-3973.58
-8760.22
20442.4
15307.5
-60678.3
12412.2
184728
-136263
-387340
755749
750686
-2.5968e+06
45844.5
9.76775e+06
6.58275e+06
1.81075e+06
324179
51646.4
8504.35
1407.33
232.861
38.5204
6.37172
1.05394
0.174331
0.0288356
0.00476961
0.000788923
0.00013049
2.15892e-05
3.57507e-06
5.83794e-07
1.23313e-07
9.13246e-09
4.70155e-09
-6.95267e-10
-2.25343e-09
-2.60758e-09
4.88963e-09
-1.26174e-09
-4.69025e-09
-4.58588e-09
-6.5224e-11
-5.04985e-10
-1.92061e-09
-9.70941e-09
-4.96256e-09
3.3881e-09
2.94139e-09
9.51153e-10
-1.148e-09
4.69078e-09
-6.78767e-10
-2.15068e-09
5.53434e-09
5.04435e-11
6.94558e-10
7.53646e-09
-1.64726e-09
-3.39876e-09
-2.135e-09
1.52479e-09
-2.59596e-09
-3.80213e-09
4.39648e-10
3.73228e-09
-5.65573e-09
9.58358e-10
7.00643e-11
3.38417e-09
1.31849e-09
5.04534e-10
9.40459e-09
-4.98532e-10
-4.69637e-10
7.81205e-09
-5.90563e-09
1.30986e-09
-1.19727e-09
2.9128e-09
-1.42751e-09
-1.46375e-09
-3.9417e-09
3.00528e-09
3.61466e-09
-4.56865e-09
-3.17516e-09
4.59831e-09
-1.3961e-09
1.7418e-09
-3.74332e-09
7.46229e-10
-6.55047e-10
-1.47192e-09
7.87876e-10
-9.80145e-10
-2.69803e-10
5.75409e-09
-2.61501e-09
-3.19378e-09
-2.364e-09
-2.00314e-09
-1.12856e-09
-5.53006e-10
-1.7832e-09
1.50434e-09
2.50018e-09
3.13039e-10
-8.45781e-10
3.52465e-09
6.32249e-09
-5.36561e-09
-5.11539e-09
1.36089e-09
-1.38444e-10
-1.74554e-09
-4.85585e-09
-6.19895e-09
-2.54121e-09
2.44402e-10
2.87727e-09
-1.14105e-09
-3.16763e-09
-3.5157e-09
-2.34307e-09
1.53476e-09
1.45659e-09
-3.06213e-10
1.5095e-09
-4.64316e-09
-1.13937e-09
-2.64254e-09
3.91095e-09
1.10468e-09
-3.12511e-10
-2.79232e-09
2.32968e-09
1.35543e-09
7.61335e-10
2.51878e-09
2.74527e-09
8.10694e-10
2.61322e-09
1.35729e-09
4.53035e-09
3.52492e-09
1.78481e-09
-1.2178e-09
-4.91778e-09
-5.12533e-09
-1.15281e-08
6.25831e-10
-1.68484e-09
2.23827e-09
1.76273e-10
-8.17154e-10
2.44292e-09
-1.15835e-09
1.5119e-09
1.55941e-09
5.29337e-10
5.76868e-10
-1.15185e-11
-2.24793e-09
-3.51515e-09
-3.24298e-09
-1.08793e-09
2.71422e-11
-1.04357e-09
-4.0225e-09
1.47826e-09
2.81005e-09
6.38174e-10
4.47907e-11
-5.88202e-10
-3.27799e-09
1.32561e-10
3.71552e-09
2.87264e-09
2.59532e-09
7.11933e-10
-2.37672e-09
-4.10574e-09
9.27995e-10
1.07152e-09
-1.01732e-09
2.08992e-09
1.77216e-09
5.54361e-09
8.61759e-10
2.14727e-09
-5.8049e-10
1.25305e-09
1.53503e-09
2.02883e-09
-3.78647e-09
-8.56554e-09
-4.90566e-09
-1.96986e-09
2.09726e-09
-7.66494e-10
2.66279e-09
1.89609e-10
-1.28356e-09
1.09558e-09
8.86375e-10
1.6367e-09
-1.1371e-09
8.73877e-10
1.74118e-09
2.02483e-09
1.90355e-09
1.32948e-09
5.85433e-10
6.49536e-09
5.82804e-09
-7.96772e-10
-4.31442e-09
-1.03495e-09
-3.75438e-09
-4.98527e-09
-1.36031e-09
-7.46737e-09
-6.23264e-09
-8.90161e-10
2.35907e-09
-6.09142e-10
-3.14864e-09
-1.33646e-10
1.26053e-09
-6.80586e-11
4.28224e-10
1.31981e-09
4.10326e-09
3.11415e-09
4.13345e-09
-1.11957e-09
-1.71293e-10
3.01779e-11
9.81111e-10
1.77061e-09
9.22675e-10
-2.07145e-09
1.14241e-09
4.73447e-09
-2.29834e-09
-1.25283e-10
6.31935e-10
-1.24105e-09
8.21222e-10
-1.64587e-09
-3.51229e-09
-2.93684e-09
5.0372e-10
-6.84933e-10
-5.30111e-09
1.37499e-09
-8.43655e-11
5.71866e-09
3.55444e-09
5.07157e-09
1.88923e-09
-3.1321e-10
8.21807e-10
-4.35642e-09
-2.43327e-09
1.82517e-09
-1.78259e-09
3.85503e-10
2.62607e-09
1.37213e-09
-1.37101e-09
4.29108e-10
5.5971e-09
6.35127e-09
1.6721e-09
-4.79089e-09
-2.292e-09
-3.05509e-09
-4.3045e-09
-3.01842e-09
-2.41372e-09
-7.40928e-10
4.31293e-09
-2.92607e-09
-2.97863e-11
1.48539e-09
1.86604e-09
1.23375e-10
-3.0452e-10
4.14683e-09
2.56151e-09
3.98721e-09
-5.75814e-09
-4.17448e-09
6.70399e-10
-3.95245e-09
-2.16831e-09
6.06644e-10
-1.44924e-09
-1.4439e-09
-3.65923e-10
-1.56157e-09
1.69064e-09
1.55059e-09
-2.27611e-09
-9.05332e-10
2.31322e-09
2.71276e-09
-5.08834e-09
-3.06256e-09
-9.95154e-10
-1.17895e-09
-1.35738e-09
-2.83777e-09
-1.50419e-09
5.26961e-10
3.2471e-09
-1.58285e-09
3.76562e-09
7.26968e-10
-3.15284e-10
9.90855e-10
-2.88429e-09
-2.68765e-09
-1.6391e-09
-5.5041e-10
-1.34316e-09
-1.1418e-09
-2.70256e-10
-4.31093e-09
9.78271e-10
2.81689e-09
6.85583e-10
-4.32945e-09
-1.57438e-09
-6.24938e-10
-4.90134e-09
-1.86691e-09
-3.75587e-09
-2.93302e-10
-2.22907e-09
1.05513e-09
1.94658e-09
2.622e-09
-1.32317e-09
-7.93324e-10
-1.6401e-09
2.85821e-09
-5.17774e-10
)
;

boundaryField
{
    sides
    {
        type            calculated;
        value           nonuniform List<scalar> 2(1.33263e-09 1.58294e-08);
    }
    empty
    {
        type            empty;
    }
}


// ************************************************************************* //
