/*--------------------------------*- C++ -*----------------------------------*\
  =========                 |
  \\      /  F ield         | OpenFOAM: The Open Source CFD Toolbox
   \\    /   O peration     | Website:  https://openfoam.org
    \\  /    A nd           | Version:  13
     \\/     M anipulation  |
\*---------------------------------------------------------------------------*/
FoamFile
{
    format      ascii;
    class       volVectorField;
    location    "0.003";
    object      CrankNicolson:ddtCorrDdt0(rho,U);
}
// * * * * * * * * * * * * * * * * * * * * * * * * * * * * * * * * * * * * * //

dimensions      [1 -2 -2 0 0 0 0];

internalField   nonuniform List<vector> 
1000
(
(-5.82077e-09 0 0)
(-1.45519e-09 0 0)
(1.45519e-09 0 0)
(-1.45519e-09 0 0)
(1.45519e-09 0 0)
(2.91038e-09 0 0)
(1.45519e-09 0 0)
(-2.91038e-09 0 0)
(-5.82077e-09 0 0)
(-5.68622e-23 0 0)
(-8.73115e-09 0 0)
(-7.27596e-09 0 0)
(2.91038e-09 0 0)
(-1.45519e-09 0 0)
(-4.36557e-09 0 0)
(1.38537e-23 0 0)
(1.89024e-25 0 0)
(2.91038e-09 0 0)
(-2.91038e-09 0 0)
(-1.45519e-09 0 0)
(-2.91038e-09 0 0)
(-4.36557e-09 0 0)
(5.82077e-09 0 0)
(-2.37814e-24 0 0)
(-2.91038e-09 0 0)
(1.45519e-09 0 0)
(2.08411e-25 0 0)
(1.30281e-23 0 0)
(2.51741e-23 0 0)
(-1.45519e-09 0 0)
(1.45519e-09 0 0)
(1.45519e-09 0 0)
(-7.19647e-23 0 0)
(-1.45519e-09 0 0)
(1.45519e-09 0 0)
(2.91038e-09 0 0)
(-2.91038e-09 0 0)
(-4.36557e-09 0 0)
(5.27005e-24 0 0)
(4.36557e-09 0 0)
(6.85429e-23 0 0)
(-4.36557e-09 0 0)
(-2.91038e-09 0 0)
(1.45519e-09 0 0)
(-2.91038e-09 0 0)
(-2.91038e-09 0 0)
(-2.91038e-09 0 0)
(-5.81094e-23 0 0)
(4.36557e-09 0 0)
(7.27596e-09 0 0)
(2.91038e-09 0 0)
(-1.45519e-09 0 0)
(6.48222e-23 0 0)
(1.45519e-09 0 0)
(-8.38393e-23 0 0)
(-2.91038e-09 0 0)
(4.68843e-23 0 0)
(-4.74595e-23 0 0)
(-4.36557e-09 0 0)
(-7.27596e-09 0 0)
(-7.27596e-09 0 0)
(-1.45519e-09 0 0)
(-1.45519e-09 0 0)
(-2.91038e-09 0 0)
(-1.45519e-09 0 0)
(-1.45519e-09 0 0)
(-4.36557e-09 0 0)
(-2.91038e-09 0 0)
(6.46235e-27 0 0)
(2.91038e-09 0 0)
(-2.91038e-09 0 0)
(-5.82077e-09 0 0)
(-2.91038e-09 0 0)
(-6.61744e-24 0 0)
(2.91038e-09 0 0)
(2.91038e-09 0 0)
(1.21476e-23 0 0)
(4.36557e-09 0 0)
(-1.45519e-09 0 0)
(1.45519e-09 0 0)
(1.45519e-09 0 0)
(-2.91038e-09 0 0)
(-2.68834e-24 0 0)
(2.91038e-09 0 0)
(-1.45519e-09 0 0)
(-7.27596e-09 0 0)
(-8.73115e-09 0 0)
(-4.36557e-09 0 0)
(1.45519e-09 0 0)
(-1.45519e-09 0 0)
(1.45519e-09 0 0)
(2.91038e-09 0 0)
(2.91038e-09 0 0)
(2.91038e-09 0 0)
(1.45519e-09 0 0)
(-2.06795e-25 0 0)
(2.91038e-09 0 0)
(1.45519e-09 0 0)
(-4.47114e-24 0 0)
(-4.9756e-24 0 0)
(1.45519e-09 0 0)
(2.91038e-09 0 0)
(5.37667e-24 0 0)
(-2.91038e-09 0 0)
(-5.82077e-09 0 0)
(-4.36557e-09 0 0)
(1.45519e-09 0 0)
(7.27596e-09 0 0)
(8.73115e-09 0 0)
(7.27596e-09 0 0)
(-6.51405e-24 0 0)
(-4.36557e-09 0 0)
(-8.73115e-09 0 0)
(-7.27596e-09 0 0)
(-5.82077e-09 0 0)
(-8.73115e-09 0 0)
(-5.82077e-09 0 0)
(1.45519e-09 0 0)
(1.45519e-09 0 0)
(2.91038e-09 0 0)
(1.96455e-23 0 0)
(1.27179e-23 0 0)
(2.91038e-09 0 0)
(-1.45519e-09 0 0)
(-1.45519e-09 0 0)
(2.91038e-09 0 0)
(-1.45519e-09 0 0)
(-2.91038e-09 0 0)
(5.82077e-09 0 0)
(8.73115e-09 0 0)
(7.27596e-09 0 0)
(-1.45519e-09 0 0)
(-4.36557e-09 0 0)
(-1.01863e-08 0 0)
(-4.36557e-09 0 0)
(-1.45519e-09 0 0)
(-4.36557e-09 0 0)
(2.91038e-09 0 0)
(7.27596e-09 0 0)
(4.36557e-09 0 0)
(-1.45519e-09 0 0)
(-4.36557e-09 0 0)
(-2.91038e-09 0 0)
(4.36557e-09 0 0)
(7.27596e-09 0 0)
(5.82077e-09 0 0)
(4.36557e-09 0 0)
(1.45519e-09 0 0)
(2.91038e-09 0 0)
(6.20385e-25 0 0)
(-2.91038e-09 0 0)
(-2.91038e-09 0 0)
(2.91038e-09 0 0)
(5.82077e-09 0 0)
(4.36557e-09 0 0)
(2.91038e-09 0 0)
(-1.45519e-09 0 0)
(-7.27596e-09 0 0)
(4.1359e-25 0 0)
(2.91038e-09 0 0)
(-4.36557e-09 0 0)
(1.45519e-09 0 0)
(7.27596e-09 0 0)
(-1.03398e-24 0 0)
(-4.36557e-09 0 0)
(-1.45519e-09 0 0)
(-4.36557e-09 0 0)
(-2.91038e-09 0 0)
(-1.45519e-09 0 0)
(-1.96455e-24 0 0)
(-4.36557e-09 0 0)
(-5.82077e-09 0 0)
(1.45519e-09 0 0)
(4.36557e-09 0 0)
(5.82077e-09 0 0)
(9.92617e-24 0 0)
(-1.16415e-08 0 0)
(-4.36557e-09 0 0)
(-2.91038e-09 0 0)
(-2.91038e-09 0 0)
(-1.45519e-09 0 0)
(2.91038e-09 0 0)
(-1.67504e-23 0 0)
(2.91038e-09 0 0)
(5.82077e-09 0 0)
(1.30967e-08 0 0)
(5.82077e-09 0 0)
(8.89219e-24 0 0)
(-1.05466e-23 0 0)
(-5.82077e-09 0 0)
(-7.27596e-09 0 0)
(-7.27596e-09 0 0)
(-1.45519e-09 0 0)
(-2.91038e-09 0 0)
(-2.91038e-09 0 0)
(-1.45519e-09 0 0)
(1.45519e-09 0 0)
(2.91038e-09 0 0)
(-2.91038e-09 0 0)
(-1.45519e-09 0 0)
(-1.45519e-09 0 0)
(-1.45519e-09 0 0)
(1.80946e-25 0 0)
(-1.45519e-09 0 0)
(-1.45519e-09 0 0)
(4.36557e-09 0 0)
(1.45519e-09 0 0)
(-1.45519e-09 0 0)
(2.09897e-23 0 0)
(7.27596e-09 0 0)
(8.73115e-09 0 0)
(1.45519e-09 0 0)
(4.36557e-09 0 0)
(1.45519e-09 0 0)
(-3.26736e-23 0 0)
(2.91038e-09 0 0)
(1.55096e-23 0 0)
(2.91038e-09 0 0)
(-2.91038e-09 0 0)
(-1.45519e-09 0 0)
(-2.27475e-24 0 0)
(2.04727e-23 0 0)
(-7.27596e-09 0 0)
(-1.45519e-08 0 0)
(-8.73115e-09 0 0)
(-5.82077e-09 0 0)
(-5.82077e-09 0 0)
(-1.45519e-09 0 0)
(-4.36557e-09 0 0)
(-5.82077e-09 0 0)
(2.91038e-09 0 0)
(8.73115e-09 0 0)
(8.73115e-09 0 0)
(5.82077e-09 0 0)
(1.40104e-23 0 0)
(1.45519e-09 0 0)
(-2.21271e-23 0 0)
(7.23783e-24 0 0)
(-2.91038e-09 0 0)
(-4.36557e-09 0 0)
(2.91038e-09 0 0)
(6.20385e-24 0 0)
(-2.91038e-09 0 0)
(1.45519e-09 0 0)
(1.45519e-09 0 0)
(2.678e-23 0 0)
(-2.66766e-23 0 0)
(-1.45519e-09 0 0)
(5.42837e-24 0 0)
(2.91038e-09 0 0)
(1.45519e-09 0 0)
(-2.91038e-09 0 0)
(-5.82077e-09 0 0)
(2.91038e-09 0 0)
(7.27596e-09 0 0)
(4.36557e-09 0 0)
(7.27596e-09 0 0)
(1.01863e-08 0 0)
(1.45519e-09 0 0)
(-1.45519e-09 0 0)
(1.45519e-09 0 0)
(3.62925e-23 0 0)
(-1.45519e-09 0 0)
(-2.91038e-09 0 0)
(-5.82077e-09 0 0)
(-8.73115e-09 0 0)
(-4.36557e-09 0 0)
(-2.91038e-09 0 0)
(-4.36557e-09 0 0)
(1.86116e-24 0 0)
(7.27596e-09 0 0)
(1.45519e-09 0 0)
(4.36557e-09 0 0)
(7.27596e-09 0 0)
(4.36557e-09 0 0)
(-1.31283e-23 0 0)
(1.45519e-09 0 0)
(1.28213e-23 0 0)
(1.85082e-23 0 0)
(1.45519e-09 0 0)
(-4.36557e-09 0 0)
(-4.36557e-09 0 0)
(-1.45519e-09 0 0)
(-2.91038e-09 0 0)
(-4.36557e-09 0 0)
(-4.36557e-09 0 0)
(1.45519e-09 0 0)
(2.91038e-09 0 0)
(-6.30725e-24 0 0)
(9.71776e-24 0 0)
(4.36557e-09 0 0)
(5.82077e-09 0 0)
(1.16415e-08 0 0)
(8.73115e-09 0 0)
(2.91038e-09 0 0)
(-5.82077e-09 0 0)
(-2.91038e-09 0 0)
(1.45519e-09 0 0)
(-2.22305e-23 0 0)
(-1.45519e-09 0 0)
(-4.36557e-09 0 0)
(-5.82077e-09 0 0)
(-5.82077e-09 0 0)
(6.41065e-24 0 0)
(1.45519e-09 0 0)
(-3.30872e-24 0 0)
(2.91038e-09 0 0)
(9.51258e-24 0 0)
(1.45519e-09 0 0)
(-2.59528e-23 0 0)
(1.45519e-09 0 0)
(2.91038e-09 0 0)
(2.15067e-23 0 0)
(1.45519e-09 0 0)
(2.91038e-09 0 0)
(1.45519e-09 0 0)
(-2.91038e-09 0 0)
(-5.82077e-09 0 0)
(-4.36557e-09 0 0)
(2.91038e-09 0 0)
(4.36557e-09 0 0)
(-1.45519e-09 0 0)
(-1.45519e-09 0 0)
(-2.55877e-23 0 0)
(4.36557e-09 0 0)
(7.27596e-09 0 0)
(2.91038e-09 0 0)
(1.45519e-09 0 0)
(4.36557e-09 0 0)
(4.36557e-09 0 0)
(2.91038e-09 0 0)
(-8.73115e-09 0 0)
(-8.73115e-09 0 0)
(-2.91038e-09 0 0)
(-3.36042e-23 0 0)
(1.45519e-09 0 0)
(4.36557e-09 0 0)
(1.30967e-08 0 0)
(3.20142e-08 0 0)
(7.42148e-08 0 0)
(1.83354e-07 0 0)
(4.39468e-07 0 0)
(1.04919e-06 0 0)
(2.49274e-06 0 0)
(5.86733e-06 0 0)
(1.36803e-05 0 0)
(3.15573e-05 0 0)
(7.20262e-05 0 0)
(0.000162714 0 0)
(0.000363658 0 0)
(0.000803979 0 0)
(0.00175784 0 0)
(0.00380017 0 0)
(0.00812109 0 0)
(0.0171516 0 0)
(0.0357903 0 0)
(0.0737689 0 0)
(0.150143 0 0)
(0.301669 0 0)
(0.598144 0 0)
(1.16999 0 0)
(2.25684 0 0)
(4.2913 0 0)
(8.04014 0 0)
(14.8364 0 0)
(26.9505 0 0)
(48.1672 0 0)
(84.6501 0 0)
(146.192 0 0)
(247.934 0 0)
(412.61 0 0)
(673.253 0 0)
(1076.12 0 0)
(1683.32 0 0)
(2574.2 0 0)
(3844.29 0 0)
(5600.1 0 0)
(7948.65 0 0)
(10981.1 0 0)
(14751.9 0 0)
(19256.7 0 0)
(24414.9 0 0)
(30064.4 0 0)
(35971 0 0)
(41855.1 0 0)
(47429.1 0 0)
(52439.6 0 0)
(56716.3 0 0)
(60198.7 0 0)
(62913.7 0 0)
(64936 0 0)
(66360.3 0 0)
(67283.1 0 0)
(67793.5 0 0)
(67968.6 0 0)
(67872.9 0 0)
(67559.5 0 0)
(67071 0 0)
(66441.7 0 0)
(65698.9 0 0)
(64864.6 0 0)
(63956.2 0 0)
(62987.5 0 0)
(61969.9 0 0)
(60912.4 0 0)
(59822.4 0 0)
(58706.1 0 0)
(57568.6 0 0)
(56414.1 0 0)
(55246.3 0 0)
(54068.3 0 0)
(52883 0 0)
(51692.7 0 0)
(50499.8 0 0)
(49306.2 0 0)
(48113.8 0 0)
(46924.3 0 0)
(45739.3 0 0)
(44560.3 0 0)
(43388.6 0 0)
(42225.5 0 0)
(41072.2 0 0)
(39929.7 0 0)
(38799.1 0 0)
(37681.3 0 0)
(36577.1 0 0)
(35487.2 0 0)
(34412.3 0 0)
(33353.1 0 0)
(32310.1 0 0)
(31283.7 0 0)
(30274.4 0 0)
(29282.4 0 0)
(28308.2 0 0)
(27351.9 0 0)
(26413.7 0 0)
(25493.9 0 0)
(24592.5 0 0)
(23709.6 0 0)
(22845.3 0 0)
(21999.6 0 0)
(21172.6 0 0)
(20364.1 0 0)
(19574.2 0 0)
(18802.7 0 0)
(18049.7 0 0)
(17315.1 0 0)
(16598.6 0 0)
(15900.3 0 0)
(15220 0 0)
(14557.5 0 0)
(13912.7 0 0)
(13285.4 0 0)
(12675.6 0 0)
(12083 0 0)
(11507.4 0 0)
(10948.7 0 0)
(10406.7 0 0)
(9881.23 0 0)
(9372.08 0 0)
(8879.05 0 0)
(8401.97 0 0)
(7940.63 0 0)
(7494.84 0 0)
(7064.39 0 0)
(6649.1 0 0)
(6248.75 0 0)
(5863.14 0 0)
(5492.07 0 0)
(5135.33 0 0)
(4792.73 0 0)
(4464.05 0 0)
(4149.09 0 0)
(3847.64 0 0)
(3559.49 0 0)
(3284.45 0 0)
(3022.29 0 0)
(2772.83 0 0)
(2535.86 0 0)
(2311.16 0 0)
(2098.53 0 0)
(1897.77 0 0)
(1708.65 0 0)
(1530.98 0 0)
(1364.55 0 0)
(1209.16 0 0)
(1064.57 0 0)
(930.592 0 0)
(806.985 0 0)
(693.522 0 0)
(589.968 0 0)
(496.079 0 0)
(411.598 0 0)
(336.247 0 0)
(269.722 0 0)
(211.684 0 0)
(161.751 0 0)
(119.484 0 0)
(84.3766 0 0)
(55.8328 0 0)
(33.1463 0 0)
(15.4787 0 0)
(1.84551 0 0)
(-8.88044 0 0)
(-17.9283 0 0)
(-26.5264 0 0)
(-35.7014 0 0)
(-45.944 0 0)
(-56.728 0 0)
(-65.9434 0 0)
(-69.4448 0 0)
(-61.1417 0 0)
(-34.1371 0 0)
(16.4691 0 0)
(90.1585 0 0)
(175.755 0 0)
(252.751 0 0)
(296.327 0 0)
(287.138 0 0)
(220.916 0 0)
(111.508 0 0)
(-14.9765 0 0)
(-130.878 0 0)
(-216.63 0 0)
(-263.048 0 0)
(-269.899 0 0)
(-243.715 0 0)
(-190.192 0 0)
(-111.728 0 0)
(-8.02453 0 0)
(120.035 0 0)
(264.297 0 0)
(405.129 0 0)
(510.054 0 0)
(541.964 0 0)
(479.404 0 0)
(325.362 0 0)
(111.366 0 0)
(-112.732 0 0)
(-296.51 0 0)
(-405.539 0 0)
(-423.442 0 0)
(-354.458 0 0)
(-215.677 0 0)
(-29.2744 0 0)
(178.586 0 0)
(376.462 0 0)
(528.78 0 0)
(599.73 0 0)
(565.833 0 0)
(430.954 0 0)
(227.019 0 0)
(6.86296 0 0)
(-172.444 0 0)
(-267.511 0 0)
(-256.279 0 0)
(-144.666 0 0)
(39.6274 0 0)
(254.968 0 0)
(453.56 0 0)
(590.944 0 0)
(635.457 0 0)
(580.704 0 0)
(450.631 0 0)
(293.271 0 0)
(166.155 0 0)
(117.859 0 0)
(174.552 0 0)
(330.663 0 0)
(551.39 0 0)
(781.763 0 0)
(962.355 0 0)
(1052.76 0 0)
(1066.5 0 0)
(1116.31 0 0)
(1465.26 0 0)
(2575.1 0 0)
(5129.53 0 0)
(9996.9 0 0)
(18094.1 0 0)
(30133.9 0 0)
(46291.7 0 0)
(65898.3 0 0)
(87306.3 0 0)
(108050 0 0)
(125306 0 0)
(136528 0 0)
(140065 0 0)
(135524 0 0)
(123768 0 0)
(106561 0 0)
(86075.4 0 0)
(64483.2 0 0)
(43726.8 0 0)
(25414.9 0 0)
(10730.5 0 0)
(317.599 0 0)
(-5801.82 0 0)
(-8203.86 0 0)
(-7895.05 0 0)
(-6042.35 0 0)
(-3696.33 0 0)
(-1601.44 0 0)
(-136.189 0 0)
(634.514 0 0)
(846.586 0 0)
(716.625 0 0)
(449.761 0 0)
(189.521 0 0)
(6.66827 0 0)
(-86.0424 0 0)
(-108.867 0 0)
(-92.2265 0 0)
(-62.2295 0 0)
(-35.0461 0 0)
(-17.3759 0 0)
(-9.59974 0 0)
(-9.14483 0 0)
(-12.8789 0 0)
(-18.3157 0 0)
(-23.9117 0 0)
(-28.875 0 0)
(-32.8495 0 0)
(-35.6943 0 0)
(-37.4173 0 0)
(-38.1803 0 0)
(-38.274 0 0)
(-38.0695 0 0)
(-37.9491 0 0)
(-38.1104 0 0)
(-38.4515 0 0)
(-38.9379 0 0)
(-39.719 0 0)
(-40.2933 0 0)
(-40.0843 0 0)
(-40.6233 0 0)
(-42.5067 0 0)
(-41.2666 0 0)
(-38.4924 0 0)
(-45.1657 0 0)
(-47.8384 0 0)
(-23.5383 0 0)
(-25.2378 0 0)
(-78.233 0 0)
(-11.8398 0 0)
(127.876 0 0)
(-105.344 0 0)
(-251.35 0 0)
(643.542 0 0)
(612.149 0 0)
(-1630.12 0 0)
(483.254 0 0)
(6009.2 0 0)
(-2939.75 0 0)
(-10833.2 0 0)
(22613 0 0)
(24927.1 0 0)
(-66881.9 0 0)
(2380.81 0 0)
(236395 0 0)
(-102493 0 0)
(-496596 0 0)
(1.21636e+06 0 0)
(2.25269e+06 0 0)
(973359 0 0)
(199012 0 0)
(33796.4 0 0)
(5643.87 0 0)
(927.056 0 0)
(153.122 0 0)
(25.3231 0 0)
(4.1886 0 0)
(0.69283 0 0)
(0.1146 0 0)
(0.0189557 0 0)
(0.00313542 0 0)
(0.000518619 0 0)
(8.57826e-05 0 0)
(1.41894e-05 0 0)
(2.34741e-06 0 0)
(3.88172e-07 0 0)
(6.40284e-08 0 0)
(1.00044e-08 0 0)
(1.63709e-09 0 0)
(1.81899e-10 0 0)
(-7.27596e-10 0 0)
(-5.45697e-10 0 0)
(3.63798e-10 0 0)
(3.63798e-10 0 0)
(-7.27596e-10 0 0)
(-1.09139e-09 0 0)
(-5.45697e-10 0 0)
(1.42095e-23 0 0)
(-3.63798e-10 0 0)
(-1.45519e-09 0 0)
(-1.63709e-09 0 0)
(-1.81899e-10 0 0)
(5.45697e-10 0 0)
(3.63798e-10 0 0)
(9.95081e-24 0 0)
(3.63798e-10 0 0)
(3.63798e-10 0 0)
(-1.81899e-10 0 0)
(3.63798e-10 0 0)
(7.27596e-10 0 0)
(1.81899e-10 0 0)
(9.09495e-10 0 0)
(7.27596e-10 0 0)
(-5.45697e-10 0 0)
(-7.27596e-10 0 0)
(1.27438e-23 0 0)
(-1.81899e-10 0 0)
(-7.27596e-10 0 0)
(-5.45697e-10 0 0)
(5.45697e-10 0 0)
(-1.81899e-10 0 0)
(-5.45697e-10 0 0)
(1.81899e-10 0 0)
(5.45697e-10 0 0)
(5.45697e-10 0 0)
(1.81899e-10 0 0)
(1.09139e-09 0 0)
(1.09139e-09 0 0)
(1.81899e-10 0 0)
(9.09495e-10 0 0)
(1.81899e-10 0 0)
(-3.63798e-10 0 0)
(-1.81899e-10 0 0)
(-2.95289e-24 0 0)
(1.81899e-10 0 0)
(-3.63798e-10 0 0)
(-5.45697e-10 0 0)
(-1.62334e-23 0 0)
(9.09495e-10 0 0)
(-3.63798e-10 0 0)
(-9.09495e-10 0 0)
(1.81899e-10 0 0)
(3.63798e-10 0 0)
(-1.13071e-24 0 0)
(-1.81899e-10 0 0)
(-3.63798e-10 0 0)
(-1.30172e-23 0 0)
(-3.63798e-10 0 0)
(-5.40555e-24 0 0)
(-1.81899e-10 0 0)
(-1.81899e-10 0 0)
(7.27596e-10 0 0)
(3.63798e-10 0 0)
(-7.27596e-10 0 0)
(-7.27596e-10 0 0)
(-3.63798e-10 0 0)
(-5.45697e-10 0 0)
(-1.81899e-10 0 0)
(-3.63798e-10 0 0)
(1.20717e-23 0 0)
(3.63798e-10 0 0)
(5.45697e-10 0 0)
(-1.81899e-10 0 0)
(7.27596e-10 0 0)
(1.27329e-09 0 0)
(1.81899e-10 0 0)
(-1.45519e-09 0 0)
(-5.45697e-10 0 0)
(1.81899e-10 0 0)
(-3.63798e-10 0 0)
(-9.09495e-10 0 0)
(-1.27329e-09 0 0)
(-1.63709e-09 0 0)
(-5.45697e-10 0 0)
(3.63798e-10 0 0)
(3.63798e-10 0 0)
(-3.63798e-10 0 0)
(-9.09495e-10 0 0)
(-9.09495e-10 0 0)
(1.81899e-10 0 0)
(3.63798e-10 0 0)
(1.81899e-10 0 0)
(-1.81899e-10 0 0)
(-5.45697e-10 0 0)
(-5.45697e-10 0 0)
(-5.45697e-10 0 0)
(5.25015e-25 0 0)
(7.27596e-10 0 0)
(1.81899e-10 0 0)
(-3.63798e-10 0 0)
(-1.81899e-10 0 0)
(5.45697e-10 0 0)
(1.81899e-10 0 0)
(3.63798e-10 0 0)
(7.27596e-10 0 0)
(3.63798e-10 0 0)
(2.4433e-24 0 0)
(1.81899e-10 0 0)
(9.09495e-10 0 0)
(1.09139e-09 0 0)
(7.27596e-10 0 0)
(-7.23783e-25 0 0)
(-9.09495e-10 0 0)
(-1.45519e-09 0 0)
(-2.00089e-09 0 0)
(-1.45519e-09 0 0)
(-1.81899e-10 0 0)
(1.81899e-10 0 0)
(1.81899e-10 0 0)
(4.11005e-24 0 0)
(1.14513e-23 0 0)
(4.93723e-24 0 0)
(1.81899e-10 0 0)
(5.45697e-10 0 0)
(7.49632e-25 0 0)
(5.45697e-10 0 0)
(1.81899e-10 0 0)
(-5.45697e-10 0 0)
(-9.09495e-10 0 0)
(-5.45697e-10 0 0)
(-3.63798e-10 0 0)
(8.27181e-25 0 0)
(1.81899e-10 0 0)
(-7.27596e-10 0 0)
(-3.63798e-10 0 0)
(5.45697e-10 0 0)
(3.63798e-10 0 0)
(-2.37814e-24 0 0)
(-2.01625e-24 0 0)
(-9.09495e-10 0 0)
(1.31832e-24 0 0)
(5.45697e-10 0 0)
(7.27596e-10 0 0)
(7.27596e-10 0 0)
(3.63798e-10 0 0)
(-1.81899e-10 0 0)
(-9.09495e-10 0 0)
(-3.63798e-10 0 0)
(3.63798e-10 0 0)
(-1.81899e-10 0 0)
(-6.46235e-25 0 0)
(3.63798e-10 0 0)
(5.45697e-10 0 0)
(7.27596e-10 0 0)
(-3.87741e-25 0 0)
(3.63798e-10 0 0)
(-2.32645e-25 0 0)
(-4.91138e-25 0 0)
(3.63798e-10 0 0)
(-3.63798e-10 0 0)
(-1.45519e-09 0 0)
(-1.81899e-09 0 0)
(-7.27596e-10 0 0)
(1.29247e-26 0 0)
(3.63798e-10 0 0)
(1.81899e-10 0 0)
(3.63798e-10 0 0)
(-3.63798e-10 0 0)
(1.81899e-10 0 0)
(1.81899e-10 0 0)
(1.81899e-10 0 0)
(1.81899e-10 0 0)
(-5.45697e-10 0 0)
(-3.63798e-10 0 0)
(5.45697e-10 0 0)
(5.45697e-10 0 0)
(3.63798e-10 0 0)
(3.63798e-10 0 0)
(9.09495e-10 0 0)
(1.45519e-09 0 0)
(5.45697e-10 0 0)
(-3.63798e-10 0 0)
(-7.27596e-10 0 0)
(-3.63798e-10 0 0)
(-1.09139e-09 0 0)
(-7.27596e-10 0 0)
(-1.09139e-09 0 0)
(-1.81899e-09 0 0)
(-9.09495e-10 0 0)
(1.81899e-10 0 0)
(1.81899e-10 0 0)
(-5.45697e-10 0 0)
(-3.63798e-10 0 0)
(1.81899e-10 0 0)
(1.9387e-26 0 0)
(6.46235e-26 0 0)
(1.81899e-10 0 0)
(3.63798e-10 0 0)
(1.09139e-09 0 0)
(1.09139e-09 0 0)
(1.81899e-10 0 0)
(-1.81899e-10 0 0)
(-1.81899e-10 0 0)
(1.81899e-10 0 0)
(1.81899e-10 0 0)
(1.81899e-10 0 0)
(2.68834e-24 0 0)
(-1.81899e-10 0 0)
(5.45697e-10 0 0)
(1.81899e-10 0 0)
(-1.81899e-10 0 0)
(-1.94653e-25 0 0)
(1.17615e-24 0 0)
(-3.63798e-10 0 0)
(3.14888e-25 0 0)
(-7.27596e-10 0 0)
(-9.09495e-10 0 0)
(-3.63798e-10 0 0)
(-1.81899e-10 0 0)
(-5.45697e-10 0 0)
(-5.45697e-10 0 0)
(7.30245e-24 0 0)
(9.09495e-10 0 0)
(1.09139e-09 0 0)
(1.27329e-09 0 0)
(1.09139e-09 0 0)
(3.63798e-10 0 0)
(-5.21027e-26 0 0)
(-3.63798e-10 0 0)
(-9.09495e-10 0 0)
(1.81899e-10 0 0)
(-1.37131e-23 0 0)
(-3.63798e-10 0 0)
(5.45697e-10 0 0)
(5.45697e-10 0 0)
(-2.01238e-23 0 0)
(-4.65289e-24 0 0)
(7.27596e-10 0 0)
(1.45519e-09 0 0)
(1.09139e-09 0 0)
(-3.63798e-10 0 0)
(-7.27596e-10 0 0)
(-7.27596e-10 0 0)
(-9.09495e-10 0 0)
(-9.09495e-10 0 0)
(-7.27596e-10 0 0)
(-5.45697e-10 0 0)
(3.63798e-10 0 0)
(1.81899e-10 0 0)
(-3.63798e-10 0 0)
(1.81899e-10 0 0)
(5.45697e-10 0 0)
(-2.66845e-24 0 0)
(-3.78694e-24 0 0)
(5.45697e-10 0 0)
(9.09495e-10 0 0)
(1.09139e-09 0 0)
(-3.63798e-10 0 0)
(-1.27329e-09 0 0)
(-5.45697e-10 0 0)
(-3.63798e-10 0 0)
(-7.27596e-10 0 0)
(1.81899e-10 0 0)
(-1.81899e-10 0 0)
(-3.63798e-10 0 0)
(-1.81899e-10 0 0)
(-5.45697e-10 0 0)
(-7.49632e-25 0 0)
(3.63798e-10 0 0)
(-1.81899e-10 0 0)
(-5.45697e-10 0 0)
(3.63798e-10 0 0)
(5.45697e-10 0 0)
(-5.45697e-10 0 0)
(-1.09139e-09 0 0)
(-5.45697e-10 0 0)
(1.81899e-10 0 0)
(-3.63798e-10 0 0)
(-5.45697e-10 0 0)
(-5.45697e-10 0 0)
(3.63798e-10 0 0)
(3.63798e-10 0 0)
(7.27596e-10 0 0)
(1.27329e-09 0 0)
(5.45697e-10 0 0)
(-1.47342e-24 0 0)
(3.63798e-10 0 0)
(-5.45697e-10 0 0)
(-5.45697e-10 0 0)
(-5.45697e-10 0 0)
(-1.81899e-10 0 0)
(-1.81899e-10 0 0)
(-3.63798e-10 0 0)
(-3.63798e-10 0 0)
(-5.45697e-10 0 0)
(-3.63798e-10 0 0)
(7.27596e-10 0 0)
(5.45697e-10 0 0)
(-5.45697e-10 0 0)
(-7.27596e-10 0 0)
(4.91684e-24 0 0)
(-7.27596e-10 0 0)
(-7.27596e-10 0 0)
(-9.09495e-10 0 0)
(-3.63798e-10 0 0)
(-2.00333e-24 0 0)
(-3.63798e-10 0 0)
(6.31644e-25 0 0)
(5.45697e-10 0 0)
(-2.1455e-24 0 0)
(-1.81899e-10 0 0)
(-5.45697e-10 0 0)
(1.81899e-10 0 0)
(5.45697e-10 0 0)
(-8.01331e-25 0 0)
)
;

boundaryField
{
    sides
    {
        type            calculated;
        value           nonuniform List<vector> 2((-8.01331e-25 0 0) (-5.82077e-09 0 0));
    }
    empty
    {
        type            empty;
    }
}


// ************************************************************************* //
