/*--------------------------------*- C++ -*----------------------------------*\
  =========                 |
  \\      /  F ield         | OpenFOAM: The Open Source CFD Toolbox
   \\    /   O peration     | Website:  https://openfoam.org
    \\  /    A nd           | Version:  13
     \\/     M anipulation  |
\*---------------------------------------------------------------------------*/
FoamFile
{
    format      ascii;
    class       volScalarField;
    location    "0.003";
    object      mag(U);
}
// * * * * * * * * * * * * * * * * * * * * * * * * * * * * * * * * * * * * * //

dimensions      [0 1 -1 0 0 0 0];

internalField   nonuniform List<scalar> 
1000
(
1.73589e-12
1.43442e-12
1.54625e-12
1.34689e-12
1.58029e-12
1.54139e-12
1.76506e-12
1.63864e-12
1.80882e-12
1.43928e-12
1.77965e-12
1.449e-12
1.41983e-12
1.25937e-12
1.21075e-12
9.67624e-13
1.1524e-12
1.09891e-12
1.05515e-12
1.00652e-12
1.16212e-12
1.05515e-12
1.01625e-12
1.04542e-12
1.18643e-12
1.00166e-12
9.14137e-13
9.87074e-13
9.38449e-13
1.08918e-12
1.01139e-12
1.01625e-12
1.02111e-12
1.11836e-12
9.19e-13
1.05515e-12
1.00166e-12
1.08432e-12
9.19e-13
1.07946e-12
1.07946e-12
1.14267e-12
1.11836e-12
1.18157e-12
1.24478e-12
1.24478e-12
1.44414e-12
1.12808e-12
1.32258e-12
1.15726e-12
1.07946e-12
1.03084e-12
1.13295e-12
1.09405e-12
1.26423e-12
1.53653e-12
1.52194e-12
1.32744e-12
1.31286e-12
8.21751e-13
5.93217e-13
2.43122e-13
7.29365e-14
1.31286e-13
2.13947e-13
3.69545e-13
4.13307e-13
3.16058e-13
2.04222e-13
2.82021e-13
3.30645e-13
5.34868e-13
4.52206e-13
4.23032e-13
2.72296e-13
4.52206e-13
4.57069e-13
4.66793e-13
5.2028e-13
4.66793e-13
5.2028e-13
5.5918e-13
4.86243e-13
1.89635e-13
2.72296e-13
4.37619e-14
9.72486e-15
4.57069e-13
5.34868e-13
8.36338e-13
5.93217e-13
7.05053e-13
5.78629e-13
7.0019e-13
4.18169e-13
2.96608e-13
2.77159e-13
1.11836e-13
3.06333e-13
2.57709e-13
1.11836e-13
3.84132e-13
5.34868e-14
4.86243e-15
3.84132e-13
4.66793e-13
4.71656e-13
2.43122e-13
1.65323e-13
8.62652e-27
8.26613e-14
2.67434e-13
4.08444e-13
4.95968e-13
5.0083e-13
5.44592e-13
6.07804e-13
3.54958e-13
4.47344e-13
3.69545e-13
4.32756e-13
3.45233e-13
2.91746e-14
8.26613e-14
7.77989e-14
2.91746e-14
1.16698e-13
4.86243e-15
2.09085e-13
4.52206e-13
6.17529e-13
6.71016e-13
6.90465e-13
7.34227e-13
7.58539e-13
6.32116e-13
5.73767e-13
7.58539e-13
7.43952e-13
6.12666e-13
3.88995e-13
6.75878e-13
7.24502e-13
5.64042e-13
4.32756e-13
2.23672e-13
1.45873e-13
9.72486e-14
1.55598e-13
4.86243e-15
4.86243e-15
9.72486e-14
1.21561e-13
1.7991e-13
1.75048e-13
4.86243e-14
9.23862e-14
1.94497e-14
9.72486e-15
1.94497e-14
4.86243e-14
6.8074e-14
2.43122e-14
4.37619e-14
7.29365e-14
1.55598e-13
3.01471e-13
2.91746e-14
1.94497e-13
1.94497e-14
3.06333e-13
5.44592e-13
6.36979e-13
5.68905e-13
3.4037e-13
3.25783e-13
5.93217e-13
6.71016e-13
8.41201e-13
5.30005e-13
3.98719e-13
7.29365e-14
3.30645e-13
3.25783e-13
3.54958e-13
2.18809e-13
4.86243e-15
2.86883e-13
3.5982e-13
7.53677e-13
7.87714e-13
7.68264e-13
2.72296e-13
4.18169e-13
2.43122e-14
8.75238e-14
4.86243e-15
3.50095e-13
2.04222e-13
7.77989e-14
2.67434e-13
1.70185e-13
2.23672e-13
2.91746e-14
2.77159e-13
2.43122e-13
6.17529e-13
5.93217e-13
5.15418e-13
3.64682e-13
2.52846e-13
1.89635e-13
9.72486e-15
7.77989e-14
4.13307e-13
4.57069e-13
1.89635e-13
2.91746e-14
4.71656e-13
2.33397e-13
3.74407e-13
2.86883e-13
3.88995e-13
3.88995e-13
1.02111e-13
1.45873e-14
2.72296e-13
4.18169e-13
6.46703e-13
6.61291e-13
5.98079e-13
5.68905e-13
6.22391e-13
7.58539e-13
8.6065e-13
6.56428e-13
6.71016e-13
7.29365e-13
7.48815e-13
8.21751e-13
5.73767e-13
6.41841e-13
6.95328e-13
6.90465e-13
7.53677e-13
6.41841e-13
8.50926e-13
5.93217e-13
4.08444e-13
2.72296e-13
3.93857e-13
4.91106e-13
4.76518e-13
4.57069e-13
2.23672e-13
2.96608e-13
1.16698e-13
2.18809e-13
5.44592e-13
3.64682e-13
5.34868e-13
2.86883e-13
2.09085e-13
8.26613e-14
1.45873e-14
2.86883e-13
2.33397e-13
4.27894e-13
2.57709e-13
1.36148e-13
6.32116e-14
2.43122e-14
9.23862e-14
5.15418e-13
4.47344e-13
5.78629e-13
6.85603e-13
8.50926e-13
7.3909e-13
9.91936e-13
7.34227e-13
4.91106e-13
4.61931e-13
3.88995e-14
1.21561e-13
2.18809e-13
6.8074e-14
2.09085e-13
2.09085e-13
2.04222e-13
4.76518e-13
6.02942e-13
6.27254e-13
7.0019e-13
5.05693e-13
4.95968e-13
3.84132e-13
6.61291e-13
6.75878e-13
9.38449e-13
5.83492e-13
9.04412e-13
7.29365e-13
9.28725e-13
8.36338e-13
8.07164e-13
6.95328e-13
9.77349e-13
4.95968e-13
8.94687e-13
4.08444e-13
7.77989e-13
5.25143e-13
7.1964e-13
2.67434e-13
1.70185e-13
8.75238e-14
2.91746e-14
4.08444e-13
7.05053e-13
7.53677e-13
7.0019e-13
5.68905e-13
7.77989e-13
9.67624e-13
7.58539e-13
7.92576e-13
7.43952e-13
9.33587e-13
9.62762e-13
8.02301e-13
6.85603e-13
3.30645e-13
6.12666e-13
7.97439e-13
7.77989e-13
8.84963e-13
1.27396e-12
2.18323e-12
3.95316e-12
8.21751e-12
1.86961e-11
4.4112e-11
1.04688e-10
2.47911e-10
5.81338e-10
1.35198e-09
3.11059e-09
7.08722e-09
1.59801e-08
3.5657e-08
7.87136e-08
1.71876e-07
3.71146e-07
7.92401e-07
1.6723e-06
3.48781e-06
7.18698e-06
1.46279e-05
2.93994e-05
5.83296e-05
0.000114208
0.000220607
0.000420246
0.000789205
0.00146051
0.00266234
0.00477826
0.00843945
0.0146612
0.0250379
0.0420087
0.0692028
0.111858
0.177287
0.275329
0.4187
0.623095
0.906909
1.29044
1.79456
2.43885
3.2396
4.20788
5.3481
6.65753
8.1267
9.74111
11.4839
13.3378
15.2871
17.3177
19.4175
21.5765
23.7864
26.0403
28.3327
30.6591
33.0156
35.3992
37.8074
40.2379
42.689
45.1591
47.6468
50.1509
52.6704
55.2044
57.7519
60.3121
62.8844
65.4681
68.0624
70.6667
73.2805
75.9033
78.5344
81.1734
83.8198
86.4731
89.133
91.799
94.4707
97.1477
99.8298
102.517
105.208
107.903
110.602
113.305
116.011
118.72
121.432
124.147
126.864
129.584
132.306
135.03
137.756
140.484
143.213
145.944
148.677
151.41
154.145
156.881
159.618
162.356
165.095
167.834
170.574
173.314
176.055
178.797
181.538
184.28
187.021
189.763
192.504
195.245
197.986
200.726
203.466
206.205
208.943
211.68
214.415
217.15
219.883
222.614
225.343
228.07
230.794
233.516
236.235
238.95
241.662
244.369
247.072
249.769
252.46
255.145
257.822
260.491
263.15
265.798
268.433
271.054
273.659
276.245
278.809
281.348
283.857
286.331
288.764
291.148
293.475
295.732
297.907
299.981
301.936
303.745
305.378
306.798
307.96
308.814
309.301
309.356
308.913
307.909
306.301
304.072
301.259
297.964
294.369
290.735
287.38
284.64
282.811
282.083
282.502
283.962
286.232
289.004
291.945
294.737
297.099
298.813
299.73
299.788
299.013
297.526
295.537
293.322
291.195
289.463
288.367
288.038
288.468
289.523
290.976
292.552
293.983
295.045
295.589
295.566
295.029
294.117
293.033
291.999
291.218
290.823
290.858
291.27
291.928
292.662
293.301
293.711
293.825
293.649
293.26
292.778
292.335
292.042
291.956
292.074
292.336
292.649
292.915
293.063
293.066
292.942
292.751
292.565
292.447
292.429
292.508
292.648
292.797
292.913
292.977
292.997
293.003
293.023
293.063
293.095
293.078
292.984
292.82
292.624
292.438
292.287
292.181
292.121
292.115
292.167
292.268
292.395
292.52
292.621
292.687
292.72
292.725
292.714
292.696
292.678
292.665
292.658
292.656
292.657
292.66
292.662
292.664
292.665
292.666
292.667
292.667
292.667
292.668
292.668
292.669
292.669
292.67
292.67
292.671
292.672
292.673
292.673
292.674
292.675
292.676
292.677
292.678
292.679
292.68
292.681
292.682
292.683
292.685
292.686
292.687
292.688
292.689
292.689
292.69
292.691
292.687
292.687
292.693
292.678
292.656
292.683
292.674
292.519
292.526
292.774
292.287
291.485
292.773
293.03
287.091
287.306
296.613
264.172
154.773
46.717
8.89653
1.52384
0.251445
0.0415154
0.00686512
0.00113552
0.000187824
3.10677e-05
5.13884e-06
8.50002e-07
1.40595e-07
2.32543e-08
3.84533e-09
6.35248e-10
1.0409e-10
1.62989e-11
1.42469e-12
1.22533e-12
2.09571e-12
1.96443e-12
1.8769e-12
1.21561e-12
1.40524e-12
1.32745e-12
1.69213e-12
1.50249e-12
1.6435e-12
1.45873e-12
1.78938e-12
1.88176e-12
2.227e-12
2.37773e-12
2.57709e-12
2.30966e-12
2.29021e-12
1.91094e-12
1.7991e-12
1.47818e-12
1.27396e-12
1.27396e-12
1.07946e-12
1.01139e-12
1.23992e-12
1.29827e-12
1.63378e-12
1.44414e-12
1.7213e-12
1.65809e-12
1.68727e-12
2.08599e-12
2.17351e-12
2.35342e-12
2.20755e-12
2.6014e-12
2.19296e-12
2.1881e-12
1.52194e-12
1.54626e-12
1.53653e-12
1.51708e-12
1.65323e-12
1.7602e-12
1.50249e-12
1.49277e-12
1.40524e-12
1.17185e-12
1.03084e-12
1.06974e-12
1.01625e-12
1.21561e-12
9.04414e-13
1.03084e-12
1.40524e-12
1.28368e-12
1.48304e-12
1.1913e-12
1.70672e-12
1.32745e-12
1.74075e-12
1.59488e-12
1.7991e-12
1.61433e-12
1.97415e-12
1.78938e-12
1.60947e-12
2.04222e-12
1.53653e-12
2.05195e-12
1.64837e-12
1.67268e-12
1.55598e-12
1.64837e-12
1.2302e-12
1.1135e-12
1.12322e-12
1.32745e-12
1.24478e-12
1.33717e-12
1.21075e-12
7.68265e-13
5.39731e-13
1.41011e-13
5.83493e-14
5.00831e-13
6.71017e-13
7.29366e-13
7.19641e-13
7.87715e-13
9.19001e-13
8.12027e-13
6.32117e-13
4.95969e-13
4.13307e-13
3.20921e-13
1.45873e-13
1.06974e-13
1.70185e-13
2.91746e-14
8.26615e-14
2.62572e-13
1.7991e-13
4.91106e-13
5.39731e-13
5.39731e-13
5.00831e-13
2.96609e-13
3.16059e-13
4.95969e-13
8.36339e-13
5.93218e-13
6.51567e-13
3.93858e-13
3.88995e-13
3.88995e-13
5.64043e-13
7.05054e-13
9.87075e-13
1.13295e-12
9.579e-13
9.33588e-13
5.88355e-13
8.60652e-13
4.61932e-13
3.11196e-13
9.72488e-14
3.88995e-14
3.35508e-13
2.04222e-13
5.34868e-14
1.9936e-13
2.28535e-13
3.84133e-13
3.74408e-13
3.30646e-13
1.11836e-13
9.72488e-14
2.91746e-13
3.5982e-13
2.28535e-13
1.36148e-13
1.89635e-13
4.81381e-13
8.12027e-13
7.9744e-13
3.74408e-13
3.88995e-13
2.91746e-14
1.70185e-13
1.65323e-13
1.16699e-13
7.29366e-14
9.23863e-14
1.31286e-13
1.50736e-13
5.83493e-14
3.88995e-14
7.7799e-14
1.06974e-13
5.54318e-13
5.25143e-13
5.39731e-13
9.72488e-14
3.40371e-14
3.45233e-13
1.55598e-13
1.45873e-14
9.72488e-14
9.72488e-15
4.86244e-15
8.26615e-14
1.55598e-13
4.86244e-15
7.7799e-14
1.55598e-13
9.23863e-14
3.40371e-13
2.57709e-13
6.85604e-13
5.9808e-13
6.02942e-13
8.94689e-13
7.19641e-13
7.00191e-13
8.07165e-13
6.1753e-13
1.0746e-12
8.1689e-13
1.26423e-12
8.70377e-13
7.29366e-13
2.23672e-13
2.82021e-13
1.11836e-13
9.23863e-14
1.6046e-13
7.29366e-14
3.40371e-14
3.5982e-13
5.68905e-13
1.0746e-12
1.00652e-12
1.00166e-12
9.09276e-13
8.36339e-13
5.83493e-13
6.90466e-13
3.20921e-13
7.24503e-13
6.46704e-13
5.88355e-13
4.42482e-13
3.7927e-13
3.40371e-13
2.04222e-13
2.91746e-13
5.9808e-13
7.00191e-13
7.39091e-13
9.23863e-13
1.22047e-12
1.18157e-12
9.62763e-13
9.62763e-13
8.26615e-13
1.0357e-12
1.1913e-12
1.56084e-12
1.39066e-12
1.65323e-12
1.48791e-12
1.54626e-12
1.76507e-12
1.66782e-12
1.79424e-12
1.61919e-12
1.96443e-12
1.838e-12
1.56571e-12
1.69699e-12
1.7213e-12
1.72617e-12
1.29341e-12
1.10864e-12
6.95329e-13
6.12667e-13
6.56429e-13
5.05694e-13
6.46704e-13
6.07805e-13
6.85604e-13
5.25143e-13
8.84964e-13
7.19641e-13
9.14139e-13
5.54318e-13
8.50927e-13
5.64043e-13
5.88355e-13
4.27895e-13
1.7991e-13
4.23032e-13
2.62572e-13
3.5982e-13
1.45873e-13
8.75239e-14
1.31286e-13
1.41011e-13
2.13947e-13
1.50736e-13
5.05694e-13
5.64043e-13
6.02942e-13
7.48816e-13
5.10556e-13
5.10556e-13
2.57709e-13
2.57709e-13
2.43122e-14
1.41011e-13
1.84773e-13
9.23863e-14
1.21561e-13
8.26615e-14
2.28535e-13
1.21561e-13
4.57069e-13
1.94498e-13
3.54958e-13
1.31286e-13
5.15419e-13
2.28535e-13
1.12322e-12
9.53038e-13
1.08432e-12
6.75879e-13
6.95329e-13
5.00831e-13
9.04414e-13
6.27255e-13
7.34228e-13
5.30006e-13
6.41842e-13
1.50736e-13
3.40371e-14
2.91746e-13
2.96609e-13
1.36148e-13
1.36148e-13
2.52847e-13
4.57069e-13
3.16059e-13
3.30646e-13
9.23863e-14
3.20921e-13
)
;

boundaryField
{
    sides
    {
        type            calculated;
        value           nonuniform List<scalar> 2(3.20921e-13 1.73589e-12);
    }
    empty
    {
        type            empty;
    }
}


// ************************************************************************* //
