/*--------------------------------*- C++ -*----------------------------------*\
  =========                 |
  \\      /  F ield         | OpenFOAM: The Open Source CFD Toolbox
   \\    /   O peration     | Website:  https://openfoam.org
    \\  /    A nd           | Version:  13
     \\/     M anipulation  |
\*---------------------------------------------------------------------------*/
FoamFile
{
    format      ascii;
    class       volScalarField;
    location    "0.003";
    object      p_0;
}
// * * * * * * * * * * * * * * * * * * * * * * * * * * * * * * * * * * * * * //

dimensions      [1 -1 -2 0 0 0 0];

internalField   nonuniform List<scalar> 
1000
(
100000
100000
100000
100000
100000
100000
100000
100000
100000
100000
100000
100000
100000
100000
100000
100000
100000
100000
100000
100000
100000
100000
100000
100000
100000
100000
100000
100000
100000
100000
100000
100000
100000
100000
100000
100000
100000
100000
100000
100000
100000
100000
100000
100000
100000
100000
100000
100000
100000
100000
100000
100000
100000
100000
100000
100000
100000
100000
100000
100000
100000
100000
100000
100000
100000
100000
100000
100000
100000
100000
100000
100000
100000
100000
100000
100000
100000
100000
100000
100000
100000
100000
100000
100000
100000
100000
100000
100000
100000
100000
100000
100000
100000
100000
100000
100000
100000
100000
100000
100000
100000
100000
100000
100000
100000
100000
100000
100000
100000
100000
100000
100000
100000
100000
100000
100000
100000
100000
100000
100000
100000
100000
100000
100000
100000
100000
100000
100000
100000
100000
100000
100000
100000
100000
100000
100000
100000
100000
100000
100000
100000
100000
100000
100000
100000
100000
100000
100000
100000
100000
100000
100000
100000
100000
100000
100000
100000
100000
100000
100000
100000
100000
100000
100000
100000
100000
100000
100000
100000
100000
100000
100000
100000
100000
100000
100000
100000
100000
100000
100000
100000
100000
100000
100000
100000
100000
100000
100000
100000
100000
100000
100000
100000
100000
100000
100000
100000
100000
100000
100000
100000
100000
100000
100000
100000
100000
100000
100000
100000
100000
100000
100000
100000
100000
100000
100000
100000
100000
100000
100000
100000
100000
100000
100000
100000
100000
100000
100000
100000
100000
100000
100000
100000
100000
100000
100000
100000
100000
100000
100000
100000
100000
100000
100000
100000
100000
100000
100000
100000
100000
100000
100000
100000
100000
100000
100000
100000
100000
100000
100000
100000
100000
100000
100000
100000
100000
100000
100000
100000
100000
100000
100000
100000
100000
100000
100000
100000
100000
100000
100000
100000
100000
100000
100000
100000
100000
100000
100000
100000
100000
100000
100000
100000
100000
100000
100000
100000
100000
100000
100000
100000
100000
100000
100000
100000
100000
100000
100000
100000
100000
100000
100000
100000
100000
100000
100000
100000
100000
100000
100000
100000
100000
100000
100000
100000
100000
100000
100000
100000
100000
100000
100000
100000
100000
100000
100000
100000
100000
100000
100000
100000
100000
100000
100000
100000
100000
100000
100000
100000
100000
100000
100000
100000
100000
100000
100000
100000
100000
100000
100000
100000
100000
99999.9
99999.9
99999.8
99999.6
99999.2
99998.6
99997.5
99995.7
99992.6
99987.4
99979.1
99965.9
99945.4
99914.4
99868.5
99802.2
99709
99581.6
99412.2
99193.2
98918.2
98582.4
98183.8
97722.8
97203
96630
96010.8
95352.5
94661.9
93945.1
93207.2
92452.5
91684.6
90906.3
90120
89327.7
88531
87731.1
86929.2
86126.1
85322.6
84519.3
83716.8
82915.5
82116
81318.4
80523.3
79730.9
78941.4
78155.2
77372.4
76593.3
75818
75046.9
74279.9
73517.3
72759.3
72006
71257.4
70513.8
69775.2
69041.8
68313.5
67590.5
66872.9
66160.7
65453.9
64752.7
64057
63367
62682.5
62003.6
61330.5
60663
60001.1
59345
58694.5
58049.7
57410.6
56777.2
56149.4
55527.2
54910.7
54299.9
53694.6
53094.9
52500.8
51912.3
51329.2
50751.7
50179.7
49613.1
49052
48496.3
47945.9
47401
46861.4
46327.1
45798.1
45274.4
44756
44242.8
43734.8
43231.9
42734.3
42241.9
41754.5
41272.3
40795.3
40323.3
39856.5
39394.7
38938.1
38486.5
38040.1
37598.8
37162.7
36731.8
36306.1
35885.8
35470.7
35061.1
34657.1
34258.7
33866.1
33479.5
33099.2
32725.3
32358.2
31998.3
31646.2
31302.3
30967.4
30642.4
30328.4
30026.6
29738.7
29466.8
29213.2
28980.9
28773.7
28595.7
28452.4
28349.8
28294.9
28295.2
28358.6
28492.4
28701.7
28987.9
29346.2
29763.5
30216.7
30673
31092.6
31433.1
31657.8
31743.3
31685.2
31498.5
31213.9
30870.7
30510.7
30172.4
29889.1
29686.3
29580.2
29577.1
29672.6
29851.4
30088.2
30349.7
30599
30800.3
30925.7
30960.9
30907.8
30783.3
30614.9
30434.5
30272.7
30154.3
30095.2
30100.1
30162.1
30264.8
30385.3
30498.8
30583.6
30625.2
30619.7
30573.8
30502.1
30423.5
30356
30313.5
30302.7
30322.1
30363.3
30413.3
30458.6
30488.1
30496.1
30483.7
30457.2
30426.1
30400.2
30386.1
30386.2
30398.4
30416.6
30434.1
30445
30446.8
30440.5
30429.9
30420.1
30414.8
30415.5
30420.5
30426.3
30429.7
30429.3
30426.5
30423.7
30422.9
30424
30425.7
30426.7
30426.7
30426.4
30426.4
30426.9
30427.3
30427.5
30427.4
30427.1
30426.9
30426.8
30426.8
30426.8
30426.8
30426.9
30426.9
30427
30427.1
30427.2
30427.2
30427.3
30427.3
30427.4
30427.4
30427.5
30427.5
30427.6
30427.6
30427.7
30427.7
30427.8
30427.9
30427.9
30428
30428.1
30428.2
30428.3
30428.4
30428.5
30428.5
30428.6
30428.7
30428.8
30429
30429.1
30429.2
30429.3
30429.4
30429.6
30429.7
30429.8
30429.9
30430
30430.2
30430.5
30430.2
30429.8
30430.9
30430.8
30426.7
30428.2
30436.3
30422.6
30403.2
30446
30454.1
30298.9
30344.4
30690.6
30202.4
29353.1
31129.6
31547.3
22575.6
13657.1
10696.3
10116.4
10019.1
10003.1
10000.5
10000.1
10000
10000
10000
10000
10000
10000
10000
10000
10000
10000
10000
10000
10000
10000
10000
10000
10000
10000
10000
10000
10000
10000
10000
10000
10000
10000
10000
10000
10000
10000
10000
10000
10000
10000
10000
10000
10000
10000
10000
10000
10000
10000
10000
10000
10000
10000
10000
10000
10000
10000
10000
10000
10000
10000
10000
10000
10000
10000
10000
10000
10000
10000
10000
10000
10000
10000
10000
10000
10000
10000
10000
10000
10000
10000
10000
10000
10000
10000
10000
10000
10000
10000
10000
10000
10000
10000
10000
10000
10000
10000
10000
10000
10000
10000
10000
10000
10000
10000
10000
10000
10000
10000
10000
10000
10000
10000
10000
10000
10000
10000
10000
10000
10000
10000
10000
10000
10000
10000
10000
10000
10000
10000
10000
10000
10000
10000
10000
10000
10000
10000
10000
10000
10000
10000
10000
10000
10000
10000
10000
10000
10000
10000
10000
10000
10000
10000
10000
10000
10000
10000
10000
10000
10000
10000
10000
10000
10000
10000
10000
10000
10000
10000
10000
10000
10000
10000
10000
10000
10000
10000
10000
10000
10000
10000
10000
10000
10000
10000
10000
10000
10000
10000
10000
10000
10000
10000
10000
10000
10000
10000
10000
10000
10000
10000
10000
10000
10000
10000
10000
10000
10000
10000
10000
10000
10000
10000
10000
10000
10000
10000
10000
10000
10000
10000
10000
10000
10000
10000
10000
10000
10000
10000
10000
10000
10000
10000
10000
10000
10000
10000
10000
10000
10000
10000
10000
10000
10000
10000
10000
10000
10000
10000
10000
10000
10000
10000
10000
10000
10000
10000
10000
10000
10000
10000
10000
10000
10000
10000
10000
10000
10000
10000
10000
10000
10000
10000
10000
10000
10000
10000
10000
10000
10000
10000
10000
10000
10000
10000
10000
10000
10000
10000
10000
10000
10000
10000
10000
10000
10000
10000
10000
10000
10000
10000
10000
10000
10000
10000
10000
10000
10000
10000
10000
10000
10000
10000
10000
10000
10000
10000
10000
10000
10000
10000
10000
10000
10000
10000
10000
10000
10000
10000
10000
10000
10000
10000
10000
10000
10000
)
;

boundaryField
{
    sides
    {
        type            calculated;
        value           nonuniform List<scalar> 2(10000 100000);
    }
    empty
    {
        type            empty;
    }
}


// ************************************************************************* //
