/*--------------------------------*- C++ -*----------------------------------*\
  =========                 |
  \\      /  F ield         | OpenFOAM: The Open Source CFD Toolbox
   \\    /   O peration     | Website:  https://openfoam.org
    \\  /    A nd           | Version:  13
     \\/     M anipulation  |
\*---------------------------------------------------------------------------*/
FoamFile
{
    format      ascii;
    class       volVectorField;
    location    "0.003";
    object      U;
}
// * * * * * * * * * * * * * * * * * * * * * * * * * * * * * * * * * * * * * //

dimensions      [0 1 -1 0 0 0 0];

internalField   nonuniform List<vector> 
1000
(
(-1.73589e-12 0 0)
(-1.43442e-12 0 0)
(-1.54625e-12 0 0)
(-1.34689e-12 0 0)
(-1.58029e-12 0 0)
(-1.54139e-12 0 0)
(-1.76506e-12 0 0)
(-1.63864e-12 0 0)
(-1.80882e-12 0 0)
(-1.43928e-12 0 0)
(-1.77965e-12 0 0)
(-1.449e-12 0 0)
(-1.41983e-12 0 0)
(-1.25937e-12 0 0)
(-1.21075e-12 0 0)
(-9.67624e-13 0 0)
(-1.1524e-12 0 0)
(-1.09891e-12 0 0)
(-1.05515e-12 0 0)
(-1.00652e-12 0 0)
(-1.16212e-12 0 0)
(-1.05515e-12 0 0)
(-1.01625e-12 0 0)
(-1.04542e-12 0 0)
(-1.18643e-12 0 0)
(-1.00166e-12 0 0)
(-9.14137e-13 0 0)
(-9.87074e-13 0 0)
(-9.38449e-13 0 0)
(-1.08918e-12 0 0)
(-1.01139e-12 0 0)
(-1.01625e-12 0 0)
(-1.02111e-12 0 0)
(-1.11836e-12 0 0)
(-9.19e-13 0 0)
(-1.05515e-12 0 0)
(-1.00166e-12 0 0)
(-1.08432e-12 0 0)
(-9.19e-13 0 0)
(-1.07946e-12 0 0)
(-1.07946e-12 0 0)
(-1.14267e-12 0 0)
(-1.11836e-12 0 0)
(-1.18157e-12 0 0)
(-1.24478e-12 0 0)
(-1.24478e-12 0 0)
(-1.44414e-12 0 0)
(-1.12808e-12 0 0)
(-1.32258e-12 0 0)
(-1.15726e-12 0 0)
(-1.07946e-12 0 0)
(-1.03084e-12 0 0)
(-1.13295e-12 0 0)
(-1.09405e-12 0 0)
(-1.26423e-12 0 0)
(-1.53653e-12 0 0)
(-1.52194e-12 0 0)
(-1.32744e-12 0 0)
(-1.31286e-12 0 0)
(-8.21751e-13 0 0)
(-5.93217e-13 0 0)
(-2.43122e-13 0 0)
(-7.29365e-14 0 0)
(-1.31286e-13 0 0)
(-2.13947e-13 0 0)
(-3.69545e-13 0 0)
(-4.13307e-13 0 0)
(-3.16058e-13 0 0)
(-2.04222e-13 0 0)
(-2.82021e-13 0 0)
(-3.30645e-13 0 0)
(-5.34868e-13 0 0)
(-4.52206e-13 0 0)
(-4.23032e-13 0 0)
(-2.72296e-13 0 0)
(-4.52206e-13 0 0)
(-4.57069e-13 0 0)
(-4.66793e-13 0 0)
(-5.2028e-13 0 0)
(-4.66793e-13 0 0)
(-5.2028e-13 0 0)
(-5.5918e-13 0 0)
(-4.86243e-13 0 0)
(-1.89635e-13 0 0)
(-2.72296e-13 0 0)
(-4.37619e-14 0 0)
(9.72486e-15 0 0)
(4.57069e-13 0 0)
(5.34868e-13 0 0)
(8.36338e-13 0 0)
(5.93217e-13 0 0)
(7.05053e-13 0 0)
(5.78629e-13 0 0)
(7.0019e-13 0 0)
(4.18169e-13 0 0)
(2.96608e-13 0 0)
(2.77159e-13 0 0)
(1.11836e-13 0 0)
(3.06333e-13 0 0)
(2.57709e-13 0 0)
(1.11836e-13 0 0)
(3.84132e-13 0 0)
(5.34868e-14 0 0)
(-4.86243e-15 0 0)
(-3.84132e-13 0 0)
(-4.66793e-13 0 0)
(-4.71656e-13 0 0)
(-2.43122e-13 0 0)
(-1.65323e-13 0 0)
(8.62652e-27 0 0)
(-8.26613e-14 0 0)
(-2.67434e-13 0 0)
(-4.08444e-13 0 0)
(-4.95968e-13 0 0)
(-5.0083e-13 0 0)
(-5.44592e-13 0 0)
(-6.07804e-13 0 0)
(-3.54958e-13 0 0)
(-4.47344e-13 0 0)
(-3.69545e-13 0 0)
(-4.32756e-13 0 0)
(-3.45233e-13 0 0)
(2.91746e-14 0 0)
(8.26613e-14 0 0)
(7.77989e-14 0 0)
(-2.91746e-14 0 0)
(-1.16698e-13 0 0)
(4.86243e-15 0 0)
(2.09085e-13 0 0)
(4.52206e-13 0 0)
(6.17529e-13 0 0)
(6.71016e-13 0 0)
(6.90465e-13 0 0)
(7.34227e-13 0 0)
(7.58539e-13 0 0)
(6.32116e-13 0 0)
(5.73767e-13 0 0)
(7.58539e-13 0 0)
(7.43952e-13 0 0)
(6.12666e-13 0 0)
(3.88995e-13 0 0)
(6.75878e-13 0 0)
(7.24502e-13 0 0)
(5.64042e-13 0 0)
(4.32756e-13 0 0)
(2.23672e-13 0 0)
(1.45873e-13 0 0)
(9.72486e-14 0 0)
(1.55598e-13 0 0)
(-4.86243e-15 0 0)
(4.86243e-15 0 0)
(-9.72486e-14 0 0)
(1.21561e-13 0 0)
(1.7991e-13 0 0)
(1.75048e-13 0 0)
(4.86243e-14 0 0)
(9.23862e-14 0 0)
(-1.94497e-14 0 0)
(-9.72486e-15 0 0)
(-1.94497e-14 0 0)
(4.86243e-14 0 0)
(6.8074e-14 0 0)
(2.43122e-14 0 0)
(4.37619e-14 0 0)
(-7.29365e-14 0 0)
(-1.55598e-13 0 0)
(-3.01471e-13 0 0)
(2.91746e-14 0 0)
(-1.94497e-13 0 0)
(-1.94497e-14 0 0)
(-3.06333e-13 0 0)
(-5.44592e-13 0 0)
(-6.36979e-13 0 0)
(-5.68905e-13 0 0)
(-3.4037e-13 0 0)
(-3.25783e-13 0 0)
(-5.93217e-13 0 0)
(-6.71016e-13 0 0)
(-8.41201e-13 0 0)
(-5.30005e-13 0 0)
(-3.98719e-13 0 0)
(-7.29365e-14 0 0)
(-3.30645e-13 0 0)
(-3.25783e-13 0 0)
(-3.54958e-13 0 0)
(-2.18809e-13 0 0)
(-4.86243e-15 0 0)
(-2.86883e-13 0 0)
(-3.5982e-13 0 0)
(-7.53677e-13 0 0)
(-7.87714e-13 0 0)
(-7.68264e-13 0 0)
(-2.72296e-13 0 0)
(-4.18169e-13 0 0)
(2.43122e-14 0 0)
(-8.75238e-14 0 0)
(-4.86243e-15 0 0)
(3.50095e-13 0 0)
(2.04222e-13 0 0)
(-7.77989e-14 0 0)
(2.67434e-13 0 0)
(1.70185e-13 0 0)
(2.23672e-13 0 0)
(2.91746e-14 0 0)
(2.77159e-13 0 0)
(2.43122e-13 0 0)
(6.17529e-13 0 0)
(5.93217e-13 0 0)
(5.15418e-13 0 0)
(3.64682e-13 0 0)
(2.52846e-13 0 0)
(1.89635e-13 0 0)
(9.72486e-15 0 0)
(-7.77989e-14 0 0)
(-4.13307e-13 0 0)
(-4.57069e-13 0 0)
(-1.89635e-13 0 0)
(-2.91746e-14 0 0)
(-4.71656e-13 0 0)
(-2.33397e-13 0 0)
(-3.74407e-13 0 0)
(-2.86883e-13 0 0)
(-3.88995e-13 0 0)
(-3.88995e-13 0 0)
(-1.02111e-13 0 0)
(1.45873e-14 0 0)
(-2.72296e-13 0 0)
(-4.18169e-13 0 0)
(-6.46703e-13 0 0)
(-6.61291e-13 0 0)
(-5.98079e-13 0 0)
(-5.68905e-13 0 0)
(-6.22391e-13 0 0)
(-7.58539e-13 0 0)
(-8.6065e-13 0 0)
(-6.56428e-13 0 0)
(-6.71016e-13 0 0)
(-7.29365e-13 0 0)
(-7.48815e-13 0 0)
(-8.21751e-13 0 0)
(-5.73767e-13 0 0)
(-6.41841e-13 0 0)
(-6.95328e-13 0 0)
(-6.90465e-13 0 0)
(-7.53677e-13 0 0)
(-6.41841e-13 0 0)
(-8.50926e-13 0 0)
(-5.93217e-13 0 0)
(-4.08444e-13 0 0)
(-2.72296e-13 0 0)
(-3.93857e-13 0 0)
(-4.91106e-13 0 0)
(-4.76518e-13 0 0)
(-4.57069e-13 0 0)
(-2.23672e-13 0 0)
(-2.96608e-13 0 0)
(1.16698e-13 0 0)
(2.18809e-13 0 0)
(5.44592e-13 0 0)
(3.64682e-13 0 0)
(5.34868e-13 0 0)
(2.86883e-13 0 0)
(2.09085e-13 0 0)
(8.26613e-14 0 0)
(-1.45873e-14 0 0)
(-2.86883e-13 0 0)
(-2.33397e-13 0 0)
(-4.27894e-13 0 0)
(-2.57709e-13 0 0)
(-1.36148e-13 0 0)
(6.32116e-14 0 0)
(-2.43122e-14 0 0)
(9.23862e-14 0 0)
(5.15418e-13 0 0)
(4.47344e-13 0 0)
(5.78629e-13 0 0)
(6.85603e-13 0 0)
(8.50926e-13 0 0)
(7.3909e-13 0 0)
(9.91936e-13 0 0)
(7.34227e-13 0 0)
(4.91106e-13 0 0)
(4.61931e-13 0 0)
(3.88995e-14 0 0)
(1.21561e-13 0 0)
(-2.18809e-13 0 0)
(6.8074e-14 0 0)
(2.09085e-13 0 0)
(2.09085e-13 0 0)
(2.04222e-13 0 0)
(4.76518e-13 0 0)
(6.02942e-13 0 0)
(6.27254e-13 0 0)
(7.0019e-13 0 0)
(5.05693e-13 0 0)
(4.95968e-13 0 0)
(3.84132e-13 0 0)
(6.61291e-13 0 0)
(6.75878e-13 0 0)
(9.38449e-13 0 0)
(5.83492e-13 0 0)
(9.04412e-13 0 0)
(7.29365e-13 0 0)
(9.28725e-13 0 0)
(8.36338e-13 0 0)
(8.07164e-13 0 0)
(6.95328e-13 0 0)
(9.77349e-13 0 0)
(4.95968e-13 0 0)
(8.94687e-13 0 0)
(4.08444e-13 0 0)
(7.77989e-13 0 0)
(5.25143e-13 0 0)
(7.1964e-13 0 0)
(2.67434e-13 0 0)
(1.70185e-13 0 0)
(-8.75238e-14 0 0)
(2.91746e-14 0 0)
(4.08444e-13 0 0)
(7.05053e-13 0 0)
(7.53677e-13 0 0)
(7.0019e-13 0 0)
(5.68905e-13 0 0)
(7.77989e-13 0 0)
(9.67624e-13 0 0)
(7.58539e-13 0 0)
(7.92576e-13 0 0)
(7.43952e-13 0 0)
(9.33587e-13 0 0)
(9.62762e-13 0 0)
(8.02301e-13 0 0)
(6.85603e-13 0 0)
(3.30645e-13 0 0)
(6.12666e-13 0 0)
(7.97439e-13 0 0)
(7.77989e-13 0 0)
(8.84963e-13 0 0)
(1.27396e-12 0 0)
(2.18323e-12 0 0)
(3.95316e-12 0 0)
(8.21751e-12 0 0)
(1.86961e-11 0 0)
(4.4112e-11 0 0)
(1.04688e-10 0 0)
(2.47911e-10 0 0)
(5.81338e-10 0 0)
(1.35198e-09 0 0)
(3.11059e-09 0 0)
(7.08722e-09 0 0)
(1.59801e-08 0 0)
(3.5657e-08 0 0)
(7.87136e-08 0 0)
(1.71876e-07 0 0)
(3.71146e-07 0 0)
(7.92401e-07 0 0)
(1.6723e-06 0 0)
(3.48781e-06 0 0)
(7.18698e-06 0 0)
(1.46279e-05 0 0)
(2.93994e-05 0 0)
(5.83296e-05 0 0)
(0.000114208 0 0)
(0.000220607 0 0)
(0.000420246 0 0)
(0.000789205 0 0)
(0.00146051 0 0)
(0.00266234 0 0)
(0.00477826 0 0)
(0.00843945 0 0)
(0.0146612 0 0)
(0.0250379 0 0)
(0.0420087 0 0)
(0.0692028 0 0)
(0.111858 0 0)
(0.177287 0 0)
(0.275329 0 0)
(0.4187 0 0)
(0.623095 0 0)
(0.906909 0 0)
(1.29044 0 0)
(1.79456 0 0)
(2.43885 0 0)
(3.2396 0 0)
(4.20788 0 0)
(5.3481 0 0)
(6.65753 0 0)
(8.1267 0 0)
(9.74111 0 0)
(11.4839 0 0)
(13.3378 0 0)
(15.2871 0 0)
(17.3177 0 0)
(19.4175 0 0)
(21.5765 0 0)
(23.7864 0 0)
(26.0403 0 0)
(28.3327 0 0)
(30.6591 0 0)
(33.0156 0 0)
(35.3992 0 0)
(37.8074 0 0)
(40.2379 0 0)
(42.689 0 0)
(45.1591 0 0)
(47.6468 0 0)
(50.1509 0 0)
(52.6704 0 0)
(55.2044 0 0)
(57.7519 0 0)
(60.3121 0 0)
(62.8844 0 0)
(65.4681 0 0)
(68.0624 0 0)
(70.6667 0 0)
(73.2805 0 0)
(75.9033 0 0)
(78.5344 0 0)
(81.1734 0 0)
(83.8198 0 0)
(86.4731 0 0)
(89.133 0 0)
(91.799 0 0)
(94.4707 0 0)
(97.1477 0 0)
(99.8298 0 0)
(102.517 0 0)
(105.208 0 0)
(107.903 0 0)
(110.602 0 0)
(113.305 0 0)
(116.011 0 0)
(118.72 0 0)
(121.432 0 0)
(124.147 0 0)
(126.864 0 0)
(129.584 0 0)
(132.306 0 0)
(135.03 0 0)
(137.756 0 0)
(140.484 0 0)
(143.213 0 0)
(145.944 0 0)
(148.677 0 0)
(151.41 0 0)
(154.145 0 0)
(156.881 0 0)
(159.618 0 0)
(162.356 0 0)
(165.095 0 0)
(167.834 0 0)
(170.574 0 0)
(173.314 0 0)
(176.055 0 0)
(178.797 0 0)
(181.538 0 0)
(184.28 0 0)
(187.021 0 0)
(189.763 0 0)
(192.504 0 0)
(195.245 0 0)
(197.986 0 0)
(200.726 0 0)
(203.466 0 0)
(206.205 0 0)
(208.943 0 0)
(211.68 0 0)
(214.415 0 0)
(217.15 0 0)
(219.883 0 0)
(222.614 0 0)
(225.343 0 0)
(228.07 0 0)
(230.794 0 0)
(233.516 0 0)
(236.235 0 0)
(238.95 0 0)
(241.662 0 0)
(244.369 0 0)
(247.072 0 0)
(249.769 0 0)
(252.46 0 0)
(255.145 0 0)
(257.822 0 0)
(260.491 0 0)
(263.15 0 0)
(265.798 0 0)
(268.433 0 0)
(271.054 0 0)
(273.659 0 0)
(276.245 0 0)
(278.809 0 0)
(281.348 0 0)
(283.857 0 0)
(286.331 0 0)
(288.764 0 0)
(291.148 0 0)
(293.475 0 0)
(295.732 0 0)
(297.907 0 0)
(299.981 0 0)
(301.936 0 0)
(303.745 0 0)
(305.378 0 0)
(306.798 0 0)
(307.96 0 0)
(308.814 0 0)
(309.301 0 0)
(309.356 0 0)
(308.913 0 0)
(307.909 0 0)
(306.301 0 0)
(304.072 0 0)
(301.259 0 0)
(297.964 0 0)
(294.369 0 0)
(290.735 0 0)
(287.38 0 0)
(284.64 0 0)
(282.811 0 0)
(282.083 0 0)
(282.502 0 0)
(283.962 0 0)
(286.232 0 0)
(289.004 0 0)
(291.945 0 0)
(294.737 0 0)
(297.099 0 0)
(298.813 0 0)
(299.73 0 0)
(299.788 0 0)
(299.013 0 0)
(297.526 0 0)
(295.537 0 0)
(293.322 0 0)
(291.195 0 0)
(289.463 0 0)
(288.367 0 0)
(288.038 0 0)
(288.468 0 0)
(289.523 0 0)
(290.976 0 0)
(292.552 0 0)
(293.983 0 0)
(295.045 0 0)
(295.589 0 0)
(295.566 0 0)
(295.029 0 0)
(294.117 0 0)
(293.033 0 0)
(291.999 0 0)
(291.218 0 0)
(290.823 0 0)
(290.858 0 0)
(291.27 0 0)
(291.928 0 0)
(292.662 0 0)
(293.301 0 0)
(293.711 0 0)
(293.825 0 0)
(293.649 0 0)
(293.26 0 0)
(292.778 0 0)
(292.335 0 0)
(292.042 0 0)
(291.956 0 0)
(292.074 0 0)
(292.336 0 0)
(292.649 0 0)
(292.915 0 0)
(293.063 0 0)
(293.066 0 0)
(292.942 0 0)
(292.751 0 0)
(292.565 0 0)
(292.447 0 0)
(292.429 0 0)
(292.508 0 0)
(292.648 0 0)
(292.797 0 0)
(292.913 0 0)
(292.977 0 0)
(292.997 0 0)
(293.003 0 0)
(293.023 0 0)
(293.063 0 0)
(293.095 0 0)
(293.078 0 0)
(292.984 0 0)
(292.82 0 0)
(292.624 0 0)
(292.438 0 0)
(292.287 0 0)
(292.181 0 0)
(292.121 0 0)
(292.115 0 0)
(292.167 0 0)
(292.268 0 0)
(292.395 0 0)
(292.52 0 0)
(292.621 0 0)
(292.687 0 0)
(292.72 0 0)
(292.725 0 0)
(292.714 0 0)
(292.696 0 0)
(292.678 0 0)
(292.665 0 0)
(292.658 0 0)
(292.656 0 0)
(292.657 0 0)
(292.66 0 0)
(292.662 0 0)
(292.664 0 0)
(292.665 0 0)
(292.666 0 0)
(292.667 0 0)
(292.667 0 0)
(292.667 0 0)
(292.668 0 0)
(292.668 0 0)
(292.669 0 0)
(292.669 0 0)
(292.67 0 0)
(292.67 0 0)
(292.671 0 0)
(292.672 0 0)
(292.673 0 0)
(292.673 0 0)
(292.674 0 0)
(292.675 0 0)
(292.676 0 0)
(292.677 0 0)
(292.678 0 0)
(292.679 0 0)
(292.68 0 0)
(292.681 0 0)
(292.682 0 0)
(292.683 0 0)
(292.685 0 0)
(292.686 0 0)
(292.687 0 0)
(292.688 0 0)
(292.689 0 0)
(292.689 0 0)
(292.69 0 0)
(292.691 0 0)
(292.687 0 0)
(292.687 0 0)
(292.693 0 0)
(292.678 0 0)
(292.656 0 0)
(292.683 0 0)
(292.674 0 0)
(292.519 0 0)
(292.526 0 0)
(292.774 0 0)
(292.287 0 0)
(291.485 0 0)
(292.773 0 0)
(293.03 0 0)
(287.091 0 0)
(287.306 0 0)
(296.613 0 0)
(264.172 0 0)
(154.773 0 0)
(46.717 0 0)
(8.89653 0 0)
(1.52384 0 0)
(0.251445 0 0)
(0.0415154 0 0)
(0.00686512 0 0)
(0.00113552 0 0)
(0.000187824 0 0)
(3.10677e-05 0 0)
(5.13884e-06 0 0)
(8.50002e-07 0 0)
(1.40595e-07 0 0)
(2.32543e-08 0 0)
(3.84533e-09 0 0)
(6.35248e-10 0 0)
(1.0409e-10 0 0)
(1.62989e-11 0 0)
(1.42469e-12 0 0)
(-1.22533e-12 0 0)
(-2.09571e-12 0 0)
(-1.96443e-12 0 0)
(-1.8769e-12 0 0)
(-1.21561e-12 0 0)
(-1.40524e-12 0 0)
(-1.32745e-12 0 0)
(-1.69213e-12 0 0)
(-1.50249e-12 0 0)
(-1.6435e-12 0 0)
(-1.45873e-12 0 0)
(-1.78938e-12 0 0)
(-1.88176e-12 0 0)
(-2.227e-12 0 0)
(-2.37773e-12 0 0)
(-2.57709e-12 0 0)
(-2.30966e-12 0 0)
(-2.29021e-12 0 0)
(-1.91094e-12 0 0)
(-1.7991e-12 0 0)
(-1.47818e-12 0 0)
(-1.27396e-12 0 0)
(-1.27396e-12 0 0)
(-1.07946e-12 0 0)
(-1.01139e-12 0 0)
(-1.23992e-12 0 0)
(-1.29827e-12 0 0)
(-1.63378e-12 0 0)
(-1.44414e-12 0 0)
(-1.7213e-12 0 0)
(-1.65809e-12 0 0)
(-1.68727e-12 0 0)
(-2.08599e-12 0 0)
(-2.17351e-12 0 0)
(-2.35342e-12 0 0)
(-2.20755e-12 0 0)
(-2.6014e-12 0 0)
(-2.19296e-12 0 0)
(-2.1881e-12 0 0)
(-1.52194e-12 0 0)
(-1.54626e-12 0 0)
(-1.53653e-12 0 0)
(-1.51708e-12 0 0)
(-1.65323e-12 0 0)
(-1.7602e-12 0 0)
(-1.50249e-12 0 0)
(-1.49277e-12 0 0)
(-1.40524e-12 0 0)
(-1.17185e-12 0 0)
(-1.03084e-12 0 0)
(-1.06974e-12 0 0)
(-1.01625e-12 0 0)
(-1.21561e-12 0 0)
(-9.04414e-13 0 0)
(-1.03084e-12 0 0)
(-1.40524e-12 0 0)
(-1.28368e-12 0 0)
(-1.48304e-12 0 0)
(-1.1913e-12 0 0)
(-1.70672e-12 0 0)
(-1.32745e-12 0 0)
(-1.74075e-12 0 0)
(-1.59488e-12 0 0)
(-1.7991e-12 0 0)
(-1.61433e-12 0 0)
(-1.97415e-12 0 0)
(-1.78938e-12 0 0)
(-1.60947e-12 0 0)
(-2.04222e-12 0 0)
(-1.53653e-12 0 0)
(-2.05195e-12 0 0)
(-1.64837e-12 0 0)
(-1.67268e-12 0 0)
(-1.55598e-12 0 0)
(-1.64837e-12 0 0)
(-1.2302e-12 0 0)
(-1.1135e-12 0 0)
(-1.12322e-12 0 0)
(-1.32745e-12 0 0)
(-1.24478e-12 0 0)
(-1.33717e-12 0 0)
(-1.21075e-12 0 0)
(-7.68265e-13 0 0)
(-5.39731e-13 0 0)
(-1.41011e-13 0 0)
(5.83493e-14 0 0)
(5.00831e-13 0 0)
(6.71017e-13 0 0)
(7.29366e-13 0 0)
(7.19641e-13 0 0)
(7.87715e-13 0 0)
(9.19001e-13 0 0)
(8.12027e-13 0 0)
(6.32117e-13 0 0)
(4.95969e-13 0 0)
(4.13307e-13 0 0)
(3.20921e-13 0 0)
(1.45873e-13 0 0)
(1.06974e-13 0 0)
(1.70185e-13 0 0)
(-2.91746e-14 0 0)
(8.26615e-14 0 0)
(-2.62572e-13 0 0)
(-1.7991e-13 0 0)
(-4.91106e-13 0 0)
(-5.39731e-13 0 0)
(-5.39731e-13 0 0)
(-5.00831e-13 0 0)
(-2.96609e-13 0 0)
(3.16059e-13 0 0)
(4.95969e-13 0 0)
(8.36339e-13 0 0)
(5.93218e-13 0 0)
(6.51567e-13 0 0)
(3.93858e-13 0 0)
(3.88995e-13 0 0)
(3.88995e-13 0 0)
(5.64043e-13 0 0)
(7.05054e-13 0 0)
(9.87075e-13 0 0)
(1.13295e-12 0 0)
(9.579e-13 0 0)
(9.33588e-13 0 0)
(5.88355e-13 0 0)
(8.60652e-13 0 0)
(4.61932e-13 0 0)
(3.11196e-13 0 0)
(9.72488e-14 0 0)
(-3.88995e-14 0 0)
(-3.35508e-13 0 0)
(-2.04222e-13 0 0)
(-5.34868e-14 0 0)
(-1.9936e-13 0 0)
(-2.28535e-13 0 0)
(-3.84133e-13 0 0)
(-3.74408e-13 0 0)
(-3.30646e-13 0 0)
(-1.11836e-13 0 0)
(-9.72488e-14 0 0)
(2.91746e-13 0 0)
(-3.5982e-13 0 0)
(-2.28535e-13 0 0)
(-1.36148e-13 0 0)
(1.89635e-13 0 0)
(4.81381e-13 0 0)
(8.12027e-13 0 0)
(7.9744e-13 0 0)
(3.74408e-13 0 0)
(3.88995e-13 0 0)
(2.91746e-14 0 0)
(1.70185e-13 0 0)
(-1.65323e-13 0 0)
(1.16699e-13 0 0)
(7.29366e-14 0 0)
(9.23863e-14 0 0)
(1.31286e-13 0 0)
(1.50736e-13 0 0)
(-5.83493e-14 0 0)
(-3.88995e-14 0 0)
(-7.7799e-14 0 0)
(-1.06974e-13 0 0)
(-5.54318e-13 0 0)
(-5.25143e-13 0 0)
(-5.39731e-13 0 0)
(-9.72488e-14 0 0)
(3.40371e-14 0 0)
(3.45233e-13 0 0)
(1.55598e-13 0 0)
(-1.45873e-14 0 0)
(-9.72488e-14 0 0)
(9.72488e-15 0 0)
(-4.86244e-15 0 0)
(8.26615e-14 0 0)
(1.55598e-13 0 0)
(-4.86244e-15 0 0)
(-7.7799e-14 0 0)
(-1.55598e-13 0 0)
(-9.23863e-14 0 0)
(-3.40371e-13 0 0)
(-2.57709e-13 0 0)
(-6.85604e-13 0 0)
(-5.9808e-13 0 0)
(-6.02942e-13 0 0)
(-8.94689e-13 0 0)
(-7.19641e-13 0 0)
(-7.00191e-13 0 0)
(-8.07165e-13 0 0)
(-6.1753e-13 0 0)
(-1.0746e-12 0 0)
(-8.1689e-13 0 0)
(-1.26423e-12 0 0)
(-8.70377e-13 0 0)
(-7.29366e-13 0 0)
(-2.23672e-13 0 0)
(-2.82021e-13 0 0)
(1.11836e-13 0 0)
(-9.23863e-14 0 0)
(-1.6046e-13 0 0)
(7.29366e-14 0 0)
(-3.40371e-14 0 0)
(-3.5982e-13 0 0)
(-5.68905e-13 0 0)
(-1.0746e-12 0 0)
(-1.00652e-12 0 0)
(-1.00166e-12 0 0)
(-9.09276e-13 0 0)
(-8.36339e-13 0 0)
(-5.83493e-13 0 0)
(-6.90466e-13 0 0)
(-3.20921e-13 0 0)
(-7.24503e-13 0 0)
(-6.46704e-13 0 0)
(-5.88355e-13 0 0)
(-4.42482e-13 0 0)
(-3.7927e-13 0 0)
(-3.40371e-13 0 0)
(-2.04222e-13 0 0)
(-2.91746e-13 0 0)
(-5.9808e-13 0 0)
(-7.00191e-13 0 0)
(-7.39091e-13 0 0)
(-9.23863e-13 0 0)
(-1.22047e-12 0 0)
(-1.18157e-12 0 0)
(-9.62763e-13 0 0)
(-9.62763e-13 0 0)
(-8.26615e-13 0 0)
(-1.0357e-12 0 0)
(-1.1913e-12 0 0)
(-1.56084e-12 0 0)
(-1.39066e-12 0 0)
(-1.65323e-12 0 0)
(-1.48791e-12 0 0)
(-1.54626e-12 0 0)
(-1.76507e-12 0 0)
(-1.66782e-12 0 0)
(-1.79424e-12 0 0)
(-1.61919e-12 0 0)
(-1.96443e-12 0 0)
(-1.838e-12 0 0)
(-1.56571e-12 0 0)
(-1.69699e-12 0 0)
(-1.7213e-12 0 0)
(-1.72617e-12 0 0)
(-1.29341e-12 0 0)
(-1.10864e-12 0 0)
(-6.95329e-13 0 0)
(-6.12667e-13 0 0)
(-6.56429e-13 0 0)
(-5.05694e-13 0 0)
(-6.46704e-13 0 0)
(-6.07805e-13 0 0)
(-6.85604e-13 0 0)
(-5.25143e-13 0 0)
(-8.84964e-13 0 0)
(-7.19641e-13 0 0)
(-9.14139e-13 0 0)
(-5.54318e-13 0 0)
(-8.50927e-13 0 0)
(-5.64043e-13 0 0)
(-5.88355e-13 0 0)
(-4.27895e-13 0 0)
(-1.7991e-13 0 0)
(-4.23032e-13 0 0)
(-2.62572e-13 0 0)
(-3.5982e-13 0 0)
(-1.45873e-13 0 0)
(-8.75239e-14 0 0)
(-1.31286e-13 0 0)
(-1.41011e-13 0 0)
(2.13947e-13 0 0)
(-1.50736e-13 0 0)
(-5.05694e-13 0 0)
(-5.64043e-13 0 0)
(-6.02942e-13 0 0)
(-7.48816e-13 0 0)
(-5.10556e-13 0 0)
(-5.10556e-13 0 0)
(-2.57709e-13 0 0)
(-2.57709e-13 0 0)
(-2.43122e-14 0 0)
(1.41011e-13 0 0)
(1.84773e-13 0 0)
(-9.23863e-14 0 0)
(-1.21561e-13 0 0)
(8.26615e-14 0 0)
(-2.28535e-13 0 0)
(-1.21561e-13 0 0)
(-4.57069e-13 0 0)
(-1.94498e-13 0 0)
(-3.54958e-13 0 0)
(1.31286e-13 0 0)
(-5.15419e-13 0 0)
(-2.28535e-13 0 0)
(-1.12322e-12 0 0)
(-9.53038e-13 0 0)
(-1.08432e-12 0 0)
(-6.75879e-13 0 0)
(-6.95329e-13 0 0)
(-5.00831e-13 0 0)
(-9.04414e-13 0 0)
(-6.27255e-13 0 0)
(-7.34228e-13 0 0)
(-5.30006e-13 0 0)
(-6.41842e-13 0 0)
(-1.50736e-13 0 0)
(3.40371e-14 0 0)
(2.91746e-13 0 0)
(2.96609e-13 0 0)
(1.36148e-13 0 0)
(-1.36148e-13 0 0)
(-2.52847e-13 0 0)
(-4.57069e-13 0 0)
(-3.16059e-13 0 0)
(-3.30646e-13 0 0)
(-9.23863e-14 0 0)
(-3.20921e-13 0 0)
)
;

boundaryField
{
    sides
    {
        type            zeroGradient;
    }
    empty
    {
        type            empty;
    }
}


// ************************************************************************* //
