/*--------------------------------*- C++ -*----------------------------------*\
  =========                 |
  \\      /  F ield         | OpenFOAM: The Open Source CFD Toolbox
   \\    /   O peration     | Website:  https://openfoam.org
    \\  /    A nd           | Version:  13
     \\/     M anipulation  |
\*---------------------------------------------------------------------------*/
FoamFile
{
    format      ascii;
    class       volVectorField;
    location    "0.003";
    object      U_0;
}
// * * * * * * * * * * * * * * * * * * * * * * * * * * * * * * * * * * * * * //

dimensions      [0 1 -1 0 0 0 0];

internalField   nonuniform List<vector> 
1000
(
(-1.68726e-12 0 0)
(-1.41011e-12 0 0)
(-1.56084e-12 0 0)
(-1.32258e-12 0 0)
(-1.59488e-12 0 0)
(-1.54139e-12 0 0)
(-1.78937e-12 0 0)
(-1.63864e-12 0 0)
(-1.7602e-12 0 0)
(-1.41011e-12 0 0)
(-1.70185e-12 0 0)
(-1.39552e-12 0 0)
(-1.43928e-12 0 0)
(-1.26423e-12 0 0)
(-1.15726e-12 0 0)
(-9.48174e-13 0 0)
(-1.1524e-12 0 0)
(-1.11836e-12 0 0)
(-1.02597e-12 0 0)
(-9.82211e-13 0 0)
(-1.14267e-12 0 0)
(-1.02111e-12 0 0)
(-1.05515e-12 0 0)
(-1.06487e-12 0 0)
(-1.15726e-12 0 0)
(-1.01625e-12 0 0)
(-9.04412e-13 0 0)
(-9.87074e-13 0 0)
(-9.48174e-13 0 0)
(-1.0746e-12 0 0)
(-1.02597e-12 0 0)
(-1.03084e-12 0 0)
(-1.02111e-12 0 0)
(-1.10377e-12 0 0)
(-9.33587e-13 0 0)
(-1.08432e-12 0 0)
(-9.72486e-13 0 0)
(-1.05029e-12 0 0)
(-9.19e-13 0 0)
(-1.1135e-12 0 0)
(-1.07946e-12 0 0)
(-1.10863e-12 0 0)
(-1.06974e-12 0 0)
(-1.18643e-12 0 0)
(-1.22533e-12 0 0)
(-1.21561e-12 0 0)
(-1.43442e-12 0 0)
(-1.13781e-12 0 0)
(-1.35662e-12 0 0)
(-1.22047e-12 0 0)
(-1.10863e-12 0 0)
(-1.01625e-12 0 0)
(-1.13295e-12 0 0)
(-1.09891e-12 0 0)
(-1.25451e-12 0 0)
(-1.53653e-12 0 0)
(-1.52194e-12 0 0)
(-1.32744e-12 0 0)
(-1.29827e-12 0 0)
(-7.58539e-13 0 0)
(-5.10555e-13 0 0)
(-2.18809e-13 0 0)
(-3.88995e-14 0 0)
(-9.23862e-14 0 0)
(-1.89635e-13 0 0)
(-3.45233e-13 0 0)
(-3.7927e-13 0 0)
(-2.96608e-13 0 0)
(-2.04222e-13 0 0)
(-3.11196e-13 0 0)
(-3.11196e-13 0 0)
(-4.76518e-13 0 0)
(-4.13307e-13 0 0)
(-4.23032e-13 0 0)
(-3.01471e-13 0 0)
(-4.81381e-13 0 0)
(-4.66793e-13 0 0)
(-5.2028e-13 0 0)
(-5.05693e-13 0 0)
(-4.71656e-13 0 0)
(-5.15418e-13 0 0)
(-5.49455e-13 0 0)
(-4.95968e-13 0 0)
(-1.9936e-13 0 0)
(-2.57709e-13 0 0)
(1.94497e-14 0 0)
(8.75238e-14 0 0)
(5.0083e-13 0 0)
(5.49455e-13 0 0)
(8.50926e-13 0 0)
(5.78629e-13 0 0)
(6.75878e-13 0 0)
(5.5918e-13 0 0)
(6.61291e-13 0 0)
(3.93857e-13 0 0)
(2.96608e-13 0 0)
(2.47984e-13 0 0)
(9.72486e-14 0 0)
(3.06333e-13 0 0)
(2.57709e-13 0 0)
(9.72486e-14 0 0)
(3.54958e-13 0 0)
(7.29365e-14 0 0)
(2.43122e-14 0 0)
(-3.45233e-13 0 0)
(-4.23032e-13 0 0)
(-4.86243e-13 0 0)
(-3.45233e-13 0 0)
(-2.62571e-13 0 0)
(-2.43122e-14 0 0)
(-7.29365e-14 0 0)
(-2.43122e-13 0 0)
(-3.4037e-13 0 0)
(-4.13307e-13 0 0)
(-4.32756e-13 0 0)
(-4.66793e-13 0 0)
(-5.5918e-13 0 0)
(-3.5982e-13 0 0)
(-4.52206e-13 0 0)
(-3.7927e-13 0 0)
(-4.52206e-13 0 0)
(-3.64682e-13 0 0)
(1.94497e-14 0 0)
(9.72486e-14 0 0)
(9.23862e-14 0 0)
(-5.83492e-14 0 0)
(-1.11836e-13 0 0)
(2.43122e-14 0 0)
(1.41011e-13 0 0)
(3.64682e-13 0 0)
(5.73767e-13 0 0)
(6.75878e-13 0 0)
(7.43952e-13 0 0)
(8.36338e-13 0 0)
(8.02301e-13 0 0)
(6.46703e-13 0 0)
(6.17529e-13 0 0)
(7.58539e-13 0 0)
(6.90465e-13 0 0)
(5.3973e-13 0 0)
(3.84132e-13 0 0)
(7.1964e-13 0 0)
(7.63402e-13 0 0)
(5.30005e-13 0 0)
(3.50095e-13 0 0)
(1.55598e-13 0 0)
(1.02111e-13 0 0)
(8.26613e-14 0 0)
(1.55598e-13 0 0)
(-1.45873e-14 0 0)
(4.86243e-15 0 0)
(-7.77989e-14 0 0)
(1.21561e-13 0 0)
(1.11836e-13 0 0)
(1.31286e-13 0 0)
(1.94497e-14 0 0)
(1.06974e-13 0 0)
(5.34868e-14 0 0)
(-2.91746e-14 0 0)
(-3.88995e-14 0 0)
(1.02111e-13 0 0)
(7.29365e-14 0 0)
(-5.83492e-14 0 0)
(4.37619e-14 0 0)
(-2.91746e-14 0 0)
(-1.41011e-13 0 0)
(-2.57709e-13 0 0)
(4.86243e-14 0 0)
(-1.7991e-13 0 0)
(9.72486e-15 0 0)
(-2.62571e-13 0 0)
(-5.05693e-13 0 0)
(-6.61291e-13 0 0)
(-6.22391e-13 0 0)
(-3.98719e-13 0 0)
(-2.96608e-13 0 0)
(-4.86243e-13 0 0)
(-6.27254e-13 0 0)
(-8.21751e-13 0 0)
(-5.0083e-13 0 0)
(-3.74407e-13 0 0)
(-9.23862e-14 0 0)
(-3.30645e-13 0 0)
(-3.54958e-13 0 0)
(-4.42481e-13 0 0)
(-3.50095e-13 0 0)
(-6.32116e-14 0 0)
(-2.77159e-13 0 0)
(-3.50095e-13 0 0)
(-7.05053e-13 0 0)
(-7.14777e-13 0 0)
(-7.14777e-13 0 0)
(-2.57709e-13 0 0)
(-3.69545e-13 0 0)
(5.34868e-14 0 0)
(-8.26613e-14 0 0)
(-1.94497e-14 0 0)
(3.4037e-13 0 0)
(2.43122e-13 0 0)
(-8.26613e-14 0 0)
(2.82021e-13 0 0)
(1.94497e-13 0 0)
(2.23672e-13 0 0)
(3.4037e-14 0 0)
(2.82021e-13 0 0)
(1.9936e-13 0 0)
(6.12666e-13 0 0)
(6.07804e-13 0 0)
(5.15418e-13 0 0)
(2.91746e-13 0 0)
(1.65323e-13 0 0)
(1.84772e-13 0 0)
(-1.45873e-14 0 0)
(-9.23862e-14 0 0)
(-4.32756e-13 0 0)
(-4.86243e-13 0 0)
(-1.9936e-13 0 0)
(-3.88995e-14 0 0)
(-4.42481e-13 0 0)
(-2.28534e-13 0 0)
(-3.93857e-13 0 0)
(-2.77159e-13 0 0)
(-3.06333e-13 0 0)
(-2.52846e-13 0 0)
(-4.86243e-15 0 0)
(6.32116e-14 0 0)
(-2.04222e-13 0 0)
(-3.84132e-13 0 0)
(-6.12666e-13 0 0)
(-6.22391e-13 0 0)
(-6.27254e-13 0 0)
(-6.56428e-13 0 0)
(-7.0019e-13 0 0)
(-8.07164e-13 0 0)
(-8.801e-13 0 0)
(-6.71016e-13 0 0)
(-6.71016e-13 0 0)
(-7.29365e-13 0 0)
(-7.1964e-13 0 0)
(-7.87714e-13 0 0)
(-5.93217e-13 0 0)
(-6.41841e-13 0 0)
(-6.75878e-13 0 0)
(-7.14777e-13 0 0)
(-7.68264e-13 0 0)
(-6.41841e-13 0 0)
(-8.31476e-13 0 0)
(-5.78629e-13 0 0)
(-4.08444e-13 0 0)
(-3.01471e-13 0 0)
(-3.98719e-13 0 0)
(-4.71656e-13 0 0)
(-4.27894e-13 0 0)
(-4.95968e-13 0 0)
(-2.86883e-13 0 0)
(-3.50095e-13 0 0)
(2.43122e-14 0 0)
(1.45873e-13 0 0)
(5.3973e-13 0 0)
(3.7927e-13 0 0)
(5.3973e-13 0 0)
(2.77159e-13 0 0)
(2.23672e-13 0 0)
(1.11836e-13 0 0)
(5.34868e-14 0 0)
(-2.18809e-13 0 0)
(-1.7991e-13 0 0)
(-4.08444e-13 0 0)
(-2.33397e-13 0 0)
(-1.36148e-13 0 0)
(1.94497e-14 0 0)
(-4.86243e-14 0 0)
(2.91746e-14 0 0)
(4.42481e-13 0 0)
(4.23032e-13 0 0)
(5.68905e-13 0 0)
(6.8074e-13 0 0)
(8.50926e-13 0 0)
(7.3909e-13 0 0)
(9.87074e-13 0 0)
(7.87714e-13 0 0)
(5.44592e-13 0 0)
(4.76518e-13 0 0)
(5.83492e-14 0 0)
(1.55598e-13 0 0)
(-1.84772e-13 0 0)
(5.34868e-14 0 0)
(1.7991e-13 0 0)
(2.18809e-13 0 0)
(1.94497e-13 0 0)
(4.23032e-13 0 0)
(5.44592e-13 0 0)
(5.30005e-13 0 0)
(6.12666e-13 0 0)
(4.86243e-13 0 0)
(5.44592e-13 0 0)
(4.03582e-13 0 0)
(6.56428e-13 0 0)
(6.75878e-13 0 0)
(9.43312e-13 0 0)
(6.17529e-13 0 0)
(9.62762e-13 0 0)
(7.97439e-13 0 0)
(9.48174e-13 0 0)
(8.21751e-13 0 0)
(7.87714e-13 0 0)
(6.66153e-13 0 0)
(9.77349e-13 0 0)
(4.91106e-13 0 0)
(8.84963e-13 0 0)
(3.93857e-13 0 0)
(7.3909e-13 0 0)
(5.34868e-13 0 0)
(7.34227e-13 0 0)
(2.38259e-13 0 0)
(1.45873e-13 0 0)
(-7.77989e-14 0 0)
(6.8074e-14 0 0)
(4.32756e-13 0 0)
(6.95328e-13 0 0)
(7.3909e-13 0 0)
(7.05053e-13 0 0)
(5.73767e-13 0 0)
(7.77989e-13 0 0)
(9.43312e-13 0 0)
(6.75878e-13 0 0)
(7.43952e-13 0 0)
(7.29365e-13 0 0)
(8.89825e-13 0 0)
(9.28725e-13 0 0)
(7.92576e-13 0 0)
(7.63402e-13 0 0)
(4.08444e-13 0 0)
(6.51566e-13 0 0)
(7.97439e-13 0 0)
(7.43952e-13 0 0)
(8.21751e-13 0 0)
(1.10377e-12 0 0)
(1.78451e-12 0 0)
(3.00498e-12 0 0)
(5.82519e-12 0 0)
(1.29584e-11 0 0)
(3.04437e-11 0 0)
(7.23773e-11 0 0)
(1.72116e-10 0 0)
(4.05362e-10 0 0)
(9.47688e-10 0 0)
(2.19138e-09 0 0)
(5.01887e-09 0 0)
(1.13757e-08 0 0)
(2.55186e-08 0 0)
(5.66373e-08 0 0)
(1.24347e-07 0 0)
(2.69999e-07 0 0)
(5.79683e-07 0 0)
(1.23033e-06 0 0)
(2.58079e-06 0 0)
(5.34905e-06 0 0)
(1.09517e-05 0 0)
(2.21435e-05 0 0)
(4.42024e-05 0 0)
(8.70861e-05 0 0)
(0.000169283 0 0)
(0.000324559 0 0)
(0.00061352 0 0)
(0.00114301 0 0)
(0.00209787 0 0)
(0.00379161 0 0)
(0.00674492 0 0)
(0.0118037 0 0)
(0.0203103 0 0)
(0.0343412 0 0)
(0.0570231 0 0)
(0.092927 0 0)
(0.148524 0 0)
(0.232657 0 0)
(0.356948 0 0)
(0.536016 0 0)
(0.787366 0 0)
(1.1308 0 0)
(1.58729 0 0)
(2.17727 0 0)
(2.91866 0 0)
(3.82481 0 0)
(4.90286 0 0)
(6.15281 0 0)
(7.56756 0 0)
(9.13419 0 0)
(10.8363 0 0)
(12.6565 0 0)
(14.5782 0 0)
(16.5866 0 0)
(18.6688 0 0)
(20.8139 0 0)
(23.0131 0 0)
(25.2589 0 0)
(27.5453 0 0)
(29.8673 0 0)
(32.221 0 0)
(34.6029 0 0)
(37.0103 0 0)
(39.441 0 0)
(41.893 0 0)
(44.3645 0 0)
(46.8543 0 0)
(49.361 0 0)
(51.8835 0 0)
(54.4209 0 0)
(56.9721 0 0)
(59.5365 0 0)
(62.1132 0 0)
(64.7016 0 0)
(67.3009 0 0)
(69.9105 0 0)
(72.5298 0 0)
(75.1583 0 0)
(77.7954 0 0)
(80.4406 0 0)
(83.0933 0 0)
(85.7533 0 0)
(88.4199 0 0)
(91.0927 0 0)
(93.7715 0 0)
(96.4558 0 0)
(99.1452 0 0)
(101.839 0 0)
(104.538 0 0)
(107.241 0 0)
(109.948 0 0)
(112.659 0 0)
(115.373 0 0)
(118.09 0 0)
(120.81 0 0)
(123.533 0 0)
(126.259 0 0)
(128.987 0 0)
(131.717 0 0)
(134.45 0 0)
(137.184 0 0)
(139.921 0 0)
(142.659 0 0)
(145.398 0 0)
(148.139 0 0)
(150.882 0 0)
(153.625 0 0)
(156.37 0 0)
(159.116 0 0)
(161.863 0 0)
(164.61 0 0)
(167.359 0 0)
(170.107 0 0)
(172.857 0 0)
(175.607 0 0)
(178.357 0 0)
(181.107 0 0)
(183.858 0 0)
(186.609 0 0)
(189.359 0 0)
(192.11 0 0)
(194.86 0 0)
(197.61 0 0)
(200.359 0 0)
(203.108 0 0)
(205.856 0 0)
(208.603 0 0)
(211.349 0 0)
(214.094 0 0)
(216.837 0 0)
(219.579 0 0)
(222.32 0 0)
(225.058 0 0)
(227.794 0 0)
(230.528 0 0)
(233.259 0 0)
(235.987 0 0)
(238.711 0 0)
(241.432 0 0)
(244.149 0 0)
(246.86 0 0)
(249.567 0 0)
(252.267 0 0)
(254.961 0 0)
(257.647 0 0)
(260.325 0 0)
(262.993 0 0)
(265.651 0 0)
(268.295 0 0)
(270.926 0 0)
(273.54 0 0)
(276.135 0 0)
(278.708 0 0)
(281.256 0 0)
(283.774 0 0)
(286.257 0 0)
(288.699 0 0)
(291.092 0 0)
(293.427 0 0)
(295.693 0 0)
(297.876 0 0)
(299.959 0 0)
(301.922 0 0)
(303.738 0 0)
(305.378 0 0)
(306.805 0 0)
(307.973 0 0)
(308.833 0 0)
(309.323 0 0)
(309.38 0 0)
(308.938 0 0)
(307.933 0 0)
(306.321 0 0)
(304.086 0 0)
(301.265 0 0)
(297.96 0 0)
(294.357 0 0)
(290.714 0 0)
(287.354 0 0)
(284.613 0 0)
(282.789 0 0)
(282.07 0 0)
(282.502 0 0)
(283.976 0 0)
(286.259 0 0)
(289.041 0 0)
(291.989 0 0)
(294.782 0 0)
(297.139 0 0)
(298.842 0 0)
(299.745 0 0)
(299.784 0 0)
(298.99 0 0)
(297.485 0 0)
(295.483 0 0)
(293.262 0 0)
(291.139 0 0)
(289.42 0 0)
(288.344 0 0)
(288.039 0 0)
(288.493 0 0)
(289.568 0 0)
(291.031 0 0)
(292.609 0 0)
(294.032 0 0)
(295.077 0 0)
(295.599 0 0)
(295.553 0 0)
(294.995 0 0)
(294.069 0 0)
(292.982 0 0)
(291.955 0 0)
(291.189 0 0)
(290.815 0 0)
(290.872 0 0)
(291.301 0 0)
(291.969 0 0)
(292.702 0 0)
(293.331 0 0)
(293.726 0 0)
(293.821 0 0)
(293.629 0 0)
(293.229 0 0)
(292.746 0 0)
(292.31 0 0)
(292.03 0 0)
(291.96 0 0)
(292.091 0 0)
(292.36 0 0)
(292.672 0 0)
(292.931 0 0)
(293.068 0 0)
(293.058 0 0)
(292.926 0 0)
(292.733 0 0)
(292.551 0 0)
(292.442 0 0)
(292.436 0 0)
(292.525 0 0)
(292.67 0 0)
(292.821 0 0)
(292.935 0 0)
(292.994 0 0)
(293.012 0 0)
(293.017 0 0)
(293.037 0 0)
(293.071 0 0)
(293.092 0 0)
(293.057 0 0)
(292.944 0 0)
(292.767 0 0)
(292.568 0 0)
(292.388 0 0)
(292.248 0 0)
(292.156 0 0)
(292.113 0 0)
(292.125 0 0)
(292.193 0 0)
(292.304 0 0)
(292.434 0 0)
(292.554 0 0)
(292.645 0 0)
(292.701 0 0)
(292.724 0 0)
(292.723 0 0)
(292.709 0 0)
(292.691 0 0)
(292.674 0 0)
(292.662 0 0)
(292.657 0 0)
(292.656 0 0)
(292.658 0 0)
(292.661 0 0)
(292.663 0 0)
(292.665 0 0)
(292.666 0 0)
(292.666 0 0)
(292.667 0 0)
(292.667 0 0)
(292.667 0 0)
(292.668 0 0)
(292.668 0 0)
(292.669 0 0)
(292.67 0 0)
(292.67 0 0)
(292.671 0 0)
(292.672 0 0)
(292.672 0 0)
(292.673 0 0)
(292.674 0 0)
(292.675 0 0)
(292.676 0 0)
(292.677 0 0)
(292.678 0 0)
(292.679 0 0)
(292.68 0 0)
(292.681 0 0)
(292.682 0 0)
(292.683 0 0)
(292.684 0 0)
(292.685 0 0)
(292.686 0 0)
(292.688 0 0)
(292.689 0 0)
(292.689 0 0)
(292.69 0 0)
(292.691 0 0)
(292.689 0 0)
(292.686 0 0)
(292.691 0 0)
(292.688 0 0)
(292.663 0 0)
(292.666 0 0)
(292.697 0 0)
(292.599 0 0)
(292.473 0 0)
(292.68 0 0)
(292.651 0 0)
(291.71 0 0)
(291.907 0 0)
(293.574 0 0)
(290.3 0 0)
(285.119 0 0)
(293.572 0 0)
(287.999 0 0)
(211.988 0 0)
(87.3469 0 0)
(19.369 0 0)
(3.4115 0 0)
(0.569469 0 0)
(0.0938583 0 0)
(0.0155137 0 0)
(0.00256589 0 0)
(0.000424419 0 0)
(7.02024e-05 0 0)
(1.1612e-05 0 0)
(1.92072e-06 0 0)
(3.17699e-07 0 0)
(5.25484e-08 0 0)
(8.69085e-09 0 0)
(1.43639e-09 0 0)
(2.36767e-10 0 0)
(3.82042e-11 0 0)
(5.43621e-12 0 0)
(-3.40371e-13 0 0)
(-1.53167e-12 0 0)
(-2.1492e-12 0 0)
(-1.93525e-12 0 0)
(-1.82341e-12 0 0)
(-1.23506e-12 0 0)
(-1.42469e-12 0 0)
(-1.27882e-12 0 0)
(-1.6046e-12 0 0)
(-1.45873e-12 0 0)
(-1.6435e-12 0 0)
(-1.41011e-12 0 0)
(-1.67268e-12 0 0)
(-1.73103e-12 0 0)
(-2.22213e-12 0 0)
(-2.45067e-12 0 0)
(-2.60627e-12 0 0)
(-2.30966e-12 0 0)
(-2.32911e-12 0 0)
(-1.94011e-12 0 0)
(-1.78452e-12 0 0)
(-1.51708e-12 0 0)
(-1.31286e-12 0 0)
(-1.28855e-12 0 0)
(-1.1524e-12 0 0)
(-1.06974e-12 0 0)
(-1.17671e-12 0 0)
(-1.24965e-12 0 0)
(-1.63378e-12 0 0)
(-1.43928e-12 0 0)
(-1.66295e-12 0 0)
(-1.61433e-12 0 0)
(-1.7213e-12 0 0)
(-2.08112e-12 0 0)
(-2.12975e-12 0 0)
(-2.33883e-12 0 0)
(-2.26103e-12 0 0)
(-2.66462e-12 0 0)
(-2.20755e-12 0 0)
(-2.29507e-12 0 0)
(-1.60947e-12 0 0)
(-1.55112e-12 0 0)
(-1.59974e-12 0 0)
(-1.53167e-12 0 0)
(-1.62405e-12 0 0)
(-1.74562e-12 0 0)
(-1.51222e-12 0 0)
(-1.49763e-12 0 0)
(-1.37607e-12 0 0)
(-1.13781e-12 0 0)
(-1.02111e-12 0 0)
(-1.13295e-12 0 0)
(-9.968e-13 0 0)
(-1.14267e-12 0 0)
(-9.09276e-13 0 0)
(-1.05029e-12 0 0)
(-1.42469e-12 0 0)
(-1.27882e-12 0 0)
(-1.43442e-12 0 0)
(-1.18157e-12 0 0)
(-1.69699e-12 0 0)
(-1.32745e-12 0 0)
(-1.72617e-12 0 0)
(-1.59974e-12 0 0)
(-1.84773e-12 0 0)
(-1.63378e-12 0 0)
(-1.9158e-12 0 0)
(-1.75048e-12 0 0)
(-1.56084e-12 0 0)
(-1.99846e-12 0 0)
(-1.51222e-12 0 0)
(-2.0325e-12 0 0)
(-1.65809e-12 0 0)
(-1.70185e-12 0 0)
(-1.58029e-12 0 0)
(-1.66295e-12 0 0)
(-1.2691e-12 0 0)
(-1.18644e-12 0 0)
(-1.12809e-12 0 0)
(-1.2302e-12 0 0)
(-1.20102e-12 0 0)
(-1.37121e-12 0 0)
(-1.20102e-12 0 0)
(-7.05054e-13 0 0)
(-4.47344e-13 0 0)
(-1.31771e-26 0 0)
(1.31286e-13 0 0)
(4.52207e-13 0 0)
(6.51567e-13 0 0)
(7.68265e-13 0 0)
(7.82853e-13 0 0)
(8.70377e-13 0 0)
(9.23863e-13 0 0)
(7.82853e-13 0 0)
(6.3698e-13 0 0)
(5.00831e-13 0 0)
(4.3762e-13 0 0)
(3.54958e-13 0 0)
(1.89635e-13 0 0)
(9.72488e-14 0 0)
(1.21561e-13 0 0)
(-1.45873e-14 0 0)
(1.21561e-13 0 0)
(-2.67434e-13 0 0)
(-2.33397e-13 0 0)
(-5.15419e-13 0 0)
(-5.7863e-13 0 0)
(-5.88355e-13 0 0)
(-5.49456e-13 0 0)
(-3.06334e-13 0 0)
(3.01471e-13 0 0)
(4.42482e-13 0 0)
(7.68265e-13 0 0)
(5.54318e-13 0 0)
(6.41842e-13 0 0)
(4.47344e-13 0 0)
(5.05694e-13 0 0)
(5.49456e-13 0 0)
(6.80741e-13 0 0)
(7.19641e-13 0 0)
(9.72488e-13 0 0)
(1.11836e-12 0 0)
(9.67625e-13 0 0)
(9.33588e-13 0 0)
(5.7863e-13 0 0)
(8.65514e-13 0 0)
(4.27895e-13 0 0)
(2.72297e-13 0 0)
(6.32117e-14 0 0)
(-6.32117e-14 0 0)
(-3.01471e-13 0 0)
(-1.21561e-13 0 0)
(9.72488e-15 0 0)
(-1.7991e-13 0 0)
(-2.1881e-13 0 0)
(-3.88995e-13 0 0)
(-3.25783e-13 0 0)
(-3.11196e-13 0 0)
(-1.45873e-13 0 0)
(-1.26423e-13 0 0)
(2.91746e-13 0 0)
(-3.50096e-13 0 0)
(-1.94498e-13 0 0)
(-1.45873e-13 0 0)
(1.45873e-13 0 0)
(4.32757e-13 0 0)
(7.82853e-13 0 0)
(7.7799e-13 0 0)
(3.9872e-13 0 0)
(4.42482e-13 0 0)
(6.80741e-14 0 0)
(1.41011e-13 0 0)
(-1.70185e-13 0 0)
(1.16699e-13 0 0)
(6.32117e-14 0 0)
(4.86244e-14 0 0)
(8.26615e-14 0 0)
(1.41011e-13 0 0)
(-9.72488e-14 0 0)
(-2.91746e-14 0 0)
(-7.7799e-14 0 0)
(-1.36148e-13 0 0)
(-5.44593e-13 0 0)
(-4.27895e-13 0 0)
(-4.03582e-13 0 0)
(-3.88995e-14 0 0)
(4.3762e-14 0 0)
(3.54958e-13 0 0)
(1.41011e-13 0 0)
(-5.34868e-14 0 0)
(-7.7799e-14 0 0)
(-4.86244e-15 0 0)
(-1.94498e-14 0 0)
(6.80741e-14 0 0)
(1.50736e-13 0 0)
(2.91746e-14 0 0)
(-5.83493e-14 0 0)
(-1.89635e-13 0 0)
(-1.16699e-13 0 0)
(-3.5982e-13 0 0)
(-2.96609e-13 0 0)
(-7.68265e-13 0 0)
(-7.14779e-13 0 0)
(-6.56429e-13 0 0)
(-8.65514e-13 0 0)
(-6.71017e-13 0 0)
(-6.41842e-13 0 0)
(-7.29366e-13 0 0)
(-5.49456e-13 0 0)
(-1.00652e-12 0 0)
(-6.80741e-13 0 0)
(-1.20102e-12 0 0)
(-8.94689e-13 0 0)
(-7.34228e-13 0 0)
(-1.6046e-13 0 0)
(-2.52847e-13 0 0)
(9.72488e-14 0 0)
(-1.02111e-13 0 0)
(-1.6046e-13 0 0)
(7.7799e-14 0 0)
(-5.34868e-14 0 0)
(-4.47344e-13 0 0)
(-6.56429e-13 0 0)
(-1.09891e-12 0 0)
(-1.00166e-12 0 0)
(-9.968e-13 0 0)
(-8.94689e-13 0 0)
(-8.70377e-13 0 0)
(-6.1753e-13 0 0)
(-6.71017e-13 0 0)
(-3.06334e-13 0 0)
(-7.68265e-13 0 0)
(-6.61292e-13 0 0)
(-5.64043e-13 0 0)
(-4.52207e-13 0 0)
(-3.7927e-13 0 0)
(-3.11196e-13 0 0)
(-2.04222e-13 0 0)
(-2.13947e-13 0 0)
(-5.25143e-13 0 0)
(-6.71017e-13 0 0)
(-7.14779e-13 0 0)
(-8.80101e-13 0 0)
(-1.19616e-12 0 0)
(-1.20102e-12 0 0)
(-1.02597e-12 0 0)
(-1.05029e-12 0 0)
(-9.09276e-13 0 0)
(-1.12322e-12 0 0)
(-1.2302e-12 0 0)
(-1.57057e-12 0 0)
(-1.35176e-12 0 0)
(-1.60947e-12 0 0)
(-1.48304e-12 0 0)
(-1.51708e-12 0 0)
(-1.75534e-12 0 0)
(-1.7213e-12 0 0)
(-1.81855e-12 0 0)
(-1.61919e-12 0 0)
(-1.98388e-12 0 0)
(-1.90608e-12 0 0)
(-1.67268e-12 0 0)
(-1.78452e-12 0 0)
(-1.71158e-12 0 0)
(-1.66782e-12 0 0)
(-1.23506e-12 0 0)
(-1.0357e-12 0 0)
(-6.02942e-13 0 0)
(-5.54318e-13 0 0)
(-6.12667e-13 0 0)
(-5.34868e-13 0 0)
(-6.61292e-13 0 0)
(-5.88355e-13 0 0)
(-7.00191e-13 0 0)
(-5.39731e-13 0 0)
(-9.04414e-13 0 0)
(-7.29366e-13 0 0)
(-9.48176e-13 0 0)
(-6.27255e-13 0 0)
(-9.19001e-13 0 0)
(-5.44593e-13 0 0)
(-5.05694e-13 0 0)
(-3.74408e-13 0 0)
(-1.50736e-13 0 0)
(-3.74408e-13 0 0)
(-2.57709e-13 0 0)
(-3.45233e-13 0 0)
(-1.26423e-13 0 0)
(-8.26615e-14 0 0)
(-9.72488e-14 0 0)
(-1.31286e-13 0 0)
(2.13947e-13 0 0)
(-1.26423e-13 0 0)
(-4.71657e-13 0 0)
(-5.93218e-13 0 0)
(-6.56429e-13 0 0)
(-7.14779e-13 0 0)
(-4.23032e-13 0 0)
(-4.76519e-13 0 0)
(-2.52847e-13 0 0)
(-2.3826e-13 0 0)
(-1.55942e-26 0 0)
(2.04222e-13 0 0)
(1.75048e-13 0 0)
(-1.41011e-13 0 0)
(-1.7991e-13 0 0)
(-1.94498e-14 0 0)
(-2.72297e-13 0 0)
(-1.31286e-13 0 0)
(-4.76519e-13 0 0)
(-1.50736e-13 0 0)
(-2.91746e-13 0 0)
(1.84773e-13 0 0)
(-4.91106e-13 0 0)
(-2.23672e-13 0 0)
(-1.1135e-12 0 0)
(-9.33588e-13 0 0)
(-1.05029e-12 0 0)
(-6.3698e-13 0 0)
(-7.34228e-13 0 0)
(-5.54318e-13 0 0)
(-8.60652e-13 0 0)
(-5.7863e-13 0 0)
(-7.24503e-13 0 0)
(-4.91106e-13 0 0)
(-5.93218e-13 0 0)
(-7.7799e-14 0 0)
(8.26615e-14 0 0)
(3.01471e-13 0 0)
(3.45233e-13 0 0)
(1.16699e-13 0 0)
(-1.89635e-13 0 0)
(-2.72297e-13 0 0)
(-4.32757e-13 0 0)
(-2.62572e-13 0 0)
(-3.45233e-13 0 0)
(-1.16699e-13 0 0)
(-3.20921e-13 0 0)
)
;

boundaryField
{
    sides
    {
        type            calculated;
        value           nonuniform List<vector> 2((-3.20921e-13 0 0) (-1.68726e-12 0 0));
    }
    empty
    {
        type            empty;
    }
}


// ************************************************************************* //
