/*--------------------------------*- C++ -*----------------------------------*\
  =========                 |
  \\      /  F ield         | OpenFOAM: The Open Source CFD Toolbox
   \\    /   O peration     | Website:  https://openfoam.org
    \\  /    A nd           | Version:  13
     \\/     M anipulation  |
\*---------------------------------------------------------------------------*/
FoamFile
{
    format      ascii;
    class       volScalarField;
    location    "3000";
    object      p;
}
// * * * * * * * * * * * * * * * * * * * * * * * * * * * * * * * * * * * * * //

dimensions      [0 2 -2 0 0 0 0];

internalField   nonuniform List<scalar> 
9536
(
-1.0584452
-1.0579592
-1.0573754
-1.0567554
-1.0560395
-1.0552169
-1.054272
-1.0531856
-1.0519356
-1.0504964
-1.0488386
-1.0469284
-1.044727
-1.0421902
-1.0392674
-1.0359013
-1.0320271
-1.0275717
-1.0224533
-1.0165809
-1.009854
-1.0021626
-0.99338765
-0.9834019
-0.97207167
-0.95925915
-0.94482591
-0.92863731
-0.91056818
-0.89050936
-0.86837513
-0.84411105
-0.81770167
-0.78917731
-0.75861961
-0.72616361
-0.69199992
-0.65636456
-0.61954978
-0.58184929
-0.54365461
-0.50519144
-0.46706034
-0.42904251
-0.39252124
-0.35561515
-0.32261243
-0.28616582
-0.25980022
-0.2206028
-0.20609701
-0.15901295
-1.0585821
-1.0580947
-1.0575093
-1.0568875
-1.0561697
-1.0553447
-1.0543971
-1.0533077
-1.0520542
-1.050611
-1.0489485
-1.047033
-1.0448255
-1.0422817
-1.0393509
-1.0359758
-1.0320913
-1.0276243
-1.0224929
-1.016606
-1.0098631
-1.002154
-0.99335979
-0.98335324
-0.97200074
-0.95916464
-0.94470669
-0.92849256
-0.91039742
-0.89031252
-0.8681526
-0.84386368
-0.81743082
-0.78888486
-0.75830795
-0.72583561
-0.6916588
-0.65601392
-0.61919324
-0.58149073
-0.54329761
-0.50483995
-0.46671711
-0.42871307
-0.39220149
-0.35531746
-0.32232544
-0.28590094
-0.25956844
-0.22033208
-0.20603066
-0.1585156
-1.058875
-1.0583835
-1.0577933
-1.0571664
-1.0564427
-1.0556111
-1.0546559
-1.0535579
-1.0522945
-1.0508401
-1.0491651
-1.0472352
-1.0450115
-1.0424494
-1.0394982
-1.0361
-1.0321898
-1.0276941
-1.0225309
-1.0166088
-1.0098272
-1.002076
-0.9932361
-0.9831804
-0.9717755
-0.95888411
-0.94436849
-0.92809496
-0.90993951
-0.88979432
-0.86757521
-0.84322943
-0.81674327
-0.78814887
-0.75752958
-0.72502199
-0.69081787
-0.65515435
-0.61832384
-0.58062085
-0.54243568
-0.50399535
-0.46589617
-0.42792688
-0.39144621
-0.35461057
-0.32165824
-0.285272
-0.25904256
-0.21968893
-0.20589256
-0.15739057
-1.0592925
-1.0587944
-1.0581964
-1.0575612
-1.0568279
-1.0559853
-1.0550177
-1.0539056
-1.0526262
-1.0511537
-1.0494582
-1.0475052
-1.0452555
-1.0426642
-1.0396802
-1.0362454
-1.0322943
-1.0277533
-1.0225399
-1.0165625
-1.0097204
-1.0019032
-0.99299187
-0.98285945
-0.97137283
-0.95839525
-0.94378973
-0.9274236
-0.90917409
-0.88893494
-0.86662372
-0.84218957
-0.81562083
-0.78695165
-0.75626725
-0.723706
-0.68946094
-0.65377042
-0.61692699
-0.57922594
-0.54105611
-0.50264562
-0.4645868
-0.42667369
-0.39024656
-0.35348534
-0.32060429
-0.28427017
-0.2582194
-0.21866244
-0.2056854
-0.15559765
-1.0598337
-1.0593264
-1.0587175
-1.0580706
-1.0573241
-1.0564663
-1.0554815
-1.0543498
-1.0530483
-1.0515506
-1.0498266
-1.0478415
-1.0455556
-1.0429236
-1.0398939
-1.0364081
-1.0324001
-1.0277958
-1.0225125
-1.0164583
-1.0095319
-1.001623
-0.99261247
-0.98237371
-0.97077403
-0.95767741
-0.94294795
-0.92645439
-0.90807575
-0.88770786
-0.8652707
-0.84071607
-0.81403507
-0.78526464
-0.75449262
-0.72185972
-0.68756083
-0.6518358
-0.61497746
-0.57728196
-0.53913628
-0.50076948
-0.46276971
-0.42493565
-0.38858659
-0.35192707
-0.31915087
-0.28288367
-0.25708903
-0.21724308
-0.20540289
-0.15312622
-1.0604594
-1.0599404
-1.0593177
-1.0586559
-1.0578923
-1.0570151
-1.0560082
-1.0548514
-1.0535215
-1.0519916
-1.0502312
-1.0482049
-1.0458727
-1.0431887
-1.0401006
-1.0365495
-1.0324688
-1.0277838
-1.0224113
-1.0162589
-1.009225
-1.0011993
-0.99206249
-0.98168832
-0.96994471
-0.95669663
-0.94180953
-0.92515401
-0.90661137
-0.88608016
-0.86348349
-0.83877657
-0.81195406
-0.78305646
-0.75217497
-0.71945331
-0.68508866
-0.6493228
-0.61244885
-0.57476387
-0.5366527
-0.49834469
-0.46042479
-0.42269412
-0.38644937
-0.34992014
-0.31728402
-0.28109998
-0.25563936
-0.21542205
-0.20503312
-0.14996891
-1.0611311
-1.0605977
-1.0599582
-1.0592783
-1.0584939
-1.0575931
-1.0565593
-1.0553719
-1.0540073
-1.0524382
-1.0506333
-1.048557
-1.0461683
-1.0434207
-1.0402614
-1.0366307
-1.0324613
-1.0276779
-1.0221965
-1.0159243
-1.0087594
-1.0005911
-0.99130043
-0.98076135
-0.9688426
-0.95541036
-0.94033184
-0.92347988
-0.90473861
-0.88400994
-0.86122079
-0.83633054
-0.80933822
-0.78028869
-0.74927721
-0.71645118
-0.68201051
-0.64619926
-0.60931086
-0.57164329
-0.53357896
-0.49534652
-0.45753002
-0.41992891
-0.38381663
-0.34744799
-0.31498863
-0.27890651
-0.25385637
-0.21319243
-0.20455888
-0.1461248
-1.061784
-1.0612338
-1.0605746
-1.0598733
-1.0590644
-1.0581357
-1.0570703
-1.0558469
-1.0544415
-1.0528262
-1.050969
-1.0488337
-1.0463785
-1.0435562
-1.0403132
-1.0365888
-1.0323151
-1.0274159
-1.0218065
-1.0153935
-1.0080747
-0.99973895
-0.99026755
-0.97953489
-0.96741066
-0.95376251
-0.93845972
-0.92137785
-0.9024044
-0.88144529
-0.85843199
-0.83332883
-0.80614001
-0.77691552
-0.74575548
-0.71281153
-0.67828681
-0.64242794
-0.60552862
-0.56788775
-0.52988496
-0.49174676
-0.45406051
-0.41661742
-0.38066768
-0.34449215
-0.31224738
-0.27628953
-0.25172317
-0.21054822
-0.20395657
-0.14159903
-1.0623395
-1.06177
-1.0610883
-1.0603625
-1.0595256
-1.058565
-1.0574632
-1.0561986
-1.0547464
-1.0530781
-1.0511611
-1.0489581
-1.0464267
-1.0435188
-1.0401797
-1.036348
-1.0319547
-1.0269228
-1.0211667
-1.0145925
-1.0070973
-0.9985699
-0.98889166
-0.9779376
-0.96557852
-0.9516838
-0.93612517
-0.91878136
-0.89954381
-0.87832309
-0.85505594
-0.82971245
-0.80230278
-0.77288286
-0.74155833
-0.70848572
-0.67387182
-0.63796611
-0.60106235
-0.56346043
-0.52553663
-0.48751341
-0.44998849
-0.41273453
-0.37697937
-0.34103211
-0.30904077
-0.27323405
-0.24922001
-0.20748422
-0.20319636
-0.13640297
-1.0626946
-1.0621034
-1.0613967
-1.0606433
-1.0597749
-1.0587784
-1.0576359
-1.0563251
-1.0548204
-1.0530926
-1.0511083
-1.0488295
-1.0462126
-1.0432086
-1.0397618
-1.0358097
-1.0312824
-1.0261017
-1.0201813
-1.0134264
-1.0057337
-0.99699172
-0.98708207
-0.97588043
-0.96325893
-0.94908895
-0.93324503
-0.91560955
-0.89607843
-0.87456757
-0.85101972
-0.82541149
-0.79775981
-0.76812732
-0.73662588
-0.7034175
-0.66871296
-0.63276492
-0.59586679
-0.55831975
-0.52049544
-0.48261009
-0.445283
-0.40825243
-0.37272574
-0.33704501
-0.30534682
-0.26972348
-0.24632411
-0.20399568
-0.20224256
-0.13055446
-1.0627235
-1.0621085
-1.0613744
-1.0605905
-1.0596874
-1.0586514
-1.057464
-1.0561021
-1.0545396
-1.0527463
-1.050688
-1.0483255
-1.0456144
-1.0425046
-1.0389392
-1.0348546
-1.0301797
-1.0248353
-1.0187341
-1.0117805
-1.0038707
-0.99489301
-0.98472928
-0.97325604
-0.9603469
-0.94587555
-0.92971971
-0.91176587
-0.89191502
-0.87008902
-0.84623735
-0.82034391
-0.79243319
-0.76257528
-0.73088893
-0.69754217
-0.66275009
-0.62676881
-0.58989074
-0.55241894
-0.51471796
-0.47699534
-0.43990975
-0.40314038
-0.36787764
-0.33250525
-0.30114081
-0.2657392
-0.24300951
-0.20007792
-0.20105303
-0.12406225
-1.0622741
-1.0616332
-1.0608696
-1.0600527
-1.059112
-1.0580331
-1.056797
-1.0553798
-1.0537545
-1.0518902
-1.0497515
-1.0472984
-1.0444853
-1.0412607
-1.0375669
-1.0333388
-1.028504
-1.0229825
-1.0166857
-1.0095173
-1.0013728
-0.99214059
-0.98170266
-0.96993657
-0.95671765
-0.94192219
-0.92543145
-0.9071365
-0.88694398
-0.86478233
-0.84060847
-0.81441434
-0.78623273
-0.75614188
-0.72426806
-0.69078583
-0.65591483
-0.61991495
-0.58307649
-0.54570575
-0.50815516
-0.47062144
-0.43383069
-0.3973643
-0.36240226
-0.32738413
-0.29639503
-0.26126007
-0.23924689
-0.19572588
-0.19957461
-0.1169085
-1.061164
-1.0604955
-1.0597007
-1.0588484
-1.0578675
-1.0567428
-1.0554546
-1.0539783
-1.052286
-1.0503458
-1.0481213
-1.0455715
-1.0426494
-1.0393026
-1.0354717
-1.0310905
-1.0260855
-1.0203752
-1.0138703
-1.0064733
-0.99807932
-0.98857663
-0.97784771
-0.9657712
-0.95222436
-0.93708637
-0.92024241
-0.90158862
-0.88103779
-0.85852559
-0.83401708
-0.8075129
-0.77905487
-0.74873002
-0.71667274
-0.68306455
-0.64812984
-0.61213262
-0.57535937
-0.53812231
-0.50075171
-0.46343298
-0.42700353
-0.39088929
-0.3562628
-0.32164939
-0.2910785
-0.256262
-0.23500397
-0.19093771
-0.19777636
-0.10956053
-1.0591825
-1.058485
-1.0576577
-1.0567681
-1.0557447
-1.0545718
-1.0532288
-1.0516902
-1.0499274
-1.0479073
-1.0455927
-1.042941
-1.0399044
-1.0364289
-1.032454
-1.0279121
-1.0227283
-1.01682
-1.0100966
-1.0024601
-0.99380496
-0.98401939
-0.97298646
-0.96058611
-0.94669779
-0.93120385
-0.91399382
-0.89496933
-0.87404987
-0.85117893
-0.82633031
-0.79951406
-0.7707816
-0.7402294
-0.70800044
-0.6742836
-0.63930815
-0.60334262
-0.56666737
-0.52960544
-0.49244584
-0.45536736
-0.41939387
-0.38369174
-0.34941859
-0.31526507
-0.28515663
-0.25071694
-0.23024317
-0.18569888
-0.19562273
-0.10186825
-1.0560803
-1.0553526
-1.0544919
-1.0535635
-1.0524961
-1.0512731
-1.0498732
-1.0482701
-1.0464341
-1.0443312
-1.041923
-1.0391658
-1.0360106
-1.0324019
-1.028278
-1.0235699
-1.0182013
-1.0120885
-1.0051399
-0.99725652
-0.98833255
-0.97825621
-0.9669113
-0.95417923
-0.93994186
-0.92408507
-0.90650302
-0.88710333
-0.86581268
-0.84258292
-0.81739718
-0.79027549
-0.7612795
-0.7305156
-0.69813578
-0.66433663
-0.62935248
-0.59345687
-0.55692134
-0.52008923
-0.4831721
-0.44635186
-0.41099361
-0.37561394
-0.34180519
-0.30818708
-0.2785905
-0.24459216
-0.22491944
-0.17997503
-0.19294048
-0.093280065
-1.0515814
-1.0508228
-1.0499286
-1.0489603
-1.0478479
-1.0465738
-1.0451157
-1.0434466
-1.0415358
-1.0393484
-1.0368447
-1.0339799
-1.0307036
-1.0269592
-1.0226834
-1.0178061
-1.0122496
-1.0059289
-0.99875151
-0.99061775
-0.98142146
-0.97105108
-0.95939127
-0.94632517
-0.93173734
-0.91551748
-0.89756485
-0.87779344
-0.85613761
-0.83255807
-0.8070478
-0.7796373
-0.75039888
-0.71944926
-0.6869498
-0.65310501
-0.61815453
-0.58237734
-0.54603304
-0.50949761
-0.47280838
-0.43614135
-0.40131328
-0.36659591
-0.33344328
-0.30037077
-0.27133744
-0.23785132
-0.21898732
-0.17375139
-0.18968151
-0.084257738
-1.0453576
-1.044568
-1.0436404
-1.0426321
-1.0414744
-1.0401488
-1.0386322
-1.0368968
-1.0349109
-1.0326385
-1.030039
-1.0270663
-1.0236687
-1.0197884
-1.0153607
-1.0103143
-1.0045702
-0.9980424
-0.99063739
-0.98225495
-0.97278874
-0.96212757
-0.95015719
-0.93676268
-0.92183156
-0.90525767
-0.88694566
-0.86681628
-0.84481199
-0.82090279
-0.79509193
-0.76742082
-0.73797281
-0.70687518
-0.67429887
-0.64045638
-0.60559298
-0.56999305
-0.53390508
-0.49776286
-0.46126632
-0.42527442
-0.3909845
-0.35737519
-0.32426485
-0.29181291
-0.26335311
-0.23045375
-0.21239748
-0.16700684
-0.18577899
-0.074896584
-1.0370678
-1.0362477
-1.0352876
-1.0342396
-1.0330372
-1.0316608
-1.0300865
-1.0282857
-1.0262258
-1.0238697
-1.0211758
-1.0180968
-1.01458
-1.0105661
-1.0059893
-1.000777
-0.99484921
-0.98811873
-0.98049141
-0.97186654
-0.96213779
-0.95119457
-0.93892395
-0.92521326
-0.90995333
-0.89304249
-0.87439123
-0.85392746
-0.83160212
-0.8073949
-0.78131964
-0.7534289
-0.72381722
-0.69262262
-0.66002573
-0.62624741
-0.59154059
-0.55619969
-0.52049452
-0.48501583
-0.44922779
-0.41406029
-0.37948741
-0.34671415
-0.31423854
-0.28239617
-0.25457876
-0.22235102
-0.20509565
-0.15971172
-0.18114809
-0.065194345
-1.0262897
-1.02544
-1.0244492
-1.0233628
-1.0221171
-1.0206916
-1.0190616
-1.0171977
-1.0150664
-1.0126297
-1.0098449
-1.0066638
-1.0030325
-0.99889058
-0.99417123
-0.98880061
-0.9826978
-0.97577484
-0.967937
-0.95908335
-0.94910781
-0.93790065
-0.92535054
-0.9113473
-0.89578533
-0.87856773
-0.85961105
-0.83885064
-0.81624618
-0.79178729
-0.76549861
-0.73744401
-0.70772925
-0.67650283
-0.64395439
-0.61031145
-0.57583075
-0.54080258
-0.50549494
-0.47032802
-0.4354415
-0.40090549
-0.36676374
-0.33411376
-0.30299238
-0.27203385
-0.24494944
-0.21348926
-0.1970231
-0.15182973
-0.17570029
-0.055180424
-1.0126321
-1.0117547
-1.0107356
-1.0096129
-1.0083265
-1.0068549
-1.0051725
-1.0032494
-1.001051
-0.99853877
-0.99566891
-0.9923923
-0.98865396
-0.98439261
-0.97954038
-0.97402251
-0.96775729
-0.96065613
-0.95262393
-0.94355978
-0.93335814
-0.9219104
-0.9091072
-0.89484125
-0.87901096
-0.86152466
-0.84230545
-0.82129652
-0.79846664
-0.77381556
-0.74737881
-0.71923143
-0.68949014
-0.65831348
-0.6258995
-0.59248146
-0.55831891
-0.52369607
-0.48888186
-0.45419299
-0.41982878
-0.385512
-0.35287832
-0.32117461
-0.29080651
-0.26072087
-0.23441275
-0.203812
-0.18811703
-0.14331728
-0.16934117
-0.044880178
-0.99554997
-0.99464734
-0.99360311
-0.99244727
-0.9911239
-0.98961031
-0.98788047
-0.98590355
-0.98364458
-0.98106408
-0.97811756
-0.9747551
-0.97092091
-0.96655293
-0.96158254
-0.95593436
-0.94952617
-0.94226908
-0.93406801
-0.92482246
-0.91442778
-0.9027769
-0.88976275
-0.87528124
-0.859235
-0.84153773
-0.82211913
-0.80093027
-0.777949
-0.75318521
-0.72668526
-0.6985353
-0.66886278
-0.63783591
-0.60566061
-0.57257533
-0.53884217
-0.50474142
-0.47054624
-0.43654125
-0.40298394
-0.36981263
-0.33789665
-0.30697067
-0.27749483
-0.24836921
-0.22289856
-0.19325472
-0.17830972
-0.1341233
-0.16197199
-0.03431197
-0.97465407
-0.9737295
-0.97266438
-0.97147978
-0.97012441
-0.96857461
-0.96680379
-0.96478058
-0.96246945
-0.95983032
-0.95681808
-0.95338219
-0.94946621
-0.94500751
-0.93993693
-0.93417866
-0.92765021
-0.92026266
-0.91192122
-0.90252607
-0.89197381
-0.88015929
-0.86697818
-0.85233012
-0.83612258
-0.81827527
-0.79872519
-0.77743184
-0.75438256
-0.72959744
-0.70313348
-0.67508738
-0.64559655
-0.61483788
-0.58302405
-0.55039757
-0.51722173
-0.48377263
-0.45032168
-0.41713285
-0.384466
-0.3523639
-0.32141345
-0.29145906
-0.26298108
-0.23490263
-0.21033421
-0.18174746
-0.16752921
-0.12418952
-0.1534907
-0.02348549
-0.94920808
-0.94826545
-0.94718188
-0.94597428
-0.94459316
-0.94301429
-0.94121066
-0.93915056
-0.93679806
-0.93411271
-0.93104901
-0.92755607
-0.92357716
-0.9190494
-0.91390354
-0.90806378
-0.9014479
-0.89396752
-0.8855287
-0.87603296
-0.86537873
-0.85346336
-0.8401857
-0.8254494
-0.80916683
-0.7912636
-0.77168362
-0.75039433
-0.72739202
-0.70270653
-0.67640508
-0.64859456
-0.61942187
-0.589072
-0.55776358
-0.52574217
-0.49327109
-0.46062194
-0.42806128
-0.39583946
-0.36420443
-0.33325223
-0.30340204
-0.27455474
-0.24717422
-0.22023732
-0.19664163
-0.16921485
-0.15569983
-0.11345103
-0.14379256
-0.012399961
-0.91896662
-0.9180114
-0.91691365
-0.91569033
-0.91429142
-0.91269246
-0.91086626
-0.90878088
-0.90640018
-0.90368351
-0.90058521
-0.89705422
-0.89303375
-0.88846093
-0.88326662
-0.87737531
-0.87070527
-0.86316888
-0.85467335
-0.84512179
-0.83441481
-0.82245263
-0.80913784
-0.79437883
-0.77809381
-0.76021537
-0.74069552
-0.71951077
-0.69666709
-0.67220432
-0.64619948
-0.61876857
-0.59006643
-0.56028423
-0.52964455
-0.49839404
-0.46679403
-0.43511024
-0.40360145
-0.3725059
-0.34205431
-0.31236816
-0.28375518
-0.25615005
-0.22997802
-0.20428479
-0.18173868
-0.15557732
-0.14274317
-0.1018375
-0.13277074
-0.0010426286
-0.88280133
-0.88183977
-0.88073482
-0.87950365
-0.87809598
-0.87648734
-0.87465053
-0.87255363
-0.87016059
-0.86743086
-0.86431901
-0.86077429
-0.85674033
-0.85215486
-0.84694952
-0.84104988
-0.83437555
-0.82684062
-0.81835444
-0.80882277
-0.79814936
-0.78623819
-0.77299621
-0.75833677
-0.74218363
-0.72447558
-0.70517138
-0.68425494
-0.66174023
-0.63767556
-0.61214659
-0.58527772
-0.55723117
-0.52820373
-0.49842108
-0.46812982
-0.43758779
-0.4070534
-0.37677522
-0.34697865
-0.31787478
-0.28959209
-0.26236236
-0.23613811
-0.21129429
-0.18695349
-0.16554066
-0.14075274
-0.1285797
-0.089275252
-0.12031666
0.010612499
-0.84098769
-0.84002751
-0.83892432
-0.83769517
-0.83628996
-0.83468435
-0.8328513
-0.83075912
-0.82837203
-0.82564983
-0.8225475
-0.81901481
-0.81499605
-0.8104297
-0.8052484
-0.79937886
-0.79274212
-0.78525404
-0.77682612
-0.76736672
-0.75678285
-0.74498247
-0.7318774
-0.71738689
-0.70144176
-0.68398902
-0.66499667
-0.64445856
-0.62239877
-0.59887529
-0.57398234
-0.54785119
-0.52064877
-0.49257413
-0.46385242
-0.43472669
-0.40544808
-0.37626498
-0.34741299
-0.31910263
-0.29152402
-0.26480076
-0.23910982
-0.21441107
-0.19102356
-0.16815058
-0.14796235
-0.12465894
-0.11313121
-0.075690762
-0.10632078
0.022605129
-0.79147599
-0.7905253
-0.78943304
-0.78821629
-0.78682551
-0.78523676
-0.78342347
-0.78135452
-0.77899483
-0.77630505
-0.77324116
-0.76975416
-0.76578979
-0.76128831
-0.75618442
-0.75040731
-0.74388094
-0.73652457
-0.72825363
-0.71898098
-0.70861864
-0.69708006
-0.68428294
-0.67015264
-0.65462612
-0.63765643
-0.61921743
-0.59930865
-0.5779598
-0.5552345
-0.53123261
-0.50609059
-0.47997957
-0.45310088
-0.42567914
-0.39795346
-0.37016728
-0.34255755
-0.31534509
-0.28872358
-0.26286128
-0.23786962
-0.21388284
-0.19086156
-0.16906699
-0.14778427
-0.12892063
-0.10721697
-0.096324246
-0.061015947
-0.090671469
0.034997029
-0.73602684
-0.73509582
-0.73402645
-0.73283518
-0.73147361
-0.72991836
-0.72814351
-0.7261187
-0.72380974
-0.72117827
-0.71818146
-0.7147716
-0.71089592
-0.70649638
-0.70150957
-0.69586684
-0.68949458
-0.68231482
-0.67424611
-0.66520494
-0.65510757
-0.64387245
-0.63142321
-0.61769235
-0.60262526
-0.58618481
-0.56835581
-0.54914938
-0.52860659
-0.50680111
-0.48384043
-0.45986537
-0.4350477
-0.40958554
-0.38369668
-0.35761006
-0.33155578
-0.30575472
-0.28040909
-0.25569265
-0.23175024
-0.20867617
-0.18656878
-0.16538513
-0.14532906
-0.12576675
-0.10833796
-0.088355459
-0.078094995
-0.045195089
-0.073246198
0.047887483
-0.67024081
-0.66933958
-0.66830429
-0.66715132
-0.66583389
-0.66432951
-0.66261337
-0.66065641
-0.65842594
-0.65588541
-0.65299406
-0.64970663
-0.64597319
-0.64173902
-0.63694455
-0.63152556
-0.62541353
-0.61853623
-0.6108187
-0.60218453
-0.59255762
-0.5818644
-0.57003655
-0.55701415
-0.54274941
-0.52721066
-0.51038667
-0.49229095
-0.47296566
-0.45248476
-0.43095567
-0.40851889
-0.38534518
-0.36163017
-0.33758667
-0.31343526
-0.28939395
-0.2656679
-0.24244037
-0.21986429
-0.19806085
-0.17710476
-0.15706291
-0.13788633
-0.1197239
-0.10202111
-0.086150024
-0.068019862
-0.058402055
-0.02820974
-0.053954972
0.061246833
-0.59977337
-0.59891415
-0.59792769
-0.59682891
-0.59557334
-0.59413965
-0.59250416
-0.59063923
-0.58851376
-0.58609296
-0.58333804
-0.58020592
-0.57664909
-0.57261544
-0.56804828
-0.5628865
-0.55706492
-0.55051495
-0.54316558
-0.53494475
-0.52578125
-0.51560716
-0.50436078
-0.49199019
-0.47845718
-0.46374144
-0.44784466
-0.43079415
-0.41264566
-0.39348481
-0.37342704
-0.35261586
-0.33121922
-0.30942411
-0.28742946
-0.26543766
-0.24364522
-0.22223338
-0.20135992
-0.1811518
-0.1617034
-0.14306651
-0.12527825
-0.10828146
-0.092173426
-0.076476247
-0.062299537
-0.046166809
-0.03722661
-0.010100955
-0.032771131
0.075129819
-0.5143202
-0.51351593
-0.51259203
-0.51156353
-0.51038877
-0.50904795
-0.50751929
-0.5057773
-0.50379346
-0.50153593
-0.49896932
-0.49605456
-0.49274868
-0.48900485
-0.48477244
-0.47999721
-0.47462179
-0.46858629
-0.46182931
-0.45428917
-0.44590562
-0.43662185
-0.42638694
-0.4151587
-0.40290685
-0.38961643
-0.37529131
-0.35995773
-0.34366727
-0.32649906
-0.30856061
-0.28998662
-0.27093556
-0.25158381
-0.23211786
-0.21272505
-0.19358386
-0.17485477
-0.15667249
-0.13913992
-0.12232656
-0.10626232
-0.090958444
-0.076350243
-0.06248971
-0.04897353
-0.036661802
-0.022698845
-0.014501071
0.0091767396
-0.0088172406
0.093077776
-0.428988
-0.42824802
-0.42739929
-0.42645409
-0.42537445
-0.42414225
-0.42273747
-0.42113676
-0.41931393
-0.41723978
-0.41488187
-0.4122043
-0.40916763
-0.40572886
-0.40184144
-0.39745554
-0.39251843
-0.3869752
-0.38076971
-0.37384589
-0.36614958
-0.35763068
-0.34824589
-0.33796174
-0.32675805
-0.31463135
-0.30159829
-0.2876983
-0.2729955
-0.25757917
-0.24156282
-0.22508148
-0.20828738
-0.19134403
-0.17441896
-0.15767559
-0.14126486
-0.12531736
-0.10993688
-0.095195736
-0.081133813
-0.067755389
-0.05504497
-0.042928566
-0.031417063
-0.020179594
-0.0098444765
0.0018112635
0.0091581692
0.028706208
0.017688671
0.10631404
-0.32249278
-0.32184408
-0.32109997
-0.32027153
-0.31932553
-0.31824622
-0.31701629
-0.31561556
-0.31402145
-0.31220885
-0.31014996
-0.30781411
-0.30516778
-0.30217454
-0.29879522
-0.29498815
-0.29070959
-0.2859144
-0.28055696
-0.27459237
-0.26797803
-0.26067553
-0.2526529
-0.24388723
-0.23436739
-0.22409696
-0.21309697
-0.2014083
-0.18909331
-0.17623642
-0.16294318
-0.14933757
-0.13555753
-0.12174867
-0.10805689
-0.094620287
-0.081561296
-0.068979812
-0.056948034
-0.045507293
-0.034668117
-0.024409918
-0.014693205
-0.0054370026
0.0033812454
0.012014056
0.020033161
0.028966721
0.034787734
0.048219201
0.041431535
0.071208283
-0.20029332
-0.19974787
-0.19910954
-0.19841559
-0.19762155
-0.19671594
-0.19568487
-0.19451177
-0.19317824
-0.19166392
-0.18994638
-0.18800109
-0.18580139
-0.18331859
-0.18052216
-0.17738002
-0.17385902
-0.1699256
-0.16554666
-0.16069067
-0.15532909
-0.14943798
-0.1429999
-0.13600596
-0.12845796
-0.12037045
-0.11177255
-0.10270935
-0.093242544
-0.08345023
-0.073425472
-0.06327363
-0.053108276
-0.043045804
-0.033199047
-0.023670389
-0.01454512
-0.0058858044
0.0022716352
0.0099196999
0.017078215
0.023792661
0.030123786
0.036159994
0.041945888
0.047679687
0.053074615
0.059194076
0.063282237
0.072442585
0.069545911
0.088857046
-0.078180931
-0.077750953
-0.077257795
-0.076709204
-0.076083438
-0.07537044
-0.074559276
-0.073637244
-0.07259029
-0.07140292
-0.07005815
-0.068537519
-0.066821079
-0.064887553
-0.0627145
-0.060278625
-0.057556213
-0.054523737
-0.051158653
-0.047440404
-0.043351651
-0.038879754
-0.034018433
-0.028769609
-0.023145269
-0.017169238
-0.01087863
-0.0043246977
0.0024271979
0.0092987561
0.016201242
0.023039299
0.02971593
0.036138242
0.042223486
0.047904809
0.053136166
0.05789584
0.062188172
0.066043299
0.069514421
0.072674195
0.075605063
0.078404841
0.08113439
0.083951992
0.086665182
0.089992114
0.092039248
0.097360205
0.095111183
0.10633946
0.056271892
0.056571017
0.056914106
0.057295216
0.057729317
0.058223062
0.058783589
0.059419092
0.060138553
0.060951694
0.061868994
0.062901614
0.06406129
0.065360164
0.066810543
0.068424547
0.070213675
0.072188227
0.074356602
0.076724455
0.079293735
0.082061595
0.085019301
0.088151096
0.091433228
0.094833184
0.098309302
0.10181089
0.10527896
0.10864777
0.11184715
0.11480586
0.11745568
0.11973635
0.12160066
0.12301934
0.1239849
0.12451406
0.12464797
0.12445053
0.12400415
0.12340465
0.12275183
0.12215025
0.12167065
0.12144053
0.12133215
0.12181858
0.12160325
0.12356958
0.12092927
0.12657261
0.19302698
0.19318388
0.19336333
0.19356226
0.19378818
0.19404412
0.19433326
0.19465916
0.19502553
0.19543623
0.19589517
0.1964062
0.19697298
0.19759877
0.1982862
0.19903689
0.19985111
0.20072722
0.20166114
0.20264563
0.20366952
0.20471695
0.20576648
0.20679036
0.20775396
0.20861546
0.20932608
0.20983087
0.21007046
0.2099836
0.20951066
0.20859788
0.207202
0.20529484
0.2028674
0.19993296
0.19652874
0.19271588
0.18857755
0.18421515
0.1797427
0.17528026
0.17094471
0.16684753
0.16306636
0.15970537
0.15667718
0.15428311
0.15164307
0.1504745
0.14662531
0.1479741
0.3365405
0.33654531
0.33655019
0.3365545
0.33655782
0.33655934
0.33655789
0.33655193
0.33653946
0.33651783
0.33648369
0.33643277
0.33635966
0.3362576
0.33611817
0.33593095
0.33568313
0.33535912
0.33494006
0.33440335
0.33372223
0.33286538
0.33179667
0.33047514
0.32885526
0.32688758
0.32451995
0.32169919
0.31837351
0.3144954
0.31002513
0.30493464
0.29921157
0.29286308
0.28591902
0.2784338
0.27048679
0.26218052
0.25363707
0.24499245
0.23638947
0.22796979
0.21986465
0.21219037
0.20502749
0.19846019
0.19242129
0.18711157
0.18200491
0.17767727
0.17217923
0.17004356
0.48173146
0.48157616
0.48139705
0.48119644
0.48096556
0.48069956
0.48039281
0.48003857
0.47962889
0.47915456
0.47860485
0.47796724
0.47722728
0.4763682
0.47537068
0.4742125
0.47286824
0.47130887
0.46950155
0.46740928
0.46499077
0.46220043
0.45898854
0.4553017
0.45108376
0.44627709
0.44082459
0.4346722
0.4277722
0.420087
0.41159343
0.40228702
0.39218601
0.38133444
0.36980398
0.35769398
0.34512953
0.33225755
0.31924091
0.30625103
0.29345934
0.28102835
0.26910289
0.25780423
0.24722041
0.23744412
0.22845895
0.22057565
0.21172795
0.20469736
0.19759029
0.19232426
0.62931737
0.62899651
0.62862728
0.62821481
0.62774176
0.62719906
0.62657645
0.62586173
0.62504083
0.62409763
0.62301366
0.62176782
0.62033607
0.61869114
0.61680217
0.61463443
0.61214901
0.60930257
0.60604727
0.60233065
0.59809585
0.59328207
0.58782527
0.58165938
0.57471799
0.5669366
0.55825546
0.54862301
0.53799985
0.52636305
0.51371047
0.50006495
0.48547772
0.47003063
0.4538368
0.43703917
0.41980677
0.40232885
0.38480704
0.36744608
0.35044386
0.33398134
0.31821358
0.30326057
0.28921031
0.27611692
0.26364146
0.25281069
0.24188105
0.23245387
0.22275259
0.21448085
0.77621912
0.7757293
0.77516598
0.77453734
0.77381722
0.77299234
0.77204775
0.77096572
0.76972602
0.76830557
0.76667816
0.76481407
0.76267974
0.76023743
0.75744486
0.75425496
0.75061561
0.74646951
0.74175423
0.73640241
0.73034226
0.72349841
0.7157932
0.7071484
0.69748772
0.6867397
0.67484149
0.66174314
0.64741232
0.63183938
0.61504213
0.59707013
0.57800773
0.55797542
0.53712896
0.5156561
0.49377068
0.47170462
0.44969796
0.42798789
0.40679738
0.38632413
0.36673104
0.34813354
0.33061312
0.31400301
0.2985653
0.28412407
0.27167445
0.25937404
0.24701592
0.23615025
0.92157392
0.92091448
0.92015636
0.9193107
0.91834255
0.91723436
0.91596647
0.91451563
0.91285536
0.91095562
0.90878241
0.90629731
0.90345717
0.90021371
0.89651311
0.89229584
0.88749643
0.88204345
0.87585973
0.86886283
0.8609659
0.85207894
0.84211069
0.83097106
0.81857434
0.80484305
0.78971253
0.77313608
0.75509041
0.73558112
0.71464775
0.69236783
0.66885935
0.64428114
0.61883066
0.59273899
0.56626306
0.53967553
0.51325297
0.48726329
0.46195331
0.43753747
0.41418961
0.39203367
0.37116171
0.35159187
0.33337941
0.3154698
0.29955176
0.28491092
0.27042019
0.25709491
1.0630616
1.0622343
1.0612834
1.0602229
1.0590094
1.0576209
1.0560332
1.0542176
1.0521416
1.0497681
1.0470556
1.0439571
1.0404202
1.0363861
1.0317899
1.02656
1.0206178
1.0138783
1.0062501
0.99763633
0.98793566
0.97704415
0.9648576
0.95127467
0.93620073
0.91955259
0.90126383
0.88129081
0.85961881
0.83626811
0.81129927
0.78481713
0.75697278
0.72796288
0.69802605
0.66743594
0.63649152
0.60550485
0.57478742
0.54463597
0.51531901
0.48706503
0.46005388
0.43440788
0.41020016
0.38742598
0.3660576
0.34615464
0.32719862
0.30968574
0.29284285
0.27712039
1.1992138
1.198223
1.1970844
1.1958149
1.1943624
1.1927011
1.1908022
1.1886316
1.1861508
1.1833163
1.1800789
1.1763835
1.1721684
1.167365
1.1618973
1.1556819
1.1486277
1.1406365
1.1316029
1.1214162
1.1099609
1.0971196
1.0827759
1.0668176
1.0491418
1.0296604
1.0083058
0.98503818
0.95985214
0.93278304
0.90391261
0.87337273
0.84134673
0.80806777
0.77381378
0.73889888
0.70366171
0.66845135
0.63361184
0.59946663
0.56630416
0.53436581
0.5038374
0.47484242
0.44744684
0.42164687
0.39739572
0.37463361
0.35318141
0.33311669
0.31400831
0.2960157
1.3280541
1.3269069
1.3255886
1.324119
1.3224379
1.3205155
1.3183186
1.3158084
1.3129404
1.3096649
1.3059256
1.3016594
1.2967961
1.2912574
1.2849571
1.2778006
1.2696848
1.260499
1.2501248
1.2384382
1.2253108
1.2106125
1.1942151
1.1759968
1.155847
1.1336728
1.109406
1.0830105
1.0544896
1.0238932
0.99132316
0.95693711
0.92094911
0.88362707
0.84528623
0.80627898
0.76698133
0.72777692
0.68903999
0.65111848
0.61431885
0.57889384
0.54503406
0.51286334
0.48244122
0.45376264
0.4267757
0.40139655
0.37748371
0.35501238
0.33373073
0.31360238
1.4479712
1.4466773
1.4451903
1.4435328
1.441637
1.4394695
1.436993
1.4341639
1.4309325
1.427243
1.4230326
1.4182308
1.4127591
1.4065306
1.3994491
1.3914096
1.382298
1.3719917
1.3603604
1.3472675
1.3325725
1.3161336
1.297812
1.2774766
1.2550099
1.2303151
1.2033235
1.174003
1.1423656
1.108475
1.0724523
1.0344795
0.99479935
0.9537122
0.91156787
0.86875401
0.82568089
0.78276375
0.74040426
0.69897241
0.65879072
0.62012189
0.58316066
0.54803054
0.51478624
0.48341906
0.45387075
0.42605096
0.39983026
0.3751327
0.35181652
0.32971193
1.55727
1.555841
1.55419
1.5523614
1.5502686
1.5478759
1.5451426
1.5420206
1.5384555
1.5343859
1.529743
1.5244495
1.5184195
1.5115577
1.5037595
1.49491
1.484885
1.4735513
1.4607675
1.4463857
1.4302543
1.4122211
1.3921376
1.3698643
1.3452778
1.3182775
1.2887949
1.2568012
1.2223168
1.1854181
1.1462439
1.1049984
1.0619509
1.017431
0.97182007
0.92553785
0.87902552
0.83272675
0.78706768
0.74243792
0.69917409
0.65754745
0.61775637
0.57992366
0.54410046
0.51027411
0.47838166
0.44832802
0.41999264
0.39327028
0.36809156
0.34419275
1.6544496
1.6528988
1.6510888
1.6491089
1.6468401
1.6442458
1.6412828
1.6378989
1.6340353
1.6296258
1.624596
1.6188628
1.6123335
1.6049057
1.5964667
1.5868932
1.576052
1.5638002
1.5499867
1.5344537
1.5170397
1.497583
1.4759267
1.4519241
1.4254463
1.3963899
1.3646861
1.3303099
1.2932887
1.2537108
1.2117309
1.1675729
1.1215297
1.0739572
1.0252646
0.97589997
0.9263317
0.87702837
0.82843751
0.78096571
0.73496176
0.69070417
0.64839433
0.60815431
0.57003249
0.53401261
0.50002847
0.46798171
0.43775847
0.4092374
0.38239829
0.35690937
1.7381373
1.7364809
1.7345312
1.7324209
1.7299998
1.7272312
1.7240695
1.720459
1.7163371
1.7116336
1.7062692
1.7001556
1.6931944
1.6852769
1.6762835
1.6660837
1.6545364
1.6414904
1.6267862
1.6102574
1.591734
1.5710464
1.5480302
1.5225327
1.4944206
1.4635879
1.429966
1.393533
1.354323
1.3124343
1.2680354
1.2213675
1.1727437
1.1225423
1.0711967
1.0191789
0.96698055
0.91509146
0.86397725
0.81405883
0.76569516
0.71917079
0.67468952
0.63237289
0.592267
0.55435273
0.51856161
0.48479341
0.45293925
0.42286945
0.39459817
0.36774349
1.8070714
1.8053275
1.8032608
1.8010427
1.7984957
1.7955829
1.7922567
1.7884589
1.7841235
1.7791768
1.7735359
1.7671079
1.75979
1.751468
1.7420169
1.7313
1.7191698
1.7054686
1.6900296
1.6726796
1.6532415
1.6315391
1.6074021