/*--------------------------------*- C++ -*----------------------------------*\
  =========                 |
  \\      /  F ield         | OpenFOAM: The Open Source CFD Toolbox
   \\    /   O peration     | Website:  https://openfoam.org
    \\  /    A nd           | Version:  13
     \\/     M anipulation  |
\*---------------------------------------------------------------------------*/
FoamFile
{
    format      ascii;
    class       surfaceScalarField;
    location    "3000";
    object      phi;
}
// * * * * * * * * * * * * * * * * * * * * * * * * * * * * * * * * * * * * * //

dimensions      [0 3 -1 0 0 0 0];

internalField   nonuniform List<scalar> 
18914
(
1.6757381e-09
-1.0556016e-09
-6.2014432e-10
7.7124912e-09
-3.8045033e-09
-2.2322665e-09
2.0037298e-08
-7.7718336e-09
-4.5530022e-09
4.1274279e-08
-1.3401751e-08
-7.8352661e-09
7.4982373e-08
-2.1291803e-08
-1.2416335e-08
1.2597115e-07
-3.2243784e-08
-1.8745043e-08
2.0072074e-07
-4.7332012e-08
-2.7417637e-08
3.0793957e-07
-6.7993929e-08
-3.9224953e-08
4.593042e-07
-9.6150337e-08
-5.5214341e-08
6.7043973e-07
-1.3436469e-07
-7.6770871e-08
9.6221713e-07
-1.8605377e-07
-1.0572364e-07
1.3624678e-06
-2.5576597e-07
-1.4448474e-07
1.9082462e-06
-3.4954794e-07
-1.9623037e-07
2.6488099e-06
-4.7542718e-07
-2.6513663e-07
3.6495398e-06
-6.4404461e-07
-3.5668548e-07
4.9970823e-06
-8.6948262e-07
-4.7806058e-07
6.8060829e-06
-1.1703442e-06
-6.3865783e-07
9.2279767e-06
-1.5711548e-06
-8.5074124e-07
1.246243e-05
-2.1041747e-06
-1.1302816e-06
1.6772179e-05
-2.8117299e-06
-1.498024e-06
2.2502205e-05
-3.7491931e-06
-1.9808382e-06
3.0104385e-05
-4.9887684e-06
-2.6134164e-06
4.0169033e-05
-6.6242612e-06
-3.4403917e-06
5.346502e-05
-8.7770353e-06
-4.5189588e-06
7.0990478e-05
-1.1603381e-05
-5.9220889e-06
9.4036415e-05
-1.5303527e-05
-7.7424295e-06
0.00012426591
-2.0132541e-05
-1.0096987e-05
0.00016381189
-2.6413327e-05
-1.313268e-05
0.00021539666
-3.4551956e-05
-1.7032855e-05
0.00028247691
-4.505546e-05
-2.2024824e-05
0.00036941768
-5.8552276e-05
-2.8388516e-05
0.00048169936
-7.5815423e-05
-3.6466289e-05
0.0006261619
-9.7788569e-05
-4.6674005e-05
0.0008112905
-0.00012561515
-5.9513505e-05
0.001047548
-0.00016067086
-7.5586699e-05
0.0013477594
-0.00020459984
-9.5611609e-05
0.0017275554
-0.0002593552
-0.0001204409
0.002205883
-0.00032724427
-0.00015108338
0.0028055923
-0.00041097947
-0.0001887299
0.0035541089
-0.00051373465
-0.00023478198
0.0044842086
-0.00063920952
-0.00029089039
0.0056348915
-0.00079170567
-0.00035897733
0.0070524098
-0.00097621148
-0.00044130697
0.0087913668
-0.0011985266
-0.00054043054
0.010916124
-0.0014653859
-0.00065937173
0.013501969
-0.0017841831
-0.00080166212
0.016637039
-0.0021639054
-0.00097116422
0.02042386
-0.0026141033
-0.001172717
0.024979582
-0.0031449947
-0.0014107272
0.030448637
-0.0037759424
-0.0016931117
0.036964982
-0.0044958654
-0.0020204784
-0.0054174204
0.044799894
-0.0024174907
1.7187856e-09
-2.7744008e-09
7.910236e-09
-9.9959781e-09
2.0550081e-08
-2.0411711e-08
4.2329444e-08
-3.5181154e-08
7.6898176e-08
-5.5860582e-08
1.2918872e-07
-8.4534375e-08
2.0584674e-07
-1.2399009e-07
3.1580316e-07
-1.779504e-07
4.7103282e-07
-2.5138003e-07
6.8755985e-07
-3.5089174e-07
9.86788e-07
-4.8528192e-07
1.3972587e-06
-6.6623666e-07
1.9569707e-06
-9.0926001e-07
2.7164357e-06
-1.2348923e-06
3.742696e-06
-1.6703055e-06
5.1245962e-06
-2.2513839e-06
6.9796829e-06
-3.0254327e-06
9.4632127e-06
-4.0546875e-06
1.2779875e-05
-5.4208407e-06
1.7198994e-05
-7.2308532e-06
2.3074165e-05
-9.6243697e-06
3.0868508e-05
-1.2783116e-05
4.1186961e-05
-1.6942722e-05
5.4817368e-05
-2.2407455e-05
7.278239e-05
-2.9568423e-05
9.6404635e-05
-3.8925804e-05
0.00012738774
-5.1115682e-05
0.00016791642
-6.6942056e-05
0.00022077891
-8.7414494e-05
0.00028951531
-0.0001137919
0.00037859567
-0.0001476327
0.00049363199
-0.00019085182
0.0006416281
-0.00024578479
0.00083127232
-0.0003152595
0.0010732777
-0.00040267641
0.0013807761
-0.00051209838
0.0017697725
-0.00064835177
0.0022596682
-0.00081714019
0.0028738626
-0.0010251742
0.0036404428
-0.0012803152
0.004592977
-0.0015917444
0.0057714137
-0.001970143
0.00722313
-0.0024279284
0.009004083
-0.0029794799
0.011180222
-0.0036415247
0.01382875
-0.0044327111
0.017039975
-0.0053751294
0.020919177
-0.0064933026
0.025586312
-0.0078121253
0.03118996
-0.0093795843
0.03786721
-0.011173107
-0.013446705
0.045896508
1.7721153e-09
-4.5465288e-09
8.155514e-09
-1.6379399e-08
2.1186845e-08
-3.3443072e-08
4.3640041e-08
-5.7634388e-08
7.9276835e-08
-9.1497421e-08
1.331804e-07
-1.3843799e-07
2.1219872e-07
-2.0300847e-07
3.2553344e-07
-2.9128517e-07
4.8552098e-07
-4.1136761e-07
7.0866718e-07
-5.7403798e-07
1.0170162e-06
-7.9363095e-07
1.4399592e-06
-1.0891797e-06
2.0166206e-06
-1.4859215e-06
2.7990006e-06
-2.0172726e-06
3.8561054e-06
-2.7274109e-06
5.2793673e-06
-3.6746468e-06
7.1897347e-06
-4.9358019e-06
9.7469272e-06
-6.6118827e-06
1.3161476e-05
-8.8353933e-06
1.7710337e-05
-1.1779718e-05
2.3757044e-05
-1.5671082e-05
3.1777628e-05
-2.0803707e-05
4.2393754e-05
-2.7558857e-05
5.6414864e-05
-3.6428577e-05
7.489141e-05
-4.8044987e-05
9.9181636e-05
-6.3216056e-05
0.0001310347
-8.2968771e-05
0.00017269321
-0.00010860061
0.00022701876
-0.00014174008
0.00029764392
-0.00018441709
0.00038915483
-0.00023914365
0.00050730845
-0.0003090055
0.00065928888
-0.00039776528
0.00085400741
-0.0005099781
0.0011024518
-0.00065112084
0.0014180905
-0.00082773722
0.00181734
-0.0010476014
0.0023201022
-0.0013199024
0.0029503834
-0.0016554556
0.0037370049
-0.0020669368
0.0047144192
-0.0025691589
0.0059236394
-0.0031793633
0.007413314
-0.0039176031
0.0092409442
-0.0048071102
0.011474311
-0.0058748918
0.014192847
-0.0071512469
0.017489436
-0.0086717174
0.021472594
-0.01047646
0.026265814
-0.012605344
0.032022373
-0.015136142
0.038884243
-0.018034975
-0.021698625
0.047136164
1.8365649e-09
-6.3831064e-09
8.4519032e-09
-2.299476e-08
2.1956195e-08
-4.6947394e-08
4.522297e-08
-8.09012e-08
8.2148401e-08
-1.284229e-07
1.3799623e-07
-1.9428587e-07
2.1985634e-07
-2.8486863e-07
3.3725351e-07
-4.0868239e-07
5.0295439e-07
-5.7706854e-07
7.3403635e-07
-8.0511997e-07
1.0533016e-06
-1.1128963e-06
1.491144e-06
-1.5270222e-06
2.0880125e-06
-2.08279e-06
2.8976515e-06
-2.8269119e-06
3.991364e-06
-3.8211239e-06
5.4635953e-06
-5.1468791e-06
7.4392427e-06
-6.911451e-06
1.0083189e-05
-9.2558311e-06
1.3612699e-05
-1.2364908e-05
1.8313494e-05
-1.6480517e-05
2.4560483e-05
-2.1918076e-05
3.284442e-05
-2.9087651e-05
4.3805971e-05
-3.8520417e-05
5.8279015e-05
-5.0901633e-05
7.7345329e-05
-6.7111319e-05
0.00010240317
-8.8273917e-05
0.00013525258
-0.00011581821
0.0001782007
-0.00015154876
0.0002341905
-0.00019772992
0.00030695684
-0.00025718348
0.00040121387
-0.00033340074
0.00052287805
-0.00043066973
0.00067933128
-0.00055421858
0.00087972935
-0.00071037623
0.0011353609
-0.00090675245
0.0014600636
-0.00115244
0.0018707051
-0.001458243
0.0023877378
-0.0018369352
0.0030358376
-0.0023035555
0.0038446385
-0.0028757379
0.0048495772
-0.0035740977
0.0060928569
-0.0044226432
0.0076245573
-0.0054493036
0.00950393
-0.006686483
0.011800858
-0.0081718199
0.014597336
-0.0099477247
0.017989278
-0.012063659
0.022088944
-0.014576126
0.027024201
-0.017540601
0.032953536
-0.021065476
0.040025772
-0.025107209
-0.030203812
0.048530961
1.9126708e-09
-8.2957906e-09
8.8017814e-09
-2.9883894e-08
2.2864112e-08
-6.1009756e-08
4.7090452e-08
-1.0512758e-07
8.5535028e-08
-1.6686752e-07
1.4367382e-07
-2.5242472e-07
2.2888061e-07
-3.7007548e-07
3.5105867e-07
-5.3086052e-07
5.2347809e-07
-7.4948803e-07
7.6388426e-07
-1.0455262e-06
1.0959632e-06
-1.4449752e-06
1.5512762e-06
-1.9823353e-06
2.17181e-06
-2.7033239e-06
3.0133329e-06
-3.668435e-06
4.1498015e-06
-4.957593e-06
5.679138e-06
-6.6762167e-06
7.7307823e-06
-8.963097e-06
1.0475538e-05
-1.200059e-05
1.4138374e-05
-1.6027747e-05
1.9015e-05
-2.1357147e-05
2.5493253e-05
-2.8396336e-05
3.4080563e-05
-3.7674968e-05
4.5439038e-05
-4.9878902e-05
6.0430044e-05
-6.5892652e-05
8.0170472e-05
-8.6851763e-05
0.00010610325
-0.00011420672
0.0001400851
-0.00014980009
0.00018449467
-0.00019595838
0.00024236495
-0.00025560024
0.00031754355
-0.00033236213
0.0004148853
-0.00043074254
0.00054048153
-0.00055626601
0.00070193072
-0.00071566784
0.0009086559
-0.0009171015
0.0011722746
-0.0011703712
0.0015070278
-0.0014871933
0.0019302771
-0.0018814924
0.0024630782
-0.0023697364
0.0031308433
-0.0029713207
0.0039641032
-0.0037089979
0.0049993851
-0.0046093797
0.0062802173
-0.0057034755
0.0078582794
-0.0070273658
0.009794796
-0.0086229996
0.012162042
-0.010539066
0.015044931
-0.012830614
0.018542895
-0.015561622
0.022772484
-0.018805714
0.027866817
-0.022634932
0.033990173
-0.027188831
0.041300195
-0.032417229
-0.03899504
0.050091425
2.0012743e-09
-1.0297079e-08
9.2090389e-09
-3.7091683e-08
2.3920717e-08
-7.5721466e-08
4.9263298e-08
-1.304702e-07
8.9474439e-08
-2.0707871e-07
1.5027614e-07
-3.1322648e-07
2.3937083e-07
-4.5917024e-07
3.670998e-07
-6.5858956e-07
5.4731476e-07
-9.2970304e-07
7.9853179e-07
-1.2967433e-06
1.1454552e-06
-1.7918987e-06
1.6209894e-06
-2.4578696e-06
2.2688878e-06
-3.3512224e-06
3.1472381e-06
-4.5467854e-06
4.3330345e-06
-6.1433899e-06
5.9281694e-06
-8.2713525e-06
8.067258e-06
-1.1102187e-05
1.0927837e-05
-1.4861172e-05
1.4743611e-05
-1.9843525e-05
1.9821589e-05
-2.6435131e-05
2.6564191e-05
-3.5138944e-05
3.5497604e-05
-4.6608389e-05
4.7307987e-05
-6.1689295e-05
6.2887444e-05
-8.1472121e-05
8.3392e-05
-0.00010735634
0.00011031425
-0.00014112899
0.00014557364
-0.00018505952
0.00019162787
-0.00024201265
0.00025160899
-0.00031558142
0.00032948841
-0.0004102416
0.00043027505
-0.00053152925
0.00056025134
-0.00068624237
0.00072725205
-0.00088266863
0.00094099148
-0.001130841
0.0012134452
-0.001442825
0.001559294
-0.0018330422
0.0019964377
-0.0023186363
0.0025465914
-0.0029198902
0.0032359733
-0.0036607028
0.0040961
-0.0045691247
0.0051647019
-0.0056779817
0.0064867742
-0.0070255478
0.0081157739
-0.0086563655
0.010115133
-0.010622359
0.012559826
-0.012983758
0.015538066
-0.015808854
0.019153308
-0.019176864
0.023526978
-0.023179383
0.028798347
-0.027906299
0.035138137
-0.03352862
0.042714726
-0.039993816
-0.048106757
0.051826445
2.1030235e-09
-1.2400116e-08
9.6766613e-09
-4.4665345e-08
2.5133763e-08
-9.1178601e-08
5.1757459e-08
-1.5709394e-07
9.3995533e-08
-2.4931684e-07
1.5785155e-07
-3.7708256e-07
2.514041e-07
-5.5272286e-07
3.8549486e-07
-7.926804e-07
5.746399e-07
-1.1188482e-06
8.3823406e-07
-1.5603375e-06
1.2021426e-06
-2.1558073e-06
1.7007981e-06
-2.9565252e-06
2.3799625e-06
-4.0303869e-06
3.3003558e-06
-5.467179e-06
4.542416e-06
-7.3854506e-06
6.212527e-06
-9.9414646e-06
8.4511529e-06
-1.3340815e-05
1.144342e-05
-1.7853442e-05
1.5432861e-05
-2.3832969e-05
2.0739175e-05
-3.1741451e-05
2.7781116e-05
-4.2180892e-05
3.7105827e-05
-5.5933108e-05
4.9426276e-05
-7.4009754e-05
6.5668725e-05
-9.7714582e-05
8.703258e-05
-0.00012872021
0.00011506531
-0.00016916175
0.00015175555
-0.00022174979
0.00019964782
-0.00028990496
0.00026198279
-0.00037791644
0.00034286719
-0.00049112607
0.00044747802
-0.00063614014
0.00058230575
-0.00082107017
0.00075544195
-0.0010558049
0.00097691711
-0.0013523163
0.0012590955
-0.0017250035
0.0016171347
-0.0021910815
0.0020695198
-0.0027710215
0.0026386825
-0.003489053
0.0033517205
-0.0043737409
0.004241228
-0.0054586323
0.0053462563
-0.0067830101
0.0067134149
-0.0083927063
0.0083981202
-0.010341071
0.010466258
-0.012690497
0.012995821
-0.015513321
0.016078716
-0.018891749
0.019822944
-0.022921092
0.024355417
-0.027711855
0.029822465
-0.033373346
0.036401953
-0.040108108
0.044274812
-0.047866673
-0.057574479
0.053742535
2.2186059e-09
-1.4618735e-08
1.0207795e-08
-5.2654558e-08
2.6511406e-08
-1.0748225e-07
5.4589633e-08
-1.8517221e-07
9.9128481e-08
-2.9385574e-07
1.6645055e-07
-4.4440469e-07
2.6506015e-07
-6.5133252e-07
4.0636515e-07
-9.3398548e-07
6.0563235e-07
-1.3181154e-06
8.8324968e-07
-1.8379549e-06
1.2663916e-06
-2.5389493e-06
1.7912138e-06
-3.4813474e-06
2.5057394e-06
-4.7449127e-06
3.4736495e-06
-6.4350893e-06
4.7792493e-06
-8.6910509e-06
6.5339629e-06
-1.1696179e-05
8.8848028e-06
-1.5691657e-05
1.2025385e-05
-2.0994028e-05
1.6210213e-05
-2.8017801e-05
2.1773126e-05
-3.7304369e-05
2.9151042e-05
-4.9558815e-05
3.8914366e-05
-6.569644e-05
5.180574e-05
-8.6901138e-05
6.8789164e-05
-0.00011469802
9.1111849e-05
-0.00015104291
0.00012038159
-0.00019843152
0.00015866283
-0.00026003107
0.00020859506
-0.00033983724
0.00027353741
-0.00044285884
0.00035774388
-0.00057533261
0.00046657396
-0.0007449703
0.00060674358
-0.00096123987
0.00078662217
-0.0012356836
0.001016582
-0.0015822763
0.0013094073
-0.0020178289
0.0016807709
-0.0025624452
0.00214979
-0.0032400407
0.0027396727
-0.0040789358
0.0034784703
-0.0051125385
0.0043999491
-0.0063801113
0.0055446026
-0.0079276636
0.0069608048
-0.0098089085
0.0087061139
-0.01208638
0.010849121
-0.014833504
0.013471168
-0.018135368
0.016668251
-0.022088831
0.020553448
-0.026806288
0.025259775
-0.032418182
0.030941521
-0.03905509
0.037784425
-0.046951011
0.045983638
-0.056065886
-0.067434023
0.055843184
2.3485212e-09
-1.6967271e-08
1.0804738e-08
-6.11108e-08
2.8059657e-08
-1.247372e-07
5.7772226e-08
-2.1488483e-07
1.0489572e-07
-3.4097929e-07
1.7611067e-07
-5.1561971e-07
2.8039852e-07
-7.5562045e-07
4.298016e-07
-1.0833886e-06
6.4042708e-07
-1.528741e-06
9.3377362e-07
-2.1313016e-06
1.3384797e-06
-2.9436555e-06
1.8926252e-06
-4.035493e-06
2.6467569e-06
-5.4990445e-06
3.6678568e-06
-7.4561894e-06
5.044538e-06
-1.0067733e-05
6.8938297e-06
-1.3545472e-05
9.3700203e-06
-1.8167849e-05
1.2676145e-05
-2.4300155e-05
1.7078861e-05
-3.2420521e-05
2.2927648e-05
-4.3153162e-05
3.067948e-05
-5.7310654e-05
4.0930393e-05
-7.5947362e-05
5.4455677e-05
-0.00010042643
7.2260751e-05
-0.00013250311
9.5645172e-05
-0.00017442735
0.00012628264
-0.00022906902
0.00016632028
-0.00030006875
0.00021850082
-0.00039201783
0.00028631191
-0.00051067
0.00037416702
-0.00066318779
0.00048762273
-0.0008584261
0.00063363813
-0.0011072554
0.00082088186
-0.0014229274
0.0010600939
-0.0018214884
0.0013645096
-0.0023222447
0.0017503557
-0.0029482914
0.0022374294
-0.0037271145
0.0028497741
-0.0046912806
0.0036164695
-0.005879234
0.0045725491
-0.007336191
0.0057600711
-0.0091151856
0.0072293246
-0.011278162
0.0090401861
-0.013897241
0.011264208
-0.017057526
0.013986412
-0.020857571
0.017307276
-0.025409695
0.021345471
-0.030844482
0.026240744
-0.037313453
0.032156194
-0.04497054
0.03928619
-0.054081006
0.04784158
-0.064621274
-0.077720584
0.058128143
2.4931724e-09
-1.9460458e-08
1.1469382e-08
-7.0087034e-08
2.9783221e-08
-1.4305107e-07
6.1314876e-08
-2.4641653e-07
1.1131481e-07
-3.9097929e-07
1.8686106e-07
-5.9116602e-07
2.9746537e-07
-8.6622485e-07
4.5587389e-07
-1.2417973e-06
6.7912673e-07
-1.7519939e-06
9.8995413e-07
-2.4421291e-06
1.4186165e-06
-3.3723179e-06
2.0053244e-06
-4.6222011e-06
2.8034172e-06
-6.2971375e-06
3.8835257e-06
-8.5362981e-06
5.3390189e-06
-1.1523226e-05
7.2931121e-06
-1.5499566e-05
9.908112e-06
-2.0782851e-05
1.3397421e-05
-2.7789467e-05
1.804106e-05
-3.7064165e-05
2.4205676e-05
-4.9317784e-05
3.2370225e-05
-6.5475211e-05
4.3158797e-05
-8.6735944e-05
5.7382342e-05
-0.00011464999
7.6091437e-05
-0.00015121222
0.0001006426
-0.00019897854
0.00013278111
-0.00026120755
0.00017474363
-0.0003420313
0.00022938453
-0.00044665879
0.00030033012
-0.00058161565
0.00039216546
-0.0007550232
0.00051065896
-0.00097691968
0.00066303042
-0.0012596269
0.00085826887
-0.001618166
0.0011075075
-0.0020707271
0.0014244642
-0.0026392015
0.0018259574
-0.0033497848
0.0023325109
-0.0042336681
0.0029690618
-0.0053278315
0.0037657911
-0.0066759633
0.0047590925
-0.0083294924
0.0059927114
-0.010348804
0.0075189991
-0.01280445
0.0094003142
-0.015778556
0.011711423
-0.019368635
0.014541354
-0.023687501
0.017995441
-0.028863782
0.022198438
-0.035047479
0.027297423
-0.042412437
0.033465107
-0.051138224
0.040905236
-0.061521134
0.049845618
-0.073561655
-0.08846767
0.060592706
2.6527596e-09
-2.2113232e-08
1.2202531e-08
-7.9636831e-08
3.1684463e-08
-1.6253304e-07
6.5222319e-08
-2.7995443e-07
1.1839404e-07
-4.4415107e-07
1.9871573e-07
-6.7148778e-07
3.1628246e-07
-9.8379167e-07
4.846154e-07
-1.4101303e-06
7.2178038e-07
-1.989159e-06
1.0518612e-06
-2.77221e-06
1.5069e-06
-3.8273568e-06
2.1294473e-06
-5.2447485e-06
2.9759049e-06
-7.1435952e-06
4.1209037e-06
-9.6812971e-06
5.6630242e-06
-1.3065347e-05
7.732249e-06
-1.7568792e-05
1.0499652e-05
-2.3550255e-05
1.4189958e-05
-3.1479776e-05
1.9097763e-05
-4.1971974e-05
2.5608418e-05
-5.5828446e-05
3.4224802e-05
-7.4091603e-05
4.5601476e-05
-9.8112628e-05
6.0588066e-05
-0.00012963659
8.0284042e-05
-0.00017090821
0.00010610749
-0.00022480201
0.00013988088
-0.00029498097
0.00018393727
-0.00038608774
0.00024125097
-0.00050397254
0.0003155969
-0.00065596165
0.00041174371
-0.0008511701
0.00053568595
-0.001100862
0.00069492131
-0.0014188624
0.00089877986
-0.0018220246
0.0011588128
-0.0023307602
0.0014892503
-0.0029696391
0.0019075392
-0.0037680738
0.0024349747
-0.0047611037
0.0030974425
-0.0059902994
0.0039262947
-0.0075048155
0.0049593733
-0.009362571
0.0062422301
-0.011631661
0.0078294181
-0.014391637
0.0097859204
-0.017735058
0.012189966
-0.02177268
0.015134897
-0.026632432
0.018731242
-0.032460126
0.023110287
-0.039426523
0.028426995
-0.047729145
0.034864401
-0.057575629
0.042636367
-0.069293099
0.051988738
-0.082914025
-0.099705969
0.063227038
2.8272321e-09
-2.4940479e-08
1.3004077e-08
-8.9813701e-08
3.3762831e-08
-1.8329183e-07
6.9493559e-08
-3.156852e-07
1.2613169e-07
-5.0078926e-07
2.1167145e-07
-7.570276e-07
3.3684462e-07
-1.1089649e-06
5.1601769e-07
-1.5893035e-06
7.6837461e-07
-2.2415161e-06
1.1194743e-06
-3.1233098e-06
1.6033006e-06
-4.3111832e-06
2.2649494e-06
-5.9063975e-06
3.1641542e-06
-8.0428001e-06
4.379896e-06
-1.0897039e-05
6.016414e-06
-1.4701866e-05
8.2110366e-06
-1.9763415e-05
1.1144346e-05
-2.6483566e-05
1.5053332e-05
-3.5388764e-05
2.0248367e-05
-4.7167013e-05
2.7135023e-05
-6.2715108e-05
3.6241998e-05
-8.3198586e-05
4.8256706e-05
-0.00011012735
6.4070414e-05
-0.00014545031
8.4835145e-05
-0.00019167295
0.00011203504
-0.00025200192
0.00014757523
-0.00033052119
0.00019389183
-0.00043240438
0.00025408706
-0.00056416783
0.00033209408
-0.00073396875
0.0004328766
-0.00095195271
0.00056266896
-0.0012306545
0.00072926309
-0.0015854566
0.00094234945
-0.0020351111
0.0012139205
-0.0026023314
0.0015587469
-0.0033144656
0.0019949376
-0.0042042646
0.0025446004
-0.0053107667
0.0032346205
-0.0066803196
0.0040975837
-0.0083677787
0.00517286
-0.010437847
0.0065079219
-0.012966723
0.0081596488
-0.016043364
0.010195762
-0.019771171
0.012698189
-0.024275107
0.015764868
-0.02969911
0.0195118
-0.036207058
0.024077188
-0.043991911
0.029624364
-0.05327632
0.036347273
-0.064298538
0.044470632
-0.077416457
0.05425934
-0.092702731
-0.11146256
0.066015928
3.0162832e-09
-2.7956777e-08
1.3872537e-08
-1.0066998e-07
3.6014671e-08
-2.05434e-07
7.4120972e-08
-3.5379155e-07
1.3451393e-07
-5.6118228e-07
2.2570499e-07
-8.4821873e-07
3.5911479e-07
-1.2423748e-06
5.5002393e-07
-1.7802127e-06
8.1882461e-07
-2.5103168e-06
1.1926698e-06
-3.4971551e-06
1.707638e-06
-4.8261515e-06
2.4115741e-06
-6.6103337e-06
3.3678055e-06
-8.9990315e-06
4.6599986e-06
-1.2189232e-05
6.39849e-06
-1.6440358e-05
8.7285149e-06
-2.2093441e-05
1.1840879e-05
-2.9595931e-05
1.5985751e-05
-3.9533639e-05
2.1490435e-05
-5.2671701e-05
2.8782179e-05
-7.0006858e-05
3.8417337e-05
-9.2833752e-05
5.1118466e-05
-0.00012282848
6.7821294e-05
-0.00016215315
8.9733888e-05
-0.00021358556
0.0001184107
-0.00028067875
0.00015584473
-0.00036795525
0.0002045814
-0.00048114108
0.00026785835
-0.00062744484
0.00034977593
-0.0008158864
0.00045550353
-0.0010576804
0.00059152788
-0.0013666789
0.00076594994
-0.0017598788
0.0009888382
-0.0022579994
0.0012726474
-0.0028861407
0.0016327134
-0.0036745317
0.0020878376
-0.0046593889
0.0026609768
-0.005883906
0.0033800596
-0.0073994024
0.0042789584
-0.0092666776
0.0053986381
-0.011557527
0.0067885961
-0.014356681
0.0085081396
-0.017762907
0.010627806
-0.021890837
0.013233457
-0.026880757
0.016427839
-0.032893491
0.020332627
-0.040111846
0.02509325
-0.048752533
0.030881777
-0.059064847
0.037903491
-0.071320251
0.046394719
-0.085907684
0.056640934
-0.10294895
-0.12377832
0.0689567
3.2192754e-09
-3.1176067e-08
1.480496e-08
-1.1225569e-07
3.84321e-08
-2.2906117e-07
7.9088248e-08
-3.9444774e-07
1.4351105e-07
-6.2560513e-07
2.4076668e-07
-9.4547442e-07
3.8301415e-07
-1.3846224e-06
5.8651271e-07
-1.9837113e-06
8.7294936e-07
-2.7967536e-06
1.2711839e-06
-3.8953897e-06
1.8195364e-06
-5.3745041e-06
2.5687907e-06
-7.3595881e-06
3.5861159e-06
-1.0016357e-05
4.9601865e-06
-1.3563303e-05
6.8078463e-06
-1.8288018e-05
9.282766e-06
-2.4568361e-05
1.2586649e-05
-3.2899816e-05
1.6983699e-05
-4.3930691e-05
2.2819239e-05
-5.8507244e-05
3.0543563e-05
-7.7731188e-05
4.0742383e-05
-0.00010303258
5.4175512e-05
-0.00013626162
7.1825776e-05
-0.00017980342
9.4960489e-05
-0.00023672029
0.00012520835
-0.00031092663
0.00016465493
-0.00040740185
0.00021596062
-0.00053244681
0.00028250524
-0.00069398951
0.00036856428
-0.00090194551
0.00047952218
-0.0011686384
0.00062212901
-0.0015092858
0.00080480761
-0.0019425575
0.0010380195
-0.0024912114
0.0013346992
-0.0031828205
0.0017107689
-0.0040506014
0.0021857471
-0.0051343671
0.0027834693
-0.0064816282
0.0035329425
-0.0081488756
0.0044693668
-0.010203102
0.0056353493
-0.012723509
0.0070825
-0.015803831
0.0088726142
-0.019553021
0.0110791
-0.024097323
0.013791985
-0.029593642
0.017118932
-0.036220438
0.021187379
-0.044180292
0.026150205
-0.053715358
0.032188421
-0.065103064
0.039518816
-0.078650645
0.048389687
-0.094778555
0.05910822
-0.11366748
-0.13667272
0.072002619
3.435178e-09
-3.461126e-08
1.5796619e-08
-1.2461715e-07
4.1003101e-08
-2.5426769e-07
8.4370932e-08
-4.3781562e-07
1.5307864e-07
-6.943129e-07
2.567818e-07
-1.0491777e-06
4.0842329e-07
-1.5362639e-06
6.2530203e-07
-2.2005902e-06
9.3047876e-07
-3.1019304e-06
1.3546214e-06
-4.3195324e-06
1.9384292e-06
-5.958312e-06
2.7357993e-06
-8.1569581e-06
3.8179688e-06
-1.1098526e-05
5.2789113e-06
-1.5024246e-05
7.2423544e-06
-2.0251461e-05
9.8708829e-06
-2.719689e-05
1.337771e-05
-3.6406644e-05
1.8041851e-05
-4.8594834e-05
2.4227622e-05
-6.4693018e-05
3.240958e-05
-8.591315e-05
4.3204322e-05
-0.00011382733
5.7410807e-05
-0.00015046812
7.6061266e-05
-0.00019845389
0.00010048509
-0.00026114412
0.00013238859
-0.00034283016
0.00017395403
-0.00044896731
0.00022796157
-0.00058645439
0.00029793891
-0.0007639669
0.00038834328
-0.00099234994
0.00050478179
-0.001285077
0.00065427663
-0.0016587808
0.00084558256
-0.0021338635
0.0010895656
-0.0027351945
0.0013996533
-0.0034929083
0.0017923693
-0.0044433176
0.0022879675
-0.0056299654
0.0029111833
-0.0071048441
0.0036921271
-0.0089298195
0.0046673518
-0.011178327
0.0058811321
-0.01393729
0.0073872442
-0.017309943
0.0092499542
-0.021415731
0.011545564
-0.026392932
0.014368744
-0.032416821
0.017831638
-0.039683332
0.022067599
-0.048416253
0.027237103
-0.058884861
0.033530049
-0.07139601
0.041174527
-0.086295123
0.050430325
-0.10403435
0.061623507
-0.12486066
-0.15012595
0.07507674
3.6624617e-09
-3.8273736e-08
1.6840598e-08
-1.3779531e-07
4.3709512e-08
-2.8113664e-07
8.9931306e-08
-4.8403745e-07
1.6314863e-07
-7.6753028e-07
2.7363622e-07
-1.1596653e-06
4.3516125e-07
-1.697789e-06
6.6611452e-07
-2.4315435e-06
9.9099932e-07
-3.4268153e-06
1.4423841e-06
-4.7709172e-06
2.063462e-06
-6.57939e-06
2.9113965e-06
-9.0048927e-06
4.06169e-06
-1.224882e-05
5.6138667e-06
-1.6576422e-05
7.6988629e-06
-2.2336457e-05
1.048859e-05
-2.9986617e-05
1.4208292e-05
-4.0126346e-05
1.9152458e-05
-5.3539002e-05
2.5705221e-05
-7.1245784e-05
3.4366436e-05
-9.457437e-05
4.5784858e-05
-0.00012524575
6.0800156e-05
-0.00016548342
8.0495854e-05
-0.0002181496
0.00010626571
-0.00028691399
0.00013989639
-0.00037646085
0.00018367
-0.00049274093
0.00024049023
-0.00064327465
0.00031403689
-0.0008375136
0.00040895374
-0.0010872669
0.00053107599
-0.0014071993
0.0006877038
-0.0018154087
0.00088793023
-0.00233409
0.0011430327
-0.0029902971
0.0014669394
-0.003816815
0.0018767837
-0.004853162
0.0023935637
-0.0061467455
0.0030429259
-0.0077542063
0.0038560972
-0.0097429909
0.0048709928
-0.012193222
0.0061335598
-0.015199857
0.0076997213
-0.018876104
0.0096359966
-0.023352006
0.012022252
-0.028779187
0.014957469
-0.035352037
0.018557505
-0.043283368
0.022962444
-0.052821191
0.028340008
-0.064262424
0.03488864
-0.077944642
0.042847218
-0.0942537
0.052486271
-0.11367341
0.064148232
-0.13652262
-0.1641273
0.078149579
3.8992579e-09
-4.2173009e-08
1.792816e-08
-1.5182424e-07
4.6528837e-08
-3.0973735e-07
9.5723215e-08
-5.3323187e-07
1.7363682e-07
-8.4544394e-07
2.9118904e-07
-1.2772176e-06
4.6300374e-07
-1.8696038e-06
7.0860721e-07
-2.6771471e-06
1.0540017e-06
-3.7722098e-06
1.5337292e-06
-5.2506449e-06
2.1935718e-06
-7.2392326e-06
3.0940823e-06
-9.9054033e-06
4.3151836e-06
-1.3469921e-05
5.9621549e-06
-1.8223394e-05
8.1733935e-06
-2.4547696e-05
1.1130463e-05
-3.2943687e-05
1.5071045e-05
-4.4066929e-05
2.0305607e-05
-5.8773564e-05
2.7238731e-05
-7.817891e-05
3.6396342e-05
-0.00010373199
4.8460301e-05
-0.00013730972
6.4312113e-05
-0.00018133524
8.5087968e-05
-0.00023892546
0.00011224755
-0.00031407358
0.00014765975
-0.00041187306
0.00019370857
-0.00053878977
0.00025342354
-0.00070298964
0.00033063897
-0.00091472906
0.00043018779
-0.0011868157
0.00055813568
-0.0015351472
0.00072206311
-0.0019793362
0.00093140326
-0.0025434302
0.0011978461
-0.00325674
0.0015358206
-0.0041547895
0.0019630689
-0.0052804103
0.0025013315
-0.0066850081
0.0031771634
-0.0084300383
0.004022909
-0.010588736
0.0050778539
-0.013248167
0.0063896656
-0.016511668
0.008016488
-0.020502927
0.010025795
-0.025361313
0.012502415
-0.031255807
0.015549009
-0.03839863
0.019285477
-0.047019836
0.023858459
-0.057394173
0.029441715
-0.06984568
0.036242061
-0.084744989
0.044508355
-0.10251999
0.054520918
-0.12368597
0.066636508
-0.14863821
-0.17865785
0.081167062
4.1428351e-09
-4.6315859e-08
1.9046816e-08
-1.6672824e-07
4.9428538e-08
-3.401191e-07
1.0168016e-07
-5.8548353e-07
1.8442302e-07
-9.2818686e-07
3.0923879e-07
-1.4020334e-06
4.9163132e-07
-2.0519964e-06
7.5229243e-07
-2.9378083e-06
1.1187619e-06
-4.1386794e-06
1.6276061e-06
-5.7594891e-06
2.3272618e-06
-7.9388884e-06
3.2817537e-06
-1.0859895e-05
4.575533e-06
-1.47637e-05
6.3197654e-06
-1.9967626e-05
8.6604801e-06
-2.688841e-05
1.1789099e-05
-3.6072305e-05
1.5956006e-05
-4.8233837e-05
2.1487961e-05
-6.430552e-05
2.881038e-05
-8.5501332e-05
3.8475722e-05
-0.00011339733
5.1199476e-05
-0.00015003348
6.7905612e-05
-0.00019804138
8.9783645e-05
-0.0002608035
0.00011835995
-0.00034264989
0.0001555863
-0.00044909942
0.00020394934
-0.00058715282
0.00026660486
-0.00076564519
0.000347542
-0.00099566624
0.00045178244
-0.0012910562
0.00058562132
-0.0016689862
0.00075691714
-0.0021506321
0.00097543946
-0.0027619526
0.0012532849
-0.0035345855
0.0016053742
-0.0045068789
0.002050046
-0.0057250822
0.0026097665
-0.0072447286
0.0033119788
-0.0091322506
0.0041901261
-0.011466884
0.0052848756
-0.014342916
0.0066457559
-0.017872548
0.0083314298
-0.0221886
0.010411184
-0.027441066
0.01297649
-0.033821114
0.016132727
-0.041554867
0.020003625
-0.050890733
0.024739624
-0.062130172
0.030521558
-0.075627614
0.037563767
-0.091787198
0.04612387
-0.1110801
0.056490697
-0.1340528
0.06903301
-0.16118052
-0.19368293
0.08405809
4.3903211e-09
-5.0706195e-08
2.0183308e-08
-1.8252125e-07
5.2374308e-08
-3.7231013e-07
1.0773092e-07
-6.4084018e-07
1.9537788e-07
-1.0158339e-06
3.2756823e-07
-1.5342238e-06
5.206982e-07
-2.2451265e-06
7.9664011e-07
-3.2137503e-06
1.1844917e-06
-4.5265311e-06
1.7228664e-06
-6.2978638e-06
2.4628868e-06
-8.6789089e-06
3.4720861e-06
-1.1869094e-05
4.8394885e-06
-1.6131103e-05
6.6821985e-06
-2.1810335e-05
9.1539393e-06
-2.9360151e-05
1.2456064e-05
-3.937443e-05
1.685173e-05
-5.2629503e-05
2.2684076e-05
-7.0137866e-05
3.0399422e-05
-9.3216679e-05
4.0576814e-05
-0.00012357472
5.396539e-05
-0.00016342206
7.1531533e-05
-0.00021560753
9.4517927e-05
-0.0002837899
0.00012451726
-0.00037264924
0.00016356363
-0.0004881458
0.0002142452
-0.00063783441
0.00027984249
-0.00083124249
0.00036449684
-0.0010803206
0.00047341504
-0.0013999744
0.00061311634
-0.0018086875
0.0007917297
-0.0023292455
0.0010193505
-0.0029895734
0.0013084673
-0.0038237024
0.0016744729
-0.0048728846
0.002136275
-0.0061868842
0.0027170264
-0.00782548
0.0034449997
-0.0098602239
0.0043546315
-0.012376515
0.0054877509
-0.015476036
0.0068949072
-0.019279704
0.0086363018
-0.023929995
0.010787682
-0.029592446
0.013440856
-0.036474287
0.01670065
-0.04481466
0.020697455
-0.054887537
0.025586903
-0.06701962
0.031555102
-0.081595813
0.038822523
-0.099054618
0.047653871
-0.11991144
0.058344769
-0.14474369
0.071273185
-0.17410894
-0.20915015
0.086740407
4.637362e-09
-5.5343572e-08
2.1317735e-08
-1.9920164e-07
5.5314443e-08
-4.0630687e-07
1.1376972e-07
-6.992955e-07
2.0631019e-07
-1.1083744e-06
3.4585813e-07
-1.6737718e-06
5.4969802e-07
-2.4489664e-06
8.4087823e-07
-3.5049306e-06
1.2500465e-06
-4.9356995e-06
1.8178541e-06
-6.8656714e-06
2.5980917e-06
-9.4591465e-06
3.6617789e-06
-1.2932782e-05
5.1024776e-06
-1.7571801e-05
7.0431885e-06
-2.3751046e-05
9.6452542e-06
-3.1962216e-05
1.3119862e-05
-4.2849037e-05
1.7742804e-05
-5.7252444e-05
2.3873383e-05
-7.6268446e-05
3.1978549e-05
-0.00010132184
4.2663513e-05
-0.00013425969
5.6710505e-05
-0.00017746905
7.5127484e-05
-0.00023402451
9.9209168e-05
-0.00030787159
0.00013061297
-0.00040405304
0.00017145303
-0.00052898587
0.00022441603
-0.00069079741
0.00029290289
-0.00089972936
0.00038120149
-0.0011686192
0.00049469593
-0.0015134689
0.00064011909
-0.0019541108
0.00082585653
-0.002514983
0.0010623109
-0.0032260279
0.0013623388
-0.0041237303
0.001741773
-0.0052523188
0.0022200482
-0.0066651595
0.0028209493
-0.0084263811
0.003573505
-0.01061278
0.0045130513
-0.013316062
0.005682481
-0.016645465
0.0071336369
-0.02073086
0.008929309
-0.025725666
0.011147514
-0.031810651
0.013879859
-0.039206631
0.017235622
-0.048170423
0.0213484
-0.059000315
0.02637768
-0.0720489
0.032513886
-0.08773202