/*--------------------------------*- C++ -*----------------------------------*\
  =========                 |
  \\      /  F ield         | OpenFOAM: The Open Source CFD Toolbox
   \\    /   O peration     | Website:  https://openfoam.org
    \\  /    A nd           | Version:  13
     \\/     M anipulation  |
\*---------------------------------------------------------------------------*/
FoamFile
{
    format      ascii;
    class       volVectorField;
    location    "3000";
    object      U;
}
// * * * * * * * * * * * * * * * * * * * * * * * * * * * * * * * * * * * * * //

dimensions      [0 1 -1 0 0 0 0];

internalField   nonuniform List<vector> 
9536
(
(1.3739328e-08 -4.8995357e-07 4.8746147e-25)
(2.4234827e-07 -1.5418939e-06 -3.1718932e-25)
(7.7462516e-07 -2.7516644e-06 -1.1302715e-25)
(1.7573337e-06 -4.1460679e-06 -1.300167e-24)
(3.3560913e-06 -5.7578457e-06 2.9126235e-24)
(5.8122492e-06 -7.6246175e-06 -2.711943e-25)
(9.446604e-06 -9.7898484e-06 -7.6885184e-26)
(1.4687993e-05 -1.2303516e-05 -9.6002795e-25)
(2.2108226e-05 -1.5222851e-05 -8.9576699e-25)
(3.2467395e-05 -1.8613085e-05 -4.8697448e-25)
(4.6772902e-05 -2.254817e-05 1.8298512e-24)
(6.6356073e-05 -2.711142e-05 -2.9967344e-24)
(9.2971124e-05 -3.2395996e-05 3.8319778e-24)
(0.00012892236 -3.8505155e-05 2.3452157e-24)
(0.00017722677 -4.5552094e-05 -3.9791679e-24)
(0.00024182057 -5.3659255e-05 -2.2730614e-24)
(0.00032781946 -6.2956814e-05 2.7122633e-24)
(0.00044184386 -7.358013e-05 -2.9895996e-24)
(0.00059242118 -8.5665738e-05 -5.2578838e-24)
(0.00079047719 -9.9345525e-05 -2.582012e-24)
(0.0010499278 -0.00011473863 9.2603975e-24)
(0.0013883795 -0.00013194055 6.6706689e-24)
(0.0018279404 -0.00015100901 -1.1307608e-23)
(0.0023961365 -0.00017194626 -1.0509012e-23)
(0.0031269097 -0.00019467751 1.7391167e-23)
(0.0040616617 -0.00021902583 -5.2230083e-24)
(0.0052502746 -0.00024468393 -1.7289153e-23)
(0.0067520191 -0.00027118437 9.9851181e-24)
(0.0086362247 -0.00029787006 -1.9161214e-24)
(0.010982561 -0.00032386825 2.0743574e-23)
(0.013880766 -0.00034807155 -1.3879851e-23)
(0.017429646 -0.00036913039 2.5097592e-23)
(0.021735226 -0.00038546097 8.2527601e-23)
(0.026907952 -0.00039527194 -6.0990129e-23)
(0.033058973 -0.0003966116 1.2678899e-22)
(0.040295645 -0.00038743389 7.5114091e-23)
(0.048716476 -0.00036568001 1.4937006e-23)
(0.058406019 -0.0003293656 -1.5475066e-22)
(0.069429752 -0.00027667198 -1.3853057e-22)
(0.081830513 -0.00020602125 -3.592287e-22)
(0.09562384 -0.00011615776 2.4503639e-22)
(0.11080021 -6.2357629e-06 2.4871084e-22)
(0.12731529 0.00012410992 -5.8937571e-22)
(0.14511305 0.00027467449 -1.3271468e-22)
(0.16407883 0.00044438042 -6.9929285e-22)
(0.18415021 0.00063410825 -1.0632803e-22)
(0.20508951 0.00083974387 -1.1822667e-22)
(0.22696171 0.0010649603 1.1179995e-21)
(0.24919618 0.0013009888 -1.0454542e-21)
(0.27238021 0.0015517482 1.4704532e-22)
(0.29506463 0.0018205498 -3.3413708e-22)
(0.31902608 0.0020416002 2.0928422e-22)
(2.2672287e-07 -4.3049788e-06 1.4653408e-24)
(9.1285834e-07 -1.3536798e-05 -4.720211e-25)
(1.9709546e-06 -2.4125659e-05 -8.8776498e-25)
(3.5590947e-06 -3.6289564e-05 -3.8371611e-24)
(5.8560728e-06 -5.0282646e-05 2.6136402e-24)
(9.1185767e-06 -6.6396725e-05 2.8578258e-24)
(1.3685212e-05 -8.4967406e-05 2.2973043e-24)
(2.0005489e-05 -0.00010637967 -4.5262308e-24)
(2.8675204e-05 -0.00013107402 2.1679367e-24)
(4.0482247e-05 -0.00015955313 7.4218802e-24)
(5.6466217e-05 -0.00019238875 -1.0681954e-23)
(7.7995684e-05 -0.00023022879 7.1591642e-24)
(0.00010686788 -0.00027380434 1.0934873e-24)
(0.0001454367 -0.00032393618 -1.2082477e-23)
(0.00019677619 -0.00038154035 8.8767491e-24)
(0.00026488798 -0.00044763204 -1.2827266e-23)
(0.00035496251 -0.00052332684 1.606715e-23)
(0.00047370525 -0.00060983831 -3.4006179e-23)
(0.00062973969 -0.0007084701 3.3490788e-23)
(0.00083409953 -0.00082060122 -1.1734221e-23)
(0.0011008208 -0.00094766191 4.5901777e-23)
(0.0014476421 -0.0010910982 -7.6230584e-23)
(0.0018968156 -0.0012523223 8.1700253e-23)
(0.002476021 -0.0014326474 -3.5830701e-23)
(0.0032193623 -0.0016332037 4.2253476e-23)
(0.0041684074 -0.0018548372 -4.7411402e-23)
(0.0053732046 -0.0020979905 5.6530555e-23)
(0.0068931842 -0.002362571 -4.8873504e-23)
(0.0087978217 -0.0026478123 3.3894858e-23)
(0.011166911 -0.0029521406 6.4921398e-23)
(0.014090284 -0.0032730597 -1.6200055e-22)
(0.017666803 -0.0036070714 4.8475159e-23)
(0.022002506 -0.0039496502 1.2660066e-23)
(0.027207804 -0.004295287 1.7791615e-22)
(0.033393763 -0.0046376135 -4.4173356e-22)
(0.040667616 -0.0049696059 -1.900837e-22)
(0.049127716 -0.005283862 -7.8771041e-23)
(0.058858443 -0.0055729159 1.0195161e-22)
(0.069925101 -0.0058295948 3.0463838e-22)
(0.082370371 -0.0060472891 6.7169446e-22)
(0.096209662 -0.0062203441 -3.295403e-22)
(0.11143336 -0.0063440412 3.4969787e-23)
(0.12799708 -0.0064153486 1.1701678e-21)
(0.1458448 -0.0064317905 -4.1425672e-22)
(0.16486232 -0.0063943659 1.3436491e-21)
(0.18498723 -0.0062986799 8.5208854e-22)
(0.20598227 -0.0061529362 -1.0386852e-21)
(0.22791354 -0.0059462525 -7.1272444e-22)
(0.25020766 -0.00569553 2.904565e-23)
(0.27346331 -0.0054007169 -3.6044085e-21)
(0.29620073 -0.0050131836 -2.4770652e-21)
(0.32027961 -0.0048168103 -3.3148618e-22)
(7.1727197e-07 -8.2080933e-06 2.8391524e-24)
(2.457331e-06 -2.5808362e-05 -8.2657914e-25)
(4.726847e-06 -4.5991999e-05 -3.4879669e-24)
(7.7100723e-06 -6.9172621e-05 3.8800285e-24)
(1.1616119e-05 -9.5830546e-05 1.3623744e-25)
(1.6736978e-05 -0.00012651727 -6.334964e-24)
(2.3452246e-05 -0.00016186677 5.8172772e-24)
(3.225901e-05 -0.0002026061 6.3980399e-24)
(4.3808238e-05 -0.00024956709 -5.2504399e-24)
(5.8951751e-05 -0.00030369889 1.6487226e-25)
(7.8803136e-05 -0.00036608118 -1.5986852e-23)
(0.00010481648 -0.00043793782 1.2435286e-23)
(0.0001388877 -0.00052065034 -6.2797337e-24)
(0.00018348437 -0.00061577085 1.0023604e-23)
(0.00024181114 -0.00072503322 -7.4242049e-24)
(0.00031801925 -0.00085036149 -9.397438e-24)
(0.00041746997 -0.0009938738 -3.4597072e-24)
(0.00054706288 -0.0011578797 7.3368126e-23)
(0.00071564093 -0.0013448682 -3.8551692e-23)
(0.0009344842 -0.0015574835 -7.3633681e-24)
(0.0012179031 -0.0017984845 1.0492666e-23)
(0.0015839389 -0.0020706838 -6.5665835e-23)
(0.0020551732 -0.0023768619 6.0932716e-23)
(0.0026596395 -0.0027196527 -9.2899171e-24)
(0.0034318148 -0.003101397 -5.0664916e-23)
(0.0044136511 -0.0035239628 -1.1843961e-22)
(0.0056555816 -0.0039885339 6.6644983e-23)
(0.0072174088 -0.0044953745 -5.21864e-24)
(0.009168951 -0.00504358 -2.7385772e-23)
(0.011590298 -0.0056308344 1.2581961e-23)
(0.01457151 -0.0062531983 2.2995187e-22)
(0.018211598 -0.0069049578 -1.9920454e-22)
(0.022616647 -0.0075785661 -9.3454988e-23)
(0.027897011 -0.0082647065 1.4038887e-22)
(0.034163599 -0.008952496 5.0723629e-22)
(0.041523391 -0.0096298303 5.799757e-22)
(0.050074422 -0.01028386 -2.533955e-22)
(0.059900712 -0.010901538 2.1083179e-22)
(0.071067216 -0.011470241 9.4050737e-24)
(0.083616301 -0.011978244 -5.6883654e-22)
(0.097563155 -0.012415408 9.1826443e-23)
(0.11289803 -0.012773092 -5.5198537e-22)
(0.12957659 -0.013045501 -1.0184706e-21)
(0.14754288 -0.01322758 3.7366908e-22)
(0.16668361 -0.013320074 -8.1426275e-22)
(0.18693677 -0.013315256 -1.0832554e-21)
(0.20806586 -0.013225006 -1.8826278e-21)
(0.23013989 -0.013031761 -8.3809498e-22)
(0.2525791 -0.012759846 -1.4527248e-21)
(0.27600788 -0.012413215 4.5978128e-21)
(0.29887898 -0.011899885 4.0042547e-21)
(0.32323396 -0.01171259 -2.2038406e-21)
(1.5078429e-06 -1.2208154e-05 -6.3774734e-25)
(4.9463535e-06 -3.8384172e-05 -3.6082097e-24)
(9.1680169e-06 -6.8399365e-05 1.2916243e-23)
(1.4399135e-05 -0.00010286697 -8.6234401e-24)
(2.0897516e-05 -0.00014249826 3.721838e-26)
(2.9011839e-05 -0.00018810972 -7.0231316e-24)
(3.9187502e-05 -0.00024063972 1.7360755e-23)
(5.1997941e-05 -0.00030116411 -8.6016352e-24)
(6.8182637e-05 -0.00037091352 -9.9956842e-24)
(8.8695929e-05 -0.00045129187 6.0280836e-25)
(0.00011477001 -0.00054389595 7.0181173e-24)
(0.00014799599 -0.00065053554 7.8102321e-26)
(0.00019042782 -0.00077325353 1.1938747e-23)
(0.00024471499 -0.00091434498 1.3990634e-23)
(0.000314271 -0.001076374 -4.1943968e-23)
(0.00040348625 -0.0012621862 1.0289864e-23)
(0.00051799473 -0.0014749155 -5.7105623e-24)
(0.00066500574 -0.0017179803 1.1182175e-23)
(0.00085371205 -0.0019950673 1.5689491e-23)
(0.0010957862 -0.0023100966 1.6625339e-23)
(0.0014059753 -0.0026671643 -3.0429254e-23)
(0.0018028021 -0.0030704548 7.2434794e-23)
(0.0023093723 -0.0035241177 -1.3772963e-22)
(0.0029542818 -0.0040321031 7.7331204e-23)
(0.0037726002 -0.0045979505 -3.2570611e-24)
(0.0048068904 -0.0052245297 -6.8810283e-23)
(0.0061081975 -0.0059137362 -3.437998e-23)
(0.0077369162 -0.0066661507 6.7786515e-23)
(0.0097634107 -0.0074806794 -3.4948047e-22)
(0.012268242 -0.0083542014 3.6642636e-22)
(0.015341838 -0.0092812605 -1.7340671e-22)
(0.019083444 -0.010253844 1.6904598e-22)
(0.023599227 -0.011261293 -1.828574e-22)
(0.028999457 -0.012290387 -2.9063964e-22)
(0.035394796 -0.013325631 -7.2638629e-23)
(0.042891833 -0.014349745 -5.8122354e-22)
(0.051588105 -0.01534434 5.6683107e-22)
(0.06156708 -0.016290707 7.6061115e-22)
(0.072893172 -0.017170698 -3.9188869e-22)
(0.085608272 -0.017967411 7.9483235e-22)
(0.099727248 -0.018666162 6.4030284e-22)
(0.11524019 -0.01925435 5.9891819e-22)
(0.13210283 -0.019723339 1.5491211e-21)
(0.15025948 -0.020065623 3.7923457e-22)
(0.16959817 -0.020281539 -2.1292123e-21)
(0.19005769 -0.020360134 1.2766237e-21)
(0.21140259 -0.020316713 1.8836528e-21)
(0.23370678 -0.020127041 3.7573407e-21)
(0.25638022 -0.019823399 1.6859775e-21)
(0.28008772 -0.019410535 -6.7730234e-21)
(0.30317667 -0.018762983 2.1828956e-21)
(0.32797078 -0.018555146 4.0377581e-21)
(2.6243258e-06 -1.6310541e-05 -1.6126202e-24)
(8.4612288e-06 -5.1280851e-05 1.2515713e-23)
(1.5439166e-05 -9.1376803e-05 -1.3981094e-23)
(2.3843546e-05 -0.00013741534 8.4432524e-24)
(3.4000634e-05 -0.00019034342 2.0992427e-24)
(4.633875e-05 -0.00025124776 5.7446391e-26)
(6.1395692e-05 -0.00032137691 -1.4365652e-23)
(7.9852055e-05 -0.00040216196 1.1036854e-23)
(0.0001025715 -0.00049523934 -1.2652617e-23)
(0.0001306521 -0.00060247541 -3.4970765e-24)
(0.00016549227 -0.00072599228 6.9506397e-24)
(0.00020887503 -0.00086819442 1.4962718e-23)
(0.00026307555 -0.0010317952 -1.0331211e-23)
(0.00033099777 -0.0012198421 -1.9010058e-23)
(0.00041634718 -0.0014357387 4.062946e-23)
(0.00052384814 -0.0016832617 -6.2658462e-24)
(0.0006595153 -0.0019665687 9.3548266e-24)
(0.0008309898 -0.0022901941 2.366972e-23)
(0.0010479516 -0.0026590272 -1.1081449e-22)
(0.0013226193 -0.0030782663 2.213413e-22)
(0.0016703472 -0.0035533428 -7.7076841e-23)
(0.0021103261 -0.0040898058 6.5352669e-24)
(0.0026663882 -0.0046931608 -1.2625767e-22)
(0.0033679084 -0.0053686525 2.0142514e-22)
(0.0042507756 -0.0061209889 -3.0347269e-22)
(0.0053583963 -0.0069540007 2.4343073e-22)
(0.0067426599 -0.0078702434 -1.24816e-22)
(0.0084647762 -0.0088705507 2.3368848e-23)
(0.01059586 -0.0099535643 1.2579387e-22)
(0.013217119 -0.011115273 1.2353192e-22)
(0.016419482 -0.012348611 2.8859298e-23)
(0.020302512 -0.013643165 1.2626749e-22)
(0.02497248 -0.014985062 1.8267252e-22)
(0.030539534 -0.016357077 3.3241623e-23)
(0.037113988 -0.017739005 5.058097e-22)
(0.044801888 -0.019108304 6.125521e-22)
(0.05370008 -0.020440971 -4.6697485e-22)
(0.063891268 -0.021712572 -1.2977773e-21)
(0.075439123 -0.02289939 -7.1695644e-22)
(0.088384895 -0.023979311 -9.1498776e-22)
(0.10274302 -0.024933065 -6.5521408e-22)
(0.1185034 -0.025744073 4.8268634e-23)
(0.13562188 -0.026400785 -5.5239959e-22)
(0.15404316 -0.026893423 -1.2346439e-21)
(0.1736571 -0.027221781 -3.2110662e-21)
(0.19440369 -0.027371701 1.0916942e-21)
(0.21604883 -0.027361827 7.5758503e-22)
(0.23867323 -0.027160734 -3.2977698e-21)
(0.26167279 -0.026810429 -2.2257621e-21)
(0.28576707 -0.026309873 1.321095e-20)
(0.30916085 -0.025517856 -5.5631262e-21)
(0.33455839 -0.025244168 2.5257335e-21)
(4.0966326e-06 -2.0520438e-05 1.9649083e-24)
(1.309588e-05 -6.4514282e-05 6.6510709e-24)
(2.3707442e-05 -0.00011495183 -2.3661936e-23)
(3.6294237e-05 -0.00017285778 4.9077507e-25)
(5.1272316e-05 -0.0002394193 6.7113008e-24)
(6.9174355e-05 -0.00031599835 8.0794586e-24)
(9.0659166e-05 -0.0004041591 1.3734101e-23)
(0.00011654759 -0.00050569377 -1.933999e-23)
(0.00014786568 -0.00062265096 -6.5729486e-24)
(0.00018589939 -0.00075736615 -1.4184001e-23)
(0.00023226416 -0.00091249375 4.4542761e-24)
(0.00028899343 -0.0010910401 6.7007906e-24)
(0.00035865075 -0.001296396 1.960474e-23)
(0.00044447152 -0.001532368 -3.4014625e-23)
(0.00055054113 -0.0018032055 8.4152181e-23)
(0.00068201814 -0.0021136206 -2.399924e-23)
(0.00084541143 -0.002468798 8.5233068e-23)
(0.0010489223 -0.0028743884 -4.1698664e-23)
(0.0013028618 -0.0033364806 -8.1118871e-23)
(0.0016201551 -0.0038615434 -3.1682386e-23)
(0.0020169408 -0.0044563302 -3.9971815e-23)
(0.0025132715 -0.0051277342 4.3383358e-23)
(0.0031339157 -0.0058825872 9.9423459e-23)
(0.0039092495 -0.0067273898 -9.152575e-24)
(0.004876214 -0.0076679671 9.0397812e-24)
(0.0060792962 -0.0087090484 -6.8340196e-23)
(0.0075714651 -0.0098537728 -1.661901e-22)
(0.0094149697 -0.011103139 2.3018952e-22)
(0.011681879 -0.012455424 4.5447136e-23)
(0.014454217 -0.013905618 8.2613792e-23)
(0.017823541 -0.015444928 -3.4654437e-22)
(0.021889806 -0.017060427 1.9500734e-22)
(0.026759399 -0.018734913 9.4655134e-23)
(0.032542292 -0.020447048 -6.6630931e-22)
(0.039348335 -0.022171826 -1.287171e-21)
(0.047282859 -0.023881365 -1.1125737e-21)
(0.056441813 -0.025545993 -5.892356e-22)
(0.066906908 -0.027135516 1.3755274e-21)
(0.078740863 -0.028620627 2.3637155e-21)
(0.091984107 -0.029973995 1.6563984e-22)
(0.10665054 -0.031171759 -9.7251025e-23)
(0.12272983 -0.032193349 -2.8449319e-21)
(0.14017793 -0.033024246 1.5320348e-21)
(0.15894013 -0.033652636 -2.4240328e-21)
(0.17890858 -0.034077651 2.7195602e-21)
(0.20002492 -0.034281863 -5.4441367e-21)
(0.22205662 -0.034287323 -4.6002365e-22)
(0.24509304 -0.034054425 -3.7571847e-21)
(0.26851248 -0.033637781 -3.0292997e-21)
(0.29310253 -0.033020845 -7.3830322e-21)
(0.31689006 -0.032071843 8.335539e-21)
(0.34305332 -0.031671405 -7.3771558e-21)
(5.9586811e-06 -2.4839961e-05 2.2282389e-24)
(1.8956762e-05 -7.8090819e-05 -1.4988557e-23)
(3.4162207e-05 -0.00013913517 5.9972215e-24)
(5.203533e-05 -0.0002092093 1.5498686e-23)
(7.310502e-05 -0.00028974489 7.2866767e-24)
(9.803497e-05 -0.00038238371 -1.6008471e-23)
(0.0001276358 -0.0004890105 7.4432648e-25)
(0.00016290416 -0.00061178384 -6.6714815e-24)
(0.0002050695 -0.00075316995 -9.3557226e-24)
(0.00025565283 -0.00091597899 4.3745563e-24)
(0.00031654097 -0.0011034032 2.2300042e-23)
(0.00039008006 -0.0013190559 2.9723491e-23)
(0.00047919346 -0.0015670102 -1.9744729e-23)
(0.00058752958 -0.0018518353 -4.197271e-23)
(0.00071964673 -0.0021786284 1.0212471e-22)
(0.00088124317 -0.0025530372 -8.9329018e-23)
(0.0010794415 -0.0029812704 5.7434908e-23)
(0.0013231373 -0.0034700883 -3.6319339e-23)
(0.0016234231 -0.0040267671 8.7103089e-23)
(0.0019940974 -0.004659028 -1.4189515e-22)
(0.0024522663 -0.0053749197 -9.1743514e-23)
(0.0030190445 -0.0061826444 -2.2878241e-23)
(0.0037203511 -0.0070903135 1.9205033e-22)
(0.0045877906 -0.008105624 -7.1995966e-23)
(0.0056595919 -0.0092354462 -8.7128882e-23)
(0.0069815616 -0.01048532 1.6836357e-22)
(0.0086079823 -0.011858869 1.7728471e-22)
(0.010602364 -0.013357139 -1.8975014e-22)
(0.013037927 -0.01497792 1.4897757e-22)
(0.015997675 -0.016715068 -5.9154221e-22)
(0.01957391 -0.018557929 3.9933467e-23)
(0.023867038 -0.020490925 3.6370475e-25)
(0.02898356 -0.022493401 4.3071547e-22)
(0.035033199 -0.0245398 6.2831231e-22)
(0.042125209 -0.026600226 1.6326427e-21)
(0.050364014 -0.028641392 9.0549934e-22)
(0.059844441 -0.030627925 1.9775211e-21)
(0.070646966 -0.032523862 2.7316993e-22)
(0.08283313 -0.034294324 -2.956067e-21)
(0.096442352 -0.035906792 1.3730327e-21)
(0.11148788 -0.037332835 1.98948e-21)
(0.12795912 -0.03854789 2.3765867e-21)
(0.14581208 -0.039534424 -3.249219e-21)
(0.16499279 -0.040278915 1.4696368e-21)
(0.18539626 -0.040779722 2.3571335e-21)
(0.20696613 -0.041015989 2.1560372e-21)
(0.22947171 -0.041013382 -9.3636301e-23)
(0.25301255 -0.040722712 -2.5896842e-21)
(0.27694639 -0.040215056 1.1915998e-20)
(0.3021403 -0.039445762 -5.788666e-21)
(0.32641147 -0.038324572 -7.6710363e-21)
(0.35349692 -0.037720995 3.6805546e-22)
(8.2487839e-06 -2.9268725e-05 -5.6824796e-25)
(2.6164086e-05 -9.2008908e-05 -1.0580769e-23)
(4.7017226e-05 -0.00016392337 1.261503e-23)
(7.1387432e-05 -0.00024646347 4.2163169e-24)
(9.9941389e-05 -0.00034130923 -1.5847671e-23)
(0.00013350258 -0.00045038622 1.9172563e-24)
(0.00017306665 -0.00057590396 1.5299498e-23)
(0.00021984428 -0.00072039165 -1.5633052e-23)
(0.00027531231 -0.00088673738 8.4699893e-25)
(0.0003412774 -0.0010782301 -1.2618216e-23)
(0.00041995565 -0.0012986033 1.6525215e-23)
(0.00051407233 -0.0015520804 3.589389e-23)
(0.00062698638 -0.0018434183 1.7111583e-23)
(0.00076284558 -0.0021779492 -7.2650523e-23)
(0.0009267792 -0.0025616154 6.6368435e-24)
(0.0011251362 -0.003000995 8.5318958e-24)
(0.0013657776 -0.0035033109 2.3505729e-23)
(0.0016584337 -0.0040764179 -6.1527304e-23)
(0.0020151341 -0.0047287581 1.0204387e-22)
(0.0024507228 -0.0054692748 7.737483e-23)
(0.0029834623 -0.0063072725 2.3390996e-23)
(0.0036357333 -0.0072522101 5.8847855e-23)
(0.0044348238 -0.0083134139 1.6619098e-22)
(0.0054137961 -0.0094996977 -3.2139143e-22)
(0.0066124034 -0.010818881 2.8934992e-22)
(0.0080780087 -0.012277202 -2.3692725e-22)
(0.0098664389 -0.01387864 8.8020213e-23)
(0.012042679 -0.01562415 4.4451482e-22)
(0.01468129 -0.017510878 -2.6413812e-23)
(0.017866405 -0.019531392 -5.7018012e-22)
(0.021691171 -0.021673016 1.9060507e-22)
(0.026256487 -0.023917376 1.3652923e-22)
(0.031668942 -0.026240228 -4.1666524e-22)
(0.038037921 -0.028611684 -8.6955948e-23)
(0.045471923 -0.030996879 8.8755273e-22)
(0.054074259 -0.033357079 -1.9119359e-21)
(0.063938384 -0.035651196 -2.3750401e-21)
(0.075143283 -0.037837526 -1.2169585e-21)
(0.087749074 -0.039875671 -1.4707957e-21)
(0.10179397 -0.041727991 1.9486369e-21)
(0.11729044 -0.043361556 -3.2102978e-21)
(0.13422764 -0.044747794 -1.1335893e-23)
(0.15256139 -0.045866123 4.6399382e-21)
(0.17223874 -0.046701778 2.2513629e-21)
(0.19315816 -0.047252218 -3.2004973e-21)
(0.2152655 -0.047492914 -1.5170235e-21)
(0.2383322 -0.047453482 6.3010438e-22)
(0.26246916 -0.047073411 1.2542329e-20)
(0.28701135 -0.046444928 8.884793e-22)
(0.31291436 -0.045480157 -1.7267498e-21)
(0.33775875 -0.044168523 -3.1052554e-21)
(0.36591295 -0.043270384 1.1069567e-20)
(1.1009544e-05 -3.380201e-05 3.618878e-24)
(3.4851484e-05 -0.00010625341 8.1834449e-24)
(6.2510052e-05 -0.00018928883 -6.545965e-24)
(9.4706685e-05 -0.00028457772 2.6954187e-23)
(0.00013227288 -0.00039405152 -2.2273671e-23)
(0.00017622301 -0.00051992281 -1.9627694e-23)
(0.00022777348 -0.00066472904 1.9090866e-23)
(0.00028839016 -0.00083137307 -1.0551538e-23)
(0.00035984448 -0.0010231676 -4.2606092e-23)
(0.00044428279 -0.0012438823 9.140435e-23)
(0.00054431237 -0.0014977936 -5.1362152e-23)
(0.0006631082 -0.0017897347 -9.1356497e-23)
(0.00080454515 -0.0021251447 8.4319462e-23)
(0.00097336161 -0.0025101143 2.0002422e-23)
(0.001175361 -0.002951424 4.2711278e-23)
(0.0014176592 -0.00345657 -5.096392e-23)
(0.0017089863 -0.0040337727 6.9631131e-24)
(0.0020600521 -0.0046919572 7.1840743e-23)
(0.0024839849 -0.005440699 3.1676779e-24)
(0.0029968508 -0.0062901208 -2.386333e-22)
(0.0036182614 -0.0072507281 3.6350948e-22)
(0.0043720704 -0.008333168 -4.8601982e-22)
(0.0052871544 -0.0095478968 4.5890016e-22)
(0.0063982626 -0.010904743 -1.360637e-22)
(0.0077469057 -0.012412355 6.4203271e-23)
(0.0093822353 -0.014077534 -1.7121125e-22)
(0.011361845 -0.015904456 2.7659195e-22)
(0.013752399 -0.017893818 -6.947745e-22)
(0.01662997 -0.020041945 1.0437368e-22)
(0.020079953 -0.022339932 7.5738112e-22)
(0.024196422 -0.024772908 -2.6614421e-22)
(0.029080786 -0.027319534 -2.3419201e-22)
(0.034839676 -0.02995184 -6.2272863e-22)
(0.04158202 -0.032635499 -6.9523017e-22)
(0.049415382 -0.035330607 1.5548423e-21)
(0.058441726 -0.037992956 1.1274021e-21)
(0.068752868 -0.040575763 -1.3264683e-21)
(0.080426024 -0.043031648 5.3679354e-22)
(0.093519637 -0.045314793 2.24304e-21)
(0.1080705 -0.047382549 -3.5921458e-21)
(0.12409018 -0.049197603 1.0930088e-21)
(0.14156755 -0.050727342 -7.042504e-21)
(0.16045795 -0.051948099 2.7183718e-21)
(0.1807097 -0.052844523 7.7486348e-22)
(0.20222542 -0.053413016 -1.5378965e-22)
(0.22495322 -0.053625024 -3.685654e-21)
(0.24866698 -0.053514582 5.7651229e-21)
(0.27348962 -0.053007885 -5.1572074e-22)
(0.29873205 -0.052223591 -2.7267187e-21)
(0.3254444 -0.051013493 1.6958463e-20)
(0.35094987 -0.0494898 1.7087047e-20)
(0.38030539 -0.048191452 -3.8366078e-21)
(1.428789e-05 -3.8430153e-05 -4.0359071e-24)
(4.5166121e-05 -0.00012079366 -9.5421219e-24)
(8.0902212e-05 -0.00021517635 1.8270924e-23)
(0.00012238503 -0.00032346794 -3.6573832e-23)
(0.00017064012 -0.00044785349 2.5100205e-23)
(0.00022690627 -0.00059083463 2.1829834e-23)
(0.00029265922 -0.00075527855 1.0983704e-23)
(0.00036966416 -0.00094446312 -3.7481213e-23)
(0.00046003772 -0.0011621263 -2.3804135e-23)
(0.00056632374 -0.0014125184 1.1336469e-22)
(0.00069158658 -0.0017004571 -4.2265376e-23)
(0.00083952586 -0.0020313819 -1.2115954e-22)
(0.0010146175 -0.0024114083 2.9121277e-23)
(0.0012222865 -0.0028473762 1.2094258e-22)
(0.0014691188 -0.0033468907 -1.8708915e-22)
(0.0017631187 -0.0039183478 1.3197318e-22)
(0.0021140207 -0.0045709392 -1.2747949e-22)
(0.0025336648 -0.0053146268 2.4132876e-22)
(0.0030364428 -0.0061600753 -1.1814264e-22)
(0.0036398238 -0.0071185304 1.6019227e-22)
(0.0043649634 -0.008201628 -2.3896863e-22)
(0.0052373965 -0.0094211163 2.8544561e-22)
(0.0062878071 -0.010788477 -3.5620395e-22)
(0.007552857 -0.012314429 1.3516331e-22)
(0.0090760419 -0.014008305 1.5980608e-22)
(0.010908525 -0.015877302 -6.0631724e-23)
(0.013109876 -0.017925615 -1.9722693e-23)
(0.015748624 -0.020153485 3.5616382e-22)
(0.018902508 -0.022556212 -1.0404211e-22)
(0.022658295 -0.025123212 -2.5458587e-22)
(0.027111036 -0.027837224 -7.1851205e-22)
(0.032362644 -0.03067377 1.6520639e-21)
(0.038519711 -0.033601009 -1.4654337e-21)
(0.045690567 -0.03658007 1.767899e-21)
(0.05398163 -0.039565956 -1.3649599e-22)
(0.063493259 -0.042508986 -9.6040261e-22)
(0.074315343 -0.045356735 -5.4755978e-22)
(0.086523026 -0.048056249 3.4368507e-22)
(0.10017281 -0.050556438 1.3211121e-21)
(0.11529983 -0.052809815 -1.3504851e-21)
(0.13191464 -0.054774865 7.1496662e-22)
(0.15000583 -0.056414847 3.9961526e-21)
(0.1695277 -0.057702973 -6.5216684e-21)
(0.19043024 -0.058624239 4.1317758e-22)
(0.212621 -0.059173746 3.8423589e-21)
(0.23605009 -0.059318474 8.5845117e-21)
(0.26049419 -0.059097461 -3.0134657e-22)
(0.2860883 -0.058421547 -1.4663041e-21)
(0.31211913 -0.05744144 4.6675458e-21)
(0.33973376 -0.055930135 -9.9474452e-21)
(0.36598496 -0.054169267 -1.4275298e-21)
(0.3966563 -0.052352005 -8.0226162e-21)
(1.81347e-05 -4.3136949e-05 -6.7488458e-24)
(5.7267503e-05 -0.00013557849 2.012233e-24)
(0.00010247708 -0.00024149419 -9.9150971e-24)
(0.00015484699 -0.00036299525 -8.6029142e-24)
(0.00021562842 -0.00050252128 3.0948699e-23)
(0.00028632074 -0.0006628635 2.1193762e-23)
(0.00036870043 -0.00084721883 -8.0644214e-23)
(0.00046487942 -0.0010592394 1.0068019e-23)
(0.00057737361 -0.0013030867 7.4506096e-23)
(0.00070918599 -0.0015834885 -3.8202162e-23)
(0.00086390806 -0.0019057985 -1.9528836e-23)
(0.0010458435 -0.002276055 -3.1313171e-23)
(0.001260159 -0.0027010389 6.4233794e-23)
(0.0015130674 -0.0031883246 -1.2642912e-22)
(0.0018120503 -0.0037463215 -1.2371827e-23)
(0.0021661267 -0.0043842983 1.1185998e-22)
(0.0025861759 -0.0051123834 -7.9561519e-23)
(0.0030853223 -0.0059415303 -5.862768e-23)
(0.0036793905 -0.006883436 2.731545e-22)
(0.0043874355 -0.0079503985 4.3816181e-23)
(0.0052323529 -0.0091550967 2.77418e-23)
(0.0062415658 -0.010510275 -1.8186993e-23)
(0.0074477808 -0.012028313 -4.3479831e-22)
(0.0088897917 -0.013720672 3.6482678e-22)
(0.010613297 -0.015597201 -3.7675577e-23)
(0.01267168 -0.017665303 1.7264593e-22)
(0.015126678 -0.019928983 -4.3894888e-22)
(0.018048852 -0.022387801 2.0834707e-22)
(0.021517734 -0.025035805 8.9249534e-22)
(0.025621539 -0.02786051 -6.6515964e-22)
(0.030456322 -0.030842051 9.1842262e-22)
(0.036124453 -0.033952627 -7.6091098e-22)
(0.042732379 -0.037156381 1.022016e-21)
(0.050387645 -0.040409808 -1.061837e-21)
(0.059195292 -0.043662778 -4.0304564e-22)
(0.069253786 -0.046860166 5.7231054e-23)
(0.080650775 -0.049943994 3.7417032e-21)
(0.093459011 -0.052855887 1.6687751e-21)
(0.10773276 -0.055539686 -1.6416984e-21)
(0.12350527 -0.057943299 2.1807059e-21)
(0.14078596 -0.060021281 -5.4833778e-21)
(0.15956315 -0.061732581 -5.8360569e-22)
(0.17978921 -0.06304725 3.7469917e-21)
(0.20141643 -0.063951925 -3.2416039e-21)
(0.22435815 -0.064440033 2.8673739e-21)
(0.24856586 -0.064473552 -3.5852502e-21)
(0.27381942 -0.064097236 -1.7135617e-20)
(0.30026528 -0.063204567 3.365911e-21)
(0.3271671 -0.061983995 -7.818856e-21)
(0.35576732 -0.060110642 1.0758737e-21)
(0.38284399 -0.058084099 -1.3631953e-20)
(0.41492393 -0.05561693 9.0752737e-21)
(2.2604373e-05 -4.7898526e-05 6.7399171e-24)
(7.132613e-05 -0.00015053263 -1.0968253e-23)
(0.00012753749 -0.00026810783 4.8815421e-24)
(0.00019254606 -0.00040295662 1.8566907e-23)
(0.00026786279 -0.0005577724 2.1836846e-23)
(0.00035528644 -0.00073563461 -2.8601787e-23)
(0.00045693868 -0.00094006767 -5.394796e-23)
(0.00057532887 -0.0011750946 3.667196e-23)
(0.00071342992 -0.0014452955 2.5689333e-23)
(0.00087476954 -0.0017558687 -4.6882284e-23)
(0.0010635406 -0.0021126945 1.071952e-22)
(0.0012847349 -0.0025223977 -3.3128102e-23)
(0.001544304 -0.0029924078 4.5352274e-23)
(0.0018493545 -0.003531012 -7.2679736e-23)
(0.0022083818 -0.0041473957 -1.1630365e-22)
(0.0026315505 -0.0048516649 1.1039151e-22)
(0.003131029 -0.0056548389 -4.2250196e-23)
(0.0037213843 -0.0065688058 5.4688292e-23)
(0.0044200449 -0.0076062245 -1.009004e-22)
(0.0052478358 -0.0087803588 4.0726444e-23)
(0.0062295874 -0.010104826 3.9121614e-23)
(0.0073948153 -0.01159324 -1.6129689e-22)
(0.0087784575 -0.013258733 2.4225784e-22)
(0.010421649 -0.015113339 -1.3334601e-22)
(0.012372495 -0.017167226 -3.1234676e-22)
(0.01468679 -0.019427789 1.1804047e-24)
(0.017428608 -0.021898606 -7.8225723e-23)
(0.020670677 -0.024578317 6.9835536e-22)
(0.024494418 -0.027459463 -9.7708011e-22)
(0.028989542 -0.030527416 1.1068109e-21)
(0.034253086 -0.033759485 -2.4429907e-22)
(0.0403878 -0.037124361 -3.929238e-22)
(0.04749983 -0.040582028 -1.4443395e-21)
(0.05569573 -0.044084266 -3.2453921e-22)
(0.065078885 -0.047575806 -1.7847883e-21)
(0.075745557 -0.050996134 -5.700643e-22)
(0.087780814 -0.054281855 1.0219498e-21)
(0.10125467 -0.057369369 1.5334032e-21)
(0.11621887 -0.060197711 -2.8984895e-21)
(0.13270444 -0.062710501 3.400304e-21)
(0.15071965 -0.064858757 1.5620715e-21)
(0.17025254 -0.066596787 6.6828048e-21)
(0.19125219 -0.067891452 2.5372942e-21)
(0.21367433 -0.068732746 -5.7292385e-21)
(0.23743894 -0.069111882 -4.5938136e-22)
(0.26249759 -0.068985216 -4.0038031e-21)
(0.28863387 -0.068404075 1.6645224e-20)
(0.31600444 -0.067242801 -4.4698235e-21)
(0.34385218 -0.065733075 1.3594818e-20)
(0.37350922 -0.06343337 5.416775e-21)
(0.40148458 -0.061109434 -1.2860169e-20)
(0.43503974 -0.057845543 -1.7228422e-20)
(2.775391e-05 -5.2681602e-05 -1.3356188e-23)
(8.7520635e-05 -0.00016555136 3.0306486e-23)
(0.0001564006 -0.00029483036 -4.2700825e-24)
(0.00023595713 -0.0004430705 6.8431507e-24)
(0.00032799743 -0.00061321609 -4.1039702e-23)
(0.00043466131 -0.00080863099 6.8254998e-24)
(0.00055846311 -0.001033162 2.6388879e-23)
(0.0007023637 -0.0012911965 -9.1781471e-24)
(0.00086985433 -0.0015877243 2.9632173e-23)
(0.0010650569 -0.0019284033 1.8904397e-23)
(0.0012928442 -0.0023196258 -4.7040916e-23)
(0.0015589841 -0.0027685847 -3.9590238e-23)
(0.0018703124 -0.0032833347 -4.1602419e-23)
(0.0022349393 -0.0038728462 2.4172712e-23)
(0.0026624966 -0.0045470441 7.7959202e-23)
(0.0031644294 -0.0053168247 -5.920412e-23)
(0.0037543431 -0.0061940419 1.9020121e-22)
(0.0044484077 -0.0071914484 4.0618741e-23)
(0.0052658282 -0.0083225794 -1.7898948e-22)
(0.0062293828 -0.0096015616 3.8114758e-23)
(0.0073660293 -0.011042827 -1.4634222e-23)
(0.008707573 -0.012660716 -4.0140061e-22)
(0.010291383 -0.014468943 5.1480884e-22)
(0.012161132 -0.01647992 1.4472115e-23)
(0.014367517 -0.01870392 4.0887873e-24)
(0.01696891 -0.021148087 -2.2800175e-22)
(0.020031864 -0.02381532 6.9964936e-22)
(0.023631378 -0.026703065 -7.8520397e-22)
(0.027850818 -0.029802096 -1.8342148e-22)
(0.032781392 -0.033095383 -1.2663143e-22)
(0.038521062 -0.036557182 -5.0640362e-22)
(0.045172828 -0.040152487 6.1514186e-22)
(0.052842346 -0.043836998 1.0580727e-21)
(0.06163492 -0.04755772 -1.5934653e-21)
(0.071651977 -0.051254262 1.5398861e-21)
(0.082987228 -0.054860824 -3.1262162e-21)
(0.095722804 -0.058308764 -4.6216606e-21)
(0.10992562 -0.061529513 -2.6176228e-21)
(0.12564455 -0.064457611 -4.8515729e-22)
(0.14290807 -0.067032818 -3.1264513e-21)
(0.16172337 -0.069203175 3.054224e-21)
(0.18207805 -0.070917789 -3.9161572e-21)
(0.20391593 -0.072140391 -2.9134702e-21)
(0.22719842 -0.072866487 2.2900225e-21)
(0.25185251 -0.073084247 -1.0369478e-20)
(0.27782781 -0.072743838 1.5555265e-20)
(0.30491252 -0.071904153 6.0164226e-21)
(0.33327144 -0.070418986 1.4758594e-21)
(0.36213021 -0.068568312 -2.2448306e-20)
(0.39290092 -0.0657767 -5.2066602e-22)
(0.42184231 -0.063122042 8.8283277e-21)
(0.45692103 -0.058925642 2.2641851e-20)
(3.3641943e-05 -5.7442308e-05 4.1468698e-24)
(0.00010603469 -0.00018049669 -1.7458799e-23)
(0.00018939243 -0.00032141575 4.3704768e-23)
(0.00028556801 -0.00048296667 -3.7183793e-23)
(0.00039670402 -0.0006683392 -2.1840086e-23)
(0.00052532568 -0.0008811748 2.3380777e-23)
(0.00067439053 -0.0011256342 1.0778382e-23)
(0.00084736824 -0.0014064583 2.3283752e-23)
(0.0010483334 -0.0017290336 -4.9248389e-23)
(0.0012820753 -0.0020994607 -2.9709626e-23)
(0.001554229 -0.0025246239 8.0117426e-23)
(0.001871431 -0.0030122584 5.8373244e-23)