/*--------------------------------*- C++ -*----------------------------------*\
  =========                 |
  \\      /  F ield         | OpenFOAM: The Open Source CFD Toolbox
   \\    /   O peration     | Website:  https://openfoam.org
    \\  /    A nd           | Version:  13
     \\/     M anipulation  |
\*---------------------------------------------------------------------------*/
FoamFile
{
    format      ascii;
    class       volScalarField;
    location    "13.30046";
    object      k;
}
// * * * * * * * * * * * * * * * * * * * * * * * * * * * * * * * * * * * * * //

dimensions      [0 2 -2 0 0 0 0];

internalField   nonuniform List<scalar> 
17140
(
9.6121021e-11
3.0204539e-09
2.4699201e-08
1.0622324e-07
3.2689196e-07
8.2493868e-07
1.8293675e-06
3.7073947e-06
7.0341017e-06
1.26935e-05
2.2023405e-05
3.7020152e-05
6.0622653e-05
9.7096924e-05
0.00015253849
0.00023549416
0.00035766421
0.00053456152
0.00078584919
0.0011348293
0.0016062255
0.0022211179
0.0029880172
0.0038903437
0.0048738314
0.0058421694
0.0066716391
0.0072445631
0.0075378477
0.0076334142
0.0076036229
0.0074718133
0.0073078031
0.0071439733
0.0069883448
0.0068408996
0.0067007151
0.0065675186
0.006440886
0.0063203256
0.0062055241
0.0060951745
0.0059886506
0.0058792545
0.0057489052
0.0055670132
0.0053058302
0.0051753755
0.0050142285
0.0049264756
0.0048273437
0.0047768717
0.0047474085
0.004731021
0.0047327759
0.0047536707
0.0047965837
0.0048601694
0.0049263591
0.0049243465
0.0047160615
0.0037338044
0.0030419552
0.0023454049
0.0017928893
9.5237836e-11
2.9927015e-09
2.4472326e-08
1.0524808e-07
3.2389338e-07
8.1737888e-07
1.8126229e-06
3.673509e-06
6.9699231e-06
1.2577937e-05
2.1823446e-05
3.6685183e-05
6.0076523e-05
9.6227136e-05
0.00015118204
0.00023341994
0.00035455312
0.00052998756
0.00077926905
0.0011255941
0.0015936365
0.0022045514
0.0029671402
0.0038654023
0.0048459238
0.0058133292
0.006644551
0.0072227006
0.0075209863
0.007618998
0.0075922851
0.0074630393
0.0073012521
0.0071397002
0.0069870914
0.0068438324
0.0067097319
0.006585037
0.0064709186
0.0063695484
0.006281446
0.0062013611
0.0061363683
0.006078927
0.006012645
0.0058971455
0.0057477223
0.0057008846
0.0056705418
0.0056940677
0.0057390478
0.0058123861
0.0059042016
0.006015853
0.0061438913
0.0062768282
0.0064002933
0.0065002139
0.0065088679
0.006286121
0.0058104179
0.0044461936
0.0035063117
0.0026720774
0.0019894903
9.2985002e-11
2.9219096e-09
2.3893442e-08
1.0275857e-07
3.1623274e-07
7.9804949e-07
1.7697694e-06
3.5866976e-06
6.8053187e-06
1.2281181e-05
2.1309291e-05
3.5822677e-05
5.8668235e-05
9.398084e-05
0.0001476735
0.00022804677
0.00034648254
0.00051810744
0.00076216263
0.0011015763
0.0015609109
0.0021615617
0.0029131714
0.00380139
0.0047752239
0.0057419741
0.0065804869
0.0071768783
0.0074932613
0.0076003976
0.0075851783
0.0074655906
0.0073125412
0.0071614863
0.0070225867
0.0068977278
0.0067886645
0.0066955434
0.006621306
0.0065794685
0.006564875
0.006576824
0.0066478602
0.0067613685
0.0069061165
0.0070214001
0.0071476799
0.0074068334
0.0077375238
0.0081310052
0.0085792173
0.0090324617
0.0094438667
0.0097806494
0.010031872
0.010196853
0.01017089
0.0098357147
0.0090437034
0.0079559548
0.0064500697
0.0046176504
0.0032091024
0.0021731758
0.0014224315
8.9361485e-11
2.8080464e-09
2.2962352e-08
9.8754348e-08
3.0391093e-07
7.6695828e-07
1.7008372e-06
3.4470504e-06
6.540515e-06
1.1803742e-05
2.0482008e-05
3.4434716e-05
5.6401634e-05
9.0364769e-05
0.0001420241
0.00021939227
0.00033347835
0.00049895584
0.00073457007
0.0010628095
0.0015080485
0.0020920652
0.0028258701
0.0036978264
0.004660968
0.0056271271
0.0064785233
0.0071056399
0.0074511205
0.0075765541
0.0075827366
0.0074840884
0.0073506616
0.0072222199
0.007112531
0.0070257633
0.0069761014
0.0069577743
0.0069687176
0.007051801
0.0071968522
0.0074324008
0.0077884264
0.0082540982
0.0088026575
0.0093998615
0.010135465
0.01105654
0.012122089
0.013296225
0.014515648
0.015673059
0.016552449
0.017099216
0.01738554
0.017331163
0.016133531
0.014897732
0.012525767
0.0098257941
0.0067284124
0.0043671132
0.0026912106
0.0016364631
0.0010024535
8.4464658e-11
2.6541715e-09
2.1704079e-08
9.3343048e-08
2.8725913e-07
7.2494079e-07
1.6076785e-06
3.2583174e-06
6.1826167e-06
1.1158413e-05
1.9363709e-05
3.2558268e-05
5.3336776e-05
8.547401e-05
0.00013438076
0.00020767806
0.00031586635
0.00047299808
0.00069713352
0.0010101431
0.0014361138
0.0019973026
0.0027065475
0.0035559168
0.0045040534
0.0054692548
0.0063387926
0.0070046227
0.0073922087
0.0075477823
0.0075814232
0.0075185216
0.0074175251
0.0073265439
0.007276146
0.0072590356
0.0072813104
0.0073713835
0.0075354078
0.007806312
0.0081977511
0.0087474878
0.0094817428
0.010394715
0.011470977
0.012814208
0.014435272
0.016273631
0.018326965
0.02052871
0.022752981
0.024852057
0.026608839
0.027625313
0.028072576
0.027765255
0.025063161
0.021791819
0.016938076
0.011470834
0.0068344432
0.0037644292
0.0020229748
0.0011200588
0.00066311479
7.8456113e-11
2.4653627e-09
2.0160142e-08
8.6703204e-08
2.6682661e-07
6.733826e-07
1.4933639e-06
3.0267147e-06
5.7433976e-06
1.0366384e-05
1.7991023e-05
3.0254563e-05
4.9573127e-05
7.9466061e-05
0.00012498693
0.00019327153
0.00029418699
0.00044100657
0.00065091941
0.00094498632
0.0013468624
0.0018792857
0.0025572202
0.0033772133
0.0043048619
0.005266669
0.0061564834
0.0068645189
0.007307766
0.0075165277
0.0075820475
0.007565882
0.007511723
0.0074848035
0.0074855157
0.0075483203
0.0076829229
0.0079144138
0.0082637365
0.0087655627
0.0094495552
0.010358751
0.011522766
0.012939131
0.014665709
0.016781469
0.01927125
0.022121778
0.025218901
0.028507947
0.031778985
0.034871682
0.037565311
0.03926643
0.040003221
0.039793488
0.035848021
0.029855864
0.0216103
0.012333298
0.0063508894
0.0030576466
0.0014823149
0.00079998003
0.00049316891
7.150978e-11
2.2470855e-09
1.8375231e-08
7.9026985e-08
2.4320457e-07
6.1377479e-07
1.3611967e-06
2.7589266e-06
5.235509e-06
9.4504031e-06
1.64032e-05
2.7589059e-05
4.521667e-05
7.2507956e-05
0.00011409911
0.00017655615
0.00026899687
0.00040376134
0.00059697294
0.00086865542
0.0012418021
0.0017394689
0.0023787786
0.0031611683
0.0040601491
0.0050118917
0.0059183635
0.006670954
0.0071897245
0.007470354
0.0075831918
0.007617254
0.0076230508
0.007649143
0.0077274578
0.0078864984
0.0081475541
0.0085388569
0.0090910545
0.0098439534
0.010837419
0.012119004
0.01372104
0.015663919
0.01802369
0.02082859
0.024075453
0.027754144
0.031786361
0.036039004
0.040247672
0.044204056
0.047652868
0.049967294
0.050991018
0.050874472
0.046088151
0.037315918
0.024296076
0.012565438
0.0054099515
0.0022452762
0.0010025032
0.00055343656
0.0003734136
6.3857905e-11
2.0066376e-09
1.640902e-08
7.0571013e-08
2.1718268e-07
5.4810971e-07
1.215593e-06
2.4638958e-06
4.6758975e-06
8.4409903e-06
1.4653035e-05
2.4650106e-05
4.0411136e-05
6.482774e-05
0.0001020708
0.00015806743
0.00024108811
0.00036240353
0.00053688792
0.00078329315
0.0011236753
0.0015811384
0.0021748114
0.0029111953
0.0037725047
0.004706184
0.0056245376
0.0064236265
0.0070198766
0.0073826912
0.0075732589
0.0076688371
0.0077303229
0.0078195042
0.0079787225
0.0082399823
0.0086316267
0.0091864806
0.0099418659
0.010942095
0.012233688
0.013866517
0.015875529
0.018302654
0.021200925
0.02457965
0.028447601
0.032777237
0.037470022
0.042393343
0.047352074
0.05198891
0.055918822
0.058550682
0.059725551
0.059344781
0.053703082
0.041648995
0.025155722
0.010925518
0.0040235245
0.0015270964
0.00070862972
0.00043422739
0.00031860267
5.5777125e-11
1.7527116e-09
1.4332585e-08
6.1640955e-08
1.8970154e-07
4.787606e-07
1.0618141e-06
2.1522786e-06
4.084762e-06
7.3745438e-06
1.2803542e-05
2.1543277e-05
3.5328581e-05
5.6699089e-05
8.9327697e-05
0.00013845354
0.00021142608
0.00031833704
0.00047265063
0.00069161725
0.00099604448
0.0014087018
0.0019503399
0.0026323247
0.0034458951
0.0043509801
0.0052722547
0.0061124627
0.006784347
0.0072464434
0.0075241797
0.0076855584
0.0078165976
0.0079735272
0.0082126632
0.0085730156
0.0090886035
0.0097966053
0.010738861
0.011962156
0.013517094
0.015453751
0.017809789
0.02063347
0.023950379
0.027765513
0.032094025
0.036881896
0.042019891
0.047373485
0.052737874
0.05778103
0.0619206
0.064434648
0.065468513
0.064182005
0.057215156
0.042865918
0.022760513
0.0083474796
0.0027256051
0.0010163046
0.000505212
0.00034615146
0.00027620359
4.7566618e-11
1.4947091e-09
1.2222813e-08
5.2567469e-08
1.6177865e-07
4.0829494e-07
9.0555245e-07
1.8356079e-06
3.4839724e-06
6.2904946e-06
1.092304e-05
1.8383177e-05
3.0156098e-05
4.8420307e-05
7.63354e-05
0.00011842655
0.00018107804
0.00027312733
0.00040650214
0.00059674413
0.00086308775
0.0012274961
0.0017117404
0.00233146
0.0030866999
0.0039506005
0.0048622392
0.0057336284
0.0064764628
0.0070366913
0.0074147038
0.0076612953
0.0078575936
0.0080865593
0.0083980247
0.0088453035
0.0094692157
0.010309044
0.011408573
0.012815774
0.014581855
0.016755739
0.01937859
0.022489974
0.026093504
0.030195823
0.034809482
0.039859313
0.045227693
0.050769966
0.05627183
0.061394294
0.06542577
0.067426141
0.067857409
0.065291424
0.057311195
0.039510196
0.017398384
0.0053802953
0.0017188773
0.00069037752
0.00039250097
0.00030384734
0.00025564344
3.9523281e-11
1.2419593e-09
1.015598e-08
4.3678538e-08
1.3442335e-07
3.3926011e-07
7.5245737e-07
1.525332e-06
2.895247e-06
5.2280238e-06
9.0794751e-06
1.5283924e-05
2.5080312e-05
4.0289689e-05
6.3561045e-05
9.8704266e-05
0.00015112653
0.00022837575
0.00034076105
0.00050194731
0.00072928371
0.0010434003
0.0014662995
0.0020169061
0.0027032077
0.0035115206
0.0043969387
0.0052838099
0.0060850826
0.0067359473
0.0072194171
0.0075675399
0.0078371074
0.0081252234
0.0085147631
0.0090407594
0.0097486236
0.010687237
0.011902426
0.013440952
0.015351785
0.017682015
0.020473761
0.023754944
0.027508949
0.031742342
0.036461026
0.041576093
0.04696003
0.052454304
0.057825023
0.062702768
0.066225033
0.067597827
0.066797157
0.062861641
0.05252265
0.031119376
0.010929631
0.0032066827
0.0010674178
0.00048584476
0.00031857931
0.00026567098
0.00022945953
3.1918997e-11
1.003006e-09
8.2019625e-09
3.5274763e-08
1.0856075e-07
2.739906e-07
6.0770591e-07
1.231944e-06
2.3384987e-06
4.2230767e-06
7.335239e-06
1.2350452e-05
2.0273173e-05
3.2582847e-05
5.1437969e-05
7.9956192e-05
0.00012258889
0.00018560252
0.00027765861
0.00041043475
0.00059912914
0.00086251227
0.0012219169
0.0016982406
0.0023059172
0.0030434986
0.0038829683
0.0047645073
0.0056067788
0.0063358217
0.006916426
0.0073632655
0.0077304991
0.0080826181
0.0085057084
0.0090696929
0.0098391354
0.010844621
0.012127464
0.01373332
0.015711821
0.01811152
0.020974699
0.024312027
0.028077952
0.032270879
0.0369042
0.041886231
0.047084294
0.052376329
0.05748104
0.061898136
0.064669131
0.064867693
0.06282643
0.056824539
0.04292341
0.020018102
0.0059533403
0.0017915933
0.00066384031
0.0003623287
0.00027652354
0.00024357943
0.00021412167
2.4986756e-11
7.8517075e-10
6.4206366e-09
2.7613681e-08
8.4983482e-08
2.1448706e-07
4.7573597e-07
9.6444229e-07
1.8308134e-06
3.3065219e-06
5.743979e-06
9.6731531e-06
1.5883191e-05
2.5538712e-05
4.0343779e-05
6.2769861e-05
9.6366445e-05
0.00014617177
0.000219231
0.00032519949
0.00047694261
0.00069091366
0.00098687158
0.0013861906
0.001907728
0.0025603452
0.0033325629
0.0041834347
0.00504362
0.0058352674
0.0065048942
0.0070460313
0.0074972537
0.0079259851
0.0084019949
0.0090002759
0.0097808766
0.010793111
0.012079727
0.013685714
0.015659709
0.018049356
0.0208957
0.024206001
0.027924159
0.032025886
0.036509696
0.04128849
0.046201673
0.051039915
0.055501743
0.058999398
0.060458404
0.059550472
0.055937084
0.047429666
0.029535264
0.010090746
0.0029942939
0.00097330994
0.00043311649
0.00028646075
0.0002398704
0.00021627474
0.00019241172
1.8906979e-11
5.9412284e-10
4.8583615e-09
2.0894674e-08
6.4305254e-08
1.6229879e-07
3.5998551e-07
7.298013e-07
1.3854449e-06
2.5023326e-06
4.3474332e-06
7.322536e-06
1.2026639e-05
1.9345328e-05
3.0577813e-05
4.7615615e-05
7.3190233e-05
0.00011120902
0.00016719575
0.0002488379
0.00036660412
0.00053431123
0.00076936122
0.0010921099
0.0015234954
0.0020798392
0.0027641986
0.0035558353
0.0044039154
0.005235622
0.0059832107
0.0066150809
0.0071481313
0.0076362051
0.0081506696
0.0087715019
0.0095544952
0.010556241
0.011822611
0.01339702
0.015325063
0.01765131
0.020413553
0.023613855
0.027179655
0.031050643
0.03519062
0.039524868
0.043864941
0.04796185
0.051505916
0.053925297
0.053925037
0.051969441
0.046474492
0.034669248
0.015475641
0.0047504049
0.0014565589
0.00055210738
0.00031167018
0.00024566761
0.00021261466
0.00019775882
0.00018069282
1.3792274e-11
4.334009e-10
3.5440746e-09
1.5242206e-08
4.6909228e-08
1.183934e-07
2.6260269e-07
5.3238246e-07
1.0106916e-06
1.8255492e-06
3.1718641e-06
5.3431583e-06
8.7774518e-06
1.412331e-05
2.2334375e-05
3.4803698e-05
5.355271e-05
8.1493148e-05
0.00012278194
0.00018328497
0.00027114774
0.00039742404
0.00057661347
0.00082677305
0.0011685754
0.0016223399
0.0022019417
0.0029053479
0.0037044932
0.0045423305
0.0053470115
0.0060648315
0.0066826764
0.0072337734
0.0077808009
0.0083994742
0.0091566025
0.010110782
0.011309402
0.012794899
0.01460807
0.016787609
0.019366462
0.022346126
0.025647176
0.029177424
0.032863625
0.036613547
0.040241227
0.043479478
0.045998056
0.046935297
0.045912413
0.04247239
0.034650633
0.01968155
0.0066287894
0.0020570195
0.0007137749
0.00034811533
0.00024623509
0.0002123613
0.00018762266
0.0001775557
0.00016427687
9.6785725e-12
3.0413411e-10
2.4870109e-09
1.0696004e-08
3.2917777e-08
8.308029e-08
1.8427578e-07
3.7358777e-07
7.0923507e-07
1.2810706e-06
2.2259286e-06
3.7499619e-06
6.1610283e-06
9.9154804e-06
1.5685512e-05
2.445566e-05
3.7660233e-05
5.737724e-05
8.6598153e-05
0.00012959463
0.00019239874
0.00028339282
0.00041395247
0.00059897291
0.00085690224
0.001208585
0.0016738653
0.0022648692
0.0029760664
0.0037748141
0.0046014972
0.0053887167
0.0060926829
0.0067159094
0.0073022818
0.0079191573
0.0086373636
0.0095196798
0.010617752
0.011972537
0.013620321
0.01559274
0.017915516
0.020590734
0.023539958
0.026643946
0.029791631
0.032856553
0.035657535
0.037941432
0.039192357
0.038780723
0.036661426
0.031459876
0.020967886
0.0083274659
0.0026739403
0.00089801109
0.00039447846
0.00025759302
0.00021732293
0.00019052505
0.00017483924
0.00016728049
0.00015622238
6.5245142e-12
2.0502269e-10
1.6765402e-09
7.2103496e-09
2.2190268e-08
5.600492e-08
1.2422001e-07
2.5183171e-07
4.7808216e-07
8.6353787e-07
1.5004423e-06
2.5277968e-06
4.1532599e-06
6.6848655e-06
1.0576858e-05
1.6495772e-05
2.5415414e-05
3.8752753e-05
5.8560823e-05
8.7798985e-05
0.00013070325
0.00019327506
0.00028388586
0.00041393954
0.00059841511
0.00085589168
0.0012073205
0.0016724464
0.0022628032
0.0029716011
0.0037648222
0.0045831672
0.0053629215
0.0060686813
0.0067106231
0.0073372703
0.008016618
0.0088180061
0.0097957946
0.010991678
0.012437225
0.014155813
0.016164378
0.01846422
0.020985384
0.023596129
0.026150758
0.028476287
0.030424722
0.03164007
0.031496978
0.030159823
0.026638514
0.019562121
0.0090188918
0.0030827872
0.0010485035
0.00043582155
0.00026354161
0.00021623875
0.00018752996
0.00017411321
0.00016073602
0.00015376133
0.00014447158
4.2245763e-12
1.3275069e-10
1.0855456e-09
4.6686201e-09
1.4367824e-08
3.6261755e-08
8.0427789e-08
1.6304763e-07
3.0952348e-07
5.5905837e-07
9.7135547e-07
1.6363798e-06
2.6885428e-06
4.3272724e-06
6.8468061e-06
1.0679307e-05
1.6457217e-05
2.5103314e-05
3.7960403e-05
5.6976933e-05
8.496952e-05
0.00012598656
0.00018579439
0.00027248817
0.00039717683
0.0005745669
0.00082305401
0.0011635879
0.0016162078
0.0021931613
0.0028889329
0.0036714454
0.0044838365
0.0052655493
0.0059844797
0.0066534964
0.0073235995
0.0080459066
0.0088940615
0.0099148487
0.011137628
0.012578162
0.014240372
0.016118025
0.018152447
0.020214417
0.022140125
0.023737815
0.024810339
0.024764469
0.023864241
0.021366392
0.016636347
0.0085926254
0.0033059228
0.0011503532
0.00046514201
0.00026785405
0.00021376592
0.00018827205
0.00017133385
0.00015959756
0.00015139172
0.00014713528
0.00013911128
2.6309046e-12
8.2672006e-11
6.7603445e-10
2.9074161e-09
8.94757e-09
2.2581645e-08
5.0084385e-08
1.0153045e-07
1.9273309e-07
3.4809297e-07
6.047634e-07
1.0187178e-06
1.6735645e-06
2.6933308e-06
4.2609902e-06
6.6453145e-06
1.0239825e-05
1.5619357e-05
2.3622248e-05
3.5469668e-05
5.2938107e-05
7.8606159e-05
0.00011620071
0.00017106579
0.00025076086
0.00036575062
0.00053004073
0.00076141151
0.0010805136
0.0015078127
0.0020572823
0.0027269555
0.0034899618
0.0042946732
0.005081445
0.0058132446
0.0065086024
0.0072063556
0.0079532354
0.0088079748
0.0098068109
0.010964499
0.01227571
0.013721483
0.015247733
0.016736673
0.018018764
0.018940383
0.018938964
0.018322863
0.016518064
0.013305473
0.0074947717
0.0031898542
0.001163048
0.00047302191
0.00026600324
0.00021091099
0.00019320542
0.00017365852
0.00016025095
0.00015239689
0.00014375853
0.00013856859
0.00013211938
1.5802e-12
4.9655259e-11
4.0604557e-10
1.7462681e-09
5.3740768e-09
1.3562699e-08
3.0080212e-08
6.097586e-08
1.1574304e-07
2.0902736e-07
3.6312244e-07
6.1160287e-07
1.0045974e-06
1.61643e-06
2.5566834e-06
3.9862268e-06
6.140468e-06
9.3631718e-06
1.4155792e-05
2.124963e-05
3.1711514e-05
4.7098198e-05
6.968007e-05
0.00010275939
0.00015110821
0.00022153737
0.0003235644
0.00047005258
0.00067755448
0.00096579512
0.0013552567
0.0018618358
0.0024884472
0.0032162364
0.0040020801
0.0047898529
0.0055406713
0.0062563563
0.0069624572
0.0077000118
0.0085103814
0.0094123834
0.010400568
0.011444762
0.012496092
0.013429103
0.014168409
0.014202438
0.013795094
0.012529796
0.010283915
0.0062138946
0.0028290375
0.0011202887
0.00046780163
0.00026140671
0.00020561191
0.00019276199
0.00016972133
0.00015722992
0.00014872674
0.00014234189
0.0001360023
0.00013304888
0.00012810008
9.1923231e-13
2.88854e-11
2.3620402e-10
1.0158307e-09
3.1261467e-09
7.8893879e-09
1.7497086e-08
3.5467059e-08
6.7319022e-08
1.2156624e-07
2.1116339e-07
3.5561194e-07
5.840121e-07
9.3947806e-07
1.4855191e-06
2.3152636e-06
3.5648144e-06
5.4326378e-06
8.2078306e-06
1.2311528e-05
1.8357851e-05
2.7243914e-05
4.0282715e-05
5.939806e-05
8.7405793e-05
0.00012840692
0.00018830795
0.00027544808
0.00040122396
0.00058045152
0.00083104876
0.0011723814
0.001621287
0.0021851996
0.002854268
0.003596856
0.0043664022
0.0051239167
0.005851765
0.0065522598
0.0072488798
0.0079664058
0.0086971251
0.0094181472
0.010056517
0.010587229
0.010632632
0.010353963
0.0094729283
0.007876468
0.0049292132
0.0023362216
0.00099510315
0.00044778375
0.00025380354
0.00019915139
0.00018725703
0.00016797299
0.00015663968
0.00014990515
0.00014322576
0.00013744546
0.00013189514
0.0001277038
0.00012321286
5.2038998e-13
1.6352414e-11
1.3371806e-10
5.7507182e-10
1.7697231e-09
4.4661289e-09
9.9047066e-09
2.0076306e-08
3.8104152e-08
6.8804124e-08
1.1950208e-07
2.0122101e-07
3.3039933e-07
5.3137184e-07
8.399465e-07
1.308559e-06
2.0137083e-06
3.0667095e-06
4.6293044e-06
6.9364503e-06
1.0329802e-05
1.5307226e-05
2.259642e-05
3.3264528e-05
4.8880671e-05
7.1753733e-05
0.0001052717
0.00015435887
0.00022604268
0.00033003982
0.00047914087
0.00068890967
0.00097640913
0.001357307
0.001841306
0.0024256571
0.0030903833
0.0038022003
0.004525374
0.0052312029
0.0059049625
0.0065247462
0.007107195
0.0075857616
0.0079857245
0.0080136562
0.0078116052
0.0071683851
0.0059651844
0.0036749049
0.0017840219
0.00082142551
0.00040291071
0.00024254753
0.00019069738
0.00018021705
0.00016621361
0.00015670704
0.00014925108
0.00014145195
0.00013472631
0.00012979871
0.00012521058
0.00012319411
0.00012018185
2.8944501e-13
9.095338e-12
7.4374877e-11
3.1985738e-10
9.8431773e-10
2.4840142e-09
5.5087618e-09
1.1165591e-08
2.1190967e-08
3.8261933e-08
6.6449728e-08
1.1187805e-07
1.8367449e-07
2.9534121e-07
4.667265e-07
7.2685601e-07
1.1179986e-06
1.7015119e-06
2.5662706e-06
3.8409335e-06
5.7118093e-06
8.449139e-06
1.2446083e-05
1.8276939e-05
2.6784382e-05
3.9209716e-05
5.7384589e-05
8.4005743e-05
0.00012301066
0.00018005357
0.0002630341
0.00038249774
0.00055148949
0.00078437199
0.0010943132
0.0014897007
0.001970774
0.0025255631
0.0031309282
0.003755632
0.0043680834
0.0049336031
0.0054035321
0.0057837115
0.0058754741
0.0057320941
0.0052773839
0.0042380147
0.0024763597
0.0012548211
0.00063234472
0.00034376567
0.00022532399
0.00018313601
0.00017183101
0.00016513156
0.00015586975
0.0001468126
0.00013921479
0.00013386256
0.00012971619
0.00012630505
0.0001223251
0.00011968146
0.00011669141
1.6221318e-13
5.0972834e-12
4.1681713e-11
1.7925602e-10
5.5163044e-10
1.3920644e-09
3.0870777e-09
6.2568852e-09
1.1874161e-08
2.1438051e-08
3.7227638e-08
6.2669302e-08
1.0286717e-07
1.6536686e-07
2.6125117e-07
4.0671046e-07
6.2528583e-07
9.5108857e-07
1.43342e-06
2.1433674e-06
3.1833676e-06
4.7010988e-06
6.9097746e-06
1.0117948e-05
1.477499e-05
2.1538372e-05
3.1373622e-05
4.5702683e-05
6.6617244e-05
9.7169455e-05
0.00014173691
0.00020643175
0.00029942367
0.0004310117
0.00061267539
0.00085510957
0.0011643503
0.0015392683
0.0019695327
0.002434934
0.0029067059
0.003345195
0.0037091236
0.0039141176
0.0038405126
0.0035087159
0.00262819
0.0015229948
0.00083457293
0.0004622519
0.00028239917
0.00020512464
0.00017531737
0.00016603705
0.0001631327
0.00015392525
0.00014407186
0.00013772968
0.00013377006
0.00012985049
0.00012556693
0.00012148315
0.00011811643
0.00011631449
0.00011413024
9.8773306e-14
3.1037901e-12
2.5380445e-11
1.091508e-10
3.3589195e-10
8.476316e-10
1.8797047e-09
3.809707e-09
7.2297513e-09
1.3052286e-08
2.2664093e-08
3.814922e-08
6.2610135e-08
1.0062843e-07
1.5892315e-07
2.472885e-07
3.7993189e-07
5.7736689e-07
8.6910089e-07
1.2974521e-06
1.9229886e-06
2.8323243e-06
4.1493839e-06
6.05187e-06
8.7940554e-06
1.274043e-05
1.8414445e-05
2.6575932e-05
3.8334093e-05
5.5304248e-05
7.9824849e-05
0.00011522837
0.00016612351
0.00023857601
0.00034010106
0.00047908194
0.0006632782
0.00089685893
0.0011771169
0.0014910274
0.001816973
0.0021149925
0.0023348322
0.0023009372
0.0020550864
0.0014100542
0.0008643308
0.00052228226
0.00032822614
0.00022994961
0.00018471686
0.00016772253
0.00016153324
0.00015965973
0.0001520661
0.00014261934
0.00013720318
0.00013334425
0.00012880805
0.00012406468
0.00012049299
0.00011761727
0.00011468211
0.00011323827
0.00011149106
7.4051477e-14
2.3269494e-12
1.9028112e-11
8.1832732e-11
2.5182858e-10
6.3550674e-10
1.4093322e-09
2.8564722e-09
5.4210215e-09
9.7874306e-09
1.6996114e-08
2.861078e-08
4.6959386e-08
7.5479362e-08
1.1920984e-07
1.8549002e-07
2.8494495e-07
4.3286962e-07
6.5116178e-07
9.7100588e-07
1.436579e-06
2.1101431e-06
3.0790167e-06
4.4651408e-06
6.4383567e-06
9.2353671e-06
1.3187898e-05
1.875757e-05
2.6587104e-05
3.758633e-05
5.3048697e-05
7.4806299e-05
0.00010544736
0.00014852281
0.00020866291
0.00029139429
0.00040237883
0.00054567966
0.00072081927
0.00091707395
0.0011103797
0.0012425409
0.0012075198
0.0010142053
0.00068599315
0.00046589311
0.00031927043
0.00023180586
0.00018808251
0.00016793753
0.00015947244
0.00015804751
0.00015693956
0.0001517207
0.00014270829
0.0001372009
0.00013315713
0.00012826454
0.0001240577
0.00012119096
0.00011792671
0.00011504128
0.00011261262
0.00011117573
0.00010972747
7.0541877e-14
2.2166692e-12
1.8126446e-11
7.7956164e-11
2.3990465e-10
6.0543725e-10
1.3427169e-09
2.7216478e-09
5.1656486e-09
9.3275449e-09
1.6200125e-08
2.7276291e-08
4.477983e-08
7.199621e-08
1.1374415e-07
1.7704397e-07
2.7205845e-07
4.1340738e-07
6.2198718e-07
9.2746166e-07
1.3716242e-06
2.0128609e-06
2.9319569e-06
4.2394795e-06
6.0848602e-06
8.6673923e-06
1.2250431e-05
1.7178892e-05
2.390262e-05
3.3010128e-05
4.528611e-05
6.1804894e-05
8.4060672e-05
0.00011410004
0.00015457346
0.0002085556
0.00027869546
0.00036481932
0.00045945434
0.00054306713
0.0005782034
0.0005405727
0.0004248729
0.00033003884
0.00024600438
0.00019865438
0.00017015012
0.00015526889
0.00015297559
0.00015364106
0.00015536906
0.00015505198
0.00015167856
0.00014295548
0.00013754172
0.00013344357
0.00012875349
0.0001247304
0.00012148771
0.00011762592
0.00011434485
0.0001118345
0.00010955272
0.00010852786
0.00010760434
7.4142363e-14
2.3298126e-12
1.9051799e-11
8.1937131e-11
2.5216233e-10
6.3639592e-10
1.4114535e-09
2.8611925e-09
5.4310564e-09
9.8080915e-09
1.703761e-08
2.8692335e-08
4.7116318e-08
7.5774766e-08
1.1975278e-07
1.8646161e-07
2.8663074e-07
4.3568764e-07
6.5565257e-07
9.7769772e-07
1.4455288e-06
2.1197229e-06
3.0830819e-06
4.446866e-06
6.3573445e-06
9.0018977e-06
1.2613578e-05
1.7472661e-05
2.3906113e-05
3.2278551e-05
4.2983761e-05
5.6459655e-05
7.3240012e-05
9.3951237e-05
0.00011910769
0.00014836385
0.00018074277
0.00021187096
0.00023526313
0.00023604148
0.00021274255
0.00018170685
0.00015515456
0.00014002878
0.00012766427
0.00013012874
0.00013549841
0.00014379542
0.00015024753
0.00015462469
0.00015488
0.00015191139
0.00014352344
0.00013760973
0.00013380875
0.00012892338
0.00012520034
0.00012164991
0.00011805589
0.00011511093
0.00011264772
0.00011027122
0.00010809701
0.00010723251
0.00010658196
7.0078237e-14
2.2021045e-12
1.8007515e-11
7.7446214e-11
2.3834267e-10
6.015221e-10
1.3341175e-09
2.7044481e-09
5.1335833e-09
9.2709846e-09
1.6104768e-08
2.712151e-08
4.4536541e-08
7.1623828e-08
1.1318535e-07
1.7621371e-07
2.7081827e-07
4.1150371e-07
6.1890545e-07
9.2209266e-07
1.361528e-06
1.9926976e-06
2.8902527e-06
4.1521871e-06
5.9030359e-06
8.2942714e-06
1.1498681e-05
1.569654e-05
2.1054323e-05
2.769083e-05
3.5639348e-05
4.4855113e-05
5.5139358e-05
6.6160833e-05
7.7379878e-05
8.7915955e-05
9.5752729e-05
9.825648e-05
9.3281711e-05
8.6853372e-05
8.3065652e-05
8.1077933e-05
8.5468238e-05
9.3301172e-05
0.00010350057
0.00012453792
0.00014488424
0.00015357534
0.00015554937
0.00015526682
0.00015215812
0.00014337102
0.00013768358
0.00013402745
0.0001295766
0.00012588259
0.00012245068
0.0001188308
0.00011596177
0.00011301385
0.00011018228
0.00010781283
0.00010601953
0.00010530718
0.00010504147
5.3881223e-14
1.6931359e-12
1.3845416e-11
5.9545387e-11
1.8324897e-10
4.6246417e-10
1.0256536e-09
2.0790118e-09
3.9460235e-09
7.1254376e-09
1.2375666e-08
2.0836891e-08
3.4206617e-08
5.4990354e-08
8.6856805e-08
1.351364e-07
2.0751275e-07
3.1496684e-07
4.7303935e-07
7.0346881e-07
1.0362265e-06
1.5118766e-06
2.1840004e-06
3.1210902e-06
4.4067974e-06
6.1367191e-06
8.4092414e-06
1.130792e-05
1.4877299e-05
1.908624e-05
2.3796737e-05
2.8763576e-05
3.3616578e-05
3.7968972e-05
4.1189795e-05
4.2636136e-05
4.1835389e-05
4.0728787e-05
4.1259201e-05
4.4621468e-05
5.0642118e-05
5.860635e-05
7.363717e-05
9.1807219e-05
0.00012858631
0.00014978865
0.00015537283
0.00015670998
0.00015593908
0.00015254218
0.00014354224
0.00013800658
0.00013478846
0.00013018189
0.00012680201
0.00012303441
0.00011969269
0.00011659369
0.00011368408
0.00011081967
0.00010848911
0.00010665894
0.00010505273
0.00010442988
0.00010395234
3.341791e-14
1.0501057e-12
8.5870483e-12
3.6929866e-11
1.1364651e-10
2.8679306e-10
6.35998e-10
1.2890265e-09
2.4462213e-09
4.4162658e-09
7.6681403e-09
1.2906092e-08
2.1177046e-08
3.4023308e-08
5.3697678e-08
8.3463115e-08
1.2800429e-07
1.9398215e-07
2.9076192e-07
4.3133345e-07
6.3340966e-07
9.2061591e-07
1.3235445e-06
1.8802153e-06
2.6351799e-06
3.6360178e-06
4.9257618e-06
6.5300299e-06
8.439975e-06
1.0590383e-05
1.2850671e-05
1.5026619e-05
1.687962e-05
1.8157044e-05
1.8785258e-05
1.9342586e-05
2.0890325e-05
2.3863025e-05
2.777535e-05
3.6358257e-05
4.8619279e-05
6.8192422e-05
9.4050128e-05
0.00013384832
0.00015228925
0.00015794776
0.00015837986
0.00015730861
0.00015336295
0.00014398864
0.00013883692
0.00013528004
0.00013084446
0.0001273108
0.00012375106
0.00012022329
0.00011738056
0.00011432066
0.00011166663
0.00010931734
0.00010713039
0.00010496767
0.00010343663
0.00010315018
0.00010301619
1.7375744e-14
5.4600462e-13
4.4648122e-12
1.9201146e-11
5.9086399e-11
1.4909786e-10
3.3061017e-10
6.6998112e-10
1.2712023e-09
2.2943751e-09
3.9824873e-09
6.6999274e-09
1.0987441e-08
1.7639849e-08
2.7814781e-08
4.3182826e-08
6.6131345e-08
1.0003489e-07
1.4960265e-07
2.2130445e-07
3.2385506e-07
4.6869458e-07
6.7032652e-07
9.4625423e-07
1.3161093e-06
1.7994372e-06
2.4115366e-06
3.1571189e-06
4.0230294e-06
4.972305e-06
5.9454312e-06
6.8776042e-06
7.7428673e-06
8.7590453e-06
1.0260977e-05
1.2193693e-05
1.5881163e-05
2.169151e-05
3.1680049e-05
4.7246377e-05
6.932945e-05
9.7029427e-05
0.00013333082
0.00015331988
0.00016008321
0.00016055831
0.00015914679
0.00015446857
0.00014506346
0.00013997607
0.00013595181
0.00013139334
0.00012824133
0.00012444763
0.00012125123
0.0001182009
0.00011538774
0.00011255052
0.00011028809
0.00010763982
0.00010539996
0.00010374732
0.00010247306
0.00010213193
0.00010171189
8.2127049e-15
2.5807049e-13
2.1102861e-12
9.0751861e-12
2.7925293e-11
7.0461622e-11
1.5622659e-10
3.1654979e-10
6.0050132e-10
1.0835714e-09
1.8802216e-09
3.161887e-09
5.1825703e-09
8.3148722e-09
1.3100114e-08
2.031705e-08
3.1074299e-08
4.6931591e-08
7.005333e-08
1.033934e-07
1.5090034e-07
2.1771422e-07
3.1029801e-07
4.3641064e-07
6.0478806e-07
8.2444787e-07
1.1035955e-06
1.4485855e-06
1.8642932e-06
2.3585389e-06
2.9471769e-06
3.6812482e-06
4.778421e-06
6.4436547e-06
9.0712815e-06
1.3299164e-05
2.0219849e-05
3.1488216e-05
4.7786364e-05
6.9644758e-05
9.6698054e-05
0.00013014975
0.00015316178
0.00016212801
0.00016305635
0.00016135088
0.00015595197
0.00014662475
0.00014143191
0.00013675306
0.00013227248
0.00012912342
0.00012543005
0.00012200324
0.00011915962
0.00011592757
0.00011339449
0.00011078381
0.00010834037
0.00010622015
0.00010455439
0.00010286906
0.00010166476
0.00010142911
0.00010098037
4.4152551e-15
1.387419e-13
1.1345114e-12
4.8788542e-12
1.5012384e-11
3.7878133e-11
8.3978764e-11
1.7014941e-10
3.2275483e-10
5.8235136e-10
1.0104313e-09
1.6991056e-09
2.7848948e-09
4.4682027e-09
7.0405467e-09
1.0922206e-08
1.6713574e-08
2.5264078e-08
3.7762895e-08
5.5855678e-08
8.1791013e-08
1.1860002e-07
1.7031467e-07
2.422418e-07
3.4134763e-07
4.7687357e-07
6.6144238e-07
9.1366229e-07
1.2640164e-06
1.7650201e-06
2.5098236e-06
3.6546776e-06
5.4866928e-06
8.4555902e-06
1.3207816e-05
2.0660389e-05
3.2006694e-05
4.7965649e-05
6.9291069e-05
9.6343693e-05
0.00012870103
0.00015481919
0.00016460431
0.0001658555
0.00016402886
0.00015820367
0.00014869138
0.00014323984
0.00013798627
0.0001334374