/*--------------------------------*- C++ -*----------------------------------*\
  =========                 |
  \\      /  F ield         | OpenFOAM: The Open Source CFD Toolbox
   \\    /   O peration     | Website:  https://openfoam.org
    \\  /    A nd           | Version:  13
     \\/     M anipulation  |
\*---------------------------------------------------------------------------*/
FoamFile
{
    format      ascii;
    class       surfaceScalarField;
    location    "30.503365";
    object      phi;
}
// * * * * * * * * * * * * * * * * * * * * * * * * * * * * * * * * * * * * * //

dimensions      [0 3 -1 0 0 0 0];

internalField   nonuniform List<scalar> 
34068
(
-1.1392785e-08
-2.8597388e-08
3.9990173e-08
-5.0714572e-08
-9.918084e-08
1.3850263e-07
-1.2730943e-07
-1.9373282e-07
2.7032769e-07
-2.5297194e-07
-3.1828041e-07
4.4394292e-07
-4.4250544e-07
-4.8016647e-07
6.6969998e-07
-7.1443236e-07
-6.8830017e-07
9.6022709e-07
-1.0918346e-06
-9.5345698e-07
1.3308592e-06
-1.6033685e-06
-1.2886332e-06
1.8001672e-06
-2.2844826e-06
-1.7094521e-06
2.3905662e-06
-3.1788662e-06
-2.2346423e-06
3.129026e-06
-4.3401674e-06
-2.8865885e-06
4.0478897e-06
-5.8340103e-06
-3.6919713e-06
5.1858143e-06
-7.7403459e-06
-4.6825032e-06
6.5888388e-06
-1.0156165e-05
-5.8957763e-06
8.311595e-06
-1.3198577e-05
-7.3762312e-06
1.0418644e-05
-1.7008276e-05
-9.1762577e-06
1.2985957e-05
-2.1753329e-05
-1.1357432e-05
1.6102485e-05
-2.763324e-05
-1.3991888e-05
1.98718e-05
-3.4883136e-05
-1.7163784e-05
2.441368e-05
-4.3777861e-05
-2.0970824e-05
2.986555e-05
-5.4635644e-05
-2.5525701e-05
3.6383483e-05
-6.7820829e-05
-3.0957276e-05
4.4142461e-05
-8.3745032e-05
-3.7411167e-05
5.3335371e-05
-0.00010286576
-4.5049307e-05
6.4170034e-05
-0.00012568132
-5.4047831e-05
7.6863391e-05
-0.00015272057
-6.4592636e-05
9.1631885e-05
-0.00018452584
-7.6872001e-05
0.00010867728
-0.00022162774
-9.1066355e-05
0.00012816825
-0.00026451166
-0.00010733696
0.00015022088
-0.00031357951
-0.00012581855
0.0001748864
-0.0003691169
-0.00014662573
0.00020216312
-0.00043128443
-0.00016988584
0.00023205337
-0.00050015344
-0.00019580253
0.00026467154
-0.00057578745
-0.00022473041
0.00030036441
-0.00065833736
-0.00025722219
0.00033977211
-0.00074810696
-0.00029403407
0.00038380367
-0.00084557411
-0.00033612059
0.00043358774
-0.00095138631
-0.0003846612
0.0004904734
-0.0010663572
-0.00044113508
0.00055610599
-0.0011914806
-0.00050744565
0.00063256906
-0.0013279697
-0.00058609806
0.00072258715
-0.0014773264
-0.0006804382
0.00082979487
-0.0016414444
-0.0007949645
0.00095908249
-0.0018227531
-0.00093571747
0.0011170262
-0.0020244175
-0.0011107707
0.0013124351
-0.0022505404
-0.0013307549
0.0015568777
-0.002506287
-0.0016092118
0.0018649583
-0.0027981116
-0.0019630069
0.0022548316
-0.0031339925
-0.0024125573
0.0027484382
-0.0035235321
-0.0029808147
0.0033703544
-0.0039780747
-0.0036902874
0.00414483
-0.0045108641
-0.0045556664
0.0050884558
-0.0051371822
-0.0055670887
0.0061934068
-0.0058739224
-0.0066572117
0.0073939518
-0.0067375674
-0.0076367486
0.0085003936
-0.0077347934
-0.0081137428
0.0091109688
-0.008845076
-0.007295686
0.0084059686
-0.0099523181
-0.0038935759
0.005000818
-0.010772645
0.0040485691
-0.0032282417
-0.010696651
0.018356562
-0.018432557
-0.0090336498
0.038937053
-0.040600055
-0.0055959919
0.06066118
-0.064098838
-0.001110948
0.0740138
-0.078498844
0.0051468079
0.063221347
-0.069479103
0.013351171
0.016792263
-0.024996626
-1.1773058e-08
-1.682433e-08
-5.2401823e-08
-5.8552074e-08
-1.3152604e-07
-1.1460861e-07
-2.6131535e-07
-1.884911e-07
-4.5703764e-07
-2.8444418e-07
-7.3783332e-07
-4.0750449e-07
-1.1275781e-06
-5.637122e-07
-1.6558757e-06
-7.6033566e-07
-2.3593464e-06
-1.0059814e-06
-3.2831252e-06
-1.3108635e-06
-4.4826319e-06
-1.6870818e-06
-6.025654e-06
-2.1489493e-06
-7.9947693e-06
-2.7133879e-06
-1.0490141e-05
-3.4004042e-06
-1.3632695e-05
-4.2336776e-06
-1.7567671e-05
-5.2412812e-06
-2.246853e-05
-6.4565738e-06
-2.8541115e-05
-7.9193036e-06
-3.6027938e-05
-9.6769601e-06
-4.5212367e-05
-1.1786396e-05
-5.6422336e-05
-1.4315731e-05
-7.0033125e-05
-1.7346488e-05
-8.6468452e-05
-2.0975841e-05
-0.000106199
-2.5318763e-05
-0.0001297371
-3.050973e-05
-0.00015762618
-3.6703553e-05
-0.00019042326
-4.4074923e-05
-0.00022867318
-5.2816438e-05
-0.00027287461
-6.3135534e-05
-0.0003234414
-7.525175e-05
-0.00038066992
-8.9397216e-05
-0.00044473144
-0.00010582431
-0.00051571032
-0.00012482365
-0.00059368853
-0.0001467522
-0.0006788431
-0.00017206762
-0.00077151273
-0.00020136444
-0.00087221994
-0.00023541338
-0.00098166846
-0.00027521269
-0.0011007428
-0.00032206073
-0.0012305269
-0.00037766154
-0.0013723499
-0.00044427514
-0.0015278631
-0.000524925
-0.0016991543
-0.00062367326
-0.0018889028
-0.000745969
-0.0021005941
-0.00089907937
-0.002338728
-0.0010926209
-0.0026089339
-0.0013390059
-0.0029181717
-0.0016537691
-0.0032748996
-0.0020558295
-0.0036890189
-0.0025666954
-0.004171682
-0.0032076243
-0.0047349099
-0.0039924385
-0.0053908018
-0.0049111969
-0.0061498707
-0.0058981428
-0.0070172441
-0.0067693752
-0.0079810923
-0.0071498946
-0.0089940949
-0.0062826834
-0.0099160838
-0.002971587
-0.010448055
0.0045805407
-0.010048765
0.017957272
-0.0081039317
0.03699222
-0.0043715556
0.056928804
0.00066122451
0.06898102
0.0084274028
0.055455169
-0.001346475
0.023125048
-1.2005209e-08
-4.8191211e-09
-5.3441255e-08
-1.7116027e-08
-1.3414778e-07
-3.390208e-08
-2.6653621e-07
-5.6102665e-08
-4.66209e-07
-8.477139e-08
-7.5267426e-07
-1.2103922e-07
-1.1502509e-06
-1.6613552e-07
-1.6891502e-06
-2.2143643e-07
-2.406743e-06
-2.8838849e-07
-3.3490899e-06
-3.6851655e-07
-4.5727538e-06
-4.6341796e-07
-6.1469266e-06
-5.7477648e-07
-8.1559071e-06
-7.0440733e-07
-1.0701953e-05
-8.5435831e-07
-1.3908528e-05
-1.0271027e-06
-1.7923935e-05
-1.2258741e-06
-2.2925303e-05
-1.4552058e-06
-2.9122844e-05
-1.7217621e-06
-3.6764244e-05
-2.035561e-06
-4.6138935e-05
-2.4117051e-06
-5.7581924e-05
-2.8727417e-06
-7.1476647e-05
-3.4517649e-06
-8.8256151e-05
-4.1963372e-06
-0.00010840166
-5.1732506e-06
-0.00013243732
-6.47407e-06
-0.00016091958
-8.2212928e-06
-0.00019441965
-1.0574856e-05
-0.00023349758
-1.3738506e-05
-0.00027866804
-1.7965074e-05
-0.00033036128
-2.3558514e-05
-0.00038888991
-3.0868584e-05
-0.00045444089
-4.0273334e-05
-0.00052711343
-5.2151112e-05
-0.00060700434
-6.6861291e-05
-0.00069430799
-8.4763968e-05
-0.00078938493
-0.00010628751
-0.00089278829
-0.00013201002
-0.0010052619
-0.00016273906
-0.0011277422
-0.00019958047
-0.0012613799
-0.00024402377
-0.0014075906
-0.00029806445
-0.0015681354
-0.00036438025
-0.0017452435
-0.00044656513
-0.0019417737
-0.00054943876
-0.0021614371
-0.000679416
-0.002408994
-0.00084506404
-0.0026903493
-0.0010576506
-0.0030127084
-0.00133141
-0.0033846224
-0.0016839156
-0.0038157148
-0.0021356029
-0.0043160868
-0.0027072523
-0.0048952471
-0.0034132782
-0.0055601976
-0.0042462463
-0.0063123385
-0.0051460019
-0.0071421924
-0.0059395213
-0.0080144496
-0.0062776374
-0.0088519231
-0.0054452099
-0.0094816126
-0.0023418974
-0.0095853954
0.0046843235
-0.0086467936
0.01701867
-0.0061027553
0.034448182
-0.0016619779
0.052488027
0.0046184955
0.062700546
0.015188618
0.044885046
-0.019879006
0.033721149
-1.2069963e-08
7.2508419e-09
-5.3735269e-08
2.4549279e-08
-1.3490507e-07
4.7267727e-08
-2.6808304e-07
7.7075298e-08
-4.6899352e-07
1.1613909e-07
-7.5728425e-07
1.6725151e-07
-1.1574273e-06
2.3400756e-07
-1.6998411e-06
3.2097736e-07
-2.422168e-06
4.3393841e-07
-3.3708185e-06
5.8013391e-07
-4.6027987e-06
7.6856224e-07
-6.1878607e-06
1.0102856e-06
-8.2110092e-06
1.3187412e-06
-1.077539e-05
1.7100226e-06
-1.400558e-05
2.2030872e-06
-1.8051274e-05
2.81982e-06
-2.3091337e-05
3.5848569e-06
-2.933814e-05
4.5250408e-06
-3.7042044e-05
5.668343e-06
-4.6495795e-05
7.0420462e-06
-5.8038487e-05
8.6699501e-06
-7.2058583e-05
1.0568331e-05
-8.8995303e-05
1.2740382e-05
-0.00010933743
1.5168873e-05
-0.00013361831
1.7806811e-05
-0.00016240559
2.0565989e-05
-0.00019628398
2.3303536e-05
-0.00023582966
2.5807174e-05
-0.00028157615
2.7781412e-05
-0.00033397492
2.8840263e-05
-0.00039336092
2.8517411e-05
-0.00045994193
2.6307675e-05
-0.00053383354
2.1740498e-05
-0.00061514335
1.4448523e-05
-0.00070407506
4.1677444e-06
-0.00080099443
-9.3681408e-06
-0.00090647079
-2.6533666e-05
-0.0010212692
-4.7940675e-05
-0.0011463562
-7.4493401e-05
-0.0012829227
-0.00010745728
-0.0014324365
-0.00014855074
-0.0015967216
-0.00020009507
-0.0017780913
-0.00026519547
-0.0019795057
-0.00034802434
-0.0022047945
-0.00045412715
-0.0024588305
-0.00059102813
-0.0027475918
-0.00076888918
-0.0030782524
-0.0010007494
-0.0034590538
-0.0013031142
-0.0038987523
-0.0016959044
-0.0044055283
-0.0022004763
-0.0049850787
-0.0028337278
-0.0056373573
-0.0035939677
-0.0063517993
-0.0044315599
-0.0071007679
-0.0051905527
-0.0078214879
-0.0055569174
-0.0084037799
-0.004862918
-0.0086413937
-0.0021042836
-0.0081938257
0.0042367554
-0.0064787423
0.015303587
-0.0029291687
0.030898608
0.0027534506
0.046805408
0.011270695
0.054183302
0.025997049
0.030158692
-0.042089554
0.048207597
-1.1966461e-08
1.9217303e-08
-5.3270559e-08
6.5853378e-08
-1.3372905e-07
1.2772622e-07
-2.6573851e-07
2.0908476e-07
-4.6488416e-07
3.1528474e-07
-7.5068111e-07
4.5304846e-07
-1.1474546e-06
6.3078103e-07
-1.6854236e-06
8.5894642e-07
-2.4019922e-06
1.150507e-06
-3.3432921e-06
1.5214339e-06
-4.5660097e-06
1.9912798e-06
-6.1395364e-06
2.5838124e-06
-8.1484769e-06
3.3276817e-06
-1.0695547e-05
4.257093e-06
-1.3904879e-05
5.4124185e-06
-1.7925732e-05
6.8406731e-06
-2.2936588e-05
8.5957129e-06
-2.9149549e-05
1.0738002e-05
-3.6814915e-05
1.3333708e-05
-4.6225702e-05
1.6452834e-05
-5.7721793e-05
2.0166041e-05
-7.1693202e-05
2.453974e-05
-8.8581784e-05
2.9628964e-05
-0.00010888047
3.5467562e-05
-0.00013312883
4.2055164e-05
-0.00016190341
4.9340574e-05
-0.00019580134
5.7201467e-05
-0.00023541547
6.5421297e-05
-0.00028130076
7.3666705e-05
-0.0003339347
8.14742e-05
-0.0003936808
8.8263514e-05
-0.00046077368
9.3400559e-05
-0.0005353481
9.631491e-05
-0.00061751896
9.6619385e-05
-0.00070748306
9.4131848e-05
-0.00080560774
8.8756541e-05
-0.00091245268
8.0311275e-05
-0.0010287837
6.8390349e-05
-0.0011555726
5.2295467e-05
-0.001294018
3.0988182e-05
-0.0014456055
3.0367562e-06
-0.0016121659
-3.3534737e-05
-0.0017960335
-8.1327878e-05
-0.002000182
-0.00014387579
-0.0022284415
-0.00022586763
-0.0024856346
-0.00033383503
-0.0027775956
-0.00047692821
-0.0031111678
-0.00066717722
-0.0034938576
-0.00092042439
-0.0039329382
-0.0012568237
-0.0044337645
-0.00169965
-0.0049968536
-0.0022706388
-0.0056130026
-0.0029778187
-0.0062563636
-0.0037881988
-0.0068760274
-0.0045708889
-0.0073778499
-0.0050550949
-0.0076143666
-0.0046264013
-0.0073418111
-0.0023768391
-0.0061299187
0.0030248631
-0.0032925838
0.012466252
0.0016472886
0.025958736
0.0090862045
0.039366492
0.02084865
0.042420857
0.040151081
0.010856261
-0.066745641
0.064807168
-1.1676002e-08
3.0893305e-08
-5.1982231e-08
1.0615961e-07
-1.3050707e-07
2.0625106e-07
-2.5936026e-07
3.3793795e-07
-4.5376764e-07
5.0969212e-07
-7.3279503e-07
7.3207585e-07
-1.1202259e-06
1.0182119e-06
-1.6456192e-06
1.3843398e-06
-2.3455816e-06
1.8504693e-06
-3.2652851e-06
2.4411373e-06
-4.4602689e-06
3.1862636e-06
-5.998565e-06
4.1221085e-06
-7.9631819e-06
5.2922986e-06
-1.0454979e-05
6.7488903e-06
-1.3595957e-05
8.5533959e-06
-1.7532963e-05
1.077768e-05
-2.2441805e-05
1.3504555e-05
-2.8531687e-05
1.6827884e-05
-3.604987e-05
2.0851891e-05
-4.5286336e-05
2.56893e-05
-5.6578151e-05
3.1457855e-05
-7.0313049e-05
3.8274638e-05
-8.6931598e-05
4.6247514e-05
-0.00010692704
5.5463004e-05
-0.00013084165
6.596977e-05
-0.00015925811
7.7757038e-05
-0.0001927843
9.0727655e-05
-0.0002320297
0.0001046667
-0.00027757287
0.00011920987
-0.00032992174
0.00013382306
-0.00038947475
0.00014781652
-0.00045649983
0.00016042564
-0.00053115424
0.00017096933
-0.00061355731
0.00017902246
-0.00070389433
0.00018446887
-0.00080250578
0.00018736799
-0.000909928
0.00018773349
-0.0010269024
0.00018536479
-0.0011543777
0.00017977073
-0.001293529
0.00017013948
-0.0014457962
0.00015530399
-0.0016129906
0.00013365961
-0.0017973736
0.00010305517
-0.0020018384
6.0589001e-05
-0.0022300849
2.3788637e-06
-0.0024867016
-7.7218315e-05
-0.0027771453
-0.00018648453
-0.0031075974
-0.00033672517
-0.0034843625
-0.00054365921
-0.0039125587
-0.0008286276
-0.0043937233
-0.0012184854
-0.0049216748
-0.0017426872
-0.0054756515
-0.002423842
-0.0060104281
-0.0032534222
-0.0064432916
-0.0041380254
-0.0066469741
-0.0048514124
-0.0064211019
-0.0048522735
-0.0054309993
-0.0033669416
-0.0030904851
0.00068434893
0.0011995217
0.0081762449
0.0077302998
0.019427958
0.017384211
0.029712581
0.032911233
0.026893834
0.056334999
-0.012567506
-0.092560377
0.082149735
-1.1187622e-08
4.2080926e-08
-4.9816597e-08
1.4478858e-07
-1.2508735e-07
2.8152181e-07
-2.4862386e-07
4.6147447e-07
-4.350473e-07
6.9611556e-07
-7.0267533e-07
9.9970388e-07
-1.0743696e-06
1.3899062e-06
-1.5785604e-06
1.8885306e-06
-2.2504784e-06
2.5223874e-06
-3.1336292e-06
3.324288e-06
-4.2815453e-06
4.3341797e-06
-5.7598603e-06
5.6004235e-06
-7.6487323e-06
7.1811706e-06
-1.0045669e-05
9.1458271e-06
-1.3068763e-05
1.157649e-05
-1.6860364e-05
1.4569281e-05
-2.1591168e-05
1.8235359e-05
-2.7464679e-05
2.2701395e-05
-3.4721927e-05
2.8109138e-05
-4.3646285e-05
3.4613659e-05
-5.4568077e-05
4.2379647e-05
-6.7868544e-05
5.1575104e-05
-8.3982577e-05
6.2361547e-05
-0.00010339936
7.4879786e-05
-0.00012665976
8.9230174e-05
-0.00015434913
0.00010544641
-0.00018708368
0.0001234622
-0.00022548876
0.00014307178
-0.00027016785
0.00016388897
-0.00032166326
0.00018531847
-0.00038041459
0.00020656785
-0.00044673006
0.00022674111
-0.00052079415
0.00024503342
-0.00060272906
0.00026095737
-0.00069269686
0.00027443667
-0.00079099604
0.00028566716
-0.00089811443
0.00029485188
-0.0010147421
0.00030199247
-0.001141772
0.00030680064
-0.0012803133
0.00030868075
-0.0014317295
0.00030672023
-0.0015977167
0.00029964677
-0.0017803988
0.00028573731
-0.0019824765
0.00026266667
-0.0022073604
0.00022726282
-0.0024592132
0.00017463441
-0.0027428377
9.7139966e-05
-0.003063378
-1.6184808e-05
-0.0034253959
-0.00018164137
-0.0038310693
-0.00042295415
-0.0042769443
-0.0007726104
-0.0047483238
-0.0012713077
-0.0052100679
-0.001962098
-0.0055936066
-0.0028698834
-0.0057791793
-0.0039524528
-0.0055921273
-0.0050384644
-0.0047518303
-0.0056925705
-0.0027831221
-0.0053356499
0.00089999591
-0.0029987691
0.0066509299
0.002425311
0.014970753
0.011108134
0.027402406
0.017280929
0.046767782
0.0075284585
0.073434964
-0.039234688
-0.11838056
0.099255149
-1.0506269e-08
5.2587196e-08
-4.6791814e-08
1.8107413e-07
-1.1751231e-07
3.5224231e-07
-2.336085e-07
5.7757065e-07
-4.0884979e-07
8.7135685e-07
-6.6049661e-07
1.2513507e-06
-1.0101053e-06
1.7395149e-06
-1.4845032e-06
2.3629284e-06
-2.1169609e-06
3.1548451e-06
-2.9486014e-06
4.1559285e-06
-4.0300776e-06
5.4156559e-06
-5.4235606e-06
6.9939065e-06
-7.2050821e-06
8.9626922e-06
-9.46726e-06
1.1408005e-05
-1.2322453e-05
1.4431683e-05
-1.590635e-05
1.8153178e-05
-2.0382004e-05
2.2711013e-05
-2.5944277e-05
2.8263668e-05
-3.2824613e-05
3.4989474e-05
-4.1295975e-05
4.308502e-05
-5.1677721e-05
5.2761394e-05
-6.4340016e-05
6.4237399e-05
-7.9707227e-05
7.7728758e-05
-9.8259503e-05
9.3432063e-05
-0.00012053152
0.00011150219
-0.00014710691
0.0001320218
-0.00017860681
0.00015496211
-0.00021567053
0.0001801355
-0.00025892668
0.00020714512
-0.00030895479
0.00023534658
-0.00036624122
0.00026385428
-0.00043114181
0.0002916417
-0.00050387421
0.00031776582
-0.00058456367
0.00034164682
-0.00067333967
0.00036321267
-0.00077044084
0.00038276834
-0.00087628085
0.00040069188
-0.00099146766
0.00041717929
-0.0011168022
0.00043213519
-0.001253284
0.00044516255
-0.0014021397
0.00045557587
-0.0015648818
0.00046238891
-0.0017433962
0.00046425169
-0.0019400639
0.00045933435
-0.0021578428
0.00044504177
-0.0024002152
0.00041700681
-0.0026710227
0.00036794747
-0.0029739081
0.00028670054
-0.0033110227
0.0001554733
-0.0036805995
-5.337741e-05
-0.0040726588
-0.00038055104
-0.0044616384
-0.00088232814
-0.0047946621
-0.0016290742
-0.004975469
-0.0026890765
-0.0048441317
-0.00408379
-0.0041615976
-0.0057209986
-0.0025629142
-0.0072912539
0.00049128417
-0.0083898482
0.0054697608
-0.0079772457
0.01275077
-0.0048556981
0.023296545
0.0005623592
0.038904642
0.0016728316
0.062053563
-0.015620462
0.0908754
-0.068056526
-0.14221972
0.11471456
-9.6375051e-09
6.2224701e-08
-4.2934015e-08
2.1437064e-07
-1.0784837e-07
4.1715666e-07
-2.1444656e-07
6.8416884e-07
-3.7540511e-07
1.0323154e-06
-6.0662617e-07
1.4825718e-06
-9.279871e-07
2.0608758e-06
-1.364247e-06
2.7991883e-06
-1.9461443e-06
3.7367424e-06
-2.7117147e-06
4.9214989e-06
-3.7078688e-06
6.41181e-06
-4.9922687e-06
8.2783065e-06
-6.635548e-06
1.0605971e-05
-8.7239057e-06
1.3496363e-05
-1.1362133e-05
1.7069911e-05
-1.4677083e-05
2.1468127e-05
-1.8821605e-05
2.6855535e-05
-2.3978924e-05
3.3420987e-05
-3.036743e-05
4.137798e-05
-3.824573e-05
5.0963321e-05
-4.7917775e-05
6.2433439e-05
-5.973775e-05
7.6057374e-05
-7.4114191e-05
9.21052e-05
-9.1512671e-05
0.00011083054
-0.00011245603
0.00013244554
-0.00013752086
0.00015708663
-0.00016732856
0.00018476981
-0.00020252891
0.00021533585
-0.00024377418
0.00024839039
-0.00029168228
0.00028325468
-0.00034679066
0.00031896266
-0.00040950985
0.0003543609
-0.00048009801
0.00038835398
-0.00055868603
0.00042023485
-0.00064536378
0.00044989041
-0.00074029178
0.00047769634
-0.00084378203
0.00050418213
-0.00095632611
0.00052972337
-0.0010785917
0.0005544008
-0.0012114182
0.00057798899
-0.0013558294
0.00059998711
-0.0015130722
0.0006196317
-0.0016846803
0.00063585983
-0.0018725666
0.00064722059
-0.0020790276
0.00065150285
-0.0023065787
0.00064455792
-0.0025577
0.00061906877
-0.0028339434
0.00056294394
-0.0031341397
0.00045566956
-0.0034511454
0.00026362829
-0.0037662684
-6.5428072e-05
-0.0040397568
-0.00060883969
-0.0041965698
-0.0014722612
-0.0041065826
-0.0027790637
-0.0035609273
-0.0046294453
-0.0022545551
-0.0070273709
0.00023637034
-0.0097821793
0.0044434882
-0.012596966
0.010830473
-0.01436423
0.019980523
-0.014005749
0.033146383
-0.0126035
0.05223226
-0.017413046
0.078771777
-0.04215998
0.10777761
-0.097062355
-0.16118403
0.12674191
-8.5957328e-09
7.0820433e-08
-3.8306659e-08
2.4408156e-07
-9.6253564e-08
4.7510356e-07
-1.9144914e-07
7.7936442e-07
-3.3525308e-07
1.1761193e-06
-5.4192854e-07
1.6892472e-06
-8.2932252e-07
2.3482698e-06
-1.2196904e-06
3.1895562e-06
-1.7406988e-06
4.2577508e-06
-2.4266299e-06
5.60743e-06
-3.3198367e-06
7.3050169e-06
-4.4724721e-06
9.4309418e-06
-5.9485521e-06
1.2082051e-05
-7.8263871e-06
1.5374198e-05
-1.0201429e-05
1.9444952e-05
-1.3189573e-05
2.4456271e-05
-1.6930937e-05
3.05969e-05
-2.1594148e-05
3.8084198e-05
-2.7381067e-05
4.7164899e-05
-3.453193e-05
5.8114183e-05
-4.333071e-05
7.1232219e-05
-5.4110456e-05
8.683712e-05
-6.7258197e-05
0.00010525294
-8.3218785e-05
0.00012679113
-0.00010249681
0.00015172357
-0.00012565534
0.00018024516
-0.00015330985
0.00021242433
-0.00018611535
0.00024814135
-0.00022474397
0.00028701901
-0.00026985077
0.00032836148
-0.00032202651
0.00037113839
-0.00038174243
0.00041407682
-0.00044930544
0.00045591699
-0.00052485753
0.00049578693
-0.00060844487
0.00053347776
-0.00070013274
0.00056938421
-0.0008001024
0.00060415179
-0.00090869082
0.00063831179
-0.0010263858
0.00067209575
-0.0011538084
0.00070541158
-0.0012917057
0.00073788447
-0.0014409613
0.00076888727
-0.0016026245
0.00079752302
-0.0017779567
0.00082255279
-0.0019683319
0.00084187804
-0.0021749454
0.00085117149
-0.0023983795
0.00084250281
-0.0026372676
0.00080183208
-0.0028857942
0.00070419609
-0.0031292788
0.00050711294
-0.0033368479
0.00014214098
-0.0034497146
-0.00049597295
-0.0033636463
-0.0015583295
-0.0029029444
-0.0032397656
-0.0017949851
-0.0057374046
0.00034060837
-0.0091629644
0.0039815352
-0.013423106
0.0096695071
-0.018284938
0.017883918
-0.022578641
0.029371628
-0.025493458
0.045506542
-0.028738414
0.068121122
-0.040027626
0.096650389
-0.070689247
0.12194534
-0.12235731
-0.17331011
0.13407143
-7.4033667e-09
7.82238e-08
-3.3008513e-08
2.6968671e-07
-8.2974397e-08
5.2506945e-07
-1.6510366e-07
8.6149369e-07
-2.8924132e-07
1.300257e-06
-4.6776337e-07
1.8677693e-06
-7.1617469e-07
2.5966811e-06
-1.0538397e-06
3.5272212e-06
-1.5048689e-06
4.7087801e-06
-2.0991959e-06
6.201757e-06
-2.8738743e-06
8.0796953e-06
-3.8746435e-06
1.0431711e-05
-5.1577919e-06
1.33652e-05
-6.7923881e-06
1.7008794e-05
-8.8628988e-06
2.1515463e-05
-1.1472275e-05
2.7065648e-05
-1.4745535e-05
3.3870159e-05
-1.8833855e-05
4.2172518e-05
-2.3919218e-05
5.2250262e-05
-3.0219547e-05
6.4414513e-05
-3.7994263e-05
7.9006935e-05
-4.7550021e-05
9.6392878e-05
-5.9246391e-05
0.00011694931
-7.3500893e-05
0.00014104563
-9.079264e-05
0.00016901532
-0.00011166352
0.00020111604
-0.00013671534
0.00023747615
-0.00016660079
0.0002780268
-0.00020200539
0.00032242361
-0.00024361684
0.00036997293
-0.0002920782
0.00041959975
-0.00034792519
0.00046992381
-0.00041152156
0.00051951336
-0.00048302851
0.00056729388
-0.00056244845
0.0006128977
-0.00064973663
0.00065667239
-0.00074491369
0.00069932884
-0.00084812002
0.00074151813
-0.0009596104
0.00078358613
-0.0010797211
0.00082552231
-0.001208836
0.00086699928
-0.0013473599
0.00090741123
-0.001495701
0.00094586416
-0.0016542364
0.0009810881
-0.0018230766
0.0010107182
-0.0020016351
0.00102973
-0.0021878381
0.0010287059
-0.0023761774
0.00099017134
-0.0025541205
0.00088213921
-0.0026959311
0.00064892351
-0.0027531972
0.00019940711
-0.0026401138
-0.00060905642
-0.0022095638
-0.0019888795
-0.001215154
-0.0042341754
0.00071534745
-0.007667906
0.004077336
-0.012524953
0.0094240354
-0.018769806
0.017267091
-0.026127994
0.028047368
-0.033358918
0.042459898
-0.039905988
0.061670865
-0.047949381
0.086632442
-0.064989203
0.11291407
-0.09697087
0.13038459
-0.13982783
-0.17982861
0.13690309
-6.0912198e-09
8.431502e-08
-2.7176963e-08
2.9077245e-07
-6.8354937e-08
5.6624742e-07
-1.3609207e-07
9.2923083e-07
-2.3855804e-07
1.402723e-06
-3.8604018e-07
2.0152514e-06
-5.914481e-07
2.802089e-06
-8.7093586e-07
3.806709e-06
-1.2446609e-06
5.0825051e-06
-1.7377087e-06
6.6948048e-06
-2.38122e-06
8.7232067e-06
-3.2137503e-06
1.1264241e-05
-4.2829174e-06
1.4434367e-05
-5.6473785e-06
1.8373255e-05
-7.3791904e-06
2.3247275e-05
-9.56662e-06
2.9253078e-05
-1.2317448e-05
3.6620987e-05
-1.5762837e-05
4.5617907e-05
-2.0061792e-05
5.6549218e-05
-2.5406224e-05
6.9758945e-05
-3.2026587e-05
8.5627297e-05
-4.0197983e-05
0.00010456427
-5.0246487e-05
0.00012699782
-6.2555334e-05
0.00015335448
-7.7570307e-05
0.00018403029
-9.5803376e-05
0.00021934911
-0.00011783317
0.00025950594
-0.00014430016
0.00030449379
-0.00017589354
0.00035401699
-0.00021332519
0.00040740458
-0.00025728492
0.00046355947
-0.0003083727
0.00052101159
-0.00036701551
0.00057815618
-0.00043340353
0.0006336819
-0.00050749972
0.00068699389
-0.0005891384
0.00073831107
-0.00067815022
0.00078834067
-0.00077443342
0.00083780133
-0.00087794989
0.00088710259
-0.00098867385
0.00093624628
-0.0011065234
0.00098484884
-0.0012312858
0.0010321736
-0.0013625313
0.0010771097
-0.0014994532
0.00111801
-0.0016404536
0.0011517186
-0.0017824941
0.0011717705
-0.0019197325
0.0011659443
-0.0020406159
0.0011110548
-0.0021225257
0.00096404905
-0.0021229581
0.00064935586
-0.0019674608
4.3909822e-05
-0.0015281029
-0.0010484143
-0.00058573002
-0.0029312524
0.0012313786
-0.006051284
0.0044720727
-0.0109086
0.0097994615
-0.017852342
0.017813622
-0.026783966
0.028791959
-0.03710633
0.042829001
-0.047395961
0.060066004
-0.057142991
0.080771322
-0.0686547
0.10362759
-0.08784547
0.12272208
-0.11606536
0.13335099
-0.15045674
-0.18393385
0.13745622
-4.699278e-09
8.9014298e-08
-2.0989284e-08
3.0706246e-07
-5.2839409e-08
5.9809755e-07
-1.0529354e-07
9.8168496e-07
-1.8473734e-07
1.4821668e-06
-2.9922722e-07
2.1297413e-06
-4.5889926e-07
2.9617611e-06
-6.7647055e-07
4.0242802e-06
-9.6785865e-07
5.3738932e-06
-1.3529418e-06
7.0798879e-06
-1.8564885e-06
9.2267533e-06
-2.5093027e-06
1.1917055e-05
-3.3496114e-06
1.5274676e-05
-4.4247633e-06
1.9448407e-05
-5.7932822e-06
2.4615794e-05
-7.5273478e-06
3.0987143e-05
-9.7157727e-06
3.8809412e-05
-1.246756e-05
4.8369694e-05
-1.591608e-05
5.9997738e-05
-2.0223971e-05
7.4066836e-05
-2.5588744e-05
9.099207e-05
-3.2249091e-05
0.00011122462
-4.0491765e-05
0.00013524049
-5.0658727e-05
0.00016352144
-6.3154176e-05
0.00019652574
-7.8450526e-05
0.00023464546
-9.7092183e-05
0.0002781476
-0.00011969509
0.00032709669
-0.00014693884
0.00038126074
-0.00017954628
0.00044001203
-0.00021824275
0.00050225595
-0.00026368635
0.00056645518
-0.00031636928
0.00063083911
-0.00037652005
0.00069383267
-0.00044407027
0.0007545441
-0.00051872763
0.00081296843
-0.00060010554
0.00086971858
-0.00068781167
0.00092550746
-0.00078144731
0.00098073824
-0.00088053462
0.0010353336
-0.00098440361
0.0010887178
-0.0010920502
0.0011398202
-0.0012019512
0.0011870107
-0.00131172
0.0012277788
-0.0014174441
0.0012574427
-0.0015126276
0.001266954
-0.0015859327
0.0012392494
-0.0016166816
0.0011418037
-0.0015666327
0.00091400017
-0.0013677105
0.00045043362
-0.00090385147
-0.00041994916
2.4892893e-05
-0.0019771586
0.0017752454
-0.0046816049
0.0049419624
-0.009218001
0.010336845
-0.016303483
0.018682802
-0.026198298
0.030238802
-0.038339967
0.044510296
-0.051377825
0.060710679
-0.063596343
0.078045931
-0.074478243
0.095960626
-0.086569395
0.11267249
-0.10455734
0.12511722
-0.12851009
0.13260065
-0.15794017
-0.18814917
0.13681598
-3.2764231e-09
9.2290721e-08
-1.4662368e-08
3.184484e-07
-3.6970323e-08
6.204055e-07
-7.3784254e-08
1.0184989e-06
-1.2965527e-07
1.5380378e-06
-2.103465e-07
2.2104325e-06
-3.2313431e-07
3.0745489e-06
-4.7718954e-07
4.1783355e-06
-6.8404374e-07
5.5807474e-06
-9.5817609e-07
7.3540203e-06
-1.3177389e-06
9.5863161e-06
-1.7854586e-06
1.2384775e-05
-2.3897523e-06
1.5878969e-05
-3.1661122e-06
2.0224767e-05
-4.1588161e-06
2.5608498e-05
-5.4230363e-06
3.2251363e-05
-7.0274183e-06
4.0413794e-05
-9.0572479e-06
5.0399523e-05
-1.161827e-05
6.255876e-05
-1.484128e-05
7.7289846e-05
-1.8887564e-05
9.5038355e-05
-2.3955228e-05
0.00011629228
-3.0286396e-05
0.00014157166
-3.8175156e-05
0.0001714102
-4.7975853e-05
0.00020632643
-6.0111223e-05
0.00024678083
-7.5079197e-05
0.00029311557
-9.3456607e-05
0.0003454741
-0.0001158967
0.00040370083
-0.00014311493
0.00046723025
-0.00017585404
0.00053499506
-0.00021481629
0.00060541743
-0.00026055406
0.00067657688
-0.00031333939
0.000746618
-0.00037308194
0.00081428666
-0.0004393626
0.00087924909
-0.00051155426
0.00094191024
-0.00058892366
0.0010028769
-0.00067063507
0.0010624496
-0.00075565209
0.0011203506
-0.00084256661
0.0011756324
-0.00092936216
0.0012266157
-0.0010130795
0.0012707281
-0.0010892084
0.0013039076
-0.0011506505
0.0013188848
-0.001185904
0.0013022076
-0.001175332
0.0012286773
-0.0010840374
0.001050509
-0.00084919263
0.00067915543
-0.00036272803
-3.6030978e-05
0.00056302797
-0.0013457052
0.0022682071
-0.0036823378
0.0053620554
-0.0077754532
0.010758676
-0.014614622
0.01930486
-0.024849666
0.031151454
-0.038044893
0.045439365
-0.052627878
0.060596378
-0.066534837
0.0752781
-0.078278065
0.089014078
-0.088214222
0.10207557
-0.099630881
0.11366083
-0.1161426
0.12331247
-0.13816173
0.1309157
-0.1655434
-0.19358461
0.13635114
-1.8791322e-09
9.4169854e-08
-8.4471434e-09
3.2501642e-07
-2.1376672e-08
6.3333503e-07
-4.2811318e-08
1.0399335e-06
-7.5491474e-08
1.5707179e-06
-1.2290842e-07
2.2578495e-06
-1.8950766e-07
3.1411481e-06
-2.8093659e-07
4.2697644e-06
-4.0436534e-07
5.7041762e-06
-5.6889047e-07
7.5185454e-06
-7.8604928e-07
9.8034749e-06
-1.0704661e-06
1.2669192e-05
-1.4406926e-06
1.6249196e-05
-1.9202477e-06
2.0704322e-05
-2.5389635e-06
2.6227214e-05
-3.3346725e-06
3.3047072e-05
-4.3553604e-06
4.1434482e-05
-5.6618311e-06
5.1705994e-05
-7.3310993e-06
6.4228029e-05
-9.4605286e-06
7.9419275e-05
-1.2172936e-05
9.7750762e-05
-1.5622731e-05
0.00011974208
-2.0003163e-05
0.00014595209
-2.5554671e-05
0.00017696171
-3.2574151e-05
0.00021334591
-4.1424675e-05
0.00025563135
-5.2544859e-05
0.00030423575
-6.645626e-05
0.0003593855
-8.3765887e-05
0.00042101046
-0.00010515844
0.0004886228
-0.00013136837
0.000561205
-0.00016311952
0.00063716858
-0.00020100781
0.00071446517
-0.00024534622
0.00079095641
-0.0002960261
0.00086496653
-0.00035250581
0.00093572881
-0.00041390058
0.001003305
-0.00047908464
0.0010680609
-0.00054669812
0.0011300631
-0.00061501709
0.0011886696
-0.00068170551
0.0012423208
-0.00074344356
0.0012883538
-0.00079536237
0.0013226469
-0.00083005442
0.0013385997
-0.00083590675
0.0013247371
-0.00079395197
0.0012602528
-0.00067160528
0.0011063306
-0.00041108649
0.00078999024
8.899332e-05
0.00017907563
0.0010050292
-0.00095206683
0.0026610662
-0.0030017421
0.0056606458
-0.0066819175
0.010959746
-0.013074553
0.019476796
-0.023131672
0.031258049
-0.03663092
0.045128195
-0.051915038
0.059132144
-0.066631826
0.071668388
-0.079071082
0.082429056
-0.089038734
0.092394513
-0.098179678
0.1024199
-0.10965627
0.1122556
-0.1259783
0.12158696
-0.14749309
0.12962394
-0.17358038
-0.200097
0.13613633
-5.7061387e-10
9.4740468e-08
-2.624999e-09
3.270708e-07
-6.7645288e-09
6.3747456e-07
-1.3777736e-08
1.0469467e-06
-2.4695841e-08
1.581636e-06
-4.0868845e-08
2.2740225e-06
-6.4061016e-08
3.1643403e-06
-9.6580843e-08
4.3022842e-06
-1.4145393e-07
5.7490493e-06
-2.0264759e-07
7.5797391e-06
-2.85376e-07
9.8862033e-06
-3.9650361e-07
1.278032e-05
-5.4507802e-07
1.639777e-05
-7.4305381e-07
2.0902298e-05
-1.0062309e-06
2.6490391e-05
-1.3555165e-06
3.3396358e-05
-1.8185696e-06
4.1897535e-05
-2.4319799e-06
5.2319405e-05
-3.2440454e-06
6.5040094e-05
-4.3184024e-06
8.0493633e-05
-5.7385734e-06
9.9170933e-05
-7.613682e-06
0.00012161719
-1.0085427e-05
0.00014842383
-1.3336439e-05
0.00018021272
-1.7599928e-05
0.0002176094
-2.3170418e-05
0.00026120184
-3.0414896e-05
0.00031148023
-3.9783011e-05
0.00036875362
-5.181374e-05
0.00043304119
-6.7133197e-05
0.00050394226
-8.6431824e-05
0.00058050362
-0.00011041542
0.00066115218
-0.00013971288
0.00074376263
-0.00017464928
0.0008258928
-0.00021508502
0.00090540228
-0.00026036812
0.00098101191
-0.00030934412
0.001052281