/*--------------------------------*- C++ -*----------------------------------*\
  =========                 |
  \\      /  F ield         | OpenFOAM: The Open Source CFD Toolbox
   \\    /   O peration     | Website:  https://openfoam.org
    \\  /    A nd           | Version:  13
     \\/     M anipulation  |
\*---------------------------------------------------------------------------*/
FoamFile
{
    format      ascii;
    class       volVectorField;
    location    "3.601747";
    object      wallShearStress;
}
// * * * * * * * * * * * * * * * * * * * * * * * * * * * * * * * * * * * * * //

dimensions      [0 2 -2 0 0 0 0];

internalField   uniform (0 0 0);

boundaryField
{
    inlet
    {
        type            calculated;
        value           uniform (0 0 0);
    }
    outlet
    {
        type            calculated;
        value           uniform (0 0 0);
    }
    cylinder
    {
        type            calculated;
        value           nonuniform List<vector> 
132
(
(0.00011896509 -0.0017514478 -1.8620969e-22)
(0.00050170385 -0.0099482305 5.3870445e-23)
(0.0013258902 -0.017914207 3.1143342e-21)
(0.002555 -0.025323183 -1.1145407e-20)
(0.0041159977 -0.03185248 8.5127128e-21)
(0.0059006594 -0.037202493 2.8351817e-20)
(0.0077678276 -0.041120131 -5.8610334e-21)
(0.0095605401 -0.043418479 -2.5217641e-20)
(0.011112051 -0.044001134 2.559802e-20)
(0.012264794 -0.042880599 -6.1125618e-20)
(0.012890981 -0.040190886 -1.1695016e-21)
(0.012911061 -0.036182838 4.1463825e-20)
(0.012309977 -0.031210455 6.9317529e-20)
(0.011145366 -0.025699565 -5.7052842e-20)
(0.0095427253 -0.020097541 6.0276885e-20)
(0.0076779886 -0.014819231 9.660332e-20)
(0.0057415308 -0.010185524 -6.2706999e-20)
(0.0039121642 -0.0063948848 9.9356847e-20)
(0.0023207485 -0.0035050903 1.2965095e-19)
(0.0010365121 -0.001455036 -8.3042545e-20)
(6.146574e-05 -9.8034414e-05 -1.0465501e-19)
(-0.00062526184 0.00072276743 3.6517715e-23)
(-0.0010281078 0.0011103384 1.489496e-20)
(-0.001003075 0.0010068181 -1.7678605e-20)
(-0.00045327782 0.00043071856 -2.9842239e-20)
(0.00081684195 -0.00066891632 6.3395971e-21)
(0.0025302144 -0.0019368525 -5.7112651e-20)
(0.0041368725 -0.0029066999 1.5277968e-20)
(0.0052361234 -0.0033530932 1.2047641e-20)
(0.005740395 -0.0033262502 -8.3325328e-20)
(0.0059472901 -0.003092277 1.0909014e-19)
(0.0060630732 -0.0028012676 3.311498e-21)
(0.0060758202 -0.0024649234 2.3957899e-20)
(0.005793274 -0.0020324317 -2.8526265e-20)
(0.0050006993 -0.0014868494 9.1187298e-20)
(0.0034614482 -0.00085101403 -5.8075378e-21)
(0.00096629565 -0.00020283104 2.3598286e-20)
(-0.002725716 0.00033837643 -3.2627357e-21)
(-0.0077814368 0.00059699454 4.7042033e-21)
(-0.014175355 0.00033837462 -2.9414073e-21)
(-0.022306856 -0.00072653393 5.4845769e-21)
(-0.031758117 -0.0029369863 -1.6805845e-22)
(-0.041533389 -0.0063751398 6.0997848e-20)
(-0.051140129 -0.011032286 -2.3211827e-20)
(-0.059957593 -0.016769386 2.0668767e-20)
(-0.067557678 -0.023367311 -1.3107348e-19)
(-0.073581046 -0.030527299 -2.0904826e-20)
(-0.077867903 -0.037956038 1.8198462e-19)
(-0.080303958 -0.045325622 -1.5444589e-19)
(-0.08093736 -0.052355159 -2.9483479e-21)
(-0.079811246 -0.058742017 4.7341574e-20)
(-0.077143767 -0.064297125 -4.3921311e-20)
(-0.073033279 -0.068743476 -8.9546394e-21)
(-0.067735021 -0.071939165 -6.2422821e-21)
(-0.061546151 -0.07382012 -1.3054141e-20)
(-0.05463652 -0.074209223 2.0139754e-21)
(-0.047312501 -0.073117232 4.1077369e-22)
(-0.039815446 -0.070516277 4.3084023e-20)
(-0.032401906 -0.066446998 -7.1585173e-20)
(-0.025310996 -0.06097914 -7.9525305e-20)
(-0.018765348 -0.054218143 -3.3023283e-20)
(-0.012966098 -0.046302044 -7.6772819e-20)
(-0.0080881231 -0.03739662 1.7283335e-20)
(-0.0042740331 -0.027692106 2.5294171e-20)
(-0.0016405884 -0.017414865 -3.9453755e-20)
(-0.0002491783 -0.0067458386 -5.2806224e-21)
(0.0001818958 0.0064417082 -8.6358107e-22)
(0.00068520921 0.014479543 -5.3236843e-23)
(0.0016124868 0.022124247 -3.230356e-21)
(0.0029140081 0.029056459 1.1653973e-20)
(0.0045050062 0.034971051 -8.9411786e-21)
(0.0062674072 0.039594255 -2.9800516e-20)
(0.008056396 0.042708127 6.1462664e-21)
(0.0097154518 0.044168804 2.6327116e-20)
(0.011084637 0.043929987 -2.6568848e-20)
(0.012020667 0.042057526 6.3031612e-20)
(0.012416303 0.038735964 1.1980646e-21)
(0.01221681 0.034257724 -4.2199561e-20)
(0.011434292 0.029006906 -7.0137712e-20)
(0.010149019 0.023415334 5.744381e-20)
(0.0085027314 0.017916145 -6.0453726e-20)
(0.0066717782 0.012884222 -9.6625372e-20)
(0.0048362871 0.0085852486 6.2618471e-20)
(0.0031549148 0.0051619024 -9.914969e-20)
(0.0017285978 0.0026165143 -1.2938e-19)
(0.00060070177 0.00085421966 8.2906953e-20)
(-0.0002346095 -0.00028194611 1.0452996e-19)
(-0.00080043585 -0.00093121425 9.2714785e-20)
(-0.0010593212 -0.0011465949 7.5495668e-20)
(-0.00091541379 -0.00092283853 1.7674142e-20)
(-6.0056617e-05 -7.2971902e-05 2.9839173e-20)
(0.0013799729 0.0011436413 -6.3516835e-21)
(0.0030744085 0.0023590448 5.730428e-20)
(0.0045359559 0.0031910447 -1.5355076e-20)
(0.0053963181 0.0034580364 -1.2115821e-20)
(0.0057718082 0.0033453114 8.38107e-20)
(0.0059429903 0.0030903007 -1.0977135e-19)
(0.0060348969 0.0027885762 -3.314991e-21)
(0.0059866164 0.0024295043 5.4946785e-20)
(0.0055768686 0.0019578659 2.8796083e-20)
(0.0045989445 0.0013696749 -9.218975e-20)
(0.0028125428 0.0006960898 5.8805611e-21)
(1.0767509e-05 2.5623708e-05 1.7451676e-20)
(-0.0040219672 -0.00051349584 3.3123236e-21)
(-0.0094248377 -0.00072874322 -4.7787821e-21)
(-0.016159184 -0.00039183231 2.9874594e-21)
(-0.024597168 0.00079733246 -5.564227e-21)
(-0.034236061 0.003162973 4.4860456e-20)
(-0.044072379 0.0067618609 -6.1551226e-20)
(-0.053634236 0.011567597 2.3333279e-20)
(-0.062263631 0.017411828 -2.0685197e-20)
(-0.069604174 0.02407207 1.305575e-19)
(-0.075318874 0.031245197 2.0711038e-20)
(-0.079261149 0.038632227 -1.7925766e-19)
(-0.081352347 0.045914533 1.5111247e-19)
(-0.081646715 0.052811276 2.8619915e-21)
(-0.080201372 0.059026466 -4.5492348e-20)
(-0.077249872 0.064382907 4.1635336e-20)
(-0.072882104 0.068598382 -6.6948777e-20)
(-0.067367614 0.071546165 5.565839e-21)
(-0.061012835 0.073177424 -1.4398015e-20)
(-0.053968737 0.073298852 3.4965773e-22)
(-0.046555835 0.071944091 -5.3662456e-22)
(-0.039010276 0.069085825 -4.8730646e-20)
(-0.031587358 0.064771214 7.7346352e-20)
(-0.024523846 0.059075913 8.394694e-20)
(-0.018038713 0.052109544 3.4353351e-20)
(-0.01232948 0.044015483 7.9037724e-20)
(-0.0075661281 0.034962008 -1.7649793e-20)
(-0.0038863899 0.025144441 5.0883928e-20)
(-0.0014012795 0.014781255 3.9780602e-20)
(-0.00017095547 0.0040940105 5.2980921e-21)
)
;
    }
    frontAndBack
    {
        type            empty;
    }
}


// ************************************************************************* //
