/*--------------------------------*- C++ -*----------------------------------*\
  =========                 |
  \\      /  F ield         | OpenFOAM: The Open Source CFD Toolbox
   \\    /   O peration     | Website:  https://openfoam.org
    \\  /    A nd           | Version:  13
     \\/     M anipulation  |
\*---------------------------------------------------------------------------*/
FoamFile
{
    format      ascii;
    class       volScalarField;
    location    "43.7965";
    object      yPlus;
}
// * * * * * * * * * * * * * * * * * * * * * * * * * * * * * * * * * * * * * //

dimensions      [];

internalField   uniform 0;

boundaryField
{
    inlet
    {
        type            calculated;
        value           uniform 0;
    }
    outlet
    {
        type            calculated;
        value           uniform 0;
    }
    cylinder
    {
        type            calculated;
        value           nonuniform List<scalar> 
132
(
1.6971975e-07
1.6983425e-07
1.6935622e-07
1.68223e-07
1.6640687e-07
1.6389134e-07
1.606697e-07
1.5674597e-07
1.5213622e-07
1.4686958e-07
1.4098952e-07
1.3455428e-07
1.276374e-07
1.2032603e-07
1.1272054e-07
1.0493348e-07
9.7087939e-08
8.931593e-08
8.1750989e-08
7.4522091e-08
6.7744026e-08
6.1500769e-08
5.5820649e-08
5.0644739e-08
4.5802106e-08
4.1019871e-08
3.5987805e-08
3.0487966e-08
2.4551086e-08
1.8518104e-08
1.294943e-08
8.4377171e-09
5.4794588e-09
4.3749267e-09
4.7156882e-09
5.7277469e-09
7.1223526e-09
8.8785531e-09
1.102904e-08
1.3627087e-08
1.6789247e-08
2.0616557e-08
2.4779271e-08
2.9210937e-08
3.3782062e-08
3.8383193e-08
4.2922787e-08
4.7327045e-08
5.155025e-08
5.5559388e-08
5.9334515e-08
6.2867342e-08
6.6146167e-08
6.9159718e-08
7.195555e-08
7.4503135e-08
7.679352e-08
7.8860554e-08
8.069248e-08
8.2301102e-08
8.3675612e-08
8.4814366e-08
8.5725635e-08
8.6411137e-08
8.6883546e-08
8.7123729e-08
1.6900751e-07
1.6767079e-07
1.6573061e-07
1.6315799e-07
1.5995689e-07
1.5614446e-07
1.5174154e-07
1.4679746e-07
1.4135638e-07
1.3546533e-07
1.2918615e-07
1.2259151e-07
1.1576277e-07
1.0878851e-07
1.0176261e-07
9.4781913e-08
8.7943911e-08
8.1342699e-08
7.5064176e-08
6.9178727e-08
6.3726601e-08
5.8703788e-08
5.4041917e-08
4.9593146e-08
4.5134861e-08
4.0405262e-08
3.5183536e-08
2.9412727e-08
2.3286321e-08
1.7236397e-08
1.1832161e-08
7.6276203e-09
5.0615373e-09
4.3451141e-09
4.8785784e-09
5.9808933e-09
7.4445799e-09
9.2716726e-09
1.1498887e-08
1.4178872e-08
1.7420903e-08
2.1321849e-08
2.5538102e-08
2.9999105e-08
3.4578546e-08
3.917443e-08
4.3693852e-08
4.8067115e-08
5.2253593e-08
5.622154e-08
5.9952305e-08
6.3441565e-08
6.6672877e-08
6.9633336e-08
7.2406241e-08
7.4899853e-08
7.7158576e-08
7.9177693e-08
8.0976524e-08
8.2545523e-08
8.3879096e-08
8.4982601e-08
8.585252e-08
8.6501047e-08
8.6925368e-08
8.7129687e-08
)
;
    }
    frontAndBack
    {
        type            empty;
    }
}


// ************************************************************************* //
