/*--------------------------------*- C++ -*----------------------------------*\
  =========                 |
  \\      /  F ield         | OpenFOAM: The Open Source CFD Toolbox
   \\    /   O peration     | Website:  https://openfoam.org
    \\  /    A nd           | Version:  13
     \\/     M anipulation  |
\*---------------------------------------------------------------------------*/
FoamFile
{
    format      ascii;
    class       volVectorField;
    location    "2.500454";
    object      wallShearStress;
}
// * * * * * * * * * * * * * * * * * * * * * * * * * * * * * * * * * * * * * //

dimensions      [0 2 -2 0 0 0 0];

internalField   uniform (0 0 0);

boundaryField
{
    inlet
    {
        type            calculated;
        value           uniform (0 0 0);
    }
    outlet
    {
        type            calculated;
        value           uniform (0 0 0);
    }
    cylinder
    {
        type            calculated;
        value           nonuniform List<vector> 
132
(
(0.00011271429 -0.0017881263 -2.7501243e-22)
(0.00047309077 -0.0094087948 7.9129599e-23)
(0.0012456998 -0.016836304 4.5005624e-21)
(0.0024003226 -0.023787051 -1.5753406e-20)
(0.0038746749 -0.029977052 1.1723915e-20)
(0.005574206 -0.035133402 3.8010481e-20)
(0.0073725977 -0.039015819 -7.6579373e-21)
(0.0091258604 -0.041431662 -3.2191716e-20)
(0.010675117 -0.042258665 3.2022145e-20)
(0.011862825 -0.041464429 -7.5160939e-20)
(0.012551107 -0.039122856 -1.4174623e-21)
(0.012643052 -0.035426339 4.9632785e-20)
(0.012101384 -0.030679414 8.209685e-20)
(0.010963898 -0.025281926 -6.6944063e-20)
(0.0093441338 -0.019680993 7.0142599e-20)
(0.0074154915 -0.014316665 1.1159972e-19)
(0.0053805818 -0.0095512693 -7.1992552e-20)
(0.0034359822 -0.0056248485 1.1350686e-19)
(0.001734442 -0.0026319246 1.4758582e-19)
(0.00035279328 -0.00051857223 -9.4327778e-20)
(-0.00069512922 0.00086316175 -1.1874179e-19)
(-0.0014608454 0.0017024208 4.1437717e-23)
(-0.0019428037 0.0021001949 1.6897278e-20)
(-0.0019778089 0.0019801728 -2.0049861e-20)
(-0.0014099837 0.0013131387 -3.3809045e-20)
(0.00016610817 -0.00011353188 7.1807274e-21)
(0.0023504457 -0.0017918252 -6.4715619e-20)
(0.0043591695 -0.0030606025 1.7349484e-20)
(0.0055860535 -0.0035774366 1.3701789e-20)
(0.0060405389 -0.0035011412 -9.4806368e-20)
(0.0061617744 -0.0032045277 1.2406432e-19)
(0.0062226078 -0.0028753345 3.763973e-21)
(0.0062001126 -0.0025156243 2.7224272e-20)
(0.0058580182 -0.002055651 -3.2422692e-20)
(0.0049596833 -0.00147565 1.0370304e-19)
(0.0032475516 -0.00080068591 -6.6111886e-21)
(0.00050542932 -0.00011784427 2.6897757e-20)
(-0.0034899548 0.00043936638 -3.7239929e-21)
(-0.0088604861 0.00068286097 5.3748707e-21)
(-0.015558756 0.00037521158 -3.3619106e-21)
(-0.023937612 -0.00077684354 6.264495e-21)
(-0.03340797 -0.0030866215 -1.915031e-22)
(-0.042965174 -0.0065917351 6.9294799e-20)
(-0.052164229 -0.011249851 -2.6263159e-20)
(-0.060356275 -0.016877679 2.3280882e-20)
(-0.067237055 -0.023252197 -1.4702197e-19)
(-0.072519811 -0.030082726 -2.3356058e-20)
(-0.076090985 -0.037085812 2.0272776e-19)
(-0.077909058 -0.043970035 -1.7171768e-19)
(-0.078038356 -0.05047636 -3.2770194e-21)
(-0.076551535 -0.056339589 5.2719614e-20)
(-0.073667238 -0.061396602 -4.9172353e-20)
(-0.06947557 -0.065392023 -1.0140645e-20)
(-0.06422997 -0.068214243 -7.2493395e-21)
(-0.058210854 -0.069817565 -1.623959e-20)
(-0.051556927 -0.070024475 4.3334623e-21)
(-0.044560271 -0.068862175 3.1097336e-22)
(-0.037439107 -0.066306015 3.9546027e-20)
(-0.030426856 -0.062395291 -6.8827916e-20)
(-0.023741726 -0.057197113 -7.8019955e-20)
(-0.017585806 -0.050808842 -3.275036e-20)
(-0.012142237 -0.043358754 -7.6629723e-20)
(-0.0075699389 -0.034999364 1.7320736e-20)
(-0.0039989578 -0.025906087 2.5413599e-20)
(-0.0015346313 -0.016286428 -3.9700504e-20)
(-0.00023320588 -0.0063076336 -5.3176704e-21)
(0.00016696648 0.0058282003 -1.2710991e-21)
(0.00063159149 0.013319355 -7.7356397e-23)
(0.0014942375 0.020484068 -4.6013365e-21)
(0.0027137173 0.027043004 1.6189497e-20)
(0.004217509 0.032722734 -1.209078e-20)
(0.0059019851 0.037268729 -3.924685e-20)
(0.007636529 0.040465496 7.8998034e-21)
(0.009275436 0.042152329 3.3121532e-20)
(0.010663524 0.042246648 -3.2819206e-20)
(0.011653183 0.040759887 7.667011e-20)
(0.012123589 0.037814033 1.438665e-21)
(0.011999818 0.033644019 -5.0113045e-20)
(0.011272251 0.028594159 -8.249588e-20)
(0.01000204 0.023077566 6.6995616e-20)
(0.0083246863 0.017543319 -6.9974051e-20)
(0.0064171626 0.012397282 -1.1110629e-19)
(0.0044749149 0.0079505219 7.1603617e-20)
(0.0026763609 0.004389225 -1.128937e-19)
(0.0011412626 0.0017465349 -1.4688333e-19)
(-7.768039e-05 -7.9067508e-05 9.3960981e-20)
(-0.00098640042 -0.0012366345 1.1837656e-19)
(-0.0016383545 -0.0019133029 1.0500837e-19)
(-0.0019933565 -0.0021575984 8.5494045e-20)
(-0.0018688581 -0.0018756974 2.0006907e-20)
(-0.00093737895 -0.00088338494 3.3742457e-20)
(0.0008775688 0.0007130569 -7.1820335e-21)
(0.0030419336 0.0023285578 6.4852422e-20)
(0.0048287421 0.0033958245 -1.7415147e-20)
(0.0057192662 0.0036657702 -1.3758957e-20)
(0.0060232477 0.003491855 9.5156965e-20)
(0.0061380537 0.0031922601 -1.2457648e-19)
(0.0061822375 0.0028569475 -3.7600815e-21)
(0.006100319 0.0024759601 6.2318286e-20)
(0.0056183055 0.0019730027 3.2668859e-20)
(0.0045257118 0.0013490347 -1.0466233e-19)
(0.0025530103 0.00063482477 6.6834006e-21)
(-0.00050830572 -7.011731e-05 1.9860225e-20)
(-0.0048617297 -0.00062513054 3.7742141e-21)
(-0.010556839 -0.00081912358 -5.4506784e-21)
(-0.017574164 -0.00043001487 3.40819e-21)
(-0.026209744 0.00084679858 -6.3420898e-21)
(-0.035815139 0.0033058928 5.100918e-20)
(-0.045376666 0.0069587276 -6.9756556e-20)
(-0.054457868 0.011742052 2.6337635e-20)
(-0.062441386 0.017458429 -2.3245369e-20)
(-0.069048879 0.023875798 1.4612162e-19)
(-0.074020885 0.030702573 2.3095207e-20)
(-0.077268288 0.037656942 -1.9935847e-19)
(-0.078761855 0.044448784 1.6779905e-19)
(-0.078586811 0.050828646 3.1785349e-21)
(-0.076808607 0.056526371 -5.0652737e-20)
(-0.073681363 0.061406044 4.6663771e-20)
(-0.069260685 0.06518714 -7.604119e-20)
(-0.06381876 0.067774997 6.5216833e-21)
(-0.057662386 0.069156993 -1.854965e-20)
(-0.050892385 0.069118797 -1.8210501e-21)
(-0.043822831 0.067719073 -4.4401888e-22)
(-0.036664548 0.064930137 -4.5492576e-20)
(-0.029650186 0.060797603 7.487542e-20)
(-0.022995916 0.055393993 8.2649516e-20)
(-0.016900446 0.048820157 3.4140047e-20)
(-0.011543767 0.04120934 7.8992327e-20)
(-0.0070803769 0.03271614 -1.7702519e-20)
(-0.0036359536 0.023520665 5.1150196e-20)
(-0.0013107988 0.013823441 4.0040492e-20)
(-0.00016006948 0.0038283277 5.3357207e-21)
)
;
    }
    frontAndBack
    {
        type            empty;
    }
}


// ************************************************************************* //
