/*--------------------------------*- C++ -*----------------------------------*\
  =========                 |
  \\      /  F ield         | OpenFOAM: The Open Source CFD Toolbox
   \\    /   O peration     | Website:  https://openfoam.org
    \\  /    A nd           | Version:  13
     \\/     M anipulation  |
\*---------------------------------------------------------------------------*/
FoamFile
{
    format      ascii;
    class       volScalarField;
    location    "30.597519";
    object      p;
}
// * * * * * * * * * * * * * * * * * * * * * * * * * * * * * * * * * * * * * //

dimensions      [0 2 -2 0 0 0 0];

internalField   nonuniform List<scalar> 
17140
(
-0.27132313
-0.27133177
-0.27134202
-0.27135296
-0.27136495
-0.27137819
-0.27139276
-0.27140877
-0.27142633
-0.27144555
-0.27146654
-0.27148943
-0.2715143
-0.27154126
-0.27157039
-0.27160176
-0.27163541
-0.27167137
-0.27170965
-0.27175024
-0.27179311
-0.27183829
-0.27188585
-0.27193603
-0.27198938
-0.27204696
-0.27211074
-0.27218415
-0.27227292
-0.27238617
-0.27253748
-0.27274533
-0.27303135
-0.27341526
-0.27390688
-0.27449897
-0.27516534
-0.27586571
-0.27655441
-0.27718871
-0.27773457
-0.27816933
-0.27848238
-0.27867196
-0.27874162
-0.27870671
-0.27857988
-0.27836352
-0.2780561
-0.27766371
-0.27716216
-0.27657804
-0.27582079
-0.27501841
-0.27380581
-0.27257488
-0.26978475
-0.26673577
-0.25735541
-0.24491875
-0.21750538
-0.18499802
-0.14823443
-0.14063049
-0.11892395
-0.2715553
-0.27156416
-0.27157448
-0.27158536
-0.27159762
-0.27161123
-0.271626
-0.27164224
-0.27166005
-0.27167956
-0.27170088
-0.27172411
-0.27174936
-0.27177674
-0.27180634
-0.27183821
-0.27187241
-0.27190898
-0.27194793
-0.27198925
-0.27203293
-0.272079
-0.27212756
-0.27217886
-0.27223348
-0.27229251
-0.27235796
-0.27243335
-0.27252448
-0.27264061
-0.27279553
-0.27300799
-0.27329994
-0.27369141
-0.27419241
-0.27479568
-0.27547472
-0.27618881
-0.27689176
-0.27754034
-0.27810009
-0.27854785
-0.27887241
-0.27907094
-0.27914561
-0.27910958
-0.27897145
-0.2787262
-0.27836113
-0.27786404
-0.27718238
-0.2762965
-0.27504969
-0.2734655
-0.27105308
-0.26803105
-0.26277976
-0.25643629
-0.24337609
-0.22850988
-0.20198161
-0.17677681
-0.1517446
-0.157867
-0.14417934
-0.27187195
-0.27188077
-0.27189079
-0.27190121
-0.27191331
-0.27192752
-0.2719428
-0.27195902
-0.27197685
-0.2719964
-0.27201777
-0.27204107
-0.2720664
-0.27209387
-0.27212356
-0.27215556
-0.27218991
-0.27222666
-0.27226581
-0.27230737
-0.27235136
-0.27239779
-0.27244678
-0.27249861
-0.27255386
-0.27261366
-0.27268005
-0.27275657
-0.27284906
-0.27296682
-0.27312369
-0.27333851
-0.27363338
-0.27402854
-0.27453428
-0.27514351
-0.27582984
-0.27655248
-0.27726508
-0.27792417
-0.27849497
-0.27895396
-0.2792893
-0.27949717
-0.27957865
-0.27954461
-0.27939922
-0.27913066
-0.27871504
-0.27812174
-0.27726943
-0.276092
-0.27436503
-0.27200781
-0.26840222
-0.26360271
-0.25591693
-0.24624252
-0.2297293
-0.21269251
-0.18745049
-0.16869924
-0.15481848
-0.17487243
-0.16874448
-0.27227713
-0.27228583
-0.27229613
-0.27230712
-0.27231918
-0.27233249
-0.27234715
-0.27236326
-0.27238093
-0.27240028
-0.27242143
-0.27244449
-0.27246957
-0.27249678
-0.27252621
-0.27255793
-0.27259199
-0.27262845
-0.27266732
-0.27270862
-0.27275235
-0.27279857
-0.27284739
-0.27289911
-0.27295434
-0.2730142
-0.27308074
-0.2731575
-0.27325028
-0.27336833
-0.2735254
-0.27374022
-0.27403486
-0.27442966
-0.27493521
-0.27554491
-0.27623287
-0.27695866
-0.27767613
-0.27834183
-0.27892085
-0.27938946
-0.27973508
-0.27995314
-0.28004389
-0.28001599
-0.27986887
-0.27958463
-0.27912849
-0.27845158
-0.27744373
-0.27599269
-0.27380526
-0.27069647
-0.2659172
-0.25936009
-0.24923112
-0.23646771
-0.21662833
-0.19733076
-0.17372542
-0.16130529
-0.15798953
-0.19088334
-0.19168948
-0.27277329
-0.27278182
-0.27279215
-0.27280286
-0.27281459
-0.27282756
-0.27284186
-0.27285756
-0.2728748
-0.27289368
-0.27291433
-0.27293685
-0.27296135
-0.27298794
-0.27301672
-0.27304774
-0.27308109
-0.27311681
-0.27315491
-0.27319543
-0.27323837
-0.27328381
-0.27333186
-0.27338285
-0.27343737
-0.27349656
-0.27356246
-0.27363854
-0.27373054
-0.27384752
-0.27400299
-0.27421539
-0.27450654
-0.27489677
-0.27539706
-0.27600153
-0.27668523
-0.27740859
-0.27812601
-0.27879434
-0.27937873
-0.27985553
-0.28021109
-0.28044062
-0.28054381
-0.28052709
-0.28038533
-0.28009513
-0.27961147
-0.27886775
-0.27772534
-0.27602642
-0.27340812
-0.26958045
-0.26365854
-0.25538009
-0.24290158
-0.2270577
-0.20431752
-0.18274873
-0.16006776
-0.1540522
-0.16142676
-0.20395985
-0.21025612
-0.27336187
-0.27337003
-0.2733799
-0.27339017
-0.27340143
-0.27341388
-0.27342759
-0.27344267
-0.27345923
-0.27347737
-0.27349722
-0.27351888
-0.27354246
-0.27356806
-0.27359578
-0.2736257
-0.27365787
-0.27369236
-0.27372919
-0.27376839
-0.27380999
-0.27385405
-0.27390073
-0.27395033
-0.27400347
-0.27406127
-0.27412572
-0.27420023
-0.27429036
-0.27440493
-0.27455703
-0.27476463
-0.2750491
-0.27543062
-0.27592056
-0.2765141
-0.2771876
-0.27790281
-0.27861511
-0.27928197
-0.27986877
-0.2803515
-0.28071781
-0.28096063
-0.28108016
-0.2810805
-0.28095264
-0.28066831
-0.28017317
-0.2793836
-0.2781333
-0.27621982
-0.27320927
-0.26870352
-0.26167616
-0.25172109
-0.23694451
-0.21837833
-0.19346753
-0.17021263
-0.14780481
-0.1469567
-0.16443041
-0.21372646
-0.22033654
-0.27404037
-0.27404805
-0.27405729
-0.27406697
-0.27407758
-0.27408932
-0.27410225
-0.27411649
-0.27413212
-0.27414926
-0.27416802
-0.27418851
-0.27421083
-0.27423508
-0.27426136
-0.27428975
-0.27432031
-0.27435309
-0.27438815
-0.27442551
-0.27446521
-0.27450732
-0.27455202
-0.2745996
-0.27465069
-0.27470638
-0.27476862
-0.27484068
-0.27492794
-0.27503882
-0.27518591
-0.27538647
-0.27566123
-0.27603008
-0.27650481
-0.27708182
-0.27773926
-0.27844064
-0.27914281
-0.27980419
-0.2803907
-0.28087879
-0.28125526
-0.28151334
-0.28165363
-0.2816778
-0.28157373
-0.28130916
-0.28082128
-0.2800107
-0.27868436
-0.27659622
-0.2732384
-0.26809923
-0.26000706
-0.24843003
-0.23146122
-0.21084482
-0.18387356
-0.15877057
-0.13846124
-0.14202669
-0.1665988
-0.21892663
-0.22039048
-0.27480451
-0.27481158
-0.27482006
-0.27482899
-0.2748388
-0.27484965
-0.27486161
-0.27487478
-0.27488926
-0.27490514
-0.27492254
-0.27494156
-0.2749623
-0.27498485
-0.27500931
-0.27503577
-0.27506428
-0.27509491
-0.2751277
-0.2751627
-0.27519996
-0.27523956
-0.27528167
-0.27532662
-0.275375
-0.27542789
-0.27548716
-0.27555595
-0.27563935
-0.27574537
-0.27588592
-0.27607741
-0.27633971
-0.27669223
-0.27714716
-0.27770232
-0.27833802
-0.27902006
-0.27970716
-0.28035909
-0.28094259
-0.28143464
-0.28182181
-0.28209769
-0.28226368
-0.28231915
-0.28224993
-0.28202068
-0.28156125
-0.28075786
-0.27939139
-0.27717288
-0.27351497
-0.26778908
-0.25867733
-0.24549829
-0.22642792
-0.20349219
-0.17478531
-0.1503425
-0.1306346
-0.13830134
-0.1670682
-0.2190702
-0.21247124
-0.27564709
-0.27565345
-0.27566103
-0.27566909
-0.27567794
-0.27568774
-0.27569856
-0.27571048
-0.27572358
-0.27573798
-0.27575377
-0.27577104
-0.27578989
-0.27581043
-0.27583273
-0.27585687
-0.27588294
-0.27591098
-0.27594106
-0.27597322
-0.27600753
-0.27604409
-0.27608306
-0.27612478
-0.27616984
-0.27621929
-0.2762749
-0.27633966
-0.27641835
-0.27651846
-0.27665115
-0.27683181
-0.27707925
-0.27741224
-0.27784325
-0.27837168
-0.2789803
-0.27963766
-0.28030485
-0.28094339
-0.28152117
-0.28201592
-0.28241437
-0.28271096
-0.2829079
-0.28300273
-0.28298043
-0.28280329
-0.28239503
-0.28162834
-0.28026123
-0.27795561
-0.27404304
-0.26777655
-0.25767826
-0.24289757
-0.22164225
-0.19618085
-0.1654108
-0.14008465
-0.12308838
-0.13452055
-0.16616853
-0.2105775
-0.19886418
-0.2765584
-0.27656396
-0.27657056
-0.27657763
-0.27658541
-0.27659402
-0.27660354
-0.27661403
-0.27662559
-0.2766383
-0.27665225
-0.27666753
-0.27668424
-0.27670247
-0.2767223
-0.2767438
-0.27676706
-0.27679214
-0.27681909
-0.27684798
-0.27687889
-0.27691191
-0.27694723
-0.2769852
-0.27702638
-0.27707179
-0.27712312
-0.27718316
-0.27725637
-0.2773497
-0.27747343
-0.27764182
-0.27787244
-0.27818324
-0.27858685
-0.27908423
-0.2796609
-0.28028856
-0.28093118
-0.28155245
-0.28212179
-0.28261792
-0.28302819
-0.2833486
-0.28358157
-0.28372416
-0.28376144
-0.28365383
-0.28332018
-0.28262111
-0.2812881
-0.27893353
-0.27481039
-0.26805305
-0.25700544
-0.24061694
-0.21730986
-0.18931716
-0.15645504
-0.13067809
-0.11688979
-0.13067978
-0.16189762
-0.19843763
-0.18160954
-0.27752609
-0.2775308
-0.27753638
-0.27754237
-0.27754897
-0.27755628
-0.27756437
-0.27757331
-0.27758317
-0.27759403
-0.27760597
-0.27761907
-0.27763342
-0.27764911
-0.27766621
-0.2776848
-0.27770496
-0.27772674
-0.27775023
-0.27777548
-0.27780258
-0.27783165
-0.2778629
-0.27789664
-0.27793346
-0.27797432
-0.27802083
-0.27807557
-0.27814267
-0.27822847
-0.27834238
-0.27849741
-0.27870977
-0.27899636
-0.2793698
-0.27983253
-0.28037297
-0.28096633
-0.28157991
-0.28218005
-0.28273815
-0.28323418
-0.28365665
-0.2840037
-0.28427751
-0.28447622
-0.28458532
-0.2845642
-0.28432746
-0.28372298
-0.28245054
-0.28007393
-0.27578181
-0.26856838
-0.25656233
-0.23858137
-0.21312864
-0.18261661
-0.14873375
-0.12279087
-0.11141032
-0.12792823
-0.15523851
-0.18051789
-0.16071553
-0.27853585
-0.27853964
-0.27854416
-0.278549
-0.27855435
-0.27856029
-0.27856688
-0.27857417
-0.27858222
-0.27859111
-0.27860092
-0.2786117
-0.27862354
-0.27863652
-0.2786507
-0.27866618
-0.278683
-0.27870126
-0.27872101
-0.27874233
-0.27876532
-0.27879011
-0.2788169
-0.27884604
-0.27887809
-0.27891396
-0.27895517
-0.27900411
-0.27906456
-0.27914226
-0.27924571
-0.27938662
-0.27957974
-0.27984074
-0.28018202
-0.28060732
-0.28110796
-0.28166291
-0.28224323
-0.28281839
-0.28336221
-0.28385632
-0.28429102
-0.28466664
-0.28498557
-0.28524789
-0.28543961
-0.28551976
-0.2853986
-0.28490408
-0.28370133
-0.28132352
-0.27689033
-0.26922445
-0.25625296
-0.23655978
-0.20936627
-0.17682659
-0.14259765
-0.11886102
-0.11029716
-0.12427658
-0.14676505
-0.1639793
-0.13974211
-0.27957129
-0.27957415
-0.27957757
-0.27958124
-0.27958531
-0.27958985
-0.27959489
-0.27960049
-0.27960669
-0.27961356
-0.27962116
-0.27962956
-0.27963881
-0.27964898
-0.27966015
-0.27967238
-0.27968575
-0.27970032
-0.27971617
-0.27973338
-0.27975205
-0.27977233
-0.27979443
-0.27981868
-0.27984565
-0.27987619
-0.27991173
-0.27995447
-0.28000783
-0.28007699
-0.28016951
-0.28029584
-0.28046919
-0.28070387
-0.28101176
-0.2813977
-0.2818557
-0.28236867
-0.28291174
-0.28345799
-0.28398413
-0.28447395
-0.28492012
-0.28532491
-0.28569192
-0.28602336
-0.28630556
-0.28649765
-0.28649989
-0.28610867
-0.28497373
-0.28259421
-0.27801285
-0.26981503
-0.25568284
-0.23444491
-0.20577267
-0.17368834
-0.14076952
-0.12010068
-0.11184346
-0.12335434
-0.13814482
-0.14616686
-0.1280488
-0.28061531
-0.28061726
-0.28061959
-0.28062211
-0.28062491
-0.28062806
-0.28063157
-0.28063548
-0.28063985
-0.28064471
-0.28065012
-0.28065612
-0.28066278
-0.28067015
-0.28067829
-0.28068727
-0.28069715
-0.28070799
-0.28071988
-0.2807329
-0.28074716
-0.2807628
-0.28078005
-0.28079923
-0.28082088
-0.28084583
-0.28087538
-0.28091155
-0.28095742
-0.28101762
-0.28109883
-0.28121023
-0.28136356
-0.28157162
-0.28184558
-0.28219103
-0.28260438
-0.28307239
-0.28357447
-0.28408774
-0.28459224
-0.28507448
-0.28553006
-0.28596265
-0.2863782
-0.28678072
-0.28715606
-0.28746241
-0.2875746
-0.28726231
-0.28616506
-0.28375751
-0.27890525
-0.27002626
-0.25457452
-0.23210299
-0.20293906
-0.17217842
-0.14196344
-0.12353429
-0.11451605
-0.12538378
-0.13117111
-0.13438364
-0.11570014
-0.28164969
-0.28165076
-0.28165206
-0.28165348
-0.28165508
-0.2816569
-0.28165895
-0.28166126
-0.28166387
-0.2816668
-0.28167011
-0.28167382
-0.28167798
-0.28168264
-0.28168785
-0.28169367
-0.28170015
-0.28170736
-0.28171537
-0.28172427
-0.28173417
-0.2817452
-0.2817576
-0.28177167
-0.28178793
-0.28180713
-0.28183049
-0.28185983
-0.28189791
-0.28194882
-0.28201843
-0.28211474
-0.28224817
-0.28242975
-0.2826696
-0.28297401
-0.28334121
-0.28376167
-0.28421911
-0.28469499
-0.28517303
-0.28564306
-0.28610367
-0.28656
-0.28702056
-0.28748973
-0.28795228
-0.28835608
-0.28853584
-0.28825792
-0.28714766
-0.28456199
-0.2792727
-0.26932933
-0.2528479
-0.22940624
-0.20063731
-0.1716303
-0.14525056
-0.12844849
-0.11797202
-0.12463421
-0.12416679
-0.12568533
-0.10784759
-0.28265809
-0.28265837
-0.28265873
-0.28265916
-0.28265966
-0.28266026
-0.28266098
-0.28266183
-0.28266283
-0.282664
-0.28266537
-0.28266696
-0.28266882
-0.28267098
-0.28267347
-0.28267634
-0.28267964
-0.28268343
-0.28268777
-0.28269274
-0.28269845
-0.28270503
-0.28271269
-0.28272171
-0.28273256
-0.28274593
-0.2827629
-0.28278509
-0.28281493
-0.28285599
-0.28291338
-0.28299372
-0.28310672
-0.2832616
-0.28346756
-0.28373122
-0.28405156
-0.28442253
-0.28483186
-0.2852655
-0.28571113
-0.28616237
-0.28662029
-0.28709224
-0.28758799
-0.28810991
-0.28863982
-0.28908318
-0.2892766
-0.28895307
-0.28770048
-0.28472523
-0.27863194
-0.26754633
-0.24969639
-0.22572812
-0.19835709
-0.17212564
-0.14781344
-0.13220089
-0.12109263
-0.12283769
-0.11982859
-0.11837213
-0.100641
-0.28362319
-0.2836228
-0.28362237
-0.28362194
-0.2836215
-0.28362107
-0.28362065
-0.28362024
-0.28361985
-0.2836195
-0.2836192
-0.28361896
-0.28361882
-0.28361878
-0.28361888
-0.28361916
-0.28361965
-0.28362039
-0.28362144
-0.28362286
-0.28362475
-0.28362721
-0.28363042
-0.28363463
-0.28364023
-0.28364782
-0.28365832
-0.28367314
-0.28369437
-0.2837251
-0.28376978
-0.28383282
-0.28393093
-0.28406037
-0.28422866
-0.2844507
-0.28472246
-0.28504144
-0.28539857
-0.28578404
-0.2861895
-0.2866124
-0.28705566
-0.28752893
-0.28804099
-0.28858473
-0.28913209
-0.28954183
-0.28964691
-0.28917335
-0.28757106
-0.28399775
-0.27675087
-0.26411492
-0.24496644
-0.22173436
-0.19631937
-0.17185532
-0.14954003
-0.13435855
-0.12255248
-0.12130796
-0.1156219
-0.11231203
-0.095330666
-0.28453422
-0.28453331
-0.28453225
-0.28453116
-0.28452999
-0.28452875
-0.28452743
-0.28452603
-0.28452455
-0.284523
-0.28452137
-0.28451967
-0.28451792
-0.28451611
-0.28451428
-0.28451244
-0.2845106
-0.28450881
-0.2845071
-0.2845055
-0.28450409
-0.28450294
-0.28450218
-0.284502
-0.28450269
-0.28450474
-0.28450889
-0.2845163
-0.28452872
-0.28454883
-0.28458108
-0.28462456
-0.28469329
-0.28479434
-0.28492978
-0.28511411
-0.28533712
-0.28560263
-0.28590354
-0.28623391
-0.28658909
-0.28696984
-0.28738005
-0.287831
-0.28832497
-0.28884971
-0.28932508
-0.28960609
-0.28951647
-0.28870536
-0.28666781
-0.28202964
-0.27319542
-0.2588044
-0.23955235
-0.21750678
-0.19344634
-0.17106735
-0.15030048
-0.13577622
-0.12360205
-0.11969216
-0.11218633
-0.10731322
-0.090823165
-0.28537749
-0.28537625
-0.28537479
-0.28537326
-0.28537163
-0.28536986
-0.28536796
-0.2853659
-0.2853637
-0.28536134
-0.28535882
-0.28535613
-0.28535327
-0.28535024
-0.28534705
-0.28534369
-0.28534017
-0.28533651
-0.2853327
-0.28532876
-0.28532471
-0.28532057
-0.28531639
-0.28531225
-0.28530832
-0.28530489
-0.28530243
-0.28530179
-0.28530428
-0.28531183
-0.28532638
-0.28536078
-0.28540995
-0.28547449
-0.2855731
-0.28571409
-0.28588564
-0.28609377
-0.28633236
-0.28659811
-0.28688896
-0.28720798
-0.28755837
-0.28795277
-0.28838245
-0.28881284
-0.28913133
-0.28919513
-0.28880604
-0.28760917
-0.28461559
-0.27845337
-0.26776594
-0.25243789
-0.23384952
-0.21242528
-0.19036138
-0.16969141
-0.1503896
-0.13586937
-0.12418881
-0.11778683
-0.10899836
-0.10299284
-0.08716093
-0.28615181
-0.28615044
-0.28614883
-0.28614715
-0.28614534
-0.28614337
-0.28614123
-0.28613892
-0.28613642
-0.28613372
-0.28613081
-0.28612767
-0.2861243
-0.28612068
-0.28611681
-0.28611266
-0.28610823
-0.28610349
-0.28609843
-0.28609301
-0.28608719
-0.28608093
-0.28607417
-0.28606689
-0.28605907
-0.28605079
-0.28604227
-0.28603398
-0.2860268
-0.28602225
-0.28602239
-0.28603316
-0.28604761
-0.28608438
-0.28615449
-0.28624092
-0.28635865
-0.28650315
-0.28667129
-0.2868594
-0.28706687
-0.28729704
-0.28755049
-0.28784177
-0.2881487
-0.28841527
-0.28851147
-0.28834503
-0.28763413
-0.285579
-0.28113338
-0.2730762
-0.26092713
-0.24585492
-0.22721677
-0.20727356
-0.18707156
-0.16781394
-0.14978663
-0.13552962
-0.123808
-0.11578452
-0.10620053
-0.099331023
-0.084066473
-0.28685205
-0.28685081
-0.28684935
-0.28684783
-0.28684618
-0.28684438
-0.28684243
-0.2868403
-0.286838
-0.28683549
-0.28683277
-0.28682982
-0.28682662
-0.28682314
-0.28681937
-0.28681526
-0.28681078
-0.28680588
-0.28680049
-0.28679451
-0.28678785
-0.28678034
-0.28677181
-0.28676205
-0.28675082
-0.2867379
-0.28672315
-0.28670655
-0.28668843
-0.28666958
-0.28665148
-0.28663706
-0.28662894
-0.28663011
-0.28665072
-0.28668834
-0.2867461
-0.28682033
-0.28690685
-0.28699999
-0.2870989
-0.28720437
-0.28731903
-0.2874656
-0.28759866
-0.28766141
-0.28760385
-0.28713191
-0.28568139
-0.28233284
-0.27602624
-0.26629957
-0.25395486
-0.23837594
-0.22045712
-0.20236295
-0.18341593
-0.16546522
-0.14850891
-0.13467872
-0.12251684
-0.11386995
-0.10353035
-0.096051538
-0.081363139
-0.28748774
-0.28748689
-0.28748591
-0.28748487
-0.28748375
-0.28748253
-0.2874812
-0.28747975
-0.28747816
-0.28747643
-0.28747453
-0.28747244
-0.28747013
-0.28746757
-0.28746472
-0.28746152
-0.28745792
-0.2874538
-0.28744905
-0.28744351
-0.28743698
-0.28742916
-0.28741972
-0.28740824
-0.28739421
-0.28737705
-0.28735619
-0.28733109
-0.28730142
-0.28726721
-0.28722912
-0.28718872
-0.28714839
-0.2871115
-0.28708256
-0.28706249
-0.28705125
-0.28704366
-0.28703287
-0.28700808
-0.28696929
-0.2869255
-0.28686581
-0.28684462
-0.28681227
-0.28676594
-0.28640934
-0.28526697
-0.28270885
-0.27757874
-0.2694377
-0.25938467
-0.24619854
-0.23052033
-0.21438957
-0.19715057
-0.17954271
-0.16272928
-0.14669281
-0.13323891
-0.12100996
-0.11178214
-0.10098096
-0.093128588
-0.078977214
-0.28807034
-0.28807017
-0.28806997
-0.28806977
-0.28806956
-0.28806934
-0.28806909
-0.28806881
-0.28806849
-0.28806811
-0.28806766
-0.28806712
-0.28806644
-0.28806558
-0.28806449
-0.28806308
-0.28806125
-0.28805885
-0.28805569
-0.28805153
-0.28804602
-0.28803874
-0.28802915
-0.28801656
-0.28800013
-0.28797891
-0.28795181
-0.28791769
-0.2878755
-0.28782445
-0.28776426
-0.28769532
-0.28761905
-0.28753812
-0.28745477
-0.28736952
-0.28727937
-0.28717652
-0.28705026
-0.28688805
-0.28670222
-0.28647483
-0.28630624
-0.28614191
-0.28600619
-0.2856773
-0.28467443
-0.28255373
-0.27841188
-0.27121159
-0.26280718
-0.25163938
-0.2376885
-0.22358585
-0.20805912
-0.19195632
-0.1754632
-0.1596247
-0.14440062
-0.13133062
-0.11907149
-0.10954336
-0.098476101
-0.090401193
-0.076761968
-0.28862607
-0.28862683
-0.28862774
-0.2886287
-0.28862975
-0.28863091
-0.28863216
-0.28863351
-0.28863495
-0.28863647
-0.28863805
-0.28863966
-0.28864126
-0.28864279
-0.28864417
-0.28864529
-0.28864598
-0.28864605
-0.28864521
-0.28864311
-0.28863926
-0.28863304
-0.28862368
-0.2886102
-0.2885914
-0.28856586
-0.28853197
-0.28848795
-0.288432
-0.28836246
-0.28827816
-0.28817898
-0.28806277
-0.28793308
-0.28778964
-0.28763147
-0.28745203
-0.28724195
-0.28699712
-0.28668419
-0.28635091
-0.28604533
-0.28575883
-0.28549355
-0.28509065
-0.28414637
-0.28215497
-0.27857432
-0.27222169
-0.26482277
-0.2552136
-0.24283271
-0.23034124
-0.21655449
-0.20192124
-0.18670581
-0.17116559
-0.15619892
-0.14169707
-0.12902086
-0.11686624
-0.10716433
-0.095983013
-0.087832657
-0.074679795
-0.28919072
-0.28919263
-0.28919487
-0.28919726
-0.28919986
-0.28920269
-0.28920578
-0.28920911
-0.28921269
-0.28921651
-0.28922054
-0.28922476
-0.28922911
-0.2892335
-0.28923784
-0.28924195
-0.28924564
-0.2892486
-0.28925047
-0.28925073
-0.28924874
-0.28924367
-0.28923447
-0.28921983
-0.28919818
-0.28916762
-0.289126
-0.28907091
-0.28899978
-0.28891025
-0.28880334
-0.28866407
-0.28850195
-0.28832287
-0.28811587
-0.28788112
-0.28760763
-0.28729753
-0.28691664
-0.28652937
-0.28610962
-0.28570212
-0.28532431
-0.28479868
-0.28378986
-0.28184827
-0.27838006
-0.27278093
-0.26604274
-0.25769364
-0.24639966
-0.23528268
-0.22300488
-0.20980489
-0.19580519
-0.18137164
-0.16667644
-0.15247994
-0.13863086
-0.12634855
-0.11436398
-0.10462676
-0.093458527
-0.085334693
-0.072642743
-0.28981852
-0.28982166
-0.28982537
-0.28982929
-0.28983355
-0.28983821
-0.28984326
-0.28984871
-0.28985457
-0.28986083
-0.28986745
-0.2898744
-0.2898816
-0.28988894
-0.28989627
-0.28990337
-0.28990996
-0.28991565
-0.28991993
-0.28992214
-0.28992142
-0.28991671
-0.28990665
-0.28988959
-0.28986355
-0.28982615
-0.28977472
-0.28970622
-0.28961712
-0.28950687
-0.28936369
-0.28919489
-0.28899444
-0.28875487
-0.28848417
-0.288176
-0.2878058
-0.28740142
-0.28696613
-0.28650447
-0.2860257
-0.28551677
-0.28484428
-0.28373691
-0.28175746
-0.27842497
-0.27324981
-0.2668747
-0.25954696
-0.24930083
-0.23874186
-0.2279971
-0.2158688
-0.20310297
-0.18969851
-0.17595914
-0.16200111
-0.14849642
-0.13524444
-0.12336355
-0.1116122
-0.10194202
-0.090878356
-0.082871436
-0.070620777
-0.29057546
-0.29057976
-0.29058482
-0.29059016
-0.29059596
-0.29060227
-0.29060911
-0.29061648
-0.29062439
-0.29063281
-0.29064171
-0.29065103
-0.29066065
-0.29067045
-0.2906802
-0.29068962
-0.29069832
-0.29070581
-0.29071142
-0.29071431
-0.29071339
-0.29070733
-0.29069448
-0.29067281
-0.29063994
-0.29059306
-0.290529
-0.29044408
-0.29032974
-0.2901918
-0.29003257
-0.28982741
-0.28957383
-0.28928806
-0.28895196
-0.28857152
-0.28814804
-0.28766223
-0.28717057
-0.28665127
-0.28603882
-0.28524775
-0.28401035
-0.28195866
-0.27868009
-0.27374826
-0.26769151
-0.2609317
-0.25174231
-0.24156582
-0.23160857
-0.22058566
-0.20880197
-0.19646497
-0.18357789
-0.17044911
-0.1571471
-0.14426835
-0.13157006
-0.12009451
-0.10862143
-0.099101248
-0.088215931
-0.080393973
-0.068565158
-0.29154983
-0.29155499
-0.29156105
-0.29156744
-0.29157434
-0.29158185
-0.29158995
-0.29159866
-0.29160796
-0.29161782
-0.29162818
-0.29163894
-0.29164997
-0.29166106
-0.29167193
-0.29168221
-0.29169139
-0.29169883
-0.2917037
-0.29170493
-0.29170121
-0.2916909
-0.29167203
-0.2916422
-0.29159856
-0.29153759
-0.29145504
-0.29135165
-0.29123936
-0.29107887
-0.29085436
-0.29059534
-0.29030532
-0.28996243
-0.28957492
-0.28913311
-0.2886484
-0.28811563
-0.28753742
-0.28687102
-0.28597692
-0.28463446
-0.28249138
-0.27924463
-0.27447178
-0.26858094
-0.26219331
-0.2536128
-0.24400348
-0.23456946
-0.22423348
-0.21336607
-0.20184094
-0.18984313
-0.17741725
-0.16483353
-0.15211809
-0.13981213
-0.12763288
-0.11656744
-0.10540821
-0.09610431
-0.08545302
-0.077873391
-0.066452378
-0.29282513
-0.2928307
-0.29283723
-0.29284409
-0.29285148
-0.29285947
-0.29286805
-0.29287721
-0.29288692
-0.29289711
-0.2929077
-0.29291853
-0.29292942
-0.29294007
-0.29295012
-0.29295907
-0.29296628
-0.29297091
-0.29297193
-0.29296803
-0.29295759
-0.29293866
-0.29290885
-0.29286498
-0.29280325
-0.29272871
-0.29264692
-0.29253441
-0.29234902
-0.29212346
-0.29188327
-0.29158681
-0.29124792
-0.29085447
-0.29039274
-0.28988519
-0.28933652
-0.28871403
-0.28797826
-0.28701439
-0.28557097
-0.28336794
-0.28011291
-0.2755039
-0.26966142
-0.26351801
-0.2554405
-0.24622039
-0.2371501
-0.2273208
-0.21701353
-0.20620917
-0.19488577
-0.18320612
-0.17119282
-0.15909834
-0.14691443
-0.13513823
-0.12345106
-0.11279975
-0.10198187
-0.092947234
-0.082573249
-0.07528117
-0.064254433
-0.29450722
-0.2945126
-0.29451888
-0.29452543
-0.29453244
-0.29453996
-0.29454795
-0.29455638
-0.29456517
-0.29457423
-0.29458341
-0.2945925
-0.29460121
-0.29460917
-0.29461588
-0.2946207
-0.29462281
-0.29462117
-0.29461449
-0.29460121
-0.29457936
-0.29454622
-0.29449877
-0.29444163
-0.29437391
-0.29427924
-0.29413655
-0.29395075
-0.29373766
-0.29348774
-0.29318679
-0.29283261
-0.29241898
-0.29195417
-0.29143594
-0.29085065
-0.29018987
-0.28940279
-0.28836233
-0.28686307
-0.28458645
-0.28136362
-0.2768543
-0.27107859
-0.2650374
-0.25735858
-0.24838339
-0.23950227
-0.23006512
-0.22016512
-0.2098152
-0.19906828
-0.18792842
-0.17652485
-0.16488123
-0.15323109
-0.14153392
-0.1302534
-0.11903754
-0.10880426
-0.098349373
-0.089626143
-0.079563078
-0.07259699
-0.061953697
-0.29669701
-0.29670159
-0.29670689
-0.29671236
-0.29671811
-0.29672417
-0.29673047
-0.29673692
-0.29674341
-0.29674976
-0.29675575
-0.29676109
-0.29676536
-0.29676806
-0.29676853
-0.29676594
-0.29675923
-0.29674712
-0.296728
-0.29669983
-0.2966601
-0.29660777
-0.29654287
-0.29645674
-0.29633621
-0.2961775
-0.29598903
-0.29576904
-0.29550217
-0.29518464
-0.29481143
-0.29438121
-0.29389421
-0.29334661
-0.29273144
-0.29203187
-0.29119291
-0.29009178
-0.28852101
-0.28622475
-0.28294936
-0.27866706
-0.27292046
-0.26702422
-0.25956062
-0.25066469
-0.24187378
-0.2326884
-0.22304603
-0.21300527
-0.20260518
-0.19190453
-0.1809171
-0.16976387
-0.15845761
-0.14721617
-0.13597116
-0.12516011
-0.1144003
-0.10458913
-0.094514919
-0.086137357
-0.076411738
-0.069803362
-0.059533365
-0.29950421
-0.29950748
-0.29951118
-0.29951487
-0.29951859
-0.2995223
-0.29952588
-0.29952918
-0.29953199
-0.29953405
-0.29953503
-0.29953448
-0.29953185
-0.29952643
-0.29951732
-0.29950342
-0.29948337
-0.29945548
-0.29941768
-0.29936759
-0.29930344
-0.29922119
-0.29911466
-0.29897471
-0.29880383
-0.29860341
-0.29836096
-0.29807067
-0.29772695
-0.29732668
-0.29686917
-0.29635089
-0.29576826
-0.29511561
-0.29436976
-0.29347151
-0.29230051
-0.29065834
-0.28829473
-0.2849858
-0.2805974
-0.27500342
-0.26894141
-0.26178617
-0.25313612
-0.24433346
-0.23534307
-0.22584375
-0.21597567
-0.20579374
-0.19533587
-0.18466939
-0.17381762
-0.16289239
-0.15189731
-0.14103741
-0.13021838
-0.11985753
-0.10954336
-0.10015889
-0.090480311
-0.082476252
-0.07310952
-0.066887073
-0.05698094
-0.30310616
-0.30310739
-0.30310861
-0.30310956
-0.30311016
-0.30311027
-0.30310971
-0.30310823
-0.30310552
-0.30310119
-0.30309474
-0.30308554
-0.30307282
-0.30305562
-0.30303274
-0.30300273
-0.30296381
-0.30291385
-0.30285032
-0.30277026
-0.30267016
-0.30254454
-0.30239021
-0.30220365
-0.30197842
-0.3017086
-0.30138839
-0.30101357
-0.30058162
-0.30008858
-0.29953111
-0.2989066
-0.29820544
-0.29740143
-0.29643311
-0.29518167
-0.29346084
-0.29103253
-0.28769028
-0.28330532
-0.27776745
-0.27149717
-0.26458986
-0.25587889
-0.2471045
-0.23816368
-0.22874813
-0.2189372
-0.20883059
-0.19848923
-0.18796141
-0.17731894
-0.16658802
-0.1558755
-0.14517367
-0.13467624
-0.12426515
-0.11434172
-0.10446748
-0.095515182
-0.086245843
-0.078638442
-0.069649027
-0.063836755
-0.054288159
-0.3077566
-0.3077546
-0.30775192
-0.30774859
-0.30774434
-0.30773893
-0.30773207
-0.30772338
-0.30771242
-0.30769862
-0.30768129
-0.30765958
-0.30763243
-0.30759858
-0.30755648
-0.30750425
-0.30743966
-0.30736007
-0.30726235
-0.30714288
-0.30699753
-0.30682163
-0.3066101
-0.30635731
-0.30605768
-0.30570626
-0.30529869
-0.30483023
-0.30429686
-0.30369575
-0.30302153
-0.30226163
-0.30138579
-0.30032987
-0.2989769
-0.29715031
-0.29463007
-0.2912126
-0.28680028
-0.28126799
-0.27491935
-0.26799201
-0.25955357
-0.25057971
-0.24161924
-0.23198768
-0.22208625
-0.21192138
-0.20154744
-0.19103402
-0.18042855
-0.16980434
-0.15918719
-0.14867865
-0.1382592
-0.12811279
-0.11809898
-0.10860615
-0.099170522
-0.090657107
-0.08181029
-0.074619088
-0.066023702
-0.060644645
-0.051447076
-0.31373895
-0.31373206
-0.31372351
-0.31371376
-0.31370232
-0.31368876
-0.31367267
-0.31365353
-0.3136307
-0.31360343
-0.31357077
-0.3135316
-0.31348456
-0.31342803
-0.31336005
-0.3132783
-0.31318007
-0.31306215
-0.31292086
-0.31275199
-0.3125508
-0.31231212
-0.31203068
-0.31170111
-0.31131792
-0.31087565
-0.31036941
-0.30979494
-0.30914718
-0.30841788
-0.30759015
-0.30662865
-0.30546531
-0.30398432
-0.30201643
-0.29935915
-0.29581584
-0.29129166
-0.28571214
-0.27916176
-0.27212296
-0.26366997
-0.25461745
-0.24538764
-0.2356173
-0.22553382
-0.21521136
-0.20469313
-0.19405346
-0.18336526
-0.17268101
-0.16207538
-0.15157106
-0.14126482
-0.13112464
-0.12132535
-0.11170539
-0.10264217
-0.093648308
-0.085581998
-0.077171534
-0.070412777
-0.062228565
-0.057300317
-0.048455331
-0.32139774
-0.32138392
-0.32136706
-0.32134831
-0.32132681
-0.32130192
-0.32127309
-0.32123962
-0.32120064
-0.32115517
-0.32110199
-0.32103965
-0.32096642
-0.3208803
-0.32077894
-0.32065956
-0.32051894
-0.32035337
-0.32015871
-0.31993036
-0.31966329
-0.31935209
-0.318991
-0.31857422
-0.31809611
-0.31755104
-0.31693295
-0.31623409
-0.31544211
-0.3145345
-0.31346957
-0.31217413
-0.31053171
-0.30837931
-0.30552528
-0.30179059
-0.29706116
-0.29131875
-0.28454371
-0.27725862
-0.26871146
-0.25941189
-0.24989341
-0.23986093
-0.22950975
-0.21888947
-0.20809232
-0.19719939
-0.18628235
-0.17541801
-0.16465898
-0.15407839
-0.14369353
-0.13359554
-0.12373923
-0.11429069
-0.10506818
-0.096439234
-0.087894816
-0.080285677
-0.072326896
-0.06601416
-0.058259707
-0.053795425
-0.045319207
-0.33103626
-0.33101315
-0.33098519
-0.33095444
-0.33091962
-0.33087984
-0.33083434
-0.33078224
-0.33072244
-0.33065367
-0.33057448
-0.3304832
-0.33037765
-0.33025538
-0.33011369
-0.32994938
-0.32975878
-0.32953778
-0.3292819
-0.32898612
-0.32864502
-0.32825282
-0.32780349
-0.32729062
-0.32670722
-0.32604497
-0.32529256
-0.32443244
-0.32343529
-0.32225171
-0.32080165
-0.31896566
-0.31658315
-0.31346999
-0.30945613
-0.30442686
-0.29834961
-0.29127571
-0.28358068
-0.27482554
-0.26514512
-0.25520221
-0.24481436
-0.23406785
-0.22305661
-0.21186988
-0.20060145
-0.18933514
-0.17814786
-0.16711838
-0.1562981
-0.14575763
-0.13550719
-0.1256315
-0.11607169
-0.10698497
-0.098170383
-0.089985897
-0.081903153
-0.074763266
-0.06727377
-0.061418628
-0.054116127
-0.050133375
-0.042002811
-0.3429634
-0.34292859
-0.3428867
-0.34284094
-0.34278949
-0.34273121
-0.34266523
-0.34259013
-0.34250414
-0.34240892
-0.34231192
-0.34219773
-0.34204272
-0.34186417
-0.34167471
-0.34146081
-0.34121493
-0.34093265
-0.34060933
-0.34023989
-0.33981825
-0.33933773
-0.33879081
-0.33816851
-0.33745929
-0.33664704
-0.33570749
-0.33460279
-0.33327396
-0.33163235
-0.32955309
-0.32687745
-0.32342493
-0.31903817
-0.31360178
-0.30707462
-0.29954484
-0.29128589
-0.28213477
-0.27196112
-0.2614916
-0.25062614
-0.23937577
-0.22785289
-0.21615872
-0.20438967
-0.19264116
-0.18100537
-0.16956078
-0.15838553
-0.1475273
-0.13705191