/*--------------------------------*- C++ -*----------------------------------*\
  =========                 |
  \\      /  F ield         | OpenFOAM: The Open Source CFD Toolbox
   \\    /   O peration     | Website:  https://openfoam.org
    \\  /    A nd           | Version:  13
     \\/     M anipulation  |
\*---------------------------------------------------------------------------*/
FoamFile
{
    format      ascii;
    class       volVectorField;
    location    "9.102142";
    object      UMean;
}
// * * * * * * * * * * * * * * * * * * * * * * * * * * * * * * * * * * * * * //

dimensions      [0 1 -1 0 0 0 0];

internalField   nonuniform List<vector> 
17140
(
(-4.3227125e-06 0.00018645155 -4.8345809e-22)
(-5.5024543e-05 0.00057261731 -3.9079399e-23)
(-0.00016421154 0.00099325136 2.5820412e-21)
(-0.00035470306 0.0014500356 -2.8394887e-21)
(-0.00064675722 0.0019446412 3.3208152e-22)
(-0.0010681535 0.0024782871 -1.0872019e-21)
(-0.0016528627 0.0030516179 -1.8313277e-21)
(-0.0024416584 0.0036645023 8.9512585e-22)
(-0.0034832625 0.0043158018 2.9317403e-21)
(-0.0048353993 0.0050031038 7.198309e-21)
(-0.0065657509 0.0057224295 -1.0690145e-20)
(-0.008752741 0.006467931 9.5430659e-21)
(-0.011486032 0.0072315995 1.4628546e-21)
(-0.01486656 0.0080030193 -8.3012284e-21)
(-0.019005917 0.0087692274 9.2424753e-22)
(-0.024024875 0.0095147353 -7.3499048e-21)
(-0.030050896 0.010221814 2.7556313e-22)
(-0.037214509 0.010871122 -6.0847516e-23)
(-0.045644657 0.011442768 -4.4054219e-21)
(-0.055463349 0.011917836 5.74447e-21)
(-0.066780227 0.012280329 -2.7770814e-21)
(-0.079687907 0.012519313 5.347301e-22)
(-0.094261215 0.012630833 3.9398351e-21)
(-0.11056471 0.012619001 -3.9324741e-21)
(-0.1286384 0.012495946 -6.2671181e-21)
(-0.14849891 0.012278987 5.0444026e-21)
(-0.17022389 0.011983248 2.4724604e-20)
(-0.1938736 0.011622888 2.8964323e-21)
(-0.21946778 0.011210236 -2.551022e-20)
(-0.24707474 0.010752874 -5.941412e-21)
(-0.27674141 0.010254926 -2.1205082e-20)
(-0.30850285 0.0097179378 2.794108e-20)
(-0.34237453 0.0091416096 -7.2624739e-21)
(-0.37834305 0.0085242888 -3.4824298e-21)
(-0.41635537 0.0078628063 -3.414191e-20)
(-0.45630421 0.0071521909 1.5036558e-20)
(-0.49800829 0.0063853919 -2.2605323e-20)
(-0.54118522 0.0055529537 -1.5285356e-20)
(-0.58541607 0.0046428181 -6.9810195e-21)
(-0.63010182 0.0036411827 2.1173723e-20)
(-0.67441515 0.0025327029 3.9792872e-20)
(-0.7172445 0.0013033607 3.5947049e-20)
(-0.75714371 -5.6367547e-05 1.5617545e-20)
(-0.79234116 -0.0015490341 -7.5243031e-20)
(-0.82072713 -0.0031622842 -5.4546215e-20)
(-0.83995774 -0.004853101 1.3300153e-20)
(-0.84762946 -0.0065808472 -8.9574139e-20)
(-0.84112666 -0.0082833771 -3.0186667e-20)
(-0.81832012 -0.0098856753 3.0567203e-20)
(-0.77782384 -0.011287931 7.4499694e-20)
(-0.71877225 -0.012417467 -4.5806576e-20)
(-0.64099728 -0.013317665 -2.8968785e-20)
(-0.54397221 -0.013877655 7.5559764e-20)
(-0.43007948 -0.014038289 3.5850128e-20)
(-0.29991604 -0.013839865 2.5699099e-20)
(-0.15620917 -0.013228761 -2.0203884e-20)
(-0.0026148478 -0.012138433 5.5084343e-20)
(0.15480026 -0.010506383 4.60914e-20)
(0.30808074 -0.0083709343 1.1556329e-20)
(0.44862958 -0.0058757407 -2.9691345e-20)
(0.57041627 -0.0032920597 -2.3143071e-20)
(0.66968356 -0.00092578731 -8.5233173e-20)
(0.74846841 0.0010167687 -1.2449631e-20)
(0.80855185 0.0025434736 1.0436871e-19)
(0.85482178 0.003561838 -8.0540864e-20)
(-4.3234007e-05 0.0010096327 1.373093e-22)
(-0.00017355629 0.0031017737 -1.3528522e-20)
(-0.00036849973 0.0053817462 1.2041202e-20)
(-0.00065066659 0.0078598474 -3.2840694e-21)
(-0.0010403458 0.010545381 -6.785772e-21)
(-0.0015650652 0.013445455 1.2971539e-20)
(-0.0022583347 0.01656421 -1.353063e-20)
(-0.0031602196 0.019901784 1.1916785e-21)
(-0.0043184338 0.023453088 -3.7236222e-21)
(-0.0057893398 0.027206413 -6.2556833e-23)
(-0.0076388591 0.031141893 -1.2462507e-20)
(-0.0099432185 0.035229912 1.9837751e-20)
(-0.012789426 0.039429565 1.6415193e-21)
(-0.01627531 0.043687361 -1.6238925e-20)
(-0.020508942 0.047936463 5.0015171e-21)
(-0.025607261 0.052096819 3.1843171e-21)
(-0.031693723 0.056076653 -2.0249577e-20)
(-0.038894903 0.059775802 6.6169749e-20)
(-0.04733611 0.063091359 -4.1551221e-20)
(-0.05713635 0.065925811 4.9904522e-20)
(-0.06840321 0.068197402 -7.3918303e-20)
(-0.081228453 0.069851603 1.8164454e-20)
(-0.095687133 0.070871445 7.5033939e-21)
(-0.11184478 0.071283513 -2.4522792e-20)
(-0.12974581 0.071156915 8.8317165e-20)
(-0.14940723 0.070587866 1.3136761e-20)
(-0.17090682 0.069661683 -6.83184e-20)
(-0.19430937 0.068456974 7.6519959e-20)
(-0.21963315 0.067041443 -1.0595677e-20)
(-0.24694583 0.06545853 -1.0302139e-19)
(-0.27629325 0.06373221 1.0738431e-20)
(-0.30770865 0.061872307 8.1832748e-20)
(-0.34120502 0.05987865 1.9839333e-21)
(-0.37676563 0.057743028 -6.1131169e-20)
(-0.41433321 0.055448577 6.8360212e-20)
(-0.45379468 0.052967642 -3.0786162e-20)
(-0.49496132 0.050259213 3.643633e-20)
(-0.53754136 0.047266634 1.1570064e-19)
(-0.58110369 0.043916168 2.5835899e-20)
(-0.62503393 0.040117585 1.0105645e-19)
(-0.6684851 0.035767193 -1.2948489e-19)
(-0.71032095 0.030757503 -1.1853202e-19)
(-0.74906671 0.024994401 -2.006533e-20)
(-0.78290631 0.018418628 1.608943e-19)
(-0.80967991 0.011026406 -7.5285777e-20)
(-0.827027 0.0028885575 -2.5881014e-20)
(-0.83234517 -0.0058907413 1.3919255e-20)
(-0.8231991 -0.015049311 4.2857542e-20)
(-0.79754184 -0.024190202 -2.0894073e-20)
(-0.75383187 -0.032949251 3.7666635e-20)
(-0.69123863 -0.04104991 2.2673282e-19)
(-0.60974366 -0.048356249 1.0853347e-20)
(-0.50993172 -0.054503639 -4.9131171e-20)
(-0.39280537 -0.059382459 1.0982398e-19)
(-0.25992383 -0.062994325 -9.4262179e-20)
(-0.11396469 -0.064891857 2.6905596e-19)
(0.041181534 -0.06457496 7.7015486e-20)
(0.19925951 -0.061413325 -2.1792272e-19)
(0.35211341 -0.055204269 3.692558e-20)
(0.49104686 -0.046566175 4.2125743e-20)
(0.61017097 -0.036692645 8.4200112e-21)
(0.70629955 -0.027113919 -1.1133869e-19)
(0.78150602 -0.018877265 2.1635806e-19)
(0.83767748 -0.012234919 6.4585774e-20)
(0.87994113 -0.0072846041 1.0721793e-19)
(-0.00012702268 0.0018135862 7.5635909e-21)
(-0.00042861679 0.0055726914 -4.0777904e-21)
(-0.00080780127 0.0096704805 -1.0846557e-21)
(-0.0012866327 0.014126127 1.0289987e-21)
(-0.0018853973 0.018956835 -4.9873961e-21)
(-0.0026309821 0.024176033 -3.7051433e-22)
(-0.0035557894 0.029791957 -4.7431591e-21)
(-0.0046982271 0.035805824 -5.1139269e-21)
(-0.0061036864 0.042209636 4.1849059e-20)
(-0.0078254291 0.048983688 -3.7409859e-20)
(-0.0099254002 0.056093805 1.7929157e-20)
(-0.012474894 0.063488445 2.6312574e-20)
(-0.015554991 0.071095864 -5.2292035e-20)
(-0.019256609 0.0788217 -6.48563e-21)
(-0.023680027 0.086547444 2.5123668e-20)
(-0.028933712 0.094130471 1.7322704e-20)
(-0.035132305 0.10140646 -2.0158085e-20)
(-0.042393689 0.10819511 7.3230985e-20)
(-0.050835196 0.11431 -4.3463043e-20)
(-0.060569237 0.11957304 2.1565239e-20)
(-0.071698859 0.12383314 -7.3032662e-20)
(-0.084313874 0.12698711 -1.906521e-20)
(-0.098489688 0.12899897 3.9917757e-20)
(-0.11429361 0.12991186 -6.0218514e-20)
(-0.13177939 0.12984683 -2.3714603e-20)
(-0.15096465 0.12897788 2.8652655e-20)
(-0.17192687 0.12746582 1.6259824e-19)
(-0.19474061 0.12545148 7.3503717e-20)
(-0.21942071 0.1230604 -3.692877e-20)
(-0.24603231 0.12037509 3.9266888e-20)
(-0.27461875 0.11744099 -2.4870163e-20)
(-0.30520852 0.11427697 -1.4007745e-19)
(-0.33780861 0.11088311 4.7018178e-20)
(-0.37239446 0.10724429 1.405675e-19)
(-0.40889846 0.10332939 -4.7376284e-20)
(-0.44719443 0.099087383 -6.6245106e-20)
(-0.48707663 0.094442344 1.1507303e-19)
(-0.52823115 0.089289035 3.5053504e-20)
(-0.57019874 0.083490131 -6.2954132e-20)
(-0.61232901 0.076876308 -2.5391419e-20)
(-0.65372851 0.06925221 1.2167609e-19)
(-0.69320327 0.06041273 -3.4758009e-20)
(-0.72921053 0.050173633 -5.0184549e-20)
(-0.75985075 0.03841331 -1.3340264e-19)
(-0.78289345 0.025111628 2.5362827e-19)
(-0.79588005 0.010384325 -1.6365889e-19)
(-0.79627329 -0.0055231992 -4.1007352e-20)
(-0.78172032 -0.022137953 -1.6305284e-19)
(-0.75024453 -0.038834862 -1.9588288e-19)
(-0.70054003 -0.054925962 -9.9968246e-21)
(-0.63212384 -0.069827096 4.2278764e-20)
(-0.54529763 -0.083205546 -3.1281193e-19)
(-0.44084558 -0.0947298 -1.3443453e-19)
(-0.31992462 -0.10414969 -1.3932555e-19)
(-0.18445544 -0.11122271 -4.5982348e-20)
(-0.037221192 -0.11530374 -3.5963689e-19)
(0.11772516 -0.11540569 1.4325793e-19)
(0.27390894 -0.11033237 -4.3847457e-20)
(0.42295863 -0.099652983 -3.6042718e-19)
(0.55617607 -0.084532162 -1.4309747e-19)
(0.66817332 -0.067220226 1.7005418e-19)
(0.75661011 -0.050417072 5.8357435e-19)
(0.82380009 -0.035944306 -1.8606049e-19)
(0.87213452 -0.024354905 -2.9918974e-19)
(0.90688423 -0.015624783 -1.279644e-19)
(-0.00025267819 0.002568826 -2.5250176e-20)
(-0.0008111458 0.0078955667 2.9275261e-20)
(-0.001466632 0.013704892 -1.0588298e-20)
(-0.0022403831 0.020025054 1.1516372e-21)
(-0.0031526805 0.026881529 -2.2772677e-20)
(-0.0042294507 0.034294751 2.3577988e-20)
(-0.0055014347 0.042278102 -3.5788278e-20)
(-0.0070045539 0.050835349 1.6857606e-20)
(-0.0087807122 0.059957564 6.4152915e-20)
(-0.010878513 0.069619588 -1.5451035e-20)
(-0.013353917 0.079776085 -5.8934436e-20)
(-0.016270786 0.09035735 1.8032607e-20)
(-0.019701245 0.10126514 1.2111126e-21)
(-0.023725742 0.11236898 -4.7434839e-20)
(-0.028432709 0.12350366 1.4892525e-19)
(-0.033917669 0.13446873 -9.1796355e-20)
(-0.040281704 0.14503139 -8.7826173e-22)
(-0.047629211 0.15493386 5.1256591e-20)
(-0.056064995 0.16390678 -1.3087578e-19)
(-0.065690901 0.17168925 6.2145734e-20)
(-0.07660241 0.17805537 9.3261859e-20)
(-0.088885633 0.18284465 3.7972319e-20)
(-0.10261596 0.18599112 -1.8924271e-19)
(-0.11786291 0.18754272 -9.9472726e-20)
(-0.1346921 0.18766186 6.4824423e-20)
(-0.15312602 0.18659615 -3.7920649e-20)
(-0.17323991 0.18459051 1.4313556e-19)
(-0.19512047 0.18184315 -4.128027e-20)
(-0.21878241 0.17854065 1.119122e-19)
(-0.24428359 0.17481056 -6.3637538e-20)
(-0.27166464 0.17072254 3.9418655e-20)
(-0.30094664 0.16630614 -1.4570452e-19)
(-0.3321274 0.16156189 2.1110705e-20)
(-0.36517042 0.15646738 -1.1143604e-19)
(-0.39999268 0.15097638 1.0743664e-19)
(-0.43644839 0.14501333 3.4263199e-20)
(-0.47430637 0.13846607 -4.3389358e-19)
(-0.51322042 0.131179 -1.1356571e-19)
(-0.55269021 0.12294868 9.4862425e-20)
(-0.59201359 0.11352391 -9.3611669e-20)
(-0.63023299 0.10261455 2.3948146e-20)
(-0.66607797 0.089915808 1.5184944e-19)
(-0.69792192 0.075153244 -7.1680749e-21)
(-0.72377562 0.058146812 -5.0760576e-20)
(-0.74136564 0.038877568 2.4915017e-20)
(-0.74824101 0.017536535 -1.1831821e-20)
(-0.74198066 -0.0054824808 -3.5453067e-20)
(-0.72041204 -0.02947295 5.5346461e-19)
(-0.68185787 -0.053505877 -6.1699633e-20)
(-0.62537192 -0.076581458 5.7485159e-20)
(-0.55082605 -0.097870472 -5.4293461e-19)
(-0.45880541 -0.11688227 2.9970648e-19)
(-0.35033862 -0.1332425 2.4756814e-19)
(-0.22686319 -0.14666385 2.3813779e-19)
(-0.090513533 -0.15676603 2.3094937e-19)
(0.055744236 -0.16265997 3.647235e-19)
(0.20769184 -0.16287732 -7.3131021e-19)
(0.35860504 -0.15562421 4.5140208e-19)
(0.49983817 -0.14025894 6.8574305e-19)
(0.6229587 -0.11861888 -5.0193861e-19)
(0.72359608 -0.094066443 -1.6002595e-19)
(0.80040346 -0.070409909 -1.3939543e-19)
(0.85644857 -0.050191169 7.0651248e-19)
(0.89498914 -0.034135443 5.1801858e-19)
(0.92121946 -0.022268195 -2.2695787e-20)
(-0.00041390266 0.0032461667 1.7705654e-20)
(-0.0013021201 0.00998131 -4.2767567e-20)
(-0.0023124136 0.017331308 3.4879115e-20)
(-0.0034650621 0.025333669 -1.318704e-20)
(-0.0047803946 0.034022552 -4.766446e-21)
(-0.0062831782 0.043426272 4.1046804e-20)
(-0.008002105 0.053564755 -1.0408187e-20)
(-0.0099699996 0.064446366 -2.2121975e-20)
(-0.012224392 0.076064047 -1.7006244e-21)
(-0.014808007 0.088390855 -1.4466264e-20)
(-0.01776922 0.10137492 2.0298563e-20)
(-0.021162415 0.114934 -1.4147052e-20)
(-0.02504823 0.12894992 -5.2283084e-20)
(-0.029493603 0.14326348 -1.5225968e-21)
(-0.03457155 0.1576706 4.0299227e-20)
(-0.040360595 0.17192085 2.8687746e-20)
(-0.046943802 0.18571992 -2.4824511e-20)
(-0.054407376 0.1987378 2.4086012e-21)
(-0.062838861 0.21062448 4.909323e-20)
(-0.072325094 0.22103451 6.0251666e-20)
(-0.082950192 0.22966047 -6.9325878e-20)
(-0.094793808 0.23627276 -7.0336005e-20)
(-0.10793006 0.24075935 9.5421338e-20)
(-0.12243057 0.24315486 -1.1893772e-19)
(-0.13837179 0.24364619 -2.0735189e-19)
(-0.1557914 0.24254504 4.9183687e-19)
(-0.17475674 0.24019095 -2.720533e-19)
(-0.19536467 0.23683501 4.0421275e-19)
(-0.21764285 0.23272639 -5.0669007e-19)
(-0.24163262 0.2280468 5.6681648e-19)
(-0.2673733 0.22289498 -5.8726152e-19)
(-0.29487618 0.21731387 9.926724e-20)
(-0.32412719 0.21130524 3.426821e-19)
(-0.35507467 0.20483904 -1.9379001e-19)
(-0.38761627 0.19785291 6.0826844e-20)
(-0.42158151 0.19024555 1.7988253e-20)
(-0.45670805 0.18186706 2.2008982e-19)
(-0.49261048 0.17250959 7.1714537e-20)
(-0.52873972 0.16190119 7.2112147e-20)
(-0.56433363 0.14970592 7.2178563e-20)
(-0.59836258 0.13553629 -3.687229e-19)
(-0.62947556 0.11898635 1.6209462e-19)
(-0.65596683 0.099695776 2.5334435e-20)
(-0.67579222 0.077443876 -2.9711847e-19)
(-0.68670606 0.052244533 -1.5011061e-19)
(-0.68637853 0.02439022 7.4253637e-20)
(-0.67262326 -0.0055417298 2.6721317e-19)
(-0.64357681 -0.0366143 -1.1705383e-19)
(-0.59785817 -0.067617021 3.3868932e-19)
(-0.5347834 -0.097240771 1.84545e-19)
(-0.45448671 -0.12441818 2.5652069e-19)
(-0.35780341 -0.14855089 6.8925434e-19)
(-0.24600748 -0.16925549 -5.3710469e-19)
(-0.12088487 -0.18617235 1.7477001e-19)
(0.015043201 -0.19879959 -3.0548324e-19)
(0.15847196 -0.20607934 -2.9137432e-19)
(0.30498539 -0.20605861 -1.1402411e-19)
(0.44756465 -0.19631256 -1.0489265e-18)
(0.57731417 -0.17608882 -2.8268008e-19)
(0.6866406 -0.14804092 6.453226e-19)
(0.77255375 -0.11669065 2.4303737e-19)
(0.83517646 -0.08684067 -1.8158784e-19)
(0.87887127 -0.061669712 -3.7472753e-19)
(0.90764685 -0.041938056 -5.8202693e-19)
(0.9269262 -0.027706296 4.4290366e-20)
(-0.00060110085 0.0038177025 5.3676932e-20)
(-0.0018725223 0.011744619 1.375586e-20)
(-0.00329537 0.020402356 -1.1145638e-20)
(-0.0048889605 0.029837737 -4.1168845e-20)
(-0.0066737744 0.040093968 2.2569154e-20)
(-0.0086733779 0.05120819 -3.2510925e-20)
(-0.010914249 0.063208493 1.40811e-20)
(-0.013425804 0.07611028 3.3577431e-21)
(-0.016240699 0.089911801 -1.903603e-20)
(-0.019395045 0.10458892 -4.1104916e-20)
(-0.022928605 0.12008911 -2.0644757e-21)
(-0.026884916 0.13632485 6.7944671e-20)
(-0.031311358 0.15316668 -9.4332879e-20)
(-0.03625911 0.17043655 1.5301104e-19)
(-0.041783004 0.18790229 -4.0201378e-20)
(-0.047941246 0.20527451 8.5935385e-20)
(-0.054795005 0.22220784 -1.0467748e-19)
(-0.062407913 0.2383085 6.855032e-20)
(-0.07084551 0.25315086 -1.0939359e-20)
(-0.080174738 0.2663048 -4.4815279e-20)
(-0.090463655 0.27737474 1.1010454e-19)
(-0.10178139 0.28604805 -1.5719577e-19)
(-0.11419823 0.29214616 1.7290574e-19)
(-0.12778706 0.29566601 2.9950413e-20)
(-0.14262923 0.29679551 -2.9797473e-19)
(-0.15879378 0.29589033 3.0407201e-19)
(-0.17633112 0.29338074 -1.9949011e-19)
(-0.19534199 0.28959743 2.253834e-19)
(-0.21589051 0.28483739 2.1322539e-20)
(-0.23798814 0.27934471 1.3315442e-20)
(-0.26167479 0.27325768 -9.1152022e-20)
(-0.28695049 0.26663722 5.9338987e-21)
(-0.3137874 0.25948824 -3.4641754e-19)
(-0.3421162 0.25177294 9.4433423e-20)
(-0.37181238 0.2434122 2.8294168e-19)
(-0.40267758 0.23427798 -1.3277876e-19)
(-0.43441483 0.22418146 1.0981925e-19)
(-0.46659586 0.21286111 -1.1048341e-19)
(-0.49861922 0.19997454 -6.1828363e-19)
(-0.52966058 0.18509924 3.4311877e-19)
(-0.55862014 0.16774954 8.4101723e-20)
(-0.58407653 0.14742194 -4.7748741e-19)
(-0.60427183 0.12368268 2.8104852e-20)
(-0.61717712 0.096297995 5.8642731e-20)
(-0.62067438 0.065349721 6.3066017e-19)
(-0.61269172 0.031252588 1.4566552e-19)
(-0.59138638 -0.0052395673 -2.2815541e-19)
(-0.55519534 -0.043000668 -2.3261357e-19)
(-0.50285867 -0.080579174 -3.3013316e-19)
(-0.43372644 -0.11635154 -4.0771704e-19)
(-0.34809623 -0.14897459 -2.4961184e-19)
(-0.24708427 -0.17771655 -3.9077054e-19)
(-0.1323163 -0.20216743 1.3473628e-19)
(-0.0061056238 -0.22191583 -8.3600892e-19)
(0.12841846 -0.23640272 -5.6597736e-20)
(0.26743056 -0.24449411 -4.8749888e-20)
(0.40627798 -0.24380785 -2.6991018e-20)
(0.53764714 -0.23127755 1.1318322e-18)
(0.6527037 -0.20616221 4.4432956e-19)
(0.74531325 -0.17208946 -6.8451474e-19)
(0.81429699 -0.13470332 -9.8084487e-19)
(0.86179587 -0.099703795 -4.3828218e-19)
(0.89362196 -0.070684897 -1.4204304e-19)
(0.91420571 -0.048273662 8.2873453e-19)
(0.92887249 -0.032449313 -2.0814904e-19)
(-0.00080152431 0.0042589438 -1.0081221e-20)
(-0.0024845267 0.013110123 -2.3216121e-20)
(-0.0043501416 0.022787451 5.6062399e-20)
(-0.0064178613 0.033346714 -2.0870565e-21)
(-0.0087081118 0.044840434 -2.733553e-20)
(-0.01124342 0.057315416 -1.2059254e-20)
(-0.014048153 0.070809532 -8.9147942e-21)
(-0.01714836 0.085347807 1.7594621e-20)
(-0.02057178 0.10093755 -9.1251546e-20)
(-0.024347763 0.11756259 6.9023206e-20)
(-0.028507155 0.13517648 -3.3452207e-21)
(-0.033082131 0.15369491 -4.2032873e-20)
(-0.038106009 0.17298746 1.5791876e-19)
(-0.043613037 0.19286929 -1.5818865e-19)
(-0.049638214 0.21309365 2.1210206e-20)
(-0.056217184 0.23334658 1.3209971e-19)
(-0.063386288 0.2532458 -1.2524871e-19)
(-0.071182887 0.27234633 4.4208777e-20)
(-0.079646051 0.29015586 -8.6741844e-20)
(-0.088817698 0.30616279 1.1258854e-19)
(-0.098744304 0.31987866 2.1391628e-19)
(-0.10947894 0.33089361 -2.1437308e-19)
(-0.1210832 0.3389389 -3.1767171e-19)
(-0.13362855 0.34394314 6.196198e-19)
(-0.14719868 0.34606263 -5.0171373e-19)
(-0.16188798 0.34566591 2.9353434e-19)
(-0.17775083 0.34325512 -7.6241563e-20)
(-0.19488063 0.33928861 1.8094181e-19)
(-0.21337126 0.33408922 -1.8628452e-19)
(-0.23323029 0.32796451 -2.5164189e-19)
(-0.25448148 0.3211108 1.6807425e-19)
(-0.27711721 0.31361444 2.7877493e-19)
(-0.30109385 0.30548744 -2.4734353e-20)
(-0.32632291 0.29668526 -1.0344959e-20)
(-0.35265559 0.28711181 -1.8139072e-19)
(-0.37986363 0.27661175 7.88524e-20)
(-0.40761337 0.26495671 2.8988848e-19)
(-0.43543201 0.25183073 1.4617112e-19)
(-0.46266546 0.23682042 -2.2474567e-19)
(-0.48842996 0.2194169 1.7824729e-19)
(-0.51156448 0.19903921 -1.5160012e-19)
(-0.5305998 0.17509567 5.0903795e-20)
(-0.54377334 0.14710237 1.936983e-19)
(-0.54916457 0.11485033 -4.6383582e-19)
(-0.54489479 0.078524837 -2.7577023e-19)
(-0.52927378 0.03866056 -1.7890855e-19)
(-0.50083163 -0.0038763531 5.6226794e-19)
(-0.45814254 -0.04788595 3.639536e-19)
(-0.39976726 -0.091729731 4.2680887e-19)
(-0.32497429 -0.1333916 7.4537565e-19)
(-0.23432323 -0.17113933 -2.5876188e-19)
(-0.12930737 -0.20406113 5.421377e-20)
(-0.012005011 -0.23170017 4.3626687e-19)
(0.11459664 -0.25357749 1.2892493e-18)
(0.24659494 -0.26913691 8.5610931e-19)
(0.37958309 -0.27733187 3.3960801e-19)
(0.5086254 -0.2754536 9.9722566e-19)
(0.62610501 -0.25983991 -6.8037974e-19)
(0.72392105 -0.229937 7.167058e-20)
(0.79774319 -0.19048838 1.1060822e-18)
(0.84893691 -0.14813716 7.4842976e-19)
(0.88189188 -0.10927902 3.4127112e-20)
(0.90360137 -0.077633913 -1.1919551e-18)
(0.9182594 -0.053524103 1.2677203e-19)
(0.93049812 -0.036701896 -1.7933462e-19)
(-0.0010004902 0.004550275 -3.9566956e-20)
(-0.0030926909 0.014017299 1.9296414e-20)
(-0.005398959 0.024381048 -2.6079388e-20)
(-0.0079392498 0.035705728 -1.4831558e-20)
(-0.010734136 0.048053087 4.1422785e-20)
(-0.013805392 0.061480147 3.8706439e-20)
(-0.01717561 0.076035921 -3.9768701e-20)
(-0.020867867 0.091757456 4.7915414e-21)
(-0.024905431 0.10866481 1.111979e-21)
(-0.029311372 0.12675498 7.9223236e-20)
(-0.034108108 0.14599469 -8.7178505e-21)
(-0.039316907 0.16631195 -1.6079542e-19)
(-0.044957359 0.18758676 1.2911868e-19)
(-0.051046898 0.20964121 -4.4757081e-21)
(-0.057600438 0.23222979 -8.7538966e-20)
(-0.064630261 0.25503143 -7.5920209e-21)
(-0.072146322 0.27764508 1.9472972e-20)
(-0.080157162 0.29959182 8.8615821e-20)
(-0.088671658 0.32032692 -1.6409732e-19)
(-0.097701761 0.33926579 2.9193584e-19)
(-0.10726624 0.35582672 -6.37898e-20)
(-0.11739518 0.36949097 4.7431541e-20)
(-0.12813443 0.37987524 -3.9570322e-20)
(-0.13954865 0.3868039 1.6364422e-21)
(-0.15172176 0.39035947 -2.4001546e-19)
(-0.16475541 0.39088506 -2.4183051e-19)
(-0.17874568 0.38892029 4.8307299e-19)
(-0.19375897 0.38504992 8.1010404e-20)
(-0.20989509 0.37969605 -2.8417462e-19)
(-0.2272101 0.3731796 -1.0154682e-19)
(-0.24568781 0.36576934 -2.3078953e-19)
(-0.26531841 0.35759811 2.6185883e-19)
(-0.28603859 0.34869307 1.1509239e-19)
(-0.30773936 0.33900486 -2.6866842e-19)
(-0.33024642 0.32842066 1.1353388e-19)
(-0.35330015 0.31675822 5.3948909e-20)
(-0.37652879 0.30375012 -1.5995832e-19)
(-0.39941417 0.28902672 -4.2057109e-19)
(-0.42125063 0.27210537 -1.2837408e-19)
(-0.44109944 0.25239417 8.5922548e-20)
(-0.45775127 0.22922468 2.0471261e-19)
(-0.4697175 0.20193543 2.1211231e-19)
(-0.47528768 0.17002657 2.3486634e-19)
(-0.47273706 0.13335899 4.9239775e-19)
(-0.46051006 0.092243125 -1.4098199e-20)
(-0.43733323 0.047301914 2.0677605e-19)
(-0.40199884 -0.00061806589 -1.1240493e-18)
(-0.35293778 -0.050394954 -3.1131562e-19)
(-0.28842897 -0.10019964 -3.5505904e-19)
(-0.20799186 -0.14748223 -9.8654837e-19)
(-0.11268675 -0.19003169 1.1581246e-18)
(-0.0044170705 -0.22675856 -2.5998426e-19)
(0.11427533 -0.25710017 -8.4208803e-19)
(0.23971686 -0.28047051 -1.0429841e-18)
(0.36729563 -0.29638328 -1.3328865e-19)
(0.49225706 -0.30398699 3.3991077e-19)
(0.60933598 -0.30036355 5.5086602e-19)
(0.71063912 -0.28148604 -2.3467019e-19)
(0.78924774 -0.24717846 4.2140686e-19)
(0.84325236 -0.20325063 -3.4690817e-19)
(0.87713646 -0.1572959 -1.1688688e-19)
(0.89731718 -0.11603566 -3.4260628e-19)
(0.91128935 -0.082984712 1.4885017e-18)
(0.92218192 -0.058030386 4.9614488e-20)
(0.93337163 -0.040625145 5.8693106e-19)
(-0.0011817468 0.0046788049 3.6940455e-20)
(-0.0036473619 0.014425937 7.1372748e-21)
(-0.006356356 0.025112314 -7.8464325e-21)
(-0.00932932 0.036809614 -3.8586494e-20)
(-0.012587244 0.049588249 4.6308451e-20)
(-0.01615154 0.063515497 -3.9356702e-20)
(-0.020043566 0.078652332 -1.8827926e-20)
(-0.024284131 0.095049656 1.0111478e-21)
(-0.02889292 0.11274339 1.5941362e-20)
(-0.033887804 0.13174846 9.0828079e-20)
(-0.039284052 0.15205137 -1.5285902e-19)
(-0.045093453 0.17360149 1.8418091e-19)
(-0.051323409 0.1963008 -5.4274292e-20)
(-0.057976065 0.21999272 -7.3959645e-20)
(-0.065047606 0.24445036 1.1399633e-19)
(-0.072527907 0.26936548 -2.2602979e-19)
(-0.080400761 0.29434014 2.7583744e-19)
(-0.088645066 0.31888386 4.3689279e-21)
(-0.097237203 0.34242021 1.6084513e-19)
(-0.10615507 0.3643075 -6.4514306e-19)
(-0.11538371 0.38387817 1.580207e-19)
(-0.12492239 0.40049927 6.6162753e-19)
(-0.13479213 0.413652 -3.1673577e-19)
(-0.14504177 0.42301931 -3.8250066e-19)
(-0.15574992 0.42856019 9.7364576e-20)
(-0.16702073 0.43054005 5.1479572e-19)
(-0.17897098 0.42948815 -7.8778953e-19)
(-0.19169594 0.42606711 8.8092054e-19)
(-0.20526577 0.42086703 -6.9858788e-19)
(-0.21975682 0.41427747 1.3459576e-19)
(-0.23518129 0.40658192 -2.3211689e-19)
(-0.25149065 0.39797536 -3.3221447e-19)
(-0.268617 0.38852085 1.3165427e-19)
(-0.28642406 0.37817727 3.4208708e-20)
(-0.30470932 0.36681786 4.9257556e-19)
(-0.32317914 0.35423394 -9.6179263e-20)
(-0.34142181 0.34011974 2.4815897e-19)
(-0.35887278 0.32405418 -2.115097e-19)
(-0.37477471 0.30548958 1.2552841e-19)
(-0.38813799 0.28375832 8.2400612e-20)
(-0.39771754 0.2581189 7.1000215e-20)
(-0.40203222 0.2278667 7.0323822e-20)
(-0.39947303 0.19252834 -4.3021498e-19)
(-0.38855292 0.15207681 -3.3944217e-19)
(-0.36805052 0.10695125 9.496712e-20)
(-0.33701579 0.057795878 -6.0926997e-20)
(-0.29429232 0.0052696407 2.5194355e-19)
(-0.23803079 -0.049670827 -5.0118561e-19)
(-0.16671896 -0.10491334 -5.8366947e-19)
(-0.080678912 -0.15731422 -1.7011919e-19)
(0.018410073 -0.20424829 -4.4809869e-19)
(0.12837036 -0.2444047 1.4487536e-20)
(0.24632723 -0.27707847 2.19367e-19)
(0.36803244 -0.30154562 1.0746493e-18)
(0.48849632 -0.31743205 -5.4061061e-19)
(0.60309594 -0.32408063 2.2011656e-19)
(0.70609901 -0.31839272 -6.4235843e-19)
(0.78927363 -0.29625346 1.0796937e-18)
(0.84742148 -0.25796039 -6.1656984e-19)
(0.88173408 -0.21074935 2.1154741e-19)
(0.89994673 -0.16272695 -1.2062072e-21)
(0.90986619 -0.12050655 1.633847e-19)
(0.91849331 -0.087102414 6.0599955e-19)
(0.92717198 -0.06193209 -1.1364366e-18)
(0.93780725 -0.044193846 1.1532641e-18)
(-0.0013289397 0.0046401408 -8.2061982e-20)
(-0.0040985345 0.014321506 -4.063166e-20)
(-0.0071360186 0.024954347 6.3822777e-20)
(-0.010462729 0.036616358 -1.6811268e-21)
(-0.014100313 0.049385461 -5.7796191e-20)
(-0.01807025 0.063338514 -3.0252984e-20)
(-0.022393312 0.078548437 6.3856777e-20)
(-0.027088954 0.095080862 -1.0501259e-20)
(-0.032174498 0.11298963 1.4840303e-19)
(-0.037664183 0.13231112 -2.900182e-20)
(-0.043568061 0.15305717 -7.4467895e-22)
(-0.049890757 0.17520626 1.0743541e-19)
(-0.05663014 0.19869306 -3.4597269e-19)
(-0.063775991 0.22339627 1.6215966e-19)
(-0.071308796 0.24912513 2.9257356e-19)
(-0.079198911 0.27560556 -3.143774e-19)
(-0.087406378 0.30246747 3.9061036e-20)
(-0.095881836 0.32923608 -2.2441576e-19)
(-0.10456906 0.35533103 -1.6877554e-19)
(-0.11340954 0.38007882 5.3820461e-19)
(-0.12234964 0.40274431 -4.1005549e-19)
(-0.13134996 0.42258629 5.4806197e-19)
(-0.14039632 0.43893872 -6.5432372e-20)
(-0.14950982 0.45131016 2.7123249e-19)
(-0.15875267 0.45948252 -5.9819135e-19)
(-0.16822555 0.46357679 1.4353814e-19)
(-0.17805338 0.46404724 3.663991e-19)
(-0.18835761 0.46157818 -8.9431808e-19)
(-0.19922993 0.45689102 3.9201452e-19)
(-0.21071776 0.45054405 4.2480759e-19)
(-0.22284828 0.44288574 -3.5341339e-19)
(-0.23559506 0.43414575 -4.731076e-20)
(-0.24885256 0.42442077 2.4006778e-19)
(-0.262467 0.4136849 -1.3360269e-19)
(-0.27620369 0.40181117 2.0633305e-19)
(-0.28973311 0.38857098 -7.3015095e-19)
(-0.30259928 0.3736255 3.8611471e-19)
(-0.31418734 0.35650685 2.339909e-19)
(-0.32368611 0.3366082 4.8337699e-19)
(-0.33005826 0.31319833 6.4976143e-20)
(-0.33203283 0.28548213 -5.2230868e-19)
(-0.32815596 0.2527418 2.1083415e-19)
(-0.31694825 0.21456636 3.1173655e-19)
(-0.29714209 0.17106712 4.8161748e-20)
(-0.26778496 0.1227942 -3.0465807e-19)
(-0.22809097 0.070340359 -2.6764474e-19)
(-0.17681361 0.014076545 8.1418316e-19)
(-0.11218641 -0.045146726 4.3141839e-19)
(-0.033704353 -0.1048986 9.3853865e-19)
(0.057232552 -0.16155415 3.3054182e-19)
(0.15851142 -0.21220187 1.2893258e-19)
(0.2678702 -0.25540321 9.6325288e-19)
(0.38224107 -0.29020073 3.8174939e-19)
(0.49710776 -0.31562685 -1.2887908e-18)
(0.60768826 -0.33143967 1.0372571e-18)
(0.70967301 -0.33705173 -9.5317995e-19)
(0.79663501 -0.32909664 4.5639864e-19)
(0.86019969 -0.30373165 -2.1894297e-18)
(0.89759258 -0.26252056 -1.083174e-18)
(0.91355738 -0.21356392 4.3126557e-19)
(0.91861099 -0.16507394 6.6407447e-19)
(0.92103112 -0.12319136 1.0947573e-18)
(0.92625502 -0.090249687 1.9026422e-19)
(0.93349872 -0.065286145 1.474713e-19)
(0.943434 -0.047378971 -1.5412814e-18)
(-0.0014272714 0.0044397883 -1.4807744e-21)
(-0.0044008064 0.013719576 7.5694847e-20)
(-0.0076593389 0.023931976 -8.9282449e-20)
(-0.011224949 0.035158703 -4.2994047e-20)
(-0.015120069 0.047483352 8.6181235e-20)
(-0.019366615 0.060990824 2.7942101e-20)
(-0.023985408 0.0757649 -1.3568169e-19)
(-0.028995524 0.091885506 1.4623303e-19)
(-0.03441329 0.10942489 3.0906446e-20)
(-0.040251147 0.12844267 1.2322853e-19)
(-0.046516289 0.14897939 -3.2813975e-19)
(-0.053209111 0.17104831 -4.0141346e-21)
(-0.060321472 0.19462517 2.9692292e-19)
(-0.067834872 0.21963581 -3.2031678e-19)
(-0.075718645 0.24594161 2.3067562e-19)
(-0.083928414 0.27332332 8.6137732e-20)
(-0.092405163 0.30146444 -1.8145248e-19)
(-0.10107537 0.32993639 1.6531356e-19)
(-0.10985293 0.35818913 2.2244676e-19)
(-0.11864359 0.38555271 -4.7854608e-21)
(-0.12735249 0.41125666 -3.5948911e-19)
(-0.13589532 0.43447452 2.2522344e-19)
(-0.1442122 0.45439851 -1.2718395e-19)
(-0.15228236 0.47034315 -6.2321852e-19)
(-0.16013567 0.48186409 -2.1086407e-19)
(-0.16785537 0.4888623 5.7966587e-19)
(-0.17556652 0.49162937 -5.8518949e-20)
(-0.18340777 0.49079239 6.6769724e-19)
(-0.19149401 0.48714176 -3.9903822e-19)
(-0.19989106 0.48140638 2.1257871e-19)
(-0.20861872 0.47410814 -3.10984e-19)
(-0.21763482 0.46553962 -7.6478034e-20)
(-0.22682777 0.45583594 3.8856633e-19)
(-0.23602644 0.44499578 -4.0476356e-19)
(-0.24496613 0.4328938 -5.9930739e-19)
(-0.25327812 0.41928585 6.0486823e-20)
(-0.26045825 0.403803 6.6174931e-19)
(-0.26583711 0.38593755 -8.5596297e-19)
(-0.26854711 0.36503839 1.8669899e-19)
(-0.26750342 0.34032525 -4.0286506e-19)
(-0.26142004 0.31097 6.2870929e-20)
(-0.24888909 0.2762663 -6.3819239e-19)
(-0.22856989 0.23588824 -3.0741291e-19)
(-0.19937106 0.19008673 -3.8386811e-19)
(-0.16050415 0.1395043 1.5525358e-18)
(-0.11125524 0.0846332 5.0856101e-19)
(-0.050386584 0.025623197 -6.7839925e-19)
(0.023034996 -0.036714735 5.5354009e-19)
(0.10806796 -0.099665948 4.6527428e-19)
(0.20245265 -0.15942235 -5.2744251e-19)
(0.30387677 -0.21307293 -2.7764818e-19)
(0.41011329 -0.25900339 -6.5585694e-19)
(0.51808416 -0.29580836 -3.1981177e-19)
(0.62341759 -0.3223005 1.0936456e-18)
(0.72202213 -0.33828352 6.1465181e-19)
(0.80969084 -0.34300376 9.8917855e-20)
(0.87913337 -0.3329738 -3.8265222e-21)
(0.92217557 -0.30517899 5.422205e-19)
(0.93930712 -0.26197727 -7.7139653e-19)
(0.93936952 -0.21251575 -9.8324187e-19)
(0.93443031 -0.16500598 -2.7138995e-19)
(0.93189086 -0.12448636 -2.0272026e-18)
(0.9349588 -0.092552777 -1.5847613e-18)
(0.9409081 -0.06805356 -3.9976788e-19)
(0.94973544 -0.050100392 -2.1098058e-19)
(-0.0014653964 0.0040941101 5.0159273e-20)
(-0.0045191659 0.012668905 3.1846999e-20)
(-0.0078653921 0.022127325 -6.6262369e-20)
(-0.011526724 0.032552609 1.1363097e-19)
(-0.015526321 0.04403149 2.8463605e-20)
(-0.019886728 0.056654448 -1.2206609e-19)
(-0.024629303 0.070513821 6.2466375e-22)
(-0.029773578 0.08570185 -7.3212517e-20)
(-0.035336166 0.10230774 2.1881734e-20)
(-0.04132952 0.12041373 -4.9079463e-22)
(-0.047760414 0.14008968 1.1965763e-19)
(-0.054628162 0.16138599 2.7518917e-20)