/*--------------------------------*- C++ -*----------------------------------*\
  =========                 |
  \\      /  F ield         | OpenFOAM: The Open Source CFD Toolbox
   \\    /   O peration     | Website:  https://openfoam.org
    \\  /    A nd           | Version:  13
     \\/     M anipulation  |
\*---------------------------------------------------------------------------*/
FoamFile
{
    format      ascii;
    class       volScalarField;
    location    "9.102142";
    object      yPlus;
}
// * * * * * * * * * * * * * * * * * * * * * * * * * * * * * * * * * * * * * //

dimensions      [];

internalField   uniform 0;

boundaryField
{
    inlet
    {
        type            calculated;
        value           uniform 0;
    }
    outlet
    {
        type            calculated;
        value           uniform 0;
    }
    cylinder
    {
        type            calculated;
        value           nonuniform List<scalar> 
132
(
4.9395136e-07
4.9112299e-07
4.8463992e-07
4.7434527e-07
4.6026411e-07
4.4242614e-07
4.2104127e-07
3.9639824e-07
3.6885221e-07
3.3887521e-07
3.0702569e-07
2.7395282e-07
2.4039847e-07
2.0717494e-07
1.7511994e-07
1.4505477e-07
1.1768977e-07
9.3563176e-08
7.2972142e-08
5.5946972e-08
4.2272199e-08
3.1573422e-08
2.3465545e-08
1.7739675e-08
1.4555603e-08
1.3791242e-08
1.4606133e-08
1.5372968e-08
1.4725245e-08
1.2420021e-08
9.4345179e-09
6.6899546e-09
4.7758224e-09
4.0785874e-09
4.4323903e-09
5.3965395e-09
6.7640779e-09
8.5230331e-09
1.0736945e-08
1.3468321e-08
1.6868338e-08
2.107667e-08
2.5762618e-08
3.0844956e-08
3.6170606e-08
4.159943e-08
4.7000983e-08
5.2270687e-08
5.7341747e-08
6.2163696e-08
6.6708002e-08
7.0962423e-08
7.4910432e-08
7.8532213e-08
8.1886842e-08
8.4945643e-08
8.7694389e-08
9.0166946e-08
9.2360179e-08
9.4281981e-08
9.5929909e-08
9.7293474e-08
9.8388359e-08
9.9212808e-08
9.9781105e-08
1.0007648e-07
4.930986e-07
4.8856539e-07
4.803708e-07
4.6841794e-07
4.5278812e-07
4.3351223e-07
4.1084677e-07
3.8509006e-07
3.566391e-07
3.2599383e-07
2.9374648e-07
2.6057643e-07
2.272428e-07
1.9455847e-07
1.6335002e-07
1.3438429e-07
1.0831126e-07
8.5581273e-08
6.6388188e-08
5.0676044e-08
3.815744e-08
2.8450343e-08
2.1206704e-08
1.6338477e-08
1.4004913e-08
1.3867058e-08
1.4823551e-08
1.5174499e-08
1.3993538e-08
1.1422335e-08
8.4748975e-09
5.9668963e-09
4.4102498e-09
4.0955383e-09
4.6630741e-09
5.7535661e-09
7.2200275e-09
9.0934716e-09
1.1430646e-08
1.4295102e-08
1.7837374e-08
2.2185583e-08
2.6981148e-08
3.213974e-08
3.7508804e-08
4.294402e-08
4.8321229e-08
5.355033e-08
5.8563273e-08
6.3320037e-08
6.7790619e-08
7.1968988e-08
7.5835697e-08
7.9377189e-08
8.2675381e-08
8.565001e-08
8.8332679e-08
9.0732378e-08
9.2860266e-08
9.4716241e-08
9.6290732e-08
9.7590914e-08
9.861385e-08
9.9373635e-08
9.9866839e-08
1.0009884e-07
)
;
    }
    frontAndBack
    {
        type            empty;
    }
}


// ************************************************************************* //
