/*--------------------------------*- C++ -*----------------------------------*\
  =========                 |
  \\      /  F ield         | OpenFOAM: The Open Source CFD Toolbox
   \\    /   O peration     | Website:  https://openfoam.org
    \\  /    A nd           | Version:  13
     \\/     M anipulation  |
\*---------------------------------------------------------------------------*/
FoamFile
{
    format      ascii;
    class       surfaceScalarField;
    location    "500";
    object      phi;
}
// * * * * * * * * * * * * * * * * * * * * * * * * * * * * * * * * * * * * * //

dimensions      [0 3 -1 0 0 0 0];

internalField   nonuniform List<scalar> 
18914
(
1.0579705e-10
3.2142164e-11
-1.3792964e-10
4.879394e-10
1.1578874e-10
-4.9793362e-10
1.2720463e-09
2.3738734e-10
-1.0215195e-09
2.6341531e-09
4.1260689e-10
-1.7747555e-09
4.8202055e-09
6.6345359e-10
-2.8495725e-09
8.1730433e-09
1.0205771e-09
-4.3735214e-09
1.3169593e-08
1.526425e-09
-6.5231433e-09
2.0471934e-08
2.2395084e-09
-9.5421123e-09
3.09973e-08
3.2400152e-09
-1.3765789e-08
4.6013823e-08
4.6371726e-09
-1.965432e-08
6.7271158e-08
6.5787966e-09
-2.7837075e-08
9.7178249e-08
9.2635392e-09
-3.9172033e-08
1.3904458e-07
1.2956371e-08
-5.4824758e-08
1.9740671e-07
1.8007875e-08
-7.6372944e-08
2.7846883e-07
2.4877806e-08
-1.0594404e-07
3.9069534e-07
3.4163263e-08
-1.4639542e-07
5.4560526e-07
4.6631387e-08
-2.0154885e-07
7.588332e-07
6.3255974e-08
-2.7649378e-07
1.0515413e-06
8.5256327e-08
-3.7797697e-07
1.4522902e-06
1.1413536e-07
-5.148999e-07
1.9995085e-06
1.5171184e-07
-6.9894898e-07
2.7447364e-06
2.0013903e-07
-9.4538869e-07
3.7568676e-06
2.6189844e-07
-1.2740527e-06
5.1276677e-06
3.3975314e-07
-1.7105739e-06
6.9789195e-06
4.3664013e-07
-2.2879021e-06
9.4716244e-06
5.5547599e-07
-3.0481674e-06
1.2817797e-05
6.9884464e-07
-4.0449604e-06
1.7295514e-05
8.6853192e-07
-5.3461212e-06
2.3268031e-05
1.0648691e-06
-7.0371566e-06
3.1208e-05
1.2858467e-06
-9.2254491e-06
4.1728064e-05
1.5259641e-06
-1.2045489e-05
5.5619472e-05
1.7747828e-06
-1.5665443e-05
7.3900813e-05
2.0151592e-06
-2.0295513e-05
9.78796e-05
2.221136e-06
-2.6198674e-05
0.00012923025
2.3554684e-06
-3.3704593e-05
0.00017009301
2.3667653e-06
-4.3227746e-05
0.0002231998
2.1861755e-06
-5.529096e-05
0.00029203407
1.7237072e-06
-7.0555831e-05
0.00038103406
8.6377245e-07
-8.9861608e-05
0.0004958489
-5.386137e-07
-0.00011427423
0.00064366186
-2.6645578e-06
-0.00014514676
0.0008335849
-5.729149e-06
-0.00018419277
0.0010771546
-9.9990934e-06
-0.00023357013
0.0013888875
-1.5753621e-05
-0.00029597946
0.0017869995
-2.3364422e-05
-0.00037474825
0.0022940633
-3.3110131e-05
-0.00047395494
0.0029378903
-4.5456809e-05
-0.00059837203
0.0037523855
-6.0734845e-05
-0.00075376372
0.0047769102
-7.8645892e-05
-0.00094588197
0.0060622394
-0.00010279328
-0.0011825447
0.007649907
-0.00012137823
-0.0014662895
-0.00017560203
0.0096369464
-0.0018114576
1.0868802e-10
-7.6541458e-11
5.0130167e-10
-2.7683482e-10
1.3069342e-09
-5.6827558e-10
2.7064135e-09
-9.86923e-10
4.9524467e-09
-1.5826599e-09
8.3973472e-09
-2.4244508e-09
1.3531236e-08
-3.6076648e-09
2.1034537e-08
-5.2641065e-09
3.1849929e-08
-7.5758593e-09
4.7280747e-08
-1.0794379e-08
6.9125232e-08
-1.5266784e-08
9.9859206e-08
-2.1472042e-08
1.4288398e-07
-3.0070712e-08
2.0286182e-07
-4.197322e-08
2.8616859e-07
-5.843343e-08
4.0150243e-07
-8.1176561e-08
5.6069967e-07
-1.1257365e-07
7.7982445e-07
-1.5587874e-07
1.0806186e-06
-2.1555012e-07
1.4924229e-06
-2.9768368e-07
2.0547126e-06
-4.105945e-07
2.8204278e-06
-5.6559319e-07
3.860329e-06
-7.7801595e-07
5.2686633e-06
-1.068582e-06
7.1704997e-06
-1.4651697e-06
9.7311782e-06
-2.0051241e-06
1.316842e-05
-2.7382307e-06
1.776778e-05
-3.7305224e-06
2.3902278e-05
-5.069119e-06
3.2057268e-05
-6.8683459e-06
4.2861857e-05
-9.2774391e-06
5.712856e-05
-1.2490228e-05
7.5903347e-05
-1.6757302e-05
0.00010052889
-2.2401318e-05
0.00013272463
-2.9836323e-05
0.00017468841
-3.9592156e-05
0.0002292256
-5.2345345e-05
0.00029991334
-6.8957821e-05
0.0003913092
-9.0525802e-05
0.0005092142
-0.00011843799
0.00066100455
-0.00015445072
0.00085603776
-0.00020076038
0.00110616
-0.00026012184
0.0014262827
-0.00033587961
0.0018351098
-0.00043219736
0.002355845
-0.00055385518
0.0030170388
-0.00070666734
0.0038536059
-0.00089732338
0.0049059237
-0.0011310065
0.0062264491
-0.0014233357
0.0078576769
-0.0017527086
-0.002217869
0.0098999444
1.1187106e-10
-1.8840699e-10
5.1597764e-10
-6.809502e-10
1.3452572e-09
-1.3975808e-09
2.7859103e-09
-2.4276165e-09
5.0981774e-09
-3.8949931e-09
8.6449734e-09
-5.971353e-09
1.3931262e-08
-8.8941225e-09
2.1658181e-08
-1.2991289e-08
3.2797242e-08
-1.8715327e-08
4.8691812e-08
-2.6689568e-08
7.119555e-08
-3.7771444e-08
1.0286079e-07
-5.3138635e-08
1.471942e-07
-7.4406046e-08
2.0900269e-07
-1.037844e-07
2.9486012e-07
-1.4429452e-07
4.1373492e-07
-2.000562e-07
5.7783126e-07
-2.7667619e-07
8.0371243e-07
-3.8176762e-07
1.1137955e-06
-5.2564239e-07
1.5383317e-06
-7.222304e-07
2.1180205e-06
-9.9029392e-07
2.9074418e-06
-1.3550234e-06
3.9795461e-06
-1.8501226e-06
5.4314943e-06
-2.5205179e-06
7.3922194e-06
-3.425855e-06
1.0032167e-05
-4.6449847e-06
1.357578e-05
-6.2816834e-06
1.8317431e-05
-8.4719063e-06
2.4641667e-05
-1.1392942e-05
3.3048853e-05
-1.5274933e-05
4.4187579e-05
-2.0415338e-05
5.8895562e-05
-2.7197116e-05
7.8251271e-05
-3.6111619e-05
0.00010363917
-4.7787516e-05
0.00013683231
-6.3027476e-05
0.00018009718
-8.2854793e-05
0.00023632691
-0.00010857271
0.00030921072
-0.00014183927
0.00040344913
-0.00018476205
0.00052502554
-0.00024001265
0.00068154824
-0.00031097225
0.00088267085
-0.00040188246
0.0011406143
-0.0005180654
0.0014707692
-0.00066603532
0.0018924368
-0.0008538666
0.0024295929
-0.0010910141
0.0031117144
-0.0013887926
0.0039749535
-0.0017605693
0.0050610499
-0.0022171073
0.0064244544
-0.0027867543
0.0081093636
-0.0034376245
-0.0043281302
0.010219608
1.1529595e-10
-3.0369617e-10
5.3177323e-10
-1.0974307e-09
1.3864789e-09
-2.2523001e-09
2.8714903e-09
-3.9126502e-09
5.2553358e-09
-6.2788775e-09
8.9125756e-09
-9.6286588e-09
1.4364536e-08
-1.4346192e-08
2.233529e-08
-2.0962217e-08
3.3828392e-08
-3.0208704e-08
5.0231849e-08
-4.3093447e-08
7.3461353e-08
-6.1001583e-08
1.0615515e-07
-8.583336e-08
1.5193857e-07
-1.2019079e-07
2.157819e-07
-1.6762955e-07
3.0448331e-07
-2.3299834e-07
4.273182e-07
-3.2289416e-07
5.9690951e-07
-4.4627126e-07
8.3039014e-07
-6.1525254e-07
1.1509493e-06
-8.4620601e-07
1.5898816e-06
-1.1611667e-06
2.1892913e-06
-1.5897056e-06
3.0056441e-06
-2.1713734e-06
4.1144121e-06
-2.9588779e-06
5.6161168e-06
-4.0221916e-06
7.6441539e-06
-5.4538293e-06
1.0374874e-05
-7.37559e-06
1.4040503e-05
-9.9471205e-06
1.8945638e-05
-1.3376738e-05
2.5488207e-05
-1.7935058e-05
3.4186023e-05
-2.3972104e-05
4.5710348e-05
-3.1938786e-05
6.0928262e-05
-4.2413886e-05
8.095615e-05
-5.613807e-05
0.0001072273
-7.4056926e-05
0.00014157748
-9.737565e-05
0.00018635362
-0.00012762869
0.0002445518
-0.00016676855
0.00031999297
-0.00021727814
0.00041754594
-0.00028231294
0.00054340921
-0.00036587425
0.00070546548
-0.00047302742
0.00091371918
-0.00061013571
0.0011808372
-0.00078518362
0.0015227813
-0.0010079804
0.0019595717
-0.001290659
0.0025161099
-0.0016475553
0.003223011
-0.0020956989
0.00411791
-0.002655474
0.0052443038
-0.0033435107
0.0066589728
-0.0042014314
0.0084086146
-0.0051872872
-0.0065203169
0.0106008
1.1895122e-10
-4.226381e-10
5.4866371e-10
-1.5271385e-09
1.4305966e-09
-3.1342329e-09
2.9631026e-09
-5.4451578e-09
5.4236217e-09
-8.739405e-09
9.1993238e-09
-1.3404381e-08
1.4829321e-08
-1.9976231e-08
2.30627e-08
-2.9195671e-08
3.4938099e-08
-4.2084233e-08
5.1892598e-08
-6.0048155e-08
7.5910283e-08
-8.5019591e-08
1.0972448e-07
-1.1964804e-07
1.5709224e-07
-1.6755921e-07
2.2316579e-07
-2.3370397e-07
3.1499377e-07
-3.2482738e-07
4.4219529e-07
-4.5009681e-07
6.1786346e-07
-6.2194037e-07
8.5977197e-07
-8.5716134e-07
1.1919806e-06
-1.1784135e-06
1.6469625e-06
-1.6161447e-06
2.2684119e-06
-2.2111462e-06
3.1149317e-06
-3.017876e-06
4.264856e-06
-4.1087711e-06
5.822526e-06
-5.5798074e-06
7.9264161e-06
-7.5576282e-06
1.0759603e-05
-1.0208629e-05
1.4563192e-05
-1.3750479e-05
1.9653453e-05
-1.8466653e-05
2.6443606e-05
-2.4724711e-05
3.5471425e-05
-3.2999231e-05
4.743414e-05
-4.390058e-05
6.3232502e-05
-5.8211066e-05
8.4026425e-05
-7.6930531e-05
0.00011130532
-0.00010133408
0.00014697717
-0.00013304551
0.0001934816
-0.00017413095
0.00025393361
-0.00022721832
0.00033230648
-0.00029564884
0.00043366407
-0.00038366861
0.00056445464
-0.00049666335
0.00073288046
-0.00064145231
0.0009493554
-0.00082661037
0.0012270691
-0.0010628977
0.0015826546
-0.0013635672
0.0020369834
-0.0017449902
0.002616052
-0.0022266279
0.0033518466
-0.002831499
0.0042837581
-0.0035873929
0.0054574713
-0.0045172348
0.006932481
-0.0056764496
0.0087588152
-0.0070136485
-0.0088096401
0.011048145
1.2285502e-10
-5.4548048e-10
5.6669627e-10
-1.9709646e-09
1.4777186e-09
-4.0452371e-09
3.061021e-09
-7.028435e-09
5.6036351e-09
-1.1281988e-08
9.5063304e-09
-1.7307038e-08
1.5327444e-08
-2.5797298e-08
2.3843184e-08
-3.7711356e-08
3.6130314e-08
-5.4371301e-08
5.3679372e-08
-7.7597143e-08
7.8549154e-08
-1.0988929e-07
1.1357712e-07
-1.5467588e-07
1.6266492e-07
-2.1664683e-07
2.3116509e-07
-3.0220379e-07
3.2640265e-07
-4.2006426e-07
4.5837697e-07
-5.8206979e-07
6.4070239e-07
-8.0426327e-07
8.918649e-07
-1.1083193e-06
1.2368939e-06
-1.5234346e-06
1.7095781e-06
-2.0888158e-06
2.3553893e-06
-2.8569362e-06
3.2353244e-06
-3.8977775e-06
4.430929e-06
-5.3043233e-06
6.0508358e-06
-7.1996334e-06
8.2392322e-06
-9.745901e-06
1.1186772e-05
-1.3155983e-05
1.514457e-05
-1.7708003e-05
2.0442072e-05
-2.3763759e-05
2.7509773e-05
-3.179186e-05
3.6908022e-05
-4.2396736e-05
4.9363445e-05
-5.6355033e-05
6.581495e-05
-7.4661351e-05
8.7471835e-05
-9.8585937e-05
0.00011588727
-0.00012974778
0.00015305136
-0.00017020767
0.00020150937
-0.00022258689
0.00026451197
-0.00029021884
0.00034620659
-0.0003773415
0.00045188053
-0.00048934088
0.00058826882
-0.00063305043
0.00076394164
-0.00081712443
0.00098978556
-0.0010524542
0.0012795964
-0.0013527091
0.0016507872
-0.0017347597
0.0021252264
-0.002219432
0.0027301926
-0.0028315992
0.0034992995
-0.0036006117
0.004474
-0.0045621026
0.0057026338
-0.0057458805
0.0072478569
-0.0072216814
0.0091638868
-0.0089297126
-0.011212726
0.01156699
1.2698865e-10
-6.7245425e-10
5.8579204e-10
-2.4297447e-09
1.5276305e-09
-4.9870418e-09
3.1647784e-09
-8.6655342e-09
5.7944934e-09
-1.3911636e-08
9.8320766e-09
-2.134453e-08
1.5856475e-08
-3.1821573e-08
2.467302e-08
-4.6527731e-08
3.739955e-08
-6.7097597e-08
5.5584305e-08
-9.5781572e-08
8.1366993e-08
-1.3567152e-07
1.1769806e-07
-1.9100628e-07
1.6863655e-07
-2.6758431e-07
2.3975345e-07
-3.7331913e-07
3.3867607e-07
-5.1898442e-07
4.7582051e-07
-7.1921033e-07
6.6537394e-07
-9.9381049e-07
9.2660642e-07
-1.369542e-06
1.2856172e-06
-1.8824302e-06
1.7776491e-06
-2.5808244e-06
2.4501429e-06
-3.529395e-06
3.366751e-06
-4.814334e-06
4.6125875e-06
-6.5500839e-06
6.30106e-06
-8.8879956e-06
8.5827214e-06
-1.2027403e-05
1.1656677e-05
-1.622971e-05
1.5785222e-05
-2.1836223e-05
2.1312527e-05
-2.9290615e-05
2.8688421e-05
-3.9167147e-05
3.8498539e-05
-5.2206056e-05
5.1502463e-05
-6.9357942e-05
6.8681928e-05
-9.1839568e-05
9.1301722e-05
-0.00012120425
0.00012098674
-0.00015943111
0.00015981962
-0.00020903871
0.00021046481
-0.00027323014
0.00027632632
-0.00035607846
0.00036174878
-0.00046276225
0.00047227309
-0.0005998638
0.00061496052
-0.00077573692
0.000798801
-0.0010009645
0.0010352221
-0.0012888754
0.001338716
-0.0016562037
0.001727595
-0.0021236408
0.0022248837
-0.0027167241
0.002859351
-0.003466072
0.0036665194
-0.004407787
0.0046902482
-0.0055858406
0.0059820362
-0.0070376833
0.0076082163
-0.0088478668
0.0096280977
-0.010949639
-0.013747785
0.01216319
1.3135461e-10
-8.0379137e-10
6.0596098e-10
-2.904319e-09
1.5803547e-09
-5.9613858e-09
3.2744128e-09
-1.035952e-08
5.9962525e-09
-1.6633373e-08
1.017664e-08
-2.5524773e-08
1.641649e-08
-3.806122e-08
2.5552259e-08
-5.5663212e-08
3.874575e-08
-8.0290681e-08
5.7607158e-08
-1.146424e-07
8.436316e-08
-1.6242668e-07
1.2208599e-07
-2.2872788e-07
1.750047e-07
-3.2050119e-07
2.4892672e-07
-4.472384e-07
3.5180725e-07
-6.2186075e-07
4.9451555e-07
-8.6191218e-07
6.9186268e-07
-1.1911477e-06
9.6397485e-07
-1.6416391e-06
1.3381217e-06
-2.2565544e-06
1.8511397e-06
-3.0938089e-06
2.552632e-06
-4.2308383e-06
3.5091725e-06
-5.7708041e-06
4.8098065e-06
-7.8506178e-06
6.5732114e-06
-1.065126e-05
8.9569744e-06
-1.4410969e-05
1.2169552e-05
-1.9442015e-05
1.6485621e-05
-2.6151919e-05
2.2265684e-05
-3.5070176e-05
2.998103e-05
-4.6881831e-05
4.0245383e-05
-6.2469561e-05
5.3854985e-05
-8.296649e-05
7.1839247e-05
-0.00010982256
9.5524807e-05
-0.00014488834
0.0001266166
-0.00019052128
0.00016730069
-0.00024972106
0.00022037488
-0.00032630259
0.00028941517
-0.0004251171
0.00037898775
-0.00055233342
0.00049491909
-0.00071579408
0.00064463878
-0.00092545599
0.00083761216
-0.0011939376
0.0010858813
-0.0015371448
0.0014047327
-0.0019750561
0.0018135083
-0.0025324187
0.0023365633
-0.0032397832
0.0030043872
-0.0041339014
0.0038547225
-0.0052581305
0.0049342205
-0.0066653461
0.0062980837
-0.0084015659
0.0080169063
-0.010566687
0.010156058
-0.013088849
-0.016434807
0.012843136
1.3593441e-10
-9.3970474e-10
6.2711635e-10
-3.3954578e-09
1.6356663e-09
-6.9698665e-09
3.38946e-09
-1.2113212e-08
6.2080624e-09
-1.945183e-08
1.0538584e-08
-2.9855086e-08
1.7005196e-08
-4.4527534e-08
2.6477383e-08
-6.5134972e-08
4.0163697e-08
-9.3976379e-08
5.9740335e-08
-1.3421815e-07
8.7526888e-08
-1.9021194e-07
1.2672595e-07
-2.6792506e-07
1.8174891e-07
-3.7552138e-07
2.5865743e-07
-5.2414282e-07
3.6576004e-07
-7.2895723e-07
5.1441517e-07
-1.0105581e-06
7.2010895e-07
-1.3968278e-06
1.0038958e-06
-1.9254055e-06
1.3943166e-06
-2.646945e-06
1.9299425e-06
-3.6293909e-06
2.6627338e-06
-4.9635667e-06
3.6624551e-06
-6.7704364e-06
5.0224526e-06
-9.2104914e-06
6.8671769e-06
-1.2495813e-05
9.3619316e-06
-1.690549e-05
1.2725446e-05
-2.2805214e-05
1.7246015e-05
-3.0672066e-05
2.3302124e-05
-4.1125731e-05
3.138871e-05
-5.4967705e-05
4.2150497e-05
-7.3230456e-05
5.6424206e-05
-9.7239115e-05
7.5291963e-05
-0.00012868905
0.00010014887
-0.00016974382
0.00013278857
-0.00022315944
0.00017551189
-0.00029244279
0.00023126494
-0.00038205411
0.00030381521
-0.000497666
0.00039797618
-0.00064649333
0.00051989382
-0.00083771104
0.00067741092
-0.0010829728
0.00088052772
-0.0013970545
0.0011419801
-0.0017985977
0.001477955
-0.0023110324
0.0019089658
-0.002963432
0.0024608898
-0.0037917123
0.0031661924
-0.0048392091
0.0040651801
-0.0061571278
0.0052077282
-0.0078078981
0.0066533308
-0.0098471932
0.0084774845
-0.012390827
0.010752691
-0.015364126
-0.019295795
0.013613757
1.4070703e-10
-1.0803875e-09
6.4916561e-10
-3.9038631e-09
1.6933178e-09
-8.0139314e-09
3.5094162e-09
-1.3929181e-08
6.4290282e-09
-2.2371256e-08
1.091642e-08
-3.4342209e-08
1.7620267e-08
-5.1230992e-08
2.7444873e-08
-7.4959017e-08
4.1648246e-08
-1.0817894e-07
6.1976525e-08
-1.5454525e-07
9.0847941e-08
-2.1908165e-07
1.3160381e-07
-3.0867843e-07
1.8884999e-07
-4.327639e-07
2.6891981e-07
-6.0420723e-07
3.8049999e-07
-8.4052941e-07
5.3547395e-07
-1.1655202e-06
7.5005352e-07
-1.6113898e-06
1.0462929e-06
-2.2216191e-06
1.454105e-06
-3.0547195e-06
2.0139364e-06
-4.1891683e-06
2.7803007e-06
-5.7298543e-06
3.8264245e-06
-7.8164532e-06
5.2503284e-06
-1.0634248e-05
7.1827466e-06
-1.4428031e-05
9.7973947e-06
-1.9519869e-05
1.3324215e-05
-2.6331678e-05
1.8066385e-05
-3.5413769e-05
2.4422064e-05
-4.7480809e-05
3.2912095e-05
-6.345698e-05
4.4215189e-05
-8.4532621e-05
5.9212502e-05
-0.00011223533
7.9044086e-05
-0.00014851937
0.00010518035
-0.00019587871
0.00013951268
-0.00025749034
0.00018446848
-0.0003373972
0.00024315776
-0.00044074213
0.00031956001
-0.00057406724
0.00041876312
-0.00074569579
0.00054726842
-0.00096621615
0.00071337963
-0.0012490842
0.00092769555
-0.0016113709
0.001203731
-0.002074634
0.0015586881
-0.0026659914
0.0020144062
-0.0034191531
0.0025984941
-0.0043758061
0.0033456748
-0.0055863941
0.0042992004
-0.0071106641
0.0055126565
-0.0090213534
0.0070504617
-0.011385028
0.0089936787
-0.014334018
0.011423159
-0.017793685
-0.022355032
0.014482499
1.4565028e-10
-1.2260102e-09
6.7199852e-10
-4.4301483e-09
1.7530361e-09
-9.0948651e-09
3.6337091e-09
-1.58097e-08
6.6580909e-09
-2.5395415e-08
1.1308376e-08
-3.8992171e-08
1.8258849e-08
-5.8180997e-08
2.8450365e-08
-8.5149853e-08
4.3192891e-08
-1.2292048e-07
6.4306218e-08
-1.7565714e-07
9.4312702e-08
-2.4908604e-07
1.3670044e-07
-3.5106311e-07
1.9628138e-07
-4.9234034e-07
2.7967744e-07
-6.8759667e-07
3.9597806e-07
-9.5682028e-07
5.576265e-07
-1.3271543e-06
7.8161025e-07
-1.8353524e-06
1.0910541e-06
-2.5310321e-06
1.517343e-06
-3.4809637e-06
2.1029393e-06
-4.7747008e-06
2.9051064e-06
-6.5319316e-06
4.0008053e-06
-8.9120276e-06
5.493106e-06
-1.2126379e-05
7.5195428e-06
-1.645424e-05
1.0262947e-05
-2.2262972e-05
1.3965429e-05
-3.0033765e-05
1.8946337e-05
-4.0394169e-05
2.5625233e-05
-5.4159064e-05
3.4551176e-05
-7.238213e-05
4.6439929e-05
-9.6420423e-05
6.2221153e-05
-0.00012801545
8.3098192e-05
-0.00016939519
0.00011062386
-0.00022340308
0.00014679659
-0.00029366179
0.00019418272
-0.00038478216
0.00025607234
-0.0005026308
0.00033667845
-0.00065467274
0.0004413918
-0.00085040898
0.000577107
-0.0011019317
0.00075263924
-0.0014246172
0.00097925375
-0.0018379864
0.0012713357
-0.0023667171
0.0016472257
-0.003041884
0.0021302566
-0.0039021875
0.002749997
-0.004995553
0.0035437372
-0.0063801375
0.0045580999
-0.0081250375
0.0058509327
-0.01031418
0.0074922615
-0.013026391
0.0095693165
-0.016411032
0.012172502
-0.020396942
-0.025639997
0.015457585
1.5074719e-10
-1.3767264e-09
6.9554256e-10
-4.9748715e-09
1.8146138e-09
-1.0213818e-08
3.761911e-09
-1.7756821e-08
6.8944605e-09
-2.8527709e-08
1.1713068e-08
-4.3810406e-08
1.8918678e-08
-6.5386065e-08
2.9490255e-08
-9.572064e-08
4.4792053e-08
-1.3822113e-07
6.6721003e-08
-1.9758441e-07
9.7908805e-08
-2.8027139e-07
1.4199783e-07
-3.9514856e-07
2.0401725e-07
-5.5435452e-07
2.9089388e-07
-7.7446562e-07
4.1214329e-07
-1.0780584e-06
5.8080248e-07
-1.4957969e-06
8.1468338e-07
-2.0692091e-06
1.1380507e-06
-2.8543641e-06
1.5838599e-06
-3.9267219e-06
2.1967284e-06
-5.3874969e-06
3.0368633e-06
-7.371965e-06
4.1852311e-06
-1.0060256e-05
5.7503286e-06
-1.3691287e-05
7.8770074e-06
-1.8580666e-05
1.0757924e-05
-2.5143557e-05
1.464832e-05
-3.3923735e-05
1.988502e-05
-4.5630329e-05
2.6910745e-05
-6.1184117e-05
3.630512e-05
-8.1775688e-05
4.8824095e-05
-0.00010893844
6.5449994e-05
-0.00014464026
8.7454969e-05
-0.000191399
0.00011648152
-0.00025242846
0.00015464477
-0.00033182394
0.0002046627
-0.00043479918
0.00027002236
-0.00056798986
0.00035519263
-0.00073984283
0.00046589689
-0.00096111361
0.00060946287
-0.0012454985
0.00079527066
-0.0016104262
0.0010353239
-0.0020780412
0.0013449756
-0.0026763706
0.0017438375
-0.0034407492
0.0022569159
-0.0044152702
0.0029159868
-0.0056546306
0.0037612471
-0.0072253998
0.0048431603
-0.0092069611
0.0062244792
-0.011695489
0.007981597
-0.014783546
0.010208504
-0.018637885
0.013009652
-0.023198181
-0.029182546
0.016552318
1.5597184e-10
-1.5326644e-09
7.1967392e-10
-5.5384941e-09
1.8777385e-09
-1.1371752e-08
3.8933671e-09
-1.9772257e-08
7.1369358e-09
-3.1770995e-08
1.2128455e-08
-4.8801515e-08
1.9596458e-08
-7.2853468e-08
3.0559421e-08
-1.0668273e-07
4.6437987e-08
-1.5409842e-07
6.9209434e-08
-2.20354e-07
1.0161944e-07
-3.1267869e-07
1.4747183e-07
-4.4099699e-07
2.1202348e-07
-6.1890038e-07
3.0252122e-07
-8.6495485e-07
4.2892924e-07
-1.2044539e-06
6.0491085e-07
-1.6717602e-06
8.4914913e-07
-2.3134206e-06
1.1871162e-06
-3.1922924e-06
1.6534338e-06
-4.3929838e-06
2.2950099e-06
-6.0289938e-06
3.1751876e-06
-8.2520322e-06
4.3792076e-06
-1.1264124e-05
6.0213651e-06
-1.533324e-05
8.2543456e-06
-2.0813376e-05
1.1281338e-05
-2.8170198e-05
1.5371684e-05
-3.8013632e-05
2.0880997e-05
-5.1139079e-05
2.8276928e-05
-6.8579359e-05
3.8172043e-05
-9.1669981e-05
5.1365661e-05
-0.00012213111
6.8896997e-05
-0.00016217055
9.211263e-05
-0.00021461355
0.00012275219
-0.00028306698
0.00016305738
-0.00037212824
0.00021591089
-0.00048765208
0.00028501418
-0.00063709292
0.00037511514
-0.0008299441
0.00049230084
-0.0010783002
0.00064437371
-0.0013975729
0.0008413349
-0.0018073892
0.0010960025
-0.0023327108
0.0014248005
-0.0030051709
0.001848753
-0.0038647058
0.0023947332
-0.0049612554
0.0030969898
-0.0063568934
0.0039989937
-0.0081274043
0.0051555659
-0.010363544
0.0066351251
-0.013175037
0.0085213112
-0.016669774
0.010916232
-0.021032751
0.013944704
-0.026226753
-0.033015683
0.017777962
1.6128907e-10
-1.6939171e-09
7.4422925e-10
-6.1213495e-09
1.9419729e-09
-1.2569357e-08
4.0271706e-09
-2.1857249e-08
7.3838598e-09
-3.5127386e-08
1.2551759e-08
-5.3968978e-08
2.0287759e-08
-8.0588833e-08
3.1651007e-08
-1.1804505e-07
4.8120414e-08
-1.7056648e-07
7.1756435e-08
-2.4398805e-07
1.05423e-07
-3.4634238e-07
1.5309173e-07
-4.8866151e-07
2.2025675e-07
-6.8605924e-07
3.1449925e-07
-9.5918834e-07
4.462528e-07
-1.3361943e-06
6.2983761e-07
-1.8553257e-06
8.848524e-07
-2.5684072e-06
1.2380406e-06
-3.5454397e-06
1.7257827e-06
-4.8806671e-06
2.3974091e-06
-6.7005368e-06
3.3195846e-06
-9.1740914e-06
4.5820855e-06
-1.2526465e-05
6.3053725e-06
-1.7056312e-05
8.6504724e-06
-2.3158193e-05
1.1831809e-05
-3.135117e-05
1.6133783e-05
-4.2315145e-05
2.1932105e-05
-5.6936831e-05
2.9721124e-05
-7.6367691e-05
4.0148734e-05
-0.00010209678
5.4060811e-05
-0.00013604228
7.2557731e-05
-0.0001806665
9.7066179e-05
-0.00023912103
0.00012943048
-0.00031543042
0.00017202892
-0.00041472604
0.00022792233
-0.00054354521
0.00030104433
-0.00071021512
0.00039644573
-0.00092534631
0.00052060928
-0.0012024653
0.00068185534
-0.0015588211
0.0008908646
-0.0020164009
0.0011613492
-0.0026031979
0.0015109127
-0.0033547373
0.0019621411
-0.0043159388
0.0025439795
-0.005543099
0.0032934321
-0.0071063515
0.0042576354
-0.0090916081
0.0054963164
-0.011602238
0.0070844305
-0.014763147
0.009114044
-0.018699428
0.011698786
-0.023617446
0.014979512
-0.029507536
-0.037169435
0.019133382
1.6667147e-10
-1.8605501e-09
7.6908095e-10
-6.723671e-09
2.0069925e-09
-1.3807127e-08
4.1626503e-09
-2.4012696e-08
7.6339733e-09
-3.8598402e-08
1.2980773e-08
-5.931533e-08
2.0988897e-08
-8.8596304e-08
3.2759173e-08
-1.2981437e-07
4.9830297e-08
-1.8763621e-07
7.4348136e-08
-2.6850387e-07
1.0929868e-07
-3.8128997e-07
1.5882686e-07
-5.3818538e-07
2.2867251e-07
-7.5589858e-07
3.267638e-07
-1.0572704e-06
4.6402269e-07
-1.4734397e-06
6.5545424e-07
-2.0467375e-06
9.2161404e-07
-2.8345382e-06
1.2905771e-06
-3.914361e-06
1.8005695e-06
-5.3905995e-06
2.5034683e-06
-7.4033507e-06
3.4694386e-06
-1.0139943e-05
4.7930442e-06
-1.3849909e-05
6.6012655e-06
-1.8864317e-05
9.063965e-06
-2.5620608e-05
1.2407484e-05
-3.4694325e-05
1.6932226e-05
-4.683943e-05
2.3035281e-05
-6.3039329e-05
3.1239451e-05
-8.4571197e-05
4.2230312e-05
-0.00011308688
5.6903475e-05
-0.0001507146
7.6424723e-05
-0.00020018688
0.00010230652
-0.00026500202
0.00013650546
-0.00034962872
0.00018154655
-0.00045976679
0.00024068223
-0.00060268095
0.00031809636
-0.00078762988
0.00041916697
-0.0010264182
0.00055080523
-0.0013341057
0.00072189385
-0.0017299125
0.00094385342
-0.0022383635
0.0012313726
-0.00289072
0.0016033479
-0.003726716
0.0020840831
-0.0047966791
0.0027048112
-0.0061638328
0.0035055914
-0.0079071368
0.0045376398
-0.01012366
0.0058661052
-0.012930727
0.0075730873
-0.01647011
0.0097620113
-0.020888388
0.012560284
-0.02641566
0.016113177
-0.03306047
-0.041670823
0.020614665
1.7207406e-10
-2.0325842e-09
7.9402623e-10
-7.345534e-09
2.0722536e-09
-1.5085213e-08
4.2986535e-09
-2.6238886e-08
7.8851713e-09
-4.2184613e-08
1.3411903e-08
-6.4841615e-08
2.1694066e-08
-9.6877816e-08
3.3874803e-08
-1.4199416e-07
5.1553677e-08
-2.053137e-07
7.696389e-08
-2.9391207e-07
1.1321621e-07
-4.1753935e-07
1.6463346e-07
-5.8959835e-07
2.3720827e-07
-8.2846714e-07
3.3922655e-07
-1.1592796e-06
4.8211527e-07
-1.616315e-06
6.8158917e-07
-2.2461919e-06
9.5919751e-07
-3.1121181e-06
1.3444018e-06
-4.2995241e-06
1.8773532e-06
-5.9234919e-06
2.6125918e-06
-8.1385057e-06
3.6239492e-06
-1.1151184e-05
5.0110148e-06
-1.5236815e-05
6.9076237e-06
-2.0760713e-05
9.4929459e-06
-2.8205654e-05
1.3005897e-05
-3.8206925e-05
1.7763788e-05
-5.1596885e-05
2.4186337e-05
-6.9461354e-05
3.2826488e-05
-9.3210735e-05
4.4409804e-05
-0.00012466951
5.9884733e-05
-0.0001661888
8.0486634e-05
-0.00022078807
0.00010781935
-0.00029233414
0.00014395922
-0.00038576822
0.00019158799
-0.00050739554
0.00025416315
-0.00066525657
0.00033613692
-0.00086960474
0.0004432389
-0.0011335221
0.0005828418
-0.0014737113
0.00076443566
-0.0019115096
0.0010002425
-0.0024741738
0.001306012
-0.0031964929
0.0017020497
-0.0041227577
0.0022145389
-0.0053091736
0.0028772269
-0.0068265268
0.0037335568
-0.0087634728
0.0048393668
-0.011229482
0.0062658242
-0.014357195
0.0081024068
-0.018306658
0.01046355
-0.023249572
0.01349237
-0.0294444
0.017347754
-0.036915903
-0.046561572
0.022238591
1.7743557e-10
-2.2099788e-09
8.1877529e-10
-7.9867856e-09
2.1370123e-09
-1.6403313e-08
4.433654e-09
-2.8535324e-08
8.1346511e-09
-4.5885314e-08
1.3840451e-08
-7.0546984e-08
2.2395748e-08
-1.0543249e-07
3.4986343e-08
-1.5458385e-07
5.3273299e-08
-2.2359934e-07
7.9578302e-08
-3.2021514e-07
1.1713887e-07
-4.5509712e-07
1.7045914e-07
-6.4291454e-07
2.4578979e-07
-9.0379186e-07
3.5178341e-07
-1.2652645e-06
5.0038526e-07
-1.7649042e-06
7.0804075e-07
-2.4538289e-06
9.9732467e-07
-3.4013751e-06
1.3991321e-06
-4.7012926e-06
1.9556102e-06
-6.4799142e-06
2.7240656e-06
-8.906882e-06
3.7821471e-06
-1.2209156e-05
5.2346857e-06
-1.6689204e-05
7.2226817e-06
-2.274851e-05
9.9350484e-06
-3.0917763e-05
1.362389e-05
-4.1895442e-05
1.8624275e-05
-5.6596873e-05
2.5379726e-05
-7.6216335e-05
3.4474938e-05
-0.00010230541
4.6677655e-05
-0.00013687165
6.2992126e-05
-0.00018250268
8.4727297e-05
-0.00024252272
0.00011358377
-0.00032119026
0.00015176489
-0.00042394927
0.00020211889
-0.00055774989
0.00026832145
-0.00073146001
0.00035511089
-0.00095639575
0.00046859247
-0.0012470061
0.00061663323
-0.0016217554
0.00080937543
-0.0021042557
0.0010599042
-0.0027247064
0.0013851148
-0.0035217072
0.0018068394
-0.0045444865
0.0023533031
-0.0058556427
0.0030609964
-0.007534226
0.0039770876
-0.0096795711
0.0051621902
-0.012414588
0.00669398
-0.01588898
0.0086718317
-0.020284486
0.011221674
-0.025799454
0.014497734
-0.032720388
0.018683765
-0.041101953
-0.051885672
0.024007927
1.8266583e-10
-2.3926031e-09
8.4291588e-10
-8.6469513e-09
2.2001895e-09
-1.776046e-08
4.5654481e-09
-3.0900394e-08
8.3784249e-09
-4.9698017e-08
1.4259701e-08
-7.6427862e-08
2.3083251e-08
-1.1425546e-07
3.6077384e-08
-1.6757714e-07
5.4964636e-08
-2.4248537e-07
8.2155457e-08
-3.4740421e-07
1.2101506e-07
-4.9395417e-07
1.7623058e-07
-6.9812637e-07
2.5431428e-07
-9.818702e-07
3.6429107e-07
-1.3752335e-06
5.1863447e-07
-1.9192362e-06
7.3453617e-07
-2.669714e-06
1.0356217e-06
-3.7024365e-06
1.4542582e-06
-5.1198942e-06
2.0346478e-06
-7.0602535e-06
2.8369516e-06
-9.7091147e-06
3.9427649e-06
-1.331487e-05
5.4623509e-06
-1.8208656e-05
7.5441471e-06
-2.4830129e-05
1.0387202e-05
-3.376059e-05
1.4257355e-05
-4.5765313e-05
1.950821e-05
-6.1847389e-05
2.6608159e-05
-8.3315893e-05
3.617513e-05
-0.00011187195
4.9021061e-05
-0.00014971713
6.620876e-05
-0.00019968998
8.9124484e-05
-0.00026543815
0.00011957065
-0.00035163636
0.00015988442
-0.00046426332
0.00021308974
-0.00061095595
0.00028309297
-0.00080146456
0.00037493551
-0.0010482403
0.00049512145
-0.001367195
0.00065204394
-0.0017786817
0.00085654118
-0.0023087573
0.0011226216
-0.002990791
0.0014684095
-0.003867499
0.0019173784
-0.0049934601
0.0024999537
-0.0064382235
0.0032555802
-0.008289857
0.0042353632
-0.010659359
0.0055052396
-0.013684451
0.0071505972
-0.017534349
0.0092803558
-0.022414225
0.012033523
-0.028552645
0.015579167
-0.036265967
0.020126745
-0.045649519
-0.057682377
0.025923487
1.8770495e-10
-2.5802668e-09
8.6616933e-10
-9.3253377e-09
2.261062e-09
-1.915524e-08
4.6924967e-09
-3.3331661e-08
8.6136478e-09
-5.3618926e-08
1.4664776e-08
-8.2478641e-08
2.3748631e-08
-1.2333881e-07
3.7135411e-08
-1.809632e-07
5.6608552e-08
-2.6195747e-07
8.4666614e-08
-3.7546076e-07
1.2480214e-07
-5.3408752e-07
1.8188535e-07
-7.5520644e-07
2.6269104e-07
-1.0626713e-06
3.7661894e-07
-1.4891548e-06
5.3667608e-07
-2.0792838e-06
7.6081021e-07
-2.8938342e-06
1.0737136e-06
-4.0153196e-06
1.5092533e-06
-5.5554045e-06
2.1137284e-06
-7.6646865e-06
2.9502218e-06
-1.0545548e-05
4.1043769e-06
-1.4468942e-05
5.6920407e-06
-1.9796208e-05
7.8693118e-06
-2.7007253e-05
1.0845697e-05
-3.6736789e-05
1.4901241e-05
-4.9820632e-05
2.0408735e-05
-6.735462e-05
2.7862373e-05
-9.0769242e-05
3.7914596e-05
-0.00012192388
5.1423316e-05
-0.00016322558
6.9512325e-05
-0.0002177788
9.3648512e-05
-0.00028957432
0.00012574063
-0.00038372873
0.00016826579
-0.00050678913
0.00022443203
-0.00066712334
0.00029838781
-0.00087542209
0.00039549325
-0.0011453483
0.00052267281
-0.001494378
0.00068887544
-0.0019448888
0.0009056764
-0.0025255631
0.0011880646
-0.0032731836
0.0015554726
-0.0042349111
0.0020331255
-0.0054711182
0.0026538021
-0.0070589061
0.003460115
-0.0090961779
0.0045074519
-0.011706698
0.0058676344
-0.015044628
0.0076339645
-0.019300696
0.0099256503
-0.024705867
0.01289648
-0.031523495
0.016732944
-0.040102367
0.021672086
-0.050588618
-0.063991198
0.027980909
1.9244205e-10
-2.7726684e-09
8.8802649e-10
-1.0020853e-08
2.3182925e-09
-2.0585412e-08
4.8120477e-09
-3.5825277e-08
8.8352913e-09
-5.7641971e-08
1.5047168e-08
-8.8690233e-08
2.437814e-08
-1.3266938e-07
3.8139036e-08
-1.9472351e-07
5.8172579e-08
-2.8199018e-07
8.7063655e-08
-4.0435065e-07
1.2842985e-07
-5.7545203e-07
1.8732219e-07
-8.1409636e-07
2.7077556e-07
-1.1461213e-06
3.8856303e-07
-1.6069373e-06
5.542241e-07
-2.2449377e-06
7.8646428e-07
-3.1260639e-06
1.1110488e-06
-4.3398889e-06
1.5633561e-06
-6.0076898e-06
2.1918077e-06
-8.2931064e-06
3.062448e-06
-1.1416144e-05
4.2650373e-06
-1.567147e-05
5.9211102e-06
-2.1452197e-05
8.1945888e-06
-2.9280624e-05
1.1305678e-05
-3.9847745e-05
1.554898e-05
-5.4063779e-05
2.1316985e-05