/*--------------------------------*- C++ -*----------------------------------*\
  =========                 |
  \\      /  F ield         | OpenFOAM: The Open Source CFD Toolbox
   \\    /   O peration     | Website:  https://openfoam.org
    \\  /    A nd           | Version:  13
     \\/     M anipulation  |
\*---------------------------------------------------------------------------*/
FoamFile
{
    format      ascii;
    class       volVectorField;
    location    "500";
    object      U;
}
// * * * * * * * * * * * * * * * * * * * * * * * * * * * * * * * * * * * * * //

dimensions      [0 1 -1 0 0 0 0];

internalField   nonuniform List<vector> 
2694
(
(4.6390875e-08 1.2249016e-05 1.4089769e-23)
(4.4598999e-08 2.5604263e-05 -1.1945953e-23)
(1.208898e-07 3.6767174e-05 3.243969e-24)
(2.2069507e-07 5.2775768e-05 -1.0808116e-24)
(3.8629661e-07 7.5718362e-05 -2.8996475e-23)
(6.6493237e-07 0.00010856928 5.7783713e-23)
(1.1293949e-06 0.00015555524 -1.5575417e-23)
(1.9038058e-06 0.00022266308 -4.1153938e-23)
(3.1929225e-06 0.00031833657 -2.410919e-24)
(5.3308788e-06 0.00045441836 2.4751238e-23)
(8.8553071e-06 0.0006473964 -6.6611301e-23)
(1.4613252e-05 0.00092000399 3.6992884e-24)
(2.3899501e-05 0.0013031837 1.3748456e-22)
(3.8609325e-05 0.0018383369 -7.3115992e-23)
(6.1346213e-05 0.0025796103 4.8698952e-23)
(9.5356135e-05 0.003595704 -1.8033206e-22)
(0.00014408105 0.0049703333 2.2128887e-22)
(0.00021013383 0.0068001624 4.2303768e-22)
(0.0002938632 0.0091890004 -2.9400151e-22)
(0.00039192334 0.012238067 -3.7368328e-22)
(0.00049015338 0.016034342 -1.7240299e-22)
(0.00059186685 0.020634395 1.4115276e-22)
(0.00067327968 0.026049856 3.7334957e-22)
(0.00067114196 0.032271744 -8.9871841e-22)
(0.00057698468 0.039310031 -1.3383383e-21)
(0.00039822187 0.047196811 1.4599273e-22)
(0.00010203365 0.056007585 3.0281737e-21)
(-0.00034775941 0.065895136 1.2902118e-21)
(-0.0010132611 0.077085062 -8.488891e-21)
(-0.0020016578 0.089853898 9.7748504e-21)
(-0.0032769371 0.10439587 1.417111e-20)
(-0.0047789514 0.12080797 -2.1181692e-20)
(-0.0056527856 0.13879577 1.4064126e-21)
(-0.0054794265 0.15806557 -2.5794516e-20)
(-0.0015476417 0.17714183 -5.2479506e-20)
(0.0048905396 0.196227 -6.3079405e-20)
(0.020046986 0.21174979 -3.439554e-20)
(0.037230287 0.2273502 5.7325554e-20)
(0.066261767 0.23342966 1.2714105e-19)
(-3.1007804e-08 -1.8154594e-07 -9.801213e-24)
(-2.3862997e-08 -3.7713551e-07 7.1002123e-23)
(-9.4829403e-08 -5.4060535e-07 -6.5170933e-23)
(-2.085454e-07 -7.7143564e-07 7.1607939e-23)
(-3.9680227e-07 -1.0984472e-06 -4.9755366e-23)
(-7.2230941e-07 -1.5604064e-06 2.7816205e-23)
(-1.2811696e-06 -2.2097065e-06 -9.5264855e-23)
(-2.2364825e-06 -3.1166342e-06 -1.1729745e-22)
(-3.8617826e-06 -4.3731074e-06 2.2585148e-22)
(-6.6099574e-06 -6.0951985e-06 -1.3652133e-22)
(-1.121917e-05 -8.421991e-06 1.0981942e-22)
(-1.886647e-05 -1.1506522e-05 1.1342106e-22)
(-3.1371535e-05 -1.5492394e-05 -1.0854679e-23)
(-5.1425708e-05 -2.0467806e-05 -3.8649938e-22)
(-8.2760523e-05 -2.6390076e-05 4.2980954e-22)
(-0.00013007021 -3.2983321e-05 -1.6464111e-22)
(-0.0001984328 -3.9619527e-05 -3.3670566e-22)
(-0.00029198065 -4.518013e-05 2.0842869e-22)
(-0.00041188312 -4.8098764e-05 3.444573e-22)
(-0.0005554498 -4.6927185e-05 -1.6832779e-21)
(-0.00071632443 -4.1197064e-05 2.2342415e-21)
(-0.00089019351 -2.7692134e-05 -2.9964547e-21)
(-0.0010509053 2.0296348e-06 -2.6273866e-21)
(-0.0011994925 4.9651182e-05 3.8041933e-21)
(-0.0013649963 0.00010801005 4.4814477e-21)
(-0.0015880346 0.00017675919 -1.0395824e-21)
(-0.0019385381 0.00026336642 -1.3594183e-21)
(-0.00249919 0.00037454772 5.4018459e-21)
(-0.003353513 0.00050722206 9.2150621e-23)
(-0.0045252141 0.00062738177 -7.366317e-21)
(-0.0057972601 0.00065953088 3.2075481e-21)
(-0.0067801224 0.00047700346 2.2178603e-20)
(-0.0063321256 -5.4736031e-05 5.1449811e-21)
(-0.003531642 -0.0010224396 -1.5700254e-20)
(0.0039534178 -0.0024299225 4.3888651e-20)
(0.015315372 -0.0041483705 1.3420436e-19)
(0.035608064 -0.0062879207 -9.2395014e-20)
(0.057650153 -0.0079084772 -1.0071253e-19)
(0.094465199 -0.010799949 -1.5929448e-19)
(-3.9384524e-08 1.960789e-07 -2.2073358e-23)
(-4.1574013e-08 4.1203032e-07 -4.0698981e-23)
(-6.1436897e-08 5.919194e-07 1.563258e-22)
(-8.4210088e-08 8.5071827e-07 -1.0438249e-22)
(-1.149735e-07 1.2218274e-06 -4.7699304e-23)
(-1.5577468e-07 1.753183e-06 1.3980452e-22)
(-2.0737179e-07 2.5120534e-06 -3.0384057e-22)
(-2.7013406e-07 3.5919639e-06 3.5144387e-22)
(-3.4080157e-07 5.1209096e-06 -4.230041e-22)
(-4.1015697e-07 7.2699668e-06 5.1244853e-22)
(-4.595037e-07 1.0260063e-05 -7.7511719e-22)
(-4.5859664e-07 1.4361999e-05 6.9045607e-22)
(-3.7249344e-07 1.988141e-05 -1.049402e-21)
(-1.9796746e-07 2.7117192e-05 1.4662469e-21)
(-7.1394224e-08 3.6282862e-05 -8.8885554e-22)
(-4.7579783e-07 4.7398098e-05 1.5495542e-21)
(-2.7298257e-06 6.0197877e-05 3.221966e-23)
(-1.0062737e-05 7.4133489e-05 -1.115653e-21)
(-2.7103556e-05 8.85907e-05 -6.6864743e-23)
(-5.9668812e-05 0.0001033556 2.5444336e-21)
(-0.00011699228 0.00011910831 -7.6494363e-22)
(-0.00020963275 0.0001379358 1.7755579e-22)
(-0.00034497339 0.00016733736 2.3950074e-21)
(-0.0005285024 0.00021882626 -5.2243972e-21)
(-0.00076920765 0.00029934111 5.6426376e-21)
(-0.0010988027 0.00041636237 -2.3006439e-21)
(-0.0015787141 0.00058076546 -1.9145734e-21)
(-0.0022863578 0.00079336355 -4.5134436e-22)
(-0.0032491386 0.0010204065 1.9306643e-21)
(-0.0043102392 0.0011652439 4.5353075e-21)
(-0.0049443983 0.0010638643 -1.4836291e-20)
(-0.0041310968 0.0004969906 -9.1180206e-22)
(-0.00026595517 -0.00071440898 1.2393925e-20)
(0.0078397653 -0.0026481232 2.9268387e-20)
(0.022469305 -0.0051950886 8.7154202e-20)
(0.042349207 -0.0081770861 1.1231535e-19)
(0.0723834 -0.011513685 2.9569738e-20)
(0.10255053 -0.014284235 1.1233625e-19)
(0.15118834 -0.018288962 1.8595846e-19)
(-4.835455e-08 1.6102433e-07 1.8202961e-23)
(-5.183542e-08 3.4057225e-07 8.5602269e-24)
(-7.9836101e-08 4.8875319e-07 1.1445194e-22)
(-1.1343568e-07 7.0249013e-07 1.8698312e-23)
(-1.6164206e-07 1.0093216e-06 1.8918959e-23)
(-2.3014328e-07 1.4496099e-06 -2.3285287e-23)
(-3.2733352e-07 2.0808814e-06 -1.7430014e-22)
(-4.6484898e-07 2.9849689e-06 -1.3580583e-23)
(-6.5892002e-07 4.2777785e-06 2.2981554e-22)
(-9.3205238e-07 6.1225415e-06 -6.5059038e-23)
(-1.3154015e-06 8.7472849e-06 -2.1966849e-22)
(-1.8521462e-06 1.2466925e-05 4.6698828e-22)
(-2.6025222e-06 1.7709311e-05 -9.48156e-22)
(-3.6521571e-06 2.504197e-05 1.1533537e-21)
(-5.1293967e-06 3.5191311e-05 -1.064225e-21)
(-7.2462379e-06 4.9039572e-05 -1.2073989e-21)
(-1.0356093e-05 6.7569232e-05 2.4071395e-21)
(-1.5297404e-05 9.1681031e-05 -1.7744823e-21)
(-2.3986961e-05 0.00012202161 2.481254e-21)
(-4.0029996e-05 0.00015919925 -7.5744001e-22)
(-7.0305948e-05 0.00020407472 -9.5209368e-22)
(-0.00012606599 0.00025807773 4.2061543e-21)
(-0.00022382625 0.00032525757 1.2663481e-21)
(-0.00038580472 0.00041463948 5.8692855e-22)
(-0.00064240117 0.00053958099 -5.1013642e-21)
(-0.0010437013 0.00071646515 -9.0323494e-21)
(-0.0016571693 0.00095519763 9.7543129e-21)
(-0.0025128169 0.0012312472 1.1433216e-20)
(-0.0034412858 0.0014514951 2.741426e-20)
(-0.0039083959 0.0014320213 2.6832128e-20)
(-0.0026825147 0.00092783682 2.6407108e-20)
(0.0019348206 -0.00029159951 1.5929418e-20)
(0.011968102 -0.0023134125 4.1713055e-20)
(0.02867368 -0.0050904637 -2.5051063e-20)
(0.053823156 -0.0083424425 -1.8558154e-19)
(0.085395264 -0.011867518 -1.3337672e-19)
(0.12765381 -0.015332609 1.8526431e-19)
(0.16827984 -0.0183309 -9.5036445e-20)
(0.22975401 -0.021855449 3.2978599e-19)
(-6.2657459e-08 1.5603833e-07 1.0098183e-22)
(-6.8728094e-08 3.3337927e-07 1.3327486e-22)
(-1.0760932e-07 4.7829479e-07 -2.8598435e-22)
(-1.5506101e-07 6.8819242e-07 6.5904811e-23)
(-2.2450019e-07 9.8990077e-07 4.1984168e-22)
(-3.2522888e-07 1.4236704e-06 -5.6796978e-22)
(-4.7166523e-07 2.0470556e-06 -1.1414108e-22)
(-6.8488764e-07 2.942388e-06 -2.7689194e-22)
(-9.9605646e-07 4.2271147e-06 7.8299226e-22)
(-1.4513252e-06 6.0681306e-06 2.1974328e-22)
(-2.1193942e-06 8.7013023e-06 -1.3525034e-21)
(-3.1030818e-06 1.2457485e-05 8.2657362e-22)
(-4.5572751e-06 1.7796113e-05 1.2994463e-21)
(-6.7170973e-06 2.5346702e-05 -1.632829e-21)
(-9.9426601e-06 3.5956889e-05 7.8306077e-22)
(-1.4791156e-05 5.0742768e-05 -3.6990788e-22)
(-2.2132313e-05 7.1134953e-05 1.1419308e-21)
(-3.3334374e-05 9.8895838e-05 -3.1090621e-21)
(-5.0618798e-05 0.00013609199 3.4138514e-21)
(-7.7700527e-05 0.00018514153 -1.0584928e-21)
(-0.0001209009 0.00024900131 -2.2505961e-21)
(-0.00019090373 0.00033155296 4.1977886e-21)
(-0.00030595893 0.00043886214 -3.3347655e-21)
(-0.00049718495 0.00058141989 3.3930417e-21)
(-0.0008157117 0.00077482396 -1.2682038e-20)
(-0.0013327679 0.0010322697 -3.1425333e-21)
(-0.0020910598 0.0013376976 2.2266469e-21)
(-0.0029476706 0.0016036927 -1.41246e-20)
(-0.0033370175 0.0016421261 3.1818817e-21)
(-0.0019679531 0.0011810881 -6.385854e-20)
(0.0031900538 -3.2355681e-05 4.866108e-20)
(0.014366069 -0.0021119963 1.274729e-20)
(0.033642146 -0.0049433051 -1.3689786e-19)
(0.061795535 -0.0082853212 1.013667e-19)
(0.099537405 -0.011709619 -1.1828043e-19)
(0.14396703 -0.015050602 7.5433985e-20)
(0.19820645 -0.01782739 -1.2492787e-19)
(0.24898146 -0.020275193 -2.4389998e-20)
(0.32051577 -0.022306053 -3.8520335e-19)
(-8.5080631e-08 1.6876565e-07 -6.9183672e-23)
(-9.508861e-08 3.6538143e-07 2.3835657e-22)
(-1.4878895e-07 5.2388146e-07 -1.9370034e-22)
(-2.1511667e-07 7.5446476e-07 2.7919242e-22)
(-3.1248747e-07 1.0862557e-06 -2.7568705e-22)
(-4.5429711e-07 1.5640236e-06 3.6700335e-22)
(-6.6139432e-07 2.2519383e-06 -8.1398998e-22)
(-9.6449736e-07 3.242203e-06 1.611648e-24)
(-1.4093592e-06 4.6670499e-06 -8.3009567e-23)
(-2.064289e-06 6.7156115e-06 1.5325481e-21)
(-3.0317527e-06 9.6572968e-06 -9.8560772e-22)
(-4.4661907e-06 1.387364e-05 6.0509957e-22)
(-6.6016271e-06 1.9900605e-05 -7.6363435e-22)
(-9.7948204e-06 2.8482915e-05 -1.0573607e-22)
(-1.4593439e-05 4.064073e-05 2.638859e-22)
(-2.1845028e-05 5.7747118e-05 -3.8571049e-22)
(-3.2873064e-05 8.1613393e-05 2.0046275e-21)
(-4.9762832e-05 0.0001145819 -3.672322e-22)
(-7.5828399e-05 0.00015963665 4.0150176e-21)
(-0.00011638918 0.0002205856 -6.932569e-21)
(-0.00018011705 0.00030245577 3.3490336e-21)
(-0.00028158471 0.00041236017 -6.0049525e-21)
(-0.00044640057 0.00056104902 -5.5266572e-21)
(-0.00071968024 0.00076383196 8.9372698e-21)
(-0.0011694146 0.0010347689 4.3316673e-21)
(-0.0018492226 0.0013625491 -1.0680279e-20)
(-0.002647358 0.0016648633 -3.7015633e-21)
(-0.0030130289 0.0017487182 -2.4861456e-20)
(-0.0016157113 0.0013256635 -4.5962464e-20)
(0.0037420786 0.00011168239 2.0041049e-20)
(0.015690561 -0.0020109019 -9.5186879e-20)
(0.03654688 -0.0049124768 -8.2335757e-20)
(0.067681841 -0.0082289527 8.3946598e-20)
(0.10876606 -0.011561954 -1.6212424e-20)
(0.15908479 -0.014464246 1.0594975e-19)
(0.2150066 -0.016901543 -1.5833792e-19)
(0.27830779 -0.018411121 9.3918324e-21)
(0.3362759 -0.01980772 -2.4603173e-19)
(0.41272872 -0.019982614 -9.8867882e-22)
(-1.1642573e-07 1.9068546e-07 5.8187338e-25)
(-1.3292939e-07 4.1966504e-07 -5.5820581e-23)
(-2.0670072e-07 6.0112735e-07 -2.0483975e-22)
(-2.9894653e-07 8.6628204e-07 1.2474835e-22)
(-4.3420762e-07 1.248089e-06 4.546904e-22)
(-6.311974e-07 1.7984872e-06 -4.6524217e-22)
(-9.1888899e-07 2.5920471e-06 -7.736837e-23)
(-1.3400008e-06 3.7362593e-06 3.1626839e-22)
(-1.9582069e-06 5.3858816e-06 1.1725352e-22)
(-2.8687217e-06 7.7633311e-06 -6.8818916e-22)
(-4.2146908e-06 1.1187308e-05 1.8760456e-22)
(-6.2125406e-06 1.6112462e-05 1.0552277e-21)
(-9.1914417e-06 2.3183282e-05 -1.2366963e-21)
(-1.3655098e-05 3.3305449e-05 1.7876177e-21)
(-2.0379065e-05 4.7737267e-05 2.0586869e-22)
(-3.0565314e-05 6.8202616e-05 -4.5124568e-21)
(-4.6090737e-05 9.7026601e-05 -2.5398272e-21)
(-6.9913846e-05 0.00013730072 1.0332995e-20)
(-0.00010675627 0.00019310967 -1.0257994e-20)
(-0.00016429667 0.00026992571 1.240997e-20)
(-0.00025543793 0.00037541299 -1.0969498e-20)
(-0.00040285496 0.00052086125 4.2152649e-21)
(-0.00064686943 0.00072223622 1.276813e-20)
(-0.0010506557 0.00099544317 -1.9630848e-20)
(-0.0016710286 0.0013340881 -2.9677565e-20)
(-0.0024241873 0.0016623145 2.4514578e-20)
(-0.0027861187 0.001786822 1.6716444e-20)
(-0.0014441107 0.0014021084 -8.4332764e-20)
(0.0039163543 0.00019859876 4.6448205e-20)
(0.016201345 -0.0019596588 8.1624236e-20)
(0.038096696 -0.004910036 9.2988282e-21)
(0.071103572 -0.0082314786 1.4974999e-19)
(0.11512951 -0.011389045 1.7957792e-21)
(0.16838102 -0.013996042 -1.4419217e-19)
(0.2288282 -0.015757585 -4.2912912e-20)
(0.29247694 -0.016854857 1.9657078e-19)
(0.36030091 -0.016961537 1.9461487e-19)
(0.42138378 -0.017255221 2.0607001e-19)
(0.49717984 -0.015937173 -2.4394092e-20)
(-1.5819826e-07 2.1879568e-07 -2.3344504e-22)
(-1.8532023e-07 4.9102886e-07 5.2613556e-22)
(-2.8622308e-07 7.0253106e-07 -5.7445936e-22)
(-4.1423643e-07 1.0129505e-06 -4.8060055e-22)
(-6.0174683e-07 1.4601863e-06 1.5934824e-22)
(-8.7487831e-07 2.1054788e-06 2.0004225e-22)
(-1.2738765e-06 3.0368703e-06 1.0016919e-21)
(-1.8581093e-06 4.3816106e-06 -1.4641054e-22)
(-2.7161016e-06 6.3234997e-06 -5.9619418e-22)
(-3.9803001e-06 9.1277602e-06 -2.2433286e-23)
(-5.8499154e-06 1.3176346e-05 1.9394065e-21)
(-8.626287e-06 1.9017582e-05 -2.7298409e-21)
(-1.2768047e-05 2.7434953e-05 -3.138005e-22)
(-1.8977952e-05 3.9540654e-05 4.6728226e-22)
(-2.8340894e-05 5.6900101e-05 3.0081865e-21)
(-4.2545883e-05 8.1694315e-05 -1.3972218e-21)
(-6.424895e-05 0.00011693075 1.418902e-21)
(-9.7682119e-05 0.00016672916 1.9604158e-21)
(-0.00014972676 0.00023676239 -6.2487669e-21)
(-0.00023196552 0.00033504503 -2.2225066e-21)
(-0.00036481311 0.00047326771 2.8656214e-22)
(-0.00058480874 0.0006678808 1.1357777e-20)
(-0.00095051434 0.00093624407 4.5976023e-21)
(-0.001519751 0.0012764287 -1.1136149e-20)
(-0.0022292473 0.0016198344 5.4296856e-21)
(-0.0025931944 0.0017764741 6.0281236e-21)
(-0.0013349817 0.0014316663 1.8176122e-20)
(0.0039000893 0.0002504709 7.2182382e-20)
(0.016220734 -0.001923975 -5.5267835e-21)
(0.038606972 -0.0049116202 -6.2730381e-20)
(0.072778526 -0.0082201978 4.3256341e-20)
(0.11857293 -0.011247787 -8.3330758e-20)
(0.17410251 -0.013505791 5.8540478e-20)
(0.23629269 -0.014822357 3.2032329e-20)
(0.30249892 -0.015177944 7.2805303e-20)
(0.36913103 -0.01496184 -3.0509891e-19)
(0.43689269 -0.013999981 -1.0935626e-19)
(0.4971502 -0.013522793 -1.9340934e-20)
(0.56815899 -0.011484874 -1.2587717e-20)
(-2.1277155e-07 2.5216751e-07 1.3286505e-22)
(-2.5656376e-07 5.7892033e-07 -2.3589829e-22)
(-3.9353171e-07 8.2733696e-07 7.6286208e-23)
(-5.6984216e-07 1.1935055e-06 -1.8221965e-23)
(-8.2795352e-07 1.7213498e-06 4.716262e-22)
(-1.2040389e-06 2.4836175e-06 7.1885181e-23)
(-1.7536672e-06 3.5850222e-06 -1.182513e-21)
(-2.5589343e-06 5.1773183e-06 2.1633436e-22)
(-3.742415e-06 7.4804096e-06 -1.5220362e-22)
(-5.4878607e-06 1.0812912e-05 4.414556e-22)
(-8.0723267e-06 1.5636021e-05 4.6740805e-22)
(-1.1916157e-05 2.261612e-05 -1.4296819e-21)
(-1.7661482e-05 3.2713281e-05 4.0665422e-21)
(-2.6296826e-05 4.7305015e-05 -3.0478799e-21)
(-3.9357716e-05 6.8357526e-05 5.2492727e-21)
(-5.9255891e-05 9.8662121e-05 -2.5099302e-21)
(-8.9835593e-05 0.00014216921 -5.770503e-21)
(-0.00013736148 0.00020449463 7.4198915e-21)
(-0.00021240669 0.00029375954 -4.5841707e-21)
(-0.0003336367 0.00042192047 1.2075815e-21)
(-0.00053447802 0.00060587265 2.0334894e-20)
(-0.00086889858 0.00086417197 -2.4075541e-20)
(-0.0013928063 0.0011986785 3.597028e-21)
(-0.002057037 0.0015478572 -1.8907659e-20)
(-0.0024097889 0.0017278834 3.8020481e-20)
(-0.0012292336 0.0014201835 -4.4648795e-20)
(0.0038220977 0.00026980938 3.1601423e-20)
(0.015988347 -0.0019016934 2.7115483e-20)
(0.038461444 -0.0049062695 1.0766984e-20)
(0.073150677 -0.008195623 4.0366769e-20)
(0.1198846 -0.011092194 -8.5562449e-20)
(0.1765203 -0.013069667 -1.3343489e-19)
(0.23969285 -0.013933146 -4.0853373e-20)
(0.30613662 -0.013820098 8.9634743e-20)
(0.37333285 -0.012989758 1.0125457e-19)
(0.43869753 -0.01189746 1.1085029e-19)
(0.50290831 -0.010456461 -1.4159697e-21)
(0.55987496 -0.0096998458 1.801582e-20)
(0.62461844 -0.0076637893 -1.3019207e-20)
(-2.8390858e-07 2.9125637e-07 -4.5419301e-24)
(-3.5370384e-07 6.8641421e-07 -4.0056858e-22)
(-5.3902273e-07 9.800799e-07 2.6919952e-22)
(-7.8090279e-07 1.4146431e-06 1.6715151e-22)
(-1.1350894e-06 2.0414438e-06 4.9903078e-22)
(-1.6515084e-06 2.947519e-06 1.3860057e-22)
(-2.4068642e-06 4.2582727e-06 -2.5714057e-22)
(-3.5147539e-06 6.1560055e-06 -1.0636755e-21)
(-5.1452067e-06 8.9058447e-06 -8.0714416e-22)
(-7.5539733e-06 1.2893694e-05 2.2323187e-21)
(-1.112829e-05 1.8681397e-05 -2.2137194e-21)
(-1.6458803e-05 2.7086808e-05 1.0376104e-21)
(-2.4454005e-05 3.9299632e-05 1.2261232e-21)
(-3.6525124e-05 5.704868e-05 8.4463323e-22)
(-5.4891087e-05 8.2844375e-05 -3.5963691e-21)
(-8.3097731e-05 0.0001203376 8.793841e-22)
(-0.00012694799 0.00017487601 -8.581175e-23)
(-0.00019628087 0.00025440725 6.8347706e-21)
(-0.0003084691 0.00037085008 -1.7042826e-20)
(-0.00049451603 0.0005412636 2.7828316e-20)
(-0.00080415685 0.00078494593 -3.8689375e-21)
(-0.0012890304 0.0011066252 -1.9000333e-20)
(-0.0019062425 0.0014512882 -3.7030636e-21)
(-0.0022302209 0.0016428454 -6.1324589e-21)
(-0.0010930647 0.0013646428 4.4226947e-21)
(0.003787743 0.00024924569 1.2177886e-20)
(0.015711569 -0.0019038086 -1.9227545e-20)
(0.038008911 -0.0049049191 -1.9732303e-20)
(0.072725205 -0.0081621302 -6.212871e-20)
(0.11969225 -0.010932508 -8.5081919e-20)
(0.1765402 -0.012655515 4.7566502e-20)
(0.23970244 -0.013150897 1.5932714e-19)
(0.30560125 -0.012614171 -6.0805052e-20)
(0.37170344 -0.011430773 1.4652512e-20)
(0.4360454 -0.0099730968 -3.1936358e-20)
(0.49743738 -0.0086057136 -1.0387715e-20)
(0.55672234 -0.0072257092 -1.4307012e-20)
(0.60973752 -0.0065837818 7.0602317e-21)
(0.66872761 -0.0049228639 -7.0599657e-20)
(-3.7734095e-07 3.3738103e-07 1.0268605e-22)
(-4.8766951e-07 8.1930308e-07 2.8903676e-22)
(-7.3905506e-07 1.1693817e-06 -5.6622497e-22)
(-1.0712847e-06 1.6890782e-06 2.3350857e-22)
(-1.5583131e-06 2.4391374e-06 -3.696085e-23)
(-2.2692868e-06 3.5247346e-06 7.1415304e-22)
(-3.3106814e-06 5.0974941e-06 -1.1759815e-21)
(-4.840834e-06 7.3786677e-06 8.8164645e-22)
(-7.0976598e-06 1.0691488e-05 -4.2302963e-22)
(-1.044088e-05 1.5509111e-05 7.1691319e-22)
(-1.5418717e-05 2.2525431e-05 2.8174668e-22)
(-2.287442e-05 3.2760062e-05 -2.3432547e-21)
(-3.4119429e-05 4.7714743e-05 3.2953775e-21)
(-5.1221533e-05 6.960884e-05 2.2054264e-21)
(-7.7501165e-05 0.00010174228 5.6627514e-22)
(-0.00011843034 0.00014907555 -1.0097992e-20)
(-0.00018335288 0.00021917382 -3.4707533e-21)
(-0.00028878447 0.00032360079 4.3040564e-21)
(-0.0004638105 0.00047909017 1.0176531e-20)
(-0.00075439273 0.00070498052 -3.4071602e-21)
(-0.0012060578 0.0010074574 -9.6722167e-21)
(-0.0017735119 0.001336336 2.3608504e-20)
(-0.0020460975 0.0015239234 -1.2967622e-20)
(-0.00089776255 0.0012607696 -1.6819021e-20)
(0.0038783219 0.00017597408 8.4730158e-21)
(0.015573471 -0.0019466086 -4.8194814e-20)
(0.03757034 -0.004922575 5.0756069e-20)
(0.071982066 -0.0081293547 7.1079461e-21)
(0.11862599 -0.010772131 -8.2472498e-21)
(0.17496072 -0.012264995 2.9100632e-20)
(0.23730056 -0.012446906 2.0729692e-20)
(0.30192403 -0.011578862 -3.9455988e-20)
(0.36625909 -0.010111864 -1.1519299e-20)
(0.42860114 -0.0084959009 -1.5294049e-20)
(0.48827046 -0.0070072211 -3.2485718e-20)
(0.54499896 -0.0058383038 2.7270846e-20)
(0.59962531 -0.0048080359 -6.9757811e-21)
(0.64924602 -0.0044370826 -6.0286326e-21)
(0.70377762 -0.0031851557 1.1501196e-19)
(-5.0250688e-07 3.9318888e-07 2.1015598e-22)
(-6.7642622e-07 9.8777941e-07 -5.183233e-22)
(-1.0209141e-06 1.4105204e-06 5.4133464e-22)
(-1.4808296e-06 2.0393894e-06 -1.5021207e-22)
(-2.15633e-06 2.9475728e-06 2.7642442e-22)
(-3.1442601e-06 4.2641566e-06 -1.1423014e-22)
(-4.5943569e-06 6.1752035e-06 -1.4776438e-24)
(-6.7306541e-06 8.9535438e-06 1.3971903e-22)
(-9.8917959e-06 1.3000151e-05 1.310544e-21)
(-1.4593868e-05 1.8906415e-05 -3.2396561e-21)
(-2.1631441e-05 2.7548127e-05 -8.5516275e-22)
(-3.2243108e-05 4.0228933e-05 2.7308904e-22)
(-4.8390111e-05 5.8902988e-05 -2.3019059e-21)
(-7.3242904e-05 8.6529669e-05 6.9484874e-21)
(-0.00011207231 0.0001276555 -1.2065774e-22)
(-0.00017394945 0.00018936566 7.4661717e-22)
(-0.00027490607 0.00028264715 2.8711962e-21)
(-0.0004426823 0.00042341467 -5.4834931e-21)
(-0.00071886499 0.00062993469 -1.2969507e-20)
(-0.0011414963 0.00090802636 2.1892669e-20)
(-0.0016532911 0.0012101112 -1.8814292e-20)
(-0.0018445347 0.001375698 -1.2115546e-20)
(-0.00061233345 0.001106778 2.6002898e-20)
(0.0041735212 3.9878744e-05 -2.0578918e-20)
(0.01574447 -0.0020462057 3.3946297e-20)
(0.03744252 -0.0049727743 9.9267405e-21)
(0.071370248 -0.0081012592 -6.8132231e-20)
(0.1172874 -0.010604713 -1.2371444e-20)
(0.17254331 -0.011879862 6.4474714e-20)
(0.2333567 -0.011798429 -4.0626614e-20)
(0.29608864 -0.01067235 2.0021276e-20)
(0.35808881 -0.0090155039 3.3839006e-21)
(0.41803233 -0.0072965513 1.8903702e-20)
(0.47547882 -0.0058212124 -2.2233375e-21)
(0.53049491 -0.004679806 2.9134478e-20)
(0.58320652 -0.003895257 -1.0971823e-20)
(0.63420372 -0.0032442945 -8.1590621e-21)
(0.68134989 -0.0031065522 -5.3660671e-21)
(0.73257558 -0.0021334749 -2.5506955e-21)
(-6.7547434e-07 4.6282711e-07 -7.4997471e-23)
(-9.4846203e-07 1.207635e-06 7.0797209e-22)
(-1.430264e-06 1.7274917e-06 8.0501894e-23)
(-2.0760814e-06 2.5015e-06 -3.0111186e-22)
(-3.0273466e-06 3.6195698e-06 -1.3456083e-22)
(-4.4223259e-06 5.2438958e-06 -1.8647151e-21)
(-6.4760224e-06 7.6077249e-06 1.7079398e-21)
(-9.5130743e-06 1.1055294e-05 -1.9327863e-21)
(-1.4028844e-05 1.6096825e-05 2.5425437e-21)
(-2.078767e-05 2.3493059e-05 -3.2635465e-21)
(-3.0985807e-05 3.4387011e-05 5.9512954e-21)
(-4.6529696e-05 5.0513808e-05 -8.3901428e-21)
(-7.0529549e-05 7.4543803e-05 2.4994172e-21)
(-0.00010820961 0.000110654 -2.148316e-21)
(-0.00016861539 0.00016545345 -1.45544e-21)
(-0.00026762914 0.00024924332 1.1501479e-20)
(-0.00043193627 0.00037673345 3.0532103e-21)
(-0.00069885409 0.00056390063 -7.5452821e-21)
(-0.0010928526 0.00081369427 3.0254617e-21)
(-0.0015385629 0.0010784904 -1.2819546e-20)
(-0.0016087641 0.0012030795 2.2676036e-21)
(-0.00019460646 0.00090292832 1.676454e-20)
(0.0047635157 -0.0001663839 2.0844637e-20)
(0.016392664 -0.0022146843 -1.923478e-20)
(0.037908585 -0.0050637922 1.3932095e-20)
(0.071301347 -0.0080740526 -5.321506e-20)
(0.11623098 -0.010408506 3.7604602e-20)
(0.16994687 -0.011468926 1.2561245e-21)
(0.22866635 -0.011160072 -4.0967594e-20)
(0.28892966 -0.0098438891 5.0085532e-20)
(0.34816145 -0.0080764381 -5.6443582e-20)
(0.40534916 -0.0063304665 5.9150201e-21)
(0.46035743 -0.0048939533 2.8380277e-20)
(0.513402 -0.0038465804 -1.3253639e-20)
(0.56474931 -0.0031346902 -2.5972477e-22)
(0.61449888 -0.0026896008 2.2570626e-21)
(0.66288726 -0.0023081518 1.2590852e-20)
(0.70828859 -0.0022950263 7.6794826e-20)
(0.75692427 -0.0014693315 2.383266e-20)
(-9.1885787e-07 5.5180591e-07 4.4290256e-22)
(-1.353828e-06 1.5018791e-06 -3.7323634e-22)
(-2.0438999e-06 2.156241e-06 3.7485443e-22)
(-2.9719243e-06 3.1296369e-06 -1.2331492e-21)
(-4.3437093e-06 4.5364139e-06 1.4987736e-21)
(-6.3641689e-06 6.5867279e-06 -7.5409069e-23)
(-9.3536683e-06 9.5823832e-06 -2.957865e-22)
(-1.3802824e-05 1.3973162e-05 -9.7511651e-22)
(-2.0472362e-05 2.043471e-05 3.6542194e-22)
(-3.0560813e-05 2.9992151e-05 2.6984721e-21)
(-4.5995834e-05 4.4221334e-05 -2.857958e-21)
(-6.99571e-05 6.558327e-05 -1.2055544e-22)
(-0.00010783519 9.7978743e-05 -5.4330749e-21)
(-0.00016895302 0.00014761019 6.1416369e-22)
(-0.00026931135 0.00022403527 9.7067024e-21)
(-0.00043444831 0.0003403865 5.5804647e-22)
(-0.00069579483 0.00050935324 -4.2417652e-22)
(-0.0010607775 0.00072816689 -1.8798872e-21)
(-0.001414854 0.00094457163 -5.5015141e-23)
(-0.0012981851 0.0010075418 2.7564836e-21)
(0.00041952708 0.00064909125 -8.1790602e-21)
(0.0057661221 -0.00044665308 9.0006858e-21)
(0.017707816 -0.002459009 -5.7292816e-20)
(0.039247541 -0.0051971048 -1.6081783e-20)
(0.072156522 -0.0080342164 5.906094e-20)
(0.11592331 -0.010153835 9.7857112e-21)
(0.16772884 -0.010985587 2.1267834e-20)
(0.22386523 -0.010478135 2.2132399e-21)
(0.28112747 -0.0090350316 1.06806e-20)
(0.33721228 -0.0072295792 6.8524316e-21)
(0.3913691 -0.0055247584 2.9749509e-20)
(0.44372285 -0.0041680058 -1.7963973e-20)
(0.49464977 -0.0032132815 1.5002458e-21)
(0.54443859 -0.0025952478 1.5423517e-21)
(0.59320078 -0.0022084593 2.7632673e-21)
(0.64084831 -0.0019718907 6.6759781e-21)
(0.68732492 -0.0017379346 -1.3228378e-20)
(0.73140303 -0.0017609143 -7.6347592e-21)
(0.77784203 -0.0010120386 -1.3718948e-19)
(-1.28493e-06 6.7516492e-07 -4.2274192e-22)
(-2.0000202e-06 1.9256971e-06 -5.0549925e-22)
(-3.0322855e-06 2.7818911e-06 1.6177835e-23)
(-4.4242139e-06 4.0519538e-06 -3.9858865e-22)
(-6.4909984e-06 5.8891236e-06 1.3707887e-21)
(-9.5559703e-06 8.5794103e-06 4.7706907e-22)
(-1.4127864e-05 1.2534295e-05 3.5768527e-23)
(-2.1002379e-05 1.8376311e-05 8.5512979e-23)
(-3.144492e-05 2.7060277e-05 2.2816148e-22)
(-4.7511904e-05 4.0072067e-05 -4.8455747e-21)
(-7.2626941e-05 5.975845e-05 6.2313106e-21)
(-0.00011260547 8.9855484e-05 -1.3797358e-21)
(-0.0001773447 0.00013623062 -1.9497611e-21)
(-0.00028299009 0.00020756215 5.9606166e-21)
(-0.00045255292 0.00031482912 7.3894471e-22)
(-0.00070833824 0.00046610453 -5.3242119e-21)
(-0.0010313542 0.00065042427 -1.3442516e-20)
(-0.0012524416 0.00080604129 1.2934584e-20)
(-0.00084029931 0.00078410779 -4.9834034e-21)
(0.0013492563 0.00033966221 2.6661042e-21)
(0.0073499832 -0.00080352986 7.856464e-21)
(0.019922123 -0.0027781273 -2.8270692e-20)
(0.041754334 -0.0053645652 5.5518853e-20)
(0.074277263 -0.0079570351 -3.7038228e-20)
(0.11673281 -0.0097985431 4.486069e-20)
(0.1662937 -0.010375569 -2.5118893e-20)
(0.21939069 -0.009695269 8.0747188e-21)
(0.27320666 -0.0081869263 -2.4903706e-20)
(0.3257821 -0.0064187465 3.0533197e-20)
(0.3766802 -0.0048176155 4.9567618e-21)
(0.42620564 -0.0035814881 -9.7918352e-21)
(0.47484606 -0.0027296359 1.7205234e-21)
(0.52291254 -0.0021893201 -1.9704815e-21)
(0.57047307 -0.0018610205 1.5561428e-20)
(0.61741213 -0.0016572457 -1.29863e-21)
(0.66348354 -0.0015201736 2.1222324e-20)
(0.70845936 -0.0013562176 -2.2646457e-20)
(0.75143336 -0.0013700335 1.8875487e-20)
(0.79593047 -0.00067747572 3.4319125e-20)
(-1.8630564e-06 8.5413001e-07 3.6364557e-22)
(-3.0876851e-06 2.565177e-06 1.4853701e-22)
(-4.7195573e-06 3.7419594e-06 -1.2632082e-21)
(-6.9266017e-06 5.4802324e-06 1.0070574e-21)
(-1.0223889e-05 8.0002314e-06 5.6277063e-22)
(-1.516644e-05 1.1718441e-05 3.1515332e-22)
(-2.2637809e-05 1.7239953e-05 -1.0241177e-21)
(-3.4061587e-05 2.5500248e-05 1.2921168e-21)
(-5.177402e-05 3.7969253e-05 -5.0711779e-22)
(-7.9669525e-05 5.6974011e-05 -3.4241983e-21)
(-0.00012425582 8.6171014e-05 3.0293875e-21)
(-0.00019611036 0.00013107993 4.2952708e-21)
(-0.00031092892 0.00019916763 -6.6948709e-21)
(-0.00048655139 0.0002980145 8.0474054e-21)
(-0.00072605907 0.00042909631 9.3185147e-22)
(-0.00097364493 0.00057144928 -5.3770156e-21)
(-0.00098257817 0.00065137789 7.4074253e-21)
(-0.00012078579 0.00052042091 -1.0424114e-20)
(0.0027919855 -3.7059713e-05 5.6944198e-21)
(0.00977602 -0.001242262 -9.6810556e-21)
(0.023336547 -0.0031631259 -1.637976e-20)
(0.045742817 -0.0055437816 -1.7769735e-20)
(0.077967965 -0.0078058982 4.9654978e-20)
(0.11891414 -0.0092874691 -3.0200296e-20)
(0.16586492 -0.0095797873 -1.0634177e-20)
(0.21553458 -0.0087540757 9.67744e-21)
(0.26547217 -0.0072512289 -7.8991223e-21)
(0.314237 -0.0055980763 -1.5504547e-21)
(0.36167779 -0.0041634752 -2.4576441e-21)
(0.40824784 -0.0030862968 -4.1503283e-21)
(0.45445688 -0.0023514944 -1.477126e-21)
(0.5006137 -0.0018821144 -6.2701596e-22)
(0.54675962 -0.0015945832 1.1277401e-20)
(0.59274096 -0.0014178841 -2.3736551e-20)
(0.63829357 -0.001299632 -1.1814157e-20)
(0.68309003 -0.0012040773 -1.8989986e-20)
(0.7268228 -0.0010737296 1.7279163e-20)
(0.76882386 -0.0010624829 -2.0070062e-20)
(0.81159896 -0.00042870854 1.3711184e-19)
(-2.848808e-06 1.1351884e-06 -2.320892e-22)
(-5.0951568e-06 3.6112789e-06 -1.1108884e-21)
(-7.8895617e-06 5.3464601e-06 1.9297317e-21)
(-1.1704807e-05 7.8987915e-06 -1.4820568e-21)
(-1.746457e-05 1.1621446e-05 -8.49208e-23)
(-2.6248302e-05 1.7181742e-05 4.2160257e-22)
(-3.9795829e-05 2.5562782e-05 1.9926037e-21)
(-6.0953992e-05 3.8296203e-05 -4.3263035e-21)
(-9.4360408e-05 5.775723e-05 3.1570551e-21)
(-0.00014734366 8.7496993e-05 -2.5815138e-21)
(-0.00023054742 0.00013238464 -1.5781086e-23)
(-0.00035651577 0.00019789766 5.5059369e-21)
(-0.0005315992 0.0002868165 -1.0351762e-20)
(-0.0007270091 0.00039090021 1.1410352e-20)
(-0.00081890968 0.00047489655 -8.2050077e-21)
(-0.00045897449 0.00045622284 6.0787833e-21)
(0.0010730328 0.00019424614 -1.3835028e-20)
(0.005065641 -0.00049386947 1.350118e-20)
(0.013427309 -0.0017590177 -7.9351119e-21)
(0.028334964 -0.0035850122 2.1718776e-20)
(0.051524164 -0.0056829271 -1.3672815e-20)
(0.08342914 -0.0075224684 -6.5782003e-21)
(0.12259537 -0.0085610838 6.3069346e-21)
(0.16646866 -0.0085428474 1.9496732e-20)
(0.21234519 -0.0076147295 1.0125927e-20)
(0.25801932 -0.0061987127 -8.0293229e-21)
(0.30273626 -0.0047408586 1.2901597e-20)
(0.34660097 -0.0035346947 -7.8765284e-21)
(0.39013146 -0.0026502296 -4.1161715e-22)
(0.43380838 -0.0020451115 -2.4342402e-21)
(0.4778866 -0.0016456892 -3.8130036e-21)
(0.52239107 -0.0013885987 -7.5380047e-22)
(0.5671611 -0.0012260491 -1.1934976e-20)
(0.61192348 -0.0011199986 1.2852274e-20)
(0.65634659 -0.0010406406 -3.1461412e-20)
(0.7000695 -0.00096324182 5.4687963e-20)
(0.74275081 -0.00085079035 -6.2295041e-20)
(0.78388 -0.00081181847 8.5063998e-20)
(0.82515077 -0.00024547821 -1.7957023e-19)
(-4.7491285e-06 1.6280862e-06 9.5659331e-23)
(-9.2454673e-06 5.5199763e-06 -6.6622592e-22)
(-1.464864e-05 8.3510937e-06 3.7569103e-22)
(-2.2117567e-05 1.2509501e-05 -3.6501376e-22)
(-3.3534272e-05 1.8617351e-05 6.3859636e-22)
(-5.1217953e-05 2.7830555e-05 1.6587245e-21)
(-7.874382e-05 4.1788182e-05 -1.2266833e-22)
(-0.00012146616 6.2837892e-05 -3.7691765e-21)
(-0.00018666464 9.4089199e-05 5.1641065e-22)