/*--------------------------------*- C++ -*----------------------------------*\
  =========                 |
  \\      /  F ield         | OpenFOAM: The Open Source CFD Toolbox
   \\    /   O peration     | Website:  https://openfoam.org
    \\  /    A nd           | Version:  13
     \\/     M anipulation  |
\*---------------------------------------------------------------------------*/
FoamFile
{
    format      ascii;
    class       volVectorField;
    location    "20.003035";
    object      wallShearStress;
}
// * * * * * * * * * * * * * * * * * * * * * * * * * * * * * * * * * * * * * //

dimensions      [0 2 -2 0 0 0 0];

internalField   uniform (0 0 0);

boundaryField
{
    inlet
    {
        type            calculated;
        value           uniform (0 0 0);
    }
    outlet
    {
        type            calculated;
        value           uniform (0 0 0);
    }
    cylinder
    {
        type            calculated;
        value           nonuniform List<vector> 
132
(
(7.2652435e-05 -0.0040047568 -2.0209177e-22)
(0.00023771271 -0.0054052577 5.7742148e-23)
(0.00048141046 -0.0067531988 3.2037441e-21)
(0.00079652083 -0.0080113789 -1.0810622e-20)
(0.0011732082 -0.0091404143 7.6803308e-21)
(0.001596662 -0.010099207 2.3634328e-20)
(0.0020470479 -0.010848565 -4.5113156e-21)
(0.0025001203 -0.01135414 -1.8004737e-20)
(0.0029290397 -0.011590092 1.708868e-20)
(0.0033050884 -0.011541437 -3.8551223e-20)
(0.0036003254 -0.011207113 -7.050484e-22)
(0.0037898851 -0.010600735 2.4156731e-20)
(0.0038554037 -0.009753273 3.9473553e-20)
(0.0037868403 -0.0087099555 -3.2071089e-20)
(0.003584317 -0.0075277886 3.3721457e-20)
(0.0032598115 -0.0062731518 5.4115179e-20)
(0.0028362611 -0.0050147058 -3.5310255e-20)
(0.0023449654 -0.0038177575 5.6349073e-20)
(0.001823218 -0.0027380287 7.4076664e-20)
(0.0013078588 -0.0018142172 -4.7766182e-20)
(0.00083393074 -0.0010699901 -6.0523129e-20)
(0.00042661846 -0.00050770386 2.1204641e-23)
(0.00012010377 -0.00013471581 8.684278e-21)
(-5.3000937e-05 5.1229452e-05 -1.0346164e-20)
(-3.4529364e-05 3.3497791e-05 -1.7525487e-20)
(0.00020009312 -0.00016380143 3.7335942e-21)
(0.00071519977 -0.00054572666 -3.3605342e-20)
(0.0014628247 -0.0010242251 8.9697185e-21)
(0.0022865764 -0.0014593824 7.0479356e-21)
(0.0030411765 -0.0017573682 -4.864751e-20)
(0.0035927328 -0.0018646591 6.3642884e-20)
(0.0039383347 -0.001817544 1.930348e-21)
(0.0041516235 -0.0016821924 1.3934068e-20)
(0.004282448 -0.0014989121 -1.6529056e-20)
(0.0042716091 -0.0012639105 5.2583836e-20)
(0.0039769778 -0.00096518683 -3.3310784e-21)
(0.0032218519 -0.00061394664 1.3464611e-20)
(0.0018008335 -0.00025504462 -1.8534902e-21)
(-0.00048413578 1.9513659e-05 2.6674263e-21)
(-0.0038626719 7.6768441e-05 -1.6695765e-21)
(-0.0086716196 -0.000294513 3.1315313e-21)
(-0.014949644 -0.0013941481 -9.7129555e-23)
(-0.022228945 -0.0034246203 3.5821894e-20)
(-0.030095224 -0.0065056445 -1.3890882e-20)
(-0.038001323 -0.010641088 1.2612813e-20)
(-0.045457332 -0.015735416 -8.1496017e-20)
(-0.051978472 -0.021580105 -1.3208905e-20)
(-0.057242252 -0.027917232 1.1639965e-19)
(-0.061007671 -0.034448423 -9.9448843e-20)
(-0.063180917 -0.040882338 -1.8972361e-21)
(-0.06373388 -0.046920915 3.0111705e-20)
(-0.062771408 -0.05232905 -2.7117668e-20)
(-0.060386027 -0.056849118 -5.1818482e-21)
(-0.056778105 -0.060311084 -3.0786082e-21)
(-0.052181651 -0.062596078 -3.242668e-21)
(-0.04678958 -0.063558469 -4.9080071e-21)
(-0.040869567 -0.063166761 6.9345616e-22)
(-0.034657906 -0.061387797 5.2264793e-20)
(-0.028400084 -0.058245889 -7.7623995e-20)
(-0.022327694 -0.053797014 -8.1656208e-20)
(-0.016657657 -0.048133747 -3.2881028e-20)
(-0.011586107 -0.041380006 -7.503043e-20)
(-0.0072846279 -0.03368936 1.6696326e-20)
(-0.0038932556 -0.025237556 2.4263316e-20)
(-0.0015271296 -0.016241024 -3.7701198e-20)
(-0.00024671932 -0.0068571817 -5.0396518e-21)
(-1.6277256e-05 -0.0025705462 -9.2732007e-22)
(-2.7135597e-05 -0.0011058027 -5.5182704e-23)
(4.4083962e-05 0.00037216629 -3.1672153e-21)
(0.00019521258 0.0018334992 1.0635674e-20)
(0.0004269424 0.00324113 -7.5283161e-21)
(0.00072935942 0.0045536353 -2.3099644e-20)
(0.001089094 0.0057275713 4.400558e-21)
(0.0014873196 0.0067197287 1.7545647e-20)
(0.0019000906 0.0074910926 -1.6654818e-20)
(0.0023000638 0.0080104755 3.7616884e-20)
(0.0026582966 0.0082579352 6.8940256e-22)
(0.0029462129 0.0082275641 -2.3696084e-20)
(0.0031385791 0.00792928 -3.8870272e-20)
(0.0032164907 0.007389647 3.1721491e-20)
(0.0031702425 0.0066513193 -3.3515136e-20)
(0.0030009894 0.0057695601 -5.4054753e-20)
(0.0027216347 0.004808008 3.5448356e-20)
(0.0023563157 0.0038332077 -5.6845128e-20)
(0.0019376853 0.002907152 -7.5069092e-20)
(0.0015007098 0.0020789437 4.8607624e-20)
(0.0010833894 0.0013867489 6.181951e-20)
(0.00071645911 0.00084747445 5.5233251e-20)
(0.0004395259 0.00047995867 4.5262123e-20)
(0.00028156727 0.00028234364 1.0663952e-20)
(0.00030853752 0.00028190897 1.810257e-20)
(0.00055539474 0.00046447401 -3.8654355e-21)
(0.0010402545 0.00079786988 3.4865862e-20)
(0.0017009486 0.0011937918 -9.3205899e-21)
(0.0023955357 0.0015308651 -7.3299876e-21)
(0.0030092139 0.0017401557 5.0604217e-20)
(0.003447147 0.0017897644 -6.6186206e-20)
(0.0037305337 0.0017219238 -1.9953603e-21)
(0.0039088427 0.0015840645 3.2965912e-20)
(0.0039893044 0.001396826 1.7196812e-20)
(0.0038824168 0.0011497699 -5.4741351e-20)
(0.003435014 0.00083544105 3.4695238e-21)
(0.0024717843 0.00047436001 1.0229959e-20)
(0.00078511101 0.00011998683 1.9304528e-21)
(-0.0018098737 -0.00012751412 -2.7750658e-21)
(-0.0055034485 -0.00011835825 1.7334107e-21)
(-0.01064541 0.00035646336 -3.2396743e-21)
(-0.01720036 0.0015999637 2.6348136e-20)
(-0.024623446 0.0037897128 -3.6600194e-20)
(-0.032500289 0.0070218794 1.4077201e-20)
(-0.040266921 0.011272205 -1.2665563e-20)
(-0.047454662 0.016423943 8.1028945e-20)
(-0.05361897 0.022257562 1.2991561e-20)
(-0.05847135 0.028512876 -1.1312555e-19)
(-0.061800238 0.034892289 9.5328751e-20)
(-0.063549406 0.041117206 1.7884323e-21)
(-0.063691805 0.046886427 -2.7751529e-20)
(-0.062380908 0.052000046 2.4181062e-20)
(-0.059668988 0.056170253 -3.4992115e-20)
(-0.055793788 0.059261836 2.2015467e-21)
(-0.051017668 0.06119575 2.5714159e-22)
(-0.045479966 0.061774902 7.9808529e-21)
(-0.03948092 0.061015274 -8.5754922e-22)
(-0.03324466 0.05887833 -5.9631298e-20)
(-0.027015364 0.05539824 8.5140657e-20)
(-0.021020917 0.050638466 8.7425318e-20)
(-0.015472646 0.044696009 3.4616202e-20)
(-0.010561761 0.037701785 7.7984786e-20)
(-0.0064529996 0.029811523 -1.7174298e-20)
(-0.003280041 0.021207876 4.9057703e-20)
(-0.0011502115 0.012093479 3.8127474e-20)
(-0.00012386746 0.0026904317 5.0614345e-21)
)
;
    }
    frontAndBack
    {
        type            empty;
    }
}


// ************************************************************************* //
