/*--------------------------------*- C++ -*----------------------------------*\
  =========                 |
  \\      /  F ield         | OpenFOAM: The Open Source CFD Toolbox
   \\    /   O peration     | Website:  https://openfoam.org
    \\  /    A nd           | Version:  13
     \\/     M anipulation  |
\*---------------------------------------------------------------------------*/
FoamFile
{
    format      ascii;
    class       volScalarField;
    location    "49.201388";
    object      nut;
}
// * * * * * * * * * * * * * * * * * * * * * * * * * * * * * * * * * * * * * //

dimensions      [0 2 -1 0 0 0 0];

internalField   nonuniform List<scalar> 
17140
(
1.4352623e-18
2.7913954e-16
7.4349763e-15
7.5374947e-14
4.5584026e-13
2.0195882e-12
7.292611e-12
2.2820269e-11
6.4292823e-11
1.6725252e-10
4.088356e-10
9.5094794e-10
2.1244739e-09
4.5911016e-09
9.6504829e-09
1.9817178e-08
3.9894665e-08
7.8959193e-08
1.5399935e-07
2.9655299e-07
5.6474413e-07
1.0650039e-06
1.9910791e-06
3.6937482e-06
6.8047507e-06
1.2455604e-05
2.2660194e-05
4.0973105e-05
7.35906e-05
0.0001310958
0.00023095552
0.00040037886
0.00067792045
0.0011104451
0.0017425912
0.0026003612
0.0036769227
0.0049293816
0.0062874242
0.0076679917
0.0089903991
0.010179613
0.011179209
0.012012251
0.012688467
0.013203871
0.013590474
0.01387891
0.014090491
0.014233564
0.014303169
0.014286848
0.014129561
0.013709696
0.012894149
0.011697553
0.010403214
0.009971746
0.01173747
0.014568026
0.014200068
0.0039132855
0.0023455039
0.0030118831
0.0051841748
1.4349289e-18
2.7907445e-16
7.4332458e-15
7.5357353e-14
4.5573181e-13
2.0190877e-12
7.2906915e-12
2.2813789e-11
6.4272893e-11
1.6719541e-10
4.0868088e-10
9.5054706e-10
2.123472e-09
4.5886691e-09
9.6447111e-09
1.9803724e-08
3.9863723e-08
7.88887e-08
1.5383976e-07
2.961931e-07
5.639344e-07
1.0631849e-06
1.9869997e-06
3.6846236e-06
6.7844282e-06
1.2410639e-05
2.2561649e-05
4.0759967e-05
7.313788e-05
0.00013015864
0.0002290812
0.00039679503
0.00067144654
0.0010996461
0.0017261811
0.0025776789
0.0036482604
0.0048958385
0.0062501922
0.0076277291
0.0089468585
0.010131677
0.011125136
0.011950496
0.012614108
0.013113245
0.013478429
0.013738636
0.013912469
0.014003627
0.014002513
0.013890782
0.013597199
0.012937349
0.011800063
0.010125852
0.0082552922
0.007306666
0.0093853697
0.013730512
0.016197336
0.0058324566
0.0025999436
0.0033844431
0.0061998966
1.4231463e-18
2.7678284e-16
7.3722011e-15
7.4738205e-14
4.5198314e-13
2.0024472e-12
7.2304398e-12
2.262459e-11
6.373759e-11
1.6579591e-10
4.0524014e-10
9.4249096e-10
2.1053382e-09
4.5491426e-09
9.5608016e-09
1.9629435e-08
3.9508141e-08
7.8173788e-08
1.5241919e-07
2.9339606e-07
5.5846454e-07
1.0525382e-06
1.9663348e-06
3.6445653e-06
6.7067923e-06
1.226014e-05
2.2269966e-05
4.0195686e-05
7.2051744e-05
0.00012808985
0.00022521417
0.00038978558
0.00065931534
0.0010799455
0.0016965761
0.002536763
0.0035960944
0.004833779
0.0061802061
0.007551518
0.0088651734
0.010044529
0.011031816
0.011848583
0.012498945
0.012981092
0.013323937
0.013554349
0.013688254
0.013725219
0.013652258
0.013447838
0.01299892
0.012105492
0.010642907
0.0084700782
0.0058842013
0.0042084491
0.0061829826
0.011942763
0.016818282
0.010321589
0.0035830398
0.0038223261
0.007059243
1.3992174e-18
2.7212894e-16
7.2482362e-15
7.3481181e-14
4.4437697e-13
1.9687171e-12
7.1084828e-12
2.2242316e-11
6.2658377e-11
1.629816e-10
3.9834133e-10
9.2639202e-10
2.0692371e-09
4.4707884e-09
9.3952741e-09
1.9287531e-08
3.8815075e-08
7.679077e-08
1.4969511e-07
2.8808771e-07
5.4820922e-07
1.0328595e-06
1.9287667e-06
3.5731082e-06
6.5712216e-06
1.2003403e-05
2.1784624e-05
3.9280575e-05
7.0334661e-05
0.0001248973
0.00021937448
0.00037939048
0.00064156766
0.0010513525
0.0016537074
0.0024773782
0.0035199615
0.0047426079
0.0060768037
0.0074386615
0.0087446779
0.0099175817
0.010898829
0.011706312
0.012342904
0.012807398
0.013127004
0.013326576
0.013419422
0.013401707
0.013258824
0.012966417
0.012356175
0.011266665
0.0094825905
0.0068479091
0.003669843
0.0017103403
0.0030571881
0.0089259709
0.016412287
0.015461932
0.0061757251
0.0048433935
0.0077102093
1.3630952e-18
2.6510364e-16
7.0611096e-15
7.1583863e-14
4.3289893e-13
1.9178354e-12
6.924606e-12
2.1666333e-11
6.1033595e-11
1.5874857e-10
3.8797601e-10
9.0223372e-10
2.01514e-09
4.3535645e-09
9.1480895e-09
1.8778047e-08
3.7784872e-08
7.474097e-08
1.4567158e-07
2.8027916e-07
5.3319715e-07
1.00422e-06
1.8744655e-06
3.4706499e-06
6.3786237e-06
1.1642453e-05
2.1110043e-05
3.8024047e-05
6.8006106e-05
0.00012061987
0.00021163566
0.00036573773
0.0006183997
0.0010141234
0.001597837
0.0023996841
0.0034197944
0.0046219322
0.0059392447
0.0072881261
0.0085841396
0.009749451
0.010724743
0.011522377
0.012144757
0.012591101
0.012886878
0.013055084
0.01310676
0.013035725
0.012828013
0.0124487
0.011715158
0.010456352
0.0084132147
0.005459277
0.0022444765
0.00098388577
0.0015268678
0.0048417177
0.01504685
0.017339647
0.010858914
0.0071622206
0.0087420883
1.3151314e-18
2.5577531e-16
6.8126425e-15
6.9064708e-14
4.1766066e-13
1.8502979e-12
6.6806051e-12
2.0902285e-11
5.8879219e-11
1.5313862e-10
3.7424709e-10
8.7025739e-10
1.943591e-09
4.1986603e-09
8.821781e-09
1.8106268e-08
3.6428366e-08
7.2046304e-08
1.4039245e-07
2.7005755e-07
5.1360044e-07
9.6695846e-07
1.8040976e-06
3.3384995e-06
6.1315712e-06
1.1182347e-05
2.0256143e-05
3.6445468e-05
6.5103497e-05
0.00011532844
0.00020212751
0.00034905202
0.00059016875
0.00096876172
0.0015295679
0.0023042555
0.0032959685
0.0044717779
0.0057671357
0.0070991161
0.0083824384
0.0095387075
0.010507891
0.011295147
0.011902808
0.012330503
0.012601984
0.012738641
0.012749841
0.012628533
0.012363937
0.011910296
0.011099588
0.0097189025
0.0075347023
0.0045547395
0.0017997436
0.000794711
0.00077153085
0.0028079924
0.011434098
0.017819941
0.01593735
0.0109618
0.010723676
1.2560559e-18
2.4428593e-16
6.5066165e-15
6.5962063e-14
3.9889422e-13
1.7671333e-12
6.3801996e-12
1.9961827e-11
5.6228158e-11
1.4623756e-10
3.573649e-10
8.3095383e-10
1.8556909e-09
4.0084656e-09
8.4213997e-09
1.7282634e-08
3.4766746e-08
6.8749122e-08
1.3394135e-07
2.5758627e-07
4.8973595e-07
9.2168581e-07
1.7188356e-06
3.1789024e-06
5.8343557e-06
1.0631274e-05
1.9238526e-05
3.4574445e-05
6.1682582e-05
0.00010912643
0.00019103672
0.0003296556
0.00055739325
0.00091602137
0.0014498568
0.0021921162
0.0031493602
0.0042926627
0.0055605031
0.0068711355
0.008138607
0.0092838952
0.01024633
0.011022576
0.011614757
0.012023075
0.012269633
0.012374599
0.012346545
0.012179804
0.011869694
0.01136515
0.010181566
0.0090808312
0.0068966177
0.0040532611
0.0017454072
0.00075185742
0.00041982912
0.0016930474
0.0062976189
0.016823561
0.018465388
0.015531737
0.014353645
1.1869697e-18
2.3084961e-16
6.148734e-15
6.2333746e-14
3.769494e-13
1.6698923e-12
6.0289914e-12
1.8862504e-11
5.3129887e-11
1.3817426e-10
3.3764489e-10
7.8505811e-10
1.7530855e-09
3.786546e-09
7.9544636e-09
1.6322642e-08
3.2831355e-08
6.491182e-08
1.2644083e-07
2.4310348e-07
4.620623e-07
8.6927888e-07
1.6203467e-06
2.9950149e-06
5.4929342e-06
1.0000448e-05
1.8078239e-05
3.2450326e-05
5.7816395e-05
0.00010214765
0.00017860299
0.00030796162
0.00052074367
0.00085689881
0.0013600204
0.0020647684
0.0029814076
0.0040856816
0.0053198876
0.0066040752
0.0078518982
0.0089835813
0.0099378147
0.010702113
0.011277538
0.01166523
0.011885703
0.011958515
0.011893124
0.011564403
0.010772275
0.010273968
0.0089703077
0.0085354375
0.0064621424
0.003793163
0.0017694202
0.00074701381
0.0003050941
0.0010650659
0.0037581396
0.012951502
0.018559607
0.018877405
0.018144417
1.1093194e-18
2.1574763e-16
5.7464846e-15
5.8255695e-14
3.5228557e-13
1.5606105e-12
5.6343334e-12
1.7627332e-11
4.9649285e-11
1.291176e-10
3.1550024e-10
7.3353214e-10
1.6379261e-09
3.5375571e-09
7.4307758e-09
1.5246467e-08
3.0662918e-08
6.0615277e-08
1.1804933e-07
2.2691595e-07
4.3116777e-07
8.1085679e-07
1.5107461e-06
2.790814e-06
5.1147516e-06
9.3037558e-06
1.6801094e-05
3.0120876e-05
5.3592736e-05
9.4551664e-05
0.0001651107
0.00028446064
0.0004810236
0.00079261297
0.0012617238
0.0019242089
0.0027941661
0.0038525998
0.0050464613
0.0062983331
0.0075218903
0.0086364859
0.0095797562
0.010330578
0.010887066
0.01125211
0.011444294
0.011483845
0.011229371
0.010379684
0.0094640211
0.0085154416
0.0076820044
0.0080267479
0.0060506213
0.003602107
0.0016994906
0.00065022072
0.00028220461
0.00064741443
0.0025948079
0.0070118392
0.016356844
0.018842547
0.018884947
1.0248525e-18
1.9931994e-16
5.3089258e-15
5.3819732e-14
3.25458e-13
1.4417481e-12
5.2051104e-12
1.628412e-11
4.5864712e-11
1.1927147e-10
2.9142948e-10
6.7753598e-10
1.5128056e-09
3.2671062e-09
6.8621325e-09
1.4078358e-08
2.8310321e-08
5.5956425e-08
1.0895634e-07
2.0938973e-07
3.977522e-07
7.4774604e-07
1.3925296e-06
2.5709671e-06
4.7084922e-06
8.5572836e-06
1.5436764e-05
2.7640569e-05
4.9110979e-05
8.6517955e-05
0.00015087859
0.00025970314
0.00043914236
0.0007245692
0.0011569479
0.0017729209
0.0025903476
0.0035959478
0.004742166
0.0059549703
0.0071486181
0.0082414327
0.009169524
0.0099039853
0.010437768
0.010777515
0.010937358
0.010942097
0.010111423
0.0091708788
0.0082072921
0.0072202384
0.0067427408
0.0074472051
0.0053979228
0.0032880129
0.0013898414
0.00046657613
0.00026512466
0.00032882537
0.0015105161
0.0040279588
0.010694142
0.015745669
0.015563691
9.355452e-19
1.8195087e-16
4.8462945e-15
4.9129631e-14
2.9709422e-13
1.3160854e-12
4.7513615e-12
1.4864279e-11
4.1864655e-11
1.0886604e-10
2.6599517e-10
6.1837805e-10
1.3806471e-09
2.9815097e-09
6.2618123e-09
1.2845588e-08
2.5828482e-08
5.1044007e-08
9.9374116e-08
1.9093391e-07
3.6259573e-07
6.8142059e-07
1.2684601e-06
2.3406169e-06
4.2836717e-06
7.7785458e-06
1.4017326e-05
2.5067859e-05
4.4476981e-05
7.8236554e-05
0.00013624321
0.00023427191
0.00039607099
0.0006542969
0.0010479218
0.001613832
0.0023733339
0.0033191064
0.0044098656
0.0055759055
0.0067327773
0.0077976864
0.0087047667
0.0094172482
0.009925064
0.010233214
0.010353931
0.0099134277
0.0089558454
0.0079818506
0.0069831471
0.0061720944
0.006220043
0.0065977138
0.0044153387
0.0026304742
0.0009051254
0.00033750077
0.00022759333
0.00020442012
0.00078047901
0.0026000874
0.0047940488
0.0089927708
0.0085309905
8.435147e-19
1.6405216e-16
4.3695562e-15
4.4296563e-14
2.6786651e-13
1.1866002e-12
4.2838365e-12
1.3401437e-11
3.7743825e-11
9.8147587e-11
2.3979905e-10
5.5745722e-10
1.2445737e-09
2.6875131e-09
5.6439837e-09
1.1577227e-08
2.3275877e-08
4.5993647e-08
8.9527913e-08
1.7198177e-07
3.2652241e-07
6.1343225e-07
1.1414342e-06
2.105129e-06
3.8501593e-06
6.985581e-06
1.2575554e-05
2.246194e-05
3.9796955e-05
6.9896489e-05
0.00012153714
0.00020874246
0.00035278457
0.00058338696
0.00093706385
0.0014502583
0.0021471557
0.0030263655
0.0040534969
0.0051641383
0.0062760002
0.0073053381
0.0081828843
0.0088651865
0.0093385928
0.0096084238
0.0096811783
0.0087834036
0.0077909301
0.0067980684
0.0058591669
0.0054471945
0.0060529995
0.0053323442
0.0032806084
0.001628564
0.0005026346
0.00024572857
0.00018818998
0.00019068857
0.00042652284
0.0012842649
0.003063349
0.0045248824
0.0045468409
7.5093589e-19
1.4604683e-16
3.8899796e-15
3.9434764e-14
2.3846566e-13
1.0563523e-12
3.8135802e-12
1.1930141e-11
3.3599499e-11
8.7369021e-11
2.1345889e-10
4.9620929e-10
1.1077904e-09
2.3920353e-09
5.0231736e-09
1.0303069e-08
2.0712393e-08
4.0923665e-08
7.9648029e-08
1.5297571e-07
2.9037233e-07
5.4535991e-07
1.0143922e-06
1.869933e-06
3.4179068e-06
6.196504e-06
1.1144216e-05
1.988174e-05
3.5176287e-05
6.1685183e-05
0.00010709163
0.00018369509
0.00031027853
0.00051347119
0.00082688198
0.0012857723
0.0019164057
0.0027229286
0.0036781866
0.0047239374
0.0057809107
0.0067646733
0.0076020323
0.0082431138
0.0086713288
0.0088892503
0.0086049562
0.0076096778
0.0066005857
0.0056268037
0.0049558617
0.0051039464
0.0053664802
0.0036472684
0.0021896534
0.00071908622
0.00026836598
0.00018391354
0.00016792791
0.00020683371
0.00030142333
0.00061723962
0.0014417751
0.0022783053
0.002491363
6.5992348e-19
1.2834612e-16
3.4185166e-15
3.4655247e-14
2.0956286e-13
9.2831456e-13
3.3513227e-12
1.0483949e-11
2.9526154e-11
7.6775908e-11
1.8757438e-10
4.3602755e-10
9.7340585e-10
2.1017843e-09
4.4134579e-09
9.0519599e-09
1.8195959e-08
3.5948389e-08
6.995667e-08
1.3434185e-07
2.5495281e-07
4.7871665e-07
8.9014182e-07
1.6401918e-06
2.9963271e-06
5.4283412e-06
9.7538837e-06
1.7381776e-05
3.0711578e-05
5.3772761e-05
9.3204289e-05
0.00015964521
0.00026943202
0.00044602707
0.00071978874
0.0011240378
0.0016860818
0.002414829
0.0032903123
0.0042611009
0.0052517545
0.0061775281
0.0069610739
0.0075458532
0.0079135913
0.0080598268
0.0073897709
0.0063796813
0.0053825635
0.0045780568
0.0044120381
0.0048378657
0.0035328863
0.0021260559
0.00088488126
0.00029948229
0.00016709885
0.00014718702
0.0001767175
0.0002257692
0.00027624299
0.00039147444
0.00058740769
0.00077388804
0.0009247765
5.724594e-19
1.1133552e-16
2.9654354e-15
3.0062104e-14
1.817875e-13
8.0527432e-13
2.9071231e-12
9.0943139e-12
2.5612329e-11
6.6598328e-11
1.6270723e-10
3.7821673e-10
8.4433007e-10
1.8230369e-09
3.8280018e-09
7.850864e-09
1.5780695e-08
3.1174535e-08
6.0661047e-08
1.1647701e-07
2.2101451e-07
4.1490642e-07
7.7128141e-07
1.4206668e-06
2.5940635e-06
4.696642e-06
8.4322909e-06
1.5011118e-05
2.6489019e-05
4.6309683e-05
8.0136594e-05
0.0001370464
0.00023103213
0.00038240818
0.00061803779
0.00096860081
0.0014613189
0.0021087107
0.0028974308
0.0037830914
0.0046947026
0.0055475853
0.0062600759
0.006768407
0.0070557109
0.0070711003
0.0061033516
0.0050988977
0.0042336608
0.003847646
0.0040912868
0.0030368116
0.0018045437
0.00083522449
0.00029462072
0.0001378076
0.00012070325
0.00014088451
0.00018694148
0.00024456517
0.00028151526
0.000346106
0.00040712674
0.00052932778
0.00057404443
4.9026414e-19
9.5349673e-17
2.5396506e-15
2.5745712e-14
1.5568604e-13
6.8965148e-13
2.4897136e-12
7.7885381e-12
2.1934858e-11
5.7035906e-11
1.393447e-10
3.2390817e-10
7.2308547e-10
1.5612314e-09
3.2782044e-09
6.7231124e-09
1.3513382e-08
2.6694245e-08
5.1939803e-08
9.9722696e-08
1.8920182e-07
3.5513071e-07
6.6002572e-07
1.215396e-06
2.2183989e-06
4.0144028e-06
7.2023891e-06
1.2809897e-05
2.2578162e-05
3.9415739e-05
6.8094514e-05
0.00011625476
0.00019570179
0.00032371498
0.00052355597
0.00082269285
0.0012471161
0.0018115118
0.0025080324
0.0032989656
0.0041179723
0.0048806323
0.0055008284
0.0059071004
0.0060884621
0.0057166633
0.0047598619
0.0038739681
0.0033682719
0.0033484337
0.0024265452
0.0013970133
0.00064921855
0.00025793654
0.00010826851
9.3364755e-05
0.00011147428
0.00015861229
0.00019496709
0.00019393353
0.00022420397
0.00026459239
0.00030747962
0.00039823691
0.00043522362
4.1472161e-19
8.0657717e-17
2.1483295e-15
2.1778708e-14
1.3169756e-13
5.8339034e-13
2.1061097e-12
6.5885516e-12
1.8555449e-11
4.8248929e-11
1.1787787e-10
2.7400965e-10
6.1169518e-10
1.3207272e-09
2.7731984e-09
5.6873827e-09
1.1431435e-08
2.2581126e-08
4.3935433e-08
8.4350763e-08
1.6002651e-07
3.003406e-07
5.581206e-07
1.0275447e-06
1.8750018e-06
3.3916457e-06
6.0816711e-06
1.0808264e-05
1.9030405e-05
3.3177905e-05
5.7225302e-05
9.752283e-05
0.0001638858
0.00027075503
0.00043782979
0.00068898364
0.0010479403
0.0015299484
0.002131002
0.0028189404
0.0035315839
0.0041845588
0.0046873316
0.0049633857
0.0050094457
0.0043219073
0.0034761322
0.0029302517
0.0026555708
0.001859545
0.0010215907
0.00045315127
0.00019651831
8.9241094e-05
7.0758749e-05
8.5338188e-05
0.00012612966
0.00016820655
0.00015575598
0.0001645114
0.00017656016
0.0002112537
0.00024254246
0.00032247524
0.00037970402
3.468255e-19
6.7452857e-17
1.7966166e-15
1.821324e-14
1.1013732e-13
4.8788664e-13
1.7613461e-12
5.5100895e-12
1.5518364e-11
4.0352323e-11
9.858708e-11
2.2917154e-10
5.1160767e-10
1.1046436e-09
2.3195125e-09
4.7570136e-09
9.5615437e-09
1.8887605e-08
3.6749245e-08
7.0554052e-08
1.338505e-07
2.5120618e-07
4.6678986e-07
8.5931684e-07
1.5677804e-06
2.8351867e-06
5.0818094e-06
9.0258644e-06
1.5878252e-05
2.7649283e-05
4.7615655e-05
8.0995403e-05
0.0001358393
0.00022401172
0.00036182324
0.00056938317
0.00086732418
0.0012698572
0.0017747471
0.0023534436
0.0029465374
0.0034689609
0.0038256616
0.0039543706
0.003760444
0.0030253058
0.0025060658
0.0020531938
0.0013784491
0.0006934663
0.00030438608
0.0001367206
6.6753624e-05
5.2910605e-05
6.5504913e-05
0.0001005326
0.00015058823
0.00011625647
0.00011307309
0.00013018808
0.000150818
0.00017956996
0.00021562732
0.00029607707
0.00039672994
2.8714238e-19
5.5845273e-17
1.4874468e-15
1.5079058e-14
9.1185143e-14
4.0393625e-13
1.4582928e-12
4.5621168e-12
1.2848807e-11
3.3411485e-11
8.1631681e-11
1.8976316e-10
4.2364462e-10
9.1474722e-10
1.920838e-09
3.9395297e-09
7.9187181e-09
1.5643057e-08
3.0437713e-08
5.8439339e-08
1.108724e-07
2.0809092e-07
3.8668776e-07
7.1187043e-07
1.2987519e-06
2.3484849e-06
4.2086229e-06
7.4720913e-06
1.3136062e-05
2.2850317e-05
3.9293428e-05
6.6711627e-05
0.00011162839
0.00018363449
0.00029592965
0.00046488739
0.00070748423
0.0010354417
0.001445997
0.0019115689
0.0023733876
0.0027454834
0.002933525
0.002905132
0.0024866671
0.0020613578
0.0015256039
0.00098814875
0.00045319142
0.00019662722
9.1983357e-05
4.7233182e-05
3.8232012e-05
5.175056e-05
8.3931671e-05
0.00013496582
9.633963e-05
9.1898555e-05
0.00010171732
0.00011280586
0.0001337032
0.00016442187
0.00019893687
0.00028980488
0.00041494962
2.3578961e-19
4.5857856e-17
1.221431e-15
1.238235e-14
7.4878377e-14
3.317043e-13
1.1975436e-12
3.7464815e-12
1.0551949e-11
2.7439757e-11
6.7043965e-11
1.5585874e-10
3.4796943e-10
7.5138512e-10
1.5778891e-09
3.2363595e-09
6.5057409e-09
1.2852759e-08
2.5010568e-08
4.8023979e-08
9.1121845e-08
1.7104211e-07
3.1788104e-07
5.852745e-07
1.0679061e-06
1.9311927e-06
3.4607856e-06
6.1434971e-06
1.079648e-05
1.8767344e-05
3.2231656e-05
5.4614379e-05
9.1140464e-05
0.00014944473
0.00023995008
0.00037546624
0.00056898322
0.00082850127
0.0011484179
0.0014991824
0.0018206564
0.0020281514
0.0020565826
0.0018774747
0.0014566136
0.0010731606
0.00067069782
0.00028267786
0.00012458
6.0357298e-05
3.2992673e-05
2.7789205e-05
4.1041802e-05
6.898176e-05
0.000113712
9.2068402e-05
8.121705e-05
8.1222857e-05
8.8121624e-05
0.00010115851
0.0001172
0.00014792048
0.000193002
0.00029580052
0.0004846489
1.9243846e-19
3.7426665e-17
9.9686602e-16
1.0105848e-14
6.1112571e-14
2.7072777e-13
9.7742547e-13
3.0579433e-12
8.6130079e-12
2.239863e-11
5.4729641e-11
1.2723849e-10
2.8408987e-10
6.1349032e-10
1.2884145e-09
2.6428593e-09
5.3132111e-09
1.0497974e-08
2.0430945e-08
3.92362e-08
7.446024e-08
1.3979383e-07
2.5986163e-07
4.7856045e-07
8.7339605e-07
1.5797731e-06
2.8314282e-06
5.0263098e-06
8.8311348e-06
1.5341917e-05
2.6319814e-05
4.4516401e-05
7.4075791e-05
0.00012093763
0.00019307823
0.0002999868
0.00045048099
0.00064783062
0.00088158843
0.0011181254
0.0012970224
0.0013502155
0.0012535773
0.00099999717
0.00070521169
0.00041956211
0.00017288372
7.7777798e-05
3.9314615e-05
2.3000983e-05
2.0708162e-05
3.2380657e-05
5.6541635e-05
9.5569467e-05
8.9955739e-05
7.4520831e-05
6.9711944e-05
7.2099136e-05
8.0201738e-05
9.3688106e-05
0.00011478008
0.000146276
0.00019689366
0.00032366816
0.00058424135
1.5633076e-19
3.0404209e-17
8.0982239e-16
8.2097116e-15
4.9646776e-14
2.1993907e-13
7.9408322e-13
2.4844381e-12
6.9979926e-12
1.8199667e-11
4.4472489e-11
1.0339937e-10
2.3088176e-10
4.9863236e-10
1.0473026e-09
2.1485241e-09
4.3199588e-09
8.5367466e-09
1.6616868e-08
3.1917763e-08
6.0585287e-08
1.1377358e-07
2.1155313e-07
3.8971647e-07
7.1147891e-07
1.2872873e-06
2.3077265e-06
4.0969131e-06
7.1965988e-06
1.2493643e-05
2.140334e-05
3.6113164e-05
5.98647e-05
9.7185495e-05
0.00015383957
0.00023617222
0.00034870174
0.00048927154
0.00064169295
0.00076955461
0.0008213401
0.00077329979
0.00062597152
0.00043209472
0.0002443563
0.00010191056
4.7807464e-05
2.5437663e-05
1.6240472e-05
1.5743879e-05
2.6105637e-05
4.6346935e-05
8.0886673e-05
8.881803e-05
7.3547626e-05
6.8086208e-05
6.8352024e-05
7.3250788e-05
8.2101479e-05
9.5449239e-05
0.00011588386
0.00015217747
0.00020957104
0.00035429626
0.00070802295
1.2633218e-19
2.4569887e-17
6.5442454e-16
6.6343778e-15
4.0120789e-14
1.7774243e-13
6.4175511e-13
2.0079378e-12
5.6561171e-12
1.4710767e-11
3.5949639e-11
8.3590444e-11
1.8666755e-10
4.0318598e-10
8.4693265e-10
1.7377025e-09
3.4944684e-09
6.9066779e-09
1.344657e-08
2.5834007e-08
4.9049642e-08
9.2136519e-08
1.7137295e-07
3.1579842e-07
5.7671013e-07
1.043717e-06
1.8713239e-06
3.3217976e-06
5.8319161e-06
1.0112094e-05
1.7283825e-05
2.9050142e-05
4.7863536e-05
7.6988703e-05
0.00012023037
0.00018088385
0.00025913823
0.0003476022
0.00042641436
0.0004642849
0.00044104759
0.00035821522
0.00024341292
0.00013215375
5.7140492e-05
2.8454555e-05
1.6431205e-05
1.1559516e-05
1.2300296e-05
2.1030473e-05
3.8530398e-05
6.9116541e-05
9.0726468e-05
7.6479823e-05
7.0907228e-05
6.9104497e-05
7.0400825e-05
7.4368307e-05
8.2510973e-05
9.6852926e-05
0.00011937326
0.00015800406
0.00022556521
0.00040048154
0.00085604569
1.0105962e-19
1.9654721e-17
5.2350867e-16
5.3072226e-15
3.2095426e-14
1.4219221e-13
5.134162e-13
1.606462e-12
4.525462e-12
1.177087e-11
2.8767418e-11
6.6896088e-11
1.4940169e-10
3.2273043e-10
6.7801103e-10
1.3913063e-09
2.7983004e-09
5.5316553e-09
1.0771518e-08
2.0698699e-08
3.9307709e-08
7.3852602e-08
1.3739268e-07
2.5322277e-07
4.6247383e-07
8.3691926e-07
1.500051e-06
2.6606918e-06
4.6643167e-06
8.0665978e-06
1.3728633e-05
2.2918368e-05
3.7368309e-05
5.9172161e-05
9.030029e-05
0.00013118141
0.00017835608
0.00022158869
0.00024396785
0.00023288156
0.00018932516
0.00012606694
6.7483754e-05
3.1172645e-05
1.65154e-05
1.0528238e-05
8.364407e-06
9.658543e-06
1.7161326e-05
3.2305288e-05
6.0028108e-05
9.544858e-05
8.0355668e-05
7.5038907e-05
7.1714504e-05
7.1505016e-05
7.325606e-05
7.8322131e-05
8.8486052e-05
0.00010452779
0.00012923501
0.00017238209
0.0002464746
0.00043791913
0.00091925119
7.9135385e-20
1.5390761e-17
4.0993758e-16
4.1558875e-15
2.5133095e-14
1.1134975e-13
4.0206654e-13
1.2581076e-12
3.5443214e-12
9.2194562e-12
2.2533454e-11
5.2403596e-11
1.1704491e-10
2.5285783e-10
5.3126968e-10
1.0902958e-09
2.1931055e-09
4.3357298e-09
8.4434754e-09
1.6226141e-08
3.081495e-08
5.7894075e-08
1.0768957e-07
1.9842101e-07
3.6219649e-07
6.5487175e-07
1.1720798e-06
2.0742756e-06
3.623628e-06
6.2334313e-06
1.0523332e-05
1.7355974e-05
2.7795989e-05
4.2867331e-05
6.2852931e-05
8.608644e-05
0.0001075395
0.00011890107
0.00011354144
9.207893e-05
6.0274615e-05
3.2569784e-05
1.6382067e-05
9.5175109e-06
6.7756352e-06
6.1177561e-06
7.6605309e-06
1.4027754e-05
2.733631e-05
5.3447719e-05
8.9703683e-05
8.4214419e-05
7.9441417e-05
7.5708538e-05
7.5001171e-05
7.5543752e-05
7.8380104e-05
8.46451e-05
9.5074213e-05
0.00011187676
0.0001382044
0.0001848075
0.00026672257
0.00047402858
0.0009335219
5.9567465e-20
1.1585067e-17
3.08572e-16
3.1282722e-15
1.8918726e-14
8.3819263e-14
3.0266658e-13
9.4710717e-13
2.6682811e-12
6.9410097e-12
1.6965432e-11
3.9456448e-11
8.8130823e-11
1.9040001e-10
4.0005098e-10
8.2100451e-10
1.6513845e-09
3.2645142e-09
6.3564801e-09
1.2212623e-08
2.3184392e-08
4.35339e-08
8.0911847e-08
1.4890561e-07
2.7134861e-07
4.8942124e-07
8.7292878e-07
1.5372541e-06
2.6666631e-06
4.5413711e-06
7.5573919e-06
1.2209275e-05
1.8971253e-05
2.7977648e-05
3.8459443e-05
4.8117026e-05
5.3222045e-05
5.0745584e-05
4.0963181e-05
2.6520636e-05
1.4854169e-05
8.3431252e-06
5.4046955e-06
4.4807807e-06
4.4802166e-06
6.1580758e-06
1.1479283e-05
2.4213388e-05
4.7269685e-05
7.9788324e-05
8.7169712e-05
8.3550351e-05
7.9835482e-05
7.8783511e-05
7.8483624e-05
7.9958679e-05
8.3586071e-05
9.0430977e-05
0.00010216093
0.00012111389
0.0001503223
0.00020079903
0.00028778715
0.0005021979
0.00094431841
4.2078462e-20
8.1836899e-18
2.1797518e-16
2.2098152e-15
1.3364302e-14
5.9211131e-14
2.1381128e-13
6.6907151e-13
1.8850016e-12
4.9035147e-12
1.1985346e-11
2.7873926e-11
6.2257686e-11
1.3449414e-10
2.8255543e-10
5.7977423e-10
1.1658689e-09
2.3038701e-09
4.4835885e-09
8.6078632e-09
1.6324313e-08
3.0609182e-08
5.6779956e-08
1.0421919e-07
1.8923683e-07
3.3965921e-07
6.0181373e-07
1.0502839e-06
1.7994942e-06
3.0124299e-06
4.8933755e-06
7.6382563e-06
1.1302584e-05
1.556428e-05
1.947479e-05
2.1519305e-05
2.0464423e-05
1.6421972e-05
1.0857667e-05
6.6219779e-06
4.1528001e-06
3.1727425e-06
2.9266688e-06
3.3872847e-06
4.9103372e-06
9.9019993e-06
2.1774682e-05
4.2035452e-05
7.121017e-05
9.0432346e-05
8.743991e-05
8.3376328e-05
8.1858397e-05
8.1142361e-05
8.1812748e-05
8.4073656e-05
8.868126e-05
9.7068223e-05
0.00011028672
0.00013085534
0.00016186635
0.00021576784
0.00030613842
0.00051916334
0.00095648218
2.7152809e-20
5.2808503e-18
1.4065687e-16
1.4259658e-15
8.6238126e-15
3.8208182e-14
1.3796935e-13
4.317386e-13
1.2163304e-12
3.1639618e-12
7.732984e-12
1.7982573e-11
4.0158932e-11
8.673584e-11
1.8216512e-10
3.7362308e-10
7.5087385e-10
1.4825991e-09
2.8821433e-09
5.5251587e-09
1.0457471e-08
1.9556861e-08
3.6150929e-08
6.6046213e-08
1.1918337e-07
2.1216398e-07
3.717922e-07
6.392961e-07
1.0735216e-06
1.748405e-06
2.7348941e-06
4.0528726e-06
5.5858857e-06
6.9929261e-06
7.7307198e-06
7.3604784e-06
5.9725252e-06
4.1950649e-06
2.8699065e-06
2.1464449e-06
1.8677267e-06
2.0396226e-06
2.5064317e-06
4.0582819e-06
9.0493918e-06
1.9289983e-05
3.744462e-05
6.3692912e-05
9.4010789e-05
8.9564123e-05
8.521059e-05
8.3823004e-05
8.3001808e-05
8.3431732e-05
8.4925813e-05
8.8301067e-05
9.4138441e-05
0.00010347793
0.00011784339
0.00014036663
0.00017382829
0.00023069339
0.00032270176
0.00053089912
0.00093183677
1.5592755e-20
3.0325751e-18
8.077313e-17
8.1886445e-16
4.9521962e-15
2.194058e-14
7.922517e-14
2.4790379e-13
6.9836912e-13
1.8164394e-12
4.4388688e-12
1.0320112e-11
2.3040104e-11
4.9741678e-11
1.0440957e-10
2.1398071e-10
4.2959478e-10
8.4706431e-10
1.6436598e-09
3.1433111e-09
5.9303307e-09
1.1043857e-08
2.0301774e-08
3.6821246e-08
6.581192e-08
1.1568462e-07
1.9936547e-07
3.3527968e-07
5.4653793e-07
8.5532698e-07
1.2681283e-06
1.7496586e-06
2.1958842e-06
2.4384686e-06
2.3560186e-06
2.0216676e-06
1.6110657e-06
1.2817638e-06
1.1220398e-06
1.2034208e-06
1.4160359e-06
1.9960964e-06
3.7411275e-06
8.311045e-06
1.7080685e-05
3.3290988e-05
5.7050658e-05
8.5077106e-05
8.9412143e-05
8.5462939e-05
8.4524887e-05
8.3980231e-05
8.4170126e-05
8.5358622e-05
8.7883003e-05
9.2216895e-05
9.8909453e-05
0.00010969625
0.00012567129
0.00015000865
0.00018540443
0.0002445628
0.00033606164
0.00053464554
0.000884323
7.8109868e-21
1.5191265e-18
4.0461924e-17
4.1019071e-16
2.4806309e-15
1.0989993e-14
3.9681589e-14
1.241576e-13
3.4972134e-13
9.0945506e-13
2.2218966e-12
5.1639801e-12
1.1523299e-11
2.4861711e-11
5.2140131e-11
1.067336e-10
2.1395154e-10
4.2100611e-10
8.1474408e-10
1.5526464e-09
2.9158888e-09
5.397721e-09
9.8452966e-09
1.7675216e-08
3.1173678e-08
5.3851136e-08
9.0709015e-08
1.4803943e-07
2.3199643e-07
3.4486237e-07
4.785267e-07
6.077511e-07
6.9285341e-07
7.1333977e-07
6.9106832e-07
6.4704237e-07
6.2261575e-07
6.4873718e-07
7.8888831e-07
1.1071502e-06
1.8072872e-06
3.5109072e-06
7.3638674e-06
1.4798166e-05
2.9463342e-05
5.1098964e-05
7.6475442e-05
8.8141128e-05
8.4725079e-05
8.3925463e-05
8.3654833e-05
8.3937287e-05
8.4887704e-05
8.7186654e-05
9.0568091e-05
9.5875284e-05
0.00010388255
0.00011582991
0.00013308627
0.00015921249
0.00019638339
0.0002575688
0.00034803926
0.00053761903
0.00084506175
3.4151398e-21
6.6419526e-19
1.7690681e-17
1.7933911e-16
1.0845165e-15
4.8044902e-15
1.7346109e-14
5.4266516e-14
1.5282788e-13
3.9733031e-13
9.7038098e-13
2.2542174e-12
5.0270001e-12
1.0836531e-11
2.2700599e-11
4.6399733e-11
9.2827492e-11
1.8219477e-10
3.5141462e-10
6.6679364e-10
1.2452509e-09
2.2885127e-09
4.1354044e-09
7.3355561e-09
1.2739228e-08
2.1574685e-08
3.5435216e-08
5.6021604e-08
8.4428578e-08
1.1989613e-07
1.5860107e-07
1.9595367e-07
2.3169266e-07
2.6606927e-07
3.0079212e-07
3.4290656e-07
4.3444357e-07
6.2530732e-07
9.9748803e-07
1.7032299e-06
3.197043e-06
6.3902184e-06
1.2910167e-05
2.6328062e-05
4.5859068e-05
6.8876675e-05
8.5722369e-05
8.306488e-05
8.2022284e-05
8.2182822e-05
8.2645992e-05
8.3606841e-05
8.5613927e-05
8.8687695e-05
9.2960487e-05
9.9337992e-05
0.00010827385
0.00012159641
0.00014022781
0.00016801848
0.00020669325
0.0002689954
0.00035734564
0.00053883795
0.00081205574
1.4137463e-21
2.7495275e-19
7.3232359e-18
7.4237603e-17
4.4891833e-16
1.9886116e-15
7.1789808e-15
2.2456067e-14
6.3230127e-14
1.6434857e-13
4.0125021e-13
9.317185e-13
2.0766335e-12
4.473379e-12
9.3625186e-12
1.9115061e-11
3.818664e-11
7.4814433e-11
1.439757e-10
2.7242495e-10
5.0701782e-10
9.2793402e-10
1.6685587e-09
2.9430143e-09
5.0794394e-09
8.5504811e-09
1.3981978e-08
2.2100438e-08
3.3580635e-08
4.8856546e-08
6.8798875e-08
9.5338217e-08
1.2992978e-07
1.779744e-07
2.4709177e-07
3.6073796e-07
5.7257154e-07
9.2774582e-07
1.5648979e-06
2.8500261e-06
5.5868347e-06
1.1478023e-05
2.3517587e-05
4.1049962e-05
6.1953197e-05
8.2927756e-05
8.064946e-05
7.9400775e-05
7.9832369e-05
8.0411234e-05
8.1282166e-05
8.3204078e-05
8.5983814e-05
8.9971478e-05
9.5116156e-05
0.00010242862
0.00011252768
0.00012698025
0.00014689887
0.00017621115
0.00021617511
0.0002796468
0.00036607065
0.00053948627
0.00078325359
7.5656828e-22
1.4714144e-19
3.9190503e-18
3.9728372e-17
2.4023631e-16
1.0641728e-15
3.8416276e-15
1.2016568e-14
3.3835684e-14
8.7950583e-14
2.1475233e-13
4.9876821e-13
1.1120522e-12
2.3968266e-12
5.0204948e-12
1.0262288e-11
2.0536034e-11
4.0330206e-11
7.7873192e-11
1.480338e-10
2.7727585e-10
5.1192912e-10
9.3160912e-10
1.6702401e-09
2.9476065e-09
5.1144806e-09
8.714878e-09
1.4561761e-08
2.3832555e-08
3.8133151e-08
5.968098e-08
9.1902896e-08
1.3983059e-07
2.1250857e-07
3.3107279e-07
5.2624473e-07
8.4728246e-07
1.4199277e-06
2.5619301e-06
4.9963954e-06
1.0304635e-05
2.0962949e-05
3.6589524e-05
5.5789782e-05
7.829472e-05
7.7658657e-05
7.6045994e-05
7.6701426e-05
7.71934e-05
7.8108282e-05
7.996093e-05
8.2665327e-05
8.6290412e-05
9.0985919e-05
9.6908419e-05
0.00010523168
0.00011632649
0.0001320803
0.00015319674
0.00018387089
0.00022493264
0.0002888401
0.00037345238
0.00054034328
0.00076079997
7.4051701e-22
1.4402014e-19
3.8359664e-18
3.8887081e-17
2.3515757e-16
1.0417345e-15
3.7609733e-15
1.1766036e-14
3.3137958e-14
8.616714e-14
2.1050531e-13