/*--------------------------------*- C++ -*----------------------------------*\
  =========                 |
  \\      /  F ield         | OpenFOAM: The Open Source CFD Toolbox
   \\    /   O peration     | Website:  https://openfoam.org
    \\  /    A nd           | Version:  13
     \\/     M anipulation  |
\*---------------------------------------------------------------------------*/
FoamFile
{
    format      ascii;
    class       volScalarField;
    location    "42.102241";
    object      k;
}
// * * * * * * * * * * * * * * * * * * * * * * * * * * * * * * * * * * * * * //

dimensions      [0 2 -2 0 0 0 0];

internalField   nonuniform List<scalar> 
17140
(
6.718593e-12
2.1112151e-10
1.726408e-09
7.4246309e-09
2.2847922e-08
5.7656788e-08
1.2785879e-07
2.5914179e-07
4.9179939e-07
8.8795417e-07
1.5420882e-06
2.5963152e-06
4.2624248e-06
6.8535536e-06
1.0829473e-05
1.6861024e-05
2.5921265e-05
3.941354e-05
5.9349875e-05
8.8596734e-05
0.00013120843
0.0001928697
0.00028146441
0.0004077688
0.00058622113
0.00083561733
0.0011793851
0.0016447537
0.0022596855
0.0030461661
0.0040093055
0.0051252615
0.0063368774
0.0075667435
0.0087440753
0.0098262611
0.010801698
0.011679758
0.012480108
0.013225777
0.013940485
0.014648095
0.015373128
0.016141715
0.016981025
0.017918357
0.018983037
0.0202068
0.021622807
0.023265317
0.025168986
0.027367242
0.029880309
0.032699979
0.035807907
0.039160837
0.042630867
0.045922536
0.048634665
0.050525723
0.053802463
0.062098507
0.07102104
0.045201968
0.015769539
6.7338473e-12
2.1160087e-10
1.7303327e-09
7.4415563e-09
2.2900238e-08
5.7789595e-08
1.2815549e-07
2.5974843e-07
4.9296227e-07
8.9007736e-07
1.5458209e-06
2.6026835e-06
4.2730289e-06
6.8708612e-06
1.0857254e-05
1.6904989e-05
2.599e-05
3.9519855e-05
5.9512741e-05
8.8844021e-05
0.0001315807
0.00019342538
0.00028228642
0.00040897279
0.00058796442
0.00083810645
0.001182877
0.001649541
0.0022660505
0.0030542844
0.0040190986
0.0051362537
0.0063482273
0.0075775291
0.0087534186
0.0098337799
0.010807276
0.011683552
0.012482055
0.013225614
0.013937722
0.01464205
0.015362996
0.016126639
0.016960147
0.017891021
0.018949045
0.020166774
0.021578776
0.023221897
0.025135633
0.027361496
0.029935293
0.03288917
0.036239819
0.040013711
0.044154496
0.048433514
0.05223916
0.054981165
0.058427292
0.062659485
0.062600356
0.032718368
0.014760673
6.7044576e-12
2.1067734e-10
1.722781e-09
7.4090916e-09
2.2800427e-08
5.7538117e-08
1.2759905e-07
2.5862387e-07
4.9083545e-07
8.8625293e-07
1.53921e-06
2.591612e-06
4.2549599e-06
6.8419993e-06
1.0811981e-05
1.6835068e-05
2.5883459e-05
3.9359435e-05
5.9273757e-05
8.8491446e-05
0.00013106524
0.00019267828
0.0002812128
0.00040744329
0.00058580552
0.00083509035
0.0011787137
0.0016438777
0.0022584874
0.0030444212
0.0040065947
0.0051208122
0.0063295688
0.0075555316
0.0087286361
0.0098066034
0.010777967
0.011652089
0.012448223
0.01318896
0.01389755
0.014597413
0.015312767
0.016069577
0.016894931
0.01781639
0.018864079
0.020071233
0.021473751
0.023111075
0.025027753
0.027274881
0.029908046
0.032987012
0.036594227
0.040815019
0.045669923
0.050982255
0.05598096
0.059416368
0.061811358
0.062272525
0.054573313
0.031325152
0.017469298
6.6257776e-12
2.0820493e-10
1.7025637e-09
7.3221556e-09
2.2532986e-08
5.6863603e-08
1.2610442e-07
2.5559761e-07
4.850992e-07
8.7591079e-07
1.5212786e-06
2.5614781e-06
4.2055922e-06
6.7628072e-06
1.0687176e-05
1.6641323e-05
2.5586588e-05
3.8909716e-05
5.8599412e-05
8.7489632e-05
0.0001295898
0.0001905234
0.00027809182
0.00040296243
0.00057943361
0.0008261287
0.0011662761
0.0016269002
0.0022357888
0.0030148469
0.0039692912
0.0050757178
0.0062776819
0.0074983937
0.0086675191
0.009742471
0.0107113
0.011582899
0.01237616
0.013113357
0.013817458
0.014511609
0.015219783
0.015967754
0.016782419
0.017691237
0.018724501
0.01991591
0.021302494
0.022926164
0.024836602
0.027095016
0.029776346
0.032975718
0.036833495
0.041515041
0.047120746
0.053545626
0.059870407
0.064082626
0.065752453
0.062878124
0.051909599
0.036833678
0.020926891
6.4942176e-12
2.0407086e-10
1.6687584e-09
7.1767815e-09
2.20857e-08
5.5735195e-08
1.2360308e-07
2.5053051e-07
4.7548878e-07
8.5857152e-07
1.4911909e-06
2.5108691e-06
4.1225945e-06
6.6295144e-06
1.0476841e-05
1.6314341e-05
2.5084787e-05
3.8148282e-05
5.7455586e-05
8.5787062e-05
0.00012707719
0.00018684596
0.00027275424
0.00039528295
0.00056849141
0.00081071221
0.0011448506
0.0015976307
0.0021966972
0.0029641732
0.0039060674
0.0050002762
0.0061917147
0.0074044826
0.0085681397
0.0096393168
0.010605146
0.011473781
0.012263593
0.012996471
0.013695056
0.014382174
0.015081495
0.0158185
0.016619754
0.017512429
0.018526752
0.01969659
0.021059788
0.022660444
0.024553165
0.026809025
0.029521827
0.032822221
0.036904662
0.042048516
0.04841543
0.056030643
0.063785931
0.06909976
0.070938542
0.065733861
0.054522433
0.044223772
0.02247828
6.3098265e-12
1.9827666e-10
1.6213777e-09
6.9730243e-09
2.1458748e-08
5.4153398e-08
1.2009631e-07
2.4342565e-07
4.6201113e-07
8.3425e-07
1.4489776e-06
2.4398459e-06
4.0060844e-06
6.4423426e-06
1.0181383e-05
1.585486e-05
2.4379362e-05
3.70774e-05
5.584615e-05
8.3390222e-05
0.00012353807
0.00018166314
0.00026522716
0.00038444683
0.00055304289
0.00078893759
0.0011145845
0.0015563005
0.0021415346
0.0028926968
0.0038168491
0.0048937432
0.0060704185
0.0072722895
0.0084287622
0.0094952596
0.010457534
0.011322693
0.012108419
0.012836135
0.013528105
0.014206799
0.01489552
0.015619302
0.016404234
0.01727699
0.018267437
0.019409232
0.020740611
0.022307403
0.024168607
0.026404198
0.029125866
0.032498803
0.036774527
0.042296131
0.049393542
0.058186449
0.067442091
0.074442839
0.07688403
0.072057484
0.06324452
0.048879808
0.022399896
6.075349e-12
1.9090858e-10
1.561127e-09
6.7139156e-09
2.0661446e-08
5.2141658e-08
1.1563592e-07
2.3438754e-07
4.448635e-07
8.0330006e-07
1.3952488e-06
2.3494269e-06
3.8577192e-06
6.2039303e-06
9.804928e-06
1.5269227e-05
2.3479947e-05
3.571152e-05
5.3792538e-05
8.0330584e-05
0.00011901819
0.00017504075
0.00025560416
0.000370585
0.00053326706
0.00076104044
0.0010757673
0.0015032183
0.0020705571
0.0028005227
0.0037015144
0.0047557246
0.0059130383
0.0071006981
0.0082479722
0.0093086844
0.01026673
0.011127818
0.011908749
0.012630389
0.013314576
0.013983373
0.01465966
0.015367876
0.016133375
0.016982183
0.01794343
0.019050115
0.020340353
0.02186111
0.023674914
0.025869162
0.028571958
0.031977658
0.036382927
0.042203087
0.049792076
0.059436888
0.070067107
0.07890977
0.082364831
0.078826291
0.071020476
0.049543657
0.018813205
5.7939405e-12
1.8206576e-10
1.4888167e-09
6.4029407e-09
1.9704517e-08
4.9727027e-08
1.1028185e-07
2.2353755e-07
4.2427597e-07
7.6613652e-07
1.3307234e-06
2.2408207e-06
3.6794777e-06
5.9174496e-06
9.3524688e-06
1.4565179e-05
2.2398369e-05
3.4068488e-05
5.1321363e-05
7.6647376e-05
0.00011357469
0.000167061
0.00024400176
0.00035385985
0.00050938556
0.0007273155
0.0010287782
0.0014388517
0.0019843062
0.0026882156
0.0035605451
0.0045864558
0.0057194132
0.0068890966
0.0080247714
0.0090783237
0.010031297
0.01088761
0.011662961
0.012377546
0.013052715
0.013710067
0.014371967
0.015062148
0.015804992
0.016625587
0.017551977
0.018616003
0.01985509
0.021316706
0.023065821
0.025196201
0.027850347
0.031240527
0.035685533
0.041623769
0.049430164
0.059330729
0.070555191
0.080583041
0.084566277
0.081849053
0.07281163
0.04300956
0.012862178
5.4701292e-12
1.7189047e-10
1.4056099e-09
6.0451013e-09
1.8603355e-08
4.6948343e-08
1.0412022e-07
2.1105015e-07
4.0057949e-07
7.2335667e-07
1.2564384e-06
2.1157713e-06
3.4742206e-06
5.5874942e-06
8.8312525e-06
1.3753977e-05
2.1151888e-05
3.2174454e-05
4.8471811e-05
7.2398717e-05
0.00010729291
0.00015784783
0.00023059802
0.0003345239
0.00048175101
0.00068824559
0.00097426149
0.0013640305
0.001883796
0.0025569217
0.0033950888
0.0043868782
0.0054900637
0.0066374757
0.0077586644
0.0088033301
0.0097501662
0.010600868
0.011369762
0.012076234
0.012741073
0.013385351
0.014030818
0.014700362
0.015417219
0.016205174
0.017090819
0.018104341
0.019281943
0.020671075
0.022338402
0.024385367
0.026964169
0.030289069
0.034668195
0.04048383
0.047991621
0.057224
0.067955701
0.077954886
0.081774889
0.078463254
0.066073395
0.027318772
0.0072136992
5.1099598e-12
1.605727e-10
1.3130606e-09
5.6470807e-09
1.7378523e-08
4.3857496e-08
9.7266078e-08
1.9715854e-07
3.742166e-07
6.7575937e-07
1.1737806e-06
1.9766132e-06
3.2457788e-06
5.2202206e-06
8.250999e-06
1.2850736e-05
1.976371e-05
3.0064624e-05
4.5296736e-05
6.7663173e-05
0.0001002885
0.00014756991
0.0002156363
0.00031292419
0.00045085145
0.00064450517
0.00091312792
0.0012799465
0.0017705184
0.002408392
0.0032070161
0.0041587336
0.0052263156
0.0063465591
0.0074497778
0.0084833768
0.0094227209
0.010266798
0.011028237
0.011725442
0.012378549
0.013008037
0.013634942
0.014281137
0.014968572
0.015719379
0.016558315
0.017513492
0.018619542
0.019923799
0.021496369
0.023449481
0.025935638
0.029156514
0.033369278
0.038797921
0.045342403
0.052720677
0.061324865
0.069279991
0.07064558
0.065390527
0.041323443
0.012027301
0.0032498278
4.7208773e-12
1.4834638e-10
1.2130818e-09
5.2171057e-09
1.6055337e-08
4.0518373e-08
8.9861119e-08
1.8214989e-07
3.4573228e-07
6.2432858e-07
1.084459e-06
1.8262233e-06
2.9988746e-06
4.8232199e-06
7.623699e-06
1.1874115e-05
1.8262489e-05
2.7782509e-05
4.1861523e-05
6.2538059e-05
9.2704982e-05
0.00013643687
0.00019941986
0.00028949469
0.00041729993
0.00059694659
0.00084653846
0.0011881376
0.0016464332
0.0022449905
0.0029989625
0.0039046537
0.0049304349
0.006017962
0.0070990126
0.0081187825
0.009048889
0.0098850842
0.010637914
0.011324578
0.011964434
0.012577314
0.013183443
0.013803501
0.01445799
0.015167155
0.015953564
0.016843027
0.017868622
0.019079045
0.020555089
0.022416703
0.024809305
0.02790639
0.031831566
0.036415397
0.040708578
0.04400191
0.047172008
0.048773027
0.045906179
0.033953866
0.012909427
0.0039001196
0.0011735302
4.3114608e-12
1.3548108e-10
1.1078776e-09
4.7646561e-09
1.4662972e-08
3.7004598e-08
8.2068621e-08
1.6635518e-07
3.1575475e-07
5.7019876e-07
9.9044388e-07
1.6679196e-06
2.738956e-06
4.4052523e-06
6.9631943e-06
1.084566e-05
1.6681339e-05
2.5378417e-05
3.8241832e-05
5.7136096e-05
8.4708781e-05
0.00012469229
0.0001823019
0.00026474231
0.0003818155
0.0005465753
0.00077587343
0.0010904528
0.0015139352
0.0020696743
0.0027743414
0.0036282255
0.004605755
0.005654363
0.0067082213
0.0077106662
0.0086292656
0.0094559863
0.010198832
0.010873517
0.011498468
0.012092784
0.012675809
0.013266878
0.01388486
0.014548006
0.015276512
0.016094103
0.017032791
0.018150114
0.019542904
0.021328429
0.023640592
0.026560825
0.029774708
0.032163978
0.031233444
0.027243235
0.021152379
0.017287871
0.013540425
0.0089908236
0.0035649233
0.0011822898
0.00041534069
3.8910694e-12
1.2227093e-10
9.9985338e-10
4.3000767e-09
1.3233264e-08
3.3396524e-08
7.40668e-08
1.5013567e-07
2.849698e-07
5.1460844e-07
8.9388698e-07
1.5053258e-06
2.4719742e-06
3.9758899e-06
6.284614e-06
9.7889323e-06
1.505648e-05
2.2907417e-05
3.4520546e-05
5.1580892e-05
7.648265e-05
0.00011260407
0.00016467174
0.00023922755
0.00034519651
0.00049451388
0.0007026859
0.00098899542
0.0013757905
0.0018859351
0.0025373114
0.0033340154
0.0042567802
0.0052596786
0.0062804138
0.0072611363
0.0081652638
0.0089804472
0.0097116221
0.010372665
0.010980871
0.011554496
0.012111922
0.012671056
0.013248968
0.01386193
0.01452798
0.015269857
0.016120906
0.017162264
0.018494608
0.020225303
0.022422429
0.02475531
0.025640197
0.022973495
0.015601123
0.0085209805
0.0059664846
0.0046450887
0.0034567807
0.0022022923
0.0009959625
0.00040388271
0.00019490125
3.4694162e-12
1.090211e-10
8.9150462e-10
3.8340997e-09
1.1799242e-08
2.9777511e-08
6.6040553e-08
1.3386622e-07
2.5408907e-07
4.5884302e-07
7.9702152e-07
1.3422037e-06
2.2041081e-06
3.5450735e-06
5.6036747e-06
8.728415e-06
1.3425574e-05
2.0426795e-05
3.0783954e-05
4.6001259e-05
6.8217284e-05
0.00010045226
0.00014693728
0.00021353951
0.00030828556
0.00044195397
0.00062863759
0.00088604058
0.0012350377
0.0016976925
0.0022926828
0.0030275252
0.0038892333
0.0048392171
0.0058199794
0.0067735205
0.0076593092
0.0084602407
0.0091776071
0.0098230171
0.010412381
0.010962944
0.011492022
0.012016109
0.01255033
0.013109192
0.013709373
0.014374727
0.015151299
0.016142775
0.017435585
0.019085733
0.020786429
0.020840298
0.017379033
0.0090882843
0.0047179325
0.0024965183
0.0016394348
0.0012275156
0.00087162085
0.00057147487
0.00032873664
0.0001874635
0.00013325957
3.0560752e-12
9.603248e-11
7.852917e-10
3.3773071e-09
1.0393475e-08
2.6229762e-08
5.8172225e-08
1.1791654e-07
2.2381449e-07
4.0417047e-07
7.0205086e-07
1.1822654e-06
1.9414564e-06
3.1226167e-06
4.9358967e-06
7.6882952e-06
1.1825841e-05
1.7993206e-05
2.7117457e-05
4.0524817e-05
6.0101867e-05
8.8515171e-05
0.00012950493
0.00018826697
0.00027192852
0.00039009894
0.00055542029
0.00078393076
0.0010948543
0.0015091343
0.0020457504
0.0027150572
0.0035100101
0.0043997664
0.0053328947
0.0062526249
0.007115081
0.0078981603
0.0085989344
0.0092262365
0.0097942662
0.010319045
0.010816643
0.011302193
0.011788831
0.012289699
0.012821742
0.013412713
0.014142221
0.015099761
0.016324278
0.017556851
0.01719727
0.013862228
0.0062832383
0.0028353093
0.0014149675
0.00076807312
0.0005029134
0.00036457353
0.00026880012
0.00020630256
0.00015973645
0.0001284487
0.00011515223
2.6599618e-12
8.3585225e-11
6.8350599e-10
2.9395543e-09
9.0462971e-09
2.2829844e-08
5.0631664e-08
1.0263101e-07
1.9479994e-07
3.5177211e-07
6.1102795e-07
1.02897e-06
1.6897029e-06
2.7176678e-06
4.2957516e-06
6.6911334e-06
1.0292013e-05
1.5659547e-05
2.3600858e-05
3.5270947e-05
5.2313625e-05
7.7054034e-05
0.0001127571
0.00016396593
0.00023692792
0.0003400979
0.00048466367
0.0006849495
0.00095838922
0.0013245048
0.0018020461
0.0024034665
0.0031270023
0.0039495668
0.0048268707
0.0057049947
0.0065377944
0.0072982585
0.0079787448
0.0085847432
0.0091283371
0.0096240271
0.010086436
0.010529143
0.010963468
0.011401599
0.011862751
0.012387505
0.013083858
0.013965734
0.014799449
0.014248544
0.011188423
0.0048584214
0.001991287
0.00090512924
0.00047643263
0.00028973218
0.00021001286
0.00016821743
0.00014104387
0.00012626245
0.00011700094
0.00011142337
0.00010887826
2.28886e-12
7.1923928e-11
5.8814742e-10
2.5294422e-09
7.7841775e-09
1.9644571e-08
4.3567095e-08
8.8310198e-08
1.6761621e-07
3.026792e-07
5.2574521e-07
8.8533822e-07
1.4538122e-06
2.3382192e-06
3.6958871e-06
5.7566545e-06
8.8544756e-06
1.3472124e-05
2.0304078e-05
3.034437e-05
4.5008268e-05
6.6298851e-05
9.7031461e-05
0.00014112922
0.00020399882
0.00029298186
0.00041784382
0.0005911919
0.00082858182
0.0011478599
0.0015670238
0.0020997925
0.0027487401
0.0034980765
0.0043113307
0.0051390905
0.0059344715
0.0066661091
0.0073213687
0.0079018242
0.0084169247
0.0088792354
0.0093016588
0.0096957141
0.010070913
0.010438619
0.010819867
0.011285394
0.011888665
0.012374365
0.011661874
0.0087126641
0.0037793786
0.0015457464
0.00066506036
0.00034141748
0.00021451554
0.00015987377
0.00013390977
0.00011944361
0.00011015774
0.00010608919
0.0001051173
0.00010557628
0.00010445108
1.948957e-12
6.1242998e-11
5.0080547e-10
2.1538069e-09
6.6281579e-09
1.6727057e-08
3.7096347e-08
7.5193046e-08
1.4271703e-07
2.5771164e-07
4.4762789e-07
7.5377211e-07
1.2377328e-06
1.9906293e-06
3.146367e-06
4.9005595e-06
7.5374253e-06
1.1467841e-05
1.7282892e-05
2.5828732e-05
3.8310386e-05
5.6434109e-05
8.2599755e-05
0.00012015526
0.00017372284
0.00024959643
0.00035618496
0.00050442171
0.00070795685
0.00098277747
0.0013456675
0.0018107681
0.0023838565
0.0030554999
0.0037971338
0.0045652648
0.0053140984
0.0060090094
0.006632462
0.0071816475
0.0076627476
0.0080857797
0.0084613187
0.0087980308
0.0091028434
0.009384933
0.0096719063
0.010021397
0.010204998
0.0093846231
0.0064848631
0.0028531851
0.0012040101
0.00053058688
0.00027460595
0.0001803321
0.00014205115
0.00012395719
0.0001132454
0.00010649877
0.00010196338
0.00010052286
0.00010111088
0.00010169863
0.00010031346
1.6445513e-12
5.1677497e-11
4.2258462e-10
1.8173994e-09
5.5928613e-09
1.4114215e-08
3.1301324e-08
6.3445668e-08
1.2041793e-07
2.1743969e-07
3.7766752e-07
6.3594345e-07
1.0442139e-06
1.6793268e-06
2.6542058e-06
4.1338006e-06
6.3577577e-06
9.6724972e-06
1.4576359e-05
2.1782737e-05
3.2307683e-05
4.7590186e-05
6.9655049e-05
0.0001013291
0.00014652002
0.00021055987
0.00030059681
0.00042597738
0.00059848223
0.00083214154
0.0011421622
0.0015423295
0.0020403856
0.0026319665
0.0032958588
0.0039953267
0.0046874786
0.0053359889
0.005919001
0.0064290797
0.0068684406
0.0072436425
0.0075615833
0.0078267026
0.0080406705
0.008203681
0.0083542313
0.008281339
0.0073962994
0.0046296802
0.002107514
0.00091956393
0.00042647476
0.0002348299
0.00016258504
0.00013475943
0.00012139154
0.00011427415
0.00010846128
0.00010349731
9.9463406e-05
9.863339e-05
9.7559736e-05
9.7748484e-05
9.6739196e-05
1.3778345e-12
4.3296325e-11
3.5404866e-10
1.5226442e-09
4.6857519e-09
1.1824894e-08
2.622386e-08
5.3152944e-08
1.0088022e-07
1.8215505e-07
3.1637163e-07
5.3270866e-07
8.7466506e-07
1.4065855e-06
2.2230104e-06
3.4620198e-06
5.3241972e-06
8.0994559e-06
1.2204791e-05
1.8237077e-05
2.7046326e-05
3.9836339e-05
5.8301116e-05
8.4806326e-05
0.0001226242
0.0001762251
0.00025161515
0.00035667806
0.00050141886
0.00069790087
0.00095950974
0.0012990174
0.0017249554
0.0022364829
0.0028186689
0.0034415457
0.004066522
0.0046573478
0.0051889036
0.0056491662
0.0060355973
0.0063498151
0.0065930346
0.0067617212
0.0068463394
0.006828493
0.0066194407
0.0056533791
0.003169024
0.0015029402
0.00069172704
0.00034187014
0.00020360876
0.00015131327
0.00013096966
0.00012175276
0.00011591148
0.00011122224
0.0001063027
0.00010169573
9.8090971e-05
9.619148e-05
9.4586919e-05
9.473229e-05
9.3930153e-05
1.1487455e-12
3.6097559e-11
2.9518181e-10
1.2694739e-09
3.9066229e-09
9.8585755e-09
2.1862812e-08
4.4312581e-08
8.4099597e-08
1.5185008e-07
2.6372722e-07
4.4404633e-07
7.2905235e-07
1.1723531e-06
1.8527026e-06
2.8851058e-06
4.4365945e-06
6.7485361e-06
1.0168014e-05
1.5191691e-05
2.2526646e-05
3.3173913e-05
4.8541682e-05
7.0595896e-05
0.00010205541
0.00014663501
0.00020932891
0.00029670379
0.00041712376
0.00058074847
0.00079902256
0.001083239
0.0014417393
0.0018757151
0.0023747467
0.0029149429
0.0034626922
0.003983386
0.0044499387
0.0048459801
0.0051632386
0.0053962984
0.0055365495
0.005566176
0.0054667259
0.0051195756
0.0041291711
0.0022017025
0.0010508144
0.0005118747
0.00027493703
0.00017858484
0.00014202668
0.00012838496
0.00012220228
0.00011783572
0.00011325261
0.00010813858
0.00010311684
9.8877211e-05
9.564143e-05
9.4103424e-05
9.2637023e-05
9.2344913e-05
9.1100889e-05
9.5513372e-13
3.0013605e-11
2.4543112e-10
1.0555103e-09
3.2481559e-09
8.196793e-09
1.817724e-08
3.6841628e-08
6.9918687e-08
1.2624077e-07
2.1924131e-07
3.6912707e-07
6.060152e-07
9.7444421e-07
1.5398341e-06
2.397699e-06
3.6867297e-06
5.6072801e-06
8.4473507e-06
1.2618872e-05
1.8707965e-05
2.7543848e-05
4.0292041e-05
5.8578101e-05
8.4647599e-05
0.0001215649
0.0001734448
0.00024569255
0.00034519181
0.00048031762
0.00066055695
0.00089541011
0.0011922084
0.00155274
0.0019694101
0.002423012
0.0028846755
0.0033223345
0.0037080529
0.0040213339
0.0042469221
0.0043695344
0.0043637741
0.0042206018
0.0038124628
0.0027871694
0.0014754727
0.00073569023
0.00037890835
0.00022296294
0.00015882648
0.00013441313
0.000125802
0.00012200591
0.00011946683
0.00011465516
0.00010878427
0.00010394567
0.00010014935
9.6972631e-05
9.4508407e-05
9.2451306e-05
9.0718338e-05
9.0244144e-05
8.9076363e-05
7.927305e-13
2.4910329e-11
2.0369978e-10
8.7603635e-10
2.695835e-09
6.8029136e-09
1.50859e-08
3.0575403e-08
5.8024917e-08
1.0476267e-07
1.8193344e-07
3.062997e-07
5.0284207e-07
8.0849755e-07
1.2775108e-06
1.9890615e-06
3.0580879e-06
4.6505662e-06
7.0049605e-06
1.0462123e-05
1.5506622e-05
2.2823238e-05
3.3373083e-05
4.8494156e-05
7.0030486e-05
0.00010049117
0.00014323341
0.00020264829
0.00028429949
0.00039491622
0.0005420697
0.00073328168
0.00097428459
0.0012663197
0.0016029706
0.0019680311
0.0023364286
0.0026787614
0.0029668428
0.0031759366
0.003283064
0.0032608251
0.0030953016
0.0026823471
0.0017667085
0.00094366568
0.00050232116
0.00028196855
0.00018427483
0.000143339
0.00012794307
0.00012323389
0.00012160343
0.00012029069
0.00011610599
0.00010968848
0.0001051725
0.000101839
9.849823e-05
9.5548566e-05
9.2487397e-05
9.0825291e-05
8.9308495e-05
8.8525467e-05
8.7268724e-05
6.5553299e-13
2.0599109e-11
1.6844548e-10
7.2441909e-10
2.2292471e-09
5.6254195e-09
1.247453e-08
2.5282273e-08
4.797858e-08
8.6621605e-08
1.5042384e-07
2.5324008e-07
4.1571517e-07
6.6837021e-07
1.0560182e-06
1.6440537e-06
2.5273677e-06
3.842918e-06
5.7873399e-06
8.6414328e-06
1.2803884e-05
1.8837151e-05
2.7528863e-05
3.9972206e-05
5.7667822e-05
8.2646959e-05
0.00011760895
0.00016605293
0.00023236008
0.00032174374
0.00043993099
0.0005923814
0.00078283911
0.0010111634
0.0012708071
0.0015470581
0.0018175157
0.0020551212
0.0022317005
0.0023191579
0.0022897784
0.0021245242
0.0017290845
0.0010737706
0.00059731189
0.0003352539
0.00021066871
0.0001535644
0.00013165458
0.00012243512
0.0001214021
0.00012164242
0.00012086565
0.000117904
0.00011091524
0.00010670935
0.00010333232
9.9824883e-05
9.6276753e-05
9.3288991e-05
9.1203929e-05
8.9471826e-05
8.7796929e-05
8.6939652e-05
8.584426e-05
5.3654792e-13
1.6860189e-11
1.3787113e-10
5.929294e-10
1.824605e-09
4.6042752e-09
1.0209969e-08
2.0692278e-08
3.9267166e-08
7.0891841e-08
1.2310396e-07
2.072383e-07
3.4018218e-07
5.468968e-07
8.6402195e-07
1.3450053e-06
2.0673624e-06
3.1428926e-06
4.7319501e-06
7.0632103e-06
1.0460742e-05
1.5380556e-05
2.2458996e-05
3.257511e-05
4.6927938e-05
6.7126637e-05
9.5284982e-05
0.00013409996
0.0001868741
0.00025741064
0.00034967135
0.00046705032
0.00061114078
0.00077999709
0.00096623348
0.0011558163
0.0013284224
0.00145942
0.0015217343
0.0014899722
0.001345568
0.0010200618
0.00062668557
0.00036516949
0.00022627387
0.00015672627
0.00013072324
0.00011985443
0.00011832038
0.00011993358
0.00012247953
0.00012197944
0.00011935193
0.00011229928
0.00010782048
0.00010446284
0.00010073241
9.7306119e-05
9.4477791e-05
9.2229046e-05
8.9829049e-05
8.8206596e-05
8.6631884e-05
8.5753539e-05
8.4699338e-05
4.2910205e-13
1.3483869e-11
1.1026186e-10
4.7419184e-10
1.4592095e-09
3.6821881e-09
8.16513e-09
1.6547751e-08
3.1401467e-08
5.6689627e-08
9.843803e-08
1.6570664e-07
2.7199089e-07
4.3723279e-07
6.9069305e-07
1.0750315e-06
1.6520702e-06
2.5108771e-06
3.779011e-06
5.6380002e-06
8.3443628e-06
1.2257643e-05
1.7876887e-05
2.5886464e-05
3.7210613e-05
5.3072869e-05
7.5050305e-05
0.00010510183
0.00014553302
0.00019883684
0.00026732567
0.00035245826
0.00045383674
0.0005678318
0.00068639857
0.00079643654
0.00088022242
0.00091664655
0.00088672517
0.00077068034
0.00055402294
0.00034749117
0.00022051414
0.00015023657
0.00012120413
0.00010893234
0.00011068587
0.00011352233
0.0001204784
0.00012379744
0.00012333048
0.00012086878
0.00011369802
0.00010899646
0.00010554558
0.00010204413
9.8693701e-05
9.5987501e-05
9.3106507e-05
9.0616204e-05
8.8590646e-05
8.702906e-05
8.5546552e-05
8.4491875e-05
8.3558069e-05
3.2866221e-13
1.0327701e-11
8.4452821e-11
3.6319654e-10
1.117641e-09
2.8202371e-09
6.2536736e-09
1.2673619e-08
2.4049033e-08
4.3414301e-08
7.538203e-08
1.2688572e-07
2.0824982e-07
3.3472345e-07
5.2866698e-07
8.2265067e-07
1.263816e-06
1.9199633e-06
2.8879635e-06
4.305226e-06
6.3650648e-06
9.3367986e-06
1.3591167e-05
1.9630866e-05
2.8124312e-05
3.9937398e-05
5.6152317e-05
7.8053418e-05
0.00010704743
0.00014447131
0.00019122913
0.00024723672
0.00031061849
0.00037690795
0.00043840991
0.00048411266
0.0005000994
0.00047516665
0.00039607187
0.00028163531
0.00018936234
0.00013050824
0.00010329082
9.1739117e-05
9.4222512e-05
0.00010011026
0.00011136288
0.0001234049
0.00012545895
0.00012494629
0.00012252024
0.00011539189
0.0001100468
0.00010675887
0.00010321714
0.00010009371
9.7081874e-05
9.4012731e-05
9.1468073e-05
8.9423211e-05
8.7514584e-05
8.6043763e-05
8.448154e-05
8.3702076e-05
8.279858e-05
2.3488582e-13
7.3809207e-12
6.0355985e-11
2.5956474e-10
7.98733e-10
2.0154725e-09
4.4690421e-09
9.0565527e-09
1.7184493e-08
3.1019923e-08
5.3855993e-08
9.0640733e-08
1.4873778e-07
2.3901448e-07
3.7738862e-07
5.8701161e-07
9.0132439e-07
1.3682905e-06
2.0561831e-06
3.0613571e-06
4.5184425e-06
6.6132635e-06
9.5983961e-06
1.3810399e-05
1.9686049e-05
2.7771942e-05
3.8717171e-05
5.3232237e-05
7.1989759e-05
9.5436557e-05
0.00012350382
0.00015519189
0.00018810601
0.00021809975
0.00023914171
0.00024351426
0.00022694946
0.00018423404
0.0001361811
0.00010002479
8.0174459e-05
7.0921567e-05
7.2737294e-05
7.9085985e-05
9.3494777e-05
0.00011563694
0.00012501187
0.00012739659
0.0001267786
0.00012432857
0.0001170153
0.00011134729
0.00010787903
0.00010448844
0.00010126979
9.8272701e-05
9.5039503e-05
9.2700708e-05
9.0317907e-05
8.8364749e-05
8.6442501e-05
8.5078209e-05
8.3626023e-05
8.2712044e-05
8.1942967e-05
1.5214726e-13
4.7809877e-12
3.9095431e-11
1.6813084e-10
5.173629e-10
1.3054408e-09
2.8945079e-09
5.8653625e-09
1.1128322e-08
2.0085425e-08
3.4866139e-08
5.8667753e-08
9.6243853e-08
1.5460068e-07
2.4398247e-07
3.7925362e-07
5.8181674e-07
8.8223847e-07
1.32378e-06
1.9670285e-06
2.8957649e-06
4.2240132e-06
6.1038044e-06
8.7323774e-06
1.2356148e-05
1.7266583e-05
2.3780068e-05
3.2190196e-05
4.2679099e-05
5.5178397e-05
6.9173591e-05
8.3495106e-05
9.6146749e-05
0.00010425876
0.00010428023
9.5474069e-05
7.9037312e-05
6.4350755e-05
5.4614529e-05
4.9448558e-05
5.1899548e-05
5.6978564e-05
6.9175197e-05
9.4902548e-05
0.00011834314
0.00012721982
0.00012918689
0.0001285613
0.00012613849
0.00011886759
0.0001127179
0.0001092685
0.00010551326
0.0001025155
9.9378439e-05
9.6413428e-05
9.3858257e-05
9.1341746e-05
8.9089373e-05
8.7188745e-05
8.5586701e-05
8.4164586e-05
8.2836604e-05
8.2077243e-05
8.1336496e-05
8.6808476e-14
2.7278163e-12
2.2305969e-11
9.5925913e-11
2.9516914e-10
7.4475205e-10
1.6511924e-09
3.3455924e-09
6.3466745e-09
1.1452868e-08
1.9875851e-08
3.3432865e-08
5.4821651e-08
8.8010398e-08
1.3878571e-07
2.1551401e-07
3.3018464e-07
4.9981234e-07
7.4827549e-07
1.1086393e-06
1.6259342e-06
2.3601848e-06
3.3891515e-06
4.8096676e-06
6.7355562e-06
9.2888522e-06
1.2579762e-05
1.6669896e-05
2.151449e-05
2.6885851e-05
3.2290676e-05
3.6910787e-05
3.961024e-05
3.9352713e-05
3.6864556e-05
3.3730705e-05
3.1118483e-05
3.061921e-05
3.3641248e-05
3.8094634e-05
4.8268846e-05
6.6878491e-05
9.7446382e-05
0.00011894103
0.00012858205
0.00013099755
0.00013038356
0.00012809153
0.00012094472
0.00011441157
0.00011062564
0.00010671992
0.00010360107
0.00010073169
9.7646836e-05
9.5065163e-05
9.2198471e-05
9.0066636e-05
8.8024127e-05
8.6394249e-05
8.4649598e-05
8.3467353e-05
8.2051694e-05
8.1378612e-05
8.0701893e-05
4.2684008e-14
1.3412739e-12
1.0967808e-11
4.7165563e-11
1.4512473e-10
3.6614395e-10
8.1169443e-10
1.6443855e-09
3.1188049e-09
5.626474e-09
9.7608477e-09
1.6410547e-08
2.6891932e-08
4.3135765e-08
6.7946957e-08
1.0536066e-07
1.611211e-07
2.433088e-07
3.6313174e-07
5.3586821e-07
7.818877e-07
1.1275597e-06
1.6056612e-06
2.2545861e-06
3.115254e-06
4.224193e-06
5.6010747e-06
7.2298617e-06
9.034692e-06
1.0857414e-05
1.2449158e-05
1.3515738e-05
1.4069963e-05
1.4491615e-05
1.5170733e-05
1.6609799e-05
1.9017107e-05
2.3644739e-05
3.1894306e-05
4.6255385e-05
6.8371222e-05
9.7173616e-05
0.00011784312
0.00012927051
0.00013272472
0.00013217109
0.0001300685
0.00012333821
0.00011609105
0.00011211883
0.00010791136
0.00010486843
0.00010180031
9.8985237e-05
9.6127531e-05
9.3453469e-05
9.1116621e-05
8.9096546e-05
8.7051593e-05
8.5407339e-05
8.3909472e-05
8.2656674e-05
8.1473297e-05
8.0825776e-05
8.017529e-05
1.8176397e-14
5.711618e-13
4.6704285e-12
2.0083983e-11
6.1793638e-11
1.5588984e-10
3.4554471e-10
6.9990328e-10
1.3271368e-09
2.3934192e-09
4.1502663e-09
6.9735606e-09
1.1418683e-08
1.8297472e-08
2.8784048e-08
4.4557611e-08
6.7990228e-08
1.0238513e-07
1.5226345e-07
2.2368056e-07
3.2452165e-07
4.6467255e-07
6.5588275e-07
9.1103533e-07
1.2424579e-06
1.6589411e-06
2.1614713e-06
2.7387418e-06
3.365353e-06
4.0089875e-06
4.6915183e-06
5.5328979e-06
6.6073352e-06
7.9544297e-06
1.0302269e-05
1.4139174e-05
2.0454646e-05
3.1176116e-05
4.7029425e-05
6.8497373e-05
9.4151977e-05
0.00011464021
0.00012933983
0.0001344487
0.00013408748
0.00013219057
0.00012585569
0.00011798708
0.00011370853
0.00010940299
0.0001061028
0.00010300168
0.00010013757
9.7507945e-05
9.4617567e-05
9.232265e-05
8.9895802e-05
8.7934407e-05
8.6170381e-05
8.4677477e-05
8.3204959e-05
8.2053979e-05
8.082804e-05
8.0285018e-05
7.9664534e-05
7.5512536e-15
2.3728469e-13
1.940279e-12
8.343547e-12
2.5670468e-11
6.475768e-11
1.4353348e-10
2.9070447e-10
5.5116295e-10
9.9383819e-10
1.7229904e-09
2.8943013e-09
4.737554e-09
7.5882081e-09
1.1930698e-08
1.8456694e-08
2.8141595e-08
4.2341706e-08
6.2912165e-08
9.2340764e-08
1.3388455e-07
1.9168383e-07
2.7081811e-07
3.7726331e-07
5.1773902e-07
6.9950619e-07
9.3086752e-07
1.2246492e-06
1.6068832e-06
2.1418236e-06
2.9053554e-06
4.0434098e-06
5.8020341e-06
8.6159646e-06
1.3226381e-05
2.0639279e-05
3.174519e-05
4.6872413e-05
6.6654304e-05
9.0601627e-05
0.00011273993
0.00013064329
0.00013627827
0.00013628578
0.00013446895
0.00012838222
0.00012003899
0.00011552704
0.00011091128
0.00010749559
0.00010412289
0.00010140074
9.8649773e-05
9.6000095e-05
9.3359199e-05
9.1057652e-05
8.8861393e-05
8.7201908e-05
8.5315976e-05
8.3939947e-05
8.2458106e-05
8.1444748e-05
8.033222e-05
7.9844282e-05
7.9222801e-05
4.5571494e-15
1.4320062e-13
1.1709668e-12
5.0355563e-12
1.5494068e-11
3.9091456e-11
8.6662644e-11
1.7557177e-10
3.3300648e-10
6.0078145e-10
1.0422891e-09
1.7524846e-09
2.8721275e-09
4.6079416e-09
7.2609291e-09
1.1265807e-08
1.7245464e-08
2.6085562e-08
3.9036077e-08
5.7849325e-08
8.4969133e-08
1.2379679e-07
1.7908394e-07
2.5755752e-07
3.6900946e-07
5.283019e-07
7.5850933e-07
1.0972528e-06
1.6061332e-06
2.3908589e-06
3.6232979e-06
5.5783864e-06
8.6770541e-06
1.3546247e-05
2.0928484e-05
3.1493443e-05
4.5881434e-05
6.4807089e-05
8.8315356e-05
0.00011202359
0.00013119604
0.00013805584
0.00013850842
0.00013681824
0.00013107821
0.00012230587
0.000117482
0.00011262504
0.00010892915