/*--------------------------------*- C++ -*----------------------------------*\
  =========                 |
  \\      /  F ield         | OpenFOAM: The Open Source CFD Toolbox
   \\    /   O peration     | Website:  https://openfoam.org
    \\  /    A nd           | Version:  13
     \\/     M anipulation  |
\*---------------------------------------------------------------------------*/
FoamFile
{
    format      ascii;
    class       volScalarField;
    location    "0.05";
    object      mag(U);
}
// * * * * * * * * * * * * * * * * * * * * * * * * * * * * * * * * * * * * * //

dimensions      [0 1 -1 0 0 0 0];

internalField   nonuniform List<scalar> 
1000
(
26.9728
27.071
27.2594
27.4787
27.6818
27.8503
27.9938
28.1301
28.2697
28.4164
28.5697
28.7269
28.8845
29.0404
29.1937
29.3453
29.4961
29.6473
29.799
29.9515
30.1044
30.2574
30.4103
30.5629
30.7153
30.8676
31.0199
31.1722
31.3246
31.477
31.6294
31.7817
31.9338
32.0858
32.2376
32.3893
32.5407
32.6918
32.8426
32.993
33.1429
33.2917
33.4396
33.5876
33.7354
33.8831
34.0308
34.1788
34.3263
34.4729
34.6203
34.7688
34.9162
35.0629
35.2116
35.3625
35.5125
35.6619
35.814
35.9668
36.1167
36.2624
36.4042
36.5526
36.7045
36.8549
37.004
37.1493
37.304
37.4603
37.6048
37.7468
37.8944
38.0421
38.1813
38.3221
38.4797
38.6366
38.7761
38.9038
39.0474
39.2129
39.3689
39.5001
39.6219
39.7764
39.9491
40.1012
40.2255
40.3389
40.492
40.6685
40.821
40.9407
41.0501
41.2055
41.3843
41.5273
41.6299
41.7491
41.9287
42.1055
42.2215
42.3087
42.4557
42.6501
42.7963
42.8816
42.9857
43.1571
43.3254
43.4377
43.5271
43.6631
43.8337
43.969
44.0585
44.1662
44.3362
44.4804
44.5505
44.6864
44.9194
45.0581
45.0677
45.1725
45.456
45.7285
45.9199
46.0039
45.9449
45.9662
46.2461
46.5489
46.5986
46.53
46.6534
47.0026
47.2796
47.2763
47.1817
47.2936
47.6407
47.9295
47.9315
47.8405
47.9644
48.3183
48.5913
48.5751
48.4844
48.6254
48.9872
49.2489
49.2204
49.1316
49.2904
49.6528
49.8843
49.8395
49.7733
49.9833
50.3484
50.516
50.4417
50.4041
50.6577
51.0275
51.1626
51.0741
51.0392
51.2929
51.6654
51.8096
51.7223
51.6893
51.9508
52.3043
52.4071
52.3121
52.3306
52.6344
52.9501
52.9779
52.875
52.97
53.3113
53.5704
53.5358
53.4404
53.603
53.9623
54.1642
54.0923
54.0211
54.2368
54.5756
54.6924
54.6305
54.6453
54.8368
55.0535
55.1858
55.2846
55.353
55.427
55.5778
55.7402
55.8411
55.9146
56.0432
56.2119
56.3294
56.3997
56.5133
56.6861
56.8198
56.8885
56.9816
57.1548
57.3075
57.3724
57.449
57.6293
57.8021
57.8584
57.9117
58.1011
58.302
58.353
58.3734
58.5587
58.7933
58.8579
58.8443
59.0001
59.266
59.3716
59.3342
59.4278
59.7084
59.8878
59.8535
59.8564
60.109
60.3806
60.4042
60.3295
60.4704
60.7936
60.9618
60.895
60.8484
61.0854
61.4226
61.5215
61.4282
61.3897
61.6261
61.9787
62.1089
62.0239
61.9594
62.1502
62.4977
62.67
62.6094
62.532
62.6382
62.9701
63.2482
63.2445
63.1466
63.1536
63.4123
63.7621
63.8715
63.7816
63.7153
63.8842
64.236
64.449
64.3976
64.2959
64.3841
64.7108
64.9938
64.9945
64.89
64.9633
65.2313
65.4291
65.4421
65.4212
65.5376
65.7431
65.8872
65.9745
66.0378
66.1049
66.2455
66.3969
66.4647
66.5405
66.7339
66.9273
66.9916
66.9837
67.1166
67.3878
67.504
67.4425
67.3981
67.577
67.9277
68.1343
68.0889
67.9884
68.0637
68.3805
68.6717
68.6949
68.5886
68.5897
68.8634
69.1856
69.2649
69.1705
69.1312
69.368
69.6978
69.8169
69.7382
69.6771
69.8839
70.2134
70.36
70.2964
70.2217
70.4051
70.7326
70.8981
70.8472
70.7677
70.9265
71.2476
71.4319
71.3948
71.3111
71.4498
71.7656
71.9632
71.9379
71.8491
71.9731
72.284
72.4902
72.4765
72.3893
72.4952
72.8012
73.0205
73.015
72.9232
73.017
73.3228
73.5517
73.5568
73.4649
73.5333
73.8323
74.0665
74.0577
73.9907
74.0879
74.2865
74.4151
74.4753
74.5093
74.6223
74.7993
74.9164
74.9788
75.0305
75.1447
75.2758
75.345
75.4313
75.5841
75.6989
75.7562
75.8573
76.0094
76.1164
76.1745
76.2711
76.4298
76.5645
76.6074
76.6449
76.8095
76.9869
77.0824
77.1607
77.2009
77.3044
77.4943
77.6314
77.6939
77.7154
77.8262
78.0457
78.1971
78.212
78.1812
78.323
78.597
78.7682
78.8316
78.8237
78.8063
78.9842
79.2225
79.3379
79.4129
79.4558
79.4649
79.6023
79.8334
79.9769
80.0275
79.9917
80.0181
80.2811
80.5652
80.6611
80.6051
80.5321
80.6736
80.9447
81.096
81.1105
81.0932
81.1933
81.4046
81.5659
81.65
81.7215
81.7692
81.8338
81.9957
82.1642
82.2653
82.3356
82.383
82.4513
82.6181
82.7771
82.8603
82.909
82.9697
83.1173
83.2768
83.3658
83.4098
83.4875
83.6538
83.8029
83.8789
83.9201
84.0067
84.1854
84.3338
84.413
84.4609
84.5128
84.6638
84.8388
84.9381
84.9989
85.0365
85.1449
85.3263
85.4531
85.5192
85.5527
85.6349
85.8086
85.9475
85.9963
86.0189
86.1413
86.3227
86.4247
86.4493
86.4721
86.6309
86.8388
86.9571
87.0362
87.1024
87.1393
87.2165
87.3986
87.5621
87.6505
87.7177
87.7562
87.817
87.9868
88.1688
88.273
88.3495
88.397
88.4281
88.5686
88.7628
88.8826
88.9607
89.0248
89.0624
89.1364
89.318
89.473
89.5519
89.6057
89.6396
89.7618
89.9476
90.0668
90.1352
90.1744
90.2297
90.3882
90.56
90.6527
90.7119
90.7438
90.8205
90.992
91.1364
91.2089
91.2523
91.2964
91.419
91.5607
91.6251
91.6706
91.7942
91.9389
92.0063
92.0463
92.1667
92.3242
92.4113
92.4454
92.5132
92.6706
92.8085
92.8715
92.901
92.9855
93.1568
93.2901
93.356
93.388
93.4425
93.605
93.7713
93.8569
93.915
93.9463
94.0025
94.1634
94.3244
94.4066
94.4576
94.4856
94.5817
94.7547
94.8768
94.9362
94.9638
95.0375
95.2076
95.3498
95.4199
95.4596
95.4946
95.6365
95.8233
95.9291
95.9975
96.0519
96.0765
96.1504
96.3311
96.4858
96.5635
96.6227
96.6576
96.6934
96.841
97.0274
97.1303
97.1987
97.252
97.2759
97.3613
97.5491
97.6988
97.7769
97.8407
97.8842
97.9082
98.0277
98.2196
98.3402
98.4086
98.4619
98.4897
98.5672
98.7417
98.8877
98.9599
99.0024
99.037
99.1691
99.3546
99.4608
99.5192
99.564
99.5891
99.696
99.9044
100.055
100.135
100.21
100.269
100.29
100.372
100.558
100.708
100.783
100.851
100.9
100.946
101.091
101.266
101.367
101.428
101.473
101.512
101.645
101.839
101.96
102.023
102.063
102.081
102.187
102.397
102.535
102.609
102.679
102.712
102.804
102.99
103.122
103.203
103.295
103.351
103.384
103.501
103.672
103.8
103.872
103.93
104.012
104.139
104.298
104.394
104.442
104.52
104.66
104.827
104.938
104.999
105.048
105.185
105.369
105.477
105.551
105.621
105.729
105.91
106.046
106.12
106.197
106.307
106.481
106.627
106.701
106.744
106.862
107.054
107.21
107.321
107.393
107.467
107.651
107.83
107.922
107.992
108.063
108.221
108.4
108.512
108.593
108.658
108.789
108.985
109.134
109.235
109.305
109.378
109.532
109.727
109.849
109.942
110.038
110.165
110.379
110.562
110.687
110.817
110.93
111.062
111.263
111.439
111.563
111.703
111.832
111.95
112.125
112.3
112.419
112.548
112.677
112.774
112.915
113.101
113.254
113.396
113.564
113.703
113.788
113.948
114.18
114.356
114.496
114.634
114.745
114.853
115.055
115.286
115.457
115.612
115.747
115.858
116.019
116.235
116.417
116.576
116.727
116.855
117.005
117.213
117.423
117.588
117.717
117.847
118.055
118.282
118.451
118.575
118.706
118.924
119.157
119.325
119.439
119.566
119.795
120.039
120.214
120.317
120.427
120.659
120.928
121.124
121.226
121.3
121.51
121.812
122.06
122.192
122.23
122.353
122.659
122.979
123.198
123.275
123.286
123.464
123.808
124.122
124.342
124.423
124.427
124.597
124.941
125.259
125.504
125.699
125.741
125.756
126.01
126.413
126.742
126.958
126.989
126.95
127.137
127.552
127.939
128.165
128.183
128.13
128.304
128.704
129.081
129.304
129.361
129.371
129.529
129.801
130.047
130.19
130.339
130.602
130.85
130.954
131.081
131.401
131.761
132.04
132.225
132.223
132.217
132.467
132.87
133.209
133.432
133.495
133.48
133.619
133.968
134.337
134.559
134.641
134.708
134.927
135.233
135.472
135.61
135.764
136.016
136.271
136.444
136.606
136.841
137.091
137.279
137.45
137.675
137.92
138.122
138.305
138.52
138.757
138.973
139.166
139.374
139.615
139.847
140.037
140.227
140.484
140.755
140.943
141.094
141.337
141.633
141.817
141.948
142.24
142.596
142.726
142.751
143.041
143.522
143.773
143.75
143.773
144.03
144.511
144.959
145.081
145.009
145.044
145.332
145.826
146.225
146.29
146.233
146.342
146.739
147.24
147.558
147.607
147.557
147.7
148.092
148.506
148.797
149.047
149.143
149.108
149.195
149.608
150.105
150.384
150.441
150.384
150.433
150.766
151.279
151.652
151.745
151.703
151.781
152.139
152.578
152.891
153.138
153.283
153.262
153.269
153.572
154.079
154.464
154.564
154.524
154.581
154.922
155.421
155.734
155.768
155.772
155.984
156.42
156.83
156.937
156.907
157.054
157.446
157.871
158.071
158.085
158.169
158.517
158.929
159.102
159.13
159.322
159.699
159.99
160.086
160.202
160.498
160.829
161.012
161.114
161.312
161.634
161.92
162.047
162.14
162.425
162.784
162.97
)
;

boundaryField
{
    sides
    {
        type            calculated;
        value           nonuniform List<scalar> 2(162.97 26.9728);
    }
    empty
    {
        type            empty;
    }
}


// ************************************************************************* //
