/*--------------------------------*- C++ -*----------------------------------*\
  =========                 |
  \\      /  F ield         | OpenFOAM: The Open Source CFD Toolbox
   \\    /   O peration     | Website:  https://openfoam.org
    \\  /    A nd           | Version:  13
     \\/     M anipulation  |
\*---------------------------------------------------------------------------*/
FoamFile
{
    format      ascii;
    class       volScalarField;
    location    "0.05";
    object      mag(U);
}
// * * * * * * * * * * * * * * * * * * * * * * * * * * * * * * * * * * * * * //

dimensions      [0 1 -1 0 0 0 0];

internalField   nonuniform List<scalar> 
1000
(
33.1304
33.1982
33.3733
33.6345
33.9287
34.2057
34.414
34.5579
34.6817
34.8034
34.9366
35.0934
35.2765
35.4783
35.6886
35.9003
36.1071
36.3017
36.4808
36.6468
36.8053
36.9609
37.1162
37.2737
37.4362
37.6057
37.7822
37.964
38.1491
38.3361
38.5251
38.7152
38.9041
39.0883
39.2658
39.4374
39.6061
39.7753
39.9461
40.1187
40.2909
40.4511
40.6008
40.7489
40.8979
41.0602
41.2362
41.4081
41.583
41.7749
41.9543
42.102
42.2553
42.4257
42.5674
42.695
42.8715
43.0652
43.2099
43.3551
43.5611
43.7639
43.9061
44.0472
44.2496
44.4648
44.6213
44.7582
44.9474
45.1881
45.3768
45.5019
45.7062
45.9603
46.0988
46.2178
46.4685
46.6787
46.7525
46.929
47.2089
47.3158
47.3988
47.6823
47.8868
47.9135
48.1067
48.4259
48.5105
48.5502
48.8477
49.1148
49.1261
49.231
49.5751
49.7563
49.7458
49.9385
50.276
50.3621
50.3788
50.6609
50.937
50.9492
51.0402
51.3779
51.5613
51.5434
51.7255
52.0708
52.1658
52.16
52.4228
52.734
52.7614
52.8032
53.1252
53.3672
53.3545
53.4756
53.8218
53.977
53.9439
53.9951
54.3087
54.7244
54.8417
54.7521
54.8361
55.2143
55.4995
55.4708
55.4882
55.8181
56.1004
56.0834
56.13
56.4681
56.7021
56.6669
56.7631
57.1184
57.2972
57.2473
57.3898
57.7557
57.894
57.834
58.0015
58.3745
58.4973
58.4279
58.5932
58.9723
59.1041
59.027
59.1716
59.5521
59.7034
59.6256
59.7514
60.1251
60.283
60.2087
60.3384
60.7033
60.838
60.7697
60.9346
61.2855
61.3686
61.3155
61.5392
61.8601
61.8806
61.8618
62.1446
62.4155
62.3852
62.4143
62.7392
62.9534
62.8902
62.9637
63.3126
63.4847
63.4014
63.4976
63.8601
64.0208
63.9254
64.0079
64.3759
64.5666
64.4692
64.4921
64.8438
65.1169
65.0496
64.9828
65.2641
65.6281
65.645
65.5232
65.6951
66.0831
66.2015
66.0787
66.16
66.531
66.7167
66.6097
66.6429
66.9933
67.2125
67.1181
67.1265
67.4617
67.6953
67.6084
67.6054
67.9325
68.1742
68.0905
68.0779
68.3993
68.6479
68.5657
68.5442
68.8604
69.1161
69.0373
69.0056
69.3146
69.5789
69.5041
69.4624
69.764
70.0368
69.9668
69.9141
70.207
70.4887
70.4249
70.3609
70.644
70.9365
70.8802
70.803
71.0737
71.3802
71.3357
71.241
71.4922
71.8172
71.7932
71.6765
71.8954
72.2444
72.2572
72.118
72.2822
72.6535
72.7296
72.5775
72.6552
73.0275
73.202
73.0649
73.0325
73.3591
73.6544
73.5796
73.4502
73.6742
74.0501
74.089
73.9242
74.0126
74.3915
74.566
74.4239
74.391
74.7186
75.0021
74.9165
74.8037
75.0565
75.4034
75.3905
75.2392
75.4092
75.7824
75.8479
75.6869
75.7746
76.1462
76.2907
76.1405
76.152
76.5017
76.7205
76.5944
76.5389
76.8509
77.1353
77.049
76.9385
77.1979
77.5324
77.4998
77.3509
77.5418
77.9094
77.9451
77.7769
77.8867
78.263
78.3839
78.2206
78.2386
78.5947
78.8077
78.6725
78.6049
78.9132
79.2123
79.1311
78.9933
79.2245
79.5842
79.5834
79.4074
79.5354
79.9187
80.0272
79.8537
79.867
80.2254
80.4486
80.3115
80.222
80.518
80.8393
80.7736
80.6144
80.8154
81.1919
81.2264
81.0435
81.1282
81.51
81.6641
81.4984
81.4673
81.8079
82.0772
81.9637
81.8393
82.1024
82.4562
82.4296
82.2531
82.4073
82.7974
82.8838
82.7023
82.734
83.1073
83.3205
83.1736
83.0913
83.4006
83.7243
83.6524
83.4891
83.6943
84.0824
84.1225
83.9327
84.003
84.3919
84.5724
84.4087
84.3441
84.6708
84.9831
84.8949
84.7316
84.9447
85.3345
85.3687
85.173
85.2363
85.6252
85.816
85.6527
85.5692
85.8833
86.2135
86.1395
85.9585
86.1387
86.5391
86.6115
86.4145
86.4261
86.7996
87.0474
86.908
86.772
87.0351
87.4144
87.4034
87.2006
87.2905
87.6923
87.8695
87.6953
87.6039
87.9156
88.2674
88.2078
88.0109
88.1469
88.5587
88.6954
88.5061
88.4391
88.77
89.1078
89.0278
88.832
88.9856
89.4005
89.52
89.3229
89.2654
89.6045
89.9326
89.8405
89.645
89.8112
90.2243
90.3242
90.119
90.0758
90.4256
90.7335
90.6221
90.4325
90.6231
91.0286
91.0883
90.8733
90.8546
91.2181
91.511
91.3802
91.1921
91.4052
91.7881
91.7953
91.5708
91.5923
91.9619
92.1709
92.014
91.8631
92.0513
92.4888
92.6304
92.4221
92.3525
92.7016
92.988
92.9056
92.8961
93.0708
93.1583
93.2136
93.3084
93.3547
93.4641
93.6205
93.6575
93.7143
93.8298
93.8433
93.987
94.31
94.3319
94.1445
94.2808
94.6629
94.7032
94.5016
94.6112
94.9174
94.906
94.8083
94.985
95.1437
95.086
95.1287
95.3141
95.35
95.3616
95.5691
95.6946
95.6429
95.8137
96.1055
96.0604
95.9639
96.2132
96.4228
96.3322
96.2185
96.2451
96.5713
96.8724
96.7882
96.6236
96.6106
96.9082
97.2531
97.1967
97.0036
96.9567
97.2304
97.6225
97.623
97.4419
97.4335
97.7755
98.1189
98.0777
97.9643
97.9527
98.2054
98.6302
98.6672
98.4756
98.5426
98.7433
98.7652
98.7711
98.876
98.8982
98.9758
99.2139
99.2674
99.1945
99.2687
99.392
99.3982
99.4752
99.657
99.6766
99.7161
100.008
100.144
99.9758
99.9966
100.373
100.539
100.326
100.226
100.557
100.868
100.735
100.549
100.787
101.125
101.047
100.862
101.076
101.393
101.311
101.15
101.382
101.671
101.56
101.424
101.687
101.947
101.807
101.694
101.981
102.217
102.055
101.96
102.263
102.478
102.302
102.227
102.539
102.725
102.536
102.497
102.818
102.95
102.753
102.776
103.099
103.153
102.961
103.069
103.372
103.333
103.175
103.375
103.62
103.496
103.412
103.683
103.834
103.658
103.675
103.98
104.022
103.832
103.953
104.251
104.194
104.028
104.237
104.495
104.364
104.244
104.514
104.719
104.539
104.47
104.778
104.932
104.723
104.698
105.028
105.141
104.918
104.925
105.266
105.349
105.118
105.15
105.497
105.556
105.322
105.379
105.727
105.762
105.53
105.615
105.961
105.968
105.741
105.859
106.201
106.178
105.959
106.112
106.448
106.394
106.186
106.371
106.698
106.618
106.421
106.632
106.948
106.847
106.663
106.899
107.205
107.086
106.912
107.166
107.466
107.335
107.168
107.435
107.727
107.587
107.445
107.724
107.987
107.845
107.667
107.926
108.328
108.288
108.027
108.032
108.439
108.756
108.592
108.353
108.553
109.007
109.077
108.814
108.801
109.214
109.464
109.267
109.137
109.477
109.812
109.678
109.504
109.79
110.154
110.062
109.875
110.137
110.516
110.445
110.257
110.51
110.898
110.841
110.652
110.901
111.301
111.257
111.067
111.311
111.724
111.695
111.503
111.738
112.164
112.155
111.963
112.188
112.62
112.623
112.435
112.66
113.093
113.097
112.911
113.145
113.574
113.564
113.411
113.68
114.036
113.987
113.823
113.937
114.427
114.752
114.624
114.467
114.58
115.068
115.45
115.342
115.156
115.269
115.772
116.16
116.044
115.852
116.027
116.569
116.869
116.704
116.555
116.854
117.417
117.563
117.35
117.317
117.762
118.259
118.233
118.018
118.169
118.726
119.051
118.896
118.763
119.118
119.689
119.79
119.575
119.632
120.163
120.587
120.483
120.324
120.665
121.243
121.349
121.144
121.278
121.846
122.144
121.984
121.981
122.488
122.898
122.798
122.735
123.191
123.648
123.588
123.51
123.944
124.408
124.362
124.295
124.734
125.186
125.136
125.091
125.548
125.979
125.914
125.9
126.385
126.784
126.702
126.723
127.237
127.604
127.504
127.559
128.095
128.432
128.32
128.406
128.961
129.276
129.156
129.262
129.831
130.14
130.015
130.124
130.701
131.024
130.899
130.986
131.564
131.928
131.81
131.846
132.407
132.848
132.761
132.726
133.237
133.768
133.749
133.608
133.934
134.606
134.872
134.718
134.699
135.178
135.843
135.978
135.799
135.895
136.494
137.059
137.042
136.88
137.167
137.854
138.206
138.067
138.031
138.544
139.19
139.269
139.094
139.308
139.982
140.398
140.285
140.22
140.707
141.375
141.49
141.314
141.502
142.173
142.622
142.522
142.442
142.917
143.599
143.733
143.558
143.736
144.411
144.871
144.774
144.692
145.168
145.855
145.992
145.816
145.995
146.673
147.137
147.041
146.955
147.427
148.123
148.273
148.095
148.244
148.911
149.424
149.354
149.234
149.634
150.359
150.619
150.446
150.533
151.177
151.69
151.632
151.509
151.84
152.563
152.935
152.821
152.758
153.035
153.73
154.25
154.188
154.062
154.264
154.919
155.528
155.522
155.359
155.543
156.208
156.797
156.769
156.603
156.87
157.589
158.047
157.934
157.831
158.281
159.014
159.223
159.035
159.131
159.789
160.35
160.295
160.159
160.587
161.312
161.503
161.316
161.475
162.169
162.627
162.511
162.456
163.006
163.655
163.689
163.52
163.863
164.582
164.829
164.648
164.765
165.437
165.921
165.811
165.725
166.247
166.925
166.962
166.748
167.053
167.819
168.04
167.789
167.901
168.508
168.824
)
;

boundaryField
{
    sides
    {
        type            calculated;
        value           nonuniform List<scalar> 2(168.824 33.1304);
    }
    empty
    {
        type            empty;
    }
}


// ************************************************************************* //
