/*--------------------------------*- C++ -*----------------------------------*\
  =========                 |
  \\      /  F ield         | OpenFOAM: The Open Source CFD Toolbox
   \\    /   O peration     | Website:  https://openfoam.org
    \\  /    A nd           | Version:  13
     \\/     M anipulation  |
\*---------------------------------------------------------------------------*/
FoamFile
{
    format      ascii;
    class       surfaceScalarField;
    location    "0.05";
    object      phi;
}
// * * * * * * * * * * * * * * * * * * * * * * * * * * * * * * * * * * * * * //

dimensions      [1 0 -1 0 0 0 0];

internalField   nonuniform List<scalar> 
999
(
20.3552
20.4684
20.5815
20.6946
20.8076
20.9205
21.0335
21.1464
21.2594
21.3723
21.4852
21.598
21.7109
21.8238
21.9367
22.0496
22.1625
22.2755
22.3884
22.5014
22.6143
22.7273
22.8403
22.9533
23.0663
23.1793
23.2923
23.4053
23.5183
23.6313
23.7442
23.857
23.9698
24.0824
24.195
24.3074
24.4196
24.5317
24.6435
24.755
24.8663
24.9766
25.0872
25.1972
25.3067
25.4162
25.527
25.6367
25.7448
25.8522
25.9661
26.0748
26.1817
26.2886
26.4062
26.515
26.6218
26.7288
26.8496
26.9596
27.0658
27.166
27.2612
27.389
27.4981
27.6041
27.6944
27.8089
27.9509
28.0544
28.1517
28.2515
28.3789
28.4792
28.5446
28.6746
28.8295
28.934
29.0034
29.0553
29.2413
29.3836
29.4839
29.5015
29.572
29.8202
29.9406
30.0383
30.0298
30.0873
30.3603
30.4849
30.5792
30.5506
30.6094
30.9072
31.0286
31.0763
31.0189
31.1961
31.4845
31.5898
31.5107
31.4996
31.8719
32.0396
32.054
31.9544
32.123
32.4101
32.5072
32.4551
32.4644
32.7717
32.9063
32.9424
32.8622
33.0471
33.3372
33.2958
33.1303
33.6207
33.972
33.7172
33.4178
33.8758
34.5375
34.7325
34.9474
34.5451
34.0263
34.1878
35.2403
35.4198
34.664
34.4049
35.064
35.9121
36.0325
35.1238
34.9052
35.4595
36.4176
36.5351
35.6309
35.4008
36.0613
36.9676
37.0275
36.1007
35.885
36.6518
37.512
37.5274
36.5913
36.3817
37.2802
38.0297
37.9213
37.0505
36.8869
38.0842
38.5887
38.2169
37.5028
37.4036
38.7669
39.1597
38.6561
38.0082
37.8968
39.2766
39.6839
39.2338
38.5238
38.4719
39.8637
40.1883
39.5364
38.9766
39.1879
40.4905
40.669
39.736
39.3865
40.0481
41.0598
41.0524
40.0499
39.8027
40.8958
41.6038
41.3773
40.4608
40.301
41.6358
42.0106
41.434
41.0317
41.0839
41.804
41.8958
41.9503
41.975
41.7955
41.8554
42.2934
42.3443
42.3025
42.2031
42.6586
42.7675
42.7551
42.6003
42.9898
43.208
43.2214
43.0258
43.2655
43.6648
43.6879
43.4259
43.5873
44.1626
44.1904
43.8166
43.8966
44.6888
44.7309
44.2335
44.1757
45.1767
45.2867
44.7262
44.4684
45.5353
45.8231
45.3493
44.8627
45.6105
46.3215
46.1039
45.3462
45.4877
46.784
46.8776
45.9837
45.6192
46.7933
47.4058
47.0839
46.2221
46.0912
47.6885
47.9933
47.3464
46.6961
46.5106
48.1329
48.5131
48.029
47.2565
46.9873
48.3773
48.9582
48.6588
47.8407
47.5697
48.1587
49.46
49.5203
48.5342
48.2271
48.0983
49.8287
50.1392
49.569
48.8531
48.5515
49.8023
50.6162
50.4904
49.4628
49.1595
49.7403
51.0963
51.1997
50.1605
49.7606
50.4419
51.2252
51.1978
50.5895
50.3962
51.1334
51.368
51.3933
51.3848
51.233
51.2426
51.7818
51.7905
51.5019
51.7008
52.5042
52.5709
52.214
51.7267
52.8982
53.3741
52.8688
52.2406
51.9183
53.3294
54.0787
53.9736
52.9196
52.589
53.0925
54.5678
54.7072
53.7601
53.2209
53.2721
55.0334
55.2336
54.6014
53.8122
53.6708
55.4577
55.7339
55.325
54.3855
54.1497
55.8672
56.236
55.9744
54.9542
54.656
56.2824
56.7471
56.5839
55.5252
55.1928
56.6869
57.2575
57.184
56.107
55.7346
57.1051
57.7743
57.7592
56.6929
56.2706
57.5402
58.295
58.3134
57.2829
56.8197
57.9615
58.8195
58.8818
57.8559
57.353
58.3887
59.3707
59.4454
58.4715
57.9142
58.7173
59.8996
59.9033
58.9179
58.6405
59.4977
59.7249
59.7247
59.552
59.2715
60.0147
60.1868
60.1689
60.0351
59.9248
60.4771
60.4637
60.2374
60.5924
60.9053
60.8454
60.6271
61.1882
61.3281
61.2986
61.0507
61.6097
61.8778
61.8147
61.5544
61.5861
62.3767
62.4031
62.4437
62.3107
62.0632
62.8609
63.0758
63.0738
62.9424
62.4787
63.3928
63.8868
63.8941
63.1715
62.7689
64.1479
64.5413
64.6004
64.4792
63.7383
63.578
64.8525
64.9333
64.9468
65.0031
64.7097
64.2521
65.4954
65.8371
65.8746
65.5213
64.7125
65.0073
66.7109
66.8581
66.5935
65.5114
65.1573
66.6075
67.0128
67.0068
66.3261
65.9673
66.8364
67.311
67.354
67.3553
67.3028
66.9868
67.157
67.987
68.0164
68.0027
67.9508
67.623
67.8923
68.5821
68.6006
68.5383
68.2804
68.3315
69.1213
69.1192
69.0572
68.7237
69.0987
69.6908
69.6883
69.6023
69.2393
69.7994
70.3241
70.3306
70.2781
69.9966
69.9747
70.9268
70.9581
70.9326
70.785
70.4462
71.308
71.5736
71.558
71.459
71.0578
71.617
72.154
72.1473
71.8411
71.5476
72.6131
72.7237
72.6693
72.1326
72.015
73.2805
73.3679
73.3705
73.3539
73.27
72.8591
73.3349
74.0853
74.1066
74.0852
74.0155
73.6676
73.762
74.7956
74.8377
74.8353
74.7902
74.5098
74.3306
75.5048
75.6006
75.6021
75.5803
75.4802
75.0743
75.6131
76.2621
76.2718
76.2267
76.0196
75.7058
76.7762
76.953
76.9319
76.8618
76.4972
76.6184
77.6172
77.6329
77.5973
77.4886
77.0726
77.6377
78.2556
78.2452
78.1736
77.9181
77.8428
78.6497
78.6079
78.37
78.284
79.125
79.0919
78.8728
78.6821
79.6414
79.668
79.5761
79.1854
79.6287
80.261
80.2314
80.1
79.6799
80.4311
80.9067
80.8845
80.7994
80.3789
80.6103
81.6067
81.621
81.5789
81.4881
81.074
81.325
82.2645
82.2692
82.2133
82.0418
81.6371
82.5607
82.8867
82.8453
82.7179
82.2681
82.8719
83.5461
83.5316
83.4586
83.1296
82.9466
84.2583
84.3434
84.3298
84.2917
84.1603
83.6717
84.3378
85.11
85.1171
85.0795
84.9997
84.6424
84.5193
85.8409
85.9041
85.8858
85.845
85.6884
85.1836
86.0647
86.7151
86.7266
86.7014
86.6342
86.374
85.9892
87.2831
87.5041
87.4878
87.4418
87.3068
86.8345
87.526
88.1946
88.176
88.0993
87.7738
87.5262
88.8897
89.0028
88.9664
88.897
88.7066
88.1871
89.3042
89.8498
89.8645
89.8489
89.8339
89.6244
89.1438
90.181
90.7179
90.7026
90.6535
90.5999
90.2127
90.1777
91.4617
91.5193
91.4944
91.4372
91.152
90.8466
92.1623
92.3429
92.3165
92.2404
91.9957
91.5448
92.7378
93.0971
93.0764
93.0642
92.9124
92.3838
93.2282
93.9266
93.9558
93.9673
93.8987
93.6682
93.3681
94.5832
94.7543
94.6686
94.6734
94.3254
94.4741
95.4419
95.3843
95.3024
95.0061
95.0631
96.1175
96.1229
96.1153
95.7876
95.6267
96.8173
96.8385
96.8244
96.6429
96.386
97.3768
97.5763
97.5579
97.4856
97.1252
97.9939
98.4274
98.3201
98.162
97.6986
98.4924
99.056
99.1441
99.0991
98.6934
99.0471
99.8792
99.8976
99.8657
99.5029
99.5984
100.699
100.741
100.747
100.55
100.212
101.3
101.592
101.61
101.56
101.144
101.22
102.398
102.388
102.326
102.354
101.879
102.468
103.217
103.226
103.307
103.411
103.037
103.52
104.173
104.155
104.244
104.504
104.299
104.353
105.153
105.139
105.124
105.58
105.535
105.337
106.075
106.213
106.125
106.417
106.778
106.626
106.306
107.455
107.792
107.873
107.963
108.023
107.622
107.71
108.816
108.916
109.019
109.207
109.017
108.783
109.718
110.026
110.117
110.24
110.298
109.987
110.454
111.171
111.281
111.361
110.95
111.179
112.132
112.291
112.312
111.844
112.165
113.143
113.337
113.272
112.716
113.078
114.198
114.422
114.337
113.583
113.831
115.297
115.581
115.636
114.532
114.45
116.229
116.806
117.109
116.045
115.268
116.132
117.911
118.309
118.428
116.542
116.175
117.924
119.222
119.644
119.852
117.788
117.349
118.876
120.242
120.612
121.137
120.867
118.706
118.515
121.223
122.24
122.761
122.755
120
119.531
121.519
123.62
124.215
124.185
121.234
120.788
122.544
124.648
125.185
125.192
123.053
122.91
123.756
124.692
124.689
123.955
124.451
125.856
125.571
124.256
124.958
127.313
127.848
128.466
127.845
125.245
125.092
127.822
128.915
129.462
129.662
127.027
126.607
127.552
129.74
130.25
129.978
128.324
128.308
129.824
130.454
130.201
129.565
129.966
131.016
131.109
130.534
130.772
131.754
131.903
131.476
131.651
132.473
132.662
132.464
132.562
133.182
133.417
133.452
133.441
133.922
134.353
134.49
134.192
134.49
135.534
135.821
135.035
134.971
136.472
136.904
135.56
135.544
138.192
138.625
135.84
135.313
139.045
140.571
138.819
136.366
136.09
138.791
141.422
142.322
139.182
137.64
137.274
140.321
142.812
143.098
139.394
138.749
138.951
143.296
144.335
144.515
140.792
140.237
141.17
144.102
144.686
145.313
145.951
142.718
141.644
142.149
146.3
147.306
147.437
143.661
142.958
142.47
146.308
148.357
148.705
145.193
144.332
144.385
147.97
148.73
149.122
149.994
147.615
145.813
145.221
148.633
151.135
151.433
147.915
147.016
146.646
150.71
152.331
151.63
148.467
148.162
150.22
153.03
153.584
150.125
149.366
150.266
153.968
154.587
152.355
150.891
151.229
154.583
155.318
152.762
151.955
153.842
155.834
155.111
153.135
153.738
156.312
156.484
154.71
154.425
156.014
157.295
157.016
155.537
155.351
157.732
159.127
)
;

boundaryField
{
    sides
    {
        type            calculated;
        value           nonuniform List<scalar> 2(157.325 -20.2419);
    }
    empty
    {
        type            empty;
    }
}


// ************************************************************************* //
