/*--------------------------------*- C++ -*----------------------------------*\
  =========                 |
  \\      /  F ield         | OpenFOAM: The Open Source CFD Toolbox
   \\    /   O peration     | Website:  https://openfoam.org
    \\  /    A nd           | Version:  13
     \\/     M anipulation  |
\*---------------------------------------------------------------------------*/
FoamFile
{
    format      ascii;
    class       surfaceScalarField;
    location    "0.05";
    object      phi_0;
}
// * * * * * * * * * * * * * * * * * * * * * * * * * * * * * * * * * * * * * //

dimensions      [1 0 -1 0 0 0 0];

internalField   nonuniform List<scalar> 
999
(
26.159
26.2963
26.4336
26.5707
26.7077
26.8446
26.9814
27.1182
27.2548
27.3914
27.5279
27.6643
27.8005
27.9366
28.0726
28.2085
28.3443
28.4799
28.6155
28.7509
28.8861
29.0213
29.1563
29.2911
29.4258
29.5603
29.6946
29.8288
29.9629
30.0969
30.2308
30.3649
30.4991
30.6341
30.7699
30.9064
31.0461
31.1865
31.3249
31.471
31.6135
31.7462
31.8958
32.0025
32.1223
32.2873
32.4319
32.495
32.6431
32.8581
32.9179
32.9805
33.2339
33.4245
33.3481
33.4738
33.8485
33.9445
33.8162
34.0065
34.4007
34.4375
34.3272
34.4759
34.9021
35.0119
34.8458
34.941
35.3218
35.6869
35.383
35.3617
36.0586
36.2295
35.7134
36.0278
36.8004
36.4458
36.0744
37.0759
37.3843
36.4475
36.8732
37.953
37.2559
36.7632
38.1394
38.4898
37.2458
37.4947
38.9486
38.6021
37.6333
38.5072
39.5939
38.5708
38.0668
39.5853
40.0384
38.6622
38.8062
40.3714
40.0911
39.0186
39.8632
41.0152
39.9854
39.3979
40.9463
41.5198
40.0572
40.0005
41.7467
41.7472
40.4006
40.867
42.364
41.7454
40.7874
41.9691
42.9197
41.7261
41.3043
41.1148
43.206
43.8829
42.4489
41.7888
42.4524
44.105
43.8147
42.4168
42.7818
44.5379
44.2152
42.8827
43.5283
45.0692
44.3607
43.2764
44.4019
45.6383
44.4918
43.6575
45.2095
46.1874
44.748
44.0739
45.8355
46.7114
45.1702
44.5117
46.285
47.223
45.7235
44.9774
46.625
47.6977
46.3248
45.464
47.0038
48.155
46.8191
45.9293
47.5726
48.6133
47.1008
46.3818
48.3369
49.0177
47.258
46.9295
49.0989
49.2594
47.4914
47.6769
49.7016
49.3434
47.8103
48.5613
50.2549
49.4013
48.1331
49.391
50.8005
49.584
48.4808
49.9969
51.3084
49.9929
48.897
50.264
51.7585
50.7055
49.4104
50.0685
52.1402
51.783
49.9889
49.7896
52.4137
52.8092
50.6838
50.0668
52.3085
53.3191
51.6612
50.6312
52.116
53.6558
52.5329
51.1635
52.1818
54.0243
53.1924
51.632
52.4324
54.4231
53.7164
52.0672
52.76
54.8405
54.2052
52.4889
53.1003
55.2599
54.6892
52.9101
53.4344
55.6789
55.1751
53.3281
53.7567
56.0923
55.6646
53.7481
54.0793
56.5051
56.1573
54.1678
54.3937
56.9139
56.6474
54.5887
54.6982
57.318
57.1532
55.0141
54.9838
57.7183
57.6834
55.4548
55.2348
58.0913
58.2519
55.9367
55.4647
58.3902
58.8375
56.5178
55.7481
58.4657
59.3674
57.3238
56.2413
58.0594
59.7154
58.4946
56.8977
57.2827
60.0085
59.8302
57.5343
56.982
60.0862
60.7494
58.4475
57.4613
59.4176
61.0861
59.8494
58.1627
58.6609
61.3651
61.0881
58.7611
58.4293
61.612
61.9431
59.4215
58.6434
61.6093
62.4993
60.2777
59.1239
61.3353
62.8572
61.29
59.718
60.9548
63.1864
62.295
60.2742
60.6691
63.5243
63.2303
60.8097
60.5656
63.8281
64.03
61.412
60.7003
63.9425
64.6654
62.1856
61.1017
63.7094
65.0707
63.255
61.7173
63.1355
65.3774
64.4103
62.3276
62.5985
65.6958
65.5249
62.9238
62.4036
65.8917
66.3825
63.6942
62.6868
65.5653
66.8722
64.8819
63.3597
64.7431
67.1466
66.2505
64.0169
64.0542
67.4371
67.4494
64.67
63.9446
67.4708
68.2343
65.6153
64.4132
66.8583
68.5985
66.9863
65.1404
65.9552
68.8862
68.3729
65.7919
65.4397
69.1293
69.4581
66.5445
65.5858
68.8879
70.0647
67.7329
66.2559
67.984
70.3569
69.2465
66.9813
67.1134
70.6519
70.6071
67.6773
66.8981
70.6423
71.4782
68.7266
67.4425
69.7599
71.8245
70.3382
68.2473
68.5951
72.0921
71.9084
68.9782
68.2011
72.0853
72.9028
70.0649
68.7758
71.0185
73.2285
71.8361
69.6215
69.7243
73.4832
73.4672
70.3995
69.4673
73.2145
74.3533
71.7386
70.2593
71.6926
74.5929
73.7295
71.0989
70.5626
74.7301
75.2403
72.0776
70.9279
73.5477
75.6929
74.0425
71.8986
71.7933
75.8773
76.0099
72.7755
71.7288
74.9838
76.7556
74.6146
72.7528
72.8999
76.913
76.8634
73.6355
72.6054
76.1195
77.7764
75.4325
73.6442
73.937
77.9203
77.7729
74.5242
73.4927
77.2627
78.7677
76.2133
74.4954
75.0903
78.9207
78.5734
75.3726
74.3872
78.5294
79.7326
76.7925
75.3199
76.2383
79.9273
79.4975
76.2044
75.3583
79.7762
80.5481
77.2877
76.0176
77.7821
80.8021
79.3339
77.1199
76.0448
79.7984
81.6398
79.4489
77.1943
77.7309
81.6944
80.5533
78.3953
79.4143
79.8533
79.1511
79.7062
79.6381
78.9023
80.5331
80.4302
79.6071
80.6293
80.5343
78.8492
82.4605
83.5874
80.2327
78.8415
83.0425
84.3527
80.9406
79.5165
83.43
83.8225
80.8144
81.1471
83.5057
82.4465
81.0309
82.8445
83.1823
81.4474
82.2412
84.0916
82.5337
81.275
85.2651
85.3141
81.9081
82.3158
85.6489
84.4102
82.8041
82.0415
82.0583
86.4888
85.8408
83.3551
82.6395
82.0853
86.9896
86.8643
83.9055
83.1943
82.3947
87.4543
87.8894
84.4922
83.6027
83.2881
88.0826
87.4901
85.2476
84.7214
83.4412
88.4303
89.6671
86.0556
85.0807
87.6089
87.5287
86.2315
86.8563
87.3422
85.6337
88.1
89.0685
87.0783
86.6707
88.1181
87.7988
86.5902
88.5781
88.8473
86.7138
88.6094
91.1898
89.0624
86.5535
89.3769
92.2425
90.1435
87.3029
87.8654
92.503
92.1137
88.1172
87.6098
92.6912
92.7506
88.7173
88.1198
93.0557
92.9794
89.0599
88.8344
93.5589
93.1115
89.3388
89.6456
94.0698
93.2305
89.6343
90.4621
94.5855
93.401
89.9676
91.1964
95.0541
93.6007
90.3033
92.0013
95.4981
93.6492
90.6112
93.0812
95.9111
93.4194
90.8303
94.5238
96.2883
92.9059
91.2282
95.9329
96.3575
92.4932
92.2272
96.7507
95.9337
92.4625
93.9865
97.274
95.1647
92.4515
96.0792
97.7922
94.3204
92.7669
97.6505
97.9343
93.9294
93.6814
98.4562
97.7588
93.9691
94.9392
99.0118
97.4955
94.1198
96.2299
99.5579
97.319
94.3002
97.3539
100.076
97.279
94.5364
98.2642
100.569
97.3551
94.8335
99.0456
101.016
97.4773
95.1776
99.7892
101.429
97.5933
95.5588
100.545
101.814
97.6926
95.9888
101.294
102.157
97.8176
96.4845
101.99
102.468
98.0006
97.0458
102.617
102.769
98.2563
97.6424
103.182
103.058
98.5499
98.2653
103.719
103.358
98.9021
98.8675
104.246
103.737
99.2695
99.4131
104.743
103.998
99.6838
100.362
105.041
104.08
100.152
99.1987
105.534
106.102
101.456
100.045
101.58
106.745
106.018
101.401
99.9877
106.032
107.802
103.673
101.104
103.787
107.972
106.244
102.094
102.719
108.301
107.713
102.88
102.661
108.693
108.594
103.533
103.015
109.167
109.304
104.15
103.442
109.685
109.95
104.736
103.916
110.222
110.629
105.346
104.405
110.766
111.351
106.002
104.891
111.295
112.087
106.691
105.435
111.824
112.758
107.35
106.082
112.459
113.403
107.931
106.715
113.188
113.907
108.385
108.047
113.815
113.159
109.05
107.782
110.131
115.401
113.387
109.847
108.687
110.226
116.287
115.072
110.64
109.448
111.253
117.271
116.111
111.304
109.908
113.822
118.434
115.779
111.828
110.407
117.172
119.739
114.571
112.228
112.262
119.582
120.063
113.849
112.344
116.245
121.092
118.581
114.122
112.997
120.495
122.524
116.421
114.305
116.5
122.664
121.708
115.823
114.713
122.25
124.35
117.994
115.69
120.304
124.793
121.287
117.012
119.05
125.233
123.634
118.066
118.97
125.851
125.046
118.979
119.578
126.611
125.919
119.788
120.523
127.468
126.492
120.527
121.711
128.399
126.861
121.251
123.07
129.372
127.11
121.923
124.51
130.376
127.336
122.599
125.935
131.388
127.604
123.285
127.246
132.407
128.058
124.008
128.359
133.376
128.751
124.786
129.134
134.307
129.857
125.64
129.459
135.162
131.44
126.592
129.158
135.884
133.683
127.658
128.588
136.458
136.088
128.918
127.36
134.665
138.764
132.655
129.545
128.629
137.679
140.035
132.068
130.117
131.573
139.904
139.844
132.031
130.408
136.714
141.907
137.209
132.481
132.193
141.441
143.042
134.472
132.596
137.644
143.819
140.287
134.54
133.859
143.317
145.427
136.729
134.65
139.209
145.894
142.865
136.567
135.718
145.319
147.703
138.898
136.663
141.099
148.057
145.14
138.569
137.708
147.489
149.91
140.915
138.637
143.178
150.268
147.254
140.591
139.575
149.53
152.171
143.119
140.759
144.294
152.301
150.214
142.802
141.155
150.393
154.614
146.806
142.952
146.09
154.365
152.064
144.977
143.114
150.192
156.19
150.412
146.281
144.657
148.424
156.954
154.513
147.605
146.102
147.825
157.876
157.522
148.753
147.175
149.48
159.236
158.475
149.649
147.788
153.56
161.035
157.196
150.245
148.707
159.336
163.067
153.707
150.445
153.443
162.816
161.423
152.384
150.883
161.671
165.206
155.406
152.157
157.68
165.441
161.317
154.018
154.389
165.39
166.172
155.726
153.717
163.832
168.352
159.239
155.226
160.043
168.457
164.939
157.027
156.72
168.325
169.949
158.865
156.013
166.416
171.874
162.528
157.611
163.467
172.264
)
;

boundaryField
{
    sides
    {
        type            calculated;
        value           nonuniform List<scalar> 2(165.747 -26.0216);
    }
    empty
    {
        type            empty;
    }
}


// ************************************************************************* //
