/*--------------------------------*- C++ -*----------------------------------*\
  =========                 |
  \\      /  F ield         | OpenFOAM: The Open Source CFD Toolbox
   \\    /   O peration     | Website:  https://openfoam.org
    \\  /    A nd           | Version:  13
     \\/     M anipulation  |
\*---------------------------------------------------------------------------*/
FoamFile
{
    format      ascii;
    class       volScalarField;
    location    "0.05";
    object      rho_0;
}
// * * * * * * * * * * * * * * * * * * * * * * * * * * * * * * * * * * * * * //

dimensions      [1 -3 0 0 0 0 0];

internalField   nonuniform List<scalar> 
1000
(
0.196359
0.196351
0.196329
0.196297
0.196264
0.196232
0.196208
0.196192
0.196177
0.196162
0.196147
0.196129
0.196108
0.196086
0.196063
0.19604
0.196018
0.195997
0.195977
0.19596
0.195943
0.195927
0.195911
0.195895
0.195878
0.195861
0.195844
0.195826
0.195807
0.195789
0.19577
0.195752
0.195733
0.195715
0.195697
0.195679
0.195661
0.195641
0.19562
0.195598
0.195579
0.195551
0.195547
0.195542
0.195522
0.195517
0.195525
0.1955
0.195478
0.195494
0.195498
0.195446
0.195444
0.195489
0.19545
0.19538
0.195416
0.195467
0.195366
0.195307
0.195374
0.195412
0.195298
0.195239
0.195291
0.195354
0.195258
0.195179
0.195177
0.195298
0.195266
0.195087
0.195148
0.195311
0.19515
0.195013
0.195232
0.195289
0.194988
0.195042
0.195338
0.195099
0.194886
0.195237
0.19528
0.194857
0.194977
0.195364
0.195066
0.194767
0.195153
0.195351
0.194883
0.194786
0.195276
0.195246
0.194762
0.194898
0.195337
0.195052
0.194704
0.195076
0.195314
0.194847
0.194727
0.195224
0.195209
0.194709
0.194829
0.195302
0.195051
0.194646
0.194976
0.195315
0.194891
0.194647
0.195128
0.195271
0.194757
0.194729
0.195248
0.195155
0.19471
0.194558
0.194866
0.195403
0.195289
0.194703
0.1946
0.195192
0.195411
0.194883
0.19464
0.195152
0.195396
0.194886
0.194693
0.195244
0.195377
0.194834
0.194768
0.195356
0.195354
0.194804
0.194856
0.195451
0.195351
0.194812
0.194928
0.195527
0.195397
0.194856
0.194968
0.195589
0.19549
0.194929
0.194998
0.195644
0.195597
0.19502
0.195056
0.19571
0.195681
0.195106
0.195165
0.195806
0.19572
0.195172
0.195339
0.19593
0.195707
0.195232
0.195577
0.196048
0.195664
0.19532
0.195839
0.196142
0.195637
0.195445
0.196076
0.196221
0.195654
0.195592
0.19627
0.196308
0.19572
0.195722
0.196426
0.196438
0.195837
0.195806
0.196537
0.196625
0.196012
0.195853
0.19656
0.196845
0.196289
0.195967
0.196449
0.197003
0.19668
0.196167
0.19635
0.197087
0.197018
0.196397
0.196386
0.19716
0.19725
0.196623
0.196508
0.197258
0.197436
0.19683
0.19666
0.197389
0.197611
0.197021
0.196822
0.197544
0.197792
0.19721
0.196991
0.197707
0.197979
0.197404
0.197166
0.197874
0.198173
0.197607
0.197346
0.198045
0.198372
0.197818
0.197533
0.198219
0.198576
0.198036
0.197728
0.198396
0.198786
0.198264
0.197929
0.198575
0.199002
0.198503
0.198137
0.198748
0.199226
0.198762
0.198352
0.198904
0.199454
0.19905
0.198581
0.199027
0.199681
0.199381
0.198836
0.199102
0.199889
0.199757
0.199132
0.199156
0.200039
0.200146
0.199492
0.199281
0.200064
0.200481
0.199957
0.199544
0.199967
0.200711
0.200499
0.199886
0.199931
0.200843
0.200955
0.200284
0.200074
0.200886
0.201282
0.20073
0.200332
0.200901
0.201537
0.201182
0.200634
0.200942
0.201758
0.201608
0.20096
0.201039
0.201947
0.201992
0.201308
0.201199
0.202102
0.202336
0.201681
0.201418
0.202223
0.202642
0.202083
0.201681
0.202313
0.20292
0.202509
0.201983
0.202381
0.203175
0.202951
0.202314
0.202468
0.203389
0.203386
0.202686
0.202602
0.203549
0.203772
0.203099
0.20282
0.203635
0.204108
0.203569
0.203117
0.20366
0.204394
0.204083
0.203473
0.203677
0.204622
0.204591
0.203876
0.203785
0.20476
0.205016
0.204338
0.204023
0.204807
0.205362
0.204865
0.204355
0.204796
0.205633
0.205415
0.204742
0.204828
0.205833
0.205913
0.205178
0.204988
0.205932
0.206316
0.205681
0.205275
0.205943
0.206635
0.206239
0.20564
0.20593
0.206884
0.206791
0.206057
0.206007
0.207039
0.207264
0.206541
0.206233
0.207076
0.207637
0.207103
0.206581
0.207034
0.20792
0.207703
0.206998
0.20704
0.208104
0.208244
0.207487
0.207227
0.208142
0.208658
0.20808
0.207582
0.208065
0.208962
0.208732
0.208023
0.208047
0.209137
0.209308
0.208548
0.208254
0.209134
0.209724
0.209187
0.208645
0.209012
0.210006
0.209878
0.209121
0.209022
0.210107
0.21043
0.209706
0.209309
0.209977
0.210789
0.210423
0.209758
0.209832
0.21096
0.211093
0.210298
0.210002
0.210856
0.211528
0.211014
0.210431
0.210618
0.21174
0.211765
0.210956
0.210707
0.211642
0.212255
0.211675
0.211126
0.211362
0.212482
0.212468
0.211653
0.21142
0.212401
0.212987
0.212374
0.211835
0.212129
0.213239
0.213178
0.212362
0.212158
0.213208
0.213732
0.213065
0.212555
0.21296
0.214022
0.213858
0.213074
0.212913
0.214024
0.214507
0.213806
0.21329
0.213849
0.214805
0.214501
0.21378
0.213715
0.214897
0.21515
0.214382
0.214076
0.214323
0.215545
0.2156
0.214725
0.214466
0.215551
0.215994
0.215286
0.215221
0.21564
0.215573
0.215561
0.21577
0.215619
0.215831
0.216152
0.216017
0.216051
0.216366
0.216068
0.216303
0.217275
0.216983
0.216234
0.216602
0.217688
0.217464
0.216629
0.217023
0.21789
0.217464
0.21703
0.217697
0.217912
0.217461
0.217554
0.218073
0.217887
0.217678
0.218357
0.218445
0.217928
0.218441
0.219202
0.21867
0.218189
0.219102
0.219414
0.218858
0.218677
0.218479
0.219492
0.220086
0.219486
0.21918
0.218964
0.219824
0.220631
0.2201
0.219677
0.219457
0.220177
0.221142
0.220706
0.220129
0.21991
0.220873
0.221557
0.221003
0.220767
0.220572
0.221061
0.222275
0.221989
0.221242
0.221573
0.222061
0.221878
0.221789
0.222165
0.221982
0.222022
0.222838
0.222677
0.222333
0.222606
0.222862
0.222661
0.222787
0.223346
0.223116
0.222965
0.224025
0.224144
0.223352
0.223328
0.224642
0.224819
0.223896
0.223591
0.224779
0.225401
0.22468
0.224094
0.224977
0.225813
0.22524
0.224592
0.225427
0.226238
0.225649
0.225059
0.225995
0.226688
0.226013
0.225523
0.226583
0.227146
0.226394
0.225997
0.227145
0.22761
0.226801
0.22648
0.227688
0.22807
0.227222
0.22698
0.228225
0.228505
0.227631
0.227524
0.22878
0.228886
0.228009
0.22815
0.229342
0.229192
0.228375
0.228886
0.229868
0.229416
0.228791
0.229698
0.230321
0.229617
0.229316
0.230476
0.230692
0.229859
0.229982
0.231154
0.23098
0.230181
0.230761
0.23172
0.231223
0.230595
0.231545
0.232213
0.231492
0.231084
0.232263
0.232672
0.231818
0.231618
0.232907
0.233116
0.232199
0.23217
0.233492
0.23356
0.232621
0.232719
0.234041
0.234011
0.233065
0.233266
0.23457
0.234457
0.233519
0.233819
0.235091
0.234894
0.233975
0.23439
0.235605
0.23531
0.234428
0.234979
0.236117
0.235716
0.234883
0.235575
0.236623
0.236118
0.235344
0.236167
0.237125
0.236524
0.23581
0.23674
0.237614
0.236937
0.236276
0.237299
0.238095
0.237352
0.23674
0.237827
0.238573
0.23778
0.237194
0.238331
0.239032
0.238185
0.237686
0.238866
0.239412
0.238598
0.238035
0.238925
0.240051
0.239504
0.238713
0.238559
0.240057
0.240668
0.239734
0.239079
0.239641
0.241045
0.240888
0.239766
0.239668
0.241194
0.241574
0.240493
0.240037
0.241336
0.242044
0.241134
0.240481
0.241568
0.242449
0.241649
0.240901
0.241891
0.242854
0.242108
0.24131
0.242243
0.243253
0.242529
0.241697
0.242593
0.243639
0.242939
0.242072
0.242925
0.244017
0.243353
0.242445
0.243238
0.244388
0.243764
0.242814
0.243551
0.244736
0.244136
0.243166
0.243894
0.245074
0.244459
0.243486
0.244246
0.245399
0.244681
0.243811
0.244772
0.245542
0.244693
0.244127
0.243998
0.245603
0.24603
0.244905
0.24448
0.244283
0.245825
0.24646
0.245346
0.244792
0.244608
0.24618
0.24681
0.245642
0.24502
0.245034
0.246726
0.247016
0.245695
0.245174
0.245693
0.247249
0.246998
0.24569
0.245329
0.246584
0.24762
0.246693
0.245723
0.245718
0.247412
0.247744
0.246345
0.245759
0.246525
0.247957
0.247489
0.246167
0.24596
0.247553
0.248197
0.246891
0.246094
0.246849
0.248272
0.247778
0.246404
0.24645
0.248112
0.24829
0.246773
0.2464
0.247916
0.248498
0.247105
0.246477
0.247815
0.248595
0.247308
0.246569
0.247826
0.248656
0.247391
0.246647
0.247917
0.248698
0.247388
0.246712
0.248049
0.248718
0.247332
0.246773
0.248192
0.248711
0.24725
0.246826
0.248324
0.248684
0.247167
0.246873
0.248423
0.248644
0.247089
0.246908
0.248494
0.248604
0.247025
0.246907
0.248514
0.248576
0.246977
0.246859
0.248486
0.248593
0.24696
0.246753
0.24839
0.248649
0.246989
0.246593
0.248178
0.248728
0.24712
0.246457
0.247839
0.248746
0.247373
0.246395
0.246765
0.248525
0.248329
0.246669
0.246183
0.247116
0.24862
0.247891
0.246406
0.246083
0.24765
0.248599
0.24719
0.246134
0.246303
0.248151
0.248263
0.246454
0.245867
0.247048
0.248373
0.247358
0.245971
0.245963
0.247816
0.248151
0.246346
0.24565
0.246698
0.248148
0.247255
0.245757
0.245678
0.247536
0.247972
0.246167
0.245406
0.246402
0.24792
0.247083
0.245521
0.245415
0.247288
0.247759
0.245941
0.245155
0.246159
0.247697
0.246843
0.245263
0.245158
0.247056
0.247529
0.245689
0.244896
0.245865
0.247458
0.24665
0.245032
0.244825
0.246698
0.247351
0.245569
0.244685
0.245272
0.247127
0.246801
0.244894
0.244577
0.246409
0.247074
0.245321
0.244491
0.244649
0.24669
0.246727
0.244932
0.244422
0.244234
0.246231
0.246884
0.245107
0.244357
0.24402
0.245801
0.246855
0.245287
0.244219
0.243919
0.245779
0.246747
0.245085
0.244025
0.244005
0.246089
0.246514
0.24454
0.243741
0.244567
0.246417
0.245827
0.243964
0.243653
0.245565
0.246421
0.244616
0.243548
0.244413
0.24623
0.245539
0.243693
0.243604
0.245662
0.246094
0.244072
0.243313
0.244827
0.246148
0.244731
0.243319
0.243928
0.245898
0.245448
0.243468
0.24329
0.245377
0.245881
0.243843
0.243068
0.244565
0.24589
0.244524
0.243218
0.243657
0.245454
0.245326
0.243794
0.24314
0.244443
0.245395
)
;

boundaryField
{
    sides
    {
        type            calculated;
        value           nonuniform List<scalar> 2(0.245395 0.196359);
    }
    empty
    {
        type            empty;
    }
}


// ************************************************************************* //
