/*--------------------------------*- C++ -*----------------------------------*\
  =========                 |
  \\      /  F ield         | OpenFOAM: The Open Source CFD Toolbox
   \\    /   O peration     | Website:  https://openfoam.org
    \\  /    A nd           | Version:  13
     \\/     M anipulation  |
\*---------------------------------------------------------------------------*/
FoamFile
{
    format      ascii;
    class       volScalarField;
    location    "0.05";
    object      T;
}
// * * * * * * * * * * * * * * * * * * * * * * * * * * * * * * * * * * * * * //

dimensions      [0 0 0 1 0 0 0];

internalField   nonuniform List<scalar> 
1000
(
180.639
180.637
180.633
180.626
180.618
180.61
180.605
180.603
180.601
180.599
180.597
180.594
180.591
180.587
180.582
180.578
180.574
180.571
180.568
180.565
180.563
180.561
180.56
180.558
180.556
180.554
180.552
180.55
180.548
180.545
180.543
180.541
180.539
180.537
180.535
180.533
180.531
180.529
180.525
180.522
180.52
180.515
180.518
180.522
180.52
180.522
180.531
180.528
180.523
180.534
180.543
180.529
180.531
180.554
180.548
180.525
180.54
180.568
180.539
180.517
180.544
180.569
180.534
180.513
180.534
180.568
180.542
180.514
180.515
180.567
180.57
180.506
180.524
180.598
180.554
180.497
180.578
180.621
180.515
180.522
180.647
180.583
180.489
180.617
180.664
180.51
180.533
180.698
180.616
180.488
180.621
180.727
180.567
180.511
180.697
180.721
180.539
180.568
180.754
180.68
180.535
180.66
180.782
180.626
180.561
180.749
180.781
180.596
180.617
180.815
180.758
180.593
180.698
180.858
180.726
180.616
180.788
180.879
180.7
180.667
180.872
180.875
180.706
180.653
180.744
180.975
180.969
180.747
180.697
180.913
181.032
180.858
180.749
180.929
181.059
180.891
180.798
180.999
181.088
180.898
180.849
181.075
181.115
180.911
180.903
181.14
181.143
180.935
180.949
181.191
181.181
180.969
180.981
181.229
181.229
181.01
181.005
181.257
181.275
181.054
181.034
181.286
181.311
181.09
181.077
181.326
181.329
181.113
181.138
181.377
181.329
181.13
181.224
181.429
181.314
181.155
181.323
181.471
181.3
181.194
181.416
181.507
181.301
181.242
181.493
181.544
181.324
181.287
181.553
181.595
181.368
181.322
181.593
181.662
181.437
181.35
181.594
181.736
181.55
181.404
181.545
181.786
181.701
181.486
181.515
181.808
181.82
181.579
181.54
181.827
181.899
181.669
181.592
181.859
181.964
181.749
181.651
181.905
182.027
181.821
181.712
181.961
182.092
181.891
181.775
182.019
182.16
181.964
181.841
182.079
182.23
182.039
181.908
182.141
182.302
182.118
181.979
182.203
182.376
182.2
182.052
182.268
182.453
182.285
182.128
182.332
182.531
182.375
182.207
182.395
182.613
182.472
182.289
182.451
182.694
182.58
182.377
182.495
182.774
182.702
182.475
182.526
182.843
182.835
182.59
182.559
182.886
182.967
182.731
182.623
182.879
183.075
182.912
182.731
182.837
183.148
183.111
182.864
182.841
183.181
183.263
183.023
182.913
183.181
183.37
183.196
183.018
183.179
183.456
183.365
183.136
183.198
183.528
183.516
183.261
183.244
183.587
183.647
183.397
183.317
183.634
183.764
183.541
183.408
183.669
183.869
183.695
183.514
183.698
183.966
183.855
183.632
183.725
184.053
184.015
183.76
183.767
184.121
184.164
183.905
183.833
184.167
184.294
184.066
183.928
184.187
184.407
184.245
184.047
184.191
184.503
184.434
184.185
184.207
184.574
184.608
184.341
184.267
184.607
184.748
184.521
184.37
184.61
184.861
184.72
184.501
184.604
184.949
184.916
184.65
184.633
185.007
185.083
184.82
184.712
185.026
185.215
185.014
184.831
185.019
185.319
185.22
184.972
185.02
185.396
185.409
185.131
185.069
185.432
185.563
185.318
185.17
185.428
185.683
185.531
185.307
185.411
185.773
185.744
185.467
185.434
185.821
185.921
185.658
185.528
185.814
186.054
185.884
185.67
185.782
186.149
186.117
185.837
185.8
186.191
186.303
186.043
185.902
186.168
186.435
186.285
186.055
186.125
186.519
186.524
186.236
186.16
186.529
186.698
186.465
186.289
186.466
186.81
186.729
186.459
186.438
186.847
186.946
186.67
186.532
186.78
187.078
186.94
186.696
186.708
187.129
187.191
186.901
186.781
187.062
187.341
187.179
186.947
186.973
187.399
187.448
187.15
187.037
187.336
187.605
187.43
187.202
187.245
187.672
187.705
187.404
187.298
187.627
187.873
187.677
187.459
187.537
187.955
187.952
187.653
187.563
187.919
188.149
187.941
187.719
187.848
188.238
188.185
187.9
187.838
188.239
188.392
188.133
188.003
188.029
188.487
188.56
188.253
188.121
188.457
188.685
188.451
188.383
188.538
188.531
188.51
188.591
188.548
188.59
188.727
188.69
188.677
188.801
188.719
188.732
189.104
189.063
188.771
188.827
189.248
189.232
188.911
188.978
189.328
189.228
189.029
189.233
189.356
189.204
189.193
189.392
189.357
189.25
189.47
189.547
189.364
189.472
189.79
189.652
189.43
189.708
189.88
189.693
189.614
189.533
189.827
190.106
189.923
189.787
189.707
189.934
190.285
190.139
189.957
189.88
190.055
190.456
190.357
190.118
190.032
190.3
190.611
190.443
190.334
190.273
190.362
190.833
190.799
190.503
190.57
190.774
190.728
190.671
190.8
190.767
190.726
191.025
191.01
190.87
190.938
191.05
190.993
190.995
191.207
191.161
191.057
191.41
191.514
191.247
191.169
191.62
191.748
191.442
191.289
191.644
191.93
191.731
191.479
191.71
192.068
191.927
191.655
191.869
192.217
192.066
191.812
192.067
192.375
192.19
191.965
192.272
192.536
192.317
192.119
192.468
192.698
192.453
192.279
192.656
192.858
192.594
192.445
192.843
193.01
192.729
192.62
193.041
193.148
192.851
192.818
193.247
193.264
192.964
193.055
193.444
193.349
193.087
193.331
193.614
193.413
193.244
193.611
193.755
193.483
193.443
193.861
193.87
193.574
193.687
194.072
193.96
193.696
193.952
194.252
194.05
193.848
194.204
194.418
194.156
194.017
194.433
194.577
194.28
194.194
194.64
194.735
194.42
194.372
194.833
194.895
194.568
194.551
195.016
195.05
194.72
194.733
195.196
195.202
194.871
194.921
195.376
195.347
195.02
195.116
195.555
195.489
195.169
195.314
195.73
195.626
195.32
195.512
195.903
195.765
195.474
195.706
196.073
195.906
195.628
195.895
196.239
196.046
195.782
196.075
196.402
196.191
195.934
196.246
196.559
196.327
196.094
196.434
196.69
196.46
196.229
196.435
196.885
196.772
196.463
196.377
196.826
197.108
196.851
196.585
196.682
197.203
197.224
196.834
196.736
197.219
197.422
197.099
196.884
197.25
197.565
197.322
197.043
197.323
197.695
197.496
197.188
197.431
197.828
197.651
197.327
197.548
197.959
197.792
197.459
197.665
198.086
197.93
197.585
197.776
198.21
198.068
197.712
197.881
198.331
198.206
197.838
197.986
198.446
198.332
197.957
198.102
198.558
198.44
198.065
198.219
198.67
198.517
198.165
198.401
198.736
198.507
198.278
198.195
198.682
198.917
198.573
198.397
198.302
198.748
199.051
198.732
198.501
198.409
198.868
199.168
198.837
198.581
198.527
199.068
199.256
198.846
198.635
198.71
199.271
199.285
198.825
198.674
198.993
199.422
199.206
198.822
198.76
199.298
199.5
199.073
198.832
198.98
199.518
199.466
198.983
198.864
199.331
199.635
199.275
198.946
199.09
199.625
199.568
199.068
199.001
199.541
199.699
199.221
199.017
199.457
199.747
199.348
199.058
199.418
199.772
199.424
199.093
199.422
199.793
199.454
199.12
199.456
199.811
199.453
199.14
199.504
199.828
199.433
199.155
199.558
199.836
199.404
199.166
199.609
199.839
199.373
199.176
199.651
199.838
199.345
199.183
199.68
199.834
199.322
199.18
199.69
199.83
199.308
199.167
199.682
199.836
199.308
199.14
199.646
199.849
199.329
199.105
199.565
199.858
199.39
199.08
199.442
199.845
199.487
199.085
199.106
199.717
199.778
199.206
199.012
199.196
199.774
199.664
199.101
198.956
199.378
199.799
199.442
199.005
198.973
199.585
199.744
199.163
198.907
199.174
199.709
199.506
198.96
198.88
199.465
199.697
199.144
198.842
199.063
199.632
199.476
198.897
198.796
199.37
199.636
199.095
198.768
198.967
199.557
199.424
198.825
198.715
199.288
199.568
199.029
198.688
198.889
199.486
199.351
198.743
198.632
199.214
199.497
198.95
198.607
198.793
199.408
199.29
198.674
198.537
199.088
199.433
198.926
198.548
198.616
199.284
199.325
198.656
198.467
198.996
199.349
198.846
198.491
198.446
199.121
199.281
198.683
198.47
198.352
198.939
199.296
198.78
198.451
198.307
198.783
199.266
198.866
198.409
198.271
198.781
199.237
198.802
198.349
198.262
198.915
199.198
198.602
198.255
198.383
199.077
199.045
198.36
198.18
198.72
199.142
198.654
198.194
198.333
199.021
198.959
198.271
198.137
198.776
199.068
198.458
198.101
198.464
199.032
198.713
198.13
198.189
198.902
198.922
198.213
198.048
198.679
198.998
198.395
198.034
198.377
198.943
198.658
198.114
198.103
198.752
198.89
198.349
197.986
198.377
198.894
)
;

boundaryField
{
    sides
    {
        type            zeroGradient;
    }
    empty
    {
        type            empty;
    }
}


// ************************************************************************* //
