/*--------------------------------*- C++ -*----------------------------------*\
  =========                 |
  \\      /  F ield         | OpenFOAM: The Open Source CFD Toolbox
   \\    /   O peration     | Website:  https://openfoam.org
    \\  /    A nd           | Version:  13
     \\/     M anipulation  |
\*---------------------------------------------------------------------------*/
FoamFile
{
    format      ascii;
    class       volVectorField;
    location    "0.05";
    object      U_0;
}
// * * * * * * * * * * * * * * * * * * * * * * * * * * * * * * * * * * * * * //

dimensions      [0 1 -1 0 0 0 0];

internalField   nonuniform List<vector> 
1000
(
(33.1303 0 0)
(33.1981 0 0)
(33.3732 0 0)
(33.6344 0 0)
(33.9286 0 0)
(34.2056 0 0)
(34.4139 0 0)
(34.5579 0 0)
(34.6817 0 0)
(34.8034 0 0)
(34.9366 0 0)
(35.0934 0 0)
(35.2765 0 0)
(35.4783 0 0)
(35.6886 0 0)
(35.9003 0 0)
(36.1071 0 0)
(36.3018 0 0)
(36.4809 0 0)
(36.6469 0 0)
(36.8054 0 0)
(36.961 0 0)
(37.1163 0 0)
(37.2738 0 0)
(37.4363 0 0)
(37.6058 0 0)
(37.7824 0 0)
(37.9642 0 0)
(38.1493 0 0)
(38.3363 0 0)
(38.5252 0 0)
(38.7154 0 0)
(38.9043 0 0)
(39.0885 0 0)
(39.266 0 0)
(39.4375 0 0)
(39.6062 0 0)
(39.7754 0 0)
(39.9461 0 0)
(40.1187 0 0)
(40.2908 0 0)
(40.4513 0 0)
(40.6014 0 0)
(40.7492 0 0)
(40.8982 0 0)
(41.0611 0 0)
(41.2369 0 0)
(41.4081 0 0)
(41.5837 0 0)
(41.7763 0 0)
(41.9543 0 0)
(42.1017 0 0)
(42.2569 0 0)
(42.4268 0 0)
(42.5661 0 0)
(42.695 0 0)
(42.8741 0 0)
(43.0654 0 0)
(43.2076 0 0)
(43.3559 0 0)
(43.5642 0 0)
(43.7635 0 0)
(43.9036 0 0)
(44.0478 0 0)
(44.2529 0 0)
(44.4654 0 0)
(44.6188 0 0)
(44.7573 0 0)
(44.9507 0 0)
(45.1912 0 0)
(45.3738 0 0)
(45.5002 0 0)
(45.7116 0 0)
(45.9619 0 0)
(46.0939 0 0)
(46.2197 0 0)
(46.4754 0 0)
(46.6753 0 0)
(46.748 0 0)
(46.9366 0 0)
(47.2118 0 0)
(47.3079 0 0)
(47.4013 0 0)
(47.6918 0 0)
(47.8809 0 0)
(47.9076 0 0)
(48.1175 0 0)
(48.4297 0 0)
(48.4999 0 0)
(48.5513 0 0)
(48.8609 0 0)
(49.1113 0 0)
(49.1154 0 0)
(49.2388 0 0)
(49.5863 0 0)
(49.7478 0 0)
(49.7387 0 0)
(49.9507 0 0)
(50.2812 0 0)
(50.3508 0 0)
(50.3787 0 0)
(50.6747 0 0)
(50.9344 0 0)
(50.9382 0 0)
(51.0475 0 0)
(51.3896 0 0)
(51.5528 0 0)
(51.5356 0 0)
(51.7379 0 0)
(52.0775 0 0)
(52.1542 0 0)
(52.1578 0 0)
(52.4376 0 0)
(52.7346 0 0)
(52.7491 0 0)
(52.8073 0 0)
(53.1396 0 0)
(53.3619 0 0)
(53.344 0 0)
(53.4856 0 0)
(53.8325 0 0)
(53.9679 0 0)
(53.9324 0 0)
(53.998 0 0)
(54.327 0 0)
(54.7352 0 0)
(54.8295 0 0)
(54.7384 0 0)
(54.8456 0 0)
(55.2326 0 0)
(55.4956 0 0)
(55.4562 0 0)
(55.4927 0 0)
(55.8353 0 0)
(56.0974 0 0)
(56.0701 0 0)
(56.1366 0 0)
(56.4839 0 0)
(56.696 0 0)
(56.655 0 0)
(56.7733 0 0)
(57.1325 0 0)
(57.2881 0 0)
(57.2371 0 0)
(57.4029 0 0)
(57.768 0 0)
(57.883 0 0)
(57.825 0 0)
(58.0162 0 0)
(58.3863 0 0)
(58.4856 0 0)
(58.4186 0 0)
(58.6082 0 0)
(58.9852 0 0)
(59.0926 0 0)
(59.0165 0 0)
(59.1859 0 0)
(59.5665 0 0)
(59.6928 0 0)
(59.6142 0 0)
(59.765 0 0)
(60.1399 0 0)
(60.2727 0 0)
(60.1977 0 0)
(60.3523 0 0)
(60.7167 0 0)
(60.827 0 0)
(60.7612 0 0)
(60.95 0 0)
(61.2952 0 0)
(61.356 0 0)
(61.3116 0 0)
(61.5565 0 0)
(61.8642 0 0)
(61.8671 0 0)
(61.8638 0 0)
(62.1627 0 0)
(62.4136 0 0)
(62.3716 0 0)
(62.4219 0 0)
(62.7567 0 0)
(62.947 0 0)
(62.8774 0 0)
(62.9753 0 0)
(63.3291 0 0)
(63.4756 0 0)
(63.3891 0 0)
(63.5111 0 0)
(63.8767 0 0)
(64.0109 0 0)
(63.9122 0 0)
(64.0212 0 0)
(64.3945 0 0)
(64.5581 0 0)
(64.4537 0 0)
(64.5017 0 0)
(64.8656 0 0)
(65.1138 0 0)
(65.0324 0 0)
(64.9842 0 0)
(65.2862 0 0)
(65.6352 0 0)
(65.6297 0 0)
(65.515 0 0)
(65.7137 0 0)
(66.0989 0 0)
(66.1896 0 0)
(66.0652 0 0)
(66.1744 0 0)
(66.5506 0 0)
(66.7082 0 0)
(66.5946 0 0)
(66.6542 0 0)
(67.0141 0 0)
(67.2062 0 0)
(67.1025 0 0)
(67.1361 0 0)
(67.4828 0 0)
(67.6902 0 0)
(67.5927 0 0)
(67.6141 0 0)
(67.954 0 0)
(68.1699 0 0)
(68.0746 0 0)
(68.086 0 0)
(68.4211 0 0)
(68.6443 0 0)
(68.5496 0 0)
(68.5517 0 0)
(68.8824 0 0)
(69.1132 0 0)
(69.021 0 0)
(69.0124 0 0)
(69.3369 0 0)
(69.5768 0 0)
(69.4877 0 0)
(69.4684 0 0)
(69.7866 0 0)
(70.0357 0 0)
(69.9502 0 0)
(69.9192 0 0)
(70.2298 0 0)
(70.4887 0 0)
(70.4082 0 0)
(70.365 0 0)
(70.667 0 0)
(70.9376 0 0)
(70.8634 0 0)
(70.8057 0 0)
(71.0968 0 0)
(71.3831 0 0)
(71.3189 0 0)
(71.2416 0 0)
(71.5153 0 0)
(71.8227 0 0)
(71.7768 0 0)
(71.6738 0 0)
(71.918 0 0)
(72.2541 0 0)
(72.2419 0 0)
(72.1104 0 0)
(72.3033 0 0)
(72.6691 0 0)
(72.7164 0 0)
(72.5642 0 0)
(72.6722 0 0)
(73.0496 0 0)
(73.1934 0 0)
(73.0473 0 0)
(73.0417 0 0)
(73.3849 0 0)
(73.655 0 0)
(73.5614 0 0)
(73.4482 0 0)
(73.6982 0 0)
(74.0633 0 0)
(74.0743 0 0)
(73.9113 0 0)
(74.0306 0 0)
(74.4143 0 0)
(74.5572 0 0)
(74.406 0 0)
(74.4007 0 0)
(74.7446 0 0)
(75.0017 0 0)
(74.8979 0 0)
(74.8048 0 0)
(75.0815 0 0)
(75.4117 0 0)
(75.3739 0 0)
(75.2322 0 0)
(75.4315 0 0)
(75.7983 0 0)
(75.834 0 0)
(75.674 0 0)
(75.7932 0 0)
(76.1676 0 0)
(76.2804 0 0)
(76.124 0 0)
(76.1657 0 0)
(76.5265 0 0)
(76.7148 0 0)
(76.576 0 0)
(76.5473 0 0)
(76.8771 0 0)
(77.1353 0 0)
(77.0303 0 0)
(76.9406 0 0)
(77.2236 0 0)
(77.5392 0 0)
(77.4823 0 0)
(77.3459 0 0)
(77.5657 0 0)
(77.9235 0 0)
(77.93 0 0)
(77.7654 0 0)
(77.9072 0 0)
(78.2838 0 0)
(78.3723 0 0)
(78.2041 0 0)
(78.2536 0 0)
(78.6203 0 0)
(78.8015 0 0)
(78.6534 0 0)
(78.613 0 0)
(78.9405 0 0)
(79.214 0 0)
(79.112 0 0)
(78.9925 0 0)
(79.2505 0 0)
(79.5955 0 0)
(79.5668 0 0)
(79.397 0 0)
(79.5575 0 0)
(79.9395 0 0)
(80.0148 0 0)
(79.8366 0 0)
(79.8823 0 0)
(80.2521 0 0)
(80.4431 0 0)
(80.2917 0 0)
(80.2286 0 0)
(80.546 0 0)
(80.8436 0 0)
(80.7545 0 0)
(80.6104 0 0)
(80.841 0 0)
(81.2071 0 0)
(81.2109 0 0)
(81.03 0 0)
(81.1484 0 0)
(81.5341 0 0)
(81.6538 0 0)
(81.4795 0 0)
(81.4795 0 0)
(81.8362 0 0)
(82.0753 0 0)
(81.9433 0 0)
(81.8417 0 0)
(82.1303 0 0)
(82.4652 0 0)
(82.4115 0 0)
(82.2445 0 0)
(82.4315 0 0)
(82.8173 0 0)
(82.8699 0 0)
(82.6854 0 0)
(82.7512 0 0)
(83.1346 0 0)
(83.3137 0 0)
(83.153 0 0)
(83.099 0 0)
(83.4299 0 0)
(83.7281 0 0)
(83.6324 0 0)
(83.485 0 0)
(83.721 0 0)
(84.0986 0 0)
(84.1066 0 0)
(83.9177 0 0)
(84.0231 0 0)
(84.4183 0 0)
(84.5632 0 0)
(84.3882 0 0)
(84.354 0 0)
(84.7009 0 0)
(84.9852 0 0)
(84.8744 0 0)
(84.7284 0 0)
(84.9721 0 0)
(85.3507 0 0)
(85.3524 0 0)
(85.1576 0 0)
(85.2564 0 0)
(85.6527 0 0)
(85.8074 0 0)
(85.6316 0 0)
(85.5777 0 0)
(85.9138 0 0)
(86.2179 0 0)
(86.1192 0 0)
(85.9523 0 0)
(86.1652 0 0)
(86.5591 0 0)
(86.5966 0 0)
(86.3964 0 0)
(86.4428 0 0)
(86.8297 0 0)
(87.0428 0 0)
(86.8859 0 0)
(86.7743 0 0)
(87.065 0 0)
(87.4265 0 0)
(87.385 0 0)
(87.1867 0 0)
(87.3125 0 0)
(87.7198 0 0)
(87.8596 0 0)
(87.6734 0 0)
(87.6117 0 0)
(87.947 0 0)
(88.2739 0 0)
(88.1875 0 0)
(88.0007 0 0)
(88.1716 0 0)
(88.584 0 0)
(88.683 0 0)
(88.4846 0 0)
(88.4495 0 0)
(88.8021 0 0)
(89.1121 0 0)
(89.0066 0 0)
(88.8233 0 0)
(89.0114 0 0)
(89.4251 0 0)
(89.5067 0 0)
(89.3015 0 0)
(89.2769 0 0)
(89.6371 0 0)
(89.9357 0 0)
(89.8187 0 0)
(89.6375 0 0)
(89.8381 0 0)
(90.2478 0 0)
(90.3099 0 0)
(90.098 0 0)
(90.0892 0 0)
(90.4584 0 0)
(90.7344 0 0)
(90.5996 0 0)
(90.4275 0 0)
(90.6515 0 0)
(91.0493 0 0)
(91.0724 0 0)
(90.8534 0 0)
(90.8701 0 0)
(91.2514 0 0)
(91.5104 0 0)
(91.3567 0 0)
(91.1896 0 0)
(91.4349 0 0)
(91.8041 0 0)
(91.7776 0 0)
(91.5536 0 0)
(91.6114 0 0)
(91.9924 0 0)
(92.1642 0 0)
(91.9927 0 0)
(91.8597 0 0)
(92.0794 0 0)
(92.5165 0 0)
(92.6176 0 0)
(92.3991 0 0)
(92.365 0 0)
(92.7336 0 0)
(92.9864 0 0)
(92.8905 0 0)
(92.9016 0 0)
(93.0796 0 0)
(93.1576 0 0)
(93.2174 0 0)
(93.3106 0 0)
(93.3557 0 0)
(93.4747 0 0)
(93.6255 0 0)
(93.6558 0 0)
(93.7209 0 0)
(93.8316 0 0)
(93.8414 0 0)
(94.0097 0 0)
(94.3261 0 0)
(94.3144 0 0)
(94.134 0 0)
(94.3079 0 0)
(94.683 0 0)
(94.6856 0 0)
(94.49 0 0)
(94.6346 0 0)
(94.9292 0 0)
(94.8907 0 0)
(94.81 0 0)
(95.0033 0 0)
(95.1414 0 0)
(95.0784 0 0)
(95.1396 0 0)
(95.3225 0 0)
(95.3432 0 0)
(95.369 0 0)
(95.5856 0 0)
(95.6885 0 0)
(95.6409 0 0)
(95.8382 0 0)
(96.1134 0 0)
(96.0418 0 0)
(95.969 0 0)
(96.2384 0 0)
(96.4209 0 0)
(96.3177 0 0)
(96.2108 0 0)
(96.2584 0 0)
(96.604 0 0)
(96.8757 0 0)
(96.771 0 0)
(96.6128 0 0)
(96.6203 0 0)
(96.9415 0 0)
(97.2619 0 0)
(97.1792 0 0)
(96.9901 0 0)
(96.9637 0 0)
(97.2637 0 0)
(97.6363 0 0)
(97.6055 0 0)
(97.4254 0 0)
(97.4449 0 0)
(97.8092 0 0)
(98.1249 0 0)
(98.0632 0 0)
(97.9555 0 0)
(97.9563 0 0)
(98.2383 0 0)
(98.6514 0 0)
(98.65 0 0)
(98.4648 0 0)
(98.5577 0 0)
(98.7512 0 0)
(98.7605 0 0)
(98.7756 0 0)
(98.881 0 0)
(98.8955 0 0)
(98.991 0 0)
(99.2284 0 0)
(99.2593 0 0)
(99.1916 0 0)
(99.279 0 0)
(99.3945 0 0)
(99.3963 0 0)
(99.4879 0 0)
(99.6651 0 0)
(99.6699 0 0)
(99.7311 0 0)
(100.032 0 0)
(100.135 0 0)
(99.9588 0 0)
(100.018 0 0)
(100.404 0 0)
(100.529 0 0)
(100.302 0 0)
(100.238 0 0)
(100.594 0 0)
(100.87 0 0)
(100.711 0 0)
(100.55 0 0)
(100.821 0 0)
(101.134 0 0)
(101.025 0 0)
(100.862 0 0)
(101.108 0 0)
(101.401 0 0)
(101.29 0 0)
(101.152 0 0)
(101.414 0 0)
(101.675 0 0)
(101.538 0 0)
(101.431 0 0)
(101.719 0 0)
(101.948 0 0)
(101.785 0 0)
(101.704 0 0)
(102.014 0 0)
(102.215 0 0)
(102.033 0 0)
(101.973 0 0)
(102.295 0 0)
(102.473 0 0)
(102.28 0 0)
(102.242 0 0)
(102.57 0 0)
(102.718 0 0)
(102.516 0 0)
(102.515 0 0)
(102.846 0 0)
(102.939 0 0)
(102.737 0 0)
(102.799 0 0)
(103.122 0 0)
(103.138 0 0)
(102.952 0 0)
(103.096 0 0)
(103.385 0 0)
(103.314 0 0)
(103.176 0 0)
(103.404 0 0)
(103.622 0 0)
(103.477 0 0)
(103.425 0 0)
(103.71 0 0)
(103.826 0 0)
(103.642 0 0)
(103.696 0 0)
(104.001 0 0)
(104.006 0 0)
(103.824 0 0)
(103.981 0 0)
(104.263 0 0)
(104.174 0 0)
(104.03 0 0)
(104.268 0 0)
(104.498 0 0)
(104.342 0 0)
(104.254 0 0)
(104.545 0 0)
(104.714 0 0)
(104.518 0 0)
(104.487 0 0)
(104.809 0 0)
(104.923 0 0)
(104.704 0 0)
(104.719 0 0)
(105.056 0 0)
(105.128 0 0)
(104.9 0 0)
(104.948 0 0)
(105.293 0 0)
(105.335 0 0)
(105.101 0 0)
(105.175 0 0)
(105.523 0 0)
(105.54 0 0)
(105.307 0 0)
(105.405 0 0)
(105.75 0 0)
(105.745 0 0)
(105.517 0 0)
(105.643 0 0)
(105.982 0 0)
(105.949 0 0)
(105.731 0 0)
(105.889 0 0)
(106.219 0 0)
(106.157 0 0)
(105.952 0 0)
(106.143 0 0)
(106.462 0 0)
(106.372 0 0)
(106.182 0 0)
(106.403 0 0)
(106.709 0 0)
(106.595 0 0)
(106.42 0 0)
(106.665 0 0)
(106.956 0 0)
(106.823 0 0)
(106.665 0 0)
(106.934 0 0)
(107.211 0 0)
(107.061 0 0)
(106.917 0 0)
(107.201 0 0)
(107.47 0 0)
(107.309 0 0)
(107.173 0 0)
(107.47 0 0)
(107.729 0 0)
(107.562 0 0)
(107.453 0 0)
(107.757 0 0)
(107.987 0 0)
(107.82 0 0)
(107.669 0 0)
(107.963 0 0)
(108.343 0 0)
(108.265 0 0)
(108.007 0 0)
(108.053 0 0)
(108.48 0 0)
(108.755 0 0)
(108.563 0 0)
(108.347 0 0)
(108.589 0 0)
(109.034 0 0)
(109.057 0 0)
(108.789 0 0)
(108.823 0 0)
(109.252 0 0)
(109.456 0 0)
(109.238 0 0)
(109.147 0 0)
(109.516 0 0)
(109.813 0 0)
(109.65 0 0)
(109.507 0 0)
(109.827 0 0)
(110.161 0 0)
(110.034 0 0)
(109.875 0 0)
(110.174 0 0)
(110.525 0 0)
(110.419 0 0)
(110.255 0 0)
(110.546 0 0)
(110.909 0 0)
(110.814 0 0)
(110.648 0 0)
(110.937 0 0)
(111.312 0 0)
(111.23 0 0)
(111.062 0 0)
(111.347 0 0)
(111.737 0 0)
(111.669 0 0)
(111.496 0 0)
(111.774 0 0)
(112.179 0 0)
(112.129 0 0)
(111.955 0 0)
(112.223 0 0)
(112.636 0 0)
(112.597 0 0)
(112.426 0 0)
(112.695 0 0)
(113.109 0 0)
(113.071 0 0)
(112.903 0 0)
(113.18 0 0)
(113.588 0 0)
(113.537 0 0)
(113.408 0 0)
(113.713 0 0)
(114.039 0 0)
(113.963 0 0)
(113.809 0 0)
(113.962 0 0)
(114.468 0 0)
(114.745 0 0)
(114.596 0 0)
(114.454 0 0)
(114.602 0 0)
(115.112 0 0)
(115.447 0 0)
(115.312 0 0)
(115.141 0 0)
(115.292 0 0)
(115.816 0 0)
(116.156 0 0)
(116.013 0 0)
(115.838 0 0)
(116.057 0 0)
(116.61 0 0)
(116.856 0 0)
(116.67 0 0)
(116.551 0 0)
(116.893 0 0)
(117.447 0 0)
(117.54 0 0)
(117.319 0 0)
(117.329 0 0)
(117.807 0 0)
(118.267 0 0)
(118.202 0 0)
(117.997 0 0)
(118.198 0 0)
(118.768 0 0)
(119.038 0 0)
(118.86 0 0)
(118.762 0 0)
(119.16 0 0)
(119.713 0 0)
(119.763 0 0)
(119.545 0 0)
(119.654 0 0)
(120.209 0 0)
(120.582 0 0)
(120.447 0 0)
(120.318 0 0)
(120.707 0 0)
(121.267 0 0)
(121.32 0 0)
(121.117 0 0)
(121.307 0 0)
(121.886 0 0)
(122.126 0 0)
(121.95 0 0)
(121.997 0 0)
(122.532 0 0)
(122.89 0 0)
(122.762 0 0)
(122.743 0 0)
(123.234 0 0)
(123.646 0 0)
(123.553 0 0)
(123.514 0 0)
(123.986 0 0)
(124.407 0 0)
(124.328 0 0)
(124.3 0 0)
(124.776 0 0)
(125.184 0 0)
(125.102 0 0)
(125.098 0 0)
(125.59 0 0)
(125.973 0 0)
(125.881 0 0)
(125.911 0 0)
(126.426 0 0)
(126.774 0 0)
(126.669 0 0)
(126.739 0 0)
(127.277 0 0)
(127.591 0 0)
(127.472 0 0)
(127.578 0 0)
(128.134 0 0)
(128.414 0 0)
(128.288 0 0)
(128.429 0 0)
(128.999 0 0)
(129.257 0 0)
(129.125 0 0)
(129.286 0 0)
(129.869 0 0)
(130.119 0 0)
(129.984 0 0)
(130.148 0 0)
(130.74 0 0)
(131.004 0 0)
(130.865 0 0)
(131.008 0 0)
(131.606 0 0)
(131.91 0 0)
(131.774 0 0)
(131.863 0 0)
(132.453 0 0)
(132.837 0 0)
(132.722 0 0)
(132.734 0 0)
(133.285 0 0)
(133.768 0 0)
(133.711 0 0)
(133.593 0 0)
(133.974 0 0)
(134.643 0 0)
(134.845 0 0)
(134.679 0 0)
(134.703 0 0)
(135.227 0 0)
(135.866 0 0)
(135.944 0 0)
(135.765 0 0)
(135.915 0 0)
(136.546 0 0)
(137.06 0 0)
(137.002 0 0)
(136.86 0 0)
(137.205 0 0)
(137.897 0 0)
(138.183 0 0)
(138.024 0 0)
(138.037 0 0)
(138.596 0 0)
(139.205 0 0)
(139.231 0 0)
(139.065 0 0)
(139.341 0 0)
(140.03 0 0)
(140.38 0 0)
(140.241 0 0)
(140.221 0 0)
(140.758 0 0)
(141.395 0 0)
(141.453 0 0)
(141.283 0 0)
(141.533 0 0)
(142.224 0 0)
(142.606 0 0)
(142.477 0 0)
(142.442 0 0)
(142.968 0 0)
(143.621 0 0)
(143.696 0 0)
(143.525 0 0)
(143.768 0 0)
(144.462 0 0)
(144.855 0 0)
(144.729 0 0)
(144.69 0 0)
(145.22 0 0)
(145.878 0 0)
(145.954 0 0)
(145.782 0 0)
(146.027 0 0)
(146.725 0 0)
(147.121 0 0)
(146.995 0 0)
(146.953 0 0)
(147.479 0 0)
(148.148 0 0)
(148.236 0 0)
(148.06 0 0)
(148.273 0 0)
(148.966 0 0)
(149.414 0 0)
(149.309 0 0)
(149.224 0 0)
(149.683 0 0)
(150.398 0 0)
(150.587 0 0)
(150.404 0 0)
(150.558 0 0)
(151.232 0 0)
(151.68 0 0)
(151.587 0 0)
(151.493 0 0)
(151.882 0 0)
(152.611 0 0)
(152.912 0 0)
(152.78 0 0)
(152.745 0 0)
(153.069 0 0)
(153.786 0 0)
(154.24 0 0)
(154.145 0 0)
(154.041 0 0)
(154.29 0 0)
(154.978 0 0)
(155.529 0 0)
(155.479 0 0)
(155.331 0 0)
(155.571 0 0)
(156.268 0 0)
(156.795 0 0)
(156.723 0 0)
(156.579 0 0)
(156.908 0 0)
(157.645 0 0)
(158.029 0 0)
(157.886 0 0)
(157.826 0 0)
(158.335 0 0)
(159.049 0 0)
(159.186 0 0)
(158.993 0 0)
(159.157 0 0)
(159.849 0 0)
(160.344 0 0)
(160.247 0 0)
(160.149 0 0)
(160.641 0 0)
(161.345 0 0)
(161.465 0 0)
(161.277 0 0)
(161.509 0 0)
(162.226 0 0)
(162.609 0 0)
(162.462 0 0)
(162.464 0 0)
(163.066 0 0)
(163.665 0 0)
(163.643 0 0)
(163.499 0 0)
(163.913 0 0)
(164.622 0 0)
(164.793 0 0)
(164.607 0 0)
(164.797 0 0)
(165.495 0 0)
(165.904 0 0)
(165.762 0 0)
(165.731 0 0)
(166.306 0 0)
(166.937 0 0)
(166.919 0 0)
(166.725 0 0)
(167.096 0 0)
(167.862 0 0)
(168.017 0 0)
(167.745 0 0)
(167.912 0 0)
(168.56 0 0)
(168.846 0 0)
)
;

boundaryField
{
    sides
    {
        type            calculated;
        value           nonuniform List<vector> 2((168.846 0 0) (33.1303 0 0));
    }
    empty
    {
        type            empty;
    }
}


// ************************************************************************* //
