/*--------------------------------*- C++ -*----------------------------------*\
  =========                 |
  \\      /  F ield         | OpenFOAM: The Open Source CFD Toolbox
   \\    /   O peration     | Website:  https://openfoam.org
    \\  /    A nd           | Version:  13
     \\/     M anipulation  |
\*---------------------------------------------------------------------------*/
FoamFile
{
    format      ascii;
    class       surfaceScalarField;
    location    "31.402663";
    object      phi;
}
// * * * * * * * * * * * * * * * * * * * * * * * * * * * * * * * * * * * * * //

dimensions      [0 3 -1 0 0 0 0];

internalField   nonuniform List<scalar> 
34068
(
-1.1259453e-08
7.3243872e-09
3.9350657e-09
-5.0122193e-08
2.4665371e-08
1.4197369e-08
-1.2582303e-07
4.7527948e-08
2.8172894e-08
-2.500147e-07
7.8036972e-08
4.6154694e-08
-4.3733922e-07
1.1909817e-07
6.8226359e-08
-7.0611893e-07
1.7462732e-07
9.4152386e-08
-1.0791926e-06
2.4984193e-07
1.2323176e-07
-1.5849228e-06
3.5161427e-07
1.5411588e-07
-2.2584026e-06
4.8889439e-07
1.8458547e-07
-3.1428954e-06
6.7320522e-07
2.1128752e-07
-4.2915378e-06
9.1920669e-07
2.2943572e-07
-5.7693432e-06
1.2453189e-06
2.3248663e-07
-7.6555349e-06
1.6743776e-06
2.1181409e-07
-1.0046235e-05
2.2342793e-06
1.5642121e-07
-1.3057528e-05
2.9585427e-06
5.27501e-08
-1.6828886e-05
3.8866789e-06
-1.1532099e-07
-2.1526942e-05
5.0642159e-06
-3.6616022e-07
-2.7349519e-05
6.5421668e-06
-7.1958915e-07
-3.4529784e-05
8.3756641e-06
-1.1953988e-06
-4.3340327e-05
1.0621424e-05
-1.8108821e-06
-5.4096814e-05
1.3333643e-05
-2.5771556e-06
-6.7160771e-05
1.6557915e-05
-3.493958e-06
-8.2940804e-05
2.0322781e-05
-4.5427486e-06
-0.00010189141
2.4628702e-05
-5.6780981e-06
-0.0001245082
2.9434517e-05
-6.8177232e-06
-0.00015131818
3.4642069e-05
-7.8320894e-06
-0.00018286344
4.008064e-05
-8.5353813e-06
-0.00021967698
4.5494408e-05
-8.6808727e-06
-0.00026225068
5.0538619e-05
-7.9649103e-06
-0.00031099465
5.479321e-05
-6.0492427e-06
-0.00036621221
5.7803148e-05
-2.5855924e-06
-0.00042808807
5.9152526e-05
2.7233332e-06
-0.00049670895
5.8550567e-05
1.0070311e-05
-0.00057215558
5.5868536e-05
1.9578097e-05
-0.00065459356
5.1084104e-05
3.1353877e-05
-0.0007443425
4.4146972e-05
4.5601964e-05
-0.00084190197
3.4849231e-05
6.2710241e-05
-0.00094794989
2.2744977e-05
8.3302946e-05
-0.001063346
7.1041223e-06
0.00010829195
-0.0011891426
-1.3174243e-05
0.00013897086
-0.0013266425
-3.9672088e-05
0.00017717202
-0.0014774704
-7.4709812e-05
0.00022553766
-0.0016436929
-0.00012170365
0.00028792621
-0.0018279813
-0.00018572926
0.00037001765
-0.0020338341
-0.00027434851
0.00048020129
-0.0022657898
-0.0003988671
0.00063082279
-0.0025295504
-0.00057591557
0.00083967617
-0.0028321899
-0.0008295899
0.0011322294
-0.0031822235
-0.001194894
0.0015449276
-0.0035893731
-0.001721874
0.0021290236
-0.004063966
-0.0024808426
0.0029554355
-0.0046158905
-0.0035684177
0.0041203422
-0.0052527817
-0.0051102703
0.0057471615
-0.0059777978
-0.0072553707
0.0079803868
-0.0067863881
-0.01013573
0.01094432
-0.0076629323
-0.013778136
0.01465468
-0.0085769726
-0.017917347
0.018831387
-0.0095102093
-0.021710895
0.022644132
-0.010402783
-0.023268352
0.024160925
-0.011012415
-0.018963632
0.019573264
-0.010502282
-0.0039242086
0.0034140749
-0.0070839387
0.026860986
-0.030279329
-0.00060103785
0.066913541
-0.073396442
0.0070339991
0.098466014
-0.10610105
0.10195114
0.015901081
-0.11081822
-1.1533006e-08
1.8857394e-08
-5.1340247e-08
6.4472612e-08
-1.288787e-07
1.250664e-07
-2.56082e-07
2.0524027e-07
-4.4794073e-07
3.109569e-07
-7.232076e-07
4.498942e-07
-1.1052502e-06
6.3188456e-07
-1.6230776e-06
8.6944164e-07
-2.3125705e-06
1.1783872e-06
-3.2179466e-06
1.5785814e-06
-4.3934964e-06
2.0947565e-06
-5.9056202e-06
2.7574427e-06
-7.8352043e-06
3.6039617e-06
-1.0280356e-05
4.6794307e-06
-1.3359518e-05
6.0377048e-06
-1.7214962e-05
7.7421225e-06
-2.2016617e-05
9.8658715e-06
-2.7966178e-05
1.2491728e-05
-3.5301343e-05
1.5710829e-05
-4.4299969e-05
1.962005e-05
-5.5283819e-05
2.4317494e-05
-6.8621415e-05
2.9895511e-05
-8.4729337e-05
3.6430702e-05
-0.00010407107
4.3970436e-05
-0.00012715225
5.2515691e-05
-0.00015451083
6.2000649e-05
-0.00018670068
7.2270493e-05
-0.00022426712
8.3060846e-05
-0.0002677142
9.3985707e-05
-0.00031746682
0.00010454583
-0.00037383831
0.00011417464
-0.00043701985
0.00012233406
-0.00050711212
0.00012864284
-0.00058420725
0.00013296367
-0.00066848701
0.00013536387
-0.00076029432
0.00013595428
-0.00086016012
0.00013471504
-0.00096880572
0.00013139058
-0.0010871426
0.000125441
-0.0012163044
0.00011598757
-0.0013576909
0.00010171443
-0.0015130689
8.0668155e-05
-0.0016847061
4.9933554e-05
-0.0018755622
5.1268629e-06
-0.0020895459
-6.0364847e-05
-0.0023317773
-0.00015663565
-0.0026087681
-0.00029892485
-0.0029287125
-0.00050964548
-0.00330164
-0.00082196643
-0.0037392569
-0.0012842572
-0.0042543544
-0.0019657451
-0.0048595664
-0.0029632056
-0.0055647961
-0.0044050407
-0.0063732063
-0.0064469604
-0.0072746526
-0.0092342838
-0.0082391048
-0.012813684
-0.0092087307
-0.016947721
-0.010149485
-0.020770141
-0.010953693
-0.022464143
-0.011336595
-0.01858073
-0.010599385
-0.0046614184
-0.0071663376
0.023427938
-0.00070720845
0.060454412
0.0075471396
0.090211666
0.091117329
0.018380951
-1.1659239e-08
3.0516633e-08
-5.1905786e-08
1.0471916e-07
-1.3030343e-07
2.0346405e-07
-2.5891831e-07
3.3385515e-07
-4.5290344e-07
5.0494203e-07
-7.3120986e-07
7.2820063e-07
-1.1174452e-06
1.0181199e-06
-1.6409092e-06
1.3929056e-06
-2.3378311e-06
1.8753092e-06
-3.2528476e-06
2.4935978e-06
-4.4407486e-06
3.2826576e-06
-5.9685329e-06
4.285227e-06
-7.9177988e-06
5.5532276e-06
-1.0387507e-05
7.1491384e-06
-1.3497119e-05
9.147317e-06
-1.7390129e-05
1.1635133e-05
-2.2237943e-05
1.4713685e-05
-2.8244041e-05
1.8497825e-05
-3.5648293e-05
2.3115081e-05
-4.4731222e-05
2.8702979e-05
-5.5817863e-05
3.5404135e-05
-6.9280775e-05
4.3358423e-05
-8.5541527e-05
5.2691454e-05
-0.00010506975
6.3498659e-05
-0.00012837862
7.5824564e-05
-0.00015601529
8.9637317e-05
-0.00018854465
0.00010479985
-0.000226525
0.0001210412
-0.00027047534
0.00013793604
-0.0003208371
0.00015490759
-0.0003779398
0.00017127734
-0.00044198883
0.00018638308
-0.00051309653
0.00019975054
-0.00059136281
0.00021122995
-0.000676976
0.00022097706
-0.0007702884
0.00022926667
-0.00087184673
0.00023627337
-0.00098239561
0.00024193945
-0.0011028821
0.00024592752
-0.0012344851
0.00024759058
-0.0013786735
0.00024590277
-0.0015373107
0.00023930533
-0.0017128065
0.00022542936
-0.0019083296
0.00020065003
-0.0021281001
0.00015940567
-0.0023776732
9.2937446e-05
-0.0026641843
-1.2413779e-05
-0.0029966971
-0.00017713266
-0.0033864067
-0.00043225683
-0.003846514
-0.00082414991
-0.0043915749
-0.0014206842
-0.0050359324
-0.0023188481
-0.0057901527
-0.0036508203
-0.006654777
-0.0055823362
-0.0076098121
-0.0082792487
-0.0086042473
-0.011819248
-0.0095514585
-0.01600051
-0.010365252
-0.019956347
-0.01088283
-0.021946566
-0.0108116
-0.01865196
-0.0095330128
-0.0059400051
-0.0056602123
0.019555138
0.0012425462
0.053551654
0.010686398
0.080767815
0.077217726
0.024586
-1.1619242e-08
4.2135875e-08
-5.173339e-08
1.4483331e-07
-1.2988025e-07
2.8161091e-07
-2.5809065e-07
4.6206555e-07
-4.5147037e-07
6.9832176e-07
-7.2890693e-07
1.0056372e-06
-1.1139254e-06
1.4031384e-06
-1.6357157e-06
1.914696e-06
-2.3303672e-06
2.5699607e-06
-3.2423357e-06
3.4055663e-06
-4.4261853e-06
4.4665072e-06
-5.9486328e-06
5.8076745e-06
-7.8909362e-06
7.4955311e-06
-1.0351649e-05
9.6098516e-06
-1.3449767e-05
1.2245435e-05
-1.7328264e-05
1.551363e-05
-2.2157997e-05
1.9543418e-05
-2.8141915e-05
2.4481744e-05
-3.5519453e-05
3.0492619e-05
-4.4570891e-05
3.7754416e-05
-5.5621394e-05
4.6454638e-05
-6.9044251e-05
5.6781279e-05
-8.5262654e-05
6.8909857e-05
-0.00010474916
8.2985169e-05
-0.00012802165
9.9097054e-05
-0.00015563433
0.00011724999
-0.00018816206
0.00013732759
-0.00022617665
0.00015905579
-0.0002702143
0.00018197369
-0.00032073691
0.0002054302
-0.00037809585
0.00022863629
-0.00044251598
0.00025080321
-0.00051412231
0.00027135686
-0.0005930178
0.00029012544
-0.00067938633
0.00030734559
-0.0007735738
0.00032345415
-0.00087612375
0.00033882333
-0.00098778293
0.00035359863
-0.0011095073
0.00036765192
-0.0012424912
0.00038057445
-0.0013882307
0.00039164223
-0.001548633
0.00039970769
-0.0017261799
0.00040297621
-0.0019241585
0.0003986287
-0.0021469692
0.00038221629
-0.0024004292
0.00034639745
-0.0026920711
0.00027922817
-0.0030315197
0.00016231594
-0.0034307096
-3.3066905e-05
-0.0039037509
-0.00035110863
-0.0044661496
-0.00085828554
-0.0051328019
-0.0016521958
-0.0059132272
-0.0028703951
-0.0068027002
-0.0046928631
-0.0077674246
-0.0073145243
-0.0087288177
-0.010857855
-0.0095582937
-0.015171034
-0.010099617
-0.019415024
-0.010155398
-0.021890785
-0.0094035615
-0.019403796
-0.0072805873
-0.0080629793
-0.0025262258
0.014800776
0.0054183418
0.045607086
0.016991011
0.069195146
0.059020716
0.035188022
-1.1397349e-08
5.3533224e-08
-5.0752809e-08
1.8418877e-07
-1.2743141e-07
3.5828952e-07
-2.5324455e-07
5.8787868e-07
-4.4302028e-07
8.8809749e-07
-7.1529738e-07
1.2779143e-06
-1.0931624e-06
1.7810034e-06
-1.6052607e-06
2.4267943e-06
-2.2870038e-06
3.2517038e-06
-3.1820152e-06
4.3005777e-06
-4.3438373e-06
5.6283293e-06
-5.8379495e-06
7.3017867e-06
-7.7441165e-06
9.4016981e-06
-1.0159117e-05
1.2024852e-05
-1.3199856e-05
1.5286175e-05
-1.7006891e-05
1.9320664e-05
-2.1748323e-05
2.428485e-05
-2.7624042e-05
3.0357463e-05
-3.4870177e-05
3.7738754e-05
-4.3763591e-05
4.664783e-05
-5.4626113e-05
5.731716e-05
-6.7828081e-05
6.9983247e-05
-8.3790552e-05
8.4872328e-05
-0.00010298535
0.00010217997
-0.00012593175
0.00012204345
-0.00015318839
0.00014450662
-0.00018533865
0.00016947785
-0.00022296791
0.00019668505
-0.00026663167
0.00022563744
-0.00031681646
0.00025561499
-0.00037390117
0.000285721
-0.0004381355
0.00031503754
-0.00050965892
0.00034288029
-0.00058857288
0.0003690394
-0.00067504488
0.00039381759
-0.00076939676
0.00041780602
-0.00087214721
0.00044157378
-0.00098402035
0.00046547176
-0.0011059512
0.00048958275
-0.0012391132
0.00051373647
-0.0013849821
0.0005375111
-0.0015454464
0.00056017201
-0.0017229764
0.00058050626
-0.0019208669
0.0005965192
-0.0021435465
0.0006048958
-0.002396886
0.00059973701
-0.0026885374
0.00057087959
-0.0030283062
0.0005020847
-0.0034283412
0.00036696805
-0.0039029377
0.00012348789
-0.004467554
-0.00029366921
-0.0051362457
-0.00098350414
-0.0059154852
-0.0020911555
-0.006792427
-0.0038159213
-0.0077154822
-0.0063914691
-0.0085728293
-0.010000508
-0.0091821512
-0.014561712
-0.009306089
-0.019291086
-0.0087140577
-0.022482816
-0.007030087
-0.021087767
-0.0037261035
-0.011366963
0.0023408988
0.0087337741
0.011963863
0.035984122
0.026729487
0.054429522
0.036162082
0.04958812
-1.0982462e-08
6.4515687e-08
-4.8914438e-08
2.2212075e-07
-1.2283242e-07
4.3220749e-07
-2.4413238e-07
7.0917865e-07
-4.2712053e-07
1.0710856e-06
-6.8968141e-07
1.5404752e-06
-1.0540876e-06
2.1454096e-06
-1.5479727e-06
2.9206794e-06
-2.2055024e-06
3.9092335e-06
-3.0687692e-06
5.1638445e-06
-4.1894492e-06
6.7490093e-06
-5.6307581e-06
8.7430956e-06
-7.4697436e-06
1.1240684e-05
-9.7999423e-06
1.4355051e-05
-1.2734436e-05
1.8220669e-05
-1.6409319e-05
2.2995547e-05
-2.0987573e-05
2.8863104e-05
-2.6663295e-05
3.6033186e-05
-3.3666217e-05
4.4741676e-05
-4.2266323e-05
5.5247936e-05
-5.2778311e-05
6.7829148e-05
-6.5565518e-05
8.2770454e-05
-8.1042678e-05
0.00010034949
-9.9676714e-05
0.000120814
-0.00012198445
0.00014435119
-0.00014852577
0.00017104794
-0.00017989047
0.00020084255
-0.00021667698
0.00023347156
-0.00025946168
0.00026842214
-0.00030875963
0.00030491294
-0.00036498293
0.00034194431
-0.00042841196
0.00037846656
-0.00049920336
0.00041367169
-0.00057745307
0.00044728911
-0.0006632999
0.00047966442
-0.00075702226
0.00051152838
-0.00085908971
0.00054364124
-0.00097017521
0.00057655726
-0.0010911588
0.00061056638
-0.0012231511
0.00064572873
-0.0013675523
0.00068191229
-0.0015261596
0.00071877934
-0.0017013347
0.00075568134
-0.0018962486
0.00079143311
-0.0021151774
0.00082382457
-0.0023637952
0.00084835484
-0.0026495373
0.00085662172
-0.0029819203
0.00083446767
-0.0033726452
0.0007576929
-0.0038352545
0.00058609724
-0.0043838551
0.00025493134
-0.0050298125
-0.00033754676
-0.0057739469
-0.0013470211
-0.0065917954
-0.0029980729
-0.0074094113
-0.0055738531
-0.0080747817
-0.0093351379
-0.0083442777
-0.014292216
-0.007905165
-0.019730199
-0.0064733669
-0.023914614
-0.0036031747
-0.023957959
0.0011881447
-0.016158282
0.0089456258
0.00097629309
0.020869193
0.024060555
0.039467619
0.035831096
0.0091586532
0.066471048
-1.0368112e-08
7.4883799e-08
-4.6189832e-08
2.5794247e-07
-1.1601172e-07
5.0202938e-07
-2.3061191e-07
8.2377885e-07
-4.0352072e-07
1.2439945e-06
-6.51654e-07
1.7886085e-06
-9.9607826e-07
2.4898339e-06
-1.4629348e-06
3.387536e-06
-2.0845498e-06
4.5308484e-06
-2.9007614e-06
5.9800561e-06
-3.9604988e-06
7.8087466e-06
-5.3236538e-06
1.0106251e-05
-7.0632705e-06
1.29803e-05
-9.2681136e-06
1.6559894e-05
-1.2045622e-05
2.0998177e-05
-1.552529e-05
2.6475215e-05
-1.9862473e-05
3.3200287e-05
-2.5242598e-05
4.141331e-05
-3.1885694e-05
5.1384773e-05
-4.0051158e-05
6.34134e-05
-5.0042474e-05
7.7820464e-05
-6.221154e-05
9.4939521e-05
-7.6962112e-05
0.00011510006
-9.4751531e-05
0.00013860342
-0.00011608966
0.00016568932
-0.00014153369
0.00019649197
-0.00017167688
0.00023098574
-0.00020712935
0.00026892404
-0.00024848905
0.00030978184
-0.00029630278
0.00035272666
-0.00035102135
0.00039666288
-0.0004129621
0.00044040731
-0.00048230276
0.00048301234
-0.00055913095
0.00052411731
-0.00064354485
0.00056407832
-0.00073575866
0.00060374219
-0.00083616581
0.00064404839
-0.00094535583
0.00068574727
-0.0010641152
0.00072932573
-0.0011934432
0.00077505671
-0.001334602
0.00082307113
-0.0014892137
0.00087339106
-0.0016594177
0.00092588532
-0.0018481076
0.000980123
-0.0020591928
0.0010349098
-0.0022978504
0.0010870124
-0.0025708885
0.0011296598
-0.0028869448
0.001150524
-0.0032564192
0.0011271673
-0.0036908609
0.001020539
-0.0042011817
0.00076525212
-0.0047934106
0.00025468214
-0.0054590316
-0.0006814001
-0.0061571073
-0.0022999971
-0.0067844845
-0.0049464759
-0.0071393752
-0.0089802473
-0.0069123323
-0.014519259
-0.0057210627
-0.020921469
-0.0032346368
-0.02640104
0.0010179683
-0.028210564
0.0074878153
-0.022628129
0.017245263
-0.0087811543
0.031958213
0.0093476051
0.054346267
0.013443042
-0.021178526
0.084683445
-9.5543109e-09
8.443811e-08
-4.2578191e-08
2.9096635e-07
-1.0696689e-07
5.6641808e-07
-2.126771e-07
9.2948906e-07
-3.7220927e-07
1.4035266e-06
-6.0119257e-07
2.0175918e-06
-9.1909416e-07
2.8077354e-06
-1.3500779e-06
3.8185197e-06
-1.9240331e-06
5.1048037e-06
-2.6778134e-06
6.7338365e-06
-3.656712e-06
8.7876452e-06
-4.9162114e-06
1.136575e-05
-6.5240578e-06
1.4588147e-05
-8.5626801e-06
1.8598516e-05
-1.113202e-05
2.3567517e-05
-1.4352773e-05
2.9695969e-05
-1.8370089e-05
3.7217604e-05
-2.3357721e-05
4.6400942e-05
-2.9522571e-05
5.7549622e-05
-3.7109539e-05
7.1000368e-05
-4.6406521e-05
8.7117446e-05
-5.7749217e-05
0.00010628222
-7.1525302e-05
0.00012887615
-8.8177227e-05
0.00015525535
-0.00010820269
0.00018571479
-0.00013215134
0.00022044061
-0.00016061588
0.00025945028
-0.0001942155
0.00030252366
-0.00023356918
0.00034913552
-0.00027925748
0.00039841496
-0.00033177474
0.00044918014
-0.00039148182
0.00050011439
-0.00045858279
0.00055011331
-0.00053315626
0.00059869078
-0.00061524878
0.00064617085
-0.00070498892
0.00069348233
-0.00080266427
0.00074172374
-0.00090874477
0.00079182777
-0.0010238796
0.00084446059
-0.0011489023
0.0009000794
-0.0012848658
0.00095903461
-0.0014331214
0.0010216466
-0.0015954552
0.0010882191
-0.0017743022
0.0011589701
-0.0019729494
0.001233557
-0.0021957209
0.0013097839
-0.0024482864
0.0013822253
-0.0027376513
0.0014398888
-0.0030717891
0.0014613051
-0.0034585325
0.0014072823
-0.0039029467
0.0012096664
-0.0044017182
0.00075345363
-0.0049315855
-0.00015153278
-0.005427218
-0.0018043647
-0.0057439951
-0.0046296988
-0.0056133006
-0.0091109418
-0.0046480095
-0.01548455
-0.0024090825
-0.023160396
0.0014212921
-0.030231415
0.0072368018
-0.034026074
0.015534082
-0.030925409
0.027478229
-0.020725302
0.045102176
-0.0082763417
0.071052974
-0.012507756
-0.053748776
0.10362322
-8.548299e-09
9.2986409e-08
-3.8111121e-08
3.2052917e-07
-9.5775317e-08
6.2408227e-07
-1.9047946e-07
1.0241932e-06
-3.334465e-07
1.5464937e-06
-5.3871086e-07
2.2228561e-06
-8.2375955e-07
3.0927841e-06
-1.2103042e-06
4.2050643e-06
-1.7252171e-06
5.6197166e-06
-2.4016531e-06
7.4102725e-06
-3.280396e-06
9.6663881e-06
-4.4114646e-06
1.2496819e-05
-5.8560236e-06
1.6032706e-05
-7.6886272e-06
2.043112e-05
-9.9998701e-06
2.587876e-05
-1.289946e-05
3.2595558e-05
-1.6519764e-05
4.0837908e-05
-2.1019828e-05
5.0901006e-05
-2.6589906e-05
6.3119699e-05
-3.3456385e-05
7.7866848e-05
-4.1887016e-05
9.5548076e-05
-5.2196228e-05
0.00011659143
-6.4750079e-05
0.00014143
-7.9970272e-05
0.00017047554
-9.8336287e-05
0.0002040808
-0.00012038433
0.00024248866
-0.00014670128
0.00028576722
-0.00017791118
0.00033373356
-0.00021465167
0.00038587602
-0.00025753736
0.00044130065
-0.00030710961
0.00049875239
-0.00036377914
0.00055678392
-0.00042778307
0.00061411725
-0.00049919283
0.00067010053
-0.0005779946
0.00072497261
-0.00066420997
0.00077969769
-0.00075798873
0.0008355025
-0.00085964108
0.00089348013
-0.00096963005
0.00095444956
-0.0010885618
0.0010190112
-0.0012171998
0.0010876726
-0.0013565161
0.001160963
-0.0015077944
0.0012394974
-0.001672796
0.0013239716
-0.0018538762
0.0014146372
-0.0020540848
0.0015099925
-0.0022773066
0.0016054471
-0.0025279355
0.0016905177
-0.0028099942
0.0017433638
-0.0031251402
0.0017224283
-0.0034686637
0.0015531899
-0.0038220343
0.0011068242
-0.0041386615
0.00016509444
-0.0043143531
-0.0016286731
-0.0041387879
-0.004805264
-0.0032419627
-0.010007767
-0.0011349819
-0.017591531
0.0026505413
-0.026945919
0.0082982708
-0.035879144
0.015973977
-0.04170178
0.026220985
-0.041172418
0.040370044
-0.03487436
0.06079638
-0.028702678
0.089739387
-0.041450763
-0.08647529
0.1224659
-7.3653045e-09
1.0035171e-07
-3.2856127e-08
3.4601999e-07
-8.2605754e-08
6.738319e-07
-1.6435151e-07
1.105939e-06
-2.8781037e-07
1.6699525e-06
-4.6513656e-07
2.4001823e-06
-7.1148008e-07
3.3391276e-06
-1.0456609e-06
4.5392451e-06
-1.4909902e-06
6.0650459e-06
-2.0762549e-06
7.9955372e-06
-2.836915e-06
1.0427048e-05
-3.8165259e-06
1.347643e-05
-5.0684549e-06
1.7284635e-05
-6.6579198e-06
2.2020585e-05
-8.6644083e-06
2.7885248e-05
-1.118453e-05
3.511568e-05
-1.4335347e-05
4.3988724e-05
-1.8258248e-05
5.4823907e-05
-2.3123354e-05
6.7984806e-05
-2.9134492e-05
8.3877986e-05
-3.6534638e-05
0.00010294822
-4.5611671e-05
0.00012566846
-5.6704156e-05
0.00015252248
-7.0206607e-05
0.00018397799
-8.6573462e-05
0.00022044766
-0.00010632046
0.00026223566
-0.00013002174
0.00030946851
-0.00015830013
0.00036201194
-0.00019180724
0.00041938313
-0.00023118951
0.00048068293
-0.00027703658
0.00054459946
-0.00032981436
0.00060956169
-0.00038980079
0.00067410368
-0.00045706496
0.00073736471
-0.00053152738
0.00079943503
-0.00061308258
0.00086125289
-0.0007017091
0.00092412902
-0.00079751338
0.00098928441
-0.00090071792
0.0010576541
-0.0010116329
0.0011299261
-0.0011306414
0.0012066811
-0.0012582136
0.0012885352
-0.0013949599
0.0013762437
-0.0015417129
0.0014707247
-0.0016995272
0.0015724515
-0.0018696577
0.001680123
-0.0020533807
0.0017891701
-0.0022511833
0.0018883203
-0.002461018
0.0019531986
-0.0026748098
0.0019362201
-0.0028723686
0.0017507487
-0.0030113101
0.0012457657
-0.003007182
0.00016096631
-0.0026899358
-0.0019459192
-0.0017364933
-0.0057587065
0.00039121401
-0.012135474
0.0043096445
-0.021509961
0.010433805
-0.03307008
0.018680552
-0.044125891
0.028753126
-0.051774354
0.041136166
-0.053555458
0.057354904
-0.051093098
0.080021368
-0.051369142
0.10983044
-0.07125983
-0.11443904
0.13779418
-6.0295587e-09
1.0638127e-07
-2.6920627e-08
3.6691106e-07
-6.7727334e-08
7.1463861e-07
-1.3482682e-07
1.1730384e-06
-2.3623036e-07
1.7713561e-06
-3.8196282e-07
2.5459148e-06
-5.8452546e-07
3.5416903e-06
-8.594615e-07
4.8141812e-06
-1.2260416e-06
6.431626e-06
-1.7080988e-06
8.4775944e-06
-2.3350385e-06
1.1053988e-05
-3.143069e-06
1.428446e-05
-4.1766766e-06
1.8318242e-05
-5.4904232e-06
2.3334331e-05
-7.1510841e-06
2.9545909e-05
-9.2402309e-06
3.7204827e-05
-1.1857306e-05
4.66058e-05
-1.5123244e-05
5.8089844e-05
-1.9184728e-05
7.204629e-05
-2.4219108e-05
8.8912367e-05
-3.0439996e-05
0.00010916911
-3.8103396e-05
0.00013333186
-4.7514274e-05
0.00016193336
-5.9033088e-05
0.0001954968
-7.3081585e-05
0.00023449616
-9.0146837e-05
0.00027930091
-0.00011078173
0.0003301034
-0.00013559945
0.00038682966
-0.00016525807
0.00044904175
-0.00020043032
0.00051585518
-0.00024175214
0.00058592129
-0.00028974771
0.00065755726
-0.00034474364
0.00072909961
-0.00040681467
0.00079943574
-0.00047581469
0.00086843506
-0.00055149421
0.00093693241
-0.00063362657
0.0010062614
-0.00072206699
0.0010777248
-0.00081673744
0.0011523246
-0.00091757574
0.0012307644
-0.0010244834
0.0013135888
-0.0011372883
0.00140134
-0.0012557267
0.0014946821
-0.0013794031
0.0015944011
-0.0015076308
0.0017006793
-0.0016392021
0.0018116943
-0.001771718
0.0019216861
-0.0019000022
0.0020166044
-0.0020129302
0.0020661266
-0.0020875657
0.0020108556
-0.0020802398
0.0017434227
-0.0019116688
0.0010771947
-0.0014339661
-0.00031673636
-0.00036314077
-0.0030167446
0.0018243354
-0.0079461826
0.0059205798
-0.016231719
0.012656246
-0.028245627
0.022102871
-0.042516705
0.033640869
-0.055663888
0.046473465
-0.06460695
0.060892495
-0.067974488
0.078427917
-0.06862852
0.10104462
-0.073985841
0.12616052
-0.09637573
-0.13324913
0.14497061
-4.5753257e-09
1.109566e-07
-2.04564e-08
3.8279213e-07
-5.151864e-08
7.4570085e-07
-1.0265447e-07
1.2241743e-06
-1.800106e-07
1.8487122e-06
-2.91285e-07
2.6571892e-06
-4.4608369e-07
3.696489e-06
-6.563635e-07
5.024461e-06
-9.3697211e-07
6.7122346e-06
-1.3063095e-06
8.8469318e-06
-1.7871433e-06
1.1534822e-05
-2.4076005e-06
1.4904917e-05
-3.2023938e-06
1.9113035e-05
-4.2143208e-06
2.4346258e-05
-5.4960986e-06
3.0827687e-05
-7.1126139e-06
3.8821342e-05
-9.1436574e-06
4.8636843e-05
-1.1687252e-05
6.0633439e-05
-1.4863664e-05
7.5222702e-05
-1.8820171e-05
9.2868873e-05
-2.3736676e-05
0.00011408562
-2.9832171e-05
0.00013942736
-3.7371921e-05
0.00016947311
-4.6675173e-05
0.00020480005
-5.8122782e-05
0.00024594376
-7.2163845e-05
0.00029334197
-8.9319767e-05
0.00034725932
-0.00011018319
0.00040769307
-0.00013540784
0.00047426641
-0.0001656831
0.00054613043
-0.00020168468
0.00062192286
-0.00024399417
0.00069986675
-0.00029299313
0.00077809856
-0.00034877194
0.00085521455
-0.00041112222
0.00093078535
-0.00047963833
0.0010054485
-0.00055385596
0.001080479
-0.00063332903
0.0011571979
-0.00071761346
0.001236609
-0.00080619004
0.001319341
-0.0008983647
0.0014057634
-0.00099316189
0.0014961372
-0.001089206
0.0015907262
-0.0011845156
0.0016897106
-0.0012761236
0.0017922873
-0.0013594903
0.001895061
-0.0014271124
0.0019893082
-0.001465692
0.0020551841
-0.0014507012
0.0020511358
-0.0013372267
0.0018973811
-0.0010468814
0.0014530775
-0.00044233627
0.00047264955
0.00073089133
-0.001489964
0.0029594075
-0.0052452607
0.0070867945
-0.01207357
0.014134352
-0.023279277
0.024518722
-0.038629997
0.037440009
-0.055437992
0.051463611
-0.06968749
0.065558372
-0.078701711
0.080148331
-0.082564447
0.09655431
-0.0850345
0.11534167
-0.092773201
0.1332517
-0.11428576
-0.14634555
0.14634812
-3.0469427e-09
1.1400354e-07
-1.3660413e-08
3.9340561e-07
-3.4474049e-08
7.6651448e-07
-6.8813347e-08
1.2585136e-06
-1.2086039e-07
1.9007593e-06
-1.9585475e-07
2.7321835e-06
-3.0034525e-07
3.8009795e-06
-4.4249779e-07
5.1666135e-06
-6.3248051e-07
6.9022173e-06
-8.8294187e-07
9.0973932e-06
-1.2096034e-06
1.1861483e-05
-1.6320127e-06
1.5327327e-05
-2.174473e-06
1.9655496e-05
-2.867226e-06
2.5039011e-05
-3.7479338e-06
3.1708394e-05
-4.8635439e-06
3.9936953e-05
-6.2726347e-06
5.0045934e-05
-8.0483655e-06
6.240917e-05
-1.0282119e-05
7.7456456e-05
-1.3088032e-05
9.5674786e-05
-1.6608491e-05
0.00011760607
-2.1020719e-05
0.00014383958
-2.6544476e-05
0.00017499687
-3.3450689e-05
0.00021170627
-4.2070766e-05
0.00025456384
-5.2805675e-05
0.00030407688
-6.6133492e-05
0.00036058714
-8.2612964e-05
0.00042417255
-0.00010287893
0.00049453238
-0.00012762283
0.00057087433
-0.0001575476
0.00065184763
-0.00019328583
0.00073560498
-0.00023527692
0.00082008966
-0.00028363709
0.00090357472
-0.00033810422
0.00098525248
-0.00039811154
0.0010654558
-0.00046292832
0.0011452958
-0.00053175552
0.0012260251
-0.00060371186
0.0013085653
-0.000677727
0.0013933561
-0.00075238208
0.0014804185
-0.00082571055
0.0015694657
-0.00089494044
0.0016599561
-0.00095606459
0.0017508348
-0.0010031505
0.0018393732
-0.0010271659
0.0019190763
-0.0010135073
0.0019756496
-0.00093722426
0.001978901
-0.00075414711
0.0018680587
-0.000387751
0.001530985
0.00029173022
0.00077359624
0.0015171381
-0.00075275836
0.0037286161
-0.0037014419
0.0077426299
-0.0092592745
0.014719207
-0.019050147
0.025363415
-0.033923485
0.038895066
-0.052161648
0.053256896
-0.069799822
0.066621385
-0.083051979
0.07870278
-0.090783106
0.090701481
-0.094563148
0.10402705
-0.098360073
0.11889512
-0.10764127
0.13273901
-0.12812965
-0.1575056
0.14389907
-1.4981015e-09
1.1550164e-07
-6.7698158e-09
3.9867732e-07
-1.7185321e-08
7.7692999e-07
-3.447647e-08
1.2758047e-06
-6.0823188e-08
1.927106e-06
-9.8963225e-08
2.7703236e-06
-1.523258e-07
3.8543421e-06
-2.2520935e-07
5.239497e-06
-3.2299841e-07
7.0000064e-06
-4.5245253e-07
9.2268473e-06
-6.2207575e-07
1.2031106e-05
-8.4259903e-07
1.554785e-05
-1.1276113e-06
1.9940508e-05
-1.4943917e-06
2.5405792e-05
-1.9650048e-06
3.2179008e-05
-2.5677443e-06
4.0539692e-05
-3.3390166e-06
5.0817207e-05
-4.3258279e-06
6.3395981e-05
-5.5889863e-06
7.8719614e-05
-7.207226e-06
9.7293026e-05
-9.2824353e-06
0.00011968128
-1.194616e-05
0.00014650331
-1.5367517e-05
0.00017841822
-1.9762562e-05
0.00021610131
-2.5404826e-05
0.00026020611
-3.2636608e-05
0.00031130866
-4.1879695e-05
0.00036983023
-5.3643354e-05
0.00043593621
-6.8525539e-05
0.00050941456
-8.7200063e-05
0.00058954886
-0.00011037786
0.00067502543
-0.00013873028
0.0007639574
-0.000172748
0.00085410738
-0.00021257731
0.00094340403
-0.00025791497
0.0010305901
-0.00030803515
0.001115576
-0.00036191994
0.0011991806
-0.00041836618
0.0012824714
-0.00047597858
0.0013661777
-0.00053302984
0.0014504074
-0.00058722694
0.0015346156
-0.00063538897
0.0016176277
-0.00067299728
0.0016975644
-0.00069346204
0.0017712996
-0.00068696572
0.0018328768
-0.00063837708
0.0018704877
-0.00052307929
0.0018603518
-0.00029918408
0.0017550058
0.00010597588
0.0014628987
0.00081446721
0.00082249365
0.0020384075
-0.00045034406
0.0041752267
-0.0028895776
0.0079818589
-0.0075080741
0.014631056
-0.015908471
0.025030679
-0.02944977
0.038530432
-0.047423238
0.052782201
-0.066413416
0.065355292
-0.082372913
0.075503199
-0.093199887
0.084352009
-0.099631916
0.093777711
-0.10398885
0.10507057
-0.10965293
0.11800349
-0.12057419
0.1307892
-0.14091536
-0.1687387
0.14202229
8.422165e-12
1.1549322e-07
-6.600336e-11
3.9875175e-07
-3.6080071e-10
7.7722479e-07
-1.0511072e-09
1.276495e-06
-2.361974e-09
1.9284168e-06
-4.5803338e-09
2.7725419e-06
-8.0852561e-09
3.857847e-06
-1.3381451e-08
5.2447932e-06
-2.1161698e-08
7.0077867e-06
-3.2398535e-08
9.2380841e-06
-4.8486922e-08
1.2047195e-05
-7.1450733e-08
1.5570814e-05
-1.0427584e-07
1.9973333e-05
-1.5136408e-07
2.545288e-05
-2.1922666e-07
3.224687e-05
-3.1745671e-07
4.0637922e-05
-4.6013126e-07
5.0959881e-05
-6.6771326e-07
6.3603563e-05
-9.6974683e-07
7.9021648e-05
-1.4084157e-06
9.7731695e-05
-2.0433133e-06
0.00012031618
-2.9576236e-06
0.00014741762
-4.2659448e-06
0.00017972655
-6.1239369e-06
0.00021795931
-8.7397613e-06
0.00026282193
-1.238694e-05
0.00031495584
-1.7417745e-05
0.00037486103
-2.4275103e-05
0.00044279356
-3.3499101e-05
0.00051863856
-4.5720489e-05
0.00060177025
-6.162592e-05
0.00069093086
-8.1890332e-05
0.00078422181
-0.00010707546
0.0008792925
-0.00013733002
0.00097365859
-0.0001723208
0.0010655809
-0.00021118331
0.0011544385
-0.00025259826
0.0012405955
-0.00029490423
0.0013247773
-0.00033610828
0.0014073818
-0.0003737046
0.0014880037
-0.00040434771
0.0015652587
-0.00042336216
0.0016366422
-0.00042403448
0.0016982367
-0.00039644962
0.0017437147
-0.00032559552
0.0017620227
-0.00018786681
0.001732759
5.5826214e-05
0.0016166588
0.00047259468
0.0013382374
0.0011767876
0.00075870575
0.0023615932
-0.00036231194
0.0043847778
-0.0024735287
0.0079391386
-0.0064439384
0.014149031
-0.013717967
0.024007531
-0.025766972
0.037078589
-0.042520827
0.051030539
-0.061375189
0.063135849
-0.078518727
0.072231692
-0.091468756
0.079314641
-0.10028284
0.086264611
-0.10658189
0.094621584
-0.11234582
0.10507271
-0.12010405
0.11722064
-0.13272212
0.12953371
-0.15322843
-0.17989544
0.14069045
1.4027764e-09
1.1409044e-07
6.1440999e-09
3.9401042e-07
1.5234206e-08
7.6813468e-07
2.9946894e-08
1.2617823e-06
5.1882152e-08
1.9064816e-06
8.3035171e-08
2.7413889e-06
1.2588059e-07
3.8150016e-06
1.8346154e-07
5.1872123e-06
2.5948278e-07
6.9317654e-06
3.5840761e-07
9.1391593e-06
4.8553552e-07
1.1920067e-05
6.4705156e-07
1.5409298e-05
8.5002285e-07
1.9770362e-05
1.1022803e-06
2.5200623e-05
1.4121679e-06
3.1936983e-05
1.7880355e-06
4.0262055e-05
2.2374045e-06
5.0510512e-05
2.7656146e-06
6.3075353e-05
3.3738515e-06
7.8413411e-05
4.0562037e-06
9.7049343e-05
4.7956037e-06
0.00011957678
5.5582435e-06
0.00014665498
6.2862291e-06
0.00017899856
6.888137e-06
0.0002173574
7.2273991e-06
0.00026248267
7.1085721e-06
0.00031507467
6.262188e-06
0.00037570742
4.329827e-06
0.00044472592
8.5275603e-07
0.00052211563
-4.7306041e-06
0.00060735361
-1.3066726e-05
0.00069926698
-2.4773697e-05
0.00079592879
-4.0501181e-05
0.00089501999
-6.0291456e-05
0.00099344887
-8.3841765e-05
0.0010891312
-0.00011016331
0.0011807601
-0.00013761415
0.0012680464
-0.00016403642
0.0013511996
-0.00018674778
0.0014300931
-0.00020231759
0.0015035735
-0.00020612682
0.0015690679
-0.00019161668
0.0016221321
-0.00014927515
0.0016558952
-6.4767262e-05
0.0016592068
8.4101664e-05