/*--------------------------------*- C++ -*----------------------------------*\
  =========                 |
  \\      /  F ield         | OpenFOAM: The Open Source CFD Toolbox
   \\    /   O peration     | Website:  https://openfoam.org
    \\  /    A nd           | Version:  13
     \\/     M anipulation  |
\*---------------------------------------------------------------------------*/
FoamFile
{
    format      ascii;
    class       volScalarField;
    location    "0.002";
    object      CrankNicolson:ddt0(rho);
}
// * * * * * * * * * * * * * * * * * * * * * * * * * * * * * * * * * * * * * //

dimensions      [1 -3 -1 0 0 0 0];

internalField   nonuniform List<scalar> 
1000
(
9.92623e-17
8.13148e-14
-4.16334e-12
-2.88821e-11
2.13323e-11
-6.90329e-12
3.91392e-13
3.86883e-14
9.16064e-12
-2.82653e-11
-2.27569e-11
6.59424e-16
-3.19675e-11
2.70323e-11
7.31429e-12
-1.37036e-11
-3.90524e-13
-4.00618e-11
1.82121e-11
8.13247e-14
2.71542e-11
-2.2767e-13
8.63554e-12
-2.95336e-11
-4.95698e-11
-9.54101e-13
-4.06088e-14
-1.27309e-16
-4.10017e-12
2.85594e-12
-4.02347e-11
-1.42302e-11
-1.66533e-11
2.04853e-11
1.10591e-12
2.22271e-16
-2.73268e-11
1.04294e-11
3.25581e-14
3.80814e-18
6.31482e-12
-5.60897e-12
-1.30745e-11
1.25201e-12
-3.96736e-12
6.65944e-11
1.88484e-11
1.66685e-11
-1.04105e-11
-3.63248e-12
-3.0057e-11
6.42181e-13
1.89961e-11
-1.63935e-11
-5.54173e-11
-1.31182e-11
4.5657e-12
-1.98063e-11
1.58757e-11
-1.2141e-13
-4.16334e-12
2.11426e-11
1.23689e-11
1.23879e-11
3.74256e-13
4.86624e-11
2.49556e-11
-7.06648e-12
-2.68152e-11
-3.3282e-11
4.17799e-12
-2.27774e-11
1.82311e-12
-1.62564e-11
3.79255e-11
2.214e-11
4.05879e-11
8.32446e-12
2.29379e-11
2.60648e-13
3.34916e-11
2.01267e-12
-2.99215e-14
-3.57907e-11
5.2172e-12
3.10673e-12
-1.54494e-12
-4.42918e-11
2.62664e-13
-7.84593e-12
-4.99923e-11
7.02496e-12
6.24459e-12
2.91014e-11
7.67618e-12
-2.48708e-11
-2.06922e-11
-7.36643e-14
9.01533e-13
-1.66812e-11
1.24867e-11
8.20263e-12
2.34484e-12
3.28023e-11
1.50209e-11
-1.56615e-11
5.15538e-12
-1.15853e-13
-9.88686e-12
4.16259e-12
1.24735e-11
4.16503e-12
-1.6502e-11
-2.59497e-12
3.82435e-11
-1.68983e-12
-2.09427e-11
-6.06675e-15
-1.39878e-13
-2.43739e-13
2.66815e-15
-2.46852e-12
1.2489e-11
-2.08167e-12
2.00035e-12
-5.20411e-13
1.39208e-11
-3.70171e-11
2.02445e-12
-2.08153e-12
-2.14653e-12
-3.33067e-11
2.26066e-11
3.22965e-13
-1.89952e-11
-2.08052e-12
2.08166e-12
2.47609e-17
4.91656e-18
1.04122e-12
4.9195e-12
-5.37145e-12
-3.33067e-11
7.42786e-15
6.94628e-16
-2.34801e-11
-5.07257e-11
-9.02462e-15
-1.04083e-11
1.71738e-11
2.5535e-12
7.83119e-12
1.29894e-11
3.33026e-11
-1.04087e-12
-2.20537e-11
-4.23918e-11
2.98687e-12
-5.20404e-12
-2.47236e-12
3.92683e-12
-1.24651e-11
-5.23466e-12
-1.22747e-11
1.29976e-11
-1.21898e-14
4.43472e-12
-1.37916e-11
-1.99715e-11
-7.0687e-12
-4.67968e-12
8.70496e-13
-5.20543e-13
-4.12847e-12
9.88788e-12
-2.73819e-13
1.40978e-12
4.06157e-15
3.94633e-12
-5.3345e-12
8.32763e-12
3.28086e-11
-5.82486e-11
-3.92909e-11
-3.90402e-12
-3.00088e-11
4.39915e-11
-8.57223e-13
1.04509e-11
1.24695e-11
-3.64622e-12
-3.34694e-11
-1.6904e-11
1.78628e-11
2.11415e-11
5.08329e-11
2.92737e-13
-2.65159e-11
2.60009e-11
3.20239e-11
3.10184e-12
-4.71603e-12
-9.5971e-13
4.16334e-12
-9.20454e-12
5.08218e-16
-4.99426e-11
-3.95567e-11
-7.72502e-12
-2.50895e-15
7.609e-14
4.6187e-11
-6.83048e-13
2.63556e-12
6.49302e-12
-2.03995e-11
1.87495e-11
-1.92219e-11
-6.75424e-13
-1.63606e-11
-6.50402e-14
9.75663e-14
2.23086e-11
-6.37186e-11
1.03999e-12
2.00999e-12
-9.73876e-14
-1.24799e-11
8.19549e-12
-1.10548e-14
9.75717e-13
4.8064e-13
-3.54845e-11
-1.94292e-12
1.43114e-11
-2.78336e-11
9.8554e-12
-8.33633e-12
2.99189e-11
2.13493e-11
4.1597e-12
1.25022e-11
-6.76124e-12
1.07068e-11
-1.03854e-12
-3.70891e-11
5.74161e-12
1.21767e-11
5.12527e-11
1.94675e-11
-2.35107e-11
4.08538e-11
-6.76718e-11
-4.11792e-11
-1.44028e-11
-2.60475e-12
2.6184e-11
-2.88956e-11
-6.23834e-14
-1.37526e-11
3.33138e-11
8.77838e-12
3.9439e-11
-2.21824e-11
2.81859e-12
-2.57453e-11
-1.2485e-11
1.14766e-11
1.74345e-11
5.82905e-11
4.70993e-11
1.81552e-11
8.44215e-12
4.83418e-12
2.86669e-11
-1.27368e-11
2.49973e-11
1.79312e-11
-2.1786e-11
-4.17406e-11
-8.6221e-12
1.95291e-12
1.43153e-12
-1.39025e-12
5.0401e-11
2.80977e-11
1.37927e-11
3.67231e-12
2.32561e-11
-2.39088e-11
-6.50578e-12
-2.53719e-11
-3.5659e-12
-3.01511e-11
2.02223e-13
-1.57739e-12
3.47932e-12
1.02746e-12
1.66072e-11
2.71564e-11
2.05707e-11
-8.25136e-12
1.62445e-11
7.33498e-13
3.93748e-11
3.37536e-11
1.03952e-12
-4.92543e-11
-1.61079e-11
-2.43761e-11
-4.80996e-12
-3.24778e-11
-3.77329e-12
-1.29782e-11
3.65676e-11
4.16862e-11
-8.577e-12
5.24696e-12
5.00034e-11
1.63886e-11
-1.53196e-13
1.82603e-12
3.62719e-11
-1.54856e-11
-4.28016e-11
4.00916e-12
8.06647e-12
5.22018e-12
2.08187e-12
-2.21431e-12
-1.66486e-11
-1.65456e-11
-8.91278e-12
1.08829e-11
9.34921e-12
-4.17965e-11
2.5087e-13
2.39824e-11
4.20718e-11
-4.65885e-12
4.09907e-11
5.04349e-12
-1.69034e-12
4.09656e-12
2.81025e-11
1.67509e-11
-6.96198e-12
8.42451e-12
-4.57968e-11
-4.991e-11
-3.10449e-11
1.40696e-11
-1.24558e-11
4.33434e-11
5.46806e-12
-2.61154e-11
-6.60279e-12
-1.43767e-11
-2.21129e-12
4.38975e-13
-8.35914e-12
2.22554e-12
-1.93444e-11
-8.05428e-12
1.15539e-11
4.18748e-12
2.32875e-11
-1.05457e-11
-4.17117e-12
4.97481e-11
8.49876e-13
-1.30113e-12
1.01564e-14
9.75795e-14
1.71986e-11
9.1134e-12
2.08095e-12
1.55309e-12
1.0155e-12
-1.40723e-14
1.38246e-12
-3.07022e-11
-8.52996e-11
-2.85449e-10
-7.46692e-10
-2.12748e-09
-5.70305e-09
-1.50792e-08
-3.96299e-08
-1.02731e-07
-2.62988e-07
-6.64686e-07
-1.65737e-06
-4.07631e-06
-9.88621e-06
-2.3635e-05
-5.56785e-05
-0.000129199
-0.000295182
-0.000663731
-0.00146813
-0.00319291
-0.00682385
-0.0143231
-0.029508
-0.059626
-0.118087
-0.229024
-0.434588
-0.806039
-1.4596
-2.57733
-4.43174
-7.40957
-12.0259
-18.9147
-28.7779
-42.2794
-59.8827
-81.6568
-107.106
-135.097
-163.947
-191.672
-216.343
-236.674
-252.45
-264.103
-272.3
-277.722
-280.963
-282.505
-282.729
-281.924
-280.314
-278.068
-275.313
-272.147
-268.647
-264.869
-260.859
-256.653
-252.279
-247.759
-243.114
-238.36
-233.511
-228.581
-223.581
-218.522
-213.415
-208.269
-203.093
-197.897
-192.688
-187.475
-182.265
-177.064
-171.88
-166.717
-161.582
-156.48
-151.414
-146.389
-141.408
-136.475
-131.592
-126.761
-121.986
-117.268
-112.608
-108.008
-103.469
-98.9927
-94.5793
-90.2299
-85.9451
-81.7253
-77.571
-73.4827
-69.4605
-65.5049
-61.6161
-57.7944
-54.04
-50.3532
-46.7343
-43.1839
-39.7026
-36.2912
-32.9508
-29.683
-26.4896
-23.3732
-20.3374
-17.3868
-14.5277
-11.7684
-9.11983
-6.5969
-4.21925
-2.01297
-0.0124588
1.73755
3.18006
4.24468
4.84858
4.90201
4.32177
3.05655
1.12637
-1.32828
-4.00683
-6.44462
-8.09061
-8.36936
-6.90072
-3.72399
0.627483
5.27783
9.30019
11.9659
12.8645
11.8202
8.89486
4.44537
-0.887045
-6.21424
-10.5094
-12.8035
-12.4731
-9.29981
-3.84498
2.60261
8.43681
12.2674
13.3139
11.4734
7.27764
1.88503
-3.1972
-6.50347
-7.05042
-4.64237
-0.0597325
5.07795
9.1106
11.4868
13.808
20.3946
38.2161
75.4037
138.069
226.031
329.5
430.361
508.594
549.696
548.522
508.325
437.713
348.006
251.419
159.534
81.7659
24.0333
-11.946
-28.4198
-30.416
-24.0136
-14.6894
-6.25639
-0.569838
2.14279
2.63177
1.95362
0.988566
0.231482
-0.179847
-0.315894
-0.307344
-0.254859
-0.199587
-0.153456
-0.138919
-0.146871
-0.11918
-0.109035
-0.225859
-0.22294
0.0541605
-0.179263
-0.776948
0.406745
1.43429
-2.4068
-2.19023
9.30994
1.82869
-23.8022
18.2762
64.6922
-83.2324
-104.157
358.215
119.238
-1085.55
731.682
4129.68
2752.2
792.351
147.969
23.5942
3.87501
0.640985
0.106034
0.0175361
0.00289986
0.000479518
7.92907e-05
1.31109e-05
2.16788e-06
3.58456e-07
5.92713e-08
9.7996e-09
1.6213e-09
2.67263e-10
4.00721e-11
9.41777e-12
-4.16527e-12
2.20262e-12
-2.43944e-12
-3.64283e-12
8.35668e-13
1.50053e-12
2.76533e-12
-5.57002e-13
-2.61235e-13
-4.09829e-12
2.58434e-13
-3.14892e-12
2.02939e-13
-2.77702e-15
5.94608e-14
-1.39737e-19
4.14565e-12
2.24437e-15
4.04815e-15
-1.38817e-12
2.50959e-12
-3.63357e-14
3.93362e-13
1.28885e-12
-8.26162e-12
-2.0156e-12
-2.01676e-15
-9.92613e-16
2.57672e-13
-2.87198e-12
6.78175e-12
5.88932e-13
4.06773e-15
-2.57938e-13
-2.60041e-13
5.19628e-12
4.63937e-13
4.66343e-12
1.11911e-12
3.96447e-12
2.70281e-13
2.11792e-12
-3.36237e-12
-1.23289e-12
-4.26854e-15
1.06193e-12
-7.03361e-13
1.03518e-12
-4.11069e-12
-2.38913e-12
8.8476e-12
3.07438e-12
2.27707e-13
-2.23347e-13
7.11356e-13
-3.06579e-12
3.653e-12
3.16116e-12
1.30545e-12
8.33057e-12
8.33772e-12
4.67003e-12
-1.169e-12
1.06805e-11
2.10311e-12
8.46059e-13
-5.80231e-12
-4.09727e-12
-2.59196e-13
-1.52838e-12
-1.25734e-12
7.30171e-14
1.94049e-13
4.73364e-12
7.67991e-12
-1.68195e-14
-5.2027e-13
1.22831e-13
2.01763e-13
-3.28056e-13
1.35771e-12
-5.36917e-12
3.48623e-13
-8.20452e-12
4.31321e-12
4.69951e-12
3.68124e-12
-6.88009e-13
-2.08306e-12
-1.36352e-12
-3.59112e-13
3.87475e-12
1.01088e-12
-2.6024e-13
2.23513e-12
2.3439e-12
2.01302e-12
5.25563e-12
-1.1025e-12
2.29728e-12
5.81594e-14
-2.21178e-12
-5.24899e-12
4.06278e-13
4.81416e-12
2.60437e-12
-2.60091e-12
-2.64658e-13
-2.03429e-12
-3.83007e-12
-4.31986e-15
8.12245e-15
-2.52171e-12
4.85426e-12
5.63432e-13
-3.22448e-13
-2.90702e-13
-1.03704e-12
-2.27026e-14
3.03621e-12
4.56848e-12
2.61192e-13
-4.69756e-12
2.04421e-12
-4.60422e-12
-4.70778e-12
2.96959e-13
1.30013e-13
-7.13278e-13
5.14318e-13
-8.86656e-13
-8.45679e-12
-4.42151e-12
-5.21345e-12
3.21705e-12
-2.63359e-12
-1.67624e-12
3.2507e-13
5.35856e-12
1.3086e-12
1.98441e-12
6.04127e-14
-1.88678e-12
-1.86273e-12
-7.05444e-13
-8.16385e-12
-5.12274e-13
-5.19393e-13
6.54128e-12
-2.1437e-13
3.63636e-12
5.20407e-12
-1.13282e-12
-1.49963e-12
1.36388e-12
-5.24504e-13
2.06091e-12
4.76457e-12
1.77546e-12
-2.04941e-12
-5.82217e-12
2.42779e-12
-1.02606e-12
-5.81066e-15
-2.50636e-15
1.67308e-12
5.2372e-12
3.0061e-12
8.81813e-12
2.07646e-12
-4.06676e-12
-3.05631e-12
-4.54253e-13
2.09876e-12
1.70762e-13
5.69004e-12
3.15502e-12
-1.36398e-12
3.97808e-12
2.04928e-12
-1.6302e-13
4.32857e-12
5.58391e-12
6.23076e-12
7.20478e-12
-2.30175e-13
1.55895e-12
-2.50504e-12
-1.04286e-12
5.19761e-14
6.01671e-12
-2.8319e-13
-7.72931e-14
-5.04832e-12
5.50807e-13
1.56796e-14
1.07602e-12
-4.63056e-13
-1.69732e-14
9.68623e-14
2.97905e-12
2.43282e-12
8.25071e-12
-2.06544e-12
-1.29898e-12
2.0187e-12
1.88618e-12
-3.86541e-12
5.21474e-13
-3.63407e-12
4.0495e-12
-1.1208e-12
1.25842e-13
-1.61401e-13
5.84841e-13
1.62129e-14
1.35792e-13
-9.26594e-14
3.37345e-14
3.0698e-13
7.58072e-13
6.75551e-13
-1.01013e-12
1.03501e-12
-1.21972e-13
-2.76459e-12
-1.04094e-12
-1.04313e-13
7.9314e-13
-3.57255e-13
8.8103e-12
-1.47478e-13
-1.0529e-12
-8.70449e-13
-5.45367e-13
6.23604e-12
3.02291e-12
2.28721e-15
1.10603e-12
-4.13036e-12
-4.82243e-12
-2.48432e-12
-1.8924e-12
-1.09994e-13
-3.9765e-14
1.46994e-12
3.77912e-12
-2.55322e-12
2.29046e-15
-7.41493e-13
1.85501e-12
1.52128e-12
2.89451e-12
-9.48188e-14
3.54395e-12
4.05083e-12
-2.08167e-12
-1.29401e-12
-6.18429e-12
-2.44076e-12
3.53406e-12
2.65087e-12
2.34315e-12
-1.29417e-12
1.14499e-13
2.0626e-12
-1.60222e-14
2.79674e-12
-5.20629e-13
-1.43826e-13
-1.26445e-12
3.18755e-12
5.9848e-12
3.12352e-12
4.2936e-12
4.68214e-12
4.33588e-12
2.2085e-12
1.81716e-12
-1.36798e-12
1.71613e-13
2.58246e-16
-8.10985e-14
-8.95766e-14
-1.9658e-12
-1.29342e-12
-1.04032e-12
-1.18047e-12
4.14815e-12
1.05774e-13
3.99699e-12
4.98314e-13
-2.53194e-12
3.21755e-14
1.39444e-12
1.67333e-14
2.57993e-12
9.08151e-12
2.3434e-12
-1.31024e-15
3.54842e-14
-3.29936e-12
8.73562e-15
-1.44704e-12
1.06376e-12
4.20576e-13
4.29396e-12
2.21366e-12
-3.38348e-12
1.95882e-12
1.30182e-12
4.11448e-12
-4.44563e-14
-1.29647e-13
4.2045e-12
2.67195e-12
1.99915e-12
2.80523e-12
4.16431e-12
5.69314e-12
-9.51169e-13
-2.83211e-13
5.63724e-12
-4.45346e-12
-3.74227e-13
2.517e-13
2.493e-13
-3.38271e-12
-4.68832e-12
-2.82866e-12
-2.28497e-12
3.14484e-12
-1.1671e-12
3.25624e-12
2.69516e-12
1.96835e-12
-4.18367e-12
-2.84884e-12
4.1472e-12
-6.35087e-17
2.08166e-12
-2.08201e-12
8.32862e-12
-1.87426e-14
1.81625e-12
-3.49328e-15
6.68315e-13
-2.29705e-12
2.84683e-13
-4.92744e-12
-2.13236e-12
8.84015e-14
1.79004e-13
1.62122e-13
-1.44997e-12
-5.23594e-13
-1.55664e-13
3.30336e-14
5.04788e-13
3.04941e-12
2.6213e-13
4.16332e-12
-4.62571e-13
1.06115e-12
5.06786e-13
-4.14251e-13
5.20382e-13
5.85353e-13
-6.37138e-17
-1.20237e-19
4.70717e-18
)
;

boundaryField
{
    sides
    {
        type            calculated;
        value           nonuniform List<scalar> 2(4.70717e-18 9.92623e-17);
    }
    empty
    {
        type            empty;
    }
}


// ************************************************************************* //
