/*--------------------------------*- C++ -*----------------------------------*\
  =========                 |
  \\      /  F ield         | OpenFOAM: The Open Source CFD Toolbox
   \\    /   O peration     | Website:  https://openfoam.org
    \\  /    A nd           | Version:  13
     \\/     M anipulation  |
\*---------------------------------------------------------------------------*/
FoamFile
{
    format      ascii;
    class       volScalarField;
    location    "0.002";
    object      CrankNicolson:ddt0(rho,K);
}
// * * * * * * * * * * * * * * * * * * * * * * * * * * * * * * * * * * * * * //

dimensions      [1 -1 -3 0 0 0 0];

internalField   nonuniform List<scalar> 
1000
(
1.45406e-21
-3.69331e-25
3.28121e-21
4.05668e-21
-2.71303e-21
4.43418e-24
4.28543e-21
-1.37018e-25
-5.58599e-21
-2.74869e-21
1.40446e-21
-1.16343e-21
2.67798e-21
1.38613e-21
-1.778e-21
-3.06444e-21
-2.9681e-21
6.1026e-24
1.93732e-21
3.83008e-24
-1.52461e-25
1.74333e-21
4.90167e-21
4.68686e-21
2.9574e-21
1.41656e-22
-4.04747e-24
1.52768e-22
9.13631e-22
2.16625e-24
1.09034e-21
1.58724e-22
-2.23024e-22
-6.07719e-22
1.99178e-22
5.97622e-22
2.33604e-22
2.10542e-24
-1.02953e-21
1.2454e-21
4.95786e-22
5.14863e-22
1.07981e-21
1.1444e-21
-1.30321e-22
-3.15267e-22
-1.15653e-21
-4.11832e-22
-2.21467e-21
2.86184e-24
4.49226e-22
6.6865e-23
1.10319e-21
4.06954e-22
5.08417e-22
-3.33594e-23
1.22246e-22
5.86912e-22
1.02715e-22
-4.13281e-22
-1.7194e-22
3.64757e-22
1.70356e-23
5.30699e-22
1.51242e-22
-4.32724e-22
-2.93718e-22
-1.82936e-21
-1.41143e-21
-4.50061e-22
-1.44165e-22
1.14747e-22
5.85627e-24
-3.20482e-24
-9.00351e-22
3.6687e-22
-3.52085e-22
1.40886e-21
3.82949e-21
3.37701e-24
7.17111e-22
1.9412e-21
-2.02506e-24
1.83097e-23
6.21582e-22
-1.57076e-22
-2.51501e-22
-9.53256e-22
6.25265e-22
2.79067e-21
-1.69936e-21
-4.44343e-22
7.77421e-24
-4.26276e-22
1.81195e-21
1.20478e-22
4.96421e-22
1.54187e-22
9.66997e-22
7.96572e-22
-5.4905e-22
-5.00058e-22
2.27138e-21
5.66879e-21
1.33935e-21
8.81792e-22
7.57369e-22
-6.23405e-22
-2.17539e-24
4.45498e-24
3.15192e-23
-1.58708e-22
-3.41158e-22
2.28179e-23
-7.68334e-23
-9.24467e-22
-2.77082e-22
1.91624e-22
-7.9305e-23
-1.42167e-22
5.31602e-23
5.30207e-24
-1.59679e-22
-5.3307e-22
-3.73828e-24
2.05768e-22
-2.88378e-24
8.00766e-22
-5.1471e-22
1.3375e-22
2.39312e-22
-1.21985e-22
3.84214e-24
4.71195e-22
5.54503e-22
6.92364e-24
-2.06966e-22
1.76452e-22
-2.65336e-24
-7.11674e-22
3.87357e-22
-1.44779e-21
1.83105e-23
1.4719e-22
5.55927e-23
1.12927e-22
3.23215e-22
1.15548e-22
1.90499e-22
-8.29191e-23
6.30616e-22
5.71597e-23
-2.2915e-22
-4.3818e-22
-2.6273e-24
1.50806e-23
9.40285e-22
2.86944e-22
-9.3162e-23
3.65935e-23
3.38223e-22
1.81132e-21
6.06849e-22
-4.83282e-22
-4.75034e-22
5.24505e-24
1.51552e-22
-6.41853e-24
-6.10947e-24
3.49538e-23
-1.27162e-22
-6.07605e-22
-7.1658e-22
-8.9623e-22
-6.01209e-25
2.16414e-22
4.5039e-23
9.545e-23
-1.12394e-24
-1.93689e-24
-2.23319e-22
1.20181e-22
2.29795e-22
-7.08611e-23
1.12045e-21
-5.8786e-24
-5.42582e-23
-7.47299e-22
-1.34925e-22
6.97198e-22
8.89874e-23
-1.1394e-22
1.77759e-22
1.17361e-22
1.41797e-23
-9.73884e-23
-1.23934e-21
3.57154e-22
-6.04448e-22
1.1603e-21
2.43911e-22
-8.15081e-22
-3.09633e-23
5.01811e-22
2.18009e-24
-9.42992e-22
6.15646e-23
-1.30314e-22
-2.93895e-22
-7.70004e-22
2.95258e-22
-5.88694e-24
-4.18747e-22
7.36344e-22
8.84589e-22
-1.23005e-22
3.89709e-24
5.64835e-22
4.02554e-22
2.12367e-22
-4.24634e-22
3.47495e-22
-5.46455e-22
1.2997e-23
1.69989e-22
3.31921e-25
-1.59741e-22
2.30942e-22
-3.98248e-22
4.15863e-22
1.78305e-21
2.15419e-23
5.66361e-24
-1.12449e-21
-8.04455e-23
-1.406e-21
-3.596e-22
9.89719e-23
2.30501e-23
-3.91616e-23
-1.17736e-22
5.4529e-22
3.43665e-22
4.78548e-24
-5.58344e-25
-9.81582e-23
4.73157e-23
-7.98382e-22
-1.77342e-21
-1.02855e-21
9.42977e-22
7.31077e-22
-9.34398e-22
2.7553e-22
-5.2273e-22
-8.98644e-23
3.57244e-24
-1.09264e-21
-9.64652e-24
2.91006e-23
-3.27353e-22
2.10481e-21
1.69854e-21
9.12777e-22
-7.516e-22
1.64626e-21
-1.1254e-21
-3.17707e-22
6.39058e-24
-5.93389e-22
-2.69077e-25
2.33851e-21
3.68409e-22
-2.63782e-22
9.86874e-22
-1.72911e-21
-4.49194e-21
-4.12995e-21
-1.04127e-21
5.84576e-24
-6.03473e-22
-2.32963e-22
3.51919e-22
-2.10461e-21
-5.52503e-21
-1.76809e-21
-2.9192e-22
2.921e-22
-4.55287e-22
-1.31539e-21
1.35482e-21
2.27894e-21
1.22043e-21
-1.87641e-21
1.09076e-21
1.39988e-21
-2.10514e-25
-1.16049e-24
-4.37419e-21
-2.45322e-21
-5.58542e-21
-4.63336e-21
1.37507e-21
2.08412e-21
-8.0065e-22
-9.03709e-22
-1.56468e-21
1.03438e-21
3.73903e-22
1.37036e-21
4.4145e-22
1.66139e-21
-3.31817e-21
-5.29333e-21
-7.72306e-22
4.08845e-24
4.97546e-22
-9.77113e-24
1.40144e-22
1.46853e-21
-1.29131e-22
3.82302e-22
1.59432e-22
6.60445e-22
2.64136e-24
7.06569e-22
1.66759e-21
9.35985e-22
5.19907e-22
4.07555e-22
-1.0604e-23
-1.1118e-21
1.16328e-21
-1.45071e-21
-6.97663e-22
-3.89792e-26
-1.8496e-21
-3.29083e-21
-2.96319e-21
-5.38442e-22
2.64111e-22
1.09483e-21
3.18851e-22
-2.39903e-22
7.10489e-23
-1.08728e-21
-1.01361e-21
-1.28462e-21
6.54431e-22
4.71463e-22
-1.83395e-21
-1.55578e-21
-3.93412e-22
-1.81125e-22
1.41134e-23
-2.434e-23
-3.03864e-23
1.338e-21
2.51238e-21
4.45226e-21
-2.06428e-24
-2.86375e-21
-4.91498e-22
-1.03117e-21
8.72385e-22
-5.99804e-22
7.7861e-24
1.49372e-22
2.38556e-22
8.40532e-24
-1.48755e-22
-2.46755e-23
6.64069e-25
1.84313e-22
5.37034e-23
-3.51579e-23
-2.86574e-22
-1.11023e-24
2.55714e-22
2.47386e-22
-3.58092e-23
1.83145e-21
2.25917e-20
2.6715e-19
2.0644e-18
1.56418e-17
1.16572e-16
8.37368e-16
5.86577e-15
3.99819e-14
2.65778e-13
1.72166e-12
1.08634e-11
6.6724e-11
3.98712e-10
2.31636e-09
1.30747e-08
7.16502e-08
3.80921e-07
1.96304e-06
9.79769e-06
4.73171e-05
0.000220893
0.000995756
0.00432946
0.0181336
0.0730671
0.282817
1.04988
3.73127
12.6711
41.0288
126.376
369.355
1021.51
2665.69
6544.61
15073.9
32487.5
65381.3
122707
214708
350600
535502
768020
1.04064e+06
1.34289e+06
1.66435e+06
1.99605e+06
2.33096e+06
2.66376e+06
2.99061e+06
3.3087e+06
3.61603e+06
3.91114e+06
4.19296e+06
4.46072e+06
4.7138e+06
4.95175e+06
5.17423e+06
5.38095e+06
5.57172e+06
5.7464e+06
5.9049e+06
6.04721e+06
6.17335e+06
6.28342e+06
6.37758e+06
6.45603e+06
6.51902e+06
6.56688e+06
6.59995e+06
6.61865e+06
6.62342e+06
6.61472e+06
6.59306e+06
6.55896e+06
6.51295e+06
6.4556e+06
6.38745e+06
6.30907e+06
6.22101e+06
6.12385e+06
6.01812e+06
5.90437e+06
5.78316e+06
5.655e+06
5.52041e+06
5.3799e+06
5.23397e+06
5.08309e+06
4.92773e+06
4.76837e+06
4.60544e+06
4.43938e+06
4.2706e+06
4.09951e+06
3.92653e+06
3.75202e+06
3.57637e+06
3.39995e+06
3.2231e+06
3.04616e+06
2.86947e+06
2.69336e+06
2.51814e+06
2.34412e+06
2.17162e+06
2.00093e+06
1.83234e+06
1.66616e+06
1.50268e+06
1.34223e+06
1.18514e+06
1.03175e+06
882440
737643
597849
463643
335740
215035
102661
88.276
-90762.3
-167358
-226382
-263571
-273694
-250852
-189496
-86597.6
54937.9
221978
389382
518994
568462
506657
329854
67615.7
-226394
-492317
-681518
-761858
-718558
-553873
-285603
52305
409120
719711
915804
936111
756457
407264
-27981.7
-438301
-721965
-811749
-686771
-378690
35918.4
451076
757184
868103
749449
438720
37461.7
-318744
-489123
-334704
285196
1.51678e+06
3.48638e+06
6.24623e+06
9.7354e+06
1.37509e+07
1.79041e+07
2.15782e+07
2.39893e+07
2.44691e+07
2.28344e+07
1.95102e+07
1.52733e+07
1.0863e+07
6.78004e+06
3.32713e+06
711368
-942462
-1.65593e+06
-1.6313e+06
-1.1903e+06
-649304
-215977
37542.1
134642
134747
92179.2
41979.5
1866.17
-21937
-30460.1
-29221.3
-24767.3
-20839.6
-18694.1
-20077.9
-23202.2
-21171
-19644.9
-31885.4
-31906.1
458.363
-19776.9
-84875.6
47078.8
187640
-213516
-227307
1.07139e+06
423153
-2.45791e+06
1.9442e+06
7.73764e+06
-7.75912e+06
-1.14284e+07
4.00642e+07
1.90845e+07
-1.04967e+08
1.15652e+08
4.28632e+08
1.32503e+08
8.17886e+06
257207
7330.06
198.225
5.40343
0.147699
0.00403867
0.000110433
3.01956e-06
8.25608e-08
2.25729e-09
6.17141e-11
1.68715e-12
4.61049e-14
1.25672e-15
3.38413e-17
8.91225e-19
1.58458e-20
-3.98344e-22
-3.73654e-22
-1.17459e-22
-2.20886e-22
1.64419e-23
5.25901e-23
8.41028e-23
3.87643e-23
-6.05371e-23
1.71517e-24
2.69827e-22
1.55084e-23
4.55309e-23
1.4931e-23
2.12022e-25
-2.21085e-24
1.36758e-24
-2.56389e-23
4.44614e-25
2.96305e-27
1.07095e-22
-1.2786e-22
-3.22434e-22
8.71091e-23
1.2141e-22
1.81143e-22
-1.03161e-22
-1.74448e-22
-2.26621e-23
-4.01132e-24
-3.83038e-23
-3.09304e-23
1.45886e-23
4.81246e-26
4.24552e-23
-2.29478e-23
-1.74019e-23
-5.842e-23
1.96682e-22
-8.86364e-24
2.09207e-24
-1.18985e-22
8.28423e-25
3.60735e-25
6.14693e-25
1.25418e-22
-1.87599e-22
-4.09768e-25
1.8119e-23
1.41798e-23
5.44586e-25
4.11642e-23
-2.16995e-23
-6.98282e-23
-2.63319e-22
-1.66974e-22
1.22971e-23
-3.37811e-23
-1.93752e-25
-9.49697e-23
1.14654e-22
2.62461e-22
6.11503e-22
4.02817e-22
2.23863e-22
5.45375e-22
2.81515e-22
-5.26967e-22
2.38821e-22
6.10601e-22
4.39927e-22
1.85183e-22
2.32124e-22
-1.61818e-22
2.16065e-22
2.44673e-24
-1.05065e-21
-2.50764e-22
-6.95751e-26
4.50951e-25
-7.81041e-22
5.11252e-22
7.7783e-22
6.45357e-22
1.10716e-21
1.93438e-22
4.40542e-22
8.92697e-22
2.32485e-22
4.83184e-22
-1.84158e-22
-1.02266e-21
-9.85598e-22
-3.10027e-22
8.17636e-22
-3.07194e-22
3.27465e-22
1.59134e-21
1.94404e-21
3.24425e-22
-6.34659e-22
1.1081e-21
1.0058e-21
1.03528e-21
1.66963e-21
-6.01431e-22
-7.05205e-22
7.17424e-25
3.45221e-23
4.74981e-23
2.02642e-23
-2.74929e-23
-8.9609e-24
1.65468e-23
4.92553e-23
2.23874e-23
-8.32139e-23
6.02928e-25
4.13508e-22
5.91569e-22
6.18097e-22
5.64478e-25
-4.00454e-22
-2.63965e-22
-2.82838e-22
-1.3661e-21
-6.51165e-22
-2.88573e-22
-5.02136e-22
-1.46123e-22
3.05157e-22
6.92213e-22
-1.10984e-22
1.8441e-24
6.60808e-23
1.59072e-22
2.94231e-23
2.58295e-22
1.28922e-22
-1.20375e-22
-1.86155e-22
-2.72149e-22
-1.9427e-22
-1.70081e-22
7.55798e-23
7.27864e-23
3.52398e-22
5.48758e-22
1.51853e-22
1.62752e-22
-8.36155e-23
-2.38908e-22
-2.15124e-22
-3.58088e-24
9.91287e-23
-2.05746e-23
-1.19653e-22
4.75884e-23
3.22757e-22
8.78204e-23
1.03348e-22
4.9694e-22
1.84626e-24
-1.1311e-22
5.33513e-25
-1.5806e-22
1.71115e-25
3.26672e-22
-1.10686e-22
-1.49403e-22
1.27033e-23
-1.1348e-24
-4.40747e-22
4.13516e-22
1.06733e-21
3.92746e-22
5.41114e-22
3.0056e-22
-4.1479e-22
-7.12397e-22
-5.86636e-22
-1.22246e-22
5.23797e-23
2.65263e-22
-1.03689e-22
-1.88538e-23
-8.06639e-24
8.23089e-23
-1.58468e-22
-2.05268e-22
-2.92945e-23
6.95195e-23
2.319e-24
9.02103e-23
9.11887e-22
3.53774e-22
2.1619e-22
4.78022e-22
1.59252e-22
4.24234e-26
-3.19517e-22
-3.87352e-22
-9.99633e-23
1.14382e-22
7.421e-23
4.24075e-23
7.29596e-23
1.83064e-23
-6.21757e-23
7.1022e-23
1.83079e-22
1.54085e-24
-4.61843e-23
-9.643e-25
-7.03976e-27
3.08416e-26
1.18805e-24
-6.32165e-23
-1.17005e-22
-2.26923e-22
-9.66664e-24
3.58099e-24
2.72285e-24
3.24271e-22
-7.47109e-24
4.25016e-23
5.88896e-23
5.43394e-23
-2.7531e-26
2.50218e-23
6.48061e-23
-6.35112e-23
2.72613e-22
2.02666e-22
-8.3211e-23
-3.9351e-23
-3.24297e-23
-4.64383e-23
-4.37935e-22
-1.51663e-22
-2.11519e-22
-2.06994e-23
-3.81927e-23
-2.7506e-23
-5.69978e-25
-6.99658e-23
-5.32075e-23
-5.43521e-23
-3.04137e-23
-1.14143e-22
3.98437e-22
4.23074e-22
-2.44869e-22
-2.76779e-22
2.73271e-26
-1.60934e-22
1.52148e-22
-2.09704e-22
-2.88581e-22
-5.31001e-22
-6.12518e-22
2.37224e-24
5.9759e-22
3.67522e-22
8.41695e-23
-1.67675e-22
-9.6908e-23
4.77301e-25
-2.16217e-25
1.88053e-22
2.11737e-22
2.80949e-22
1.83341e-22
-1.45325e-25
1.44685e-22
7.75284e-22
8.28334e-22
4.89038e-22
-7.56396e-22
-5.20165e-22
-2.77566e-22
5.28291e-26
-2.59062e-22
2.14351e-22
4.90687e-22
-1.77241e-22
3.4826e-22
1.02959e-21
1.53707e-26
-4.15575e-22
-9.05357e-23
1.09932e-22
8.1483e-23
-7.5139e-23
-4.97841e-23
-3.06458e-25
-1.01111e-23
-7.3111e-24
-8.527e-23
8.65818e-23
2.1194e-22
-3.54075e-23
1.46002e-23
2.90098e-22
2.11957e-22
2.20338e-22
6.16018e-25
-6.84814e-23
-2.62964e-22
-8.47876e-22
-4.02699e-22
-4.03332e-22
-8.42039e-23
2.39088e-22
2.40352e-22
1.34332e-22
6.88643e-23
-1.26968e-25
1.12321e-22
1.83072e-22
3.88775e-22
5.75413e-22
1.49775e-22
-1.18933e-22
-2.66656e-22
-3.05163e-22
-1.08169e-22
-1.13675e-22
-1.44676e-23
-3.24123e-22
-3.01997e-22
-1.36007e-22
2.22992e-22
1.52478e-22
7.64517e-23
-2.01113e-22
-8.50937e-23
-2.5553e-25
2.96846e-22
2.08084e-22
2.8126e-22
2.89659e-23
-1.13928e-22
-7.33824e-23
1.00353e-22
-4.82425e-26
-1.12607e-22
-1.13127e-22
-1.89903e-22
-1.30275e-24
1.54093e-22
2.7654e-23
-1.57576e-22
-1.42365e-23
1.12428e-22
8.31448e-23
-8.39395e-23
-2.19401e-24
-1.56025e-23
-6.28561e-24
-1.42532e-22
1.57392e-22
1.82176e-23
1.50263e-23
1.50964e-24
-5.75889e-23
-2.49876e-23
-2.02104e-23
8.36e-23
6.91543e-26
3.58226e-30
3.09052e-30
)
;

boundaryField
{
    sides
    {
        type            calculated;
        value           nonuniform List<scalar> 2(3.09052e-30 1.45406e-21);
    }
    empty
    {
        type            empty;
    }
}


// ************************************************************************* //
