/*--------------------------------*- C++ -*----------------------------------*\
  =========                 |
  \\      /  F ield         | OpenFOAM: The Open Source CFD Toolbox
   \\    /   O peration     | Website:  https://openfoam.org
    \\  /    A nd           | Version:  13
     \\/     M anipulation  |
\*---------------------------------------------------------------------------*/
FoamFile
{
    format      ascii;
    class       volVectorField;
    location    "0.002";
    object      CrankNicolson:ddt0(rho,U);
}
// * * * * * * * * * * * * * * * * * * * * * * * * * * * * * * * * * * * * * //

dimensions      [1 -2 -2 0 0 0 0];

internalField   nonuniform List<vector> 
1000
(
(-1.45519e-09 0 0)
(-4.13283e-23 0 0)
(-2.91038e-09 0 0)
(-5.82077e-09 0 0)
(2.91038e-09 0 0)
(-2.26441e-23 0 0)
(-4.36557e-09 0 0)
(-6.30927e-23 0 0)
(4.36557e-09 0 0)
(2.91038e-09 0 0)
(-1.45519e-09 0 0)
(1.45519e-09 0 0)
(-2.91038e-09 0 0)
(-1.45519e-09 0 0)
(1.45519e-09 0 0)
(2.91038e-09 0 0)
(2.91038e-09 0 0)
(5.84196e-23 0 0)
(-2.91038e-09 0 0)
(-2.64698e-23 0 0)
(-7.77077e-23 0 0)
(-1.45519e-09 0 0)
(-4.36557e-09 0 0)
(-5.82077e-09 0 0)
(-8.73115e-09 0 0)
(-2.91038e-09 0 0)
(1.97001e-25 0 0)
(-2.91038e-09 0 0)
(-7.27596e-09 0 0)
(-5.06648e-24 0 0)
(8.73115e-09 0 0)
(2.91038e-09 0 0)
(-1.45519e-09 0 0)
(-2.91038e-09 0 0)
(-1.45519e-09 0 0)
(-2.91038e-09 0 0)
(-4.36557e-09 0 0)
(-1.03398e-23 0 0)
(2.91038e-09 0 0)
(-2.91038e-09 0 0)
(-1.45519e-09 0 0)
(-1.45519e-09 0 0)
(-4.36557e-09 0 0)
(-8.73115e-09 0 0)
(2.91038e-09 0 0)
(4.36557e-09 0 0)
(2.91038e-09 0 0)
(4.36557e-09 0 0)
(7.27596e-09 0 0)
(-2.89513e-24 0 0)
(-1.45519e-09 0 0)
(-4.36557e-09 0 0)
(-5.82077e-09 0 0)
(-5.82077e-09 0 0)
(-2.91038e-09 0 0)
(6.41065e-24 0 0)
(2.91038e-09 0 0)
(4.36557e-09 0 0)
(2.91038e-09 0 0)
(2.91038e-09 0 0)
(1.45519e-09 0 0)
(-2.91038e-09 0 0)
(2.06795e-24 0 0)
(-4.36557e-09 0 0)
(-4.36557e-09 0 0)
(2.91038e-09 0 0)
(1.45519e-09 0 0)
(4.36557e-09 0 0)
(2.91038e-09 0 0)
(4.36557e-09 0 0)
(2.91038e-09 0 0)
(1.45519e-09 0 0)
(2.99853e-24 0 0)
(2.01625e-24 0 0)
(-2.91038e-09 0 0)
(2.91038e-09 0 0)
(2.91038e-09 0 0)
(-5.82077e-09 0 0)
(-7.27596e-09 0 0)
(-1.70606e-23 0 0)
(-1.45519e-09 0 0)
(-2.91038e-09 0 0)
(1.95906e-23 0 0)
(1.67504e-23 0 0)
(-2.91038e-09 0 0)
(1.45519e-09 0 0)
(1.45519e-09 0 0)
(4.36557e-09 0 0)
(-1.45519e-09 0 0)
(-1.01863e-08 0 0)
(-8.73115e-09 0 0)
(-2.91038e-09 0 0)
(1.03398e-25 0 0)
(4.36557e-09 0 0)
(8.73115e-09 0 0)
(5.82077e-09 0 0)
(4.36557e-09 0 0)
(1.45519e-09 0 0)
(-4.36557e-09 0 0)
(-1.01863e-08 0 0)
(-5.82077e-09 0 0)
(-1.45519e-09 0 0)
(5.82077e-09 0 0)
(8.73115e-09 0 0)
(2.91038e-09 0 0)
(1.45519e-09 0 0)
(1.45519e-09 0 0)
(-1.45519e-09 0 0)
(9.09899e-24 0 0)
(1.3809e-23 0 0)
(-1.45519e-09 0 0)
(1.45519e-09 0 0)
(4.36557e-09 0 0)
(4.1359e-25 0 0)
(1.45519e-09 0 0)
(4.36557e-09 0 0)
(2.91038e-09 0 0)
(-2.91038e-09 0 0)
(-1.45519e-09 0 0)
(2.91038e-09 0 0)
(-1.45519e-09 0 0)
(2.91038e-09 0 0)
(1.45519e-09 0 0)
(-2.91038e-09 0 0)
(2.33897e-24 0 0)
(1.45519e-09 0 0)
(-2.92724e-24 0 0)
(-4.36557e-09 0 0)
(-2.91038e-09 0 0)
(1.45519e-09 0 0)
(1.45519e-09 0 0)
(2.91038e-09 0 0)
(3.72231e-24 0 0)
(-2.91038e-09 0 0)
(-4.36557e-09 0 0)
(-1.96455e-24 0 0)
(2.91038e-09 0 0)
(1.45519e-09 0 0)
(-9.82277e-25 0 0)
(-5.82077e-09 0 0)
(-2.91038e-09 0 0)
(5.82077e-09 0 0)
(-1.45519e-09 0 0)
(-2.91038e-09 0 0)
(-2.91038e-09 0 0)
(-1.45519e-09 0 0)
(2.91038e-09 0 0)
(1.45519e-09 0 0)
(1.45519e-09 0 0)
(1.45519e-09 0 0)
(-4.36557e-09 0 0)
(-5.82077e-09 0 0)
(1.45519e-09 0 0)
(2.91038e-09 0 0)
(-3.23037e-24 0 0)
(3.92911e-24 0 0)
(-2.91038e-09 0 0)
(-1.45519e-09 0 0)
(-1.45519e-09 0 0)
(-2.91038e-09 0 0)
(4.36557e-09 0 0)
(8.73115e-09 0 0)
(2.91038e-09 0 0)
(-1.45519e-09 0 0)
(-2.91038e-09 0 0)
(-1.65436e-23 0 0)
(-5.82077e-09 0 0)
(-2.91038e-09 0 0)
(1.45519e-09 0 0)
(2.91038e-09 0 0)
(2.91038e-09 0 0)
(4.36557e-09 0 0)
(2.91038e-09 0 0)
(5.82077e-09 0 0)
(1.0991e-23 0 0)
(-5.82077e-09 0 0)
(-1.45519e-09 0 0)
(1.45519e-09 0 0)
(-2.78931e-25 0 0)
(9.10989e-25 0 0)
(-1.45519e-09 0 0)
(-4.36557e-09 0 0)
(1.45519e-09 0 0)
(1.45519e-09 0 0)
(4.36557e-09 0 0)
(1.86116e-24 0 0)
(-2.91038e-09 0 0)
(4.36557e-09 0 0)
(-1.45519e-09 0 0)
(-5.82077e-09 0 0)
(-1.45519e-09 0 0)
(-1.45519e-09 0 0)
(1.45519e-09 0 0)
(1.45519e-09 0 0)
(-1.45519e-09 0 0)
(1.45519e-09 0 0)
(8.73115e-09 0 0)
(2.91038e-09 0 0)
(-8.73115e-09 0 0)
(-5.82077e-09 0 0)
(2.91038e-09 0 0)
(5.82077e-09 0 0)
(-2.91038e-09 0 0)
(-8.73115e-09 0 0)
(3.72231e-24 0 0)
(2.91038e-09 0 0)
(1.45519e-09 0 0)
(1.45519e-09 0 0)
(2.91038e-09 0 0)
(2.91038e-09 0 0)
(-1.45519e-09 0 0)
(-1.73708e-23 0 0)
(1.45519e-09 0 0)
(-5.82077e-09 0 0)
(-4.36557e-09 0 0)
(1.45519e-09 0 0)
(3.20532e-24 0 0)
(-2.91038e-09 0 0)
(-1.45519e-09 0 0)
(1.45519e-09 0 0)
(2.91038e-09 0 0)
(2.91038e-09 0 0)
(2.91038e-09 0 0)
(-2.48154e-24 0 0)
(-2.91038e-09 0 0)
(9.89421e-25 0 0)
(2.91038e-09 0 0)
(2.91038e-09 0 0)
(2.91038e-09 0 0)
(-1.45519e-09 0 0)
(-4.36557e-09 0 0)
(-2.91038e-09 0 0)
(-5.79026e-24 0 0)
(-4.36557e-09 0 0)
(1.45519e-09 0 0)
(7.27596e-09 0 0)
(2.91038e-09 0 0)
(-2.91038e-09 0 0)
(-4.36557e-09 0 0)
(-1.45519e-09 0 0)
(1.45519e-09 0 0)
(-4.36557e-09 0 0)
(-2.91038e-09 0 0)
(-9.92617e-24 0 0)
(7.23783e-25 0 0)
(-2.91038e-09 0 0)
(-1.45519e-09 0 0)
(2.91038e-09 0 0)
(5.82077e-09 0 0)
(2.91038e-09 0 0)
(-2.91038e-09 0 0)
(-2.91038e-09 0 0)
(4.36557e-09 0 0)
(1.45519e-09 0 0)
(-1.45519e-09 0 0)
(-1.45519e-09 0 0)
(-7.34123e-24 0 0)
(2.91038e-09 0 0)
(4.90977e-24 0 0)
(3.30872e-24 0 0)
(1.45519e-09 0 0)
(-4.36557e-09 0 0)
(-2.91038e-09 0 0)
(-1.45519e-09 0 0)
(1.45519e-09 0 0)
(-4.36557e-09 0 0)
(-1.01863e-08 0 0)
(-1.45519e-09 0 0)
(7.85822e-24 0 0)
(-1.45519e-09 0 0)
(9.51258e-24 0 0)
(5.82077e-09 0 0)
(1.45519e-09 0 0)
(-5.82077e-09 0 0)
(-7.27596e-09 0 0)
(5.82077e-09 0 0)
(1.16415e-08 0 0)
(7.27596e-09 0 0)
(1.45519e-09 0 0)
(4.72478e-23 0 0)
(2.91038e-09 0 0)
(2.91038e-09 0 0)
(1.45519e-09 0 0)
(-4.36557e-09 0 0)
(-1.30967e-08 0 0)
(-5.82077e-09 0 0)
(-1.45519e-09 0 0)
(-2.91038e-09 0 0)
(1.45519e-09 0 0)
(1.01863e-08 0 0)
(8.73115e-09 0 0)
(5.82077e-09 0 0)
(2.91038e-09 0 0)
(-2.91038e-09 0 0)
(1.45519e-09 0 0)
(1.45519e-09 0 0)
(7.63749e-24 0 0)
(9.31386e-25 0 0)
(-5.82077e-09 0 0)
(-2.91038e-09 0 0)
(-7.27596e-09 0 0)
(-5.82077e-09 0 0)
(2.91038e-09 0 0)
(2.91038e-09 0 0)
(-2.91038e-09 0 0)
(-4.36557e-09 0 0)
(4.36557e-09 0 0)
(4.36557e-09 0 0)
(1.45519e-09 0 0)
(7.27596e-09 0 0)
(5.82077e-09 0 0)
(2.91038e-09 0 0)
(-5.82077e-09 0 0)
(-5.82077e-09 0 0)
(-1.45519e-09 0 0)
(9.92617e-24 0 0)
(2.91038e-09 0 0)
(8.73099e-25 0 0)
(-1.45519e-09 0 0)
(-4.36557e-09 0 0)
(-4.36557e-09 0 0)
(1.45519e-09 0 0)
(2.91038e-09 0 0)
(4.36557e-09 0 0)
(-2.46086e-23 0 0)
(2.91038e-09 0 0)
(5.82077e-09 0 0)
(2.91038e-09 0 0)
(1.45519e-09 0 0)
(1.45519e-09 0 0)
(8.50364e-24 0 0)
(-2.91038e-09 0 0)
(2.91038e-09 0 0)
(-2.91038e-09 0 0)
(-1.45519e-09 0 0)
(-2.58757e-23 0 0)
(-2.91038e-09 0 0)
(-4.36557e-09 0 0)
(-5.82077e-09 0 0)
(-2.91038e-09 0 0)
(4.36557e-09 0 0)
(1.01863e-08 0 0)
(1.45519e-09 0 0)
(-5.82077e-09 0 0)
(1.45519e-09 0 0)
(5.82077e-09 0 0)
(7.27596e-09 0 0)
(7.27596e-09 0 0)
(5.82077e-09 0 0)
(1.45519e-09 0 0)
(-7.27596e-09 0 0)
(-7.27596e-09 0 0)
(-5.82077e-09 0 0)
(-4.36557e-09 0 0)
(-4.36557e-09 0 0)
(-1.45519e-09 0 0)
(5.82077e-09 0 0)
(5.82077e-09 0 0)
(4.36557e-09 0 0)
(8.73115e-09 0 0)
(7.28791e-24 0 0)
(-7.27596e-09 0 0)
(-2.91038e-09 0 0)
(-2.91038e-09 0 0)
(1.45519e-09 0 0)
(-1.45519e-09 0 0)
(1.48893e-23 0 0)
(2.91038e-09 0 0)
(1.45519e-09 0 0)
(5.16988e-25 0 0)
(1.45519e-09 0 0)
(1.45519e-09 0 0)
(1.29247e-25 0 0)
(1.45519e-09 0 0)
(1.45519e-09 0 0)
(-1.45519e-09 0 0)
(-1.45519e-09 0 0)
(-6.20385e-25 0 0)
(-2.91038e-09 0 0)
(4.36557e-09 0 0)
(4.36557e-09 0 0)
(1.01863e-08 0 0)
(3.7835e-08 0 0)
(1.16415e-07 0 0)
(3.15777e-07 0 0)
(8.51287e-07 0 0)
(2.28756e-06 0 0)
(6.07688e-06 0 0)
(1.59431e-05 0 0)
(4.12707e-05 0 0)
(0.000105471 0 0)
(0.000266061 0 0)
(0.000662246 0 0)
(0.00162592 0 0)
(0.00393624 0 0)
(0.00939323 0 0)
(0.0220872 0 0)
(0.0511557 0 0)
(0.116653 0 0)
(0.261789 0 0)
(0.577916 0 0)
(1.25434 0 0)
(2.67525 0 0)
(5.60357 0 0)
(11.5197 0 0)
(23.2268 0 0)
(45.8973 0 0)
(88.8122 0 0)
(168.132 0 0)
(311.084 0 0)
(561.911 0 0)
(989.639 0 0)
(1697.07 0 0)
(2829.27 0 0)
(4577.97 0 0)
(7176.62 0 0)
(10879.5 0 0)
(15919.7 0 0)
(22446.9 0 0)
(30454.4 0 0)
(39718.8 0 0)
(49780.6 0 0)
(59986.5 0 0)
(69593.9 0 0)
(77927.8 0 0)
(84577.6 0 0)
(89478 0 0)
(92797.9 0 0)
(94796.8 0 0)
(95739.9 0 0)
(95859.8 0 0)
(95346.3 0 0)
(94348.4 0 0)
(92981 0 0)
(91331.7 0 0)
(89467.5 0 0)
(87439.3 0 0)
(85286.5 0 0)
(83039.5 0 0)
(80722.1 0 0)
(78353.1 0 0)
(75947.9 0 0)
(73518.9 0 0)
(71076.6 0 0)
(68629.9 0 0)
(66186.4 0 0)
(63752.9 0 0)
(61335.4 0 0)
(58939.4 0 0)
(56569.6 0 0)
(54230.6 0 0)
(51926.3 0 0)
(49660.4 0 0)
(47436.1 0 0)
(45256.2 0 0)
(43123.2 0 0)
(41039.5 0 0)
(39006.8 0 0)
(37026.8 0 0)
(35100.8 0 0)
(33229.8 0 0)
(31414.7 0 0)
(29656 0 0)
(27954.2 0 0)
(26309.5 0 0)
(24721.9 0 0)
(23191.4 0 0)
(21717.7 0 0)
(20300.5 0 0)
(18939.4 0 0)
(17633.9 0 0)
(16383.4 0 0)
(15187.2 0 0)
(14044.7 0 0)
(12955.1 0 0)
(11917.5 0 0)
(10931.2 0 0)
(9995.25 0 0)
(9108.82 0 0)
(8270.98 0 0)
(7480.8 0 0)
(6737.31 0 0)
(6039.53 0 0)
(5386.5 0 0)
(4777.23 0 0)
(4210.73 0 0)
(3686 0 0)
(3202.02 0 0)
(2757.73 0 0)
(2352.05 0 0)
(1983.92 0 0)
(1652.22 0 0)
(1355.82 0 0)
(1093.51 0 0)
(864.01 0 0)
(665.92 0 0)
(497.698 0 0)
(357.624 0 0)
(243.741 0 0)
(153.783 0 0)
(85.0916 0 0)
(34.5227 0 0)
(-1.61329 0 0)
(-27.5208 0 0)
(-47.7173 0 0)
(-66.5285 0 0)
(-87.1051 0 0)
(-109.799 0 0)
(-129.955 0 0)
(-135.714 0 0)
(-107.576 0 0)
(-22.0537 0 0)
(136.784 0 0)
(363.906 0 0)
(608.032 0 0)
(786.513 0 0)
(814.289 0 0)
(650.581 0 0)
(328.906 0 0)
(-57.511 0 0)
(-402.671 0 0)
(-636.129 0 0)
(-726.335 0 0)
(-681.378 0 0)
(-528.297 0 0)
(-284.946 0 0)
(40.9387 0 0)
(436.26 0 0)
(857.129 0 0)
(1219.28 0 0)
(1383.52 0 0)
(1263.19 0 0)
(858.26 0 0)
(277.558 0 0)
(-300.633 0 0)
(-708.414 0 0)
(-835.915 0 0)
(-652.579 0 0)
(-210.109 0 0)
(400.075 0 0)
(1055.88 0 0)
(1615.49 0 0)
(1928.36 0 0)
(1889.16 0 0)
(1497.79 0 0)
(867.67 0 0)
(233.737 0 0)
(3.65911 0 0)
(879.82 0 0)
(3964.67 0 0)
(10776.4 0 0)
(22944.1 0 0)
(41544.8 0 0)
(66340.2 0 0)
(95202.3 0 0)
(124154 0 0)
(148156 0 0)
(162404 0 0)
(163869 0 0)
(152406 0 0)
(130719 0 0)
(103115 0 0)
(73909.3 0 0)
(46511.3 0 0)
(23332.2 0 0)
(5945.53 0 0)
(-4970.31 0 0)
(-9817.81 0 0)
(-10024.9 0 0)
(-7580.88 0 0)
(-4368.1 0 0)
(-1653.54 0 0)
(44.8391 0 0)
(773.591 0 0)
(845.516 0 0)
(600.84 0 0)
(288.098 0 0)
(40.2525 0 0)
(-101.269 0 0)
(-150.298 0 0)
(-144.813 0 0)
(-121.914 0 0)
(-100.406 0 0)
(-86.3245 0 0)
(-88.9242 0 0)
(-100.761 0 0)
(-89.7686 0 0)
(-83.0698 0 0)
(-141.984 0 0)
(-141.626 0 0)
(9.49303 0 0)
(-93.7981 0 0)
(-403.659 0 0)
(220.355 0 0)
(850.953 0 0)
(-1081.7 0 0)
(-1097.03 0 0)
(5022.8 0 0)
(1714.09 0 0)
(-11881.3 0 0)
(9313.76 0 0)
(35948.6 0 0)
(-38758.5 0 0)
(-54193.8 0 0)
(189422 0 0)
(84147.1 0 0)
(-518471 0 0)
(495871 0 0)
(2.29425e+06 0 0)
(1.39733e+06 0 0)
(337187 0 0)
(57861.8 0 0)
(9779.49 0 0)
(1603.93 0 0)
(264.612 0 0)
(43.7437 0 0)
(7.23343 0 0)
(1.19613 0 0)
(0.197791 0 0)
(0.0327058 0 0)
(0.005408 0 0)
(0.000894212 0 0)
(0.000147856 0 0)
(2.44476e-05 0 0)
(4.04161e-06 0 0)
(6.67387e-07 0 0)
(1.10595e-07 0 0)
(1.81899e-08 0 0)
(3.09228e-09 0 0)
(7.27596e-10 0 0)
(5.45697e-10 0 0)
(5.45697e-10 0 0)
(3.63798e-10 0 0)
(-5.45697e-10 0 0)
(-7.27596e-10 0 0)
(-1.81899e-10 0 0)
(-3.63798e-10 0 0)
(1.55096e-25 0 0)
(5.45697e-10 0 0)
(1.81899e-10 0 0)
(1.81899e-10 0 0)
(1.81899e-10 0 0)
(2.26182e-25 0 0)
(1.81899e-10 0 0)
(1.81899e-10 0 0)
(1.81899e-10 0 0)
(-6.72084e-25 0 0)
(-1.93543e-24 0 0)
(-1.81899e-10 0 0)
(5.45697e-10 0 0)
(5.45697e-10 0 0)
(-1.81899e-10 0 0)
(-1.81899e-10 0 0)
(-7.27596e-10 0 0)
(-1.09139e-09 0 0)
(-7.27596e-10 0 0)
(-1.81899e-10 0 0)
(1.81899e-10 0 0)
(-3.63798e-10 0 0)
(-1.81899e-10 0 0)
(3.63798e-10 0 0)
(0 0 0)
(-3.63798e-10 0 0)
(-1.81899e-10 0 0)
(-1.81899e-10 0 0)
(-5.45697e-10 0 0)
(-7.27596e-10 0 0)
(-3.63798e-10 0 0)
(-2.79173e-24 0 0)
(3.63798e-10 0 0)
(-5.35082e-24 0 0)
(2.32645e-24 0 0)
(-2.63664e-24 0 0)
(-1.81899e-10 0 0)
(3.63798e-10 0 0)
(1.04044e-24 0 0)
(-1.81899e-10 0 0)
(1.81899e-10 0 0)
(-1.44757e-24 0 0)
(1.81899e-10 0 0)
(1.81899e-10 0 0)
(1.81899e-10 0 0)
(7.27596e-10 0 0)
(5.45697e-10 0 0)
(-1.81899e-10 0 0)
(-1.81899e-10 0 0)
(-2.32937e-24 0 0)
(3.63798e-10 0 0)
(-1.81899e-10 0 0)
(-3.63798e-10 0 0)
(-5.45697e-10 0 0)
(-3.63798e-10 0 0)
(-1.81899e-10 0 0)
(-3.63798e-10 0 0)
(-1.81899e-10 0 0)
(3.63798e-10 0 0)
(-1.81899e-10 0 0)
(-5.45697e-10 0 0)
(-3.63798e-10 0 0)
(-1.81899e-10 0 0)
(-1.81899e-10 0 0)
(1.81899e-10 0 0)
(-1.81899e-10 0 0)
(-1.00554e-23 0 0)
(7.27596e-10 0 0)
(1.81899e-10 0 0)
(1.00813e-24 0 0)
(-2.0938e-24 0 0)
(5.45697e-10 0 0)
(-3.63798e-10 0 0)
(-5.45697e-10 0 0)
(-5.45697e-10 0 0)
(-9.09495e-10 0 0)
(-1.81899e-10 0 0)
(-3.63798e-10 0 0)
(-5.45697e-10 0 0)
(-1.81899e-10 0 0)
(-3.63798e-10 0 0)
(1.81899e-10 0 0)
(7.27596e-10 0 0)
(9.09495e-10 0 0)
(1.81899e-10 0 0)
(-5.45697e-10 0 0)
(1.81899e-10 0 0)
(-1.81899e-10 0 0)
(-9.09495e-10 0 0)
(-1.09139e-09 0 0)
(-1.81899e-10 0 0)
(3.63798e-10 0 0)
(-5.45697e-10 0 0)
(-5.45697e-10 0 0)
(-7.27596e-10 0 0)
(-1.45519e-09 0 0)
(5.45697e-10 0 0)
(7.27596e-10 0 0)
(1.0805e-23 0 0)
(-1.81899e-10 0 0)
(-3.63798e-10 0 0)
(-1.81899e-10 0 0)
(-1.81899e-10 0 0)
(-1.81899e-10 0 0)
(1.81899e-10 0 0)
(-1.81899e-10 0 0)
(-1.81899e-10 0 0)
(1.81899e-10 0 0)
(2.99717e-25 0 0)
(-1.09139e-09 0 0)
(-1.27329e-09 0 0)
(-7.27596e-10 0 0)
(-5.72564e-24 0 0)
(3.63798e-10 0 0)
(1.81899e-10 0 0)
(3.63798e-10 0 0)
(1.45519e-09 0 0)
(1.45519e-09 0 0)
(3.63798e-10 0 0)
(5.45697e-10 0 0)
(1.81899e-10 0 0)
(-3.63798e-10 0 0)
(-7.27596e-10 0 0)
(1.81899e-10 0 0)
(1.88701e-24 0 0)
(1.81899e-10 0 0)
(3.63798e-10 0 0)
(1.81899e-10 0 0)
(3.63798e-10 0 0)
(1.81899e-10 0 0)
(-1.81899e-10 0 0)
(-3.63798e-10 0 0)
(-5.45697e-10 0 0)
(-1.09139e-09 0 0)
(-5.45697e-10 0 0)
(1.81899e-10 0 0)
(1.81899e-10 0 0)
(5.45697e-10 0 0)
(5.45697e-10 0 0)
(1.81899e-10 0 0)
(1.81899e-10 0 0)
(-1.81899e-10 0 0)
(-7.27596e-10 0 0)
(-1.09139e-09 0 0)
(-2.45569e-25 0 0)
(5.45697e-10 0 0)
(-1.81899e-10 0 0)
(-3.63798e-10 0 0)
(1.81899e-10 0 0)
(5.45697e-10 0 0)
(5.45697e-10 0 0)
(3.63798e-10 0 0)
(9.09495e-10 0 0)
(5.01478e-24 0 0)
(-1.81899e-10 0 0)
(-4.1774e-24 0 0)
(-1.81899e-10 0 0)
(1.34417e-24 0 0)
(5.45697e-10 0 0)
(-1.81899e-10 0 0)
(-5.45697e-10 0 0)
(3.63798e-10 0 0)
(-4.89846e-24 0 0)
(-7.27596e-10 0 0)
(5.45697e-10 0 0)
(9.09495e-10 0 0)
(3.63798e-10 0 0)
(5.45697e-10 0 0)
(3.63798e-10 0 0)
(-5.45697e-10 0 0)
(-7.27596e-10 0 0)
(-7.27596e-10 0 0)
(-1.81899e-10 0 0)
(1.81899e-10 0 0)
(5.45697e-10 0 0)
(-5.45697e-10 0 0)
(-3.63798e-10 0 0)
(-3.63798e-10 0 0)
(-7.27596e-10 0 0)
(-5.45697e-10 0 0)
(-9.09495e-10 0 0)
(-1.81899e-10 0 0)
(3.63798e-10 0 0)
(1.29247e-25 0 0)
(3.63798e-10 0 0)
(1.45519e-09 0 0)
(1.09139e-09 0 0)
(5.45697e-10 0 0)
(7.27596e-10 0 0)
(1.81899e-10 0 0)
(3.20825e-24 0 0)
(-3.63798e-10 0 0)
(-5.45697e-10 0 0)
(-1.81899e-10 0 0)
(3.63798e-10 0 0)
(-5.45697e-10 0 0)
(-7.27596e-10 0 0)
(3.63798e-10 0 0)
(5.45697e-10 0 0)
(-3.63798e-10 0 0)
(-1.63709e-09 0 0)
(-9.09495e-10 0 0)
(-5.42837e-25 0 0)
(1.81899e-10 0 0)
(-1.16322e-25 0 0)
(3.73933e-25 0 0)
(-3.87741e-26 0 0)
(-7.27596e-10 0 0)
(-3.63798e-10 0 0)
(-7.27596e-10 0 0)
(-7.27596e-10 0 0)
(-1.81899e-10 0 0)
(1.81899e-10 0 0)
(9.09495e-10 0 0)
(1.45519e-09 0 0)
(7.27596e-10 0 0)
(3.63798e-10 0 0)
(5.45697e-10 0 0)
(1.81899e-10 0 0)
(-2.40672e-25 0 0)
(1.81899e-10 0 0)
(3.63798e-10 0 0)
(3.63798e-10 0 0)
(-7.27596e-10 0 0)
(-1.09139e-09 0 0)
(-7.27596e-10 0 0)
(-3.63798e-10 0 0)
(-1.81899e-10 0 0)
(5.45697e-10 0 0)
(1.09139e-09 0 0)
(3.63798e-10 0 0)
(3.63798e-10 0 0)
(1.81899e-10 0 0)
(-3.63798e-10 0 0)
(-3.63798e-10 0 0)
(3.87741e-26 0 0)
(-3.63798e-10 0 0)
(-1.81899e-10 0 0)
(3.63798e-10 0 0)
(1.81899e-10 0 0)
(1.81899e-10 0 0)
(-9.09495e-10 0 0)
(-7.27596e-10 0 0)
(3.63798e-10 0 0)
(3.63798e-10 0 0)
(2.70752e-24 0 0)
(1.81899e-10 0 0)
(-1.81899e-10 0 0)
(1.81899e-10 0 0)
(3.63798e-10 0 0)
(7.27596e-10 0 0)
(1.27329e-09 0 0)
(-2.68834e-24 0 0)
(-9.09495e-10 0 0)
(-3.63798e-10 0 0)
(-1.81899e-10 0 0)
(1.81899e-10 0 0)
(1.81899e-10 0 0)
(7.75482e-26 0 0)
(1.71151e-25 0 0)
(-3.63798e-10 0 0)
(-3.63798e-10 0 0)
(-5.45697e-10 0 0)
(-5.45697e-10 0 0)
(-2.59726e-24 0 0)
(-1.81899e-10 0 0)
(-7.27596e-10 0 0)
(-7.27596e-10 0 0)
(-3.63798e-10 0 0)
(5.45697e-10 0 0)
(3.63798e-10 0 0)
(1.81899e-10 0 0)
(-5.70908e-24 0 0)
(1.81899e-10 0 0)
(-1.81899e-10 0 0)
(-3.63798e-10 0 0)
(1.81899e-10 0 0)
(-3.63798e-10 0 0)
(-1.27329e-09 0 0)
(-5.68687e-25 0 0)
(7.27596e-10 0 0)
(1.81899e-10 0 0)
(-1.81899e-10 0 0)
(-1.81899e-10 0 0)
(1.81899e-10 0 0)
(1.81899e-10 0 0)
(4.96717e-25 0 0)
(-3.63798e-10 0 0)
(-5.45697e-10 0 0)
(3.63798e-10 0 0)
(-3.63798e-10 0 0)
(-5.45697e-10 0 0)
(1.81899e-10 0 0)
(-1.81899e-10 0 0)
(-1.09139e-09 0 0)
(-5.45697e-10 0 0)
(-3.63798e-10 0 0)
(1.202e-24 0 0)
(1.81899e-10 0 0)
(9.09495e-10 0 0)
(1.45519e-09 0 0)
(9.09495e-10 0 0)
(7.27596e-10 0 0)
(1.81899e-10 0 0)
(-3.63798e-10 0 0)
(-5.45697e-10 0 0)
(-3.63798e-10 0 0)
(-1.81899e-10 0 0)
(-1.12112e-24 0 0)
(-3.63798e-10 0 0)
(-3.63798e-10 0 0)
(-7.27596e-10 0 0)
(-7.27596e-10 0 0)
(-1.81899e-10 0 0)
(1.81899e-10 0 0)
(3.63798e-10 0 0)
(7.27596e-10 0 0)
(5.45697e-10 0 0)
(5.45697e-10 0 0)
(-3.63798e-10 0 0)
(-7.27596e-10 0 0)
(-5.45697e-10 0 0)
(-1.81899e-10 0 0)
(3.63798e-10 0 0)
(3.63798e-10 0 0)
(1.81899e-10 0 0)
(-5.45697e-10 0 0)
(-3.63798e-10 0 0)
(-4.55555e-24 0 0)
(5.45697e-10 0 0)
(5.45697e-10 0 0)
(5.45697e-10 0 0)
(1.81899e-10 0 0)
(-1.81899e-10 0 0)
(-1.81899e-10 0 0)
(1.81899e-10 0 0)
(3.10804e-24 0 0)
(-1.81899e-10 0 0)
(-5.45697e-10 0 0)
(-5.45697e-10 0 0)
(-3.10193e-25 0 0)
(9.09495e-10 0 0)
(1.81899e-10 0 0)
(-3.63798e-10 0 0)
(-5.45697e-10 0 0)
(3.63798e-10 0 0)
(5.45697e-10 0 0)
(-3.63798e-10 0 0)
(-1.81899e-10 0 0)
(3.63798e-10 0 0)
(-1.81899e-10 0 0)
(-9.09495e-10 0 0)
(-1.09139e-09 0 0)
(1.81899e-10 0 0)
(3.63798e-10 0 0)
(1.03398e-25 0 0)
(5.45697e-10 0 0)
(5.45697e-10 0 0)
(5.45697e-10 0 0)
(5.45697e-10 0 0)
(1.10642e-25 0 0)
(-2.95823e-31 0 0)
(1.47911e-31 0 0)
)
;

boundaryField
{
    sides
    {
        type            calculated;
        value           nonuniform List<vector> 2((1.47911e-31 0 0) (-1.45519e-09 0 0));
    }
    empty
    {
        type            empty;
    }
}


// ************************************************************************* //
