/*--------------------------------*- C++ -*----------------------------------*\
  =========                 |
  \\      /  F ield         | OpenFOAM: The Open Source CFD Toolbox
   \\    /   O peration     | Website:  https://openfoam.org
    \\  /    A nd           | Version:  13
     \\/     M anipulation  |
\*---------------------------------------------------------------------------*/
FoamFile
{
    format      ascii;
    class       surfaceScalarField;
    location    "0.002";
    object      phi;
}
// * * * * * * * * * * * * * * * * * * * * * * * * * * * * * * * * * * * * * //

dimensions      [1 0 -1 0 0 0 0];

internalField   nonuniform List<scalar> 
999
(
-3.82295e-12
-3.92094e-12
-4.13604e-12
-3.41651e-12
-2.66224e-12
-3.55178e-12
-3.59565e-12
-4.37649e-12
-3.82649e-12
-4.09876e-12
-3.47165e-12
-3.26351e-12
-4.16562e-12
-4.15296e-12
-4.70945e-12
-3.64725e-12
-3.67724e-12
-3.2314e-12
-3.17972e-12
-3.789e-12
-4.10686e-12
-5.00553e-12
-4.0336e-12
-2.62736e-12
-1.41233e-12
-5.38421e-16
-1.80489e-13
-4.4646e-13
-1.14004e-12
2.37582e-13
6.11264e-13
4.1144e-13
5.33146e-13
1.54809e-13
-6.28966e-13
-7.1336e-13
-1.06282e-12
-6.96043e-13
-1.58801e-12
-1.80029e-12
-1.37786e-12
-1.15037e-12
-1.37582e-12
-5.85044e-13
-1.52085e-13
-8.6666e-13
-8.99794e-13
-3.67737e-13
-5.56305e-13
-9.21288e-13
-8.73144e-13
-5.74638e-13
-5.63983e-13
-8.33012e-13
-1.37888e-13
6.26407e-13
7.00053e-13
4.08545e-13
-1.06446e-14
-3.44536e-13
-7.93699e-13
-4.93064e-13
-3.05517e-13
-8.69475e-13
-4.89395e-13
-7.99877e-13
-9.55403e-13
-1.41091e-12
-1.32051e-12
-1.51918e-13
3.35959e-13
4.33442e-13
5.42566e-13
4.44189e-13
8.28618e-13
1.46497e-13
-5.60269e-13
-2.23619e-12
-1.96698e-12
-1.62955e-12
-2.54484e-12
-2.2361e-12
-1.14359e-12
-1.26456e-12
-7.328e-13
-3.81506e-13
-5.96218e-13
-9.97877e-13
-1.81649e-12
-6.84656e-13
4.82533e-13
1.26798e-13
-2.10754e-15
6.78687e-13
8.9135e-13
4.45424e-13
3.36392e-13
-1.62537e-13
-1.12077e-12
-4.02446e-13
9.68941e-13
1.22819e-12
2.82784e-12
2.77646e-12
2.03329e-12
2.4742e-12
1.63503e-12
1.75997e-12
1.23454e-12
3.0908e-13
-3.72833e-13
-1.53625e-13
-1.41171e-13
-3.123e-13
-2.14284e-13
-4.94604e-13
-2.81514e-13
-2.31149e-13
1.41934e-13
-1.01258e-13
-1.70195e-13
3.95268e-14
7.65638e-14
1.41934e-13
3.74017e-13
-1.71031e-14
-3.68464e-13
-5.34151e-13
8.10432e-13
5.19071e-13
3.16666e-13
4.21227e-13
-5.65077e-14
-4.96733e-13
-9.20836e-13
-3.16716e-13
6.88863e-14
2.17415e-13
-1.83817e-13
-3.12448e-13
-4.63985e-13
-1.91536e-13
-4.89523e-13
-1.55246e-13
-2.80187e-13
1.58591e-14
5.93805e-13
4.52807e-13
1.61806e-13
-3.37483e-13
-8.41563e-13
-3.91018e-13
-6.57772e-13
-4.15601e-13
-7.26109e-13
-1.23959e-12
-1.07938e-12
-2.47078e-13
-7.37527e-14
1.01579e-13
1.05252e-12
1.22379e-12
1.0493e-12
7.30241e-13
1.1442e-12
6.38555e-13
-3.40145e-13
1.79324e-14
1.38311e-13
8.8064e-15
-8.75081e-14
-9.3329e-13
-3.89738e-13
-6.44876e-13
-1.10788e-12
-2.0243e-13
-7.46933e-14
1.68737e-13
-6.79762e-14
3.28097e-14
3.42834e-14
2.32125e-13
3.14298e-13
5.80477e-13
1.08156e-12
-8.0003e-14
-2.94476e-13
4.86527e-14
-5.27967e-13
-2.46545e-13
-1.04372e-13
4.092e-13
3.57158e-13
1.97883e-13
-3.63107e-13
-1.07889e-13
4.20714e-13
3.28097e-14
-7.34274e-13
-2.78805e-13
2.07542e-13
-2.41235e-13
-4.39463e-13
-1.01762e-12
-5.43937e-13
-4.19418e-13
-1.43391e-13
-3.37844e-13
-7.29778e-13
-7.06429e-13
-1.33414e-12
-1.06781e-12
-7.5871e-13
-1.32936e-12
-4.40784e-13
-8.44572e-13
-1.15964e-12
-1.29821e-12
-2.37205e-13
1.04816e-13
9.56898e-14
-2.7123e-14
-2.82621e-13
-2.82408e-13
-8.19847e-14
-3.86166e-14
2.17415e-13
-1.361e-13
-5.99887e-13
-1.57637e-12
-1.23591e-12
2.7624e-13
3.22464e-13
1.96775e-13
-5.99579e-14
-2.89166e-13
-3.32173e-13
-4.53299e-13
-1.7997e-14
-9.12579e-14
-3.65541e-13
-9.08493e-13
-5.75385e-13
-7.56001e-13
-2.78952e-13
-2.28587e-13
-4.55153e-13
-9.86678e-13
-8.62971e-13
-1.52204e-12
-1.31883e-12
-8.8794e-13
6.63051e-14
9.07554e-13
6.42758e-13
-2.03471e-13
-6.09907e-13
-1.58345e-12
-8.07388e-13
-9.07746e-13
-1.35328e-12
-2.49235e-12
-2.52857e-12
-2.26674e-12
-1.41565e-12
-1.27599e-12
2.95946e-13
1.74869e-12
1.51859e-12
1.52315e-12
1.84677e-12
1.50622e-12
6.44298e-13
-7.29665e-13
-6.73995e-13
-8.67701e-13
-1.23437e-12
-2.46363e-12
-2.46207e-12
-1.28245e-12
-3.20827e-13
4.85936e-13
1.74997e-12
1.19757e-12
8.80584e-13
8.73292e-13
1.8859e-13
-1.14117e-12
-2.89547e-13
4.86663e-13
1.22379e-12
2.1774e-12
1.68583e-12
2.8568e-12
3.67337e-12
3.37766e-12
3.6987e-12
3.01583e-12
2.88138e-12
3.15101e-12
2.75915e-12
2.15209e-12
2.82784e-12
2.03858e-12
5.34993e-13
-2.80807e-13
2.42692e-13
6.83997e-13
1.15984e-12
9.35613e-13
1.69549e-12
1.98823e-12
2.48347e-12
2.98126e-12
1.89136e-12
1.26623e-12
6.20756e-13
-3.97383e-13
-7.9484e-13
-8.74432e-13
4.40239e-13
7.8601e-13
7.00381e-13
1.31947e-12
1.06695e-12
1.3969e-12
1.64066e-12
1.49072e-12
1.17241e-12
1.33459e-12
1.09494e-12
1.37265e-12
2.18013e-12
1.45842e-12
2.30258e-12
2.27032e-12
2.54046e-12
2.32987e-12
1.12509e-12
4.83754e-13
8.66496e-13
1.04216e-12
3.30322e-13
-8.90958e-14
3.40698e-14
-4.94366e-13
-2.23957e-13
2.94593e-13
1.14526e-12
8.28604e-13
3.99914e-13
4.49646e-13
-2.72535e-13
1.34462e-13
-1.36247e-13
1.2573e-13
7.74503e-13
2.08721e-12
2.27611e-12
2.61137e-12
8.98029e-13
1.0345e-12
8.50312e-13
2.06644e-12
2.04601e-12
1.16331e-12
5.58803e-13
7.0475e-13
2.67442e-13
-9.6581e-14
-7.32329e-14
1.24789e-13
2.81664e-13
5.16329e-13
1.319e-13
3.6822e-13
8.59371e-13
-3.42142e-14
-1.40469e-14
2.61824e-13
7.56451e-13
2.5082e-12
9.17347e-12
2.70525e-11
7.48328e-11
2.04884e-10
5.53788e-10
1.47547e-09
3.87779e-09
1.00631e-08
2.57875e-08
6.52382e-08
1.62888e-07
4.01281e-07
9.75115e-07
2.33653e-06
5.5189e-06
1.28453e-05
2.94501e-05
6.64826e-05
0.000147715
0.000322885
0.000694011
0.00146609
0.00304225
0.00619746
0.0123863
0.0242705
0.0465911
0.0875514
0.160908
0.288957
0.50651
0.865703
1.44107
2.33366
3.67236
5.61004
8.31273
11.941
16.6262
22.4454
29.4032
37.4246
46.3647
56.0439
66.2863
76.9379
87.872
98.9877
110.206
121.466
132.719
143.929
155.065
166.105
177.03
187.825
198.478
208.977
219.315
229.484
239.478
249.291
258.918
268.356
277.601
286.649
295.499
304.147
312.592
320.833
328.869
336.699
344.321
351.738
358.948
365.952
372.75
379.344
385.735
391.924
397.913
403.703
409.295
414.693
419.898
424.911
429.736
434.374
438.828
443.101
447.193
451.109
454.85
458.42
461.82
465.053
468.122
471.029
473.777
476.369
478.807
481.094
483.232
485.225
487.074
488.784
490.355
491.791
493.096
494.271
495.319
496.245
497.05
497.738
498.314
498.78
499.141
499.402
499.57
499.649
499.65
499.581
499.455
499.287
499.094
498.899
498.727
498.604
498.558
498.608
498.764
499.018
499.337
499.668
499.944
500.095
500.074
499.87
499.505
499.033
498.523
498.052
497.695
497.511
497.538
497.777
498.189
498.695
499.194
499.572
499.737
499.648
499.325
498.844
498.315
497.852
497.551
497.463
497.579
497.834
498.119
498.318
498.339
498.153
497.801
497.358
496.853
496.169
494.933
492.45
487.75
479.791
467.82
451.727
432.199
410.575
388.5
367.587
349.166
334.143
322.943
315.51
311.38
309.808
309.932
310.935
312.172
313.233
313.938
314.283
314.363
314.3
314.193
314.104
314.053
314.035
314.039
314.05
314.063
314.074
314.082
314.089
314.094
314.1
314.105
314.109
314.115
314.125
314.13
314.127
314.149
314.17
314.119
314.111
314.264
314.16
313.736
314.216
314.876
312.732
311.891
317.967
314.795
297.315
315.806
351.643
244.004
85.8341
18.5217
3.0686
0.497741
0.0821968
0.013598
0.00224908
0.000371934
6.15039e-05
1.01702e-05
1.68169e-06
2.7807e-07
4.59784e-08
7.60215e-09
1.25663e-09
2.07456e-10
3.40896e-11
5.4686e-12
7.99994e-13
-6.45855e-14
-1.6116e-13
-1.35124e-13
-8.08474e-14
-1.85639e-14
-1.1188e-13
-7.26412e-14
-1.80744e-14
6.27214e-14
1.7534e-13
1.93042e-13
8.89456e-14
8.59622e-14
6.39173e-14
2.70367e-14
1.93773e-14
-4.88813e-14
-7.75032e-14
-1.27442e-13
-2.1345e-13
-1.84875e-13
-1.91308e-13
-2.22323e-13
-2.99387e-13
-2.38372e-13
-1.14496e-13
1.92492e-14
1.03161e-13
1.45713e-14
4.00516e-14
2.28484e-14
7.3767e-14
7.61891e-15
-3.42365e-14
-2.4232e-14
6.91447e-14
2.9321e-14
-8.08208e-14
-8.27096e-14
-1.39241e-13
-1.41273e-13
-2.09378e-13
-2.37404e-13
-2.10759e-13
-3.16383e-13
-2.43794e-13
-2.31256e-13
-1.41237e-13
-4.38819e-15
5.85885e-14
7.25138e-14
4.34405e-14
-1.35755e-13
-1.41625e-13
-1.44836e-13
-1.00128e-13
1.91784e-14
-9.29559e-14
-1.42581e-13
-2.15149e-13
-3.26386e-13
-5.10379e-13
-5.73037e-13
-5.64268e-13
-7.17437e-13
-7.03538e-13
-8.16434e-13
-6.53911e-13
-6.20647e-13
-6.43186e-13
-5.47929e-13
-5.80805e-13
-5.85677e-13
-4.73705e-13
-6.52139e-13
-6.72197e-13
-6.91569e-13
-7.13802e-13
-7.9815e-13
-7.27193e-13
-6.71931e-13
-7.90651e-13
-6.04314e-13
-7.17877e-13
-5.65606e-13
-6.02312e-13
-7.11059e-13
-7.94159e-13
-6.1234e-13
-6.33941e-13
-5.56232e-13
-5.69186e-13
-6.25555e-13
-8.61222e-13
-7.95594e-13
-8.40149e-13
-9.36968e-13
-9.46089e-13
-9.38505e-13
-8.64557e-13
-9.23399e-13
-1.06318e-12
-8.07063e-13
-7.1101e-13
-6.01877e-13
-4.49677e-13
-4.35825e-13
-2.39782e-13
-1.06002e-13
-7.12935e-14
4.09719e-15
4.8631e-14
1.87511e-14
-3.83973e-14
-1.29387e-13
-1.46547e-13
-1.37277e-13
-1.56741e-13
-3.07678e-13
-3.84279e-13
-4.74895e-13
-5.67834e-13
-5.89288e-13
-5.89974e-13
-3.63924e-13
-2.61086e-13
-2.6672e-13
-4.30553e-13
-3.87336e-13
-4.18354e-13
-4.65102e-13
-4.53146e-13
-1.50547e-13
5.06593e-14
2.74835e-13
1.21235e-13
2.77064e-13
3.58921e-13
3.76282e-13
2.5549e-13
2.47467e-13
1.60182e-13
6.11536e-14
2.23941e-13
2.24808e-13
2.60996e-13
4.52497e-13
4.99869e-13
4.28204e-13
3.24711e-13
2.20467e-13
5.39864e-14
-6.88331e-15
7.22503e-14
1.017e-13
6.32356e-14
1.56501e-13
2.58462e-13
2.55189e-13
1.12012e-13
2.57058e-13
4.16465e-13
3.02632e-13
3.61557e-13
4.12863e-13
3.63409e-13
3.1356e-13
3.39457e-13
1.51487e-13
8.2939e-14
1.28807e-13
2.06938e-13
2.85138e-13
5.75331e-13
6.38984e-13
4.99656e-13
5.23445e-13
3.32666e-13
4.31309e-13
3.951e-13
3.84614e-13
2.0709e-13
2.36255e-13
1.80209e-13
2.08421e-14
3.24169e-14
-5.76933e-14
1.73914e-14
1.20079e-13
4.61989e-14
1.14103e-13
7.71054e-14
7.35527e-14
2.95607e-13
3.41712e-13
1.80418e-13
3.21196e-13
4.22804e-13
4.24102e-13
3.84841e-13
3.67838e-13
2.80851e-13
2.59042e-13
4.16536e-14
-7.53295e-14
3.86267e-15
1.16934e-13
8.46273e-14
-2.03815e-14
-1.37214e-13
-8.34672e-14
-8.19954e-14
-7.72343e-14
-1.00362e-13
-1.96904e-14
-2.64638e-14
1.18586e-14
6.75769e-14
4.7639e-14
9.68847e-14
6.99096e-15
2.2472e-14
1.34906e-13
1.15569e-13
3.83542e-14
1.05212e-13
1.36146e-13
1.1755e-13
1.34467e-13
6.96233e-14
1.40778e-14
-1.23575e-13
-2.07281e-13
-6.96987e-14
4.95386e-14
4.00718e-14
3.28214e-14
-5.10674e-14
-1.21759e-13
-3.02274e-13
-1.19752e-13
-2.38016e-14
2.01555e-14
8.05302e-14
1.07848e-13
9.65572e-14
4.32388e-14
-7.61091e-14
-1.58952e-13
-2.82964e-13
-3.45319e-13
-3.06836e-13
-3.29283e-13
-4.67339e-13
-4.69948e-13
-3.94751e-13
-5.07411e-13
-4.77656e-13
-3.83473e-13
-2.28172e-13
-2.53206e-13
-3.96655e-13
-4.87743e-13
-3.52859e-13
-3.68894e-13
-3.25908e-13
-3.43255e-13
-3.05008e-13
-2.85356e-13
-3.08534e-13
-2.57595e-13
-2.98031e-13
-1.96605e-13
-3.54812e-13
-4.62643e-13
-6.47136e-13
-6.26113e-13
-6.79749e-13
-6.44443e-13
-7.12291e-13
-7.29048e-13
-6.41798e-13
-6.88941e-13
-6.45276e-13
-5.84441e-13
-4.97165e-13
-4.6837e-13
-4.35904e-13
-2.28132e-13
-2.30067e-13
-3.03231e-13
-2.77968e-13
-2.24212e-13
-1.4789e-13
-1.07068e-13
-1.34489e-14
-2.27072e-14
-8.86142e-14
-6.34308e-14
-2.24526e-13
-1.69813e-13
-4.25524e-14
-1.64666e-13
-2.05898e-13
-2.33612e-13
-2.82047e-13
-1.34401e-13
-1.72994e-13
-1.06793e-13
-2.44009e-13
-1.71169e-13
-2.67703e-13
-2.60576e-13
-3.34275e-13
-2.27174e-13
-1.90301e-13
-1.34707e-13
-1.26791e-13
-2.09531e-13
-2.66715e-13
-3.90547e-13
-4.40308e-13
-3.59304e-13
-3.50413e-13
-2.38002e-13
-1.44063e-13
-5.78176e-14
-1.38167e-14
5.19758e-14
2.32011e-13
2.93051e-13
3.6006e-13
2.65456e-13
2.56443e-13
1.63434e-13
1.07033e-13
1.94873e-13
2.29221e-13
2.86308e-13
2.35663e-13
1.7426e-13
2.04494e-13
2.72952e-13
2.1334e-13
2.69719e-13
2.60823e-13
2.03639e-13
9.46344e-14
1.79454e-14
3.00697e-14
1.15162e-13
1.37657e-13
7.51298e-14
7.00849e-14
1.61985e-13
1.04482e-13
2.92148e-14
1.12025e-14
4.44439e-15
7.11446e-15
-3.67408e-14
-6.41519e-14
9.29954e-14
-7.56701e-14
-2.09614e-14
-6.26373e-15
-1.35419e-14
6.10873e-14
3.17087e-14
2.26597e-16
1.26472e-14
)
;

boundaryField
{
    sides
    {
        type            calculated;
        value           nonuniform List<scalar> 2(-3.63798e-14 4.01633e-12);
    }
    empty
    {
        type            empty;
    }
}


// ************************************************************************* //
