/*--------------------------------*- C++ -*----------------------------------*\
  =========                 |
  \\      /  F ield         | OpenFOAM: The Open Source CFD Toolbox
   \\    /   O peration     | Website:  https://openfoam.org
    \\  /    A nd           | Version:  13
     \\/     M anipulation  |
\*---------------------------------------------------------------------------*/
FoamFile
{
    format      ascii;
    class       surfaceScalarField;
    location    "0.002";
    object      phi_0;
}
// * * * * * * * * * * * * * * * * * * * * * * * * * * * * * * * * * * * * * //

dimensions      [1 0 -1 0 0 0 0];

internalField   nonuniform List<scalar> 
999
(
-3.77958e-12
-3.87757e-12
-4.0881e-12
-3.13664e-12
-2.97332e-12
-3.29157e-12
-3.44022e-12
-4.49018e-12
-4.10017e-12
-4.00746e-12
-3.59536e-12
-3.12287e-12
-3.90998e-12
-4.27415e-12
-4.84847e-12
-3.80725e-12
-3.75941e-12
-3.06249e-12
-3.13635e-12
-3.71139e-12
-4.14729e-12
-4.87542e-12
-4.04959e-12
-2.25619e-12
-1.05626e-12
1.69992e-13
-4.60354e-14
-3.64286e-13
-1.05766e-12
9.56234e-14
4.8116e-13
3.29267e-13
8.76935e-13
1.23296e-13
-5.55706e-13
-6.22061e-13
-7.89136e-13
-9.9962e-13
-1.55812e-12
-1.79573e-12
-1.35526e-12
-1.13689e-12
-1.10192e-12
-4.09951e-13
-1.18056e-13
-1.29284e-12
-9.77405e-13
-6.1447e-13
-5.95324e-13
-9.78132e-13
-6.08586e-13
-4.44534e-13
-4.98013e-13
-7.14549e-13
1.16437e-13
6.53357e-13
4.59204e-13
4.36603e-13
-3.3823e-13
-5.01591e-13
-6.24789e-13
-5.63383e-13
-3.00954e-13
-6.34596e-13
-1.90595e-13
-9.31603e-13
-9.43762e-13
-1.87133e-12
-1.44443e-12
-1.8181e-13
9.23816e-14
5.78643e-13
4.46917e-13
6.58087e-13
8.28618e-13
1.01294e-13
-5.48628e-13
-1.97304e-12
-1.96698e-12
-1.4652e-12
-2.65396e-12
-2.2135e-12
-1.18239e-12
-1.12533e-12
-6.75957e-13
-4.24874e-13
-7.35235e-13
-9.41034e-13
-1.6953e-12
-3.62827e-13
9.50755e-13
1.83641e-13
-1.18736e-13
2.60016e-13
6.38647e-13
2.36089e-13
3.82488e-13
-1.1644e-13
-9.30881e-13
-9.7248e-14
1.01231e-12
1.17591e-12
2.57787e-12
2.4354e-12
2.01252e-12
2.38128e-12
1.67839e-12
1.75997e-12
1.2165e-12
4.61572e-13
-4.29676e-13
-1.71663e-13
-2.02577e-13
-2.25564e-13
-4.74493e-13
-7.59162e-13
-2.81514e-13
-8.7569e-14
8.50902e-14
-1.44626e-13
-2.56931e-13
-6.06848e-14
6.76514e-14
2.98989e-13
3.17174e-13
-3.05784e-14
-4.59549e-13
-2.51555e-13
8.76188e-13
4.62227e-13
2.85152e-13
4.06131e-13
-4.46533e-14
-4.9652e-13
-8.20411e-13
-2.46397e-13
-4.48005e-14
1.74047e-13
7.47994e-15
-2.09294e-13
-4.63985e-13
-4.60657e-13
-3.02575e-13
-1.07314e-13
-2.91828e-13
1.43021e-13
4.93594e-13
4.48244e-13
1.45389e-13
-2.23796e-13
-6.54616e-13
-3.207e-13
-7.744e-13
-4.45494e-13
-6.82954e-13
-1.30079e-12
-8.49069e-13
-2.47078e-13
9.22145e-14
1.01579e-13
7.68299e-13
1.03522e-12
8.78769e-13
8.61966e-13
1.1442e-12
8.61366e-13
-1.39722e-13
3.59707e-14
3.80996e-14
-7.79298e-14
-1.92283e-13
-1.00817e-12
-5.76686e-13
-7.40738e-13
-1.03461e-12
-1.85799e-13
2.55183e-14
1.94067e-13
-2.8004e-13
1.59972e-13
1.39058e-13
2.36688e-13
2.32125e-13
5.37109e-13
9.1103e-13
3.64123e-14
-4.51531e-13
1.876e-14
-2.63409e-13
-2.73495e-13
-6.82958e-14
4.49626e-13
3.52595e-13
1.31914e-13
-2.34837e-13
-5.81996e-13
2.47241e-13
1.85302e-13
-4.00805e-13
-2.6533e-13
3.40698e-14
-3.71339e-13
-1.22411e-13
-8.44145e-13
-6.69479e-13
-5.22357e-13
-2.07526e-13
-3.33281e-13
-8.59882e-13
-7.7969e-13
-1.08305e-12
-1.28465e-12
-6.88391e-13
-1.05568e-12
-3.1068e-13
-7.80223e-13
-1.12975e-12
-1.19343e-12
-2.78952e-13
4.50302e-14
-1.21151e-13
-1.82107e-14
-4.12726e-13
-1.52303e-13
4.75146e-15
-1.25353e-13
9.18736e-14
-2.18486e-13
-7.13574e-13
-1.51202e-12
-1.05787e-12
3.1688e-13
6.0506e-13
2.0863e-13
-3.63534e-13
-4.05795e-13
-3.75541e-13
-2.49934e-13
9.56898e-14
-9.58209e-14
-3.44775e-13
-7.61972e-13
-4.66261e-13
-7.56001e-13
-2.78952e-13
-1.149e-13
-4.62658e-13
-1.19461e-12
-1.09329e-12
-1.49671e-12
-1.14535e-12
-1.08218e-12
4.55383e-14
1.12145e-12
7.59173e-13
-2.05092e-13
-1.00022e-12
-1.56085e-12
-8.97066e-13
-7.29925e-13
-1.24143e-12
-2.43256e-12
-2.47173e-12
-2.22337e-12
-1.55032e-12
-9.08066e-13
5.27882e-13
1.77858e-12
1.68294e-12
1.60533e-12
1.75385e-12
1.32657e-12
7.3082e-13
-3.87283e-13
-7.60731e-13
-1.13247e-12
-1.69065e-12
-2.67296e-12
-2.58305e-12
-1.27333e-12
-4.97241e-13
1.30293e-13
1.72007e-12
1.84361e-12
1.26045e-12
9.68941e-13
3.27607e-13
-1.19345e-12
-8.30517e-13
2.72765e-13
9.57614e-13
1.9635e-12
1.65594e-12
2.94059e-12
3.55968e-12
3.4345e-12
3.58501e-12
3.25212e-12
2.98321e-12
3.31536e-12
3.10021e-12
2.15209e-12
2.79177e-12
2.1938e-12
6.64884e-13
-3.3765e-13
3.95401e-14
8.15722e-13
9.11698e-13
7.51607e-13
1.47724e-12
2.14529e-12
2.78117e-12
3.14267e-12
1.98245e-12
1.06419e-12
5.75767e-13
-2.37599e-13
-7.39617e-13
-8.60743e-13
7.06418e-13
7.11128e-13
5.43326e-13
1.18481e-12
1.08205e-12
1.15149e-12
1.4909e-12
1.35899e-12
1.05872e-12
1.17754e-12
1.24927e-12
1.39069e-12
2.21894e-12
1.51092e-12
2.28911e-12
2.44085e-12
2.57927e-12
2.7992e-12
1.09814e-12
5.45161e-13
4.98484e-13
8.65441e-13
2.86954e-13
2.00281e-14
-1.18636e-13
-9.45871e-13
-5.30475e-13
-1.68767e-13
1.08842e-12
9.94572e-13
8.41186e-13
5.49857e-13
1.3266e-13
1.7783e-13
-4.52172e-15
9.5837e-14
4.78431e-13
1.987e-12
2.14895e-12
2.35521e-12
1.05508e-12
1.06874e-12
7.86177e-13
2.17557e-12
1.98916e-12
1.32928e-12
3.88273e-13
5.91063e-13
3.8842e-13
-1.96792e-13
-1.16601e-13
6.79458e-14
2.81664e-13
4.59485e-13
1.18425e-13
4.68431e-13
9.02739e-13
2.26292e-14
-1.40469e-14
1.04769e-13
3.17013e-13
1.344e-12
5.5987e-12
1.6909e-11
4.73681e-11
1.31409e-10
3.58645e-10
9.62195e-10
2.54691e-09
6.65604e-09
1.71772e-08
4.3765e-08
1.1006e-07
2.73112e-07
6.6856e-07
1.61396e-06
3.8411e-06
9.00905e-06
2.08163e-05
4.73655e-05
0.000106091
0.000233807
0.000506761
0.00107969
0.00226
0.00464505
0.00936853
0.0185295
0.035913
0.0681546
0.126538
0.229631
0.406901
0.703284
1.18432
1.94091
3.09203
4.7832
7.17851
10.4448
14.729
20.1329
26.6908
34.3577
43.0114
52.4784
62.5764
73.1405
84.0325
95.1414
106.38
117.68
128.989
140.266
151.479
162.601
173.614
184.5
195.246
205.841
216.275
226.541
236.632
246.543
256.267
265.802
275.142
284.285
293.228
301.969
310.506
318.837
326.96
334.876
342.584
350.083
357.373
364.456
371.331
378
384.463
390.722
396.779
402.634
408.291
413.75
419.013
424.084
428.963
433.654
438.158
442.479
446.617
450.577
454.36
457.969
461.407
464.676
467.779
470.718
473.497
476.117
478.582
480.893
483.055
485.069
486.939
488.666
490.254
491.706
493.024
494.211
495.271
496.205
497.019
497.714
498.296
498.766
499.131
499.395
499.564
499.644
499.645
499.575
499.448
499.278
499.084
498.888
498.715
498.593
498.548
498.601
498.761
499.019
499.343
499.678
499.954
500.103
500.078
499.866
499.494
499.016
498.501
498.028
497.673
497.495
497.53
497.779
498.199
498.711
499.21
499.582
499.736
499.632
499.294
498.804
498.271
497.812
497.521
497.446
497.574
497.834
498.116
498.302
498.304
498.101
497.736
497.277
496.725
495.909
494.38
491.364
485.841
476.8
463.62
446.406
426.062
404.074
382.133
361.8
344.292
330.371
320.315
313.933
310.663
309.701
310.179
311.316
312.533
313.493
314.081
314.331
314.354
314.268
314.163
314.085
314.045
314.036
314.043
314.056
314.068
314.078
314.086
314.092
314.098
314.104
314.108
314.113
314.122
314.131
314.129
314.136
314.167
314.151
314.093
314.189
314.277
313.905
313.831
314.784
314.053
311.465
314.794
318.96
304.632
299.862
343.285
314.017
148.83
38.7423
7.04823
1.12949
0.185721
0.0307212
0.0050818
0.000840419
0.000138975
2.29807e-05
3.79996e-06
6.28329e-07
1.03893e-07
1.71781e-08
2.84006e-09
4.69267e-10
7.7253e-11
1.25852e-11
1.94508e-12
1.34378e-13
-2.04758e-13
-1.77723e-13
-1.63227e-13
-9.39553e-14
-7.12167e-15
-8.15226e-14
-5.96307e-14
-9.40079e-15
8.04849e-14
1.57577e-13
1.80913e-13
7.39506e-14
8.24095e-14
6.39173e-14
2.70367e-14
1.14877e-14
-4.78537e-14
-8.46087e-14
-1.31779e-13
-2.14748e-13
-1.89726e-13
-2.00792e-13
-2.42439e-13
-2.94266e-13
-2.47803e-13
-4.98115e-14
5.6247e-14
1.18156e-13
1.18027e-14
4.56864e-14
5.96734e-14
5.44353e-14
1.71391e-15
-2.98997e-14
-5.17053e-15
8.38694e-14
4.30888e-14
-6.4674e-14
-5.28925e-14
-1.45049e-13
-1.54013e-13
-2.15824e-13
-2.37918e-13
-2.20216e-13
-3.0771e-13
-2.57832e-13
-2.33608e-13
-1.50938e-13
-1.26188e-14
7.27994e-14
8.27289e-14
4.02289e-14
-1.70082e-13
-1.53851e-13
-1.70343e-13
-1.22596e-13
3.74558e-14
-7.17149e-14
-1.72328e-13
-2.05891e-13
-3.22222e-13
-4.93842e-13
-5.58459e-13
-5.41043e-13
-7.352e-13
-6.86191e-13
-8.25622e-13
-6.67705e-13
-5.98963e-13
-6.17165e-13
-5.38471e-13
-5.80805e-13
-5.686e-13
-4.78338e-13
-6.32439e-13
-7.16079e-13
-7.19401e-13
-7.01575e-13
-8.02731e-13
-7.33098e-13
-6.92831e-13
-7.5282e-13
-5.90519e-13
-6.921e-13
-5.16359e-13
-6.0932e-13
-6.94398e-13
-7.94819e-13
-5.94209e-13
-6.27593e-13
-5.65273e-13
-5.96677e-13
-6.67625e-13
-8.39538e-13
-7.86921e-13
-8.41376e-13
-9.28197e-13
-8.88412e-13
-9.20887e-13
-8.69435e-13
-9.23572e-13
-1.06132e-12
-7.93366e-13
-6.4777e-13
-5.61376e-13
-5.12745e-13
-4.63631e-13
-2.13859e-13
-8.2333e-14
-6.9309e-14
1.75239e-14
4.8631e-14
1.49281e-14
-3.2519e-14
-1.4203e-13
-1.37874e-13
-1.44922e-13
-1.4035e-13
-2.63526e-13
-3.36844e-13
-4.47603e-13
-5.95055e-13
-6.09403e-13
-5.98378e-13
-4.02928e-13
-3.31259e-13
-2.72014e-13
-4.58558e-13
-4.1691e-13
-4.00222e-13
-4.52091e-13
-4.7436e-13
-1.32097e-13
2.7704e-14
2.8074e-13
1.05823e-13
2.38941e-13
3.69579e-13
3.82944e-13
2.59042e-13
2.60894e-13
1.84267e-13
5.40482e-14
2.02625e-13
2.35467e-13
2.26426e-13
4.27017e-13
4.91196e-13
4.4016e-13
3.1535e-13
2.41513e-13
8.64747e-14
5.58659e-15
4.93658e-14
9.32963e-14
7.74465e-14
1.55717e-13
2.49788e-13
2.24415e-13
8.5234e-14
2.20919e-13
4.16979e-13
3.1329e-13
3.55236e-13
4.12079e-13
3.7762e-13
3.08266e-13
3.19779e-13
1.9299e-13
6.51754e-14
1.04624e-13
2.11621e-13
3.06114e-13
5.46125e-13
6.02159e-13
5.24769e-13
4.80786e-13
3.46093e-13
4.46034e-13
4.44054e-13
3.95614e-13
2.10642e-13
2.04795e-13
1.89127e-13
3.60807e-14
3.16328e-14
-2.68218e-14
3.84374e-14
1.54038e-13
6.19779e-14
1.23291e-13
6.47063e-14
6.28946e-14
2.45771e-13
2.95256e-13
1.51996e-13
2.83857e-13
4.00974e-13
4.27313e-13
3.87366e-13
4.1689e-13
3.05547e-13
2.60681e-13
3.92261e-14
-6.27354e-14
2.29242e-14
8.90258e-14
7.39691e-14
8.04024e-15
-8.97528e-14
-4.85291e-14
-1.03409e-13
-7.01289e-14
-1.0166e-13
-8.24816e-15
-1.34534e-14
3.23908e-14
9.24459e-14
8.85306e-14
1.01908e-13
1.33123e-14
-3.9652e-15
8.76661e-14
6.55612e-14
1.70379e-14
7.98293e-14
1.2272e-13
1.21102e-13
1.18002e-13
6.60706e-14
1.44188e-14
-1.37786e-13
-1.77951e-13
-2.84126e-14
7.87444e-14
7.39555e-14
1.99085e-14
-9.79882e-14
-1.56723e-13
-3.22217e-13
-1.23402e-13
-1.00071e-14
3.80919e-14
8.96201e-14
1.14954e-13
1.24022e-13
4.75489e-14
-1.05169e-13
-1.75515e-13
-2.76545e-13
-2.91169e-13
-3.09875e-13
-3.46019e-13
-4.84318e-13
-4.6076e-13
-3.84536e-13
-5.11234e-13
-5.05759e-13
-4.09321e-13
-2.43535e-13
-2.96844e-13
-3.52774e-13
-4.84434e-13
-3.25637e-13
-3.73231e-13
-3.31813e-13
-3.5063e-13
-2.98589e-13
-2.91678e-13
-2.83297e-13
-2.72417e-13
-2.41236e-13
-1.69313e-13
-3.65372e-13
-4.4297e-13
-6.13912e-13
-5.99064e-13
-6.94744e-13
-6.60493e-13
-7.35175e-13
-7.28264e-13
-6.46135e-13
-6.94846e-13
-6.13988e-13
-6.036e-13
-4.85722e-13
-4.32378e-13
-4.06818e-13
-2.58073e-13
-2.34404e-13
-3.08352e-13
-2.53515e-13
-2.42613e-13
-1.48674e-13
-1.18511e-13
-1.34489e-14
-2.86156e-15
-6.99957e-14
-8.14646e-14
-2.0076e-13
-1.64692e-13
-4.12545e-14
-1.34308e-13
-1.79877e-13
-2.16265e-13
-2.78494e-13
-1.19849e-13
-1.82084e-13
-1.84856e-13
-2.75934e-13
-2.04565e-13
-2.66308e-13
-2.69152e-13
-3.18128e-13
-2.0549e-13
-1.90031e-13
-1.35221e-13
-1.09714e-13
-1.90372e-13
-2.51893e-13
-3.7413e-13
-4.15071e-13
-3.46834e-13
-3.77462e-13
-2.65688e-13
-1.50752e-13
-7.0828e-14
-4.312e-14
9.93882e-14
2.43454e-13
3.28578e-13
3.55723e-13
2.41372e-13
2.49852e-13
1.7539e-13
1.09802e-13
2.05531e-13
2.12928e-13
2.80501e-13
2.0092e-13
1.66198e-13
2.00427e-13
2.915e-13
1.99129e-13
2.69719e-13
2.60823e-13
2.24269e-13
1.18033e-13
2.29688e-14
-2.09969e-15
1.06759e-13
1.52652e-13
8.5788e-14
7.36376e-14
1.48655e-13
9.51222e-14
3.90889e-14
6.86571e-15
4.95822e-15
3.04153e-14
3.12319e-15
-3.30101e-14
8.08666e-14
-7.68972e-14
-6.31776e-14
-2.71637e-14
-3.5226e-14
3.62183e-14
1.74979e-14
2.26597e-16
1.26472e-14
)
;

boundaryField
{
    sides
    {
        type            calculated;
        value           nonuniform List<scalar> 2(-3.63798e-14 3.95812e-12);
    }
    empty
    {
        type            empty;
    }
}


// ************************************************************************* //
