/*--------------------------------*- C++ -*----------------------------------*\
  =========                 |
  \\      /  F ield         | OpenFOAM: The Open Source CFD Toolbox
   \\    /   O peration     | Website:  https://openfoam.org
    \\  /    A nd           | Version:  13
     \\/     M anipulation  |
\*---------------------------------------------------------------------------*/
FoamFile
{
    format      ascii;
    class       volVectorField;
    location    "0.002";
    object      U;
}
// * * * * * * * * * * * * * * * * * * * * * * * * * * * * * * * * * * * * * //

dimensions      [0 1 -1 0 0 0 0];

internalField   nonuniform List<vector> 
1000
(
(-1.01625e-12 0 0)
(-7.87714e-13 0 0)
(-1.14267e-12 0 0)
(-7.58539e-13 0 0)
(-9.19e-13 0 0)
(-5.98079e-13 0 0)
(-1.05029e-12 0 0)
(-8.6065e-13 0 0)
(-1.21561e-12 0 0)
(-8.9955e-13 0 0)
(-9.62762e-13 0 0)
(-7.92576e-13 0 0)
(-9.82211e-13 0 0)
(-9.72486e-13 0 0)
(-1.19616e-12 0 0)
(-1.01625e-12 0 0)
(-9.77349e-13 0 0)
(-8.84963e-13 0 0)
(-7.05053e-13 0 0)
(-9.09275e-13 0 0)
(-9.19e-13 0 0)
(-1.19616e-12 0 0)
(-1.13781e-12 0 0)
(-8.46063e-13 0 0)
(-4.61931e-13 0 0)
(-1.02111e-13 0 0)
(3.88995e-14 0 0)
(-9.72486e-14 0 0)
(-1.89635e-13 0 0)
(-1.7991e-13 0 0)
(2.33397e-13 0 0)
(8.75238e-14 0 0)
(1.16698e-13 0 0)
(1.6046e-13 0 0)
(-1.41011e-13 0 0)
(-2.23672e-13 0 0)
(-1.06974e-13 0 0)
(-2.33397e-13 0 0)
(-3.16058e-13 0 0)
(-4.61931e-13 0 0)
(-3.50095e-13 0 0)
(-3.64682e-13 0 0)
(-3.01471e-13 0 0)
(-2.23672e-13 0 0)
(-5.83492e-14 0 0)
(-2.91746e-14 0 0)
(-3.30645e-13 0 0)
(-4.37619e-14 0 0)
(-2.43122e-13 0 0)
(-8.26613e-14 0 0)
(-3.30645e-13 0 0)
(-7.29365e-14 0 0)
(-2.33397e-13 0 0)
(-1.06974e-13 0 0)
(-2.18809e-13 0 0)
(1.9936e-13 0 0)
(7.29365e-14 0 0)
(1.70185e-13 0 0)
(6.32116e-14 0 0)
(-8.75238e-14 0 0)
(-1.11836e-13 0 0)
(-1.6046e-13 0 0)
(-6.32116e-14 0 0)
(-1.75048e-13 0 0)
(-1.11836e-13 0 0)
(-1.31286e-13 0 0)
(-1.7991e-13 0 0)
(-3.35508e-13 0 0)
(-4.18169e-13 0 0)
(-7.29365e-14 0 0)
(-1.45873e-14 0 0)
(9.72486e-14 0 0)
(1.89635e-13 0 0)
(3.88995e-14 0 0)
(2.72296e-13 0 0)
(1.41011e-13 0 0)
(-1.02111e-13 0 0)
(-2.91746e-13 0 0)
(-5.83492e-13 0 0)
(-3.88995e-13 0 0)
(-4.95968e-13 0 0)
(-6.75878e-13 0 0)
(-3.93857e-13 0 0)
(-2.86883e-13 0 0)
(-2.52846e-13 0 0)
(-9.23862e-14 0 0)
(-1.41011e-13 0 0)
(-1.7991e-13 0 0)
(-4.47344e-13 0 0)
(-3.69545e-13 0 0)
(8.75238e-14 0 0)
(9.23862e-14 0 0)
(-3.65481e-27 0 0)
(-2.43122e-14 0 0)
(3.11196e-13 0 0)
(7.77989e-14 0 0)
(1.41011e-13 0 0)
(1.02111e-13 0 0)
(-2.43122e-13 0 0)
(-1.94497e-13 0 0)
(2.91746e-14 0 0)
(3.16058e-13 0 0)
(4.52206e-13 0 0)
(7.43952e-13 0 0)
(5.10555e-13 0 0)
(6.22391e-13 0 0)
(5.25143e-13 0 0)
(4.23032e-13 0 0)
(3.7927e-13 0 0)
(2.09085e-13 0 0)
(-3.88995e-14 0 0)
(-7.77989e-14 0 0)
(-2.91746e-14 0 0)
(-3.4037e-14 0 0)
(-3.4037e-14 0 0)
(-1.50735e-13 0 0)
(-7.29365e-14 0 0)
(-9.72486e-14 0 0)
(3.88995e-14 0 0)
(-1.45873e-14 0 0)
(-5.34868e-14 0 0)
(3.4037e-14 0 0)
(-8.26613e-14 0 0)
(1.45873e-13 0 0)
(-3.88995e-14 0 0)
(1.65323e-13 0 0)
(-1.21561e-13 0 0)
(-2.33397e-13 0 0)
(1.21561e-13 0 0)
(1.11836e-13 0 0)
(1.84772e-13 0 0)
(-9.72486e-15 0 0)
(1.75048e-13 0 0)
(-1.75048e-13 0 0)
(-1.55598e-13 0 0)
(-1.70185e-13 0 0)
(-5.34868e-14 0 0)
(1.36148e-13 0 0)
(-1.11836e-13 0 0)
(4.86243e-14 0 0)
(-1.55598e-13 0 0)
(-1.65323e-13 0 0)
(-2.91746e-14 0 0)
(-8.75238e-14 0 0)
(-3.4037e-14 0 0)
(-8.26613e-14 0 0)
(1.06974e-13 0 0)
(9.72486e-14 0 0)
(1.36148e-13 0 0)
(-3.88995e-14 0 0)
(-1.7991e-13 0 0)
(-8.26613e-14 0 0)
(-1.65323e-13 0 0)
(-1.11836e-13 0 0)
(-1.26423e-13 0 0)
(-2.33397e-13 0 0)
(-3.35508e-13 0 0)
(-2.23672e-13 0 0)
(3.88995e-14 0 0)
(-3.88995e-14 0 0)
(1.31286e-13 0 0)
(3.01471e-13 0 0)
(2.43122e-13 0 0)
(3.35508e-13 0 0)
(1.26423e-13 0 0)
(3.88995e-13 0 0)
(-8.26613e-14 0 0)
(-1.45873e-14 0 0)
(1.45873e-14 0 0)
(3.4037e-14 0 0)
(-9.72486e-15 0 0)
(-9.72486e-14 0 0)
(-2.13947e-13 0 0)
(-8.75238e-14 0 0)
(-3.35508e-13 0 0)
(-8.26613e-14 0 0)
(-5.34868e-14 0 0)
(6.32116e-14 0 0)
(2.91746e-14 0 0)
(-9.23862e-14 0 0)
(1.06974e-13 0 0)
(-5.83492e-14 0 0)
(1.65323e-13 0 0)
(-3.4037e-14 0 0)
(2.96608e-13 0 0)
(9.23862e-14 0 0)
(-2.91746e-14 0 0)
(-9.72486e-14 0 0)
(6.8074e-14 0 0)
(-1.94497e-13 0 0)
(-5.83492e-14 0 0)
(5.83492e-14 0 0)
(1.02111e-13 0 0)
(7.29365e-14 0 0)
(-4.86243e-14 0 0)
(-3.88995e-14 0 0)
(-9.72486e-15 0 0)
(1.50735e-13 0 0)
(-3.88995e-14 0 0)
(-2.62571e-13 0 0)
(1.21561e-13 0 0)
(-6.32116e-14 0 0)
(-2.91746e-14 0 0)
(-1.6046e-13 0 0)
(-1.75048e-13 0 0)
(-2.72296e-13 0 0)
(6.8074e-14 0 0)
(-8.26613e-14 0 0)
(-8.26613e-14 0 0)
(-2.33397e-13 0 0)
(-2.33397e-13 0 0)
(-3.06333e-13 0 0)
(-2.57709e-13 0 0)
(-1.9936e-13 0 0)
(-2.43122e-13 0 0)
(-6.32116e-14 0 0)
(-3.54958e-13 0 0)
(-2.23672e-13 0 0)
(-2.77159e-13 0 0)
(1.55598e-13 0 0)
(-1.21561e-13 0 0)
(1.50735e-13 0 0)
(-1.50735e-13 0 0)
(3.4037e-14 0 0)
(-9.72486e-14 0 0)
(4.37619e-14 0 0)
(-1.94497e-14 0 0)
(1.02111e-13 0 0)
(-1.06974e-13 0 0)
(-2.82021e-13 0 0)
(-4.57069e-13 0 0)
(-2.43122e-14 0 0)
(4.86243e-14 0 0)
(1.84772e-13 0 0)
(-2.91746e-14 0 0)
(-1.06974e-13 0 0)
(-8.26613e-14 0 0)
(-7.77989e-14 0 0)
(-5.83492e-14 0 0)
(4.86243e-15 0 0)
(-7.29365e-14 0 0)
(-1.75048e-13 0 0)
(-1.50735e-13 0 0)
(-1.89635e-13 0 0)
(-1.50735e-13 0 0)
(-4.86243e-15 0 0)
(-5.34868e-14 0 0)
(-2.52846e-13 0 0)
(-2.38259e-13 0 0)
(-3.06333e-13 0 0)
(-3.54958e-13 0 0)
(-2.62571e-13 0 0)
(-1.55598e-13 0 0)
(1.6046e-13 0 0)
(3.16058e-13 0 0)
(3.88995e-14 0 0)
(-9.23862e-14 0 0)
(-3.4037e-13 0 0)
(-3.01471e-13 0 0)
(-2.04222e-13 0 0)
(-2.33397e-13 0 0)
(-5.2028e-13 0 0)
(-5.83492e-13 0 0)
(-6.36979e-13 0 0)
(-5.05693e-13 0 0)
(-4.13307e-13 0 0)
(-4.86243e-15 0 0)
(1.89635e-13 0 0)
(4.42481e-13 0 0)
(3.84132e-13 0 0)
(4.47344e-13 0 0)
(4.66793e-13 0 0)
(2.72296e-13 0 0)
(-2.43122e-14 0 0)
(-2.04222e-13 0 0)
(-2.33397e-13 0 0)
(-2.67434e-13 0 0)
(-4.61931e-13 0 0)
(-6.61291e-13 0 0)
(-4.86243e-13 0 0)
(-1.84772e-13 0 0)
(-4.86243e-14 0 0)
(2.62571e-13 0 0)
(3.98719e-13 0 0)
(2.57709e-13 0 0)
(2.43122e-13 0 0)
(1.7991e-13 0 0)
(-1.26423e-13 0 0)
(-2.52846e-13 0 0)
(-3.15544e-28 0 0)
(2.43122e-13 0 0)
(4.57069e-13 0 0)
(4.47344e-13 0 0)
(6.07804e-13 0 0)
(7.53677e-13 0 0)
(9.87074e-13 0 0)
(7.58539e-13 0 0)
(9.14137e-13 0 0)
(6.90465e-13 0 0)
(8.07164e-13 0 0)
(6.85603e-13 0 0)
(7.3909e-13 0 0)
(4.95968e-13 0 0)
(7.14777e-13 0 0)
(2.28534e-13 0 0)
(1.7991e-13 0 0)
(-2.72296e-13 0 0)
(3.01471e-13 0 0)
(2.13947e-13 0 0)
(2.67434e-13 0 0)
(1.45873e-13 0 0)
(6.07804e-13 0 0)
(4.86243e-13 0 0)
(8.21751e-13 0 0)
(5.05693e-13 0 0)
(4.13307e-13 0 0)
(2.18809e-13 0 0)
(-4.86243e-15 0 0)
(-1.06974e-13 0 0)
(-3.54958e-13 0 0)
(-1.94497e-14 0 0)
(2.38259e-13 0 0)
(1.02111e-13 0 0)
(2.09085e-13 0 0)
(3.74407e-13 0 0)
(2.67434e-13 0 0)
(3.45233e-13 0 0)
(3.5982e-13 0 0)
(3.74407e-13 0 0)
(3.06333e-13 0 0)
(2.86883e-13 0 0)
(3.50095e-13 0 0)
(4.03582e-13 0 0)
(4.71656e-13 0 0)
(4.66793e-13 0 0)
(5.49455e-13 0 0)
(5.98079e-13 0 0)
(6.75878e-13 0 0)
(4.52206e-13 0 0)
(1.75048e-13 0 0)
(1.06974e-13 0 0)
(2.09085e-13 0 0)
(2.28534e-13 0 0)
(-1.94497e-14 0 0)
(5.83492e-14 0 0)
(-1.06974e-13 0 0)
(-3.88995e-14 0 0)
(-7.29365e-14 0 0)
(1.89635e-13 0 0)
(2.96608e-13 0 0)
(1.50735e-13 0 0)
(1.31286e-13 0 0)
(-9.72486e-15 0 0)
(-1.94497e-14 0 0)
(-4.86243e-15 0 0)
(-4.86243e-15 0 0)
(4.86243e-14 0 0)
(2.96608e-13 0 0)
(6.27254e-13 0 0)
(5.93217e-13 0 0)
(3.7927e-13 0 0)
(3.11196e-13 0 0)
(1.6046e-13 0 0)
(3.25783e-13 0 0)
(6.02942e-13 0 0)
(3.88995e-13 0 0)
(1.84772e-13 0 0)
(1.02111e-13 0 0)
(1.50735e-13 0 0)
(1.94497e-14 0 0)
(-6.8074e-14 0 0)
(-4.67006e-27 0 0)
(7.29365e-14 0 0)
(1.31286e-13 0 0)
(5.34868e-14 0 0)
(1.45873e-14 0 0)
(1.7991e-13 0 0)
(1.36148e-13 0 0)
(-1.21561e-13 0 0)
(1.06974e-13 0 0)
(6.8074e-14 0 0)
(3.69545e-13 0 0)
(1.23506e-12 0 0)
(4.18655e-12 0 0)
(1.1665e-11 0 0)
(3.21407e-11 0 0)
(8.77183e-11 0 0)
(2.35001e-10 0 0)
(6.21589e-10 0 0)
(1.62205e-09 0 0)
(4.1809e-09 0 0)
(1.06389e-08 0 0)
(2.67229e-08 0 0)
(6.6236e-08 0 0)
(1.61962e-07 0 0)
(3.90571e-07 0 0)
(9.28578e-07 0 0)
(2.17579e-06 0 0)
(5.02272e-06 0 0)
(1.14187e-05 0 0)
(2.55549e-05 0 0)
(5.62759e-05 0 0)
(0.000121888 0 0)
(0.000259522 0 0)
(0.000542919 0 0)
(0.00111531 0 0)
(0.00224847 0 0)
(0.00444555 0 0)
(0.00861388 0 0)
(0.0163444 0 0)
(0.0303439 0 0)
(0.0550693 0 0)
(0.0976028 0 0)
(0.168763 0 0)
(0.284374 0 0)
(0.466467 0 0)
(0.744063 0 0)
(1.153 0 0)
(1.73432 0 0)
(2.53085 0 0)
(3.58214 0 0)
(4.91866 0 0)
(6.5564 0 0)
(8.49351 0 0)
(10.7105 0 0)
(13.1753 0 0)
(15.8512 0 0)
(18.7033 0 0)
(21.7012 0 0)
(24.8201 0 0)
(28.04 0 0)
(31.3452 0 0)
(34.7234 0 0)
(38.1647 0 0)
(41.6617 0 0)
(45.208 0 0)
(48.7986 0 0)
(52.4296 0 0)
(56.0974 0 0)
(59.7992 0 0)
(63.5323 0 0)
(67.2945 0 0)
(71.0838 0 0)
(74.8984 0 0)
(78.7365 0 0)
(82.5965 0 0)
(86.477 0 0)
(90.3765 0 0)
(94.2936 0 0)
(98.2271 0 0)
(102.176 0 0)
(106.139 0 0)
(110.114 0 0)
(114.102 0 0)
(118.1 0 0)
(122.109 0 0)
(126.127 0 0)
(130.153 0 0)
(134.187 0 0)
(138.228 0 0)
(142.275 0 0)
(146.328 0 0)
(150.386 0 0)
(154.448 0 0)
(158.514 0 0)
(162.584 0 0)
(166.657 0 0)
(170.732 0 0)
(174.809 0 0)
(178.888 0 0)
(182.967 0 0)
(187.047 0 0)
(191.128 0 0)
(195.208 0 0)
(199.286 0 0)
(203.364 0 0)
(207.439 0 0)
(211.511 0 0)
(215.58 0 0)
(219.645 0 0)
(223.705 0 0)
(227.758 0 0)
(231.804 0 0)
(235.842 0 0)
(239.87 0 0)
(243.887 0 0)
(247.889 0 0)
(251.877 0 0)
(255.845 0 0)
(259.793 0 0)
(263.714 0 0)
(267.606 0 0)
(271.462 0 0)
(275.276 0 0)
(279.039 0 0)
(282.742 0 0)
(286.37 0 0)
(289.91 0 0)
(293.341 0 0)
(296.638 0 0)
(299.772 0 0)
(302.703 0 0)
(305.383 0 0)
(307.754 0 0)
(309.742 0 0)
(311.26 0 0)
(312.207 0 0)
(312.468 0 0)
(311.928 0 0)
(310.483 0 0)
(308.071 0 0)
(304.703 0 0)
(300.511 0 0)
(295.771 0 0)
(290.91 0 0)
(286.471 0 0)
(283.029 0 0)
(281.054 0 0)
(280.786 0 0)
(282.166 0 0)
(284.871 0 0)
(288.396 0 0)
(292.174 0 0)
(295.658 0 0)
(298.38 0 0)
(300.002 0 0)
(300.353 0 0)
(299.454 0 0)
(297.519 0 0)
(294.937 0 0)
(292.211 0 0)
(289.874 0 0)
(288.374 0 0)
(287.954 0 0)
(288.597 0 0)
(290.046 0 0)
(291.885 0 0)
(293.654 0 0)
(294.949 0 0)
(295.513 0 0)
(295.289 0 0)
(294.425 0 0)
(293.224 0 0)
(292.059 0 0)
(291.265 0 0)
(291.032 0 0)
(291.356 0 0)
(292.056 0 0)
(292.847 0 0)
(293.45 0 0)
(293.685 0 0)
(293.542 0 0)
(293.173 0 0)
(292.831 0 0)
(292.733 0 0)
(292.925 0 0)
(293.241 0 0)
(293.411 0 0)
(293.266 0 0)
(292.863 0 0)
(292.422 0 0)
(292.13 0 0)
(292.019 0 0)
(292.006 0 0)
(292.026 0 0)
(292.087 0 0)
(292.218 0 0)
(292.408 0 0)
(292.6 0 0)
(292.732 0 0)
(292.783 0 0)
(292.775 0 0)
(292.745 0 0)
(292.721 0 0)
(292.708 0 0)
(292.701 0 0)
(292.696 0 0)
(292.693 0 0)
(292.692 0 0)
(292.696 0 0)
(292.701 0 0)
(292.705 0 0)
(292.708 0 0)
(292.71 0 0)
(292.711 0 0)
(292.713 0 0)
(292.716 0 0)
(292.719 0 0)
(292.722 0 0)
(292.726 0 0)
(292.729 0 0)
(292.729 0 0)
(292.73 0 0)
(292.738 0 0)
(292.733 0 0)
(292.708 0 0)
(292.724 0 0)
(292.752 0 0)
(292.632 0 0)
(292.537 0 0)
(292.779 0 0)
(292.615 0 0)
(291.639 0 0)
(292.193 0 0)
(293.607 0 0)
(289.347 0 0)
(285.514 0 0)
(295.179 0 0)
(282.11 0 0)
(194.126 0 0)
(72.1308 0 0)
(15.0453 0 0)
(2.62133 0 0)
(0.435221 0 0)
(0.0717575 0 0)
(0.0118598 0 0)
(0.00196108 0 0)
(0.000324288 0 0)
(5.36242e-05 0 0)
(8.86711e-06 0 0)
(1.46621e-06 0 0)
(2.42438e-07 0 0)
(4.00862e-08 0 0)
(6.6273e-09 0 0)
(1.09486e-09 0 0)
(1.8026e-10 0 0)
(2.94858e-11 0 0)
(4.40051e-12 0 0)
(4.66794e-13 0 0)
(-3.74408e-13 0 0)
(-1.6046e-13 0 0)
(-3.50096e-13 0 0)
(5.83493e-14 0 0)
(-1.45873e-13 0 0)
(-1.84773e-13 0 0)
(-2.13947e-13 0 0)
(1.36148e-13 0 0)
(1.31286e-13 0 0)
(5.44593e-13 0 0)
(1.06974e-13 0 0)
(2.72297e-13 0 0)
(9.72488e-14 0 0)
(1.65323e-13 0 0)
(4.86244e-15 0 0)
(1.45873e-14 0 0)
(-1.21561e-13 0 0)
(-2.91746e-13 0 0)
(-1.45873e-13 0 0)
(-5.9808e-13 0 0)
(-1.9936e-13 0 0)
(-5.49456e-13 0 0)
(-4.71657e-13 0 0)
(-6.71017e-13 0 0)
(-3.06334e-13 0 0)
(-3.40371e-14 0 0)
(1.75048e-13 0 0)
(9.72488e-14 0 0)
(-1.45873e-14 0 0)
(6.80741e-14 0 0)
(1.6046e-13 0 0)
(7.7799e-14 0 0)
(-4.3762e-14 0 0)
(-1.50736e-13 0 0)
(9.72488e-14 0 0)
(6.80741e-14 0 0)
(5.83493e-14 0 0)
(-3.35508e-13 0 0)
(-1.45873e-14 0 0)
(-4.32757e-13 0 0)
(-3.01471e-13 0 0)
(-4.23032e-13 0 0)
(-5.54318e-13 0 0)
(-3.45233e-13 0 0)
(-7.00191e-13 0 0)
(-4.81381e-13 0 0)
(-4.13307e-13 0 0)
(-1.06974e-13 0 0)
(8.26615e-14 0 0)
(1.26423e-13 0 0)
(2.1881e-13 0 0)
(-9.23863e-14 0 0)
(-3.50096e-13 0 0)
(-2.96609e-13 0 0)
(-2.57709e-13 0 0)
(-7.29366e-14 0 0)
(1.45873e-13 0 0)
(-3.88995e-13 0 0)
(-2.3826e-13 0 0)
(-6.41842e-13 0 0)
(-7.39091e-13 0 0)
(-1.15726e-12 0 0)
(-1.1524e-12 0 0)
(-1.24478e-12 0 0)
(-1.49277e-12 0 0)
(-1.56571e-12 0 0)
(-1.41497e-12 0 0)
(-1.33231e-12 0 0)
(-1.16699e-12 0 0)
(-1.24478e-12 0 0)
(-1.0357e-12 0 0)
(-1.30313e-12 0 0)
(-8.89826e-13 0 0)
(-1.17671e-12 0 0)
(-1.35662e-12 0 0)
(-1.36148e-12 0 0)
(-1.36148e-12 0 0)
(-1.53167e-12 0 0)
(-1.56571e-12 0 0)
(-1.39066e-12 0 0)
(-1.43442e-12 0 0)
(-1.47332e-12 0 0)
(-1.23992e-12 0 0)
(-1.308e-12 0 0)
(-1.1135e-12 0 0)
(-1.22533e-12 0 0)
(-1.65809e-12 0 0)
(-1.29341e-12 0 0)
(-1.35176e-12 0 0)
(-1.00652e-12 0 0)
(-1.35176e-12 0 0)
(-1.01139e-12 0 0)
(-1.68727e-12 0 0)
(-1.54139e-12 0 0)
(-1.70185e-12 0 0)
(-1.80396e-12 0 0)
(-1.82828e-12 0 0)
(-1.87204e-12 0 0)
(-1.80396e-12 0 0)
(-1.73103e-12 0 0)
(-2.04709e-12 0 0)
(-1.86231e-12 0 0)
(-1.51708e-12 0 0)
(-1.27882e-12 0 0)
(-1.06974e-12 0 0)
(-8.65514e-13 0 0)
(-7.87715e-13 0 0)
(-2.43122e-13 0 0)
(-1.55598e-13 0 0)
(-1.21561e-13 0 0)
(1.36148e-13 0 0)
(2.43122e-14 0 0)
(8.75239e-14 0 0)
(-2.77159e-13 0 0)
(-1.31286e-13 0 0)
(-4.47344e-13 0 0)
(-2.28535e-13 0 0)
(-4.76519e-13 0 0)
(-5.73768e-13 0 0)
(-9.43313e-13 0 0)
(-1.06974e-12 0 0)
(-1.0357e-12 0 0)
(-1.42469e-12 0 0)
(-7.29366e-13 0 0)
(-7.9744e-13 0 0)
(-3.40371e-13 0 0)
(-7.53678e-13 0 0)
(-8.55789e-13 0 0)
(-7.9744e-13 0 0)
(-8.75239e-13 0 0)
(-9.62763e-13 0 0)
(-5.9808e-13 0 0)
(-1.55598e-13 0 0)
(3.84133e-13 0 0)
(4.42482e-13 0 0)
(1.94498e-13 0 0)
(7.48816e-13 0 0)
(6.90466e-13 0 0)
(6.46704e-13 0 0)
(4.86244e-13 0 0)
(4.47344e-13 0 0)
(7.7799e-14 0 0)
(2.62572e-13 0 0)
(4.32757e-13 0 0)
(4.27895e-13 0 0)
(7.05054e-13 0 0)
(1.04056e-12 0 0)
(8.21752e-13 0 0)
(8.94689e-13 0 0)
(4.52207e-13 0 0)
(2.57709e-13 0 0)
(1.02111e-13 0 0)
(-9.23863e-14 0 0)
(2.47984e-13 0 0)
(9.72488e-14 0 0)
(2.86884e-13 0 0)
(2.77159e-13 0 0)
(6.41842e-13 0 0)
(2.28535e-13 0 0)
(3.35508e-13 0 0)
(6.12667e-13 0 0)
(8.50927e-13 0 0)
(6.12667e-13 0 0)
(7.5854e-13 0 0)
(8.50927e-13 0 0)
(6.12667e-13 0 0)
(6.27255e-13 0 0)
(5.7863e-13 0 0)
(2.3826e-13 0 0)
(8.26615e-14 0 0)
(3.40371e-13 0 0)
(5.49456e-13 0 0)
(7.87715e-13 0 0)
(1.25937e-12 0 0)
(1.10377e-12 0 0)
(1.02111e-12 0 0)
(8.65514e-13 0 0)
(7.19641e-13 0 0)
(9.04414e-13 0 0)
(7.39091e-13 0 0)
(6.56429e-13 0 0)
(3.16059e-13 0 0)
(5.30006e-13 0 0)
(1.26423e-13 0 0)
(3.40371e-14 0 0)
(5.25539e-27 0 0)
(-1.84773e-13 0 0)
(2.3826e-13 0 0)
(1.45873e-13 0 0)
(1.31286e-13 0 0)
(2.23672e-13 0 0)
(1.02111e-13 0 0)
(3.01471e-13 0 0)
(7.53678e-13 0 0)
(3.9872e-13 0 0)
(4.71657e-13 0 0)
(7.34228e-13 0 0)
(9.09276e-13 0 0)
(7.63403e-13 0 0)
(8.21752e-13 0 0)
(6.3698e-13 0 0)
(5.20281e-13 0 0)
(3.40371e-13 0 0)
(-1.55598e-13 0 0)
(-1.16699e-13 0 0)
(2.28535e-13 0 0)
(9.72488e-14 0 0)
(1.41011e-13 0 0)
(-1.7991e-13 0 0)
(-3.16059e-13 0 0)
(-4.3762e-14 0 0)
(-2.28535e-13 0 0)
(-1.65323e-13 0 0)
(-9.23863e-14 0 0)
(-1.94498e-14 0 0)
(-6.80741e-14 0 0)
(1.41011e-13 0 0)
(7.29366e-14 0 0)
(2.47984e-13 0 0)
(5.34868e-14 0 0)
(2.91746e-14 0 0)
(8.26615e-14 0 0)
(3.54958e-13 0 0)
(5.34868e-14 0 0)
(1.70185e-13 0 0)
(1.6046e-13 0 0)
(3.06334e-13 0 0)
(3.01471e-13 0 0)
(1.55598e-13 0 0)
(1.94498e-13 0 0)
(-1.31286e-13 0 0)
(-4.13307e-13 0 0)
(-2.67434e-13 0 0)
(2.91746e-14 0 0)
(4.86244e-14 0 0)
(1.50736e-13 0 0)
(-9.72488e-15 0 0)
(-2.91746e-13 0 0)
(-3.69545e-13 0 0)
(-5.44593e-13 0 0)
(-1.06974e-13 0 0)
(6.80741e-14 0 0)
(3.88995e-14 0 0)
(3.11196e-13 0 0)
(1.45873e-13 0 0)
(2.57709e-13 0 0)
(-1.11836e-13 0 0)
(-1.31286e-13 0 0)
(-6.27255e-13 0 0)
(-5.20281e-13 0 0)
(-6.41842e-13 0 0)
(-6.56429e-13 0 0)
(-7.29366e-13 0 0)
(-1.00652e-12 0 0)
(-8.84964e-13 0 0)
(-8.31477e-13 0 0)
(-1.11836e-12 0 0)
(-7.43953e-13 0 0)
(-6.56429e-13 0 0)
(-3.88995e-13 0 0)
(-7.34228e-13 0 0)
(-7.24503e-13 0 0)
(-1.04056e-12 0 0)
(-4.81381e-13 0 0)
(-9.04414e-13 0 0)
(-5.25143e-13 0 0)
(-7.43953e-13 0 0)
(-5.68905e-13 0 0)
(-5.34868e-13 0 0)
(-5.93218e-13 0 0)
(-5.68905e-13 0 0)
(-4.23032e-13 0 0)
(-5.34868e-13 0 0)
(-8.07165e-13 0 0)
(-1.13781e-12 0 0)
(-1.21075e-12 0 0)
(-1.35662e-12 0 0)
(-1.34203e-12 0 0)
(-1.38093e-12 0 0)
(-1.50736e-12 0 0)
(-1.28368e-12 0 0)
(-1.40524e-12 0 0)
(-1.21075e-12 0 0)
(-1.36635e-12 0 0)
(-9.579e-13 0 0)
(-1.01625e-12 0 0)
(-9.04414e-13 0 0)
(-5.68905e-13 0 0)
(-5.20281e-13 0 0)
(-4.86244e-13 0 0)
(-6.1753e-13 0 0)
(-4.71657e-13 0 0)
(-3.88995e-13 0 0)
(-2.57709e-13 0 0)
(-8.75239e-14 0 0)
(-1.94498e-14 0 0)
(-5.34868e-14 0 0)
(-2.04222e-13 0 0)
(-2.3826e-13 0 0)
(-4.42482e-13 0 0)
(-1.70185e-13 0 0)
(-9.72488e-14 0 0)
(-3.54958e-13 0 0)
(-4.3762e-13 0 0)
(-6.46704e-13 0 0)
(-2.86884e-13 0 0)
(-3.50096e-13 0 0)
(-1.89635e-13 0 0)
(-4.47344e-13 0 0)
(-3.5982e-13 0 0)
(-5.05694e-13 0 0)
(-4.47344e-13 0 0)
(-6.71017e-13 0 0)
(-4.95969e-13 0 0)
(-3.9872e-13 0 0)
(-3.88995e-13 0 0)
(-1.55598e-13 0 0)
(-3.5982e-13 0 0)
(-5.34868e-13 0 0)
(-5.88355e-13 0 0)
(-8.50927e-13 0 0)
(-8.60652e-13 0 0)
(-6.32117e-13 0 0)
(-6.75879e-13 0 0)
(-3.74408e-13 0 0)
(-1.55598e-13 0 0)
(-1.41011e-13 0 0)
(1.94498e-14 0 0)
(3.5982e-13 0 0)
(4.86244e-13 0 0)
(7.34228e-13 0 0)
(6.3698e-13 0 0)
(4.57069e-13 0 0)
(4.23032e-13 0 0)
(3.30646e-13 0 0)
(1.9936e-13 0 0)
(4.42482e-13 0 0)
(5.73768e-13 0 0)
(4.3762e-13 0 0)
(5.5918e-13 0 0)
(1.75048e-13 0 0)
(6.12667e-13 0 0)
(3.84133e-13 0 0)
(5.73768e-13 0 0)
(3.93858e-13 0 0)
(5.9808e-13 0 0)
(1.50736e-13 0 0)
(3.06334e-13 0 0)
(-1.84773e-13 0 0)
(2.47984e-13 0 0)
(1.45873e-13 0 0)
(3.9872e-13 0 0)
(-2.91746e-14 0 0)
(3.40371e-13 0 0)
(1.94498e-13 0 0)
(1.9936e-13 0 0)
(4.86244e-15 0 0)
(-1.94498e-14 0 0)
(1.94498e-14 0 0)
(7.7799e-14 0 0)
(-2.47984e-13 0 0)
(1.11836e-13 0 0)
(6.80741e-14 0 0)
(-1.89635e-13 0 0)
(-3.88995e-14 0 0)
(4.86244e-15 0 0)
(1.45873e-14 0 0)
(2.04222e-13 0 0)
(-1.06974e-13 0 0)
(1.16699e-13 0 0)
(-7.29366e-14 0 0)
)
;

boundaryField
{
    sides
    {
        type            zeroGradient;
    }
    empty
    {
        type            empty;
    }
}


// ************************************************************************* //
