/*--------------------------------*- C++ -*----------------------------------*\
  =========                 |
  \\      /  F ield         | OpenFOAM: The Open Source CFD Toolbox
   \\    /   O peration     | Website:  https://openfoam.org
    \\  /    A nd           | Version:  13
     \\/     M anipulation  |
\*---------------------------------------------------------------------------*/
FoamFile
{
    format      ascii;
    class       surfaceScalarField;
    location    "12.503748";
    object      phi;
}
// * * * * * * * * * * * * * * * * * * * * * * * * * * * * * * * * * * * * * //

dimensions      [0 3 -1 0 0 0 0];

internalField   nonuniform List<scalar> 
34068
(
-2.3087917e-07
1.306253e-07
1.0025387e-07
-1.0227544e-06
4.4848546e-07
3.4338974e-07
-2.5562081e-06
8.68786e-07
6.646677e-07
-5.0556831e-06
1.4157088e-06
1.0837662e-06
-8.7984235e-06
2.118101e-06
1.6246394e-06
-1.4124707e-05
3.0100466e-06
2.316237e-06
-2.1449457e-05
4.1314688e-06
3.1932812e-06
-3.127518e-05
5.5286616e-06
4.2970611e-06
-4.420605e-05
7.2546898e-06
5.6761804e-06
-6.0962804e-05
9.3695659e-06
7.3871881e-06
-8.239784e-05
1.1940069e-05
9.4949673e-06
-0.00010950966
1.5039083e-05
1.2072737e-05
-0.00014345539
1.8744271e-05
1.5201457e-05
-0.00018555976
2.3135941e-05
1.8968432e-05
-0.00023731856
2.8293975e-05
2.3464823e-05
-0.00030039431
3.4293826e-05
2.8781924e-05
-0.00037660205
4.1201751e-05
3.5005992e-05
-0.00046788373
4.9069836e-05
4.2211846e-05
-0.00057627113
5.7931785e-05
5.0455612e-05
-0.00070384008
6.7801136e-05
5.9767817e-05
-0.00085266278
7.8674123e-05
7.0148578e-05
-0.0010247704
9.0539856e-05
8.1567731e-05
-0.0012221436
0.00010339991
9.3973287e-05
-0.0014467532
0.00011729796
0.00010731165
-0.0017006738
0.00013235832
0.00012156234
-0.0019862741
0.0001488215
0.00013677878
-0.0023064038
0.00016703381
0.00015309583
-0.002664425
0.00018737243
0.0001706488
-0.0030642945
0.00021028019
0.00018958933
-0.0035107175
0.00023630605
0.00021011694
-0.004009246
0.00026607673
0.0002324518
-0.0045663449
0.00030029368
0.00025680514
-0.0051894657
0.00033975482
0.00028336603
-0.0058871239
0.00038538696
0.00031227122
-0.0066689709
0.00043828204
0.00034356501
-0.007545846
0.00049973086
0.00037714416
-0.0085297781
0.00057124833
0.00041268382
-0.0096339023
0.0006545792
0.000449545
-0.010872244
0.00075166736
0.0004866746
-0.012259356
0.00086459329
0.00052251815
-0.013809771
0.0009954518
0.00055496346
-0.015537227
0.0011461025
0.00058135371
-0.0174536
0.0013178467
0.00059852602
-0.01956703
0.0015108672
0.00060256323
-0.021882727
0.0017253825
0.00059031412
-0.024402766
0.0019605723
0.00055946648
-0.027134193
0.0022185515
0.00051287533
-0.030070362
0.002490544
0.00044562521
-0.033195812
0.0027683033
0.00035714658
-0.036485964
0.0030400904
0.00025006159
-0.039897231
0.0032878075
0.00012345978
-0.043370047
0.0034963432
-2.3527591e-05
-0.046841244
0.0036460507
-0.0001748529
-0.050048945
0.0036032873
-0.00039558671
-0.0527242
0.0032429333
-0.00056767818
-0.054571697
0.0025761892
-0.00072869183
-0.054892466
0.0013811552
-0.0010603869
-0.052749485
-0.00066783788
-0.0014751423
-0.046935912
-0.0037582654
-0.0020553077
-0.036654704
-0.007564389
-0.0027168191
-0.022176143
-0.011185408
-0.0032931535
-0.0044911867
-0.014038516
-0.0036464403
0.014575161
-0.01542154
-0.0036448085
0.033633148
-0.01548128
-0.0035767062
-0.015307995
0.052474561
-0.0035334187
-2.3103224e-07
3.6165754e-07
-1.0234629e-06
1.2409161e-06
-2.5580578e-06
2.4033809e-06
-5.0596385e-06
3.9172896e-06
-8.8060219e-06
5.8644843e-06
-1.4138337e-05
8.3423622e-06
-2.1472753e-05
1.1465885e-05
-3.131356e-05
1.5369468e-05
-4.4267463e-05
2.0208593e-05
-6.1058733e-05
2.6160836e-05
-8.2544655e-05
3.342599e-05
-0.00010973036
4.2224791e-05
-0.0001437819
5.2795812e-05
-0.00018603578
6.5389814e-05
-0.00023800305
8.0261248e-05
-0.00030136571
9.765649e-05
-0.00037796303
0.00011779907
-0.00046976624
0.00014087305
-0.00057884152
0.00016700706
-0.00070730341
0.00019626303
-0.00085726557
0.00022863628
-0.0010308007
0.00026407497
-0.0012299275
0.00030252678
-0.0014566472
0.00034401761
-0.0017130497
0.0003887608
-0.0020015016
0.00043727338
-0.0023248604
0.00049039267
-0.0026866121
0.00054912411
-0.0030907133
0.00061438138
-0.0035418545
0.0006874473
-0.0040456066
0.00076982879
-0.0046084719
0.00086315898
-0.0052379436
0.00096922655
-0.0059425763
0.0010900196
-0.0067320512
0.0012277569
-0.0076172194
0.0013848991
-0.0086100883
0.0015641173
-0.0097237138
0.0017682047
-0.010971954
0.0019999079
-0.012369065
0.0022617036
-0.01392912
0.0025555071
-0.015665135
0.0028821176
-0.017587883
0.003240595
-0.019704143
0.0036271266
-0.022016944
0.0040381838
-0.024526201
0.0044698287
-0.027235861
0.0049282121
-0.030135266
0.0053899488
-0.033203901
0.0058369384
-0.036409923
0.006246112
-0.039702469
0.006580354
-0.043006499
0.0068003731
-0.04617809
0.0068176414
-0.049022168
0.006447366
-0.05131345
0.0055342144
-0.052613138
0.0038758774
-0.05225735
0.0010253677
-0.049282101
-0.0036430873
-0.04244773
-0.010592636
-0.03090053
-0.019111589
-0.015042843
-0.027043095
0.003937044
-0.033018403
0.024226055
-0.035710551
0.044599
-0.035854225
-0.035236284
0.06452729
-2.2442228e-07
5.8607982e-07
-9.9442113e-07
2.0109149e-06
-2.4860141e-06
3.8949739e-06
-4.9183138e-06
6.3495892e-06
-8.5623383e-06
9.5085088e-06
-1.3751234e-05
1.3531258e-05
-2.0891921e-05
1.8606571e-05
-3.0478192e-05
2.495574e-05
-4.3105065e-05
3.2835466e-05
-5.9484173e-05
4.2539944e-05
-8.0459588e-05
5.4401406e-05
-0.00010702334
6.8788546e-05
-0.00014032938
8.6101846e-05
-0.00018170442
0.00010676486
-0.00023265367
0.0001312105
-0.00029485909
0.0001598619
-0.00037016777
0.00019310775
-0.00046056857
0.00023127386
-0.00056815616
0.00027459465
-0.00069508441
0.00032319127
-0.00084351475
0.00037706662
-0.0010155709
0.00043613112
-0.0012133176
0.00050027349
-0.0014387855
0.00056948549
-0.001694063
0.00064403834
-0.0019814725
0.00072468286
-0.0023038207
0.00081274091
-0.0026646445
0.00090994789
-0.0030678213
0.0010175582
-0.0035179272
0.0011375531
-0.0040204349
0.0012723365
-0.0045817496
0.0014244737
-0.0052092443
0.0015967212
-0.0059113117
0.001792087
-0.0066974069
0.0020138521
-0.0075780573
0.0022655495
-0.0085648055
0.0025508655
-0.009670065
0.0028734642
-0.010906821
0.0032366638
-0.012288085
0.0036429677
-0.013826217
0.004093639
-0.015531957
0.0045878579
-0.017412992
0.0051216295
-0.01947284
0.0056869752
-0.021709669
0.0062750127
-0.024119455
0.0068796145
-0.026698089
0.0075068458
-0.02942591
0.0081177702
-0.032273158
0.0086841867
-0.03519708
0.0091700342
-0.038136004
0.0095192777
-0.040996772
0.0096611408
-0.043640307
0.0094611769
-0.045883473
0.008690532
-0.047453515
0.0071042556
-0.047917617
0.0043399794
-0.046643951
-0.00024829812
-0.042633237
-0.0076538012
-0.034596264
-0.018629609
-0.021603742
-0.032104111
-0.0043076366
-0.0443392
0.015872231
-0.05319827
0.037120707
-0.056959027
0.05830226
-0.057035779
-0.055663125
0.078729101
-2.106707e-07
7.9675053e-07
-9.3391831e-07
2.7341625e-06
-2.3357287e-06
5.2967843e-06
-4.6230208e-06
8.6368814e-06
-8.0521542e-06
1.2937642e-05
-1.2938836e-05
1.841794e-05
-1.9669532e-05
2.5337267e-05
-2.8714328e-05
3.4000536e-05
-4.0641272e-05
4.476241e-05
-5.6131864e-05
5.8030536e-05
-7.5997367e-05
7.4266909e-05
-0.00010119513
9.3986307e-05
-0.00013284394
0.00011775065
-0.00017223682
0.00014615774
-0.0002208494
0.00017982308
-0.00028034141
0.00021935391
-0.00035254873
0.00026531507
-0.00043946361
0.00031818874
-0.00054320156
0.0003783326
-0.00066595545
0.00044594516
-0.00080994157
0.00052105274
-0.00097734715
0.0006035367
-0.0011702963
0.00069322261
-0.0013908573
0.00079004651
-0.0016411171
0.00089429817
-0.0019233502
0.0010069159
-0.0022402613
0.001129652
-0.0025951915
0.0012648781
-0.0029918714
0.0014142381
-0.0034347446
0.0015804263
-0.0039290866
0.0017666785
-0.0044810594
0.0019764466
-0.0050977426
0.0022134044
-0.005787158
0.0024815024
-0.0065582705
0.0027849647
-0.00742094
0.003128219
-0.0083858138
0.0035157392
-0.0094641092
0.0039517596
-0.010667217
0.0044397712
-0.012006018
0.0049817691
-0.013489964
0.0055775852
-0.015125947
0.0062238406
-0.01691654
0.0069122221
-0.018860194
0.0076306297
-0.020949761
0.0083645799
-0.023178388
0.009108241
-0.025527573
0.0098560306
-0.0279696
0.010559797
-0.030467526
0.011182113
-0.032971618
0.011674126
-0.035415049
0.011962709
-0.037701313
0.011947404
-0.039691893
0.011451757
-0.041201674
0.010200314
-0.041953834
0.0078564153
-0.04153257
0.0039187156
-0.039325607
-0.002455261
-0.03431329
-0.012666118
-0.025138492
-0.027804407
-0.010848728
-0.046393875
0.007474088
-0.062662016
0.028171239
-0.073895421
0.049505605
-0.078293393
0.070272355
-0.077802528
-0.07528202
0.08989125
-1.8980449e-07
9.8655502e-07
-8.4203095e-07
3.386389e-06
-2.1072866e-06
6.56204e-06
-4.1737386e-06
1.0703333e-05
-7.2751009e-06
1.6039004e-05
-1.1700036e-05
2.2842875e-05
-1.7803029e-05
3.144026e-05
-2.6016904e-05
4.2214411e-05
-3.6866841e-05
5.5612346e-05
-5.0985967e-05
7.2149662e-05
-6.9132009e-05
9.241295e-05
-9.2204667e-05
0.00011705897
-0.00012126258
0.00014680857
-0.00015753884
0.000182434
-0.00020245287
0.00022473712
-0.00025761668
0.00027451772
-0.0003248322
0.00033253059
-0.00040607723
0.00039943377
-0.00050347713
0.00047573251
-0.00061926162
0.00056172965
-0.00075570875
0.00065749987
-0.00091508403
0.00076291199
-0.0010995895
0.00087772804
-0.0013113458
0.0010018028
-0.0015524354
0.0011353878
-0.0018250359
0.0012795163
-0.0021316579
0.0014362741
-0.0024753319
0.0016085521
-0.0028597009
0.001798607
-0.003288938
0.0020096634
-0.0037679775
0.002245718
-0.0043025894
0.0025110584
-0.0048993937
0.0028102087
-0.0055658404
0.0031479491
-0.0063101289
0.0035292532
-0.007141125
0.0039592151
-0.0080682516
0.0044428659
-0.0091011306
0.0049846386
-0.010248911
0.005587552
-0.011519547
0.0062524047
-0.012918757
0.006976795
-0.014448562
0.0077536458
-0.016105671
0.008569331
-0.017881471
0.0094064296
-0.019765098
0.010248207
-0.021747379
0.011090522
-0.023796087
0.011904739
-0.025878448
0.012642159
-0.027953419
0.013257084
-0.029967369
0.013688076
-0.031850136
0.013845476
-0.033503017
0.013600286
-0.034786943
0.012735682
-0.035509528
0.010922899
-0.035391429
0.0077383169
-0.034030574
0.0025578599
-0.030836174
-0.0056496609
-0.024792986
-0.018709306
-0.014464473
-0.03813292
0.0009121593
-0.061770507
0.019718217
-0.081468073
0.040195553
-0.094372758
0.060607419
-0.098705259
0.079850535
-0.097045644
-0.09311307
0.097681585
-1.6219178e-07
1.1487468e-06
-7.2033724e-07
3.9445345e-06
-1.8045273e-06
7.64623e-06
-3.5778331e-06
1.2476639e-05
-6.243576e-06
1.8704747e-05
-1.0053942e-05
2.665324e-05
-1.5320141e-05
3.670646e-05
-2.2424191e-05
4.9318461e-05
-3.183253e-05
6.5020685e-05
-4.4111339e-05
8.4428471e-05
-5.9943534e-05
0.00010824515
-8.0147078e-05
0.00013726251
-0.00010569397
0.00017235546
-0.0001377287
0.00021446873
-0.00017758478
0.00026459319
-0.00022679675
0.00032372968
-0.00028710498
0.00039283882
-0.00036044945
0.00047277824
-0.00044894894
0.000564232
-0.00055486285
0.00066764356
-0.00068053491
0.00078317192
-0.00082832354
0.00091070062
-0.0010005302
0.0010499347
-0.0011993479
0.0012006205
-0.0014268584
0.0013628983
-0.0016851035
0.0015377614
-0.0019762791
0.0017274497
-0.0023030328
0.0019353058
-0.0026690896
0.0021646639
-0.0030782107
0.0024187845
-0.00353476
0.0027022673
-0.004043956
0.0030202545
-0.0046118004
0.003378053
-0.0052449553
0.003781104
-0.0059506511
0.004234949
-0.0067366174
0.0047451814
-0.0076107709
0.0053170194
-0.0085806683
0.005954536
-0.0096528418
0.0066597255
-0.010831931
0.0074314936
-0.012119491
0.0082643551
-0.0135123
0.0091464549
-0.015001553
0.010058584
-0.016573065
0.010977942
-0.018214212
0.011889354
-0.019907149
0.012783458
-0.021617248
0.013614838
-0.023308153
0.014333064
-0.024936018
0.014884949
-0.026443964
0.015196022
-0.027757538
0.015159049
-0.028772555
0.014615303
-0.029341857
0.013304984
-0.029259357
0.010840398
-0.028236446
0.0067154068
-0.02587543
0.00019684319
-0.021600508
-0.0099245831
-0.01439972
-0.025910094
-0.0028350675
-0.049697573
0.013319338
-0.077924913
0.032031799
-0.10018053
0.051485783
-0.11382674
0.070060661
-0.11728014
0.087024624
-0.11400961
-0.10871317
0.10262472
-1.2849706e-07
1.2772439e-06
-5.7171207e-07
4.3877495e-06
-1.434482e-06
8.5089999e-06
-2.8489118e-06
1.3891069e-05
-4.9806795e-06
2.0836515e-05
-8.0366479e-06
2.9709209e-05
-1.227396e-05
4.0943772e-05
-1.8010881e-05
5.5055382e-05
-2.5639562e-05
7.2649366e-05
-3.5640901e-05
9.442981e-05
-4.8601563e-05
0.00012120581
-6.523315e-05
0.0001538941
-8.6392956e-05
0.00019351526
-0.00011310596
0.00024118174
-0.00014658633
0.00029807356
-0.0001882566
0.00036539995
-0.00023976145
0.00044434367
-0.00030297195
0.00053598874
-0.00037997527
0.00064123531
-0.00047304506
0.00076071336
-0.00058458845
0.00089471531
-0.00071706903
0.0010431812
-0.00087291395
0.0012057797
-0.0010544226
0.0013821291
-0.0012637073
0.0015721831
-0.0015026956
0.0017767497
-0.0017732618
0.0019980159
-0.0020776536
0.0022396976
-0.0024192609
0.0025062712
-0.0028016381
0.0028011618
-0.0032284922
0.0031291214
-0.0037043119
0.0034960741
-0.0042342817
0.0039080229
-0.0048241308
0.0043709531
-0.0054800473
0.0048908655
-0.006208425
0.005473559
-0.0070153972
0.0061239916
-0.0079062792
0.006845418
-0.0088848584
0.0076383047
-0.009952365
0.0084990001
-0.011106251
0.0094182414
-0.012338881
0.010379085
-0.013636759
0.011356462
-0.014982898
0.01232408
-0.016362631
0.013269087
-0.017747968
0.014168795
-0.019106527
0.014973397
-0.020401773
0.01562831
-0.021587215
0.016070392
-0.022600756
0.016209563
-0.02336046
0.015918753
-0.023752909
0.015007752
-0.023618385
0.01317046
-0.022731027
0.0099530405
-0.020780033
0.0047644124
-0.017373869
-0.0032093201
-0.011920028
-0.015378425
-0.0033792915
-0.03445083
0.0093566942
-0.062433558
0.02596501
-0.094533229
0.043925987
-0.11814151
0.061594975
-0.13149573
0.077671811
-0.13335697
0.092053142
-0.12839094
-0.12216948
0.10550945
-8.9738211e-08
1.3669821e-06
-4.0057914e-07
4.6985904e-06
-1.0080363e-06
9.1164571e-06
-2.0081482e-06
1.4891181e-05
-3.5226064e-06
2.2350973e-05
-5.7050615e-06
3.1891664e-05
-8.7488883e-06
4.3987599e-05
-1.289672e-05
5.9203214e-05
-1.8451975e-05
7.8204621e-05
-2.5792838e-05
0.00010177067
-3.5388894e-05
0.00013080186
-4.782064e-05
0.00016632584
-6.3802055e-05
0.00020949668
-8.4205648e-05
0.00026158533
-0.00011008951
0.00032395742
-0.00014272424
0.00039803469
-0.0001836173
0.00048523673
-0.00023453021
0.00058690165
-0.0002974827
0.0007041878
-0.00037473611
0.00083796677
-0.00046874898
0.00098872817
-0.00058209866
0.0011565309
-0.00071737006
0.0013410511
-0.00087702357
0.0015417826
-0.0010632734
0.0017584329
-0.001278023
0.0019914993
-0.0015229219
0.0022429148
-0.0017996594
0.0025164351
-0.0021106126
0.0028172244
-0.002459456
0.0031500051
-0.0028495679
0.0035192333
-0.0032843423
0.0039308485
-0.003767958
0.0043916386
-0.0043051491
0.0049081442
-0.0049009293
0.0054866457
-0.0055601872
0.006132817
-0.0062871963
0.0068510007
-0.0070850246
0.0076432464
-0.0079547368
0.0085080168
-0.0088943445
0.0094386079
-0.0098976377
0.010421535
-0.010953674
0.011435122
-0.012046223
0.01244901
-0.01315814
0.013435998
-0.014269543
0.014380491
-0.015347798
0.01524705
-0.016358475
0.015984074
-0.017264136
0.016533971
-0.018016784
0.01682304
-0.018548437
0.016741216
-0.01876573
0.016136045
-0.018544766
0.014786789
-0.01771197
0.012337664
-0.016016592
0.008257662
-0.013124201
0.001872022
-0.0086252858
-0.0077082356
-0.0019268832
-0.022076827
0.0080347566
-0.04441247
0.021822243
-0.076221044
0.038398256
-0.11110924
0.054924878
-0.13466813
0.070226284
-0.14679714
0.083459992
-0.14659068
0.095403572
-0.14033452
-0.13395679
0.10719088
-4.7312556e-08
1.4142946e-06
-2.1306626e-07
4.8643441e-06
-5.4033786e-07
9.4437287e-06
-1.0851389e-06
1.5435982e-05
-1.9201273e-06
2.3185962e-05
-3.1393733e-06
3.311091e-05
-4.8644849e-06
4.5712711e-05
-7.2523695e-06
6.1591098e-05
-1.0505167e-05
8.1457419e-05
-1.4882731e-05
0.00010614824
-2.0718283e-05
0.00013663742
-2.8437749e-05
0.00017404531
-3.8583294e-05
0.00021964222
-5.1841091e-05
0.00027484313
-6.9073488e-05
0.00034118982
-9.1354124e-05
0.00042031532
-0.00012000387
0.00051388648
-0.00015662306
0.00062352084
-0.00020311395
0.00075067869
-0.00026168336
0.00089653618
-0.0003348142
0.001061859
-0.0004251948
0.0012469115
-0.00053559758
0.0014514538
-0.00066871161
0.0016748966
-0.00082695366
0.0019166749
-0.001012311
0.0021768566
-0.0012262839
0.0024568878
-0.0014700424
0.0027601936
-0.0017449466
0.0030921286
-0.0020537574
0.0034588158
-0.0023998904
0.0038653664
-0.0027862756
0.0043172337
-0.003215748
0.004821111
-0.0036917737
0.0053841699
-0.0042180604
0.0060129323
-0.0047979563
0.0067127129
-0.0054339094
0.0074869538
-0.0061268181
0.0083361551
-0.0068752166
0.0092564153
-0.0076743167
0.010237708
-0.0085151212
0.011262339
-0.00938419
0.01230419
-0.01026412
0.013328941
-0.011137607
0.014309484
-0.011979473
0.015222357
-0.012755723
0.016023299
-0.013428677
0.016657028
-0.013955611
0.017060904
-0.014282207
0.017149636
-0.014333976
0.016792985
-0.014008023
0.015810092
-0.013169217
0.013947983
-0.011627308
0.010795754
-0.0091055906
0.0057359448
-0.0052454396
-0.001988129
0.0003549803
-0.013308655
0.008324589
-0.030046436
0.019668447
-0.055756328
0.034215727
-0.090768324
0.0501232
-0.12701672
0.064728743
-0.14927368
0.077163029
-0.15923142
0.087639011
-0.15706666
0.097630153
-0.15032566
-0.14472256
0.10839592
-2.987858e-09
1.4172825e-06
-1.6923366e-08
4.8782796e-06
-5.0573555e-08
9.4773789e-06
-1.1743828e-07
1.5502847e-05
-2.3787623e-07
2.33064e-05
-4.4206784e-07
3.3315101e-05
-7.7415528e-07
4.6044798e-05
-1.2978865e-06
6.211483e-05
-2.1043794e-06
8.2263912e-05
-3.3224767e-06
0.00010736633
-5.1327071e-06
0.00013844765
-7.7853818e-06
0.00017669798
-1.1624115e-05
0.00022348095
-1.7115381e-05
0.0002803344
-2.488471e-05
0.00034895915
-3.5759381e-05
0.00043118999
-5.0815999e-05
0.0005289431
-7.1429769e-05
0.00064413461
-9.9318236e-05
0.00077856716
-0.00013656962
0.00093378756
-0.0001856403
0.0011109297
-0.00024930345
0.0013105746
-0.00033053255
0.0015326829
-0.00043231018
0.0017766743
-0.00055737562
0.0020417404
-0.00070795859
0.0023274396
-0.00088559262
0.0026345218
-0.0010911288
0.0029657298
-0.0013250853
0.003326085
-0.0015884901
0.0037222206
-0.0018839298
0.0041608062
-0.0022144185
0.0046477223
-0.0025821687
0.0051888612
-0.0029892526
0.0057912538
-0.0034378551
0.0064615349
-0.0039296968
0.0072045546
-0.0044653789
0.0080226359
-0.0050437328
0.008914509
-0.0056611175
0.0098738001
-0.0063104224
0.010887013
-0.006980603
0.01193252
-0.007656734
0.012980321
-0.0083213797
0.013993587
-0.008954973
0.014943077
-0.009528562
0.015795946
-0.010005787
0.016500524
-0.01034561
0.016996852
-0.010499358
0.017214652
-0.010402806
0.017053084
-0.0099714182
0.016361597
-0.0090931455
0.014931819
-0.0076211325
0.01247597
-0.0053456143
0.0085202362
-0.0019683507
0.0023586812
0.0028732273
-0.006829707
0.0095549279
-0.019990356
0.018791396
-0.039282904
0.031394022
-0.068358954
0.046220282
-0.10559458
0.060616322
-0.14141275
0.072844592
-0.16150195
0.082319868
-0.1687067
0.090559783
-0.16530658
0.099268319
-0.1590342
-0.15506247
0.10960823
4.1147898e-08
1.3761346e-06
1.7867884e-07
4.7407487e-06
4.3849052e-07
9.2175672e-06
8.5024099e-07
1.5091096e-05
1.4469534e-06
2.2709687e-05
2.2640532e-06
3.2498001e-05
3.3375259e-06
4.4971325e-05
4.7007518e-06
6.0751604e-05
6.3795125e-06
8.0585151e-05
8.3843715e-06
0.00010536148
1.0699539e-05
0.00013613248
1.3266929e-05
0.00017413059
1.5964265e-05
0.00022078362
1.8575378e-05
0.00027772328
2.0751805e-05
0.00034678272
2.1964196e-05
0.0004299776
2.1443989e-05
0.0005294633
1.8117782e-05
0.00064746082
1.053962e-05
0.00078614532
-3.167954e-06
0.00094749514
-2.5347835e-05
0.0011331096
-5.879263e-05
0.0013440194
-0.00010665303
0.0015805433
-0.00017224626
0.0018422675
-0.00025875796
0.0021282521
-0.00036887059
0.0024375522
-0.00050440169
0.0027700529
-0.00066614774
0.0031274759
-0.00085409047
0.0035140277
-0.0010680201
0.0039361503
-0.0013084624
0.0044012485
-0.0015769349
0.0049161948
-0.0018756358
0.0054875622
-0.0022062677
0.0061218857
-0.0025696038
0.006824871
-0.0029656784
0.0076006291
-0.0033933343
0.0084502919
-0.0038495859
0.0093707606
-0.004328973
0.010353187
-0.0048226941
0.011380734
-0.0053183353
0.012428161
-0.0057997615
0.013461748
-0.0062485152
0.01444234
-0.0066415461
0.015336108
-0.0069473145
0.016101715
-0.0071266647
0.016679874
-0.0071328039
0.017002991
-0.0069092975
0.016991146
-0.0063837346
0.016527521
-0.0054612809
0.015439144
-0.0040192072
0.013489746
-0.0018951337
0.010351896
0.0011385731
0.0054865294
0.0053958952
-0.0018986409
0.01120422
-0.012638032
0.018930724
-0.027716859
0.029405809
-0.049757989
0.042930567
-0.081883713
0.057397072
-0.12006109
0.069622793
-0.15363848
0.079139223
-0.17101838
0.085998247
-0.17556572
0.09264671
-0.17195504
0.10072715
-0.16711464
-0.16536221
0.1110269
8.27527e-08
1.2933819e-06
3.6340699e-07
4.4600944e-06
9.0113798e-07
8.6798362e-06
1.7672524e-06
1.4224982e-05
3.046645e-06
2.1430295e-05
4.8389391e-06
3.0705707e-05
7.2591761e-06
4.2551088e-05
1.0437519e-05
5.7573261e-05
1.4517485e-05
7.6505185e-05
1.9651894e-05
0.00010022707
2.5995412e-05
0.00012978896
3.3692428e-05
0.00016643358
4.2858306e-05
0.00021161774
5.355208e-05
0.00026702951
6.5738257e-05
0.00033459654
7.9235436e-05
0.00041648042
9.3650411e-05
0.00051504833
0.00010829777
0.00063281346
0.00012210866
0.00077233443
0.00013353787
0.00093606593
0.00014048598
0.0011261615
0.00014026261
0.0013442428
0.00012962804
0.0015911779
0.00010495295
0.0018669426
6.2527594e-05
0.0021706774
-9.846377e-07
0.0025010644
-8.8038762e-05
0.002857107
-0.00019977168
0.0032392088
-0.00033593585
0.0036501919
-0.00049541325
0.0040956277
-0.00067712975
0.004582965
-0.00088089484
0.0051199599
-0.0011072868
0.0057139541
-0.001356762
0.0063713609
-0.0016292232
0.0070973322
-0.0019235712
0.0078949771
-0.0022373088
0.0087640294
-0.0025661326
0.0096995844
-0.002903024
0.010690079
-0.0032377994
0.011715509
-0.0035569576
0.012747319
-0.0038432316
0.013748022
-0.0040758014
0.01467491
-0.0042274588
0.015487765
-0.0042634896
0.016137746
-0.0041413913
0.016557776
-0.003808402
0.016670002
-0.0031995157
0.01638226
-0.0022335076
0.015561513
-0.00080802356
0.01401366
0.0012083239
0.011473398
0.0039975108
0.0075627094
0.007809333
0.0016747072
0.012950944
-0.0070402522
0.01967404
-0.019361128
0.028410015
-0.036452834
0.03999774
-0.061345714
0.053902639
-0.095788612
0.067276604
-0.13343505
0.077034293
-0.16339616
0.083706331
-0.17769042
0.088574382
-0.18043377
0.094294394
-0.17767505
0.10222455
-0.1750448
-0.17578219
0.11264453
1.1922985e-07
1.174152e-06
5.2576993e-07
4.0535543e-06
1.3086642e-06
7.8969419e-06
2.5768984e-06
1.2956748e-05
4.4626346e-06
1.9544558e-05
7.1245966e-06
2.8043745e-05
1.0751324e-05
3.892436e-05
1.5564031e-05
5.2760554e-05
2.1818474e-05
7.0250742e-05
2.9805106e-05
9.2240435e-05
3.984645e-05
0.00011974762
5.2290039e-05
0.00015398999
6.749515e-05
0.00019641263
8.5810518e-05
0.00024871414
0.00010754007
0.00031286699
0.00013289317
0.00039112732
0.00016191602
0.00048602548
0.00019440159
0.00060032789
0.00022977905
0.00073695697
0.0002669874
0.00089885757
0.00030434795
0.0010888009
0.00033946181
0.0013091289
0.00036917405
0.0015614657
0.00038965979
0.0018464569
0.00039668857
0.0021636486
0.00038610243
0.0025116506
0.00035448206
0.0028887274
0.00029983846
0.0032938524
0.00022205239
0.003727978
0.00012271183
0.0041949682
4.155042e-06
0.0047015217
-0.0001314755
0.0052555904
-0.00028270711
0.0058651857
-0.00044845439
0.0065371082
-0.00062731909
0.0072761969
-0.00081704516
0.0080847032
-0.0010139642
0.0089609484
-0.0012124438
0.009898064
-0.0014042226
0.010881857
-0.0015780078
0.011889295
-0.0017189304
0.012888242
-0.0018082587
0.01383735
-0.0018226361
0.014689288
-0.0017312258
0.015396355
-0.0014951104
0.01590163
-0.0010671134
0.016129779
-0.00038868647
0.015991575
0.00061335346
0.01538022
0.0020281573
0.014146709
0.0039633407
0.012078476
0.0065634898
0.0088732491
0.010029823
0.0040963761
0.014629879
-0.0029253486
0.020619391
-0.013029764
0.028173548
-0.026915286
0.037860064
-0.04613935
0.050287419
-0.073773068
0.063906283
-0.10940748
0.075354724
-0.1448835
0.082476132
-0.17051757
0.086720566
-0.18193485
0.090365952
-0.18407916
0.09576138
-0.18307048
0.10380413
-0.18308754
-0.18630856
0.1143305
1.4801642e-07
1.0261356e-06
6.5438528e-07
3.5471854e-06
1.6325549e-06
6.9187723e-06
3.2225954e-06
1.1366707e-05
5.5961322e-06
1.7171022e-05
8.9617952e-06
2.4678082e-05
1.3571104e-05
3.4315052e-05
1.9724442e-05
4.6607216e-05
2.7776858e-05
6.2198326e-05
3.8142871e-05
8.1874422e-05
5.1299389e-05
0.0001065911
6.7785252e-05
0.00013750413
8.8195307e-05
0.00017600258
0.00011316623
0.00022374322
0.00014335037
0.00028268285
0.00017937317
0.00035510452
0.00022176893
0.00044362972
0.00027088967
0.00055120715
0.00032678351
0.00068106313
0.00038904272
0.00083659837
0.0004566295
0.0010212141
0.00052770115
0.0012380573
0.00059947503
0.0014896918
0.00066819672
0.0017777352
0.00072929355
0.0021025518
0.00077779164
0.0024631525
0.00080902947
0.0028574896
0.00081958371
0.0032832982
0.00080812189
0.0037394398
0.00077581045
0.0042272797
0.00072532999
0.0047520022
0.00066191693
0.0053190035
0.00058865409
0.0059384486
0.00050878327
0.006616979
0.00042538721
0.007359593
0.00034208098
0.0081680094
0.00026380524
0.0090392242
0.0001974154
0.0099644539
0.00015230366
0.010926969
0.00014090504
0.011900693
0.00017939433
0.012849752
0.00028824545
0.013728499
0.00049367013
0.014483863
0.00083012967
0.015059895
0.0013406744
0.015391086
0.0020772724
0.015393181
0.0031044265
0.014964421
0.0045033252
0.013981321
0.0063691076
0.012280927
0.008818874
0.0096287098
0.012013977
0.0056781459
0.016169692
-5.9338575e-05
0.021542293
-0.0082979493
0.028284084
-0.019771555
0.036560388
-0.035191591
0.047091238
-0.056670199
0.059933367
-0.086615198
0.072506739
-0.12198085
0.081486367
-0.15386312
0.086063393
-0.1750946
0.088581292
-0.18445275
0.091701803
-0.18719967
0.097185539
-0.18855422
0.10539657
-0.19129857
-0.19684142
0.11592943
1.6690196e-07
8.5923365e-07
7.3934394e-07
2.9747435e-06
1.8477987e-06
5.8103176e-06
3.6544013e-06
9.5601046e-06
6.359296e-06
1.4466127e-05
1.0207952e-05
2.0829426e-05
1.5499308e-05
2.9023696e-05
2.2594804e-05
3.951172e-05
3.1927897e-05
5.2865233e-05
4.4013689e-05
6.978863e-05
5.9457829e-05
9.1146958e-05
7.8963528e-05
0.00011799843
0.00010333456
0.00015163154
0.00013347194
0.00019360584
0.00017035998
0.00024579481
0.00021503694
0.00031042756
0.00026854349
0.00039012317
0.00033184181
0.00048790884
0.00040569652
0.00060720841
0.00049051253
0.00075178236
0.00058612825
0.00092559841
0.00069157612
0.0011326094
0.00080484159
0.0013764263
0.00092268128
0.0016598955
0.0010405947
0.0019846384
0.001153069
0.0023506781
0.0012542048
0.0027563538
0.0013387445
0.0031987585
0.0014033343
0.00367485
0.0014475028
0.0041831111
0.0014739434
0.0047255616
0.0014873162
0.0053056307
0.0014941546
0.0059316101
0.0015014211
0.0066097126
0.0015138944
0.0073471196
0.0015372313
0.0081446726
0.0015777769
0.0089986785
0.0016435704
0.0098986604
0.0017452195
0.01082532
0.0018964411
0.011749471
0.0021149157
0.012631278
0.002423121
0.013420293
0.0028498945
0.014057089
0.0034331242
0.014476666
0.0042203282
0.014603881
0.0052685723
0.014344937
0.0066475853
0.013585408
0.0084440181
0.012184888
0.01076336
0.0099615853
0.013736083
0.0066559868
0.017533308
0.0018809211
0.022371834
-0.0048978654
0.028438597
-0.014364712
0.035769764
-0.027102722
0.044656439
-0.044078265
0.055871555
-0.067885315
0.068552519
-0.099296161
0.079304479
-0.13273281
0.085552652
-0.1601113
0.088067958
-0.1776099
0.089672487
-0.18605728
0.092821026
-0.19034821
0.098570267
-0.19430346
0.10688516
-0.19961347
-0.20727911
0.11732285
1.7440489e-07
6.8482876e-07
7.7394907e-07
2.3751993e-06
1.9373428e-06
4.6469238e-06
3.8378948e-06
7.6595526e-06
6.6909116e-06
1.161311e-05
1.076234e-05
1.6757998e-05
1.6378827e-05
2.3407209e-05
2.3939175e-05
3.1951372e-05
3.3927173e-05
4.2877235e-05
4.6925625e-05
5.6790178e-05
6.3631034e-05
7.4441548e-05
8.4868122e-05
9.676134e-05
0.00011160276
0.00012489691
0.00014495084
0.00016025775
0.00018617993
0.00020456572
0.00023669825
0.00025990923
0.00029802442
0.000328797
0.00037172829
0.00041420497
0.00045933239
0.0005196043
0.000562161
0.00064895376
0.00068112747
0.00080663193
0.00081645661
0.0009972803
0.00096735638
0.0012255265
0.0011316825
0.0014955694
0.0013056833
0.0018106376
0.001483962
0.0021723994
0.0016598276
0.0025804881
0.0018261792
0.003032407
0.0019769305
0.0035240987
0.0021087476
0.004051294
0.0022231957
0.0046111135
0.0023233418
0.0052054846
0.0024169043
0.0058380476
0.0025128209
0.0065137959
0.0026197612
0.0072401794
0.0027481427
0.0080162911
0.002905917
0.0088409042
0.0031025349
0.0097020425
0.003349727
0.010578128
0.0036626401
0.011436558
0.0040607292
0.012233189
0.0045686505
0.012912372
0.0052179776
0.013407762
0.0060499016
0.013644742
0.0071161684
0.013537615
0.0084789345
0.012982171
0.010213217
0.011851126
0.012411403
0.0099867016
0.015188259
0.0071847296
0.018682855
0.0031613909
0.023072721
-0.002508945
0.028533192
-0.010358336
0.035119965
-0.020951486
0.042839339
-0.034822096
0.052285179
-0.053524106
0.063981903
-0.079582039
0.075763659
-0.11107792
0.083936295
-0.14090544
0.087690626
-0.16386563
0.088928051
-0.17884733
0.0903514
-0.18748063
0.093834352
-0.19383116
0.099847751
-0.20031686
0.10816462
-0.20793033
-0.21756061
0.11844612
1.7035026e-07
5.144785e-07
7.5720864e-07
1.7883409e-06
1.8982479e-06
3.5058845e-06
3.7663499e-06
5.7914506e-06
6.5775063e-06
8.8019537e-06
1.0600265e-05
1.2735239e-05
1.6166913e-05
1.7840562e-05
2.3686609e-05
2.4431676e-05
3.3660664e-05
3.290318e-05
4.6699952e-05
4.375089e-05
6.3544462e-05
5.7597038e-05
8.508451e-05
7.5221292e-05
0.00011238287
9.7598548e-05
0.00014669619
0.00012594443
0.00018949304
0.00016176887
0.00024246454
0.00020693773
0.00030752095
0.00026374059
0.00038676533
0.00033496059
0.00048243128
0.00042393835
0.00059676915
0.00053461589
0.00073186206
0.00067153903
0.00088935486
0.0008397875
0.0010700886
0.0010447928
0.0012736546
0.0012920034
0.0014979261
0.0015863661
0.0017386878
0.0019316377