/*--------------------------------*- C++ -*----------------------------------*\
  =========                 |
  \\      /  F ield         | OpenFOAM: The Open Source CFD Toolbox
   \\    /   O peration     | Website:  https://openfoam.org
    \\  /    A nd           | Version:  13
     \\/     M anipulation  |
\*---------------------------------------------------------------------------*/
FoamFile
{
    format      ascii;
    class       volVectorField;
    location    "12.503748";
    object      wallShearStress;
}
// * * * * * * * * * * * * * * * * * * * * * * * * * * * * * * * * * * * * * //

dimensions      [0 2 -2 0 0 0 0];

internalField   uniform (0 0 0);

boundaryField
{
    inlet
    {
        type            calculated;
        value           uniform (0 0 0);
    }
    outlet
    {
        type            calculated;
        value           uniform (0 0 0);
    }
    cylinder
    {
        type            calculated;
        value           nonuniform List<vector> 
132
(
(6.7870095e-05 -0.00035877527 -8.3858614e-23)
(0.00029957312 -0.005781987 2.4149382e-23)
(0.00082768598 -0.011115326 1.4050191e-21)
(0.00163724 -0.016182787 -5.0906419e-21)
(0.0026933196 -0.020805123 3.9571697e-21)
(0.0039412064 -0.024811609 1.3456054e-20)
(0.0053066882 -0.0280481 -2.8444042e-21)
(0.006700906 -0.030385424 -1.2520678e-20)
(0.0080251414 -0.031728914 1.3000882e-20)
(0.0091752549 -0.032028209 -3.1738176e-20)
(0.010050781 -0.031284483 -6.2003482e-22)
(0.010564458 -0.029555897 2.2430157e-20)
(0.01065251 -0.02695976 3.8173416e-20)
(0.010286931 -0.023675578 -3.1899123e-20)
(0.0094820244 -0.019931209 3.4099583e-20)
(0.008301061 -0.01599157 5.506681e-20)
(0.0068496485 -0.012126182 -3.5855311e-20)
(0.0052614287 -0.0085795982 5.6741624e-20)
(0.0036805559 -0.005539009 7.3684e-20)
(0.0022370226 -0.0031141752 -4.6852418e-20)
(0.0010187366 -0.0013186228 -5.8555562e-20)
(7.5777726e-05 -0.00010636321 2.0217686e-23)
(-0.00061325926 0.00065363261 8.2158311e-21)
(-0.0010844582 0.0010767299 -9.7071617e-21)
(-0.0014086839 0.0012921868 -1.6329698e-20)
(-0.0015200005 0.0012846446 3.4540083e-21)
(-0.0013508252 0.001051518 -3.0837884e-20)
(-0.00058817524 0.00042799493 8.1418152e-21)
(0.00069694812 -0.00043260924 6.3517387e-21)
(0.0020693835 -0.0011875167 -4.3659331e-20)
(0.0031519027 -0.0016317169 5.7140257e-20)
(0.0037029507 -0.0017077797 1.7346694e-21)
(0.0039312726 -0.0015928686 1.2522301e-20)
(0.0040596251 -0.0014203659 -1.482479e-20)
(0.0041997293 -0.00124092 4.7031125e-20)
(0.0042222 -0.00102167 -2.9711785e-21)
(0.003928077 -0.00074325736 1.1986029e-20)
(0.0030996046 -0.00042585597 -1.6485842e-21)
(0.0015129063 -0.00013619221 2.375221e-21)
(-0.0010710129 9.3225833e-06 -1.4921997e-21)
(-0.005059281 -0.00017216758 2.8176148e-21)
(-0.010576605 -0.00099289159 -8.8323285e-23)
(-0.017256456 -0.002664738 3.2984637e-20)
(-0.024700275 -0.0053452199 -1.2957661e-20)
(-0.032331951 -0.0090588683 1.1912209e-20)
(-0.039648673 -0.013728883 -7.7835444e-20)
(-0.046126757 -0.019154468 -1.2734099e-20)
(-0.051406528 -0.025075024 1.1305421e-19)
(-0.055243119 -0.031196585 -9.712268e-20)
(-0.057536305 -0.037232359 -1.8594646e-21)
(-0.058261687 -0.042894149 2.9554236e-20)
(-0.057529344 -0.04796041 -2.6583764e-20)
(-0.055433099 -0.052187158 -5.0479135e-21)
(-0.052161474 -0.055407642 -2.9386307e-21)
(-0.047955783 -0.057526984 -2.659859e-21)
(-0.042999331 -0.058409651 -5.5017692e-21)
(-0.03754118 -0.058021972 7.3014634e-22)
(-0.031809777 -0.056342142 5.4204519e-20)
(-0.02603424 -0.053392392 -7.9968678e-20)
(-0.020432203 -0.049227971 -8.3802954e-20)
(-0.015206072 -0.043936369 -3.3660078e-20)
(-0.010538633 -0.03763456 -7.6662088e-20)
(-0.0065890835 -0.030465522 1.7032787e-20)
(-0.0034877061 -0.022594501 2.4717217e-20)
(-0.0013398985 -0.014217726 -3.8354672e-20)
(-0.00020355125 -0.0054973242 -5.119932e-21)
(0.00013094136 0.0050397353 -3.9333102e-22)
(0.00048537651 0.010350006 -2.4694639e-23)
(0.0011243739 0.015452917 -1.5320996e-21)
(0.0020233513 0.020175837 5.6650846e-21)
(0.0031386129 0.024350488 -4.4554721e-21)
(0.0044082105 0.027822125 -1.520768e-20)
(0.0057518165 0.030456436 3.208067e-21)
(0.0070801198 0.032146902 1.4035238e-20)
(0.0082947619 0.032827653 -1.4449499e-20)
(0.0092965434 0.032477907 3.4930638e-20)
(0.0099938468 0.031128867 6.7556942e-22)
(0.010312396 0.028868678 -2.4188543e-20)
(0.010205021 0.025842277 -4.0774714e-20)
(0.0096629499 0.022252061 3.3778943e-20)
(0.008719396 0.018338536 -3.5840887e-20)
(0.0074543244 0.014367546 -5.7527828e-20)
(0.005981213 0.010594746 3.7291491e-20)
(0.0044343904 0.0072360002 -5.8845797e-20)
(0.0029482431 0.004441621 -7.6312714e-20)
(0.001631719 0.0022770745 4.8517374e-20)
(0.00055529793 0.00072895161 6.068054e-20)
(-0.00025703186 -0.00028724857 5.3430318e-20)
(-0.00083641986 -0.00089725887 4.3267437e-20)
(-0.0012296389 -0.0012231022 1.0094131e-20)
(-0.001471846 -0.0013517241 1.6990424e-20)
(-0.0014739225 -0.001247734 -3.5944755e-21)
(-0.0011273004 -0.00088101676 3.2110966e-20)
(-0.00016277458 -0.00012914671 -8.4952471e-21)
(0.0012018664 0.00075683733 -6.644752e-21)
(0.0024833971 0.0014292373 4.5788313e-20)
(0.0033620518 0.0017428128 -5.997697e-20)
(0.0037580225 0.001734222 -1.809878e-21)
(0.0039269543 0.0015913159 2.9884878e-20)
(0.0040621096 0.001421243 1.5555508e-20)
(0.0041839299 0.0012366032 -4.9393478e-20)
(0.0041229337 0.00099848406 3.1240862e-21)
(0.0036806729 0.00069790626 9.2020922e-21)
(0.0026390623 0.00036536361 1.7374952e-21)
(0.00077698705 7.8442003e-05 -2.5052847e-21)
(-0.0021585077 -3.5146467e-05 1.5740586e-21)
(-0.006546648 0.00022249305 -2.9697298e-21)
(-0.012444643 0.0011645855 2.4479495e-20)
(-0.019427844 0.0029967195 -3.4522432e-20)
(-0.027048308 0.005850088 1.3485349e-20)
(-0.03471214 0.0097226207 -1.2317161e-20)
(-0.041947061 0.01452223 7.9914603e-20)
(-0.048223677 0.020022749 1.2971749e-20)
(-0.053229002 0.025960705 -1.1424619e-19)
(-0.056752454 0.032045748 9.726805e-20)
(-0.058714926 0.037992033 1.8437262e-21)
(-0.059111349 0.04351679 -2.8934933e-20)
(-0.05807994 0.048416642 2.5583871e-20)
(-0.055699111 0.052434693 -3.797189e-20)
(-0.052181864 0.055426572 2.5496119e-21)
(-0.047783914 0.057317909 -1.4038597e-21)
(-0.042660352 0.057946056 7.0572463e-21)
(-0.037083868 0.057311763 -8.1688784e-22)
(-0.031272851 0.055387219 -5.8231352e-20)
(-0.025456966 0.052203848 8.4187918e-20)
(-0.019851156 0.047822245 8.7110318e-20)
(-0.014654181 0.042334089 3.4671588e-20)
(-0.010045246 0.035861721 7.8406974e-20)
(-0.0061786734 0.028550653 -1.7317883e-20)
(-0.0031799037 0.020570983 4.9584401e-20)
(-0.0011487117 0.012113154 3.8611885e-20)
(-0.00014088034 0.0033721318 5.1342544e-21)
)
;
    }
    frontAndBack
    {
        type            empty;
    }
}


// ************************************************************************* //
