/*--------------------------------*- C++ -*----------------------------------*\
  =========                 |
  \\      /  F ield         | OpenFOAM: The Open Source CFD Toolbox
   \\    /   O peration     | Website:  https://openfoam.org
    \\  /    A nd           | Version:  13
     \\/     M anipulation  |
\*---------------------------------------------------------------------------*/
FoamFile
{
    format      ascii;
    class       volVectorField;
    location    "30.101394";
    object      wallShearStress;
}
// * * * * * * * * * * * * * * * * * * * * * * * * * * * * * * * * * * * * * //

dimensions      [0 2 -2 0 0 0 0];

internalField   uniform (0 0 0);

boundaryField
{
    inlet
    {
        type            calculated;
        value           uniform (0 0 0);
    }
    outlet
    {
        type            calculated;
        value           uniform (0 0 0);
    }
    cylinder
    {
        type            calculated;
        value           nonuniform List<vector> 
132
(
(-1.1735101e-05 0.0011717418 -2.5383543e-22)
(-3.0309809e-05 0.00083946661 7.2212642e-23)
(-3.0293415e-05 0.00049900875 3.9815146e-21)
(-1.1104171e-05 0.00015666639 -1.333791e-20)
(2.7271798e-05 -0.00018248325 9.3977182e-21)
(8.4111196e-05 -0.00051261106 2.8661914e-20)
(0.00015894416 -0.00082741423 -5.4206609e-21)
(0.00024954133 -0.0011209095 -2.1438312e-20)
(0.00035338254 -0.0013874407 2.0175886e-20)
(0.00046733988 -0.0016218894 -4.5179497e-20)
(0.00058771625 -0.0018199705 -8.2135086e-22)
(0.00071059337 -0.0019784343 2.8023389e-20)
(0.00083187441 -0.0020953159 4.5689501e-20)
(0.00094756517 -0.0021701613 -3.7114584e-20)
(0.0010540737 -0.0022041404 3.9095594e-20)
(0.0011485617 -0.0022001799 6.2967714e-20)
(0.00122923 -0.0021628429 -4.1299323e-20)
(0.0012957564 -0.0020984132 6.6322218e-20)
(0.0013494562 -0.0020144158 8.7800075e-20)
(0.0013938467 -0.0019197631 -5.7028404e-20)
(0.0014349226 -0.0018243389 -7.2784512e-20)
(0.0014811294 -0.0017382076 2.5649095e-23)
(0.0015438374 -0.0016715335 1.0586389e-20)
(0.0016363535 -0.0016328833 -1.2690889e-20)
(0.0017729275 -0.00162807 -2.1615701e-20)
(0.0019666717 -0.0016585344 4.6281588e-21)
(0.0022249038 -0.0017185213 -4.1829547e-20)
(0.0025433869 -0.0017931288 1.1186081e-20)
(0.0029085929 -0.0018634253 8.7905848e-21)
(0.0032950587 -0.0019074925 -6.0583127e-20)
(0.0036657114 -0.0019035824 7.9103604e-20)
(0.0039882379 -0.0018405279 2.3955609e-21)
(0.0042276961 -0.0017130472 1.7280545e-20)
(0.0043154428 -0.00151121 -2.0494193e-20)
(0.0041472267 -0.0012287407 6.5180053e-20)
(0.0035750592 -0.00087039505 -4.1260994e-21)
(0.0024271522 -0.00046744405 1.6655191e-20)
(0.00048849778 -8.1870258e-05 -2.2873797e-21)
(-0.0024242948 0.00017457638 3.2797201e-21)
(-0.0064800856 0.0001418689 -2.0425011e-21)
(-0.012044717 -0.00040134622 3.8036459e-21)
(-0.019032257 -0.001768654 -1.1685165e-22)
(-0.026838963 -0.0041289271 4.2645604e-20)
(-0.03502702 -0.0075659718 -1.6353378e-20)
(-0.043014425 -0.012039631 1.4687262e-20)
(-0.050353 -0.017425453 -9.3950698e-20)
(-0.056596146 -0.023491678 -1.5093403e-20)
(-0.061470333 -0.029973812 1.3207459e-19)
(-0.064781873 -0.036574503 -1.1228384e-19)
(-0.066475215 -0.043009356 -2.1372901e-21)
(-0.066546748 -0.048987547 3.3972802e-20)
(-0.065129147 -0.054290744 -3.0829211e-20)
(-0.062311045 -0.058657819 -6.0075865e-21)
(-0.058314805 -0.061940237 -3.7732132e-21)
(-0.053382865 -0.064034038 -5.4282614e-21)
(-0.047688774 -0.064777021 -3.3071912e-21)
(-0.041513396 -0.064158998 6.2311452e-22)
(-0.035087364 -0.062145543 4.964142e-20)
(-0.028654932 -0.058765393 -7.5365097e-20)
(-0.022445681 -0.054077644 -8.0157628e-20)
(-0.016673866 -0.048176032 -3.2474139e-20)
(-0.011533826 -0.041187042 -7.4355584e-20)
(-0.0071947566 -0.033264041 1.6576166e-20)
(-0.0037952187 -0.024585448 2.4105611e-20)
(-0.001448382 -0.01536189 -3.7452058e-20)
(-0.00021555719 -0.0057713339 -5.0021793e-21)
(2.4410985e-05 0.0014944368 -1.1682909e-21)
(7.7793235e-05 0.0018083168 -6.9601555e-23)
(0.00014917915 0.0021107791 -3.9945299e-21)
(0.00023728573 0.002396167 1.3385181e-20)
(0.00034062996 0.0026588748 -9.4390308e-21)
(0.00045709051 0.0028933867 -2.8808016e-20)
(0.00058392389 0.0030945254 5.4512829e-21)
(0.00071776988 0.0032577104 2.1567047e-20)
(0.00085483507 0.003379116 -2.0299752e-20)
(0.0009910217 0.0034560061 4.5451999e-20)
(0.0011219902 0.0034867834 8.2602441e-22)
(0.0012435149 0.0034715092 -2.8164845e-20)
(0.001351589 0.0034115559 -4.5880695e-20)
(0.001442969 0.0033104014 3.7229285e-20)
(0.0015151348 0.0031727357 -3.9165912e-20)
(0.0015669704 0.003005277 -6.2989265e-20)
(0.0015987605 0.002815934 4.1248423e-20)
(0.001612591 0.0026138446 -6.613126e-20)
(0.001612762 0.0024093322 -8.7400929e-20)
(0.0016055577 0.0022128186 5.6675908e-20)
(0.0016000106 0.0020353346 7.2221596e-20)
(0.0016076303 0.0018874395 6.4667406e-20)
(0.0016427939 0.001779135 5.3119072e-20)
(0.0017219738 0.0017184868 1.2545443e-20)
(0.0018620256 0.0017098088 2.1350814e-20)
(0.0020762071 0.0017506671 -4.569113e-21)
(0.0023699149 0.0018302154 4.1288259e-20)
(0.0027353684 0.0019282122 -1.1043059e-20)
(0.0031460647 0.0020154776 -8.6827006e-21)
(0.003561143 0.0020616163 5.9887542e-20)
(0.0039454722 0.0020490619 -7.8273318e-20)
(0.0042627513 0.0019675561 -2.3596218e-21)
(0.0044671005 0.0018105571 3.9013234e-20)
(0.0044859709 0.0015716117 2.037666e-20)
(0.0042067554 0.0012473647 -6.4958413e-20)
(0.0034673418 0.00084576214 4.1235305e-21)
(0.0020879842 0.00040540463 1.217694e-20)
(-0.00015239902 -1.9536669e-06 2.3008648e-21)
(-0.0034403949 -0.00025570393 -3.3095779e-21)
(-0.0078969061 -0.00017812552 2.0672393e-21)
(-0.01388974 0.00045964655 -3.8583936e-21)
(-0.021277939 0.0019746456 3.1289928e-20)
(-0.029367744 0.0045151636 -4.3291169e-20)
(-0.037708583 0.0081424075 1.6575479e-20)
(-0.04572828 0.012796743 -1.4848654e-20)
(-0.052970706 0.018328841 9.4638982e-20)
(-0.059018678 0.02449404 1.5138256e-20)
(-0.063632562 0.031025028 -1.3177465e-19)
(-0.06663425 0.037617312 1.1133918e-19)
(-0.068005995 0.043996855 2.1033181e-21)
(-0.067742494 0.049864957 -3.309985e-20)
(-0.066021746 0.055032089 2.9626879e-20)
(-0.062900751 0.05921004 -4.5408173e-20)
(-0.058635237 0.062277913 3.3624785e-21)
(-0.053492032 0.064162175 -5.1756656e-21)
(-0.047605 0.064660185 4.8699479e-21)
(-0.04128404 0.063801262 -7.0899161e-22)
(-0.03475081 0.061545758 -5.3589873e-20)
(-0.028250643 0.057931976 7.9473884e-20)
(-0.022011044 0.053025216 8.3362579e-20)
(-0.016242919 0.04692405 3.3450784e-20)
(-0.011137156 0.039760948 7.6035947e-20)
(-0.0068581079 0.031692589 -1.6850173e-20)
(-0.0035393026 0.022902439 4.8348821e-20)
(-0.0012881103 0.01359704 3.7698728e-20)
(-0.00016278527 0.0039816406 5.0159446e-21)
)
;
    }
    frontAndBack
    {
        type            empty;
    }
}


// ************************************************************************* //
