/*--------------------------------*- C++ -*----------------------------------*\
  =========                 |
  \\      /  F ield         | OpenFOAM: The Open Source CFD Toolbox
   \\    /   O peration     | Website:  https://openfoam.org
    \\  /    A nd           | Version:  13
     \\/     M anipulation  |
\*---------------------------------------------------------------------------*/
FoamFile
{
    format      ascii;
    class       volScalarField;
    location    "21.199315";
    object      nut;
}
// * * * * * * * * * * * * * * * * * * * * * * * * * * * * * * * * * * * * * //

dimensions      [0 2 -1 0 0 0 0];

internalField   nonuniform List<scalar> 
17140
(
1.917747e-17
3.7297596e-15
9.9342364e-14
1.0070745e-12
6.0897335e-12
2.6975298e-11
9.738021e-11
3.0462057e-10
8.5786389e-10
2.2305487e-09
5.4492221e-09
1.2666279e-08
2.8275087e-08
6.1048413e-08
1.2818672e-07
2.6289679e-07
5.2843855e-07
1.0439226e-06
2.0312706e-06
3.8999278e-06
7.3981416e-06
1.3879752e-05
2.576657e-05
4.7328334e-05
8.5939549e-05
0.00015394416
0.00027101084
0.00046616546
0.00077759207
0.0012478492
0.0019141151
0.0027970588
0.0038938345
0.0051778396
0.0066036157
0.0081138016
0.0096462207
0.011140501
0.012544007
0.01381688
0.014935653
0.0158948
0.0167042
0.017383262
0.017971522
0.018525821
0.019056928
0.019583451
0.020121488
0.02067664
0.021246336
0.021821064
0.022385472
0.022916659
0.023382126
0.023740286
0.023932147
0.02388483
0.02363278
0.023113219
0.022323646
0.021261454
0.019974901
0.018203051
0.015450427
1.8938536e-17
3.6832873e-15
9.810466e-14
9.9452984e-13
6.0138983e-12
2.6639481e-11
9.6168314e-11
3.0083085e-10
8.4719481e-10
2.202816e-09
5.3814878e-09
1.2508864e-08
2.7923712e-08
6.0289713e-08
1.2659324e-07
2.5962719e-07
5.2186156e-07
1.030916e-06
2.005926e-06
3.8511794e-06
7.3054655e-06
1.3705462e-05
2.5442256e-05
4.6731667e-05
8.4856531e-05
0.00015201313
0.00026765324
0.00046053141
0.00076858113
0.0012342712
0.0018949862
0.0027719152
0.0038629163
0.0051420934
0.0065645553
0.0080733157
0.0096063778
0.011103312
0.012511245
0.01378993
0.014915411
0.015881674
0.016698153
0.017383529
0.017976814
0.018536101
0.019071376
0.019601663
0.02014348
0.020703302
0.021279874
0.021865021
0.02244566
0.023001657
0.023503983
0.023916114
0.024192785
0.024302641
0.024275144
0.024093662
0.023771733
0.02328815
0.022577982
0.021163276
0.018474901
1.8515073e-17
3.6009288e-15
9.5911018e-14
9.7229199e-13
5.8794273e-12
2.6043827e-11
9.4018026e-11
2.9410439e-10
8.2825158e-10
2.1535589e-09
5.2611416e-09
1.2229084e-08
2.7298998e-08
5.894039e-08
1.2375844e-07
2.5380884e-07
5.1015404e-07
1.0077557e-06
1.9607795e-06
3.7643056e-06
7.1402215e-06
1.33945e-05
2.4863184e-05
4.5665323e-05
8.2918862e-05
0.00014855348
0.00026162684
0.00045039403
0.00075231135
0.0012096374
0.0018600561
0.0027256094
0.0038053454
0.0050745778
0.0064894067
0.0079935121
0.0095252094
0.011024059
0.012436868
0.013722807
0.014857167
0.015833125
0.016659093
0.017353059
0.0179544
0.018521173
0.019062859
0.019599968
0.020150446
0.020722257
0.021315952
0.021927025
0.022547001
0.023161206
0.023747305
0.024278901
0.024731375
0.025101431
0.02540832
0.02565049
0.025838388
0.025935096
0.025660249
0.024697637
0.022036688
1.7905797e-17
3.4824325e-15
9.2754844e-14
9.402965e-13
5.6859531e-12
2.5186812e-11
9.0924233e-11
2.8442648e-10
8.0099643e-10
2.082689e-09
5.0879913e-09
1.1826549e-08
2.6400198e-08
5.69991e-08
1.1968007e-07
2.4543844e-07
4.933122e-07
9.744407e-07
1.8958437e-06
3.6393642e-06
6.9025945e-06
1.2947374e-05
2.4030624e-05
4.4132236e-05
8.0132763e-05
0.00014357712
0.00025295122
0.00043577778
0.00072879575
0.0011739082
0.0018091618
0.0026577625
0.0037204311
0.0049742075
0.0063766272
0.0078723546
0.0094002026
0.010899764
0.012317447
0.013611671
0.014756716
0.015744644
0.016582376
0.017287517
0.017899932
0.018476624
0.019025594
0.019571506
0.020133247
0.020720939
0.02133871
0.021986909
0.022662925
0.023358802
0.024059446
0.024748559
0.025417263
0.02607233
0.026718676
0.027334109
0.027896167
0.028312808
0.028249157
0.027388558
0.024272511
1.7117611e-17
3.3291411e-15
8.8671917e-14
8.9890628e-13
5.4356703e-12
2.407816e-11
8.6922049e-11
2.7190702e-10
7.6573901e-10
1.991012e-09
4.8640076e-09
1.1305847e-08
2.5237579e-08
5.4488083e-08
1.1440505e-07
2.3461271e-07
4.7153188e-07
9.3136146e-07
1.8118872e-06
3.4778519e-06
6.5954715e-06
1.2369601e-05
2.2955009e-05
4.215185e-05
7.6533689e-05
0.0001371464
0.0002417298
0.00041683923
0.00069824034
0.0011273007
0.0017424472
0.0025683264
0.0036078084
0.004840202
0.0062249616
0.0077080971
0.0092291372
0.010727781
0.012149985
0.013453245
0.014610573
0.015612592
0.016464255
0.017182685
0.017808823
0.018395736
0.018953585
0.019509494
0.020084069
0.020690227
0.02133596
0.022026741
0.022766496
0.02355351
0.024377949
0.025229729
0.026107204
0.027014267
0.027928365
0.028788685
0.029521177
0.029982639
0.029814005
0.028462687
0.024964647
1.6163816e-17
3.1436411e-15
8.373112e-14
8.4881945e-13
5.132799e-12
2.2736563e-11
8.2078957e-11
2.5675713e-10
7.2307396e-10
1.8800746e-09
4.592971e-09
1.0675773e-08
2.3830798e-08
5.1449858e-08
1.0802287e-07
2.2151587e-07
4.4518516e-07
8.7925758e-07
1.7103604e-06
3.2825799e-06
6.2242445e-06
1.1671421e-05
2.1655572e-05
3.975981e-05
7.2186429e-05
0.00012937561
0.00022815503
0.00039388023
0.00066107295
0.001070343
0.0016604513
0.0024577033
0.0034675737
0.0046722014
0.0060334895
0.0074992064
0.0090098633
0.01050538
0.011931238
0.013243851
0.014414707
0.015432658
0.016300343
0.017034019
0.017675215
0.018273375
0.018840883
0.019406562
0.019993364
0.02061692
0.021289154
0.022020529
0.022820914
0.023692883
0.024628113
0.025617139
0.026657663
0.027742753
0.028814092
0.029765493
0.03046071
0.030712236
0.030128463
0.028344254
0.023824443
1.5063829e-17
2.929709e-15
7.8033041e-14
7.9105566e-13
4.7835052e-12
2.1189333e-11
7.6493553e-11
2.3928525e-10
6.7387001e-10
1.752136e-09
4.2804026e-09
9.949168e-09
2.2208546e-08
4.7946458e-08
1.0066405e-07
2.0641631e-07
4.1481345e-07
8.1920373e-07
1.5933672e-06
3.0576179e-06
5.7967019e-06
1.0867589e-05
2.015997e-05
3.700729e-05
6.7184014e-05
0.00012042947
0.00021250685
0.00036734845
0.00061795039
0.0010038953
0.0015641507
0.0023268155
0.0033003783
0.0044703777
0.0058017421
0.0072444749
0.0087403975
0.010229821
0.01165776
0.012979424
0.01416452
0.015199787
0.016085349
0.016836055
0.017493473
0.018102876
0.018679517
0.019253524
0.019848628
0.020484544
0.021176091
0.021937907
0.022784458
0.023719722
0.024732424
0.025808338
0.026939542
0.028104483
0.02920523
0.030089576
0.030560295
0.030380341
0.029277259
0.026878265
0.020168176
1.3842779e-17
2.6922318e-15
7.1707837e-14
7.2693447e-13
4.3957686e-12
1.9471817e-11
7.0293432e-11
2.1989049e-10
6.1925126e-10
1.6101193e-09
3.9334457e-09
9.142643e-09
2.0407931e-08
4.4058081e-08
9.2497237e-08
1.8966064e-07
3.8111543e-07
7.525853e-07
1.4636162e-06
2.8081976e-06
5.3228394e-06
9.9770067e-06
1.8503577e-05
3.3959684e-05
6.1645385e-05
0.00011051923
0.00019514721
0.00033783148
0.00056975663
0.00092916149
0.0014549966
0.0021771763
0.0031075352
0.0042355701
0.0055298553
0.0069431759
0.0084190672
0.0098984673
0.011325996
0.012655563
0.013854858
0.014908154
0.015813001
0.016582124
0.017255977
0.017875895
0.018459713
0.019038251
0.019636043
0.020274016
0.020971664
0.021745434
0.022612618
0.023575392
0.024615252
0.025708473
0.026533428
0.027640557
0.028963528
0.029622415
0.029693054
0.028902763
0.027272374
0.023767941
0.01433788
1.2530823e-17
2.4370737e-15
6.4911673e-14
6.5803898e-13
3.9791628e-12
1.7626423e-11
6.363168e-11
1.9905174e-10
5.6056629e-10
1.4575315e-09
3.560669e-09
8.2761215e-09
1.8473448e-08
3.9880872e-08
8.3724525e-08
1.7166396e-07
3.449273e-07
6.8105888e-07
1.3243428e-06
2.5405595e-06
4.8145615e-06
9.0221513e-06
1.6728392e-05
3.0694563e-05
5.5711692e-05
9.9896347e-05
0.00017651007
0.00030604348
0.00051759011
0.00084768673
0.0013349389
0.0020109567
0.0028911359
0.0039694471
0.0052187631
0.0065952728
0.0080447175
0.0095089844
0.010932439
0.012267653
0.013480097
0.014551228
0.015475984
0.01626419
0.016953695
0.017582357
0.018169769
0.01874664
0.019339157
0.019967344
0.020649445
0.02140701
0.022258803
0.023200863
0.024204205
0.02519248
0.025162404
0.026290452
0.027968649
0.028239221
0.027731967
0.026283947
0.023864471
0.018091169
0.0079329554
1.1162003e-17
2.1708571e-15
5.782097e-14
5.8615763e-13
3.5445018e-12
1.570105e-11
5.6681211e-11
1.773099e-10
4.9933838e-10
1.2983333e-09
3.1717496e-09
7.372101e-09
1.6455336e-08
3.5523347e-08
7.4573937e-08
1.5289441e-07
3.0719134e-07
6.0648963e-07
1.1791857e-06
2.261713e-06
4.2852192e-06
8.0281904e-06
1.4881377e-05
2.7298587e-05
4.9540703e-05
8.8842744e-05
0.00015708555
0.00027280211
0.00046273601
0.00076133582
0.0012064295
0.0018310358
0.0026541647
0.0036746878
0.0048704346
0.0062016918
0.007616998
0.0090596136
0.010473883
0.011811077
0.013034293
0.014121834
0.015065921
0.015872813
0.016576051
0.017210303
0.017795893
0.018362399
0.018935418
0.019536091
0.020182361
0.020893395
0.021684229
0.022547054
0.023441332
0.023239279
0.02340386
0.024905726
0.026098754
0.025821153
0.024616789
0.022552318
0.018864302
0.0098183428
0.0046304701
9.7728941e-18
1.9006943e-15
5.0625167e-14
5.1321077e-13
3.103397e-12
1.3747134e-11
4.9627706e-11
1.5524578e-10
4.3720316e-10
1.1367775e-09
2.7770769e-09
6.4547325e-09
1.4407511e-08
3.1101947e-08
6.5290057e-08
1.3385387e-07
2.6891716e-07
5.3087415e-07
1.0320355e-06
1.9791427e-06
3.7490467e-06
7.0219115e-06
1.3012435e-05
2.3863751e-05
4.3299934e-05
7.7658594e-05
0.00013739925
0.0002389963
0.00040662255
0.00067224613
0.0010723928
0.0016410214
0.0024005968
0.0033551704
0.0044881478
0.0057646618
0.0071367436
0.008549569
0.009947806
0.011281561
0.012511471
0.013612379
0.014573518
0.015397141
0.016110805
0.016745672
0.017321837
0.017866261
0.018402563
0.018949639
0.019523501
0.020142627
0.020818343
0.021532869
0.021532246
0.020999802
0.021581147
0.02342203
0.023264748
0.022286877
0.020476407
0.017513612
0.010909757
0.0044251901
0.0032522664
8.4006919e-18
1.6338195e-15
4.3516922e-14
4.411514e-13
2.6676582e-12
1.1816984e-11
4.2659997e-11
1.3345005e-10
3.75824e-10
9.7718869e-10
2.3872156e-09
5.5485702e-09
1.2384784e-08
2.6734997e-08
5.6121321e-08
1.1505182e-07
2.3112889e-07
4.562358e-07
8.8683045e-07
1.7004131e-06
3.2204057e-06
6.0302923e-06
1.1171739e-05
2.0482442e-05
3.715767e-05
6.6646375e-05
0.0001179849
0.00020554204
0.00035075616
0.00058274684
0.00093614992
0.0014452152
0.0021354499
0.0030161401
0.0040767804
0.0052881141
0.0066064567
0.0079795693
0.0093529226
0.010675712
0.011906125
0.013015308
0.013988936
0.014825104
0.015544022
0.016172073
0.016728486
0.017235211
0.017712248
0.01817422
0.018633884
0.019108469
0.019604355
0.01990543
0.018986816
0.018720393
0.019825154
0.02024636
0.019401115
0.017827043
0.015271202
0.01033943
0.0044045463
0.0027928227
0.0020779506
7.0813819e-18
1.3772318e-15
3.6682681e-14
3.7186978e-13
2.2487158e-12
9.9612314e-12
3.5960842e-11
1.1249438e-10
3.168106e-10
8.237519e-10
2.0123878e-09
4.6773703e-09
1.0440171e-08
2.2536932e-08
4.7307907e-08
9.6980579e-08
1.948154e-07
3.845264e-07
7.4736449e-07
1.4328006e-06
2.7130834e-06
5.0791747e-06
9.4072421e-06
1.7242797e-05
3.127436e-05
5.609512e-05
9.9356204e-05
0.00017333401
0.00029664455
0.00049525046
0.00080129172
0.0012485067
0.0018647553
0.0026643134
0.0036430768
0.0047781131
0.0060308784
0.0073525172
0.0086899278
0.0099917908
0.011213988
0.012323834
0.013302531
0.014144005
0.014860207
0.01547062
0.015993626
0.016441597
0.016829498
0.017165401
0.017460559
0.017735067
0.017985383
0.017150264
0.016287248
0.016625502
0.01710635
0.016153408
0.014734155
0.012499879
0.0085017908
0.003862416
0.0023300659
0.001803216
0.0012952536
5.8474305e-18
1.1372448e-15
3.0290602e-14
3.0707049e-13
1.8568769e-12
8.2255324e-12
2.9695054e-11
9.2894278e-11
2.6161462e-10
6.8024103e-10
1.6618111e-09
3.862552e-09
8.6214673e-09
1.8610879e-08
3.9066181e-08
8.0083392e-08
1.6086633e-07
3.1750015e-07
6.1704298e-07
1.1828247e-06
2.2394082e-06
4.1916112e-06
7.7616129e-06
1.4223068e-05
2.5792334e-05
4.6261722e-05
8.1973082e-05
0.00014318606
0.00024569684
0.00041210118
0.00067147892
0.0010561593
0.001595398
0.002307853
0.0031958231
0.0042432563
0.005417608
0.006674307
0.0079624534
0.009230768
0.01043311
0.011532948
0.012506192
0.013341864
0.014042721
0.014620351
0.01509195
0.015452478
0.015711331
0.015869043
0.015946096
0.015969835
0.015404475
0.014142231
0.013882586
0.014147084
0.012940813
0.011446233
0.0095470274
0.0059754875
0.0029005955
0.0019477095
0.0015586577
0.0011522042
0.00086666395
4.7256658e-18
9.1907672e-16
2.4479672e-14
2.4816253e-13
1.500662e-12
6.6476283e-12
2.3998871e-11
7.5075885e-11
2.1143596e-10
5.497753e-10
1.3431035e-09
3.1218138e-09
6.9681524e-09
1.5041998e-08
3.1574714e-08
6.4725808e-08
1.3001465e-07
2.5660033e-07
4.9866272e-07
9.5582804e-07
1.8094544e-06
3.3863779e-06
6.2694835e-06
1.1486567e-05
2.0826523e-05
3.7353896e-05
6.6210201e-05
0.00011577273
0.00019911697
0.00033539203
0.00055016947
0.00087347039
0.0013347717
0.0019561282
0.0027458218
0.003694937
0.004777674
0.0059546906
0.007178192
0.008397651
0.0095653303
0.010640924
0.011594701
0.01240873
0.013076405
0.013600395
0.013994899
0.014229933
0.014307727
0.014229252
0.014048029
0.013707714
0.012197947
0.011508631
0.0112948
0.010053707
0.0083558775
0.0066570803
0.0036191062
0.0019701855
0.0015217129
0.0013111357
0.0010293075
0.00078101343
0.00069997868
3.7358094e-18
7.2656336e-16
1.9352071e-14
1.9618183e-13
1.1863355e-12
5.2552676e-12
1.8972464e-11
5.9352536e-11
1.6715694e-10
4.3464838e-10
1.0618664e-09
2.4681696e-09
5.5092551e-09
1.189289e-08
2.496473e-08
5.117632e-08
1.0279829e-07
2.0288499e-07
3.9427076e-07
7.5571261e-07
1.4305597e-06
2.6771049e-06
4.9559013e-06
9.0789288e-06
1.6459652e-05
2.9521621e-05
5.2341366e-05
9.1599972e-05
0.00015784789
0.00026686146
0.00044042844
0.00070544552
0.0010903844
0.0016193307
0.0023056496
0.0031473693
0.0041259184
0.0052080592
0.0063500743
0.0075030332
0.0086181594
0.009651502
0.010567235
0.011339087
0.011949782
0.012392342
0.012673737
0.012734301
0.01257249
0.012219979
0.011766038
0.010383437
0.0095375564
0.0087203578
0.007365043
0.0057565006
0.0039117249
0.0020935085
0.0012161655
0.0011412123
0.0010303824
0.00086365305
0.00070900487
0.00062994275
0.00066197963
2.8888165e-18
5.6183515e-16
1.4964531e-14
1.517034e-13
9.1737404e-13
4.0638526e-12
1.4671437e-11
4.5898172e-11
1.2926736e-10
3.3613354e-10
8.2120906e-10
1.9088399e-09
4.2608728e-09
9.1982392e-09
1.9308846e-08
3.9583223e-08
7.9513575e-08
1.569348e-07
3.0498492e-07
5.845948e-07
1.1066693e-06
2.07104e-06
3.8340122e-06
7.0237722e-06
1.273403e-05
2.2841354e-05
4.0508276e-05
7.0941372e-05
0.00012244007
0.00020763362
0.000344486
0.00055620534
0.00086902962
0.0013075676
0.0018888221
0.0026170274
0.0034808592
0.0044538189
0.0054971986
0.0065645814
0.0076068069
0.0085764632
0.0094311296
0.010134814
0.010657433
0.010984173
0.011104356
0.010936508
0.010504715
0.0098828273
0.0087240617
0.0076469573
0.0066248507
0.0050693235
0.003657943
0.0019934511
0.0011452843
0.00076636516
0.00076702725
0.00074535567
0.00068016975
0.00060597513
0.0005815698
0.0005953009
0.00069192498
2.1870425e-18
4.253498e-16
1.1329235e-14
1.1485073e-13
6.9452485e-13
3.0766937e-12
1.1107745e-11
3.4750205e-11
9.7872602e-11
2.5450469e-10
6.2179996e-10
1.4453758e-09
3.2264552e-09
6.9654517e-09
1.4622465e-08
2.9977681e-08
6.0221914e-08
1.1886769e-07
2.310257e-07
4.4287521e-07
8.3848749e-07
1.5693774e-06
2.9057606e-06
5.3241689e-06
9.6545607e-06
1.7321889e-05
3.0731092e-05
5.3854623e-05
9.3069399e-05
0.00015821276
0.00026361919
0.00042853902
0.00067603216
0.0010296711
0.0015084285
0.0021213335
0.0028636922
0.0037159243
0.0046450244
0.0056079406
0.0065557893
0.007437855
0.008204506
0.0088084931
0.0092045879
0.0093756283
0.0092794861
0.0088640049
0.0081932343
0.0072146802
0.0061499867
0.0048555865
0.0033457683
0.0020081618
0.0010628925
0.00060459728
0.00047958493
0.00050579174
0.00051717741
0.00051225362
0.00050597688
0.00051684183
0.00055757612
0.00062983272
0.00073816718
1.6246378e-18
3.1596963e-16
8.4158825e-15
8.531672e-14
5.1593097e-13
2.2855669e-12
8.2517083e-12
2.5815816e-11
7.2711343e-11
1.890825e-10
4.6197954e-10
1.0739189e-09
2.3973832e-09
5.1758938e-09
1.0866383e-08
2.2279024e-08
4.4760369e-08
8.8359557e-08
1.7175649e-07
3.2931641e-07
6.2363051e-07
1.1675622e-06
2.1625187e-06
3.9639145e-06
7.1911983e-06
1.2908772e-05
2.2915218e-05
4.018856e-05
6.9534104e-05
0.0001184374
0.00019800651
0.00032362717
0.00051463361
0.00079223851
0.001175565
0.0016766919
0.0022962901
0.0030211714
0.0038242081
0.0046662487
0.0054991435
0.0062688251
0.0069175811
0.0073853711
0.0076135157
0.0075892171
0.0072556401
0.0066421725
0.0057467351
0.004580394
0.0033071628
0.0020539504
0.0010491562
0.00056605248
0.00033592886
0.00030515288
0.00033220131
0.0003603615
0.00038638506
0.00041863568
0.00046062408
0.00050828101
0.00059542391
0.00067227002
0.0007737949
1.1891042e-18
2.3126435e-16
6.1597518e-15
6.244523e-14
3.7762503e-13
1.6729004e-12
6.0399018e-12
1.8896633e-11
5.3225031e-11
1.384149e-10
3.3820086e-10
7.862252e-10
1.7552545e-09
3.7898298e-09
7.957141e-09
1.6316008e-08
3.2784438e-08
6.4728883e-08
1.2584815e-07
2.413571e-07
4.5721154e-07
8.5634693e-07
1.5869134e-06
2.9106668e-06
5.2844808e-06
9.4947443e-06
1.6872937e-05
2.9628645e-05
5.133704e-05
8.760031e-05
0.00014682811
0.00024095163
0.00038551581
0.00059854449
0.00089773553
0.0012962688
0.0017983901
0.0023960646
0.0030674566
0.0037771886
0.0044777388
0.0051111184
0.00561027
0.0059004792
0.0059343165
0.0056906847
0.0051749341
0.0043978838
0.0033078108
0.0021000759
0.0011004122
0.00056826208
0.00030040423
0.00019172664
0.00020186643
0.00022358719
0.00025811304
0.00030201556
0.00035320986
0.00041115016
0.00046889232
0.00050511936
0.00057809563
0.00071058332
0.00080652169
8.6370617e-19
1.6797899e-16
4.4741442e-15
4.5357384e-14
2.7429275e-13
1.2151555e-12
4.3873595e-12
1.3726905e-11
3.8665374e-11
1.0055659e-10
2.4571255e-10
5.7125313e-10
1.2754271e-09
2.7540725e-09
5.7831021e-09
1.1859777e-08
2.3834353e-08
4.7067989e-08
9.1535839e-08
1.7561172e-07
3.3281338e-07
6.236982e-07
1.1565926e-06
2.1232112e-06
3.8588301e-06
6.941831e-06
1.2354033e-05
2.1730033e-05
3.77266e-05
6.4531921e-05
0.00010848642
0.0001786582
0.00028711082
0.00044835219
0.00067768832
0.00098768198
0.0013840873
0.0018621502
0.0024038427
0.0029764079
0.0035318134
0.0040068007
0.0043241939
0.0044026702
0.0042272844
0.0038013155
0.003144499
0.0022666771
0.001235219
0.00058032341
0.00030449756
0.00016644899
0.00011431854
0.00013078524
0.00015745075
0.0001961104
0.00024779413
0.00030733415
0.00036979168
0.00037509172
0.00037050161
0.00042603349
0.00050396101
0.00068809465
0.00082328269
6.2986299e-19
1.2249971e-16
3.2628005e-15
3.3077357e-14
2.0003345e-13
8.8619541e-13
3.1997359e-12
1.0011535e-11
2.8201443e-11
7.3347418e-11
1.7923852e-10
4.1674231e-10
9.30542e-10
2.0095788e-09
4.2203666e-09
8.6564335e-09
1.7400305e-08
3.4371126e-08
6.6865939e-08
1.2833743e-07
2.4335399e-07
4.5636781e-07
8.4703836e-07
1.5566519e-06
2.8329245e-06
5.1044207e-06
9.1009157e-06
1.6041376e-05
2.7913904e-05
4.7865117e-05
8.0686786e-05
0.00013331508
0.00021512627
0.00033762678
0.00051295273
0.00075146399
0.0010584046
0.0014303893
0.0018507478
0.0022868661
0.002687749
0.0029833349
0.003089495
0.0029666154
0.0026137361
0.0020670784
0.0013856969
0.00064540532
0.00031074896
0.0001624486
9.335172e-05
7.2635518e-05
8.8982188e-05
0.00011765924
0.00015987101
0.00021300263
0.00027479789
0.00033208768
0.00030888622
0.00029461733
0.00031625632
0.00037128834
0.00045496709
0.00063789179
0.00080366609
4.6906165e-19
9.1226039e-17
2.4298233e-15
2.4633012e-14
1.489688e-13
6.599822e-13
2.3830393e-12
7.4565251e-12
2.1005377e-11
5.4635174e-11
1.3352202e-10
3.1047728e-10
6.933412e-10
1.4975282e-09
3.1455166e-09
6.4531139e-09
1.2974704e-08
2.5637337e-08
4.9895289e-08
9.5814453e-08
1.8180261e-07
3.412221e-07
6.3398618e-07
1.1666344e-06
2.1265342e-06
3.8389624e-06
6.8598222e-06
1.212081e-05
2.1145281e-05
3.6345562e-05
6.1390935e-05
0.00010161248
0.00016426194
0.0002583409
0.00039354165
0.0005778906
0.00081398371
0.0010955163
0.0014049332
0.0017063077
0.0019432312
0.0020422385
0.001955506
0.0016823409
0.0012583968
0.00075521293
0.00033011346
0.00016690395
8.939996e-05
5.4162472e-05
4.8101767e-05
6.5176962e-05
9.446467e-05
0.00013720953
0.00019021683
0.00024787493
0.00029316916
0.00026639013
0.00024967855
0.00025901419
0.00028327703
0.00034043376
0.00042314542
0.00059932611
0.00078525159
3.6380248e-19
7.0754599e-17
1.8845659e-15
1.9105435e-14
1.1554218e-13
5.119024e-13
1.8484176e-12
5.7839423e-12
1.6294523e-11
4.2385088e-11
1.0359294e-10
2.4090841e-10
5.3805205e-10
1.1623053e-09
2.4418631e-09
5.0107562e-09
1.0077717e-08
1.992057e-08
3.8787795e-08
7.4529342e-08
1.4152238e-07
2.6587377e-07
4.9457806e-07
9.114427e-07
1.6643572e-06
3.0110427e-06
5.393688e-06
9.5559657e-06
1.6715942e-05
2.8799988e-05
4.8741132e-05
8.0746604e-05
0.00013042658
0.00020452812
0.00030994002
0.00045165664
0.00062946129
0.0008328776
0.0010375831
0.0012023576
0.0012700078
0.0012029655
0.0010001433
0.00070608853
0.00036936036
0.00016749948
8.8305289e-05
5.0044336e-05
3.3173934e-05
3.3627084e-05
5.0630979e-05
8.0054966e-05
0.00012220865
0.00017293946
0.00022800096
0.00026496245
0.0002397017
0.00022692858
0.00022704162
0.00023636724
0.00026307649
0.00031666695
0.00039802701
0.00056863504
0.00077571482
2.9728479e-19
5.7817857e-17
1.5399961e-15
1.5612328e-14
9.4418285e-14
4.1832174e-13
1.5105486e-12
4.7268757e-12
1.3317193e-11
3.4642672e-11
8.4676638e-11
1.969384e-10
4.3990617e-10
9.5044867e-10
1.9972003e-09
4.0993918e-09
8.2475329e-09
1.6309725e-08
3.1773794e-08
6.1092425e-08
1.1610239e-07
2.183395e-07
4.0666222e-07
7.5056604e-07
1.373092e-06
2.4894509e-06
4.4702925e-06
7.9410209e-06
1.392767e-05
2.4056151e-05
4.0779311e-05
6.7550136e-05
0.00010873926
0.00016907668
0.0002523265
0.00035900584
0.00048312336
0.00060812138
0.00070667962
0.0007407966
0.00068400316
0.00054378553
0.00035794482
0.00017448628
8.5538545e-05
4.724603e-05
2.8548195e-05
2.1350589e-05
2.5090106e-05
4.1144376e-05
7.0115589e-05
0.0001106946
0.00016007851
0.00021073906
0.00025112174
0.00022990628
0.00021701586
0.0002124482
0.00021283666
0.00022502303
0.00025090469
0.00030303184
0.00038524942
0.00055122837
0.00077800849
2.5273373e-19
4.9153307e-17
1.3092157e-15
1.3272751e-14
8.0269788e-14
3.5564003e-13
1.2842255e-12
4.0187432e-12
1.1322505e-11
2.9455111e-11
7.2001199e-11
1.6747222e-10
3.7412829e-10
8.0844794e-10
1.699128e-09
3.4884074e-09
7.0204014e-09
1.3888227e-08
2.7068843e-08
5.2075466e-08
9.903391e-08
1.863936e-07
3.474991e-07
6.4209508e-07
1.176167e-06
2.1354467e-06
3.8402861e-06
6.8314178e-06
1.1994304e-05
2.071756e-05
3.5050772e-05
5.7714295e-05
9.1793051e-05
0.0001397851
0.00020184533
0.00027330064
0.00034283024
0.00039297588
0.00040243726
0.00035695829
0.00026892447
0.00016364067
8.048969e-05
4.2330134e-05
2.5468864e-05
1.700635e-05
1.4475432e-05
1.9659361e-05
3.4742607e-05
6.1708299e-05
0.00010122835
0.00014784509
0.00019551283
0.00023912987
0.00022648887
0.00021456555
0.00020749621
0.00020512665
0.00020797466
0.0002193172
0.00024429097
0.00029414434
0.0003744683
0.00053564321
0.00076576385
2.1431695e-19
4.1681769e-17
1.11021e-15
1.1255257e-14
6.8068562e-14
3.0158152e-13
1.0890181e-12
3.4078824e-12
9.6014986e-12
2.4978239e-11
6.1058909e-11
1.4202501e-10
3.1729331e-10
6.8567357e-10
1.4411992e-09
2.959142e-09
5.9559296e-09
1.1783952e-08
2.2970792e-08
4.4198067e-08
8.4064575e-08
1.5823543e-07
2.9501131e-07
5.4505573e-07
9.981022e-07
1.8109727e-06
3.2529114e-06
5.7748795e-06
1.0105729e-05
1.7356272e-05
2.9071713e-05
4.7086772e-05
7.2933483e-05
0.00010657821
0.00014483291
0.00018017998
0.00020277117
0.00020084413
0.0001705949
0.00012159594
7.079245e-05
3.6955354e-05
2.0743406e-05
1.3708449e-05
1.0572708e-05
1.0437879e-05
1.5736337e-05
3.0047295e-05
5.5357025e-05
9.2626411e-05
0.00013620964
0.00018264697
0.00022652662
0.00022047686
0.00021427864
0.00020825062
0.00020395538
0.00020270233
0.00020551207
0.00021751685
0.00024121703
0.00028961658
0.00036939101
0.00053156564
0.00077263212
1.713579e-19
3.3326807e-17
8.8767182e-16
8.9991503e-15
5.4423868e-14
2.4112472e-13
8.7069031e-13
2.7245954e-12
7.6761272e-12
1.9968575e-11
4.8810351e-11
1.135271e-10
2.5360608e-10
5.4798596e-10
1.1516337e-09
2.3641429e-09
4.7571405e-09
9.4088278e-09
1.8332123e-08
3.5249693e-08
6.6984606e-08
1.2593088e-07
2.3439017e-07
4.3206706e-07
7.8875049e-07
1.4251104e-06
2.5451783e-06
4.4830262e-06
7.7596982e-06
1.3126952e-05
2.1512072e-05
3.374514e-05
4.9926924e-05
6.8436421e-05
8.5042192e-05
9.4022802e-05
9.0233245e-05
7.3793674e-05
4.9789719e-05
2.8922715e-05
1.6517286e-05
1.0207175e-05
7.7002643e-06
6.760809e-06
7.8502893e-06
1.3131647e-05
2.606965e-05
4.9937661e-05
8.5286184e-05
0.00012575383
0.00017010693
0.0002134747
0.0002123363
0.00021111777
0.0002078122
0.00020326028
0.00020033639
0.00020151641
0.00020638158
0.00021825102
0.00024085812
0.00028822426
0.00036793429
0.00052639459
0.00077435288
1.2309144e-19
2.3939617e-17
6.3763882e-16
6.4642843e-15
3.9093215e-14
1.7319769e-13
6.2538395e-13
1.9568639e-12
5.5127392e-12
1.4339291e-11
3.5045567e-11
8.1497061e-11
1.8201113e-10
3.9316073e-10
8.2591106e-10
1.6945423e-09
3.4072759e-09
6.7325206e-09
1.3100919e-08
2.5148676e-08
4.7684222e-08
8.9386039e-08
1.6573703e-07
3.0398871e-07
5.5130859e-07
9.8755034e-07
1.7437926e-06
3.0255585e-06
5.1323521e-06
8.4476127e-06
1.3342292e-05
1.9909486e-05
2.7480992e-05
3.4211564e-05
3.7488883e-05
3.5361873e-05
2.8263001e-05
1.8725941e-05
1.1654126e-05
7.223651e-06
5.2278597e-06
4.4527458e-06
4.6608675e-06
6.1191795e-06
1.1113168e-05
2.3823406e-05
4.719144e-05
7.9865845e-05
0.00011799703
0.00015899007
0.00019953641
0.00020181451
0.00020375001
0.00020235049
0.00019968285
0.00019825583
0.00019920341
0.00020227891
0.00020738305
0.00021984034
0.00024221999
0.00028920011
0.0003668407
0.00053059138
0.00078873004
7.6863579e-20
1.4948909e-17
3.9816669e-16
4.0365003e-15
2.4410411e-14
1.0814291e-13
3.9045943e-13
1.221663e-12
3.4411588e-12
8.9493525e-12
2.1867433e-11
5.0836251e-11
1.1348851e-10
2.450125e-10
5.1432699e-10
1.0542575e-09
2.1171885e-09
4.1765514e-09
8.1097631e-09
1.5523839e-08
2.9326534e-08
5.4710337e-08
1.0080865e-07
1.8339494e-07
3.2907678e-07
5.8132617e-07
1.0079579e-06
1.7073925e-06
2.8056348e-06
4.4259583e-06
6.6035736e-06
9.1316018e-06
1.1410042e-05
1.2518195e-05
1.1793085e-05
9.4808262e-06
6.6933619e-06
4.5504292e-06
3.3263458e-06
2.7320993e-06
2.8436093e-06
3.342234e-06
4.987272e-06
1.0262124e-05
2.2882348e-05
4.4179804e-05
7.4698002e-05
0.00010919841
0.00014502797
0.00018082288
0.000189775
0.00019320923
0.00019323552
0.00019290471
0.00019378199
0.00019542541
0.00019734079
0.00020190138
0.00020914432
0.00022309549
0.00024495507
0.00029163412
0.00037036613
0.00053379235
0.00079988048
4.0936396e-20
7.9615555e-18
2.1205586e-16
2.1497219e-15
1.2999821e-14
5.7588518e-14
2.0791069e-13
6.5042769e-13
1.8317977e-12
4.7627887e-12
1.1633956e-11
2.7034263e-11
6.0317175e-11
1.3011958e-10
2.7286706e-10
5.5856689e-10
1.1197514e-09
2.2038157e-09
4.2662986e-09
8.1343957e-09
1.5287864e-08
2.8329244e-08
5.1743636e-08
9.3064414e-08
1.6451843e-07
2.8500939e-07
4.8167311e-07
7.8882177e-07
1.2396579e-06
1.8437005e-06
2.5463519e-06
3.1873548e-06
3.5100182e-06
3.3736972e-06
2.9108284e-06
2.3257098e-06
1.8251519e-06
1.5576782e-06
1.6451184e-06
1.9034397e-06
2.6035374e-06
4.5171157e-06
9.9892142e-06
2.127179e-05
4.1276302e-05
6.93483e-05
0.00010041876
0.00013307419
0.00016699041
0.00017660627
0.00018034214
0.00018155195
0.0001833764
0.00018582758
0.00018819008
0.00019090796
0.0001955494
0.00020267913
0.00021126537
0.00022583118
0.00024805242
0.00029556499
0.00037252022
0.00054316677
0.00081484682
1.8421392e-20
3.5826954e-18
9.5424048e-17
9.673398e-16
5.8494389e-15
2.5910773e-14
9.3534651e-14
2.9256634e-13
8.2376654e-13
2.1411749e-12
5.227979e-12
1.2141524e-11
2.7068811e-11
5.8335469e-11
1.2216954e-10
2.496472e-10
4.9931688e-10
9.7977383e-10
1.8892907e-09
3.5838651e-09
6.6908071e-09
1.2291235e-08
2.2197466e-08
3.9338894e-08
6.8215992e-08
1.1523623e-07
1.8843566e-07
2.9558345e-07
4.3925891e-07
6.0828961e-07
7.6908346e-07
8.7570022e-07
9.110673e-07
8.9199033e-07
8.425681e-07
8.2026085e-07
8.6537355e-07
1.0496966e-06
1.4711894e-06
2.3527306e-06
4.4470796e-06
9.5227873e-06
1.9710875e-05
3.837678e-05
6.4345054e-05
9.2583887e-05
0.0001230048
0.00015471604
0.00016307687
0.00016652959
0.00016871364
0.00017193965
0.0001752606
0.00017840353
0.00018236982
0.00018797363
0.00019412527
0.00020253328
0.00021261215
0.00022945321
0.00025223118
0.0003001089
0.00037795695
0.00055185606
0.00082907712
7.0928322e-21
1.3794501e-18
3.6740794e-17
3.7244021e-16
2.2519944e-15
9.9745685e-15
3.6002048e-14
1.1258853e-13
3.169241e-13
8.2345634e-13
2.0095663e-12
4.6638805e-12
1.0388499e-11
2.236151e-11
4.6757919e-11
9.5353152e-11
1.9020984e-10
3.7195136e-10
7.1403426e-10
1.3466712e-09
2.4954322e-09
4.5402649e-09
8.0985496e-09
1.4125972e-08
2.4002562e-08
3.9517357e-08
6.2584657e-08
9.4475922e-08
1.3453753e-07
1.7968622e-07
2.27458e-07
2.7504818e-07
3.2197835e-07
3.7009621e-07
4.401263e-07
5.7566959e-07
8.4393875e-07
1.3518203e-06
2.3079922e-06
4.3023567e-06
8.7596935e-06
1.7950526e-05
3.559246e-05
5.9597363e-05
8.5292811e-05
0.0001134754
0.00014243985
0.00014913857
0.00015232949
0.000155206
0.00015903192
0.00016284876
0.00016691734
0.00017194139
0.00017782827
0.0001841163
0.00019194604
0.00020251738
0.00021469106
0.00023258136
0.00025590746
0.00030500469
0.00038302741
0.00056413972
0.00084142632
2.6833388e-21
5.2186861e-19
1.3899543e-17
1.4089679e-16
8.5192018e-16
3.7731628e-15
1.3617862e-14
4.2582765e-14
1.1984976e-13
3.1134693e-13
7.5963214e-13
1.7624395e-12
3.9241636e-12
8.4426001e-12
1.7642296e-11
3.5949587e-11
7.1643207e-11
1.3993533e-10
2.6826963e-10
5.0517605e-10
9.3453752e-10
1.6974628e-09
3.0235017e-09
5.2704038e-09
8.9649262e-09
1.4823839e-08
2.3741199e-08
3.6775508e-08
5.521951e-08
8.1163093e-08
1.1657644e-07
1.6429141e-07
2.3222185e-07
3.3054148e-07
5.0296116e-07
8.0121751e-07
1.3045206e-06
2.2105487e-06
4.0266012e-06
7.9940375e-06
1.6600727e-05
3.3180719e-05
5.5000382e-05