/*--------------------------------*- C++ -*----------------------------------*\
  =========                 |
  \\      /  F ield         | OpenFOAM: The Open Source CFD Toolbox
   \\    /   O peration     | Website:  https://openfoam.org
    \\  /    A nd           | Version:  13
     \\/     M anipulation  |
\*---------------------------------------------------------------------------*/
FoamFile
{
    format      ascii;
    class       volScalarField;
    location    "9.397166";
    object      nut;
}
// * * * * * * * * * * * * * * * * * * * * * * * * * * * * * * * * * * * * * //

dimensions      [0 2 -1 0 0 0 0];

internalField   nonuniform List<scalar> 
17140
(
1.5326357e-17
2.9807722e-15
7.9393533e-14
8.0488186e-13
4.8676135e-12
2.1565665e-11
7.7871305e-11
2.4366975e-10
6.8646329e-10
1.7855909e-09
4.3639795e-09
1.0147773e-08
2.2661049e-08
4.8940341e-08
1.0277602e-07
2.1076817e-07
4.2352244e-07
8.3615421e-07
1.6255058e-06
3.1170249e-06
5.9030381e-06
1.1044722e-05
2.0387079e-05
3.692927e-05
6.480395e-05
0.00010745143
0.0001337552
0.00014172664
0.00014661447
0.00014840048
0.00014808659
0.00014733364
0.00014690764
0.00014700776
0.00014766823
0.00014893764
0.00015090062
0.00015367396
0.00015742878
0.00016242566
0.00016918143
0.00017950491
0.00019887291
0.00023859839
0.00031766769
0.00037321617
0.00036634499
0.00036304146
0.00036075077
0.00035951823
0.00036279063
0.00036645464
0.0003729991
0.00038074608
0.0003883856
0.00039451095
0.00039690647
0.00040189073
0.00040300912
0.00038741008
0.0003667559
0.00033953956
0.00031701341
0.00029671837
0.00027616793
1.5150688e-17
2.9466046e-15
7.8483552e-14
7.9565856e-13
4.8118516e-12
2.1318688e-11
7.697972e-11
2.408803e-10
6.7860479e-10
1.7651441e-09
4.3139742e-09
1.0031352e-08
2.2400563e-08
4.8376147e-08
1.0158636e-07
2.0831504e-07
4.1855794e-07
8.2626579e-07
1.6060782e-06
3.0793227e-06
5.830747e-06
1.0908045e-05
2.0134034e-05
3.6478317e-05
6.4058744e-05
0.00010638934
0.00013460158
0.00014278887
0.00014777804
0.00014965492
0.00014939247
0.00014866542
0.00014826062
0.00014839479
0.0001491076
0.00015045154
0.00015251663
0.00015544344
0.00015941671
0.00016469751
0.00017182897
0.0001827257
0.00020325684
0.00024553789
0.00033035026
0.00037477076
0.00036930318
0.00036558968
0.00036087169
0.00036046778
0.00035980369
0.00035978663
0.00035668793
0.00035082666
0.00034445558
0.00033284031
0.00031835112
0.00031348626
0.00031431824
0.0002955362
0.00029112709
0.00027665887
0.0002666018
0.00025499991
0.00023959323
1.4752936e-17
2.8692468e-15
7.64231e-14
7.7476959e-13
4.6855177e-12
2.0758923e-11
7.4958106e-11
2.3455249e-10
6.6076933e-10
1.7187153e-09
4.2003683e-09
9.7667207e-09
2.1808156e-08
4.7092392e-08
9.8878136e-08
2.0272809e-07
4.072468e-07
8.0372774e-07
1.5617833e-06
2.9933321e-06
5.6657984e-06
1.0595987e-05
1.9555599e-05
3.5444997e-05
6.2342695e-05
0.00010391917
0.00013658992
0.00014530248
0.00015054573
0.00015266387
0.00015251839
0.00015185553
0.00015151024
0.00015173853
0.00015259562
0.00015414776
0.00015650388
0.00015982032
0.00016431824
0.00017030047
0.00017838141
0.00019081049
0.0002146006
0.00026480212
0.00036539076
0.0003807883
0.00037558575
0.00037068879
0.00037044234
0.0003713331
0.00037298809
0.00037157807
0.000367124
0.00036157229
0.0003455219
0.00032034277
0.00027740875
0.00025491077
0.00022408572
0.00020269985
0.00019194074
0.0001851191
0.00018374375
0.000177097
0.00017480409
1.4134845e-17
2.7490362e-15
7.3221256e-14
7.4230908e-13
4.4892014e-12
1.9889082e-11
7.1816681e-11
2.2471979e-10
6.3305609e-10
1.6465773e-09
4.0238707e-09
9.3556452e-09
2.0888089e-08
4.5099096e-08
9.4674456e-08
1.9405976e-07
3.8970636e-07
7.6879911e-07
1.4931848e-06
2.8602598e-06
5.410712e-06
1.011359e-05
1.8661036e-05
3.384317e-05
5.9665415e-05
0.00010001071
0.00013988356
0.00014945513
0.00015511034
0.00015765518
0.0001577031
0.00015715425
0.00015691816
0.00015730966
0.00015841636
0.00016032805
0.00016318445
0.00016718077
0.00017258099
0.00017976145
0.00018971262
0.00020509398
0.00023466684
0.00029710387
0.00039851119
0.00039472599
0.000393967
0.00039918568
0.00040756334
0.00042020757
0.0004347303
0.00044665038
0.00045214918
0.00045423727
0.00043106192
0.00039216906
0.00029964889
0.00025171039
0.00019646328
0.00017073554
0.00016119226
0.00016019318
0.00016535337
0.00016620041
0.00017861246
1.3312557e-17
2.5891121e-15
6.8961655e-14
6.9912523e-13
4.2280345e-12
1.8731918e-11
6.7637706e-11
2.1164012e-10
5.9619389e-10
1.5506344e-09
3.7891666e-09
8.809121e-09
1.9665227e-08
4.2450854e-08
8.9092419e-08
1.8255656e-07
3.6644779e-07
7.2252662e-07
1.4024026e-06
2.6843511e-06
5.0738705e-06
9.4770282e-06
1.7480143e-05
3.172243e-05
5.6091056e-05
9.4693967e-05
0.00014467997
0.00015549984
0.00016175331
0.00016491113
0.00016529282
0.00016491514
0.00016483279
0.00016544021
0.00016687744
0.00016926547
0.00017278463
0.00017768517
0.0001845151
0.0001938375
0.0002059484
0.00022424711
0.00026201315
0.00034040463
0.00042067611
0.00042455002
0.00044035539
0.00046282449
0.00049498931
0.00053625522
0.00058280323
0.00062403976
0.00064645785
0.00065503528
0.00059374802
0.00053308465
0.00038252003
0.00027196991
0.00019079682
0.00015141942
0.00013887943
0.00014115461
0.00015372185
0.00017089259
0.00020086646
1.2306931e-17
2.3935318e-15
6.3752342e-14
6.4631317e-13
3.9086382e-12
1.7316766e-11
6.2527135e-11
1.9564522e-10
5.5111834e-10
1.4333251e-09
3.5022346e-09
8.1411188e-09
1.8170988e-08
3.921619e-08
8.2277799e-08
1.6852235e-07
3.3809369e-07
6.6616718e-07
1.2919385e-06
2.4705112e-06
4.6647041e-06
8.7038612e-06
1.6043623e-05
2.9129001e-05
5.166213e-05
8.791332e-05
0.00013923418
0.00016367246
0.00017092806
0.00017500245
0.00017586073
0.00017567222
0.00017577445
0.00017661957
0.00017844186
0.00018140211
0.00018574166
0.00019219605
0.0002010458
0.0002120853
0.0002265653
0.00025022511
0.0002983731
0.00039777518
0.00045957687
0.00048211201
0.00052309014
0.0005760684
0.0006483941
0.00073520201
0.00083129595
0.00091553307
0.00096058744
0.00097465014
0.00083493461
0.00069024642
0.00046634864
0.00028776359
0.00017851861
0.00013447267
0.00012622006
0.00013738546
0.00016167153
0.00019592371
0.0002456162
1.1153176e-17
2.1691425e-15
5.7775702e-14
5.8572204e-13
3.5421977e-12
1.5693197e-11
5.6664071e-11
1.772961e-10
4.9941251e-10
1.2987776e-09
3.1732022e-09
7.375318e-09
1.645866e-08
3.5511401e-08
7.4478241e-08
1.5247414e-07
3.0570657e-07
6.0187653e-07
1.1661212e-06
2.2273539e-06
4.2002005e-06
7.8271921e-06
1.4414613e-05
2.6178057e-05
4.6569274e-05
7.992456e-05
0.00012877033
0.00017449739
0.00018346163
0.00018852888
0.0001901497
0.00019018449
0.00019045356
0.00019156429
0.00019378666
0.00019738621
0.0002031456
0.00021139917
0.00022179877
0.00023513056
0.00025371342
0.00028422645
0.0003460269
0.00047297714
0.00051730856
0.0005675305
0.00064072576
0.00073495318
0.00085690867
0.00099770966
0.0011494599
0.0012812255
0.0013517872
0.0013717381
0.0011337746
0.00083857809
0.00051648912
0.00028809071
0.00016160582
0.00011918805
0.00011900477
0.00014222407
0.00018224051
0.00023420032
0.0003013264
9.8931006e-18
1.924075e-15
5.1248289e-14
5.1954734e-13
3.1419916e-12
1.392005e-11
5.0261032e-11
1.572581e-10
4.4295239e-10
1.1518784e-09
2.8140379e-09
6.5396383e-09
1.4590879e-08
3.1472621e-08
6.598209e-08
1.3500988e-07
2.7050477e-07
5.3210074e-07
1.0297986e-06
1.964373e-06
3.6987164e-06
6.8819362e-06
1.2657768e-05
2.2983102e-05
4.0988772e-05
7.0920702e-05
0.00011627541
0.00017432814
0.00020025916
0.00020660261
0.00020928672
0.00020968869
0.00021003
0.00021136261
0.00021395386
0.00021856885
0.00022590917
0.00023558435
0.00024792196
0.0002647635
0.00028832685
0.00032705469
0.0004050147
0.00053764432
0.00059171591
0.00067401536
0.00078431632
0.00092518539
0.0010996807
0.0012956791
0.0015006672
0.0016582338
0.0017347068
0.0017521478
0.0013799106
0.00093014926
0.00054225637
0.00026009659
0.00013578917
0.00010521009
0.00011785125
0.00015673859
0.00021732313
0.00028897328
0.00036698703
8.5734173e-18
1.6674141e-15
4.4412056e-14
4.5024203e-13
2.7228556e-12
1.2063061e-11
4.3555436e-11
1.3627437e-10
3.8383283e-10
9.9808165e-10
2.4380904e-09
5.6651865e-09
1.2637323e-08
2.7251002e-08
5.7108711e-08
1.167899e-07
2.3382942e-07
4.5952348e-07
8.8827438e-07
1.6919381e-06
3.1803293e-06
5.9065784e-06
1.0845888e-05
1.9678696e-05
3.5156814e-05
6.1265885e-05
0.00010214151
0.00015796935
0.00021861963
0.00023114674
0.00023512516
0.00023605168
0.0002362911
0.00023758287
0.00024056954
0.00024638429
0.00025492354
0.00026577519
0.00028066633
0.00030124146
0.00033013834
0.00037779547
0.00047334461
0.00059559047
0.00067488849
0.00078971403
0.00093737907
0.0011220046
0.0013418142
0.0015803572
0.001816758
0.0019787
0.0020491484
0.0019674394
0.0015124232
0.00097561106
0.0004832135
0.0002120988
0.00011141943
9.993346e-05
0.00012832797
0.00018452774
0.00026554586
0.00034815743
0.00042512125
7.2438691e-18
1.4088346e-15
3.7524708e-14
3.8041853e-13
2.3005888e-12
1.019223e-11
3.6800077e-11
1.1513609e-10
3.2428319e-10
8.4318822e-10
2.059545e-09
4.7849778e-09
1.0671821e-08
2.3006317e-08
4.8194655e-08
9.8507398e-08
1.9708195e-07
3.8693425e-07
7.4702909e-07
1.4206992e-06
2.6655432e-06
4.9402746e-06
9.0531717e-06
1.6404013e-05
2.9328604e-05
5.1396585e-05
8.6967722e-05
0.00013838028
0.0001999523
0.0002565976
0.000270991
0.00027245206
0.00027238511
0.0002730898
0.00027623956
0.00028262148
0.00029153014
0.0003036449
0.00032119342
0.00034560852
0.00037987206
0.00043628283
0.00054911911
0.0006546245
0.00075831607
0.00090100578
0.0010797851
0.0012986683
0.0015501948
0.0018111197
0.0020456034
0.0021733806
0.0022155923
0.0020682795
0.0015411496
0.00086572374
0.00039196082
0.00016152794
9.4811155e-05
0.00010124722
0.00014586494
0.00022344679
0.00032249217
0.00040526006
0.00048020487
5.9531882e-18
1.1578139e-15
3.0838639e-14
3.1263517e-13
1.8906614e-12
8.3760995e-12
3.0242453e-11
9.4617637e-11
2.6648469e-10
6.9287008e-10
1.692258e-09
3.931213e-09
8.7662258e-09
1.8893615e-08
3.9565265e-08
8.0829175e-08
1.6160207e-07
3.1697982e-07
6.1121779e-07
1.160577e-06
2.1732617e-06
4.0187802e-06
7.3469915e-06
1.3286176e-05
2.3745106e-05
4.1763426e-05
7.1512001e-05
0.00011671382
0.00017595299
0.00023764231
0.00028659953
0.00031730363
0.00032322399
0.00032234757
0.00032421216
0.00032984457
0.00033868144
0.00035179412
0.00037053094
0.00039703361
0.00043471104
0.00049737708
0.00060892721
0.00070235562
0.00082627424
0.0009912735
0.0011954228
0.0014385879
0.0017067114
0.0019680548
0.0021605322
0.0022435772
0.0022054739
0.0020082156
0.001352557
0.00069367486
0.00028117299
0.00011695565
8.5293751e-05
0.00010960705
0.00017610769
0.00027376983
0.00038090097
0.00045193976
0.0005239801
4.7461004e-18
9.2305111e-16
2.4585629e-14
2.4924262e-13
1.5072904e-12
6.6776418e-12
2.4109865e-11
7.5429932e-11
2.1243877e-10
5.5232825e-10
1.3489226e-09
3.1333492e-09
6.9861391e-09
1.5054063e-08
3.1515648e-08
6.4357115e-08
1.2859166e-07
2.5201706e-07
4.8539161e-07
9.2024813e-07
1.7198652e-06
3.1728419e-06
5.7851355e-06
1.0435293e-05
1.8622692e-05
3.2807303e-05
5.6657052e-05
9.4439998e-05
0.00014795338
0.00021092188
0.00026840576
0.00030896467
0.00033240457
0.0003464995
0.00035830774
0.00037110136
0.00038498761
0.00040168286
0.00042431166
0.0004550898
0.00049530289
0.00055613204
0.00063583171
0.00074026016
0.00087825606
0.0010552573
0.0012669146
0.0015097066
0.0017655941
0.0020014966
0.0021599266
0.0021843902
0.0020951296
0.0017668624
0.0010680219
0.00048437181
0.00018268929
8.7702925e-05
8.418e-05
0.00012877006
0.00021766947
0.00032913163
0.00042569123
0.0004879748
0.00056470271
3.6603002e-18
7.1187755e-16
1.896095e-14
1.9222046e-13
1.1624468e-12
5.1498876e-12
1.8593741e-11
5.8171656e-11
1.6383049e-10
4.2593929e-10
1.0402108e-09
2.4161195e-09
5.3865278e-09
1.1605588e-08
2.4291279e-08
4.9588938e-08
9.903686e-08
1.9396036e-07
3.7320099e-07
7.0656749e-07
1.318069e-06
2.4258721e-06
4.4107893e-06
7.9326309e-06
1.4122126e-05
2.4871085e-05
4.3165448e-05
7.3082196e-05
0.00011829385
0.00017762533
0.00024046167
0.00029175303
0.00032455656
0.00034419991
0.00035853307
0.00037191484
0.00038643069
0.00040382246
0.00042669938
0.00045782151
0.00050058505
0.00055996377
0.00064040203
0.00074674795
0.00088690504
0.0010637765
0.0012732055
0.0015091389
0.0017514139
0.0019688355
0.002078132
0.0020341952
0.0018801073
0.0014071747
0.00074654238
0.00030710943
0.00011925067
7.148431e-05
9.2615556e-05
0.00016150744
0.00027040413
0.00038048717
0.00045189597
0.00051888518
0.00060247266
2.723216e-18
5.2962731e-16
1.4106666e-14
1.4300874e-13
8.6483843e-13
3.8314087e-12
1.3833303e-11
4.3278107e-11
1.2188451e-10
3.1688181e-10
7.7386474e-10
1.7974351e-09
4.0070927e-09
8.6330321e-09
1.8067767e-08
3.6877889e-08
7.3629935e-08
1.4413422e-07
2.7712466e-07
5.2408203e-07
9.7607455e-07
1.792499e-06
3.2500775e-06
5.826217e-06
1.0339019e-05
1.817208e-05
3.1590209e-05
5.4010287e-05
8.9615154e-05
0.00014087546
0.00020337596
0.00026369838
0.00030875103
0.00033594711
0.00035405607
0.00036930118
0.00038418463
0.00040213308
0.00042527385
0.00045641851
0.0004989458
0.00055727986
0.00063613484
0.0007412111
0.00087899703
0.0010497412
0.0012480626
0.0014649328
0.0016742169
0.0018514436
0.0018561452
0.0017828308
0.0015616147
0.00099409274
0.00047258807
0.00017780706
8.0242202e-05
6.7621225e-05
0.0001104852
0.00020358707
0.00032207411
0.00040609592
0.000478061
0.00055039498
0.00064287811
1.9494737e-18
3.7914503e-16
1.0098541e-14
1.0237542e-13
6.1910894e-13
2.7427721e-12
9.9027622e-12
3.0981214e-11
8.7252783e-11
2.2684557e-10
5.5399091e-10
1.2867628e-09
2.8687036e-09
6.1806313e-09
1.2935567e-08
2.6402698e-08
5.2712262e-08
1.0316834e-07
1.9828223e-07
3.7470595e-07
6.9702097e-07
1.2776653e-06
2.3106028e-06
4.12836e-06
7.2985218e-06
1.2783998e-05
2.2192817e-05
3.80995e-05
6.4208292e-05
0.00010452593
0.00016003084
0.00022359976
0.00028059663
0.00032035625
0.00034485403
0.00036237461
0.00037881917
0.00039635419
0.00041831546
0.00044773098
0.00048777177
0.00054233917
0.00061558276
0.00071340728
0.00084013785
0.00099498666
0.0011670098
0.0013442951
0.0015111771
0.0016036835
0.0015730324
0.0014649999
0.0011121667
0.00062974577
0.00026117915
0.00010309785
5.9430906e-05
7.6831006e-05
0.00014912395
0.00025967709
0.00035929467
0.00042912405
0.00050631021
0.00058305118
0.00068111286
1.3403588e-18
2.6068076e-16
6.9432347e-15
7.0387914e-14
4.2566565e-13
1.8857782e-12
6.8085918e-12
2.1301042e-11
5.9990951e-11
1.5597143e-10
3.8091864e-10
8.8481463e-10
1.972769e-09
4.2508478e-09
8.8980936e-09
1.8165296e-08
3.6273764e-08
7.100644e-08
1.364751e-07
2.5785178e-07
4.793475e-07
8.7754928e-07
1.5836748e-06
2.8208857e-06
4.9672576e-06
8.6619395e-06
1.497979e-05
2.5696279e-05
4.3600219e-05
7.2541896e-05
0.000116227
0.00017435103
0.0002378115
0.00029214729
0.00032826027
0.00035151887
0.00036933492
0.00038708971
0.00040818293
0.0004345321
0.0004696506
0.00051730776
0.00058073615
0.00066476487
0.00077259627
0.00090113983
0.0010440161
0.0011708503
0.0012959151
0.001298713
0.0012491634
0.0010792671
0.00071403928
0.00035906475
0.00013532316
6.4116769e-05
5.5754165e-05
0.00010229325
0.00019472512
0.00030469254
0.00037453257
0.00044911877
0.00053213266
0.00061896752
0.0007225562
8.842922e-19
1.7198232e-16
4.5807483e-15
4.6437839e-14
2.8082879e-13
1.2441224e-12
4.491903e-12
1.4053246e-11
3.9579304e-11
1.0290593e-10
2.5133357e-10
5.8385945e-10
1.3019403e-09
2.8059355e-09
5.8752018e-09
1.1998724e-08
2.3971596e-08
4.6951428e-08
9.0293191e-08
1.7067433e-07
3.1732102e-07
5.8064014e-07
1.0464562e-06
1.8594023e-06
3.2619917e-06
5.6603892e-06
9.7351025e-06
1.662181e-05
2.8180515e-05
4.7294997e-05
7.7847407e-05
0.00012332002
0.00018263083
0.00024584638
0.00029837881
0.00033302267
0.00035590954
0.00037443318
0.00039359467
0.00041748574
0.00044779164
0.00048696909
0.00053785749
0.00060424335
0.00068867025
0.00078719659
0.00088902823
0.00098394328
0.0010271928
0.0010087158
0.00093142876
0.00070104773
0.00042425486
0.0001784677
7.4897761e-05
4.7433854e-05
6.9693717e-05
0.00014407882
0.00025550478
0.00033556496
0.00039832676
0.00047315821
0.00055880703
0.00065243795
0.00076123909
5.6014347e-19
1.0893998e-16
2.9016138e-15
2.941539e-14
1.7788665e-13
7.8806909e-13
2.8453281e-12
8.9018873e-12
2.507158e-11
6.518833e-11
1.5922385e-10
3.6992414e-10
8.2502873e-10
1.7785533e-09
3.7254041e-09
7.6122156e-09
1.5218623e-08
2.983429e-08
5.7437618e-08
1.0870495e-07
2.0236172e-07
3.7065379e-07
6.6811193e-07
1.1856511e-06
2.0735468e-06
3.5806275e-06
6.1184423e-06
1.0370378e-05
1.7468667e-05
2.9256381e-05
4.8578058e-05
7.9258767e-05
0.00012472919
0.00018401977
0.00024763968
0.00029955251
0.00033447172
0.00035804644
0.0003773137
0.00039756315
0.00042223025
0.000453931
0.00049325168
0.00054248106
0.00060196043
0.00067067084
0.00073388368
0.00078616467
0.00078378681
0.00074819799
0.00062523533
0.00044167821
0.00022262916
8.5370037e-05
4.5765307e-05
4.9006405e-05
0.00010164694
0.00019764698
0.00028543213
0.00034810876
0.00042238194
0.00050283795
0.00059002986
0.00068330611
0.00079583905
3.4146738e-19
6.641054e-17
1.7688413e-15
1.7931784e-14
1.0844045e-13
4.8040952e-13
1.7345247e-12
5.4266755e-12
1.5284177e-11
3.9741768e-11
9.7076888e-11
2.2556481e-10
5.0316351e-10
1.0850054e-09
2.2736501e-09
4.648648e-09
9.3016076e-09
1.8255225e-08
3.5195815e-08
6.6726434e-08
1.244609e-07
2.2844088e-07
4.1259433e-07
7.3332332e-07
1.2828492e-06
2.2096747e-06
3.7530759e-06
6.3046204e-06
1.0509671e-05
1.7428011e-05
2.8774998e-05
4.7200503e-05
7.6329807e-05
0.00011972442
0.00017748441
0.00024149291
0.0002942241
0.00033118296
0.00035651166
0.00037664984
0.00039680135
0.00042018979
0.00044811877
0.00048157664
0.00052201295
0.00056071473
0.00060163798
0.00060799212
0.00059367404
0.00053243008
0.00041809147
0.00024941383
9.5629177e-05
4.6125501e-05
3.7235009e-05
7.4897546e-05
0.0001549736
0.00025057134
0.00031411391
0.00037885549
0.00044865539
0.00053454944
0.00063076007
0.00072517534
0.00083433773
2.0112789e-19
3.9116505e-17
1.0418655e-15
1.0561996e-14
6.3872354e-14
2.8296492e-13
1.0216501e-12
3.1963836e-12
9.0027501e-12
2.3409739e-11
5.7186641e-11
1.3289233e-10
2.9649573e-10
6.3953921e-10
1.3407546e-09
2.7430364e-09
5.4936449e-09
1.079539e-08
2.0848377e-08
3.9610534e-08
7.4075504e-08
1.3636338e-07
2.470508e-07
4.4035593e-07
7.7210121e-07
1.3319211e-06
2.2621229e-06
3.7850376e-06
6.2491183e-06
1.021614e-05
1.6614225e-05
2.6926842e-05
4.3438527e-05
6.9348722e-05
0.00010818409
0.00016161461
0.00022501851
0.00028040511
0.00032125714
0.00034980336
0.00037103131
0.0003875689
0.00040961901
0.00043080219
0.00045452842
0.00047713276
0.00049053314
0.00048230562
0.0004513137
0.00037429705
0.00024900395
9.8537682e-05
4.5514514e-05
3.1783783e-05
5.3044862e-05
0.00011148668
0.0001995072
0.00027101469
0.00029829887
0.00035026251
0.00042084602
0.00052433845
0.0006515949
0.00075054834
0.00086552037
1.1504515e-19
2.2374649e-17
5.959473e-16
6.0414622e-15
3.6534926e-14
1.6185544e-13
5.843827e-13
1.8283389e-12
5.1496746e-12
1.339106e-11
3.2714353e-11
7.6030407e-11
1.6965926e-10
3.6604973e-10
7.677103e-10
1.5716011e-09
3.1503243e-09
6.1984002e-09
1.1991388e-08
2.2835911e-08
4.2832948e-08
7.9136564e-08
1.4396373e-07
2.5769416e-07
4.5348719e-07
7.8428359e-07
1.3337357e-06
2.2330565e-06
3.6861535e-06
5.9990368e-06
9.6331923e-06
1.5310691e-05
2.4221369e-05
3.8159029e-05
5.9642141e-05
9.1687491e-05
0.0001367054
0.00019487029
0.00025225753
0.00029758112
0.00032135707
0.00033197487
0.00036618494
0.00038942362
0.00040347388
0.00041215104
0.00040529693
0.00038136349
0.00032488653
0.00021901249
8.8959723e-05
4.1761309e-05
2.7408631e-05
3.8380751e-05
8.5296085e-05
0.00017198802
0.0002022152
0.00019759904
0.00022607295
0.00026817097
0.00033099603
0.00043819899
0.0005930365
0.00078469143
0.00089553055
6.4297907e-20
1.250503e-17
3.3307055e-16
3.3765271e-15
2.0419059e-14
9.0459521e-14
3.2660646e-13
1.0218485e-12
2.8781637e-12
7.4844962e-12
1.8285532e-11
4.2500434e-11
9.4851222e-11
2.0469087e-10
4.2943654e-10
8.7955513e-10
1.7644331e-09
3.4754721e-09
6.7344133e-09
1.2853559e-08
2.4182768e-08
4.4857307e-08
8.2008418e-08
1.4764537e-07
2.6144491e-07
4.5479788e-07
7.7643028e-07
1.3008851e-06
2.1426179e-06
3.480471e-06
5.5868649e-06
8.8554136e-06
1.3822885e-05
2.1276864e-05
3.2508413e-05
4.9234019e-05
7.35094e-05
0.00010723344
0.00015151893
0.00020334228
0.00024352496
0.00027267763
0.00031150579
0.00032982676
0.00033536627
0.00032699085
0.0003038831
0.0002560106
0.00016610315
7.0895417e-05
3.5412342e-05
2.3608615e-05
2.9896208e-05
6.8366513e-05
0.00014173642
0.00015587519
0.00014874806
0.00017000703
0.00020090034
0.00024290141
0.00030017479
0.00038392198
0.00050776943
0.00075569606
0.00092470343
3.5567801e-20
6.9174294e-18
1.8424502e-16
1.8677943e-15
1.1295174e-14
5.0039064e-14
1.8066624e-13
5.6524427e-13
1.5920753e-12
4.1401106e-12
1.011496e-11
2.3510866e-11
5.247572e-11
1.1326318e-10
2.3769196e-10
4.8704777e-10
9.7769342e-10
1.9276889e-09
3.740595e-09
7.1539609e-09
1.3497874e-08
2.5135918e-08
4.6197807e-08
8.37537e-08
1.4962696e-07
2.6298167e-07
4.5380004e-07
7.6715057e-07
1.2687033e-06
2.053549e-06
3.2618722e-06
5.1226682e-06
7.9717451e-06
1.2283553e-05
1.8557353e-05
2.7503259e-05
4.0067062e-05
5.7355629e-05
8.0269515e-05
0.00010870126
0.00014113731
0.00017411927
0.00020052462
0.00021826004
0.00021533557
0.00020208555
0.00017057038
0.00010444212
4.8983901e-05
2.774975e-05
1.9978069e-05
2.4873107e-05
5.5504634e-05
0.00011661982
0.00012187357
0.00011166806
0.00012219551
0.00013854122
0.00015967882
0.00019465823
0.00024725946
0.00033759177
0.00047444425
0.00071780758
0.00094393168
2.0310114e-20
3.9500263e-18
1.0520841e-16
1.0665527e-15
6.4497507e-15
2.8572871e-14
1.0316066e-13
3.2274745e-13
9.0902606e-13
2.3637777e-12
5.7747873e-12
1.3421835e-11
2.9954779e-11
6.4648142e-11
1.3565866e-10
2.7796814e-10
5.580423e-10
1.1006055e-09
2.1370434e-09
4.0919458e-09
7.7359062e-09
1.4450548e-08
2.6676929e-08
4.8655989e-08
8.7603702e-08
1.5545311e-07
2.7131471e-07
4.6456478e-07
7.7834912e-07
1.2733688e-06
2.0321071e-06
3.1613287e-06
4.8205383e-06
7.2588035e-06
1.0866573e-05
1.6102625e-05
2.3345283e-05
3.2900349e-05
4.5064799e-05
5.9898929e-05
7.7202413e-05
9.4166022e-05
0.00011043034
0.00011686274
0.00011319471
9.6049833e-05
5.6032582e-05
3.1211477e-05
2.0191775e-05
1.6453218e-05
2.1663528e-05
4.723188e-05
9.8603076e-05
9.6796952e-05
8.493676e-05
8.8566714e-05
9.8528409e-05
0.00011537063
0.00014271254
0.00018111705
0.00023248821
0.00030394577
0.00042038292
0.00064571987
0.00092276023
1.3563758e-20
2.6379588e-18
7.0261803e-17
7.1228222e-16
4.3073808e-15
1.908203e-14
6.8894654e-14
2.1554395e-13
6.0708911e-13
1.5786576e-12
3.8567826e-12
8.9642133e-12
2.0006974e-11
4.318069e-11
9.0614617e-11
1.8567728e-10
3.7276664e-10
7.3519016e-10
1.4274909e-09
2.7332831e-09
5.1675465e-09
9.6552046e-09
1.7838442e-08
3.2593608e-08
5.8877509e-08
1.0504556e-07
1.8469847e-07
3.1907296e-07
5.3966498e-07
8.9043782e-07
1.4289984e-06
2.2272714e-06
3.3749927e-06
4.9790484e-06
7.2028159e-06
1.0257042e-05
1.4530079e-05
2.0326676e-05
2.7906923e-05
3.6965981e-05
4.694894e-05
5.7451533e-05
6.3097358e-05
6.1976734e-05
4.8459835e-05
2.9252804e-05
1.9060149e-05
1.4242983e-05
1.3434596e-05
1.9547315e-05
4.2110633e-05
8.6577234e-05
7.7631483e-05
6.7767366e-05
6.9814039e-05
7.8151299e-05
9.1038152e-05
0.00010769579
0.00012787178
0.00015619928
0.00020344416
0.00028409615
0.00040616073
0.00063140167
0.00092659963
1.2017564e-20
2.3372494e-18
6.2252782e-17
6.3109744e-16
3.8164981e-15
1.6907823e-14
6.104722e-14
1.9100376e-13
5.3801673e-13
1.3992129e-12
3.4189534e-12
7.9483543e-12
1.7744941e-11
3.8313281e-11
8.0440023e-11
1.6493222e-10
3.3138203e-10
6.542229e-10
1.2718681e-09
2.4390859e-09
4.6201663e-09
8.6526509e-09
1.6030739e-08
2.9385777e-08
5.3276284e-08
9.5426487e-08
1.6852701e-07
2.925587e-07
4.9702309e-07
8.2174323e-07
1.3150796e-06
2.030091e-06
3.0222798e-06
4.3563027e-06
6.1275414e-06
8.4959749e-06
1.1563893e-05
1.5483548e-05
2.0277295e-05
2.5709313e-05
3.1640089e-05
3.3935154e-05
3.0851329e-05
2.2075845e-05
1.4907794e-05
1.1556891e-05
1.0291781e-05
1.0916123e-05
1.8328358e-05
3.9293567e-05
7.9253765e-05
6.3648284e-05
5.7304316e-05
5.9493064e-05
6.5536923e-05
7.3283147e-05
8.1955331e-05
9.6342188e-05
0.00011741738
0.00014991835
0.00019426276
0.00026366282
0.0003773671
0.00059503647
0.0009081623
1.3379914e-20
2.6022126e-18
6.9310753e-17
7.0266423e-16
4.2494518e-15
1.8827012e-14
6.7982667e-14
2.1273046e-13
5.9932318e-13
1.5590323e-12
3.8107184e-12
8.8629679e-12
1.9798042e-11
4.2777378e-11
8.9896371e-11
1.8453911e-10
3.7132664e-10
7.344402e-10
1.4310974e-09
2.7522256e-09
5.2315107e-09
9.8394427e-09
1.8324085e-08
3.3799724e-08
6.1736467e-08
1.1155284e-07
1.9896557e-07
3.4894313e-07
5.9817669e-07
9.9426326e-07
1.5879224e-06
2.4184174e-06
3.501148e-06
4.8432041e-06
6.4730236e-06
8.4451489e-06
1.0774938e-05
1.3241034e-05
1.5523937e-05
1.6990364e-05
1.605853e-05
1.2908652e-05
9.6047577e-06
7.8412552e-06
7.2092833e-06
7.4536672e-06
9.3322557e-06
1.7729658e-05
3.8037672e-05
7.4860058e-05
5.6129658e-05
5.240965e-05
5.5286704e-05
5.9711788e-05
6.4871465e-05
7.1195484e-05
8.160245e-05
9.6781083e-05
0.00011670784
0.00014537539
0.00018867492
0.00026094478
0.00037521235
0.00059629095
0.00092640609
1.4878051e-20
2.8935846e-18
7.7072142e-17
7.8136411e-16
4.7255735e-15
2.0937668e-14
7.5610552e-14
2.3662799e-13
6.6675851e-13
1.7348316e-12
4.2416363e-12
9.86886e-12
2.2055501e-11
4.7683897e-11
1.0028382e-10
2.0605846e-10
4.1511605e-10
8.2223694e-10
1.6049902e-09
3.0931965e-09
5.8945714e-09
1.1120338e-08
2.0786001e-08
3.851137e-08
7.0708706e-08
1.2850409e-07
2.3057138e-07
4.0661579e-07
6.9955234e-07
1.1617048e-06
1.8372544e-06
2.7294059e-06
3.7453917e-06
4.8347761e-06
5.9303571e-06
6.9154426e-06
7.667707e-06
7.9681695e-06
7.5448716e-06
6.4381389e-06
5.2598847e-06
4.4750677e-06
4.4739262e-06
4.855026e-06
5.6684136e-06
8.246236e-06
1.7967354e-05
3.8477137e-05
7.178263e-05
5.454408e-05
5.2937497e-05
5.5224198e-05
5.8431253e-05
6.2021432e-05
6.6362781e-05
7.3136957e-05
8.2489205e-05
9.5231404e-05
0.00011344729
0.00014121507
0.0001819044
0.00025004094
0.00036135992
0.00057810057
0.00092786485
1.3761658e-20
2.6764614e-18
7.1289048e-17
7.2273799e-16
4.3710541e-15
1.936719e-14
6.9940669e-14
2.1888943e-13
6.1679457e-13
1.6048863e-12
3.9240673e-12
9.1303286e-12
2.0405717e-11
4.411838e-11
9.2786842e-11
1.9065361e-10
3.8406922e-10
7.6067977e-10
1.4846084e-09
2.86047e-09
5.4488931e-09
1.0272683e-08
1.9179917e-08
3.5470531e-08
6.4945411e-08
1.1755935e-07
2.0973952e-07
3.6672577e-07
6.2247774e-07
1.0122268e-06
1.550886e-06
2.1956123e-06
2.8325821e-06
3.370219e-06
3.727504e-06
3.8227777e-06
3.5911051e-06
3.114172e-06
2.6894131e-06
2.459066e-06
2.4816023e-06
2.7987749e-06
3.4237545e-06
4.6737675e-06
8.0785524e-06
1.8746464e-05
3.7898282e-05
6.8903436e-05
5.870414e-05
5.7570327e-05
5.868101e-05
6.0009607e-05
6.2474509e-05
6.5198124e-05
6.9690595e-05
7.6369434e-05
8.54493e-05
9.8774362e-05
0.00011736027
0.00014494697
0.00018539294
0.00025382484
0.00036628721
0.00058670437
0.00094390785
9.891484e-21
1.9237606e-18
5.1240136e-17
5.1947243e-16
3.141651e-15
1.3919465e-14
5.0264436e-14
1.5729614e-13
4.4317793e-13
1.1529264e-12
2.8182569e-12
6.5550137e-12
1.4642815e-11
3.1637527e-11
6.6478608e-11
1.364353e-10
2.7441935e-10
5.4240291e-10
1.0557965e-09
2.0272805e-09
3.8446867e-09
7.2074045e-09
1.3360776e-08
2.4487988e-08
4.4337621e-08
7.9155393e-08
1.3886898e-07
2.3805063e-07
3.9507435e-07
6.2563931e-07
9.2760708e-07
1.2588956e-06
1.5410031e-06
1.7110557e-06
1.720967e-06
1.590473e-06
1.428122e-06
1.3489834e-06
1.357519e-06
1.4987716e-06
2.0129396e-06
2.7443393e-06
4.207765e-06
8.3469879e-06
1.8349426e-05
3.6994418e-05
6.5946192e-05
7.0185222e-05
6.6193786e-05
6.5149756e-05
6.4465316e-05
6.5131019e-05
6.6453739e-05
6.9416783e-05
7.4208169e-05
8.0762628e-05
8.9845209e-05
0.00010295283
0.00012013107
0.00014610883
0.00018437753
0.00025186995
0.00036079223
0.00058752019
0.00096308159
5.7546803e-21
1.1192061e-18
2.9810253e-17
3.022102e-16
1.827634e-15
8.0970922e-15
2.9236755e-14
9.1480762e-14
2.5769613e-13
6.7021706e-13
1.6376964e-12
3.8072005e-12
8.4988071e-12
1.8345749e-11
3.8501918e-11
7.8890416e-11
1.5833977e-10
3.1210018e-10
6.0532727e-10
1.1569272e-09
2.1810168e-09
4.0574944e-09
7.4487781e-09
1.3485126e-08
2.4040304e-08
4.2095738e-08
7.2104669e-08
1.2004171e-07
1.9236281e-07
2.9269038e-07
4.1568438e-07
5.4112987e-07
6.3854694e-07
6.8621012e-07
7.0572183e-07
7.2928116e-07
7.4108739e-07
8.7049199e-07
1.0930038e-06
1.6284302e-06
2.5048249e-06
4.1468521e-06
8.3448872e-06
1.7720763e-05
3.5601766e-05
6.2975531e-05
9.2524594e-05
8.1197972e-05
7.6023185e-05
7.2203999e-05
7.0420647e-05
6.9657812e-05
7.1147024e-05
7.4091363e-05
7.84814e-05
8.5305634e-05
9.4756861e-05
0.00010774865
0.000125323
0.00015212814
0.00019044154
0.0002590538
0.00036853923
0.00059495505
0.00097539304
2.9028955e-21
5.6457218e-19
1.5037344e-17
1.524422e-16
9.218678e-16
4.0839616e-15
1.4744873e-14
4.6129876e-14
1.2992009e-13
3.3780573e-13
8.2513494e-13
1.9172606e-12
4.2770463e-12
9.2243769e-12
1.933645e-11
3.9559703e-11
7.924089e-11
1.5578379e-10
3.0112905e-10
5.7302865e-10
1.0742296e-09
1.9841906e-09
3.6095002e-09
6.4595302e-09
1.1349804e-08
1.9519474e-08
3.2707786e-08
5.3052523e-08
8.256713e-08
1.2199747e-07
1.6941356e-07
2.2015111e-07
2.7116879e-07
3.2662027e-07
3.9879806e-07
4.9101015e-07
6.5364792e-07
9.307635e-07
1.4729053e-06
2.3473294e-06
3.9909055e-06
7.9295385e-06
1.674457e-05
3.4218712e-05
5.9931851e-05
9.1129726e-05
0.00010609005
9.3513668e-05
8.4117847e-05
7.8629778e-05
7.5280423e-05
7.4659668e-05
7.5734221e-05
7.837779e-05
8.3391045e-05
9.0485296e-05
9.9868984e-05
0.00011349472
0.00013117967
0.00015712091
0.00019397106
0.00026075024
0.00037318225
0.00060844037
0.00099399951
1.4659882e-21
2.8511357e-19
7.5939273e-18
7.6982595e-17
4.6552279e-16
2.062197e-15
7.4448351e-15
2.3288909e-14
6.5581367e-14
1.7048636e-13
4.1633524e-13
9.6709029e-13
2.1565702e-12
4.6488908e-12
9.7393971e-12
1.9910936e-11
3.984741e-11
7.8253012e-11
1.5106431e-10
2.8701519e-10
5.3706036e-10
9.898793e-10
1.7964304e-09
3.2068279e-09
5.6215044e-09
9.6534144e-09
1.6186189e-08
2.639527e-08
4.1691556e-08
6.3602743e-08
9.3795226e-08
1.3471123e-07
1.9069914e-07
2.7277773e-07
3.8698777e-07
5.521209e-07
8.507538e-07