/*--------------------------------*- C++ -*----------------------------------*\
  =========                 |
  \\      /  F ield         | OpenFOAM: The Open Source CFD Toolbox
   \\    /   O peration     | Website:  https://openfoam.org
    \\  /    A nd           | Version:  13
     \\/     M anipulation  |
\*---------------------------------------------------------------------------*/
FoamFile
{
    format      ascii;
    class       volScalarField;
    location    "12.902623";
    object      p;
}
// * * * * * * * * * * * * * * * * * * * * * * * * * * * * * * * * * * * * * //

dimensions      [0 2 -2 0 0 0 0];

internalField   nonuniform List<scalar> 
17140
(
-0.10740917
-0.10754403
-0.1077073
-0.10787359
-0.1080538
-0.10825079
-0.10846488
-0.10869664
-0.10894673
-0.10921569
-0.10950391
-0.10981173
-0.11013948
-0.11048768
-0.11085727
-0.11125005
-0.11166927
-0.11212047
-0.11261262
-0.1131596
-0.11378202
-0.11450949
-0.1153834
-0.11645989
-0.11781352
-0.11954637
-0.1217905
-0.12459248
-0.12788737
-0.13175305
-0.13643486
-0.14213311
-0.14903466
-0.15736616
-0.16737866
-0.17934732
-0.19357455
-0.21038668
-0.23012473
-0.2531275
-0.2797056
-0.3101016
-0.34443892
-0.3826788
-0.4245403
-0.46925158
-0.51550321
-0.56228609
-0.60812087
-0.65111147
-0.68889327
-0.71903124
-0.73937121
-0.74449314
-0.73271045
-0.70044639
-0.64042796
-0.54955259
-0.4220124
-0.2570959
-0.087465681
0.044909624
0.12510064
0.14699222
0.14379364
-0.10809446
-0.10822729
-0.10838797
-0.1085518
-0.10872936
-0.10892347
-0.10913445
-0.10936288
-0.10960941
-0.10987457
-0.11015876
-0.1104623
-0.11078552
-0.11112893
-0.11149344
-0.11188082
-0.11229425
-0.11273922
-0.11322459
-0.1137641
-0.11437817
-0.11509621
-0.1159593
-0.11702325
-0.11836216
-0.12007724
-0.12229982
-0.12508153
-0.12836007
-0.13220483
-0.13685971
-0.14252906
-0.14939878
-0.15769554
-0.16767058
-0.1795994
-0.19378488
-0.21055413
-0.23024928
-0.25321053
-0.27974984
-0.31011219
-0.3444237
-0.38264996
-0.42450968
-0.46920945
-0.51548469
-0.56232918
-0.60825033
-0.65136603
-0.68935027
-0.71973805
-0.74004497
-0.74610852
-0.735122
-0.70310367
-0.64438828
-0.55490107
-0.42858093
-0.26402649
-0.093613079
0.039762839
0.12097749
0.14382188
0.14130227
-0.11136266
-0.11148976
-0.11164327
-0.11180024
-0.11197044
-0.11215656
-0.11235893
-0.11257811
-0.11281474
-0.11306932
-0.11334223
-0.11363376
-0.1139442
-0.11427397
-0.1146239
-0.11499562
-0.11539212
-0.11581864
-0.11628369
-0.11680063
-0.11738937
-0.11807873
-0.11890907
-0.11993542
-0.1212309
-0.12289461
-0.12505617
-0.12778196
-0.13101755
-0.13480897
-0.13939666
-0.14499735
-0.15179505
-0.16001735
-0.16991688
-0.18177089
-0.19588425
-0.21258622
-0.23222119
-0.25513222
-0.28163412
-0.31197334
-0.34627757
-0.38451993
-0.42640682
-0.47106359
-0.51734973
-0.5642762
-0.61028782
-0.65351878
-0.69169615
-0.72242309
-0.74310219
-0.7499114
-0.74003407
-0.70916969
-0.65229734
-0.56525872
-0.44115879
-0.27699987
-0.10532316
0.029794491
0.11252205
0.13657398
0.13539949
-0.11717649
-0.11729417
-0.11743592
-0.11758161
-0.11773971
-0.11791268
-0.11810087
-0.11830483
-0.11852516
-0.11876232
-0.11901665
-0.11928838
-0.11957772
-0.119885
-0.12021087
-0.12055673
-0.12092528
-0.12132131
-0.12175283
-0.12223249
-0.12277943
-0.12342147
-0.12419788
-0.12516239
-0.1263866
-0.12796637
-0.13002814
-0.13266168
-0.13582611
-0.13953371
-0.14401534
-0.1495083
-0.15619397
-0.16430157
-0.17408636
-0.18582865
-0.19983604
-0.21644109
-0.23599268
-0.25883715
-0.28529188
-0.31560317
-0.34990015
-0.38816279
-0.43005977
-0.47459839
-0.52089436
-0.5678885
-0.61395698
-0.65727285
-0.6956319
-0.7266908
-0.74787021
-0.75573003
-0.74717188
-0.71789296
-0.66357174
-0.58010036
-0.45917067
-0.29564557
-0.12242702
0.014407246
0.098756598
0.12449619
0.12541047
-0.12535949
-0.12546424
-0.12558992
-0.12572009
-0.12586155
-0.12601642
-0.1261851
-0.1263681
-0.12656597
-0.12677913
-0.12700785
-0.1272523
-0.12751259
-0.1277889
-0.12808169
-0.12839206
-0.1287223
-0.12907667
-0.12946245
-0.12989141
-0.13038158
-0.1309595
-0.13166288
-0.1325437
-0.13367149
-0.13513788
-0.13706448
-0.13957039
-0.14263546
-0.14623297
-0.15057347
-0.15592167
-0.16245724
-0.17041091
-0.18004132
-0.19163248
-0.20549627
-0.22196969
-0.24140547
-0.26415361
-0.29053324
-0.32078746
-0.35504532
-0.3932866
-0.43509875
-0.47946315
-0.52574744
-0.57269347
-0.61873344
-0.66205812
-0.70057027
-0.73200606
-0.75383273
-0.76286525
-0.75585032
-0.72850567
-0.67698508
-0.59764083
-0.4805623
-0.31788301
-0.14346705
-0.0049437407
0.080668751
0.1084572
0.11219943
-0.13560203
-0.13569069
-0.13579642
-0.13590723
-0.13602788
-0.13616015
-0.13630442
-0.1364612
-0.13663095
-0.13681406
-0.13701071
-0.13722102
-0.13744499
-0.13768264
-0.13793424
-0.13820056
-0.13848344
-0.13878651
-0.13911626
-0.13948338
-0.13990462
-0.14040493
-0.14102014
-0.14180004
-0.14281161
-0.14414229
-0.14590732
-0.14824447
-0.15117451
-0.15464882
-0.15882821
-0.16399354
-0.17034291
-0.17810478
-0.18754158
-0.19894165
-0.21262082
-0.22892086
-0.24819857
-0.27080624
-0.29706191
-0.32720343
-0.36135778
-0.3994965
-0.44106938
-0.48524313
-0.53141359
-0.57814809
-0.62403653
-0.66727056
-0.70587028
-0.7376701
-0.76024375
-0.77060335
-0.76530506
-0.74019071
-0.69169105
-0.61656589
-0.50330279
-0.34206582
-0.16695613
-0.027338041
0.059103335
0.089328947
0.096620017
-0.14746516
-0.14753513
-0.14761794
-0.14770609
-0.14780238
-0.14790814
-0.1480238
-0.1481498
-0.14828655
-0.14843436
-0.14859336
-0.1487636
-0.14894499
-0.14913744
-0.149341
-0.14955618
-0.14978437
-0.15002858
-0.15029444
-0.15059152
-0.15093515
-0.1513485
-0.15186527
-0.15253264
-0.15341455
-0.15459479
-0.15618152
-0.15830915
-0.16106052
-0.16440499
-0.16842288
-0.17337294
-0.17950583
-0.18704289
-0.19624936
-0.20741779
-0.22086863
-0.23694756
-0.25601351
-0.27841984
-0.30448173
-0.33442835
-0.36838065
-0.4062955
-0.44748522
-0.49138325
-0.53726697
-0.58365949
-0.62925654
-0.67229293
-0.71090945
-0.74305824
-0.76641291
-0.77814021
-0.77460028
-0.75180063
-0.7063517
-0.63512785
-0.5249426
-0.36591208
-0.19047723
-0.051869743
0.035785208
0.068626246
0.079982266
-0.16039596
-0.16044555
-0.16050443
-0.16056741
-0.16063654
-0.16071282
-0.16079662
-0.16088831
-0.16098822
-0.1610966
-0.16121354
-0.16133904
-0.16147294
-0.16161509
-0.16176538
-0.16192409
-0.16209225
-0.16227233
-0.16246914
-0.16269116
-0.16295223
-0.16327367
-0.16368682
-0.16423597
-0.16498156
-0.16600328
-0.16740244
-0.16930506
-0.17184584
-0.1750411
-0.17889335
-0.18361955
-0.18951261
-0.19679801
-0.20574193
-0.2166409
-0.22981873
-0.24562329
-0.26441516
-0.28654589
-0.31232498
-0.34197163
-0.3755953
-0.41311123
-0.4538155
-0.49731799
-0.54273498
-0.58866529
-0.63383977
-0.67658761
-0.71517336
-0.74764334
-0.77174586
-0.78478583
-0.78289732
-0.76230196
-0.7200138
-0.65181965
-0.54409547
-0.38665611
-0.2135518
-0.075532512
0.011486476
0.047429995
0.063174192
-0.17377031
-0.17379833
-0.17383187
-0.17386816
-0.17390843
-0.17395333
-0.17400316
-0.17405822
-0.17411875
-0.17418495
-0.17425686
-0.17433446
-0.17441759
-0.17450604
-0.17459969
-0.17469866
-0.17480378
-0.1749171
-0.17504278
-0.17518835
-0.1753663
-0.17559612
-0.17590684
-0.17633974
-0.17695152
-0.17781736
-0.17903335
-0.18071699
-0.18300373
-0.18599779
-0.18971286
-0.19424235
-0.19987038
-0.20688596
-0.21554006
-0.22613396
-0.23899355
-0.25446768
-0.27291652
-0.29468758
-0.32008221
-0.34930982
-0.38246532
-0.41938196
-0.45956284
-0.50255904
-0.54730943
-0.592652
-0.63729864
-0.67969387
-0.71819647
-0.75091768
-0.77569813
-0.78990486
-0.78950812
-0.77083368
-0.7312898
-0.66527548
-0.55862865
-0.40283001
-0.23222614
-0.09691633
-0.011998845
0.02690404
0.046939416
-0.1869213
-0.18692748
-0.18693534
-0.18694452
-0.18695542
-0.18696832
-0.18698344
-0.18700098
-0.18702112
-0.18704396
-0.18706955
-0.18709784
-0.18712871
-0.18716199
-0.1871976
-0.18723569
-0.18727699
-0.18732337
-0.1873786
-0.18744949
-0.18754741
-0.18769028
-0.18790492
-0.18822977
-0.18871778
-0.18943939
-0.19048513
-0.19196649
-0.19401237
-0.19675499
-0.20028585
-0.2046672
-0.21006125
-0.21677504
-0.22512014
-0.23538331
-0.24788744
-0.26297798
-0.28101412
-0.30233869
-0.32724498
-0.35593433
-0.38849153
-0.42467279
-0.46423375
-0.50655746
-0.55051344
-0.59516226
-0.6391969
-0.68117134
-0.71951368
-0.75238206
-0.77775151
-0.79289871
-0.79367875
-0.77650252
-0.73901149
-0.67409464
-0.56718938
-0.41332372
-0.24798179
-0.11747049
-0.033416971
0.0075283479
0.031569008
-0.19919557
-0.19918066
-0.19916368
-0.19914656
-0.1991289
-0.19911059
-0.19909178
-0.19907254
-0.19905295
-0.19903307
-0.1990129
-0.1989924
-0.19897151
-0.19895018
-0.19892842
-0.19890654
-0.19888539
-0.19886685
-0.19885456
-0.19885492
-0.19887857
-0.19894218
-0.19907071
-0.19930004
-0.19967969
-0.20027557
-0.20117243
-0.20247557
-0.2043091
-0.20680732
-0.21009638
-0.21428927
-0.21951362
-0.22597839
-0.23399516
-0.24389433
-0.25599632
-0.27064573
-0.28820102
-0.3089945
-0.3333121
-0.36134823
-0.3931653
-0.42856376
-0.46735252
-0.50880323
-0.55189569
-0.59574783
-0.63908823
-0.68057415
-0.71868077
-0.75159801
-0.7773448
-0.79311225
-0.79459094
-0.77847395
-0.74214565
-0.67675182
-0.56859768
-0.41488014
-0.25959304
-0.13453533
-0.052783379
-0.010301231
0.017218455
-0.21000203
-0.20996785
-0.2099281
-0.2098868
-0.20984277
-0.20979557
-0.2097452
-0.20969164
-0.20963484
-0.20957478
-0.20951142
-0.20944472
-0.20937469
-0.20930139
-0.20922503
-0.20914613
-0.2090658
-0.20898614
-0.20891093
-0.20884652
-0.20880317
-0.20879676
-0.2088509
-0.20899937
-0.20928875
-0.20978103
-0.21055574
-0.21171186
-0.21336786
-0.21565742
-0.21871774
-0.22268006
-0.22768607
-0.23392544
-0.24165494
-0.25119382
-0.26287408
-0.27704013
-0.29404397
-0.31421952
-0.33784851
-0.36512262
-0.39608249
-0.43063146
-0.4684923
-0.50891333
-0.55104626
-0.59400704
-0.63658408
-0.67749434
-0.71524262
-0.74804704
-0.77394662
-0.78990216
-0.79157203
-0.77615975
-0.73955383
-0.67261902
-0.56211405
-0.41676486
-0.26376635
-0.14874473
-0.069744061
-0.026479344
0.00387149
-0.21886707
-0.21881647
-0.21875726
-0.2186952
-0.21862844
-0.21855619
-0.21847833
-0.21839469
-0.21830511
-0.21820943
-0.21810754
-0.2179994
-0.21788503
-0.21776458
-0.21763844
-0.21750739
-0.21737281
-0.21723716
-0.21710451
-0.21698141
-0.21687811
-0.21681011
-0.21680016
-0.21688053
-0.21709549
-0.21750378
-0.2181806
-0.21921914
-0.22073131
-0.22284657
-0.22570629
-0.22945466
-0.23423894
-0.24023369
-0.24767221
-0.25685161
-0.26810024
-0.28175469
-0.29815447
-0.3176333
-0.34047397
-0.36687464
-0.39688908
-0.43043856
-0.46719135
-0.50647934
-0.5475587
-0.58954944
-0.63128962
-0.67152116
-0.70876868
-0.74129126
-0.76701366
-0.78264537
-0.7841257
-0.7686273
-0.73054253
-0.66098766
-0.54954568
-0.41238004
-0.26564696
-0.16056296
-0.08446849
-0.04101119
-0.0084676021
-0.22548089
-0.22541768
-0.22534346
-0.22526526
-0.22518069
-0.22508868
-0.22498896
-0.22488121
-0.2247651
-0.22464034
-0.2245067
-0.22436405
-0.22421238
-0.22405186
-0.22388297
-0.22370663
-0.2235245
-0.22333928
-0.22315534
-0.22297948
-0.22282206
-0.22269841
-0.22263075
-0.22265028
-0.22279961
-0.22313502
-0.22372845
-0.22466868
-0.22606183
-0.22803117
-0.23071413
-0.23426649
-0.23883068
-0.24458068
-0.25172784
-0.26054179
-0.27132467
-0.28441014
-0.30013865
-0.31883805
-0.34078691
-0.36619105
-0.39512805
-0.42751288
-0.4630372
-0.50111868
-0.54105583
-0.58199537
-0.62281442
-0.66226575
-0.69888328
-0.73089509
-0.7560267
-0.77081939
-0.77181908
-0.75523629
-0.71461902
-0.64203796
-0.5306241
-0.39998726
-0.26669417
-0.16946944
-0.097045246
-0.053951774
-0.019821518
-0.22973315
-0.22966183
-0.22957788
-0.22948909
-0.22939268
-0.22928735
-0.22917268
-0.2290482
-0.2289134
-0.22876781
-0.22861104
-0.22844282
-0.22826299
-0.22807165
-0.22786922
-0.22765662
-0.22743553
-0.22720874
-0.2269807
-0.22675827
-0.22655171
-0.22637612
-0.22625313
-0.22621297
-0.22629679
-0.22655895
-0.22706884
-0.22791206
-0.22919053
-0.23102228
-0.23353822
-0.23687778
-0.24121209
-0.24672091
-0.25355283
-0.26196639
-0.27225363
-0.28473228
-0.29972239
-0.31754757
-0.33848898
-0.36276488
-0.39047521
-0.42155983
-0.45574767
-0.49252151
-0.53122588
-0.57102758
-0.61084236
-0.64938999
-0.6852456
-0.71644089
-0.7405559
-0.75421829
-0.75422398
-0.73570987
-0.69194974
-0.61650023
-0.50615816
-0.38589322
-0.26713094
-0.17615258
-0.10766297
-0.065374567
-0.030174874
-0.2317165
-0.23164203
-0.23155407
-0.23146074
-0.23135904
-0.23124751
-0.23112561
-0.23099269
-0.23084808
-0.23069114
-0.23052126
-0.23033795
-0.23014085
-0.22992984
-0.2297051
-0.22946735
-0.22921803
-0.22895968
-0.22869644
-0.22843477
-0.22818441
-0.22795967
-0.22778111
-0.2276775
-0.2276882
-0.22786542
-0.22827623
-0.22900385
-0.23014753
-0.2318215
-0.23415329
-0.23728106
-0.24136493
-0.24653965
-0.25302049
-0.2610864
-0.27079856
-0.28256146
-0.29671708
-0.31356708
-0.33338395
-0.35640003
-0.38274099
-0.41238383
-0.44510374
-0.48045508
-0.51782691
-0.55640542
-0.59511699
-0.63267383
-0.66756538
-0.69765597
-0.72045888
-0.7328207
-0.73136235
-0.71021954
-0.66302314
-0.5851289
-0.48152002
-0.36823244
-0.26351868
-0.18139991
-0.11643466
-0.075341949
-0.039524943
-0.23171648
-0.23164345
-0.23155642
-0.23146453
-0.23136411
-0.23125353
-0.23113219
-0.23099932
-0.23085409
-0.23069567
-0.23052326
-0.23033612
-0.23013363
-0.22991532
-0.22968102
-0.22943102
-0.22916625
-0.22888863
-0.22860156
-0.22831053
-0.22802404
-0.22775483
-0.22752143
-0.22735014
-0.22727734
-0.22735198
-0.22763791
-0.22821547
-0.22918189
-0.23064994
-0.23274519
-0.23560407
-0.2393662
-0.24419154
-0.25027656
-0.25763244
-0.26681702
-0.27793703
-0.2911628
-0.3068993
-0.32543214
-0.34702838
-0.37183675
-0.39987977
-0.43099123
-0.46479737
-0.50073222
-0.5379944
-0.57552456
-0.61198281
-0.64571201
-0.67447872
-0.69595923
-0.70690948
-0.70366871
-0.67945253
-0.62844226
-0.55312024
-0.45348796
-0.35476134
-0.25940297
-0.18474617
-0.12349918
-0.083919398
-0.047863671
-0.23015203
-0.2300845
-0.23000333
-0.22991819
-0.22982485
-0.22972166
-0.22960797
-0.22948294
-0.22934564
-0.22919507
-0.22903028
-0.22885029
-0.22865419
-0.22844116
-0.2282106
-0.22796222
-0.22769625
-0.22741374
-0.22711691
-0.22680979
-0.22649896
-0.22619467
-0.22591229
-0.2256742
-0.225512
-0.22546924
-0.225604
-0.22599127
-0.2267241
-0.22791297
-0.22968282
-0.23216941
-0.2355121
-0.23986072
-0.24535317
-0.25217194
-0.26061833
-0.27066696
-0.28287647
-0.29746924
-0.31461052
-0.33464723
-0.35777119
-0.38405731
-0.41341316
-0.44555405
-0.47995634
-0.51582365
-0.55212722
-0.58736586
-0.61984001
-0.64735685
-0.66767716
-0.67726719
-0.67179785
-0.64295896
-0.59085215
-0.51761746
-0.42888849
-0.33893177
-0.25459776
-0.18665235
-0.12903212
-0.091175056
-0.05520548
-0.2275196
-0.22746073
-0.2273894
-0.22731503
-0.22723324
-0.22714246
-0.22704202
-0.22693108
-0.22680864
-0.22667365
-0.22652503
-0.22636163
-0.22618231
-0.22598594
-0.2257715
-0.22553812
-0.22528531
-0.2250131
-0.2247224
-0.22441545
-0.2240965
-0.2237727
-0.22345535
-0.22316161
-0.22291654
-0.2227558
-0.22272846
-0.22290005
-0.22335481
-0.22419669
-0.22554777
-0.2275446
-0.23033047
-0.23405732
-0.23885882
-0.2449493
-0.25237076
-0.26155646
-0.27266197
-0.28570298
-0.30116194
-0.31944747
-0.34070091
-0.36506932
-0.39253876
-0.42291792
-0.45572264
-0.49018598
-0.52521503
-0.55924624
-0.59065174
-0.61728466
-0.63682568
-0.64479583
-0.63618796
-0.60362348
-0.55195443
-0.48066907
-0.40394272
-0.32434589
-0.24899195
-0.1871402
-0.13314762
-0.097178377
-0.061569856
-0.22430522
-0.22425685
-0.22419775
-0.22413651
-0.22406895
-0.22399364
-0.22390997
-0.22381712
-0.22371414
-0.22359996
-0.22347348
-0.22333349
-0.22317872
-0.22300783
-0.2228195
-0.22261244
-0.22238551
-0.22213787
-0.2218692
-0.22158006
-0.22127233
-0.22094996
-0.22061993
-0.22029356
-0.21998833
-0.21973015
-0.21955615
-0.2195179
-0.21968458
-0.22014563
-0.22101166
-0.22241319
-0.2244948
-0.2274143
-0.2313195
-0.23640777
-0.24277879
-0.25063936
-0.26013681
-0.27154383
-0.28530832
-0.30166958
-0.32090033
-0.34321323
-0.36872152
-0.39730208
-0.42853766
-0.46161847
-0.49550045
-0.52861303
-0.55949773
-0.5857876
-0.60446929
-0.60983647
-0.5958142
-0.56188483
-0.5102691
-0.45027695
-0.37946926
-0.31006657
-0.24268726
-0.18647146
-0.13599198
-0.10200434
-0.066992942
-0.22093518
-0.2208977
-0.22085199
-0.22080452
-0.22075195
-0.22069311
-0.22062747
-0.22055427
-0.22047265
-0.22038164
-0.22028018
-0.2201671
-0.22004112
-0.21990087
-0.21974488
-0.21957161
-0.21937955
-0.21916723
-0.21893344
-0.21867738
-0.21839902
-0.21809955
-0.21778203
-0.21745233
-0.21712045
-0.21680217
-0.21652134
-0.21631261
-0.2162247
-0.21632378
-0.21669648
-0.21745174
-0.21871875
-0.22064597
-0.22338802
-0.2271208
-0.23199037
-0.23821696
-0.2460322
-0.25568664
-0.26746479
-0.28173081
-0.29882033
-0.31902977
-0.34257137
-0.36941923
-0.39919661
-0.43114381
-0.46429214
-0.49713387
-0.5281447
-0.55407081
-0.57056039
-0.57036175
-0.55277702
-0.52061208
-0.47123633
-0.4202169
-0.35786411
-0.29636458
-0.23582306
-0.18475342
-0.13766812
-0.10572223
-0.071503279
-0.21769894
-0.21767197
-0.21763989
-0.21760519
-0.21756659
-0.21752328
-0.21747477
-0.21742042
-0.2173595
-0.21729119
-0.21721457
-0.21712861
-0.21703216
-0.21692396
-0.21680259
-0.21666656
-0.21651425
-0.216344
-0.21615414
-0.21594311
-0.21570963
-0.21545295
-0.21517323
-0.21487206
-0.21455324
-0.21422383
-0.21389545
-0.21358616
-0.21332283
-0.21314409
-0.21310384
-0.2132754
-0.21375025
-0.21465167
-0.21612666
-0.21834738
-0.22150008
-0.22581014
-0.23152936
-0.23894577
-0.24840646
-0.26034272
-0.27517069
-0.29328211
-0.31493039
-0.34021535
-0.36882006
-0.40005332
-0.43334794
-0.4667187
-0.4978971
-0.52181648
-0.5341835
-0.52846035
-0.51263276
-0.47891029
-0.43910782
-0.39188004
-0.3370519
-0.28271195
-0.22841044
-0.18211473
-0.13829714
-0.10841991
-0.075145648
-0.21480011
-0.21478191
-0.2147601
-0.21473643
-0.21471001
-0.21468028
-0.21464684
-0.21460921
-0.21456683
-0.21451907
-0.21446522
-0.2144045
-0.21433597
-0.21425849
-0.21417074
-0.21407127
-0.21395854
-0.21383101
-0.21368712
-0.21352522
-0.21334366
-0.21314082
-0.21291511
-0.21266514
-0.21239015
-0.21209065
-0.21176862
-0.21142829
-0.21107714
-0.21072723
-0.21039785
-0.2101263
-0.20995892
-0.20994504
-0.21020343
-0.21087357
-0.21214851
-0.21428074
-0.21758483
-0.22244397
-0.22930177
-0.23867453
-0.2510876
-0.26708209
-0.28702398
-0.31114098
-0.3392032
-0.37115039
-0.40537892
-0.43891223
-0.46803749
-0.48803542
-0.49564745
-0.48899787
-0.4703769
-0.44352715
-0.4069801
-0.3657558
-0.31767354
-0.26945341
-0.22064106
-0.17869624
-0.13798547
-0.11016921
-0.077961927
-0.2122121
-0.21220114
-0.21218798
-0.21217365
-0.2121576
-0.21213947
-0.21211898
-0.21209586
-0.21206976
-0.21203971
-0.21200404
-0.21196148
-0.21191235
-0.21185726
-0.21179578
-0.21172762
-0.21165294
-0.21157176
-0.21148229
-0.21138168
-0.21126691
-0.21113415
-0.21097805
-0.21079492
-0.21058485
-0.21034658
-0.21007549
-0.20976623
-0.20941198
-0.20900198
-0.20854903
-0.20802046
-0.20737203
-0.20667148
-0.20596997
-0.20531419
-0.20486724
-0.20487951
-0.20571656
-0.20787066
-0.21193461
-0.21859686
-0.22858669
-0.24264436
-0.26118124
-0.28484013
-0.31369971
-0.34694618
-0.38054103
-0.41186071
-0.43674438
-0.4526882
-0.4565632
-0.4514674
-0.43129742
-0.40947467
-0.37822287
-0.34166205
-0.29915215
-0.25637772
-0.21251818
-0.1745836
-0.13682932
-0.11104729
-0.080002015
-0.20993069
-0.20992694
-0.2099224
-0.20991736
-0.2099116
-0.20990496
-0.20989758
-0.20988942
-0.20987642
-0.20985333
-0.20982948
-0.2098253
-0.20983939
-0.2098478
-0.20983676
-0.20980379
-0.20974859
-0.20967982
-0.20960895
-0.20953997
-0.20947027
-0.20939527
-0.20930865
-0.20920203
-0.20906759
-0.20890059
-0.20869506
-0.20844028
-0.20812145
-0.20771636
-0.20719832
-0.2065288
-0.20565356
-0.20456208
-0.20321239
-0.20160602
-0.19985516
-0.19816787
-0.19693139
-0.19672555
-0.19830879
-0.20255974
-0.21019638
-0.22256543
-0.24079589
-0.26516971
-0.29443047
-0.32608359
-0.35714498
-0.38360477
-0.40444356
-0.41429759
-0.42132039
-0.41287274
-0.39909479
-0.37940885
-0.35147615
-0.31913991
-0.28160996
-0.2436276
-0.20417425
-0.16989513
-0.13492725
-0.11112996
-0.081316065
-0.2078127
-0.20781628
-0.20782044
-0.20782477
-0.20782938
-0.20783429
-0.20783948
-0.20784487
-0.20785033
-0.20785601
-0.20786291
-0.20787552
-0.2078939
-0.20790701
-0.20790632
-0.20788917
-0.2078641
-0.20785099
-0.20785052
-0.20784143
-0.20780908
-0.20775485
-0.2077014
-0.20766373
-0.20760811
-0.20750586
-0.20736388
-0.20717559
-0.20691869
-0.20656123
-0.206062
-0.20536512
-0.20441047
-0.20313649
-0.20149256
-0.19940962
-0.19692615
-0.1941917
-0.19156163
-0.18968353
-0.18937335
-0.19166758
-0.19812897
-0.21046
-0.22842526
-0.25155511
-0.27846687
-0.30753881
-0.33299705
-0.35618835
-0.3749675
-0.38251796
-0.38465753
-0.38162322
-0.36866637
-0.35105761
-0.32670245
-0.29811303
-0.26486659
-0.23112395
-0.19562596
-0.16469816
-0.1323581
-0.11048501
-0.081950951
-0.20599493
-0.20600744
-0.20602217
-0.20603774
-0.20605461
-0.20607301
-0.20609295
-0.20611448
-0.20613762
-0.20616247
-0.20618902
-0.20621565
-0.20624095
-0.2062661
-0.20629193
-0.20631719
-0.20634084
-0.20636399
-0.20639052
-0.20642075
-0.20644749
-0.20646895
-0.20648886
-0.2065068
-0.2065021
-0.20643406
-0.20629655
-0.20611272
-0.20586972
-0.20551651
-0.2050065
-0.20430728
-0.20336799
-0.20204552
-0.20024868
-0.19792697
-0.19513274
-0.19195712
-0.18879359
-0.18619938
-0.18540156
-0.18735005
-0.19316912
-0.20404342
-0.21994393
-0.24065831
-0.26507582
-0.28878011
-0.31017278
-0.33288111
-0.34578979
-0.35464441
-0.35505478
-0.35150084
-0.34078368
-0.3252887
-0.30370617
-0.2783788
-0.2489024
-0.21891257
-0.18695165
-0.15907987
-0.12920361
-0.1091814
-0.081957179
-0.20450862
-0.20453011
-0.20455539
-0.20458212
-0.2046111
-0.2046427
-0.20467701
-0.20471409
-0.20475401
-0.20479679
-0.20484239
-0.20489067
-0.2049415
-0.20499463
-0.20504955
-0.20510554
-0.20516167
-0.2052168
-0.20526939
-0.20531814
-0.20536174
-0.20538678
-0.20537523
-0.20534686
-0.20533377
-0.20531586
-0.20524317
-0.20510219
-0.20491333
-0.20465787
-0.20425347
-0.2036026
-0.20259433
-0.20128487
-0.1997515
-0.19774978
-0.19524394
-0.1923379
-0.18930067
-0.18690309
-0.1857757
-0.18685105
-0.1917222
-0.20089604
-0.21488176
-0.2328484
-0.25314045
-0.27227372
-0.29321838
-0.30998648
-0.3194967
-0.32660807
-0.32773556
-0.32466796
-0.31521009
-0.30130984
-0.28223935
-0.25981424
-0.23362787
-0.20696274
-0.17817565
-0.15309673
-0.12552976
-0.10728019
-0.081379343
-0.2043685
-0.20439234
-0.20442047
-0.20445012
-0.20448229
-0.20451739
-0.2045555
-0.20459673
-0.20464115
-0.2046888
-0.20473964
-0.20479358
-0.20485041
-0.2049098
-0.20497133
-0.20503437
-0.20509814
-0.20516166
-0.20522368
-0.20528267
-0.20533669
-0.20538322
-0.20541871
-0.20543876
-0.20543935
-0.20541463
-0.2053582
-0.20525114
-0.20505189
-0.20475762
-0.20435949
-0.2038493
-0.20321914
-0.20230958
-0.20097587
-0.19919594
-0.19709513
-0.19475577
-0.19217027
-0.18979498
-0.18846033
-0.18912678
-0.19284043
-0.20045707
-0.21203083
-0.22680038
-0.24350451
-0.25960797
-0.27563472
-0.28767339
-0.29684851
-0.30265566
-0.30327157
-0.29997239
-0.2915543
-0.27915196
-0.26220409
-0.24230129
-0.21899936
-0.19528285
-0.16934242
-0.14681042
-0.12140124
-0.10484084
-0.080263301
-0.20537175
-0.20539172
-0.20541524
-0.20544014
-0.20546718
-0.20549672
-0.20552883
-0.20556362
-0.20560117
-0.20564153
-0.2056847
-0.20573059
-0.20577908
-0.20582989
-0.20588268
-0.20593694
-0.20599198
-0.20604695
-0.20610079
-0.20615221
-0.20619968
-0.20624133
-0.20627498
-0.20629886
-0.20631077
-0.20629566
-0.20624464
-0.20616569
-0.20607697
-0.20600384
-0.20584278
-0.20541849
-0.20479651
-0.2040835
-0.20316081
-0.20184708
-0.20011926
-0.19803492
-0.19569579
-0.19351044
-0.19209936
-0.19230424
-0.19511132
-0.20116989
-0.21041193
-0.22223497
-0.2341448
-0.24669071
-0.25941457
-0.26934946
-0.276283
-0.28041696
-0.28061865
-0.27734661
-0.26970876
-0.25852559
-0.24341055
-0.22572518
-0.20495366
-0.18385554
-0.16047356
-0.14026607
-0.11687235
-0.10191722
-0.078649884
-0.20756749
-0.20757994
-0.20759462
-0.20761016
-0.20762704
-0.20764547
-0.20766553
-0.20768725
-0.2077107
-0.20773589
-0.20776279
-0.20779136
-0.20782144
-0.20785283
-0.2078853
-0.20791841
-0.20795153
-0.20798408
-0.2080153
-0.20804412
-0.20806936
-0.20808944
-0.20810273
-0.20811065
-0.20812806
-0.20813081
-0.20813659
-0.20814968
-0.20803548
-0.20781731
-0.20762364
-0.20738228
-0.20698185
-0.20638625
-0.20553746
-0.20436707
-0.20287493
-0.20106464
-0.19902649
-0.19703606
-0.19564004
-0.19554836
-0.19755739
-0.20219029
-0.20893953
-0.21632618
-0.22572311
-0.23639792
-0.24506957
-0.25229405
-0.25751465
-0.26036158
-0.25994892
-0.25649604
-0.24942106
-0.23929003
-0.22574491
-0.20999288
-0.19144453
-0.1726741
-0.15159344
-0.13350671
-0.11199288
-0.098559658
-0.076580476
-0.21030446
-0.21030996
-0.21031642
-0.21032322
-0.21033055
-0.2103385
-0.21034705
-0.2103562
-0.21036592
-0.21037614
-0.21038679
-0.21039772
-0.21040872
-0.21041952
-0.21042977
-0.21043898
-0.21044655
-0.21045178
-0.21045371
-0.2104509
-0.21044217
-0.21043302
-0.21041852
-0.21040859
-0.21039748
-0.21031855
-0.21017946
-0.21006415
-0.2099558
-0.20978435
-0.20954429
-0.20921988
-0.20877906
-0.20819482
-0.20742327
-0.20641346
-0.20512887
-0.20355481
-0.20175323
-0.19992692
-0.19854578
-0.19810696
-0.1993835
-0.20218546
-0.20575454
-0.21177917
-0.21929001
-0.22551675
-0.23165943
-0.23683483
-0.24031185
-0.2418322
-0.240771
-0.2371577
-0.23051501
-0.2212631
-0.20906668
-0.19500861
-0.17841877
-0.16172155
-0.14271603
-0.12656588
-0.10680598
-0.094814507
-0.074092274
-0.21344708
-0.21344864
-0.21345039
-0.21345208
-0.21345373
-0.21345529
-0.21345668
-0.21345778
-0.21345845
-0.21345849
-0.21345765
-0.21345563
-0.21345199
-0.21344623
-0.21343768
-0.21342555
-0.21340883
-0.21338629
-0.21335637
-0.21331747
-0.21326994
-0.21320933
-0.21312806
-0.21302694
-0.2128911
-0.21272843
-0.21255051
-0.21233872
-0.21208642
-0.2117824
-0.21142446
-0.21100493
-0.21050326
-0.20989671
-0.20915442
-0.20822981
-0.20706875
-0.20562113
-0.20391816
-0.20211442
-0.20058219
-0.19962292
-0.19991398
-0.20102621
-0.20368655
-0.20763097
-0.21125636
-0.21539181
-0.21929558
-0.22241917
-0.22432259
-0.22467802
-0.22296543
-0.2191373
-0.21280532
-0.20429753
-0.19326361
-0.18068981
-0.16583025
-0.15098353
-0.13385317
-0.11947224
-0.10134949
-0.090723002
-0.071223926
-0.21701552
-0.21701525
-0.21701473
-0.21701387
-0.21701253
-0.21701058
-0.21700784
-0.21700407
-0.21699898
-0.21699221
-0.2169833
-0.21697168
-0.21695663
-0.21693729
-0.21691257
-0.21688115
-0.21684144
-0.21679151
-0.21672913
-0.21665195
-0.21655664
-0.21643349
-0.21628465
-0.21611257
-0.21590509
-0.21565854
-0.21536858
-0.21503225
-0.21464994
-0.21422175
-0.21374429
-0.21321407
-0.21262606
-0.21196414
-0.21119229
-0.21024583
-0.2090437
-0.20751394
-0.20569925
-0.20371195
-0.20184253
-0.20043123
-0.19978074
-0.19989482
-0.2005532
-0.20177484
-0.20358825
-0.20557655
-0.20744875
-0.20884515
-0.20932573
-0.20860099
-0.20625762
-0.20221431
-0.19612099
-0.18824639
-0.17822085
-0.16695444
-0.15363064
-0.14044073
-0.12501095
-0.11224885
-0.095656804
-0.086324142
-0.06800989
-0.22153079
-0.22152825
-0.22152494
-0.22152092
-0.22151593
-0.22150971
-0.22150196
-0.22149231
-0.22148031
-0.22146541
-0.2214469
-0.22142394
-0.2213955
-0.2213603
-0.22131683
-0.22126322
-0.22119727
-0.22111637
-0.22101746
-0.22089701
-0.22075102
-0.22057497
-0.22036434
-0.22011394
-0.21981859
-0.21947448
-0.2190796
-0.21863259
-0.21813267
-0.2175815
-0.21698271
-0.21633693
-0.21563548
-0.21484977
-0.21392103
-0.21276086
-0.21127552
-0.20941169
-0.20723748
-0.20476631
-0.20250184
-0.20056875
-0.19882572
-0.19724036
-0.19615938
-0.19576194
-0.19569736
-0.19586675
-0.19602916
-0.19587766
-0.19508363
-0.19339887
-0.1904719
-0.18621497
-0.18030594
-0.17297802
-0.16383584
-0.15372759
-0.14177467
-0.13007366
-0.11619243
-0.1049123
-0.089755496
-0.081646846
-0.064481168
-0.22743691
-0.22742982
-0.22742101
-0.22741097
-0.22739919
-0.22738523
-0.22736868
-0.227349
-0.22732557
-0.22729759
-0.22726413
-0.22722406
-0.22717599
-0.22711828
-0.22704896
-0.2269657
-0.22686574
-0.22674587
-0.2266024
-0.22643113
-0.22622735
-0.22598597
-0.22570189
-0.22537029
-0.22498679
-0.22454731
-0.22404908
-0.22349172
-0.22287667
-0.22220585
-0.22147863
-0.2206854
-0.21979813
-0.21876054
-0.21748714
-0.21588025
-0.21386554
-0.21144817
-0.20865495
-0.20565583
-0.20284994
-0.19969427
-0.1964176
-0.19352341
-0.19119817
-0.18921967
-0.18758078
-0.18617076
-0.18481901
-0.18331827
-0.18140216
-0.17886611
-0.1754132
-0.17096421
-0.16521231
-0.1583678
-0.15001039
-0.14093739
-0.13021769
-0.11986114
-0.1073978
-0.097475631
-0.083671032
-0.076715239
-0.060683323
-0.23514107
-0.23512672
-0.23510921
-0.23508973
-0.23506739
-0.23504155
-0.23501161
-0.23497688
-0.23493649
-0.23488942
-0.23483444
-0.2347701
-0.23469468
-0.23460612
-0.23450204
-0.23437961
-0.23423559
-0.23406624
-0.23386742
-0.23363455
-0.23336271
-0.23304678
-0.23268144
-0.2322616
-0.23178296
-0.23124227
-0.23063731
-0.22996663
-0.22922804
-0.22841524
-0.22751183
-0.22648292
-0.22526763
-0.22377751
-0.22191339
-0.21959161
-0.21678415
-0.21350798
-0.20983829
-0.20621297
-0.20195176
-0.19750005
-0.1931568
-0.18927193
-0.18558834
-0.1822205
-0.17916027
-0.17635015
-0.17368
-0.17099955
-0.16810232
-0.16482747
-0.16091824
-0.15630932
-0.15070462
-0.1443002
-0.13665264
-0.12851571
-0.11891615
-0.10978087
-0.098624871
-0.089948326
-0.077425583
-0.071565926
-0.056602826
-0.24501425
-0.24498994
-0.24496053
-0.24492822
-0.24489166
-0.24484992
-0.24480222
-0.24474759
-0.24468493
-0.24461294
-0.24453008
-0.24443454
-0.24432425
-0.24419683
-0.24404953
-0.24387918
-0.24368216
-0.24345442
-0.24319145
-0.24288837
-0.24254004
-0.24214123
-0.24168675
-0.24117162
-0.24059116
-0.23994068
-0.23921468
-0.23840476
-0.23749594
-0.23646099
-0.2352534
-0.23380234
-0.23201325
-0.22978237
-0.22702685
-0.22369558
-0.21980155
-0.21542278
-0.21088851
-0.20579643
-0.20008854
-0.19472397
-0.18946218
-0.18428149
-0.17933343
-0.17467879
-0.17033592
-0.16628791
-0.16246219
-0.15876026
-0.15502062
-0.1511192
-0.14683137
-0.14210731
-0.13665782
-0.13066893
-0.12367754