/*--------------------------------*- C++ -*----------------------------------*\
  =========                 |
  \\      /  F ield         | OpenFOAM: The Open Source CFD Toolbox
   \\    /   O peration     | Website:  https://openfoam.org
    \\  /    A nd           | Version:  13
     \\/     M anipulation  |
\*---------------------------------------------------------------------------*/
FoamFile
{
    format      ascii;
    class       volScalarField;
    location    "7.999342";
    object      k;
}
// * * * * * * * * * * * * * * * * * * * * * * * * * * * * * * * * * * * * * //

dimensions      [0 2 -2 0 0 0 0];

internalField   nonuniform List<scalar> 
17140
(
5.8383659e-11
1.8346129e-09
1.5002033e-08
6.451587e-08
1.9851945e-07
5.0088351e-07
1.1104284e-06
2.2494839e-06
4.2656488e-06
7.6920179e-06
1.3332764e-05
2.2382525e-05
3.6588909e-05
5.8466136e-05
9.1561472e-05
0.00014075966
0.00021257569
0.00031532215
0.00045893406
0.0006540962
0.00091019303
0.0012316266
0.0016124799
0.0020306299
0.0024441743
0.0027945657
0.0030052614
0.0030856919
0.003089078
0.0030164592
0.0029113701
0.0028021858
0.0026988695
0.0026023957
0.0025120194
0.0024272655
0.002347851
0.0022736498
0.0022046049
0.0021408162
0.0020824303
0.0020291634
0.0019793089
0.0019281396
0.0018683047
0.0018030361
0.0017728701
0.0017621246
0.0017699258
0.0018180717
0.0018741326
0.0019599686
0.0020517737
0.0021376241
0.0022123105
0.0022546404
0.0022884943
0.0022665726
0.002070405
0.0018601326
0.0016022301
0.0013440114
0.0011158268
0.0009296439
0.0007674576
5.7712734e-11
1.8135303e-09
1.4829676e-08
6.3774982e-08
1.962411e-07
4.9513941e-07
1.0977062e-06
2.2237431e-06
4.216914e-06
7.6043181e-06
1.3181167e-05
2.2128955e-05
3.6176419e-05
5.781133e-05
9.054504e-05
0.00013921556
0.00021028082
0.00031199042
0.00045422255
0.00064763491
0.00090165319
0.0012208391
0.0015995998
0.0020163094
0.002429667
0.0027816607
0.0029962223
0.0030790925
0.0030846017
0.0030142221
0.0029101427
0.0028014416
0.0026985187
0.0026025086
0.0025126876
0.0024285137
0.0023496981
0.0022762713
0.0022081916
0.0021455359
0.0020884615
0.0020369681
0.0019894621
0.0019410422
0.0018834645
0.0018188432
0.0017900612
0.0017793571
0.0017807189
0.0018116118
0.0018428052
0.0018804793
0.0018981002
0.0019063462
0.0018831353
0.0018504948
0.0018174971
0.001769373
0.0016063592
0.0014671737
0.0012991025
0.0011162064
0.00094388654
0.0007861414
0.00062041243
5.6158338e-11
1.764686e-09
1.4430269e-08
6.2057411e-08
1.9095651e-07
4.8180827e-07
1.0681612e-06
2.1639223e-06
4.1035692e-06
7.4001826e-06
1.2827985e-05
2.1537639e-05
3.5213512e-05
5.6281066e-05
8.8166818e-05
0.00013559806
0.00020489684
0.00030416194
0.00044313348
0.00063239963
0.00088147639
0.0011952968
0.0015690345
0.0019822531
0.0023951104
0.0027509241
0.0029749716
0.0030641477
0.0030745605
0.0030085583
0.0029062806
0.0027984039
0.0026960919
0.0026008082
0.0025119049
0.0024288952
0.0023514685
0.0022796744
0.0022138353
0.0021540741
0.0021007499
0.0020538221
0.0020112275
0.0019667385
0.0019087984
0.0018524844
0.0018269803
0.0018175254
0.0018176196
0.0018281256
0.0018338359
0.0018332082
0.0018023588
0.0017352137
0.0016154497
0.0014468262
0.0013284459
0.001143275
0.0010191738
0.00090435082
0.00080157106
0.00069470411
0.00059004875
0.00049278322
0.00040149678
5.373851e-11
1.688647e-09
1.3808489e-08
5.9383556e-08
1.8272961e-07
4.6105454e-07
1.0221651e-06
2.07079e-06
3.9271011e-06
7.082343e-06
1.2278035e-05
2.0616775e-05
3.3713719e-05
5.3897042e-05
8.4460622e-05
0.00012995826
0.00019649847
0.00029194165
0.00042580735
0.00060856733
0.00084986888
0.0011552173
0.0015209866
0.0019286266
0.0023406347
0.0027024993
0.0029419002
0.0030418389
0.0030595575
0.0029998718
0.0029002
0.0027933657
0.0026917979
0.0025973911
0.0025096851
0.0024282814
0.002353
0.0022836342
0.0022210478
0.0021655208
0.0021175316
0.0020770956
0.0020417608
0.0020036007
0.0019472806
0.0019133359
0.0019004162
0.0018994559
0.0019231945
0.0019618737
0.0020019716
0.0020289259
0.0020378744
0.0019383608
0.0017300688
0.0014004741
0.0012262148
0.00092968509
0.00077489515
0.0006666815
0.00058419543
0.00050718713
0.00042970185
0.00036590185
0.00031520899
5.0507694e-11
1.5871241e-09
1.2978323e-08
5.5813571e-08
1.7174541e-07
4.333446e-07
9.6075028e-07
1.9464323e-06
3.6914493e-06
6.6578595e-06
1.1543442e-05
1.9386448e-05
3.1709249e-05
5.0709326e-05
7.9501843e-05
0.00012240579
0.00018523851
0.00027553124
0.00040249026
0.00057640226
0.00080704744
0.0011006435
0.00145512
0.0018544235
0.0022641977
0.0026328876
0.0028923111
0.0030091592
0.0030363033
0.0029872155
0.0028921572
0.002786958
0.0026862217
0.002592681
0.0025060715
0.0024263041
0.0023535229
0.0022874092
0.0022288
0.0021784752
0.0021369101
0.0021060757
0.0020832621
0.0020584983
0.002025774
0.0020144528
0.0020241462
0.0020819214
0.002178001
0.0023190636
0.0024921567
0.0026218091
0.0026867437
0.0025691431
0.0022386932
0.0016048673
0.0012354636
0.00085509931
0.000656473
0.00054582836
0.00047024882
0.00041104922
0.00035097942
0.0003119623
0.00028288379
4.6575647e-11
1.4635662e-09
1.1967975e-08
5.1468721e-08
1.5837696e-07
3.9961932e-07
8.8600128e-07
1.795067e-06
3.4045971e-06
6.1410861e-06
1.0648977e-05
1.7887971e-05
2.9266994e-05
4.682336e-05
7.3452443e-05
0.00011318292
0.00017146915
0.00025542592
0.0003738511
0.00053676274
0.00075404078
0.0010326951
0.0013724819
0.001760367
0.0021658811
0.0025411926
0.0028240969
0.0029649434
0.003005035
0.0029692036
0.0028813625
0.0027786349
0.0026789199
0.0025863981
0.0025011507
0.0024231527
0.0023529313
0.0022908243
0.0022363851
0.0021916631
0.0021648146
0.0021523078
0.0021487557
0.0021492381
0.0021406994
0.0021781347
0.0022820457
0.0024598707
0.0027166342
0.0030564376
0.0034259157
0.0036527027
0.0037530754
0.0034406411
0.0028706177
0.0019458856
0.0012559679
0.00078215973
0.00054872395
0.00044371214
0.00038903992
0.0003471104
0.00031118476
0.00028952021
0.0002698959
4.2056708e-11
1.3215661e-09
1.0806819e-08
4.6475294e-08
1.4301261e-07
3.6085743e-07
8.0008385e-07
1.6210693e-06
3.0748069e-06
5.5468332e-06
9.6200913e-06
1.6163558e-05
2.6454799e-05
4.2345e-05
6.647277e-05
0.00010252493
0.00015552298
0.0002320745
0.00034045799
0.00049030105
0.00069147612
0.00095174306
0.0012727865
0.0016449241
0.0020421652
0.0024211501
0.0027282152
0.0029036172
0.0029624657
0.0029446422
0.0028669532
0.0027679828
0.0026696344
0.0025782638
0.0024945622
0.0024186114
0.0023508002
0.0022925
0.0022437805
0.0022176525
0.0022083356
0.0022086861
0.0022375935
0.0022760278
0.0023224588
0.0024685674
0.0027036246
0.0030472181
0.0035061016
0.0040609883
0.0046477191
0.0049958803
0.0051324528
0.0044342292
0.0033644475
0.0021183657
0.001235832
0.00069233962
0.00046021515
0.00037805133
0.00034160657
0.0003155537
0.00029278553
0.00027990841
0.00026185269
3.7138784e-11
1.1670286e-09
9.5431379e-09
4.1040928e-08
1.2629126e-07
3.1867079e-07
7.0657057e-07
1.4316731e-06
2.7157857e-06
4.8997855e-06
8.4994857e-06
1.4284669e-05
2.3388946e-05
3.7458832e-05
5.8849195e-05
9.086632e-05
0.00013804455
0.00020641007
0.00030362575
0.00043881388
0.0006217243
0.00086079906
0.0011597226
0.0015125099
0.001898387
0.0022795732
0.0026062393
0.0028199921
0.0029059138
0.0029107186
0.0028472216
0.002754449
0.0026581246
0.0025680546
0.0024860254
0.0024123193
0.0023475546
0.002293348
0.0022621906
0.0022515589
0.0022518033
0.0022829954
0.0023505826
0.0024390856
0.0025733764
0.0028409522
0.0032169872
0.0037324941
0.0043829242
0.005133724
0.0058907474
0.006310332
0.00645392
0.0052082755
0.0036048634
0.0021701016
0.0011240969
0.00058130096
0.00038101291
0.00032553848
0.00030816508
0.00029705602
0.0002840821
0.00027356141
0.00024957416
3.2013074e-11
1.0059613e-09
8.2260553e-09
3.5376869e-08
1.0886285e-07
2.7469884e-07
6.0909419e-07
1.2342318e-06
2.3414588e-06
4.2250035e-06
7.3304644e-06
1.2323672e-05
2.0186949e-05
3.2350837e-05
5.086901e-05
7.8640263e-05
0.00011967024
0.00017934047
0.00026460367
0.0003839417
0.00054680254
0.00076210345
0.0010353514
0.0013642215
0.0017333828
0.0021110966
0.0024517252
0.0027041538
0.002833324
0.0028626532
0.0028196991
0.0027366884
0.0026437579
0.0025551764
0.0024749292
0.0024037205
0.0023421162
0.0023000738
0.002283261
0.002280542
0.0023003622
0.0023650371
0.0024774219
0.0026272363
0.0028616031
0.0032474516
0.0037586953
0.0044294094
0.0052423596
0.0061431298
0.0068564606
0.0071711008
0.0070824616
0.0055141611
0.0036502727
0.0019641819
0.00093663232
0.00046978194
0.00032776549
0.00029677556
0.00029143676
0.00028745643
0.00027813713
0.00026257478
0.00023302075
2.687538e-11
8.4451739e-10
6.9058853e-09
2.9699464e-08
9.139306e-08
2.3062096e-07
5.1137711e-07
1.036283e-06
1.9661106e-06
3.5482168e-06
6.157549e-06
1.0355115e-05
1.6970204e-05
2.7213908e-05
4.2831861e-05
6.6302126e-05
0.00010107664
0.00015184645
0.00022477364
0.00032756552
0.00046916175
0.00065867261
0.00090311517
0.0012036219
0.0015504666
0.0019187488
0.0022684877
0.0025531099
0.0027297789
0.0027968196
0.0027825149
0.0027129208
0.0026251469
0.0025387463
0.0024605504
0.0023922994
0.0023370292
0.0023079048
0.0022984553
0.0023050166
0.0023512177
0.0024518205
0.0026123815
0.0028168799
0.0031404499
0.0036195938
0.0042387965
0.0050260622
0.0059395811
0.006876464
0.0074392552
0.0076550254
0.0071440294
0.005319957
0.0031826064
0.0016269109
0.00073021821
0.00038359192
0.00029184802
0.00027805612
0.00027962086
0.0002779462
0.00026823913
0.00024537918
0.00021554513
2.1919331e-11
6.8878109e-10
5.6323792e-09
2.4222655e-08
7.4540182e-08
1.8809819e-07
4.1710183e-07
8.4528672e-07
1.6038858e-06
2.8949277e-06
5.024929e-06
8.4531365e-06
1.3859786e-05
2.2241198e-05
3.5039459e-05
5.4313879e-05
8.2957146e-05
0.00012494704
0.00018559787
0.00027172438
0.00039154424
0.00055402177
0.00076723001
0.0010353042
0.0013539454
0.0017055738
0.0020571406
0.0023649139
0.0025865715
0.0026998249
0.00272384
0.0026819287
0.00260512
0.0025226249
0.002446288
0.0023797478
0.0023302272
0.0023077334
0.0023056004
0.0023293022
0.002394165
0.002520934
0.0027117267
0.0029652536
0.0033612043
0.0039179913
0.0046237897
0.0054828072
0.0064178984
0.0071815507
0.007530859
0.007428157
0.0064971007
0.0044920511
0.0026107074
0.0012477527
0.00053828655
0.00032162487
0.00026916531
0.00026913497
0.00027383813
0.00027012503
0.0002499446
0.00022547901
0.00019860773
1.7319672e-11
5.442438e-10
4.4504506e-09
1.9139664e-08
5.8898834e-08
1.4863079e-07
3.2959468e-07
6.6798318e-07
1.2675724e-06
2.2882134e-06
3.9726472e-06
6.6850582e-06
1.0965959e-05
1.7609339e-05
2.7769273e-05
4.310366e-05
6.5961045e-05
9.9609518e-05
0.00014848936
0.0002184349
0.00031674467
0.00045187376
0.00063238776
0.00086472302
0.0011494359
0.0014763483
0.0018206132
0.0021436842
0.0024029026
0.0025673883
0.0026340811
0.0026261365
0.0025707494
0.0024971454
0.0024246315
0.0023618978
0.002318292
0.0023009354
0.0023013907
0.0023316617
0.0024157961
0.0025638871
0.0027807983
0.0030785803
0.0035170468
0.0040987734
0.0048084059
0.0056234397
0.0064546699
0.00710108
0.0072294147
0.0068091152
0.0055321209
0.0036546965
0.0019980865
0.00089266617
0.0004100897
0.00027958215
0.00025681637
0.00026377571
0.00026550295
0.00025543164
0.00022645777
0.00020576517
0.0001830328
1.3219832e-11
4.1541262e-10
3.3969563e-09
1.4609003e-08
4.495686e-08
1.1345005e-07
2.5158695e-07
5.0991047e-07
9.676866e-07
1.7470764e-06
3.0337397e-06
5.1065743e-06
8.3802998e-06
1.3465828e-05
2.1254733e-05
3.3035264e-05
5.0647366e-05
7.6681143e-05
0.0001147135
0.00016955474
0.00024743082
0.00035594603
0.00050354872
0.00069808669
0.00094399828
0.0012380142
0.001564355
0.0018924107
0.0021813918
0.0023938651
0.0025123065
0.0025452503
0.0025175047
0.0024578852
0.002392675
0.0023343679
0.0022953504
0.0022821345
0.0022862808
0.0023216971
0.0024083012
0.0025583907
0.0027775141
0.0030794729
0.0035165143
0.0040884517
0.0047759306
0.0055434879
0.0062993804
0.0067604567
0.0065732322
0.0059299914
0.0044393492
0.0028025595
0.0014448533
0.00061243873
0.0003230877
0.0002519755
0.00025033332
0.00025819584
0.0002550341
0.00023257119
0.00020555778
0.0001896703
0.00017010778
9.7192208e-12
3.0541127e-10
2.4974394e-09
1.0740526e-08
3.3052397e-08
8.3409703e-08
1.8497337e-07
3.7491355e-07
7.1153947e-07
1.2847542e-06
2.231289e-06
3.756769e-06
6.1674744e-06
9.9157181e-06
1.5664063e-05
2.4375e-05
3.7433757e-05
5.6811533e-05
8.5272296e-05
0.00012661395
0.00018590647
0.00026963426
0.00038555515
0.000541953
0.00074582898
0.00099960817
0.0012964837
0.0016160168
0.0019238245
0.0021797448
0.0023536362
0.0024373148
0.0024455011
0.0024106992
0.0023529911
0.0022996157
0.0022618803
0.0022476068
0.0022538131
0.0022924357
0.0023789506
0.002526708
0.0027411669
0.0030360556
0.0034530965
0.0039879674
0.0046143459
0.005258941
0.0058747041
0.0059248469
0.0056445174
0.0048237492
0.0034522373
0.0020885542
0.00098015221
0.00042735584
0.00026913659
0.00023748176
0.00024495609
0.00024819189
0.00023519191
0.00020729247
0.00018894187
0.00017590037
0.00015915216
6.8645847e-12
2.1570872e-10
1.7639128e-09
7.585904e-09
2.3344551e-08
5.8911736e-08
1.3064718e-07
2.6480881e-07
5.0259559e-07
9.0755033e-07
1.5763663e-06
2.6545846e-06
4.3592862e-06
7.0117275e-06
1.1083974e-05
1.726496e-05
2.655287e-05
4.0381813e-05
6.079015e-05
9.0632958e-05
0.00013382672
0.00019558191
0.00028251598
0.00040243282
0.00056340779
0.00077169236
0.0010280544
0.001322922
0.0016325217
0.0019203993
0.0021474099
0.0022918204
0.002351741
0.0023483457
0.0023137712
0.0022631611
0.0022245645
0.002206551
0.002210436
0.0022414028
0.0023195276
0.0024528533
0.0026492462
0.0029187801
0.0032866267
0.0037415545
0.0042538363
0.0047344624
0.0050946174
0.0050012208
0.0046338254
0.0037239721
0.0025951146
0.0014481546
0.00061723503
0.00031450846
0.00023594215
0.00023146212
0.00023942609
0.00023319162
0.00020614262
0.00018846698
0.00017448844
0.00016412823
0.00015004576
4.6494839e-12
1.4610264e-10
1.1947225e-09
5.1380296e-09
1.5811546e-08
3.9901652e-08
8.8489283e-08
1.7936064e-07
3.4042529e-07
6.1473769e-07
1.0678364e-06
1.7984267e-06
2.9538728e-06
4.7525904e-06
7.5162879e-06
1.1716159e-05
1.8038582e-05
2.7477464e-05
4.146161e-05
6.2024949e-05
9.202231e-05
0.00013537814
0.00019732051
0.00028448447
0.00040465411
0.00056575619
0.00077359481
0.0010279653
0.0013176855
0.0016171218
0.0018890461
0.0020974839
0.0022216191
0.0022665931
0.0022589586
0.0022268185
0.0021874713
0.0021651117
0.0021652575
0.0021836899
0.0022411906
0.0023531874
0.0025182655
0.0027416111
0.0030389053
0.00340312
0.0037634355
0.0041406082
0.0042053428
0.0040669008
0.0036297641
0.0028353619
0.0018934198
0.00092979047
0.00040509886
0.00025150138
0.00022008251
0.00022739097
0.00022748881
0.0002059083
0.00018258668
0.00017253904
0.0001626093
0.00015431681
0.00014259728
3.0177983e-12
9.48295e-11
7.7544674e-10
3.3348823e-09
1.026258e-08
2.5898285e-08
5.7433918e-08
1.1641329e-07
2.2095082e-07
3.9899198e-07
6.9308165e-07
1.1673122e-06
1.9174201e-06
3.0854255e-06
4.8808215e-06
7.6111761e-06
1.1726191e-05
1.7880777e-05
2.7024448e-05
4.0525812e-05
6.0340831e-05
8.9228886e-05
0.00013100583
0.00019078715
0.00027510495
0.00039166488
0.00054834554
0.00075091264
0.00099907386
0.0012814443
0.0015722414
0.0018346546
0.0020329207
0.0021482902
0.0021930849
0.0021851
0.0021567502
0.0021254122
0.0021181561
0.0021268592
0.0021607442
0.0022426635
0.0023702189
0.0025425441
0.0027576508
0.003024293
0.0032623482
0.0034644312
0.0034289589
0.003250995
0.0027821925
0.0021586713
0.0012721772
0.00053407235
0.0002833439
0.00021732206
0.00021433998
0.00022058846
0.00020829671
0.00018330327
0.00017090088
0.00016108999
0.00015182746
0.00014581694
0.00013619024
1.8788973e-12
5.9041334e-11
4.8279644e-10
2.0763057e-09
6.3894683e-09
1.6124088e-08
3.5757484e-08
7.2475843e-08
1.3755485e-07
2.4838837e-07
4.3145531e-07
7.2664382e-07
1.1935389e-06
1.9205529e-06
3.0381747e-06
4.738197e-06
7.3016119e-06
1.1139043e-05
1.684914e-05
2.5302236e-05
3.77583e-05
5.6028515e-05
8.2685971e-05
0.00012131814
0.00017678194
0.00025535773
0.0003645708
0.00051229929
0.00070463901
0.00094211552
0.0012147595
0.001498524
0.0017573587
0.0019528509
0.0020720484
0.0021231205
0.0021203945
0.0021023019
0.0020803642
0.0020797841
0.0020929706
0.0021345515
0.0022240024
0.0023454584
0.0024968806
0.0026522905
0.0028201444
0.0028570954
0.002796831
0.0025778515
0.0022067494
0.001560112
0.00072647932
0.00033757808
0.0002237551
0.00020380565
0.000211548
0.00020649909
0.00018380744
0.0001700996
0.00015896344
0.00015162161
0.00014334684
0.0001388897
0.00013105591
1.1251682e-12
3.5356588e-11
2.8911954e-10
1.2433784e-09
3.8262519e-09
9.655589e-09
2.1412273e-08
4.3398782e-08
8.2365147e-08
1.4872209e-07
2.583143e-07
4.3500354e-07
7.1442291e-07
1.1494271e-06
1.8180046e-06
2.8347747e-06
4.3677251e-06
6.6626258e-06
1.0078687e-05
1.5140582e-05
2.2613908e-05
3.3613147e-05
4.9752072e-05
7.3343678e-05
0.00010764477
0.00015711094
0.0002275782
0.0003261856
0.00046069922
0.00063768606
0.00085915841
0.0011179246
0.0013935895
0.0016520765
0.0018572936
0.0019934662
0.0020512417
0.0020628107
0.0020567292
0.0020487185
0.0020514062
0.0020665411
0.002107982
0.0021786746
0.0022756739
0.0023633703
0.0024466865
0.0024342932
0.0023508649
0.0021293979
0.0017198602
0.00091394217
0.00040034707
0.00023634922
0.00019791626
0.00019987731
0.00020335433
0.00018799
0.00016992901
0.00015893663
0.00015061212
0.00014400647
0.00013718054
0.00013307996
0.00012641234
6.5101812e-13
2.0457182e-11
1.6728319e-10
7.1941068e-10
2.2138283e-09
5.5865505e-09
1.2388516e-08
2.5108517e-08
4.7650509e-08
8.6034219e-08
1.4941838e-07
2.5158967e-07
4.1312388e-07
6.6451862e-07
1.050734e-06
1.6377817e-06
2.5223122e-06
3.8456125e-06
5.814132e-06
8.7296896e-06
1.3033996e-05
1.9374066e-05
2.8697244e-05
4.2385963e-05
6.2440643e-05
9.1709594e-05
0.00013413977
0.00019496905
0.00028070189
0.00039862929
0.00055553514
0.00075493574
0.00099308085
0.0012546529
0.0015114006
0.0017329893
0.0018964796
0.0019749627
0.0020066765
0.0020166789
0.0020255756
0.0020368877
0.0020559076
0.0020956707
0.0021386418
0.0022026758
0.002211733
0.0021747747
0.0020475391
0.0017458357
0.001036846
0.00045287499
0.00024754002
0.00019424333
0.00019054928
0.00019818139
0.0001891162
0.00016785963
0.00015689634
0.00014915626
0.00014157318
0.00013624605
0.00013081787
0.00012772783
0.00012253617
3.6580679e-13
1.149488e-11
9.3996259e-11
4.0423516e-10
1.2439368e-09
3.139013e-09
6.9608244e-09
1.4107492e-08
2.6771758e-08
4.8333875e-08
8.3934855e-08
1.4130948e-07
2.3199324e-07
3.7306791e-07
5.8968435e-07
9.1871177e-07
1.4140281e-06
2.1542193e-06
3.2538439e-06
4.8800155e-06
7.2769589e-06
1.0802522e-05
1.5982434e-05
2.3590266e-05
3.4762978e-05
5.1162443e-05
7.5184496e-05
0.00011019704
0.00016074136
0.00023254446
0.0003321343
0.00046583615
0.00063797717
0.00084771006
0.0010851245
0.0013306713
0.0015606411
0.0017601123
0.0018768674
0.0019383812
0.001972827
0.001996693
0.0020251803
0.0020556514
0.0020959618
0.0021053165
0.0020752104
0.0019680632
0.0016968306
0.0010409285
0.00047448813
0.00025387589
0.00018943416
0.00018250606
0.00018876081
0.0001847757
0.00016809536
0.00015822422
0.00015058514
0.0001432192
0.00013694853
0.00013185391
0.00012646977
0.00012329499
0.00011931873
2.0098662e-13
6.3156743e-12
5.1644661e-11
2.2209975e-10
6.8345528e-10
1.7246508e-09
3.8243952e-09
7.7507275e-09
1.4708047e-08
2.6552646e-08
4.6106922e-08
7.7615403e-08
1.2740401e-07
2.0483136e-07
3.236589e-07
5.0402384e-07
7.7528355e-07
1.1801429e-06
1.7806414e-06
2.6669227e-06
3.9701724e-06
5.8818602e-06
8.6825434e-06
1.2785076e-05
1.8799062e-05
2.762511e-05
4.0588216e-05
5.9615225e-05
8.7449265e-05
0.00012785906
0.0001857037
0.0002666794
0.00037637207
0.00051888482
0.00069469786
0.00089828186
0.0011176243
0.0013364803
0.0015459651
0.001720151
0.001825981
0.0018913202
0.0019399805
0.0019813703
0.001982804
0.0019463469
0.0018278363
0.0015473074
0.00089501738
0.00043797719
0.00024961886
0.00018564677
0.00017398727
0.00018009524
0.00018097176
0.00017061939
0.00015800966
0.00014900044
0.0001414299
0.00013612602
0.00013052405
0.0001261169
0.00012169072
0.00011926468
0.00011624931
1.0970745e-13
3.4473748e-12
2.8189895e-11
1.2123124e-10
3.7305522e-10
9.4136527e-10
2.0874217e-09
4.2303385e-09
8.0272279e-09
1.44906e-08
2.5159351e-08
4.2346634e-08
6.9498179e-08
1.1170813e-07
1.7646027e-07
2.746918e-07
4.2232298e-07
6.4244409e-07
9.6848268e-07
1.4487873e-06
2.1533104e-06
3.1834186e-06
4.6865159e-06
6.8783906e-06
1.0076229e-05
1.4748281e-05
2.1587242e-05
3.1615152e-05
4.6324068e-05
6.7848205e-05
9.9140084e-05
0.00014408392
0.00020737105
0.00029387666
0.00040724544
0.00054817884
0.00071350934
0.00089372004
0.0010848311
0.0012627496
0.0014372192
0.0015678446
0.0016709065
0.0016996712
0.0016601126
0.0015328524
0.0012155059
0.00067145558
0.00037108515
0.00023347609
0.00018092179
0.00016718357
0.00017138614
0.00017870185
0.00017037378
0.0001549252
0.00014734445
0.0001411589
0.00013588865
0.00013048669
0.00012568803
0.00012234759
0.0001187237
0.00011662736
0.0001142423
6.3095226e-14
1.9826624e-12
1.6212609e-11
6.972226e-11
2.1454791e-10
5.413766e-10
1.2004287e-09
2.4326472e-09
4.6157026e-09
8.3313157e-09
1.4463161e-08
2.4338481e-08
3.9931968e-08
6.4158083e-08
1.0128939e-07
1.5755405e-07
2.4198584e-07
3.6763626e-07
5.5330566e-07
8.2602623e-07
1.2246492e-06
1.8050813e-06
2.6479047e-06
3.8691624e-06
5.6368012e-06
8.1942639e-06
1.1897917e-05
1.7273948e-05
2.5096254e-05
3.6493634e-05
5.3078703e-05
7.7084664e-05
0.00011141474
0.00015960059
0.00022552511
0.00031226547
0.0004212702
0.00054836787
0.00069143128
0.00083545352
0.0009788038
0.0010994602
0.0011886599
0.0011725684
0.0010708399
0.00077254289
0.00046147941
0.00029193055
0.00020684694
0.00017330474
0.00016251221
0.00016484096
0.00017266207
0.0001667367
0.00015420965
0.0001476354
0.00014239269
0.00013675141
0.00013158193
0.00012712614
0.00012298983
0.00011901674
0.00011520388
0.00011356273
0.00011192144
4.4635445e-14
1.4025955e-12
1.1469312e-11
4.9323729e-11
1.5177704e-10
3.8297959e-10
8.4918834e-10
1.7208194e-09
3.2649674e-09
5.8929725e-09
1.0229536e-08
1.7212565e-08
2.8236595e-08
4.5357731e-08
7.1584935e-08
1.1129184e-07
1.7079589e-07
2.5916841e-07
3.8936194e-07
5.7977237e-07
8.5639715e-07
1.255817e-06
1.829337e-06
2.6488506e-06
3.8153894e-06
5.4722087e-06
7.8219607e-06
1.1150584e-05
1.5867192e-05
2.2564486e-05
3.2098127e-05
4.5690752e-05
6.4939387e-05
9.2100188e-05
0.00012981418
0.00018082571
0.00024733869
0.00032968734
0.00042744202
0.00053414006
0.00063946358
0.00072956389
0.00072250474
0.00064402558
0.00044220605
0.00030224152
0.00021786216
0.00017933384
0.0001609546
0.00015786921
0.00016060068
0.0001683063
0.00016478873
0.00015440906
0.00014800711
0.00014274667
0.00013645596
0.00013124325
0.00012680926
0.0001226446
0.00011890238
0.00011613064
0.0001133506
0.00011199229
0.00011045113
4.3146258e-14
1.3558022e-12
1.1086736e-11
4.7678863e-11
1.4671678e-10
3.7021466e-10
8.2089653e-10
1.6635278e-09
3.1563838e-09
5.6972978e-09
9.8905959e-09
1.6643804e-08
2.7306553e-08
4.3868889e-08
6.9242599e-08
1.0765746e-07
1.6521483e-07
2.5065355e-07
3.7639739e-07
5.5996773e-07
8.2585717e-07
1.207966e-06
1.7526956e-06
2.5227918e-06
3.602065e-06
5.1012072e-06
7.1652883e-06
9.9848132e-06
1.3813646e-05
1.8991066e-05
2.5989276e-05
3.5486839e-05
4.8463195e-05
6.627439e-05
9.0675845e-05
0.00012372407
0.00016721402
0.00022139186
0.00028428984
0.00034734304
0.00039187912
0.00038079321
0.00031966228
0.00024198166
0.00019160698
0.00016511302
0.00014993557
0.00014961882
0.00015205111
0.00015775005
0.00016549762
0.00016368097
0.00015568528
0.00014867287
0.00014280989
0.00013693975
0.00013253478
0.00012858495
0.00012446591
0.00012051321
0.00011703962
0.00011411892
0.00011121807
0.00010996359
0.00010883258
5.0414869e-14
1.58421e-12
1.2954607e-11
5.5712818e-11
1.7144416e-10
4.326302e-10
9.59358e-10
1.944298e-09
3.6895833e-09
6.660829e-09
1.1565742e-08
1.9467823e-08
3.194984e-08
5.1347385e-08
8.108018e-08
1.2611817e-07
1.9363065e-07
2.9387886e-07
4.4142338e-07
6.5672324e-07
9.6818628e-07
1.4147146e-06
2.0486857e-06
2.9391649e-06
4.1749492e-06
5.8668846e-06
8.1491336e-06
1.1178378e-05
1.5133609e-05
2.0227543e-05
2.6726735e-05
3.4995742e-05
4.547948e-05
5.8828682e-05
7.5805396e-05
9.6941113e-05
0.00012187547
0.00014945793
0.00017346308
0.00018297065
0.00017207292
0.00014995477
0.00013555323
0.000123966
0.0001234575
0.00012904568
0.00013582048
0.00014903044
0.00015996328
0.0001643712
0.00016337704
0.00015717048
0.00014849121
0.00014284045
0.00013791238
0.00013405368
0.00012950648
0.00012476974
0.0001207831
0.00011736198
0.00011429626
0.00011167044
0.00010948862
0.00010879488
0.00010775196
5.5007463e-14
1.7285271e-12
1.4134818e-11
6.0789336e-11
1.870709e-10
4.7208206e-10
1.0469003e-09
2.1218709e-09
4.0269232e-09
7.2706481e-09
1.2626303e-08
2.125624e-08
3.4890797e-08
5.6083737e-08
8.8574123e-08
1.3779411e-07
2.1157287e-07
3.2109717e-07
4.8219431e-07
7.1699563e-07
1.0560118e-06
1.540604e-06
2.2255845e-06
3.1814737e-06
4.4956206e-06
6.2710583e-06
8.6221383e-06
1.166337e-05
1.5493698e-05
2.0180916e-05
2.5755611e-05
3.2196759e-05
3.9513598e-05
4.7643429e-05
5.6512304e-05
6.5931888e-05
7.5180166e-05
8.1141041e-05
8.171432e-05
7.8488743e-05
7.6925816e-05
8.0046895e-05
8.6698471e-05
9.3514855e-05
0.00010879807
0.00013001883
0.00015414214
0.00016075856
0.00016359695
0.00016299046
0.00015819043
0.00014848651
0.00014340611
0.00013934997
0.000134993
0.00013006667
0.00012561574
0.000122202
0.00011906359
0.00011590747
0.00011303773
0.0001105431
0.0001081465
0.00010729002
0.00010636323
4.8825253e-14
1.5342604e-12
1.2546231e-11
5.3957473e-11
1.6604789e-10
4.1903399e-10
9.2927227e-10
1.8834893e-09
3.5745691e-09
6.4539872e-09
1.1208116e-08
1.8868567e-08
3.0970705e-08
4.9779727e-08
7.8610379e-08
1.2227442e-07
1.8769854e-07
2.8476264e-07
4.274095e-07
6.350634e-07
9.3435149e-07
1.360966e-06
1.9613988e-06
2.7938866e-06
3.9274041e-06
5.4370383e-06
7.3938595e-06
9.8479464e-06
1.2805699e-05
1.6212149e-05
1.9928452e-05
2.3769107e-05
2.7578352e-05
3.1202868e-05
3.4473151e-05
3.6861199e-05
3.7904231e-05
3.8311922e-05
4.0225585e-05
4.4958717e-05
5.1151379e-05
6.2919242e-05
7.7899198e-05
9.7835872e-05
0.00013526725
0.00015582538
0.00016255164
0.00016406736
0.00016320137
0.00015916427
0.00014918884
0.00014437304
0.00014011875
0.00013554918
0.00013077966
0.00012718483
0.00012372575
0.00012023571
0.00011654204
0.00011346865
0.00011087164
0.00010870712
0.00010700868
0.00010649505
0.00010558466
3.3433947e-14
1.05061e-12
8.5911781e-12
3.6947465e-11
1.1369879e-10
2.869165e-10
6.3624559e-10
1.2894638e-09
2.4469135e-09
4.4172499e-09
7.6693703e-09
1.2907334e-08
2.1177665e-08
3.4021804e-08
5.3690622e-08
8.3442695e-08
1.2795262e-07
1.9385843e-07
2.9047421e-07
4.3067839e-07
6.319474e-07
9.1741986e-07
1.316726e-06
1.8660745e-06
2.6067674e-06
3.5810421e-06
4.8240459e-06
6.3505309e-06
8.1396984e-06
1.0122464e-05
1.2172708e-05
1.4137544e-05
1.587025e-05
1.724768e-05
1.8150547e-05
1.8929328e-05
2.0770174e-05
2.3988147e-05
2.8966957e-05
3.8198946e-05
5.1298835e-05
7.1096926e-05
9.7897754e-05
0.00013856741
0.00015766751
0.00016416377
0.00016512702
0.00016413346
0.00016004918
0.00015006871
0.00014494244
0.00014046408
0.00013605499
0.00013200784
0.00012841108
0.00012476033
0.00012075238
0.00011751993
0.00011470178
0.0001119925
0.00010960074
0.00010746166
0.00010573419
0.00010524624
0.00010434856
1.8722165e-14
5.8831402e-13
4.8107938e-12
2.0689037e-11
6.36645e-11
1.6064785e-10
3.5621427e-10
7.2185239e-10
1.3695936e-09
2.4719212e-09
4.2906304e-09
7.2183512e-09
1.1837814e-08
1.900568e-08
2.9969843e-08
4.6531369e-08
7.1264165e-08
1.0780592e-07
1.6123075e-07
2.3850296e-07
3.4898586e-07
5.0492926e-07
7.2177733e-07
1.0180068e-06
1.4140467e-06
1.9297104e-06
2.5796668e-06
3.3664979e-06
4.2735077e-06
5.2602075e-06
6.2655622e-06
7.2272092e-06
8.1188659e-06
9.0679802e-06
1.0577136e-05
1.2615778e-05
1.6376265e-05
2.2373032e-05
3.2570316e-05
4.8552729e-05
7.0813992e-05
9.9507951e-05
0.00013690727
0.00015794474
0.00016572911
0.00016684777
0.00016566353
0.00016125689
0.00015119586
0.00014589996
0.00014115861
0.00013701946
0.00013329169
0.0001296042
0.00012561724
0.00012201312
0.00011893064
0.00011622983
0.00011323835
0.00011072776
0.00010842123
0.00010647901
0.00010503736
0.00010463001
0.00010367517
9.3172542e-15
2.9277927e-13
2.3941105e-12
1.0295778e-11
3.1681169e-11
7.9938349e-11
1.7723793e-10
3.5912381e-10
6.8126986e-10
1.229334e-09
2.1332129e-09
3.5874978e-09
5.8805733e-09
9.4356054e-09
1.4867597e-08
2.3061645e-08
3.527823e-08
5.3291281e-08
7.9562741e-08
1.174517e-07
1.714439e-07
2.4736564e-07
3.5251163e-07
4.9556979e-07
6.8618527e-07
9.3399615e-07
1.2471644e-06
1.6307048e-06
2.0860185e-06
2.6144804e-06
3.2301393e-06
3.9738001e-06
5.018056e-06
6.6359809e-06
9.2159042e-06
1.3345094e-05
2.0217992e-05
3.1473521e-05
4.808629e-05
7.0042699e-05
9.798804e-05
0.00013278176
0.00015685345
0.00016738751
0.00016906034
0.00016766492
0.00016293359
0.00015276101
0.00014728972
0.00014218574
0.00013792569
0.00013427331
0.00013041543
0.00012651321
0.00012303436
0.00012009078
0.00011690956
0.00011403047
0.00011131268
0.00010908136
0.00010693621
0.00010516834
0.00010396012
0.00010359606
0.0001025913
4.9405708e-15
1.5524908e-13
1.2694932e-12
5.4593247e-12
1.6798436e-11
4.2384207e-11
9.396788e-11
1.9038508e-10
3.6113158e-10
6.5157618e-10
1.1304994e-09
1.9009102e-09
3.1154381e-09
4.9980376e-09
7.8742699e-09
1.2213027e-08
1.8683138e-08
2.8228714e-08
4.2167022e-08
6.2311768e-08
9.1122547e-08
1.3187789e-07
1.8886707e-07
2.676007e-07
3.7506905e-07
5.2016749e-07
7.1461987e-07
9.7514867e-07
1.3277167e-06
1.819196e-06
2.5354378e-06
3.6327111e-06
5.3794511e-06
8.2385303e-06
1.2859793e-05
2.012676e-05
3.1483046e-05
4.7563554e-05
6.8964007e-05
9.6630718e-05
0.00013033267
0.00015772719
0.00016957072
0.00017163847
0.00017014835
0.00016523575
0.00015492822
0.00014909821
0.0001435489
0.00013902462
0.00013519312
0.00013145738
0.00012781268
0.00012450682
0.00012134106
0.00011825241
0.00011522693
0.00011284204
0.00011039538
0.00010822053
0.00010621437
0.00010457092
0.00010345093
0.0001030941
0.00010199557
4.0068588e-15
1.2590893e-13
1.0295806e-12
4.4276505e-12
1.3624161e-11
3.4376047e-11
7.6216842e-11
1.5443249e-10
2.9297329e-10
5.2871006e-10
9.1761291e-10
1.5436659e-09
2.5316532e-09
4.0653926e-09
6.4135869e-09
9.9662663e-09