/*--------------------------------*- C++ -*----------------------------------*\
  =========                 |
  \\      /  F ield         | OpenFOAM: The Open Source CFD Toolbox
   \\    /   O peration     | Website:  https://openfoam.org
    \\  /    A nd           | Version:  13
     \\/     M anipulation  |
\*---------------------------------------------------------------------------*/
FoamFile
{
    format      ascii;
    class       volScalarField;
    location    "21.501486";
    object      p;
}
// * * * * * * * * * * * * * * * * * * * * * * * * * * * * * * * * * * * * * //

dimensions      [0 2 -2 0 0 0 0];

internalField   nonuniform List<scalar> 
17140
(
-0.24352711
-0.243546
-0.24356901
-0.24359261
-0.24361839
-0.24364681
-0.24367795
-0.24371197
-0.24374903
-0.24378931
-0.24383293
-0.24388001
-0.24393068
-0.24398499
-0.24404303
-0.24410484
-0.24417049
-0.24424011
-0.24431397
-0.24439261
-0.24447708
-0.24456936
-0.24467298
-0.24479406
-0.24494292
-0.24513608
-0.24539847
-0.24576434
-0.24627455
-0.24696836
-0.24787109
-0.24898322
-0.25027661
-0.25169987
-0.2531888
-0.2546773
-0.25610596
-0.25742785
-0.25861183
-0.25964351
-0.26052398
-0.26126729
-0.2618944
-0.26242918
-0.26290224
-0.26333666
-0.26374063
-0.26412317
-0.26448961
-0.26484795
-0.26519429
-0.26556456
-0.2659338
-0.26646327
-0.26701955
-0.26817848
-0.26929966
-0.27211531
-0.27371639
-0.27919621
-0.27878629
-0.28541867
-0.26561416
-0.25693426
-0.17760557
-0.24324439
-0.24326282
-0.24328524
-0.24330825
-0.2433334
-0.24336111
-0.24339148
-0.24342467
-0.24346084
-0.24350014
-0.24354272
-0.24358869
-0.24363817
-0.24369123
-0.24374793
-0.24380834
-0.24387252
-0.24394059
-0.24401281
-0.24408972
-0.24417233
-0.24426255
-0.24436383
-0.24448214
-0.24462754
-0.24481617
-0.24507245
-0.24542999
-0.24592907
-0.24660859
-0.24749401
-0.24858634
-0.24985835
-0.25125963
-0.25272681
-0.25419438
-0.25560321
-0.25690637
-0.25807245
-0.25908653
-0.25994908
-0.26067338
-0.26127976
-0.26179153
-0.26223876
-0.26264472
-0.26301879
-0.26337203
-0.26371317
-0.26405634
-0.26440668
-0.26481486
-0.26527544
-0.26598013
-0.266833
-0.26846667
-0.27029754
-0.27411849
-0.27698468
-0.28410652
-0.28571538
-0.29418479
-0.27582892
-0.2669517
-0.18441088
-0.24314453
-0.24316212
-0.2431835
-0.24320548
-0.2432295
-0.24325598
-0.24328501
-0.24331673
-0.24335132
-0.24338892
-0.24342967
-0.24347368
-0.24352107
-0.24357191
-0.24362627
-0.24368421
-0.24374578
-0.2438111
-0.24388043
-0.24395426
-0.24403357
-0.24412018
-0.24421738
-0.24433089
-0.24447036
-0.24465131
-0.2448973
-0.24524086
-0.2457212
-0.24637661
-0.24723269
-0.24829145
-0.24952731
-0.25089167
-0.25232276
-0.25375625
-0.25513369
-0.25640839
-0.25754867
-0.25853901
-0.25937894
-0.26008065
-0.26066345
-0.26114992
-0.26156903
-0.26194363
-0.26228459
-0.26260485
-0.26291632
-0.26323908
-0.26358705
-0.2640254
-0.26456724
-0.26543553
-0.26657093
-0.26866779
-0.27120059
-0.2760251
-0.28011904
-0.28881675
-0.29208027
-0.302268
-0.28581479
-0.27826228
-0.19406413
-0.24322617
-0.24324256
-0.24326243
-0.24328293
-0.24330534
-0.24333005
-0.24335715
-0.24338678
-0.24341909
-0.24345425
-0.24349237
-0.24353357
-0.24357796
-0.24362562
-0.2436766
-0.24373097
-0.24378878
-0.24385015
-0.2439153
-0.24398471
-0.24405928
-0.24414071
-0.24423211
-0.24433884
-0.24446999
-0.24464025
-0.24487193
-0.24519607
-0.24565037
-0.24627215
-0.24708714
-0.24809877
-0.24928381
-0.25059627
-0.2519768
-0.25336286
-0.25469717
-0.25593346
-0.25703989
-0.25800018
-0.25881273
-0.25948823
-0.26004462
-0.26050349
-0.26089205
-0.26123249
-0.26153708
-0.26182038
-0.26209722
-0.26239341
-0.26273104
-0.2631893
-0.26379847
-0.26481288
-0.26620809
-0.26874221
-0.27195146
-0.27772592
-0.28298262
-0.293178
-0.29820915
-0.31024828
-0.29537057
-0.28842923
-0.20392868
-0.2434814
-0.24349622
-0.24351416
-0.24353274
-0.24355306
-0.24357548
-0.24360008
-0.24362699
-0.24365637
-0.24368836
-0.24372307
-0.24376063
-0.24380113
-0.24384465
-0.24389125
-0.24394099
-0.24399393
-0.24405016
-0.24410991
-0.24417359
-0.24424204
-0.24431682
-0.24440078
-0.24449889
-0.24461953
-0.24477632
-0.24499006
-0.24528984
-0.24571142
-0.24629079
-0.24705374
-0.24800542
-0.24912555
-0.25037162
-0.2516874
-0.25301286
-0.25429232
-0.25548024
-0.25654468
-0.25746854
-0.25824884
-0.2588945
-0.25942164
-0.25985046
-0.26020613
-0.26050979
-0.26077452
-0.26101649
-0.26125302
-0.26151521
-0.26183251
-0.26229724
-0.26295502
-0.26409105
-0.26571395
-0.26864515
-0.27247395
-0.27916076
-0.28544724
-0.2969643
-0.30355071
-0.3170769
-0.30384006
-0.29745932
-0.21326695
-0.24389522
-0.24390815
-0.24392374
-0.24393999
-0.24395779
-0.24397742
-0.24399899
-0.24402261
-0.24404843
-0.24407656
-0.24410714
-0.24414027
-0.24417603
-0.24421452
-0.24425579
-0.2442999
-0.2443469
-0.24439689
-0.24445007
-0.24450681
-0.24456786
-0.24463463
-0.2447097
-0.24479753
-0.24490575
-0.2450467
-0.24523939
-0.24551063
-0.24589377
-0.24642313
-0.24712437
-0.24800453
-0.24904684
-0.25021293
-0.2514505
-0.25270266
-0.25391583
-0.25504552
-0.25605983
-0.25694079
-0.2576839
-0.25829599
-0.25879105
-0.25918739
-0.25950785
-0.25977197
-0.25999329
-0.26018905
-0.26037874
-0.26059803
-0.26088274
-0.26133678
-0.26201894
-0.26324407
-0.26505217
-0.26831893
-0.27276993
-0.2802576
-0.28738424
-0.30002526
-0.30805007
-0.32270448
-0.31072206
-0.30425813
-0.22034015
-0.24444607
-0.24445682
-0.24446971
-0.24448328
-0.24449815
-0.24451457
-0.24453263
-0.24455245
-0.24457413
-0.24459781
-0.24462359
-0.24465157
-0.24468184
-0.24471449
-0.24474956
-0.24478712
-0.24482723
-0.24486997
-0.24491553
-0.24496422
-0.24501674
-0.24507431
-0.24513922
-0.24521541
-0.24530963
-0.24543287
-0.24560211
-0.24584157
-0.24618182
-0.24665509
-0.24728667
-0.24808552
-0.24903871
-0.25011265
-0.25125966
-0.25242662
-0.25356259
-0.25462448
-0.25558061
-0.25641219
-0.25711304
-0.25768774
-0.25814782
-0.25850933
-0.25879206
-0.25901375
-0.25918807
-0.25933254
-0.25946809
-0.25963415
-0.2598718
-0.26029426
-0.26097099
-0.26224527
-0.26418735
-0.26774979
-0.27264342
-0.28073903
-0.2887501
-0.30216184
-0.31138971
-0.32665963
-0.31544404
-0.30834599
-0.22478908
-0.24510606
-0.2451144
-0.2451243
-0.24513489
-0.24514651
-0.24515936
-0.24517352
-0.24518909
-0.24520618
-0.24522488
-0.2452453
-0.24526754
-0.24529167
-0.24531778
-0.24534592
-0.24537615
-0.24540853
-0.24544316
-0.24548019
-0.24551992
-0.24556295
-0.24561034
-0.24566407
-0.24572756
-0.24580665
-0.24591087
-0.24605507
-0.24626064
-0.24655503
-0.24696799
-0.2475241
-0.24823408
-0.24908901
-0.25006051
-0.25110615
-0.25217717
-0.25322581
-0.25421079
-0.25510089
-0.2558766
-0.25653005
-0.25706339
-0.2574855
-0.25780965
-0.25805213
-0.25822871
-0.25835228
-0.25844001
-0.25851387
-0.25861549
-0.25878899
-0.25915443
-0.25978926
-0.2610617
-0.26306944
-0.26683193
-0.2720492
-0.28050505
-0.28923689
-0.30322319
-0.31335749
-0.32855565
-0.31737604
-0.30922753
-0.22570581
-0.24584231
-0.2458481
-0.24585498
-0.24586236
-0.24587049
-0.2458795
-0.24588947
-0.24590047
-0.2459126
-0.24592594
-0.24594059
-0.24595661
-0.2459741
-0.24599313
-0.24601375
-0.24603603
-0.24606004
-0.24608586
-0.24611365
-0.24614368
-0.24617646
-0.24621292
-0.24625473
-0.24630479
-0.24636803
-0.24645253
-0.24657093
-0.24674166
-0.24698882
-0.24733931
-0.24781656
-0.24843269
-0.24918277
-0.25004387
-0.25097924
-0.25194507
-0.25289729
-0.25379686
-0.25461336
-0.25532676
-0.25592752
-0.25641537
-0.25679629
-0.25708043
-0.25728027
-0.25740904
-0.25747806
-0.25750334
-0.25750729
-0.2575327
-0.25762453
-0.25790464
-0.25845573
-0.25966998
-0.2616319
-0.26556457
-0.27100431
-0.27929057
-0.28845425
-0.30303847
-0.31364268
-0.32799052
-0.3159615
-0.30551456
-0.22307645
-0.24661842
-0.24662157
-0.24662533
-0.24662938
-0.24663388
-0.2466389
-0.24664451
-0.24665076
-0.24665772
-0.24666547
-0.24667407
-0.2466836
-0.24669413
-0.24670572
-0.24671844
-0.24673235
-0.24674754
-0.24676408
-0.24678214
-0.24680196
-0.24682399
-0.24684903
-0.24687846
-0.24691471
-0.24696184
-0.24702651
-0.24711917
-0.24725529
-0.24745547
-0.24774345
-0.24814103
-0.24866127
-0.24930281
-0.2500482
-0.25086669
-0.25171986
-0.25256782
-0.25337426
-0.25410995
-0.25475461
-0.25529724
-0.25573513
-0.25607139
-0.25631273
-0.25646748
-0.2565458
-0.25655651
-0.25651364
-0.25643879
-0.25637451
-0.25636507
-0.25652633
-0.25694352
-0.25799516
-0.25998489
-0.26392696
-0.26920709
-0.27715328
-0.28635355
-0.30144662
-0.31187452
-0.32435024
-0.31104205
-0.29552485
-0.21775586
-0.24739688
-0.24739739
-0.24739803
-0.24739875
-0.24739961
-0.24740063
-0.24740186
-0.24740333
-0.24740508
-0.24740718
-0.24740967
-0.24741261
-0.24741607
-0.2474201
-0.24742477
-0.24743014
-0.2474363
-0.24744334
-0.24745142
-0.24746077
-0.24747178
-0.24748515
-0.24750203
-0.24752439
-0.24755549
-0.24760068
-0.24766838
-0.24777111
-0.24792599
-0.24815337
-0.24847298
-0.24889814
-0.24943046
-0.25005775
-0.25075528
-0.25149035
-0.25222769
-0.25293418
-0.25358224
-0.25415175
-0.25463055
-0.25501364
-0.25530133
-0.25549677
-0.2556039
-0.25562917
-0.25557781
-0.25546096
-0.25529862
-0.25513025
-0.25499438
-0.25499743
-0.25522374
-0.25611979
-0.25809009
-0.26170185
-0.26640057
-0.27420403
-0.28325853
-0.2980978
-0.30758286
-0.31750422
-0.30052527
-0.28196952
-0.20768048
-0.24814022
-0.2481382
-0.24813582
-0.24813334
-0.24813069
-0.24812784
-0.24812483
-0.24812166
-0.24811835
-0.24811495
-0.24811148
-0.24810798
-0.24810451
-0.24810111
-0.24809784
-0.24809478
-0.24809199
-0.2480896
-0.24808775
-0.24808666
-0.2480867
-0.24808845
-0.24809287
-0.24810153
-0.24811701
-0.24814347
-0.24818744
-0.24825879
-0.24837122
-0.24854163
-0.24878759
-0.24912165
-0.24954705
-0.25005672
-0.25063187
-0.25124549
-0.2518674
-0.25246807
-0.2530221
-0.25351002
-0.25391895
-0.25424189
-0.25447649
-0.25462244
-0.25467919
-0.25464867
-0.25453128
-0.25433416
-0.25407468
-0.25378588
-0.25349561
-0.25329355
-0.2532189
-0.25406557
-0.25566944
-0.25868223
-0.26284485
-0.27007837
-0.27888748
-0.29288652
-0.30039212
-0.30628742
-0.28626891
-0.26624178
-0.19497034
-0.24881546
-0.2488111
-0.24880597
-0.24880054
-0.24879465
-0.24878823
-0.24878129
-0.24877382
-0.24876582
-0.24875729
-0.24874825
-0.24873872
-0.24872872
-0.2487183
-0.24870751
-0.24869641
-0.24868508
-0.24867363
-0.24866221
-0.24865103
-0.24864043
-0.2486309
-0.24862324
-0.24861869
-0.24861924
-0.24862804
-0.24864999
-0.24869252
-0.24876618
-0.24888423
-0.24906236
-0.24931079
-0.24963408
-0.25002942
-0.25048354
-0.2509747
-0.25147811
-0.25196819
-0.25242227
-0.25282213
-0.2531547
-0.25341155
-0.25358779
-0.25367986
-0.25368299
-0.25359345
-0.25340524
-0.25312018
-0.25275163
-0.25232047
-0.2518367
-0.25132801
-0.2510314
-0.25150433
-0.25262188
-0.25484828
-0.25827501
-0.26469173
-0.27287183
-0.28478245
-0.28999988
-0.29158132
-0.26880703
-0.24688367
-0.18519987
-0.24939368
-0.24938732
-0.24937981
-0.24937182
-0.24936313
-0.24935362
-0.24934326
-0.24933203
-0.2493199
-0.24930686
-0.24929288
-0.24927798
-0.24926216
-0.24924543
-0.24922783
-0.24920941
-0.24919025
-0.24917042
-0.24915008
-0.24912942
-0.24910874
-0.24908845
-0.24906919
-0.24905194
-0.24903817
-0.24903016
-0.24903143
-0.24904728
-0.24908506
-0.24915273
-0.24927795
-0.24945872
-0.24967767
-0.2499632
-0.25030021
-0.25066974
-0.25105315
-0.25142887
-0.25177748
-0.25208267
-0.25233188
-0.25251589
-0.25262757
-0.25266023
-0.25260541
-0.252452
-0.25218679
-0.25180322
-0.25130905
-0.25070578
-0.24997541
-0.24916858
-0.2485147
-0.24843417
-0.24878222
-0.25007488
-0.25268192
-0.25801462
-0.26494861
-0.27583527
-0.27700793
-0.27382294
-0.25138353
-0.22863446
-0.17421635
-0.24985642
-0.24984847
-0.24983905
-0.24982904
-0.2498181
-0.24980609
-0.24979297
-0.2497787
-0.24976321
-0.24974647
-0.24972844
-0.24970909
-0.24968841
-0.24966638
-0.24964303
-0.24961837
-0.24959246
-0.24956536
-0.24953721
-0.24950815
-0.24947845
-0.24944845
-0.24941865
-0.24938981
-0.249363
-0.24933986
-0.2493228
-0.24931545
-0.24932321
-0.24935214
-0.2494043
-0.24951654
-0.24966907
-0.24984374
-0.2500724
-0.25032352
-0.25058746
-0.25084632
-0.25108456
-0.25128843
-0.2514467
-0.25155013
-0.25158985
-0.2515564
-0.25143749
-0.25121283
-0.25086194
-0.25036547
-0.24972011
-0.24889895
-0.2478338
-0.24668727
-0.24544322
-0.2446922
-0.24396836
-0.24417603
-0.24565604
-0.25095215
-0.25672276
-0.26376019
-0.26108664
-0.25689403
-0.23320144
-0.21384896
-0.16494329
-0.25019554
-0.25018648
-0.25017574
-0.25016431
-0.25015179
-0.25013803
-0.25012295
-0.25010649
-0.25008859
-0.25006916
-0.25004814
-0.2500255
-0.25000117
-0.24997512
-0.24994734
-0.24991782
-0.24988658
-0.24985365
-0.24981911
-0.24978309
-0.24974576
-0.24970739
-0.24966835
-0.24962918
-0.24959064
-0.24955379
-0.24952021
-0.24949217
-0.24947309
-0.24946832
-0.24947923
-0.24950836
-0.24955854
-0.24965543
-0.2497955
-0.24993185
-0.25007877
-0.25021976
-0.25034346
-0.25043951
-0.2504988
-0.25051297
-0.25047198
-0.25036413
-0.25017253
-0.24986592
-0.24941512
-0.24878009
-0.24793804
-0.24680028
-0.24541267
-0.24374421
-0.24172447
-0.23991876
-0.23804829
-0.23760853
-0.23937895
-0.24357343
-0.24693575
-0.25009193
-0.24726004
-0.23876758
-0.21898842
-0.19975043
-0.15631119
-0.25040726
-0.25039764
-0.25038624
-0.25037406
-0.25036072
-0.25034601
-0.25032988
-0.25031222
-0.25029295
-0.25027198
-0.25024922
-0.2502246
-0.25019803
-0.25016946
-0.25013883
-0.25010609
-0.25007121
-0.25003419
-0.24999504
-0.2499538
-0.24991057
-0.24986547
-0.24981871
-0.24977058
-0.24972148
-0.24967194
-0.24962274
-0.24957497
-0.24953023
-0.24949096
-0.24946102
-0.24943525
-0.24944851
-0.24946473
-0.2494676
-0.24950384
-0.24953428
-0.24955595
-0.24956085
-0.24954241
-0.24949417
-0.24940942
-0.24927711
-0.24908397
-0.24880618
-0.24840146
-0.24782726
-0.24701278
-0.24591415
-0.24445295
-0.24263212
-0.24011709
-0.23713988
-0.2345132
-0.23272645
-0.23219368
-0.23305662
-0.2349491
-0.23640875
-0.23836395
-0.23257644
-0.22545071
-0.20541436
-0.18772447
-0.14874966
-0.25050746
-0.25049783
-0.2504864
-0.25047418
-0.25046077
-0.25044597
-0.2504297
-0.25041185
-0.25039232
-0.25037101
-0.25034781
-0.25032262
-0.25029533
-0.25026586
-0.25023411
-0.25019999
-0.25016343
-0.25012435
-0.25008271
-0.25003845
-0.24999155
-0.24994201
-0.24988983
-0.24983505
-0.24977772
-0.24971791
-0.24965571
-0.24959126
-0.24952487
-0.24945706
-0.2493891
-0.24932195
-0.24925456
-0.249188
-0.24911996
-0.24904685
-0.24896427
-0.24886636
-0.24874926
-0.24861028
-0.24844577
-0.24825125
-0.24801407
-0.24771973
-0.24733329
-0.24680599
-0.24606216
-0.24501412
-0.24357852
-0.24176277
-0.23902929
-0.23562765
-0.23267827
-0.23007496
-0.22786189
-0.22592063
-0.22579479
-0.22704426
-0.22717809
-0.22641301
-0.22021642
-0.2120849
-0.1934374
-0.17666656
-0.14162527
-0.25050916
-0.25050003
-0.25048915
-0.25047756
-0.25046483
-0.25045074
-0.25043523
-0.25041818
-0.25039948
-0.25037902
-0.25035668
-0.25033234
-0.25030587
-0.25027716
-0.25024609
-0.25021252
-0.25017632
-0.25013738
-0.25009554
-0.25005067
-0.25000261
-0.24995118
-0.24989617
-0.24983731
-0.24977427
-0.24970659
-0.24963366
-0.24955468
-0.24946868
-0.24937457
-0.24927125
-0.24915789
-0.24903274
-0.24889775
-0.24874613
-0.24857595
-0.24838417
-0.24816832
-0.24792787
-0.24766361
-0.2473741
-0.24705721
-0.24669639
-0.24627495
-0.24574672
-0.24504934
-0.24408383
-0.24269382
-0.24092603
-0.23815782
-0.23496436
-0.23190989
-0.22857074
-0.22532134
-0.22174762
-0.2200956
-0.22045835
-0.2193721
-0.21771961
-0.21557353
-0.20870164
-0.20049211
-0.18245173
-0.16678773
-0.13516046
-0.25044025
-0.25043209
-0.25042229
-0.25041192
-0.2504005
-0.25038786
-0.2503739
-0.25035853
-0.25034164
-0.25032311
-0.25030281
-0.25028062
-0.25025642
-0.25023005
-0.25020137
-0.25017022
-0.25013644
-0.25009983
-0.25006019
-0.25001727
-0.24997078
-0.24992038
-0.24986562
-0.24980593
-0.24974055
-0.2496685
-0.24958846
-0.24949872
-0.24939713
-0.24928109
-0.24914768
-0.24899395
-0.24881683
-0.24861379
-0.24838179
-0.24811799
-0.24782044
-0.24748886
-0.2471249
-0.2467316
-0.24630745
-0.24585162
-0.24533878
-0.24474661
-0.24402146
-0.24309051
-0.24177554
-0.24004249
-0.23746749
-0.23476232
-0.23180198
-0.2280335
-0.22403315
-0.22062879
-0.21713904
-0.21616676
-0.21345991
-0.21263351
-0.2086476
-0.20569413
-0.19810976
-0.18947114
-0.17239735
-0.15772705
-0.12905771
-0.2503222
-0.25031538
-0.25030715
-0.25029849
-0.25028894
-0.25027835
-0.25026664
-0.25025372
-0.25023949
-0.25022384
-0.25020664
-0.25018779
-0.25016714
-0.25014456
-0.25011987
-0.25009291
-0.25006349
-0.25003136
-0.24999625
-0.24995785
-0.24991573
-0.24986937
-0.24981811
-0.24976105
-0.24969703
-0.24962451
-0.24954144
-0.24944517
-0.24933237
-0.24919891
-0.24904009
-0.24885089
-0.24862644
-0.24836253
-0.24805567
-0.24770349
-0.24730523
-0.24686181
-0.24637565
-0.24584965
-0.24527767
-0.24465842
-0.24393973
-0.2431112
-0.24210416
-0.2407929
-0.23901806
-0.23672807
-0.23457142
-0.23203883
-0.22819262
-0.22389858
-0.22007055
-0.21623756
-0.21307305
-0.20966205
-0.20747265
-0.20431979
-0.20029387
-0.19620077
-0.18812496
-0.17945482
-0.16317048
-0.1494672
-0.12336631
-0.25018085
-0.25017571
-0.25016947
-0.25016294
-0.25015574
-0.25014774
-0.25013887
-0.25012906
-0.25011823
-0.25010629
-0.25009313
-0.25007864
-0.25006271
-0.25004519
-0.25002593
-0.25000476
-0.24998144
-0.24995574
-0.24992733
-0.24989581
-0.24986065
-0.2498212
-0.24977656
-0.24972554
-0.24966659
-0.24959762
-0.24951589
-0.24941784
-0.24929895
-0.2491537
-0.24897562
-0.24875765
-0.24849283
-0.24817521
-0.24780075
-0.24736738
-0.24687535
-0.24632542
-0.24571861
-0.2450535
-0.24430974
-0.24347991
-0.24248842
-0.24132713
-0.23992153
-0.23810151
-0.2361459
-0.23433734
-0.23207163
-0.22861065
-0.22455406
-0.22025954
-0.2159739
-0.21187886
-0.20741624
-0.20338596
-0.20008198
-0.19681222
-0.19200933
-0.18718124
-0.17880608
-0.17005683
-0.15459519
-0.14181614
-0.11794792
-0.25003513
-0.250032
-0.25002818
-0.2500242
-0.25001981
-0.2500149
-0.25000944
-0.25000339
-0.24999667
-0.24998922
-0.24998097
-0.24997182
-0.24996167
-0.2499504
-0.24993788
-0.24992392
-0.24990831
-0.24989077
-0.24987094
-0.24984837
-0.24982245
-0.24979236
-0.24975703
-0.24971501
-0.24966437
-0.24960255
-0.24952618
-0.24943089
-0.24931116
-0.24916019
-0.24896998
-0.24873174
-0.2484366
-0.24807678
-0.24764706
-0.24714432
-0.24656882
-0.24591812
-0.24518858
-0.24436487
-0.24340971
-0.2423245
-0.2409424
-0.23942229
-0.23760175
-0.23604683
-0.23436665
-0.23208815
-0.22914394
-0.22528278
-0.22088651
-0.21636337
-0.21143361
-0.20634028
-0.20139518
-0.19738502
-0.1935511
-0.18932612
-0.18402012
-0.17858254
-0.16998153
-0.16130754
-0.14660825
-0.134704
-0.11278733
-0.24990797
-0.24990724
-0.24990634
-0.24990538
-0.24990429
-0.24990304
-0.24990161
-0.24989997
-0.24989809
-0.24989593
-0.24989344
-0.24989055
-0.24988718
-0.24988325
-0.2498786
-0.24987307
-0.24986644
-0.24985841
-0.24984859
-0.24983645
-0.2498213
-0.24980219
-0.24977788
-0.24974668
-0.24970636
-0.24965397
-0.24958566
-0.24949646
-0.2493801
-0.24922885
-0.24903359
-0.24878417
-0.24846952
-0.24808029
-0.24761093
-0.24705389
-0.24640591
-0.24565581
-0.2447944
-0.24379334
-0.24256358
-0.24114986
-0.23953524
-0.23787954
-0.23638924
-0.23480865
-0.23249019
-0.22983288
-0.22601829
-0.22159558
-0.21712248
-0.21164433
-0.20590874
-0.20056297
-0.19579747
-0.19114427
-0.18654662
-0.18191119
-0.17618341
-0.17031801
-0.16162559
-0.15306104
-0.13909573
-0.12802417
-0.10781495
-0.24982963
-0.24983167
-0.24983413
-0.24983663
-0.24983933
-0.24984225
-0.24984541
-0.24984879
-0.24985239
-0.2498562
-0.24986019
-0.24986431
-0.2498685
-0.24987267
-0.24987668
-0.24988036
-0.24988347
-0.24988566
-0.2498865
-0.24988538
-0.2498815
-0.2498738
-0.24986086
-0.24984082
-0.24981123
-0.24976889
-0.24970966
-0.24962828
-0.24951817
-0.24937108
-0.24917635
-0.24892416
-0.24860266
-0.24820037
-0.24771022
-0.24711785
-0.24641604
-0.24556653
-0.24456521
-0.24331621
-0.24190309
-0.24037208
-0.23890809
-0.23743475
-0.23567795
-0.23350534
-0.23076007
-0.22687505
-0.22242663
-0.2179968
-0.21229025
-0.20607
-0.20034791
-0.19509942
-0.18980932
-0.18480412
-0.17980815
-0.17467741
-0.16857468
-0.16238596
-0.15365666
-0.14527128
-0.13199925
-0.12171526
-0.10300841
-0.24985714
-0.24986209
-0.24986797
-0.24987414
-0.24988084
-0.24988817
-0.24989613
-0.24990475
-0.24991405
-0.24992402
-0.24993466
-0.24994592
-0.24995775
-0.24997004
-0.24998265
-0.24999537
-0.2500079
-0.25001985
-0.25003071
-0.25003977
-0.25004613
-0.2500486
-0.25004564
-0.25003525
-0.25001487
-0.24998121
-0.24993009
-0.24985627
-0.24975347
-0.24961275
-0.24942783
-0.24919369
-0.24886644
-0.24844707
-0.24796096
-0.24734373
-0.24657695
-0.24561465
-0.24453251
-0.24328958
-0.24191849
-0.24051127
-0.23905936
-0.23719928
-0.23499277
-0.23210147
-0.22805115
-0.22349451
-0.21904807
-0.21321868
-0.20668379
-0.20065621
-0.19495261
-0.18926967
-0.18374707
-0.17839184
-0.1729385
-0.16746745
-0.16110119
-0.15470768
-0.14602231
-0.13785583
-0.12524244
-0.1157083
-0.098328798
-0.25007577
-0.25008325
-0.25009208
-0.25010145
-0.25011163
-0.25012276
-0.25013488
-0.25014801
-0.25016217
-0.25017739
-0.25019364
-0.25021089
-0.25022907
-0.25024804
-0.25026763
-0.25028759
-0.25030756
-0.25032708
-0.25034554
-0.25036215
-0.25037591
-0.25038554
-0.25038942
-0.25038551
-0.25037129
-0.25034356
-0.25029817
-0.25023059
-0.25013953
-0.25002033
-0.24984685
-0.24958187
-0.24925761
-0.2488896
-0.24839608
-0.24778141
-0.24706331
-0.24613981
-0.24504698
-0.24390452
-0.24263318
-0.24109598
-0.23926406
-0.23693563
-0.23381788
-0.22964696
-0.22488549
-0.22033044
-0.21440726
-0.20761773
-0.20133861
-0.19529898
-0.18922959
-0.18334928
-0.17753638
-0.17188161
-0.16612691
-0.16037113
-0.15379212
-0.14727005
-0.1386721
-0.13076268
-0.11877366
-0.10995252
-0.093751473
-0.25059406
-0.25060295
-0.25061343
-0.25062454
-0.25063663
-0.25064984
-0.25066421
-0.25067978
-0.25069657
-0.25071459
-0.25073383
-0.25075425
-0.25077573
-0.25079815
-0.25082129
-0.25084485
-0.25086843
-0.25089153
-0.25091347
-0.25093342
-0.25095032
-0.25096287
-0.25096949
-0.25096825
-0.25095678
-0.25093222
-0.25089136
-0.25083104
-0.2507363
-0.25058513
-0.2504193
-0.25023659
-0.24996788
-0.24962198
-0.24916173
-0.24857305
-0.24787298
-0.24704871
-0.24604664
-0.24487394
-0.24342908
-0.24160548
-0.23919255
-0.23593301
-0.23160427
-0.22668136
-0.22196413
-0.21591366
-0.2088658
-0.20234496
-0.19602636
-0.18964826
-0.18338641
-0.17725384
-0.17119872
-0.1652973
-0.15926959
-0.15330282
-0.14658841
-0.14001698
-0.13155675
-0.12393379
-0.11253895
-0.10439888
-0.089250629
-0.25149746
-0.25150621
-0.25151651
-0.25152742
-0.25153929
-0.25155224
-0.25156632
-0.25158156
-0.25159797
-0.25161556
-0.25163429
-0.25165411
-0.2516749
-0.25169649
-0.25171865
-0.25174103
-0.25176322
-0.25178465
-0.25180462
-0.25182225
-0.25183647
-0.25184599
-0.25184926
-0.25184444
-0.25182932
-0.25180152
-0.25175765
-0.25168671
-0.25160494
-0.25153042
-0.25138329
-0.25113918
-0.25086699
-0.25054283
-0.25012214
-0.24957867
-0.24890821
-0.24808443
-0.24705051
-0.24575439
-0.2440029
-0.24156699
-0.23827257
-0.23391123
-0.22880729
-0.22399103
-0.21774687
-0.21043812
-0.20365468
-0.19709304
-0.19042255
-0.18384744
-0.17735163
-0.17100487
-0.16473367
-0.15862415
-0.15240048
-0.14628461
-0.13948796
-0.1329251
-0.12463653
-0.11732379
-0.10649582
-0.099007634
-0.084805661
-0.25279816
-0.25280546
-0.25281405
-0.25282314
-0.252833
-0.25284374
-0.25285538
-0.25286793
-0.25288139
-0.25289575
-0.25291093
-0.25292686
-0.25294339
-0.2529603
-0.25297732
-0.25299406
-0.25301003
-0.25302459
-0.25303696
-0.25304617
-0.25305105
-0.25305021
-0.25304203
-0.25302429
-0.25299394
-0.25295481
-0.25291721
-0.25287457
-0.25276309
-0.25258917
-0.2524271
-0.25222674
-0.25194871
-0.2515978
-0.2511553
-0.2506
-0.24990889
-0.24903862
-0.24787616
-0.24624731
-0.24387502
-0.24064571
-0.23633134
-0.23105856
-0.22602443
-0.21971725
-0.21227723
-0.20523379
-0.1984599
-0.19153496
-0.18464971
-0.17784353
-0.17113671
-0.16459225
-0.15813474
-0.15186069
-0.14548594
-0.13927539
-0.13245277
-0.12595355
-0.11787064
-0.11088828
-0.1006038
-0.093742589
-0.08039612
-0.25449423
-0.25449958
-0.25450586
-0.25451246
-0.25451957
-0.25452725
-0.2545355
-0.25454429
-0.2545536
-0.25456335
-0.25457345
-0.25458373
-0.25459401
-0.25460398
-0.25461326
-0.25462138
-0.2546277
-0.25463143
-0.2546316
-0.25462703
-0.25461633
-0.25459758
-0.25456814
-0.2545299
-0.25449319
-0.25444525
-0.25434422
-0.25420171
-0.25405573
-0.25388281
-0.25366034
-0.25338562
-0.25304759
-0.2526429
-0.2521526
-0.25155307
-0.25079326
-0.24976084
-0.24825698
-0.24603772
-0.24289498
-0.23881386
-0.2334697
-0.22829825
-0.22203587
-0.2143137
-0.20714559
-0.20014858
-0.19297453
-0.18579666
-0.17866064
-0.17163347
-0.16472712
-0.15800743
-0.15139432
-0.14499402
-0.13852058
-0.13226712
-0.12546584
-0.11907518
-0.11122505
-0.10458942
-0.094828716
-0.088573109
-0.076005031
-0.25657514
-0.25657897
-0.25658341
-0.25658799
-0.25659284
-0.25659795
-0.25660328
-0.25660876
-0.25661429
-0.25661973
-0.25662491
-0.25662955
-0.25663334
-0.25663582
-0.25663646
-0.25663453
-0.25662915
-0.25661922
-0.25660341
-0.25658008
-0.25654696
-0.25650198
-0.25644941
-0.25638016
-0.25627695
-0.25614607
-0.25599558
-0.25581612
-0.25559669
-0.25533463
-0.25502513
-0.25466803
-0.2542562
-0.2537777
-0.25321338
-0.25250964
-0.25155261
-0.25014816
-0.24804651
-0.24503466
-0.24102902
-0.23589032
-0.23063095
-0.22450529
-0.21676894
-0.20948373
-0.20230047
-0.19476983
-0.18727984
-0.17982085
-0.17243862
-0.16519894
-0.15810885
-0.15123716
-0.14449955
-0.13801208
-0.1314837
-0.12523335
-0.11849857
-0.1122577
-0.10466633
-0.098391937
-0.089139231
-0.08347202
-0.071615785
-0.25914624
-0.25914909
-0.2591523
-0.25915549
-0.25915869
-0.25916187
-0.2591649
-0.25916765
-0.25916993
-0.25917149
-0.25917202
-0.25917111
-0.25916822
-0.2591627
-0.2591537
-0.2591402
-0.2591209
-0.25909425
-0.25905835
-0.25901097
-0.25894946
-0.25887098
-0.2587722
-0.25864557
-0.25848971
-0.25830486
-0.2580832
-0.25781936
-0.25750975
-0.25715477
-0.25675388
-0.25630241
-0.25579502
-0.25521254
-0.25450315
-0.25355631
-0.25218748
-0.2501582
-0.24725984
-0.24337774
-0.23842888
-0.23304969
-0.22714254
-0.21944953
-0.21200585
-0.20464286
-0.19688326
-0.18909322
-0.18130846
-0.17357744
-0.16595844
-0.15851788
-0.15126278
-0.14426489
-0.13743517
-0.13089821
-0.12435887
-0.11815595
-0.11152903
-0.10547418
-0.098165092
-0.092264364
-0.083508031
-0.07841511
-0.067216857
-0.2624628
-0.26246431
-0.26246588
-0.2624672
-0.2624682
-0.26246878
-0.26246874
-0.26246784
-0.26246578
-0.26246217
-0.26245652
-0.26244823
-0.26243652
-0.26242043
-0.2623988
-0.26237019
-0.26233285
-0.26228469
-0.26222321
-0.26214551
-0.26204821
-0.26192754
-0.26177927
-0.2615988
-0.26138173
-0.2611229
-0.26081836
-0.2604665
-0.26006597
-0.25961443
-0.25911048
-0.25854911
-0.25791052
-0.2571431
-0.25614173
-0.25473462
-0.25270337
-0.24985059
-0.24606298
-0.24125538
-0.2358868
-0.2300183
-0.22258161
-0.21484325
-0.20734182
-0.19936608
-0.19128942
-0.18315731
-0.17504909
-0.16704376
-0.15919264
-0.15156563
-0.14416704
-0.1370707
-0.13018247
-0.12363448
-0.11712593
-0.111012
-0.10453248
-0.098697324
-0.09169365
-0.086178002
-0.077910689
-0.073382467
-0.062794741
-0.26685228
-0.26685108
-0.26684934
-0.266847
-0.26684384
-0.26683961
-0.26683403
-0.26682675
-0.2668173
-0.26680512
-0.26678953
-0.26676966
-0.26674447
-0.26671268
-0.26667273
-0.26662275
-0.26656052
-0.26648338
-0.26638827
-0.26627164
-0.26612949
-0.26595738
-0.26575046
-0.26550365
-0.26521256
-0.26487375
-0.26448374
-0.26403944
-0.26353909
-0.26298033
-0.26235485
-0.2616394
-0.26078023
-0.25967521
-0.25816545
-0.25605139
-0.25315452
-0.24936367
-0.24460313
-0.2391966
-0.23329426
-0.22594309
-0.21814919
-0.21040103
-0.20220766
-0.19383853
-0.18536352
-0.17687103
-0.16844905
-0.16017566
-0.15210589
-0.14431183
-0.136795
-0.12963112
-0.12272021
-0.11620027
-0.10976439
-0.10378033
-0.097486404
-0.091902151
-0.085226875
-0.080105848
-0.072325554
-0.068350922
-0.058342759
-0.27266715
-0.27266126
-0.27265387
-0.27264535
-0.27263523
-0.2726231
-0.27260855
-0.27259107
-0.27257
-0.27254458
-0.27251386
-0.27247671
-0.27243176
-0.27237734
-0.27231149
-0.27223188
-0.27213578
-0.27202002
-0.27188093
-0.27171439
-0.27151586
-0.27128067
-0.27100417
-0.2706817
-0.27030854
-0.26988045
-0.26939418
-0.26884624
-0.26823071
-0.26753453
-0.26672856
-0.26575439
-0.2645099
-0.2628456
-0.26057894
-0.25754561
-0.2536485
-0.24880544
-0.24326402
-0.23723002
-0.22987582
-0.22196432
-0.21397319
-0.2055093
-0.19682423
-0.18798347
-0.17907991
-0.17021405
-0.1614701
-0.15293411
-0.14466063
-0.1367223
-0.12911653
-0.12191948
-0.11502437
-0.10857343
-0.10225264
-0.096438808
-0.090368319
-0.085064966
-0.078741954
-0.074023659
-0.066733607
-0.063300485
-0.053862423
-0.28026914
-0.28025626
-0.28024049
-0.28022287
-0.28020257
-0.28017897
-0.28015148
-0.28011941
-0.2800819
-0.28003793
-0.27998627
-0.27992547
-0.27985381
-0.27976924
-0.27966935
-0.27955137
-0.27941208
-0.2792479
-0.27905482
-0.27882846
-0.27856417
-0.27825693
-0.27790172
-0.2774937
-0.27702826
-0.27650048
-0.27590412
-0.27522902
-0.27445598
-0.27354843
-0.27244108
-0.27102958
-0.26916773
-0.26668779
-0.26343201
-0.25931703
-0.25427236
-0.24845853
-0.24216309
-0.23466648
-0.22651889
-0.21818527
-0.20940231
-0.20033637
-0.19107743
-0.1817194
-0.17236501
-0.16311332
-0.1540517
-0.14526716
-0.13681228
-0.12875876
-0.12109855
-0.11390704
-0.10706962
-0.10073077
-0.094568699
-0.088965947
-0.083157055
-0.078163827
-0.072218714
-0.067910262
-0.061120891
-0.05822697
-0.049302523
-0.29006176
-0.29003937
-0.29001224
-0.28998235
-0.28994845
-0.28990962
-0.2898651
-0.28981394
-0.28975502
-0.28968703
-0.2896085
-0.28951814
-0.28941339
-0.28929086
-0.28914879
-0.28898466
-0.28879437
-0.2885739
-0.28831891
-0.28802471
-0.28768634
-0.28729861
-0.28685603
-0.28635258
-0.28578098
-0.28513109
-0.28438684
-0.28352094
-0.28248727
-0.2812116
-0.27958451
-0.27746218
-0.27468396
-0.27110949
-0.26664294
-0.26126514
-0.25504956
-0.24835884
-0.24055732
-0.23202001
-0.22323782
-0.21402688
-0.2044959
-0.19473954
-0.18485708
-0.17495415
-0.16513244
-0.15549422
-0.14612614
-0.13711457
-0.12850827
-0.12037597
-0.11270275
-0.10556124