/*--------------------------------*- C++ -*----------------------------------*\
  =========                 |
  \\      /  F ield         | OpenFOAM: The Open Source CFD Toolbox
   \\    /   O peration     | Website:  https://openfoam.org
    \\  /    A nd           | Version:  13
     \\/     M anipulation  |
\*---------------------------------------------------------------------------*/
FoamFile
{
    format      ascii;
    class       volVectorField;
    location    "31.300002";
    object      UMean;
}
// * * * * * * * * * * * * * * * * * * * * * * * * * * * * * * * * * * * * * //

dimensions      [0 1 -1 0 0 0 0];

internalField   nonuniform List<vector> 
17140
(
(-2.1380243e-06 9.8514477e-05 -1.0639466e-22)
(-2.466626e-05 0.00030365886 -8.6029608e-24)
(-7.2993908e-05 0.00052840326 5.6874364e-22)
(-0.00015704422 0.00077397732 -6.2556783e-22)
(-0.00028598511 0.0010416636 7.3177022e-23)
(-0.00047228789 0.0013326301 -2.3960003e-22)
(-0.00073131436 0.0016478849 -4.0368805e-22)
(-0.0010816422 0.001988204 1.9748872e-22)
(-0.0015456755 0.0023540408 6.46942e-22)
(-0.0021502427 0.0027454193 1.5892496e-21)
(-0.0029272102 0.0031618085 -2.362289e-21)
(-0.0039140824 0.0036019815 2.1108022e-21)
(-0.0051545542 0.0040638618 3.2371823e-22)
(-0.0066989509 0.0045443623 -1.8415731e-21)
(-0.0086044777 0.0050392318 2.0534612e-22)
(-0.010935182 0.0055429212 -1.6374087e-21)
(-0.013761522 0.0060485002 6.1769109e-23)
(-0.017159435 0.0065476478 -1.343196e-23)
(-0.021208813 0.0070307582 -9.9170778e-22)
(-0.025991369 0.007487196 1.3004358e-21)
(-0.031587932 0.0079057336 -6.3190568e-22)
(-0.03807541 0.0082751881 1.2293582e-22)
(-0.045523729 0.0085852371 9.1046718e-22)
(-0.05399351 0.0088273857 -9.1587868e-22)
(-0.063535897 0.0089960244 -1.473375e-21)
(-0.074192426 0.0090895498 1.1994742e-21)
(-0.085993848 0.0091113067 5.9376493e-21)
(-0.098969558 0.0090694217 7.0068505e-22)
(-0.11314857 0.0089761725 -6.2620283e-21)
(-0.12856454 0.0088456275 -1.4710533e-21)
(-0.14525072 0.0086871582 -5.308886e-21)
(-0.16323097 0.0085032479 7.0694462e-21)
(-0.18252969 0.0082917358 -1.8498698e-21)
(-0.20316167 0.0080481465 -8.9594567e-22)
(-0.22512968 0.0077667055 -8.815572e-21)
(-0.24841774 0.0074405905 3.9100151e-21)
(-0.27298253 0.0070623686 -5.8862836e-21)
(-0.2987425 0.0066242861 -3.9859213e-21)
(-0.32556516 0.0061185591 -1.8189788e-21)
(-0.35325288 0.0055389538 5.5264896e-21)
(-0.38152931 0.0048823449 1.0359666e-20)
(-0.41002637 0.0041501776 9.332533e-21)
(-0.43826909 0.0033465882 4.0430022e-21)
(-0.46566781 0.0024755285 -1.9311952e-20)
(-0.49151682 0.00153936 -1.3898585e-20)
(-0.51499158 0.00054210875 3.3659283e-21)
(-0.53524226 -0.00051455581 -2.2484295e-20)
(-0.55144923 -0.0016334886 -7.5042262e-21)
(-0.5626578 -0.0028093451 7.5283031e-21)
(-0.56817564 -0.0040033824 1.8182276e-20)
(-0.56735359 -0.0051640266 -1.1092599e-20)
(-0.55967559 -0.0062445176 -6.9670633e-21)
(-0.54457198 -0.007220479 1.8116123e-20)
(-0.52163391 -0.0080378635 8.5828632e-21)
(-0.49022603 -0.0085749966 6.1717885e-21)
(-0.45004893 -0.0086842526 -4.8619228e-21)
(-0.40063086 -0.0082184459 1.34715e-20)
(-0.34190722 -0.0070148431 1.1435605e-20)
(-0.27312832 -0.0049755884 2.9372221e-21)
(-0.19524775 -0.0022506144 -7.6559432e-21)
(-0.10708249 0.00060692028 -6.1560692e-21)
(-0.012886234 0.0024222335 -2.3265854e-20)
(0.090232139 0.0017372432 -3.4844665e-21)
(0.18933729 -0.0021260867 2.9632554e-20)
(0.29797787 -0.008163475 -2.3322647e-20)
(-1.9537552e-05 0.00045698342 3.0169892e-23)
(-7.7932542e-05 0.0014078873 -2.9778464e-21)
(-0.00016501794 0.0024488136 2.650679e-21)
(-0.00029078563 0.0035855261 -7.2314623e-22)
(-0.00046442881 0.0048236603 -1.4942993e-21)
(-0.00069838251 0.0061682772 2.8569793e-21)
(-0.0010078874 0.0076236129 -2.9812548e-21)
(-0.0014113168 0.0091927171 2.6266553e-22)
(-0.0019307433 0.010877008 -8.2110368e-22)
(-0.0025925266 0.012675747 -1.3697196e-23)
(-0.0034279013 0.014585443 -2.7519041e-21)
(-0.0044735527 0.016599168 4.3855839e-21)
(-0.005772151 0.018705836 3.6328911e-22)
(-0.0073727768 0.020889462 -3.5998416e-21)
(-0.0093311669 0.023128478 1.1113793e-21)
(-0.011709688 0.025395194 7.0928405e-22)
(-0.014576937 0.027655547 -4.5212734e-21)
(-0.018006863 0.029869294 1.4829985e-20)
(-0.022077326 0.031990863 -9.3534021e-21)
(-0.026868072 0.033971043 1.128914e-20)
(-0.032458161 0.035759678 -1.6823635e-20)
(-0.038923059 0.037309391 4.1632657e-21)
(-0.04633172 0.038580144 1.734015e-21)
(-0.054744302 0.039544136 -5.7106794e-21)
(-0.064211939 0.04019022 2.0770875e-20)
(-0.074776948 0.040526917 3.1135925e-21)
(-0.08647071 0.040582373 -1.6417118e-20)
(-0.099323313 0.040398065 1.8581462e-20)
(-0.11336455 0.040021346 -2.6157897e-21)
(-0.12862773 0.039494876 -2.556525e-20)
(-0.14514549 0.03885147 2.701813e-21)
(-0.16294048 0.038111423 2.069033e-20)
(-0.18203551 0.037284395 4.9106086e-22)
(-0.20244309 0.036372687 -1.5693885e-20)
(-0.22416289 0.035372041 1.7662603e-20)
(-0.24717511 0.034271443 -7.9820852e-21)
(-0.2714318 0.033053413 9.5087097e-21)
(-0.29684583 0.031694855 3.0189722e-20)
(-0.32327815 0.030168336 6.7261831e-21)
(-0.3505239 0.028444791 2.6315393e-20)
(-0.37829826 0.026496948 -3.3706914e-20)
(-0.40622271 0.024301077 -3.0695057e-20)
(-0.43380921 0.021836615 -5.1329521e-21)
(-0.46044913 0.019085291 4.1343254e-20)
(-0.48540863 0.016035722 -1.9112428e-20)
(-0.50783389 0.012697835 -6.500748e-21)
(-0.5268177 0.0091061351 3.5089368e-21)
(-0.54148957 0.0052982346 1.0642865e-20)
(-0.55099379 0.0013326467 -5.1424874e-21)
(-0.55454761 -0.0026861428 9.1723885e-21)
(-0.55150343 -0.0066740416 5.4855423e-20)
(-0.5413309 -0.010566724 2.6210499e-21)
(-0.52352067 -0.014316078 -1.1775167e-20)
(-0.49764893 -0.017869925 2.6263936e-20)
(-0.46321591 -0.021118754 -2.2601255e-20)
(-0.41994201 -0.023906539 6.4908152e-20)
(-0.36734555 -0.026088746 1.8751754e-20)
(-0.3054902 -0.027500931 -5.405041e-20)
(-0.23367268 -0.028007874 9.2745635e-21)
(-0.15289378 -0.027693356 1.0909608e-20)
(-0.06203661 -0.026841946 2.2483949e-21)
(0.034375492 -0.026562917 -3.0273319e-20)
(0.13965275 -0.027637888 6.0413334e-20)
(0.24087465 -0.031576024 1.8228348e-20)
(0.35236087 -0.036551977 3.1019279e-20)
(-5.6555228e-05 0.00080787302 1.6619912e-21)
(-0.00019104479 0.0024890376 -8.9629284e-22)
(-0.00036038122 0.0043295014 -2.3840748e-22)
(-0.00057448753 0.0063396225 2.2625269e-22)
(-0.00084265984 0.0085294586 -1.0966079e-21)
(-0.0011771951 0.010908091 -8.1365247e-23)
(-0.0015930312 0.013483158 -1.0433243e-21)
(-0.0021080352 0.016260211 -1.1251961e-21)
(-0.0027435049 0.019241952 9.2155159e-21)
(-0.0035247213 0.022427301 -8.2433666e-21)
(-0.00448148 0.025810326 3.9541263e-21)
(-0.0056486202 0.02937904 5.8081475e-21)
(-0.0070665165 0.033114101 -1.1558795e-20)
(-0.0087814801 0.036987485 -1.435051e-21)
(-0.010845998 0.040961248 5.5738158e-21)
(-0.013318736 0.044986534 3.8520012e-21)
(-0.016264211 0.049003086 -4.496114e-21)
(-0.019752035 0.052939548 1.6391803e-20)
(-0.023855662 0.05671493 -9.7738728e-21)
(-0.028650596 0.060241591 4.8722625e-21)
(-0.034212103 0.063430061 -1.6606652e-20)
(-0.040612601 0.066195736 -4.3650575e-21)
(-0.047919001 0.068467165 9.2140456e-21)
(-0.056190527 0.070194969 -1.4018229e-20)
(-0.065478331 0.071359857 -5.5654715e-21)
(-0.075826266 0.071977832 6.8146659e-21)
(-0.087267033 0.072099877 3.9042212e-20)
(-0.099832391 0.071800543 1.7820154e-20)
(-0.11355298 0.071161957 -9.0916157e-21)
(-0.12846133 0.07025636 9.7109254e-21)
(-0.14458954 0.069141036 -6.2686015e-21)
(-0.16195738 0.067855012 -3.5431196e-20)
(-0.18058426 0.066420342 1.1992894e-20)
(-0.20047782 0.064846267 3.6064434e-20)
(-0.2216312 0.063130067 -1.2285482e-20)
(-0.24401631 0.061256651 -1.7192884e-20)
(-0.26757496 0.059198603 2.9936493e-20)
(-0.29220762 0.056917375 9.102009e-21)
(-0.31776029 0.054365753 -1.6420012e-20)
(-0.34401034 0.051491505 -6.6280503e-21)
(-0.37065167 0.048242086 3.158861e-20)
(-0.39727905 0.044567001 -9.0710202e-21)
(-0.42337041 0.040418365 -1.2968436e-20)
(-0.44827475 0.035752945 -3.4142826e-20)
(-0.4712052 0.030543767 6.457314e-20)
(-0.49125606 0.02480829 -4.1293856e-20)
(-0.50749547 0.018627796 -1.0171406e-20)
(-0.51900466 0.012101086 -4.038888e-20)
(-0.52491907 0.0053253129 -4.8060734e-20)
(-0.52449432 -0.001528805 -2.4099047e-21)
(-0.51715115 -0.0083096678 1.0105913e-20)
(-0.50243368 -0.014931648 -7.5086498e-20)
(-0.47991631 -0.021360706 -3.2134573e-20)
(-0.44921616 -0.027554776 -3.3258671e-20)
(-0.40992411 -0.03340568 -1.0984303e-20)
(-0.36182183 -0.038752 -8.6626659e-20)
(-0.30454359 -0.043435653 3.4772004e-20)
(-0.23827681 -0.047296648 -1.0888785e-20)
(-0.16235729 -0.050159521 -9.0884598e-20)
(-0.077961656 -0.052042044 -3.6867465e-20)
(0.016096571 -0.052910736 4.5086088e-20)
(0.11487573 -0.053941662 1.5849824e-19)
(0.22232479 -0.055200091 -5.1929156e-20)
(0.32470509 -0.059159444 -8.4502468e-20)
(0.43725851 -0.062563576 -3.6813657e-20)
(-0.00011203661 0.0011392988 -5.5391458e-21)
(-0.00036053435 0.0035107819 6.4200323e-21)
(-0.00065311605 0.0061077393 -2.3222729e-21)
(-0.00099956025 0.0089451303 2.5264957e-22)
(-0.0014093047 0.012037471 -4.9959718e-21)
(-0.0018944552 0.015397989 5.1744002e-21)
(-0.00246949 0.019037978 -7.8557487e-21)
(-0.0031514873 0.022965906 3.7027736e-21)
(-0.0039605861 0.027186333 1.4095625e-20)
(-0.0049204337 0.031698608 -3.3979304e-21)
(-0.00605865 0.036495362 -1.2968148e-20)
(-0.007407281 0.041560804 3.9728753e-21)
(-0.0090032296 0.046868858 2.6781944e-22)
(-0.010888609 0.052381238 -1.0478066e-20)
(-0.013110974 0.058045616 3.2966814e-20)
(-0.015723361 0.063794118 -2.0372307e-20)
(-0.018784061 0.069542453 -1.952041e-22)
(-0.022356044 0.075190147 1.1451484e-20)
(-0.026505975 0.080622389 -2.9369257e-20)
(-0.031302779 0.08571402 1.4021969e-20)
(-0.036815783 0.090336178 2.1170683e-20)
(-0.043112552 0.094365738 8.6753076e-21)
(-0.050256643 0.097697169 -4.3612008e-20)
(-0.058305633 0.1002556 -2.3118438e-20)
(-0.067310521 0.10200877 1.5234491e-20)
(-0.077317023 0.10297507 -8.9846131e-21)
(-0.088360228 0.10322419 3.4343152e-20)
(-0.1004743 0.1028628 -1.0006912e-20)
(-0.11369052 0.10200665 2.7434829e-20)
(-0.12804098 0.10075946 -1.57847e-20)
(-0.14355722 0.099203897 9.8502056e-21)
(-0.16025472 0.097398961 -3.6805836e-20)
(-0.17814772 0.095380107 5.3903962e-21)
(-0.19723666 0.093163853 -2.8553129e-20)
(-0.21750526 0.090749222 2.7712811e-20)
(-0.23891339 0.088117168 8.8175664e-21)
(-0.26138782 0.085230366 -1.1278076e-19)
(-0.28481069 0.082034784 -2.9515523e-20)
(-0.30900617 0.078463025 2.4714372e-20)
(-0.33372589 0.074439252 -2.4368882e-20)
(-0.35863319 0.069884571 6.1909501e-21)
(-0.38328533 0.064720079 3.9300442e-20)
(-0.40711498 0.058868841 -1.8579064e-21)
(-0.42941805 0.052262589 -1.2919334e-20)
(-0.44934996 0.044863063 6.4225745e-21)
(-0.46596888 0.036706511 -2.826621e-21)
(-0.47834409 0.027917838 -8.7511952e-21)
(-0.48553724 0.018660549 1.3696632e-19)
(-0.48673368 0.0091106835 -1.5160715e-20)
(-0.48128924 -0.00048586291 1.3973508e-20)
(-0.4687428 -0.009929247 -1.3087215e-19)
(-0.44873988 -0.019118835 7.1818201e-20)
(-0.42093472 -0.028035254 5.899797e-20)
(-0.3850087 -0.036653398 5.6686748e-20)
(-0.34062447 -0.044872091 5.5101103e-20)
(-0.28767514 -0.05253252 8.7673177e-20)
(-0.22590424 -0.059467599 -1.7748008e-19)
(-0.15562735 -0.065539885 1.1113915e-19)
(-0.076198972 -0.070528715 1.7248094e-19)
(0.011019996 -0.074424182 -1.2888213e-19)
(0.10733228 -0.076819198 -4.2319406e-20)
(0.20728606 -0.079045754 -3.8214787e-20)
(0.3155812 -0.08029286 1.9559889e-19)
(0.41756237 -0.084054243 1.4570901e-19)
(0.5276193 -0.085473182 -6.5421124e-21)
(-0.00018350163 0.0014394175 3.8754701e-21)
(-0.00057889681 0.0044368354 -9.3501026e-21)
(-0.0010303069 0.0077207332 7.6264912e-21)
(-0.0015473402 0.01131061 -2.8838677e-21)
(-0.0021396437 0.015225448 -1.0424918e-21)
(-0.0028190844 0.019482783 8.9803055e-21)
(-0.0035995666 0.024097881 -2.2784391e-21)
(-0.0044971924 0.029082655 -4.8438809e-21)
(-0.0055306262 0.034444302 -3.7271629e-22)
(-0.0067214408 0.040183694 -3.1713647e-21)
(-0.0080944807 0.04629347 4.4534598e-21)
(-0.0096782152 0.05275587 -3.1073723e-21)
(-0.011505082 0.059540339 -1.1497162e-20)
(-0.013611774 0.066601014 -3.3405653e-22)
(-0.016039445 0.073874243 8.8969159e-21)
(-0.018833783 0.08127648 6.3487099e-21)
(-0.022044896 0.088702867 -5.5093444e-21)
(-0.025726948 0.096027151 5.3850995e-22)
(-0.029937509 0.10310353 1.0989248e-20)
(-0.034736569 0.10977126 1.3554666e-20)
(-0.040185232 0.11586262 -1.5696156e-20)
(-0.046344155 0.12121467 -1.6041498e-20)
(-0.053271879 0.12568443 2.194554e-20)
(-0.061023248 0.12916609 -2.7598727e-20)
(-0.069648636 0.13160743 -4.856969e-20)
(-0.079195073 0.13302151 1.1649258e-19)
(-0.089702137 0.13348977 -6.5174804e-20)
(-0.10120598 0.13314726 9.7886901e-20)
(-0.11373814 0.13214288 -1.2408495e-19)
(-0.12733245 0.13061513 1.4029645e-19)
(-0.1420186 0.12867194 -1.4683952e-19)
(-0.15780763 0.1263939 2.5094495e-20)
(-0.17470676 0.12383171 8.7149971e-20)
(-0.19270769 0.12101 -4.9641052e-20)
(-0.21178247 0.11792998 1.5686282e-20)
(-0.23187597 0.11456873 4.6880816e-21)
(-0.25289636 0.110879 5.7103463e-20)
(-0.27470347 0.10679133 1.8575268e-20)
(-0.2970954 0.10221822 1.863168e-20)
(-0.31979376 0.097059781 1.8732217e-20)
(-0.34242656 0.091209642 -9.5551413e-20)
(-0.364509 0.084558644 4.1878634e-20)
(-0.38542595 0.07699989 6.3862952e-21)
(-0.40442227 0.068441745 -7.5877903e-20)
(-0.42061034 0.058843114 -3.7952835e-20)
(-0.43304708 0.048273456 1.8694412e-20)
(-0.44083456 0.036917075 6.6512516e-20)
(-0.44309361 0.024996165 -2.8945061e-20)
(-0.43910019 0.012778144 8.2960148e-20)
(-0.42832925 0.00058758793 4.4739579e-20)
(-0.41041746 -0.011331118 6.1638305e-20)
(-0.38508992 -0.022883086 1.6441714e-19)
(-0.35204303 -0.034080883 -1.2759174e-19)
(-0.31098863 -0.044921057 4.1287196e-20)
(-0.26164939 -0.055295623 -7.2555978e-20)
(-0.20404919 -0.065032861 -6.959787e-20)
(-0.13808507 -0.073966811 -2.7414709e-20)
(-0.064201784 -0.082014695 -2.5745702e-19)
(0.018282119 -0.088889311 -7.0974904e-20)
(0.10775541 -0.094585092 1.6576069e-19)
(0.20562454 -0.098239296 6.386942e-20)
(0.30591507 -0.10150371 -4.9512333e-20)
(0.41381026 -0.10262725 -1.0437266e-19)
(0.51406555 -0.10567101 -1.6316592e-19)
(0.61784694 -0.10455353 1.2952484e-20)
(-0.00026714526 0.001696879 1.1717063e-20)
(-0.00083455904 0.0052323851 2.9957598e-21)
(-0.0014720397 0.0091081638 -2.4283212e-21)
(-0.0021890289 0.013348118 -8.9695488e-21)
(-0.0029954538 0.017975638 4.9179641e-21)
(-0.0039029453 0.023012691 -7.0865208e-21)
(-0.0049247862 0.028478857 3.0703761e-21)
(-0.0060759937 0.03439009 7.3238354e-22)
(-0.0073735722 0.040757165 -4.1548627e-21)
(-0.0088367358 0.047583805 -8.9775529e-21)
(-0.010487149 0.054864459 -4.5016793e-22)
(-0.01234916 0.062581726 1.4869634e-20)
(-0.014450025 0.070703479 -2.0670615e-20)
(-0.016820105 0.079179768 3.3587842e-20)
(-0.01949302 0.087939703 -8.8437418e-21)
(-0.022505733 0.096888592 1.8948735e-20)
(-0.025898535 0.10590585 -2.3158788e-20)
(-0.029714895 0.11484421 1.5222418e-20)
(-0.034001173 0.12353122 -2.4428062e-21)
(-0.038806128 0.13177379 -1.0056335e-20)
(-0.044180265 0.13936693 2.485922e-20)
(-0.05017501 0.1461071 -3.5758544e-20)
(-0.056841786 0.15181026 3.9659693e-20)
(-0.064231047 0.15633309 6.9174151e-21)
(-0.072391528 0.15959434 -6.9659487e-20)
(-0.081370636 0.16159135 7.1835363e-20)
(-0.091213425 0.16240652 -4.7684143e-20)
(-0.10195765 0.16219506 5.445617e-20)
(-0.11363732 0.16114148 5.1451731e-21)
(-0.12628814 0.1594202 3.2336851e-21)
(-0.13993609 0.15716515 -2.2779153e-20)
(-0.15459042 0.15448067 1.4511947e-21)
(-0.17024887 0.15143533 -8.7942969e-20)
(-0.18689365 0.14806336 2.4196379e-20)
(-0.20448341 0.14436887 7.2698065e-20)
(-0.22294615 0.14032533 -3.4300232e-20)
(-0.24216954 0.13587607 2.8492263e-20)
(-0.26198925 0.13093669 -2.8638969e-20)
(-0.28217576 0.12539991 -1.6044556e-19)
(-0.30241912 0.1191415 8.8982121e-20)
(-0.32231104 0.11202644 2.1709457e-20)
(-0.34132581 0.10391457 -1.2287266e-19)
(-0.35880655 0.094670013 7.3959085e-21)
(-0.37396196 0.084182896 1.5094441e-20)
(-0.38589325 0.072421197 1.5947775e-19)
(-0.39371162 0.05950192 3.6542047e-20)
(-0.39657692 0.045675672 -5.6701974e-20)
(-0.39373061 0.031219593 -5.7340168e-20)
(-0.38454109 0.016492084 -8.0556939e-20)
(-0.3685563 0.0018846508 -9.8382913e-20)
(-0.34545499 -0.012322608 -5.9617841e-20)
(-0.31500803 -0.026045475 -9.3078531e-20)
(-0.27692905 -0.039333509 3.1938657e-20)
(-0.23095224 -0.052196586 -1.9750509e-19)
(-0.17686543 -0.064503738 -1.3265016e-20)
(-0.11484492 -0.076066095 -1.1643345e-20)
(-0.044914224 -0.086717203 -6.2943985e-21)
(0.032361999 -0.096471484 2.7690923e-19)
(0.11775528 -0.10494983 1.1079549e-19)
(0.20923807 -0.11219513 -1.741515e-19)
(0.30820529 -0.11685644 -2.5669434e-19)
(0.40851523 -0.12084627 -1.1753831e-19)
(0.51460609 -0.12167618 -3.9259924e-20)
(0.61100342 -0.12329467 2.314657e-19)
(0.70526879 -0.11895677 -5.9280097e-20)
(-0.00035790031 0.0019015903 -2.1937103e-21)
(-0.0011122887 0.0058663466 -5.0344391e-21)
(-0.0019519787 0.010216059 1.2158956e-20)
(-0.0028865137 0.014978744 -4.5304749e-22)
(-0.0039260908 0.020182064 -5.9312606e-21)
(-0.0050821601 0.025852462 -2.617222e-21)
(-0.0063674095 0.032014121 -1.9354005e-21)
(-0.0077957708 0.038687636 3.8216887e-21)
(-0.0093825448 0.045888342 -1.983127e-20)
(-0.011144495 0.053624271 1.5012597e-20)
(-0.013099949 0.061893693 -7.2763336e-22)
(-0.015268883 0.070682232 -9.1594177e-21)
(-0.01767301 0.079959579 3.4462512e-20)
(-0.020335857 0.089675864 -3.4580786e-20)
(-0.023282825 0.099757883 4.6487522e-21)
(-0.026541249 0.11010545 2.901477e-20)
(-0.030140438 0.12058837 -2.7599534e-20)
(-0.034111714 0.13104472 9.7835751e-21)
(-0.038488439 0.14128138 -1.927945e-20)
(-0.04330605 0.15107795 2.5165366e-20)
(-0.048602077 0.16019531 4.8124132e-20)
(-0.054416166 0.16838975 -4.8597739e-20)
(-0.060790044 0.17543306 -7.2609827e-20)
(-0.067767405 0.18113737 1.4297422e-19)
(-0.075393556 0.18538164 -1.1695065e-19)
(-0.08371523 0.18813414 6.9154463e-20)
(-0.092780917 0.18946411 -1.8183869e-20)
(-0.10263314 0.18953478 4.3609193e-20)
(-0.11330966 0.18856505 -4.5469112e-20)
(-0.12484426 0.18676484 -6.2008042e-20)
(-0.13726301 0.18429993 4.1898525e-20)
(-0.15057474 0.18129924 6.9983608e-20)
(-0.164766 0.17785189 -6.3010196e-21)
(-0.17980906 0.17400454 -2.6627658e-21)
(-0.19564825 0.16976567 -4.6525575e-20)
(-0.21219396 0.16510635 2.0292908e-20)
(-0.22931285 0.15996137 7.483597e-20)
(-0.24681631 0.15423224 3.7709221e-20)
(-0.26444727 0.14779218 -5.8105657e-20)
(-0.28186486 0.14049249 4.6169958e-20)
(-0.29862666 0.13216933 -3.9028851e-20)
(-0.31417208 0.1226525 1.3253248e-20)
(-0.3278155 0.11178084 4.9529628e-20)
(-0.33875486 0.099435804 -1.178548e-19)
(-0.34612376 0.085609867 -6.9667287e-20)
(-0.34913371 0.070474762 -4.4824725e-20)
(-0.3470432 0.054338744 1.3909444e-19)
(-0.33921181 0.037528564 8.9286576e-20)
(-0.32505257 0.020462102 1.0367737e-19)
(-0.30410345 0.003595987 1.7930959e-19)
(-0.27605914 -0.012741646 -6.1440071e-20)
(-0.24072631 -0.028471769 1.2938328e-20)
(-0.19782781 -0.043685041 1.0276423e-19)
(-0.14713877 -0.058400708 3.0315368e-19)
(-0.088545449 -0.072444676 2.0187082e-19)
(-0.022393004 -0.085609903 8.0626071e-20)
(0.051308262 -0.097729153 2.3942795e-19)
(0.13191441 -0.10894763 -1.653093e-19)
(0.22014023 -0.11873963 1.7371347e-20)
(0.31352288 -0.12717997 2.8065923e-19)
(0.41323817 -0.13256508 1.9538952e-19)
(0.51341187 -0.1368373 9.3503497e-21)
(0.61606141 -0.13694711 -3.2617372e-19)
(0.70584913 -0.13649589 3.4498025e-20)
(0.78770133 -0.12849894 -5.079389e-20)
(-0.00044976432 0.0020453343 -8.5802005e-21)
(-0.0013937593 0.0063132949 4.1643514e-21)
(-0.0024385222 0.011000081 -5.6290298e-21)
(-0.0035939686 0.01613739 -3.2017653e-21)
(-0.004870564 0.021756884 8.9446836e-21)
(-0.006279669 0.027889404 8.3604109e-21)
(-0.0078334729 0.0345639 -8.5935028e-21)
(-0.0095449264 0.041806104 1.0355751e-21)
(-0.011427738 0.049636821 2.4043131e-22)
(-0.013496337 0.058069815 1.7149194e-20)
(-0.015765817 0.067109233 -1.8902514e-21)
(-0.018251873 0.076746513 -3.488072e-20)
(-0.020970722 0.086956801 2.8048471e-20)
(-0.023939027 0.097694885 -9.7503235e-22)
(-0.027173831 0.10889081 -1.909162e-20)
(-0.030692531 0.1204454 -1.660746e-21)
(-0.034512909 0.1322262 4.2728664e-21)
(-0.038653279 0.14406447 1.9522315e-20)
(-0.043132759 0.1557543 -3.6322049e-20)
(-0.047971748 0.16705509 6.4979358e-20)
(-0.053192624 0.177699 -1.4299253e-20)
(-0.058820596 0.18740467 1.070481e-20)
(-0.064884721 0.19589818 -9.0227405e-21)
(-0.071418834 0.20294066 3.6563198e-22)
(-0.078462072 0.20835969 -5.5753095e-20)
(-0.086058727 0.21207876 -5.6796851e-20)
(-0.094257556 0.21413658 1.1473891e-19)
(-0.10310861 0.21468705 1.944618e-20)
(-0.11265299 0.21396937 -6.9080847e-20)
(-0.12292195 0.21223733 -2.497227e-20)
(-0.13394449 0.20969613 -5.7190405e-20)
(-0.14572869 0.20649575 6.5596955e-20)
(-0.15825344 0.20275021 2.9035198e-20)
(-0.17147846 0.19852342 -6.8319307e-20)
(-0.1853339 0.19383058 2.9061206e-20)
(-0.1997128 0.18864251 1.3669959e-20)
(-0.21446127 0.18288704 -4.1335024e-20)
(-0.22936714 0.17645272 -1.085558e-19)
(-0.24414684 0.16919404 -3.303279e-20)
(-0.2584304 0.16093832 2.2206649e-20)
(-0.27174543 0.15149424 5.2705986e-20)
(-0.28350563 0.14066494 5.4301979e-20)
(-0.29301363 0.1282713 5.9820756e-20)
(-0.29948512 0.11419847 1.2472507e-19)
(-0.30212918 0.098477708 -3.3708555e-21)
(-0.30027511 0.081338773 5.1845108e-20)
(-0.29330048 0.063122409 -2.7703725e-19)
(-0.28062546 0.044178 -7.5939635e-20)
(-0.26163293 0.024954813 -8.6031795e-20)
(-0.23584805 0.0059853617 -2.3650206e-19)
(-0.20302056 -0.012331458 2.7492828e-19)
(-0.16299411 -0.02992165 -6.1253542e-20)
(-0.11549712 -0.046911066 -1.9738858e-19)
(-0.060361398 -0.06331197 -2.4429028e-19)
(0.0024191945 -0.078899744 -3.1430582e-20)
(0.072411136 -0.093475563 8.0105318e-20)
(0.14967302 -0.106873 1.3131613e-19)
(0.23346721 -0.11933849 -5.6405125e-20)
(0.32429342 -0.13017714 1.0369041e-19)
(0.41957449 -0.13946202 -8.8355396e-20)
(0.51997974 -0.14529768 -3.0380397e-20)
(0.61931376 -0.1492192 -9.1483349e-20)
(0.71640304 -0.14789578 4.0671512e-19)
(0.79632738 -0.144733 1.3395022e-20)
(0.86256852 -0.132792 1.670393e-19)
(-0.00053614842 0.002122458 7.9816828e-21)
(-0.0016586473 0.0065556463 1.5324334e-21)
(-0.0028966642 0.01142932 -1.6850817e-21)
(-0.0042605369 0.016778293 -8.2881702e-21)
(-0.0057610696 0.022637786 9.949322e-21)
(-0.0074096403 0.029042759 -8.4585208e-21)
(-0.0092180869 0.036026898 -4.0478693e-21)
(-0.011198577 0.043621356 2.176509e-22)
(-0.013363478 0.051853101 3.4314724e-21)
(-0.015725194 0.060742846 1.9565258e-20)
(-0.018295959 0.070302467 -3.2959104e-20)
(-0.021087611 0.080531874 3.9759995e-20)
(-0.02411134 0.091415246 -1.17345e-20)
(-0.027377431 0.10291668 -1.6018534e-20)
(-0.030895026 0.11497528 2.474561e-20)
(-0.034671953 0.12749995 -4.9200217e-20)
(-0.038714668 0.14036421 6.0242248e-20)
(-0.043028375 0.15340169 9.5546145e-22)
(-0.047617441 0.16640343 3.5440738e-20)
(-0.052486167 0.17911818 -1.4299414e-19)
(-0.057640012 0.19125763 3.5266972e-20)
(-0.063087275 0.20250839 1.4877975e-19)
(-0.068841153 0.21255226 -7.1864955e-20)
(-0.074921901 0.22109508 -8.7612664e-20)
(-0.081358625 0.22790226 2.2545518e-20)
(-0.088189985 0.23283549 1.2042579e-19)
(-0.095463154 0.23588167 -1.8645433e-19)
(-0.10323059 0.23716297 2.1086675e-19)
(-0.11154203 0.23691628 -1.6911919e-19)
(-0.12043157 0.23543373 3.2965373e-20)
(-0.12992067 0.23297676 -5.7367942e-20)
(-0.14002049 0.22972749 -8.2831725e-20)
(-0.15070984 0.22581423 3.3243198e-20)
(-0.16193431 0.2213242 8.7659325e-21)
(-0.1736112 0.21628732 1.2557429e-19)
(-0.18561555 0.21067761 -2.4762483e-20)
(-0.19777365 0.20441794 6.3745889e-20)
(-0.20985063 0.19738522 -5.4226694e-20)
(-0.22153759 0.18941642 3.250565e-20)
(-0.23243755 0.18031647 2.1127061e-20)
(-0.24205286 0.16986975 1.8102299e-20)
(-0.24978122 0.15785889 1.7969632e-20)
(-0.25493011 0.14409719 -1.0910878e-19)
(-0.25675551 0.12848719 -8.5221376e-20)
(-0.25456877 0.11110825 2.3954756e-20)
(-0.24779654 0.092243192 -1.4946132e-20)
(-0.23591463 0.072231005 6.2078104e-20)
(-0.21833076 0.051408843 -1.2170378e-19)
(-0.19441106 0.030250182 -1.4030153e-19)
(-0.16378272 0.00937917 -4.0369793e-20)
(-0.12629756 -0.010737415 -1.0588964e-19)
(-0.08180545 -0.030027695 3.3806344e-21)
(-0.030002791 -0.048643737 5.1316604e-20)
(0.029211948 -0.066586284 2.5029217e-19)
(0.095789324 -0.083575286 -1.2621429e-19)
(0.16932307 -0.099433379 5.1553668e-20)
(0.24983982 -0.11398015 -1.5325127e-19)
(0.33658636 -0.12749648 2.6166134e-19)
(0.42999853 -0.13914085 -1.5268633e-19)
(0.52740884 -0.14885763 5.3600949e-20)
(0.62837755 -0.15454207 -6.2057379e-23)
(0.72520271 -0.15737659 4.3742968e-20)
(0.81367542 -0.15389547 1.6494106e-19)
(0.87972528 -0.14772686 -3.1486198e-19)
(0.92713798 -0.13234573 3.2639702e-19)
(-0.00061026959 0.0021305005 -1.766691e-20)
(-0.0018861682 0.0065855145 -8.6796576e-21)
(-0.0032904633 0.011489551 1.3636205e-20)
(-0.0048339289 0.01687981 -3.5924224e-22)
(-0.0065277542 0.02279442 -1.2354595e-20)
(-0.0083834414 0.029271953 -6.4689577e-21)
(-0.010412653 0.036350521 1.3660808e-20)
(-0.012627034 0.044066659 -2.2474379e-21)
(-0.015037969 0.052453829 3.1784036e-20)
(-0.017656307 0.0615405 -6.2166111e-21)
(-0.02049202 0.071347715 -1.5959322e-22)
(-0.023553819 0.081886046 2.3078508e-20)
(-0.026848729 0.093151861 -7.4434898e-20)
(-0.030381634 0.10512284 3.4953853e-20)
(-0.034154841 0.1177528 6.3208714e-20)
(-0.038167696 0.13096578 -6.8111849e-20)
(-0.042416333 0.14464991 8.4884229e-21)
(-0.046893664 0.15865135 -4.8988494e-20)
(-0.051589726 0.17276944 -3.702585e-20)
(-0.056492557 0.18675425 1.1877078e-19)
(-0.061589719 0.20030861 -9.1114902e-20)
(-0.066870631 0.2130968 1.2273309e-19)
(-0.072329564 0.22476218 -1.4789468e-20)
(-0.077969157 0.23495527 6.1871228e-20)
(-0.08380371 0.2433715 -1.3791866e-19)
(-0.089861424 0.24979436 3.3451281e-20)
(-0.096184254 0.25413525 8.635092e-20)
(-0.10282432 0.25645706 -2.1323892e-19)
(-0.10983584 0.2569674 9.4570553e-20)
(-0.11726314 0.25597068 1.0354388e-19)
(-0.12512683 0.2537834 -8.7104729e-20)
(-0.13342666 0.25065127 -1.1722304e-20)
(-0.14214611 0.24673379 6.0200522e-20)
(-0.15122727 0.24212919 -3.3767933e-20)
(-0.16056979 0.23688116 5.2392704e-20)
(-0.1700352 0.23097536 -1.8632094e-19)
(-0.17943077 0.22433505 9.8749705e-20)
(-0.18849856 0.21682851 5.9881183e-20)
(-0.19690433 0.20827742 1.2358241e-19)
(-0.20422577 0.19846714 1.6309186e-20)
(-0.20994464 0.18716265 -1.3350071e-19)
(-0.21345106 0.17413412 5.3772703e-20)
(-0.21406951 0.15919862 7.9192726e-20)
(-0.21110865 0.14228859 1.2429154e-20)
(-0.20397782 0.12353155 -7.5810425e-20)
(-0.19216644 0.10324751 -6.6112678e-20)
(-0.17520091 0.081750385 1.9914336e-19)
(-0.15247075 0.059352286 1.0451707e-19)
(-0.12347151 0.036559563 2.2512389e-19)
(-0.08803667 0.014077098 7.8625643e-20)
(-0.046099962 -0.0075937655 3.039868e-20)
(0.0025524625 -0.028401826 2.2462879e-19)
(0.05828031 -0.048503651 8.8491357e-20)
(0.12115766 -0.067863516 -2.989395e-19)
(0.19119402 -0.086138962 2.4157051e-19)
(0.26797096 -0.10315223 -2.2397377e-19)
(0.35153757 -0.1187008 1.0857108e-19)
(0.44150805 -0.13304686 -5.2988852e-19)
(0.53808345 -0.14518959 -2.6771246e-19)
(0.63808249 -0.15488401 1.0935944e-19)
(0.73875611 -0.1598519 1.727295e-19)
(0.82979264 -0.1607999 2.9086291e-19)
(0.90500187 -0.15462639 5.1658682e-20)
(0.95241472 -0.14546409 4.0675967e-20)
(0.97899837 -0.12741577 -4.3608328e-19)
(-0.00066580026 0.0020707324 -3.1771379e-22)
(-0.0020568847 0.0064063971 1.6090475e-20)
(-0.0035862361 0.011186179 -1.8982381e-20)
(-0.0052650258 0.016448767 -9.143246e-21)
(-0.0071048299 0.022234333 1.8332583e-20)
(-0.0091173544 0.028584287 5.9460662e-21)
(-0.011314255 0.035540523 -2.8885587e-20)
(-0.01370693 0.043144511 3.1148878e-20)
(-0.016306195 0.051436041 6.5878756e-21)
(-0.019121912 0.06045157 2.6288836e-20)
(-0.022162541 0.070222054 -7.0073925e-20)
(-0.025434619 0.080770163 -8.5913066e-22)
(-0.028942173 0.092106778 6.3588004e-20)
(-0.032686079 0.10422661 -6.8729037e-20)
(-0.0366634 0.11710296 4.961252e-20)
(-0.040866751 0.13068147 1.8579164e-20)
(-0.045283777 0.14487317 -3.9274759e-20)
(-0.049896865 0.15954708 3.5934965e-20)
(-0.054683243 0.17452317 4.8593651e-20)
(-0.059615684 0.18956686 -1.0525815e-21)
(-0.064664068 0.20438706 -7.9558968e-20)
(-0.069797947 0.21864021 5.0236719e-20)
(-0.074990298 0.23194317 -2.8617645e-20)
(-0.080222159 0.24389771 -1.4166498e-19)
(-0.085487665 0.2541275 -4.8408782e-20)
(-0.09079832 0.26232543 1.3461362e-19)
(-0.096184807 0.26830379 -1.373784e-20)
(-0.1016946 0.27203407 1.5857361e-19)
(-0.10738384 0.27365966 -9.5863153e-20)
(-0.11330342 0.27346455 5.158022e-20)
(-0.11948308 0.27179674 -7.6280333e-20)
(-0.12592437 0.26897423 -1.8904656e-20)
(-0.13259556 0.26521866 9.7007579e-20)
(-0.13943128 0.26065713 -1.0183147e-19)
(-0.1463308 0.25535218 -1.5132613e-19)
(-0.15314119 0.24929898 1.5727813e-20)
(-0.15964968 0.24242178 1.6857774e-19)
(-0.16557675 0.23458295 -2.1843912e-19)
(-0.17056333 0.22559297 4.7785621e-20)
(-0.17416398 0.21522292 -1.0279492e-19)
(-0.17584451 0.20322519 1.5897291e-20)
(-0.17499488 0.18936617 -1.6191298e-19)
(-0.1709636 0.17347622 -7.7714811e-20)
(-0.16311732 0.15552178 -9.5936135e-20)
(-0.15092581 0.13567731 3.851052e-19)
(-0.13392908 0.11427863 1.2460038e-19)
(-0.11167946 0.091616307 -1.6522408e-19)
(-0.083644959 0.067989838 1.3358506e-19)
(-0.049588741 0.043940542 1.1100057e-19)
(-0.0095409126 0.020200096 -1.2477751e-19)
(0.036559264 -0.0027549843 -6.503931e-20)
(0.089050064 -0.024907703 -1.5218785e-19)
(0.14836384 -0.046364868 -7.389028e-20)
(0.21467567 -0.067024638 2.5315781e-19)
(0.28805607 -0.086474366 1.4311672e-19)
(0.36808037 -0.10452884 2.3108735e-20)
(0.45530834 -0.12095379 -9.1692639e-22)
(0.54974139 -0.13587142 1.3111334e-19)
(0.65060339 -0.14807914 -1.9133675e-19)
(0.75308057 -0.15690251 -2.4960431e-19)
(0.85037624 -0.16004674 -7.0375107e-20)
(0.93001099 -0.1584385 -5.380465e-19)
(0.98538353 -0.1496531 -4.3098907e-19)
(1.010034 -0.13851481 -1.1038847e-19)
(1.0166454 -0.11973909 -5.9262313e-20)
(-0.00069755079 0.0019484697 1.0727473e-20)
(-0.0021547971 0.0060341912 6.7394257e-21)
(-0.0037561682 0.010546071 -1.4025304e-20)
(-0.0055131285 0.01552324 2.4057403e-20)