/*--------------------------------*- C++ -*----------------------------------*\
  =========                 |
  \\      /  F ield         | OpenFOAM: The Open Source CFD Toolbox
   \\    /   O peration     | Website:  https://openfoam.org
    \\  /    A nd           | Version:  13
     \\/     M anipulation  |
\*---------------------------------------------------------------------------*/
FoamFile
{
    format      ascii;
    class       volVectorField;
    location    "47.302863";
    object      UMean;
}
// * * * * * * * * * * * * * * * * * * * * * * * * * * * * * * * * * * * * * //

dimensions      [0 1 -1 0 0 0 0];

internalField   nonuniform List<vector> 
17140
(
(-1.4530573e-06 6.5865252e-05 -6.0930698e-23)
(-1.6912161e-05 0.00020307761 -4.6436672e-24)
(-5.0185768e-05 0.00035342328 3.071182e-22)
(-0.00010808613 0.00051767757 -3.3787196e-22)
(-0.00019696523 0.00069664516 3.9533004e-23)
(-0.00032544504 0.00089104723 -1.294688e-22)
(-0.00050415569 0.0011014914 -2.1820479e-22)
(-0.00074596442 0.0013284231 1.06824e-22)
(-0.0010664057 0.0015720672 3.500764e-22)
(-0.001484104 0.0018323578 8.6052631e-22)
(-0.0020212138 0.0021088569 -1.2802684e-21)
(-0.0027038536 0.0024006624 1.1451496e-21)
(-0.0035625165 0.0027063099 1.7577956e-22)
(-0.00463241 0.0030236689 -1.0020279e-21)
(-0.005953677 0.0033498468 1.1191818e-22)
(-0.0075714312 0.0036811056 -8.945799e-22)
(-0.0095355357 0.0040128138 3.3893069e-23)
(-0.011900051 0.0043394481 -7.3199393e-24)
(-0.014722292 0.0046546719 -5.4675434e-22)
(-0.018061466 0.0049515134 7.20032e-22)
(-0.021976928 0.0052226629 -3.5126472e-22)
(-0.026526179 0.0054608992 6.8793125e-23)
(-0.031762817 0.0056596319 5.1132167e-22)
(-0.037734908 0.0058135359 -5.1684121e-22)
(-0.044484708 0.0059192347 -8.3581827e-22)
(-0.052048307 0.0059760135 6.843632e-22)
(-0.060454432 0.0059863974 3.4039129e-21)
(-0.069730127 0.0059559778 4.0314632e-22)
(-0.079900651 0.00589292 -3.6255211e-21)
(-0.090991909 0.0058063259 -8.5512387e-22)
(-0.10302619 0.0057018943 -3.1018802e-21)
(-0.11601548 0.0055804935 4.1527704e-21)
(-0.1299679 0.0054397837 -1.0917205e-21)
(-0.14488189 0.0052760096 -5.3220554e-22)
(-0.16074654 0.0050849323 -5.2621691e-21)
(-0.17753938 0.0048620905 2.3490076e-21)
(-0.19522207 0.004602962 -3.5527473e-21)
(-0.21373326 0.0043029467 -2.4162103e-21)
(-0.2329797 0.003957441 -1.1061332e-21)
(-0.25282635 0.0035628799 3.3708315e-21)
(-0.27308777 0.0031178578 6.3266419e-21)
(-0.2935201 0.0026242189 5.7020969e-21)
(-0.31381228 0.0020859773 2.4696806e-21)
(-0.33358299 0.0015076994 -1.1775595e-20)
(-0.35238125 0.00089367314 -8.4583154e-21)
(-0.36968577 0.00025015461 2.0440805e-21)
(-0.38496847 -0.0004167403 -1.361962e-20)
(-0.3977324 -0.0011019114 -4.533365e-21)
(-0.40740112 -0.0017921894 4.5363406e-21)
(-0.41358135 -0.0024479892 1.0930687e-20)
(-0.41590961 -0.0030146225 -6.6560114e-21)
(-0.41411331 -0.003431276 -4.1746168e-21)
(-0.40785125 -0.0036422112 1.0843857e-20)
(-0.39685694 -0.0035660584 5.1349086e-21)
(-0.38055078 -0.003085971 3.6929182e-21)
(-0.35845122 -0.0020941217 -2.9080386e-21)
(-0.32936655 -0.00061037111 8.0748459e-21)
(-0.29201678 0.001167801 6.8653916e-21)
(-0.24293915 0.0020791176 1.7724506e-21)
(-0.18071756 0.00024711568 -4.6322866e-21)
(-0.10146444 -0.0040995008 -3.7704925e-21)
(-0.010872803 -0.0091705673 -1.4413218e-20)
(0.094596777 -0.013453258 -2.1910783e-21)
(0.19627039 -0.014736076 1.882579e-20)
(0.30519774 -0.012181384 -1.500826e-20)
(-1.3388866e-05 0.0003130075 1.7266585e-23)
(-5.3481029e-05 0.00096454381 -1.6072118e-21)
(-0.00011337439 0.0016779967 1.4308141e-21)
(-0.00019995144 0.0024573453 -3.9045097e-22)
(-0.00031958087 0.0033064893 -8.0694928e-22)
(-0.00048086369 0.0042289521 1.5432145e-21)
(-0.0006943545 0.0052277125 -1.6109901e-21)
(-0.0009727892 0.0063049679 1.4200033e-22)
(-0.0013314854 0.0074618323 -4.4413402e-22)
(-0.0017887591 0.0086979891 -7.3830111e-24)
(-0.0023663454 0.010011287 -1.4907847e-21)
(-0.0030898179 0.011397285 2.378522e-21)
(-0.0039889861 0.012848769 1.9726889e-22)
(-0.005098225 0.014355253 -1.9579099e-21)
(-0.006456693 0.015902512 6.0574589e-22)
(-0.008108374 0.017472223 3.8745761e-22)
(-0.010101876 0.019041774 -2.475724e-21)
(-0.012489914 0.020584379 8.1464261e-21)
(-0.015328421 0.02206962 -5.1564365e-21)
(-0.018675258 0.023464539 6.2477107e-21)
(-0.022588555 0.024735393 -9.3520634e-21)
(-0.027124796 0.025850078 2.3254382e-21)
(-0.03233686 0.026781109 9.7361756e-22)
(-0.038272423 0.027508806 -3.2213306e-21)
(-0.044973647 0.028024164 1.178015e-20)
(-0.052477035 0.028330776 1.7731669e-21)
(-0.060811626 0.028444746 -9.4080329e-21)
(-0.070004814 0.028390476 1.0698131e-20)
(-0.080082272 0.028195744 -1.5162867e-21)
(-0.091069589 0.027884872 -1.4859379e-20)
(-0.10298859 0.027475735 1.5797952e-21)
(-0.11585046 0.026978806 1.2137746e-20)
(-0.12966234 0.026399544 2.865039e-22)
(-0.1444213 0.025741475 -9.3039892e-21)
(-0.16011451 0.025006606 1.0532523e-20)
(-0.17671711 0.024193848 -4.7849991e-21)
(-0.19418775 0.02329742 5.7355391e-21)
(-0.2124614 0.022306453 1.8280301e-20)
(-0.23144035 0.021205903 4.0841137e-21)
(-0.25098467 0.019978922 1.6021827e-20)
(-0.27090314 0.018609747 -2.0558111e-20)
(-0.29094473 0.017085357 -1.8720973e-20)
(-0.31078938 0.015395631 -3.1247442e-21)
(-0.33004274 0.013533101 2.5180934e-20)
(-0.34823451 0.011495832 -1.1608902e-20)
(-0.364823 0.0092967479 -3.9379444e-21)
(-0.37924078 0.0069663881 2.1243796e-21)
(-0.39095527 0.004538962 6.420139e-21)
(-0.39945272 0.0020640674 -3.0947037e-21)
(-0.40427621 -0.00037552908 5.5059134e-21)
(-0.4050584 -0.0027060776 3.2870155e-20)
(-0.4015117 -0.0048621871 1.5688501e-21)
(-0.39332546 -0.0067887436 -7.0404221e-21)
(-0.38020864 -0.0084367488 1.5696623e-20)
(-0.36165033 -0.0097518465 -1.3508184e-20)
(-0.33714613 -0.010727129 3.8812136e-20)
(-0.30544573 -0.01153787 1.1221637e-20)
(-0.26534798 -0.012667933 -3.2420427e-20)
(-0.21326154 -0.01544077 5.5734756e-21)
(-0.14732958 -0.021508245 6.6105149e-21)
(-0.064757226 -0.029789341 1.3783019e-21)
(0.028434464 -0.038108863 -1.875244e-20)
(0.13540931 -0.043642642 3.8006875e-20)
(0.2371265 -0.044660189 1.1623447e-20)
(0.3458604 -0.0404929 1.9963248e-20)
(-3.8866656e-05 0.00055511922 9.5114201e-22)
(-0.00013136201 0.0017106925 -4.8327649e-22)
(-0.00024793422 0.0029762031 -1.2855937e-22)
(-0.00039543193 0.0043588715 1.2204142e-22)
(-0.0005803077 0.0058657404 -5.9158673e-22)
(-0.00081108097 0.0075032294 -4.3871253e-23)
(-0.0010981186 0.0092768126 -5.6316611e-22)
(-0.0014538386 0.011190583 -6.0760064e-22)
(-0.0018930445 0.013246757 4.9800542e-21)
(-0.0024333487 0.015445042 -4.4579049e-21)
(-0.0030955342 0.017781923 2.1402719e-21)
(-0.0039039493 0.020249853 3.1469714e-21)
(-0.004886874 0.022836372 -6.2714227e-21)
(-0.0060768301 0.025523211 -7.796255e-22)
(-0.0075107955 0.028285447 3.0349656e-21)
(-0.0092302631 0.03109082 2.1020812e-21)
(-0.011281083 0.03389937 -2.4602484e-21)
(-0.013713028 0.036663595 8.9970909e-21)
(-0.016579019 0.039329368 -5.3845332e-21)
(-0.019933995 0.041837859 2.694168e-21)
(-0.023833434 0.044128643 -9.2248156e-21)
(-0.028331639 0.046144072 -2.4360073e-21)
(-0.033479943 0.047834653 5.1683234e-21)
(-0.039325189 0.049164863 -7.9019729e-21)
(-0.045909307 0.050118351 -3.1512167e-21)
(-0.05326956 0.050701281 3.8833363e-21)
(-0.061435595 0.050942034 2.2345147e-20)
(-0.070435638 0.05088363 1.0242111e-20)
(-0.080295681 0.050573242 -5.2583034e-21)
(-0.091040596 0.050051016 5.6294591e-21)
(-0.10269175 0.049347602 -3.6621433e-21)
(-0.11525844 0.048483564 -2.0754418e-20)
(-0.12874577 0.047472371 7.0607323e-21)
(-0.14314792 0.046324785 2.1337459e-20)
(-0.15844815 0.045048985 -7.3215769e-21)
(-0.17461641 0.043647366 -1.0290675e-20)
(-0.19160472 0.042113078 1.800709e-20)
(-0.20933979 0.040429037 5.4937257e-21)
(-0.22771383 0.038569764 -9.9563019e-21)
(-0.24657485 0.036504956 -4.0301898e-21)
(-0.26571707 0.034203768 1.9219444e-20)
(-0.28487119 0.031637266 -5.5301615e-21)
(-0.3036938 0.028779445 -7.894875e-21)
(-0.32176139 0.025608966 -2.074314e-20)
(-0.33856693 0.022116407 3.9166874e-20)
(-0.35353214 0.018322389 -2.4983391e-20)
(-0.36607008 0.01429101 -6.1300868e-21)
(-0.37561184 0.010099155 -2.4307726e-20)
(-0.38163152 0.0058230294 -2.8855051e-20)
(-0.38368902 0.0015887749 -1.4424251e-21)
(-0.38145116 -0.0024876428 6.0362507e-21)
(-0.37466531 -0.0063347027 -4.4836882e-20)
(-0.36305113 -0.0099234607 -1.9174466e-20)
(-0.34631396 -0.013245312 -1.9839739e-20)
(-0.3239504 -0.016305802 -6.5506274e-21)
(-0.29541316 -0.019200322 -5.1718241e-20)
(-0.25941284 -0.022255273 2.0765705e-20)
(-0.21465825 -0.026249146 -6.5188722e-21)
(-0.15720469 -0.032683881 -5.4609178e-20)
(-0.085500764 -0.042818866 -2.2286768e-20)
(0.0023150676 -0.054551861 2.7592477e-20)
(0.098893189 -0.065617104 9.8195088e-20)
(0.20735918 -0.071857833 -3.2667995e-20)
(0.30775401 -0.072277373 -5.3765771e-20)
(0.41436964 -0.06617617 -2.3731392e-20)
(-7.7118605e-05 0.00078417136 -3.1674342e-21)
(-0.00024826723 0.0024169772 3.4561701e-21)
(-0.00044992059 0.0042056552 -1.2503644e-21)
(-0.00068885341 0.0061606719 1.3606756e-22)
(-0.00097162977 0.0082922355 -2.6909896e-21)
(-0.0013066696 0.010609729 2.7880744e-21)
(-0.0017040548 0.013121279 -4.2341923e-21)
(-0.002175697 0.01583316 1.9969797e-21)
(-0.0027356514 0.01874908 7.6056625e-21)
(-0.0034004494 0.021869302 -1.8350194e-21)
(-0.0041894523 0.025189602 -7.0086619e-21)
(-0.0051251437 0.028700143 2.1497395e-21)
(-0.006233488 0.03238423 1.4530237e-22)
(-0.0075442065 0.036216997 -5.6857453e-21)
(-0.0090909659 0.040164161 1.7924973e-20)
(-0.010911467 0.044180956 -1.1103161e-20)
(-0.013047348 0.048211519 -1.0660545e-22)
(-0.015543868 0.052188977 6.277867e-21)
(-0.018449304 0.056036577 -1.6158453e-20)
(-0.021814056 0.059670248 7.7463775e-21)
(-0.025689446 0.063002878 1.1746612e-20)
(-0.030126296 0.06595045 4.834517e-21)
(-0.03517341 0.068439753 -2.4432777e-20)
(-0.04087619 0.070416877 -1.3014399e-20)
(-0.047276071 0.071854999 8.6258333e-21)
(-0.054411132 0.072759519 -5.1073985e-21)
(-0.062312158 0.073168426 1.9630234e-20)
(-0.071008541 0.07314276 -5.7444932e-21)
(-0.080526296 0.072748332 1.582247e-20)
(-0.090889686 0.072042344 -9.1469212e-21)
(-0.10211953 0.071068737 5.7275336e-21)
(-0.11422234 0.069858782 -2.1513417e-20)
(-0.12720009 0.068434319 3.1691732e-21)
(-0.14104275 0.066813231 -1.6854384e-20)
(-0.155728 0.065009762 1.6454467e-20)
(-0.17121832 0.063029822 5.2527471e-21)
(-0.18745601 0.060865639 -6.7686244e-20)
(-0.20435558 0.058494058 -1.7783288e-20)
(-0.22179449 0.055879035 1.4951379e-20)
(-0.23960322 0.052976595 -1.4778477e-20)
(-0.25755502 0.049740125 3.7549445e-21)
(-0.27535481 0.046123662 2.3875762e-20)
(-0.29262789 0.04208413 -1.1301122e-21)
(-0.30891382 0.037586197 -7.8249392e-21)
(-0.32366485 0.032615694 3.8932461e-21)
(-0.33627513 0.027208246 -1.6885954e-21)
(-0.34615353 0.021459243 -5.2566668e-21)
(-0.35271116 0.015490275 8.2248834e-20)
(-0.35544523 0.0094304005 -9.0792811e-21)
(-0.35396825 0.003454896 8.3520138e-21)
(-0.34800809 -0.0022916333 -7.8084275e-20)
(-0.33735081 -0.0077366171 4.280552e-20)
(-0.32173006 -0.01287949 3.5124301e-20)
(-0.30083956 -0.017759006 3.3741965e-20)
(-0.27413424 -0.02244905 3.2806048e-20)
(-0.24102239 -0.027162523 5.223651e-20)
(-0.20007448 -0.032380639 -1.0583919e-19)
(-0.14971447 -0.039235764 6.6372938e-20)
(-0.08553186 -0.049245502 1.0348109e-19)
(-0.0072645177 -0.063145756 -7.787639e-20)
(0.086201248 -0.077778742 -2.5861923e-20)
(0.18596593 -0.09084306 -2.3637047e-20)
(0.29447857 -0.097054495 1.2350975e-19)
(0.39185646 -0.096481866 9.3040389e-20)
(0.49352646 -0.088133102 -4.3193254e-21)
(-0.00012648706 0.00099215368 2.2136602e-21)
(-0.00039917899 0.003058851 -5.0226566e-21)
(-0.00071069651 0.0053238619 4.0974378e-21)
(-0.001067729 0.0078008537 -1.5497048e-21)
(-0.0014770126 0.010503201 -5.6031644e-22)
(-0.0019468395 0.013443363 4.8283484e-21)
(-0.0024869404 0.016632328 -1.2256714e-21)
(-0.0031086006 0.020078893 -2.6067465e-21)
(-0.0038249236 0.02378875 -2.0074725e-22)
(-0.0046510857 0.027763408 -1.7090039e-21)
(-0.0056046107 0.031998908 2.4020242e-21)
(-0.0067056173 0.036484381 -1.6779823e-21)
(-0.0079770843 0.041200425 -6.2164306e-21)
(-0.0094451218 0.046117342 -1.8059088e-22)
(-0.011139091 0.051193482 4.8288289e-21)
(-0.013091727 0.05637381 3.4537599e-21)
(-0.015339149 0.061588897 -3.0050806e-21)
(-0.017920624 0.066754738 2.952697e-22)
(-0.020878208 0.071773878 6.0364879e-21)
(-0.024256133 0.076538327 7.4745917e-21)
(-0.02809997 0.080934699 -8.6946213e-21)
(-0.032455602 0.084851827 -8.9286299e-21)
(-0.037368091 0.088190631 1.2276842e-20)
(-0.04288054 0.090875314 -1.5516647e-20)
(-0.049033436 0.092864028 -2.7439822e-20)
(-0.055865142 0.094156441 6.6157274e-20)
(-0.063408812 0.094795607 -3.7194202e-20)
(-0.071694548 0.094858215 5.6106732e-20)
(-0.080747983 0.094428478 -7.1442687e-20)
(-0.090594073 0.093582819 8.1120036e-20)
(-0.10125215 0.09237828 -8.5269438e-20)
(-0.1127258 0.090857653 1.4647064e-20)
(-0.12501276 0.089051924 5.1071058e-20)
(-0.13809796 0.086986104 -2.9243108e-20)
(-0.1519522 0.08468039 9.2943529e-21)
(-0.16652876 0.0821441 2.7987114e-21)
(-0.18175797 0.079368653 3.4179673e-20)
(-0.19753951 0.076325081 1.1157131e-20)
(-0.21373318 0.072967001 1.1221949e-20)
(-0.2301489 0.069236581 1.1328108e-20)
(-0.24653554 0.065070696 -5.7874445e-20)
(-0.26256881 0.060405105 2.5377729e-20)
(-0.27784056 0.055178963 3.8528915e-21)
(-0.29185407 0.049343932 -4.5884876e-20)
(-0.30402959 0.042886505 -2.289531e-20)
(-0.31375546 0.03586662 1.1264061e-20)
(-0.32045537 0.028421108 3.9933755e-20)
(-0.32356996 0.020711797 -1.735157e-20)
(-0.32264243 0.012928288 4.9563604e-20)
(-0.31734549 0.0052968364 2.6668975e-20)
(-0.30744595 -0.0020133513 3.6688715e-20)
(-0.29273925 -0.0089442559 9.7684284e-20)
(-0.27293268 -0.015537122 -7.5761833e-20)
(-0.24765016 -0.021884511 2.4473677e-20)
(-0.21626236 -0.028122646 -4.3078076e-20)
(-0.17807389 -0.034584906 -4.13382e-20)
(-0.13140886 -0.041949557 -1.6272121e-20)
(-0.074373922 -0.051711221 -1.5342613e-19)
(-0.0023704868 -0.065102746 -4.2527448e-20)
(0.083244265 -0.082245308 1.0010679e-19)
(0.18232198 -0.098988048 3.9169425e-20)
(0.28460544 -0.11311644 -3.0781749e-20)
(0.3915501 -0.11854401 -6.5916577e-20)
(0.48450984 -0.11638672 -1.0437164e-19)
(0.57851861 -0.10547661 8.4598994e-21)
(-0.00018441818 0.0011713814 6.6836687e-21)
(-0.00057632826 0.0036127393 1.6048467e-21)
(-0.0010168921 0.0062899706 -1.3012975e-21)
(-0.0015127241 0.0092198456 -4.8071691e-21)
(-0.0020707867 0.012418858 2.636349e-21)
(-0.0026992537 0.015902611 -3.8001516e-21)
(-0.0034074795 0.019685177 1.6471666e-21)
(-0.0042060648 0.023778267 3.9307668e-22)
(-0.005107043 0.028190188 -2.2314856e-21)
(-0.0061240497 0.032924589 -4.8253129e-21)
(-0.0072725068 0.03797896 -2.4186749e-22)
(-0.0085698027 0.043342893 8.0095191e-21)
(-0.010035464 0.048996146 -1.1149497e-20)
(-0.01169136 0.054906539 1.814898e-20)
(-0.013561802 0.061027865 -4.7886571e-21)
(-0.015673637 0.06729787 1.0284033e-20)
(-0.018056347 0.073636724 -1.2606204e-20)
(-0.020741915 0.079946495 8.3130197e-21)
(-0.023764725 0.086111935 -1.3396608e-21)
(-0.027161263 0.09200337 -5.5363501e-21)
(-0.030969702 0.097482262 1.3745938e-20)
(-0.035229357 0.10240988 -1.9869389e-20)
(-0.039980042 0.106659 2.2147164e-20)
(-0.045261346 0.11012772 3.8780037e-21)
(-0.051111989 0.11275332 -3.9292703e-20)
(-0.057569848 0.11452299 4.07169e-20)
(-0.064670927 0.1154779 -2.7161327e-20)
(-0.072445614 0.11570507 3.115006e-20)
(-0.08092045 0.11530884 2.9414589e-21)
(-0.090121023 0.11438567 1.8537111e-21)
(-0.10006384 0.11300606 -1.3203826e-20)
(-0.11075128 0.11122545 8.3491933e-22)
(-0.12217523 0.10908514 -5.1406648e-20)
(-0.13431518 0.10661753 1.4227299e-20)
(-0.14713416 0.10384857 4.2928845e-20)
(-0.16057521 0.10079095 -2.0371958e-20)
(-0.17455556 0.097435654 1.7016229e-20)
(-0.18895888 0.0937485 -1.716574e-20)
(-0.20362621 0.089673223 -9.6537162e-20)
(-0.21834566 0.085138051 5.3677627e-20)
(-0.23284079 0.080062609 1.3107703e-20)
(-0.24675853 0.074363824 -7.4224056e-20)
(-0.25966075 0.067963615 4.4917593e-21)
(-0.27102361 0.060803835 9.1217637e-21)
(-0.28025542 0.052879264 9.5966067e-20)
(-0.28677407 0.044283332 2.1941435e-20)
(-0.29003268 0.035198438 -3.3948685e-20)
(-0.28953922 0.025823467 -3.4249283e-20)
(-0.28487992 0.016407639 -4.7989048e-20)
(-0.2757524 0.0072190258 -5.8460246e-20)
(-0.26191227 -0.0015565768 -3.5355318e-20)
(-0.24313222 -0.0098818685 -5.5174338e-20)
(-0.21904777 -0.017846426 1.8935372e-20)
(-0.1891774 -0.025596202 -1.168978e-19)
(-0.15275714 -0.033328468 -7.8220448e-21)
(-0.10887917 -0.04151113 -6.8959056e-21)
(-0.055578841 -0.051012458 -3.6967824e-21)
(0.0094962395 -0.063630979 1.6471164e-19)
(0.090239314 -0.080086607 6.6367288e-20)
(0.18362815 -0.099760939 -1.0529356e-19)
(0.28778773 -0.11768864 -1.5765576e-19)
(0.39148932 -0.13175399 -7.3294627e-20)
(0.49514881 -0.13560153 -2.4838701e-20)
(0.58189632 -0.1313393 1.4879204e-19)
(0.66591535 -0.11742882 -3.865775e-20)
(-0.00024750275 0.0013150024 -1.249366e-21)
(-0.00076946406 0.0040575362 -2.6887035e-21)
(-0.0013507818 0.00706733 6.4947911e-21)
(-0.0019981814 0.010364054 -2.4215208e-22)
(-0.0027188522 0.013967219 -3.1698722e-21)
(-0.0035208939 0.017895594 -1.3991621e-21)
(-0.0044133106 0.022166512 -1.0350809e-21)
(-0.0054060233 0.026794982 2.0450307e-21)
(-0.0065099717 0.031792565 -1.0618729e-20)
(-0.0077371935 0.037166003 8.0454751e-21)
(-0.0091009126 0.042915564 -3.9014865e-22)
(-0.010615621 0.049033096 -4.9192016e-21)
(-0.012297166 0.055499804 1.8536565e-20)
(-0.014162825 0.062283791 -1.863323e-20)
(-0.016231387 0.069337473 2.5108926e-21)
(-0.018523221 0.076595101 1.5706634e-20)
(-0.021060346 0.083970624 -1.4984803e-20)
(-0.023866488 0.091356424 5.3310485e-21)
(-0.026967138 0.098623506 -1.0543304e-20)
(-0.030389593 0.10562391 1.382083e-20)
(-0.034162988 0.11219614 2.6550995e-20)
(-0.038318304 0.11817432 -2.6945715e-20)
(-0.042888305 0.12340116 -4.045836e-20)
(-0.047907379 0.12774418 8.0078972e-20)
(-0.053411168 0.13111284 -6.5836222e-20)
(-0.059436215 0.13347323 3.9118417e-20)
(-0.066019864 0.1348555 -1.0338533e-20)
(-0.07319472 0.13534918 2.4893863e-20)
(-0.080988889 0.13507808 -2.6080181e-20)
(-0.089425943 0.13415849 -3.5691302e-20)
(-0.098521902 0.1326782 2.4227179e-20)
(-0.10827875 0.13070546 4.0601435e-20)
(-0.11868136 0.128293 -3.6813893e-21)
(-0.12970357 0.12548155 -1.5655524e-21)
(-0.14130021 0.12230297 -2.7397732e-20)
(-0.15340375 0.11877361 1.2009134e-20)
(-0.16591818 0.11488469 4.4516681e-20)
(-0.17871113 0.11059763 2.2516201e-20)
(-0.19160484 0.10584677 -3.4839482e-20)
(-0.20436588 0.10054649 2.7774495e-20)
(-0.2166937 0.094599085 -2.3490305e-20)
(-0.22821 0.0879032 8.0101648e-21)
(-0.23845476 0.080365809 2.9823859e-20)
(-0.24689313 0.071925041 -7.0846447e-20)
(-0.25294926 0.062593812 -4.1818277e-20)
(-0.2560996 0.052503413 -2.6826421e-20)
(-0.25585173 0.041875493 8.2974981e-20)
(-0.25177619 0.030941542 5.3121723e-20)
(-0.24346654 0.019988598 6.1533604e-20)
(-0.23058378 0.0093229808 1.0618233e-19)
(-0.21284202 -0.00084744521 -3.6295238e-20)
(-0.18997061 -0.010506806 7.6328482e-21)
(-0.16149572 -0.019800298 6.0624446e-20)
(-0.12680985 -0.028933133 1.7882779e-19)
(-0.084935663 -0.038164027 1.1914282e-19)
(-0.034696547 -0.048095609 4.7626452e-20)
(0.02632047 -0.059793441 1.4172383e-19)
(0.10065061 -0.075125663 -9.8120949e-20)
(0.19070555 -0.09412363 1.0456462e-20)
(0.2916093 -0.11540254 1.6974351e-19)
(0.39973044 -0.13340656 1.1995328e-19)
(0.50358735 -0.14627745 5.7214679e-21)
(0.60201989 -0.14779609 -2.0830052e-19)
(0.68029603 -0.14095302 2.2497232e-20)
(0.75221835 -0.12385879 -3.3407299e-20)
(-0.00031169499 0.0014174186 -4.8781091e-21)
(-0.00096622984 0.004375921 2.2163467e-21)
(-0.0016910561 0.0076257351 -2.9964333e-21)
(-0.0024931944 0.011189128 -1.7047167e-21)
(-0.003380067 0.015088437 4.7639139e-21)
(-0.0043597673 0.019345528 4.4542653e-21)
(-0.0054410186 0.02398109 -4.5806205e-21)
(-0.0066331392 0.029013745 5.5219683e-22)
(-0.0079460543 0.034458899 1.2828949e-22)
(-0.0093902853 0.040327321 9.1598785e-21)
(-0.010976934 0.046623405 -1.0110959e-21)
(-0.012717658 0.053343091 -1.8674103e-20)
(-0.01462464 0.060471434 1.5039091e-20)
(-0.016710562 0.06797985 -5.240371e-22)
(-0.018988592 0.075823126 -1.0278069e-20)
(-0.021472389 0.083936364 -8.9658689e-22)
(-0.024176155 0.092232157 2.3135037e-21)
(-0.027114755 0.10059846 1.0607032e-20)
(-0.030303927 0.10889781 -1.9811286e-20)
(-0.033760605 0.11696877 3.5593792e-20)
(-0.037503394 0.1246306 -7.8714046e-21)
(-0.041553111 0.13169208 5.9193414e-21)
(-0.045933421 0.13796505 -5.0193614e-21)
(-0.050671362 0.14328232 2.0113675e-22)
(-0.055797567 0.14751817 -3.1313771e-20)
(-0.061345942 0.15060742 -3.205817e-20)
(-0.067352925 0.15255796 6.5060361e-20)
(-0.073854986 0.15345062 1.1070792e-20)
(-0.080881374 0.1534196 -3.9511392e-20)
(-0.088453022 0.15260669 -1.4343642e-20)
(-0.096587199 0.15112192 -3.2940623e-20)
(-0.1052851 0.14904371 3.795906e-20)
(-0.1145268 0.14643833 1.6868058e-20)
(-0.12427877 0.14335696 -3.9895154e-20)
(-0.13448779 0.13983779 1.7063324e-20)
(-0.14507615 0.13590164 8.0251433e-21)
(-0.1559351 0.13154091 -2.4535851e-20)
(-0.16691678 0.1267137 -6.4663452e-20)
(-0.1778253 0.12134578 -1.9727317e-20)
(-0.18840678 0.11533823 1.3315348e-20)
(-0.19833899 0.10857695 3.1641975e-20)
(-0.20722409 0.10094446 3.2597446e-20)
(-0.21459092 0.092337447 3.5887497e-20)
(-0.21991168 0.082698169 7.4734046e-20)
(-0.22265384 0.072066717 -2.005134e-21)
(-0.22236245 0.06061392 3.0957994e-20)
(-0.21861089 0.048583265 -1.6469013e-19)
(-0.21099078 0.036219947 -4.502552e-20)
(-0.19904955 0.023828705 -5.0886314e-20)
(-0.18239975 0.011758173 -1.3956317e-19)
(-0.1607294 0.00024945979 1.6191321e-19)
(-0.13370016 -0.010707984 -3.6029342e-20)
(-0.1007 -0.021318711 -1.1603369e-19)
(-0.060937738 -0.031850621 -1.4365662e-19)
(-0.013135247 -0.04262779 -1.852713e-20)
(0.044222128 -0.054401638 4.715087e-20)
(0.11398888 -0.068339311 7.755659e-20)
(0.19821014 -0.086148285 -3.3463705e-20)
(0.29748376 -0.10695549 6.2349525e-20)
(0.40525711 -0.12874832 -5.3567255e-20)
(0.51620824 -0.14577492 -1.8878704e-20)
(0.61838935 -0.15629639 -5.7948923e-20)
(0.70909635 -0.15466551 2.5990294e-19)
(0.77623261 -0.14500119 9.053038e-21)
(0.83383034 -0.12474021 1.0912503e-19)
(-0.0003725418 0.0014747423 4.5295519e-21)
(-0.001152893 0.0045558026 8.1259855e-22)
(-0.0020140553 0.0079439346 -8.9375723e-22)
(-0.0029633847 0.011663616 -4.3969906e-21)
(-0.0040085882 0.015739693 5.2798606e-21)
(-0.0051578288 0.020196933 -4.4904617e-21)
(-0.0064196535 0.025059342 -2.1498642e-21)
(-0.0078029135 0.030349325 1.1570929e-22)
(-0.0093166922 0.036086575 1.8249759e-21)
(-0.010970205 0.04228668 1.0414315e-20)
(-0.012772684 0.048959384 -1.7562679e-20)
(-0.014733234 0.056106464 2.1214499e-20)
(-0.016860691 0.063719195 -6.2713197e-21)
(-0.019163464 0.071775391 -8.57685e-21)
(-0.0216494 0.080236073 1.327997e-20)
(-0.024325686 0.089041901 -2.6474676e-20)
(-0.027198828 0.098109604 3.2517138e-20)
(-0.030274753 0.10732886 5.1681115e-22)
(-0.033559088 0.11656026 1.927498e-20)
(-0.037057675 0.12563534 -7.8120722e-20)
(-0.04077738 0.13435969 1.9360954e-20)
(-0.044727172 0.14252066 8.2080626e-20)
(-0.048919439 0.14990031 -3.9858296e-20)
(-0.053371337 0.15629424 -4.8841125e-20)
(-0.058105828 0.16153459 1.2635698e-20)
(-0.063151962 0.16551399 6.7795943e-20)
(-0.068543906 0.16820432 -1.0546651e-19)
(-0.074318455 0.16966319 1.1977884e-19)
(-0.080509319 0.17002052 -9.6455128e-20)
(-0.087138165 0.16944017 1.887745e-20)
(-0.09421635 0.16806556 -3.2959554e-20)
(-0.10174659 0.16599232 -4.7765291e-20)
(-0.109709 0.16329248 1.928426e-20)
(-0.1180615 0.16003044 5.1241796e-21)
(-0.12674368 0.1562547 7.3449817e-20)
(-0.13566742 0.15199187 -1.4588703e-20)
(-0.14471187 0.14723667 3.7664884e-20)
(-0.15371443 0.14194499 -3.2143253e-20)
(-0.16246186 0.13603527 1.939868e-20)
(-0.17068107 0.12939658 1.2606585e-20)
(-0.17803104 0.12190061 1.0805217e-20)
(-0.1841004 0.11341776 1.0751468e-20)
(-0.18841728 0.10384103 -6.5209502e-20)
(-0.19047505 0.093125502 -5.0812759e-20)
(-0.18980101 0.081344104 1.4278942e-20)
(-0.1859937 0.068703325 -8.8537826e-21)
(-0.17867605 0.055444854 3.6805798e-20)
(-0.16740857 0.041803404 -7.1838156e-20)
(-0.15169655 0.028094289 -8.2576641e-20)
(-0.13116742 0.014715229 -2.369441e-20)
(-0.10550034 0.0019336497 -6.2142878e-20)
(-0.074237934 -0.01029148 1.9853133e-21)
(-0.03656522 -0.022229576 3.0092343e-20)
(0.0085875176 -0.03422405 1.4661908e-19)
(0.062855769 -0.046650831 -7.3998704e-20)
(0.12810844 -0.0603975 3.0275531e-20)
(0.20731054 -0.076572772 -9.0388536e-20)
(0.30163233 -0.096427791 1.5545928e-19)
(0.40999964 -0.11821442 -9.1308862e-20)
(0.52413977 -0.13930526 3.2837978e-20)
(0.63629223 -0.15404537 -4.6972799e-23)
(0.7338157 -0.16113964 2.7444201e-20)
(0.81336582 -0.15583261 1.0617751e-19)
(0.86630706 -0.14343641 -2.0387351e-19)
(0.90738681 -0.12069169 2.1394637e-19)
(-0.00042544856 0.0014852225 -1.0007552e-20)
(-0.0013153703 0.0045915834 -4.5857161e-21)
(-0.0022954235 0.0080118535 7.2059687e-21)
(-0.0033733123 0.011772216 -1.8987955e-22)
(-0.0045570636 0.015899582 -6.5325076e-21)
(-0.0058549855 0.020421256 -3.4217789e-21)
(-0.0072755697 0.025364337 7.2297786e-21)
(-0.0088273776 0.030754971 -1.1900481e-21)
(-0.010518893 0.036617337 1.6843842e-20)
(-0.012358343 0.04297236 -3.2975819e-21)
(-0.014353487 0.049836064 -8.4680506e-23)
(-0.016511372 0.057217513 1.2271833e-20)
(-0.018838058 0.065116283 -3.9646636e-20)
(-0.021338332 0.07351943 1.8654686e-20)
(-0.024015428 0.082397939 3.3813257e-20)
(-0.026870782 0.091702744 -3.6537406e-20)
(-0.029903874 0.10136047 4.5668852e-21)
(-0.033112224 0.1112693 -2.6459476e-20)
(-0.036491621 0.1212955 -2.0080618e-20)
(-0.040036695 0.13127157 6.470718e-20)
(-0.043741902 0.1409973 -4.9882803e-20)
(-0.047603034 0.15024517 6.7535122e-20)
(-0.051619138 0.15877161 -8.1828699e-21)
(-0.055794748 0.16633519 3.4400915e-20)
(-0.060141942 0.17272108 -7.7084123e-20)
(-0.064681615 0.17776918 1.87846e-20)
(-0.069443148 0.18140008 4.8706441e-20)
(-0.074461702 0.18363032 -1.2079954e-19)
(-0.079772526 0.18456805 5.3798774e-20)
(-0.085402692 0.18438226 5.9105592e-20)
(-0.091361844 0.1832491 -4.9916054e-20)
(-0.097644335 0.18130201 -6.7302214e-21)
(-0.10423316 0.17862926 3.4762318e-20)
(-0.11108447 0.17529901 -1.9590538e-20)
(-0.11812737 0.17136789 3.0528401e-20)
(-0.12526637 0.16687269 -1.0912492e-19)
(-0.13236926 0.1618135 5.8099234e-20)
(-0.13925865 0.15614621 3.5376439e-20)
(-0.14570403 0.14978381 7.3244973e-20)
(-0.15141411 0.14260557 9.639823e-21)
(-0.15603189 0.13447235 -7.9539209e-20)
(-0.15913766 0.12524761 3.2056567e-20)
(-0.16026627 0.11482796 4.7201882e-20)
(-0.15893954 0.10318911 7.4373898e-21)
(-0.15474043 0.090436299 -4.4944079e-20)
(-0.14729618 0.076800465 -3.9094101e-20)
(-0.13624467 0.062504968 1.1742757e-19)
(-0.12110725 0.04776409 6.1462403e-20)
(-0.10143544 0.032906477 1.3204425e-19)
(-0.076926236 0.018367275 4.6016191e-20)
(-0.047212358 0.004412514 1.7752474e-20)
(-0.01163335 -0.0090498538 1.3106263e-19)
(0.030927502 -0.022354887 5.1665006e-20)
(0.081907773 -0.035898762 -1.7455175e-19)
(0.1432993 -0.050092086 1.4132699e-19)
(0.21717825 -0.065873657 -1.3142586e-19)
(0.3065024 -0.084086304 6.415149e-20)
(0.41186537 -0.10533322 -3.1560268e-19)
(0.52976034 -0.127005 -1.6139578e-19)
(0.64910893 -0.14606302 6.7395081e-20)
(0.75914772 -0.15733711 1.0805281e-19)
(0.84725347 -0.16020244 1.8448597e-19)
(0.91092267 -0.15123431 3.361815e-20)
(0.94620665 -0.13673043 2.6275325e-20)
(0.96873738 -0.11259406 -2.8601677e-19)
(-0.00046611041 0.0014496083 -1.7966297e-22)
(-0.0014404379 0.0044852923 8.4711904e-21)
(-0.0025122421 0.0078325686 -9.9959331e-21)
(-0.0036895524 0.01151871 -4.8161034e-21)
(-0.0049807194 0.015572094 9.659721e-21)
(-0.0063942519 0.020022032 3.134411e-21)
(-0.0079387014 0.024898266 -1.5234598e-20)
(-0.0096225274 0.030230359 1.6438818e-20)
(-0.011453891 0.036046848 3.4794988e-21)
(-0.013440412 0.042374127 1.3898306e-20)
(-0.015588883 0.049234977 -3.7089534e-20)
(-0.017904924 0.056646685 -4.556304e-22)
(-0.020392602 0.064618661 3.3762677e-20)
(-0.023054013 0.073149473 -3.6567158e-20)
(-0.025888837 0.082223264 2.646095e-20)
(-0.028893929 0.091805522 9.9374759e-21)
(-0.03206296 0.10183831 -2.10766e-20)
(-0.035386223 0.11223521 1.9357718e-20)
(-0.038850684 0.12287637 2.6285301e-20)
(-0.042440422 0.13360472 -5.725413e-22)
(-0.046137631 0.14422424 -4.3450092e-20)
(-0.049924262 0.15450232 2.7575329e-20)
(-0.053784439 0.16417791 -1.5789857e-20)
(-0.057707418 0.17297713 -7.8585177e-20)
(-0.061690795 0.18063738 -2.697986e-20)
(-0.065743129 0.18693799 7.5405785e-20)
(-0.069884914 0.19173299 -7.7278423e-21)
(-0.074146706 0.19497707 8.958274e-20)
(-0.078563431 0.19673397 -5.4375576e-20)
(-0.083164954 0.19715649 2.9351261e-20)
(-0.087965493 0.1964382 -4.356603e-20)
(-0.092959458 0.19475602 -1.0827574e-20)
(-0.098119215 0.19223435 5.5814312e-20)
(-0.103396 0.18895571 -5.8846116e-20)
(-0.10871966 0.18498635 -8.7768573e-20)
(-0.11398663 0.18037031 9.2552367e-21)
(-0.11905295 0.17511279 9.8768068e-20)
(-0.1237276 0.16917147 -1.2854528e-19)
(-0.12776327 0.16245703 2.8247407e-20)
(-0.13085185 0.15484282 -6.0886142e-20)
(-0.13262321 0.14618352 9.4134454e-21)
(-0.13265373 0.13634136 -9.6109269e-20)
(-0.1304889 0.12522253 -4.6120304e-20)
(-0.12568143 0.11282558 -5.6767079e-20)
(-0.1178434 0.099286607 2.2736966e-19)
(-0.10662039 0.084846006 7.3307475e-20)
(-0.091644542 0.069708841 -9.7001651e-20)
(-0.072456498 0.054075145 7.8191813e-20)
(-0.04873228 0.038284719 6.4786985e-20)
(-0.020211524 0.022768871 -7.2679498e-20)
(0.013610211 0.007747463 -3.7827492e-20)
(0.053700781 -0.006943769 -8.846213e-20)
(0.10158618 -0.021667545 -4.2985905e-20)
(0.15910203 -0.03684404 1.4742585e-19)
(0.22849044 -0.052850466 8.3652899e-20)
(0.31230017 -0.070556325 1.3536204e-20)
(0.41401475 -0.090381361 -3.5785442e-22)
(0.53242688 -0.11203008 7.7572955e-20)
(0.65952737 -0.13215228 -1.1652514e-19)
(0.78023732 -0.14763664 -1.5387047e-19)
(0.88158761 -0.15448842 -4.385538e-20)
(0.95271008 -0.15323388 -3.4170563e-19)
(0.99409801 -0.14163274 -2.7767859e-19)
(1.0082374 -0.12643996 -7.1711378e-20)
(1.0115213 -0.10322025 -3.8919096e-20)