/*--------------------------------*- C++ -*----------------------------------*\
  =========                 |
  \\      /  F ield         | OpenFOAM: The Open Source CFD Toolbox
   \\    /   O peration     | Website:  https://openfoam.org
    \\  /    A nd           | Version:  13
     \\/     M anipulation  |
\*---------------------------------------------------------------------------*/
FoamFile
{
    format      ascii;
    class       volScalarField;
    location    "5.603465";
    object      k;
}
// * * * * * * * * * * * * * * * * * * * * * * * * * * * * * * * * * * * * * //

dimensions      [0 2 -2 0 0 0 0];

internalField   nonuniform List<scalar> 
17140
(
3.3250407e-11
1.0448407e-09
8.5438821e-09
3.674248e-08
1.1305704e-07
2.8524708e-07
6.3236233e-07
1.2810211e-06
2.429247e-06
4.3809346e-06
7.5950242e-06
1.2754542e-05
2.0861531e-05
3.3363859e-05
5.2317626e-05
8.0581745e-05
0.00012202504
0.00018169442
0.00026583808
0.00038159677
0.00053608234
0.00073450992
0.00097716126
0.0012554166
0.0015480195
0.0018199073
0.0020190158
0.0021102724
0.002135239
0.002099901
0.002024536
0.0019388453
0.0018566375
0.0017808806
0.0017110971
0.0016467552
0.0015876172
0.0015336369
0.0014849289
0.0014417163
0.0014042666
0.001372828
0.0013472918
0.0013262201
0.0013086649
0.0012981932
0.0013009433
0.0013358308
0.0013808994
0.0014484462
0.0015246764
0.001610024
0.0017013079
0.0017922841
0.0018605615
0.0019116236
0.0019407197
0.0018433013
0.0016698213
0.0014512887
0.0012268347
0.0010168607
0.0008181499
0.00062265191
0.000448174
3.286064e-11
1.032593e-09
8.4437523e-09
3.631206e-08
1.117334e-07
2.8190984e-07
6.2497043e-07
1.2660632e-06
2.4009211e-06
4.3299433e-06
7.5068322e-06
1.2606905e-05
2.0621071e-05
3.2981472e-05
5.1722582e-05
7.9674641e-05
0.00012067035
0.00017971457
0.00026301281
0.00037767438
0.00053081187
0.00072770414
0.00096879498
0.0012457491
0.0015377055
0.001810038
0.0020114432
0.0021049344
0.0021308505
0.0020961483
0.0020208687
0.0019348379
0.0018520541
0.0017755251
0.0017047768
0.0016392387
0.0015786256
0.001522834
0.0014719267
0.0014260434
0.0013853421
0.0013499234
0.0013194537
0.0012920524
0.0012634946
0.0012436953
0.0012358573
0.0012385722
0.0012517958
0.0012675705
0.0012763911
0.0012799214
0.0012710123
0.0012586376
0.0012402157
0.0012198791
0.0011720756
0.0010948774
0.0010013388
0.00089701669
0.00078194536
0.00066647162
0.00056501139
0.0004714708
0.0003739253
3.1924729e-11
1.0031835e-09
8.2032665e-09
3.5277898e-08
1.0855152e-07
2.7388302e-07
6.0718051e-07
1.2300404e-06
2.3326561e-06
4.2069608e-06
7.293952e-06
1.2250216e-05
2.0039556e-05
3.2055735e-05
5.0280307e-05
7.747308e-05
0.00011737756
0.00017489393
0.00025611998
0.00036808246
0.0005178874
0.00071095874
0.00094812525
0.0012217402
0.0015119132
0.0017851047
0.0019920526
0.0020914296
0.002120088
0.0020878951
0.0020130546
0.0019260556
0.0018414487
0.0017626192
0.0016891391
0.0016203282
0.0015557465
0.0014950325
0.0014381086
0.0013850033
0.0013355924
0.0012897302
0.0012467804
0.0012043287
0.0011568591
0.001110867
0.0010788149
0.0010500011
0.0010276916
0.0010007702
0.00097084115
0.00092971771
0.00087586795
0.00082174529
0.00075663352
0.00070867465
0.00066840957
0.00063173415
0.00058986181
0.00054330591
0.00049035922
0.00042771504
0.00037513572
0.00034294658
0.00030105013
3.0449475e-11
9.568261e-10
7.8241957e-09
3.3647773e-08
1.0353596e-07
2.6123034e-07
5.7913761e-07
1.1732546e-06
2.2250391e-06
4.0130703e-06
6.9582972e-06
1.1687729e-05
1.9122338e-05
3.0595154e-05
4.8003845e-05
7.3996255e-05
0.00011217351
0.00016726747
0.00024520044
0.00035285971
0.00049732714
0.00068423756
0.00091500818
0.0011830662
0.0014700552
0.0017441727
0.0019594182
0.0020681768
0.0021013494
0.0020734468
0.0019994009
0.0019104073
0.0018220535
0.0017383718
0.0016592863
0.0015840169
0.0015120893
0.0014433161
0.0013774723
0.0013144139
0.0012542291
0.0011970445
0.0011426129
0.0010883316
0.0010283525
0.00097633396
0.00093986292
0.00091486875
0.00089531689
0.00087304463
0.00085267461
0.00081715534
0.00076162226
0.0006961973
0.00060603276
0.00053640267
0.00048457755
0.00045966668
0.00043510169
0.00040971958
0.00037897572
0.00034013018
0.00030936198
0.00029538877
0.00027801837
2.8464004e-11
8.9443602e-10
7.3140232e-09
3.1453857e-08
9.6785644e-08
2.4420095e-07
5.4139282e-07
1.0968179e-06
2.0801669e-06
3.7520212e-06
6.5062889e-06
1.0930042e-05
1.788632e-05
2.8625817e-05
4.4932075e-05
6.9299822e-05
0.00010513388
0.00015693093
0.00023036162
0.00033209947
0.00046915268
0.00064738022
0.00086891423
0.0011285403
0.0014098797
0.0016833851
0.0019083212
0.0020320069
0.0020722317
0.0020501371
0.0019776375
0.0018857
0.0017923212
0.0017029935
0.0016175249
0.0015351636
0.0014554818
0.0013783228
0.0013037263
0.0012320282
0.0011638978
0.0011003021
0.0010417484
0.0009862577
0.00093208784
0.00090465507
0.00089017906
0.00088220359
0.00088370448
0.00088946184
0.00089351561
0.00088039582
0.00080358663
0.00071577852
0.00058649923
0.00047579178
0.00040574567
0.00037859293
0.00036081989
0.00034652595
0.00032742345
0.00030277214
0.00028560738
0.00027763163
0.00026754247
2.6040395e-11
8.1827816e-10
6.6912686e-09
2.8775783e-08
8.8545549e-08
2.234128e-07
4.9531535e-07
1.0035016e-06
1.903287e-06
3.433255e-06
5.9542371e-06
1.0004399e-05
1.6375723e-05
2.6217678e-05
4.1173021e-05
6.3546666e-05
9.6498245e-05
0.00014422721
0.00021207933
0.00030643856
0.00043418116
0.00060138713
0.00081101339
0.0010594958
0.0013329565
0.0016048361
0.0018377631
0.0019813907
0.0020320907
0.0020186798
0.0019489981
0.0018551133
0.0017569193
0.0016614232
0.0015691852
0.0014796438
0.0013925779
0.0013081767
0.0012271277
0.0011505064
0.0010800347
0.0010178358
0.00096539068
0.00092183969
0.00089469234
0.00088470572
0.00088175511
0.00089406781
0.00092336928
0.0009725369
0.0009980408
0.0010014683
0.00089175851
0.00077186161
0.00058865564
0.00044556918
0.00035095928
0.0003174872
0.0003059159
0.00030426152
0.0002977262
0.00028502454
0.00027582817
0.00027062618
0.00025939385
2.3289926e-11
7.3184924e-10
5.9845253e-09
2.5736513e-08
7.9194007e-08
1.9982024e-07
4.430202e-07
8.9758762e-07
1.7025117e-06
3.0713794e-06
5.3274076e-06
8.9530827e-06
1.4659353e-05
2.3479973e-05
3.6896196e-05
5.6994073e-05
8.6648354e-05
0.00012970894
0.00019113149
0.00027693628
0.0003937975
0.00054797844
0.00074330471
0.00097805371
0.0012412359
0.0015098243
0.0017495913
0.0019136243
0.0019796809
0.0019795696
0.0019158624
0.001821403
0.001718722
0.0016171676
0.0015184446
0.0014224133
0.001329258
0.0012397514
0.0011553316
0.001078082
0.0010105512
0.0009554099
0.00091563393
0.0008935392
0.00088283094
0.00088134136
0.00089432366
0.00093531777
0.00099547545
0.0010385383
0.0010576651
0.0010460391
0.00092215317
0.00078698225
0.00057548847
0.00039883007
0.00030333212
0.00027494979
0.00027225398
0.00028223323
0.00028155039
0.00027660176
0.00027124121
0.0002643963
0.00024696798
2.0328069e-11
6.3877776e-10
5.2234624e-09
2.2463627e-08
6.9123507e-08
1.744132e-07
3.8670048e-07
7.8351421e-07
1.4862442e-06
2.6815128e-06
4.6519194e-06
7.8197345e-06
1.2808077e-05
2.0524878e-05
3.2274972e-05
4.9903703e-05
7.5969313e-05
0.00011392709
0.00016828007
0.00024460175
0.00034926184
0.00048859738
0.0006672184
0.00088524314
0.0011347213
0.0013964743
0.0016397859
0.0018245256
0.0019164526
0.0019310186
0.0018785107
0.0017862526
0.0016802254
0.001573196
0.001468706
0.0013672967
0.0012696461
0.0011771901
0.0010920427
0.0010168625
0.00095423849
0.00091095953
0.00088905792
0.00088024779
0.00087750631
0.00088817791
0.00092264081
0.00097062771
0.0010147137
0.0010451303
0.0010565699
0.0010110289
0.00088237412
0.00074521296
0.0005214262
0.00035002043
0.00026540537
0.00024769876
0.00025211825
0.00027108294
0.00027390287
0.00027190266
0.0002656568
0.00025324865
0.00022624553
1.7279285e-11
5.429746e-10
4.4400581e-09
1.909464e-08
5.8757152e-08
1.4825896e-07
3.2872151e-07
6.6607031e-07
1.2635578e-06
2.2799962e-06
3.9560441e-06
6.6516876e-06
1.089897e-05
1.7474883e-05
2.7499703e-05
4.2565069e-05
6.4891891e-05
9.750765e-05
0.00014441065
0.00021064846
0.00030217297
0.0004252486
0.00058511532
0.00078363975
0.0010160071
0.0012673202
0.0015112053
0.0017133167
0.0018343155
0.0018716058
0.0018364064
0.001750892
0.0016441662
0.0015330288
0.0014236743
0.0013178841
0.0012169982
0.0011229892
0.0010383556
0.00096572236
0.00091080722
0.00088253329
0.00087234438
0.00087076147
0.00087648014
0.00090076964
0.00093944095
0.00097451772
0.00099385012
0.00099650053
0.00096449531
0.00089030718
0.00076902671
0.00065135714
0.00045786387
0.00030164546
0.00023676801
0.00023036911
0.00024355864
0.00026567088
0.00026913482
0.00026633582
0.00025457388
0.00023287351
0.00020565982
1.4274519e-11
4.485545e-10
3.6679592e-09
1.577423e-08
4.8540114e-08
1.2248076e-07
2.7157332e-07
5.5029971e-07
1.0440153e-06
1.8840685e-06
3.2696484e-06
5.4990447e-06
9.0138478e-06
1.4460505e-05
2.2774291e-05
3.5290519e-05
5.388535e-05
8.1141441e-05
0.00012051763
0.00017647078
0.00025442452
0.00036040172
0.00050005109
0.00067676893
0.00088879359
0.0011257566
0.0013663106
0.0015795935
0.0017294042
0.0017949118
0.0017883525
0.0017161496
0.0016114642
0.0014972607
0.0013839523
0.0012748027
0.0011715829
0.0010765853
0.00099265738
0.00092297829
0.00087945261
0.00086109014
0.00085712087
0.00086033469
0.00087510289
0.00090705049
0.00094116157
0.00095820529
0.00093924082
0.00089420279
0.00084658181
0.000771515
0.00067626338
0.00057324947
0.00039045673
0.00025790158
0.00021895836
0.00022194774
0.00024186709
0.00026233074
0.00026328877
0.00025712233
0.0002354834
0.00021247729
0.00018709928
1.1434598e-11
3.5931435e-10
2.9382157e-09
1.2635944e-08
3.8883323e-08
9.8115381e-08
2.1755447e-07
4.4085907e-07
8.3644825e-07
1.5096586e-06
2.6203518e-06
4.408195e-06
7.2285906e-06
1.1603093e-05
1.8288955e-05
2.8372769e-05
4.3392122e-05
6.5484933e-05
9.7555458e-05
0.00014342368
0.00020788374
0.00029653122
0.00041513232
0.00056823704
0.00075678952
0.00097486583
0.001206583
0.001425512
0.0015994016
0.0016985089
0.0017212175
0.0016750153
0.0015830299
0.0014711105
0.0013551001
0.0012425142
0.001136762
0.0010406999
0.0009574811
0.00089096377
0.00085444439
0.00084065222
0.00083899557
0.0008471756
0.00086994457
0.00090624868
0.00093113835
0.00092787529
0.00087846777
0.00080338294
0.00074690953
0.00067508369
0.00060157444
0.00049742847
0.00032596474
0.00023051332
0.00020825879
0.00021704718
0.00024602846
0.00025797162
0.00025539121
0.00024063007
0.00021400888
0.00019370312
0.00017157708
8.860085e-12
2.7841426e-10
2.2766713e-09
9.790942e-09
3.0128863e-08
7.6026005e-08
1.6857897e-07
3.4162745e-07
6.4821776e-07
1.1700556e-06
2.0312277e-06
3.4179686e-06
5.6068953e-06
9.004918e-06
1.4204889e-05
2.2061739e-05
3.379379e-05
5.1111961e-05
7.6373322e-05
0.00011274096
0.00016430315
0.00023605373
0.00033355892
0.00046204625
0.00062461316
0.00081941916
0.0010363416
0.0012547709
0.0014454113
0.0015783158
0.0016364771
0.0016209447
0.0015482858
0.0014447264
0.0013299909
0.0012160923
0.0011086898
0.0010111614
0.00092699326
0.00086220497
0.00082853254
0.00081715699
0.00081704384
0.00082924796
0.00085750316
0.0008963876
0.00091497854
0.00090245211
0.00084263053
0.00074718283
0.00067734173
0.00060742207
0.00055010094
0.00043371296
0.00027393588
0.00020882285
0.00020243753
0.00021762419
0.00024745465
0.00025046732
0.00024195662
0.00021848799
0.00019572314
0.00017774813
0.00015901592
6.6246991e-12
2.0817072e-10
1.7022691e-09
7.3206949e-09
2.2527467e-08
5.6845506e-08
1.2605078e-07
2.5545194e-07
4.8473164e-07
8.750359e-07
1.5192855e-06
2.5570762e-06
4.1960593e-06
6.7423713e-06
1.0643489e-05
1.6547727e-05
2.538517e-05
3.8474375e-05
5.7656329e-05
8.5448867e-05
0.00012519651
0.00018115518
0.0002583909
0.00036228604
0.00049736126
0.00066513044
0.00086101259
0.001071193
0.001271712
0.0014328243
0.0015294218
0.0015510696
0.0015088386
0.0014188669
0.0013094546
0.0011953926
0.0010859986
0.00098704674
0.0009028516
0.00083854796
0.00080261285
0.00078913362
0.00078917069
0.00080286735
0.0008322236
0.00087119862
0.00088708754
0.00087385302
0.00081914812
0.00071249958
0.00062952342
0.00056872655
0.00051170047
0.00037052286
0.00023335477
0.00019525724
0.00020000552
0.00022554336
0.00024256773
0.00023968573
0.00022023484
0.0001988164
0.00017993106
0.00016455602
0.00014908298
4.7695487e-12
1.4987549e-10
1.2255718e-09
5.2706295e-09
1.6218972e-08
4.0926978e-08
9.075371e-08
1.8392381e-07
3.490177e-07
6.3008775e-07
1.0941121e-06
1.8417938e-06
3.0231176e-06
4.859623e-06
7.6760495e-06
1.1944843e-05
1.8347857e-05
2.7860064e-05
4.1859398e-05
6.2263183e-05
9.1681721e-05
0.000133558
0.00019222131
0.00027271433
0.00038016095
0.00051836496
0.00068739228
0.00088033897
0.0010805767
0.0012621956
0.0013963737
0.0014623565
0.0014568431
0.0013983635
0.0012989544
0.00118882
0.0010792598
0.00097671134
0.00088697789
0.00081738974
0.00077710475
0.00076047724
0.00075895671
0.00076811343
0.00079234059
0.00082746651
0.00083647065
0.00082211922
0.00076737953
0.00066620625
0.00059639471
0.00054887924
0.00047401512
0.00030009833
0.00020728941
0.00018870201
0.00019919305
0.00022869681
0.00023351928
0.00022292693
0.00019854095
0.00018212582
0.00016656274
0.00015369958
0.00014105312
3.3011117e-12
1.0373215e-10
8.4824429e-10
3.6479087e-09
1.1225468e-08
2.8326394e-08
6.281276e-08
1.2729929e-07
2.4157088e-07
4.3612903e-07
7.573649e-07
1.2750687e-06
2.0932811e-06
3.3659029e-06
5.3190313e-06
8.2827113e-06
1.273565e-05
1.9367314e-05
2.916233e-05
4.3511261e-05
6.434778e-05
9.4301238e-05
0.00013682965
0.00019625281
0.00027753093
0.00038553738
0.00052350421
0.0006904274
0.00087778354
0.0010671544
0.0012316826
0.0013427709
0.0013849916
0.0013655357
0.0012927345
0.0011906127
0.0010825682
0.00097912168
0.00088717612
0.00081219985
0.00075798737
0.00073046774
0.00072407226
0.00072847002
0.0007420047
0.00076640036
0.00076552295
0.00074753264
0.00068470374
0.00062721899
0.00058415308
0.00053729421
0.00041103553
0.00023994212
0.00018851115
0.00018677354
0.00020831641
0.00022504804
0.00021955937
0.00019773996
0.00018134038
0.00016831398
0.00015546564
0.00014474251
0.00013430078
2.1954091e-12
6.8987198e-11
5.6412531e-10
2.4260383e-09
7.4654632e-09
1.8838311e-08
4.1773124e-08
8.4659169e-08
1.6065456e-07
2.9004618e-07
5.0369452e-07
8.4804023e-07
1.3923538e-06
2.2391978e-06
3.5394753e-06
5.5139892e-06
8.4841677e-06
1.2915503e-05
1.9478187e-05
2.913001e-05
4.3225865e-05
6.3654093e-05
9.2988423e-05
0.00013461955
0.0001927828
0.00027232104
0.00037792186
0.00051250158
0.00067453953
0.00085479192
0.0010341131
0.0011854116
0.0012820292
0.0013104292
0.001281032
0.001205608
0.0011015547
0.00099550654
0.00089870679
0.0008176632
0.00075784081
0.00071681577
0.00069343236
0.00068678142
0.00068944302
0.00069525769
0.00069060676
0.00066914453
0.00063897283
0.00061493427
0.0005877647
0.00051449964
0.00031565178
0.0002039132
0.00017943563
0.00018696706
0.00021166567
0.00021335916
0.00019733632
0.00017815589
0.00016654832
0.00015623896
0.00014596419
0.0001373054
0.00012869639
1.4041765e-12
4.4123981e-11
3.6081229e-10
1.55168e-09
4.774841e-09
1.2048713e-08
2.6717204e-08
5.414545e-08
1.0274804e-07
1.8549795e-07
3.2212962e-07
5.4234226e-07
8.9044279e-07
1.4320581e-06
2.263819e-06
3.5273033e-06
5.4290661e-06
8.2693092e-06
1.2482656e-05
1.8695498e-05
2.7805084e-05
4.1085042e-05
6.0318447e-05
8.7948786e-05
0.00012721537
0.00018219077
0.00025756298
0.0003579039
0.00048609729
0.00064072337
0.00081279466
0.00098358769
0.00112621
0.0012155787
0.001241284
0.0012085554
0.0011354286
0.0010349895
0.00093167046
0.00084087299
0.00077057079
0.00072140907
0.00069030922
0.00067031256
0.00065986989
0.00065524386
0.00064427569
0.00064091893
0.00064249144
0.00064036693
0.00059342757
0.00043391837
0.00023461723
0.00017914162
0.00017630938
0.00019501662
0.00020890312
0.00019789786
0.00017564987
0.00016468061
0.00015487033
0.00014628178
0.00013803453
0.00013113381
0.00012411212
8.6577434e-13
2.7205555e-11
2.2246598e-10
9.5671601e-10
2.9439932e-09
7.4287159e-09
1.6472407e-08
3.3382438e-08
6.3345506e-08
1.1435705e-07
1.9857781e-07
3.3430589e-07
5.4883492e-07
8.8258748e-07
1.3950842e-06
2.1735571e-06
3.3453745e-06
5.0959524e-06
7.6945327e-06
1.1531125e-05
1.7168958e-05
2.5417636e-05
3.7431998e-05
5.4838416e-05
7.9880579e-05
0.0001155563
0.0001656746
0.00023469327
0.00032707586
0.00044587278
0.00059029384
0.00075264067
0.00091594275
0.0010555966
0.0011515612
0.0011750114
0.0011487146
0.0010894255
0.00099979577
0.00090085134
0.00081277025
0.00074982505
0.00070668628
0.00068226827
0.00066764113
0.00065993185
0.00066764318
0.00068318893
0.00070875279
0.00067168413
0.00055069479
0.0002752837
0.00018563862
0.00016846711
0.000177309
0.00019794944
0.00019342322
0.00017555209
0.0001643432
0.00015398178
0.00014575442
0.00013803069
0.00013157922
0.00012604284
0.00012035731
5.1685624e-13
1.6241361e-11
1.3280907e-10
5.7114424e-10
1.7575041e-09
4.4347372e-09
9.8333857e-09
1.9927464e-08
3.7812244e-08
6.825827e-08
1.1851948e-07
1.9950716e-07
3.2748989e-07
5.2654991e-07
8.3212755e-07
1.2961344e-06
1.9943333e-06
3.037002e-06
4.5843623e-06
6.8689127e-06
1.0227687e-05
1.5148526e-05
2.2335418e-05
3.2798084e-05
4.7968459e-05
6.9838341e-05
0.00010109242
0.00014517301
0.00020616633
0.00028831096
0.00039482441
0.00052584089
0.00067565999
0.00083044603
0.00097075526
0.0010786912
0.0011107992
0.0010945063
0.0010555452
0.00099178954
0.0009126596
0.00083570095
0.00077501956
0.00073645418
0.0007225061
0.00073216918
0.00077039085
0.00078582745
0.00074924883
0.00062943845
0.0003234401
0.00019685401
0.00016428804
0.0001669252
0.00018450925
0.00018851977
0.00017732688
0.00016300753
0.00015276921
0.00014550141
0.00013784308
0.00013211604
0.00012672695
0.0001218208
0.00011727254
3.0050385e-13
9.4428386e-12
7.7216012e-11
3.3206586e-10
1.0218137e-09
2.5783272e-09
5.7169596e-09
1.1585155e-08
2.198185e-08
3.9679039e-08
6.8890461e-08
1.1595175e-07
1.9030405e-07
3.0591288e-07
4.8331158e-07
7.5254264e-07
1.1573939e-06
1.7615099e-06
2.6572308e-06
3.9784165e-06
5.9190972e-06
8.7606027e-06
1.2910843e-05
1.8960436e-05
2.776077e-05
4.0527435e-05
5.8966254e-05
8.5399523e-05
0.00012283736
0.00017489171
0.00024538132
0.00033744133
0.00045197509
0.00058537548
0.00072794481
0.00086704359
0.00099236646
0.0010424362
0.001037668
0.0010250841
0.00099749379
0.00095318249
0.00091618091
0.00088021055
0.00087892086
0.00088901022
0.00087016628
0.00082455709
0.00068801439
0.00036059808
0.00020634324
0.00016237419
0.000158752
0.00017125039
0.00018720438
0.00017948482
0.00016277277
0.00015304201
0.0001452818
0.00013837776
0.00013235882
0.0001271634
0.00012225183
0.0001181558
0.00011475193
1.7155378e-13
5.3907949e-12
4.4081594e-11
1.8957149e-10
5.833345e-10
1.4719023e-09
3.26361e-09
6.613373e-09
1.2547804e-08
2.2648477e-08
3.9318821e-08
6.6170987e-08
1.0858446e-07
1.745102e-07
2.7562573e-07
4.2899228e-07
6.59432e-07
1.002942e-06
1.5116101e-06
2.2607178e-06
3.3590523e-06
4.9639359e-06
7.3031844e-06
1.0707112e-05
1.5654712e-05
2.2838894e-05
3.3254149e-05
4.8305886e-05
6.992718e-05
0.00010065581
0.00014358518
0.00020202346
0.00027877569
0.00037493455
0.00048851399
0.00061416405
0.0007414863
0.00087550791
0.00095587295
0.00098184019
0.00098621699
0.00098369587
0.00098136521
0.00097660802
0.0009681788
0.00094102181
0.00086665779
0.00068478754
0.00035244005
0.00020567811
0.00015985432
0.00015242898
0.00016113817
0.00017668846
0.00017250772
0.00016103853
0.00015232557
0.00014535668
0.00013902197
0.00013376002
0.00012825247
0.00012399748
0.00011952891
0.00011574693
0.00011281801
9.7903235e-14
3.0764472e-12
2.5156692e-11
1.0818526e-10
3.3289694e-10
8.3997466e-10
1.8624219e-09
3.7739162e-09
7.1601481e-09
1.2923265e-08
2.2433876e-08
3.7751173e-08
6.1940333e-08
9.9528506e-08
1.5715757e-07
2.4451733e-07
3.7567706e-07
5.7098448e-07
8.5978504e-07
1.2843224e-06
1.9053436e-06
2.8102171e-06
4.1247466e-06
6.0304378e-06
8.7897096e-06
1.2782347e-05
1.8557037e-05
2.6901093e-05
3.8928336e-05
5.6174442e-05
8.0671472e-05
0.00011494131
0.00016174879
0.0002235363
0.00030134252
0.00039432128
0.00049754302
0.00060977042
0.00072514644
0.0008278271
0.00088990639
0.00092006588
0.00093075329
0.00091875952
0.00088444345
0.00079594512
0.00057165927
0.00031116808
0.00019609538
0.00015616262
0.00014729147
0.00015404686
0.00016977836
0.00016971103
0.00016313615
0.00015451151
0.00014741383
0.0001411111
0.0001350073
0.00012939851
0.00012441937
0.00012048536
0.00011646541
0.0001133203
0.00011102254
5.8442898e-14
1.836471e-12
1.5017153e-11
6.4580395e-11
1.9871865e-10
5.0140457e-10
1.1117056e-09
2.2526238e-09
4.2736266e-09
7.7128721e-09
1.3387687e-08
2.2525416e-08
3.6951778e-08
5.9360885e-08
9.3701339e-08
1.4572576e-07
2.2377204e-07
3.3987226e-07
5.1131796e-07
7.6287124e-07
1.129894e-06
1.6627932e-06
2.4333278e-06
3.54389e-06
5.140817e-06
7.4335231e-06
1.0722135e-05
1.5436562e-05
2.218963e-05
3.1843168e-05
4.5581646e-05
6.494617e-05
9.1847687e-05
0.00012842201
0.00017662137
0.00023761471
0.00031034354
0.00039301952
0.00048211143
0.00057138446
0.00064797519
0.00071665086
0.00072935112
0.00070337922
0.00061781805
0.00040205188
0.00024910508
0.00017383541
0.00014827708
0.00014257396
0.000148357
0.0001639422
0.00016838981
0.00016499457
0.0001556998
0.00014777025
0.00014111062
0.00013529897
0.00013037473
0.00012594266
0.00012159434
0.00011800261
0.00011443833
0.00011165285
0.00010964836
4.01926e-14
1.2629863e-12
1.0327684e-11
4.44137e-11
1.3666422e-10
3.4482877e-10
7.6454521e-10
1.5491705e-09
2.9390212e-09
5.3041408e-09
9.2064484e-09
1.5489528e-08
2.5407657e-08
4.0810267e-08
6.4404315e-08
1.0012562e-07
1.5366181e-07
2.3318527e-07
3.5037571e-07
5.2184178e-07
7.7110253e-07
1.1313266e-06
1.6491608e-06
2.3898148e-06
3.4441744e-06
4.9387e-06
7.0501197e-06
1.0025272e-05
1.4209335e-05
2.0083832e-05
2.8314517e-05
3.9774888e-05
5.5648223e-05
7.7338336e-05
0.00010637978
0.00014415607
0.00019139302
0.00024779937
0.00031155092
0.00037808223
0.0004397134
0.00047531114
0.00045973707
0.00038929574
0.00026144906
0.00018282462
0.00014771187
0.00013422054
0.00013595507
0.00014293795
0.0001608422
0.00016665107
0.0001645272
0.00015603061
0.00014801673
0.00014236095
0.00013748477
0.00013237478
0.00012744044
0.00012318456
0.00011920446
0.00011581116
0.00011247739
0.00010992119
0.00010821696
3.4419382e-14
1.081574e-12
8.8442947e-12
3.8034937e-11
1.1703868e-10
2.9531887e-10
6.5480147e-10
1.3268799e-09
2.5175007e-09
4.5438755e-09
7.8878555e-09
1.3273079e-08
2.1775851e-08
3.4983596e-08
5.5219971e-08
8.5862613e-08
1.3178842e-07
1.9999249e-07
3.0044048e-07
4.4722995e-07
6.6015344e-07
9.6677164e-07
1.4051212e-06
2.0272039e-06
2.9034538e-06
4.1284805e-06
5.8276183e-06
8.1666615e-06
1.1365204e-05
1.571589e-05
2.1611558e-05
2.9580538e-05
4.0328112e-05
5.4747241e-05
7.3891215e-05
9.8825487e-05
0.00013023771
0.00016777865
0.00020904903
0.00024769313
0.00026787051
0.00025552657
0.0002075269
0.00016048817
0.00013176577
0.00011912006
0.00012016636
0.00012627401
0.00014214428
0.00015919504
0.00016482798
0.00016401968
0.00015773825
0.00014937854
0.00014438484
0.00013911117
0.00013360858
0.00012897133
0.00012453948
0.00012039037
0.00011670383
0.00011376169
0.00011087834
0.00010863303
0.00010709198
3.4254542e-14
1.0763961e-12
8.8020313e-12
3.7853993e-11
1.1648638e-10
2.939429e-10
6.5180638e-10
1.3209643e-09
2.5066592e-09
4.5251884e-09
7.8573266e-09
1.3225644e-08
2.170578e-08
3.4885667e-08
5.5091939e-08
8.5709625e-08
1.3162981e-07
1.9987021e-07
3.0042489e-07
4.4740934e-07
6.605723e-07
9.6723848e-07
1.4047146e-06
2.0231357e-06
2.8886372e-06
4.086631e-06
5.7248843e-06
7.9360912e-06
1.0881057e-05
1.475318e-05
1.9786365e-05
2.6266496e-05
3.4548045e-05
4.5052808e-05
5.8201091e-05
7.4174898e-05
9.280244e-05
0.00011198397
0.00012795455
0.00013287243
0.00012526387
0.00010667368
9.6502096e-05
9.2757886e-05
9.6267828e-05
0.00010295269
0.00011804564
0.00014616527
0.0001588224
0.00016395665
0.00016382717
0.00015980942
0.00015045733
0.00014530891
0.00013988513
0.00013472663
0.00013004644
0.00012562573
0.00012164144
0.00011831266
0.0001149224
0.00011197196
0.00010915121
0.00010729177
0.00010592749
3.3135998e-14
1.0412488e-12
8.5146779e-12
3.661888e-11
1.1268965e-10
2.8437824e-10
6.3064709e-10
1.2782155e-09
2.4258578e-09
4.3800242e-09
7.6067323e-09
1.2806722e-08
2.1023691e-08
3.3799229e-08
5.3393165e-08
8.3094485e-08
1.2765595e-07
1.9389438e-07
2.9150679e-07
4.3415749e-07
6.408856e-07
9.378579e-07
1.3604294e-06
1.955354e-06
2.7827871e-06
3.917502e-06
5.4483068e-06
7.4740311e-06
1.0095881e-05
1.3406262e-05
1.7476812e-05
2.2350096e-05
2.8039355e-05
3.4483547e-05
4.1544935e-05
4.88566e-05
5.5680732e-05
6.0553427e-05
6.0964569e-05
5.8637822e-05
5.7959505e-05
6.0909061e-05
6.7008307e-05
7.52929e-05
9.01989e-05
0.00011894594
0.00014812361
0.00015951644
0.00016367854
0.00016408111
0.00016067352
0.00015118676
0.00014594213
0.00014088324
0.00013629843
0.00013184409
0.00012767567
0.00012365465
0.00011991449
0.0001162858
0.00011312228
0.00011063239
0.00010803004
0.00010627034
0.00010496994
2.7067256e-14
8.5054766e-13
6.9552451e-12
2.991237e-11
9.2052195e-11
2.3230229e-10
5.1517226e-10
1.0441904e-09
1.9817526e-09
3.5782109e-09
6.2142269e-09
1.0462064e-08
1.7173755e-08
2.7607098e-08
4.3604409e-08
6.7843871e-08
1.041891e-07
1.5816842e-07
2.3761944e-07
3.5353346e-07
5.2112022e-07
7.6107585e-07
1.1009552e-06
1.5764018e-06
2.2317506e-06
3.1192019e-06
4.2954824e-06
5.8148449e-06
7.7178498e-06
1.0017519e-05
1.2682791e-05
1.56339e-05
1.8738731e-05
2.1826576e-05
2.4683698e-05
2.6911677e-05
2.8105384e-05
2.8833924e-05
3.0723051e-05
3.4618955e-05
3.9597007e-05
5.0075561e-05
6.3944902e-05
8.5256372e-05
0.00012126259
0.00014832123
0.00016002549
0.0001638527
0.00016427434
0.00016144404
0.00015264023
0.00014702341
0.00014219092
0.00013768896
0.00013315749
0.00012862423
0.0001244364
0.0001206033
0.0001171964
0.00011437823
0.00011149641
0.00010900205
0.00010661839
0.00010526233
0.00010418495
1.8026758e-14
5.66463e-13
4.6321562e-12
1.99213e-11
6.1304953e-11
1.5470584e-10
3.4307771e-10
6.9534238e-10
1.3195805e-09
2.3823415e-09
4.1367153e-09
6.9628765e-09
1.1426253e-08
1.8360369e-08
2.8983852e-08
4.5063997e-08
6.9142492e-08
1.0484165e-07
1.5727036e-07
2.3354473e-07
3.4342391e-07
5.0002761e-07
7.2053659e-07
1.0266649e-06
1.444525e-06
2.0032977e-06
2.7319644e-06
3.6533109e-06
4.7753072e-06
6.0812997e-06
7.5207478e-06
9.0130654e-06
1.0457171e-05
1.174862e-05
1.2792067e-05
1.3817464e-05
1.5585407e-05
1.8156427e-05
2.2545995e-05
2.9859279e-05
4.1484485e-05
5.9419781e-05
8.5235671e-05
0.00012072584
0.00014762847
0.00016036478
0.00016465311
0.00016497074
0.00016255354
0.00015471283
0.00014802516
0.00014292899
0.00013854912
0.00013414773
0.00012994857
0.0001260546
0.00012242436
0.00011916452
0.00011596353
0.0001127963
0.00011011453
0.00010791478
0.00010572772
0.00010442313
0.00010342664
1.0108542e-14
3.1764479e-13
2.5974676e-12
1.1170632e-11
3.4375136e-11
8.6743761e-11
1.9235249e-10
3.8982104e-10
7.3968512e-10
1.3351719e-09
2.3178338e-09
3.9000699e-09
6.3973291e-09
1.0273782e-08
1.6206473e-08
2.5174387e-08
3.8580263e-08
5.8413932e-08
8.746547e-08
1.2959272e-07
1.9003749e-07
2.757635e-07
3.957516e-07
5.6112534e-07
7.8489565e-07
1.0810253e-06
1.4625062e-06
1.9381166e-06
2.5085293e-06
3.1629848e-06
3.8792601e-06
4.6323313e-06
5.4152267e-06
6.3073616e-06
7.5564052e-06
9.4721949e-06
1.2529825e-05
1.7377646e-05
2.5500319e-05
3.8776302e-05
5.8017604e-05
8.3914602e-05
0.00011679962
0.00014359885
0.00016010161
0.00016585241
0.0001660759
0.00016394649
0.00015681369
0.00014897897
0.00014371421
0.00013960361
0.00013553291
0.00013153685
0.00012755565
0.00012371573
0.00012024979
0.00011685527
0.00011397355
0.00011146349
0.00010898868
0.00010677087
0.00010476354
0.00010371256
0.00010280309
5.2396731e-15
1.6464811e-13
1.346362e-12
5.7900396e-12
1.7816992e-11
4.4957963e-11
9.9686077e-11
2.0200281e-10
3.8324641e-10
6.9165098e-10
1.2003983e-09
2.0191923e-09
3.3107668e-09
5.3142231e-09
8.3776894e-09
1.3003461e-08
1.9909426e-08
3.011097e-08
4.5027229e-08
6.6613753e-08
9.7519036e-08
1.4125352e-07
2.0234496e-07
2.8643295e-07
4.0023552e-07
5.5131143e-07
7.4763132e-07
9.970928e-07
1.3076796e-06
1.6897929e-06
2.1635055e-06
2.7758124e-06
3.6319892e-06
4.9213363e-06
6.9491146e-06
1.0238144e-05
1.5659557e-05
2.4358754e-05
3.7708801e-05
5.6212676e-05
8.104829e-05
0.00011231432
0.0001408941
0.00016140593
0.00016773331
0.00016781437
0.0001658735
0.0001592225
0.00015035058
0.00014519811
0.00014087449
0.00013681095
0.00013277867
0.00012866712
0.00012488947
0.00012136318
0.00011813974
0.0001152572
0.00011246444
0.00010992972
0.00010762106
0.00010583973
0.00010401712
0.00010309355
0.00010219385
3.1553517e-15
9.9151672e-14
8.1078051e-13
3.4867226e-12
1.0728993e-11
2.7071586e-11
6.0023098e-11
1.2162238e-10
2.3072968e-10
4.1637166e-10
7.2258922e-10
1.215414e-09
1.9928377e-09
3.1989518e-09
5.0438391e-09
7.8312968e-09
1.1997062e-08
1.8160857e-08
2.7196214e-08
4.0322581e-08
5.9224648e-08
8.6204395e-08
1.243734e-07
1.7790001e-07
2.5234095e-07
3.5510554e-07
4.9631633e-07
6.9045482e-07
9.5984082e-07
1.342341e-06
1.9026369e-06
2.7535828e-06
4.0913204e-06
6.2471157e-06
9.7292433e-06
1.5243028e-05
2.3897494e-05
3.6706198e-05
5.4479209e-05
7.8573076e-05
0.0001090979
0.00013919337
0.00016192786
0.00016975267
0.00017025
0.00016830404
0.00016177904
0.000152288
0.00014700295
0.00014222623
0.00013779152
0.00013390852
0.00013002111
0.00012641736
0.00012290582
0.0001197233
0.00011679108
0.00011392787
0.00011141269
0.00010909623
0.00010692838
0.00010501017
0.00010329161
0.00010262764
0.00010170535
2.9660677e-15
9.3203847e-14
7.6214793e-13
3.2776055e-12
1.0085606e-11
2.5448544e-11
5.6426119e-11
1.1434038e-10
2.1693663e-10
3.9154541e-10
6.796797e-10
1.1436811e-09
1.8762783e-09
3.0142663e-09
4.7579925e-09
7.3989922e-09
1.1359029e-08
1.7245072e-08
2.5926601e-08
3.864439e-08
5.7164413e-08
8.3998208e-08
1.2272532e-07
1.7848136e-07
2.5873782e-07
3.7465514e-07
5.4346633e-07
7.9305138e-07
1.1673931e-06
1.7376228e-06
2.6219593e-06
4.0141202e-06
6.2237103e-06
9.7295718e-06
1.5231022e-05
2.3700314e-05
3.6063222e-05
5.3348931e-05
7.6905625e-05
0.00010655543
0.00013723837
0.00016166888
0.00017159413
0.00017286663
0.00017100721
0.00016481786
0.00015477718
0.00014917136
0.00014376652
0.00013909675
0.00013518523
0.00013163057
0.00012794322