/*--------------------------------*- C++ -*----------------------------------*\
  =========                 |
  \\      /  F ield         | OpenFOAM: The Open Source CFD Toolbox
   \\    /   O peration     | Website:  https://openfoam.org
    \\  /    A nd           | Version:  13
     \\/     M anipulation  |
\*---------------------------------------------------------------------------*/
FoamFile
{
    format      ascii;
    class       volVectorField;
    location    "5.603465";
    object      UMean;
}
// * * * * * * * * * * * * * * * * * * * * * * * * * * * * * * * * * * * * * //

dimensions      [0 1 -1 0 0 0 0];

internalField   nonuniform List<vector> 
17140
(
(-3.1517269e-06 0.00013364913 -6.7365132e-22)
(-4.1296804e-05 0.00041095565 -5.6878047e-23)
(-0.00012368886 0.00071366681 3.7575004e-21)
(-0.00026781273 0.0010432941 -4.1324646e-21)
(-0.00048922726 0.0014014295 4.8334414e-22)
(-0.00080946194 0.0017894111 -1.5827373e-21)
(-0.0012549916 0.0022082589 -2.6665463e-21)
(-0.0018578587 0.0026585346 1.3033478e-21)
(-0.0026567009 0.0031401849 4.2703589e-21)
(-0.0036977707 0.0036523518 1.0488564e-20)
(-0.0050359364 0.0041931581 -1.5581245e-20)
(-0.0067356337 0.0047594717 1.3915486e-20)
(-0.0088716742 0.00534666 2.1348177e-21)
(-0.01152979 0.0059483472 -1.2117774e-20)
(-0.014806754 0.0065562102 1.3504141e-21)
(-0.018809881 0.0071598455 -1.0748159e-20)
(-0.023655724 0.0077467755 4.0285654e-22)
(-0.029467759 0.0083026409 -8.98953e-23)
(-0.03637297 0.0088116655 -6.4724465e-21)
(-0.044497323 0.0092574568 8.4562054e-21)
(-0.053960413 0.009624172 -4.1013964e-21)
(-0.064869809 0.0098980143 7.903361e-22)
(-0.077315856 0.010068895 5.8569454e-21)
(-0.091369112 0.010131962 -5.8762586e-21)
(-0.10708364 0.010088533 -9.4138536e-21)
(-0.12448906 0.0099461458 7.6150804e-21)
(-0.14359221 0.0097166965 3.7585151e-20)
(-0.1644274 0.0094115956 4.4416413e-21)
(-0.18701004 0.0090429559 -3.9274112e-20)
(-0.21132703 0.0086210157 -9.2204656e-21)
(-0.23738573 0.0081525021 -3.3101166e-20)
(-0.26516588 0.0076415557 4.3845233e-20)
(-0.29462442 0.0070902022 -1.1475386e-20)
(-0.3256839 0.006498763 -5.5227763e-21)
(-0.3582205 0.0058662265 -5.451627e-20)
(-0.39204802 0.0051897504 2.4090714e-20)
(-0.42689674 0.0044641832 -3.6440212e-20)
(-0.4623837 0.0036817156 -2.4764231e-20)
(-0.49797252 0.002830941 -1.1372089e-20)
(-0.53292212 0.0018980764 3.4595986e-20)
(-0.56622693 0.00086610405 6.5341559e-20)
(-0.59655468 -0.00028105816 5.9284333e-20)
(-0.62217907 -0.0015558672 2.5854403e-20)
(-0.64097027 -0.002960115 -1.2535457e-19)
(-0.65046281 -0.004476665 -9.1320807e-20)
(-0.64790522 -0.0060491245 2.2358289e-20)
(-0.63066002 -0.0076004755 -1.5124726e-19)
(-0.59636754 -0.0090447678 -5.1168661e-20)
(-0.54307689 -0.010317342 5.1960757e-20)
(-0.47098709 -0.011324997 1.2686017e-19)
(-0.38064508 -0.011906332 -7.7985896e-20)
(-0.27474583 -0.012050244 -4.9206243e-20)
(-0.15532582 -0.011832553 1.2795583e-19)
(-0.024985208 -0.011268791 6.0377942e-20)
(0.11334637 -0.010339448 4.2953171e-20)
(0.25495901 -0.0089732119 -3.3607841e-20)
(0.3928866 -0.0071529866 9.0445883e-20)
(0.51941693 -0.0050063098 7.5112122e-20)
(0.62835311 -0.0027227715 1.869408e-20)
(0.71640327 -0.00057296825 -4.7896732e-20)
(0.78464328 0.0012679167 -3.7273059e-20)
(0.83527049 0.002766084 -1.3731462e-19)
(0.87205478 0.0039209998 -2.0085086e-20)
(0.89765344 0.0047999524 1.6867563e-19)
(0.91552549 0.0053139186 -1.3034602e-19)
(-3.2352034e-05 0.00075565961 1.9150557e-22)
(-0.00013034072 0.0023241021 -1.9696792e-20)
(-0.00027730732 0.0040371397 1.7532985e-20)
(-0.00049066168 0.005904782 -4.7819989e-21)
(-0.00078607432 0.0079367875 -9.8826332e-21)
(-0.0011849905 0.010141791 1.8894517e-20)
(-0.0017136563 0.012526811 -1.9711433e-20)
(-0.0024037119 0.01509652 1.7363857e-21)
(-0.0032931732 0.017852374 -5.4270711e-21)
(-0.0044274086 0.02079157 -9.1510921e-23)
(-0.005860096 0.023905864 -1.8175482e-20)
(-0.0076541329 0.02718025 2.8941908e-20)
(-0.0098824143 0.030591571 2.396182e-21)
(-0.012628356 0.034107146 -2.371879e-20)
(-0.015986017 0.037683575 7.309736e-21)
(-0.020059638 0.041265939 4.6585739e-21)
(-0.024962413 0.044787699 -2.9664323e-20)
(-0.030814302 0.048171663 9.7068155e-20)
(-0.037738794 0.051332452 -6.1062671e-20)
(-0.045858613 0.054180819 7.3512867e-20)
(-0.055290623 0.05663007 -1.0918076e-19)
(-0.06614042 0.05860438 2.6917244e-20)
(-0.078497364 0.060048203 1.1159039e-20)
(-0.092431941 0.060935081 -3.6668157e-20)
(-0.1079988 0.061273349 1.3271123e-19)
(-0.1252306 0.061106494 1.9889538e-20)
(-0.14413406 0.060503101 -1.0390504e-19)
(-0.16474437 0.059531214 1.1718794e-19)
(-0.18708038 0.058259606 -1.6272761e-20)
(-0.21112724 0.056746568 -1.5982293e-19)
(-0.23689235 0.055030792 1.672646e-20)
(-0.26435448 0.053134273 1.2861753e-19)
(-0.2934692 0.051065207 3.198494e-21)
(-0.32415715 0.048820779 -9.7185422e-20)
(-0.35629188 0.046387947 1.0921015e-19)
(-0.38968382 0.043741511 -4.9464769e-20)
(-0.42405848 0.040840874 5.8693737e-20)
(-0.45902678 0.037626797 1.8749015e-19)
(-0.49404423 0.03401835 4.2133242e-20)
(-0.52835965 0.029912664 1.654381e-19)
(-0.56095404 0.02518787 -2.1269969e-19)
(-0.59047617 0.019713578 -1.9583097e-19)
(-0.61517802 0.013373079 -3.3440569e-20)
(-0.63289744 0.0060954725 2.6794691e-19)
(-0.64111741 -0.0021057604 -1.2630736e-19)
(-0.63705452 -0.011093907 -4.3671098e-20)
(-0.61790463 -0.020602439 2.3438034e-20)
(-0.58130795 -0.030198276 7.2690914e-20)
(-0.52588719 -0.039207375 -3.552173e-20)
(-0.45149112 -0.047019006 6.4217566e-20)
(-0.35928348 -0.053157523 3.8643805e-19)
(-0.25145111 -0.057493777 1.844785e-20)
(-0.13053797 -0.060247135 -8.321774e-20)
(0.00085274038 -0.061454878 1.849854e-19)
(0.13969005 -0.060857466 -1.5769656e-19)
(0.28113142 -0.057827291 4.4637453e-19)
(0.4180141 -0.051974207 1.2675506e-19)
(0.54255628 -0.043763908 -3.5513125e-19)
(0.64872712 -0.034255947 5.991531e-20)
(0.73370424 -0.024927441 6.7944841e-20)
(0.79871657 -0.016793744 1.3554859e-20)
(0.84623905 -0.010189082 -1.7946543e-19)
(0.8802932 -0.0051473687 3.4913821e-19)
(0.90382092 -0.0013572096 1.0443514e-19)
(0.92039133 0.00095587054 1.7352589e-19)
(-9.543318e-05 0.0013627956 1.0553644e-20)
(-0.00032255533 0.0041920642 -5.9452496e-21)
(-0.00060868577 0.0072829895 -1.5815798e-21)
(-0.0009710071 0.0106542 1.5004103e-21)
(-0.0014253801 0.014323734 -7.273769e-21)
(-0.0019929908 0.018307741 -5.4078426e-22)
(-0.002699498 0.022619576 -6.9200149e-21)
(-0.0035755622 0.027268506 -7.4626566e-21)
(-0.0046577299 0.032258145 6.1074801e-20)
(-0.0059893133 0.037584601 -5.4610482e-20)
(-0.0076212536 0.043234334 2.6180698e-20)
(-0.0096129422 0.049181773 3.843981e-20)
(-0.01203293 0.055386774 -7.6425793e-20)
(-0.014959409 0.061792088 -9.4863346e-21)
(-0.018480353 0.068321116 3.6766602e-20)
(-0.02269313 0.074876318 2.5375054e-20)
(-0.027703453 0.081338852 -2.9561034e-20)
(-0.033623476 0.087570079 1.0754986e-19)
(-0.04056895 0.093415746 -6.3937555e-20)
(-0.048655435 0.098713541 3.1804186e-20)
(-0.057993759 0.10330448 -1.0798523e-19)
(-0.068685174 0.10704792 -2.8286427e-20)
(-0.080816806 0.10983876 5.9452687e-20)
(-0.094458885 0.11162399 -9.0130544e-20)
(-0.10966714 0.1124139 -3.57227e-20)
(-0.12648031 0.11228351 4.3326635e-20)
(-0.14490538 0.11135649 2.4770794e-19)
(-0.16497857 0.10976061 1.1282603e-19)
(-0.18672531 0.10761978 -5.6891711e-20)
(-0.21012757 0.10504262 6.1136217e-20)
(-0.23519131 0.10210259 -3.8752131e-20)
(-0.26189293 0.098840978 -2.2041077e-19)
(-0.29018434 0.095272925 7.4405767e-20)
(-0.3199812 0.091392731 2.2384144e-19)
(-0.35115053 0.087175081 -7.5583131e-20)
(-0.38349435 0.082571843 -1.0647169e-19)
(-0.41672705 0.077506452 1.8592385e-19)
(-0.4504449 0.071867073 5.7042292e-20)
(-0.48408427 0.065501449 -1.0260893e-19)
(-0.5168683 0.058214598 -4.1517205e-20)
(-0.54774329 0.049774961 2.00309e-19)
(-0.57531076 0.039931522 -5.7216031e-20)
(-0.5977612 0.028454543 -8.3199381e-20)
(-0.61286146 0.015196935 -2.2267647e-19)
(-0.61800701 0.00016525979 4.2502241e-19)
(-0.61034685 -0.016405319 -2.7573732e-19)
(-0.58713508 -0.033961083 -6.9657772e-20)
(-0.54618346 -0.051624919 -2.7704218e-19)
(-0.48626167 -0.068281198 -3.3370274e-19)
(-0.40748066 -0.08280047 -1.7096396e-20)
(-0.31142508 -0.094329582 7.2334188e-20)
(-0.20068507 -0.10262741 -5.3325558e-19)
(-0.078126481 -0.10803024 -2.2819474e-19)
(0.053618623 -0.11071975 -2.3506863e-19)
(0.19155301 -0.11017443 -7.7120953e-20)
(0.33076282 -0.10517632 -5.9685781e-19)
(0.46384524 -0.094965324 2.3605799e-19)
(0.58302924 -0.080437943 -7.1444828e-20)
(0.6828729 -0.063623944 -5.8411719e-19)
(0.76127912 -0.047185258 -2.3107209e-19)
(0.81993883 -0.032931406 2.7409892e-19)
(0.86183487 -0.021494581 9.4084163e-19)
(0.89137864 -0.012913515 -3.0026643e-19)
(0.9117467 -0.0066699177 -4.8368444e-19)
(0.92680322 -0.0027966514 -2.0712517e-19)
(-0.00019006103 0.0019324807 -3.5285479e-20)
(-0.0006108985 0.0059459432 4.2774679e-20)
(-0.0011057607 0.010332393 -1.5471877e-20)
(-0.0016914895 0.015119057 1.6828267e-21)
(-0.0023842262 0.02033232 -3.3283378e-20)
(-0.0032047611 0.025996128 3.446314e-20)
(-0.0041778644 0.032130691 -5.2320469e-20)
(-0.0053327155 0.038750681 2.4646501e-20)
(-0.0067036426 0.045863045 9.3821757e-20)
(-0.0083308536 0.053464388 -2.2599833e-20)
(-0.010261155 0.061537945 -8.6237359e-20)
(-0.012548638 0.070050166 2.6394495e-20)
(-0.015255272 0.078947045 1.771654e-21)
(-0.018451329 0.088150394 -6.950683e-20)
(-0.022215517 0.097554441 2.1836517e-19)
(-0.026634719 0.10702328 -1.3471106e-19)
(-0.031803176 0.11638991 -1.2904155e-21)
(-0.037820999 0.12545789 7.5406129e-20)
(-0.044791911 0.13400669 -1.9287917e-19)
(-0.052820209 0.14180183 9.178335e-20)
(-0.062007072 0.14861066 1.3812142e-19)
(-0.072446571 0.15422367 5.6453555e-20)
(-0.084221828 0.15847942 -2.8235125e-19)
(-0.097402177 0.1612894 -1.4916591e-19)
(-0.11204457 0.16265595 9.762607e-20)
(-0.12819554 0.16267635 -5.7544343e-20)
(-0.14586459 0.16152498 2.1841761e-19)
(-0.16508847 0.15939566 -6.3451451e-20)
(-0.18590086 0.15646149 1.7309803e-19)
(-0.20828128 0.15288474 -9.9037773e-20)
(-0.23223166 0.14877897 6.1856686e-20)
(-0.25772526 0.14420749 -2.2977342e-19)
(-0.28470784 0.13919399 3.3425448e-20)
(-0.31308729 0.13373023 -1.7781986e-19)
(-0.34272043 0.12777844 1.7220679e-19)
(-0.37339598 0.12126723 5.5435194e-20)
(-0.40481121 0.11408304 -7.0202e-19)
(-0.43653996 0.10606011 -1.8479505e-19)
(-0.46798923 0.096972071 1.5483795e-19)
(-0.49834341 0.086528421 -1.5346295e-19)
(-0.52649757 0.074382323 3.9581685e-20)
(-0.55098657 0.060157567 2.5114696e-19)
(-0.5699214 0.043507792 -1.1846217e-20)
(-0.58098192 0.024211266 -8.5029887e-20)
(-0.58147872 0.0022797231 4.1601216e-20)
(-0.56855178 -0.021916072 -2.0519618e-20)
(-0.53955769 -0.047525313 -6.045835e-20)
(-0.49252415 -0.073215958 9.4135626e-19)
(-0.4265992 -0.09731026 -1.0536806e-19)
(-0.3424465 -0.1181294 9.8260907e-20)
(-0.24226304 -0.1344722 -9.2817605e-19)
(-0.12918235 -0.14609081 5.1098611e-19)
(-0.0063120372 -0.15358982 4.2085145e-19)
(0.12382243 -0.15736169 4.0211885e-19)
(0.25847171 -0.15661412 3.8690644e-19)
(0.39274817 -0.14944197 6.0562724e-19)
(0.5189638 -0.13469129 -1.2048626e-18)
(0.62955447 -0.11383667 7.3748395e-19)
(0.72004127 -0.089933496 1.1122831e-18)
(0.78923048 -0.066767791 -8.1132143e-19)
(0.83966844 -0.046889686 -2.579767e-19)
(0.8749675 -0.031181461 -2.2449974e-19)
(0.89981597 -0.019632815 1.1412396e-18)
(0.91739173 -0.011425146 8.3788005e-19)
(0.93112232 -0.0063262258 -3.6855682e-20)
(-0.00031139801 0.0024424915 2.4792193e-20)
(-0.00098072787 0.0075177803 -6.2669276e-20)
(-0.0017434061 0.013067903 5.1113059e-20)
(-0.0026158824 0.019128555 -1.9326209e-20)
(-0.0036146863 0.025734444 -6.9863205e-21)
(-0.0047601426 0.032917606 6.0169013e-20)
(-0.0060759273 0.040705731 -1.5257338e-20)
(-0.0075893754 0.049119967 -3.2436143e-20)
(-0.0093320264 0.058172187 -2.493383e-21)
(-0.011340165 0.067861732 -2.1218924e-20)
(-0.013655347 0.078171574 2.9783541e-20)
(-0.016324899 0.089063967 -2.0763182e-20)
(-0.019402357 0.10047568 -7.6772929e-20)
(-0.022947777 0.11231306 -2.2381672e-21)
(-0.027027858 0.12444737 5.9237742e-20)
(-0.031715777 0.13671102 4.2205708e-20)
(-0.03709066 0.14889564 -3.6563675e-20)
(-0.043236569 0.16075321 3.5449132e-21)
(-0.050240974 0.1720018 7.2511203e-20)
(-0.058192659 0.18233736 8.9203487e-20)
(-0.067179138 0.19145292 -1.0291118e-19)
(-0.07728384 0.19906534 -1.0474787e-19)
(-0.088583269 0.20494779 1.4265434e-19)
(-0.10114456 0.20896344 -1.7866491e-19)
(-0.11502564 0.2110918 -3.1324952e-19)
(-0.13027902 0.21143812 7.4719709e-19)
(-0.14692614 0.21021812 -4.1596987e-19)
(-0.16499823 0.20769494 6.2242229e-19)
(-0.1845335 0.20408802 -7.8521373e-19)
(-0.20552118 0.19961651 8.8442025e-19)
(-0.22795102 0.19444112 -9.2228564e-19)
(-0.25179394 0.18865152 1.5666137e-19)
(-0.27698711 0.18228272 5.4465454e-19)
(-0.30342805 0.175325 -3.09618e-19)
(-0.33096016 0.16772836 9.7614938e-20)
(-0.35935488 0.15939766 2.8875904e-20)
(-0.3882873 0.15018148 3.5678213e-19)
(-0.41730271 0.13985861 1.1700944e-19)
(-0.44577101 0.128126 1.1844577e-19)
(-0.47282854 0.11459332 1.1859084e-19)
(-0.49730808 0.098793322 -6.0827019e-19)
(-0.51766616 0.08021812 2.6853286e-19)
(-0.53192404 0.05840112 4.2620761e-20)
(-0.5376743 0.033049124 -4.970842e-19)
(-0.53217791 0.0042024075 -2.5267065e-19)
(-0.51264414 -0.0275853 1.2518213e-19)
(-0.47665805 -0.061107985 4.5369207e-19)
(-0.42264254 -0.094542831 -1.9891936e-19)
(-0.35026676 -0.12564402 5.7892383e-19)
(-0.26078271 -0.15217013 3.1607878e-19)
(-0.15699171 -0.17259672 4.3900095e-19)
(-0.042575999 -0.18676685 1.1796143e-18)
(0.079120966 -0.19571492 -9.148366e-19)
(0.20575783 -0.20017125 2.9726259e-19)
(0.33496613 -0.19903036 -5.1308104e-19)
(0.46187745 -0.18954592 -4.8594307e-19)
(0.57842231 -0.17019376 -1.8877668e-19)
(0.67766893 -0.14317158 -1.7153837e-18)
(0.75629991 -0.11262586 -4.5875972e-19)
(0.81445178 -0.083395242 1.0429843e-18)
(0.85582017 -0.058677174 3.9253638e-19)
(0.88458165 -0.039465793 -2.9287495e-19)
(0.90544524 -0.025588905 -6.0514214e-19)
(0.92108778 -0.01587842 -9.417043e-19)
(0.93439546 -0.0099093828 7.177011e-20)
(-0.00045212059 0.0028717297 7.5342502e-20)
(-0.001409841 0.0088429774 2.0228328e-20)
(-0.0024834781 0.015377725 -1.638877e-20)
(-0.0036891122 0.02251982 -6.0544092e-20)
(-0.0050437839 0.030312145 3.3194342e-20)
(-0.0065673627 0.038795036 -4.7820345e-20)
(-0.0082823542 0.048004315 2.0714095e-20)
(-0.010214064 0.0579688 4.9402213e-21)
(-0.012390922 0.068707176 -2.8011288e-20)
(-0.01484479 0.080224224 -6.0496986e-20)
(-0.017611256 0.092506332 -3.0416647e-21)
(-0.0207299 0.10551633 1.0005037e-19)
(-0.024244525 0.1191877 -1.3896182e-19)
(-0.028203306 0.13341851 2.2549248e-19)
(-0.032658841 0.14806532 -5.9278326e-20)
(-0.037668045 0.16293798 1.268171e-19)
(-0.043291882 0.17779625 -1.546098e-19)
(-0.049594837 0.1923497 1.0137404e-19)
(-0.056644164 0.20626274 -1.619874e-20)
(-0.064508861 0.21916688 -6.6503523e-20)
(-0.073258404 0.23068183 1.6383225e-19)
(-0.082961375 0.24044653 -2.3464974e-19)
(-0.093684001 0.24815842 2.5912262e-19)
(-0.10548867 0.25361626 4.5170277e-20)
(-0.11843313 0.25675697 -4.5109123e-19)
(-0.13257265 0.25767389 4.6312598e-19)
(-0.14794842 0.25660572 -3.0574081e-19)
(-0.16458085 0.25387554 3.479114e-19)
(-0.18251092 0.24976887 3.3382398e-20)
(-0.20175053 0.24455381 2.1044696e-20)
(-0.22226824 0.2384447 -1.4337552e-19)
(-0.24403357 0.23156622 9.5767386e-21)
(-0.26697299 0.2239694 -5.5180455e-19)
(-0.29097144 0.21564536 1.5098618e-19)
(-0.31585592 0.20653253 4.5554094e-19)
(-0.34137721 0.19651196 -2.1462475e-19)
(-0.36718405 0.18539388 1.7815148e-19)
(-0.39278783 0.17290034 -1.8036023e-19)
(-0.41751552 0.15864937 -1.0128535e-18)
(-0.44044849 0.14214704 5.6437695e-19)
(-0.46035051 0.12280002 1.3911365e-19)
(-0.47559601 0.099963873 -7.932483e-19)
(-0.48412474 0.073052151 4.612555e-20)
(-0.48347778 0.041713129 9.7701425e-20)
(-0.47095866 0.00604997 1.0624794e-18)
(-0.44399276 -0.033154732 2.4644013e-19)
(-0.40057098 -0.074307121 -3.8798784e-19)
(-0.33963448 -0.11508369 -3.9686527e-19)
(-0.26132662 -0.15267254 -5.6531941e-19)
(-0.16726671 -0.18426763 -7.0019165e-19)
(-0.060703613 -0.20800495 -4.2892301e-19)
(0.054106144 -0.22387643 -6.693105e-19)
(0.17349519 -0.23352505 2.2884562e-19)
(0.29527913 -0.23818582 -1.4178206e-18)
(0.4174163 -0.23643885 -9.5906306e-20)
(0.53489738 -0.22453324 -8.0998815e-20)
(0.63939581 -0.20061053 -4.5306629e-20)
(0.72503873 -0.16779559 1.8528905e-18)
(0.79003286 -0.13132755 7.2294749e-19)
(0.83629639 -0.097001745 -1.1093382e-18)
(0.8687416 -0.068461478 -1.5857929e-18)
(0.89179862 -0.04663356 -7.0832009e-19)
(0.90974489 -0.031079813 -2.2953335e-19)
(0.92433721 -0.020274683 1.3418178e-18)
(0.93763513 -0.01354161 -3.3730615e-19)
(-0.00060259568 0.0032019795 -1.4188898e-20)
(-0.0018695152 0.0098654315 -3.4273157e-20)
(-0.003276318 0.017164499 8.2766718e-20)
(-0.0048394407 0.025150514 -3.0804602e-21)
(-0.0065763272 0.033874206 -4.0360316e-20)
(-0.008506502 0.043384249 -1.7807302e-20)
(-0.010651374 0.053725112 -1.3165352e-20)
(-0.013034245 0.06493443 2.5986008e-20)
(-0.015680396 0.077039639 -1.3479108e-19)
(-0.018617148 0.090053872 1.0196948e-19)
(-0.021873888 0.103971 -4.9447045e-21)
(-0.025482067 0.11875984 -6.2124328e-20)
(-0.029475159 0.13435752 2.3347215e-19)
(-0.033888596 0.15066226 -2.3396173e-19)
(-0.038759663 0.16752598 3.1379261e-20)
(-0.044127383 0.18474733 1.9560067e-19)
(-0.050032384 0.20206645 -1.8560882e-19)
(-0.05651681 0.21916281 6.557094e-20)
(-0.063624279 0.23565844 -1.288746e-19)
(-0.071399945 0.25112894 1.6760491e-19)
(-0.079890641 0.26512483 3.1924609e-19)
(-0.0891452 0.27720481 -3.2091453e-19)
(-0.099214684 0.28698047 -4.7747234e-19)
(-0.11015242 0.29416805 9.3553486e-19)
(-0.1220132 0.29863722 -7.6152513e-19)
(-0.13485308 0.30044196 4.4822503e-19)
(-0.14872785 0.29981734 -1.1710557e-19)
(-0.16366136 0.29712906 2.7998373e-19)
(-0.17969067 0.29275515 -2.8988957e-19)
(-0.19684431 0.2869995 -3.946012e-19)
(-0.21508603 0.28013399 2.6503075e-19)
(-0.23437278 0.27233367 4.4286176e-19)
(-0.2546213 0.26367258 -3.9338619e-20)
(-0.27570135 0.2541468 -1.6492587e-20)
(-0.29742089 0.24368491 -2.9256151e-19)
(-0.31950637 0.23214471 1.2787938e-19)
(-0.34157596 0.21929822 4.7207943e-19)
(-0.36310252 0.20481043 2.3940293e-19)
(-0.38336453 0.1882188 -3.6926518e-19)
(-0.40138386 0.16892331 2.9356588e-19)
(-0.41585395 0.14620153 -2.5134567e-19)
(-0.425077 0.11927286 8.3916239e-20)
(-0.42694615 0.087440455 3.2356472e-19)
(-0.41903299 0.050322203 -7.7907478e-19)
(-0.39883307 0.0081274047 -4.6477817e-19)
(-0.36418027 -0.038096096 -3.0339384e-19)
(-0.31363675 -0.086379258 9.5927442e-19)
(-0.24664745 -0.13398384 6.2343115e-19)
(-0.16353574 -0.17761624 7.3342561e-19)
(-0.065943597 -0.21384161 1.2839557e-18)
(0.042447228 -0.24029863 -4.4629172e-19)
(0.15671472 -0.25709888 9.3774911e-20)
(0.2728499 -0.26668011 7.4688412e-19)
(0.38887168 -0.27098522 2.1910692e-18)
(0.50280856 -0.26828875 1.4423472e-18)
(0.60913652 -0.25378664 5.6685055e-19)
(0.69971562 -0.22541118 1.649173e-18)
(0.77001921 -0.18737652 -1.1169433e-18)
(0.82046241 -0.14594869 1.1779223e-19)
(0.85498088 -0.10772068 1.7938928e-18)
(0.87946656 -0.076489608 1.2106002e-18)
(0.89806308 -0.052913138 5.4865685e-20)
(0.91411696 -0.036219366 -1.9297389e-18)
(0.92815126 -0.024570355 2.0586903e-19)
(0.94142713 -0.017155604 -2.9097547e-19)
(-0.00075173132 0.0034189388 -5.5850394e-20)
(-0.0023255849 0.010540933 2.8606435e-20)
(-0.0040632804 0.018351047 -3.8663324e-20)
(-0.0059818975 0.026907195 -2.1989228e-20)
(-0.0080993457 0.036267322 6.1415947e-20)
(-0.010434967 0.046488175 5.7392243e-20)
(-0.013009267 0.057623101 -5.8970894e-20)
(-0.015843766 0.069719442 7.1068935e-21)
(-0.018960856 0.082815108 1.6490653e-21)
(-0.022383597 0.09693436 1.1751353e-19)
(-0.026135469 0.11208262 -1.2931001e-20)
(-0.030240058 0.12824027 -2.3859195e-19)
(-0.034720721 0.1453554 1.9163812e-19)
(-0.039600221 0.16333567 -6.6447929e-21)
(-0.044900385 0.18203961 -1.3002343e-19)
(-0.050641843 0.20126786 -1.1279761e-20)
(-0.056843909 0.22075567 2.895731e-20)
(-0.06352473 0.24016798 1.3190835e-19)
(-0.070701794 0.25909964 -2.4462835e-19)
(-0.078392905 0.27708344 4.3603136e-19)
(-0.086617833 0.29360943 -9.548837e-20)
(-0.095400207 0.30815791 7.1246598e-20)
(-0.10476992 0.32024727 -5.9604225e-20)
(-0.11476512 0.32949317 2.5282477e-21)
(-0.12543286 0.33566995 -3.6538092e-19)
(-0.13682772 0.33875783 -3.7029865e-19)
(-0.1490088 0.33895547 7.4448221e-19)
(-0.16202536 0.33664245 1.2575526e-19)
(-0.17590003 0.33227746 -4.4367096e-19)
(-0.19065999 0.32624549 -1.5955805e-19)
(-0.20629617 0.31885344 -3.6561615e-19)
(-0.22274005 0.31033529 4.1687732e-19)
(-0.23989921 0.30080726 1.8437304e-19)
(-0.2576245 0.29027792 -4.3231563e-19)
(-0.27570128 0.27866881 1.8344167e-19)
(-0.29382787 0.2658159 8.845091e-20)
(-0.31158721 0.25145401 -2.6041717e-19)
(-0.32840864 0.23519217 -6.8889293e-19)
(-0.34351727 0.21648812 -2.1164873e-19)
(-0.3558723 0.1946366 1.4178973e-19)
(-0.36410204 0.1687898 3.3942888e-19)
(-0.36646031 0.13804155 3.537153e-19)
(-0.36085181 0.10160945 3.9354473e-19)
(-0.34499101 0.059123135 8.2859165e-19)
(-0.3167269 0.010945236 -2.4160956e-20)
(-0.27445761 -0.041605608 3.5037014e-19)
(-0.21735832 -0.096282304 -1.9218558e-18)
(-0.14518038 -0.15011878 -5.3435026e-19)
(-0.058075978 -0.19942537 -6.1147419e-19)
(0.042156446 -0.23999455 -1.7032916e-18)
(0.15111797 -0.26876476 2.001795e-18)
(0.26328174 -0.28596355 -4.482611e-19)
(0.37472541 -0.29494604 -1.4447999e-18)
(0.48397572 -0.2983934 -1.7746027e-18)
(0.58871837 -0.29427767 -2.2384949e-19)
(0.68244124 -0.27692062 5.6970818e-19)
(0.75752109 -0.24430287 9.1426165e-19)
(0.81140384 -0.20178936 -3.873531e-19)
(0.84732629 -0.15664454 6.8949191e-19)
(0.87111599 -0.11585337 -5.6231403e-19)
(0.88910243 -0.083057331 -1.896551e-19)
(0.90448079 -0.058488141 -5.5536388e-19)
(0.91929549 -0.041053599 2.4104576e-18)
(0.93281206 -0.028722787 8.1104615e-20)
(0.94571603 -0.020627833 9.5172397e-19)
(-0.00088749528 0.0035138001 5.2295035e-20)
(-0.0027411598 0.01084197 1.0625827e-20)
(-0.0047808423 0.0188888 -1.1681724e-20)
(-0.0070243204 0.027717579 -5.7449205e-20)
(-0.0094900805 0.037392457 6.8948605e-20)
(-0.012197471 0.04797757 -5.860019e-20)
(-0.015166375 0.059534913 -2.8035932e-20)
(-0.018416923 0.07212192 1.5059329e-21)
(-0.021969129 0.085788168 2.3740348e-20)
(-0.025842445 0.10057129 1.3527619e-19)
(-0.030055229 0.11649179 -2.2768802e-19)
(-0.034624125 0.13354677 2.7438291e-19)
(-0.039563391 0.15170237 -8.0869053e-20)
(-0.044884185 0.17088495 -1.1023101e-19)
(-0.050593893 0.19097133 1.6995729e-19)
(-0.056695573 0.21177839 -3.3715073e-19)
(-0.063187669 0.23305309 4.1173026e-19)
(-0.070064119 0.25446435 6.5316998e-21)
(-0.077315162 0.27559913 2.4061897e-19)
(-0.084928961 0.29596588 -9.6676709e-19)
(-0.092894304 0.3150092 2.3733914e-19)
(-0.10120431 0.33213964 9.9680102e-19)
(-0.10986093 0.34678103 -4.7890989e-19)
(-0.11887941 0.35843438 -5.8101498e-19)
(-0.12829147 0.36675081 1.4861425e-19)
(-0.13814507 0.37159745 7.9080846e-19)
(-0.14849959 0.37309278 -1.2176514e-18)
(-0.15941537 0.37158839 1.3706932e-18)
(-0.17093194 0.36758287 -1.0940169e-18)
(-0.18305951 0.36157389 2.1214895e-19)
(-0.19579449 0.35394241 -3.6852727e-19)
(-0.20907976 0.3449628 -5.3074663e-19)
(-0.22279708 0.33479878 2.1085014e-19)
(-0.23677931 0.3234895 5.4765706e-20)
(-0.25078602 0.31095973 7.983071e-19)
(-0.26448108 0.29702802 -1.5595949e-19)
(-0.27740641 0.28139477 4.0567219e-19)
(-0.28894184 0.26361531 -3.4810513e-19)
(-0.29825402 0.24307174 2.0603487e-19)
(-0.30423852 0.21896031 1.3666019e-19)
(-0.30546843 0.1903205 1.1859185e-19)
(-0.30018168 0.15614441 1.1745011e-19)
(-0.28636164 0.11560468 -7.2278086e-19)
(-0.26196876 0.0683953 -5.7433341e-19)
(-0.22530838 0.015066703 1.6075628e-19)
(-0.17537933 -0.042832603 -1.0457684e-19)
(-0.1118573 -0.1029402 4.3051235e-19)
(-0.03455501 -0.1622789 -8.6377182e-19)
(0.056333266 -0.21676857 -1.0105164e-18)
(0.15811465 -0.26128777 -2.9552553e-19)
(0.26552978 -0.29203486 -7.7590869e-19)
(0.37302978 -0.30939338 2.4893099e-20)
(0.47771823 -0.31765763 3.7617599e-19)
(0.57888847 -0.32012169 1.8328193e-18)
(0.67328069 -0.31424717 -9.1551757e-19)
(0.75296085 -0.29387388 3.7048376e-19)
(0.81129749 -0.25728307 -1.064428e-18)
(0.84842971 -0.2112783 1.7752483e-18)
(0.87074957 -0.16378496 -1.0054777e-18)
(0.88548319 -0.12178036 3.442483e-19)
(0.89856218 -0.088419104 -2.2989476e-21)
(0.91165654 -0.063438919 2.6426726e-19)
(0.92543486 -0.045526794 9.8302748e-19)
(0.93814668 -0.032605099 -1.8428036e-18)
(0.95025872 -0.023863743 1.8714401e-18)
(-0.00099795595 0.0034844446 -1.1649273e-19)
(-0.0030797339 0.010761308 -6.0735617e-20)
(-0.0053659436 0.018764012 9.5403111e-20)
(-0.0078750425 0.027559666 -2.5128951e-21)
(-0.010626142 0.037217188 -8.6396642e-20)
(-0.01363877 0.047806904 -4.5224522e-20)
(-0.0169325 0.059398613 9.5461387e-20)
(-0.020526561 0.072059492 -1.569902e-20)
(-0.024439282 0.085851138 2.2187066e-19)
(-0.028687435 0.10082583 -4.3361332e-20)
(-0.03328545 0.11702166 -1.1149813e-21)
(-0.038244504 0.13445649 1.6066104e-19)
(-0.043571508 0.15312046 -5.174381e-19)
(-0.049268014 0.17296695 2.4257718e-19)
(-0.055329133 0.19390215 4.3778444e-19)
(-0.061742557 0.2157733 -4.7060779e-19)
(-0.06848787 0.23835647 5.8526031e-20)
(-0.075536372 0.26134506 -3.3643434e-19)
(-0.082851715 0.28434114 -2.5332023e-19)
(-0.090391776 0.30685284 8.0921199e-19)
(-0.0981119 0.32830201 -6.1790752e-19)
(-0.10597011 0.3480472 8.2832862e-19)
(-0.11393354 0.36542626 -9.922911e-20)
(-0.12198582 0.37982031 4.1332935e-19)
(-0.13013343 0.39073453 -9.1619322e-19)
(-0.13840843 0.39788235 2.211581e-19)
(-0.14686483 0.40124855 5.6821332e-19)
(-0.15556652 0.40110127 -1.3957096e-18)
(-0.16456693 0.39793036 6.1546661e-19)
(-0.17388775 0.39231221 6.7172086e-19)
(-0.18350904 0.38475097 -5.6219255e-19)
(-0.19336892 0.37559751 -7.5908507e-20)
(-0.20335125 0.36506649 3.8631231e-19)
(-0.21326262 0.35323328 -2.1593623e-19)
(-0.2228315 0.34003303 3.3529696e-19)
(-0.23168346 0.32527463 -1.1913014e-18)
(-0.23931339 0.30863148 6.3302088e-19)
(-0.24504488 0.28961284 3.854478e-19)
(-0.2479807 0.26753325 8.0027066e-19)
(-0.24695359 0.24150457 1.0929303e-19)
(-0.2404951 0.21047625 -8.7009093e-19)
(-0.22686232 0.17337348 3.5268735e-19)
(-0.20417695 0.12936932 5.2343527e-19)
(-0.17070915 0.078264624 8.0167055e-20)
(-0.12523904 0.020807076 -5.1873352e-19)
(-0.067281573 -0.041284209 -4.5792214e-19)
(0.0031258796 -0.10570489 1.3994801e-18)
(0.086016051 -0.16954537 7.4471736e-19)
(0.18022461 -0.22830152 1.6263327e-18)
(0.28165123 -0.27601381 5.7435272e-19)
(0.38457554 -0.30838802 2.2450403e-19)
(0.4844307 -0.32604684 1.6700932e-18)
(0.58025849 -0.3340598 6.5484839e-19)
(0.67197513 -0.33573124 -2.200963e-18)
(0.75467221 -0.32786123 1.7558742e-18)
(0.81887589 -0.30429122 -1.5978673e-18)
(0.8597503 -0.26433398 7.590572e-19)
(0.88077226 -0.21618692 -3.6064795e-18)
(0.89117805 -0.16786731 -1.7716571e-18)
(0.89886988 -0.12589654 7.0298167e-19)
(0.90843016 -0.092762714 1.0789551e-18)
(0.91973137 -0.067778604 1.7770886e-18)
(0.93232602 -0.049566371 3.0979589e-19)
(0.94383619 -0.036143021 2.3907785e-19)
(0.95482137 -0.026808494 -2.5015003e-18)
(-0.0010726355 0.0033365598 -2.1070827e-21)
(-0.0033091489 0.010315514 1.1355686e-19)
(-0.0057628823 0.018003965 -1.3394121e-19)
(-0.008452849 0.026470956 -6.4498684e-20)
(-0.01139873 0.035788298 1.292899e-19)
(-0.014620331 0.046030751 4.1918744e-20)
(-0.018137185 0.057274344 -2.0355192e-19)
(-0.021968107 0.069594752 2.1938399e-19)
(-0.026130489 0.083064829 4.6366634e-20)
(-0.030639487 0.097751436 1.8487351e-19)
(-0.035507034 0.11371118 -4.9231655e-19)
(-0.04074068 0.13098492 -6.0167123e-21)
(-0.046342267 0.14959078 4.4553065e-19)
(-0.05230647 0.16951542 -4.8069519e-19)
(-0.058619264 0.19070341 3.4623968e-19)
(-0.065256425 0.21304486 1.2933069e-19)
(-0.072182259 0.23636138 -2.7258714e-19)
(-0.079348831 0.26039162 2.4852368e-19)
(-0.08669607 0.28477783 3.3481999e-19)
(-0.094153153 0.30905652 -7.2194606e-21)
(-0.10164197 0.33265734 -5.4320751e-19)
(-0.10908265 0.35491598 3.4137701e-19)
(-0.11640184 0.37510701 -1.9352147e-19)
(-0.12354248 0.39250141 -9.5246143e-19)
(-0.13047396 0.40644859 -3.2411417e-19)
(-0.13719936 0.4164741 8.9581334e-19)
(-0.14375566 0.42237116 -9.1038583e-20)
(-0.15020341 0.42425289 1.0452273e-18)
(-0.1566049 0.42253179 -6.2835234e-19)
(-0.16299512 0.41780639 3.3715654e-19)
(-0.16935954 0.41069097 -4.96158e-19)
(-0.1756279 0.40167404 -1.2286456e-19)
(-0.18166561 0.39105555 6.2697532e-19)
(-0.18725667 0.3789588 -6.5605414e-19)
(-0.19209644 0.36534409 -9.7732987e-19)
(-0.19577094 0.35001927 9.7292674e-20)
(-0.197725 0.33263623 1.0873625e-18)
(-0.19722108 0.3126655 -1.4121546e-18)
(-0.19329457 0.28936814 3.087151e-19)
(-0.18471975 0.26179234 -6.6986288e-19)
(-0.17000576 0.22882804 1.0543011e-19)
(-0.1474682 0.18937335 -1.070315e-18)
(-0.1154182 0.14264288 -5.1757665e-19)
(-0.07246254 0.088567225 -6.5166081e-19)
(-0.01780717 0.028072532 2.648741e-18)
(0.048599633 -0.037025343 8.7363069e-19)
(0.12633605 -0.10452054 -1.1691204e-18)
(0.21469611 -0.17151756 9.5893794e-19)
(0.31076675 -0.23316378 8.0965932e-19)
(0.40924568 -0.28304439 -9.2011698e-19)
(0.5046854 -0.316728 -4.8414791e-19)
(0.59460471 -0.33528919 -1.1377384e-18)
(0.68034042 -0.34390559 -5.4942558e-19)
(0.76167401 -0.34523473 1.870177e-18)
(0.83130197 -0.33535032 1.0428767e-18)
(0.87865633 -0.30881875 1.6718597e-19)
(0.90186743 -0.26640163 -4.899532e-21)
(0.90840312 -0.21721721 8.9128089e-19)
(0.90927992 -0.1694537 -1.264126e-18)
(0.91192859 -0.12853424 -1.6023171e-18)
(0.91893634 -0.096187033 -4.4064588e-19)
(0.92853639 -0.071467283 -3.2934981e-18)
(0.93964464 -0.053091679 -2.5726996e-18)
(0.94962383 -0.039266785 -6.4933974e-19)
(0.95931825 -0.029426429 -3.4305695e-19)
(-0.0011038647 0.0030839282 7.1523314e-20)
(-0.0034057366 0.0095459777 4.7919066e-20)
(-0.005930466 0.016678934 -9.9701376e-20)
(-0.0086973732 0.02455163 1.7097316e-19)
(-0.01172651 0.033236519 4.282492e-20)
(-0.015037926 0.042810496 -1.8366214e-19)
(-0.01865126 0.05335352 9.4000211e-22)
(-0.022585282 0.064947545 -1.1015063e-19)
(-0.026857109 0.077674665 3.2923721e-20)
(-0.031481299 0.091614676 -7.35695e-22)