/*--------------------------------*- C++ -*----------------------------------*\
  =========                 |
  \\      /  F ield         | OpenFOAM: The Open Source CFD Toolbox
   \\    /   O peration     | Website:  https://openfoam.org
    \\  /    A nd           | Version:  13
     \\/     M anipulation  |
\*---------------------------------------------------------------------------*/
FoamFile
{
    format      ascii;
    class       volScalarField;
    location    "34.297901";
    object      omega;
}
// * * * * * * * * * * * * * * * * * * * * * * * * * * * * * * * * * * * * * //

dimensions      [0 0 -1 0 0 0 0];

internalField   nonuniform List<scalar> 
17140
(
4528389.9
731657.66
224626.36
95289.486
48487.722
27617.636
16960.876
10985.513
7400.0309
5136.0879
3649.0904
2641.4275
1941.1693
1444.3942
1085.8908
823.43318
628.94152
483.31303
373.29452
289.5334
225.33107
175.82714
137.45463
107.56948
84.194678
65.840897
51.379504
39.951701
30.903148
23.736525
18.076283
13.640473
10.215
7.627819
5.7261537
4.3647503
3.4088203
2.7439564
2.2822178
1.9610258
1.7378996
1.5846032
1.4824031
1.4199217
1.3891077
1.379662
1.387624
1.4117978
1.4493795
1.4984634
1.5579582
1.6274162
1.70654
1.7938789
1.8870069
1.9858603
2.0947423
2.2215356
2.3784816
2.5952461
2.911977
3.1918798
3.2706844
3.0786153
2.7953231
4528420.9
731663.27
224628.42
95290.549
48488.362
27618.062
16961.18
10985.741
7400.2093
5136.2322
3649.2102
2641.5296
1941.2583
1444.4734
1085.9628
823.49983
629.00439
483.37336
373.35335
289.59159
225.38935
175.88613
137.51485
107.63134
84.258463
65.90673
51.447295
40.021068
30.97332
23.806242
18.143741
13.703411
10.271044
7.6750784
5.7638262
4.3933096
3.4296401
2.7587067
2.2924243
1.9678958
1.7423215
1.5872128
1.4836556
1.4200483
1.3882909
1.37836
1.3858737
1.4096858
1.4469828
1.495839
1.5551537
1.6244901
1.7035862
1.7910463
1.8847099
1.9853984
2.0990348
2.2375149
2.4218719
2.7054807
3.1357629
3.5372828
3.6273736
3.3630765
3.0113003
4528451.2
731668.25
224629.97
95291.208
48488.704
27618.262
16961.309
10985.832
7400.2777
5136.2878
3649.2586
2641.5743
1941.3016
1444.5171
1086.0078
823.54723
629.05478
483.42727
373.41118
289.65367
225.45591
175.95735
137.5908
107.71203
84.343747
65.996316
51.540648
40.117314
31.071117
23.903647
18.238125
13.791569
10.349635
7.7414485
5.8168429
4.4336324
3.4592035
2.7798746
2.307364
1.9783289
1.7495216
1.5920979
1.4868912
1.4220578
1.3894338
1.3791529
1.3865658
1.4105156
1.4482006
1.4977044
1.5579656
1.6286184
1.7094776
1.799159
1.8957806
2.0015731
2.1261121
2.2873457
2.5140273
2.8753333
3.4498569
3.9972511
4.0043692
3.6591332
3.2670477
4528483
731673.42
224631.58
95291.897
48489.06
27618.472
16961.446
10985.928
7400.3518
5136.3492
3649.3131
2641.6257
1941.3524
1444.5689
1086.0621
823.60487
629.11663
483.49395
373.48322
289.73146
225.53979
176.04752
137.68738
107.815
84.452906
66.111246
51.660616
40.241159
31.197092
24.029252
18.360007
13.905635
10.451599
7.8278511
5.8861364
4.486574
3.4982367
2.8080469
2.3275014
1.9926919
1.7597923
1.5994968
1.4923104
1.4261334
1.3927115
1.3821402
1.3897665
1.4143372
1.4530888
1.5041699
1.5666457
1.6403403
1.7252468
1.8199357
1.9229563
2.0390426
2.1820473
2.3744501
2.6491878
3.1102114
3.8636617
4.3934666
4.1600911
3.7890521
3.4977142
4528516.9
731678.92
224633.27
95292.618
48489.431
27618.691
16961.59
10986.032
7400.4326
5136.4173
3649.3748
2641.6847
1941.4115
1444.6301
1086.1267
823.67398
629.19111
483.57454
373.57048
289.82588
225.64173
176.15724
137.805
107.94047
84.586001
66.251446
51.807041
40.392417
31.351102
24.183037
18.509561
14.046037
10.577626
7.935183
5.9726963
4.5530909
3.5475771
2.8439131
2.3533871
2.011423
1.773488
1.6097048
1.5001688
1.4324966
1.3983653
1.3876817
1.3958782
1.4216704
1.4623042
1.5160617
1.5821734
1.6607303
1.7518454
1.8536835
1.9654731
2.0960157
2.2630085
2.4937209
2.8265043
3.4170632
4.317308
4.5273675
4.1247082
3.7683138
3.5727847
4528552.1
731684.6
224635.01
95293.363
48489.818
27618.921
16961.741
10986.142
7400.5194
5136.4916
3649.4429
2641.7509
1941.4785
1444.6999
1086.2008
823.75368
629.27732
483.66805
373.67196
289.93587
225.76064
176.28537
137.94248
108.08727
84.741835
66.415745
51.978807
40.570079
31.5323
24.36439
18.686489
14.212853
10.728192
8.0642588
6.0775373
4.634232
3.6081825
2.8882831
2.385681
2.0350562
1.7910479
1.6230969
1.5108075
1.4414629
1.4066283
1.3959871
1.40519
1.4327872
1.4761356
1.533662
1.6048385
1.6900463
1.7892673
1.8998925
2.0242224
2.175467
2.3737537
2.6466833
3.0454545
3.8024955
4.632732
4.5632328
3.6806851
3.2126823
3.4207074
4528588.7
731690.45
224636.8
95294.132
48490.221
27619.161
16961.9
10986.257
7400.6118
5136.5714
3649.5169
2641.8233
1941.5523
1444.7772
1086.2834
823.84268
629.37384
483.77296
373.78601
290.05967
225.89467
176.42996
138.09783
108.25335
84.918383
66.602149
52.174004
40.772374
31.739133
24.572063
18.889945
14.405729
10.903473
8.2157381
6.2016495
4.7311147
3.6811262
2.9420944
2.4251645
2.0642349
1.8130094
1.6401396
1.5246664
1.453516
1.4178062
1.407478
1.4181593
1.4482717
1.4953293
1.557966
1.635955
1.7299638
1.8394302
1.9622143
2.1058757
2.2867242
2.5241672
2.8371199
3.3178517
4.2580206
4.8189162
4.5187559
3.2649304
2.243128
2.7393884
4528626.6
731696.51
224638.65
95294.93
48490.638
27619.41
16962.066
10986.379
7400.7091
5136.6561
3649.5959
2641.901
1941.6319
1444.8609
1086.3728
823.93934
629.47887
483.88732
373.91051
290.195
226.04139
176.58849
138.2684
108.436
85.112886
66.807913
52.389958
40.996774
31.969308
24.804106
19.118447
14.62377
11.103237
8.3900242
6.3459221
4.8448797
3.7675796
3.0064134
2.4727509
2.0997269
1.8400243
1.6614007
1.5422469
1.469092
1.4325357
1.4227833
1.4355286
1.4690622
1.5211224
1.5906478
1.6778286
1.7835805
1.9065294
2.0482453
2.2206893
2.4428449
2.724006
3.077476
3.6923393
4.7464412
4.9493883
4.465818
2.866749
1.5258144
1.5678301
4528664.7
731702.76
224640.58
95295.757
48491.068
27619.667
16962.237
10986.505
7400.8106
5136.7447
3649.6786
2641.9827
1941.7157
1444.9491
1086.4674
824.04172
629.59024
484.00875
374.0429
290.33911
226.19787
176.75783
138.45093
108.63184
85.321875
67.029542
52.623214
41.23995
32.219727
25.057784
19.369771
14.865413
11.326698
8.5871292
6.5110335
4.9766179
3.8687761
3.0824257
2.5294935
2.1424418
1.8728842
1.6875893
1.5642048
1.4888105
1.4516461
1.4427957
1.4583938
1.4965909
1.5554698
1.6344625
1.7343943
1.8563399
1.9988548
2.1701885
2.3860536
2.662457
2.9891618
3.4076168
4.2607223
5.1993476
5.0382975
4.0812872
2.1752031
1.1729879
0.93170199
4528704.9
731709.27
224642.59
95296.615
48491.514
27619.933
16962.415
10986.636
7400.9156
5136.8362
3649.7641
2642.067
1941.8021
1445.0403
1086.5651
824.14751
629.70545
484.13449
374.18016
290.48875
226.36061
176.93427
138.64151
108.83678
85.541149
67.262763
52.869502
41.497724
32.486421
25.329478
19.64082
15.128274
11.572353
8.8065021
6.6972976
5.127258
3.9859445
3.1714094
2.5965842
2.1934479
1.9125503
1.7196024
1.5914314
1.5136452
1.4761374
1.4687795
1.4883826
1.5330575
1.6014788
1.6939613
1.8123303
1.9575027
2.1307892
2.3485139
2.6286277
2.9724319
3.359821
3.9435719
5.0656393
5.5611302
5.0758392
3.2805293
1.5425873
0.87810617
0.58985229
4528746.8
731716.01
224644.67
95297.506
48491.977
27620.209
16962.599
10986.77
7401.023
5136.9294
3649.8509
2642.1523
1941.8895
1445.1322
1086.6636
824.2542
629.82169
484.26147
374.31893
290.64025
226.52567
177.1136
138.83565
109.04612
85.765813
67.502549
53.123732
41.765041
32.76449
25.614601
19.927511
15.408996
11.837787
9.0468189
6.9044644
5.2974041
4.1202026
3.2746798
2.6753385
2.2539826
1.9601838
1.7585688
1.6250926
1.5448713
1.5074563
1.502581
1.5279478
1.5818855
1.6641586
1.7767571
1.9227931
2.1020001
2.3250644
2.6160982
2.9860453
3.4181923
3.9448279
4.852805
5.9256951
5.7228229
4.7098282
2.2158368
1.027269
0.59872479
0.39264485
4528789.6
731722.96
224646.82
95298.426
48492.457
27620.494
16962.787
10986.907
7401.1317
5137.023
3649.9374
2642.2369
1941.9757
1445.2227
1086.7604
824.35896
629.93584
484.38625
374.45546
290.78954
226.68864
177.29106
139.02831
109.25451
85.990265
67.743093
53.379966
42.035923
33.048042
25.907505
20.224645
15.703076
12.119464
9.3057379
7.1314661
5.4871125
4.2723923
3.3934919
2.7671538
2.3254539
2.017179
1.8059134
1.6667317
1.5842493
1.5476727
1.5469599
1.5808636
1.6485104
1.7517522
1.8957402
2.0833331
2.3145566
2.6194303
3.0218825
3.5210687
4.1301908
4.967039
6.2343017
6.3570853
5.6479485
3.2748388
1.4039716
0.67918867
0.43202538
0.30156194
4528834.7
731730.23
224649.05
95299.38
48492.952
27620.787
16962.98
10987.046
7401.241
5137.116
3650.0223
2642.319
1942.0588
1445.3095
1086.8529
824.45893
630.04469
484.50527
374.58582
290.93232
226.84484
177.4616
139.21403
109.45613
86.208346
67.977941
53.631514
42.303535
33.330213
26.201456
20.52583
16.00473
12.412526
9.5796383
7.3761201
5.6956032
4.4428457
3.5288841
2.8734302
2.4094251
2.0852021
1.8634472
1.718432
1.6343283
1.5997649
1.6061647
1.6530943
1.7418053
1.8781871
2.0719278
2.3185316
2.6368178
3.0754637
3.6551576
4.4083865
5.3847262
6.7008253
6.9935166
6.4297983
4.4280229
1.8243933
0.82777269
0.47126856
0.34803802
0.2586814
4528880.1
731737.65
224651.34
95300.363
48493.462
27621.088
16963.176
10987.186
7401.3492
5137.2066
3650.1038
2642.3968
1942.1367
1445.3901
1086.9385
824.55105
630.14485
484.61477
374.70585
291.06401
226.98926
177.61978
139.38695
109.6447
86.413353
68.200006
53.870957
42.560194
33.603162
26.488604
20.823406
16.306762
12.710591
9.8633461
7.6347925
5.9209037
4.6310687
3.6814459
2.9954369
2.5075748
2.1662365
1.9334935
1.7830237
1.6986105
1.6686433
1.6868287
1.7543954
1.8768061
2.0675372
2.3349507
2.6717254
3.1440179
3.81496
4.7455242
5.9978631
7.4015607
7.6647112
7.1549214
5.3824501
2.2644327
1.0178154
0.55415658
0.3649414
0.28441371
0.2230873
4528926.9
731745.3
224653.71
95301.381
48493.989
27621.397
16963.376
10987.326
7401.4556
5137.2938
3650.1805
2642.4686
1942.2073
1445.4623
1087.0144
824.63236
630.233
484.71105
374.81146
291.18009
227.11694
177.76016
139.54114
109.81377
86.59836
68.401884
54.090443
42.797656
33.858338
26.760209
21.108622
16.600664
13.005743
10.149987
7.9021271
6.1594908
4.8353638
3.8510048
3.1341154
2.6216346
2.262661
2.0191183
1.864569
1.7824434
1.7620568
1.7998928
1.9014621
2.0801772
2.3598626
2.7306698
3.2348455
3.9923266
5.1295604
6.7341743
8.1987588
8.363353
7.818889
6.0251073
2.6559444
1.2131108
0.64300351
0.41787576
0.30969725
0.25044958
0.19329166
4528977.9
731753.5
224656.2
95302.441
48494.532
27621.713
16963.578
10987.466
7401.5595
5137.3766
3650.251
2642.5326
1942.2687
1445.5239
1087.0782
824.70006
630.306
484.79059
374.89872
291.2762
227.22303
177.87741
139.67074
109.95697
86.756428
68.576079
54.281933
43.007369
34.086728
27.006894
21.371882
16.876839
13.288701
10.431053
8.1709472
6.4059958
5.0524328
4.036252
3.2898272
2.7533209
2.3774173
2.1246539
1.9690246
1.8943814
1.8928361
1.964016
2.1247129
2.4016045
2.8153113
3.3618003
4.2052916
5.5395579
7.5511457
9.0034468
9.0512867
8.4238767
6.4291554
2.9489509
1.3831404
0.73208967
0.46100432
0.33628967
0.26580645
0.21801266
0.17390176
4529031.7
731762.01
224658.79
95303.541
48495.095
27622.038
16963.783
10987.604
7401.6595
5137.4534
3650.3138
2642.5872
1942.319
1445.5726
1087.1273
824.75124
630.36055
484.84971
374.9635
291.34775
227.30248
177.96594
139.76961
110.06757
86.880224
68.714636
54.436838
43.180121
34.278526
27.218315
21.602404
17.124246
13.548481
10.69607
8.4317953
6.6527346
5.2769239
4.2343405
3.4620974
2.9043244
2.5143226
2.2563196
2.1058526
2.0492829
2.0820987
2.2145963
2.4820667
2.9303533
3.549116
4.4724271
6.0147494
8.399234
9.7796101
9.7325678
9.0018614
6.72543
3.1681894
1.527215
0.81384218
0.50717104
0.36695451
0.28930379
0.2287724
0.19033301
0.15224061
4529085.9
731770.69
224661.46
95304.675
48495.673
27622.37
16963.989
10987.741
7401.7546
5137.5232
3650.3676
2642.6309
1942.3565
1445.6065
1087.1596
824.78339
630.39382
484.88517
375.00219
291.39067
227.3507
178.02061
139.83204
110.1392
86.962714
68.80982
54.54671
43.30674
34.423848
27.383908
21.789015
17.331215
13.773082
10.933017
8.6734032
6.889963
5.5014172
4.4407514
3.6495812
3.0766147
2.6789868
2.4242216
2.2915701
2.2728215
2.3695566
2.6200096
3.087728
3.8001361
4.8327723
6.5639462
9.293742
10.577217
10.435819
9.5835683
7.0301752
3.3588101
1.6534506
0.89381415
0.55442184
0.39757787
0.30780695
0.24962016
0.20585407
0.17254593
0.14174579
4529139.6
731779.56
224664.2
95305.834
48496.264
27622.706
16964.195
10987.874
7401.844
5137.5848
3650.411
2642.6621
1942.3792
1445.6234
1087.1725
824.79371
630.40262
484.8934
375.01072
291.40039
227.36255
178.03569
139.85162
110.1648
86.996134
68.853188
54.602454
43.377474
34.512207
27.49245
21.919797
17.485224
13.949583
11.128999
8.8833745
7.1065142
5.7169442
4.6497648
3.8506973
3.2735842
2.8809485
2.6461893
2.5564273
2.6107219
2.8357152
3.3168271
4.1248825
5.297231
7.2075962
10.221491
11.425588
11.186739
10.209303
7.3869846
3.5661606
1.7834854
0.97601315
0.60657035
0.43108081
0.32933399
0.26430842
0.21804383
0.18041395
0.1539573
0.12758065
4529196.7
731788.83
224667.04
95307.038
48496.874
27623.051
16964.403
10988.004
7401.9271
5137.6376
3650.4432
2642.6796
1942.3859
1445.6218
1087.1643
824.78021
630.38477
484.87198
374.98643
291.37397
227.33481
178.00756
139.82422
110.13954
86.974718
68.83772
54.595507
43.382237
34.532529
27.53234
21.983027
17.574483
14.065932
11.271751
9.049567
7.2912255
5.9145904
4.8562496
4.0658605
3.5032745
3.1388028
2.956194
2.9578797
3.1551374
3.6453889
4.5466728
5.8829523
7.9692173
11.178212
12.303415
12.009368
10.887872
7.8029231
3.8101954
1.9323313
1.0677092
0.66543167
0.47024318
0.35475618
0.27977501
0.22898895
0.1922872
0.16127065
0.13901035
0.11814171
4529258.1
731798.6
224670.02
95308.29
48497.505
27623.402
16964.611
10988.131
7402.0035
5137.6807
3650.463
2642.6822
1942.3751
1445.6001
1087.1333
824.741
630.33814
484.81857
374.92682
291.30874
227.26466
177.93337
139.74711
110.06095
86.896492
68.762136
54.525331
43.320687
34.483214
27.499379
21.971039
17.588847
14.111819
11.351651
9.1629836
7.4363734
6.0893377
5.060167
4.3031458
3.7862214
3.4921507
3.4239859
3.5981817
4.102806
5.0925385
6.5972248
8.8641568
12.145992
13.217406
12.871001
11.612543
8.2918636
4.1096809
2.1103958
1.1757859
0.73309818
0.5163923
0.38448428
0.29925596
0.24275522
0.202054
0.17270515
0.1483013
0.12965234
0.11198224
4529319.5
731808.53
224673.07
95309.576
48498.151
27623.759
16964.819
10988.253
7402.0721
5137.7132
3650.4696
2642.6691
1942.3459
1445.5573
1087.0783
824.67478
630.26136
484.73171
374.83029
291.20302
227.15033
177.81124
139.61829
109.92693
86.759239
68.624179
54.389825
43.19145
34.364722
27.396701
21.889658
17.534236
14.08945
11.3679
9.2235728
7.543943
6.2474956
5.2757832
4.5903142
4.1721793
4.0262549
4.1768402
4.7057072
5.792739
7.4638862
9.8729626
13.142878
14.175472
13.780637
12.394783
8.8541772
4.4771884
2.3306022
1.3041421
0.81520428
0.56977672
0.41882378
0.32262695
0.25974911
0.21476138
0.18251691
0.15634965
0.13386807
0.11866433
0.10424633
4529381.2
731818.66
224676.19
95310.897
48498.812
27624.123
16965.028
10988.371
7402.1332
5137.7353
3650.4631
2642.6402
1942.2984
1445.4933
1086.9995
824.58182
630.15484
484.61198
374.69767
291.05788
226.99321
177.64291
139.4399
109.74005
86.566028
68.427451
54.193163
42.999281
34.182356
27.230312
21.746183
17.421181
14.014656
11.339219
9.2496616
7.6359909
6.4194434
5.5482659
4.9972366
4.7711991
4.902554
5.466289
6.6609969
8.5041549
10.98776
14.196323
15.191623
14.750194
13.242891
9.4854392
4.9431498
2.6157085
1.4682878
0.91160717
0.62743882
0.4556249
0.35026046
0.27992495
0.22926133
0.19174897
0.16324431
0.14235604
0.12616828
0.11362628
0.10108183
4529447.3
731829.36
224679.47
95312.269
48499.497
27624.497
16965.238
10988.487
7402.1884
5137.7486
3650.4453
2642.5976
1942.2348
1445.4111
1086.8999
824.46582
630.02283
484.46428
374.53459
290.87977
226.80065
177.43674
139.22138
109.51096
86.328786
68.185256
53.950119
42.760521
33.95414
27.020091
21.562619
17.274126
13.915108
11.299375
9.2838469
7.7672716
6.6783524
5.979424
5.6700705
5.7864058
6.3944766
7.7004707
9.7054087
12.236039
15.318495
16.278983
15.789867
14.161934
10.186459
5.4873631
2.9373468
1.6361133
1.0018827
0.68295441
0.49769593
0.38413197
0.30497171
0.24600335
0.20356293
0.17296966
0.15124263
0.13332304
0.11752854
0.10667848
0.096956697
4529517.1
731840.53
224682.88
95313.701
48500.209
27624.884
16965.454
10988.603
7402.2412
5137.7573
3650.4211
2642.5469
1942.1617
1445.318
1086.7882
824.33629
629.87609
484.30073
374.35461
290.68387
226.58954
177.2115
138.9835
109.26257
86.072699
67.925198
53.690864
42.508077
33.715925
26.805107
21.381645
17.140011
13.842848
11.308806
9.4073625
8.0441134
7.1646273
6.7576907
6.8547226
7.5039157
8.9158204
11.057679
13.612643
16.513734
17.448767
16.908351
15.153114
10.95908
6.0938769
3.2890006
1.8190135
1.109554
0.76071859
0.55742922
0.42743163
0.33320206
0.26569575
0.21828445
0.1850658
0.15975834
0.13931346
0.12341082
0.11134099
0.10233976
0.093493915
4529588.1
731851.95
224686.39
95315.182
48500.945
27625.284
16965.678
10988.725
7402.2976
5137.7684
3650.3985
2642.4977
1942.0899
1445.2262
1086.6782
824.20909
629.73246
484.1413
374.18004
290.49497
226.38737
176.99751
138.75967
109.0315
85.837838
67.69099
53.462981
42.293686
33.523997
26.646734
21.27015
17.093573
13.889072
11.486534
9.7637821
8.645441
8.1045992
8.1620084
8.8324973
10.325731
12.571954
15.148203
17.84594
18.715291
18.117092
16.22053
11.798278
6.7641069
3.6828731
2.0316377
1.2405034
0.85142545
0.61864139
0.46560609
0.35967396
0.28715425
0.2366814
0.19859663
0.16934083
0.14653686
0.13028359
0.11761306
0.10686929
0.099103399
0.091810021
4529661.3
731863.83
224690.02
95316.716
48501.711
27625.704
16965.918
10988.86
7402.3667
5137.7928
3650.3903
2642.4642
1942.0359
1445.1545
1086.5909
824.10764
629.61804
484.015
374.04298
290.34848
226.23307
176.83746
138.59651
108.86859
85.679452
67.542481
53.331004
42.186982
33.454249
26.630098
21.330441
17.262699
14.207651
12.008006
10.561972
9.8209982
9.7891642
10.440211
11.961125
14.290098
16.89433
19.378634
20.096463
19.42619
17.36868
12.696346
7.4987807
4.1231767
2.2743979
1.3867162
0.94826074
0.68270175
0.51117487
0.39728783
0.31952093
0.26081342
0.2153525
0.18066641
0.15601383
0.13766616
0.12348122
0.11119975
0.10189568
0.095395589
0.089299774
4529737.4
731876.13
224693.81
95318.31
48502.513
27626.15
16966.18
10989.018
7402.4591
5137.8425
3650.4102
2642.4623
1942.0174
1445.1231
1086.5491
824.05751
629.56136
483.95346
373.97838
290.28282
226.16872
176.77728
138.54406
108.8284
85.657403
67.546423
53.371684
42.27839
33.614839
26.884406
21.710817
17.812761
14.985409
13.091337
12.052717
11.850939
12.423243
13.890226
16.220771
18.940646
21.173025
21.628558
20.83717
18.598824
13.651999
8.2988957
4.6145172
2.5474553
1.5497643
1.0554276
0.75881171
0.56869223
0.44238382
0.35187384
0.28276323
0.23069107
0.19369466
0.1666284
0.1461237
0.1294083
0.11639495
0.10663628
0.099417724
0.093610166
0.088058033
4529816
731888.84
224697.73
95319.971
48503.357
27626.63
16966.473
10989.206
7402.5848
5137.9289
3650.4714
2642.5071
1942.0518
1445.1513
1086.5745
824.08308
629.58969
483.98722
374.02042
290.33639
226.23761
176.8661
138.65845
108.97544
85.846005
67.787937
53.680693
42.67431
34.123803
27.541593
22.562335
18.919176
16.4263
14.968158
14.487456
14.899925
16.207836
18.444036
21.169272
23.258719
23.331849
22.377372
19.846607
14.675751
9.1656628
5.1562896
2.8504122
1.7298352
1.1762314
0.84612732
0.63452551
0.48941001
0.38515938
0.30881019
0.25401758
0.21314058
0.18152989
0.15604261
0.13697288
0.12249887
0.11209484
0.10317192
0.095960951
0.090764422
0.08646003
4529897.8
731902.1
224701.79
95321.704
48504.245
27627.144
16966.799
10989.428
7402.7473
5138.0565
3650.579
2642.6046
1942.146
1445.2477
1086.6772
824.19613
629.7169
484.13258
374.18831
290.53173
226.4662
177.13481
138.97569
109.35156
86.294077
68.324714
54.328149
43.461074
35.086954
28.72892
24.035489
20.756224
18.723097
17.834463
17.999347
19.02504
21.044516
23.615471
25.495396
25.25684
24.053166
21.112413
15.767015
10.085871
5.7404438
3.1815329
1.930643
1.31291
0.94614385
0.70786378
0.54318135
0.42516342
0.3426145
0.28156149
0.23314127
0.19448835
0.16587478
0.14475611
0.12969021
0.11722632
0.10713525
0.099407152
0.093787249
0.089546133
0.085692159
4529983.7
731915.9
224706.02
95323.512
48505.178
27627.692
16967.155
10989.68
7402.9418
5138.2197
3650.7271
2642.7483
1942.2934
1445.405
1086.8501
824.38987
629.93686
484.38454
374.47871
290.868
226.85706
177.59072
139.50935
109.97871
87.034625
69.203567
55.376545
44.718491
36.603044
30.56554
26.268222
23.473359
22.019344
21.794309
22.477515
24.121375
26.325981
27.911768
27.376713
25.880188
22.455482
16.931471
11.049111
6.3637116
3.5477202
2.1588337
1.4687607
1.058013
0.790068
0.60431427
0.47297403
0.37950751
0.30978471
0.25394022
0.21174226
0.1807796
0.15749845
0.13870985
0.12385966
0.11213239
0.10401617
0.097119603
0.092047882
0.088000359
0.084614057
4530071.7
731930.1
224710.41
95325.387
48506.152
27628.27
16967.537
10989.959
7403.1652
5138.4152
3650.9121
2642.9348
1942.4906
1445.6205
1087.091
824.66317
630.24999
484.74568
374.89716
291.3546
227.42466
178.25476
140.28872
110.89637
88.118602
70.488463
56.904773
46.541741
38.783444
33.175213
29.385541
27.172694
26.351565
26.647606
27.763948
29.436487
30.449595
29.705839
27.809058
23.883478
18.137004
12.023648
7.0150529
3.9511104
2.4170125
1.6417419
1.181134
0.88158244
0.67537045
0.52796598
0.42171228
0.34115169
0.28071892
0.23446994
0.19855773
0.16944405
0.14700599
0.12994501
0.1179841
0.10836092
0.100729
0.09454319
0.090021794
0.086594672
0.083957491
4530163.2
731944.94
224714.97
95327.34
48507.174
27628.885
16967.955
10990.275
7403.4289
5138.6562
3651.1493
2643.1818
1942.7579
1445.9176
1087.4268
825.0469
630.6916
485.25635
375.48978
292.04428
228.22934
179.19595
141.39221
112.19342
89.646768
72.292716
59.038136
49.06527
41.763698
36.677327
33.458647
31.82416
31.512485
31.971093
33.137863
33.132417
32.12826
29.811282
25.403489
19.371718
12.991702
7.7047287
4.4092475
2.7145498
1.8365931
1.3185411
0.98689752
0.75743377
0.5914593
0.46925698
0.3783776
0.31077423
0.2595011
0.21656954
0.18317429
0.15847399
0.14026538
0.1259372
0.11437895
0.10489396
0.09807167
0.092811404
0.088958445
0.085883337
0.083335581
4530257.7
731960.23
224719.68
95329.38
48508.258
27629.555
16968.426
10990.648
7403.7564
5138.9699
3651.4701
2643.525
1943.1361
1446.3423
1087.9093
825.59903
631.32649
485.98881
376.33699
293.0264
229.37031
180.52429
142.94197
114.00503
91.767752
74.776231
61.932554
52.429688
45.647835
41.104475
38.397605
37.144828
36.947658
36.95394
36.196677
34.524157
31.693722
26.853741
20.539422
13.928367
8.4341559
4.9272545
3.0506343
2.0497488
1.46943
1.104551
0.85017283
0.6624003
0.52434669
0.42159
0.34572442
0.28635514
0.23915636
0.20173391
0.17380231
0.15134456
0.13349329
0.11945266
0.1096415
0.10176616
0.096154561
0.091154954
0.087403618
0.084775253
0.082679338
4530355.2
731976.03
224724.58
95331.52
48509.418
27630.295
16968.969
10991.1
7404.1742
5139.3871
3651.9098
2644.0048
1943.671
1446.9462
1088.5964
826.38445
632.22707
487.02377
377.52868
294.40117
230.9594
182.36501
145.07858
116.48609
94.640354
78.074024
65.690194
56.680045
50.387475
46.266927
43.828738
42.511349
41.361634
39.535727
37.126458
33.66289
28.365994
21.755408
14.95266
9.2848081
5.5427802
3.4388714
2.2900008
1.6411011
1.2402776
0.95647648
0.74524301
0.58894424
0.47305553
0.38524618
0.31763732
0.26473905
0.22403721
0.18974979
0.16305375
0.14270439
0.12783911
0.11641025
0.10730628
0.099615279
0.09391326
0.089632055
0.086714809
0.084295987
0.08231429
4530457.6
731992.57
224729.71
95333.781
48510.667
27631.117
16969.599
10991.648
7404.7007
5139.9291
3652.4929
2644.649
1944.394
1447.7649
1089.5283
827.44836
633.44404
488.41795
379.12814
296.23836
233.07129
184.79221
147.86265
119.6697
98.264359
82.173497
70.266784
61.66668
55.679291
51.63058
48.750812
46.11808
43.233652
40.076872
35.829698
29.986426
23.049903
16.060428
10.210074
6.2021021
3.8465527
2.5466883
1.8310471
1.391102
1.0748147
0.83838559
0.66332568
0.53112697
0.43092999
0.35346336
0.29483193
0.24804046
0.20964477
0.17841186
0.15590293
0.13795532
0.12341076
0.11195058
0.10357376
0.097011747
0.09258607
0.088619168
0.085673683
0.083447361
0.081727275
4530563.2
732009.72
224735.07
95336.163
48512.007
27632.028
16970.325
10992.304
7405.3505
5140.6125
3653.238
2645.4785
1945.3281
1448.8235
1090.7316
828.81843
635.00487
490.19602
381.15225
298.53968
235.68258
187.74617
151.18944
123.39062
102.3854
86.680744
75.083514
66.621428
60.42202
55.614352
51.446536
47.496374
43.395641
38.22969
31.771032
24.487221
17.298394
11.246889
6.9586969
4.3394843
2.8740357
2.0690098
1.5697764
1.2117841
0.94768525
0.75076557
0.60028999
0.48483122
0.39706605
0.32912834
0.27583047
0.23225461
0.19828119
0.1700353
0.14837368
0.13125621
0.11878484
0.10932802
0.10191964
0.095691264
0.091014888
0.087396884
0.084897028
0.083081909
0.081476297
4530672.5
732027.46
224740.62
95338.66
48513.439
27633.027
16971.145
10993.066
7406.1208
5141.4334
3654.14
2646.4864
1946.4642
1450.1093
1092.1891
830.47054
636.87591
492.31158
383.53864
301.22227
238.68283
191.07685
154.84718
127.34507
106.5646
90.952819
79.27781
70.434614
63.469327
57.648532
52.404292
47.094503
40.921215
33.800695
26.138616
18.717011
12.426395
7.8330466
4.918896
3.2482302
2.3205371
1.7506481
1.3554759
1.0684351
0.84987703
0.67902291
0.54764936
0.44661815
0.36887816
0.30701302
0.25907195
0.22014575
0.18796138
0.16142269
0.14281032
0.12786405
0.11573121
0.10626052
0.099067415
0.093583503
0.089894094
0.086730291
0.084376447
0.082583626
0.08100865
4530784.7
732045.79
224746.38
95341.27
48514.957
27634.105
16972.045
10993.914
7406.987
5142.362
3655.163
2647.6301
1947.752
1451.5637
1093.8326
832.32578
638.96571
494.65785
386.16035
304.13244
241.88379
194.5532
158.55634
131.20559
110.44316
94.65158
82.521549
72.967904
65.080612
58.166668
51.371863
44.081468
36.21978
28.108242
20.387063
13.801266
8.8636042
5.614873
3.6958066
2.6188782
1.9721114
1.5381386
1.2202348
0.97076342
0.77405163
0.62292486
0.50663582
0.41588772
0.34544794
0.28975164
0.24567382
0.208497
0.17927111
0.15536375
0.1373958
0.12275891
0.11209991
0.10412844
0.097838106
0.092684664
0.08886794
0.085684249
0.083648913
0.082096036
0.080793466
4530901
732061.36
224749.48
95341.772
48514.918
27634.015
16972.052
10994.07
7407.3139
5142.8711
3655.8637
2648.5317
1948.865
1452.8997
1095.4045
834.14637
641.04639
497.00635
388.77754
307.00738
244.98737
197.83029
161.91708
134.5176
113.52761
97.288155
84.465338
74.011452
64.980826
56.428104
47.862062
39.143945
30.483166
22.377315
15.430168
10.097758
6.4640304
4.2415397
2.9748647
2.2270646
1.7376426
1.378843
1.0972096
0.87781101
0.7084112
0.57548373
0.4711514
0.38928275
0.32554213
0.27379334
0.2330341
0.19937021
0.17172611
0.14879873
0.13305058
0.12017371
0.10981853
0.1017986
0.09564902
0.091018959
0.087814192
0.085246932
0.08333796
0.081824117
0.080542772
4531685.4
732195.45
224794.62
95363.169
48527.07
27641.809
16977.526
10998.209
7410.6468
5145.7098
3658.4043
2650.9053
1951.1639
1455.1914
1097.7394
836.56149
643.56672
499.64382
391.52837
309.84775
247.86779
200.66962
164.59777
136.88493
115.39587
98.468423
84.735384
73.002145
62.372908
52.294996
42.532227
33.171363
24.568311
17.197992
11.443251
7.4069663
4.8540979
3.372676
2.5073141
1.9557129
1.5585839
1.2500881
1.0076091
0.81435226
0.65898868
0.53686038
0.44181443
0.36687878
0.30795936
0.26051427
0.2228416
0.19032539
0.16476486
0.14411139
0.12887275
0.11614694
0.10693771
0.10016561
0.094697169
0.090299363
0.087208045
0.084489561
0.082718469
0.081338626
0.080316176
4531684.6
732191.76
224791.66
95360.999
48525.6
27640.845
16976.939
10997.922
7410.615
5145.9053
3658.8114
2651.5156
1951.9733
1456.1978
1098.9397
837.94962
645.12964
501.35764
393.35331
311.72269
249.70494
202.35073
165.97473
137.79185
115.6242
97.722406
82.723355
69.617226
57.717255
46.660627
36.400214
27.14914
19.255608
13.021767
8.5406016
5.6091085
3.8649332
2.8443006
2.209053
1.7639908
1.4213612
1.1474485
0.92547155
0.7482617
0.60981274
0.5011866
0.41504168
0.34633017
0.29234962
0.24781857
0.21248541
0.18285686
0.15877632
0.13869693
0.12522647
0.11395977
0.1049849
0.098171662
0.092868191
0.088956716
0.086203908
0.083905473
0.082451826
0.081141283
0.080186883
4531684.8
732191.88
224791.78
95361.167
48525.819
27641.119
16977.274
10998.324
7411.0911
5146.462
3659.4551
2652.2518
1952.8059
1457.1275
1099.9626
839.05446
646.29486
502.54773
394.51499
312.78165
250.56516
202.88833
166.02825
137.13917
114.04527
95.076807
78.979436
64.869519
52.212566
40.797098
30.67629
22.060882
15.170711
10.083844
6.6357195
4.5131033
3.2616445
2.5060705
1.9999046
1.6188638
1.3134745
1.0650778
0.86575871
0.70640318
0.5778019
0.47527471
0.39444134
0.33018576
0.27943388
0.23790575
0.20500004
0.1761131
0.15350035
0.13523711
0.12208801
0.11094835
0.10286241
0.097036443
0.09213241
0.088448685
0.0858084
0.083518784
0.082069049
0.080808554
0.079990037
4531684.9
732191.97
224791.85
95361.25
48525.926
27641.256
16977.443
10998.531
7411.3379
5146.7529
3659.7928
2652.6375
1953.2382
1457.6008
1100.4654
839.56694
646.78598
502.97164
394.80691
312.85261
250.29358
202.12704
164.62271
134.96379
111.01354
91.169132
74.274373
59.566206
46.629132
35.333027
25.738448
17.972138
12.096275
7.9844263
5.362792
3.7988865
2.8765711
2.2861237
1.8550954
1.5116318
1.2304349
1.000743
0.81368649
0.66297533
0.54383586
0.45009558
0.37547922
0.31543151
0.2681016
0.22859068
0.19734522
0.17069268
0.14918872
0.13119558
0.11936868
0.10931201
0.10127422
0.095409917
0.09090193
0.087415941
0.085069064
0.08299515
0.081738448
0.080604817
0.079885066
4531686.1
732192.08
224791.86
95361.247
48525.922
27641.254
16977.446
10998.538
7411.3523
5146.7748
3659.8214
2652.67
1953.2679
1457.6162
1100.4476
839.48673
646.60136
502.62487
394.22284
311.93971
248.95104
200.25125
162.1191
131.766
107.10754
86.617578
69.23386
54.287565
41.432731
30.558161
21.67632
14.802975
9.8461863
6.5622134
4.5479266
3.3605063
2.6308726
2.1270211
1.7383227
1.4218283
1.1608789
0.9466951
0.77350152
0.6344556
0.52212799
0.43216062
0.36072044