/*--------------------------------*- C++ -*----------------------------------*\
  =========                 |
  \\      /  F ield         | OpenFOAM: The Open Source CFD Toolbox
   \\    /   O peration     | Website:  https://openfoam.org
    \\  /    A nd           | Version:  13
     \\/     M anipulation  |
\*---------------------------------------------------------------------------*/
FoamFile
{
    format      ascii;
    class       volVectorField;
    location    "12.901683";
    object      wallShearStress;
}
// * * * * * * * * * * * * * * * * * * * * * * * * * * * * * * * * * * * * * //

dimensions      [0 2 -2 0 0 0 0];

internalField   uniform (0 0 0);

boundaryField
{
    inlet
    {
        type            calculated;
        value           uniform (0 0 0);
    }
    outlet
    {
        type            calculated;
        value           uniform (0 0 0);
    }
    cylinder
    {
        type            calculated;
        value           nonuniform List<vector> 
132
(
(6.0660268e-05 8.8544828e-05 -8.5265448e-23)
(0.000276374 -0.0052423359 2.4460443e-23)
(0.00078369293 -0.010492054 1.4161762e-21)
(0.0015684285 -0.015486906 -5.1051079e-21)
(0.0025967999 -0.020050523 3.9496546e-21)
(0.0038155706 -0.024014984 1.3376101e-20)
(0.0051523111 -0.027227799 -2.8183187e-21)
(0.00651986 -0.029561346 -1.2375169e-20)
(0.0078217334 -0.030922356 1.2826658e-20)
(0.0089558737 -0.031260557 -3.1273782e-20)
(0.0098238052 -0.030576452 -6.1047458e-22)
(0.010339703 -0.028925783 2.207456e-20)
(0.010440438 -0.026421871 3.7562374e-20)
(0.010097484 -0.023238516 -3.1390609e-20)
(0.0093236427 -0.019597353 3.3563526e-20)
(0.0081792659 -0.015756211 5.4219531e-20)
(0.0067664851 -0.011978313 -3.5317142e-20)
(0.0052150197 -0.0085033577 5.5911891e-20)
(0.0036655857 -0.0055159732 7.2631694e-20)
(0.0022456917 -0.0031256702 -4.6196477e-20)
(0.0010426813 -0.0013488546 -5.774706e-20)
(0.00010692193 -0.00014283669 1.9938827e-23)
(-0.00057982404 0.00061741795 8.1037889e-21)
(-0.0010512277 0.0010435289 -9.5750169e-21)
(-0.001374911 0.0012610994 -1.6107142e-20)
(-0.0014908275 0.001259922 3.4071325e-21)
(-0.001327201 0.0010330321 -3.0419676e-20)
(-0.00059208177 0.00043037931 8.0328189e-21)
(0.00065995481 -0.00040912623 6.2659433e-21)
(0.0020169102 -0.0011571792 -4.3068735e-20)
(0.0030969281 -0.0016030791 5.6361438e-20)
(0.0036580384 -0.0016869502 1.711086e-21)
(0.0038924819 -0.001577106 1.2352534e-20)
(0.0040217581 -0.0014071125 -1.4624431e-20)
(0.0041601983 -0.0012292284 4.6394869e-20)
(0.0041861691 -0.0010129142 -2.9309306e-21)
(0.0039017211 -0.00073820452 1.1823374e-20)
(0.0030907451 -0.00042451995 -1.6261904e-21)
(0.0015301345 -0.00013739446 2.3429506e-21)
(-0.00101715 8.1009348e-06 -1.4719662e-21)
(-0.0049571952 -0.00016871025 2.7796316e-21)
(-0.010420428 -0.00097841194 -8.7148791e-23)
(-0.017045179 -0.0026322945 3.2553281e-20)
(-0.024441322 -0.0052893872 -1.2792137e-20)
(-0.032038391 -0.0089768166 1.1763438e-20)
(-0.039325209 -0.013617056 -7.6880271e-20)
(-0.045792153 -0.019015727 -1.2580881e-20)
(-0.051071373 -0.024911771 1.1169203e-19)
(-0.054913914 -0.031010909 -9.5942332e-20)
(-0.05722257 -0.037029545 -1.8359975e-21)
(-0.057966414 -0.04267695 2.9155497e-20)
(-0.057256916 -0.047733464 -2.6179075e-20)
(-0.055185284 -0.051954004 -4.9530823e-21)
(-0.051939545 -0.055172026 -2.8552292e-21)
(-0.047759732 -0.05729191 -2.3866643e-21)
(-0.042829458 -0.058178983 -5.7081083e-21)
(-0.037396405 -0.057798272 7.3935589e-22)
(-0.031689014 -0.056128275 5.4544948e-20)
(-0.025935938 -0.053190787 -8.0246855e-20)
(-0.020354559 -0.049040856 -8.3964559e-20)
(-0.015147039 -0.043765694 -3.3692541e-20)
(-0.010495977 -0.037482032 -7.6686604e-20)
(-0.0065604003 -0.030332526 1.7030536e-20)
(-0.0034704796 -0.022482212 2.4705812e-20)
(-0.0013315015 -0.01412672 -3.8327676e-20)
(-0.00020142274 -0.0054288735 -5.115401e-21)
(0.00013446493 0.0053872877 -4.0093055e-22)
(0.00049396545 0.010590127 -2.5193874e-23)
(0.0011317746 0.01557904 -1.5621667e-21)
(0.0020229443 0.020185173 5.7656444e-21)
(0.0031238607 0.024244497 -4.5226958e-21)
(0.0043730062 0.027606251 -1.5391667e-20)
(0.0056912579 0.030140325 3.2370455e-21)
(0.0069909213 0.031745288 1.4121219e-20)
(0.0081756823 0.032358941 -1.4499686e-20)
(0.0091489467 0.031964212 3.4970269e-20)
(0.0098217835 0.030594394 6.7499851e-22)
(0.010122421 0.028337964 -2.4127168e-20)
(0.01000589 0.025338832 -4.0616253e-20)
(0.0094646967 0.021796108 3.3612713e-20)
(0.0085326805 0.017946232 -3.563691e-20)
(0.0072884707 0.014048054 -5.7172233e-20)
(0.0058434521 0.010350837 3.7049722e-20)
(0.0043286409 0.0070635314 -5.8458293e-20)
(0.0028741225 0.0043300904 -7.581082e-20)
(0.0015858462 0.0022132544 4.8202715e-20)
(0.00053158288 0.00069833284 6.0293956e-20)
(-0.00026541417 -0.00029735352 5.3096161e-20)
(-0.00083536882 -0.00089626291 4.3000518e-20)
(-0.0012228342 -0.0012163832 1.0032453e-20)
(-0.0014613793 -0.0013421441 1.6887215e-20)
(-0.0014611607 -0.0012369666 -3.5727355e-21)
(-0.0011153622 -0.00087169443 3.1919389e-20)
(-0.00016387625 -0.00012973133 -8.4458901e-21)
(0.0011820413 0.00074428645 -6.6064683e-21)
(0.0024504815 0.0014102337 4.5525666e-20)
(0.0033257966 0.001723951 -5.9630307e-20)
(0.0037253627 0.0017190971 -1.7993888e-21)
(0.0038975804 0.0015793896 2.9711364e-20)
(0.0040326259 0.0014109223 1.5464883e-20)
(0.004154281 0.001227826 -4.9102836e-20)
(0.0040970416 0.00099218109 3.1054477e-21)
(0.0036635555 0.00069460408 9.1462075e-21)
(0.0026369378 0.00036495778 1.726718e-21)
(0.00079659205 7.9864569e-05 -2.489386e-21)
(-0.0021090651 -3.4091277e-05 1.5638424e-21)
(-0.0064592483 0.00021953024 -2.9500897e-21)
(-0.012314978 0.0011525843 2.4316121e-20)
(-0.019258154 0.0029706851 -3.4292491e-20)
(-0.026844192 0.0058060888 1.3396628e-20)
(-0.034481335 0.0096581351 -1.2237666e-20)
(-0.041701855 0.014437491 7.9411432e-20)
(-0.04797308 0.019918847 1.2891969e-20)
(-0.052980999 0.02583994 -1.1355881e-19)
(-0.056514378 0.0319115 9.6689433e-20)
(-0.05849099 0.037847308 1.8327427e-21)
(-0.058905555 0.043365451 -2.8757874e-20)
(-0.057893912 0.048261718 2.5416455e-20)
(-0.055534709 0.052280073 -3.7683894e-20)
(-0.052039197 0.055275166 2.5217957e-21)
(-0.047662149 0.057171974 -1.2985247e-21)
(-0.042559241 0.057808839 7.1004176e-21)
(-0.037002181 0.057185642 -8.179809e-22)
(-0.031209103 0.055274441 -5.8228648e-20)
(-0.025409416 0.052106475 8.413345e-20)
(-0.019817791 0.047742027 8.702748e-20)
(-0.014632823 0.042272586 3.4633152e-20)
(-0.01003354 0.03582021 7.8314304e-20)
(-0.0061741443 0.028530174 -1.7297111e-20)
(-0.0031799821 0.020572293 4.9526137e-20)
(-0.0011507522 0.012136888 3.8568837e-20)
(-0.00014212054 0.0034178759 5.1290152e-21)
)
;
    }
    frontAndBack
    {
        type            empty;
    }
}


// ************************************************************************* //
