/*--------------------------------*- C++ -*----------------------------------*\
  =========                 |
  \\      /  F ield         | OpenFOAM: The Open Source CFD Toolbox
   \\    /   O peration     | Website:  https://openfoam.org
    \\  /    A nd           | Version:  13
     \\/     M anipulation  |
\*---------------------------------------------------------------------------*/
FoamFile
{
    format      ascii;
    class       volScalarField;
    location    "42.202133";
    object      yPlus;
}
// * * * * * * * * * * * * * * * * * * * * * * * * * * * * * * * * * * * * * //

dimensions      [];

internalField   uniform 0;

boundaryField
{
    inlet
    {
        type            calculated;
        value           uniform 0;
    }
    outlet
    {
        type            calculated;
        value           uniform 0;
    }
    cylinder
    {
        type            calculated;
        value           nonuniform List<scalar> 
132
(
1.2210554e-07
1.2244297e-07
1.2235613e-07
1.2180723e-07
1.2075302e-07
1.1916714e-07
1.1704996e-07
1.1440117e-07
1.1122826e-07
1.075494e-07
1.0339507e-07
9.8808569e-08
9.3846089e-08
8.8576296e-08
8.3079056e-08
7.7443266e-08
7.176388e-08
6.6136878e-08
6.0652712e-08
5.5389067e-08
5.0397488e-08
4.5692339e-08
4.1238449e-08
3.6949466e-08
3.2702193e-08
2.8371107e-08
2.3886315e-08
1.9289326e-08
1.475888e-08
1.0586516e-08
7.1004269e-09
4.5892029e-09
3.2611706e-09
3.0928136e-09
3.5819162e-09
4.3807427e-09
5.4024231e-09
6.6552827e-09
8.1656177e-09
9.9667522e-09
1.2121404e-08
1.4708825e-08
1.7502308e-08
2.0463684e-08
2.352048e-08
2.6605431e-08
2.9659852e-08
3.2640363e-08
3.5512521e-08
3.8254466e-08
4.0848496e-08
4.3289234e-08
4.5564874e-08
4.767012e-08
4.9632811e-08
5.1413773e-08
5.3036804e-08
5.4497488e-08
5.580256e-08
5.694231e-08
5.7914166e-08
5.8728096e-08
5.938639e-08
5.9885371e-08
6.0228394e-08
6.0410728e-08
1.2131726e-07
1.2007648e-07
1.1841366e-07
1.1631746e-07
1.137929e-07
1.1085266e-07
1.0751634e-07
1.0381029e-07
9.9767616e-08
9.5427801e-08
9.0836489e-08
8.6044625e-08
8.1107667e-08
7.608581e-08
7.1042865e-08
6.6045006e-08
6.1158256e-08
5.6445934e-08
5.1964508e-08
4.7756678e-08
4.3841084e-08
4.0197875e-08
3.6754681e-08
3.3382201e-08
2.9912942e-08
2.6192337e-08
2.2152313e-08
1.7872764e-08
1.3592575e-08
9.6578642e-09
6.4233245e-09
4.1834396e-09
3.1355283e-09
3.1589161e-09
3.7322594e-09
4.584195e-09
5.6602838e-09
6.9748161e-09
8.5549165e-09
1.0432292e-08
1.2666863e-08
1.5333393e-08
1.8192378e-08
2.1204272e-08
2.4294618e-08
2.7395966e-08
3.0452583e-08
3.3423293e-08
3.6276066e-08
3.8991695e-08
4.1553233e-08
4.3960361e-08
4.6197274e-08
4.8256631e-08
5.0184876e-08
5.1916135e-08
5.349901e-08
5.4911596e-08
5.617105e-08
5.7258165e-08
5.8184024e-08
5.8950046e-08
5.9559083e-08
6.0008412e-08
6.0299433e-08
6.0432496e-08
)
;
    }
    frontAndBack
    {
        type            empty;
    }
}


// ************************************************************************* //
