/*--------------------------------*- C++ -*----------------------------------*\
  =========                 |
  \\      /  F ield         | OpenFOAM: The Open Source CFD Toolbox
   \\    /   O peration     | Website:  https://openfoam.org
    \\  /    A nd           | Version:  13
     \\/     M anipulation  |
\*---------------------------------------------------------------------------*/
FoamFile
{
    format      ascii;
    class       surfaceScalarField;
    location    "39.40226";
    object      phi;
}
// * * * * * * * * * * * * * * * * * * * * * * * * * * * * * * * * * * * * * //

dimensions      [0 3 -1 0 0 0 0];

internalField   nonuniform List<scalar> 
34068
(
-1.0051881e-08
5.3823592e-08
-4.3771711e-08
-4.4748901e-08
1.8670925e-07
-1.5201223e-07
-1.1234266e-07
3.647217e-07
-2.9712794e-07
-2.2325428e-07
5.9911673e-07
-4.8820511e-07
-3.9059643e-07
9.0355533e-07
-7.3621319e-07
-6.308095e-07
1.2945705e-06
-1.0543574e-06
-9.6441424e-07
1.7921052e-06
-1.4585005e-06
-1.4169264e-06
2.4201415e-06
-1.9676294e-06
-2.01997e-06
3.2074337e-06
-2.60439e-06
-2.8126032e-06
4.1883638e-06
-3.3957306e-06
-3.8428956e-06
5.4039329e-06
-4.3736405e-06
-5.1697934e-06
6.9029184e-06
-5.5760207e-06
-6.8653052e-06
8.7432142e-06
-7.0477025e-06
-9.0170374e-06
1.099339e-05
-8.8416576e-06
-1.1731113e-05
1.3734494e-05
-1.1020418e-05
-1.5135465e-05
1.7062134e-05
-1.3657782e-05
-1.9383515e-05
2.1088864e-05
-1.6840815e-05
-2.4658164e-05
2.5946874e-05
-2.0672224e-05
-3.1176026e-05
3.1790955e-05
-2.5273093e-05
-3.9191705e-05
3.8801665e-05
-3.0785986e-05
-4.9001877e-05
4.7188447e-05
-3.7378276e-05
-6.0948782e-05
5.7192359e-05
-4.5245454e-05
-7.5422543e-05
6.9087703e-05
-5.4613942e-05
-9.2861593e-05
8.3181635e-05
-6.5742585e-05
-0.00011375017
9.9810264e-05
-7.8921691e-05
-0.00013861158
0.00011932956
-9.4468139e-05
-0.00016799583
0.00014209921
-0.00011271496
-0.00020245984
0.00016845856
-0.00013399456
-0.00024253942
0.00019869623
-0.00015861665
-0.0002887137
0.00023302126
-0.00018684698
-0.00034136735
0.00027155387
-0.00021890023
-0.00040076372
0.00031436573
-0.00025496935
-0.0004670501
0.00036159809
-0.00029531172
-0.0005403123
0.00041364592
-0.00034038371
-0.00062067012
0.00047132474
-0.00039096692
-0.000708372
0.00053592555
-0.00044822367
-0.00080384924
0.00060917341
-0.00051369617
-0.00090772832
0.00069321209
-0.00058933301
-0.0010208292
0.00079071137
-0.00067761054
-0.0011441765
0.00090511882
-0.00078177146
-0.0012790394
0.0010410547
-0.00090619179
-0.0014270077
0.0012048682
-0.0010568999
-0.001590112
0.0014054001
-0.0012422958
-0.0017710014
0.0016550206
-0.0014741312
-0.001973144
0.0019708077
-0.0017686651
-0.0022010013
0.0023757195
-0.0021478622
-0.0024602911
0.0029006602
-0.0026413704
-0.0027582502
0.0035869206
-0.0032889615
-0.0031038181
0.0044880809
-0.004142513
-0.0035079087
0.0056721776
-0.005268087
-0.0039840032
0.0072221018
-0.0067460073
-0.0045494752
0.0092297533
-0.0086642812
-0.0052270845
0.011771043
-0.011093434
-0.0060469949
0.014848587
-0.014028677
-0.0070457468
0.018269002
-0.01727025
-0.0082658424
0.021405121
-0.020185025
-0.0097541239
0.022913978
-0.021425696
-0.011408429
0.019597459
-0.017943154
-0.012433711
0.0054739066
-0.0044486244
-0.010562374
-0.028275527
0.026404189
-0.0048038354
-0.078734968
0.07297643
0.0018088771
-0.12273438
0.11612166
0.0074928077
-0.14234168
0.13665775
0.018177563
-0.11330938
0.10262462
-0.010418135
0.039742709
-0.011147011
-9.7252415e-09
6.3548833e-08
-4.3293178e-08
2.2027718e-07
-1.0868835e-07
4.3011688e-07
-2.1600238e-07
7.0643076e-07
-3.7793389e-07
1.0654868e-06
-6.1039932e-07
1.5270359e-06
-9.3327414e-07
2.11498e-06
-1.3712892e-06
2.8581566e-06
-1.9551119e-06
3.7912564e-06
-2.7226396e-06
4.9558915e-06
-3.7205444e-06
6.4018377e-06
-5.0060951e-06
8.1884691e-06
-6.6493073e-06
1.0386426e-05
-8.7354337e-06
1.3079516e-05
-1.136784e-05
1.63669e-05
-1.4671273e-05
2.0365567e-05
-1.87955e-05
2.5213091e-05
-2.3919297e-05
3.107067e-05
-3.0254695e-05
3.8126353e-05
-3.8051311e-05
4.6598281e-05
-4.760053e-05
5.6737666e-05
-5.9239138e-05
6.8830968e-05
-7.3351907e-05
8.3200472e-05
-9.0372317e-05
0.00010020204
-0.00011078045
0.0001202184
-0.00013509677
0.00014364587
-0.00016387012
0.00017087257
-0.00019765845
0.00020224689
-0.00023700073
0.00023803852
-0.00028238078
0.00027840131
-0.00033418738
0.00032336047
-0.0003926833
0.00037286165
-0.00045800401
0.0004269188
-0.00053020562
0.00048584753
-0.00060935697
0.0005504761
-0.00069563609
0.00062220466
-0.0007893873
0.00070292463
-0.00089113251
0.00079495729
-0.0010015618
0.00090114068
-0.0011215317
0.0010250887
-0.001252086
0.001171609
-0.0013945073
0.0013472895
-0.0015504035
0.0015612963
-0.0017218391
0.0018264562
-0.0019114804
0.0021604489
-0.0021227048
0.0025869439
-0.0023597711
0.0031377265
-0.0026279663
0.0038551159
-0.0029336651
0.0047937797
-0.0032845067
0.0060230191
-0.0036900398
0.0076276349
-0.0041633866
0.0097031001
-0.004723335
0.012330992
-0.0053973284
0.015522581
-0.0062205162
0.01909219
-0.0072389655
0.02242357
-0.0085152935
0.024190306
-0.0099590728
0.021041238
-0.010574427
0.0060892611
-0.0077160324
-0.031133922
-0.00092198394
-0.085529017
0.0053833397
-0.1290397
0.0092359427
-0.14619428
0.015963867
-0.1200373
-0.028933072
0.034478805
-9.2488125e-09
7.2797645e-08
-4.1173931e-08
2.522023e-07
-1.0337318e-07
4.9231613e-07
-2.0545314e-07
8.0851072e-07
-3.5950752e-07
1.2195412e-06
-5.8070243e-07
1.7482308e-06
-8.8798524e-07
2.4222628e-06
-1.3049488e-06
3.2751201e-06
-1.8608662e-06
4.3471738e-06
-2.5919418e-06
5.686967e-06
-3.5427966e-06
7.3526926e-06
-4.768239e-06
9.4139115e-06
-6.3353405e-06
1.1953528e-05
-8.3258704e-06
1.5070046e-05
-1.0839096e-05
1.8880126e-05
-1.3994987e-05
2.3521458e-05
-1.7937808e-05
2.9155912e-05
-2.2840074e-05
3.5972936e-05
-2.8906786e-05
4.4193066e-05
-3.6379821e-05
5.4071316e-05
-4.5542209e-05
6.5900054e-05
-5.672198e-05
8.0010739e-05
-7.0295041e-05
9.6773534e-05
-8.6686331e-05
0.00011659333
-0.00010636831
0.00013990038
-0.00012985543
0.00016713299
-0.00015769297
0.00019871011
-0.00019043849
0.00023499241
-0.00022863433
0.00027623435
-0.00027277094
0.00032253793
-0.00032324505
0.00037383458
-0.00038032345
0.00042994004
-0.0004441331
0.00049072845
-0.0005146991
0.00055641353
-0.00059203102
0.00062780802
-0.00067622095
0.00070639459
-0.00076750545
0.00079420913
-0.00086627674
0.00089372858
-0.00097306541
0.0010079294
-0.001088523
0.0011405462
-0.0012134208
0.0012965068
-0.001348672
0.0014825406
-0.0014953763
0.0017080006
-0.0016548957
0.0019859756
-0.0018289299
0.0023344831
-0.0020195433
0.0027775573
-0.0022292016
0.0033473848
-0.0024607493
0.0040866635
-0.0027172495
0.0050502799
-0.0030019146
0.0063076842
-0.0033185778
0.0079442981
-0.003673318
0.01005784
-0.004076386
0.01273406
-0.0045450356
0.01599123
-0.0051010728
0.019648227
-0.0057766955
0.023099193
-0.0066115872
0.025025198
-0.0074756423
0.021905293
-0.0070989157
0.0057125345
-0.00242572
-0.035807117
0.0059871341
-0.093941871
0.011954319
-0.13500689
0.013897765
-0.14813773
0.017197773
-0.12333731
-0.043621982
0.031886683
-8.6233934e-09
8.1421039e-08
-3.8394431e-08
2.8197334e-07
-9.6405126e-08
5.5032682e-07
-1.9162709e-07
9.0373268e-07
-3.3536154e-07
1.3632757e-06
-5.4178868e-07
1.9546579e-06
-8.2864025e-07
2.7091144e-06
-1.2180097e-06
3.6644896e-06
-1.7373391e-06
4.8665032e-06
-2.4205986e-06
6.3702266e-06
-3.3097066e-06
8.2418006e-06
-4.4562126e-06
1.0560417e-05
-5.9232923e-06
1.3420608e-05
-7.7880802e-06
1.6934834e-05
-1.014438e-05
2.1236426e-05
-1.3105772e-05
2.648285e-05
-1.6809125e-05
3.2859265e-05
-2.1418494e-05
4.0582305e-05
-2.7129335e-05
4.9903907e-05
-3.4172911e-05
6.1114892e-05
-4.2820712e-05
7.4547855e-05
-5.3388521e-05
9.0578548e-05
-6.6239641e-05
0.00010962465
-8.1786633e-05
0.00013214033
-0.00010049052
0.00015860427
-0.00012285624
0.00018949871
-0.00014942262
0.00022527649
-0.00018074505
0.00026631485
-0.00021736889
0.00031285818
-0.00025979295
0.00036496199
-0.00030842555
0.00042246718
-0.00036354248
0.00048505697
-0.00042526635
0.00055245233
-0.00049359132
0.00062473849
-0.00056846054
0.00070267724
-0.00064986523
0.00078779928
-0.00073791297
0.00088225687
-0.0008328407
0.00098865631
-0.00093498927
0.0011100779
-0.0010447686
0.0012503256
-0.0011626311
0.0014143693
-0.001289058
0.0016089676
-0.0014245573
0.0018434999
-0.001569671
0.0021310894
-0.0017249689
0.002489781
-0.0018909756
0.0029435639
-0.0020680313
0.0035244405
-0.0022560378
0.00427467
-0.0024539919
0.0052482341
-0.0026595261
0.0065132184
-0.002869043
0.008153815
-0.0030788258
0.010267623
-0.0032853593
0.012940593
-0.0034857917
0.016191662
-0.0036731127
0.019835548
-0.003839582
0.023265662
-0.0039508461
0.025136462
-0.003774576
0.021729023
-0.0015658282
0.0035037867
0.0056456916
-0.043018637
0.015844273
-0.10414045
0.021544851
-0.14070746
0.021440896
-0.14803377
0.021620634
-0.12351705
-0.054183713
0.032182365
-7.855368e-09
8.9276407e-08
-3.4979334e-08
3.090973e-07
-8.7841373e-08
6.0318886e-07
-1.7463154e-07
9.9052285e-07
-3.0567451e-07
1.4943186e-06
-4.9393842e-07
2.1429219e-06
-7.5565276e-07
2.9708287e-06
-1.1110655e-06
4.0199024e-06
-1.5853527e-06
5.3407904e-06
-2.2097271e-06
6.994601e-06
-3.0227577e-06
9.0548311e-06
-4.0719589e-06
1.1609619e-05
-5.4156617e-06
1.476431e-05
-7.1252352e-06
1.8644407e-05
-9.2876639e-06
2.3398854e-05
-1.2008536e-05
2.9203722e-05
-1.5415431e-05
3.6266161e-05
-1.9661732e-05
4.4828606e-05
-2.4930785e-05
5.517296e-05
-3.1440338e-05
6.7624445e-05
-3.944705e-05
8.2554567e-05
-4.9250812e-05
0.00010038231
-6.1198397e-05
0.00012157224
-7.5685846e-05
0.00014662778
-9.3158581e-05
0.000176077
-0.00011410805
0.00021044818
-0.00013906321
0.00025023165
-0.00016857481
0.00029582644
-0.0002031903
0.00034747368
-0.0002434179
0.0004051896
-0.0002896809
0.00046873017
-0.0003422693
0.00053764537
-0.00040130659
0.00061148961
-0.00046675774
0.00069018965
-0.00053849415
0.00077441365
-0.00061639216
0.00086569729
-0.00070040926
0.00096627397
-0.00079060112
0.0010788482
-0.00088708867
0.0012065655
-0.00099000419
0.0013532411
-0.0010994357
0.0015238008
-0.0012153736
0.0017249055
-0.0013376537
0.00196578
-0.0014658868
0.0022593225
-0.0015993538
0.0026232479
-0.0017368165
0.0030810266
-0.0018761752
0.0036637993
-0.002013918
0.0044124129
-0.0021442734
0.0053785895
-0.0022582996
0.0066272445
-0.0023437198
0.0082392353
-0.0023857922
0.010309695
-0.0023618283
0.012916629
-0.0022344628
0.016064297
-0.0019421257
0.019543211
-0.0014072726
0.022730809
-0.00048173719
0.024210926
0.0012236502
0.020023636
0.0061438575
-0.0014164205
0.015895906
-0.052770686
0.027318384
-0.11556293
0.033244524
-0.1466336
0.031877579
-0.14666683
0.029184078
-0.12082355
-0.060889596
0.035889962
-6.95302e-09
9.6229427e-08
-3.0966264e-08
3.3311055e-07
-7.777708e-08
6.4999968e-07
-1.5465564e-07
1.0674014e-06
-2.707782e-07
1.6104412e-06
-4.3768353e-07
2.3098272e-06
-6.6983434e-07
3.2029795e-06
-9.8529785e-07
4.3353659e-06
-1.4065812e-06
5.7620737e-06
-1.9616355e-06
7.5496553e-06
-2.6850714e-06
9.7782671e-06
-3.6196181e-06
1.2544165e-05
-4.817867e-06
1.5962559e-05
-6.3443312e-06
2.0170872e-05
-8.2778717e-06
2.5332395e-05
-1.071452e-05
3.164037e-05
-1.3770724e-05
3.9322365e-05
-1.7587023e-05
4.8644905e-05
-2.2332127e-05
5.9918064e-05
-2.8207343e-05
7.3499661e-05
-3.545117e-05
8.9798395e-05
-4.434388e-05
0.00010927502
-5.5211625e-05
0.00013243998
-6.8429515e-05
0.00015984567
-8.4422823e-05
0.00019207031
-0.00010366502
0.00022969037
-0.00012667108
0.00027323771
-0.00015398385
0.00032313921
-0.000186151
0.00037964083
-0.00022369036
0.00044272895
-0.00026704283
0.00051208264
-0.00031651778
0.00058712032
-0.00037224586
0.00066721769
-0.00043416685
0.00075211063
-0.00050207751
0.00084232432
-0.00057572702
0.00093934681
-0.00065490218
0.0010454491
-0.00073945142
0.0011633974
-0.00082924582
0.0012963599
-0.00092410515
0.0014481004
-0.0010237101
0.0016234057
-0.0011275048
0.0018287002
-0.0012345787
0.0020728538
-0.0013435105
0.0023682543
-0.001452149
0.0027318865
-0.0015572836
0.0031861612
-0.0016540852
0.0037606008
-0.001735222
0.0044935497
-0.0017895518
0.0054329193
-0.0018009493
0.0066386421
-0.001748285
0.0081865709
-0.0016026874
0.010164098
-0.0013121928
0.012626135
-0.00079420556
0.01554631
8.4758212e-05
0.018664247
0.0015071364
0.021308431
0.0037541653
0.021963897
0.0075687922
0.016209009
0.015421282
-0.0092689102
0.027248417
-0.064597821
0.038945132
-0.12725964
0.045378932
-0.1530674
0.044248661
-0.14553655
0.039658599
-0.11623349
-0.06450513
0.043274133
-5.9298713e-09
1.021593e-07
-2.6415673e-08
3.5359635e-07
-6.6363386e-08
6.8994739e-07
-1.3199893e-07
1.133037e-06
-2.311929e-07
1.7096352e-06
-3.7386112e-07
2.4524954e-06
-5.7245482e-07
3.4015732e-06
-8.4256339e-07
4.6054745e-06
-1.2036506e-06
6.1231609e-06
-1.6799509e-06
8.0259556e-06
-2.3015565e-06
1.0399873e-05
-3.1057351e-06
1.3348344e-05
-4.1384987e-06
1.6995323e-05
-5.4564992e-06
2.1488872e-05
-7.1292571e-06
2.7005153e-05
-9.2417895e-06
3.3752902e-05
-1.1897667e-05
4.1978243e-05
-1.522252e-05
5.1969757e-05
-1.9367979e-05
6.4063523e-05
-2.4516054e-05
7.8647737e-05
-3.0883815e-05
9.6166156e-05
-3.872815e-05
0.00011711935
-4.8350373e-05
0.00014206221
-6.0100075e-05
0.00017159537
-7.4377427e-05
0.00020634766
-9.1632897e-05
0.00024694584
-0.00011236259
0.00029396741
-0.0001370972
0.00034787381
-0.00016638153
0.00040892517
-0.00020074185
0.00047708927
-0.00024063829
0.00055197909
-0.00028640433
0.00063288636
-0.00033818484
0.0007189982
-0.00039590077
0.00080982656
-0.00045927477
0.00090569831
-0.0005279192
0.0010079912
-0.00060143091
0.0011189608
-0.00067942544
0.0012413919
-0.00076149483
0.0013784293
-0.00084711314
0.0015337187
-0.00093551433
0.0017118069
-0.0010255461
0.001918732
-0.0011154855
0.0021627932
-0.0012027896
0.0024555585
-0.0012837516
0.0028128485
-0.0013530135
0.0032554231
-0.0014027685
0.0038103558
-0.001421527
0.0045123082
-0.0013923399
0.0054037322
-0.0012914745
0.0065377767
-0.0010885674
0.0079836639
-0.00073169079
0.0098072212
-0.00012906432
0.012023508
0.00085530461
0.014561941
0.0024290589
0.017090493
0.0048823316
0.018855158
0.0086338719
0.018212357
0.014819967
0.010022914
0.025586422
-0.020035365
0.039109219
-0.078120619
0.050206764
-0.13835719
0.056330307
-0.15919095
0.056385189
-0.14559144
0.052278233
-0.11212653
-0.066343525
0.054116629
-4.8050578e-09
1.0696436e-07
-2.1411772e-08
3.7020307e-07
-5.3811152e-08
7.2234677e-07
-1.0707876e-07
1.1863046e-06
-1.8764744e-07
1.7902038e-06
-3.0364248e-07
2.5684904e-06
-4.6529666e-07
3.5632274e-06
-6.8546427e-07
4.8256421e-06
-9.8024758e-07
6.4179442e-06
-1.3697715e-06
8.4154796e-06
-1.8791271e-06
1.0909228e-05
-2.5395174e-06
1.4008734e-05
-3.389657e-06
1.7845462e-05
-4.4774435e-06
2.2576659e-05
-5.8619806e-06
2.838969e-05
-7.6159625e-06
3.5506884e-05
-9.8284975e-06
4.4190778e-05
-1.26084e-05
5.4749659e-05
-1.608797e-05
6.7543092e-05
-2.0427236e-05
8.2987003e-05
-2.5818651e-05
0.00010155757
-3.2492062e-05
0.00012379276
-4.0719734e-05
0.00015028988
-5.0820941e-05
0.00018169658
-6.3165554e-05
0.00021869227
-7.8175399e-05
0.00026195569
-9.6322023e-05
0.00031211403
-0.00011811849
0.00036967027
-0.00014410225
0.00043490892
-0.00017480511
0.00050779213
-0.00021070638
0.00058788035
-0.00025216728
0.00067434727
-0.00029935442
0.00076618534
-0.00035217888
0.00086265102
-0.00041029357
0.00096381301
-0.00047316827
0.0010708659
-0.00054019275
0.0011859853
-0.00061072515
0.0013119243
-0.00068405012
0.0014517542
-0.00075926526
0.0016089339
-0.0008351225
0.0017876642
-0.00090983012
0.0019934396
-0.00098079737
0.0022337604
-0.0010442849
0.0025190459
-0.0010949263
0.0028634899
-0.0011250756
0.0032855724
-0.0011237568
0.0038090371
-0.001075036
0.0044635873
-0.00095602615
0.0052847224
-0.00073532104
0.0063170716
-0.00036866783
0.0076170107
0.00022796367
0.0092105897
0.0011883774
0.011063095
0.0027172562
0.013033062
0.0051023626
0.014705386
0.0086677481
0.015289773
0.013981576
0.012898529
0.022647005
0.0013574855
0.036200584
-0.033588944
0.051057024
-0.092977059
0.06077157
-0.14807174
0.065368188
-0.16378756
0.066456112
-0.14667936
0.065484547
-0.11115497
-0.068687398
0.06782842
-3.602411e-09
1.1056677e-07
-1.6060424e-08
3.8266108e-07
-4.0384666e-08
7.4667101e-07
-8.0418672e-08
1.2263386e-06
-1.4105313e-07
1.8508383e-06
-2.2849307e-07
2.6559304e-06
-3.5059256e-07
3.6853269e-06
-5.1726625e-07
4.9923158e-06
-7.4100566e-07
6.6416836e-06
-1.0375137e-06
8.7119876e-06
-1.4264914e-06
1.1298206e-05
-1.9326057e-06
1.4514848e-05
-2.58668e-06
1.8499537e-05
-3.4271339e-06
2.3417112e-05
-4.5017533e-06
2.9464309e-05
-5.869812e-06
3.6874943e-05
-7.6046214e-06
4.5925587e-05
-9.7965347e-06
5.6941573e-05
-1.2556507e-05
7.0303065e-05
-1.6020173e-05
8.6450669e-05
-2.0352455e-05
0.00010588985
-2.5752681e-05
0.00012919299
-3.2459943e-05
0.00015699714
-4.0758446e-05
0.00018999508
-5.0982249e-05
0.00022891608
-6.3518477e-05
0.00027449192
-7.880755e-05
0.00032740311
-9.7338218e-05
0.00038820094
-0.00011963424
0.00045720495
-0.00014622805
0.00053438594
-0.00017761569
0.000619268
-0.00021418799
0.00071091956
-0.00025614054
0.0008081379
-0.00030338555
0.00090989603
-0.000355515
0.0010159425
-0.00041185509
0.001127206
-0.00047157504
0.0012457053
-0.00053375285
0.0013741022
-0.00059733905
0.0015153404
-0.00066102647
0.0016726213
-0.00072305462
0.0018496923
-0.00078095696
0.0020513419
-0.00083123068
0.0022840342
-0.00086888156
0.0025566968
-0.00088680391
0.0028814123
-0.00087495022
0.0032737187
-0.00081901646
0.0037531033
-0.00069840399
0.0043429749
-0.00048413863
0.005070457
-0.0001364057
0.0059693387
0.00041050172
0.0070701032
0.0012759229
0.0083451685
0.0026435101
0.0096955075
0.0047950312
0.010881541
0.0080616438
0.011438774
0.0127328
0.010618617
0.019633257
0.0059980709
0.030971385
-0.0099806422
0.047160514
-0.049778073
0.062504937
-0.10832148
0.070047846
-0.15561464
0.07240438
-0.1661441
0.073771932
-0.14804691
0.077085189
-0.11446822
-0.074824071
0.083221862
-2.3522119e-09
1.1291898e-07
-1.0496172e-08
3.9080504e-07
-2.6420968e-08
7.6259581e-07
-5.2685508e-08
1.2526031e-06
-9.2573142e-08
1.8907259e-06
-1.50286e-07
2.7136432e-06
-2.3119288e-07
3.7662338e-06
-3.4213786e-07
5.1032607e-06
-4.9183485e-07
6.7913806e-06
-6.9135468e-07
8.9115074e-06
-9.5474991e-07
1.1561601e-05
-1.2998188e-06
1.4859917e-05
-1.7490738e-06
1.8948792e-05
-2.3309383e-06
2.3998977e-05
-3.0812265e-06
3.0214597e-05
-4.0449668e-06
3.7838683e-05
-5.2786197e-06
4.715924e-05
-6.8527913e-06
5.8515744e-05
-8.8554541e-06
7.2305728e-05
-1.1395796e-05
8.899101e-05
-1.4608693e-05
0.00010910275
-1.8659805e-05
0.0001332441
-2.3751227e-05
0.00016208856
-3.012744e-05
0.00019637129
-3.8081196e-05
0.00023686983
-4.7958444e-05
0.00028436916
-6.0161151e-05
0.00033960581
-7.514578e-05
0.00040318557
-9.3414194e-05
0.00047547336
-0.00011549189
0.00055646364
-0.00014188627
0.00064566237
-0.00017301657
0.00074204986
-0.00020911337
0.0008442347
-0.00025010279
0.00095088545
-0.00029552894
0.0010613686
-0.00034457868
0.0011762558
-0.00039619269
0.0012973193
-0.00044914932
0.0014270588
-0.00050204003
0.0015682311
-0.00055312708
0.0017237083
-0.00060011164
0.0018966769
-0.00063982407
0.0020910544
-0.0006678155
0.0023120256
-0.00067779299
0.0025666743
-0.00066085037
0.0028644696
-0.00060444654
0.0032173149
-0.00049079679
0.0036394535
-0.00029444769
0.0041466258
2.0318821e-05
0.0047556905
0.00050372478
0.0054859327
0.0012500179
0.0063238101
0.0024172945
0.0071778919
0.0042501369
0.0078626651
0.007082068
0.0080496097
0.011204988
0.0073158543
0.016972416
0.0048511892
0.025753682
-0.0027831959
0.040060754
-0.024287714
0.058391148
-0.068108467
0.072613833
-0.12254417
0.077328883
-0.16032969
0.077533868
-0.16634908
0.078798597
-0.14931164
0.085308457
-0.12097808
-0.086712128
0.097196514
-1.0875984e-09
1.1400658e-07
-4.866043e-09
3.9458348e-07
-1.2289121e-08
7.7001888e-07
-2.4612753e-08
1.2649267e-06
-4.3488975e-08
1.9096022e-06
-7.1086671e-08
2.7412409e-06
-1.1024868e-07
3.8053958e-06
-1.6469781e-07
5.1577099e-06
-2.3930064e-07
6.8659834e-06
-3.40411e-07
9.0126178e-06
-4.763095e-07
1.16975e-05
-6.5777601e-07
1.5041384e-05
-8.9880914e-07
1.9189825e-05
-1.2175645e-06
2.4317732e-05
-1.6375186e-06
3.0634552e-05
-2.188964e-06
3.8390128e-05
-2.9108816e-06
4.7881158e-05
-3.8532531e-06
5.9458116e-05
-5.0799355e-06
7.353241e-05
-6.6721627e-06
9.0583237e-05
-8.7327756e-06
0.00011116336
-1.1391179e-05
0.00013590251
-1.4809128e-05
0.00016550651
-1.9187144e-05
0.00020074931
-2.4771298e-05
0.00024245399
-3.1859812e-05
0.00029145768
-4.0808301e-05
0.0003485543
-5.2031787e-05
0.00041440906
-6.6000105e-05
0.00048944168
-8.3221402e-05
0.00057368494
-0.00010420532
0.00066664629
-0.00012939428
0.00076723882
-0.00015905789
0.00087389831
-0.00019314794
0.00098497549
-0.0002311764
0.0010993971
-0.00027220083
0.0012172802
-0.00031493355
0.001340052
-0.00035783961
0.0014699648
-0.00039912831
0.0016095199
-0.00043660755
0.0017611876
-0.0004674173
0.0019274866
-0.00048766166
0.0021112987
-0.00049191767
0.0023162816
-0.00047255653
0.0025473132
-0.00041881688
0.00281073
-0.000315565
0.003114063
-0.00014135531
0.0034652439
0.00013429994
0.0038709705
0.0005546757
0.0043353147
0.0011857781
0.0048548303
0.0021569203
0.0053526679
0.0036723558
0.0056624563
0.006026673
0.005508348
0.0095254145
0.0045508682
0.014454779
0.0023864899
0.021562589
-0.002256621
0.032934934
-0.014155541
0.050445677
-0.041798457
0.069352649
-0.087015438
0.080493223
-0.13368474
0.082257249
-0.16209372
0.081173727
-0.16526556
0.082762176
-0.15090009
0.090442924
-0.12865883
-0.10240621
0.10613701
1.5168153e-10
1.138549e-07
6.527275e-10
3.9408244e-07
1.5670307e-09
7.6910458e-07
2.9188995e-09
1.2635749e-06
4.6623154e-09
1.9078587e-06
6.6298417e-09
2.7392734e-06
8.466535e-09
3.8035591e-06
9.5296913e-09
5.1566467e-06
8.7509318e-09
6.8667622e-06
4.4453619e-09
9.0169234e-06
-5.955068e-09
1.17079e-05
-2.6255214e-08
1.5061684e-05
-6.1984639e-08
1.9225554e-05
-1.2104425e-07
2.4376792e-05
-2.1456213e-07
3.0728069e-05
-3.5802535e-07
3.8533591e-05
-5.7274571e-07
4.8095878e-05
-8.8776579e-07
5.9773136e-05
-1.3422975e-06
7.3986942e-05
-1.9887896e-06
9.1229729e-05
-2.8967786e-06
0.00011207135
-4.1576133e-06
0.00013716334
-5.8901216e-06
0.00016723902
-8.2472821e-06
0.00020310647
-1.1423714e-05
0.00024563042
-1.566362e-05
0.00029569758
-2.1268301e-05
0.00035415898
-2.8601484e-05
0.00042174224
-3.8089359e-05
0.00049892956
-5.0209717e-05
0.00058580529
-6.5461064e-05
0.00068189763
-8.4296526e-05
0.00078607428
-0.00010701857
0.00089662035
-0.00013362661
0.0010115835
-0.00016360168
0.0011293721
-0.00019589592
0.0012495744
-0.00022900912
0.0013731652
-0.0002610862
0.0015020419
-0.00028993116
0.0016383648
-0.00031287334
0.0017841298
-0.0003264695
0.0019410828
-0.00032607489
0.0021109041
-0.00030526247
0.0022954692
-0.00025502016
0.0024970709
-0.00016264826
0.0027183581
-1.0238501e-05
0.0029616532
0.00022759916
0.0032274062
0.00058700649
0.0035115632
0.0011207807
0.0038015405
0.001920578
0.0040550331
0.0031559074
0.0041173385
0.005074631
0.0037437327
0.0079632549
0.0026197241
0.012098344
0.00041577933
0.0180344
-0.0035495668
0.027266067
-0.011488288
0.042115936
-0.029005409
0.061932896
-0.061615418
0.078683574
-0.10376612
0.085550558
-0.14055173
0.085169639
-0.1617128
0.083897432
-0.16399335
0.086368567
-0.15337123
0.09467364
-0.1369639
-0.11851278
0.1107802
1.3250106e-09
1.1252989e-07
5.8797436e-09
3.895277e-07
1.4694051e-08
7.6029028e-07
2.9010102e-08
1.2492588e-06
5.0306722e-08
1.8865621e-06
8.0323542e-08
2.7092566e-06
1.2107503e-07
3.7628076e-06
1.7485608e-07
5.1028657e-06
2.4422562e-07
6.7973927e-06
3.3196155e-07
8.9291874e-06
4.4097572e-07
1.1598886e-05
5.7415594e-07
1.4928504e-05
7.3413238e-07
1.9065578e-05
9.2290963e-07
2.4188015e-05
1.1413372e-06
3.0509642e-05
1.3883562e-06
3.8286572e-05
1.6599487e-06
4.7824286e-05
1.9476884e-06
5.9485396e-05
2.2368203e-06
7.369781e-05
2.5036805e-06
9.0962869e-05
2.7123559e-06
0.00011186268
2.8103871e-06
0.00013706531
2.7233641e-06
0.00016732604
2.3483376e-06
0.0002034815
1.5459181e-06
0.00024643284
1.3140282e-07
0.0002971121
-2.1345551e-06
0.00035642494
-5.5543e-06
0.00042516199
-1.0497633e-05
0.00050387289
-1.7397038e-05
0.0005927047
-2.6723868e-05
0.00069122446
-3.8931617e-05
0.00079828203
-5.4327479e-05
0.00091201621
-7.2981492e-05
0.0010302376
-9.4287432e-05
0.0011506781
-0.00011718828
0.0012724753
-0.00014000795
0.0013959849
-0.00016055225
0.0015225862
-0.00017619512
0.0016540077
-0.00018376245
0.0017916971
-0.00017920269
0.001936523
-0.00015709234
0.0020887938
-0.0001099527
0.0022483295
-2.7300358e-05
0.0024144185
0.0001056694
0.0025853883
0.00030997756
0.0027573451
0.00061566393
0.0029217198
0.0010663419
0.0030608852
0.0017285148
0.0031393676
0.0027331618
0.0030503861
0.0042886358
0.0025618645
0.0066466648
0.0013857037
0.010080345
-0.00081395562
0.015085313
-0.0045891892
0.022877876
-0.01134213
0.035429771
-0.024040183
0.053567349
-0.047142987
0.072747647
-0.080795716
0.084557765
-0.11557623
0.087674704
-0.14366866
0.086670156
-0.16070825
0.086211841
-0.16353504
0.089730879
-0.15689026
0.098676651
-0.14590968
-0.1341178
0.11428167
2.3868501e-09
1.1014304e-07
1.0612479e-08
3.8130208e-07
2.6584764e-08
7.4431799e-07
5.2652668e-08
1.2231909e-06
9.16847e-08
1.8475301e-06
1.4715534e-07
2.653786e-06
2.2324259e-07
3.6867204e-06
3.2492331e-07
5.0011849e-06
4.5807763e-07
6.6642384e-06
6.2957924e-07
8.7576858e-06
8.4737323e-07
1.1381092e-05
1.1205225e-06
1.4655354e-05
1.4592039e-06
1.8726897e-05
1.8746214e-06
2.3772597e-05
2.3788014e-06
3.0005462e-05
2.9842137e-06
3.768116e-05
3.7031639e-06
4.7105335e-05
4.546835e-06
5.8641725e-05
5.5239055e-06
7.2720739e-05
6.6385738e-06
8.9848201e-05
7.8878241e-06
0.00011061343
9.2577377e-06
0.0001356954
1.0718626e-05
0.00016586515
1.2218744e-05
0.00020198138
1.3676516e-05
0.00024497507
1.4971131e-05
0.00029581748
1.5932008e-05
0.00035546407
1.6328105e-05
0.00042476589
1.5859514e-05
0.00050434148
1.4156651e-05
0.00059440756
1.079815e-05
0.00069458297
5.3537229e-06
0.00080372646
-2.5061854e-06
0.00091987612
-1.2709608e-05
0.001040441
-2.4848658e-05
0.0011628171
-3.791379e-05
0.0012855404
-4.9939152e-05
0.0014080102
-5.8368724e-05
0.0015310158
-6.0164169e-05
0.0016558031
-5.1626073e-05
0.001783159
-2.8062132e-05
0.0019129591
1.6780789e-05
0.0020439509
9.1527082e-05
0.0021735832
0.00020831758
0.002297628
0.0003844295
0.0024092764
0.00064464116
0.0024971334
0.0010249479
0.0025414131
0.0015801816
0.0025056514
0.0024021215
0.0023174277
0.0036686838
0.0017838238
0.0056027424
0.00062780592
0.0084658564
-0.0014774104
0.012757358
-0.0051054573
0.019567786
-0.011399617
0.030531289
-0.022305634
0.04654807
-0.040056964
0.065363961
-0.065958877
0.080274904
-0.095706659
0.087168078
-0.12246941
0.088553912
-0.1450545
0.087573942
-0.15972828
0.088289594
-0.16425069
0.092821079
-0.16142175
0.10216662
-0.15525522
-0.14913216
0.11718098
3.2891078e-09
1.0685393e-07
1.4636103e-08
3.6995508e-07
3.6698829e-08
7.2225526e-07
7.2773169e-08
1.1871166e-06
1.269162e-07
1.7933871e-06
2.0409418e-07
2.576608e-06
3.1034093e-07
3.5804736e-06
4.5294605e-07
4.8585798e-06
6.4065433e-07
6.4765301e-06
8.8388397e-07
8.5144562e-06
1.1949524e-06
1.1070024e-05
1.5883103e-06
1.4261997e-05
2.0807401e-06
1.8234467e-05
2.6915468e-06
2.3161791e-05
3.442654e-06
2.9254355e-05
4.3586045e-06
3.676521e-05
5.466365e-06
4.5997575e-05
6.7949171e-06
5.7313173e-05
8.3744184e-06
7.1141238e-05
1.0234918e-05
8.7987701e-05
1.240435e-05
0.00010844399
1.4905623e-05
0.00013319412
1.7752556e-05
0.00016301822
2.0944335e-05
0.0001987896
2.4458233e-05
0.00024146117
2.8240435e-05
0.00029203528
3.2195022e-05
0.00035150948
3.6171853e-05
0.00042078906
3.9955393e-05
0.00050055794
4.3259101e-05
0.00059110385
4.5733366e-05
0.0006921087
4.7014529e-05
0.0008024453
4.6830896e-05
0.00092005975
4.5185979e-05
0.0010420859
4.2230051e-05
0.0011657731
3.9309197e-05
0.0012884613
3.8563204e-05
0.0014087562
4.2732237e-05
0.0015268467
5.5308129e-05
0.0016432272
8.0570013e-05
0.0017578971
0.00012391159
0.0018696175
0.00019251737
0.0019753451
0.00029635148
0.0020697491
0.00044959081
0.0021443887
0.0006727398
0.0021861274
0.0009956449
0.0021742283
0.001463363
0.002073695
0.0021494765
0.0018195379
0.003191313
0.0012755913
0.0047948294
0.00018030735
0.007224329
-0.0018016937
0.010984048
-0.0052371297
0.017129233
-0.011250642
0.027052812
-0.021323196
0.041342444
-0.036595266
0.058503944
-0.057218464
0.074094257
-0.081549191
0.083490696
-0.1051031
0.087475334
-0.12645405
0.088467268
-0.14604643
0.088417031
-0.15967805
0.090232301
-0.16606596
0.095529262
-0.16671871
0.10507318
-0.16479913
-0.16355467
0.11949569
3.9902429e-09
1.0286368e-07
1.7765576e-08
3.5617975e-07
4.457092e-08
6.9544992e-07
8.8443489e-08
1.143244e-06
1.5437547e-07
1.7274551e-06
2.4850132e-07
2.4824821e-06
3.7831961e-07
3.4506553e-06
5.5294386e-07
4.6839556e-06
7.833865e-07
6.2460874e-06
1.0828822e-06
8.2149605e-06
1.4672384e-06
1.0685667e-05
1.955216e-06
1.3774019e-05
2.5689354e-06
1.7620747e-05
3.334272e-06
2.2396454e-05
4.2812545e-06
2.8307372e-05
5.4443935e-06
3.5602071e-05
6.8629236e-06
4.4579045e-05
8.580847e-06
5.559525e-05
1.064676e-05
6.9075325e-05
1.3113221e-05
8.552124e-05
1.6035607e-05
0.00010552161
1.9470133e-05
0.0001297596
2.3470845e-05
0.00015901751
2.8085172e-05
0.00019417527
3.3347754e-05
0.00023619859
3.9272137e-05
0.0002861109
4.5840223e-05
0.00034494139
5.2989811e-05
0.00041363947
6.0601603e-05
0.00049294615
6.8489278e-05
0.00058321618
7.6400447e-05
0.00068419753
8.4047563e-05
0.00079479818
9.1161691e-05
0.00091294562
9.7633844e-05
0.0010356137
0.00010402142
0.0011593855
0.00011161137
0.0012808713
0.00012232943
0.0013980382
0.0001393537
0.0015098225
0.00016667021
0.0016159107
0.00020915163
0.0017154157
0.00027300541
0.0018057637
0.00036654866
0.0018818018
0.00050147238
0.0019348254
0.00069474777
0.0019511133
0.00097158179
0.0019092934
0.0013699548
0.0017758553
0.0019512952
0.0014923546
0.0028228764
0.00094795664
0.0041743076
-7.5839843e-05
0.0062742057
-0.0019195908
0.0096506328
-0.0051781208
0.015329803
-0.0109163
0.024525725
-0.020446564
0.037527432
-0.034324903
0.052909523
-0.051977356
0.067681689
-0.07199063
0.07827227
-0.092139772
0.083980381
-0.11081121
0.086849834
-0.1293235
0.087929135
-0.14712573
0.089042917
-0.16079183
0.091906545