/*--------------------------------*- C++ -*----------------------------------*\
  =========                 |
  \\      /  F ield         | OpenFOAM: The Open Source CFD Toolbox
   \\    /   O peration     | Website:  https://openfoam.org
    \\  /    A nd           | Version:  13
     \\/     M anipulation  |
\*---------------------------------------------------------------------------*/
FoamFile
{
    format      ascii;
    class       volVectorField;
    location    "39.40226";
    object      wallShearStress;
}
// * * * * * * * * * * * * * * * * * * * * * * * * * * * * * * * * * * * * * //

dimensions      [0 2 -2 0 0 0 0];

internalField   uniform (0 0 0);

boundaryField
{
    inlet
    {
        type            calculated;
        value           uniform (0 0 0);
    }
    outlet
    {
        type            calculated;
        value           uniform (0 0 0);
    }
    cylinder
    {
        type            calculated;
        value           nonuniform List<vector> 
132
(
(2.2458764e-05 -0.0013833822 -2.8362266e-22)
(7.1390698e-05 -0.0016628589 8.0604398e-23)
(0.00013617451 -0.0019290646 4.4393497e-21)
(0.00021540405 -0.0021770417 -1.4853286e-20)
(0.00030753774 -0.002402129 1.0451007e-20)
(0.00041050363 -0.0025998522 3.1824559e-20)
(0.00052175641 -0.0027662628 -6.0083872e-21)
(0.00063832257 -0.0028979775 -2.3717017e-20)
(0.0007568935 -0.0029925165 2.2272938e-20)
(0.00087397986 -0.0030482726 -4.9759494e-20)
(0.00098613771 -0.0030649054 -9.0238054e-22)
(0.0010899862 -0.0030430956 3.0703605e-20)
(0.0011826139 -0.0029851251 4.9917589e-20)
(0.0012615744 -0.0028942289 -4.0429895e-20)
(0.0013254264 -0.0027753533 4.2459916e-20)
(0.001373672 -0.0026343308 6.8179978e-20)
(0.0014071192 -0.0024780789 -4.4584603e-20)
(0.0014282508 -0.0023146526 7.1391063e-20)
(0.0014410355 -0.002152318 9.4250312e-20)
(0.0014515749 -0.0020000651 -6.1061179e-20)
(0.0014679022 -0.0018667093 -7.7749711e-20)
(0.0015005866 -0.0017611747 2.7363882e-23)
(0.0015624178 -0.0016915187 1.1265144e-20)
(0.0016682788 -0.0016643932 -1.3484678e-20)
(0.0018331754 -0.0016829061 -2.2941288e-20)
(0.0020694817 -0.0017446893 4.9078805e-21)
(0.0023829358 -0.0018400731 -4.4333952e-20)
(0.0027633664 -0.0019478309 1.1852771e-20)
(0.0031884599 -0.0020425146 9.3141948e-21)
(0.0036245733 -0.0020982094 -6.4199179e-20)
(0.0040288414 -0.0020922433 8.3840595e-20)
(0.0043686961 -0.0020162623 2.5395676e-21)
(0.0046101439 -0.0018682018 1.8324383e-20)
(0.0046807535 -0.0016393444 -2.1740465e-20)
(0.0044693732 -0.001324419 6.9180112e-20)
(0.0038178723 -0.0009298084 -4.3824395e-21)
(0.0025440718 -0.00049048609 1.7705708e-20)
(0.00042110724 -7.4158011e-05 -2.4342556e-21)
(-0.002735193 0.00019801624 3.4943077e-21)
(-0.0070890344 0.00015607717 -2.1787191e-21)
(-0.013013465 -0.00043279588 4.0617224e-21)
(-0.020388358 -0.001893807 -1.2488939e-22)
(-0.028554976 -0.0043918844 4.5607994e-20)
(-0.037044559 -0.0080006135 -1.7496456e-20)
(-0.045268329 -0.012669337 1.5721321e-20)
(-0.052778797 -0.018263776 -1.0062849e-19)
(-0.05911496 -0.024535819 -1.6182181e-20)
(-0.064016068 -0.031213854 1.4184878e-19)
(-0.067299288 -0.037994568 -1.2092845e-19)
(-0.068916182 -0.044587561 -2.3121317e-21)
(-0.06887659 -0.050701671 3.7016801e-20)
(-0.067318323 -0.0561148 -3.3995026e-20)
(-0.064340614 -0.060567782 -6.7733835e-21)
(-0.060171312 -0.063911722 -4.4699985e-21)
(-0.055055905 -0.06604066 -7.812638e-21)
(-0.049175041 -0.066795883 -1.4098772e-21)
(-0.042812277 -0.066166731 5.3260423e-22)
(-0.036201843 -0.064120147 4.5985828e-20)
(-0.029591052 -0.060686338 -7.1985455e-20)
(-0.023211907 -0.05592551 -7.7791727e-20)
(-0.017281085 -0.049933311 -3.1819221e-20)
(-0.011994708 -0.042837352 -7.3315182e-20)
(-0.0075239626 -0.034793785 1.6415022e-20)
(-0.0040085763 -0.025981488 2.3944952e-20)
(-0.0015634403 -0.016618903 -3.7283527e-20)
(-0.00024869464 -0.0068675719 -4.9872154e-21)
(-1.1089305e-05 -0.0010929565 -1.3066325e-21)
(-2.8704023e-05 -0.00079086634 -7.7912666e-23)
(-2.9091831e-05 -0.00047765047 -4.4757282e-21)
(-1.1621494e-05 -0.00015935744 1.5011915e-20)
(2.417834e-05 0.00015991972 -1.0596832e-20)
(7.8017005e-05 0.00047440828 -3.2377102e-20)
(0.00014965308 0.00077817211 6.1339381e-21)
(0.00023731567 0.0010651887 2.429968e-20)
(0.00033885989 0.0013296566 -2.2905067e-20)
(0.00045142419 0.0015661803 5.136797e-20)
(0.0005717131 0.0017700154 9.3515472e-22)
(0.0006959851 0.001937379 -3.194846e-20)
(0.00082025152 0.0020656718 -5.2151591e-20)
(0.00094058702 0.0021538253 4.2410248e-20)
(0.0010533612 0.0022023082 -4.4717795e-20)
(0.0011557203 0.0022135609 -7.2085544e-20)
(0.0012457429 0.0021915698 4.7315259e-20)
(0.0013231918 0.0021425164 -7.6032419e-20)
(0.0013893693 0.0020736624 -1.0070908e-19)
(0.001448142 0.0019942015 6.5442298e-20)
(0.0015057805 0.0019140758 8.3552865e-20)
(0.0015710529 0.0018433915 7.4942758e-20)
(0.0016556299 0.0017922558 6.1652251e-20)
(0.0017719305 0.0017679201 1.4579269e-20)
(0.0019337026 0.0017755685 2.4837257e-20)
(0.0021500237 0.0018131702 -5.3191546e-21)
(0.0024255774 0.0018736806 4.8086884e-20)
(0.0027531103 0.0019412877 -1.2863186e-20)
(0.003113962 0.0019953938 -1.0111667e-20)
(0.0034848632 0.0020177791 6.9708799e-20)
(0.0038331659 0.0019909544 -9.1046496e-20)
(0.0041191051 0.0019014623 -2.7422611e-21)
(0.0042868575 0.0017378465 4.5290528e-20)
(0.0042468258 0.0014884592 2.3622196e-20)
(0.0038760636 0.0011504183 -7.5164483e-20)
(0.0030064562 0.00073539912 4.7595839e-21)
(0.0014558126 0.00028768773 1.4009964e-20)
(-0.00099645608 -0.000114211 2.6364883e-21)
(-0.0045471413 -0.00034392243 -3.7734199e-21)
(-0.0092647081 -0.00021458537 2.343303e-21)
(-0.015531886 0.00051086907 -4.3440076e-21)
(-0.023170399 0.002147783 3.4962646e-20)
(-0.031433463 0.0048303937 -4.8011279e-20)
(-0.039878089 0.0086086393 1.8253759e-20)
(-0.047921669 0.013408752 -1.6248203e-20)
(-0.055113219 0.019068518 1.0299591e-19)
(-0.061055554 0.02533718 1.6402474e-20)
(-0.065523233 0.031944781 -1.4232186e-19)
(-0.06835032 0.038584175 1.2003028e-19)
(-0.069535715 0.04498474 2.2672333e-21)
(-0.069073792 0.050843279 -3.5758764e-20)
(-0.067166221 0.055984548 3.2210279e-20)
(-0.063849865 0.060101926 -5.0064968e-20)
(-0.059402842 0.06309188 3.852747e-21)
(-0.054103501 0.064894268 -7.3068925e-21)
(-0.048061347 0.065278616 3.7459097e-21)
(-0.04160658 0.06429826 -6.6028458e-22)
(-0.034955702 0.061907004 -5.1827267e-20)
(-0.028356621 0.058147392 7.8034758e-20)
(-0.022037397 0.053086315 8.2489662e-20)
(-0.016209393 0.046823987 3.3245376e-20)
(-0.011063991 0.039495018 7.5761057e-20)
(-0.0067657058 0.031257769 -1.6812929e-20)
(-0.003448088 0.022297924 4.8272468e-20)
(-0.0012183586 0.012821327 3.7640739e-20)
(-0.00013612068 0.0030498796 5.0059459e-21)
)
;
    }
    frontAndBack
    {
        type            empty;
    }
}


// ************************************************************************* //
