/*--------------------------------*- C++ -*----------------------------------*\
  =========                 |
  \\      /  F ield         | OpenFOAM: The Open Source CFD Toolbox
   \\    /   O peration     | Website:  https://openfoam.org
    \\  /    A nd           | Version:  13
     \\/     M anipulation  |
\*---------------------------------------------------------------------------*/
FoamFile
{
    format      ascii;
    class       volVectorField;
    location    "14.702069";
    object      wallShearStress;
}
// * * * * * * * * * * * * * * * * * * * * * * * * * * * * * * * * * * * * * //

dimensions      [0 2 -2 0 0 0 0];

internalField   uniform (0 0 0);

boundaryField
{
    inlet
    {
        type            calculated;
        value           uniform (0 0 0);
    }
    outlet
    {
        type            calculated;
        value           uniform (0 0 0);
    }
    cylinder
    {
        type            calculated;
        value           nonuniform List<vector> 
132
(
(3.1757665e-05 0.001670398 -1.0903922e-22)
(0.00017427213 -0.0029267825 3.1055386e-23)
(0.00056799882 -0.0074840956 1.7570713e-21)
(0.0012064395 -0.011855104 -6.1283573e-21)
(0.0020621367 -0.015889558 4.56016e-21)
(0.003092211 -0.019441528 1.4835071e-20)
(0.0042381736 -0.022378756 -3.0087861e-21)
(0.0054270694 -0.024591798 -1.277425e-20)
(0.0065795164 -0.025998682 1.2870759e-20)
(0.0076109184 -0.026554337 -3.067906e-20)
(0.0084385355 -0.026253618 -5.8873885e-22)
(0.0089891181 -0.025136313 2.1029616e-20)
(0.0092065742 -0.023288005 3.5515983e-20)
(0.0090607095 -0.020840957 -2.9577767e-20)
(0.0085532038 -0.017966332 3.1624387e-20)
(0.0077207963 -0.014861878 5.1229174e-20)
(0.0066333703 -0.01173283 -3.3529353e-20)
(0.0053848603 -0.0087708804 5.3397545e-20)
(0.0040813871 -0.0061325634 6.9797909e-20)
(0.0028253158 -0.0039219358 -4.4650957e-20)
(0.0016981875 -0.0021818564 -5.6079494e-20)
(0.00075488974 -0.0009023167 1.949393e-23)
(8.7476904e-06 -2.17905e-05 7.9141578e-21)
(-0.00052896732 0.00052097426 -9.3612504e-21)
(-0.00086770072 0.00079510046 -1.5749462e-20)
(-0.00090047289 0.0007624094 3.3327375e-21)
(-0.0006425846 0.00050400359 -2.9798836e-20)
(0.00012763169 -7.8667736e-05 7.8913282e-21)
(0.0012613074 -0.00079700662 6.1707286e-21)
(0.0024441012 -0.0014065758 -4.2485421e-20)
(0.0034048723 -0.001763817 5.5621124e-20)
(0.0039760674 -0.0018336673 1.6899094e-21)
(0.0042514517 -0.0017225237 1.222099e-20)
(0.0043685801 -0.0015290355 -1.4508233e-20)
(0.0043914309 -0.0012988563 4.6177622e-20)
(0.0041978677 -0.0010176679 -2.9272825e-21)
(0.0036026626 -0.00068438321 1.1847985e-20)
(0.0023904439 -0.00033305104 -1.6343354e-21)
(0.00035093833 -4.5117266e-05 2.3592029e-21)
(-0.002758235 4.9331414e-05 -1.4827736e-21)
(-0.0072874964 -0.00024758626 2.7962791e-21)
(-0.013315762 -0.0012444924 -8.7335385e-23)
(-0.020433102 -0.0031505491 3.2443095e-20)
(-0.028227836 -0.0061044367 -1.2669762e-20)
(-0.036137212 -0.010121495 1.1579119e-20)
(-0.043695103 -0.015127455 -7.5242947e-20)
(-0.050363357 -0.020911373 -1.2244117e-20)
(-0.055796905 -0.0272145 1.0818421e-19)
(-0.059745603 -0.033737671 -9.2459804e-20)
(-0.062088406 -0.040177023 -1.7601295e-21)
(-0.062796976 -0.046232492 2.7759884e-20)
(-0.061968434 -0.051660711 -2.4678044e-20)
(-0.059693359 -0.056197771 -4.5827188e-21)
(-0.056174912 -0.059670871 -2.5178158e-21)
(-0.051652892 -0.061962006 -1.2319279e-21)
(-0.046316988 -0.062916406 -6.6107763e-21)
(-0.040443239 -0.062507402 7.8135354e-22)
(-0.034269771 -0.060699452 5.6173499e-20)
(-0.028045899 -0.057518092 -8.1670768e-20)
(-0.022006254 -0.053020378 -8.4886881e-20)
(-0.016370269 -0.047300037 -3.3921113e-20)
(-0.011336501 -0.040483375 -7.6994543e-20)
(-0.0070779666 -0.032724874 1.7066898e-20)
(-0.0037362381 -0.024204148 2.4726873e-20)
(-0.0014267747 -0.01513351 -3.8328584e-20)
(-0.00021253943 -0.0056929692 -5.1130809e-21)
(0.00013810424 0.0062126925 -5.0928727e-22)
(0.00048717521 0.010645378 -3.1358089e-23)
(0.001073925 0.014869598 -1.8862905e-21)
(0.001873762 0.018744436 6.7103804e-21)
(0.0028477294 0.022131583 -5.0637887e-21)
(0.0039423121 0.024907392 -1.6598927e-20)
(0.0050900036 0.02696811 3.3734446e-21)
(0.0062165013 0.028235964 1.4283975e-20)
(0.007242001 0.028667268 -1.4303937e-20)
(0.0080871439 0.028255591 3.3806045e-20)
(0.0086800049 0.027036635 6.4244211e-22)
(0.0089631598 0.025089524 -2.2697712e-20)
(0.0089019934 0.022538686 -3.7920114e-20)
(0.0084904485 0.019546614 3.1252932e-20)
(0.0077553757 0.016304586 -3.3098307e-20)
(0.0067553046 0.01301383 -5.3174303e-20)
(0.0055742301 0.009867411 3.4567504e-20)
(0.0043111923 0.0070286774 -5.4772494e-20)
(0.0030650873 0.0046111722 -7.1349812e-20)
(0.0019219625 0.0026736525 4.5555039e-20)
(0.00094096351 0.0012156116 5.7170309e-20)
(0.00014921094 0.00019002117 5.0469209e-20)
(-0.00044680297 -0.00047471453 4.0923517e-20)
(-0.00085154986 -0.00084562046 9.5523014e-21)
(-0.0010442992 -0.00095977939 1.6078498e-20)
(-0.00092811523 -0.00078878341 -3.4025661e-21)
(-0.0003897611 -0.00031155943 3.0443639e-20)
(0.00058631647 0.00040098726 -8.0827383e-21)
(0.0018110529 0.0011496422 -6.3363814e-21)
(0.0029403499 0.0016955895 4.3748003e-20)
(0.0037370111 0.0019381209 -5.735596e-20)
(0.0041617339 0.001920531 -1.7338093e-21)
(0.0043542764 0.0017646702 2.8702802e-20)
(0.0044442669 0.0015558103 1.4992273e-20)
(0.0044177201 0.0013071978 -4.7792803e-20)
(0.0041153115 0.00099870955 3.0355868e-21)
(0.0033450329 0.00063731392 8.9791335e-21)
(0.0018865613 0.00026694417 1.7020379e-21)
(-0.00046401205 -1.7479982e-05 -2.4616069e-21)
(-0.0039428215 -7.8131339e-05 1.549206e-21)
(-0.0088910144 0.00030200731 -2.9230095e-21)
(-0.015334666 0.0014300325 2.404277e-20)
(-0.022777772 0.0035090338 -3.3789974e-20)
(-0.030786275 0.0066547549 1.3147179e-20)
(-0.038792922 0.010862314 -1.1958427e-20)
(-0.046288101 0.016022529 7.7261852e-20)
(-0.05279079 0.021916742 1.2497594e-20)
(-0.057982661 0.028277261 -1.096601e-19)
(-0.061626681 0.034796709 9.3030733e-20)
(-0.063649464 0.041184094 1.755534e-21)
(-0.064021024 0.0471307 -2.7385327e-20)
(-0.062881201 0.052418791 2.3975088e-20)
(-0.060299821 0.056765764 -3.4895479e-20)
(-0.056510276 0.060024335 2.2135737e-21)
(-0.051769503 0.062099029 1.17953e-22)
(-0.046240156 0.062808975 7.8808024e-21)
(-0.040218228 0.062156354 -8.5321446e-22)
(-0.033936576 0.060105604 -5.9546614e-20)
(-0.027644164 0.056689903 8.5235396e-20)
(-0.021573738 0.051973063 8.7700278e-20)
(-0.015941154 0.046053357 3.4786174e-20)
(-0.010941419 0.039062978 7.8493072e-20)
(-0.0067426397 0.031159584 -1.7312501e-20)
(-0.0034813341 0.022527701 4.9526773e-20)
(-0.0012671242 0.013375411 3.8550991e-20)
(-0.00015997344 0.0039102338 5.1258573e-21)
)
;
    }
    frontAndBack
    {
        type            empty;
    }
}


// ************************************************************************* //
