/*--------------------------------*- C++ -*----------------------------------*\
  =========                 |
  \\      /  F ield         | OpenFOAM: The Open Source CFD Toolbox
   \\    /   O peration     | Website:  https://openfoam.org
    \\  /    A nd           | Version:  13
     \\/     M anipulation  |
\*---------------------------------------------------------------------------*/
FoamFile
{
    format      ascii;
    class       volScalarField;
    location    "2.303587";
    object      omega;
}
// * * * * * * * * * * * * * * * * * * * * * * * * * * * * * * * * * * * * * //

dimensions      [0 0 -1 0 0 0 0];

internalField   nonuniform List<scalar> 
17140
(
4528389.9
731656.77
224625.01
95286.852
48483.969
27612.731
16954.729
10978.105
7391.298
5125.9444
3637.4404
2628.1697
1926.1997
1427.6089
1067.1891
802.7221
606.14297
458.37521
346.21028
260.36845
194.26493
143.207
103.85593
73.845093
51.479172
35.468251
24.687892
18.01468
14.309221
12.349081
11.293196
10.632825
10.102632
9.6254267
9.1900301
8.7977394
8.453116
8.1608754
7.9254802
7.7514292
7.6555236
7.61878
7.6571686
7.8029044
8.0400362
8.3073006
8.5888841
8.7648726
8.8462334
8.5492836
7.906914
6.9449881
5.8472464
4.8029729
3.8955764
3.1289459
2.4692576
1.8868554
1.3760344
0.95020817
0.6234919
0.39661615
0.25414488
0.17335012
0.13207334
4528420.9
731662.4
224627.1
95287.973
48484.691
27613.265
16955.167
10978.495
7391.6657
5126.3067
3637.8081
2628.5498
1926.5968
1428.0256
1067.6262
803.17869
606.61651
458.86137
346.70283
260.85908
194.74309
143.65988
104.26886
74.20272
51.767907
35.6798
24.82317
18.080974
14.329173
12.343748
11.276178
10.615296
10.089576
9.6186219
9.1901778
8.8056157
8.4692511
8.1871545
7.9626706
7.8096507
7.7313121
7.7082135
7.7932238
7.9761957
8.2644886
8.5936853
8.949463
9.1898791
9.2974663
9.0478232
8.4121156
7.3944333
6.1956478
5.033529
4.0174407
3.1696722
2.4600405
1.8564432
1.3438712
0.92622209
0.60953017
0.39011577
0.25173783
0.17267991
0.1319702
4528451.2
731667.43
224628.72
95288.773
48485.234
27613.727
16955.624
10978.978
7392.1948
5126.8935
3638.4603
2629.2725
1927.3924
1428.8941
1068.565
804.18256
607.67675
459.96573
347.83489
261.99778
195.86219
144.72783
105.24956
75.058263
52.464205
36.195063
25.157188
18.250833
14.38664
12.340209
11.245079
10.582688
10.066204
9.6093012
9.1983386
8.833502
8.520292
8.2625824
8.0673193
7.9592316
7.9162152
7.9339928
8.0976507
8.3443499
8.7054869
9.115111
9.544799
9.855708
9.9892482
9.7585772
9.1039038
8.0074596
6.6914936
5.381177
4.2147798
3.2398421
2.4499137
1.8076622
1.2891607
0.88385062
0.58400308
0.37776736
0.2469113
0.1711989
0.13164253
4528483
731672.68
224630.45
95289.685
48485.908
27614.351
16956.278
10979.697
7392.9987
5127.7965
3639.4722
2630.3995
1928.6378
1430.2577
1070.043
805.76659
609.35376
461.7169
349.63492
263.81393
197.65341
146.44435
106.83388
76.449158
53.6053
37.048182
25.71682
18.552428
14.497261
12.346357
11.203761
10.536802
10.032686
9.5951936
9.2111731
8.8764134
8.5980877
8.3794074
8.2408393
8.1726795
8.1549385
8.2515674
8.4504047
8.7510621
9.1550084
9.603433
10.051621
10.368992
10.503011
10.166989
9.39456
8.2454749
6.8793523
5.5144366
4.2952001
3.2703809
2.4291464
1.7559555
1.2322022
0.83848292
0.55541066
0.3630746
0.24066731
0.1690084
0.13100506
4528516.9
731678.28
224632.3
95290.707
48486.707
27615.129
16957.12
10980.639
7394.0629
5128.9997
3640.8262
2631.9125
1930.3141
1432.0978
1072.0423
807.91532
611.63537
464.10731
352.10119
266.31291
200.13036
148.8321
109.05381
78.415982
55.238138
38.288572
26.549484
19.019541
14.683817
12.374193
11.157382
10.476292
9.9864632
9.5742194
9.2234242
8.9253799
8.6886166
8.5203475
8.4289161
8.3936711
8.4147455
8.5530873
8.7702623
9.091378
9.5097956
9.962771
10.397493
10.693683
10.816221
10.406819
9.4848548
8.2867681
6.895945
5.5122091
4.2751982
3.2228924
2.3640933
1.6861471
1.1694699
0.79104484
0.52518664
0.34680154
0.23320683
0.16608766
0.12999863
4528552.1
731684.08
224634.23
95291.821
48487.619
27616.043
16958.128
10981.778
7395.359
5130.4711
3642.4871
2633.7732
1932.3811
1434.3728
1074.5217
810.58896
614.48521
467.106
355.21034
269.48115
203.29139
151.90322
111.93641
81.000486
57.416688
39.977024
27.714733
19.701687
14.978234
12.44043
11.119933
10.402339
9.9248539
9.5411809
9.2228958
8.969876
8.7770879
8.6625392
8.6061209
8.590211
8.6568396
8.801363
9.0239689
9.3467012
9.7711333
10.217185
10.598603
10.834805
10.936876
10.638183
9.5276707
8.1734825
6.7007785
5.2932004
4.0724057
3.0565935
2.2322664
1.5833728
1.0927075
0.73804729
0.49232584
0.32881718
0.22456342
0.16245133
0.12862954
4528588.7
731690.08
224636.23
95293.014
48488.624
27617.071
16959.273
10983.079
7396.8448
5132.1626
3644.4013
2635.9232
1934.776
1437.017
1077.414
813.72082
617.83945
470.65474
358.9128
273.28107
207.11429
155.65405
115.49908
84.2422
60.201007
42.188719
29.293584
20.672703
15.436266
12.577562
11.098557
10.315741
9.8428114
9.4902194
9.2052644
8.996272
8.8530214
8.7770571
8.7478612
8.7571753
8.8463127
8.9894071
9.2096242
9.5306427
9.9516995
10.368347
10.673547
10.871154
10.966632
10.718297
9.5966848
7.9623744
6.3834154
4.9563817
3.7725876
2.8165935
2.0519858
1.4534574
1.0030352
0.67963878
0.45709017
0.30946708
0.21499363
0.15824325
0.1269581
4528626.6
731696.29
224638.32
95294.272
48489.699
27618.177
16960.513
10984.494
7398.4635
5134.0097
3646.4963
2638.2825
1937.4122
1439.9383
1080.6232
817.21332
621.60179
474.66195
363.1257
277.64295
211.54726
160.05551
119.73981
88.169074
63.648953
45.006466
31.382604
22.026881
16.133666
12.829928
11.112354
10.229129
9.7421538
9.4136525
9.1655617
8.9899905
8.8966815
8.8517825
8.8372763
8.8776532
8.9729344
9.1175016
9.337353
9.6609186
10.073411
10.451489
10.688616
10.819353
10.882383
10.692138
9.7033227
7.798108
6.0816673
4.6204715
3.4594416
2.5574452
1.8547941
1.3124196
0.90762961
0.6188211
0.42080525
0.28943468
0.20488179
0.15365175
0.12506367
4528664.7
731702.7
224640.49
95295.576
48490.808
27619.322
16961.797
10985.96
7400.1443
5135.9308
3648.6804
2640.7492
1940.1782
1443.0167
1084.0222
820.93481
625.63897
478.99669
367.72513
282.45545
216.49769
165.04029
124.62307
92.782715
67.801753
48.508112
34.085152
23.8745
17.195241
13.282251
11.210681
10.168995
9.6294031
9.3121016
9.095534
8.9561469
8.8835158
8.8596537
8.8779957
8.9441679
9.0463043
9.1966707
9.4218991
9.7440474
10.130442
10.445532
10.595444
10.661032
10.710051
10.59431
9.7529517
7.6041803
5.7397118
4.26182
3.1398136
2.2978564
1.6583275
1.1723938
0.81342176
0.55906064
0.38508585
0.26951059
0.19463333
0.14887113
0.12302049
4528704.9
731709.46
224642.83
95296.952
48491.953
27620.481
16963.077
10987.413
7401.8067
5137.8319
3650.8456
2643.2017
1942.9391
1446.1047
1087.4525
824.71756
629.77705
483.48281
372.53798
287.55488
221.81891
170.48741
130.06284
98.041319
72.669358
52.75845
37.515956
26.365211
18.759921
14.054479
11.467659
10.163648
9.5200927
9.1841421
8.990202
8.8849437
8.8388037
8.8285976
8.8590036
8.9332839
9.0418469
9.2037423
9.4316406
9.7375233
10.087679
10.280483
10.316433
10.424924
10.604674
10.516899
9.7539073
7.3715522
5.3649345
3.8881272
2.819341
2.0445011
1.4696587
1.0393179
0.72456664
0.50283988
0.3512753
0.2504018
0.18460938
0.14406661
0.12091647
4528746.8
731716.51
224645.29
95298.364
48493.092
27621.601
16964.288
10988.775
7403.3594
5139.607
3652.871
2645.5035
1945.5425
1449.0338
1090.7298
828.36275
633.80492
487.9003
377.34017
292.71965
227.30023
176.20723
135.9025
103.83436
78.200257
57.774666
41.761953
29.641381
20.991674
15.324312
12.007765
10.280527
9.4556706
9.0543984
8.8592999
8.7711211
8.7442645
8.7507078
8.8009005
8.887943
9.0078374
9.179046
9.4036531
9.6786808
9.9088275
9.9327536
9.8326844
10.072671
10.565076
10.486733
9.6712033
7.0438664
4.9524271
3.5062426
2.5057913
1.8034473
1.293229
0.91631948
0.64314519
0.45146007
0.32018808
0.23259199
0.17506826
0.13939269
0.11883021
4528789.6
731723.71
224647.77
95299.725
48494.144
27622.602
16965.35
10989.958
7404.7031
5141.1433
3654.6282
2647.509
1947.8241
1451.6202
1093.6502
831.64636
637.47918
491.98842
381.85727
297.66728
232.65905
181.92775
141.89421
109.95468
84.24679
63.487571
46.84643
33.819311
24.078994
17.304525
13.040754
10.661758
9.4921868
8.9414387
8.7107704
8.6205865
8.5988031
8.6207385
8.6877057
8.7900998
8.9267501
9.105736
9.3175992
9.5230196
9.6080451
9.4795718
9.350134
9.7901689
10.641921
10.557037
9.5330067
6.6011796
4.4919824
3.1147239
2.2020237
1.5783297
1.1320912
0.80545492
0.57026137
0.40545915
0.29215522
0.21629753
0.16617854
0.13496443
0.11682423
4528834.7
731731.18
224650.25
95301.01
48495.069
27623.434
16966.202
10990.89
7405.7528
5142.341
3656.0011
2649.0842
1949.6302
1453.6884
1096.0145
834.34356
640.54821
495.46844
385.78447
302.07
237.55052
187.2963
147.69089
116.07896
90.532814
69.696084
52.671991
38.925169
28.167165
20.207012
14.800558
11.512095
9.7522497
8.9525597
8.5712208
8.4487571
8.4277451
8.4559396
8.5311083
8.6462666
8.7942393
8.9769396
9.1714399
9.3115107
9.2708029
9.0631727
9.1404214
9.705664
10.890802
10.700766
9.2012931
6.0364255
3.9964773
2.7264295
1.9160067
1.3730336
0.98809954
0.7076276
0.50624624
0.36487959
0.2671629
0.20156516
0.15802469
0.1308568
0.11492038
4528880.1
731738.71
224652.68
95302.19
48495.837
27624.061
16966.8
10991.516
7406.4436
5143.1234
3656.8995
2650.1232
1950.8368
1455.0932
1097.6531
836.25692
642.78303
498.07634
388.82014
305.58738
241.59669
191.90227
152.85894
121.76664
96.634678
76.026701
58.957426
44.815389
33.284275
24.236446
17.586693
13.129854
10.485818
9.1611159
8.5769812
8.3016283
8.2413708
8.2688463
8.3573178
8.4787291
8.6281028
8.8130674
9.0011729
9.0804274
8.9911715
8.8527774
9.0518532
10.034354
11.364556
10.910545
8.6362173
5.3722262
3.4735064
2.3513311
1.6547779
1.1909493
0.86222967
0.62273651
0.45070919
0.32935959
0.24502792
0.18835904
0.1506373
0.1270871
0.11314323
4528926.9
731746.39
224655.09
95303.264
48496.438
27624.467
16967.123
10991.812
7406.7442
5143.4519
3657.2756
2650.5672
1951.3714
1455.7455
1098.4562
837.25122
644.01712
499.60793
390.71556
307.91971
244.44153
195.33049
156.92558
126.49533
101.9977
81.922316
65.188928
51.081069
39.193531
29.368797
21.59721
15.876119
12.067979
9.8375668
8.7790534
8.3198483
8.1162349
8.0843808
8.1375352
8.2775575
8.4489684
8.6348328
8.831265
8.8789769
8.7957376
8.7937397
9.2207417
10.964714
12.015894
11.083079
7.6522136
4.6030737
2.9493184
2.0039509
1.4231459
1.0330596
0.75409555
0.54988196
0.40279865
0.2983398
0.22551145
0.17659845
0.14399776
0.1236663
0.11151064
4528977.9
731754.54
224657.53
95304.248
48496.887
27624.668
16967.19
10991.797
7406.6756
5143.3476
3657.1497
2650.4334
1951.2452
1455.6464
1098.4093
837.29016
644.1859
499.96288
391.32696
308.87215
245.83155
197.25863
159.48766
129.7741
106.04427
86.732895
70.677558
57.053978
45.335726
35.260366
26.778818
19.966406
14.888919
11.465974
9.4951809
8.5665544
8.1712201
8.0322796
8.0268946
8.0856974
8.238452
8.4249068
8.6560768
8.724571
8.7385732
8.9516638
9.8205394
12.49883
12.55895
10.816116
6.3875229
3.8381468
2.4670095
1.6991681
1.223998
0.89836747
0.66204672
0.48767049
0.36148533
0.27126142
0.2083405
0.16616493
0.13807182
0.12059196
0.11004606
4529031.7
731762.94
224659.98
95305.165
48497.215
27624.702
16967.044
10991.522
7406.296
5142.8773
3656.5976
2649.807
1950.5533
1454.9006
1097.6261
836.49207
643.40382
499.23794
390.71285
308.43769
245.66461
197.4738
160.22434
131.17875
108.24987
89.81772
74.66633
61.886034
50.836272
41.12183
32.572657
25.205955
19.148771
14.519345
11.287799
9.4279975
8.5437729
8.1897853
8.0930021
8.1193626
8.1936912
8.3536418
8.6007416
8.701187
8.8825301
9.5318878
11.850091
13.831591
12.928918
9.404239
5.2362648
3.1152107
2.036931
1.438943
1.0555228
0.78441569
0.58382885
0.43441169
0.32569252
0.24757188
0.19324704
0.15692896
0.1328089
0.11785663
0.10875601
4529085.9
731771.48
224662.46
95306.044
48497.462
27624.621
16966.75
10991.064
7405.6957
5142.1443
3655.7356
2648.8177
1949.4384
1453.6635
1096.2741
835.03792
641.86766
497.64984
389.11498
306.88634
244.23102
196.2422
159.293
130.6664
108.30472
90.64303
76.44065
64.713784
54.688534
45.853762
37.903526
30.725153
24.369367
18.986605
14.723371
11.59741
9.7057759
8.7616182
8.4053163
8.3309566
8.3853459
8.5289537
8.7542429
9.0249574
9.5341877
11.136554
14.732354
14.668018
12.796927
7.3675567
4.0602256
2.5015851
1.698454
1.2286638
0.91593871
0.68849272
0.51711233
0.38852006
0.29458265
0.22682828
0.18000721
0.14876013
0.12815688
0.11544387
0.10764389
4529139.6
731780.19
224664.99
95306.916
48497.68
27624.492
16966.388
10990.518
7404.9867
5141.2782
3654.7124
2647.6342
1948.0902
1452.1467
1094.5865
833.18095
639.84823
495.48253
386.82472
304.51126
241.82531
193.8784
157.06318
128.68114
106.68629
89.50777
75.925293
64.9972
56.000983
48.331748
41.479862
35.167266
29.309575
23.971073
19.305018
15.467261
12.52116
10.500196
9.4657732
9.054218
9.0558701
9.1906168
9.5484945
10.114564
11.430195
15.023828
16.389258
15.105569
10.482358
5.5185739
3.1593247
2.025957
1.4222995
1.0561567
0.79947009
0.60718416
0.45965887
0.34868183
0.2675102
0.20869128
0.16843413
0.14154179
0.12408116
0.11334238
0.10670199
4529196.7
731789.29
224667.63
95307.838
48497.923
27624.374
16966.032
10989.971
7404.2698
5140.3968
3653.6644
2646.4134
1946.6881
1450.5539
1092.7938
831.18038
637.63486
493.05613
384.19215
301.68941
238.84446
190.78599
153.9275
125.59435
103.76622
86.899011
73.77132
63.409337
55.054553
48.15453
42.302315
37.139061
32.381913
27.85956
23.624191
19.821246
16.597491
14.101434
12.284396
11.210925
11.01481
11.19017
11.656004
12.720086
15.674681
17.872557
17.074734
14.096095
7.4046754
3.9614925
2.4356402
1.6599451
1.2099566
0.91660264
0.70139967
0.5370634
0.40965504
0.31407315
0.24390578
0.19287476
0.15837064
0.13518416
0.12056563
0.11151757
0.10591785
4529258.1
731798.91
224670.41
95308.83
48498.214
27624.299
16965.717
10989.469
7403.6001
5139.5654
3652.669
2645.2468
1945.3401
1449.0123
1091.0454
829.21188
635.43349
490.61117
381.49656
298.74213
235.65345
187.37207
150.32903
121.87269
100.01197
83.221403
70.310449
60.344994
52.562192
46.313046
41.124343
36.643261
32.717147
29.201243
25.962726
22.904611
20.119247
17.767707
15.968806
14.749844
14.305167
14.399336
14.978413
17.004193
19.461876
18.920391
16.762924
10.044115
5.2554972
3.0281637
1.9662032
1.3845556
1.03974
0.80097389
0.61785278
0.47642535
0.36628022
0.28414424
0.22327001
0.17915378
0.14967998
0.12962694
0.11756568
0.10988297
0.10529766
4529319.5
731808.71
224673.29
95309.881
48498.552
27624.269
16965.45
10989.019
7402.9893
5138.8009
3651.7491
2644.1647
1944.0853
1447.572
1089.4045
827.35385
633.34098
488.26658
378.8831
295.84539
232.46355
183.88636
146.55512
117.83097
95.735487
78.764286
65.766421
55.852373
48.315876
42.564729
38.096792
34.473022
31.308672
28.453449
25.83631
23.559933
21.56442
19.854494
18.483093
17.45459
17.051215
17.345804
18.794997
21.239455
20.82874
19.005884
13.00095
6.7280876
3.6472724
2.2597952
1.5613393
1.1561144
0.89428602
0.69902684
0.5444484
0.4238841
0.32887778
0.25827723
0.20522251
0.16737283
0.14221594
0.12482403
0.11496519
0.10832115
0.10488829
4529381.2
731818.7
224676.24
95310.971
48498.913
27624.255
16965.194
10988.579
7402.3876
5138.0446
3650.8365
2643.0887
1942.8354
1446.1349
1087.7652
825.49576
631.24675
485.91858
376.26411
292.93942
229.25713
180.37019
142.72605
113.69404
91.305722
74.077564
60.881524
50.848836
43.288621
37.640229
33.444115
30.325369
27.940772
25.992869
24.262102
22.6193
21.148974
19.961109
19.101402
18.730908
19.122262
20.794914
23.128833
22.771697
21.126358
15.760485
8.2836272
4.4389884
2.631445
1.7554969
1.2761169
0.98595608
0.77772539
0.61374821
0.48237909
0.37901118
0.2966757
0.23584819
0.18951677
0.15739262
0.13578984
0.12075225
0.11257583
0.1068247
0.10462205
4529447.3
731829.31
224679.4
95312.133
48499.305
27624.248
16964.928
10988.116
7401.7555
5137.2517
3649.8826
2641.9682
1941.5395
1444.6529
1086.0849
823.60409
629.12988
483.56261
373.65562
290.06596
226.10792
176.93737
139.00675
109.69336
87.040985
69.58146
56.198658
46.03403
38.412276
32.787862
28.708466
25.793077
23.718149
22.21799
21.103355
20.23963
19.574283
19.246167
19.5168
20.40747
22.859731
24.997817
24.629245
23.062084
18.058103
9.8571732
5.340006
3.1123072
2.0464835
1.4890718
1.133208
0.87834254
0.68755805
0.5438377
0.43016256
0.34049681
0.26889735
0.21638672
0.17601797
0.14902172
0.13020697
0.11742068
0.11022117
0.10550911
0.10430341
4529517.1
731840.42
224682.72
95313.379
48499.75
27624.285
16964.704
10987.701
7401.1782
5136.5248
3649.009
2640.9453
1940.3617
1443.3123
1084.5723
821.90952
627.24281
481.47255
371.35266
287.54177
223.35669
173.95668
135.79845
106.26536
83.40991
65.775198
52.256434
42.001583
34.343728
28.748048
24.770997
22.036795
20.231806
19.115434
18.528963
18.426383
18.800364
19.886235
21.77558
24.629989
26.762125
26.361813
24.784287
19.908134
11.552781
6.4989319
3.7911496
2.4066877
1.6736848
1.2329896
0.95521317
0.7592321
0.60640903
0.48416642
0.38541675
0.30722723
0.2449531
0.19957924
0.16461053
0.1419919
0.12536781
0.11479709
0.1079054
0.1044184
0.10376482
4529588.1
731851.81
224686.17
95314.751
48500.33
27624.482
16964.673
10987.514
7400.8696
5136.1103
3648.4952
2640.334
1939.6514
1442.4996
1083.6529
820.87827
626.09467
480.20256
369.95639
286.0156
221.69822
172.16503
133.87448
104.21198
81.232383
63.476518
49.863877
39.555207
31.894327
26.359292
22.521595
20.02324
18.609571
18.045024
18.172087
19.003205
20.519922
22.918421
26.13311
28.46486
28.021287
26.373268
21.543594
13.359026
7.7649244
4.4778155
2.7334236
1.8517571
1.359662
1.0421301
0.81977747
0.65867808
0.53435019
0.43230854
0.34700612
0.27857122
0.22439022
0.18519151
0.15509353
0.1360227
0.12130887
0.11268454
0.1059736
0.10332245
0.10321527
4529661.3
731863.69
224689.82
95316.314
48501.139
27624.955
16964.98
10987.73
7401.0338
5136.2445
3648.6124
2640.442
1939.7552
1442.6022
1083.7555
820.98092
626.19588
480.29935
370.04404
286.08755
221.74613
172.17952
133.84667
104.1353
81.105413
63.308251
49.656114
39.328287
31.692881
26.245226
22.562803
20.347617
19.357982
19.316405
20.161298
21.834946
24.424207
27.731194
30.277409
29.798108
28.053922
23.212362
15.23221
9.1544517
5.2560789
3.1558801
2.1157743
1.539296
1.1726773
0.92658005
0.7414487
0.5945734
0.47950071
0.38828911
0.31347264
0.25371741
0.20678838
0.17300988
0.14717822
0.13093486
0.11806972
0.11082442
0.10468761
0.1024147
0.10250769
4529737.4
731876.05
224693.68
95318.06
48502.156
27625.684
16965.596
10988.313
7401.6285
5136.8777
3649.3023
2641.2021
1940.5958
1443.5316
1084.7803
822.10588
627.42411
481.63182
371.47931
287.62133
223.37084
173.88395
135.61585
105.95109
82.948282
65.160455
51.505468
41.170452
33.538529
28.147261
24.65362
22.777773
22.273195
22.843451
24.25861
26.675626
29.846916
32.459275
31.901022
29.966136
24.977256
17.148991
10.581447
6.0720347
3.6095723
2.3932521
1.7284758
1.3130136
1.0249311
0.8108915
0.65388624
0.53331227
0.43431853
0.35235147
0.28521146
0.23253996
0.19188496
0.16277879
0.14057623
0.12665637
0.11549982
0.10919934
0.1036498
0.10187893
0.10216575
4529816
731888.81
224697.69
95319.901
48503.257
27626.5
16966.312
10989.013
7402.3583
5137.6676
3650.1737
2642.1713
1941.6766
1444.7358
1086.1184
823.58726
629.05677
483.42235
373.43259
289.74022
225.65591
176.33328
138.22527
108.71497
85.861281
68.219061
54.712459
44.541527
37.11147
31.978367
28.810224
27.345969
27.323894
28.103403
29.991853
32.720612
35.058388
34.369234
32.149395
26.853182
19.105805
12.089119
7.0018337
4.1707864
2.7504841
1.9723033
1.4813049
1.1387584
0.89415081
0.71569554
0.5793976
0.47426705
0.3900193
0.31939951
0.26059357
0.21454807
0.17937789
0.15419531
0.13508112
0.12308906
0.11333193
0.10786603
0.10294174
0.1016182
0.10202066
4529897.8
731902.12
224701.81
95321.755
48504.319
27627.242
16966.925
10989.584
7402.9359
5138.282
3650.8461
2642.9188
1942.5135
1445.6756
1087.174
824.7716
630.38289
484.90365
375.08285
291.57364
227.68715
178.57762
140.69906
111.43554
88.847192
71.491945
58.29804
48.4705
41.423482
36.725372
34.047727
33.111344
33.461627
34.581197
36.624376
38.082164
37.12625
34.574207
28.874029
21.117153
13.693013
8.0619733
4.8281157
3.1502972
2.2250929
1.6536074
1.2687259
0.99723219
0.79750733
0.64662246
0.52856904
0.43324979
0.35532561
0.29122715
0.23926093
0.19924687
0.16887064
0.14697111
0.13052975
0.12004417
0.11142884
0.10687161
0.10250283
0.10150027
0.10199407
4529983.7
731915.95
224706.09
95323.632
48505.346
27627.911
16967.431
10990.02
7403.3511
5138.707
3651.3023
2643.4227
1943.0798
1446.3181
1087.9068
825.60988
631.34324
486.00461
376.34529
293.02119
229.34655
180.47905
142.87604
113.92541
91.690837
74.733341
61.984198
52.651571
46.147234
42.023865
39.915216
39.477885
40.011099
41.427177
41.345084
40.054694
36.999275
30.967221
23.130408
15.342998
9.2243604
5.5579043
3.5813462
2.497221
1.8524252
1.4243331
1.1155914
0.88592931
0.71293306
0.58041566
0.47756712
0.39510529
0.32598369
0.26801774
0.22160965
0.18653214
0.16006086
0.14090516
0.12671266
0.11737314
0.10985014
0.10618172
0.10223713
0.10148752
0.10218355
4530071.7
731930.19
224710.52
95325.56
48506.387
27628.573
16967.917
10990.424
7403.726
5139.0835
3651.7018
2643.8621
1943.5738
1446.8811
1088.5538
826.35724
632.20955
487.01134
377.51758
294.38855
230.94366
182.34644
145.06059
116.4804
94.675127
78.20905
66.007354
57.269591
51.375491
47.814168
46.105609
45.743186
45.739823
44.889177
42.898874
39.302021
33.080031
25.128382
17.033563
10.501709
6.3879134
4.080974
2.8218999
2.0930841
1.6106281
1.2605903
0.9998584
0.80183536
0.64924613
0.53014207
0.43581093
0.36038446
0.29833052
0.24699193
0.20640042
0.17581697
0.15261714
0.13580549
0.12341004
0.11507972
0.10865784
0.1055166
0.102086
0.1015308
0.10246921
4530163.2
731945.07
224715.14
95327.583
48507.498
27629.299
16968.469
10990.902
7404.1829
5139.5531
3652.2074
2644.4222
1944.2051
1447.5999
1089.3772
827.30423
633.30184
488.2743
378.98122
296.08861
232.92281
184.65538
147.7591
119.63312
98.338962
82.405035
70.766228
62.593611
57.191127
53.942419
52.197978
50.857485
48.777408
45.96463
41.773459
35.264949
27.121286
18.776418
11.892165
7.3225204
4.6555897
3.1905932
2.3538901
1.8057959
1.4106404
1.1141572
0.88753435
0.71500236
0.58354559
0.48165494
0.40019044
0.33283962
0.27605198
0.22951644
0.19364302
0.16677123
0.14629169
0.1314611
0.12052641
0.11318751
0.10769147
0.1048149
0.10199326
0.10153567
0.10252996
4530257.7
731960.42
224719.93
95329.72
48508.705
27630.124
16969.13
10991.502
7404.7803
5140.1839
3652.8979
2645.1938
1945.0771
1448.5916
1090.5092
828.59917
634.78566
489.97713
380.93856
298.34231
235.52053
187.64874
151.19792
123.56173
102.793
87.407638
76.266294
68.471578
63.205065
59.570645
56.461159
53.135348
49.484467
44.526248
37.568474
29.177837
20.627393
13.419206
8.3880015
5.3267494
3.6178097
2.6495053
2.0296376
1.5895864
1.258888
1.0054318
0.81086287
0.65937809
0.53978384
0.44491822
0.36935782
0.30797977
0.25661349
0.21482184
0.18301482
0.15911509
0.14086788
0.12770899
0.11805698
0.11158712
0.10683204
0.10422683
0.10190444
0.10133021
0.10204169
4530355.2
731976.29
224724.91
95331.972
48510.013
27631.048
16969.899
10992.226
7405.5197
5140.9781
3653.7757
2646.1793
1946.1926
1449.8596
1091.9534
830.24579
636.66371
492.11895
383.37927
301.11843
238.66905
191.20388
155.18662
127.99491
107.65514
92.653457
81.723265
73.800075
67.846194
62.869456
58.227644
53.511196
47.610167
40.077737
31.38796
22.624
15.086948
9.5881355
6.1017363
4.1082234
2.9795051
2.2755012
1.786244
1.4188188
1.1335425
0.91050791
0.73635224
0.60117452
0.49551118
0.41129558
0.34282512
0.28630333
0.23932584
0.20194723
0.17388542
0.15252027
0.13617061
0.12448182
0.11594266
0.11020228
0.10610906
0.10367544
0.10179745
0.10085292
0.10079314
4530457.6
731992.9
224730.13
95334.354
48511.418
27632.066
16970.768
10993.061
7406.3853
5141.9164
3654.8178
2647.3514
1947.5193
1451.3651
1093.663
832.18625
638.86356
494.6079
386.18692
304.27194
242.18794
195.09485
159.42932
132.52909
112.36063
97.328234
86.094671
77.451332
70.408839
64.217668
58.160255
51.146383
42.922635
33.853562
24.823565
16.934448
10.965304
7.0261633
4.6969506
3.3692
2.5622753
2.0150743
1.6042027
1.2818531
1.0287047
0.83085178
0.67556552
0.55308053
0.45662905
0.38048977
0.31919699
0.26817345
0.22523489
0.19131768
0.1661353
0.14678228
0.13209159
0.1217126
0.11411407
0.10902708
0.10540263
0.10312588
0.10158946
0.1005614
0.0998293
4530563.2
732010.11
224735.57
95336.851
48512.908
27633.164
16971.72
10993.988
7407.3541
5142.9711
3655.9911
2648.6709
1949.0102
1453.052
1095.5706
834.33926
641.2863
497.32335
389.21323
307.61851
245.84905
199.0382
163.58722
136.78099
116.51766
101.11812
89.19733
79.59265
71.373133
63.585163
55.292577
46.246137
36.687425
27.310079
19.02961
12.570451
8.1348196
5.405376
3.8253772
2.8846403
2.2646641
1.8063211
1.4488974
1.1668949
0.94290647
0.76549756
0.62636959
0.5168142
0.42882249
0.35744474
0.29944374
0.25183862
0.21259758
0.18208394
0.15944133
0.14178127
0.12857476
0.11932846
0.11254133
0.10796107
0.10471736
0.10268054
0.10130989
0.10043047
0.099322749
4530672.5
732027.9
224741.18
95339.426
48514.44
27634.289
16972.693
10994.931
7408.3371
5144.0383
3657.1757
2650.0004
1950.5095
1454.7448
1097.4797
836.48602
643.68909
499.9945
392.15609
310.8209
249.27429
202.61442
167.19681
140.25239
119.62363
103.58843
90.751067
79.974776
70.092867
60.28895
50.236154
40.036821
30.199359
21.45978
14.464377
9.4709774
6.2720383
4.3774374
3.2626398
2.55176
2.040912
1.6448533
1.3273848
1.0715947
0.86828299
0.70728265
0.57911502
0.47781743
0.39795289
0.33417304
0.28191067
0.23813075
0.20189171
0.17409817
0.15356362
0.13739326
0.12554665
0.11727897
0.11115979
0.10703315
0.10413751
0.10235118
0.10104359
0.10023812
0.099092637
4530784.7
732046.25
224746.96
95342.068
48516
27635.418
16973.656
10995.854
7409.2911
5145.0693
3658.317
2651.2787
1951.9477
1456.3633
1099.296
838.51389
645.93602
502.45778
394.81708
313.63778
252.17426
205.4858
169.88289
142.5519
121.30126
104.41625
90.416421
78.026746
66.415041
55.124016
44.094937
33.648513
24.345245
16.737396
11.109085
7.3550119
5.0642996
3.7163167
2.8828478
2.3056311
1.8639858
1.5085983
1.2210755
0.99048932
0.8057404
0.6587795
0.54260505
0.44997525
0.3753808
0.31533111
0.26654085
0.22604613
0.1926614
0.16723231
0.14843968
0.1335704
0.12295682
0.11551367
0.10997219
0.10626104
0.10364733
0.10208212
0.10077938
0.099928732
0.098924752
4530901
732061.82
224750.06
95342.566
48515.954
27635.319
16973.652
10995.997
7409.6022
5145.5597
3658.9946
2652.1503
1953.0196
1457.6399
1100.7786
840.19764
647.8067
504.48679
396.95572
315.811
254.27488
207.37121
171.37774
143.46723
121.40521
103.35278
87.915603
74.086314
61.232463
49.111315
37.847106
27.825556
19.493353
13.135381
8.7230794
5.9336418
4.2733853
3.2712496
2.6071169
2.1130569
1.7180275
1.3960702
1.1336954
0.92133212
0.75141944
0.61588556
0.50820448
0.42285292
0.35440087
0.29887594
0.25327554
0.21540302
0.18445492
0.16115155
0.14392602
0.13025565
0.1207531
0.11399979
0.10895627
0.10559323
0.10324304
0.10179918
0.10048372
0.099617654
0.098776162
4531685.4
732195.86
224795.15
95363.886
48528.008
27642.99
16978.976
10999.957
7412.7251
5148.1531
3661.2504
2654.1941
1954.936
1459.4861
1102.5904
841.99175
649.58028
506.21523
398.58937
317.27236
255.45879
208.14039
171.55011
142.78456
119.60838
100.31461
83.63788
68.725901
55.128434
42.764996
31.836451
22.667391
15.506859
10.367858
6.9892118
4.9422493
3.7205857
2.9437627
2.3879315
1.9498177
1.5907733
1.2950425
1.0537985
0.85894083
0.70228684
0.57695723
0.47698879
0.39744159
0.33411388
0.28315169
0.24115684
0.20593605
0.17710294
0.15561787
0.13980469
0.12727562
0.11879526
0.11262919
0.10801891
0.10503318
0.10285706
0.10144592
0.10018779
0.099326688
0.098714382
4531684.6
732192.09
224792.08
95361.577
48526.358
27641.805
16978.124
10999.358
7412.3317
5147.9342
3661.1858
2654.2694
1955.1387
1459.8019
1103.0003
842.46777
650.08135
506.68298
398.94183
317.39695
255.2019
207.31218
169.95136
140.25627
116.05324
95.72416
78.133074
62.582156
48.763772
36.677697
26.498162
18.407241
12.433761
8.3465363
5.8028976
4.2764155
3.3373858
2.6983934
2.2099288
1.8115768
1.4809617
1.2077491
0.98418314
0.80314059
0.65801284
0.5424692
0.4505132
0.37669359
0.3172386
0.26918644
0.22986841
0.19712083
0.17039327
0.15063402
0.13614048
0.12467724
0.1170882
0.11139394
0.1071948
0.10450808
0.10247902
0.10109153
0.099935258
0.099148506
0.098674322
4531684.8
732192.12
224792.08
95361.588
48526.376
27641.832
16978.163
10999.414
7412.4062
5148.0308
3661.3058
2654.4117
1955.2981
1459.9674
1103.1516
842.57258
650.09064
506.52549
398.52286
316.59957
253.89579
205.36479
167.24302
136.70616
111.65125
90.562632
72.426444
56.6606
43.030574
31.532571
22.247777
15.200084
10.213874
6.9798924
5.0055954
3.8208635
3.061186
2.5088584
2.0659216
1.696696
1.38837
1.1335627
0.92525529
0.75627484
0.62024303
0.51154505
0.42518576
0.35657351
0.30188558
0.25743128
0.22063009
0.18979308
0.16471534
0.14639174
0.13306097
0.12252588
0.11565217
0.1103349
0.10647827
0.10400798
0.10212968
0.10081462
0.099721361
0.099021551
0.098617668
4531684.9
732192.12
224792.03
95361.516
48526.285
27641.725
16978.041
10999.279
7412.2589
5147.8704
3661.1296
2654.2135
1955.0667
1459.6841
1102.7881
842.08783
649.42894
505.61578
397.2784
314.92141
251.68091
202.51986
163.70423
132.46336
106.77203
85.208645
66.852499
51.188693
37.998357
27.227045
18.845111
12.727152
8.5966307
6.0056114
4.4561372
3.5074922
2.8600309
2.3601012
1.9470456
1.6001547
1.3100131
1.069884
0.87356508
0.71456316
0.58709892
0.48564132
0.40462287
0.33973984
0.28812309
0.2464448
0.21216593
0.18334984
0.15984298
0.14277168
0.13047104
0.12072725
0.11442728
0.1094232
0.10587077
0.10359366
0.10181032
0.10055644
0.099495619
0.098903288
0.098584085
4531686.1
732192.14
224791.94
95361.369
48526.098
27641.499
16977.776
10998.974
7411.912
5147.4783
3660.6862
2653.709
1954.4858
1459.0043
1101.9778
841.1046
648.2184
504.11189
395.40599
312.60202
248.84276
199.11227
159.71549
127.93924
101.83
80.041072
61.712824
46.358261
33.738863
23.731301
16.200352
10.903202
7.4461038
5.3340346
4.0721684
3.2714741
2.695202
2.233285
1.8454019
1.5174535
1.2426209
1.015368
0.82952068
0.67870819