/*--------------------------------*- C++ -*----------------------------------*\
  =========                 |
  \\      /  F ield         | OpenFOAM: The Open Source CFD Toolbox
   \\    /   O peration     | Website:  https://openfoam.org
    \\  /    A nd           | Version:  13
     \\/     M anipulation  |
\*---------------------------------------------------------------------------*/
FoamFile
{
    format      ascii;
    class       volScalarField;
    location    "9.597989";
    object      yPlus;
}
// * * * * * * * * * * * * * * * * * * * * * * * * * * * * * * * * * * * * * //

dimensions      [];

internalField   uniform 0;

boundaryField
{
    inlet
    {
        type            calculated;
        value           uniform 0;
    }
    outlet
    {
        type            calculated;
        value           uniform 0;
    }
    cylinder
    {
        type            calculated;
        value           nonuniform List<scalar> 
132
(
2.7069529e-07
2.6916729e-07
2.6568637e-07
2.6018051e-07
2.5263113e-07
2.4307269e-07
2.3162407e-07
2.1841351e-07
2.0364286e-07
1.875661e-07
1.7049025e-07
1.5276896e-07
1.3479626e-07
1.1699313e-07
9.978524e-08
8.3580414e-08
6.8730837e-08
5.5506403e-08
4.4064213e-08
3.4443657e-08
2.6573637e-08
2.0310378e-08
1.5508092e-08
1.2070982e-08
9.9652997e-09
9.0170574e-09
8.734996e-09
8.4138345e-09
7.5452508e-09
6.1757027e-09
4.6785505e-09
3.4486008e-09
2.7934006e-09
2.8139097e-09
3.2890937e-09
4.0595222e-09
5.0590919e-09
6.3164771e-09
7.8668993e-09
9.7532478e-09
1.2064858e-08
1.4901919e-08
1.8034271e-08
2.1416772e-08
2.4960789e-08
2.857824e-08
3.219014e-08
3.5734252e-08
3.9161717e-08
4.2439468e-08
4.5543187e-08
4.8461429e-08
5.1181482e-08
5.3696716e-08
5.6034524e-08
5.815887e-08
6.0085471e-08
6.1819622e-08
6.3363499e-08
6.4717864e-08
6.5865671e-08
6.68284e-08
6.7600805e-08
6.8185736e-08
6.858656e-08
6.8795959e-08
2.7025252e-07
2.6783839e-07
2.6347927e-07
2.5712368e-07
2.4876894e-07
2.3847611e-07
2.2636182e-07
2.1259119e-07
1.9737977e-07
1.8099176e-07
1.6374333e-07
1.4599621e-07
1.2814844e-07
1.1061851e-07
9.382233e-08
7.8144409e-08
6.3909557e-08
5.1349126e-08
4.0579204e-08
3.1600983e-08
2.4314158e-08
1.8572369e-08
1.4240929e-08
1.1247181e-08
9.5365516e-09
8.8473126e-09
8.5991196e-09
8.115807e-09
7.0824758e-09
5.6570309e-09
4.2287513e-09
3.1647324e-09
2.7339384e-09
2.9163578e-09
3.491327e-09
4.3264826e-09
5.3907256e-09
6.7209656e-09
8.3506346e-09
1.032283e-08
1.2722746e-08
1.5645854e-08
1.8847124e-08
2.2279215e-08
2.5848135e-08
2.9470154e-08
3.3071085e-08
3.6589028e-08
3.9981837e-08
4.321843e-08
4.6277078e-08
4.9150681e-08
5.1822401e-08
5.4281018e-08
5.6580199e-08
5.8649805e-08
6.0532687e-08
6.2217725e-08
6.3717527e-08
6.501922e-08
6.6122235e-08
6.7034871e-08
6.7762278e-08
6.8299485e-08
6.8648998e-08
6.8813016e-08
)
;
    }
    frontAndBack
    {
        type            empty;
    }
}


// ************************************************************************* //
