/*--------------------------------*- C++ -*----------------------------------*\
  =========                 |
  \\      /  F ield         | OpenFOAM: The Open Source CFD Toolbox
   \\    /   O peration     | Website:  https://openfoam.org
    \\  /    A nd           | Version:  13
     \\/     M anipulation  |
\*---------------------------------------------------------------------------*/
FoamFile
{
    format      ascii;
    class       volScalarField;
    location    "16.799187";
    object      k;
}
// * * * * * * * * * * * * * * * * * * * * * * * * * * * * * * * * * * * * * //

dimensions      [0 2 -2 0 0 0 0];

internalField   nonuniform List<scalar> 
17140
(
1.1465042e-10
3.6027139e-09
2.9460579e-08
1.2670026e-07
3.8990664e-07
9.8396507e-07
2.1820894e-06
4.4226156e-06
8.3927034e-06
1.5150543e-05
2.6302259e-05
4.4255676e-05
7.2580599e-05
0.00011651383
0.00018365542
0.00028490694
0.00043569526
0.00065749022
0.00097953369
0.0014405018
0.0020894523
0.0029847866
0.004189082
0.0057568146
0.0077122894
0.010019014
0.012552345
0.015101239
0.017420358
0.01932074
0.020751583
0.021750261
0.022302184
0.022527428
0.022569335
0.022495206
0.022370414
0.022248869
0.022147634
0.02208033
0.022050505
0.022045665
0.022062246
0.022087658
0.022111429
0.022118088
0.022043318
0.021777305
0.021323174
0.02070849
0.019847675
0.018777874
0.017551503
0.016206249
0.014852841
0.013628562
0.012618172
0.011929907
0.011502543
0.01129806
0.011206786
0.010714195
0.0093434675
0.0076265622
0.0056608629
1.1351423e-10
3.5670111e-09
2.9168699e-08
1.2544556e-07
3.8604774e-07
9.7423326e-07
2.1605241e-06
4.3789468e-06
8.3099239e-06
1.5001311e-05
2.6043626e-05
4.382147e-05
7.1870562e-05
0.00011537841
0.0001818749
0.0002821638
0.00043153902
0.000651296
0.00097045958
0.001427458
0.0020711086
0.0029596661
0.0041558146
0.0057146364
0.0076618349
0.0099632698
0.012497299
0.015055554
0.017393973
0.019317977
0.020775931
0.021814626
0.022418129
0.022693485
0.022773133
0.022758324
0.022698458
0.022661222
0.022654098
0.022696311
0.022795277
0.022946597
0.023148048
0.02339482
0.023680699
0.023993497
0.024301554
0.024533428
0.024677613
0.024743459
0.024593674
0.02412064
0.023337817
0.022264979
0.020878957
0.019370387
0.017785898
0.016469246
0.015498492
0.014954737
0.014682803
0.014159701
0.012884709
0.010732072
0.0079411011
1.1090638e-10
3.4850632e-09
2.8498581e-08
1.225636e-07
3.7717882e-07
9.5185204e-07
2.1108929e-06
4.2783666e-06
8.1190972e-06
1.4656963e-05
2.5446199e-05
4.2817259e-05
7.0226137e-05
0.00011274457
0.00017773691
0.00027577454
0.00042183276
0.00063678381
0.00094911545
0.0013966214
0.0020274582
0.0028993663
0.0040749938
0.0056103959
0.0075339107
0.0098161127
0.01234158
0.014907515
0.01727216
0.019235943
0.020742121
0.021835396
0.022518166
0.022873566
0.023029833
0.023094315
0.023132321
0.023204479
0.023336031
0.023544537
0.02384021
0.024227325
0.024709343
0.025287894
0.025964006
0.026736167
0.027584173
0.028510214
0.029569949
0.030661868
0.031732202
0.032515001
0.032891617
0.032954394
0.032392375
0.031443376
0.029944656
0.028163599
0.026395512
0.024717643
0.023312739
0.021181494
0.017596202
0.013049284
0.0088867135
1.0681203e-10
3.3564045e-09
2.7446494e-08
1.1803891e-07
3.6325462e-07
9.1671369e-07
2.0329722e-06
4.1204555e-06
7.8194935e-06
1.4116306e-05
2.450812e-05
4.1240264e-05
6.7643296e-05
0.00010860657
0.00017123322
0.00026572698
0.0004065572
0.00061392028
0.00091543897
0.0013478699
0.0019582586
0.002803411
0.0039457124
0.0054424369
0.0073256592
0.0095729525
0.012078448
0.014648206
0.017044433
0.019065366
0.020641142
0.021805005
0.02258577
0.023050405
0.02330999
0.023475476
0.023633823
0.023846418
0.024147416
0.024558365
0.025094469
0.025766928
0.026585608
0.027559947
0.028699756
0.030010555
0.031477783
0.033157878
0.035079903
0.037197718
0.039437859
0.04163025
0.043635755
0.045001265
0.045616238
0.045721697
0.044991834
0.04324323
0.040715692
0.037276104
0.033322078
0.027642327
0.019573825
0.013074313
0.0075135608
1.0132319e-10
3.1839262e-09
2.6036083e-08
1.1197321e-07
3.445883e-07
8.6960886e-07
1.9285166e-06
3.9087719e-06
7.4178693e-06
1.3391541e-05
2.3250564e-05
3.9126084e-05
6.4180293e-05
0.00010305756
0.00016250966
0.00025224496
0.00038604917
0.0005832019
0.00087014498
0.0012822045
0.0018648638
0.0026735503
0.0037700961
0.0052131209
0.0070393648
0.0092355214
0.011708611
0.0142772
0.016709664
0.018801978
0.020461831
0.02171151
0.022602993
0.023191641
0.02357477
0.023866036
0.02416255
0.02453315
0.025020169
0.025650897
0.026446085
0.02742305
0.028598398
0.029988774
0.031610859
0.033472002
0.035568761
0.037985728
0.040706353
0.043694603
0.046894663
0.050217635
0.053508996
0.056325221
0.058265423
0.059173183
0.059317798
0.057977258
0.055128135
0.050300886
0.043489803
0.032803693
0.020196822
0.011082864
0.0053651124
9.4605163e-11
2.9728226e-09
2.4309822e-08
1.0454917e-07
3.2174194e-07
8.1195611e-07
1.8006721e-06
3.6496917e-06
6.9263204e-06
1.2504489e-05
2.1711376e-05
3.6538273e-05
5.9941051e-05
9.6263596e-05
0.00015182619
0.00023572769
0.00036091037
0.00054551791
0.00081451963
0.0012014391
0.0017497529
0.0025130375
0.0035521822
0.0049270656
0.0066796662
0.00880746
0.011233325
0.013791983
0.016260483
0.018432503
0.020186496
0.021533093
0.02254717
0.023267927
0.023791304
0.024223437
0.024667897
0.025202125
0.025877017
0.026726502
0.027776829
0.029051364
0.030572597
0.032361806
0.034438435
0.036807855
0.039489533
0.042550446
0.04595491
0.049668881
0.053641796
0.057785101
0.06194256
0.065843095
0.068919518
0.070561684
0.071151448
0.070198674
0.067189733
0.061431955
0.051742928
0.035059417
0.018796272
0.0086870452
0.0036189119
8.6852503e-11
2.7292075e-09
2.2317705e-08
9.5981762e-08
2.95377e-07
7.4542393e-07
1.6531363e-06
3.3507018e-06
6.3590349e-06
1.1480711e-05
1.9934803e-05
3.3550984e-05
5.5046498e-05
8.841729e-05
0.00013948313
0.00021663411
0.00033182805
0.00050187572
0.00075000423
0.001107576
0.0016156046
0.0023252736
0.0032959639
0.0045883786
0.0062497343
0.0082891957
0.010647776
0.01317981
0.015673737
0.017920612
0.019786961
0.021252027
0.022379582
0.023243126
0.023915423
0.024497974
0.025093169
0.025786484
0.02663803
0.027689168
0.028971677
0.030515111
0.032346746
0.034489874
0.036963369
0.039769189
0.042942601
0.046519598
0.050460013
0.054725889
0.059265229
0.063988625
0.068742141
0.073252367
0.077062258
0.079151829
0.07990779
0.078960216
0.075633852
0.068941545
0.055585309
0.034518047
0.01531846
0.0058630208
0.0021463561
7.8304404e-11
2.4605969e-09
2.012119e-08
8.6535286e-08
2.6630673e-07
6.7206422e-07
1.490458e-06
3.0210158e-06
5.7334821e-06
1.0351703e-05
1.7975427e-05
3.025582e-05
4.9646321e-05
7.9757707e-05
0.0001258546
0.00019553876
0.00029966866
0.00045355772
0.00067845858
0.0010032503
0.0014660479
0.0021150798
0.0030075454
0.0042042871
0.0057573239
0.0076878503
0.0099569002
0.012442301
0.014948448
0.017265535
0.019246392
0.020841792
0.022094025
0.023087966
0.023898752
0.02463001
0.025375274
0.026216026
0.027222643
0.028444288
0.029919822
0.03168543
0.033773598
0.036208728
0.039007826
0.042165769
0.045713769
0.049666633
0.053981189
0.058610504
0.063499112
0.068558127
0.073633392
0.078449112
0.082487138
0.084708597
0.085324586
0.08396012
0.079801572
0.072015937
0.055817507
0.028905
0.010584468
0.0034680651
0.0012823063
6.9227084e-11
2.1753558e-09
1.7788675e-08
7.6503903e-08
2.3543637e-07
5.9416121e-07
1.3177017e-06
2.6708958e-06
5.0691269e-06
9.1525789e-06
1.5894138e-05
2.6755063e-05
4.390786e-05
7.0552525e-05
0.00011136039
0.00017308817
0.00026541081
0.00040201958
0.00060200809
0.00089150049
0.0013053188
0.0018881757
0.0026943294
0.0037838198
0.0052125114
0.0070131414
0.0091676832
0.0115808
0.014078098
0.016452174
0.018539862
0.02027191
0.021665815
0.022788877
0.023731782
0.024581812
0.025442318
0.026413302
0.027550306
0.028901985
0.030521023
0.032455526
0.034741377
0.037401139
0.040446751
0.04386419
0.04766894
0.05185573
0.056381172
0.061184384
0.066203069
0.071349083
0.076466745
0.08128322
0.085189129
0.0871647
0.087281369
0.085130906
0.080086985
0.071045713
0.049136694
0.020158345
0.0061544265
0.0019973586
0.00077418949
5.9893743e-11
1.8820699e-09
1.5390373e-08
6.6189565e-08
2.0369506e-07
5.1405941e-07
1.1400658e-06
2.3108745e-06
4.3859478e-06
7.9193783e-06
1.3753441e-05
2.315373e-05
3.8002975e-05
6.1076799e-05
9.6432194e-05
0.00014994797
0.00023006378
0.0003487663
0.00052285775
0.0007754941
0.001137862
0.0016506169
0.0023642492
0.0033368116
0.0046265175
0.0062762229
0.0082885273
0.010597377
0.013055512
0.015464137
0.017644442
0.019500812
0.021029386
0.02228671
0.023356829
0.024334503
0.025299531
0.026338977
0.027542077
0.028982849
0.030716016
0.03277886
0.035205433
0.038015465
0.041222174
0.044806722
0.048749697
0.053026462
0.057601932
0.062395628
0.067331229
0.072318183
0.077195723
0.081678011
0.085088643
0.086548821
0.085782031
0.082611312
0.076335427
0.064418145
0.035761048
0.011109999
0.0033567231
0.0011293299
0.0004891295
5.0589636e-11
1.5897024e-09
1.2999575e-08
5.5907431e-08
1.7205263e-07
4.3420622e-07
9.6297754e-07
1.9519504e-06
3.7048119e-06
6.6897579e-06
1.1618678e-05
1.9561678e-05
3.2111642e-05
5.1618979e-05
8.1523632e-05
0.00012681957
0.00019469515
0.00029539813
0.00044336897
0.00065865687
0.00096855026
0.0014091697
0.0020264107
0.0028750043
0.0040135776
0.0054927922
0.0073341922
0.0095021007
0.011882424
0.014294309
0.016548729
0.018520747
0.020178784
0.02156282
0.022749235
0.023828361
0.024892015
0.026024753
0.027309306
0.028811501
0.03059071
0.032701035
0.035178847
0.03804841
0.041323098
0.044969229
0.048936417
0.05316936
0.057641249
0.062282488
0.066983341
0.071625897
0.076022177
0.079829922
0.082374392
0.082818825
0.081051264
0.076363138
0.068499631
0.05062903
0.019478365
0.005702609
0.0017426956
0.00064248561
0.00032833273
4.1610631e-11
1.3075506e-09
1.0692312e-08
4.5984531e-08
1.4151552e-07
3.5714143e-07
7.9206935e-07
1.6055395e-06
3.0473853e-06
5.5028343e-06
9.557767e-06
1.6093213e-05
2.6421372e-05
4.2480169e-05
6.7109473e-05
0.00010443968
0.00016043177
0.00024361549
0.0003660737
0.00054470688
0.00080276005
0.0011714675
0.0016914046
0.0024126447
0.0033920374
0.0046849917
0.006328841
0.0083173299
0.010574262
0.01294798
0.01525012
0.017327576
0.019113584
0.020624172
0.021924382
0.023099564
0.024240247
0.025434802
0.026767405
0.028314738
0.030134693
0.032280248
0.034787735
0.037674545
0.04094025
0.044545844
0.048436035
0.052533131
0.056778866
0.061074216
0.065288903
0.069285169
0.072845194
0.075587239
0.076988188
0.076291001
0.073139001
0.06679165
0.055769542
0.029676678
0.0090175696
0.0026550286
0.00087633331
0.00038548452
0.0002409536
3.3244522e-11
1.0446582e-09
8.5425414e-09
3.6738961e-08
1.1306269e-07
2.8533582e-07
6.3282138e-07
1.2827521e-06
2.4347593e-06
4.3967032e-06
7.6368995e-06
1.285983e-05
2.1115307e-05
3.3954995e-05
5.365545e-05
8.353355e-05
0.00012838827
0.00019511125
0.00029351464
0.00043742156
0.00064603804
0.00094554674
0.0013706825
0.0019656899
0.0027834324
0.0038805215
0.0053055293
0.0070780389
0.0091614031
0.011443933
0.013753954
0.015918788
0.017831511
0.019473576
0.020891251
0.022162139
0.02337413
0.02461602
0.025972994
0.027521435
0.029325692
0.031438643
0.033896836
0.036720995
0.039897488
0.043372438
0.047073202
0.05089437
0.054745472
0.058528305
0.062102143
0.065272348
0.0677609
0.069212154
0.069198878
0.0672782
0.062269399
0.054127413
0.036189209
0.012336995
0.0036993588
0.0011658874
0.00045820574
0.00026027048
0.00019892522
2.573987e-11
8.0883581e-10
6.6141318e-09
2.84454e-08
8.7539522e-08
2.2092314e-07
4.8996697e-07
9.9318566e-07
1.88516e-06
3.4042995e-06
5.913336e-06
9.9580797e-06
1.6352262e-05
2.6299459e-05
4.1567394e-05
6.4735643e-05
9.9544996e-05
0.00015138526
0.0002279666
0.00034022394
0.00050349518
0.00073897359
0.001075326
0.0015501298
0.0022103214
0.0031100955
0.0043037349
0.0058304141
0.0076901611
0.0098181517
0.012077712
0.014294825
0.016325027
0.018104524
0.019648623
0.021020627
0.022303101
0.023583185
0.024946079
0.026469487
0.028219502
0.030249754
0.032595956
0.035273211
0.038266295
0.041511023
0.044917146
0.048361747
0.051717666
0.054877653
0.05765214
0.059788501
0.060984691
0.061026131
0.059677157
0.055912809
0.049118105
0.03672709
0.014939763
0.004646398
0.0014510614
0.00053384011
0.00027340762
0.00020205451
0.00017556534
1.927421e-11
6.0566221e-10
4.9527052e-09
2.1300064e-08
6.554993e-08
1.6542782e-07
3.6688806e-07
7.436992e-07
1.411616e-06
2.5491785e-06
4.4280622e-06
7.4571497e-06
1.2246246e-05
1.9697809e-05
3.1138457e-05
4.8506625e-05
7.4618868e-05
0.00011354501
0.00017113122
0.0002557184
0.00037910577
0.00055779561
0.00081450005
0.0011797519
0.0016931639
0.002403328
0.0033644916
0.0046272234
0.0062204112
0.0081257505
0.010256193
0.012461374
0.014581121
0.016498336
0.018181981
0.019668099
0.021028175
0.022345621
0.023704171
0.025182491
0.026847856
0.028752883
0.030932759
0.033399633
0.036136725
0.039071086
0.042089225
0.045059152
0.047814309
0.050220197
0.05203246
0.05296077
0.052828533
0.051618915
0.048484576
0.042813652
0.033356296
0.015396702
0.0050715938
0.0016249001
0.00058825963
0.0002881149
0.00019769281
0.00017599004
0.00016171777
1.3936239e-11
4.3792463e-10
3.5810549e-09
1.5400987e-08
4.7395673e-08
1.1961164e-07
2.6527516e-07
5.3772265e-07
1.0206478e-06
1.8431424e-06
3.2016514e-06
5.3918682e-06
8.8548879e-06
1.4243744e-05
2.2519003e-05
3.5085625e-05
5.398814e-05
8.2187616e-05
0.00012395204
0.00018540101
0.00027525397
0.00040583249
0.00059434839
0.00086444217
0.0012477698
0.0017850873
0.0025256544
0.0035228596
0.0048231626
0.0064462361
0.008359572
0.010462481
0.01260291
0.014633791
0.016462091
0.018080575
0.019535936
0.020901545
0.022257603
0.023681617
0.025242252
0.026992045
0.028963418
0.031167062
0.033584849
0.036141313
0.038691097
0.041092855
0.043144272
0.044659446
0.04536267
0.0451185
0.043892433
0.041004135
0.036132527
0.0283447
0.014024456
0.0050297456
0.0016619256
0.0006065875
0.00029093557
0.00019923166
0.0001696325
0.00016257437
0.00015077216
9.7207406e-12
3.0545913e-10
2.4978386e-09
1.074239e-08
3.3058979e-08
8.3429933e-08
1.8502991e-07
3.7505909e-07
7.1188922e-07
1.285553e-06
2.2330563e-06
3.7606293e-06
6.1759388e-06
9.9345661e-06
1.5706878e-05
2.447398e-05
3.7665051e-05
5.735329e-05
8.6534398e-05
0.00012951996
0.00019248784
0.00028424039
0.00041722166
0.00060882361
0.00088293472
0.0012714988
0.0018154665
0.0025638473
0.0035686315
0.0048727032
0.0064892412
0.0083775407
0.010431721
0.01250321
0.014459961
0.016221986
0.017795719
0.01923197
0.020601831
0.021978512
0.023429347
0.025007534
0.026744882
0.02864787
0.030696335
0.032816775
0.034842339
0.036583697
0.037826207
0.038328793
0.038029253
0.036826505
0.034114669
0.029726461
0.023019677
0.011695931
0.0045550552
0.0016175067
0.00060096621
0.0002892961
0.00019591053
0.000168637
0.00015701903
0.00015157
0.00014158088
6.5406015e-12
2.0552817e-10
1.6806687e-09
7.2279897e-09
2.2243552e-08
5.6135001e-08
1.2449437e-07
2.5234915e-07
4.7896863e-07
8.6491816e-07
1.5023559e-06
2.5299956e-06
4.1547685e-06
6.6830897e-06
1.056587e-05
1.6463189e-05
2.5337044e-05
3.8584169e-05
5.8225833e-05
8.7178281e-05
0.00012963614
0.00019161116
0.00028167785
0.00041197854
0.00059951815
0.00086769971
0.0012478519
0.0017801088
0.0025123102
0.003494685
0.0047675765
0.0063411968
0.0081729038
0.010158047
0.012153891
0.014043524
0.015757244
0.017296643
0.018711223
0.020065328
0.02142161
0.022831618
0.024326327
0.025909179
0.027555424
0.029191154
0.030647225
0.031651693
0.031999566
0.031665146
0.030483246
0.027986866
0.024006107
0.017989432
0.0091727376
0.0037743737
0.0014565441
0.00057859741
0.00028441418
0.00019352327
0.00016520249
0.00015555532
0.00014605197
0.00014212793
0.00013533383
4.2494134e-12
1.335311e-10
1.0919242e-09
4.695986e-09
1.4451448e-08
3.6470171e-08
8.0881491e-08
1.6394366e-07
3.1116483e-07
5.6188281e-07
9.7594822e-07
1.6434335e-06
2.6986853e-06
4.3406031e-06
6.8618315e-06
1.0690712e-05
1.6451497e-05
2.5050715e-05
3.7800963e-05
5.6598239e-05
8.4175483e-05
0.00012446367
0.00018310195
0.00026814752
0.00039103733
0.0005678317
0.00082069627
0.0011793873
0.001682125
0.0023745216
0.0033044938
0.0045106352
0.0060032486
0.0077434019
0.0096346651
0.011548096
0.013365039
0.015029431
0.016528845
0.017902128
0.019200694
0.020469702
0.02173734
0.023002953
0.024234395
0.02534983
0.026188134
0.026410896
0.026050309
0.024887729
0.02259236
0.019042782
0.013539808
0.0068187589
0.0029363185
0.001210078
0.00052392602
0.00027316978
0.00018951479
0.00016274178
0.00015188759
0.00014429769
0.00013805693
0.00013486149
0.0001283976
2.6718925e-12
8.3959975e-11
6.8656527e-10
2.9526711e-09
9.0865225e-09
2.2930901e-08
5.0854324e-08
1.0307812e-07
1.9563765e-07
3.5325929e-07
6.1355742e-07
1.0331288e-06
1.6963685e-06
2.7281846e-06
4.3122892e-06
6.717468e-06
1.0335269e-05
1.5734052e-05
2.373653e-05
3.5531051e-05
5.2831413e-05
7.8106209e-05
0.00011490706
0.00016833494
0.00024569302
0.0003573763
0.00051802708
0.00074791103
0.0010742898
0.0015322535
0.0021638599
0.0030136754
0.004118399
0.005490152
0.0070978583
0.0088598808
0.010660023
0.012391218
0.013979705
0.015412825
0.016702702
0.017879025
0.018958641
0.019935778
0.020764331
0.021336004
0.021454321
0.021101635
0.020015899
0.01784227
0.014730407
0.0097317516
0.0048088186
0.0021630297
0.00095171407
0.00044676754
0.00025399214
0.00018325074
0.00015939263
0.0001489607
0.00014129099
0.00013670429
0.00013157527
0.00012821217
0.00012331245
1.6322803e-12
5.1291808e-11
4.194278e-10
1.8038052e-09
5.5509939e-09
1.4008502e-08
3.1066664e-08
6.2969059e-08
1.1950992e-07
2.1579015e-07
3.7477787e-07
6.3102456e-07
1.0360371e-06
1.6660184e-06
2.6329911e-06
4.1007538e-06
6.3077408e-06
9.5997601e-06
1.4476898e-05
2.1660796e-05
3.2191302e-05
4.7565546e-05
6.9938159e-05
0.00010240899
0.00014943383
0.00021740222
0.0003154282
0.0004563803
0.0006581094
0.00094467191
0.0013470243
0.0019022209
0.002649678
0.003622862
0.0048351755
0.0062645984
0.0078460154
0.0094827633
0.011072335
0.012539792
0.013842743
0.014968299
0.015907918
0.01663978
0.017078301
0.017050857
0.016682158
0.015681
0.013706334
0.010835793
0.0065120751
0.003207297
0.0015187048
0.00071624398
0.00036959906
0.00022923491
0.00017619596
0.00015531448
0.00014599573
0.00013873875
0.00013416996
0.00013016854
0.00012565454
0.00012388511
0.0001195882
9.7543233e-13
3.0651401e-11
2.5064507e-10
1.0779312e-09
3.3171971e-09
8.37126e-09
1.8564846e-08
3.7628749e-08
7.1415035e-08
1.2894558e-07
2.2394036e-07
3.7703425e-07
6.1897914e-07
9.9525316e-07
1.5726763e-06
2.4488841e-06
3.7658735e-06
5.7293555e-06
8.6364083e-06
1.2915027e-05
1.9180788e-05
2.8318238e-05
4.1598043e-05
6.0845852e-05
8.8685368e-05
0.000128886
0.00018685283
0.00027029832
0.00039012211
0.00056145477
0.00080467898
0.0011459609
0.0016163892
0.0022486518
0.0030702225
0.0040929786
0.0053010729
0.0066442806
0.0080429601
0.0094057855
0.01064863
0.011704598
0.012517757
0.013034753
0.013023981
0.012698534
0.011785807
0.010084954
0.0073660507
0.0041706604
0.0021015477
0.0010304119
0.00052437443
0.00030012157
0.00020625459
0.00016800821
0.00015242081
0.00014331173
0.00013614062
0.00013167554
0.00012756641
0.00012448305
0.00012111609
0.00011840653
0.00011524462
5.7816978e-13
1.8168056e-11
1.4856518e-10
6.3892372e-10
1.9662089e-09
4.9619224e-09
1.1004016e-08
2.2303843e-08
4.2329983e-08
7.6429462e-08
1.3273289e-07
2.2346669e-07
3.6684709e-07
5.8980401e-07
9.3188572e-07
1.4508401e-06
2.2305766e-06
3.3925089e-06
5.1117013e-06
7.6398605e-06
1.133811e-05
1.6723799e-05
2.4537527e-05
3.5839348e-05
5.2147054e-05
7.5634703e-05
0.00010941582
0.00015794139
0.0002275409
0.00032712191
0.00046898881
0.00066962102
0.00095003379
0.0013349117
0.001849649
0.0025140617
0.0033344461
0.0042949604
0.005353093
0.0064400374
0.0074699785
0.0083470677
0.0089905411
0.009179659
0.00897079
0.0082859224
0.0067704937
0.0044471106
0.0024657422
0.0013167438
0.0006897759
0.00038211571
0.00024420356
0.00018576563
0.00016114111
0.00014985441
0.00014195714
0.00013525037
0.00013093772
0.00012632692
0.0001230883
0.00011986479
0.00011700716
0.00011541129
0.00011208757
3.4951541e-13
1.0982961e-11
8.9810752e-11
3.8624391e-10
1.1886256e-09
2.9996447e-09
6.6523805e-09
1.3483813e-08
2.5591097e-08
4.6207169e-08
8.0247971e-08
1.3510563e-07
2.2179311e-07
3.5658915e-07
5.6339345e-07
8.7708724e-07
1.3483179e-06
2.0502923e-06
3.0884037e-06
4.6138568e-06
6.8429619e-06
1.0084515e-05
1.4778518e-05
2.15512e-05
3.1293292e-05
4.527141e-05
6.5286193e-05
9.3894888e-05
0.00013471779
0.00019284806
0.00027536451
0.00039190371
0.00055515093
0.00078091513
0.0010872805
0.001491925
0.0020068364
0.0026309826
0.0033428155
0.0040963107
0.0048208112
0.0054225987
0.0057461514
0.0056438423
0.0051505082
0.0039448822
0.0024592625
0.001410938
0.00078828747
0.00045248915
0.00028276765
0.00020277394
0.00016918136
0.00015509975
0.00014803557
0.00014169457
0.00013553199
0.00013065231
0.00012601063
0.00012267134
0.00011916174
0.00011627601
0.00011310985
0.00011122763
0.00010912867
2.2567525e-13
7.0914873e-12
5.7989253e-11
2.4939304e-10
7.6749322e-10
1.9369125e-09
4.2956824e-09
8.7073684e-09
1.6526705e-08
2.9842396e-08
5.1830862e-08
8.726896e-08
1.4327365e-07
2.3036451e-07
3.6398417e-07
5.6666801e-07
8.711256e-07
1.3246023e-06
1.9950377e-06
2.9797397e-06
4.4175379e-06
6.505725e-06
9.5237859e-06
1.3866634e-05
2.0090796e-05
2.8978455e-05
4.162622e-05
5.9567576e-05
8.4940427e-05
0.00012071217
0.00017096903
0.00024125888
0.00033887853
0.00047319927
0.00065523336
0.00089649085
0.0012061204
0.0015861205
0.0020240687
0.0024842156
0.0028996269
0.0031543008
0.0030977482
0.0027597308
0.0019711648
0.0012563235
0.00076459183
0.00046432288
0.00029795981
0.00021327927
0.00017399877
0.00015585846
0.00015005014
0.00014651848
0.00014225266
0.00013612058
0.0001307284
0.00012606163
0.0001226615
0.00011884264
0.00011575075
0.00011309147
0.00011082781
0.00010920797
0.00010693998
1.6185405e-13
5.0860121e-12
4.1590068e-11
1.7886767e-10
5.5046845e-10
1.3892624e-09
3.0812698e-09
6.2461946e-09
1.1856449e-08
2.1411717e-08
3.7193437e-08
6.2633848e-08
1.0284866e-07
1.6540248e-07
2.6140406e-07
4.0706682e-07
6.2592295e-07
9.5195447e-07
1.4339922e-06
2.1418718e-06
3.1749958e-06
4.674162e-06
6.837831e-06
9.944013e-06
1.4379766e-05
2.0680463e-05
2.9581632e-05
4.2087171e-05
5.9558302e-05
8.3827122e-05
0.00011733704
0.0001633053
0.0002258809
0.00031021543
0.00042219223
0.00056749045
0.00074937146
0.00096437761
0.0011955914
0.001404725
0.0015219393
0.0014719918
0.001239597
0.00089003706
0.00060121515
0.00040005967
0.00027068678
0.00020219672
0.00016728795
0.00015182068
0.00014653344
0.00014564188
0.00014517272
0.00014289554
0.00013704912
0.00013093015
0.00012660842
0.00012296493
0.00011926392
0.00011617389
0.000113476
0.00011093175
0.00010796846
0.0001063055
0.00010458992
1.2718549e-13
3.9966105e-12
3.2681822e-11
1.4055746e-10
4.3257779e-10
1.0917702e-09
2.4215769e-09
4.9092293e-09
9.3194586e-09
1.6832017e-08
2.9242288e-08
4.9252416e-08
8.089179e-08
1.3012164e-07
2.0570045e-07
3.2041703e-07
4.9283876e-07
7.497768e-07
1.1297435e-06
1.6877537e-06
2.5019363e-06
3.6825228e-06
5.3838393e-06
7.8200779e-06
1.12855e-05
1.6179479e-05
2.3036437e-05
3.2560046e-05
4.5660794e-05
6.3491517e-05
8.7474334e-05
0.00011931027
0.00016094609
0.00021443278
0.00028147191
0.00036234764
0.00045473193
0.00054897185
0.00062645178
0.00065562493
0.00061197147
0.00049505663
0.00037874507
0.00027676054
0.00020572426
0.00016601725
0.00014049876
0.00013589649
0.00013838661
0.00014057631
0.00014413154
0.0001451544
0.00014348005
0.00013804805
0.00013124809
0.00012715121
0.00012344171
0.0001196569
0.00011669241
0.00011362501
0.00011077021
0.00010818095
0.00010620812
0.00010495543
0.00010338315
1.0095232e-13
3.172275e-12
2.5940988e-11
1.1156725e-10
3.4336105e-10
8.6660994e-10
1.9222002e-09
3.8969462e-09
7.398027e-09
1.3362241e-08
2.321541e-08
3.910371e-08
6.4227769e-08
1.0332281e-07
1.6334532e-07
2.5444973e-07
3.9136913e-07
5.9535289e-07
8.9686125e-07
1.3392695e-06
1.9838851e-06
2.9166091e-06
4.2565488e-06
6.1667426e-06
8.8667946e-06
1.2646535e-05
1.7878441e-05
2.5024677e-05
3.463284e-05
4.7313667e-05
6.3689555e-05
8.4303327e-05
0.00010948811
0.00013910362
0.00017222453
0.00020661349
0.0002382069
0.00025944073
0.0002578648
0.00023257096
0.00019408782
0.00015621373
0.0001305139
0.00011180395
0.00010377468
0.00010884917
0.00011582981
0.00013027069
0.00014054376
0.00014570799
0.00014610741
0.00014434076
0.00013863219
0.00013165151
0.00012788724
0.00012401015
0.00012033537
0.00011722943
0.00011415358
0.00011130142
0.00010908878
0.00010685569
0.00010459831
0.00010296358
0.00010153752
7.3107452e-14
2.2972911e-12
1.8785854e-11
8.0793925e-11
2.4864948e-10
6.2755378e-10
1.391913e-09
2.8217504e-09
5.3565351e-09
9.674143e-09
1.680596e-08
2.8303728e-08
4.6480106e-08
7.4753594e-08
1.1814022e-07
1.8394977e-07
2.8276395e-07
4.2979717e-07
6.4676616e-07
9.6441623e-07
1.4258587e-06
2.0908412e-06
3.0409616e-06
4.385576e-06
6.2676547e-06
8.8680007e-06
1.2405039e-05
1.7125995e-05
2.3283689e-05
3.1092611e-05
4.0663794e-05
5.1907804e-05
6.4416674e-05
7.7367395e-05
8.9429764e-05
9.8229496e-05
0.00010126873
9.6729727e-05
8.6875113e-05
7.7752083e-05
7.0669512e-05
6.5534868e-05
6.8441762e-05
7.5131511e-05
8.7062231e-05
0.00010753407
0.00013448695
0.00014510326
0.00014737017
0.00014733156
0.00014534371
0.00013905902
0.00013236713
0.00012869648
0.00012466094
0.00012095426
0.00011785542
0.00011468335
0.0001120747
0.00010959615
0.00010701833
0.0001046688
0.00010270935
0.00010161786
0.00010056335
4.5723086e-14
1.4367772e-12
1.1749027e-11
5.0529275e-11
1.5550306e-10
3.9244722e-10
8.703848e-10
1.764308e-09
3.3487373e-09
6.0468853e-09
1.0502202e-08
1.7681849e-08
2.9025442e-08
4.6657487e-08
7.3688625e-08
1.1463925e-07
1.7602913e-07
2.6718755e-07
4.0134737e-07
5.970886e-07
8.8018098e-07
1.2858228e-06
1.8611526e-06
2.6676766e-06
3.7828522e-06
5.2994478e-06
7.3205101e-06
9.9471758e-06
1.3255236e-05
1.7259622e-05
2.1866458e-05
2.6826515e-05
3.1690497e-05
3.5792673e-05
3.8247209e-05
3.8374234e-05
3.7034396e-05
3.5679496e-05
3.484678e-05
3.6434311e-05
4.117893e-05
4.7202676e-05
6.0321651e-05
7.9625593e-05
0.00011292487
0.00013856666
0.00014768921
0.00014973
0.00014912982
0.00014677785
0.00013980328
0.00013321024
0.00012958571
0.00012538201
0.0001217858
0.00011861367
0.0001154658
0.00011274506
0.00011018863
0.00010753862
0.00010553349
0.00010360637
0.00010177128
0.00010059316
9.9465191e-05
2.4411335e-14
7.6708721e-13
6.2726886e-12
2.6976493e-11
8.3016317e-11
2.0949655e-10
4.6458412e-10
9.4160331e-10
1.7868742e-09
3.2257997e-09
5.6007394e-09
9.4256189e-09
1.5464115e-08
2.4840736e-08
3.9197266e-08
6.0910772e-08
9.3393444e-08
1.4149794e-07
2.1205292e-07
3.1454789e-07
4.61968e-07
6.7173616e-07
9.6663461e-07
1.3754299e-06
1.9326899e-06
2.6769541e-06
3.6460961e-06
4.8685212e-06
6.3492309e-06
8.0519619e-06
9.8802193e-06
1.1664367e-05
1.3167786e-05
1.4186221e-05
1.4853805e-05
1.5621586e-05
1.6959152e-05
1.9313309e-05
2.2318136e-05
2.9128869e-05
3.9552089e-05
5.7335213e-05
8.2669257e-05
0.00011709302
0.00013996844
0.00014981778
0.00015190389
0.00015107249
0.00014824717
0.00014073038
0.00013431004
0.00013058003
0.00012632852
0.00012272091
0.00011942792
0.00011612902
0.00011341027
0.00011075565
0.00010836614
0.00010623217
0.00010416566
0.0001019975
0.00010026649
9.926228e-05
9.8415129e-05
1.1399237e-14
3.5820214e-13
2.9290917e-12
1.2596614e-11
3.8762435e-11
9.7811758e-11
2.1688499e-10
4.3950586e-10
8.3386962e-10
1.5049392e-09
2.6119606e-09
4.393631e-09
7.2039709e-09
1.1562994e-08
1.8227524e-08
2.8288904e-08
4.330561e-08
6.5479373e-08
9.7882246e-08
1.4473701e-07
2.1174125e-07
3.0640098e-07
4.382968e-07
6.1913761e-07
8.6236611e-07
1.1819644e-06
1.5900984e-06
2.0933627e-06
2.6880446e-06
3.356298e-06
4.0670664e-06
4.7883832e-06
5.5719354e-06
6.56657e-06
7.8397475e-06
9.5832807e-06
1.2681145e-05
1.753403e-05
2.585584e-05
3.9174286e-05
5.8738658e-05
8.4170209e-05
0.00011516084
0.00013835413
0.00015121424
0.00015415076
0.00015321218
0.0001501407
0.0001423961
0.00013590326
0.0001318369
0.00012740276
0.00012380892
0.00012030909
0.00011701576
0.00011427736
0.00011162378
0.00010914249
0.00010693763
0.00010467536
0.00010269098
0.00010096002
9.9549446e-05
9.8594187e-05
9.7739448e-05
5.1683225e-15
1.6240572e-13
1.3280139e-12
5.7110234e-12
1.757327e-11
4.4340729e-11
9.8310146e-11
1.9919353e-10
3.778612e-10
6.8179709e-10
1.1829847e-09
1.9892151e-09
3.2601624e-09
5.2300208e-09
8.2390269e-09
1.2776765e-08
1.954066e-08
2.9513268e-08
4.4061477e-08
6.5058756e-08
9.5027249e-08
1.3728845e-07
1.9609897e-07
2.7673262e-07
3.8546167e-07
5.2940595e-07
7.1631673e-07
9.5425359e-07
1.2512986e-06
1.6223032e-06
2.1029219e-06
2.7672226e-06
3.7135746e-06
5.1286899e-06
7.3241859e-06
1.0911559e-05
1.6720766e-05
2.6029757e-05
3.9675583e-05
5.8616021e-05
8.2784475e-05
0.0001118128
0.00013740125
0.00015275878
0.0001565183
0.00015559051
0.00015251362
0.00014469975
0.00013791
0.00013333153
0.00012857329
0.00012498199
0.00012140281
0.00011804206
0.00011522664
0.00011235643
0.00010984445
0.00010754996
0.00010542088
0.0001034215
0.00010170274
9.9891423e-05
9.8373396e-05
9.750253e-05
9.6795489e-05
3.1070257e-15
9.763305e-14
7.9836053e-13
3.4332948e-12
1.0564514e-11
2.6656302e-11
5.9101508e-11
1.1975277e-10
2.2717733e-10
4.0994866e-10
7.1141631e-10
1.1965702e-09
1.9618508e-09
3.1490701e-09
4.9650137e-09
7.708813e-09
1.180981e-08
1.7879403e-08
2.6781252e-08
3.9725287e-08
5.8392449e-08
8.5099599e-08
1.2301963e-07
1.7648519e-07
2.5143638e-07
3.5614692e-07
5.0253467e-07
7.0874888e-07
1.0030928e-06
1.4323436e-06
2.0732769e-06
3.0587564e-06
4.6063303e-06
7.0643679e-06
1.0954635e-05
1.7072272e-05
2.6333742e-05
3.9594024e-05
5.7817751e-05
8.1661441e-05
0.00011015897
0.00013762708
0.00015447576
0.00015906839
0.00015825182
0.00015538801
0.00014752601
0.00014021849
0.00013499599
0.00013002224
0.00012632331
0.00012269472
0.00011927439
0.00011622492
0.00011326499
0.00011074801
0.00010848805
0.00010624219
0.00010424741
0.00010234113
0.00010053297
9.8911331e-05
9.7677457e-05
9.6996537e-05
9.6312647e-05
3.2512226e-15
1.0216442e-13
8.3542297e-13
3.5927629e-12
1.1055659e-11
2.7897399e-11
6.185962e-11
1.2536087e-10
2.3787073e-10
4.2938649e-10
7.4549363e-10
1.2546927e-09
2.0589587e-09
3.308896e-09