/*--------------------------------*- C++ -*----------------------------------*\
  =========                 |
  \\      /  F ield         | OpenFOAM: The Open Source CFD Toolbox
   \\    /   O peration     | Website:  https://openfoam.org
    \\  /    A nd           | Version:  13
     \\/     M anipulation  |
\*---------------------------------------------------------------------------*/
FoamFile
{
    format      ascii;
    class       volScalarField;
    location    "16.799187";
    object      pMean;
}
// * * * * * * * * * * * * * * * * * * * * * * * * * * * * * * * * * * * * * //

dimensions      [0 2 -2 0 0 0 0];

internalField   nonuniform List<scalar> 
17140
(
2.7654858
2.7653264
2.7651339
2.7649381
2.7647262
2.7644953
2.764245
2.7639748
2.763684
2.7633722
2.7630391
2.7626843
2.7623075
2.7619079
2.7614839
2.7610328
2.7605491
2.7600246
2.7594456
2.7587922
2.7580351
2.7571338
2.7560338
2.7546623
2.7529249
2.7507086
2.7479095
2.7444491
2.7402598
2.7352354
2.7291769
2.7218417
2.7129985
2.7024009
2.6897822
2.6748642
2.6573673
2.637029
2.6136334
2.5870545
2.5573147
2.5246569
2.4896333
2.4531815
2.4166512
2.3818816
2.3510346
2.3260327
2.3088096
2.3010341
2.3038793
2.3181285
2.3442669
2.3821928
2.4310865
2.4893473
2.5545462
2.6232692
2.6924091
2.7564862
2.8113408
2.8476108
2.8634088
2.851957
2.8289326
2.7631637
2.7630076
2.7628191
2.7626271
2.7624194
2.7621929
2.7619473
2.7616822
2.7613969
2.7610909
2.760764
2.7604159
2.7600462
2.7596543
2.7592385
2.7587962
2.7583224
2.7578086
2.7572417
2.7566017
2.7558598
2.7549758
2.7538952
2.752546
2.7508337
2.7486452
2.745875
2.7424436
2.7382821
2.733285
2.727256
2.7199514
2.7111374
2.7005671
2.6879723
2.6730734
2.655589
2.6352548
2.6118532
2.5852561
2.5554848
2.5227822
2.4877006
2.4511783
2.4145799
2.37974
2.3487873
2.323736
2.3064939
2.2986741
2.3014741
2.3156833
2.3417549
2.3796028
2.4284225
2.4865625
2.5516443
2.6202972
2.6894121
2.7535353
2.8085114
2.8450307
2.8611884
2.8501596
2.8276234
2.7573647
2.7572165
2.7570378
2.7568553
2.7566577
2.7564421
2.7562083
2.7559558
2.7556839
2.7553924
2.7550808
2.754749
2.7543967
2.7540234
2.7536278
2.7532075
2.7527575
2.7522701
2.7517325
2.7511254
2.7504207
2.7495788
2.748546
2.7472511
2.7456009
2.7434811
2.7407831
2.7374235
2.7333305
2.7284018
2.7224463
2.7152176
2.7064766
2.6959743
2.6834392
2.6685878
2.6511344
2.6308102
2.6073925
2.5807494
2.5508991
2.5180842
2.4828601
2.4461709
2.4094061
2.3744227
2.3433035
2.3181003
2.3007569
2.2928654
2.2955807
2.3096634
2.335572
2.373237
2.4218673
2.4797769
2.5446041
2.6130202
2.6820358
2.7462853
2.8016767
2.8389598
2.8560404
2.8459722
2.8243215
2.7481995
2.7480639
2.747901
2.7477335
2.7475519
2.7473538
2.7471387
2.7469062
2.7466557
2.746387
2.7460997
2.7457939
2.7454693
2.7451257
2.744762
2.744376
2.7439636
2.7435176
2.7430259
2.7424701
2.7418232
2.7410468
2.7400883
2.7388779
2.7373242
2.7353125
2.7327287
2.7294826
2.7254985
2.7206776
2.7148374
2.7077292
2.6991055
2.688713
2.6762756
2.6615037
2.644105
2.6238036
2.6003699
2.5736653
2.5437041
2.5107292
2.4753
2.4383723
2.4013712
2.366177
2.3348334
2.309449
2.2919742
2.2839823
2.2865897
2.3005175
2.3262082
2.3635973
2.4119026
2.4693958
2.533759
2.6017367
2.6704956
2.73485
2.7908409
2.8292842
2.8478004
2.8392549
2.8190731
2.7359687
2.7358501
2.7357083
2.735561
2.7354012
2.7352266
2.7350368
2.7348314
2.7346098
2.734372
2.7341176
2.7338468
2.7335595
2.7332556
2.7329345
2.7325945
2.7322321
2.7318406
2.7314094
2.730921
2.7303499
2.7296591
2.7287977
2.7276976
2.7262701
2.7244016
2.7219715
2.7188776
2.7150396
2.7103627
2.7046745
2.6977275
2.6892639
2.6790226
2.6667221
2.652065
2.634751
2.6144951
2.5910588
2.564296
2.5342156
2.5010612
2.4653985
2.4282029
2.3909451
2.3555094
2.3239315
2.2983788
2.2807963
2.2727375
2.2752522
2.2890154
2.3144566
2.3515263
2.3994454
2.456428
2.5201906
2.5875904
2.6559999
2.7204327
2.7771153
2.816902
2.8371189
2.8304965
2.8122043
2.7211668
2.7210691
2.7209529
2.7208307
2.7206976
2.720552
2.7203933
2.7202214
2.7200355
2.7198358
2.7196219
2.7193942
2.7191528
2.7188977
2.7186286
2.7183444
2.7180421
2.7177163
2.717357
2.7169485
2.7164668
2.7158767
2.7151295
2.7141593
2.7128801
2.711182
2.7089375
2.7060306
2.7023728
2.6978695
2.6923609
2.6856091
2.6773442
2.6672931
2.6551684
2.6406645
2.6234716
2.6032948
2.5798855
2.5530887
2.5229078
2.4895868
2.4536995
2.4162474
2.3787526
2.3430834
2.3113161
2.2856469
2.2680113
2.2599435
2.2624217
2.2760544
2.3012512
2.3379716
2.385448
2.4418443
2.504916
2.5716428
2.6396145
2.7040721
2.7614504
2.8026197
2.824722
2.8203062
2.8043047
2.7044637
2.7043896
2.7043019
2.7042084
2.7041063
2.7039941
2.7038716
2.7037383
2.7035939
2.7034382
2.7032713
2.7030935
2.7029048
2.7027058
2.7024962
2.7022754
2.702041
2.7017884
2.701509
2.7011884
2.7008044
2.7003241
2.6997009
2.6988717
2.6977536
2.696241
2.6942044
2.6915137
2.6880635
2.683756
2.6784468
2.6719126
2.6638758
2.65405
2.6421382
2.6278275
2.6107982
2.5907451
2.5674092
2.5406259
2.5103925
2.4769536
2.4408933
2.4032443
2.3655683
2.3297288
2.2978484
2.2721181
2.2544831
2.2464557
2.2489494
2.2625108
2.2875205
2.3239228
2.3709644
2.4267834
2.4891677
2.5552419
2.6228006
2.6872891
2.7452969
2.7877089
2.8115663
2.8094491
2.795977
2.6866687
2.6866203
2.6865625
2.6865006
2.6864325
2.6863571
2.6862742
2.6861834
2.6860846
2.6859776
2.6858625
2.6857394
2.6856089
2.6854711
2.6853263
2.685174
2.6850122
2.6848372
2.6846414
2.6844118
2.684128
2.6837593
2.6832618
2.6825753
2.6816202
2.6802952
2.6784754
2.6760187
2.6727953
2.6687003
2.6636024
2.6572934
2.6495026
2.6399308
2.6282666
2.6141892
2.5973711
2.577497
2.5542977
2.5275992
2.497392
2.4639208
2.4277823
2.3900426
2.3522766
2.3163652
2.2844537
2.2587029
2.2410919
2.2331275
2.2356735
2.2492042
2.2740822
2.3102425
2.3569089
2.4122177
2.4739823
2.5394614
2.6066312
2.6710133
2.7294274
2.7728277
2.7983403
2.7986073
2.7877003
2.6686774
2.6686556
2.6686292
2.6686001
2.6685675
2.6685306
2.6684894
2.6684435
2.6683926
2.6683369
2.6682764
2.6682113
2.6681418
2.6680684
2.6679911
2.6679096
2.6678225
2.6677261
2.6676137
2.6674736
2.6672871
2.6670254
2.6666474
2.6660958
2.6652949
2.6641474
2.6625334
2.6603116
2.6573319
2.6534607
2.6485742
2.6424921
2.6349508
2.6256472
2.614262
2.6004607
2.5839073
2.5642786
2.5412958
2.5147758
2.4847031
2.4513229
2.4152451
2.377565
2.3398431
2.3039885
2.2721365
2.2464076
2.2288342
2.2209324
2.2235201
2.2370322
2.2618396
2.2978404
2.3441981
2.3990262
2.4602114
2.5251474
2.5919747
2.6564757
2.7154882
2.7596906
2.7864082
2.7882939
2.7798549
2.6514093
2.651414
2.6514186
2.6514223
2.6514251
2.6514268
2.6514273
2.6514264
2.651424
2.6514201
2.6514148
2.6514082
2.6514006
2.6513921
2.6513827
2.651372
2.6513585
2.6513387
2.6513065
2.6512509
2.6511542
2.6509898
2.6507186
2.6502867
2.6496217
2.6486309
2.6471991
2.6451892
2.6424476
2.6388159
2.6341444
2.6282731
2.6209755
2.6119504
2.6008652
2.5873788
2.5711466
2.5518377
2.5291666
2.5029437
2.4731492
2.4400301
2.4042066
2.3667862
2.3293062
2.293687
2.2620222
2.2364083
2.2189107
2.2110596
2.2136895
2.2272414
2.2520334
2.2879089
2.333999
2.3884109
2.4491604
2.5138316
2.5806644
2.6452516
2.7042218
2.7482704
2.7754767
2.7786043
2.7726665
2.635725
2.6357544
2.6357882
2.6358228
2.6358591
2.6358975
2.6359378
2.63598
2.6360241
2.6360702
2.6361183
2.6361685
2.6362209
2.6362754
2.6363319
2.6363895
2.6364465
2.6364994
2.636542
2.6365637
2.6365476
2.6364683
2.6362888
2.6359577
2.6354061
2.6345451
2.6332647
2.6314324
2.6288964
2.6254926
2.6210529
2.6153996
2.6083237
2.5995604
2.5887872
2.5756517
2.5598016
2.5409011
2.5186602
2.4928863
2.4635594
2.4309283
2.3956189
2.3587178
2.3217496
2.2866135
2.2553416
2.2300068
2.212669
2.2049105
2.2075951
2.2210904
2.2457519
2.2814299
2.3272007
2.3812198
2.4415769
2.5059428
2.5724875
2.6366866
2.6949594
2.7382617
2.7656893
2.7699667
2.7661917
2.622354
2.6224051
2.6224646
2.6225265
2.6225927
2.6226638
2.6227398
2.6228209
2.6229072
2.6229989
2.6230959
2.6231984
2.6233063
2.6234194
2.6235371
2.6236584
2.6237809
2.623901
2.624012
2.6241033
2.6241584
2.6241527
2.6240505
2.6238026
2.6233426
2.6225857
2.6214259
2.6197365
2.6173691
2.6141593
2.6099334
2.6045062
2.597671
2.5891756
2.5787194
2.5659642
2.55056
2.5321693
2.5105017
2.4853645
2.4567377
2.4248689
2.3903799
2.3543206
2.3181898
2.283832
2.2532157
2.2283737
2.2113553
2.2036931
2.2061926
2.219397
2.2437132
2.2789871
2.3242522
2.3776792
2.4375306
2.5014528
2.5675863
2.6312468
2.6885081
2.7305298
2.7574285
2.7623594
2.7604628
2.611814
2.6118825
2.6119626
2.6120466
2.6121369
2.6122348
2.6123403
2.6124538
2.6125756
2.6127058
2.6128447
2.6129923
2.6131485
2.613313
2.6134851
2.6136633
2.613845
2.614026
2.6141993
2.6143542
2.6144741
2.6145348
2.6145017
2.6143269
2.6139463
2.6132778
2.6122192
2.6106485
2.6084237
2.6053829
2.6013496
2.5961417
2.5895553
2.5813517
2.5712543
2.5589361
2.5440583
2.5262918
2.5053579
2.4810668
2.4533993
2.422595
2.3892538
2.3543934
2.3194549
2.2861819
2.2564805
2.2323672
2.2157006
2.2079607
2.2100846
2.2228283
2.2466162
2.2812547
2.3257916
2.3784869
2.4378024
2.5013458
2.5669951
2.629293
2.6845565
2.7244008
2.7502421
2.755743
2.7554852
2.6043658
2.6044462
2.6045406
2.60464
2.6047476
2.6048647
2.6049917
2.605129
2.6052772
2.6054366
2.6056076
2.6057904
2.605985
2.6061911
2.6064079
2.6066337
2.606866
2.6071002
2.6073294
2.6075425
2.6077233
2.6078481
2.6078831
2.6077817
2.6074817
2.6069027
2.6059455
2.6044911
2.6024032
2.5995286
2.595703
2.5906952
2.5843834
2.5765147
2.5668164
2.5549983
2.5407558
2.5237642
2.50375
2.4805346
2.4541011
2.4246748
2.3928209
2.3595032
2.3260702
2.2941535
2.2656164
2.2422624
2.2258645
2.217926
2.2195874
2.2316782
2.2547228
2.2884978
2.3320759
2.383918
2.4425254
2.5053924
2.5697396
2.6299893
2.682378
2.7197866
2.7444016
2.7501603
2.7512923
2.5999717
2.600058
2.6001596
2.6002671
2.6003838
2.6005115
2.6006505
2.6008017
2.6009657
2.6011431
2.6013346
2.6015405
2.6017611
2.6019963
2.6022454
2.6025072
2.6027792
2.6030572
2.6033343
2.6036005
2.6038399
2.6040302
2.604139
2.6041217
2.6039185
2.6034517
2.6026244
2.6013205
2.5994059
2.5967272
2.5931263
2.5884789
2.5824798
2.5749029
2.5656972
2.5544958
2.5409931
2.5249087
2.5060006
2.484095
2.4591678
2.431422
2.4013721
2.3698876
2.3382008
2.3078819
2.2805307
2.2578796
2.2416832
2.2334587
2.2344978
2.2458061
2.2679074
2.3005792
2.3430055
2.3938273
2.451565
2.5132562
2.5756536
2.6327493
2.6819034
2.7161747
2.7397116
2.7455574
2.747891
2.5983456
2.5984317
2.5985339
2.5986418
2.5987595
2.5988887
2.5990301
2.5991846
2.5993531
2.5995364
2.5997354
2.5999509
2.6001834
2.6004331
2.6007
2.6009833
2.6012811
2.6015899
2.6019043
2.6022152
2.6025088
2.6027648
2.6029539
2.6030352
2.6029524
2.6026316
2.6019792
2.6008804
2.599202
2.5967956
2.5935038
2.5891673
2.5835414
2.5765951
2.5679377
2.5573429
2.5447365
2.5297712
2.5121947
2.4918398
2.4686804
2.4428862
2.4148925
2.385458
2.3557302
2.3270139
2.3008076
2.2788096
2.2626793
2.2540747
2.254427
2.2648186
2.2858005
2.3171795
2.3583142
2.4079936
2.4644872
2.5242994
2.5836457
2.6370555
2.6823469
2.7139268
2.7361412
2.7419721
2.7453222
2.5989569
2.5990377
2.5991345
2.599236
2.5993472
2.5994698
2.5996047
2.5997526
2.5999148
2.6000924
2.6002864
2.6004978
2.6007277
2.6009768
2.6012455
2.6015339
2.601841
2.6021647
2.6025009
2.6028428
2.6031796
2.6034944
2.6037624
2.6039481
2.604002
2.6038571
2.6034251
2.6025967
2.6012418
2.5992113
2.5963458
2.5924707
2.5874587
2.5810957
2.5731461
2.5636122
2.552048
2.5382978
2.5222279
2.5036409
2.4824801
2.4588524
2.4330992
2.4058947
2.3781229
2.3509711
2.3258751
2.3043604
2.2882098
2.279157
2.278752
2.2881129
2.3078028
2.3377658
2.3775464
2.4259126
2.4806011
2.5375647
2.5931878
2.6423813
2.6836866
2.7126772
2.733698
2.739382
2.743597
2.6012009
2.6012723
2.6013584
2.6014484
2.6015472
2.6016566
2.6017774
2.6019107
2.6020577
2.6022195
2.6023973
2.6025926
2.6028067
2.6030407
2.6032958
2.6035726
2.6038716
2.6041919
2.6045315
2.6048862
2.6052489
2.6056074
2.6059432
2.6062285
2.6064235
2.6064719
2.6062983
2.6058043
2.6048672
2.6033422
2.6010687
2.5978716
2.593595
2.5880598
2.5811435
2.572595
2.5622888
2.5501426
2.5357997
2.5191741
2.5001945
2.4788896
2.4555256
2.4305477
2.4046993
2.379073
2.3548973
2.3337685
2.3175104
2.307958
2.3067043
2.3148826
2.3331923
2.3617458
2.4001115
2.4466999
2.4989893
2.5523258
2.603691
2.6480966
2.6860042
2.7124367
2.7323473
2.7377896
2.7427424
2.6044182
2.6044776
2.6045498
2.6046248
2.6047075
2.6047995
2.6049016
2.6050148
2.6051402
2.6052792
2.6054329
2.605603
2.605791
2.6059983
2.6062266
2.6064774
2.6067518
2.6070505
2.6073735
2.6077192
2.608084
2.6084611
2.6088388
2.6091982
2.6095112
2.6097364
2.6098152
2.6096676
2.6091899
2.6082522
2.606702
2.6043683
2.6010788
2.596649
2.5909403
2.5837989
2.5751152
2.5646256
2.5522651
2.5378655
2.5212427
2.5024018
2.4814367
2.4586545
2.4346836
2.4103731
2.3869829
2.3660884
2.3496112
2.3394686
2.3372333
2.3441332
2.3610805
2.3882805
2.4251836
2.4698582
2.5188292
2.5678846
2.6144052
2.654512
2.6890489
2.7132161
2.7320683
2.7371843
2.7427644
2.6080603
2.6081069
2.6081638
2.6082227
2.608288
2.608361
2.6084423
2.6085329
2.6086339
2.6087464
2.6088717
2.6090114
2.609167
2.6093403
2.6095329
2.609747
2.6099842
2.6102464
2.6105349
2.6108505
2.6111928
2.6115592
2.6119447
2.6123392
2.6127264
2.6130806
2.6133638
2.6135207
2.6134754
2.6131275
2.6123508
2.6109942
2.6088909
2.6058612
2.6017415
2.5963463
2.5895169
2.5811382
2.571047
2.5590164
2.5449059
2.5285683
2.5099845
2.4893403
2.4670198
2.4438382
2.4210172
2.400234
2.3834115
2.3725333
2.369235
2.3749583
2.3908155
2.4169255
2.4523542
2.4942844
2.5391219
2.5836015
2.6251527
2.6614288
2.6929329
2.7149856
2.7328243
2.7375593
2.7436752
2.6116945
2.6117288
2.6117703
2.611814
2.6118626
2.6119171
2.6119782
2.6120465
2.6121231
2.612209
2.6123053
2.6124134
2.6125348
2.6126711
2.6128243
2.6129963
2.6131893
2.6134057
2.6136476
2.6139172
2.6142163
2.6145459
2.6149052
2.6152918
2.6156999
2.6161187
2.6165288
2.6169009
2.6171909
2.6173375
2.6172568
2.6168387
2.6159481
2.6144249
2.612096
2.608772
2.6042655
2.5983633
2.590842
2.5815048
2.570075
2.556308
2.5400793
2.5213624
2.5004819
2.4781876
2.4557571
2.4349113
2.4176337
2.4060049
2.4018775
2.4068205
2.4220965
2.4472515
2.4806351
2.5188546
2.5595022
2.598655
2.6362511
2.6688655
2.6976065
2.7177117
2.7345885
2.7388995
2.7454772
2.6150757
2.6150993
2.6151275
2.6151579
2.6151918
2.6152299
2.6152728
2.6153211
2.6153756
2.6154374
2.6155073
2.6155864
2.6156757
2.6157765
2.6158903
2.6160189
2.6161648
2.6163305
2.6165186
2.6167321
2.6169737
2.6172467
2.6175538
2.6178976
2.6182794
2.6186991
2.6191532
2.619634
2.6201282
2.6206138
2.6210542
2.6213946
2.6215576
2.6214336
2.6208772
2.6197012
2.6176797
2.6145424
2.6099767
2.6036231
2.5950964
2.5840224
2.570066
2.5531327
2.5335095
2.5119233
2.4897382
2.4687359
2.4509047
2.4388128
2.4343382
2.4393743
2.4545084
2.4783747
2.5089488
2.5428915
2.5788929
2.6138243
2.6474596
2.6768192
2.7030783
2.7213687
2.7373298
2.7411882
2.7481724
2.6181049
2.6181194
2.6181367
2.6181556
2.6181767
2.6182006
2.6182277
2.6182591
2.6182955
2.6183357
2.6183788
2.6184262
2.6184808
2.618546
2.6186246
2.6187174
2.6188238
2.6189446
2.6190813
2.6192363
2.6194141
2.6196199
2.6198588
2.6201369
2.6204604
2.6208358
2.6212709
2.621775
2.6223567
2.6230236
2.6237816
2.6246311
2.6255582
2.6265258
2.6274512
2.6281928
2.6285267
2.6281234
2.6265577
2.6233142
2.6178102
2.6094528
2.5977896
2.5826313
2.5641887
2.5432075
2.5211433
2.4997818
2.4819543
2.4702535
2.4666093
2.4723659
2.4870232
2.5090111
2.5357117
2.5662126
2.5975
2.6286076
2.6588762
2.6853097
2.709303
2.7259141
2.7410174
2.7444082
2.7517498
2.6208204
2.6208267
2.6208343
2.6208426
2.6208521
2.6208632
2.6208766
2.6208923
2.6209107
2.620932
2.6209563
2.6209845
2.6210172
2.6210551
2.6210986
2.6211476
2.6212045
2.6212747
2.6213603
2.6214594
2.621574
2.6217118
2.6218829
2.6220951
2.6223528
2.6226634
2.6230433
2.6235132
2.6240964
2.6248206
2.6257174
2.6268374
2.6282249
2.6298924
2.6318328
2.6339788
2.6361445
2.6380072
2.6390709
2.6386559
2.6359936
2.6303034
2.6209146
2.6075197
2.59023
2.5698227
2.5481226
2.5274306
2.5111434
2.500979
2.4988664
2.5049538
2.518717
2.5375825
2.5614448
2.5875947
2.6155609
2.6433285
2.6705276
2.6943109
2.7162569
2.7313167
2.7456205
2.7485379
2.7562023
2.6232441
2.6232418
2.6232391
2.6232363
2.6232335
2.6232307
2.6232281
2.6232265
2.6232269
2.6232297
2.6232322
2.6232325
2.6232322
2.6232337
2.6232389
2.623251
2.6232739
2.6233112
2.623363
2.6234238
2.6234918
2.6235757
2.6236856
2.62383
2.6240179
2.6242618
2.6245798
2.6249992
2.6255539
2.6262827
2.6272343
2.6284687
2.6300574
2.6320642
2.6345429
2.6374869
2.6407672
2.6441
2.6469993
2.6487494
2.6484427
2.6450931
2.6378894
2.6261739
2.6101605
2.5910583
2.5711506
2.5528672
2.538827
2.5310147
2.5299265
2.5357489
2.5478165
2.5646541
2.585151
2.6083456
2.6331609
2.657902
2.6824011
2.7038087
2.7239054
2.7375398
2.7511064
2.7535553
2.7615257
2.62532
2.6253091
2.6252963
2.6252829
2.6252682
2.6252519
2.6252345
2.6252163
2.6251977
2.6251785
2.6251583
2.6251371
2.6251162
2.6250978
2.6250834
2.6250734
2.6250667
2.6250614
2.62506
2.625069
2.6250955
2.6251454
2.6252208
2.6253242
2.6254679
2.625671
2.6259511
2.626331
2.6268452
2.6275363
2.6284568
2.6296754
2.6312738
2.6333431
2.635969
2.6391958
2.642955
2.6470273
2.6510025
2.6541492
2.6555161
2.6539728
2.6484119
2.6384765
2.624671
2.6082503
2.5912598
2.5760748
2.5651712
2.5590551
2.5584204
2.5643007
2.574578
2.5896853
2.6076588
2.6281276
2.650281
2.6724134
2.6945102
2.7137853
2.7322207
2.7445522
2.7574439
2.7594419
2.7677123
2.626676
2.6266581
2.626637
2.6266148
2.6265908
2.6265647
2.6265365
2.6265063
2.6264738
2.6264392
2.6264027
2.6263644
2.6263252
2.6262857
2.6262469
2.6262105
2.6261782
2.6261518
2.6261327
2.6261222
2.6261238
2.6261418
2.6261813
2.6262467
2.6263503
2.626516
2.6267665
2.6271182
2.6275937
2.6282385
2.629119
2.6302965
2.6318349
2.6338502
2.6364351
2.639623
2.6434186
2.6476867
2.6520436
2.6558219
2.6580514
2.6577982
2.6541598
2.6467001
2.6357126
2.622601
2.6091344
2.5975136
2.5891479
2.5841764
2.5848664
2.5902209
2.5998788
2.6128683
2.6289283
2.6472025
2.6670471
2.686868
2.7068467
2.7242232
2.741172
2.7523197
2.7645995
2.7661678
2.7747479
2.6270369
2.6270159
2.6269913
2.6269654
2.6269373
2.6269069
2.626874
2.6268386
2.6268008
2.6267606
2.6267182
2.6266737
2.6266278
2.6265808
2.6265336
2.6264873
2.6264432
2.6264031
2.6263696
2.6263453
2.6263339
2.6263422
2.6263803
2.6264534
2.6265606
2.6267092
2.6269239
2.6272357
2.6276641
2.628235
2.6290169
2.6300907
2.6315111
2.6333227
2.6356308
2.6385688
2.6421527
2.6463034
2.6507169
2.6548304
2.657928
2.6590462
2.6573034
2.6522889
2.6443586
2.6347256
2.6248588
2.6165142
2.6101255
2.6074881
2.6092534
2.6142345
2.6228672
2.6347202
2.6492292
2.6656067
2.6834735
2.7012944
2.7194167
2.735108
2.750731
2.7608143
2.7725478
2.7737331
2.7826235
2.6259955
2.6259777
2.6259567
2.6259347
2.6259108
2.6258849
2.6258569
2.6258268
2.6257947
2.6257604
2.6257244
2.6256867
2.6256478
2.6256081
2.6255685
2.6255298
2.6254933
2.6254606
2.6254339
2.6254157
2.6254089
2.6254177
2.6254481
2.6255072
2.6256047
2.6257515
2.6259593
2.6262488
2.6266499
2.62719
2.6279074
2.6288512
2.6300907
2.6317376
2.6338987
2.6366457
2.6400151
2.6440042
2.6484524
2.6529195
2.6567248
2.6590166
2.6590404
2.6564057
2.6514638
2.6451841
2.6388128
2.6333685
2.629631
2.628889
2.6310775
2.6362635
2.6445403
2.6554122
2.6686316
2.6834495
2.6996349
2.715719
2.7322199
2.7464236
2.7608749
2.7700076
2.7812595
2.7821066
2.7912976
2.6238965
2.6238853
2.6238722
2.6238585
2.6238436
2.6238276
2.6238103
2.6237918
2.6237722
2.6237516
2.6237301
2.623708
2.6236857
2.6236636
2.6236425
2.6236232
2.623607
2.6235954
2.6235904
2.6235945
2.6236109
2.6236437
2.6236981
2.62378
2.6238966
2.624061
2.6242874
2.6245858
2.6249661
2.6254584
2.6261429
2.6270922
2.6283182
2.6298816
2.6319275
2.6345797
2.6379013
2.6419056
2.6464697
2.6512389
2.6556382
2.6589718
2.6605311
2.6600643
2.657869
2.6547831
2.6516867
2.6487712
2.6473799
2.6481962
2.6513569
2.6568731
2.6648728
2.6750705
2.6872886
2.7008103
2.7155732
2.7301644
2.745261
2.7581622
2.7715832
2.7798741
2.790705
2.791261
2.8007674
2.6209839
2.6209797
2.6209749
2.6209699
2.6209646
2.6209591
2.6209535
2.6209477
2.620942
2.6209365
2.6209316
2.6209275
2.6209248
2.6209241
2.6209261
2.6209319
2.6209426
2.62096
2.6209865
2.621025
2.6210795
2.6211542
2.6212539
2.6213831
2.6215459
2.621755
2.6220227
2.6223788
2.6228712
2.6234971
2.6242603
2.625239
2.62652
2.6281851
2.6303302
2.6330634
2.6364709
2.6405875
2.6453119
2.6503808
2.6553099
2.6595148
2.6624447
2.6639321
2.6643264
2.6641934
2.6633991
2.6629206
2.6638671
2.6661827
2.6702486
2.6761969
2.6841648
2.6938904
2.7053147
2.7177762
2.7313475
2.744659
2.7585492
2.7703053
2.7828297
2.7903784
2.8008665
2.8011435
2.8110725
2.6175962
2.6175971
2.6175984
2.6175999
2.6176019
2.6176044
2.6176077
2.617612
2.6176175
2.6176245
2.6176335
2.617645
2.6176597
2.6176785
2.6177023
2.6177327
2.6177714
2.6178206
2.6178831
2.6179624
2.618063
2.618188
2.6183438
2.6185353
2.6187768
2.6190997
2.6195103
2.6199986
2.620594
2.6213426
2.6222802
2.623459
2.6249426
2.6268035
2.6291455
2.6320887
2.635719
2.6400719
2.6450779
2.6505105
2.6559821
2.6610359
2.6652191
2.668559
2.6712203
2.6730725
2.6745456
2.6766696
2.6793671
2.6830604
2.6880907
2.6945506
2.7025899
2.7120074
2.7228285
2.7344284
2.7470069
2.7592284
2.7720862
2.7828429
2.794604
2.8014903
2.811722
2.8117318
2.8221278
2.6136394
2.6136436
2.6136488
2.6136547
2.6136617
2.6136699
2.6136797
2.6136914
2.6137053
2.6137221
2.6137423
2.6137667
2.6137963
2.6138323
2.6138763
2.61393
2.6139959
2.6140767
2.6141761
2.6142985
2.6144486
2.6146334
2.6148634
2.6151482
2.6155005
2.6159306
2.6164535
2.6170914
2.6178707
2.6188247
2.6199937
2.6214225
2.6231708
2.625338
2.6280302
2.6313426
2.6353651
2.6401378
2.6455884
2.6515283
2.6576279
2.6635498
2.668975
2.6739086
2.6781853
2.6820611
2.6859465
2.6898534
2.6941749
2.6991811
2.7051318
2.7121303
2.7203389
2.7295766
2.7399426
2.7508477
2.7626047
2.7739016
2.7858823
2.7957727
2.8068939
2.8131827
2.8232509
2.8230078
2.8339025
2.6088446
2.608852
2.608861
2.6088712
2.608883
2.6088967
2.6089129
2.6089319
2.6089544
2.608981
2.6090127
2.6090505
2.6090956
2.6091498
2.6092149
2.6092934
2.6093883
2.6095032
2.6096426
2.6098117
2.6100173
2.610269
2.6105751
2.6109454
2.6113954
2.6119415
2.6126051
2.6134119
2.6143898
2.6155696
2.6169928
2.6187283
2.6208593
2.6234683
2.6266577
2.6305314
2.6351646
2.6405747
2.6466586
2.6532655
2.660122
2.6669034
2.6735344
2.6798399
2.6859516
2.6917071
2.6972548
2.7028127
2.708588
2.7147745
2.7216037
2.7291506
2.7375813
2.7467316
2.7567626
2.7671106
2.7781904
2.7887062
2.7999445
2.8090902
2.8196735
2.8254582
2.8354114
2.8349601
2.8463759
2.6027788
2.6027909
2.6028056
2.6028219
2.6028406
2.6028623
2.6028874
2.6029166
2.6029507
2.6029905
2.6030373
2.6030923
2.6031573
2.6032341
2.6033253
2.6034338
2.6035632
2.6037178
2.603903
2.6041251
2.6043917
2.6047122
2.6050983
2.6055631
2.6061255
2.6068052
2.6076221
2.608604
2.6097903
2.6112325
2.6129911
2.6151384
2.6177619
2.6209645
2.6248502
2.6295059
2.6349751
2.6412285
2.6481502
2.6555969
2.6632844
2.6710982
2.6790086
2.6868269
2.6944037
2.7016484
2.708738
2.7157385
2.7228013
2.7300645
2.7377105
2.74579
2.7544736
2.7636023
2.7733891
2.7832904
2.7938132
2.8036706
2.8142824
2.822788
2.8329325
2.8382719
2.8481812
2.8475502
2.8594993
2.5950768
2.5950959
2.5951191
2.5951444
2.5951733
2.5952064
2.5952442
2.5952878
2.595338
2.595396
2.5954632
2.5955413
2.5956323
2.5957386
2.595863
2.5960091
2.5961809
2.5963838
2.5966239
2.5969075
2.5972441
2.5976471
2.5981281
2.5987009
2.5993838
2.6002027
2.6011934
2.6023946
2.6038555
2.6056393
2.6078254
2.610509
2.6137967
2.6177969
2.6226019
2.628265
2.6347796
2.642068
2.6500148
2.6584234
2.6671696
2.6763034
2.6854884
2.6945897
2.7034285
2.7120729
2.7205174
2.7287985
2.7370129
2.7452422
2.7536353
2.7622178
2.7711613
2.7803085
2.7899165
2.7994569
2.8095188
2.8188198
2.8289028
2.8368739
2.8466365
2.8516258
2.8615082
2.8607611
2.8732134
2.5854827
2.5855112
2.5855458
2.5855833
2.5856256
2.5856736
2.5857282
2.5857904
2.5858615
2.5859427
2.5860359
2.5861431
2.5862666
2.5864095
2.5865742
2.5867627
2.5869823
2.5872439
2.5875507
2.5879066
2.5883224
2.5888131
2.5893967
2.5900926
2.5909246
2.5919255
2.5931371
2.5946141
2.5964263
2.5986614
2.6014238
2.6048303
2.6089991
2.614033
2.6199917
2.6268772
2.6346348
2.6431525
2.6522775
2.6618424
2.671989
2.6823771
2.6927412
2.7029962
2.7131296
2.7230447
2.7327175
2.7421465
2.7513853
2.7604767
2.7695415
2.7785835
2.7877757
2.7969604
2.806432
2.8156737
2.8253487
2.8341823
2.8438187
2.8513358
2.8607884
2.8655001
2.8753737
2.8745194
2.8875412
2.5737641
2.5738044
2.5738529
2.5739052
2.5739641
2.5740309
2.5741064
2.5741915
2.5742872
2.5743939
2.5745126
2.5746502
2.5748152
2.5750045
2.5752147
2.5754536
2.5757305
2.5760527
2.5764283
2.5768669
2.5773795
2.5779807
2.5786912
2.5795377
2.5805545
2.5817869
2.5832941
2.585153
2.5874598
2.5903303
2.5938946
2.5982838
2.6036129
2.6099521
2.6173035
2.6256261
2.6348013
2.6446828
2.6551158
2.666173
2.6776464
2.6891587
2.7007236
2.7122522
2.7236025
2.7346957
2.7454837
2.7559364
2.7660804
2.7759287
2.7855814
2.7950254
2.8044364
2.8136574
2.8230135
2.8320023
2.8413449
2.8497759
2.8590299
2.866175
2.8753731
2.8799033
2.8897453
2.8890619
2.9022384
2.5600308
2.5600848
2.5601476
2.5602119
2.5602832
2.5603701
2.5604762
2.5605923
2.5607127
2.5608454
2.560998
2.561173
2.5613732
2.5616026
2.5618657
2.5621675
2.5625136
2.56291
2.5633658
2.563895
2.5645145
2.5652454
2.5661156
2.567162
2.5684337
2.5699956
2.5719316
2.5743471
2.5773685
2.5811367
2.5857955
2.5914671
2.5982346
2.606106
2.6150439
2.6249535
2.6356223
2.6469295
2.6589431
2.6714496
2.6841182
2.6969192
2.7097697
2.7224979
2.7350004
2.7471809
2.758974
2.770332
2.7812625
2.7917593
2.8019083
2.8116865
2.8212696
2.8305068
2.8397478
2.8485047
2.8575483
2.8656304
2.8745442
2.8813791
2.8903468
2.8947676
2.904569
2.9039132
2.9172949
2.5444257
2.5444968
2.5445712
2.5446468
2.5447352
2.5448372
2.5449534
2.5450855
2.5452357
2.5454072
2.5456055
2.5458349
2.546094
2.5463793
2.5466939
2.5470489
2.547455
2.5479216
2.548461
2.5490893
2.5498278
2.5507049
2.5517586
2.5530397
2.5546161
2.5565764
2.5590328
2.5621228
2.5660027
2.5708372
2.5767777
2.5839271
2.5923339
2.6019725
2.6127234
2.6243708
2.6367926
2.64996
2.6636521
2.6775467
2.6916195
2.705786
2.719881
2.7337844
2.7473796
2.7605624
2.7732588
2.7854115
2.7970169
2.8080572
2.8186108
2.8286477
2.8383481
2.8475694
2.8566813
2.8652161
2.8739772
2.8817451
2.8903537
2.8969438
2.9057066
2.9102019
2.919933
2.9201424
2.9343849
2.5269565
2.5270386
2.5271378
2.5272446
2.5273622
2.5274929
2.5276384
2.5278006
2.5279814
2.5281835
2.5284094
2.5286628
2.5289476
2.5292687
2.5296326
2.530047
2.5305221
2.531071
2.5317109
2.5324648
2.5333637
2.5344489
2.5357757
2.5374174
2.5394694
2.542052
2.5453114
2.5494151
2.5545404
2.5608545
2.5684826
2.5774824
2.5878533
2.599445
2.6121146
2.6256717
2.6400791
2.6550385
2.6702116
2.6856084
2.7011398
2.7166355
2.7319717
2.7470162
2.7616454
2.7757528
2.7892599
2.8021049
2.814278
2.825759
2.8366155
2.8468254
2.8565681
2.8657188
2.874661
2.8829532
2.8914219
2.8988857
2.9071929
2.9135702
2.9221155
2.9267843
2.9361929
2.9383371
2.9493223
2.5096214
2.5097169
2.5098337
2.5099544
2.5100873
2.5102354
2.5103998
2.5105827
2.5107861
2.5110131
2.5112669
2.5115516
2.5118723
2.5122354
2.5126492
2.5131246
2.5136758
2.5143219
2.5150884
2.5160095
2.5171313
2.5185149
2.5202407
2.5224124
2.5251599
2.5286394
2.5330294
2.5385177
2.5452814
2.5534587
2.5631154
2.5742605
2.5867464
2.6004058
2.6151072
2.630586
2.6466458
2.6630012
2.6796715
2.6965362
2.713413
2.7301637
2.7466439
2.7627121
2.7782422
2.7931255
2.8072837
2.8206563
2.8332322
2.8449926
2.8560045
2.8662557
2.8759263
2.8849213
2.8936183
2.9016336
2.9097639
2.9169359
2.9249081
2.9311268
2.9394273
2.9442596
2.9535244
2.9563646
2.9669773
2.4946364
2.494741
2.4948685
2.495
2.4951445
2.4953051
2.4954831
2.4956807
2.4959005
2.4961456
2.4964203
2.4967293
2.4970793
2.4974789
2.4979392
2.4984752
2.4991072
2.4998622
2.5007765
2.5018988
2.5032938
2.5050455
2.5072625
2.5100796
2.5136596
2.5181883
2.523864
2.5308786
2.5393897
2.5494884
2.5611885
2.5743981
2.5889323
2.604695
2.6211318
2.6382085
2.655748
2.6736711
2.6918155
2.7100031
2.7280928
2.7459293
2.7633637
2.7802545
2.796476
2.8119238
2.8265237
2.8402206
2.8530045
2.8648646
2.8758674
2.8860207
2.8955016
2.9042536
2.9126351
2.9203366
2.9280937
2.9349842
2.9425972
2.9487182
2.9567084
2.9618712
2.9707769
2.9749426
2.9846622
2.4850011
2.4851094
2.4852412
2.4853771
2.4855261
2.4856915
2.4858747
2.4860782
2.4863049
2.4865586
2.4868443
2.4871683
2.487539
2.4879679
2.4884701
2.4890661
2.4897834
2.4906592
2.4917428
2.4930997
2.4948149
2.4969975
2.4997831
2.5033355
2.5078431
2.5135101
2.5205388
2.5291053
2.539329
2.5512454
2.5647957
2.5798253
2.5962008
2.6133537
2.6311936
2.64979
2.6687937
2.6880305
2.707358
2.7266219
2.7456639
2.7643258
2.7824549
2.7999104
2.8165703
2.8323365
2.8471406
2.8609348
2.8737127
2.8854751
2.8962906
2.9061921
2.9153534
2.9237596
2.9317424
2.9390762
2.9464117
2.9530061
2.9602351
2.9662618
2.9739371
2.979376
2.988008
2.9929039
3.0024313
2.4822731
2.4823804
2.4825101
2.4826443
2.4827913
2.4829544
2.4831353
2.4833367
2.4835621
2.483816
2.4841045
2.4844358
2.4848207
2.4852741
2.485816
2.4864734
2.4872824
2.4882916
2.4895646
2.4911842
2.4932566
2.4959137
2.4993154
2.5036473
2.5091135
2.5159224
2.5242651
2.5342862
2.5460559
2.5595485
2.5746449
2.591171
2.6087456
2.6271331
2.6464456
2.6661973
2.6862537
2.7064634
2.7266624
2.7466871
2.7663715
2.7855519
2.8040746
2.8218024
2.8386191
2.8544347
2.8691871
2.8828371
2.8953846
2.9068411
2.9172877
2.9267795
2.9354881
2.9434415
2.9509377
2.9578382
2.9647025
2.9709718
2.9777961
2.9837227
2.9910884
2.9968155
3.0052038
3.0110092
3.0203868
2.4885284
2.4886296
2.4887506
2.4888773
2.4890162
2.4891704
2.4893418
2.4895336
2.4897498
2.489996
2.4902795
2.4906104
2.4910025
2.4914745
2.4920517
2.4927679
2.4936687
2.4948137
2.4962808
2.4981695
2.5006044
2.5037368
2.5077444
2.5128259
2.5191901
2.5270374
2.5365345
2.5477864
2.560812
2.5755322
2.5917802
2.6093211
2.6278893
2.6473837
2.6674419
2.6879142
2.7086265