/*--------------------------------*- C++ -*----------------------------------*\
  =========                 |
  \\      /  F ield         | OpenFOAM: The Open Source CFD Toolbox
   \\    /   O peration     | Website:  https://openfoam.org
    \\  /    A nd           | Version:  13
     \\/     M anipulation  |
\*---------------------------------------------------------------------------*/
FoamFile
{
    format      ascii;
    class       volScalarField;
    location    "29.400794";
    object      nut;
}
// * * * * * * * * * * * * * * * * * * * * * * * * * * * * * * * * * * * * * //

dimensions      [0 2 -1 0 0 0 0];

internalField   nonuniform List<scalar> 
17140
(
1.8901989e-18
3.6761858e-16
9.7916205e-15
9.9265126e-14
6.0030147e-13
2.6594864e-12
9.6025658e-12
3.0045924e-11
8.4640701e-11
2.2015711e-10
5.3807538e-10
1.2513419e-09
2.79502e-09
6.0388287e-09
1.2690332e-08
2.6051739e-08
5.2427519e-08
1.0372167e-07
2.021961e-07
3.8913196e-07
7.4050068e-07
1.3951521e-06
2.6052179e-06
4.8256605e-06
8.8721572e-06
1.6196698e-05
2.9361696e-05
5.2836806e-05
9.4285568e-05
0.00016649721
0.00028990525
0.00049495515
0.00082232092
0.0013181034
0.0020227152
0.0029569133
0.0041123621
0.0054514066
0.0069147513
0.0084323953
0.0099342599
0.011358883
0.012660031
0.013810379
0.014788076
0.015602051
0.016323306
0.016954456
0.017515752
0.018036918
0.018539723
0.019037274
0.019536219
0.020043214
0.020578898
0.0211797
0.021878488
0.022710249
0.023744382
0.024936196
0.025912007
0.025874171
0.024529639
0.022890121
0.024037092
1.8724364e-18
3.6416372e-16
9.6996101e-15
9.8332678e-14
5.9466595e-13
2.6345393e-12
9.5125771e-12
2.9764677e-11
8.3849455e-11
2.1810206e-10
5.3306102e-10
1.2397019e-09
2.7690738e-09
5.9828978e-09
1.2573095e-08
2.5811754e-08
5.1946144e-08
1.0277292e-07
2.0035474e-07
3.8560663e-07
7.3383363e-07
1.3826839e-06
2.5821426e-06
4.7833733e-06
8.795401e-06
1.6058701e-05
2.911604e-05
5.240425e-05
9.353365e-05
0.00016520736
0.00028772753
0.00049135764
0.00081661331
0.0013095419
0.0020106156
0.0029408305
0.0040922281
0.0054276588
0.0068882718
0.0084044516
0.0099064149
0.011333094
0.012638329
0.013794788
0.014780762
0.015604018
0.016336611
0.016982686
0.017562853
0.018108453
0.018642946
0.019181838
0.01973371
0.020304363
0.020907767
0.021565232
0.022283652
0.023051938
0.023840273
0.024484998
0.024542522
0.023438076
0.020842328
0.018476847
0.019425739
1.8417025e-18
3.5818634e-16
9.5404005e-15
9.671872e-14
5.8490666e-13
2.5913112e-12
9.356535e-12
2.9276594e-11
8.2475066e-11
2.1452887e-10
5.2433275e-10
1.2194161e-09
2.7237947e-09
5.8851452e-09
1.236785e-08
2.5390822e-08
5.1099977e-08
1.0110098e-07
1.9710012e-07
3.7935348e-07
7.2195741e-07
1.3603599e-06
2.5405697e-06
4.7066167e-06
8.6548233e-06
1.5803247e-05
2.8655411e-05
5.157993e-05
9.2071013e-05
0.0001626487
0.00028334654
0.00048409501
0.0008050565
0.0012920435
0.0019856261
0.0029072964
0.0040498291
0.0053768181
0.0068301966
0.0083409613
0.0098396684
0.011265184
0.012571185
0.013730056
0.014719916
0.015548274
0.01628651
0.016939514
0.017528785
0.018086598
0.018637986
0.019199917
0.019782118
0.020389718
0.021030935
0.021713021
0.022414563
0.023082118
0.023596766
0.023695215
0.022951587
0.020702001
0.01714863
0.013802697
0.014044664
1.7973261e-18
3.4955568e-16
9.3105199e-15
9.4388299e-14
5.7081451e-13
2.5288866e-12
9.1311754e-12
2.8571599e-11
8.0489551e-11
2.0936585e-10
5.1171802e-10
1.1900896e-09
2.6583148e-09
5.7437282e-09
1.2070795e-08
2.4781277e-08
4.9873881e-08
9.8676484e-08
1.9237621e-07
3.7026701e-07
7.0467574e-07
1.3278182e-06
2.4798368e-06
4.5941789e-06
8.4481932e-06
1.5426141e-05
2.7972091e-05
5.0352455e-05
8.9890559e-05
0.000158831
0.00027679836
0.00047317657
0.00078755287
0.0012653753
0.0019473333
0.0028556002
0.0039840984
0.0052976792
0.0067392778
0.0082404728
0.0097320257
0.011152676
0.012455669
0.013612741
0.014601403
0.015430368
0.016167488
0.016818247
0.017405647
0.01796236
0.018514322
0.019079687
0.019669139
0.020288306
0.02094406
0.02163242
0.022304364
0.022864442
0.023146441
0.022724432
0.021181908
0.018063537
0.014039019
0.0094872162
0.0088338636
1.7395277e-18
3.3831468e-16
9.0111127e-15
9.1353027e-14
5.5245958e-13
2.4475749e-12
8.8376104e-12
2.7653151e-11
7.7902572e-11
2.0263786e-10
4.9527692e-10
1.1518602e-09
2.5729374e-09
5.5592896e-09
1.1683251e-08
2.3985768e-08
4.827306e-08
9.5509493e-08
1.8620222e-07
3.583839e-07
6.8205929e-07
1.2851985e-06
2.4002324e-06
4.446692e-06
8.1769937e-06
1.4931116e-05
2.7075264e-05
4.8740796e-05
8.7022547e-05
0.00015379383
0.00026811679
0.00045862719
0.00076411361
0.0012294986
0.0018956088
0.0027855853
0.0038948524
0.0051898318
0.0066146714
0.0081016757
0.0095817999
0.010993492
0.01228929
0.01343984
0.014421027
0.015246477
0.015974312
0.016612654
0.01718595
0.017726552
0.018260564
0.018806266
0.019373933
0.019971078
0.020607456
0.021273038
0.021894954
0.021232245
0.02041618
0.021524425
0.01947597
0.015953085
0.012021167
0.0072514953
0.004477044
1.6694828e-18
3.2469189e-16
8.6482671e-15
8.7674623e-14
5.3021521e-13
2.3490315e-12
8.4818254e-12
2.6540011e-11
7.4767109e-11
1.9448314e-10
4.7534859e-10
1.1055202e-09
2.4694425e-09
5.335702e-09
1.1213423e-08
2.3021301e-08
4.6332104e-08
9.1669253e-08
1.7871485e-07
3.4397059e-07
6.5462101e-07
1.2334759e-06
2.3035819e-06
4.2675095e-06
7.8472168e-06
1.4328391e-05
2.5981423e-05
4.6771019e-05
8.3508988e-05
0.00014760713
0.00025742607
0.00044065708
0.00073506159
0.0011848497
0.0018309495
0.0026976394
0.0037822022
0.0050530094
0.0064557291
0.0079235243
0.0093875195
0.010785717
0.01206971
0.013208875
0.014177379
0.014989443
0.015701022
0.016315876
0.016861381
0.017369027
0.017864362
0.018365095
0.018881469
0.0194237
0.02001162
0.020629276
0.020257169
0.018200897
0.01782615
0.019989636
0.017950995
0.01436906
0.011173942
0.0063757567
0.0029416753
1.5881627e-18
3.0887627e-16
8.2270158e-15
8.3404099e-14
5.0438981e-13
2.2346221e-12
8.0687483e-12
2.5247587e-11
7.112652e-11
1.8501431e-10
4.5220777e-10
1.0517073e-09
2.3492503e-09
5.0760245e-09
1.0667717e-08
2.1900967e-08
4.4077232e-08
8.7207352e-08
1.7001409e-07
3.2721826e-07
6.2272248e-07
1.1733276e-06
2.1911452e-06
4.0589636e-06
7.4631743e-06
1.3625983e-05
2.470555e-05
4.4470994e-05
7.9401077e-05
0.00014036242
0.00024488168
0.00041951464
0.00070076141
0.0011319068
0.001753896
0.0025922733
0.0036465038
0.0048873018
0.0062621742
0.0077053047
0.009147984
0.010527623
0.01179461
0.012916529
0.01386556
0.014655717
0.015341418
0.015920332
0.016422589
0.016878204
0.017311415
0.017738538
0.018170106
0.018627145
0.019142124
0.01969417
0.017407601
0.016003349
0.016840345
0.019085149
0.016607222
0.013206114
0.010544265
0.0052912986
0.0025501924
1.4968709e-18
2.9112128e-16
7.7541084e-15
7.8609885e-14
4.7539725e-13
2.1061803e-12
7.6049981e-12
2.3796585e-11
6.7039125e-11
1.7438303e-10
4.2622511e-10
9.9128336e-10
2.2142862e-09
4.7844172e-09
1.0054876e-08
2.0642727e-08
4.1544617e-08
8.2195445e-08
1.6023987e-07
3.0839699e-07
5.8687955e-07
1.1057306e-06
2.0647591e-06
3.8244864e-06
7.0312471e-06
1.2835694e-05
2.3269361e-05
4.1880354e-05
7.4770218e-05
0.00013218562
0.00023069832
0.00039554754
0.00066173591
0.0010713825
0.0016653096
0.0024703939
0.0034885652
0.0046932674
0.0060341858
0.0074467177
0.0088623401
0.010217747
0.011461923
0.012559186
0.013480643
0.01424188
0.014888483
0.015417575
0.015858969
0.016240735
0.016584911
0.016905677
0.017217746
0.017563818
0.017979601
0.017204215
0.015212472
0.015188239
0.017180735
0.017673445
0.015071197
0.012157075
0.0089107188
0.0037296049
0.0020216626
1.3972458e-18
2.717455e-16
7.2380275e-15
7.337798e-14
4.4375768e-13
1.9660103e-12
7.0988945e-12
2.2213035e-11
6.2578253e-11
1.6278005e-10
3.9786683e-10
9.2533275e-10
2.0669726e-09
4.4661159e-09
9.3859097e-09
1.9269199e-08
3.8779833e-08
7.6723848e-08
1.4956865e-07
2.8784739e-07
5.4774298e-07
1.0319171e-06
1.9267394e-06
3.5684016e-06
6.559459e-06
1.1972329e-05
2.1700002e-05
3.9048479e-05
6.9705192e-05
0.00012323349
0.00021514477
0.0003691964
0.00061866155
0.0010042278
0.0015663917
0.0023333462
0.0033097065
0.0044720152
0.0057724942
0.007147978
0.0085301726
0.0098549235
0.01106953
0.012134003
0.01301893
0.01374187
0.014335227
0.014798297
0.015158596
0.015441489
0.015665795
0.015844315
0.016008306
0.016226721
0.016514767
0.014812435
0.014248366
0.015525319
0.016966836
0.015783549
0.013135658
0.010787152
0.0060247876
0.0025237083
0.0015490128
1.2912001e-18
2.5112103e-16
6.6886882e-15
6.7808899e-14
4.1007891e-13
1.8168048e-12
6.5601603e-12
2.0527361e-11
5.7829611e-11
1.5042832e-10
3.6767788e-10
8.5512305e-10
1.9101417e-09
4.1272422e-09
8.6736897e-09
1.7806829e-08
3.583616e-08
7.0898123e-08
1.3820664e-07
2.6596739e-07
5.0607264e-07
9.5332535e-07
1.7797866e-06
3.295746e-06
6.0571472e-06
1.1053098e-05
2.0028993e-05
3.6032668e-05
6.430907e-05
0.00011368846
0.0001985358
0.00034098304
0.00057235387
0.0009316195
0.0014586818
0.0021829348
0.0031118127
0.0042252882
0.0054784872
0.0068099348
0.0081516315
0.0094384467
0.010615696
0.011638349
0.012476457
0.013149569
0.013674055
0.014052397
0.014308478
0.014464166
0.01453456
0.014539255
0.014547027
0.014624071
0.014497179
0.013462404
0.014238194
0.014809307
0.014618683
0.013132197
0.010872486
0.0082127723
0.0030166559
0.0017610608
0.0012045587
1.1808529e-18
2.2965999e-16
6.1170672e-15
6.2013915e-14
3.7503379e-13
1.661545e-12
5.9995605e-12
1.8773247e-11
5.2888095e-11
1.3757468e-10
3.3626165e-10
7.8205779e-10
1.7469293e-09
3.7745737e-09
7.9324671e-09
1.6284896e-08
3.2772576e-08
6.4835118e-08
1.2638204e-07
2.4319721e-07
4.6270884e-07
8.7154469e-07
1.6268836e-06
3.012079e-06
5.5346093e-06
1.0096963e-05
1.8291044e-05
3.2896007e-05
5.8695424e-05
0.00010375209
0.0001812212
0.00031149358
0.00052374481
0.00085493597
0.0013440418
0.002021431
0.0028973758
0.0039555435
0.0051543239
0.0064342094
0.0077275847
0.00896822
0.010099155
0.011069812
0.011849403
0.012458841
0.012896933
0.013169396
0.013295398
0.013293146
0.013177706
0.013001932
0.012865477
0.012776363
0.012581697
0.012400844
0.012226816
0.012093373
0.011511734
0.0099006106
0.0082572466
0.0036946137
0.00174934
0.0012314887
0.00089882823
1.0684478e-18
2.0779869e-16
5.5347839e-15
5.6110831e-14
3.393348e-13
1.5033872e-12
5.4284916e-12
1.6986357e-11
4.7854179e-11
1.2448051e-10
3.042571e-10
7.0762321e-10
1.580656e-09
3.4152881e-09
7.1773329e-09
1.47344e-08
2.965153e-08
5.8658524e-08
1.1433635e-07
2.2000258e-07
4.1854024e-07
7.8825521e-07
1.4711812e-06
2.7232684e-06
5.0027042e-06
9.1239031e-06
1.6522695e-05
2.9704882e-05
5.2983835e-05
9.3637129e-05
0.00016357227
0.00028135678
0.00047385129
0.00077571832
0.0012246209
0.0018515575
0.002669516
0.0036660202
0.0048030474
0.0060233455
0.0072597905
0.0084449254
0.0095191627
0.01042624
0.011134638
0.011663593
0.011995947
0.012139475
0.01210784
0.011918355
0.011607713
0.011283219
0.011001421
0.010708808
0.010319935
0.0098346788
0.0093506981
0.008841558
0.0077346078
0.0065655099
0.0034109845
0.0015414404
0.001180029
0.00088853706
0.00068912452
9.5625944e-19
1.8597958e-16
4.9536249e-15
5.0219143e-14
3.037046e-13
1.3455333e-12
4.8585155e-12
1.5202869e-11
4.2829792e-11
1.1141099e-10
2.7231242e-10
6.3332715e-10
1.4146909e-09
3.056667e-09
6.4235968e-09
1.3186791e-08
2.6536359e-08
5.2493777e-08
1.0231442e-07
1.9685555e-07
3.7446709e-07
7.0515779e-07
1.315867e-06
2.4352448e-06
4.4723958e-06
8.1540667e-06
1.4760763e-05
2.6526144e-05
4.7294763e-05
8.3558363e-05
0.00014596594
0.00025121769
0.00042373486
0.00069561628
0.0011027947
0.0016764405
0.0024319697
0.0033607799
0.0044286841
0.0055809599
0.0067510953
0.0078702686
0.0088755976
0.0097052322
0.010331141
0.010757822
0.010964325
0.010955583
0.010739986
0.010351548
0.0098882131
0.0094422508
0.0089868323
0.0084654217
0.0078441407
0.0070645321
0.0062114884
0.0053385646
0.0042548108
0.0022746699
0.0012452812
0.00097813098
0.00077422512
0.00062296744
0.00058719701
8.4650113e-19
1.6463303e-16
4.385052e-15
4.4455035e-14
2.6884582e-13
1.1910963e-12
4.300873e-12
1.3457959e-11
3.7914045e-11
9.862394e-11
2.4105791e-10
5.6063578e-10
1.2523099e-09
2.7057909e-09
5.6861447e-09
1.1672643e-08
2.3488635e-08
4.6462792e-08
9.055417e-08
1.7421457e-07
3.3136325e-07
6.2390228e-07
1.1640299e-06
2.1537493e-06
3.9542841e-06
7.2069068e-06
1.304074e-05
2.342417e-05
4.1744194e-05
7.3722951e-05
0.0001287676
0.00022170821
0.00037445416
0.00061631845
0.0009810784
0.0014995218
0.0021890287
0.0030446989
0.0040363007
0.0051118651
0.0062056308
0.0072474601
0.0081696611
0.008907287
0.009434916
0.0097381096
0.009798383
0.0096174057
0.0092033407
0.0086601956
0.0080995474
0.0075173873
0.0068743041
0.0061432418
0.0053189092
0.0042448464
0.0034467135
0.0021044073
0.0012762209
0.00086710537
0.00078786828
0.00065393199
0.00055363422
0.00052284421
0.00057707093
7.4121872e-19
1.4415699e-16
3.8396652e-15
3.8925978e-14
2.3540843e-13
1.0429559e-12
3.7659634e-12
1.1784172e-11
3.3198629e-11
8.6357917e-11
2.1107673e-10
4.9090565e-10
1.0965438e-09
2.3692102e-09
4.9787472e-09
1.0220238e-08
2.0565301e-08
4.0678287e-08
7.9275467e-08
1.5250314e-07
2.900354e-07
5.4601043e-07
1.018516e-06
1.8840644e-06
3.458107e-06
6.3002634e-06
1.1395121e-05
2.0457812e-05
3.6438095e-05
6.4320422e-05
0.00011231321
0.00019341568
0.00032701184
0.00053946925
0.00086201073
0.0013244229
0.0019454128
0.0027233837
0.0036319842
0.0046221017
0.0056287939
0.0065805389
0.0074043937
0.0080342117
0.0084440509
0.0086036883
0.0085004102
0.0081378744
0.007561934
0.0069412181
0.0062844522
0.0055574857
0.0047666769
0.0038757401
0.0029246365
0.0020605304
0.0010921578
0.00065742286
0.00054856355
0.00055875624
0.00052725273
0.00047709494
0.00047314474
0.0005200011
0.00060702181
6.4220241e-19
1.2489967e-16
3.3267412e-15
3.3726033e-14
2.0396136e-13
9.0363288e-13
3.2628894e-12
1.0209992e-11
2.8763805e-11
7.4821729e-11
1.8287936e-10
4.2532425e-10
9.5004585e-10
2.052659e-09
4.3134581e-09
8.8543289e-09
1.7816186e-08
3.5238868e-08
6.8670592e-08
1.3209139e-07
2.5118804e-07
4.7280983e-07
8.8180507e-07
1.630785e-06
2.9923179e-06
5.4495876e-06
9.8519785e-06
1.7677801e-05
3.1467685e-05
5.5514022e-05
9.6893439e-05
0.00016685363
0.00028230169
0.0004665788
0.00074801566
0.0011547602
0.0017060624
0.002402981
0.003222707
0.0041188845
0.0050273168
0.0058748474
0.0065839165
0.0070904312
0.0073599579
0.0073591974
0.0070835145
0.0065522012
0.0059103638
0.0052415364
0.0044827782
0.0036591532
0.0027680087
0.001981571
0.0011010437
0.00060337409
0.0003584247
0.00033369498
0.00036108633
0.00038217229
0.00039368874
0.00041651349
0.00046878169
0.00054443682
0.00065843712
5.5090303e-19
1.0714322e-16
2.8537937e-15
2.8931356e-14
1.749651e-13
7.7516764e-13
2.7990198e-12
8.7584822e-12
2.4674554e-11
6.418444e-11
1.5687909e-10
3.6485296e-10
8.1496388e-10
1.7607792e-09
3.7000335e-09
7.5949457e-09
1.5281597e-08
3.022427e-08
5.8894925e-08
1.1327817e-07
2.1538937e-07
4.0536969e-07
7.5589038e-07
1.397596e-06
2.5636768e-06
4.6671931e-06
8.4336014e-06
1.5124261e-05
2.6904897e-05
4.7432412e-05
8.2738389e-05
0.0001424339
0.00024105767
0.00039893149
0.00064124915
0.00099391611
0.0014758436
0.0020898529
0.0028160247
0.0036103862
0.0044092863
0.0051375428
0.0057152651
0.0060807429
0.0061908258
0.0060204435
0.0055810282
0.0049448174
0.0043103052
0.0035967833
0.0027834866
0.0019475919
0.001293411
0.00064550116
0.0003317375
0.0002086591
0.00021051205
0.0002312005
0.00026669553
0.00031117365
0.00036231514
0.00042155534
0.00048968037
0.00054913851
0.00062954982
4.6837481e-19
9.1092609e-17
2.4262804e-15
2.4597279e-14
1.4875434e-13
6.5904297e-13
2.3797089e-12
7.4463982e-12
2.0978088e-11
5.4568881e-11
1.333762e-10
3.1019029e-10
6.9285836e-10
1.4969425e-09
3.1455588e-09
6.4566305e-09
1.2990787e-08
2.5692318e-08
5.0061053e-08
9.6279771e-08
1.8304995e-07
3.4446089e-07
6.4220505e-07
1.1871374e-06
2.1770042e-06
3.9618127e-06
7.1556965e-06
1.2825274e-05
2.2799753e-05
4.0164713e-05
7.0007722e-05
0.00012044586
0.00020381103
0.00033750155
0.00054344203
0.00084477587
0.0012591623
0.0017900872
0.0024195273
0.0031051791
0.0037835488
0.0043774634
0.0048083526
0.005014099
0.0049567088
0.0046249433
0.0040658516
0.0034446817
0.00281928
0.002095753
0.0013632808
0.00077718598
0.00038542711
0.00019695873
0.00012452043
0.00013507362
0.00015720069
0.0001953937
0.0002499509
0.00031498121
0.0003818476
0.00041396397
0.00040505986
0.00048755948
0.00059259462
3.9523202e-19
7.6867277e-17
2.0473831e-15
2.0756068e-14
1.255242e-13
5.5612345e-13
2.0080792e-12
6.2835135e-12
1.770195e-11
4.6046716e-11
1.1254591e-10
2.6174385e-10
5.8464e-10
1.2631168e-09
2.6541693e-09
5.4478704e-09
1.0960823e-08
2.1676732e-08
4.2234567e-08
8.1222029e-08
1.5440814e-07
2.9052969e-07
5.4157544e-07
1.0009229e-06
1.8350454e-06
3.338376e-06
6.0270359e-06
1.0796343e-05
1.9179581e-05
3.3759352e-05
5.8788807e-05
0.00010105193
0.00017087302
0.00028289342
0.00045575507
0.00070945461
0.0010595218
0.0015088575
0.0020400239
0.0026113392
0.0031589752
0.0036055382
0.0038748724
0.0039140523
0.0036973748
0.003247872
0.0026857539
0.0021315381
0.0015347223
0.00093142571
0.00045494765
0.00023026955
0.00011987302
7.9127508e-05
8.9578666e-05
0.0001140004
0.00015480569
0.00021090033
0.00027856807
0.00034765411
0.00036268906
0.00034274559
0.0003535278
0.00044560845
0.00055062377
3.3158956e-19
6.4489673e-17
1.7177015e-15
1.7413799e-14
1.0531145e-13
4.6657223e-13
1.6847204e-12
5.2716747e-12
1.4851347e-11
3.8631508e-11
9.442139e-11
2.1959079e-10
4.90481e-10
1.0596734e-09
2.2266427e-09
4.570252e-09
9.1948693e-09
1.8183689e-08
3.5427286e-08
6.8127082e-08
1.2950451e-07
2.436487e-07
4.5412764e-07
8.391636e-07
1.5381362e-06
2.7973768e-06
5.0482563e-06
9.0380918e-06
1.6044582e-05
2.8215447e-05
4.90797e-05
8.4254527e-05
0.00014227783
0.00023526218
0.00037866186
0.00058905996
0.00087905545
0.0012496632
0.0016825155
0.0021353726
0.0025441528
0.0028334064
0.0029369893
0.0028231154
0.002489348
0.0020221086
0.0015619625
0.0010819976
0.00059632341
0.0002825783
0.00013822716
7.419534e-05
5.2089518e-05
6.3484245e-05
8.8279612e-05
0.00012945563
0.00018580219
0.00024970856
0.00031850477
0.00034943346
0.00030430599
0.00030373816
0.00032808134
0.00040807345
0.00053433892
2.7708494e-19
5.3889281e-17
1.4353573e-15
1.4551432e-14
8.8000974e-14
3.8987931e-13
1.4077914e-12
4.4051219e-12
1.2410056e-11
3.2281058e-11
7.8899506e-11
1.8349122e-10
4.0984539e-10
8.8545365e-10
1.8605413e-09
3.8187625e-09
7.6828112e-09
1.5193104e-08
2.9599837e-08
5.6918578e-08
1.0819227e-07
2.0353753e-07
3.7932898e-07
7.0085194e-07
1.2843786e-06
2.3352608e-06
4.2127515e-06
7.5383349e-06
1.3372356e-05
2.3492171e-05
4.0807434e-05
6.9929048e-05
0.00011783066
0.00019434095
0.00031187736
0.00048345435
0.00071806584
0.001013581
0.0013492042
0.0016813093
0.0019470698
0.0020791174
0.0020376341
0.0018110311
0.0014566808
0.0010922854
0.00073112363
0.00036141447
0.00016904494
8.6077268e-05
4.7295629e-05
3.5769401e-05
4.7217425e-05
7.1550256e-05
0.00011224096
0.00016631046
0.00022859862
0.00029571776
0.00033873325
0.00029645345
0.00027191836
0.00027954127
0.00030441985
0.00040016551
0.00054029119
2.3086987e-19
4.4901072e-17
1.1959535e-15
1.2124389e-14
7.3323158e-14
3.2485022e-13
1.1729791e-12
3.6703596e-12
1.0340056e-11
2.6896462e-11
6.5738485e-11
1.5288275e-10
3.4147649e-10
7.3774085e-10
1.5501516e-09
3.1816601e-09
6.4009838e-09
1.2658061e-08
2.4660509e-08
4.7419352e-08
9.0132557e-08
1.6955328e-07
3.1596741e-07
5.8371309e-07
1.0695146e-06
1.9440633e-06
3.5056245e-06
6.2692935e-06
1.1111741e-05
1.9497196e-05
3.3810241e-05
5.7799607e-05
9.7066635e-05
0.00015938236
0.00025429644
0.00039116736
0.0005748251
0.00079895941
0.00103941
0.0012519229
0.0013800359
0.0013802442
0.0012383591
0.00099114083
0.0007213172
0.00046088294
0.0002092581
0.00010025903
5.2752966e-05
3.1321535e-05
2.5813098e-05
3.6526307e-05
5.9177754e-05
9.7986765e-05
0.00015061924
0.00021015383
0.00027701626
0.00032011586
0.00029197763
0.00026741369
0.0002538668
0.00026652592
0.0003021535
0.0003921882
0.00053515698
1.9166597e-19
3.7276428e-17
9.9286842e-16
1.006554e-14
6.0872038e-14
2.6968634e-13
9.7378894e-13
3.0470649e-12
8.5840911e-12
2.2328769e-11
5.4574211e-11
1.2691835e-10
2.8348163e-10
6.1244371e-10
1.2868701e-09
2.6412672e-09
5.3137701e-09
1.0507989e-08
2.0471457e-08
3.9363433e-08
7.4817572e-08
1.4073522e-07
2.6223945e-07
4.8438448e-07
8.8731092e-07
1.6122886e-06
2.9057579e-06
5.1922438e-06
9.1915605e-06
1.6099264e-05
2.7846327e-05
4.7431237e-05
7.9249202e-05
0.00012919179
0.00020407019
0.00030953104
0.00044588823
0.00060226259
0.00075190445
0.0008543328
0.0008717793
0.00078986129
0.00063002693
0.00044668271
0.00026843771
0.00012185249
5.9030011e-05
3.2578773e-05
2.0994547e-05
1.9397865e-05
2.9290061e-05
4.9643821e-05
8.5707136e-05
0.00013687714
0.00019581944
0.00026049637
0.00028232549
0.00027959765
0.00026475877
0.0002514609
0.00024634008
0.00026344285
0.00029791936
0.00039064588
0.00055343867
1.5788531e-19
3.0706548e-17
8.178778e-16
8.2915106e-15
5.0143402e-14
2.221538e-13
8.0215461e-13
2.5099959e-12
7.0710424e-12
1.8392956e-11
4.4954354e-11
1.045457e-10
2.3350924e-10
5.0447835e-10
1.0600049e-09
2.1756123e-09
4.3768975e-09
8.6551568e-09
1.6861308e-08
3.2420167e-08
6.1616074e-08
1.1588931e-07
2.1590442e-07
3.9869044e-07
7.3003398e-07
1.3256926e-06
2.3870572e-06
4.2596545e-06
7.5258401e-06
1.3144182e-05
2.2641881e-05
3.8340772e-05
6.3529844e-05
0.00010236161
0.00015899423
0.00023541645
0.00032761728
0.00042132481
0.00049128723
0.00051024276
0.00046637246
0.00037089111
0.00025546468
0.00014511211
6.7000915e-05
3.4588273e-05
2.0321563e-05
1.4508063e-05
1.4893712e-05
2.4014945e-05
4.2389233e-05
7.5856305e-05
0.00012463774
0.0001817132
0.00022323804
0.000242448
0.00025598236
0.00025834039
0.00025080059
0.00024514896
0.0002443943
0.00026317825
0.00030304231
0.000401538
0.00057403124
1.2787806e-19
2.4870552e-17
6.6243449e-16
6.7156474e-15
4.061319e-14
1.7993075e-13
6.4969174e-13
2.032915e-12
5.7269838e-12
1.4896689e-11
3.640868e-11
8.4670761e-11
1.8911428e-10
4.0855836e-10
8.584368e-10
1.761843e-09
3.5443119e-09
7.0082935e-09
1.3651754e-08
2.6245498e-08
4.9871279e-08
9.3773474e-08
1.7463265e-07
3.2229348e-07
5.8966179e-07
1.0695333e-06
1.9226023e-06
3.4227088e-06
6.0267951e-06
1.0475836e-05
1.7923661e-05
3.0061435e-05
4.9141379e-05
7.765563e-05
0.00011729448
0.00016685381
0.00021940959
0.00026099144
0.0002748887
0.00025292017
0.00020078988
0.00013393021
7.3642649e-05
3.5818381e-05
1.9660908e-05
1.281683e-05
1.0278523e-05
1.1737904e-05
1.9703644e-05
3.6622718e-05
6.7585967e-05
0.00011335805
0.00016552676
0.00019407438
0.00020946207
0.00022776054
0.00024037433
0.00024398014
0.00024229002
0.00024227695
0.00024658115
0.00026771936
0.00030884094
0.00040683995
0.00058648389
1.0033047e-19
1.951292e-17
5.1973222e-16
5.2689478e-15
3.186409e-14
1.4116825e-13
5.0972381e-13
1.594929e-12
4.4930483e-12
1.1686812e-11
2.8562758e-11
6.6422406e-11
1.4834997e-10
3.2047486e-10
6.733139e-10
1.3817699e-09
2.7793653e-09
5.4947962e-09
1.0701044e-08
2.0566157e-08
3.9062236e-08
7.3404467e-08
1.3658528e-07
2.51784e-07
4.5992597e-07
8.323882e-07
1.4917862e-06
2.6446771e-06
4.6299862e-06
7.9836786e-06
1.3508671e-05
2.2305903e-05
3.5659577e-05
5.4584733e-05
7.8804411e-05
0.00010522332
0.00012693997
0.00013501649
0.00012493065
9.865311e-05
6.3871618e-05
3.5319072e-05
1.8574617e-05
1.1172485e-05
8.1265328e-06
7.4565268e-06
9.3199922e-06
1.6409488e-05
3.1615893e-05
6.1431669e-05
0.00010326354
0.00015081358
0.00017413518
0.0001849994
0.00020186958
0.00021765426
0.000227694
0.00023481117
0.00023832349
0.00024319091
0.00024994223
0.00027369198
0.00031765283
0.00042023127
0.0006163368
7.4707584e-20
1.4529611e-17
3.87e-16
3.9233215e-15
2.3726223e-14
1.0511368e-13
3.7953333e-13
1.1875349e-12
3.3452819e-12
8.7010171e-12
2.1264297e-11
4.9446474e-11
1.1042532e-10
2.3851911e-10
5.0104673e-10
1.0280293e-09
2.0672575e-09
4.085445e-09
7.9524055e-09
1.5273446e-08
2.8983727e-08
5.4400223e-08
1.0106142e-07
1.8589768e-07
3.3859181e-07
6.1041307e-07
1.0882523e-06
1.9156905e-06
3.3217605e-06
5.6532525e-06
9.3930661e-06
1.5120962e-05
2.3328756e-05
3.3978639e-05
4.5799386e-05
5.5761497e-05
5.9732321e-05
5.5407912e-05
4.3471424e-05
2.7924193e-05
1.6003957e-05
9.3722646e-06
6.318138e-06
5.3526179e-06
5.4409399e-06
7.5168653e-06
1.3689898e-05
2.8543917e-05
5.5943602e-05
9.4005442e-05
0.00013746158
0.00015987579
0.00016703695
0.00018106204
0.00019522873
0.00020768002
0.00021923902
0.00022887388
0.000235394
0.00024364208
0.00025495074
0.00028124495
0.0003271846
0.00043309179
0.00063468437
5.1534904e-20
1.0022835e-17
2.6696029e-16
2.70637e-15
1.6366542e-14
7.2506889e-14
2.6179274e-13
8.190995e-13
2.3072743e-12
6.0007369e-12
1.4663683e-11
3.4093457e-11
7.6125474e-11
1.6439417e-10
3.452328e-10
7.0805765e-10
1.4230901e-09
2.8104754e-09
5.4657051e-09
1.048494e-08
1.9865425e-08
3.7208217e-08
6.8932952e-08
1.2633767e-07
2.2900239e-07
4.1021061e-07
7.2511658e-07
1.2619623e-06
2.1548442e-06
3.5916519e-06
5.8004404e-06
8.9805199e-06
1.3133232e-05
1.7786769e-05
2.176857e-05
2.3423443e-05
2.1752455e-05
1.7006235e-05
1.1217485e-05
7.0563761e-06
4.6375366e-06
3.7208391e-06
3.5084473e-06
4.1295695e-06
6.0704044e-06
1.2042175e-05
2.639727e-05
5.0738141e-05
8.5478105e-05
0.00012537019
0.0001491347
0.00015310005
0.00016425446
0.00017592566
0.00018758601
0.00020060228
0.00021239774
0.00022353027
0.00023351136
0.00024607308
0.00025988726
0.00028904272
0.00033721923
0.00044676784
0.00065972241
3.2102803e-20
6.2435523e-18
1.662977e-16
1.6858642e-15
1.0194932e-14
4.5164118e-14
1.6306178e-13
5.101563e-13
1.436902e-12
3.7366299e-12
9.129526e-12
2.1221819e-11
4.7371552e-11
1.0226109e-10
2.146449e-10
4.3994044e-10
8.8345771e-10
1.742791e-09
3.3843255e-09
6.4796832e-09
1.2245813e-08
2.2860721e-08
4.2168894e-08
7.684658e-08
1.3825547e-07
2.4522897e-07
4.278822e-07
7.3192242e-07
1.2213006e-06
1.9735631e-06
3.0568082e-06
4.4733461e-06
6.0673938e-06
7.4456113e-06
8.0336639e-06
7.5036032e-06
6.0113218e-06
4.312112e-06
3.0458191e-06
2.3811547e-06
2.1993531e-06
2.4687148e-06
3.0872787e-06
5.0999137e-06
1.1280323e-05
2.3910786e-05
4.6122371e-05
7.7757269e-05
0.00011424773
0.00014052909
0.00014205821
0.00015055758
0.00015997429
0.00017012885
0.00018192658
0.00019419041
0.00020667977
0.00022004758
0.00023235194
0.00024749123
0.00026493661
0.00029755071
0.00034743562
0.00046054581
0.00068154309
1.7624403e-20
3.4276988e-18
9.1296616e-17
9.2551758e-16
5.5967292e-15
2.4792698e-14
8.9506158e-14
2.8000244e-13
7.8854634e-13
2.0502198e-12
5.0079658e-12
1.1637314e-11
2.5965598e-11
5.6019762e-11
1.17496e-10
2.405836e-10
4.8249741e-10
9.5020946e-10
1.8411417e-09
3.5149488e-09
6.6179685e-09
1.229437e-08
2.2534374e-08
4.072627e-08
7.248124e-08
1.2675048e-07
2.1706823e-07
3.622713e-07
5.8506338e-07
9.0528443e-07
1.3238045e-06
1.7962802e-06
2.2096841e-06
2.4015899e-06
2.3069349e-06
2.0200592e-06
1.6633971e-06
1.3657041e-06
1.2709624e-06
1.416801e-06
1.7308948e-06
2.5294723e-06
4.8170184e-06
1.0604023e-05
2.1643215e-05
4.1760617e-05
7.0653768e-05
0.00010394395
0.0001331874
0.00013307455
0.00013939914
0.00014663106
0.00015513678
0.00016512193
0.00017609945
0.00018886193
0.00020227883
0.00021659995
0.00023117806
0.00024982967
0.0002700773
0.00030526252
0.00035695114
0.00047630073
0.00070098397
8.378203e-21
1.6294404e-18
4.3399728e-17
4.3995465e-16
2.6603611e-15
1.1784269e-14
4.2539327e-14
1.330579e-13
3.7464866e-13
9.7383565e-13
2.377914e-12
5.5231511e-12
1.231592e-11
2.6549722e-11
5.5626677e-11
1.1374351e-10
2.2770585e-10
4.4738569e-10
8.6423084e-10
1.6434211e-09
3.0784657e-09
5.6811818e-09
1.0324014e-08
1.8451866e-08
3.2367461e-08
5.5546792e-08
9.2823537e-08
1.5004673e-07
2.3247853e-07
3.4102173e-07
4.6619241e-07
5.8278181e-07
6.6271032e-07
6.9542259e-07
6.9589572e-07
6.8352729e-07
6.9316704e-07
7.4354404e-07
9.7510938e-07
1.3972388e-06
2.3632164e-06
4.5996069e-06
9.5810023e-06
1.9222451e-05
3.7748631e-05
6.4131814e-05
9.4415792e-05
0.00012627709
0.00012529537
0.00012975588
0.00013532612
0.00014213282
0.00015044775
0.00015995355
0.00017143794
0.0001843578
0.00019811394
0.00021411892
0.00023072731
0.00025153973
0.00027440776
0.00031328711
0.00036648535
0.00048914505
0.00071410185
3.4777973e-21
6.7638033e-19
1.8015026e-17
1.8261846e-16
1.1042234e-15
4.8908697e-15
1.7653259e-14
5.5208306e-14
1.5541388e-13
4.0384733e-13
9.8570555e-13
2.288219e-12
5.0987054e-12
1.0980854e-11
2.2978134e-11
4.6908351e-11
9.3708744e-11
1.8361255e-10
3.5344507e-10
6.6907661e-10
1.2460603e-09
2.2825082e-09
4.1085742e-09
7.2546023e-09
1.2531018e-08
2.1090359e-08
3.4398228e-08
5.3980408e-08
8.0793286e-08
1.1424472e-07
1.5228752e-07
1.9403857e-07
2.3689629e-07
2.8001472e-07
3.2448232e-07
4.0367622e-07
5.3627634e-07
8.077846e-07
1.3025983e-06
2.2678585e-06
4.2467548e-06
8.4643197e-06
1.7139048e-05
3.4163674e-05
5.8088154e-05
8.5652332e-05
0.00011728972
0.00011844974
0.000121328
0.00012559042
0.00013094864
0.00013755902
0.00014571607
0.0001556109
0.00016691371
0.00018006007
0.00019478371
0.00021177561
0.00022984895
0.00025341101
0.00027894118
0.00032028359
0.00037467898
0.00050426719
0.00072746804
1.4221922e-21
2.7659502e-19
7.3669131e-18
7.4677421e-17
4.5153499e-16
1.9998843e-15
7.2180573e-15
2.2571808e-14
6.3533791e-14
1.6506992e-13
4.0282059e-13
9.3486332e-13
2.0823905e-12
4.4827864e-12
9.3753068e-12
1.9125776e-11
3.8174766e-11
7.4721501e-11
1.436563e-10
2.7154969e-10
5.0489871e-10
9.2325585e-10
1.6590875e-09
2.925668e-09
5.0519073e-09
8.51707e-09
1.3967158e-08
2.2198722e-08
3.4193023e-08
5.126419e-08
7.5162921e-08
1.0756037e-07
1.5152145e-07
2.1420096e-07
3.0789732e-07
4.7133834e-07
7.5222697e-07
1.2265646e-06
2.0979303e-06
3.8360252e-06
7.5410708e-06
1.5524661e-05
3.0965864e-05
5.2579793e-05
7.7803315e-05
0.0001070579
0.0001124341
0.00011369053
0.00011690028
0.00012094149
0.00012610041
0.00013291557
0.00014142409
0.00015112309
0.00016275825
0.00017641517
0.00019158621
0.00020972185
0.00022962253
0.00025499256
0.00028253178
0.00032696544
0.00038315013
0.00051609705
0.00073143075
8.4330226e-22
1.6400999e-19
4.3683388e-18
4.428266e-17
2.6777098e-16
1.1861051e-15
4.2816196e-15
1.3392234e-14
3.7707533e-14
9.8011452e-14
2.3931488e-13
5.5582581e-13
1.2393532e-12
2.6715792e-12
5.5973647e-12
1.1445836e-11
2.2917549e-11
4.5044337e-11
8.7076665e-11
1.6579573e-10
3.1123115e-10
5.7634588e-10
1.0530784e-09