/*--------------------------------*- C++ -*----------------------------------*\
  =========                 |
  \\      /  F ield         | OpenFOAM: The Open Source CFD Toolbox
   \\    /   O peration     | Website:  https://openfoam.org
    \\  /    A nd           | Version:  13
     \\/     M anipulation  |
\*---------------------------------------------------------------------------*/
FoamFile
{
    format      ascii;
    class       volScalarField;
    location    "13.702879";
    object      pMean;
}
// * * * * * * * * * * * * * * * * * * * * * * * * * * * * * * * * * * * * * //

dimensions      [0 2 -2 0 0 0 0];

internalField   nonuniform List<scalar> 
17140
(
3.4188795
3.4187104
3.418506
3.4182983
3.4180738
3.4178292
3.4175642
3.4172783
3.4169709
3.4166415
3.4162899
3.4159156
3.4155183
3.4150973
3.4146506
3.4141751
3.413665
3.413111
3.4124979
3.4118038
3.4109971
3.4100339
3.4088559
3.4073868
3.4055284
3.4031675
3.4002122
3.3965988
3.3922165
3.3868728
3.3803517
3.3724366
3.3628882
3.3514447
3.3378261
3.3217412
3.3028987
3.2810287
3.2559156
3.227447
3.1956806
3.1609256
3.1238469
3.0855578
3.0476525
3.0122738
2.9818814
2.9587258
2.9450338
2.942665
2.9527967
2.9761063
3.0128877
3.062652
3.1239724
3.1944505
3.2703722
3.346583
3.4174384
3.47452
3.5102617
3.518654
3.5052246
3.4726844
3.4355115
3.4162733
3.4161077
3.4159078
3.4157044
3.4154845
3.4152449
3.4149852
3.414705
3.4144037
3.4140808
3.4137361
3.4133693
3.41298
3.4125674
3.41213
3.4116646
3.4111656
3.4106237
3.4100243
3.4093457
3.4085563
3.4076127
3.4064569
3.405013
3.403183
3.4008529
3.3979286
3.394346
3.3899959
3.3846864
3.3782005
3.3703198
3.3608046
3.3493913
3.3357988
3.3197335
3.3009022
3.279032
3.2539049
3.2254056
3.1935895
3.1587649
3.1215965
3.0831984
3.0451815
3.0096836
2.97914
2.9558936
2.9421482
2.9396912
2.9497336
2.9729662
3.0096247
3.0592441
3.1204543
3.1907822
3.2665697
3.3427686
3.4137993
3.471272
3.5075344
3.5164639
3.5035223
3.4714001
3.4346574
3.4098669
3.40971
3.409521
3.4093279
3.409119
3.4088912
3.4086443
3.4083778
3.4080911
3.4077839
3.4074558
3.4071068
3.4067364
3.4063443
3.4059289
3.4054874
3.4050147
3.4045018
3.4039348
3.4032924
3.4025441
3.4016471
3.400544
3.3991598
3.3973975
3.3951413
3.3922921
3.3887831
3.384509
3.3792814
3.3728799
3.3650823
3.3556466
3.3443064
3.3307764
3.3147586
3.2959542
3.2740845
3.2489248
3.2203539
3.1884221
3.1534359
3.116063
3.0774236
3.039156
3.0034258
2.9726435
2.9491819
2.9352806
2.9327014
2.9426087
2.9656599
3.0021019
3.0514948
3.1124945
3.1826142
3.2582417
3.3344581
3.4058783
3.4641699
3.5014581
3.5114331
3.4994792
3.4682422
3.4323134
3.3997878
3.3996446
3.3994726
3.3992958
3.3991042
3.3988953
3.3986687
3.3984238
3.3981603
3.3978777
3.3975759
3.3972548
3.3969145
3.3965544
3.3961735
3.3957694
3.3953375
3.3948697
3.3943528
3.3937666
3.3930816
3.3922563
3.3912343
3.389942
3.3882839
3.3861428
3.3834115
3.3800171
3.3758604
3.3707599
3.3644907
3.3568238
3.3475143
3.3362906
3.3228617
3.3069225
3.2881661
3.2663046
3.2411039
3.2124333
3.1803362
3.145118
3.1074501
3.0684661
3.0298434
2.9937809
2.9626712
2.9389451
2.9248451
2.9221087
2.931861
2.9547129
2.9908927
3.0399839
3.1006649
3.1704341
3.2457684
3.3219299
3.393817
3.453189
3.491897
3.5033596
3.4928861
3.4631166
3.4285986
3.3863705
3.3862456
3.3860964
3.3859415
3.3857733
3.3855898
3.3853904
3.3851747
3.3849423
3.384693
3.3844266
3.3841432
3.383843
3.3835257
3.3831908
3.3828363
3.3824584
3.3820497
3.3815984
3.3810855
3.380483
3.3797507
3.3788341
3.377661
3.3761384
3.3741495
3.3715768
3.3683336
3.3643292
3.359396
3.353303
3.3458111
3.3366717
3.3256072
3.3123189
3.2964927
3.2778114
3.2559759
3.2307398
3.2019614
3.1696756
3.1341867
3.0961736
3.0567913
3.0177697
2.981328
2.9498586
2.9258593
2.9115704
2.9087073
2.9183266
2.9409837
2.9768973
3.0256706
3.0859979
3.1553604
3.2303314
3.3063815
3.3787505
3.4393232
3.4796303
3.4928515
3.4842426
3.4564419
3.4238243
3.3701637
3.3700613
3.3699398
3.3698117
3.3696724
3.3695201
3.3693542
3.3691744
3.3689804
3.3687719
3.3685491
3.3683119
3.3680609
3.367796
3.367517
3.3672224
3.3669093
3.3665713
3.3661977
3.3657711
3.3652653
3.364642
3.3638487
3.3628152
3.361451
3.3596424
3.3572613
3.3542018
3.3503781
3.3456417
3.3397598
3.3324812
3.3235511
3.3126854
3.2995766
3.2839006
3.2653285
3.2435483
3.2183
3.1894291
3.1569622
3.1212029
3.0828397
3.0430573
3.0036478
2.9668273
2.9350293
2.9107986
2.8963693
2.8934351
2.9029752
2.9254779
2.9611477
3.0096034
3.0695487
3.1384421
3.2129835
3.2888715
3.3616842
3.4234003
3.4653594
3.4805348
3.4741101
3.4487322
3.4184681
3.3519081
3.3518311
3.35174
3.3516429
3.3515369
3.3514205
3.3512934
3.3511551
3.3510054
3.3508442
3.3506716
3.3504879
3.3502934
3.3500885
3.3498731
3.3496465
3.3494061
3.3491466
3.3488588
3.3485267
3.3481259
3.3476206
3.3469603
3.3460775
3.3448845
3.343271
3.3411045
3.3382587
3.3346368
3.3301106
3.3244609
3.3174254
3.308736
3.2981032
3.2852105
3.2697234
3.2513009
3.2296176
3.2043993
3.1754788
3.1428736
3.1068879
3.0682228
3.0280994
2.9883642
2.9512258
2.9191711
2.8947599
2.880238
2.8772782
2.8867893
2.909197
2.9446846
2.9928746
3.052477
3.1209244
3.1950411
3.2707817
3.3440116
3.4067445
3.4502431
3.4672282
3.4632309
3.4405422
3.4129172
3.332497
3.3324476
3.3323887
3.3323256
3.3322559
3.332179
3.3320942
3.3320016
3.3319007
3.3317916
3.3316743
3.3315492
3.3314167
3.3312771
3.3311309
3.3309773
3.3308143
3.3306377
3.3304391
3.3302042
3.3299105
3.3295244
3.3289982
3.3282669
3.3272459
3.3258286
3.3238856
3.3212731
3.3178658
3.31355
3.3081391
3.3013627
3.2929355
3.2825624
3.2699188
3.2546599
3.2364335
3.2149011
3.1897753
3.1608763
3.1282137
3.0920928
3.0532299
3.0128868
2.9729294
2.9355786
2.9033542
2.8787969
2.8641972
2.8612271
2.8707433
2.8930943
2.9284512
2.9764494
3.0357891
3.1038821
3.1776359
3.25327
3.3267859
3.3901703
3.4347728
3.4537305
3.4521941
3.4323242
3.4074906
3.3129168
3.312896
3.3128706
3.3128426
3.312811
3.3127752
3.3127351
3.3126903
3.3126407
3.3125863
3.3125273
3.3124639
3.3123964
3.3123253
3.3122509
3.3121726
3.3120888
3.3119957
3.3118856
3.3117457
3.3115551
3.3112825
3.3108826
3.3102937
3.3094342
3.3082011
3.3064688
3.3040918
3.3009175
3.2968102
3.2916174
3.2850982
3.2769459
3.26685
3.2544835
3.2394926
3.2215152
3.2002017
3.1752528
3.146478
3.1138805
3.0777665
3.0388678
2.9984833
2.9584591
2.9210424
2.888748
2.8640823
2.8494103
2.84642
2.8559184
2.8782148
2.913501
2.9613877
3.020523
3.0882916
3.1616954
3.2371773
3.3108391
3.3747352
3.4204633
3.4408887
3.4414777
3.4244054
3.4023578
3.2941768
3.2941841
3.2941919
3.2941989
3.2942051
3.2942104
3.2942148
3.294218
3.29422
3.2942208
3.2942204
3.2942192
3.2942174
3.2942153
3.2942127
3.2942093
3.2942033
3.2941911
3.2941655
3.2941145
3.2940186
3.2938481
3.2935604
3.2930966
3.2923784
3.2913067
3.2897596
3.2875941
3.2846513
3.280766
3.275774
3.2694764
3.2615948
3.2517951
3.2397324
3.2250505
3.2073818
3.1863692
3.1617053
3.1331917
3.1008265
3.0649181
3.0262094
2.9860175
2.9461584
2.9088877
2.8766704
2.8519985
2.8372916
2.8342574
2.8437282
2.8660285
2.9012976
2.9490951
3.0080482
3.0755257
3.1486952
3.2242157
3.2981673
3.3620887
3.4078045
3.4288159
3.4314761
3.4169981
3.3976286
3.2772159
3.2772495
3.2772883
3.2773281
3.2773699
3.2774142
3.2774608
3.2775097
3.277561
3.2776148
3.2776711
3.27773
3.2777917
3.2778561
3.277923
3.2779916
3.2780599
3.2781239
3.2781767
3.2782065
3.2781946
3.278113
3.2779207
3.2775615
3.2769602
3.2760213
3.2746271
3.2726378
3.2698945
3.2662255
3.2614491
3.2553609
3.2477121
3.2381967
3.2264633
3.2121399
3.1948544
3.1742469
3.1500057
3.121929
3.0900142
3.0545712
3.0163523
2.9766552
2.93728
2.9004526
2.8685602
2.8440786
2.8294332
2.8263976
2.8358454
2.8580185
2.8931105
2.9407023
2.9993812
3.0665369
3.1394364
3.2147723
3.2882484
3.3511401
3.3963529
3.4178734
3.4224287
3.410217
3.3933518
3.2628223
3.2628788
3.2629447
3.2630132
3.2630864
3.2631652
3.2632495
3.2633394
3.2634352
3.263537
3.2636448
3.2637588
3.2638789
3.2640049
3.2641361
3.2642714
3.2644083
3.2645425
3.2646666
3.2647689
3.2648309
3.2648255
3.264713
3.2644394
3.2639323
3.2630991
3.2618261
3.2599779
3.2573979
3.2539129
3.2493377
3.2434665
3.2360601
3.2268278
3.2154346
3.2015148
3.1846958
3.1646166
3.1409666
3.113545
3.0823499
3.0476914
3.0103197
2.9714919
2.9329849
2.896961
2.8657173
2.8416875
2.8272948
2.8242556
2.8333762
2.8551203
2.8897503
2.9368614
2.9949878
3.0615252
3.1339027
3.2086095
3.2809799
3.342461
3.3869005
3.4083318
3.4143814
3.4041351
3.3895822
3.2515443
3.2516188
3.2517061
3.2517976
3.2518961
3.2520028
3.2521178
3.2522416
3.2523744
3.2525164
3.2526679
3.252829
3.2529996
3.2531793
3.2533673
3.253562
3.2537605
3.253958
3.254147
3.2543152
3.2544444
3.2545078
3.2544669
3.2542688
3.2538433
3.2531007
3.25193
3.2502
3.2477594
3.2444361
3.2400424
3.2343816
3.2272242
3.2182975
3.2072896
3.193841
3.1775869
3.1581749
3.1353086
3.1087912
3.0786232
3.0451078
3.0089717
2.9714338
2.9342097
2.899359
2.8690901
2.8458053
2.8317042
2.8284429
2.8369928
2.8580819
2.8920033
2.9383311
2.9955756
3.0612432
3.132919
3.2066913
3.2774818
3.3365913
3.3790192
3.4001575
3.4073741
3.3987984
3.3863581
3.2436427
3.2437294
3.2438311
3.2439384
3.2440544
3.2441807
3.2443177
3.2444658
3.2446257
3.2447977
3.2449823
3.2451797
3.2453898
3.2456124
3.2458466
3.2460906
3.2463414
3.2465942
3.2468411
3.2470699
3.2472626
3.2473928
3.2474232
3.2473023
3.2469616
3.2463129
3.2452477
3.2436374
3.2413352
3.2381779
3.2339905
3.2285245
3.2216463
3.2130691
3.2024897
3.1895852
3.1740252
3.1554599
3.1335987
3.108259
3.0794461
3.0474481
3.0129534
2.9771187
2.9415502
2.9081864
2.879198
2.8567051
2.8427945
2.8391564
2.8470163
2.8671982
2.9001366
2.945359
3.0013861
3.0659357
3.1364593
3.2085111
3.2766509
3.3325674
3.3727887
3.3933315
3.4014215
3.3942499
3.3837428
3.2390497
3.2391419
3.2392506
3.2393655
3.2394903
3.2396268
3.2397755
3.2399372
3.2401126
3.2403025
3.2405074
3.2407279
3.2409642
3.2412162
3.2414832
3.2417639
3.2420555
3.2423533
3.2426499
3.2429341
3.2431884
3.243388
3.2434972
3.2434668
3.2432308
3.2427038
3.2417798
3.2403321
3.2382155
3.235265
3.23131
3.2262201
3.2196663
3.2113938
3.2013503
3.1891257
3.1743842
3.1568234
3.1361894
3.1123063
3.0851723
3.0550515
3.0225744
2.9887879
2.9551631
2.923567
2.8958752
2.8741088
2.8603056
2.8561776
2.8631406
2.8822491
2.9139436
2.9577283
3.0122307
3.0753229
3.1441235
3.2136872
3.2783039
3.3305067
3.3680111
3.3878088
3.3965394
3.3905266
3.3817812
3.2374269
3.2375182
3.2376266
3.237741
3.2378658
3.2380028
3.2381528
3.2383167
3.2384955
3.2386902
3.2389016
3.2391305
3.2393778
3.2396435
3.2399276
3.2402294
3.2405467
3.2408759
3.2412109
3.2415417
3.2418533
3.2421233
3.2423194
3.2423967
3.2422932
3.2419274
3.2411969
3.239976
3.2381193
3.2354662
3.231848
3.2270922
3.2209337
3.2133513
3.2039155
3.192358
3.1786104
3.1623002
3.1431579
3.1210142
3.0958663
3.0679408
3.0377759
3.0062896
2.974858
2.9450265
2.9185723
2.8974679
2.8836031
2.8788673
2.8848523
2.902723
2.9329363
2.9750095
3.02773
3.0889647
3.1553563
3.2214264
3.2816698
3.3298204
3.3647235
3.3835441
3.3927362
3.3876691
3.3805333
3.2381755
3.2382605
3.2383623
3.238469
3.2385858
3.2387148
3.2388566
3.2390123
3.239183
3.2393701
3.2395745
3.2397976
3.2400402
3.2403035
3.2405877
3.240893
3.2412183
3.2415616
3.2419183
3.2422811
3.2426383
3.2429714
3.2432533
3.2434451
3.2434927
3.2433225
3.2428376
3.2419183
3.2404227
3.2381885
3.2350434
3.2307987
3.22532
3.2183758
3.2096948
3.1993216
3.1867612
3.1718187
3.1543691
3.1342137
3.111316
3.0858301
3.0581855
3.0292039
2.9999472
2.9718247
2.9465538
2.9258949
2.9118637
2.9064416
2.9113712
2.9278656
2.956365
2.9965225
3.0472481
3.1061984
3.1693565
3.2309347
3.2865484
3.3302892
3.3627223
3.3805382
3.39002
3.3857081
3.3800378
3.240627
3.2407013
3.240791
3.2408847
3.2409875
3.2411015
3.2412275
3.2413665
3.2415198
3.2416888
3.2418747
3.2420791
3.2423034
3.2425488
3.2428167
3.2431079
3.2434227
3.2437605
3.2441192
3.2444943
3.2448782
3.245258
3.2456134
3.2459145
3.2461179
3.2461622
3.2459654
3.2454198
3.2443914
3.2427223
3.240238
3.2367484
3.2320862
3.2260607
3.2185468
3.2092804
3.1980994
3.1849482
3.1694502
3.1515042
3.1310603
3.1081831
3.0832187
3.0567179
3.0295801
3.0031119
2.9787785
2.9584343
2.9441275
2.937979
2.9417585
2.9566971
2.983357
3.0215466
3.0700688
3.1260953
3.1851048
3.2418049
3.2921527
3.3320435
3.3619418
3.3787527
3.3883927
3.3846712
3.3803409
3.2440655
3.2441267
3.244201
3.2442783
3.2443636
3.2444584
3.2445638
3.2446807
3.2448103
3.2449541
3.2451134
3.2452898
3.245485
3.2457007
3.2459386
3.2462004
3.2464874
3.2468005
3.2471398
3.2475037
3.2478886
3.2482873
3.2486875
3.2490692
3.249402
3.2496416
3.2497246
3.2495641
3.249048
3.248035
3.2463598
3.2438371
3.2402811
3.2354935
3.2293274
3.2216155
3.2122665
3.2009838
3.1876772
3.1722138
3.1544065
3.134282
3.1119836
3.0879036
3.0628111
3.0377296
3.014156
2.9939362
2.9792347
2.972272
2.9747661
2.9880522
3.0128842
3.0491233
3.0952802
3.1477053
3.202036
3.2533234
3.2986576
3.3347871
3.3624053
3.3781694
3.3878552
3.384579
3.3814712
3.2479069
3.2479543
3.2480122
3.2480722
3.2481388
3.2482132
3.2482962
3.2483887
3.248492
3.2486072
3.2487357
3.2488793
3.2490394
3.249218
3.249417
3.2496387
3.2498849
3.2501577
3.2504588
3.2507891
3.2511483
3.2515343
3.2519418
3.2523606
3.2527736
3.2531539
3.2534609
3.253636
3.2535979
3.2532386
3.2524226
3.2509869
3.2487524
3.2455259
3.2411334
3.2353759
3.2280847
3.21913
3.2083618
3.1955375
3.1805095
3.1631524
3.1434707
3.1217186
3.0983808
3.0744475
3.0513752
3.0311373
3.0159169
3.0080042
3.0091718
3.0209704
3.0443109
3.0787935
3.122203
3.1703926
3.2195415
3.2650227
3.3059521
3.3385357
3.364039
3.3787447
3.3883973
3.3854487
3.383461
3.251702
3.2517364
3.251778
3.251822
3.2518709
3.2519258
3.2519874
3.2520564
3.2521338
3.2522208
3.2523184
3.2524283
3.252552
3.2526911
3.2528478
3.2530243
3.253223
3.2534462
3.2536967
3.2539769
3.2542889
3.2546341
3.2550121
3.2554209
3.2558552
3.2563042
3.2567482
3.257157
3.2574848
3.2576674
3.2576163
3.2572148
3.256319
3.2547579
3.2523462
3.2488797
3.2441562
3.237952
3.2300307
3.2201687
3.2080866
3.1935341
3.1764025
3.1567011
3.1348535
3.111787
3.0890208
3.0686012
3.0527758
3.0439924
3.0441689
3.0550358
3.0773169
3.1099502
3.1499136
3.1932021
3.2367379
3.2771465
3.3138259
3.3432708
3.366813
3.380455
3.390009
3.3872877
3.3863315
3.2552059
3.2552292
3.255257
3.2552871
3.2553208
3.2553586
3.2554013
3.2554494
3.2555038
3.2555655
3.2556357
3.2557153
3.2558052
3.255907
3.2560222
3.2561526
3.256301
3.2564703
3.2566633
3.2568833
3.2571334
3.2574174
3.2577388
3.2581008
3.2585057
3.2589542
3.2594442
3.259969
3.2605164
3.2610656
3.2615804
3.2620048
3.2622593
3.2622295
3.2617614
3.2606541
3.2586624
3.2554929
3.2508022
3.2442005
3.235269
3.2236128
3.2088869
3.191038
3.170461
3.1480669
3.1254899
3.104832
3.088435
3.0792045
3.0791043
3.0898028
3.1111816
3.1413812
3.1769034
3.215287
3.2534205
3.2894888
3.3223848
3.348963
3.3706713
3.3832634
3.3926739
3.3900974
3.3901013
3.2583361
3.25835
3.2583667
3.2583849
3.2584054
3.2584285
3.2584547
3.2584854
3.2585213
3.2585608
3.2586026
3.2586482
3.2587012
3.2587654
3.258844
3.2589377
3.2590456
3.2591681
3.259307
3.2594649
3.2596469
3.2598591
3.2601072
3.2603986
3.2607406
3.261141
3.2616093
3.2621577
3.2627974
3.2635392
3.2643935
3.2653643
3.2664406
3.2675869
3.2687189
3.2696858
3.2702455
3.270037
3.2685922
3.2653437
3.2596519
3.2508738
3.2385455
3.2225286
3.2031433
3.1813479
3.158897
3.1380135
3.1218589
3.1132262
3.1138684
3.1246634
3.1446801
3.1713334
3.2029982
3.2362143
3.2700705
3.3020515
3.331565
3.3555468
3.3755618
3.3871337
3.3963747
3.3938765
3.3947735
3.2611395
3.2611449
3.2611515
3.2611587
3.2611669
3.2611768
3.2611889
3.2612034
3.2612205
3.2612402
3.2612626
3.2612884
3.2613185
3.2613539
3.2613949
3.2614415
3.2614965
3.2615666
3.2616538
3.261755
3.2618721
3.2620138
3.2621917
3.2624151
3.262689
3.2630217
3.2634325
3.2639452
3.2645866
3.2653893
3.2663902
3.2676444
3.2692029
3.271088
3.2732955
3.2757517
3.2782548
3.2804519
3.2817971
3.281542
3.2788464
3.2728715
3.2629237
3.2487427
3.2305594
3.2094621
3.187663
3.1678257
3.1535248
3.1464719
3.1482124
3.1586807
3.1764843
3.19995
3.2274163
3.2564829
3.2863667
3.3148158
3.3413514
3.3629787
3.3814359
3.3920291
3.4010896
3.3986174
3.4003545
3.2636417
3.2636381
3.2636339
3.2636295
3.2636249
3.2636201
3.2636155
3.2636115
3.2636085
3.2636074
3.263608
3.2636091
3.2636104
3.2636123
3.2636157
3.2636229
3.2636389
3.2636707
3.2637212
3.2637833
3.2638538
3.2639421
3.2640592
3.264214
3.2644168
3.2646814
3.2650285
3.2654892
3.266102
3.26691
3.2679662
3.2693369
3.2711024
3.2733344
3.2760892
3.2793602
3.2830058
3.2867148
3.2899565
3.2919537
3.2917248
3.288198
3.2805357
3.2681741
3.2515404
3.2321585
3.2125862
3.1954595
3.1835708
3.1785682
3.1809305
3.1905638
3.2060893
3.2267664
3.2503388
3.2759449
3.3024865
3.3278205
3.3517032
3.3712068
3.3882445
3.3979126
3.4067941
3.4043103
3.4068542
3.2657597
3.2657471
3.2657324
3.2657169
3.2656998
3.265681
3.2656607
3.2656397
3.2656184
3.2655966
3.2655742
3.2655509
3.2655276
3.265506
3.2654872
3.2654719
3.2654605
3.2654532
3.2654515
3.2654608
3.2654881
3.2655401
3.2656212
3.2657365
3.2658988
3.2661267
3.2664396
3.266864
3.2674383
3.2682088
3.2692316
3.2705799
3.2723432
3.2746214
3.2775073
3.2810423
3.285149
3.2895887
3.2939145
3.2973445
3.2988425
3.2972228
3.2914296
3.2811969
3.267178
3.2508567
3.234533
3.220781
3.2118256
3.2081592
3.2109728
3.2197728
3.2336824
3.2512993
3.2721757
3.294829
3.3184349
3.3410417
3.3625899
3.3801896
3.3959436
3.4047492
3.4134621
3.4109473
3.4142768
3.2670719
3.2670524
3.2670296
3.2670055
3.2669796
3.2669514
3.2669209
3.2668882
3.2668531
3.2668158
3.2667765
3.2667354
3.2666932
3.2666507
3.2666089
3.2665695
3.2665347
3.2665065
3.266487
3.2664782
3.2664844
3.2665104
3.2665611
3.2666425
3.2667673
3.266957
3.2672359
3.2676267
3.2681562
3.2688714
3.2698446
3.271144
3.2728372
3.275039
3.2778465
3.2813012
3.2854073
3.2900203
3.2947299
3.298831
3.3013221
3.3012198
3.2976221
3.2901653
3.2792958
3.2666233
3.2541307
3.2439399
3.2372236
3.2349996
3.2384667
3.2466016
3.258803
3.274498
3.2930238
3.3131479
3.3342562
3.3544884
3.3739839
3.3898865
3.4044894
3.4125018
3.4210642
3.4185058
3.4226175
3.2672494
3.267228
3.2672029
3.2671765
3.2671479
3.2671169
3.2670835
3.2670476
3.2670092
3.2669685
3.2669257
3.2668809
3.2668348
3.2667879
3.266741
3.2666955
3.2666526
3.2666145
3.2665838
3.2665635
3.2665576
3.2665727
3.266618
3.2667014
3.2668266
3.2670019
3.2672496
3.2676026
3.2680863
3.2687305
3.2696038
3.2707838
3.2723238
3.2742951
3.2768234
3.2800273
3.2839294
3.2884431
3.2932553
3.2977919
3.3012864
3.3027299
3.3012724
3.2965302
3.2890319
3.2801273
3.2713978
3.2643995
3.2598806
3.2597082
3.2636364
3.2710819
3.2822425
3.2963597
3.3129905
3.3310142
3.3499829
3.3681554
3.3858623
3.4002631
3.4138405
3.4211388
3.4295784
3.4269978
3.4318764
3.2659744
3.2659574
3.2659374
3.2659163
3.2658936
3.2658689
3.2658423
3.2658138
3.2657833
3.265751
3.2657171
3.2656818
3.2656456
3.265609
3.2655729
3.2655382
3.2655065
3.2654792
3.2654589
3.2654484
3.2654508
3.2654708
3.2655149
3.2655908
3.2657095
3.2658834
3.2661252
3.2664569
3.2669079
3.2675083
3.2683038
3.2693591
3.2707523
3.2725859
3.2749666
3.2779862
3.2817066
3.2861244
3.2910519
3.2960263
3.300348
3.3031275
3.3036251
3.3015048
3.2972521
3.2919329
3.2867916
3.2826696
3.2807605
3.2820653
3.2863571
3.2937699
3.304202
3.3171319
3.3322292
3.3484898
3.3656483
3.3820496
3.3982052
3.4112858
3.4239638
3.4306282
3.4389775
3.4363961
3.442013
3.2636352
3.2636257
3.2636145
3.2636028
3.2635901
3.2635765
3.263562
3.2635465
3.2635302
3.2635132
3.2634957
3.2634781
3.2634606
3.263444
3.263429
3.2634165
3.2634078
3.2634048
3.2634096
3.263425
3.2634546
3.263503
3.2635761
3.2636808
3.2638253
3.2640222
3.2642868
3.2646336
3.2650815
3.2656702
3.2664692
3.2675405
3.2689194
3.2706926
3.273008
3.2759913
3.2797139
3.2841965
3.2893059
3.2946722
3.2996898
3.3036478
3.3058471
3.3060928
3.3048133
3.3027832
3.3007653
3.2993211
3.2997567
3.3024001
3.3074589
3.3149591
3.3249372
3.33697
3.3508427
3.3656523
3.3812896
3.3961751
3.4109982
3.4229322
3.4348292
3.4409408
3.4492317
3.4466768
3.4530333
3.260534
3.2605316
3.2605288
3.260526
3.2605232
3.2605204
3.2605177
3.2605152
3.2605133
3.260512
3.2605116
3.2605127
3.2605157
3.2605214
3.2605307
3.2605448
3.2605648
3.2605928
3.2606317
3.2606847
3.2607563
3.2608516
3.2609759
3.2611353
3.2613363
3.2615916
3.2619204
3.2623549
3.2629287
3.263649
3.264543
3.2656878
3.2671706
3.2690846
3.2715349
3.2746422
3.2785078
3.2831713
3.288519
3.2942703
3.2999151
3.3048623
3.3085706
3.3109416
3.3123472
3.313192
3.313716
3.314854
3.3173164
3.321316
3.3271517
3.3349131
3.3446584
3.3560413
3.3689537
3.382574
3.3969445
3.4105423
3.4242348
3.4351681
3.4463996
3.4520348
3.4603255
3.4577842
3.4649942
3.2569674
3.2569697
3.2569728
3.2569762
3.2569803
3.2569853
3.2569913
3.2569986
3.2570076
3.2570185
3.257032
3.2570486
3.2570691
3.2570945
3.257126
3.2571653
3.2572144
3.2572758
3.2573527
3.2574491
3.2575702
3.2577209
3.2579079
3.2581392
3.2584313
3.2588093
3.2592819
3.2598538
3.2605573
3.2614346
3.2625287
3.2639
3.2656206
3.2677731
3.2704751
3.2738629
3.2780316
3.2830169
3.2887354
3.2949397
3.3012229
3.3071267
3.3122012
3.3165214
3.3202375
3.3233118
3.3261515
3.3296257
3.3338228
3.3391119
3.3457835
3.3539042
3.3635731
3.3744995
3.3866694
3.399327
3.4126518
3.4251627
3.4379012
3.447971
3.4586583
3.463874
3.4722367
3.4696983
3.4777995
3.2527952
3.2528007
3.2528077
3.2528154
3.2528244
3.2528349
3.2528473
3.252862
3.2528793
3.2529001
3.2529247
3.2529544
3.2529901
3.2530331
3.2530852
3.2531486
3.2532258
3.2533201
3.2534355
3.2535771
3.2537507
3.2539643
3.2542284
3.2545549
3.2549572
3.2554494
3.2560507
3.2567853
3.2576838
3.2587848
3.2601372
3.2617936
3.2638227
3.2663411
3.2694716
3.2733196
3.2779802
3.2834867
3.289745
3.296551
3.3035523
3.310419
3.3168468
3.3228772
3.3283155
3.3333993
3.3385639
3.3438508
3.3496137
3.3561222
3.3636143
3.3721548
3.3818649
3.3924897
3.4040972
3.415982
3.428451
3.4400514
3.451995
3.4613281
3.4715857
3.4764255
3.4849446
3.4824039
3.4914187
3.2476955
3.2477045
3.2477155
3.2477278
3.247742
3.2477585
3.2477778
3.2478004
3.2478269
3.2478581
3.2478951
3.2479389
3.2479911
3.2480533
3.2481279
3.2482175
3.2483253
3.2484554
3.2486128
3.2488034
3.2490348
3.2493169
3.2496598
3.2500763
3.2505826
3.2511983
3.2519481
3.2528631
3.2539773
3.2553279
3.2569648
3.2589713
3.2614477
3.2644905
3.2682161
3.2727355
3.2781194
3.2843686
3.2913538
3.2989173
3.3067519
3.31458
3.322339
3.3298004
3.3370819
3.3440654
3.3509044
3.3578041
3.3649753
3.3726003
3.3808873
3.3898773
3.3997083
3.4101484
3.4213372
3.4326073
3.4443814
3.4552244
3.4665106
3.4752249
3.4851458
3.4896928
3.498401
3.4958931
3.5058331
3.241242
3.2412563
3.2412736
3.2412927
3.2413146
3.2413398
3.241369
3.2414027
3.2414419
3.2414875
3.2415408
3.2416033
3.2416768
3.2417633
3.2418657
3.2419872
3.2421314
3.2423035
3.2425091
3.2427552
3.2430504
3.243405
3.2438324
3.2443478
3.2449727
3.2457307
3.2466455
3.2477506
3.2490938
3.2507382
3.2527584
3.255242
3.2582934
3.2620311
3.2665677
3.2719877
3.2783201
3.2855125
3.2934323
3.3019149
3.3106795
3.3196738
3.3287545
3.3377185
3.3464873
3.3549909
3.3633728
3.3717049
3.3801313
3.3887782
3.3978141
3.4072582
3.4172604
3.427602
3.4384842
3.4492679
3.4604816
3.4706988
3.481447
3.4896434
3.4993219
3.5036199
3.5125816
3.5101225
3.520989
3.2330815
3.2331033
3.2331299
3.2331588
3.2331916
3.2332291
3.233272
3.2333211
3.2333776
3.2334427
3.2335178
3.2336048
3.2337059
3.2338237
3.2339612
3.2341221
3.2343111
3.2345337
3.2347968
3.2351072
3.2354755
3.2359168
3.2364444
3.2370742
3.2378272
3.2387346
3.2398391
3.241188
3.2428414
3.2448767
3.24739
3.2504951
3.2543152
3.2589687
3.2645475
3.2710922
3.2785749
3.2868966
3.2959242
3.3054374
3.3153957
3.325711
3.3360799
3.3463753
3.3564758
3.3663971
3.3761399
3.3857394
3.3952884
3.4048577
3.4145858
3.4244697
3.434668
3.4449692
3.4556279
3.4660264
3.4767884
3.4864894
3.4968005
3.504585
3.5140677
3.5182081
3.527425
3.5250751
3.5368227
3.2229866
3.2230185
3.2230571
3.2230988
3.2231458
3.2231991
3.2232596
3.2233283
3.2234066
3.223496
3.2235984
3.2237158
3.2238509
3.2240067
3.224186
3.2243904
3.2246283
3.224912
3.2252448
3.2256303
3.2260806
3.226613
3.2272485
3.2280094
3.228924
3.2300316
3.2313826
3.2330432
3.2350985
3.2376534
3.2408314
3.244767
3.2495899
3.2554045
3.2622597
3.2701363
3.2789582
3.2885918
3.2988624
3.3096551
3.3210361
3.3325941
3.3442061
3.3557387
3.3671525
3.3783591
3.3893337
3.4000706
3.4106209
3.4210164
3.4313716
3.441665
3.4520627
3.4623578
3.4728503
3.4829388
3.4933336
3.5026161
3.5125752
3.5200271
3.5293826
3.5334321
3.5429104
3.5406659
3.5533566
3.2107518
3.2107959
3.2108489
3.2109061
3.2109704
3.2110432
3.2111253
3.2112178
3.2113216
3.2114367
3.2115642
3.2117121
3.2118904
3.2120947
3.2123203
3.212576
3.2128725
3.2132177
3.2136207
3.2140921
3.2146441
3.2152936
3.2160648
3.216989
3.2181071
3.2194734
3.221159
3.2232557
3.2258777
3.2291602
3.2332513
3.2382946
3.244409
3.2516547
3.2600147
3.2694242
3.2797412
3.2908023
3.302485
3.3148158
3.327507
3.3403012
3.353164
3.3659812
3.3786308
3.3910264
3.403116
3.4148659
3.4263
3.437422
3.4483289
3.4589848
3.4695637
3.4798641
3.4902239
3.5000604
3.5101516
3.5190862
3.5287602
3.5359635
3.5452439
3.5492973
3.5589962
3.5571593
3.5702998
3.1965685
3.1966269
3.1966949
3.196765
3.1968426
3.1969365
3.1970495
3.1971718
3.1972988
3.1974395
3.1976014
3.1977873
3.198
3.1982437
3.1985232
3.1988442
3.1992124
3.1996343
3.20012
3.2006853
3.2013498
3.2021379
3.2030823
3.2042264
3.2056286
3.2073652
3.2095352
3.2122616
3.2156897
3.2199785
3.2252851
3.2317363
3.2394087
3.2482926
3.2583301
3.2693981
3.2812736
3.2938683
3.3071807
3.3209436
3.334919
3.349046
3.3632102
3.3772567
3.3910748
3.4045638
3.4176557
3.4302987
3.4424997
3.4542443
3.4656175
3.4765767
3.4873
3.4975962
3.5078342
3.5174492
3.5272777
3.5359249
3.5453573
3.5523745
3.5615977
3.5657276
3.5756333
3.5740355
3.5877205
3.180633
3.1807092
3.180789
3.1808697
3.1809635
3.1810718
3.1811952
3.1813356
3.1814955
3.181678
3.1818876
3.1821269
3.1823954
3.182692
3.183022
3.1833959
3.1838242
3.1843174
3.1848894
3.1855589
3.1863505
3.1872971
3.1884435
3.1898492
3.1915938
3.1937805
3.1965394
3.200027
3.2044189
3.2098942
3.2166115
3.2246681
3.2340963
3.2448546
3.2567847
3.2696612
3.2833913
3.2978599
3.312827
3.3280435
3.3434622
3.3589628
3.3743954
3.3896309
3.4045481
3.4190389
3.4330267
3.4464507
3.4593072
3.4715718
3.4833243
3.4945175
3.5053373
3.5156054
3.5257151
3.5351264
3.5447142
3.5531138
3.5623412
3.5692422
3.5784279
3.5828353
3.5928841
3.5924524
3.6071786
3.1630965
3.1631827
3.163286
3.1633971
3.1635197
3.1636559
3.1638076
3.1639765
3.1641648
3.164375
3.1646102
3.1648738
3.1651703
3.1655051
3.1658849
3.1663186
3.1668174
3.1673961
3.1680743
3.1688785
3.1698442
3.1710193
3.1724677
3.1742741
3.1765478
3.1794261
3.1830737
3.1876768
3.1934281
3.2005034
3.2090261
3.2190395
3.2305287
3.2433144
3.2572231
3.2720936
3.2877883
3.3040128
3.3205178
3.3372727
3.3541509
3.3709998
3.3876836
3.4040648
3.4200144
3.4354224
3.4502078
3.4643068
3.4777103
3.4903934
3.5024254
3.5137712
3.524618
3.5348102
3.5447589
3.5539544
3.5632998
3.5714703
3.5805031
3.5873276
3.5964683
3.6012651
3.6112175
3.6131164
3.6247376
3.1461745
3.1462731
3.1463936
3.146518
3.1466551
3.1468076
3.1469769
3.1471652
3.1473747
3.1476084
3.1478699
3.1481635
3.1484948
3.1488708
3.1493006
3.1497963
3.1503739
3.1510549
3.1518683
3.1528528
3.1540607
3.1555616
3.1574464
3.1598321
3.162864
3.1667157
3.1715827
3.1776676
3.1851565
3.1941882
3.2048181
3.2170419
3.2306959
3.2455693
3.2615256
3.2782767
3.2955967
3.3132977
3.3313329
3.3495495
3.3677847
3.3858884
3.4037112
3.4211058
3.4379414
3.4541065
3.4695215
3.4841247
3.4979064
3.5108449
3.5230098
3.5343792
3.5451425
3.5551802
3.5648971
3.5738516
3.5829116
3.5908756
3.5996774
3.6064945
3.61555
3.6207454
3.6307603
3.6337383
3.6451197
3.1321096
3.1322163
3.1323464
3.1324805
3.1326278
3.1327915
3.132973
3.1331745
3.1333986
3.1336489
3.1339298
3.1342464
3.1346061
3.1350182
3.1354951
3.1360534
3.1367159
3.1375126
3.1384844
3.1396858
3.1411889
3.1430879
3.1455031
3.1485837
3.1525083
3.1574786
3.1637073
3.1713962
3.1807058
3.1917213
3.2044426
3.2187699
3.2344893
3.2514133
3.269085
3.2874046
3.3062683
3.3255228
3.344994
3.3645213
3.38395
3.4031189
3.4218728
3.4400643
3.4575638
3.4742647
3.4900923
3.5049913
3.5189537
3.5319666
3.5441001
3.5553563
3.5659217
3.5757216
3.5851402
3.5938216
3.6025615
3.6103344
3.6188763
3.6257506
3.6346421
3.6404067
3.6502475
3.6548904
3.6656015
3.1239795
3.124089
3.1242223
3.1243595
3.1245101
3.1246771
3.1248624
3.1250682
3.1252977
3.125555
3.1258455
3.1261759
3.1265556
3.126997
3.1275168
3.1281375
3.1288898
3.1298145
3.1309663
3.1324174
3.1342614
3.136618
3.1396353
3.143491
3.1483881
3.1545444
3.1621724
3.171453
3.1825029
3.1953472
3.2099147
3.2260409
3.2434739
3.2618065
3.2809118
3.3007698
3.3210453
3.3415733
3.362204
3.3827751
3.4031224
3.4230806
3.4424909
3.4612079
3.4791065
3.4960875
3.5120829
3.5270455
3.5409707
3.5538581
3.5657814
3.5767713
3.5870099
3.5964739
3.6055128
3.6138695
3.6222423
3.6298087
3.6380636
3.6449949
3.653714
3.6599851
3.6697321
3.6754359
3.6861662
3.1232904
3.1233978
3.1235277
3.1236621
3.1238094
3.1239729
3.1241543
3.1243566
3.1245834
3.1248396
3.1251318
3.1254686
3.1258621
3.1263284
3.1268892
3.1275741
3.1284227
3.1294879
3.1308391
3.1325665
3.1347852
3.137638
3.141297
3.1459606
3.1518455
3.1591705
3.168133
3.1788783
3.1914703
3.2058706
3.2219528
3.2394832
3.258142
3.2777492
3.2982166
3.31916
3.3404366
3.361883
3.3833302
3.4046077
3.4255427
3.4459646
3.4657143
3.4846509
3.5026561
3.5196392
3.5355394
3.5503183
3.5639768
3.5765295
3.5880592
3.5986252
3.6084065
3.6174273
3.6260012
3.6339678
3.6419245
3.6492539
3.6572006
3.6641774
3.6727279
3.6795038
3.6891882
3.696097
3.70691
3.1320673
3.1321679
3.132288
3.132414
3.1325521
3.1327055
3.1328764
3.1330679
3.1332844
3.1335318
3.133818
3.1341539
3.1345545
3.1350398
3.1356371
3.1363834
3.1373276
3.1385343
3.1400873
3.1420938
3.1446874
3.1480298
3.15231
3.1577384
3.1645339
3.1729047
3.1830209
3.1949859
3.2088113
3.2244072
3.2415946
3.2601218
3.279753
3.3002848
3.3214323
3.3430261
3.3648853
3.386834
3.4086939
3.430284
3.4514241
3.4719407