/*--------------------------------*- C++ -*----------------------------------*\
  =========                 |
  \\      /  F ield         | OpenFOAM: The Open Source CFD Toolbox
   \\    /   O peration     | Website:  https://openfoam.org
    \\  /    A nd           | Version:  13
     \\/     M anipulation  |
\*---------------------------------------------------------------------------*/
FoamFile
{
    format      ascii;
    class       volScalarField;
    location    "36.599491";
    object      pMean;
}
// * * * * * * * * * * * * * * * * * * * * * * * * * * * * * * * * * * * * * //

dimensions      [0 2 -2 0 0 0 0];

internalField   nonuniform List<scalar> 
17140
(
1.1341172
1.1340328
1.133931
1.1338269
1.1337141
1.133591
1.1334574
1.1333129
1.1331572
1.1329899
1.1328109
1.1326197
1.1324163
1.1322002
1.1319707
1.1317262
1.1314645
1.1311813
1.1308703
1.1305218
1.1301216
1.1296498
1.1290791
1.1283726
1.1274811
1.1263438
1.1248999
1.1230956
1.1208791
1.1181905
1.1149479
1.1110525
1.1063963
1.1008606
1.0943199
1.0866467
1.0777179
1.0674226
1.0556748
1.0424302
1.0277104
1.011632
0.99444482
0.97657021
0.95861657
0.94141617
0.92595452
0.91310844
0.90376735
0.89870408
0.89848617
0.90349725
0.91404849
0.93012231
0.95158608
0.97767222
1.0079155
1.0403538
1.0754999
1.1094093
1.1454321
1.1736857
1.2057294
1.2198539
1.2456244
1.1328629
1.1327801
1.1326803
1.1325783
1.1324679
1.1323473
1.1322163
1.1320747
1.131922
1.131758
1.1315824
1.131395
1.1311956
1.1309838
1.1307589
1.1305194
1.1302632
1.129986
1.1296817
1.1293407
1.1289489
1.1284866
1.1279267
1.1272326
1.1263552
1.1252339
1.1238074
1.1220218
1.119825
1.1171562
1.1139331
1.1100563
1.105418
1.0998989
1.0933732
1.0857126
1.0767932
1.0665034
1.0547563
1.0415066
1.0267751
1.0106776
0.99346343
0.97555414
0.95756505
0.94032699
0.92481147
0.9119405
0.90259161
0.89751239
0.89728142
0.90228601
0.91282286
0.92888105
0.95033598
0.97639211
1.0065895
1.0389522
1.0739554
1.1076099
1.1432662
1.1712475
1.2032712
1.2176646
1.244373
1.1298926
1.129814
1.1297192
1.1296223
1.1295172
1.1294023
1.1292776
1.1291426
1.1289971
1.1288407
1.1286732
1.1284945
1.1283044
1.1281025
1.1278883
1.1276605
1.1274169
1.1271537
1.1268649
1.1265411
1.1261687
1.1257284
1.1251935
1.1245278
1.1236832
1.1225988
1.1212122
1.1194685
1.1173148
1.11469
1.1115111
1.107678
1.1030821
1.0976033
1.0911141
1.0834847
1.0745891
1.0643136
1.0525689
1.0393074
1.0245477
1.0084042
0.99112721
0.97314094
0.95507281
0.93776522
0.92216943
0.9092273
0.89983344
0.89472533
0.8944616
0.89941635
0.90988763
0.92587063
0.94724471
0.97319389
1.0032575
1.0354345
1.0701874
1.1035304
1.138867
1.1667872
1.1990376
1.2141183
1.2420687
1.1252614
1.1251894
1.1251027
1.1250136
1.1249168
1.124811
1.1246961
1.1245716
1.1244373
1.1242928
1.1241381
1.123973
1.1237975
1.1236112
1.1234137
1.1232039
1.1229799
1.1227383
1.1224732
1.122176
1.1218335
1.1214269
1.1209302
1.1203081
1.1195136
1.118486
1.1171612
1.1154818
1.1133941
1.1108366
1.1077265
1.103962
1.0994335
1.0940192
1.0875894
1.0800115
1.0711566
1.0609076
1.0491714
1.0358968
1.0210989
1.0048912
0.98752537
0.96943149
0.95125438
0.93384843
0.91814825
0.90512329
0.89567198
0.89052313
0.89021636
0.89510338
0.9054738
0.92132765
0.94254878
0.96828804
0.99807886
1.0299431
1.0643559
1.0973597
1.1324755
1.160587
1.1934535
1.2094828
1.2388605
1.1191162
1.1190529
1.1189771
1.1188984
1.1188129
1.1187193
1.1186175
1.1185071
1.1183878
1.1182594
1.1181219
1.1179751
1.117819
1.1176535
1.1174783
1.1172925
1.1170945
1.1168812
1.1166474
1.1163849
1.1160812
1.1157185
1.1152714
1.114706
1.1139765
1.1130235
1.1117806
1.110186
1.1081849
1.1057167
1.102698
1.099026
1.0945889
1.0892632
1.0829161
1.0754118
1.0666172
1.0564109
1.0446952
1.0314139
1.0165782
1.0003006
0.98283563
0.96462331
0.94633071
0.92881501
0.91300867
0.89990902
0.89041314
0.88524008
0.88489777
0.88971353
0.89996897
0.91566529
0.93668265
0.96214974
0.99161351
1.0230908
1.0571325
1.0898899
1.1249351
1.1534995
1.1871549
1.2043961
1.2350431
1.1116975
1.1116449
1.1115824
1.1115166
1.1114449
1.1113663
1.1112806
1.1111875
1.1110868
1.1109783
1.1108619
1.1107375
1.1106054
1.1104653
1.1103173
1.1101606
1.1099939
1.1098146
1.109618
1.1093966
1.1091388
1.1088276
1.1084389
1.1079398
1.1072865
1.1064218
1.1052771
1.1037852
1.101889
1.099528
1.0966201
1.0930617
1.0887381
1.0835236
1.0772824
1.0698747
1.0611627
1.0510201
1.0393432
1.0260705
1.011209
0.99487046
0.97731352
0.95899158
0.94059592
0.92297775
0.90708935
0.89394186
0.88442818
0.87925734
0.87890466
0.88366801
0.89381944
0.90934977
0.93013032
0.95527282
0.98435301
1.0154236
1.0491045
1.0817397
1.1169632
1.1462656
1.1808841
1.1993343
1.2309752
1.1033315
1.1032911
1.1032432
1.1031923
1.1031366
1.1030753
1.1030084
1.1029354
1.1028562
1.1027706
1.1026786
1.1025803
1.1024757
1.102365
1.102248
1.1021244
1.1019931
1.1018519
1.1016968
1.1015208
1.1013133
1.1010583
1.100733
1.100306
1.0997354
1.0989666
1.0979311
1.0965567
1.0947794
1.0925385
1.0897556
1.0863279
1.0821365
1.0770534
1.0709399
1.063652
1.0550472
1.0449933
1.0333807
1.0201417
1.0052794
0.98890544
0.97128394
0.95288371
0.93441475
0.91672721
0.90079564
0.8876294
0.87812555
0.87298141
0.87264232
0.87737824
0.88745104
0.90283958
0.92341133
0.9482506
0.97695005
1.0076742
1.0410904
1.0738204
1.1094546
1.1397032
1.175269
1.1946834
1.2268901
1.0944126
1.0943855
1.0943532
1.0943186
1.0942805
1.0942383
1.0941919
1.094141
1.0940856
1.0940254
1.0939604
1.0938908
1.0938166
1.093738
1.0936549
1.0935672
1.093474
1.0933734
1.0932618
1.0931331
1.0929774
1.09278
1.0925192
1.0921654
1.0916785
1.0910069
1.0900849
1.0888363
1.0871873
1.0850746
1.0824256
1.0791388
1.0750935
1.0701586
1.0641923
1.0570469
1.0485751
1.0386388
1.0271223
1.0139524
0.99912818
0.98276175
0.96512395
0.94669932
0.92820394
0.91049691
0.89456382
0.88140119
0.87192094
0.86681573
0.8665081
0.87123735
0.88125496
0.89654023
0.91694876
0.94156923
0.96997825
1.0004501
1.0337803
1.0667921
1.1030244
1.134337
1.1706481
1.1908931
1.2232422
1.0853787
1.0853654
1.0853494
1.0853318
1.0853121
1.08529
1.0852653
1.0852378
1.0852074
1.0851741
1.0851377
1.0850985
1.0850564
1.0850116
1.0849641
1.0849138
1.0848598
1.0848006
1.0847329
1.0846511
1.0845462
1.0844044
1.0842054
1.0839213
1.0835141
1.0829347
1.0821209
1.080998
1.0794845
1.0775048
1.0749894
1.0718477
1.067957
1.0631817
1.0573789
1.0503972
1.042085
1.032299
1.0209178
1.0078631
0.99313138
0.97683492
0.95925084
0.94087683
0.92242237
0.90475943
0.88886956
0.87573282
0.86628518
0.86122091
0.86094204
0.86567237
0.87566774
0.89089873
0.9112063
0.93568354
0.96389463
0.994279
1.0277627
1.0614638
1.0986092
1.1309391
1.1677032
1.1881968
1.2200584
1.0766809
1.0766813
1.0766815
1.076681
1.0766798
1.0766779
1.076675
1.0766711
1.0766661
1.07666
1.0766526
1.0766442
1.0766348
1.0766243
1.0766128
1.0766
1.0765852
1.0765667
1.0765416
1.0765046
1.0764472
1.0763566
1.0762137
1.0759921
1.075656
1.0751588
1.0744416
1.073433
1.0720512
1.0702106
1.0678295
1.0648251
1.061089
1.0564834
1.0508583
1.0440604
1.0359354
1.0263361
1.0151373
1.0022569
0.98768875
0.97154584
0.9541094
0.93588243
0.91756432
0.90003189
0.88424673
0.87118017
0.86178437
0.85675754
0.85651136
0.86127372
0.87128909
0.88650738
0.90678166
0.93120832
0.95939716
0.99004108
1.0241
1.0586758
1.0964839
1.1294461
1.1658689
1.1861354
1.2171534
1.0687437
1.0687571
1.0687726
1.0687883
1.0688048
1.0688221
1.0688402
1.068859
1.0688785
1.0688988
1.0689197
1.0689414
1.0689638
1.0689868
1.0690104
1.0690341
1.0690571
1.0690776
1.0690927
1.0690973
1.0690832
1.0690382
1.0689444
1.0687766
1.0685008
1.0680729
1.0674373
1.0665259
1.0652594
1.0635507
1.0613105
1.0584465
1.0548561
1.0504156
1.0449782
1.0383853
1.0304792
1.0211109
1.0101523
0.9975194
0.9832049
0.96732212
0.95015503
0.93219699
0.91414214
0.89685801
0.88127619
0.86835769
0.8590536
0.85408551
0.85388401
0.85865097
0.86865352
0.88387281
0.90415437
0.9286199
0.95699888
0.98809008
1.0227789
1.0580869
1.0963017
1.1292906
1.1650891
1.1851472
1.2147608
1.0619299
1.0619548
1.0619839
1.0620141
1.0620464
1.0620811
1.0621181
1.0621576
1.0621996
1.0622441
1.0622911
1.0623407
1.0623927
1.0624471
1.0625036
1.0625616
1.06262
1.062677
1.0627293
1.0627719
1.0627967
1.062792
1.0627405
1.062618
1.0623923
1.0620213
1.0614521
1.0606205
1.0594503
1.0578558
1.0557459
1.0530246
1.0495886
1.0453179
1.040074
1.0337035
1.0260496
1.0169621
1.0063122
0.99401511
0.98006321
0.96456912
0.94781483
0.9302768
0.9126378
0.89574023
0.88048688
0.86781889
0.85868151
0.85377972
0.85352362
0.85821166
0.86814149
0.88332721
0.90360298
0.92817162
0.95682684
0.98847095
1.0238217
1.0597343
1.0980852
1.1309136
1.1654808
1.1849605
1.2125976
1.0565007
1.056535
1.0565751
1.0566172
1.0566625
1.0567116
1.0567646
1.0568215
1.0568825
1.0569478
1.0570173
1.0570912
1.0571693
1.0572515
1.0573375
1.0574263
1.057517
1.0576072
1.0576938
1.0577714
1.0578321
1.0578642
1.057851
1.0577691
1.0575875
1.0572657
1.0567533
1.0559891
1.0549012
1.0534066
1.0514142
1.0488285
1.0455485
1.0414595
1.0364298
1.0303104
1.0229487
1.0141976
1.0039333
0.99207146
0.97860465
0.96364159
0.947454
0.93050355
0.91344675
0.89707957
0.88227753
0.86997305
0.86101989
0.85611502
0.85573988
0.86030331
0.87012665
0.88524897
0.90552909
0.93023663
0.95929004
0.99153475
1.0275054
1.0636994
1.101612
1.1333678
1.1665753
1.1852006
1.2108032
1.0525925
1.0526335
1.0526815
1.0527322
1.052787
1.0528467
1.0529114
1.0529814
1.053057
1.0531382
1.0532254
1.0533186
1.0534177
1.0535227
1.0536331
1.0537482
1.0538666
1.0539862
1.0541035
1.0542133
1.0543078
1.0543754
1.0543998
1.0543586
1.0542214
1.0539491
1.0534929
1.052794
1.051784
1.0503855
1.0485156
1.0460575
1.0429396
1.0390461
1.0342517
1.0284143
1.0213974
1.0130553
1.0032657
0.99194876
0.97909747
0.9648137
0.94935302
0.93315217
0.91682533
0.90111676
0.88688494
0.87496121
0.86616455
0.86121908
0.86071717
0.86510788
0.87479607
0.88983951
0.91010083
0.93496784
0.96435563
0.99720027
1.0333825
1.0693642
1.1060745
1.1367902
1.1681086
1.1855524
1.2094314
1.0501966
1.050241
1.0502934
1.0503489
1.0504091
1.050475
1.0505468
1.0506248
1.0507095
1.0508011
1.0508999
1.0510061
1.05112
1.0512413
1.0513698
1.051505
1.0516455
1.0517894
1.0519333
1.0520723
1.0521989
1.0523022
1.0523667
1.0523706
1.0522852
1.0520726
1.0516856
1.0510673
1.0501511
1.0488606
1.0471158
1.0448536
1.041925
1.038208
1.0336823
1.0281817
1.0215603
1.0136917
1.0044667
0.9938072
0.98170198
0.96824195
0.953659
0.93834648
0.92286506
0.9079309
0.89428521
0.88272054
0.87406823
0.86907092
0.86840298
0.87261915
0.88215428
0.89708086
0.91726041
0.942292
0.97214185
1.0052523
1.0411413
1.076166
1.1115342
1.1404661
1.1696825
1.186087
1.208274
1.0491811
1.049226
1.0492793
1.0493356
1.0493971
1.0494645
1.0495383
1.049619
1.0497069
1.0498026
1.0499064
1.0500188
1.05014
1.0502702
1.0504093
1.0505569
1.0507123
1.0508736
1.0510383
1.0512019
1.0513579
1.0514964
1.0516032
1.0516588
1.0516358
1.0514985
1.0512015
1.050689
1.0498956
1.0487481
1.0471679
1.0450743
1.0423503
1.0389719
1.0347506
1.0295802
1.0234266
1.0161324
1.0075809
0.99769584
0.98646369
0.97395923
0.96037714
0.94605965
0.93152843
0.9173785
0.90430637
0.89309366
0.88454466
0.87949133
0.87866733
0.88271258
0.89207528
0.90678786
0.92697162
0.95230409
0.98229699
1.0150762
1.0502435
1.0839414
1.1171896
1.1442048
1.1714452
1.186732
1.2074958
1.0492938
1.0493365
1.0493875
1.0494412
1.0494999
1.0495647
1.0496359
1.049714
1.0497996
1.0498932
1.0499955
1.0501069
1.0502279
1.050359
1.0505003
1.0506519
1.0508134
1.0509837
1.0511609
1.0513418
1.051521
1.0516906
1.0518385
1.0519476
1.0519941
1.0519458
1.0517599
1.0513837
1.0507537
1.0497973
1.0484357
1.0465833
1.0441742
1.0411031
1.0372513
1.032628
1.0270222
1.0203527
1.0125618
1.0035591
0.9933152
0.98187454
0.96938792
0.95615829
0.94258622
0.92921441
0.91671099
0.90579769
0.89734642
0.8922328
0.89128161
0.8951348
0.90422605
0.91887409
0.93916848
0.96457529
0.99414845
1.0265232
1.0602025
1.0919221
1.1229976
1.1479709
1.1733426
1.1876259
1.2071327
1.0502415
1.0502797
1.0503258
1.0503739
1.0504268
1.0504853
1.0505499
1.0506212
1.0506996
1.0507859
1.0508807
1.0509847
1.0510986
1.0512229
1.0513582
1.0515051
1.0516634
1.0518331
1.0520132
1.0522015
1.0523948
1.0525871
1.0527697
1.0529291
1.0530463
1.0530943
1.0530367
1.0528263
1.0524037
1.0516987
1.0506333
1.0491218
1.0470856
1.0444389
1.0411196
1.0370022
1.0320376
1.026184
1.0192667
1.0112461
1.0020865
0.9917944
0.98048504
0.96835617
0.95574358
0.9431489
0.93115205
0.92052307
0.91215955
0.90700361
0.9058775
0.90947627
0.91847445
0.93313633
0.95341078
0.97845284
1.0078166
1.0387298
1.070421
1.1000546
1.1286691
1.1518617
1.1755144
1.1888468
1.2072446
1.0517019
1.0517341
1.0517732
1.051814
1.0518589
1.0519088
1.0519641
1.0520254
1.0520933
1.0521683
1.0522513
1.0523429
1.0524439
1.0525552
1.0526775
1.0528116
1.0529582
1.0531176
1.0532898
1.0534741
1.0536689
1.053871
1.0540748
1.0542713
1.0544471
1.0545826
1.0546496
1.0546099
1.0544139
1.0539991
1.053292
1.0522095
1.0506682
1.0485778
1.0458697
1.0424677
1.0383209
1.0333054
1.0273889
1.0204859
1.0125061
1.0034442
0.99333531
0.98231293
0.97066064
0.95877275
0.94725793
0.93686515
0.92857218
0.92329226
0.92198895
0.92546082
0.93442265
0.94906208
0.96909456
0.9940448
1.0222031
1.0511116
1.0808296
1.1078467
1.134446
1.1559133
1.1780024
1.1904286
1.2078365
1.0534019
1.0534276
1.0534589
1.0534914
1.0535274
1.0535676
1.0536123
1.0536621
1.0537174
1.053779
1.0538474
1.0539236
1.0540082
1.0541021
1.0542064
1.0543219
1.0544496
1.0545905
1.0547453
1.0549145
1.0550979
1.0552945
1.0555019
1.0557155
1.0559279
1.0561268
1.0562943
1.0564045
1.0564213
1.0562969
1.0559713
1.0553719
1.0544186
1.0530243
1.0511092
1.0485847
1.0453725
1.0414194
1.0366445
1.0309388
1.0242292
1.0164372
1.0075454
0.99762921
0.98685965
0.97562578
0.96450403
0.95431359
0.94598249
0.9406076
0.93919309
0.94262908
0.9517046
0.96625
0.98628748
1.0104005
1.03658
1.0636789
1.0906694
1.1156805
1.1402984
1.1601875
1.1808465
1.1924037
1.2089311
1.0551227
1.0551419
1.0551652
1.0551897
1.0552169
1.0552473
1.0552813
1.0553193
1.0553618
1.0554094
1.0554625
1.0555221
1.0555887
1.0556633
1.0557469
1.0558404
1.0559451
1.0560621
1.0561927
1.0563379
1.0564988
1.056676
1.0568696
1.0570785
1.0573005
1.0575307
1.0577605
1.0579766
1.0581587
1.0582784
1.0582965
1.0581611
1.0578081
1.0571611
1.0561365
1.0546436
1.0525926
1.0498813
1.0464026
1.042061
1.0367185
1.0302529
1.0225927
1.0137116
1.0037561
0.993067
0.98224227
0.97213913
0.96380436
0.95840597
0.95703796
0.96077898
0.96993626
0.98467956
1.0043167
1.0266625
1.0511549
1.0756614
1.100522
1.1234787
1.1463055
1.1647209
1.1840652
1.1947865
1.2105291
1.0567351
1.0567484
1.0567644
1.0567815
1.0568006
1.056822
1.0568461
1.0568731
1.0569035
1.0569378
1.0569766
1.0570202
1.0570694
1.0571247
1.0571871
1.0572573
1.0573367
1.0574267
1.0575286
1.057644
1.0577745
1.0579218
1.0580878
1.0582739
1.0584815
1.0587112
1.0589622
1.0592321
1.0595156
1.0598039
1.0600811
1.0603229
1.060494
1.0605429
1.0604008
1.0599787
1.0591687
1.0578423
1.0558507
1.0530227
1.0491701
1.0441063
1.0376636
1.0297668
1.0205325
1.0102676
0.99966563
0.98965632
0.98132784
0.97612208
0.97530848
0.97940026
0.98911655
1.0038766
1.0221867
1.0427028
1.0651686
1.0873838
1.1101677
1.1313215
1.1525005
1.1695345
1.1876726
1.1975924
1.2126355
1.0581802
1.0581882
1.0581979
1.0582083
1.0582201
1.0582333
1.0582483
1.0582656
1.0582854
1.0583074
1.0583311
1.0583571
1.0583871
1.0584226
1.0584649
1.0585146
1.0585716
1.0586364
1.0587098
1.0587934
1.0588894
1.0590007
1.0591303
1.0592815
1.0594583
1.0596646
1.0599055
1.0601868
1.0605147
1.0608947
1.0613325
1.0618315
1.0623868
1.0629831
1.0635835
1.0641217
1.0644923
1.0645399
1.0640635
1.062819
1.0605195
1.0568879
1.0516542
1.044721
1.0361264
1.0262445
1.0158427
1.0059026
0.99799956
0.99371974
0.99358953
0.99864225
1.008815
1.022705
1.0392921
1.0584218
1.0783612
1.0987734
1.1197613
1.1392367
1.1588992
1.174647
1.1916773
1.2008238
1.2152413
1.059461
1.059464
1.0594678
1.0594718
1.0594762
1.0594814
1.0594877
1.0594953
1.0595043
1.0595147
1.0595269
1.0595412
1.0595578
1.0595773
1.0595997
1.059625
1.0596545
1.0596909
1.0597354
1.0597877
1.059849
1.0599234
1.0600162
1.0601319
1.0602736
1.0604461
1.0606588
1.0609235
1.0612536
1.0616652
1.0621771
1.0628165
1.0636083
1.0645623
1.065679
1.0669295
1.0682288
1.0694263
1.0702868
1.0704925
1.069661
1.0673893
1.0633394
1.0573137
1.0493345
1.0398669
1.0298901
1.0207487
1.0143052
1.0110856
1.0122598
1.0181861
1.0279814
1.0404588
1.0559521
1.0728589
1.0912716
1.1099863
1.1292988
1.147243
1.1655127
1.1800626
1.1960798
1.2044871
1.218347
1.0605672
1.060565
1.0605624
1.0605598
1.060557
1.0605541
1.0605513
1.0605487
1.0605471
1.0605467
1.0605463
1.0605448
1.0605424
1.0605402
1.0605397
1.0605429
1.0605517
1.0605677
1.0605916
1.0606213
1.0606562
1.0607008
1.0607603
1.0608396
1.0609445
1.0610823
1.0612636
1.0615036
1.0618211
1.062238
1.0627802
1.0634859
1.06439
1.0655241
1.0669239
1.0685893
1.0704659
1.0724212
1.0742363
1.0755433
1.0759079
1.0748136
1.0718354
1.0666585
1.0594453
1.0509048
1.0422983
1.0350122
1.0300245
1.0284208
1.0308419
1.0367251
1.0457652
1.0575343
1.0714099
1.0869692
1.1038097
1.120988
1.1388184
1.1553585
1.172352
1.18579
1.2008756
1.2085796
1.2219431
1.0614454
1.0614378
1.0614288
1.0614194
1.0614091
1.0613979
1.061386
1.0613734
1.0613604
1.0613469
1.0613326
1.0613175
1.0613021
1.0612876
1.0612747
1.0612638
1.0612543
1.061246
1.0612407
1.0612419
1.0612526
1.061276
1.0613144
1.0613707
1.0614523
1.0615695
1.0617326
1.0619549
1.0622557
1.0626565
1.0631929
1.0638997
1.0648142
1.0659936
1.0674855
1.069313
1.0714562
1.0738045
1.0761572
1.0781674
1.0793429
1.0791085
1.0769825
1.0728388
1.0670264
1.0602865
1.0537727
1.0483946
1.0453127
1.0453003
1.0480074
1.0540331
1.0624807
1.0735129
1.0862504
1.1005004
1.1160307
1.1318562
1.1483373
1.1635952
1.179423
1.1918301
1.2060646
1.2130996
1.2260237
1.061877
1.0618649
1.0618506
1.0618356
1.0618193
1.0618016
1.0617824
1.0617617
1.0617395
1.0617158
1.0616907
1.0616644
1.0616372
1.0616096
1.0615821
1.0615558
1.0615316
1.0615109
1.0614945
1.0614837
1.0614805
1.0614878
1.0615087
1.0615465
1.0616087
1.0617077
1.0618563
1.0620657
1.0623518
1.0627373
1.0632546
1.0639446
1.064846
1.0660123
1.067493
1.0693076
1.0714658
1.0739174
1.0764504
1.0787432
1.0803413
1.0808134
1.079799
1.0771887
1.0732357
1.0687421
1.0643799
1.0610085
1.059961
1.0606512
1.0641139
1.070149
1.0784582
1.0885474
1.1004195
1.1136281
1.1279948
1.1426002
1.1578741
1.1719656
1.1867304
1.1981843
1.211639
1.218039
1.2305804
1.0616607
1.0616464
1.0616297
1.061612
1.0615929
1.0615721
1.0615496
1.0615254
1.0614994
1.0614718
1.0614425
1.0614118
1.06138
1.0613473
1.0613144
1.0612818
1.0612506
1.0612219
1.0611973
1.0611788
1.0611687
1.0611712
1.061192
1.0612351
1.061302
1.0613981
1.0615365
1.0617328
1.0619937
1.0623421
1.062827
1.063482
1.0643215
1.0653825
1.0667269
1.0684244
1.0704783
1.0728512
1.0754046
1.0778816
1.0799777
1.0813031
1.0815445
1.080593
1.078725
1.076402
1.0739837
1.0729797
1.0731668
1.0750295
1.0793763
1.0853487
1.0932557
1.1029037
1.1140807
1.1263716
1.1397298
1.1532578
1.1674487
1.1804804
1.1942765
1.2048523
1.2175955
1.2234031
1.2356064
1.0605656
1.0605527
1.0605377
1.0605217
1.0605045
1.0604858
1.0604656
1.0604438
1.0604206
1.0603958
1.0603697
1.0603424
1.0603141
1.0602853
1.0602565
1.0602283
1.0602017
1.0601778
1.0601582
1.0601446
1.0601393
1.0601452
1.0601662
1.0602071
1.0602744
1.060372
1.0605051
1.0606889
1.0609544
1.0613096
1.0617591
1.0623459
1.0631095
1.0641023
1.0653794
1.0669781
1.0689257
1.0712303
1.0738326
1.0765673
1.079196
1.0814203
1.0829618
1.08372
1.0838165
1.0832642
1.0832333
1.0840677
1.0855393
1.088703
1.0933338
1.0995573
1.1074272
1.1166831
1.1272743
1.138803
1.1512852
1.163855
1.1770775
1.1891486
1.2020651
1.2118334
1.2239273
1.2291815
1.2410807
1.0587113
1.0587022
1.0586915
1.0586803
1.0586682
1.0586551
1.058641
1.0586259
1.0586099
1.0585931
1.0585755
1.0585575
1.0585392
1.0585211
1.0585038
1.0584879
1.0584744
1.0584645
1.0584598
1.0584621
1.0584738
1.058498
1.0585383
1.0585971
1.0586788
1.0587912
1.0589482
1.0591616
1.059429
1.0597697
1.0602294
1.0608365
1.0616048
1.0625701
1.0638056
1.0653778
1.0673257
1.0696781
1.0724302
1.0755005
1.0787348
1.0818836
1.0846721
1.0870169
1.088561
1.0901429
1.0922618
1.0943279
1.0972216
1.1012885
1.106587
1.1131179
1.1209548
1.1299564
1.1400923
1.150974
1.1626975
1.1744207
1.1867791
1.1979819
1.2100996
1.2191265
1.2306267
1.2353655
1.2470004
1.0562076
1.0562028
1.0561972
1.0561913
1.0561851
1.0561786
1.0561717
1.0561645
1.0561573
1.05615
1.056143
1.0561366
1.056131
1.056127
1.056125
1.056126
1.056131
1.0561414
1.056159
1.0561861
1.0562256
1.0562797
1.056352
1.0564463
1.0565676
1.0567277
1.0569319
1.0571966
1.0575449
1.0579749
1.0584968
1.0591509
1.0599794
1.0610253
1.06234
1.0639848
1.0660272
1.0685373
1.0715585
1.0750832
1.0789851
1.0830203
1.0870181
1.0904384
1.0937212
1.0973536
1.1006409
1.1040856
1.1083347
1.1133212
1.1192154
1.1260826
1.1340034
1.1428364
1.1526044
1.162943
1.1740105
1.1849836
1.1965725
1.2069858
1.2183798
1.2267251
1.2376911
1.2419338
1.2533826
1.0531886
1.0531871
1.0531856
1.0531842
1.0531829
1.0531818
1.0531811
1.0531809
1.0531814
1.0531829
1.0531858
1.0531904
1.0531974
1.0532075
1.0532216
1.0532408
1.0532667
1.0533009
1.0533458
1.0534042
1.053479
1.0535735
1.0536926
1.0538421
1.0540313
1.0542748
1.0545769
1.0549361
1.0553706
1.0559039
1.0565542
1.0573477
1.0583168
1.0595
1.0609572
1.0627711
1.0650364
1.06786
1.0713268
1.0754375
1.0800614
1.0850359
1.0898591
1.0945427
1.0995763
1.1042986
1.1088109
1.1137606
1.1190512
1.1248782
1.1313945
1.1386322
1.146673
1.1554035
1.1648844
1.1747647
1.1852634
1.1955716
1.2064734
1.2161692
1.2269118
1.2346241
1.2451154
1.2488789
1.2601875
1.0495447
1.0495459
1.0495475
1.0495496
1.0495522
1.0495557
1.0495602
1.049566
1.0495733
1.0495828
1.0495947
1.0496099
1.0496292
1.0496534
1.0496841
1.0497226
1.049771
1.0498316
1.0499073
1.0500016
1.0501183
1.0502638
1.0504443
1.0506659
1.0509375
1.0512661
1.0516623
1.0521386
1.0527088
1.0533897
1.0542012
1.055166
1.0563158
1.0577077
1.0594175
1.0615425
1.0642112
1.0675565
1.0716512
1.0764679
1.0818964
1.0876133
1.0932962
1.099442
1.1054827
1.1112711
1.1172155
1.123242
1.1295212
1.1361602
1.1432671
1.1508758
1.159073
1.1677508
1.1770035
1.1864944
1.1964977
1.2062138
1.2165004
1.2255436
1.2357001
1.2428194
1.2528945
1.2561951
1.267399
1.0450127
1.0450168
1.0450219
1.0450279
1.045035
1.0450436
1.045054
1.0450666
1.0450818
1.0451002
1.0451227
1.0451502
1.0451836
1.0452245
1.0452744
1.0453355
1.0454102
1.0455016
1.0456132
1.0457494
1.0459153
1.0461178
1.0463631
1.0466588
1.0470147
1.0474412
1.0479504
1.0485561
1.0492728
1.0501161
1.0511069
1.0522811
1.053689
1.0553953
1.0574988
1.0601296
1.0634292
1.0675118
1.0723868
1.078033
1.0842309
1.090607
1.097545
1.1046779
1.1116746
1.1186907
1.1256836
1.1327354
1.139918
1.1472961
1.1549646
1.162939
1.171305
1.1799608
1.1890299
1.1981857
1.2077528
1.2169382
1.2266702
1.2351191
1.2447423
1.2513202
1.2610135
1.2638789
1.2750071
1.0392227
1.0392312
1.0392418
1.0392536
1.0392674
1.0392835
1.0393024
1.0393246
1.0393509
1.039382
1.0394188
1.0394627
1.039515
1.0395775
1.0396523
1.0397419
1.0398494
1.0399784
1.0401332
1.040319
1.0405416
1.0408082
1.0411267
1.0415064
1.0419584
1.0424946
1.0431265
1.043869
1.0447421
1.0457722
1.0469931
1.0484518
1.0502165
1.0523856
1.0550848
1.0584533
1.0626113
1.0676067
1.0734164
1.0799601
1.0868503
1.0943737
1.1023673
1.1103545
1.1183959
1.1263929
1.134381
1.1423566
1.1503581
1.1584201
1.1666104
1.1749296
1.1834652
1.1921158
1.2010305
1.2098907
1.2190679
1.2277727
1.2370005
1.2449037
1.2540426
1.2601133
1.2694659
1.2719168
1.2829871
1.0318163
1.0318315
1.03185
1.0318705
1.0318939
1.0319209
1.031952
1.0319879
1.0320297
1.0320782
1.0321348
1.0322009
1.0322784
1.0323694
1.0324763
1.0326023
1.0327509
1.0329265
1.033134
1.0333787
1.0336678
1.03401
1.0344139
1.0348887
1.0354457
1.0360997
1.0368698
1.0377769
1.0388483
1.0401216
1.04165
1.0435082
1.0457964
1.0486401
1.0521748
1.0565183
1.0617316
1.0678021
1.07468
1.0820458
1.090086
1.0987848
1.1076137
1.1165594
1.1255261
1.1344876
1.1433931
1.1522169
1.1609688
1.1696525
1.1783188
1.1869541
1.1956464
1.2042942
1.2130696
1.2216604
1.2304807
1.2387437
1.2475068
1.2549117
1.2635933
1.2692069
1.2782309
1.2803046
1.2913049
1.0225051
1.0225293
1.0225587
1.0225908
1.0226272
1.0226686
1.0227159
1.0227699
1.0228319
1.022903
1.0229849
1.0230793
1.0231885
1.0233149
1.0234613
1.0236302
1.0238267
1.0240582
1.0243284
1.0246417
1.0250059
1.025431
1.0259283
1.0265101
1.0271905
1.0279884
1.0289276
1.0300405
1.0313712
1.0329804
1.0349508
1.0373897
1.0404263
1.0441978
1.0488193
1.0543564
1.0608079
1.0681133
1.0760365
1.0846
1.093961
1.1035868
1.1133561
1.1232431
1.133175
1.1430544
1.1528211
1.1624283
1.1718623
1.1811065
1.1901974
1.1991103
1.2079352
1.2165702
1.2252081
1.2335423
1.2420263
1.2498783
1.2582069
1.2651478
1.2734029
1.2785984
1.2873021
1.2890066
1.2999906
1.0110061
1.0110417
1.0110847
1.0111314
1.0111839
1.0112435
1.0113109
1.0113874
1.0114741
1.0115714
1.0116775
1.0117995
1.01195
1.012125
1.0123179
1.0125364
1.0127887
1.0130805
1.013418
1.0138084
1.0142598
1.0147822
1.015389
1.0160965
1.0169257
1.0179043
1.0190701
1.0204744
1.0221871
1.0243011
1.0269333
1.0302192
1.0342998
1.039291
1.0452534
1.052201
1.0600477
1.068602
1.0778102
1.0878482
1.0982667
1.1088622
1.1196666
1.1305677
1.1414452
1.1522092
1.1627855
1.1731113
1.183159
1.192897
1.2023529
1.2114944
1.220415
1.2290143
1.2375032
1.2455834
1.25374
1.2611983
1.2691119
1.2756224
1.2834721
1.2883035
1.2966725
1.2981896
1.3088974
0.99732101
0.99737112
0.99743043
0.99749165
0.99755627
0.99763259
0.99772774
0.99783517
0.99794889
0.99807458
0.99821813
0.99838188
0.99856816
0.99877964
0.99901937
0.99929264
0.99960972
0.99997659
1.0003926
1.0008667
1.0014143
1.0020495
1.0027907
1.0036621
1.0046964
1.0059379
1.0074465
1.009302
1.0116072
1.0144876
1.0180849
1.0225396
1.0279698
1.0344322
1.0419426
1.0504325
1.0596429
1.0695939
1.0803969
1.0916401
1.1031327
1.1148862
1.1267807
1.1386827
1.1504884
1.1620968
1.1734246
1.1843999
1.1949864
1.2051443
1.2148964
1.2242076
1.2331748
1.2417025
1.2500179
1.2578316
1.2656567
1.2727306
1.2802357
1.2863367
1.2937828
1.2982814
1.3062931
1.307504
1.3179727
0.98152811
0.98159726
0.98166648
0.98173444
0.9818149
0.98190931
0.98201814
0.98214335
0.98228766
0.98245444
0.98264601
0.98286236
0.98310267
0.98336743
0.98366143
0.98399309
0.98437001
0.98479925
0.98528981
0.98585347
0.9865051
0.98726433
0.98815735
0.98921968
0.99049978
0.99206327
0.99399754
0.9964154
0.99945499
1.0032737
1.0080319
1.0138647
1.0208559
1.0290171
1.0382825
1.0483935
1.0593831
1.0711956
1.083477
1.0960083
1.1088198
1.1217841
1.1347742
1.1476793
1.1603878
1.1727947
1.1848127
1.1963659
1.2074146
1.2179158
1.2278917
1.2373073
1.2462655
1.2546784
1.2627872
1.2703154
1.2777959
1.2844851
1.291584
1.2972991
1.3043481
1.3086223
1.3162816
1.3178099
1.3286094
0.96345337
0.96353205
0.96362638
0.96372804
0.96384028
0.96396531
0.96410463
0.96425996
0.96443317
0.96462657
0.9648427
0.96508456
0.96535574
0.96566044
0.96600389
0.96639245
0.966834
0.96733862
0.96791919
0.96859279
0.96938209
0.9703176
0.97144052
0.97280647
0.97448953
0.97658656
0.97922008
0.98253779
0.98670588
0.99189347
0.99824649
1.0058571
1.014744
1.0248294
1.0359377
1.0480176
1.0609704
1.0743885
1.0880556
1.1020304
1.1161691
1.1303437
1.1444405
1.1583378
1.1719192
1.1850771
1.1977226
1.2097796
1.2212082
1.2319677
1.24208
1.2515181
1.2603898
1.2686205
1.2764626
1.2836576
1.290752
1.2970287
1.3036911
1.3090091
1.3156193
1.3196945
1.3267611
1.3291496
1.3371637
0.94483993
0.94493259
0.94504581
0.94516286
0.94529185
0.94543555
0.9455952
0.94577263
0.94596997
0.94618978
0.94643507
0.94670936
0.94701706
0.94736351
0.94775555
0.94820193
0.94871399
0.94930674
0.95000012
0.95082091
0.95180516
0.95300124
0.95447362
0.95630688
0.95860947
0.96151566
0.96518399
0.96978895
0.97550466
0.98247968
0.9908074
1.0005033
1.0114863
1.0236474
1.036831
1.0507866
1.0652089
1.0799805
1.0951249
1.1104693
1.1258743
1.1412113
1.1563481
1.1711547
1.1855105
1.1993066
1.2124557
1.2248852
1.2365588
1.2474417
1.257561
1.2669006
1.2755742
1.2835281
1.2910162
1.2978154
1.3044588
1.3102914
1.3164689
1.3213855
1.3275309
1.3313626
1.3379935
1.3403856
1.3478842
0.92794947
0.92805203
0.92817715
0.92830619
0.928448
0.92860556
0.92878021
0.92897386
0.92918893
0.92942829
0.92969552
0.92999495
0.93033214
0.93071424
0.93115061
0.93165356
0.93223959
0.93293075
0.93375671
0.9347573
0.93598575
0.93751223
0.93942806
0.94184894
0.94491707
0.94879902
0.95367812
0.95973874
0.96714203
0.97599679
0.98633133
0.99807953
1.0111875
1.0253922
1.0402759
1.0556948
1.0716546
1.0880019
1.1045577
1.1211853
1.1377497
1.1541112
1.1701329
1.1856828
1.2006402
1.2148997
1.2283786
1.2410113
1.2527669
1.2636208
1.2736058
1.2827231
1.29109
1.2986788
1.3057386
1.3120885
1.3182344
1.3236056
1.3292645
1.3338013
1.3394277
1.3431123
1.3491468
1.3520178
1.3584555
0.91568355
0.91579081
0.9159215
0.91605605
0.91620364
0.91636732
0.91654858
0.91674951
0.91697283
0.91722199
0.91750125
0.91781616
0.918174
0.91858439
0.91906022
0.91961875
0.92028324
0.92108493
0.92206568
0.9232811
0.92480412
0.92672894
0.92917427
0.93228522
0.93623184
0.9412024
0.94738889
0.95496527
0.96405897
0.97472207
0.98690946
1.0005629
1.0154137
1.0309924
1.0472941
1.0643387
1.0817469
1.0993821
1.117114
1.1347985
1.1522921
1.1694494
1.1861289
1.2021976
1.2175367
1.2320459
1.2456488
1.2582888
1.2699414
1.2805949
1.2902897
1.2990453
1.3069847
1.3141082
1.3206533
1.326493
1.3320841
1.3369647
1.34207
1.3462181
1.3513101
1.3548083
1.3603088
1.3632247
1.3691571
0.90966623
0.9097733
0.90990314
0.91003704
0.91018373
0.91034631
0.91052643
0.91072647
0.9109496
0.91119989
0.91148275
0.91180523
0.91217687
0.91261053
0.91312347
0.91373912
0.91448882
0.91541456
0.91657189
0.91803341
0.91989253
0.92226663
0.92529914
0.92915867
0.93403354
0.94011986
0.94760209
0.95662664
0.96727377
0.97953259
0.9933212
1.008441
1.0245181
1.0414878
1.0592714
1.0774641
1.095946
1.11457
1.1331846
1.1516389
1.1697796
1.1874549
1.2045208
1.2208458
1.2363141
1.2508323
1.2643314
1.2767618
1.2881122