/*--------------------------------*- C++ -*----------------------------------*\
  =========                 |
  \\      /  F ield         | OpenFOAM: The Open Source CFD Toolbox
   \\    /   O peration     | Website:  https://openfoam.org
    \\  /    A nd           | Version:  13
     \\/     M anipulation  |
\*---------------------------------------------------------------------------*/
FoamFile
{
    format      ascii;
    class       volScalarField;
    location    "44.398748";
    object      k;
}
// * * * * * * * * * * * * * * * * * * * * * * * * * * * * * * * * * * * * * //

dimensions      [0 2 -2 0 0 0 0];

internalField   nonuniform List<scalar> 
17140
(
6.7001248e-12
2.1054118e-10
1.7216625e-09
7.4042237e-09
2.2785131e-08
5.7498371e-08
1.2750761e-07
2.5843038e-07
4.9045021e-07
8.8552054e-07
1.5378673e-06
2.5892217e-06
4.2508082e-06
6.8349384e-06
1.0800195e-05
1.6815729e-05
2.5852237e-05
3.9309834e-05
5.9196268e-05
8.8372594e-05
0.00013088678
0.00019241723
0.0002808437
0.00040694582
0.00058518281
0.00083440789
0.0011781741
0.0016439512
0.0022601151
0.0030492744
0.0040173265
0.0051411791
0.0063640626
0.0076084137
0.0088030858
0.0099051909
0.010903077
0.011806681
0.012636394
0.01341633
0.014171522
0.014927501
0.015710892
0.016550348
0.01747513
0.018514752
0.019701835
0.021071143
0.022658701
0.024500655
0.026630477
0.029072478
0.031830491
0.034872036
0.038147427
0.04156692
0.044948613
0.048127872
0.051188786
0.055968827
0.064502624
0.072806382
0.047784551
0.014403573
0.010707861
6.6513365e-12
2.0900808e-10
1.7091293e-09
7.3503398e-09
2.2619317e-08
5.7079757e-08
1.2657847e-07
2.5654477e-07
4.8686562e-07
8.790351e-07
1.5265771e-06
2.5701611e-06
4.2194211e-06
6.7843039e-06
1.07199e-05
1.6690236e-05
2.5658534e-05
3.9014075e-05
5.8749004e-05
8.7702077e-05
0.00012988971
0.00019094614
0.00027869049
0.00040382089
0.00058069106
0.00082802525
0.0011692342
0.0016316619
0.0022436377
0.0030279074
0.0039907999
0.0051099501
0.0063293559
0.0075718146
0.0087658231
0.0098677535
0.010865451
0.011768616
0.012597698
0.013376989
0.014131765
0.014887548
0.015670909
0.016510262
0.017434455
0.018472339
0.019655423
0.021016742
0.022589651
0.0244061
0.026493722
0.028865708
0.031504872
0.034349566
0.037307776
0.040218392
0.042809381
0.04482382
0.046415205
0.050448598
0.062697851
0.077449239
0.06768862
0.022394088
0.013897739
6.5557813e-12
2.0600538e-10
1.6845742e-09
7.24472e-09
2.229416e-08
5.6258668e-08
1.2475592e-07
2.5284645e-07
4.798369e-07
8.6632363e-07
1.5044603e-06
2.5328482e-06
4.1580275e-06
6.685354e-06
1.0563154e-05
1.6445549e-05
2.5281359e-05
3.8439042e-05
5.7880864e-05
8.6403042e-05
0.00012796203
0.00018810861
0.00027454772
0.00039782501
0.00057209779
0.00081585152
0.0011522345
0.0016083585
0.0022124621
0.0029875232
0.0039406213
0.005050676
0.0062630688
0.0075012822
0.0086933667
0.009794584
0.010791801
0.011694206
0.012522143
0.01329999
0.014053112
0.014807117
0.015588484
0.016425321
0.017345978
0.018378566
0.019553431
0.020901853
0.02245468
0.024240141
0.026279451
0.02857523
0.031090937
0.033736706
0.03637697
0.03875958
0.040447328
0.04100166
0.040413793
0.041332556
0.055231086
0.078434095
0.084756762
0.040743889
0.020735408
6.4118219e-12
2.0148166e-10
1.6475812e-09
7.0856097e-09
2.1804402e-08
5.5022231e-08
1.2201237e-07
2.4728164e-07
4.6926638e-07
8.4721825e-07
1.4712412e-06
2.4768463e-06
4.0659578e-06
6.5370919e-06
1.0328511e-05
1.6079627e-05
2.4717892e-05
3.7580937e-05
5.658685e-05
8.4469064e-05
0.00012509567
0.00018389468
0.00026840327
0.00038894337
0.00055938434
0.00079786138
0.0011271368
0.0015739766
0.0021664727
0.0029279124
0.003866426
0.0049627665
0.0061643461
0.0073957499
0.008584541
0.0096844706
0.010680952
0.011582331
0.012408658
0.013184307
0.013934714
0.014685517
0.015463059
0.016295092
0.017209423
0.018233363
0.019396017
0.02072691
0.022254496
0.024003628
0.025990044
0.028206777
0.030600649
0.033057503
0.035409441
0.037249567
0.037981905
0.037043804
0.033434177
0.027554742
0.040168604
0.072734359
0.09325623
0.063827369
0.033969574
6.2202087e-12
1.9546049e-10
1.5983434e-09
6.8738407e-09
2.1152608e-08
5.3376942e-08
1.183623e-07
2.3987987e-07
4.5521051e-07
8.2182177e-07
1.4271001e-06
2.4024626e-06
3.9437237e-06
6.3403525e-06
1.0017311e-05
1.5594591e-05
2.3971457e-05
3.6444904e-05
5.487485e-05
8.1912112e-05
0.00012130861
0.00017833099
0.00026029606
0.00037723178
0.00054262876
0.00077416025
0.0010940764
0.0015286769
0.0021058347
0.002849198
0.0037682153
0.0048460042
0.0060326844
0.0072544465
0.0084384032
0.0095364103
0.010531926
0.011432068
0.012256377
0.013029123
0.013775763
0.014521925
0.015293778
0.016118668
0.017023831
0.018035752
0.019182269
0.02049121
0.021988874
0.023697299
0.02562793
0.027766233
0.030046963
0.03233958
0.03445426
0.035783396
0.03574301
0.03354875
0.026851833
0.01471051
0.019211276
0.054456646
0.095005108
0.084995007
0.053096286
5.9830947e-12
1.8800954e-10
1.5374139e-09
6.6117918e-09
2.0346099e-08
5.1341285e-08
1.1384674e-07
2.3072444e-07
4.3782766e-07
7.9042073e-07
1.3725357e-06
2.3105389e-06
3.7927102e-06
6.0973688e-06
9.6330944e-06
1.4995964e-05
2.3050562e-05
3.5043907e-05
5.2764397e-05
7.8761329e-05
0.00011664387
0.00017148042
0.00025031689
0.00036281949
0.00052201178
0.0007449951
0.0010533801
0.0014728719
0.0020310335
0.0027518902
0.0036464278
0.0047006222
0.0058679966
0.0070769442
0.0082542758
0.0093496137
0.01034393
0.011242679
0.012064629
0.012833815
0.013575655
0.01431573
0.015079997
0.015895344
0.016788425
0.017784902
0.018911362
0.020194049
0.02165743
0.023321438
0.025194574
0.027257725
0.029440623
0.031610455
0.033553596
0.034561201
0.033952847
0.031187606
0.022511585
0.01082621
0.0079268134
0.025727278
0.084599267
0.0943668
0.074830232
5.7039277e-12
1.7923715e-10
1.4656788e-09
6.3032739e-09
1.9396604e-08
4.8944877e-08
1.0853142e-07
2.1994865e-07
4.1737102e-07
7.5347271e-07
1.3083435e-06
2.2024162e-06
3.6151217e-06
5.8116893e-06
9.1814724e-06
1.4292494e-05
2.1968662e-05
3.3398395e-05
5.0286256e-05
7.5062527e-05
0.00011116902
0.00016344158
0.0002386081
0.00034590936
0.00049781803
0.00071075727
0.0010055717
0.0014072367
0.0019428936
0.0026369166
0.0035019833
0.0045273604
0.0056706713
0.00686321
0.0080317802
0.0091235151
0.010116357
0.011013597
0.011832913
0.012597937
0.01333397
0.014066502
0.014821253
0.015624592
0.016502565
0.017480064
0.018582452
0.019834534
0.021259307
0.022875292
0.024689408
0.026682864
0.028793149
0.03089496
0.032804474
0.033646358
0.032789228
0.029991399
0.020831447
0.0085960419
0.0037407417
0.013078912
0.055520138
0.093732877
0.089322642
5.3873802e-12
1.6929014e-10
1.3843385e-09
5.9534499e-09
1.8320017e-08
4.6227833e-08
1.0250531e-07
2.0773292e-07
3.941832e-07
7.1159667e-07
1.2355993e-06
2.0799065e-06
3.413935e-06
5.4881032e-06
8.670016e-06
1.3495969e-05
2.0743877e-05
3.1535904e-05
4.7481826e-05
7.0877344e-05
0.00010497494
0.0001543472
0.00022536145
0.00032677515
0.00047043276
0.00067197921
0.00095136959
0.0013327096
0.0018425839
0.0025056387
0.0033363157
0.004327518
0.0054416386
0.0066136689
0.0077708807
0.0088577918
0.0098487791
0.010744406
0.011560871
0.012321189
0.013050436
0.013773951
0.014517188
0.01530598
0.016165693
0.017120482
0.018194549
0.019411402
0.020792869
0.022356577
0.02410918
0.026039305
0.028094419
0.030182426
0.032148061
0.033030574
0.032202408
0.029421923
0.019563402
0.0071917042
0.0021228933
0.0056399358
0.0219745
0.075735922
0.088764115
5.0392487e-12
1.5835062e-10
1.2948819e-09
5.5687236e-09
1.7136048e-08
4.3239899e-08
9.5878753e-08
1.9430093e-07
3.6868879e-07
6.6555947e-07
1.1556351e-06
1.9452536e-06
3.1928345e-06
5.1325358e-06
8.1080887e-06
1.2620966e-05
1.9398604e-05
2.9490457e-05
4.4402253e-05
6.6281924e-05
9.8173947e-05
0.00014436134
0.00021081426
0.00030575627
0.00044033499
0.00062932579
0.00089167692
0.0012504817
0.0017316125
0.0023598563
0.0031513971
0.0041030038
0.0051824452
0.0063292854
0.0074719486
0.0085523956
0.0095409484
0.01043482
0.011248256
0.012003379
0.012724891
0.013437905
0.014167546
0.0149391
0.015777227
0.016705291
0.017746394
0.018922845
0.020255484
0.021761035
0.023449983
0.025315983
0.027342911
0.02948175
0.031608614
0.032639638
0.031820245
0.028539683
0.016109669
0.0049299582
0.0014160327
0.0023090775
0.0094776994
0.039764651
0.069955716
4.6662924e-12
1.4663104e-10
1.1990467e-09
5.1565682e-09
1.5867692e-08
4.0039109e-08
8.878046e-08
1.7991357e-07
3.4138298e-07
6.1625524e-07
1.070004e-06
1.8010721e-06
2.956113e-06
4.7518889e-06
7.5065938e-06
1.1684454e-05
1.7958915e-05
2.7301649e-05
4.1107061e-05
6.1364901e-05
9.0896804e-05
0.00013367521
0.0001952434
0.00028324944
0.00040808612
0.00058357955
0.00082756331
0.0011619772
0.0016118077
0.002201798
0.002949749
0.0038563819
0.0048953369
0.0060116669
0.0071358544
0.0082076102
0.0091928162
0.010084669
0.010894896
0.011644367
0.01235722
0.013058226
0.01377211
0.014523553
0.015336487
0.016233413
0.017236325
0.018366352
0.019643094
0.021082884
0.022701554
0.024510326
0.026530119
0.028769726
0.031141705
0.032293344
0.03114214
0.026361014
0.010356217
0.002924332
0.00094448044
0.00082559044
0.0029617721
0.011615491
0.031416942
4.2760196e-12
1.3436731e-10
1.0987621e-09
4.7252802e-09
1.454048e-08
3.6689886e-08
8.1353291e-08
1.6486038e-07
3.1281519e-07
5.6467591e-07
9.8042845e-07
1.6502617e-06
2.7085299e-06
4.3538131e-06
6.8776159e-06
1.0705237e-05
1.6453695e-05
2.5013356e-05
3.7662216e-05
5.6224525e-05
8.3288563e-05
0.00012250106
0.0001789567
0.00025969666
0.00037431369
0.00053561921
0.00076023779
0.0010688212
0.0014852852
0.0020340953
0.0027344373
0.0035909045
0.0045833414
0.0056631848
0.006764091
0.007824142
0.008804575
0.0096938987
0.010500657
0.011244015
0.011947277
0.012634725
0.013330583
0.014058834
0.01484261
0.015703452
0.016662161
0.017738553
0.01895011
0.020317989
0.021856233
0.023611553
0.025632037
0.028011905
0.030537821
0.031535602
0.029187045
0.019756919
0.0056123818
0.0016278251
0.000592138
0.00036417248
0.00085832108
0.0030796718
0.0076625642
3.8764142e-12
1.2181032e-10
9.9607932e-10
4.283681e-09
1.3181558e-08
3.3260726e-08
7.3749121e-08
1.4944913e-07
2.8356941e-07
5.1187561e-07
8.8873854e-07
1.4959027e-06
2.4551401e-06
3.9464325e-06
6.2339847e-06
9.7032791e-06
1.4913608e-05
2.2672148e-05
3.413774e-05
5.0965125e-05
7.5503324e-05
0.00011106461
0.00016228192
0.00023556959
0.00033968939
0.00048638957
0.00069100887
0.00097278947
0.001354388
0.0018597211
0.002509025
0.0033105031
0.0042503201
0.0052870914
0.0063589328
0.00740326
0.0083767459
0.0092625996
0.010065432
0.010802133
0.011494819
0.012167074
0.01284248
0.013544196
0.014294414
0.015113543
0.016021036
0.017034889
0.01817025
0.019452778
0.020902767
0.022591091
0.024618756
0.027168859
0.029417724
0.029300489
0.02467893
0.0093508456
0.0026464624
0.00083025704
0.00034943734
0.0002142414
0.00030536958
0.00074243106
0.0013906601
3.4755392e-12
1.0921344e-10
8.9307057e-10
3.8406824e-09
1.1818346e-08
2.9820818e-08
6.6121344e-08
1.3399062e-07
2.5423527e-07
4.5891851e-07
7.9678157e-07
1.3411035e-06
2.201044e-06
3.5379423e-06
5.5886397e-06
8.6987064e-06
1.3369565e-05
2.0324968e-05
3.0604216e-05
4.569187e-05
6.7696478e-05
9.9593601e-05
0.00014555014
0.00021134538
0.00030489444
0.00043685248
0.00062121622
0.00087571529
0.0012215665
0.001681843
0.0022774159
0.0030196637
0.0039009299
0.0048875922
0.0059235769
0.0069469803
0.0079103331
0.0087910987
0.0095891655
0.010318457
0.01099944
0.011654707
0.012307003
0.012978499
0.013690192
0.014461136
0.01530905
0.016249608
0.017299735
0.01847135
0.019814069
0.021420779
0.023493265
0.025813902
0.026640794
0.024095112
0.01223088
0.0036570389
0.001113553
0.00041481771
0.00021810832
0.00016289339
0.00017248878
0.00022103878
0.00026405605
3.0813483e-12
9.6826585e-11
7.9177926e-10
3.4050716e-09
1.0477883e-08
2.6438375e-08
5.8621188e-08
1.1879124e-07
2.2539398e-07
4.0685348e-07
7.0637804e-07
1.1889273e-06
1.9512668e-06
3.1364168e-06
4.9543289e-06
7.7113507e-06
1.1852024e-05
1.8018081e-05
2.7131238e-05
4.0508525e-05
6.0021493e-05
8.8313277e-05
0.00012908949
0.00018749842
0.000270609
0.00038797403
0.00055221664
0.00077947682
0.0010893704
0.0015038283
0.0020438796
0.00272348
0.0035407302
0.0044700502
0.0054625106
0.0064583985
0.0074070847
0.008280132
0.0090719391
0.0097926638
0.010460528
0.011096729
0.011722899
0.012359988
0.013027424
0.013742552
0.01452041
0.015373321
0.016316469
0.017353515
0.018566598
0.020130906
0.021939475
0.022982114
0.021091443
0.012622255
0.0040920773
0.0012894707
0.00046545336
0.00023062195
0.00015993296
0.00014221286
0.00013581556
0.00014085829
0.00013476161
2.7013562e-12
8.4885914e-11
6.9413661e-10
2.985154e-09
9.1857238e-09
2.3177876e-08
5.1391597e-08
1.0414062e-07
1.9759498e-07
3.5667204e-07
6.1924905e-07
1.0422702e-06
1.7105606e-06
2.7494923e-06
4.3431123e-06
6.7599791e-06
1.0389825e-05
1.5795328e-05
2.3784811e-05
3.5513633e-05
5.2624373e-05
7.7438449e-05
0.00011321392
0.00016448453
0.00023749041
0.00034069511
0.00048534524
0.00068594809
0.00096039172
0.0013291879
0.001813022
0.002427698
0.0031763512
0.0040413367
0.0049817727
0.0059420682
0.006869876
0.0077311446
0.0085141597
0.0092244412
0.0098772278
0.010491793
0.011088248
0.011685958
0.012302272
0.012952172
0.013646927
0.014396545
0.015193728
0.01607558
0.017201297
0.01847086
0.019057483
0.017334357
0.010407541
0.0039264717
0.0012956965
0.0004739798
0.00023237407
0.00015975492
0.00013772989
0.00013144605
0.00012387947
0.00011953612
0.00010980107
2.3421338e-12
7.3597909e-11
6.0183133e-10
2.588192e-09
7.9642156e-09
2.0095695e-08
4.4557538e-08
9.0291896e-08
1.7131835e-07
3.0924043e-07
5.3689774e-07
9.036608e-07
1.4830726e-06
2.3838308e-06
3.7655064e-06
5.8609505e-06
9.0080964e-06
1.3694887e-05
2.06224e-05
3.0792971e-05
4.5632212e-05
6.7156169e-05
9.8197018e-05
0.00014270155
0.00020611386
0.00029584236
0.00042178203
0.00059679989
0.00083697113
0.0011611503
0.0015891917
0.0021379605
0.0028146913
0.0036090953
0.0044888051
0.00540418
0.0063030601
0.0071466519
0.0079168325
0.0086136305
0.0092484435
0.0098379262
0.010400095
0.010952131
0.011508593
0.012080558
0.012673698
0.013287958
0.013911436
0.014663184
0.015516729
0.015505979
0.013621441
0.0074390726
0.0031614644
0.0012031058
0.00046095261
0.00022726804
0.00015818268
0.00013614523
0.00012803746
0.0001202682
0.00011612537
0.00011224229
0.00010206385
2.0092537e-12
6.3137681e-11
5.1629518e-10
2.2203419e-09
6.8322961e-09
1.7239604e-08
3.8224889e-08
7.7459513e-08
1.4697075e-07
2.652921e-07
4.6059653e-07
7.7523886e-07
1.2723116e-06
2.0450672e-06
3.2304046e-06
5.028096e-06
7.7280815e-06
1.1749039e-05
1.7692607e-05
2.6419128e-05
3.9152668e-05
5.7625142e-05
8.4271505e-05
0.00012248912
0.00017697298
0.00025413049
0.00036255803
0.00051351357
0.00072122546
0.0010027138
0.0013765669
0.0018599049
0.0024629324
0.0031817105
0.0039924433
0.0048527995
0.0057129234
0.0065307572
0.0072819811
0.0079604676
0.0085728489
0.0091322876
0.0096538617
0.010151506
0.01063607
0.011111806
0.011575582
0.012008152
0.012475938
0.012908746
0.012577552
0.010493452
0.0052462497
0.0022802921
0.0009658893
0.00041982435
0.00021752189
0.00015402367
0.00013396469
0.00012600797
0.00011999593
0.00011472319
0.00010839211
0.00010533822
9.7899643e-05
1.7069831e-12
5.3639299e-11
4.3862419e-10
1.8863167e-09
5.8044658e-09
1.4646178e-08
3.2474704e-08
6.5807613e-08
1.2486336e-07
2.2538835e-07
3.9131904e-07
6.5864152e-07
1.0809618e-06
1.7375119e-06
2.7446091e-06
4.2719951e-06
6.5660322e-06
9.9824901e-06
1.503265e-05
2.2447749e-05
3.3268404e-05
4.8967515e-05
7.1617095e-05
0.00010411081
0.00015045341
0.00021612301
0.00030849628
0.00043729118
0.00061490958
0.00085643401
0.0011788377
0.0015987589
0.0021281972
0.0027682457
0.0035029921
0.0042981388
0.0051081611
0.0058897273
0.0066131646
0.0072658846
0.0078488572
0.0083706656
0.0088421898
0.0092724705
0.009666366
0.01001668
0.010301823
0.01055007
0.010651209
0.010042766
0.0077029458
0.0036417656
0.001618411
0.00071998173
0.00034918008
0.00020156721
0.0001472933
0.0001307904
0.00012369473
0.00011794164
0.00011226466
0.00010816258
0.00010408302
0.00010031568
9.3459207e-05
1.4381111e-12
4.5190404e-11
3.6953504e-10
1.5891986e-09
4.8902062e-09
1.2339329e-08
2.7359973e-08
5.5443501e-08
1.0519963e-07
1.8989601e-07
3.297015e-07
5.5493852e-07
9.1077699e-07
1.4639807e-06
2.3125645e-06
3.5995621e-06
5.5325753e-06
8.4114049e-06
1.2666913e-05
1.8915359e-05
2.8033829e-05
4.1264006e-05
6.0353224e-05
8.7743132e-05
0.00012681622
0.00018220692
0.00026017284
0.00036899515
0.00051932303
0.00072427867
0.00099898359
0.0013589785
0.0018169329
0.0023774535
0.003031221
0.0037518747
0.004499689
0.0052321907
0.0059157988
0.0065316744
0.0070743776
0.0075465515
0.0079528209
0.008295305
0.0085673734
0.008742908
0.0088071801
0.0087005105
0.0078982204
0.0053137252
0.002510313
0.0011388137
0.00053292162
0.00028138866
0.00018052429
0.00014089209
0.00012607215
0.00012084395
0.00011547553
0.00011156204
0.00010778329
0.00010303564
9.8666985e-05
9.6111908e-05
9.0794593e-05
1.2038554e-12
3.7829281e-11
3.0934106e-10
1.3303345e-09
4.0936604e-09
1.0329505e-08
2.2903838e-08
4.6414002e-08
8.806825e-08
1.589749e-07
2.7602084e-07
4.6459494e-07
7.6251873e-07
1.2256957e-06
1.9361977e-06
3.0137934e-06
4.6323158e-06
7.0427964e-06
1.0605999e-05
1.5837907e-05
2.3472873e-05
3.455051e-05
5.0533876e-05
7.3467747e-05
0.00010618595
0.00015257436
0.00021788804
0.00030910131
0.00043522963
0.00060748745
0.00083902519
0.0011438292
0.001534258
0.0020168912
0.0025872934
0.003226068
0.0038998254
0.0045687072
0.0051969681
0.005760232
0.0062460986
0.0066495444
0.0069661009
0.0071868494
0.0072855699
0.0072300836
0.006962925
0.0060145084
0.0035247112
0.0017118761
0.00080265909
0.00039742757
0.00022932162
0.00016158743
0.0001346616
0.0001232781
0.00011824679
0.00011324246
0.00011010526
0.00010646067
0.000102176
9.9240855e-05
9.5457854e-05
9.2523475e-05
8.7856426e-05
1.003827e-12
3.1543707e-11
2.5794226e-10
1.1092944e-09
3.4135037e-09
8.6133558e-09
1.9098849e-08
3.8703971e-08
7.3440361e-08
1.3257269e-07
2.3018572e-07
3.8745622e-07
6.3593206e-07
1.0222448e-06
1.6148552e-06
2.5136685e-06
3.8636844e-06
5.8742851e-06
8.8463528e-06
1.3210169e-05
1.9578003e-05
2.8816439e-05
4.2144692e-05
6.1266235e-05
8.8541275e-05
0.00012720589
0.00018163749
0.00025765149
0.00036278367
0.00050645635
0.00069983394
0.00095504796
0.0012833631
0.0016919222
0.0021792793
0.0027313058
0.0033203817
0.003910137
0.0044641873
0.004953567
0.0053584386
0.0056638267
0.0058535181
0.0058993313
0.0057818953
0.0053927461
0.0043472009
0.0023637172
0.0011515248
0.00056702578
0.00030251497
0.00019136993
0.000147098
0.0001295461
0.00012167777
0.00011752043
0.00011256027
0.00010944126
0.00010536216
0.00010205772
9.9016646e-05
9.593561e-05
9.2517536e-05
9.0260105e-05
8.6265188e-05
8.360123e-13
2.6270389e-11
2.1482089e-10
9.2385141e-10
2.8428819e-09
7.1735831e-09
1.5906636e-08
3.2235616e-08
6.1168283e-08
1.1042264e-07
1.9173271e-07
3.2274179e-07
5.2973496e-07
8.5156597e-07
1.3452775e-06
2.0941118e-06
3.2188785e-06
4.8940123e-06
7.3701349e-06
1.1005562e-05
1.6309974e-05
2.4004384e-05
3.5102517e-05
5.1019488e-05
7.3713857e-05
0.00010586759
0.00015110355
0.0002142285
0.00030146586
0.00042059935
0.00058087734
0.00079242847
0.0010648435
0.0014045996
0.0018113763
0.0022742026
0.0027697021
0.0032647547
0.0037231651
0.0041121675
0.0044041438
0.004573013
0.0045845173
0.0044344413
0.0039984904
0.0029077901
0.0015493259
0.00078012286
0.00040413509
0.00023611641
0.00016463283
0.00013625148
0.00012569987
0.00012072014
0.00011781611
0.00011288811
0.00010911875
0.00010511814
0.00010214012
9.9364487e-05
9.5908851e-05
9.2845395e-05
8.9617419e-05
8.761345e-05
8.4476668e-05
6.9669866e-13
2.1892672e-11
1.7902306e-10
7.6990318e-10
2.3691713e-09
5.9783305e-09
1.3256556e-08
2.6865763e-08
5.0980303e-08
9.2034152e-08
1.5980983e-07
2.6901726e-07
4.4157249e-07
7.0987245e-07
1.121481e-06
1.7458061e-06
2.6835725e-06
4.080192e-06
6.1445333e-06
9.1750954e-06
1.3596216e-05
2.0007659e-05
2.9251659e-05
4.2502014e-05
6.1379777e-05
8.8098525e-05
0.00012563781
0.00017793352
0.00025005456
0.00034830084
0.00048010184
0.00065351769
0.00087606725
0.0011526107
0.0014822681
0.0018550457
0.0022498043
0.0026356604
0.0029768435
0.0032375392
0.0033836061
0.0033772468
0.0032101716
0.0027814549
0.0018152918
0.00097743348
0.00052100945
0.0002925056
0.00018978566
0.00014575282
0.0001281134
0.00012239253
0.0001201055
0.00011843212
0.000113793
0.00010932917
0.00010532677
0.00010262333
9.9443286e-05
9.616894e-05
9.321352e-05
9.0904125e-05
8.8288031e-05
8.6115483e-05
8.3417648e-05
5.8048257e-13
1.8240764e-11
1.4916044e-10
6.4147919e-10
1.9739994e-09
4.9812368e-09
1.1045805e-08
2.2386065e-08
4.2481048e-08
7.669343e-08
1.3317748e-07
2.2419555e-07
3.6801816e-07
5.9165421e-07
9.3475703e-07
1.4551881e-06
2.2369045e-06
3.4010809e-06
5.1216994e-06
7.6472417e-06
1.1330602e-05
1.6669872e-05
2.4363135e-05
3.538065e-05
5.1057406e-05
7.3207249e-05
0.00010425542
0.00014737719
0.00020661359
0.0002869062
0.00039394889
0.00053369472
0.00071130058
0.00092930192
0.0011850111
0.0014676759
0.0017567692
0.0020229254
0.0022314177
0.0023459382
0.0023303722
0.0021685359
0.0017673812
0.0010975059
0.00060960745
0.00034289458
0.00021457471
0.0001555837
0.00013223547
0.00012207892
0.00012015091
0.00011994025
0.00011902531
0.00011546497
0.00010975901
0.00010592733
0.00010313609
9.9928319e-05
9.670563e-05
9.4192205e-05
9.1540747e-05
8.9077061e-05
8.6565614e-05
8.4889861e-05
8.2514821e-05
4.8058621e-13
1.510168e-11
1.2349131e-10
5.3108883e-10
1.6343151e-09
4.1241343e-09
9.1453951e-09
1.8535096e-08
3.5174388e-08
6.3504679e-08
1.1027985e-07
1.8565693e-07
3.047701e-07
4.899919e-07
7.7416687e-07
1.2052145e-06
1.8526473e-06
2.8167479e-06
4.2413999e-06
6.3318804e-06
9.3792707e-06
1.37935e-05
2.0147279e-05
2.9233115e-05
4.213481e-05
6.0312652e-05
8.5696833e-05
0.00012077464
0.00016864155
0.00023296165
0.00031774754
0.00042682856
0.00056284719
0.00072565671
0.00091018901
0.0011043521
0.0012880403
0.0014342557
0.0015117761
0.0014901871
0.001352874
0.0010276498
0.00063020485
0.00036907862
0.00022859395
0.00015795903
0.00013110671
0.00011983181
0.00011760523
0.00011866267
0.00012036162
0.00011977576
0.00011706806
0.00011050482
0.00010656176
0.00010388921
0.00010053735
9.7611553e-05
9.4970013e-05
9.2320506e-05
8.9668602e-05
8.7393108e-05
8.5058923e-05
8.3397249e-05
8.155141e-05
3.8994089e-13
1.2253293e-11
1.0019922e-10
4.3092005e-10
1.3260778e-09
3.346355e-09
7.4207851e-09
1.5040156e-08
2.8542744e-08
5.1533262e-08
8.9493427e-08
1.5066713e-07
2.4733749e-07
3.9766045e-07
6.2828503e-07
9.7807823e-07
1.5033902e-06
2.2854468e-06
3.4406452e-06
5.1347491e-06
7.6022059e-06
1.1171989e-05
1.6301377e-05
2.3618681e-05
3.3974772e-05
4.8500574e-05
6.8662688e-05
9.6300387e-05
0.00013361311
0.00018304708
0.00024700409
0.0003272802
0.00042414318
0.00053500629
0.00065293283
0.00076549327
0.00085462198
0.00089784904
0.00087314625
0.00076480121
0.00055172873
0.0003472149
0.00022011856
0.00015033394
0.00012135521
0.00010870395
0.00011032624
0.00011281417
0.00011878891
0.00012181788
0.00012118211
0.00011857787
0.00011146088
0.00010756028
0.00010464623
0.00010138485
9.8409856e-05
9.5730016e-05
9.2864527e-05
9.0403241e-05
8.8008569e-05
8.6088681e-05
8.4097388e-05
8.251998e-05
8.0945646e-05
3.033621e-13
9.5326871e-12
7.7951967e-11
3.3524356e-10
1.0316566e-09
2.6034073e-09
5.7733119e-09
1.1701275e-08
2.2206604e-08
4.0093917e-08
6.9627997e-08
1.172219e-07
1.92429e-07
3.0936594e-07
4.887429e-07
7.6074329e-07
1.1690813e-06
1.7766726e-06
2.6734811e-06
3.9872368e-06
5.8978295e-06
8.6561973e-06
1.2608317e-05
1.8224244e-05
2.6130637e-05
3.7142315e-05
5.2283275e-05
7.2779582e-05
9.9994974e-05
0.00013526588
0.00017958119
0.00023305639
0.0002941959
0.00035902171
0.00042031
0.00046728417
0.00048586857
0.00046400517
0.00038883838
0.00027691194
0.00018702476
0.00012942715
0.00010264848
9.1224367e-05
9.3937443e-05
9.9730245e-05
0.00011049908
0.0001217009
0.0001234545
0.00012279454
0.00012014654
0.00011291093
0.00010854835
0.00010548184
0.00010208851
9.9370031e-05
9.6515795e-05
9.3807052e-05
9.1277237e-05
8.9120031e-05
8.6968485e-05
8.5031015e-05
8.3069168e-05
8.1763509e-05
8.039612e-05
2.1993528e-13
6.9111264e-12
5.6514554e-11
2.4304884e-10
7.4794315e-10
1.8874521e-09
4.1856091e-09
8.4833031e-09
1.6099374e-08
2.9066677e-08
5.0475811e-08
8.4972753e-08
1.3947533e-07
2.2419894e-07
3.5411602e-07
5.5101841e-07
8.4640759e-07
1.2855042e-06
1.9327377e-06
2.8791348e-06
4.2520305e-06
6.2274148e-06
9.0448663e-06
1.302421e-05
1.8581457e-05
2.6238805e-05
3.6619153e-05
5.0409479e-05
6.8270455e-05
9.066263e-05
0.00011756688
0.00014810743
0.00018007232
0.0002095531
0.00023074701
0.00023628016
0.00022108308
0.00017998759
0.00013314404
9.8012774e-05
7.9045956e-05
7.0110344e-05
7.2198036e-05
7.8737393e-05
9.3371376e-05
0.00011472488
0.00012330156
0.00012539899
0.00012467657
0.00012196235
0.00011445866
0.00010982534
0.00010622044
0.00010308625
0.00010036987
9.7588324e-05
9.4645245e-05
9.2198834e-05
8.9843435e-05
8.769065e-05
8.5536121e-05
8.3785636e-05
8.2031282e-05
8.0794782e-05
7.9729342e-05
1.4401298e-13
4.5253828e-12
3.7005457e-11
1.591465e-10
4.8974405e-10
1.2358669e-09
2.7406043e-09
5.5544298e-09
1.0540537e-08
1.9029069e-08
3.3041423e-08
5.5614453e-08
9.1266163e-08
1.4666027e-07
2.3154762e-07
3.6008843e-07
5.526898e-07
8.3852507e-07
1.2589274e-06
1.8718509e-06
2.7575359e-06
4.0253389e-06
5.8212886e-06
8.3351625e-06
1.1804536e-05
1.6511155e-05
2.2762084e-05
3.0844568e-05
4.0941613e-05
5.2999189e-05
6.6542486e-05
8.0464887e-05
9.2865763e-05
0.00010101101
0.0001014476
9.3047626e-05
7.6880692e-05
6.2660812e-05
5.3430167e-05
4.8595125e-05
5.1306351e-05
5.6509222e-05
6.8916787e-05
9.5288369e-05
0.00011721471
0.00012547248
0.0001271873
0.00012647308
0.00012379829
0.00011630088
0.00011112412
0.00010735026
0.00010400518
0.00010146183
9.838995e-05
9.5607302e-05
9.3067402e-05
9.0797105e-05
8.8447998e-05
8.650098e-05
8.4604021e-05
8.3020364e-05
8.1410684e-05
8.032585e-05
7.9378344e-05
8.2732794e-14
2.5997461e-12
2.1258831e-11
9.1425294e-11
2.8133973e-10
7.099402e-10
1.5742651e-09
3.1903824e-09
6.0537451e-09
1.0927439e-08
1.8970286e-08
3.1921502e-08
5.2365003e-08
8.4104708e-08
1.3269265e-07
2.0616386e-07
3.1604479e-07
4.7871174e-07
7.1717514e-07
1.0633406e-06
1.5607222e-06
2.2674157e-06
3.2588173e-06
4.6290136e-06
6.4888947e-06
8.9578167e-06
1.2144351e-05
1.6111027e-05
2.0818875e-05
2.605343e-05
3.1345835e-05
3.5917954e-05
3.8689552e-05
3.8501212e-05
3.5972423e-05
3.2767886e-05
3.0035773e-05
2.990943e-05
3.313127e-05
3.7677202e-05
4.7966959e-05
6.7010889e-05
9.7880779e-05
0.00011783382
0.00012681335
0.00012897261
0.00012829465
0.00012580305
0.00011838446
0.00011271178
0.00010854818
0.00010516461
0.00010227353
9.9451158e-05
9.667848e-05
9.4284743e-05
9.1636842e-05
8.9359767e-05
8.7272182e-05
8.5491043e-05
8.3672499e-05
8.2160804e-05
8.0650982e-05
7.9703678e-05
7.8899763e-05
4.0848314e-14
1.2835912e-12
1.0496198e-11
4.5138971e-11
1.3890044e-10
3.5048857e-10
7.7713865e-10
1.5747684e-09
2.9876555e-09
5.3917437e-09
9.3573289e-09
1.5739083e-08
2.5804232e-08
4.1413298e-08
6.5272002e-08
1.0127724e-07
1.5498331e-07
2.3421405e-07
3.4983745e-07
5.1669257e-07
7.5459957e-07
1.0892709e-06
1.5527481e-06
2.182686e-06
3.0194086e-06
4.099251e-06
5.4424666e-06
7.0348618e-06
8.8042821e-06
1.0598606e-05
1.217764e-05
1.3234338e-05
1.3707177e-05
1.4079333e-05
1.4734637e-05
1.6168895e-05
1.8462267e-05
2.3419599e-05
3.1744691e-05
4.6228931e-05
6.8499584e-05
9.7307673e-05
0.00011647233
0.00012746848
0.00013065706
0.00013005607
0.00012781655
0.00012078793
0.00011428645
0.00010996411
0.00010631128
0.00010332031
0.00010037811
9.7966281e-05
9.5191647e-05
9.2579161e-05
9.01928e-05
8.8272806e-05
8.6244083e-05
8.4495024e-05
8.2752008e-05
8.1357638e-05
7.995856e-05
7.9138111e-05
7.8441224e-05
1.7458935e-14
5.486172e-13
4.4861132e-12
1.9292099e-11
5.9362622e-11
1.4978002e-10
3.3207337e-10
6.7280213e-10
1.2761721e-09
2.3023977e-09
3.99419e-09
6.7146195e-09
1.1000688e-08
1.7638231e-08
2.7765127e-08
4.3010848e-08
6.5680485e-08
9.8989021e-08
1.4734445e-07
2.1666222e-07
3.1466281e-07
4.5105173e-07
6.3740327e-07
8.8646903e-07
1.2105408e-06
1.6185448e-06
2.1118322e-06
2.679663e-06
3.2972142e-06
3.9320227e-06
4.591143e-06
5.3949032e-06
6.4227624e-06
7.7260722e-06
1.0132309e-05
1.3985481e-05
2.0503542e-05
3.1255416e-05
4.7070677e-05
6.8378661e-05
9.3905106e-05
0.00011343867
0.00012779156
0.00013239133
0.00013191557
0.00012992681
0.00012338199
0.0001160707
0.00011149988
0.00010774406
0.00010438904
0.00010149562
9.8935519e-05
9.6350289e-05
9.3594635e-05
9.1442353e-05
8.9156273e-05
8.7131818e-05
8.5182812e-05
8.3629444e-05
8.2062749e-05
8.0805216e-05
7.9543395e-05
7.8823559e-05
7.811535e-05
7.3042918e-15
2.2952451e-13
1.8768359e-12
8.0709868e-12
2.4833825e-11
6.2655351e-11
1.3889935e-10
2.8138503e-10
5.336454e-10
9.6257021e-10
1.6694124e-09
2.8054883e-09
4.5943365e-09
7.3626142e-09
1.1582536e-08
1.7929088e-08
2.7355317e-08
4.1188214e-08
6.1245465e-08
8.9968503e-08
1.3055913e-07
1.8709472e-07
2.6458637e-07
3.6893773e-07
5.0678898e-07
6.8529636e-07
9.1294991e-07
1.2022596e-06
1.5782915e-06
2.1013395e-06
2.8544677e-06
3.9840739e-06
5.7400173e-06
8.579397e-06
1.32021e-05
2.0640734e-05
3.1664452e-05
4.6689611e-05
6.6338012e-05
9.0176943e-05
0.00011184924
0.00012900303
0.00013420934
0.00013405275
0.00013218505
0.00012597332
0.00011787403
0.00011331271
0.00010920059
0.0001056634
0.0001025445
0.00010001899
9.7343526e-05
9.4953534e-05
9.2412538e-05
9.0119228e-05
8.7867374e-05
8.6149896e-05
8.4393664e-05
8.2897072e-05
8.134912e-05
8.0143692e-05
7.8906991e-05
7.8269379e-05
7.7658629e-05
4.486285e-15
1.4097386e-13
1.1527604e-12
4.9572995e-12
1.5253539e-11
3.8485709e-11
8.5323214e-11
1.7286727e-10
3.2789812e-10
5.9161121e-10
1.0264729e-09
1.726073e-09
2.8291825e-09
4.5396643e-09
7.1544514e-09
1.1102539e-08
1.6998865e-08
2.5718155e-08
3.8495505e-08
5.7063131e-08
8.3837781e-08
1.2218401e-07
1.7680249e-07
2.5434628e-07
3.6449062e-07
5.2195813e-07
7.4977503e-07
1.0853663e-06
1.590639e-06
2.3708902e-06
3.5981014e-06
5.547379e-06
8.6370563e-06
1.3492203e-05
2.0853019e-05
3.1370271e-05
4.5695647e-05
6.4589847e-05
8.8005674e-05
0.0001113222
0.00012961378
0.00013602985
0.00013627114
0.00013452131
0.00012862521