/*--------------------------------*- C++ -*----------------------------------*\
  =========                 |
  \\      /  F ield         | OpenFOAM: The Open Source CFD Toolbox
   \\    /   O peration     | Website:  https://openfoam.org
    \\  /    A nd           | Version:  13
     \\/     M anipulation  |
\*---------------------------------------------------------------------------*/
FoamFile
{
    format      ascii;
    class       surfaceScalarField;
    location    "47.499247";
    object      phi;
}
// * * * * * * * * * * * * * * * * * * * * * * * * * * * * * * * * * * * * * //

dimensions      [0 3 -1 0 0 0 0];

internalField   nonuniform List<scalar> 
34068
(
-1.0492017e-08
-6.0682665e-08
7.1174682e-08
-4.6700857e-08
-2.1113195e-07
2.4734079e-07
-1.1723616e-07
-4.1305612e-07
4.8359143e-07
-2.3298914e-07
-6.7878815e-07
7.9454113e-07
-4.0767811e-07
-1.0230714e-06
1.1977604e-06
-6.5851573e-07
-1.4634759e-06
1.7143135e-06
-1.0070051e-06
-2.0208694e-06
2.3693588e-06
-1.4799479e-06
-2.7199073e-06
3.1928501e-06
-2.1106662e-06
-3.5896245e-06
4.2203428e-06
-2.9403697e-06
-4.6642326e-06
5.4939362e-06
-4.0198586e-06
-5.983882e-06
7.063371e-06
-5.4115508e-06
-7.5956345e-06
8.9873267e-06
-7.1918306e-06
-9.5546751e-06
1.1334955e-05
-9.4538126e-06
-1.192575e-05
1.4187732e-05
-1.2310499e-05
-1.4784983e-05
1.764167e-05
-1.5898383e-05
-1.8222151e-05
2.1810035e-05
-2.038145e-05
-2.2343551e-05
2.6826617e-05
-2.5955555e-05
-2.7275608e-05
3.2849713e-05
-3.2853052e-05
-3.3169336e-05
4.0066832e-05
-4.1347507e-05
-4.0205765e-05
4.8700221e-05
-5.1758203e-05
-4.8602248e-05
5.9012944e-05
-6.4453982e-05
-5.8619417e-05
7.1315196e-05
-7.9855889e-05
-7.0568075e-05
8.5969982e-05
-9.843769e-05
-8.4814917e-05
0.00010339672
-0.00012072324
-0.0001017851
0.00012407065
-0.00014727927
-0.00012195918
0.00014851521
-0.00017870194
-0.00014586159
0.00017728426
-0.00021559549
-0.00017403828
0.00021093183
-0.00025854201
-0.00020702468
0.00024997121
-0.00030806368
-0.00024531133
0.000294833
-0.00036458451
-0.00028932652
0.00034584734
-0.00042840754
-0.00033946806
0.0004032911
-0.00049973137
-0.00039621354
0.00046753737
-0.00057872075
-0.00046029847
0.00053928785
-0.00066561373
-0.00053288841
0.0006197814
-0.0007608172
-0.00061567324
0.00071087671
-0.00086495767
-0.00071091049
0.00081505096
-0.00097889744
-0.00082152144
0.0009354612
-0.0011037484
-0.00095132372
0.0010761747
-0.0012409089
-0.0011054445
0.0012426051
-0.001392137
-0.0012909569
0.001442185
-0.0015596661
-0.0015178144
0.0016853435
-0.0017463783
-0.0018001698
0.001986882
-0.0019560226
-0.002158011
0.0023676553
-0.0021933956
-0.002619116
0.002856489
-0.0024645596
-0.0032221654
0.0034933293
-0.0027770342
-0.0040209326
0.0043334072
-0.0031397779
-0.0050885602
0.0054513039
-0.0035633242
-0.0065236751
0.0069472215
-0.0040602074
-0.008456355
0.0089532381
-0.004644178
-0.011046291
0.011630261
-0.0053285856
-0.014461641
0.015146048
-0.0061270759
-0.018815974
0.019614464
-0.0070570905
-0.024024967
0.024954981
-0.0081118562
-0.029567038
0.030621804
-0.0093209376
-0.034166699
0.035375781
-0.010566347
-0.034149948
0.035395357
-0.010588211
-0.022066871
0.022088736
-0.0057769541
0.015249156
-0.020060413
0.0039732321
0.075377961
-0.085128147
0.012622464
0.12484229
-0.13349152
0.017120122
0.15314974
-0.1576474
0.022745953
0.14835585
-0.15398168
0.039401444
0.060619643
-0.077275134
-0.091155947
0.062591591
0.0679658
-1.1268212e-08
-4.9414453e-08
-5.0156248e-08
-1.7224391e-07
-1.2590862e-07
-3.3730374e-07
-2.5021326e-07
-5.5448351e-07
-4.3778703e-07
-8.3549762e-07
-7.0711728e-07
-1.1941457e-06
-1.0813782e-06
-1.6466084e-06
-1.5894278e-06
-2.2118577e-06
-2.2669118e-06
-2.9121405e-06
-3.1577523e-06
-3.7733921e-06
-4.3162319e-06
-4.8254024e-06
-5.8090044e-06
-6.102862e-06
-7.7175546e-06
-7.6461249e-06
-1.0141131e-05
-9.5021734e-06
-1.3200046e-05
-1.1726069e-05
-1.7039439e-05
-1.4382758e-05
-2.1833459e-05
-1.754953e-05
-2.7789808e-05
-2.1319259e-05
-3.5154508e-05
-2.5804635e-05
-4.4216742e-05
-3.1143532e-05
-5.5313399e-05
-3.7505591e-05
-6.8832931e-05
-4.5099884e-05
-8.5217821e-05
-5.4183186e-05
-0.00010496485
-6.5067889e-05
-0.000128622
-7.8127944e-05
-0.00015678062
-9.3800564e-05
-0.00019006116
-0.00011258105
-0.00022909096
-0.00013500848
-0.0002744733
-0.00016164234
-0.00032674962
-0.00019303501
-0.00038636267
-0.00022971347
-0.00045363804
-0.00027219269
-0.00052880801
-0.00032104357
-0.00061209112
-0.00037701537
-0.00070380515
-0.00044117438
-0.00080446447
-0.00051501392
-0.00091483262
-0.00060054233
-0.0010359451
-0.00070040899
-0.0011691364
-0.00081813239
-0.0013160993
-0.00095848162
-0.0014789912
-0.001128065
-0.001660596
-0.0013362096
-0.0018645607
-0.0015962052
-0.002095695
-0.0019268766
-0.0023602434
-0.0023545676
-0.0026662375
-0.0029161713
-0.0030238554
-0.0036633147
-0.0034455712
-0.0046668444
-0.0039462932
-0.0060229531
-0.0045435181
-0.0078591301
-0.0052565643
-0.010333244
-0.0061046636
-0.013613541
-0.0071050455
-0.017815592
-0.0082717134
-0.022858299
-0.0096001147
-0.028238637
-0.011111308
-0.032655505
-0.012660684
-0.032600572
-0.013213157
-0.021514399
-0.0093275179
0.011363517
-3.2628018e-06
0.066053706
0.0093066543
0.11553237
0.016023703
0.1464327
0.02686738
0.13751217
0.048092432
0.039394592
-0.11397415
0.070910636
-1.1944338e-08
-3.7470114e-08
-5.3169777e-08
-1.3101847e-07
-1.3348186e-07
-2.5699166e-07
-2.6527838e-07
-4.2268699e-07
-4.641643e-07
-6.366117e-07
-7.4968932e-07
-9.0862064e-07
-1.1462143e-06
-1.2500834e-06
-1.6840082e-06
-1.6740638e-06
-2.4007454e-06
-2.1954033e-06
-3.3430575e-06
-2.8310799e-06
-4.5682165e-06
-3.6002433e-06
-6.1464618e-06
-4.5246167e-06
-8.1636053e-06
-5.6289813e-06
-1.072405e-05
-6.9417284e-06
-1.3954248e-05
-8.495871e-06
-1.8006601e-05
-1.0330404e-05
-2.3063788e-05
-1.2492344e-05
-2.9343441e-05
-1.5039605e-05
-3.7103078e-05
-1.8044998e-05
-4.6645036e-05
-2.1601574e-05
-5.8321125e-05
-2.5829503e-05
-7.2536496e-05
-3.0884513e-05
-8.9752098e-05
-3.6967585e-05
-0.00011048481
-4.4335177e-05
-0.00013530412
-5.3308633e-05
-0.00016482394
-6.4280746e-05
-0.00019968792
-7.7717066e-05
-0.00024054679
-9.4149606e-05
-0.00028802709
-0.00011416205
-0.00034269348
-0.00013836862
-0.00040501301
-0.00016739394
-0.00047533914
-0.00020186656
-0.00055394047
-0.00024244224
-0.00064108634
-0.00028986949
-0.00073716498
-0.00034509574
-0.0008427838
-0.00040939511
-0.00095882531
-0.00048450083
-0.0010864772
-0.0005727571
-0.001227273
-0.00067733662
-0.0013831711
-0.00080258351
-0.0015566905
-0.00095454564
-0.0017511149
-0.0011417852
-0.0019707898
-0.0013765303
-0.002221496
-0.0016761704
-0.0025107966
-0.002065267
-0.0028485146
-0.0025784533
-0.0032472209
-0.0032646084
-0.0037224866
-0.0041915786
-0.0042929631
-0.0054524766
-0.0049801161
-0.007171977
-0.0058066478
-0.0095067128
-0.0067929204
-0.012627269
-0.0079517385
-0.016656774
-0.0092836697
-0.021526368
-0.010770808
-0.026751498
-0.012398002
-0.031028311
-0.013971339
-0.031027236
-0.01458435
-0.020901387
-0.01129515
0.0080743175
-0.0025622855
0.057320841
0.007490993
0.10547909
0.017046992
0.1368767
0.033643964
0.1209152
0.058696698
0.014341858
-0.13552124
0.080243787
-1.2473076e-08
-2.4997037e-08
-5.5526568e-08
-8.7964977e-08
-1.3940107e-07
-1.7311716e-07
-2.7703755e-07
-2.850505e-07
-4.8471607e-07
-4.2893317e-07
-7.8280835e-07
-6.1052836e-07
-1.1966626e-06
-8.3622918e-07
-1.7578012e-06
-1.1129251e-06
-2.5054058e-06
-1.4477987e-06
-3.4880548e-06
-1.8484309e-06
-4.765342e-06
-2.3229561e-06
-6.4102868e-06
-2.8796719e-06
-8.512063e-06
-3.5272051e-06
-1.1179066e-05
-4.2747257e-06
-1.4542494e-05
-5.1324423e-06
-1.8760355e-05
-6.1125433e-06
-2.402191e-05
-7.230789e-06
-3.0552485e-05
-8.5090303e-06
-3.8618518e-05
-9.9789656e-06
-4.8532628e-05
-1.1687464e-05
-6.0658374e-05
-1.3703757e-05
-7.5414234e-05
-1.6128653e-05
-9.3276136e-05
-1.9105684e-05
-0.00011477764
-2.2833675e-05
-0.00014050664
-2.7579628e-05
-0.00017109719
-3.3690197e-05
-0.00020721479
-4.1599466e-05
-0.00024953376
-5.1830639e-05
-0.00029870604
-6.4989764e-05
-0.00035532379
-8.1750868e-05
-0.00041988398
-0.00010283375
-0.00049277388
-0.00012897666
-0.00057430093
-0.0001609152
-0.00066478047
-0.00019938994
-0.00076465891
-0.0002452173
-0.00087461841
-0.00029943561
-0.00099563816
-0.00036348108
-0.0011290319
-0.00043936332
-0.0012765011
-0.0005298675
-0.0014402307
-0.00063885389
-0.00162305
-0.00077172629
-0.001828675
-0.00093616026
-0.0020620598
-0.0011431454
-0.0023298296
-0.0014084007
-0.0026406917
-0.0017544049
-0.0030060206
-0.0022131244
-0.0034404281
-0.002830201
-0.0039620439
-0.0036699628
-0.0045924332
-0.0048220873
-0.0053557169
-0.0064086934
-0.0062756574
-0.0085867723
-0.007369435
-0.011533491
-0.0086383922
-0.015387816
-0.010059661
-0.020105099
-0.01158411
-0.025227049
-0.013148206
-0.029464216
-0.014535968
-0.029639474
-0.014901485
-0.020535871
-0.011760539
0.0049333721
-0.0033271808
0.048887482
0.0076973017
0.09445461
0.021053254
0.12352074
0.043300802
0.098667649
0.070527148
-0.012884488
-0.15506821
0.09007412
-1.2810559e-08
-1.2186478e-08
-5.7032238e-08
-4.3743297e-08
-1.4318317e-07
-8.6966227e-08
-2.8454688e-07
-1.4368679e-07
-4.9782666e-07
-2.1565339e-07
-8.0395544e-07
-3.0439958e-07
-1.2291322e-06
-4.1105243e-07
-1.8059604e-06
-5.360969e-07
-2.5746282e-06
-6.7913094e-07
-3.5846712e-06
-8.3838794e-07
-4.8971647e-06
-1.0104626e-06
-6.5869483e-06
-1.1898882e-06
-8.7453614e-06
-1.368792e-06
-1.1483407e-05
-1.5366803e-06
-1.4935377e-05
-1.6804725e-06
-1.9262942e-05
-1.7849784e-06
-2.4659683e-05
-1.8340473e-06
-3.1356002e-05
-1.8127115e-06
-3.9624276e-05
-1.7106918e-06
-4.9784056e-05
-1.5276841e-06
-6.2206979e-05
-1.280834e-06
-7.732092e-05
-1.0147113e-06
-9.5612732e-05
-8.1387251e-07
-0.00011762868
-8.1772837e-07
-0.00014397143
-1.2368724e-06
-0.00017529225
-2.3693791e-06
-0.00021227674
-4.6149785e-06
-0.00025562274
-8.4846434e-06
-0.00030600967
-1.4602826e-05
-0.00036406172
-2.3698826e-05
-0.00043031328
-3.6582181e-05
-0.0005051903
-5.4099643e-05
-0.00058904118
-7.7064317e-05
-0.00068221805
-0.00010621307
-0.00078521359
-0.00014222176
-0.0008987638
-0.0001858854
-0.0010239178
-0.00023832709
-0.0011620828
-0.00030119836
-0.0013150886
-0.00037686167
-0.001485297
-0.00046864552
-0.0016757823
-0.0005812409
-0.001890606
-0.00072133663
-0.0021352158
-0.00089853559
-0.0024169166
-0.0011266999
-0.0027453402
-0.0014259813
-0.0031331099
-0.0018253547
-0.0035964454
-0.0023668655
-0.0041553991
-0.003111009
-0.0048335076
-0.0041439788
-0.0056561258
-0.0055860753
-0.0066457751
-0.0075971229
-0.0078125415
-0.010366725
-0.0091397547
-0.014060603
-0.010570778
-0.018674075
-0.012008898
-0.023788928
-0.013326288
-0.028146826
-0.014251854
-0.028713908
-0.014029363
-0.020758361
-0.010595834
0.0014998431
-0.0020408425
0.040332491
0.010424432
0.081989335
0.028168678
0.1057765
0.054992326
0.071844001
0.082824391
-0.040716554
-0.17203009
0.099786268
-1.2957332e-08
7.7085445e-10
-5.7695896e-08
9.95267e-10
-1.44868e-07
2.0588083e-10
-2.8792657e-07
-6.2821543e-10
-5.0378691e-07
2.0694923e-10
-8.1362852e-07
5.4420362e-09
-1.2438669e-06
1.9185959e-08
-1.8273303e-06
4.7366518e-08
-2.6047235e-06
9.826225e-08
-3.6262354e-06
1.8312395e-07
-4.9535706e-06
3.1687261e-07
-6.6623072e-06
5.1884844e-07
-8.8446547e-06
8.1355552e-07
-1.1612649e-05
1.2313145e-06
-1.5101808e-05
1.8086864e-06
-1.9475258e-05
2.5884717e-06
-2.4928318e-05
3.6190121e-06
-3.1693473e-05
4.9524442e-06
-4.0045635e-05
6.6414697e-06
-5.0307463e-05
8.7341436e-06
-6.2854459e-05
1.1266162e-05
-7.8119371e-05
1.4250201e-05
-9.6595266e-05
1.7662023e-05
-0.00011883644
2.1423444e-05
-0.00014545603
2.5382716e-05
-0.00017711896
2.9293557e-05
-0.00021452864
3.2794702e-05
-0.0002584058
3.5392516e-05
-0.00030945893
3.6450303e-05
-0.00036834723
3.5189475e-05
-0.00043565538
3.0725968e-05
-0.00051184415
2.2089123e-05
-0.00059731997
8.4115092e-06
-0.00069243759
-1.1095449e-05
-0.0007977408
-3.6918559e-05
-0.00091399274
-6.9633452e-05
-0.0010422818
-0.000110038
-0.0011840644
-0.00015941576
-0.0013412545
-0.00021967154
-0.0015163298
-0.00029357029
-0.0017125291
-0.00038504156
-0.0019341493
-0.00049971647
-0.0021869904
-0.00064569451
-0.0024788344
-0.00083485582
-0.0028199668
-0.0010848489
-0.0032238921
-0.0014214294
-0.0037079209
-0.0018828366
-0.0042932924
-0.0025256376
-0.0050044685
-0.0034328028
-0.0058665347
-0.004724009
-0.0068984925
-0.0065651651
-0.0080997158
-0.0091655014
-0.0094295806
-0.012730738
-0.010787643
-0.017316013
-0.012013337
-0.022563234
-0.012907895
-0.027252268
-0.013120212
-0.028501591
-0.011971737
-0.021906836
-0.0077325214
-0.0027393729
0.0014925494
0.03110742
0.015986912
0.067494973
0.037829477
0.083933934
0.067503208
0.042170269
0.094910543
-0.068123888
-0.18590049
0.10878095
-1.2886454e-08
1.3657309e-08
-5.739055e-08
4.5499363e-08
-1.4411882e-07
8.6934149e-08
-2.864636e-07
1.4171657e-07
-5.0125998e-07
2.1500333e-07
-8.0958479e-07
3.1376685e-07
-1.237724e-06
4.4732521e-07
-1.8183399e-06
6.2798237e-07
-2.5918721e-06
8.7179444e-07
-3.6082109e-06
1.1994628e-06
-4.9286836e-06
1.6373453e-06
-6.6283978e-06
2.2185626e-06
-8.7989813e-06
2.984139e-06
-1.1551762e-05
3.9840953e-06
-1.5021411e-05
5.2783354e-06
-1.937007e-05
6.9371309e-06
-2.4791948e-05
9.04089e-06
-3.1518337e-05
1.1678833e-05
-3.9822944e-05
1.4946077e-05
-5.0027358e-05
1.8938558e-05
-6.250636e-05
2.3745163e-05
-7.7692649e-05
2.9436491e-05
-9.60804e-05
3.6049774e-05
-0.00011822681
4.3569857e-05
-0.0001447506
5.1906502e-05
-0.00017632609
6.0869048e-05
-0.00021367137
7.0139983e-05
-0.00025752891
7.9250051e-05
-0.00030863749
8.7558883e-05
-0.00036769717
9.4249159e-05
-0.00043532105
9.8349846e-05
-0.00051204124
9.8809315e-05
-0.00059827588
9.4646146e-05
-0.0006944821
8.5110771e-05
-0.00080116268
6.9762016e-05
-0.00091908437
4.8288247e-05
-0.0010493538
2.0231447e-05
-0.0011934094
-1.5360189e-05
-0.00135321
-5.9870978e-05
-0.0015312706
-0.00011550963
-0.0017309029
-0.00018540926
-0.0019564987
-0.00027412071
-0.0022140469
-0.00038814629
-0.0025115582
-0.00053734453
-0.0028596444
-0.00073676269
-0.0032722471
-0.0010088267
-0.0037671461
-0.0013879376
-0.0043658942
-0.0019268894
-0.0050926553
-0.0027060418
-0.0059705141
-0.0038461502
-0.007012452
-0.0055232271
-0.0082035822
-0.0079743712
-0.0094740899
-0.011460231
-0.010670949
-0.016119154
-0.01155318
-0.021681004
-0.011854572
-0.026950876
-0.011143419
-0.029212745
-0.0087476974
-0.024302557
-0.0033037585
-0.0081833118
0.0072020867
0.020601574
0.024065655
0.050631404
0.048980912
0.059018677
0.080054093
0.011097088
0.1063182
-0.094387995
-0.19617628
0.11659399
-1.2581811e-08
2.623912e-08
-5.6045848e-08
8.89634e-08
-1.4076377e-07
1.7165207e-07
-2.7982948e-07
2.8078228e-07
-4.8969897e-07
4.2487282e-07
-7.9096913e-07
6.1503701e-07
-1.209321e-06
8.6567706e-07
-1.7766581e-06
1.1953195e-06
-2.5324722e-06
1.6276086e-06
-3.5254769e-06
2.1924675e-06
-4.8155471e-06
2.9274154e-06
-6.4760094e-06
3.8790249e-06
-8.5963277e-06
5.1044574e-06
-1.1285222e-05
6.6729897e-06
-1.467426e-05
8.6673731e-06
-1.8921933e-05
1.1184804e-05
-2.4218229e-05
1.4337186e-05
-3.0789653e-05
1.8250258e-05
-3.8904622e-05
2.3061046e-05
-4.8879063e-05
2.8912998e-05
-6.108197e-05
3.594807e-05
-7.5940526e-05
4.4295047e-05
-9.3944244e-05
5.4053492e-05
-0.00011564734
6.5272948e-05
-0.00014166833
7.7927499e-05
-0.00017268562
9.1886342e-05
-0.00020942742
0.00010688178
-0.00025265448
0.0001224771
-0.00030313426
0.00013803867
-0.00036160663
0.00015272153
-0.00042874451
0.00016548773
-0.00050512638
0.00017519118
-0.00059123445
0.00018075422
-0.00068751826
0.00018139458
-0.00079449901
0.00017674277
-0.00091290931
0.00016669854
-0.0010437829
0.00015110502
-0.001188592
0.00012944898
-0.0013492031
0.0001007401
-0.0015280856
6.3372879e-05
-0.0017285394
1.5044551e-05
-0.001954855
-4.780517e-05
-0.0022130327
-0.00012996858
-0.0025110118
-0.00023936542
-0.0028593314
-0.00038844308
-0.0032718266
-0.00059633151
-0.003765974
-0.00089379024
-0.0043625376
-0.0013303258
-0.0050837903
-0.0019847891
-0.0059484795
-0.002981461
-0.006960204
-0.0045115026
-0.0080853803
-0.0068491949
-0.0092191814
-0.01032643
-0.010148924
-0.015189412
-0.010546364
-0.021283564
-0.010078691
-0.027418548
-0.0082779087
-0.031013527
-0.0044696198
-0.028110846
0.00248915
-0.015142082
0.014655802
0.0084349225
0.03371258
0.031574626
0.060682018
0.03204924
0.092506262
-0.020727156
0.11659541
-0.11847715
-0.20234103
0.12276017
-1.2031564e-08
3.8270685e-08
-5.3612086e-08
1.3054392e-07
-1.3468214e-07
2.5272212e-07
-2.677881e-07
4.1388824e-07
-4.6869383e-07
6.2577855e-07
-7.5712512e-07
9.034683e-07
-1.1576717e-06
1.2662236e-06
-1.7008744e-06
1.7385222e-06
-2.4245329e-06
2.3512671e-06
-3.375269e-06
3.1432036e-06
-4.6103866e-06
4.162533e-06
-6.2000728e-06
5.4687111e-06
-8.229985e-06
7.1343696e-06
-1.0804263e-05
9.2472672e-06
-1.4049014e-05
1.1912124e-05
-1.8116298e-05
1.5252089e-05
-2.3188619e-05
1.9409507e-05
-2.9483904e-05
2.4545543e-05
-3.726093e-05
3.0838072e-05
-4.6825043e-05
3.8477112e-05
-5.8533969e-05
4.7656996e-05
-7.2803394e-05
5.8564471e-05
-9.0111773e-05
7.1361871e-05
-0.00011100371
8.6164884e-05
-0.00013609091
0.00010301471
-0.00016604956
0.00012184499
-0.00020161247
0.00014244469
-0.00024355446
0.00016441909
-0.0002926693
0.00018715351
-0.00034973756
0.00020978979
-0.00041548757
0.00023123774
-0.00049055788
0.00025026149
-0.00057548263
0.00026567897
-0.00067072841
0.00027664036
-0.00077679608
0.00028281044
-0.00089435855
0.00028426101
-0.0010243785
0.00028112499
-0.0011681976
0.00027326808
-0.0013275879
0.00026013034
-0.0015048794
0.00024066442
-0.001703105
0.00021327011
-0.0019264944
0.00017558426
-0.0021806453
0.00012418229
-0.0024731264
5.3115737e-05
-0.0028139078
-4.7661732e-05
-0.0032160357
-0.0001942036
-0.0036956737
-0.00041415221
-0.0042712839
-0.00075471565
-0.004960924
-0.001295149
-0.0057753208
-0.0021670642
-0.0067031984
-0.003583625
-0.0076843747
-0.0058680187
-0.0085670383
-0.009443766
-0.0090655123
-0.014690938
-0.0087773895
-0.021571686
-0.0073013866
-0.028894551
-0.0042550559
-0.034059858
0.00097561142
-0.033341513
0.0095083181
-0.023674788
0.023386718
-0.0054434777
0.044259438
0.010701907
0.072952521
0.0033561562
0.10484596
-0.052620593
0.12468765
-0.13831884
-0.20435947
0.12670609
-1.1239567e-08
4.9510252e-08
-5.0104497e-08
1.6940885e-07
-1.2590845e-07
3.2852607e-07
-2.5040346e-07
5.3838325e-07
-4.3835107e-07
8.1372617e-07
-7.0821725e-07
1.1733345e-06
-1.0830152e-06
1.6410216e-06
-1.5913213e-06
2.2468282e-06
-2.2684988e-06
3.0284446e-06
-3.1581613e-06
4.0328662e-06
-4.3139215e-06
5.3182932e-06
-5.801459e-06
6.9562486e-06
-7.7009655e-06
9.0338761e-06
-1.0110005e-05
1.1656307e-05
-1.3146838e-05
1.4948958e-05
-1.6954253e-05
1.9059503e-05
-2.1703918e-05
2.4159172e-05
-2.7601285e-05
3.0442909e-05
-3.4890975e-05
3.8127762e-05
-4.38626e-05
4.7448737e-05
-5.4856828e-05
5.8651224e-05
-6.8271418e-05
7.197906e-05
-8.4566799e-05
8.7657253e-05
-0.00010427056
0.00010586864
-0.00012797998
0.00012672413
-0.00015636142
0.00015022643
-0.00019014515
0.00017622842
-0.00023011382
0.00020438775
-0.00027708274
0.00023412244
-0.00033187044
0.00026457748
-0.00039525924
0.00029462654
-0.00046795111
0.00032295336
-0.00055053482
0.00034826267
-0.00064349648
0.00036960202
-0.00074730145
0.00038661541
-0.00086253138
0.00039949094
-0.00099001583
0.00040860944
-0.0011309219
0.0004141742
-0.0012868202
0.00041602857
-0.0014597824
0.00041362669
-0.0016525501
0.00040603776
-0.0018688579
0.00039189207
-0.0021137347
0.00036905908
-0.0023938897
0.00033327071
-0.0027182125
0.00027666113
-0.0030979804
0.00018556431
-0.0035466789
3.4546232e-05
-0.0040782337
-0.00022316076
-0.0047027919
-0.00067059077
-0.0054168116
-0.0014530446
-0.0061842166
-0.00281622
-0.0069009094
-0.0051513259
-0.0073375193
-0.009007156
-0.0070959453
-0.014932512
-0.0057075738
-0.022960058
-0.002783682
-0.031818443
0.0017999915
-0.038643532
0.0084414451
-0.039982967
0.018368141
-0.033601484
0.033649303
-0.02072464
0.05604608
-0.011694869
0.086520344
-0.027118109
0.11621588
-0.082316128
0.1301876
-0.15229056
-0.20332902
0.12915715
-1.021989e-08
5.9730142e-08
-4.5583469e-08
2.0477243e-07
-1.1459188e-07
3.9753448e-07
-2.2796805e-07
6.5175942e-07
-3.9917582e-07
9.8493394e-07
-6.4505148e-07
1.4192101e-06
-9.8656926e-07
1.9825394e-06
-1.449767e-06
2.7100259e-06
-2.0668597e-06
3.6455374e-06
-2.8775772e-06
4.8435837e-06
-3.9307613e-06
6.3714773e-06
-5.2862711e-06
8.3117584e-06
-7.017233e-06
1.0764838e-05
-9.2127022e-06
1.3851776e-05
-1.1980765e-05
1.7717021e-05
-1.5452158e-05
2.2530896e-05
-1.9784428e-05
2.8491442e-05
-2.5166666e-05
3.5825148e-05
-3.1824825e-05
4.4785921e-05
-4.0027565e-05
5.5651477e-05
-5.0092546e-05
6.8716206e-05
-6.2392896e-05
8.4279411e-05
-7.7363585e-05
0.00010262794
-9.5507094e-05
0.00012401215
-0.00011739761
0.00014861464
-0.00014368269
0.00017651151
-0.00017508095
0.00020762668
-0.00021237406
0.00024168086
-0.00025639086
0.00027813925
-0.0003079813
0.00031616792
-0.00036797788
0.00035462311
-0.00043714532
0.0003921208
-0.00051612957
0.00042724693
-0.00060543751
0.00045890996
-0.00070548889
0.00048666679
-0.00081674384
0.00051074589
-0.00093984559
0.00053171119
-0.0010757201
0.00055004873
-0.0012256379
0.00056594639
-0.0013912885
0.00057927724
-0.0015749146
0.00058966385
-0.0017795546
0.00059653211
-0.0020092878
0.00059879228
-0.002269479
0.00059346186
-0.002567066
0.00057424813
-0.002910387
0.00052888534
-0.0033081267
0.00043228592
-0.0037664267
0.00023513929
-0.004281305
-0.00015571246
-0.0048244417
-0.00090990791
-0.0053161876
-0.0023244741
-0.0055707697
-0.0048967438
-0.0052123367
-0.009365589
-0.0036486086
-0.01649624
-0.00031888542
-0.026289781
0.0048813096
-0.037018638
0.011609344
-0.045371566
0.019926933
-0.048300556
0.031066889
-0.04474144
0.047355325
-0.037013076
0.071091355
-0.035430899
0.10102519
-0.057051943
0.12437055
-0.10566148
0.13209545
-0.16001546
-0.20143199
0.13019841
-8.9987897e-09
6.8728932e-08
-4.0166503e-08
2.3594015e-07
-1.0102661e-07
4.5839459e-07
-2.010645e-07
7.5179731e-07
-3.5218233e-07
1.1360518e-06
-5.6925635e-07
1.6362842e-06
-8.7080861e-07
2.2840917e-06
-1.2798225e-06
3.1190398e-06
-1.8247252e-06
4.1904401e-06
-2.5405695e-06
5.559428e-06
-3.4704542e-06
7.301362e-06
-4.6672173e-06
9.5085215e-06
-6.1954602e-06
1.2293081e-05
-8.1339487e-06
1.5790264e-05
-1.0578447e-05
2.016152e-05
-1.3645057e-05
2.5597505e-05
-1.74741e-05
3.2320486e-05
-2.2234631e-05
4.0585679e-05
-2.8129592e-05
5.0680881e-05
-3.5401613e-05
6.2923498e-05
-4.4339435e-05
7.7654028e-05
-5.5284797e-05
9.5224773e-05
-6.8639513e-05
0.00011598266
-8.4872321e-05
0.00014024496
-0.00010452479
0.00016826711
-0.0001282153
0.00020020202
-0.00015663975
0.00023605113
-0.00019056727
0.00027560839
-0.0002308286
0.00031840057
-0.00027829402
0.00036363334
-0.0003338369
0.00041016599
-0.00039827917
0.00045656307
-0.00047232333
0.00050129109
-0.00055649861
0.00054308524
-0.00065117354
0.00058134172
-0.00075666147
0.00061623381
-0.00087336792
0.00064841764
-0.0010019006
0.00067858139
-0.0011431231
0.00070716895
-0.0012981955
0.00073434961
-0.001468652
0.00076012037
-0.0016565573
0.00078443743
-0.0018646087
0.00080684361
-0.002096144
0.00082499723
-0.0023551175
0.00083322155
-0.0026451842
0.0008189521
-0.002967311
0.00075441273
-0.0033140943
0.00058192255
-0.0036579139
0.00018810718
-0.0039279571
-0.00063986476
-0.0039658955
-0.0022865357
-0.0034306315
-0.0054320078
-0.0016818731
-0.011114347
0.0021279169
-0.02030603
0.0084306496
-0.032592514
0.016761662
-0.04534965
0.026233286
-0.05484319
0.036598186
-0.058665456
0.049025303
-0.057168557
0.065857152
-0.053844926
0.088411777
-0.057985524
0.11248133
-0.0811215
0.12758188
-0.12076203
0.13174901
-0.1641826
-0.19991115
0.13022817
-7.6155803e-09
7.6344512e-08
-3.4027222e-08
2.6235179e-07
-8.56467e-08
5.1001407e-07
-1.7055075e-07
8.3670136e-07
-2.9886595e-07
1.264367e-06
-4.8323628e-07
1.8206545e-06
-7.3939223e-07
2.5402476e-06
-1.0868378e-06
3.4664853e-06
-1.5496831e-06
4.6532854e-06
-2.1576488e-06
6.1673937e-06
-2.9472736e-06
8.0909869e-06
-3.9633754e-06
1.0524623e-05
-5.2607954e-06
1.3590501e-05
-6.9064995e-06
1.7435968e-05
-8.982085e-06
2.2237105e-05
-1.158677e-05
2.820219e-05
-1.4840943e-05
3.5574658e-05
-1.8890353e-05
4.463509e-05
-2.3911001e-05
5.5701529e-05
-3.0114806e-05
6.9127303e-05
-3.7756047e-05
8.5295269e-05
-4.7138522e-05
0.00010460725
-5.8623266e-05
0.0001274674
-7.263642e-05
0.00015425812
-8.967678e-05
0.00018530747
-0.00011032201
0.00022084724
-0.00013523233
0.00026096145
-0.00016514997
0.00030552603
-0.00020089194
0.00035414254
-0.00024333251
0.00040607392
-0.00029337008
0.00046020356
-0.00035187091
0.00051506389
-0.00041958729
0.00056900747
-0.00049707044
0.00062056839
-0.00058463528
0.00066890655
-0.00068242881
0.00071402735
-0.00079057007
0.0007565589
-0.0009092665
0.00079727782
-0.0010388568
0.00083675929
-0.0011798073
0.00087530004
-0.0013327109
0.00091302399
-0.0014983058
0.00095003237
-0.0016773501
0.00098588788
-0.0018703225
0.0010179696
-0.0020767588
0.0010396579
-0.0022931128
0.0010353061
-0.0025079864
0.00096928633
-0.0026919967
0.00076593284
-0.0027779846
0.00027409516
-0.0026244154
-0.00079343402
-0.0019317568
-0.0029791943
-9.1636966e-05
-0.0072721276
0.0038829436
-0.015088928
0.010783544
-0.02720663
0.020302736
-0.042111706
0.031138882
-0.056185796
0.042170516
-0.065874824
0.053381696
-0.069876636
0.065946055
-0.069732916
0.081398896
-0.069297766
0.099393908
-0.075980536
0.11554345
-0.097271039
0.12556088
-0.13077946
0.1298701
-0.16849182
-0.20037745
0.1303364
-6.1231576e-09
8.246767e-08
-2.7399629e-08
2.8362826e-07
-6.9036579e-08
5.5165102e-07
-1.3758456e-07
9.0524934e-07
-2.4124395e-07
1.3680264e-06
-3.9023919e-07
1.9696497e-06
-5.9726954e-07
2.747278e-06
-8.7806143e-07
3.7472772e-06
-1.2520312e-06
5.0272552e-06
-1.743095e-06
6.6584575e-06
-2.3806482e-06
8.7285401e-06
-3.2007538e-06
1.1344729e-05
-4.2475852e-06
1.4637332e-05
-5.5751797e-06
1.8763563e-05
-7.2495681e-06
2.3911493e-05
-9.3513621e-06
3.0303984e-05
-1.1978878e-05
3.8202174e-05
-1.5251927e-05
4.7908139e-05
-1.9316344e-05
5.9765945e-05
-2.4349375e-05
7.4160334e-05
-3.0566001e-05
9.1511894e-05
-3.8226198e-05
0.00011226745
-4.7643061e-05
0.00013688426
-5.9191564e-05
0.00016580662
-7.3317399e-05
0.00019943331
-9.0545255e-05
0.0002380751
-0.00011148521
0.0002819014
-0.00013683566
0.00033087648
-0.00016738032
0.0003846872
-0.00020397549
0.00044266909
-0.0002475211
0.00050374917
-0.0002989055
0.00056644829
-0.00035891423
0.0006290162
-0.00042811336
0.00068976752
-0.0005067621
0.0007475553
-0.00059482727
0.00080209252
-0.00069209696
0.00085382859
-0.00079829418
0.00090347505
-0.0009131034
0.0009515685
-0.0010361101
0.0009983067
-0.0011666889
0.0010436028
-0.0013038113
0.0010871548
-0.0014455917
0.0011276682
-0.0015885192
0.0011608971
-0.0017256727
0.0011768114
-0.0018425313
0.0011521646
-0.0019082234
0.0010349785
-0.0018581251
0.00071583449
-0.0015623801
-2.1649847e-05
-0.00076104403
-0.0015947701
0.0010829926
-0.0048232309
0.0049440025
-0.011133137
0.011828612
-0.021973537
0.021676615
-0.037054634
0.033005003
-0.053440095
0.044046634
-0.067227426
0.054107899
-0.075936089
0.063803726
-0.079572464
0.074443255
-0.080372444
0.087105886
-0.081960397
0.10113132
-0.090005966
0.1136631
-0.10980282
0.12271417
-0.13983053
0.12797542
-0.17375307
-0.20298917
0.13058714
-4.5856807e-09
8.7053351e-08
-2.0569151e-08
2.9961173e-07
-5.191179e-08
5.8299366e-07
-1.0358461e-07
9.5692216e-07
-1.8179497e-07
1.4462367e-06
-2.9425805e-07
2.0821128e-06
-4.505335e-07
2.9035534e-06
-6.62426e-07
3.9591697e-06
-9.44479e-07
5.3093082e-06
-1.3145744e-06
7.0285529e-06
-1.7946687e-06
9.2086344e-06
-2.4116902e-06
1.196175e-05
-3.1986634e-06
1.5424306e-05
-4.1960748e-06
1.9760974e-05
-5.4535916e-06
2.516901e-05
-7.0321821e-06
3.1882575e-05
-9.0067739e-06
4.0176766e-05
-1.1469513e-05
5.0370878e-05
-1.4533851e-05
6.2830283e-05
-1.8339494e-05
7.7965977e-05
-2.3058426e-05
9.6230827e-05
-2.8902051e-05
0.00011811107
-3.6129457e-05
0.00014411167
-4.5056673e-05
0.00017473384
-5.6066543e-05
0.00021044318
-6.9618497e-05
0.00025162705
-8.6257188e-05
0.00029854009
-0.00010661835
0.00035123765
-0.00013142948
0.00040949833
-0.00016150142
0.00047274103
-0.000197704
0.00053995175
-0.00024091457
0.00060965886
-0.00029192236
0.000680024
-0.00035128858
0.00074913374
-0.00041920798
0.0008154747
-0.00049545606
0.00087834059
-0.00057945017
0.0009378227
-0.00067034325
0.00099436813
-0.00076702282
0.0010482481
-0.00086797337
0.0010992573
-0.00097100581
0.0011466353
-0.0010727622
0.0011889112
-0.0011677906
0.0012226966
-0.0012469606
0.0012400671
-0.0012938797
0.0012237305
-0.0012772699
0.0011355548
-0.0011358321
0.00089354073
-0.00074995764
0.00032996003
0.0001079941
-0.00087960158
0.0018993726
-0.0033861486
0.0055047413
-0.0084285997
0.012003536
-0.017631932
0.02161519
-0.031585191
0.032960931
-0.048400375
0.04393793
-0.064417093
0.053250889
-0.076540385
0.061084871
-0.083770071
0.068633588
-0.087121181
0.077264095
-0.089002951
0.087876479
-0.092572782
0.099937855
-0.10206734
0.11138551
-0.12125048
0.1204119
-0.14885692
0.12653463
-0.1798758
-0.20715621
0.13070168
-3.0798345e-09
9.0133185e-08
-1.3874702e-08
3.104066e-07
-3.5119691e-08
6.0423864e-07
-7.0231104e-08
9.9203357e-07
-1.2345035e-07
1.499456e-06
-2.0002164e-07
2.1586841e-06
-3.0640254e-07
3.0099343e-06
-4.5052352e-07
4.1032907e-06
-6.4210635e-07
5.500891e-06
-8.9305223e-07
7.2794988e-06
-1.2179304e-06
9.5335126e-06
-1.6345888e-06
1.2378409e-05
-2.1649226e-06
1.5954639e-05
-2.8358693e-06
2.0431921e-05
-3.6806642e-06
2.6013805e-05
-4.7404784e-06
3.2942389e-05
-6.0665147e-06
4.1502802e-05
-7.7227347e-06
5.2027098e-05
-9.7893021e-06
6.4896851e-05
-1.2367012e-05
8.0543687e-05
-1.5582773e-05
9.9446589e-05
-1.9596381e-05
0.00012212468
-2.4608573e-05
0.00014912386
-3.0870378e-05
0.00018099564
-3.8693404e-05
0.0002182662
-4.8460552e-05
0.0002613942
-6.0636094e-05
0.00031071564
-7.5773561e-05
0.00036637511
-9.4519129e-05
0.0004282439
-0.00011760668
0.00049582858
-0.00014583749
0.00056818256
-0.00018003549
0.00064385686
-0.00022094479
0.0007209333
-0.00026907859
0.00079726753
-0.00032455034
0.00087094645
-0.00038692377
0.00094071403
-0.00045520629
0.0010061052
-0.00052789072
0.0010670526
-0.00060290517
0.0011232625
-0.00067736222
0.0011737143
-0.00074705842