/*--------------------------------*- C++ -*----------------------------------*\
  =========                 |
  \\      /  F ield         | OpenFOAM: The Open Source CFD Toolbox
   \\    /   O peration     | Website:  https://openfoam.org
    \\  /    A nd           | Version:  13
     \\/     M anipulation  |
\*---------------------------------------------------------------------------*/
FoamFile
{
    format      ascii;
    class       volVectorField;
    location    "47.499247";
    object      U;
}
// * * * * * * * * * * * * * * * * * * * * * * * * * * * * * * * * * * * * * //

dimensions      [0 1 -1 0 0 0 0];

internalField   nonuniform List<vector> 
17140
(
(2.4176e-06 -0.00018435188 3.057391e-23)
(6.1625809e-06 -0.00057548288 3.3857166e-24)
(8.3034713e-06 -0.0010104021 -2.2344732e-22)
(8.1359898e-06 -0.0014904514 2.4554172e-22)
(4.8234626e-06 -0.0020168722 -2.8689834e-23)
(-2.7199672e-06 -0.0025908007 9.3844708e-23)
(-1.5870042e-05 -0.003213241 1.578749e-22)
(-3.6334066e-05 -0.0038850545 -7.6983423e-23)
(-6.6233238e-05 -0.0046069528 -2.5171678e-22)
(-0.00010818797 -0.0053795056 -6.1653179e-22)
(-0.00016541807 -0.0062031618 9.1253439e-22)
(-0.00024185993 -0.0070782916 -8.1143655e-22)
(-0.00034230567 -0.0080052529 -1.2389141e-22)
(-0.00047255776 -0.0089844838 6.981297e-22)
(-0.00063960354 -0.010016622 -7.7195888e-23)
(-0.0008518063 -0.011102648 6.0858554e-22)
(-0.0011191095 -0.012244048 -2.2459296e-23)
(-0.0014532474 -0.013442971 5.0685622e-24)
(-0.0018679511 -0.01470236 3.5216574e-22)
(-0.0023791332 -0.016026014 -4.5165056e-22)
(-0.003005028 -0.017418513 2.1492033e-22)
(-0.003766256 -0.018884939 -4.0366953e-23)
(-0.0046857675 -0.020430287 -2.9210052e-22)
(-0.0057886137 -0.022058489 2.8610939e-22)
(-0.0071014743 -0.023770957 4.4522008e-22)
(-0.0086518611 -0.025564681 -3.4940021e-22)
(-0.010466907 -0.027429976 -1.6772883e-21)
(-0.012571648 -0.0293483 -1.9299202e-22)
(-0.014986755 -0.03129086 1.6493445e-21)
(-0.017725751 -0.033219238 3.7620054e-22)
(-0.02079204 -0.035089648 1.3047564e-21)
(-0.024176476 -0.036862056 -1.6627127e-21)
(-0.027856742 -0.038513053 4.1874964e-22)
(-0.0318 -0.040046855 1.9184515e-22)
(-0.035969044 -0.041496623 1.7903647e-21)
(-0.0403295 -0.042914773 -7.4415177e-22)
(-0.044854088 -0.044360969 1.0706191e-21)
(-0.049522673 -0.04589682 6.9307255e-22)
(-0.054320507 -0.047588601 3.0517557e-22)
(-0.059237355 -0.049514622 -8.9815928e-22)
(-0.0642683 -0.051774415 -1.6646389e-21)
(-0.069415157 -0.054498875 -1.4955504e-21)
(-0.074691015 -0.057860394 -6.5108217e-22)
(-0.08012598 -0.062077482 3.181428e-21)
(-0.085764334 -0.067413866 2.3408691e-21)
(-0.091669375 -0.074191521 -5.7870095e-22)
(-0.097921138 -0.082803516 3.9842646e-21)
(-0.10460735 -0.093701249 1.3647205e-21)
(-0.11180587 -0.10739996 -1.4014806e-21)
(-0.11959894 -0.12446368 -3.4581237e-21)
(-0.12806956 -0.14536357 2.1426231e-21)
(-0.13725005 -0.17018391 1.3647294e-21)
(-0.14703469 -0.1980919 -3.5894445e-21)
(-0.15745471 -0.22640626 -1.7229117e-21)
(-0.16843803 -0.24970263 -1.2703282e-21)
(-0.17919838 -0.25881254 1.0115236e-21)
(-0.19087616 -0.23246889 -2.9992708e-21)
(-0.19899647 -0.13596938 -2.7567144e-21)
(-0.16166121 0.087389657 -6.9073172e-22)
(-0.014677802 0.38331577 1.4442619e-21)
(0.12850615 0.55934824 7.4354814e-22)
(0.19599442 0.60546172 1.749137e-21)
(0.20530633 0.53100379 2.5848041e-22)
(0.29122757 0.22448606 -3.0788882e-21)
(0.51830099 -0.21599842 2.2860543e-21)
(6.2210875e-06 -0.00015379059 -8.7321192e-24)
(1.7985049e-05 -0.00048084226 1.1760521e-21)
(2.895271e-05 -0.00084497697 -1.0462266e-21)
(3.8384396e-05 -0.0012468828 2.8508518e-22)
(4.5404267e-05 -0.0016871018 5.8866493e-22)
(4.886776e-05 -0.0021660341 -1.1241494e-21)
(4.7314811e-05 -0.0026839603 1.1708851e-21)
(3.8923496e-05 -0.0032408974 -1.0294875e-22)
(2.1436946e-05 -0.0038365915 3.2103403e-22)
(-7.9149421e-06 -0.0044708192 5.4415853e-24)
(-5.2526832e-05 -0.0051432424 1.0682927e-21)
(-0.00011655253 -0.0058534187 -1.6934439e-21)
(-0.00020504443 -0.0066009722 -1.394563e-22)
(-0.0003240979 -0.0073857023 1.3715125e-21)
(-0.0004810327 -0.0082077563 -4.1918844e-22)
(-0.00068457947 -0.0090678322 -2.6472606e-22)
(-0.00094508295 -0.0099674091 1.6671807e-21)
(-0.0012747071 -0.010908992 -5.3819068e-21)
(-0.0016876342 -0.011896341 3.3332369e-21)
(-0.0022002415 -0.012934643 -3.9432915e-21)
(-0.0028312318 -0.014030561 5.7388725e-21)
(-0.0036016876 -0.015192093 -1.3839332e-21)
(-0.0045350065 -0.01642812 -5.5917983e-22)
(-0.0056566654 -0.017747576 1.7933266e-21)
(-0.0069937463 -0.019158123 -6.3102838e-21)
(-0.008574144 -0.020664351 -9.2217434e-22)
(-0.010425363 -0.022265585 4.6632824e-21)
(-0.012572815 -0.023953634 -5.1135269e-21)
(-0.015037559 -0.025711108 6.8707077e-22)
(-0.01783354 -0.027511284 6.5661092e-21)
(-0.020964632 -0.029320822 -6.6020283e-22)
(-0.024422252 -0.031106278 -4.934494e-21)
(-0.028184865 -0.032843756 -1.2315814e-22)
(-0.032220803 -0.034527927 3.4122397e-21)
(-0.036494584 -0.036174996 -3.6327593e-21)
(-0.04097409 -0.037818193 1.5589664e-21)
(-0.045634699 -0.039500821 -1.7429134e-21)
(-0.050459335 -0.041272818 -5.3144666e-21)
(-0.055436877 -0.043192533 -1.1515507e-21)
(-0.060561648 -0.045332219 -4.3845122e-21)
(-0.065834772 -0.047785723 5.5050928e-21)
(-0.071266363 -0.050677766 5.0371986e-21)
(-0.076881133 -0.0541735 8.6118161e-22)
(-0.082725194 -0.058483678 -6.927185e-21)
(-0.088864018 -0.06386632 3.3262962e-21)
(-0.095388397 -0.070639353 1.1639317e-21)
(-0.10241317 -0.079194454 -6.0321243e-22)
(-0.11006933 -0.089988518 -1.9744248e-21)
(-0.11848618 -0.10354583 9.6919722e-22)
(-0.12779103 -0.12043789 -1.8078078e-21)
(-0.13809046 -0.14115573 -1.0817377e-20)
(-0.14944391 -0.16581199 -5.1205265e-22)
(-0.16176957 -0.19360279 2.3549451e-21)
(-0.1750349 -0.22187672 -5.2834095e-21)
(-0.18891936 -0.24534131 4.6035898e-21)
(-0.20320996 -0.25460923 -1.3350837e-20)
(-0.21862165 -0.22949072 -3.6769445e-21)
(-0.23012241 -0.14035614 1.1861293e-20)
(-0.21063043 0.058088611 -1.9338194e-21)
(-0.084409114 0.33409399 -1.9439266e-21)
(0.059805857 0.5215908 -2.1625394e-22)
(0.14386638 0.58773679 2.087134e-21)
(0.19746112 0.50925486 -5.0225507e-21)
(0.36632177 0.1762207 -2.7479627e-21)
(0.60843255 -0.26375104 -3.134169e-21)
(8.2747851e-06 -0.00012118654 -4.8259497e-22)
(2.4403854e-05 -0.00037987041 3.5658517e-22)
(4.0190815e-05 -0.00066848827 9.4809592e-23)
(5.4839407e-05 -0.00098704702 -8.9853204e-23)
(6.7290118e-05 -0.001335364 4.3526679e-22)
(7.6478073e-05 -0.0017129452 3.2365634e-23)
(8.094032e-05 -0.002118955 4.130192e-22)
(7.8096202e-05 -0.0025526488 4.4460872e-22)
(6.6106802e-05 -0.0030134559 -3.629092e-21)
(4.2439795e-05 -0.003500515 3.2355478e-21)
(2.5888311e-06 -0.0040122162 -1.5455419e-21)
(-5.7521902e-05 -0.0045472504 -2.2596652e-21)
(-0.00014296003 -0.0051045107 4.4680201e-21)
(-0.00026027135 -0.0056831421 5.5128121e-22)
(-0.00041701094 -0.0062828274 -2.1186358e-21)
(-0.00062221636 -0.0069040199 -1.4487021e-21)
(-0.00088651208 -0.0075482606 1.6686303e-21)
(-0.001222344 -0.0082185059 -5.9918695e-21)
(-0.0016441525 -0.008919458 3.5065716e-21)
(-0.0021685358 -0.0096578501 -1.7149614e-21)
(-0.0028143689 -0.010442627 5.7059038e-21)
(-0.003602843 -0.011284932 1.4614584e-21)
(-0.0045573938 -0.012197809 -3.0002716e-21)
(-0.0057034631 -0.0131955 4.4355045e-21)
(-0.0070680318 -0.014292255 1.7154416e-21)
(-0.0086788468 -0.015500628 -2.0188337e-21)
(-0.010563251 -0.016829315 -1.1236672e-20)
(-0.012746527 -0.018280815 -4.9851259e-21)
(-0.015249696 -0.019849403 2.4336424e-21)
(-0.018086824 -0.021520182 -2.5513902e-21)
(-0.021262174 -0.023270142 1.5533843e-21)
(-0.024767941 -0.025071975 8.5725884e-21)
(-0.02858388 -0.026900434 -2.7836021e-21)
(-0.032680231 -0.028739516 -7.9883635e-21)
(-0.037023939 -0.030587485 2.5372109e-21)
(-0.041585589 -0.032457803 3.4092534e-21)
(-0.046343328 -0.034377124 -5.6619343e-21)
(-0.051282912 -0.036383455 -1.6768496e-21)
(-0.056396393 -0.03852677 2.8587465e-21)
(-0.06168209 -0.040872562 1.1109974e-21)
(-0.067146387 -0.043507889 -5.3379357e-21)
(-0.072806535 -0.046549857 1.5240617e-21)
(-0.078697396 -0.050154541 2.1895535e-21)
(-0.084879146 -0.054522932 5.9139429e-21)
(-0.091435356 -0.059905629 -1.1415807e-20)
(-0.098480074 -0.066614566 7.5411321e-21)
(-0.10615715 -0.075038353 1.9575136e-21)
(-0.11463164 -0.085638543 7.7740825e-21)
(-0.12406997 -0.098951096 9.4370255e-21)
(-0.13462636 -0.11556402 4.7371433e-22)
(-0.14640469 -0.1359996 -2.1455911e-21)
(-0.15942184 -0.16042374 1.5357433e-20)
(-0.17347669 -0.18809578 6.5634003e-21)
(-0.18831098 -0.21642656 6.7895595e-21)
(-0.20328011 -0.24017522 2.182495e-21)
(-0.21835315 -0.24992429 1.758201e-20)
(-0.23353572 -0.22641149 -6.2506333e-21)
(-0.24376581 -0.14412151 1.13358e-21)
(-0.23054848 0.032269062 1.5941568e-20)
(-0.12809368 0.28603287 4.7954429e-21)
(0.013853532 0.47875678 -3.5648649e-21)
(0.11416114 0.55955033 -1.0860468e-20)
(0.2217847 0.47020352 4.3770898e-21)
(0.46874533 0.11951678 1.0884334e-20)
(0.70927325 -0.30283699 4.4636046e-21)
(8.3890794e-06 -8.6844075e-05 1.6217679e-21)
(2.4831977e-05 -0.00027349193 -2.5799551e-21)
(4.099079e-05 -0.00048251015 9.3259331e-22)
(5.5918585e-05 -0.00071318052 -1.0133835e-22)
(6.8579316e-05 -0.00096454248 2.0028106e-21)
(7.7693069e-05 -0.0012354472 -2.0710602e-21)
(8.1738187e-05 -0.0015246941 3.1397165e-21)
(7.7992838e-05 -0.0018307588 -1.4758421e-21)
(6.4184818e-05 -0.0021512005 -5.6060657e-21)
(3.7796205e-05 -0.0024838062 1.3461015e-21)
(-5.9221753e-06 -0.0028269373 5.1196507e-21)
(-7.1112716e-05 -0.0031784757 -1.5597958e-21)
(-0.00016332962 -0.0035365545 -1.03848e-22)
(-0.00028919037 -0.0038997188 4.0601637e-21)
(-0.00045650786 -0.0042671979 -1.2654351e-20)
(-0.00067450595 -0.0046392379 7.7326795e-21)
(-0.00095397678 -0.0050174818 7.3271011e-23)
(-0.0013074806 -0.0054053926 -4.2245596e-21)
(-0.001749499 -0.0058086851 1.064296e-20)
(-0.0022965864 -0.0062357297 -4.9764129e-21)
(-0.0029674646 -0.0066978604 -7.3439513e-21)
(-0.003783051 -0.0072095019 -2.9408868e-21)
(-0.004766377 -0.0077880107 1.4354589e-20)
(-0.0059423531 -0.0084531133 7.4027312e-21)
(-0.0073373198 -0.0092258422 -4.7117348e-21)
(-0.0089783115 -0.010126916 2.7129489e-21)
(-0.010891945 -0.011174608 -1.0013792e-20)
(-0.013102847 -0.012382298 2.8363249e-21)
(-0.01563156 -0.013756086 -7.5240242e-21)
(-0.018491984 -0.015292989 4.1840976e-21)
(-0.021688696 -0.016980296 -2.5465132e-21)
(-0.025214893 -0.018796608 9.0973505e-21)
(-0.0290522 -0.020714984 -1.2685807e-21)
(-0.033173531 -0.022708323 6.4818501e-21)
(-0.03754896 -0.024756397 -5.9546148e-21)
(-0.042152212 -0.026852414 -1.8376597e-21)
(-0.046964257 -0.029005973 2.183839e-20)
(-0.051973417 -0.031242709 5.5024568e-21)
(-0.057174405 -0.033603594 -4.4307083e-21)
(-0.062568816 -0.036146494 4.2735082e-21)
(-0.068167309 -0.038950641 -1.1103446e-21)
(-0.073992905 -0.04212409 -6.795763e-21)
(-0.080089039 -0.045812007 3.0816728e-22)
(-0.086527459 -0.050203711 2.3430146e-21)
(-0.093406028 -0.055540855 -1.1811598e-21)
(-0.1008573 -0.062127446 6.389409e-22)
(-0.10904713 -0.070347718 1.7781554e-21)
(-0.11816411 -0.080667948 -2.7134579e-20)
(-0.12839536 -0.093639441 3.1249871e-21)
(-0.13989912 -0.10987777 -2.879803e-21)
(-0.15274175 -0.12995597 2.7266845e-20)
(-0.16683425 -0.15412343 -1.4927152e-20)
(-0.18174928 -0.1817437 -1.2316996e-20)
(-0.19686782 -0.21033056 -1.1655675e-20)
(-0.21110437 -0.23464219 -1.1035146e-20)
(-0.22421582 -0.2452864 -1.7058156e-20)
(-0.23580524 -0.22411338 3.3330595e-20)
(-0.24252969 -0.14803886 -1.9572052e-20)
(-0.22828096 0.0098964613 -2.7743716e-20)
(-0.14293519 0.24072631 1.1771215e-20)
(-0.0043924912 0.43318458 3.3998557e-21)
(0.11427587 0.52062664 3.2943366e-21)
(0.29103838 0.41666343 -1.8058602e-20)
(0.58864456 0.060295299 -2.0862176e-20)
(0.81425977 -0.33066528 4.9770099e-22)
(6.4363964e-06 -5.1452928e-05 -1.1462593e-21)
(1.8900348e-05 -0.0001638651 3.805018e-21)
(3.0715734e-05 -0.00029087806 -3.1013607e-21)
(4.084069e-05 -0.0004310622 1.1717097e-21)
(4.8095181e-05 -0.0005826979 4.2318268e-22)
(5.0966688e-05 -0.00074378552 -3.6399497e-21)
(4.7576218e-05 -0.00091203356 9.2133352e-22)
(3.5638069e-05 -0.0010849006 1.9553506e-21)
(1.2382181e-05 -0.0012597691 1.4986538e-22)
(-2.5527008e-05 -0.0014336171 1.272325e-21)
(-8.2115682e-05 -0.0016034446 -1.7797202e-21)
(-0.00016219261 -0.0017663619 1.2350849e-21)
(-0.00027147939 -0.0019197587 4.5435138e-21)
(-0.00041674566 -0.0020615655 1.3199104e-22)
(-0.00060595613 -0.0021905764 -3.4547494e-21)
(-0.0008484251 -0.0023068436 -2.438785e-21)
(-0.0011549754 -0.0024121355 2.0900815e-21)
(-0.001538094 -0.0025104467 -1.988303e-22)
(-0.0020120758 -0.0026085351 -4.0276401e-21)
(-0.0025931422 -0.0027164408 -4.8732627e-21)
(-0.0032995169 -0.0028479229 5.5146697e-21)
(-0.0041514359 -0.0030207231 5.4934632e-21)
(-0.0051710596 -0.0032565475 -7.30924e-21)
(-0.006382246 -0.0035806434 8.9387744e-21)
(-0.0078101317 -0.0040208582 1.529598e-20)
(-0.0094804504 -0.0046061084 -3.553939e-20)
(-0.01141851 -0.0053642732 1.9279156e-20)
(-0.013647743 -0.0063196439 -2.8144599e-20)
(-0.016187771 -0.0074901774 3.45911e-20)
(-0.019052008 -0.0088848511 -3.7930636e-20)
(-0.022245235 -0.010501314 3.8416295e-20)
(-0.025761931 -0.012324294 -6.3021231e-21)
(-0.029586215 -0.014325414 -2.1138687e-20)
(-0.033694321 -0.016466705 1.15014e-20)
(-0.038060129 -0.018709242 -3.4518666e-21)
(-0.042660969 -0.021025639 -9.5064678e-22)
(-0.047480698 -0.023407903 -1.1365184e-20)
(-0.052509884 -0.025868713 -3.5650395e-21)
(-0.057745313 -0.028439277 -3.5388376e-21)
(-0.06319098 -0.031168984 -3.3827617e-21)
(-0.068860657 -0.03412809 1.7118571e-20)
(-0.074781561 -0.037414164 -7.5128496e-21)
(-0.081003921 -0.041159637 -1.213444e-21)
(-0.087607966 -0.04554054 1.4068807e-20)
(-0.094701576 -0.050787916 7.2168047e-21)
(-0.10243037 -0.057196081 -3.5495808e-21)
(-0.11097431 -0.065143966 -1.3321299e-20)
(-0.12053387 -0.07510343 5.7705747e-21)
(-0.13129944 -0.087645821 -1.7420117e-20)
(-0.14340909 -0.10342689 -9.56635e-21)
(-0.1568564 -0.12309413 -1.3168371e-20)
(-0.17138868 -0.14702045 -3.5701103e-20)
(-0.18626329 -0.17472436 2.7335535e-20)
(-0.2003719 -0.20385956 -8.7962943e-21)
(-0.21203654 -0.22917075 1.463305e-20)
(-0.22054024 -0.24120944 1.3550111e-20)
(-0.22535203 -0.22233157 3.5603673e-21)
(-0.22370326 -0.15236721 3.882167e-20)
(-0.20402615 -0.010632634 1.0283996e-20)
(-0.12757518 0.19853882 -1.6134949e-20)
(0.0081441547 0.38542347 -2.7710726e-21)
(0.15283608 0.47007057 3.7198178e-21)
(0.39737658 0.35301524 1.0088484e-20)
(0.71566512 0.0048627129 2.4062563e-20)
(0.91645895 -0.34600896 -1.3649406e-21)
(2.3402715e-06 -1.558077e-05 -3.506751e-21)
(6.3806968e-06 -5.2711445e-05 -1.2375761e-21)
(8.9438765e-06 -9.6535236e-05 1.0016911e-21)
(8.875939e-06 -0.00014489214 3.6982336e-21)
(4.808384e-06 -0.00019529128 -2.0257268e-21)
(-4.9556626e-06 -0.00024492877 2.9145434e-21)
(-2.2488276e-05 -0.00029068578 -1.2605096e-21)
(-5.0277985e-05 -0.00032915205 -3.000808e-22)
(-9.1312219e-05 -0.00035667563 1.6972615e-21)
(-0.00014915775 -0.00036944453 3.6549848e-21)
(-0.00022805115 -0.00036360807 1.8361115e-22)
(-0.00033300186 -0.00033544895 -5.9960247e-21)
(-0.00046990486 -0.00028161473 8.2842187e-21)
(-0.00064566115 -0.00019941753 -1.3353652e-20)
(-0.00086830588 -8.7209711e-05 3.4827322e-21)
(-0.0011471404 5.5161023e-05 -7.3831879e-21)
(-0.0014928651 0.00022581929 8.8991566e-21)
(-0.0019177057 0.00042026449 -5.7598452e-21)
(-0.0024355269 0.00063073382 9.0558451e-22)
(-0.0030619204 0.0008455698 3.6566418e-21)
(-0.0038142545 0.0010486588 -8.8397422e-21)
(-0.0047116649 0.0012190325 1.2395909e-20)
(-0.0057749617 0.0013307473 -1.3382315e-20)
(-0.0070264178 0.0013531695 -2.2868596e-21)
(-0.0084893919 0.0012517919 2.2213302e-20)
(-0.010187722 0.00098966718 -2.225709e-20)
(-0.012144819 0.00052947876 1.4325891e-20)
(-0.014382369 -0.00016382269 -1.5925447e-20)
(-0.016918608 -0.0011199443 -1.5193467e-21)
(-0.019766097 -0.0023598102 -9.3360239e-22)
(-0.022929754 -0.0038918018 6.0684819e-21)
(-0.026405599 -0.0057073768 -4.1003298e-22)
(-0.030180692 -0.0077774596 2.18526e-20)
(-0.034235082 -0.010053584 -5.7098532e-21)
(-0.038546977 -0.012479112 -1.6513078e-20)
(-0.043098017 -0.015005949 7.3760145e-21)
(-0.047875095 -0.017607885 -5.8151003e-21)
(-0.052870633 -0.020283896 5.6916626e-21)
(-0.058082761 -0.023054347 3.061869e-20)
(-0.063516952 -0.025959202 -1.6630437e-20)
(-0.069188738 -0.029058645 -4.0297789e-21)
(-0.075127625 -0.032438371 2.293418e-20)
(-0.081388573 -0.03621625 -1.2863164e-21)
(-0.088056716 -0.040553632 -2.8077894e-21)
(-0.095245089 -0.045669255 -3.1463145e-20)
(-0.10310626 -0.051845994 -7.3387848e-21)
(-0.11182536 -0.059456862 1.1779051e-20)
(-0.12160207 -0.068980663 1.2140077e-20)
(-0.13261163 -0.081014065 1.7489581e-20)
(-0.14494685 -0.096266496 2.1882472e-20)
(-0.15849297 -0.11548654 1.3442276e-20)
(-0.17277864 -0.13921647 2.0596854e-20)
(-0.1866691 -0.16719109 -6.8636681e-21)
(-0.19845156 -0.19725576 4.2341737e-20)
(-0.2057048 -0.22412425 2.4911257e-21)
(-0.20708642 -0.23820171 1.8151935e-21)
(-0.20212883 -0.22244678 -2.8329569e-22)
(-0.18816601 -0.15783932 -3.9087113e-20)
(-0.15841882 -0.028744354 -9.9846456e-21)
(-0.081858198 0.16018099 9.3971451e-21)
(0.054253096 0.33610128 8.6259593e-21)
(0.23294747 0.41113706 5.7154667e-21)
(0.52203714 0.28477918 3.757955e-21)
(0.84192226 -0.042784059 -3.3321677e-20)
(1.0102987 -0.34912338 7.1401286e-21)
(-3.8752864e-06 2.0083097e-05 6.6525381e-22)
(-1.2732616e-05 5.7824734e-05 2.1139902e-21)
(-2.4293867e-05 9.6768418e-05 -5.1017431e-21)
(-3.9906961e-05 0.00013978704 1.8955506e-22)
(-6.1143036e-05 0.00019013208 2.4831174e-21)
(-8.9914128e-05 0.00025140868 1.0942904e-21)
(-0.00012851837 0.00032757198 8.078028e-22)
(-0.00017967801 0.00042289603 -1.5912737e-21)
(-0.00024661476 0.00054191282 8.2345792e-21)
(-0.00033312255 0.00068931572 -6.21035e-21)
(-0.0004436518 0.00086981738 3.004045e-22)
(-0.00058339796 0.0010879524 3.7536868e-21)
(-0.00075839797 0.0013478139 -1.4029623e-20)
(-0.00097563117 0.0016527135 1.3967058e-20)
(-0.0012431236 0.0020047572 -1.8572122e-21)
(-0.0015700522 0.0024043314 -1.1476104e-20)
(-0.0019668461 0.0028494999 1.0767845e-20)
(-0.0024452787 0.0033353254 -3.7518984e-21)
(-0.0030185448 0.0038531363 7.2679404e-21)
(-0.0037013142 0.0043897875 -9.2909321e-21)
(-0.0045097514 0.0049269791 -1.7361899e-20)
(-0.0054614858 0.0054407274 1.7086896e-20)
(-0.0065755153 0.0059011074 2.4869447e-20)
(-0.0078720134 0.0062723997 -4.7588927e-20)
(-0.0093720026 0.0065137763 3.7817616e-20)
(-0.011096838 0.006580627 -2.1736508e-20)
(-0.01306743 0.0064265754 5.5370557e-21)
(-0.015303121 0.0060061663 -1.2943692e-20)
(-0.017820197 0.0052781994 1.3066209e-20)
(-0.020630212 0.0042097955 1.7401293e-20)
(-0.023738048 0.0027816072 -1.1363638e-20)
(-0.027140711 0.00099470632 -1.852515e-20)
(-0.030828058 -0.0011226187 1.5697172e-21)
(-0.034785631 -0.0035136219 6.1830683e-22)
(-0.038997302 -0.0061048397 1.0831221e-20)
(-0.043448523 -0.008827514 -4.5433031e-21)
(-0.048129391 -0.011636557 -1.5908315e-20)
(-0.053033811 -0.014515562 -7.741356e-21)
(-0.058160361 -0.017473821 1.1562359e-20)
(-0.063515002 -0.020540788 -8.9377944e-21)
(-0.069113458 -0.023765444 7.564463e-21)
(-0.074985454 -0.02722009 -2.4274969e-21)
(-0.081188264 -0.031006249 -9.640355e-21)
(-0.087807725 -0.035269503 2.360068e-20)
(-0.094956485 -0.040214442 1.4082294e-20)
(-0.10278706 -0.046110749 9.4651217e-21)
(-0.1114795 -0.053325074 -3.0326582e-20)
(-0.12121809 -0.062344688 -1.9998094e-20)
(-0.13214242 -0.073796878 -2.3676612e-20)
(-0.14427166 -0.088458206 -4.1660579e-20)
(-0.15734188 -0.10720599 1.4598267e-20)
(-0.17060516 -0.13079972 -3.0881042e-21)
(-0.18246657 -0.15926006 -2.3598202e-20)
(-0.19051497 -0.19069521 -6.6720054e-20)
(-0.19144617 -0.21977626 -4.1039651e-20)
(-0.18313078 -0.23654811 -1.4352323e-20)
(-0.16589531 -0.22446336 -3.5945191e-20)
(-0.13679543 -0.16514938 2.035166e-20)
(-0.092692581 -0.047110844 1.2255601e-21)
(-0.0093968844 0.12466943 -1.268147e-20)
(0.13389086 0.2856872 -6.1670441e-21)
(0.34403219 0.34812005 -6.277163e-22)
(0.65120274 0.21747569 3.1397265e-20)
(0.96328272 -0.080880287 -3.3430118e-21)
(1.0904328 -0.33931004 4.1952874e-21)
(-1.2135795e-05 5.4824398e-05 2.6390744e-21)
(-3.8179498e-05 0.00016553164 -1.780035e-21)
(-6.8554633e-05 0.00028517525 2.4042294e-21)
(-0.00010486073 0.00041730829 1.3663117e-21)
(-0.00014888675 0.00056591839 -3.8119748e-21)
(-0.00020278939 0.00073538309 -3.5578249e-21)
(-0.00026911698 0.00093046527 3.6496793e-21)
(-0.00035084574 0.0011562746 -4.3919143e-22)
(-0.00045144681 0.0014181964 -1.0166491e-22)
(-0.00057495051 0.0017217812 -7.2200346e-21)
(-0.00072601794 0.0020725846 7.9074986e-22)
(-0.00091001398 0.0024759472 1.4539209e-20)
(-0.0011330843 0.0029367022 -1.1614778e-20)
(-0.0014022327 0.0034587995 3.9949265e-22)
(-0.0017253969 0.0040448377 7.7662022e-21)
(-0.0021115207 0.0046954961 6.669395e-22)
(-0.0025706186 0.0054088694 -1.6935604e-21)
(-0.0031138277 0.0061797117 -7.6135937e-21)
(-0.0037534448 0.0069986171 1.3909355e-20)
(-0.0045029405 0.0078511781 -2.4374677e-20)
(-0.0053769453 0.0087171901 5.2328707e-21)
(-0.0063911983 0.0095699961 -3.8292135e-21)
(-0.007562446 0.010376093 3.1239811e-21)
(-0.0089082726 0.011095135 -1.3579146e-22)
(-0.01044683 0.011680487 1.8315323e-20)
(-0.012196424 0.012080422 1.8119765e-20)
(-0.014174885 0.012240066 -3.5612114e-20)
(-0.016398666 0.012104086 -5.8837594e-21)
(-0.018881618 0.011620201 2.0275587e-20)
(-0.021633588 0.010743777 7.1096384e-21)
(-0.024659092 0.0094442853 1.5999966e-20)
(-0.02795659 0.0077141427 -1.7720936e-20)
(-0.031519285 0.0055786657 -7.6000281e-21)
(-0.035337396 0.0031002375 1.7108413e-20)
(-0.039400562 0.00036764584 -6.9200281e-21)
(-0.043699418 -0.0025303236 -3.2971561e-21)
(-0.048226554 -0.0055288801 8.9845999e-21)
(-0.052977834 -0.008595782 2.2919409e-20)
(-0.057952093 -0.011727753 6.8605527e-21)
(-0.063153566 -0.014942785 -4.4817228e-21)
(-0.068596568 -0.018277644 -1.0503882e-20)
(-0.074309014 -0.021788494 -1.0927804e-20)
(-0.080347141 -0.025560174 -1.2219883e-20)
(-0.086792643 -0.029721563 -2.5887577e-20)
(-0.093751539 -0.034460949 6.9071057e-22)
(-0.10136782 -0.040032943 -1.115861e-20)
(-0.10980394 -0.046797389 6.2829197e-20)
(-0.11921085 -0.055251505 1.7581764e-20)
(-0.12966664 -0.066058008 2.0423427e-20)
(-0.14107894 -0.08007316 5.7139721e-20)
(-0.15297724 -0.09832815 -6.7343737e-20)
(-0.16426464 -0.12184261 1.4934019e-20)
(-0.17280589 -0.15099076 4.7151762e-20)
(-0.17538875 -0.18422769 5.5187131e-20)
(-0.16779488 -0.21624417 6.585704e-21)
(-0.14724016 -0.23627289 -1.3619219e-20)
(-0.11533014 -0.22837404 -1.6447175e-20)
(-0.069944716 -0.17448181 4.4419491e-21)
(-0.0096790104 -0.065931402 -2.1580367e-21)
(0.084189705 0.090475355 3.0325621e-21)
(0.23941004 0.23532041 4.5006521e-22)
(0.46794735 0.2854105 4.5093441e-21)
(0.78288608 0.15487808 -3.8244088e-20)
(1.0775908 -0.10818871 8.3455862e-22)
(1.150974 -0.31899601 -1.5958536e-20)
(-2.2281822e-05 8.7872885e-05 -2.4911468e-21)
(-6.9396443e-05 0.00026805196 -6.6728426e-22)
(-0.00012290036 0.00046456581 7.3300297e-22)
(-0.00018460108 0.00068162421 3.6020278e-21)
(-0.00025655683 0.00092390259 -4.3185523e-21)
(-0.00034118883 0.0011965081 3.6655915e-21)
(-0.00044131559 0.0015049676 1.7511045e-21)
(-0.00056018359 0.0018551835 -9.3742581e-23)
(-0.00070152525 0.0022533537 -1.4759638e-21)
(-0.00086961179 0.0027058497 -8.3858872e-21)
(-0.0010693102 0.003219042 1.406231e-20)
(-0.0013061381 0.0037990596 -1.6869668e-20)
(-0.0015863184 0.0044514741 4.9440657e-21)
(-0.0019168294 0.0051808931 6.695233e-21)
(-0.0023054489 0.0059904545 -1.0240073e-20)
(-0.0027607894 0.0068812132 2.0119865e-20)
(-0.0032923214 0.0078514197 -2.4295125e-20)
(-0.003910382 0.0088956983 -3.8234848e-22)
(-0.0046261657 0.010004149 -1.3803078e-20)
(-0.0054516955 0.011161413 5.4499434e-20)
(-0.0063997721 0.012345769 -1.312287e-20)
(-0.0074838973 0.013528359 -5.4006181e-20)
(-0.0087181691 0.014672657 2.5369613e-20)
(-0.010117134 0.015734328 3.0090919e-20)
(-0.011695582 0.016661627 -7.513677e-21)
(-0.013468234 0.017396463 -3.9126275e-20)
(-0.015449289 0.017876228 5.8867683e-20)
(-0.017651741 0.018036438 -6.4864807e-20)
(-0.020086463 0.017814339 5.067955e-20)
(-0.022761132 0.017153864 -9.6146891e-21)
(-0.02567935 0.016012911 1.6343796e-20)
(-0.028840569 0.014373991 2.2954313e-20)
(-0.032241228 0.012257069 -8.7828459e-21)
(-0.035876646 0.0097272517 -2.1607973e-21)
(-0.039742427 0.0068853157 -3.0942173e-20)
(-0.043834626 0.0038390098 5.6979037e-21)
(-0.048149335 0.00067315502 -1.4425833e-20)
(-0.052682957 -0.0025632395 1.2028337e-20)
(-0.057433371 -0.0058523367 -6.7562023e-21)
(-0.062402647 -0.0091997063 -4.4665327e-21)
(-0.06760067 -0.012628557 -3.8868362e-21)
(-0.073052071 -0.016178661 -3.7637418e-21)
(-0.078808371 -0.019915674 2.3244296e-20)
(-0.084940214 -0.023951556 1.8745539e-20)
(-0.09154056 -0.028455316 -5.3840657e-21)
(-0.098733359 -0.033665551 3.575628e-21)
(-0.10664731 -0.03993484 -1.4357481e-20)
(-0.11537574 -0.047771308 2.9912384e-20)
(-0.12489827 -0.057877443 3.5601388e-20)
(-0.13495038 -0.071199921 1.0567164e-20)
(-0.14476315 -0.088941769 2.677954e-20)
(-0.15277701 -0.11241257 -8.1191317e-22)
(-0.15615334 -0.1423873 -1.2349166e-20)
(-0.15065853 -0.1776965 -5.8645289e-20)
(-0.13120605 -0.21301519 2.7371693e-20)
(-0.095162461 -0.23646328 -8.0212193e-21)
(-0.045564588 -0.232533 2.2182687e-20)
(0.015370661 -0.18422691 -2.2157062e-20)
(0.089732655 -0.084140519 1.0296406e-20)
(0.19498966 0.057499249 -1.2202471e-23)
(0.36116616 0.18665638 -3.6912299e-22)
(0.59824816 0.22353881 -2.1474094e-21)
(0.92240495 0.10063354 -1.3223383e-20)
(1.17635 -0.12235067 3.5944578e-20)
(1.1813777 -0.28929434 -2.5259117e-20)
(-3.4026263e-05 0.00011848653 5.5948348e-21)
(-0.00010558535 0.00036308105 3.8490769e-21)
(-0.0001859071 0.00063093336 -6.0416992e-21)
(-0.00027705488 0.00092684722 1.5905629e-22)
(-0.00038136537 0.00125613 5.4611202e-21)
(-0.00050154235 0.0016245586 2.8551689e-21)
(-0.00064069044 0.0020383639 -6.0158672e-21)
(-0.00080233841 0.0025041818 9.8777466e-22)
(-0.00099048756 0.003028967 -1.3920608e-20)
(-0.0012096514 0.0036198624 2.7120667e-21)
(-0.0014648967 0.0042840126 6.9573217e-23)
(-0.0017618777 0.0050283097 -9.9674667e-21)
(-0.0021068661 0.0058590578 3.1921283e-20)
(-0.0025067714 0.0067815432 -1.4863735e-20)
(-0.0029691503 0.0077994996 -2.6610743e-20)
(-0.0035022013 0.0089144581 2.8330275e-20)
(-0.0041147441 0.010124981 -3.486058e-21)
(-0.0048161793 0.011425786 1.9763725e-20)
(-0.0056164306 0.012806777 1.4657951e-20)
(-0.0065258683 0.014252033 -4.6020202e-20)
(-0.0075552171 0.015738806 3.4478515e-20)
(-0.0087154519 0.017236626 -4.5281304e-20)
(-0.010017685 0.018706641 5.3020987e-21)
(-0.01147304 0.020101322 -2.1618845e-20)
(-0.013092509 0.021364699 4.6820528e-20)
(-0.014886753 0.022433265 -1.1058163e-20)
(-0.016865816 0.023237644 -2.7806116e-20)
(-0.01903868 0.023705143 6.6857332e-20)
(-0.021412658 0.023763337 -2.8861601e-20)
(-0.023992694 0.023345206 -3.0896637e-20)
(-0.026780943 0.022396937 2.5294241e-20)
(-0.029777193 0.020889832 3.3717823e-21)
(-0.032980481 0.018835717 -1.6483101e-20)
(-0.036390989 0.016298338 8.9099973e-21)
(-0.04001046 0.013386751 -1.3307778e-20)
(-0.043840566 0.010225539 4.5410872e-20)
(-0.047880918 0.0069196615 -2.3237945e-20)
(-0.052128534 0.003536772 -1.3618507e-20)
(-0.056579248 0.00010996094 -2.7560967e-20)
(-0.06123134 -0.0033524032 -3.7937311e-21)
(-0.066089082 -0.0068589444 2.8801861e-20)
(-0.071169957 -0.010432896 -1.1735561e-20)
(-0.076514524 -0.014118818 -1.7396895e-20)
(-0.082176076 -0.018009492 -2.5915664e-21)
(-0.088226036 -0.022254354 1.7801977e-20)
(-0.094753536 -0.027074483 1.6048591e-20)
(-0.10182984 -0.032814904 -4.9576117e-20)
(-0.10945523 -0.039993978 -2.6639469e-20)
(-0.11745121 -0.049360945 -5.8698948e-20)
(-0.12527705 -0.061959005 -2.0861681e-20)
(-0.13171433 -0.079170326 -8.2682114e-21)
(-0.13451747 -0.10260603 -6.043616e-20)
(-0.12973142 -0.13344752 -2.2362591e-20)
(-0.11150856 -0.17078518 7.2982623e-20)
(-0.073630489 -0.20883325 -5.2210457e-20)
(-0.015553094 -0.23507353 4.0349134e-20)
(0.056289404 -0.23284934 -1.2359889e-20)
(0.13161591 -0.18888355 3.5208686e-20)
(0.21551234 -0.097752033 7.2815039e-21)
(0.32743565 0.028892536 8.3173228e-22)
(0.4984501 0.14246696 -6.039037e-22)
(0.74478264 0.1670042 -1.1181682e-20)
(1.0711823 0.05865414 -1.6264305e-21)
(1.238981 -0.12399198 -5.130334e-21)
(1.1959286 -0.24957213 3.21124e-20)
(-4.7023213e-05 0.00014596519 1.0201654e-22)
(-0.00014566007 0.00044845292 -7.2613748e-21)
(-0.00025569863 0.00078049108 8.5588606e-21)
(-0.00037947446 0.0011474073 4.1180118e-21)
(-0.00051961329 0.001555068 -8.2455898e-21)
(-0.00067911337 0.0020098448 -2.6698976e-21)
(-0.00086137411 0.0025185962 1.2943605e-20)
(-0.0010702132 0.0030886167 -1.3921734e-20)
(-0.0013099037 0.0037275462 -2.9351382e-21)
(-0.0015852 0.0044432342 -1.1666856e-20)
(-0.0019013609 0.0052435464 3.0951217e-20)
(-0.002264163 0.0061361009 3.7654946e-22)
(-0.0026799038 0.0071279211 -2.772449e-20)
(-0.0031553905 0.0082249904 2.9711049e-20)
(-0.0036979123 0.0094316975 -2.1225772e-20)
(-0.0043151935 0.010750161 -7.8528885e-21)
(-0.0050153248 0.012179432 1.6361494e-20)
(-0.0058066729 0.013714573 -1.4719134e-20)
(-0.0066977697 0.01534564 -1.9536018e-20)
(-0.0076971846 0.017056601 4.1038996e-22)
(-0.0088133874 0.018824244 3.0561516e-20)
(-0.010054611 0.02061718 -1.8825347e-20)
(-0.011428726 0.022395048 1.0446839e-20)
(-0.012943131 0.024108064 5.0255969e-20)
(-0.014604664 0.025697083 1.6749767e-20)
(-0.016419514 0.027094304 -4.5250266e-20)
(-0.018393094 0.028224761 4.5079492e-21)
(-0.020529841 0.029008698 -5.0688236e-20)
(-0.022832897 0.029365045 2.98681e-20)
(-0.025303799 0.029216545 -1.5739624e-20)
(-0.027942489 0.028497753 2.2715398e-20)
(-0.030748252 0.027167688 5.5218859e-21)
(-0.033721807 0.025227179 -2.7312297e-20)
(-0.03686743 0.022734054 2.7723382e-20)
(-0.040192671 0.019800816 4.0027418e-20)
(-0.043704931 0.016565772 -3.6490781e-21)
(-0.047407432 0.013153447 -4.1094736e-20)
(-0.051297611 0.0096511271 5.1512388e-20)
(-0.055368471 0.006108786 -1.0911013e-20)
(-0.059612682 0.0025498629 2.32458e-20)
(-0.064026109 -0.0010186527 -3.6363885e-21)
(-0.068615252 -0.004601592 3.6640724e-20)