/*--------------------------------*- C++ -*----------------------------------*\
  =========                 |
  \\      /  F ield         | OpenFOAM: The Open Source CFD Toolbox
   \\    /   O peration     | Website:  https://openfoam.org
    \\  /    A nd           | Version:  13
     \\/     M anipulation  |
\*---------------------------------------------------------------------------*/
FoamFile
{
    format      ascii;
    class       volSymmTensorField;
    location    "21.599467";
    object      UPrime2Mean;
}
// * * * * * * * * * * * * * * * * * * * * * * * * * * * * * * * * * * * * * //

dimensions      [0 2 -2 0 0 0 0];

internalField   nonuniform List<symmTensor> 
17140
(
(4.5263428e-12 -3.2264268e-10 -1.9460442e-27 2.4416003e-08 3.8201919e-26 9.9170016e-41)
(2.1249122e-10 -2.0809765e-09 -9.8429609e-28 2.3316646e-07 8.9406512e-27 8.8110949e-43)
(1.9830113e-09 -3.5703127e-09 1.6637053e-25 7.0952264e-07 -9.6947316e-25 3.8411486e-39)
(9.7164269e-09 -6.5377511e-10 -3.6335198e-25 1.5310097e-06 1.517916e-24 4.6422414e-39)
(3.3381124e-08 1.3327943e-08 7.3852198e-26 2.7911268e-06 -2.3567981e-25 6.3443723e-41)
(9.3167582e-08 4.9296374e-08 -3.8751468e-25 4.6015016e-06 9.8244771e-25 6.7956559e-40)
(2.2688402e-07 1.2437955e-07 -9.9208992e-25 7.0939288e-06 2.0463898e-24 1.9261585e-39)
(5.0154139e-07 2.6467235e-07 7.0919224e-25 1.0422117e-05 -1.2097661e-24 4.5909351e-40)
(1.0311936e-06 5.0910955e-07 3.3046412e-24 1.4762816e-05 -4.7154321e-24 4.9186104e-39)
(2.0037366e-06 9.1475737e-07 1.1286534e-23 2.0315931e-05 -1.3592484e-23 2.9591e-38)
(3.7202064e-06 1.5639124e-06 -2.2895576e-23 2.7303084e-05 2.3433711e-23 6.5067943e-38)
(6.6510582e-06 2.5734342e-06 2.7514833e-23 3.5963949e-05 -2.4060543e-23 5.1678264e-38)
(1.1514744e-05 4.106698e-06 5.6118643e-24 4.6549583e-05 -4.2096345e-24 1.2107107e-39)
(1.9384353e-05 6.3884028e-06 -4.1842315e-23 5.931188e-05 2.7034756e-23 3.87272e-38)
(3.1827789e-05 9.7220784e-06 6.0718238e-24 7.4488282e-05 -3.3863408e-24 4.7739966e-40)
(5.108542e-05 1.4509446e-05 -6.2351806e-23 9.228103e-05 3.0088706e-23 2.9954587e-38)
(8.0285583e-05 2.1269618e-05 2.9842289e-24 0.00011283056 -1.2492339e-24 4.1486946e-41)
(0.00012369291 3.0654394e-05 -8.5744813e-25 0.00013618337 3.093464e-25 2.0771818e-42)
(0.00018697662 4.34537e-05 -7.6919932e-23 0.00016225561 2.4224182e-23 1.0448052e-38)
(0.0002774793 6.0582858e-05 1.2557203e-22 0.00019079495 -3.4364825e-23 1.7517925e-38)
(0.00040446349 8.3041759e-05 -7.5567735e-23 0.00022134538 1.7966789e-23 4.0453182e-39)
(0.00057932024 0.000111837 1.7844887e-23 0.00025322173 -3.6951494e-24 1.4642185e-40)
(0.00081574724 0.00014786421 1.6152132e-22 0.00028550468 -2.9026116e-23 7.8812935e-39)
(0.0011299719 0.00019176209 -1.9582839e-22 0.00031707174 3.0575993e-23 7.7518673e-39)
(0.0015412568 0.00024377426 -3.7531523e-22 0.00034668623 5.0906243e-23 1.9406426e-38)
(0.0020723538 0.0003036858 3.5947762e-22 0.00037316904 -4.237189e-23 1.2370805e-38)
(0.0027497859 0.00037099468 2.0857142e-21 0.00039566028 -2.1335235e-22 2.945724e-37)
(0.0036075062 0.0004450324 2.878457e-22 0.00041389623 -2.5514345e-23 4.0388368e-39)
(0.004688226 0.00052526342 -2.930728e-21 0.00042833026 2.258751e-22 3.0801346e-37)
(0.0060424837 0.00061255173 -7.9032503e-22 0.00044000334 5.2826952e-23 1.6703716e-38)
(0.0077328494 0.00070778641 -3.2297633e-21 0.00045013027 1.8747791e-22 2.1161342e-37)
(0.0098350969 0.00081109 4.8403807e-21 0.00045943989 -2.4397606e-22 3.6574486e-37)
(0.012440178 0.00092302227 -1.4298036e-21 0.00046804932 6.2393375e-23 2.4829494e-38)
(0.015655998 0.001043767 -7.6999456e-22 0.00047564055 2.9110939e-23 5.6817749e-39)
(0.019609165 0.0011732325 -8.5068939e-21 0.0004816684 2.7642825e-22 5.5139023e-37)
(0.024446084 0.0013110262 4.1718192e-21 0.00048552749 -1.1640933e-22 1.0682864e-37)
(0.030332447 0.0014565349 -7.0019939e-21 0.00048666738 1.6606795e-22 2.4425795e-37)
(0.037449799 0.0016089921 -5.2503077e-21 0.00048465044 1.0503256e-22 1.1267727e-37)
(0.045987309 0.0017674997 -2.6502066e-21 0.00047925289 4.4155576e-23 2.3779421e-38)
(0.05612632 0.0019314493 8.7945461e-21 0.00047068244 -1.2064588e-22 2.1959011e-37)
(0.068015452 0.0021007071 1.8078746e-20 0.00045985838 -1.9932019e-22 7.8475471e-37)
(0.08173714 0.0022758056 1.7749946e-20 0.00044845217 -1.5290024e-22 6.4685412e-37)
(0.097270649 0.0024564003 8.3265669e-21 0.000438446 -5.3716937e-23 1.2311911e-37)
(0.11446684 0.002639318 -4.3291912e-20 0.00043134894 1.9306063e-22 2.9046069e-36)
(0.13305132 0.0028159016 -3.3549647e-20 0.00042764827 8.9427195e-23 1.5429185e-36)
(0.15264199 0.0029691911 8.6682699e-21 0.00042673598 -8.8851369e-24 9.2347503e-38)
(0.17286622 0.0030797974 -6.1485906e-20 0.00042763617 -3.126195e-23 4.2199414e-36)
(0.19346468 0.0031357645 -2.161388e-20 0.00043007828 -4.2285962e-23 4.8033426e-37)
(0.21417827 0.0031327461 2.260411e-20 0.00043492127 7.5638173e-23 4.9126357e-37)
(0.23511107 0.0030802266 5.6335049e-20 0.00044220718 2.6378777e-22 2.8967083e-36)
(0.25622497 0.0029997299 -3.5024287e-20 0.00045201712 -2.0908104e-22 1.0799934e-36)
(0.27735616 0.0029278842 -2.2138356e-20 0.00046553479 -1.5993472e-22 4.2293878e-37)
(0.29803033 0.0029168681 5.7301791e-20 0.00048332545 4.8846708e-22 2.8252648e-36)
(0.3178058 0.0030119174 2.6641487e-20 0.00050277902 2.6332962e-22 6.1995119e-37)
(0.33600626 0.0032285208 1.8492604e-20 0.00052035578 2.0935433e-22 3.0948541e-37)
(0.35218336 0.0035657243 -1.4029777e-20 0.00053427809 -1.7996548e-22 1.8790653e-37)
(0.36568874 0.0040101094 3.602451e-20 0.0005411738 5.194069e-22 1.3462762e-36)
(0.3752379 0.0045218012 2.833276e-20 0.00053874364 4.5518754e-22 9.2570697e-37)
(0.3788758 0.0050289517 6.5764986e-21 0.00052855118 1.1678028e-22 5.7345438e-38)
(0.37406147 0.0054702123 -1.5508417e-20 0.00051794861 -3.0071237e-22 3.7692326e-37)
(0.35788713 0.0058816657 -1.0831249e-20 0.00052917485 -2.2981092e-22 2.2901578e-37)
(0.32894004 0.0063480707 -3.5027744e-20 0.00058671723 -8.1629612e-22 3.1164024e-36)
(0.28562838 0.0067325367 -4.3621852e-21 0.00070193424 -1.1220603e-22 6.6783512e-38)
(0.2332075 0.006746461 3.0375585e-20 0.0008503078 8.5339745e-22 4.7165028e-36)
(0.17040833 0.0058639843 -1.8478435e-20 0.00084330894 -5.7626409e-22 2.8187581e-36)
(1.3174651e-10 -3.0882169e-09 2.6044585e-27 7.2458307e-08 -5.2940673e-26 8.0311268e-42)
(2.1078409e-09 -3.7402382e-08 -9.0948507e-25 6.8443274e-07 1.4691408e-23 1.0572606e-37)
(9.6425588e-09 -1.3615794e-07 1.5859709e-24 2.0633161e-06 -2.1087742e-23 8.3723605e-38)
(3.0725877e-08 -3.4778454e-07 -7.2809462e-25 4.4066644e-06 8.0870495e-24 6.2223378e-39)
(8.0321807e-08 -7.4004061e-07 -2.3392558e-24 7.941579e-06 2.2025942e-23 2.6553326e-38)
(1.8564937e-07 -1.4092709e-06 6.6179471e-24 1.2923704e-05 -5.3401965e-23 9.6950084e-38)
(3.940472e-07 -2.4885458e-06 -9.87459e-24 1.9633987e-05 6.8767451e-23 1.0534866e-37)
(7.8504434e-07 -4.1573368e-06 1.2134341e-24 2.8372171e-05 -7.3284674e-24 8.1598165e-40)
(1.4886504e-06 -6.6525334e-06 -5.1893907e-24 3.9445798e-05 2.7277764e-23 7.9531562e-39)
(2.7124236e-06 -1.0279768e-05 -1.1856584e-25 5.3153672e-05 5.4373196e-25 2.2720739e-42)
(4.7806972e-06 -1.5423593e-05 -3.1150886e-23 6.9762874e-05 1.2501328e-22 8.8639009e-38)
(8.1902108e-06 -2.2554248e-05 6.528393e-23 8.9478757e-05 -2.2959474e-22 2.2374758e-37)
(1.3687171e-05 -3.222773e-05 7.0501996e-24 0.00011240848 -2.1759185e-23 1.5257524e-39)
(2.2371206e-05 -4.5074721e-05 -9.0281748e-23 0.00013851994 2.4480482e-22 1.4852155e-37)
(3.583138e-05 -6.1773119e-05 3.5722638e-23 0.0001676004 -8.5173466e-23 1.3990667e-38)
(5.6318087e-05 -8.2999076e-05 2.9040243e-23 0.00019922167 -6.0914749e-23 5.6297814e-39)
(8.6951336e-05 -0.00010935301 -2.3437808e-22 0.0002327218 4.3261229e-22 2.2580856e-37)
(0.00013196104 -0.0001412621 9.6527921e-22 0.0002672151 -1.5679348e-21 2.3855805e-36)
(0.00019694789 -0.00017886905 -7.5923487e-22 0.00030164202 1.0850644e-21 9.2955694e-37)
(0.00028914722 -0.00022193046 1.1351774e-21 0.00033486521 -1.4268173e-21 1.3240531e-36)
(0.00041767566 -0.00026976341 -2.0779735e-21 0.00036580707 2.2958889e-21 2.862987e-36)
(0.00059374721 -0.00032129178 6.2653593e-22 0.00039360701 -6.0812898e-22 1.702532e-37)
(0.00083086563 -0.00037524142 3.1493461e-22 0.00041775859 -2.6837034e-22 2.8562664e-38)
(0.0011450634 -0.00043051088 -1.2459026e-21 0.00043817845 9.313544e-22 3.0130771e-37)
(0.0015554137 -0.0004866928 5.3739515e-21 0.00045517707 -3.5228609e-21 3.8465733e-36)
(0.0020845548 -0.00054449259 9.5390427e-22 0.00046935233 -5.4800035e-22 8.4519756e-38)
(0.0027588169 -0.00060566261 -5.8237281e-21 0.00048143855 2.9340266e-21 2.2438484e-36)
(0.0036118871 -0.00067296314 7.6355298e-21 0.00049204221 -3.373114e-21 2.7926006e-36)
(0.0046862536 -0.00074948766 -1.2168813e-21 0.00050184527 4.7195739e-22 5.2420523e-38)
(0.0060320056 -0.00083681208 -1.3742681e-20 0.00051220319 4.6755705e-21 4.9932336e-36)
(0.0077112119 -0.00093642188 1.6310458e-21 0.00052421485 -4.8737249e-22 5.3576223e-38)
(0.0097989983 -0.0010503475 1.4246966e-20 0.00053811279 -3.7345276e-21 3.1435874e-36)
(0.012385481 -0.0011799669 4.0956627e-22 0.00055351146 -9.3778109e-23 1.9960888e-39)
(0.01557752 -0.0013267202 -1.3588374e-20 0.00056966018 2.7379701e-21 1.7609357e-36)
(0.019500388 -0.0014918388 1.7034576e-20 0.00058566346 -3.0041359e-21 2.2079779e-36)
(0.02429862 -0.0016759653 -8.5839913e-21 0.00060063356 1.3226175e-21 4.5147973e-37)
(0.030135262 -0.001878381 1.1240898e-20 0.00061378153 -1.5116421e-21 6.3131779e-37)
(0.037188067 -0.002095834 3.9645403e-20 0.00062447765 -4.6403196e-21 6.4467026e-36)
(0.045640772 -0.0023210762 9.7999106e-21 0.00063242705 -9.9584208e-22 3.2645716e-37)
(0.055666947 -0.002540982 4.1997345e-20 0.00063801241 -3.6950358e-21 5.0301813e-36)
(0.067404706 -0.0027350812 -5.8614073e-20 0.00064278533 4.4456009e-21 8.3079108e-36)
(0.080923262 -0.002876266 -5.8470671e-20 0.00064978881 3.7981071e-21 7.0687e-36)
(0.096186426 -0.0029354979 -1.0790165e-20 0.00066356254 5.9526038e-22 2.0747749e-37)
(0.11302861 -0.0028904926 9.1968751e-20 0.00068984736 -4.2608513e-21 1.3261351e-35)
(0.13115512 -0.002735974 -4.6209199e-20 0.00073491194 1.7678429e-21 2.9585313e-36)
(0.15016889 -0.002494266 -1.6868417e-20 0.00080414671 5.208247e-22 3.5344995e-37)
(0.16966166 -0.0022158453 9.4114622e-21 0.00090017101 -2.2639883e-22 1.0068875e-37)
(0.18933961 -0.0019602339 3.0437496e-20 0.0010192893 -5.3912588e-22 9.6981085e-37)
(0.2090678 -0.0017823432 -1.5283923e-20 0.0011469018 1.8150866e-22 2.2933826e-37)
(0.22881681 -0.00169104 2.8209898e-20 0.0012642799 -1.8073746e-22 7.4356942e-37)
(0.24853702 -0.0016301343 1.7138942e-19 0.0013570973 -2.2203067e-22 2.6568023e-35)
(0.26801959 -0.0015163308 8.186516e-21 0.0014210844 2.9875244e-23 5.9746104e-38)
(0.28684978 -0.0012813371 -3.6589086e-20 0.0014630134 -3.04461e-22 1.1942659e-36)
(0.30456117 -0.00088493344 7.9943906e-20 0.0014884309 1.0468884e-21 5.8197423e-36)
(0.32070707 -0.00032518282 -6.6351007e-20 0.001501159 -1.1935597e-21 4.1757445e-36)
(0.33489514 0.00040166471 1.8097404e-19 0.0015004106 4.1677713e-21 3.3081652e-35)
(0.34649893 0.0013528479 4.9040843e-20 0.0014773257 1.3939309e-21 2.6496673e-36)
(0.35441557 0.0025826316 -1.2930053e-19 0.0014241267 -4.4211463e-21 2.069853e-35)
(0.35676397 0.0041298831 2.030235e-20 0.0013355435 8.2599096e-22 5.8897472e-37)
(0.35104174 0.005989708 2.0962593e-20 0.0012122185 1.0024952e-21 7.5870631e-37)
(0.33436189 0.0081474072 3.7266731e-21 0.00106902 2.0892226e-22 3.0299084e-38)
(0.30554349 0.010499088 -4.2980409e-20 0.00097564465 -2.8252122e-21 5.3232852e-36)
(0.262979 0.01253492 7.0272559e-20 0.0010049253 5.410531e-21 2.0176663e-35)
(0.21232125 0.013899557 1.7173626e-20 0.0012354228 1.5507634e-21 1.8081722e-36)
(0.15164045 0.012813382 2.1904665e-20 0.001399178 2.3520872e-21 4.9942112e-36)
(1.1548255e-09 -1.647781e-08 3.8434596e-25 2.3512726e-07 -5.2153798e-24 2.4410471e-38)
(1.3287409e-08 -1.7160977e-07 -6.3641601e-25 2.2194912e-06 7.902881e-24 9.6583228e-39)
(4.768264e-08 -5.6353076e-07 -2.9671696e-25 6.6867099e-06 3.380937e-24 6.83153e-40)
(1.2230372e-07 -1.3160343e-06 4.3126044e-25 1.4271608e-05 -4.5016532e-24 6.1421908e-40)
(2.6555226e-07 -2.5962909e-06 -3.0046308e-24 2.5701562e-05 2.8733726e-23 1.4424168e-38)
(5.2289719e-07 -4.6332086e-06 -3.0949988e-25 4.1791655e-05 2.7106125e-24 7.9745383e-41)
(9.6577053e-07 -7.7343034e-06 -5.3402457e-24 6.3431965e-05 4.2774461e-23 1.302163e-38)
(1.7046707e-06 -1.2305716e-05 -7.6344994e-24 9.1563182e-05 5.5820157e-23 1.5116934e-38)
(2.9083589e-06 -1.8875309e-05 8.1696723e-23 0.0001271365 -5.4411414e-22 1.0098378e-36)
(4.8313914e-06 -2.8117102e-05 -9.4553132e-23 0.00017105395 5.7240411e-22 8.0503483e-37)
(7.8529818e-06 -4.0874674e-05 5.8193035e-23 0.00022408584 -3.1954184e-22 1.8435288e-37)
(1.2530916e-05 -5.817973e-05 1.0897283e-22 0.00028676317 -5.4165059e-22 3.9572645e-37)
(1.9674881e-05 -8.1260117e-05 -2.7472272e-22 0.00035924668 1.2336264e-21 1.5556699e-36)
(3.0443952e-05 -0.00011152959 -4.3044024e-23 0.00044117907 1.7427869e-22 2.3822113e-38)
(4.6472712e-05 -0.00015054965 2.094722e-22 0.00053153506 -7.6328284e-22 3.5480786e-37)
(7.0029418e-05 -0.00019995373 1.8082686e-22 0.00062849469 -5.9185579e-22 1.6741165e-37)
(0.00010420703 -0.00026132605 -2.6229722e-22 0.00072937629 7.6968635e-22 2.2459736e-37)
(0.0001531439 -0.00033603462 1.182973e-21 0.00083067571 -3.1061478e-21 2.9334008e-36)
(0.00022226557 -0.00042503203 -8.6727155e-22 0.00092825983 2.0337058e-21 1.020301e-36)
(0.0003185342 -0.00052865929 5.2946479e-22 0.0010177491 -1.1065897e-21 2.4809078e-37)
(0.00045069056 -0.00064651576 -2.1917989e-21 0.0010950873 4.0750645e-21 2.8018824e-36)
(0.00062948029 -0.00077748278 -6.9563652e-22 0.0011572314 1.1483075e-21 1.8802234e-37)
(0.00086787206 -0.00091999114 1.7586638e-21 0.0012028209 -2.572912e-21 8.1089453e-37)
(0.0011813242 -0.0010725906 -3.184077e-21 0.0012326138 4.1214311e-21 1.8182065e-36)
(0.0015883031 -0.0012348123 -1.496953e-21 0.0012494852 1.711682e-21 2.7894715e-37)
(0.0021109524 -0.0014079732 2.1278715e-21 0.0012579063 -2.147707e-21 3.9865953e-37)
(0.0027749337 -0.0015951276 1.4199445e-20 0.0012629171 -1.2636474e-20 1.2737737e-35)
(0.0036130096 -0.0018011813 7.4917543e-21 0.0012684402 -5.8760996e-21 2.5879438e-36)
(0.0046667715 -0.0020318703 -4.3237259e-21 0.0012769271 2.9898324e-21 6.4134534e-37)
(0.0059849245 -0.0022912448 5.329117e-21 0.0012908287 -3.2457398e-21 7.3207096e-37)
(0.0076277595 -0.0025831126 -3.8049525e-21 0.0013116197 2.0426415e-21 2.865855e-37)
(0.0096681739 -0.0029116543 -2.4549759e-20 0.0013391279 1.1597421e-20 9.2131556e-36)
(0.012193464 -0.0032801472 9.3125225e-21 0.0013722986 -3.8700883e-21 1.0391102e-36)
(0.015306931 -0.0036915821 3.1374647e-20 0.0014096586 -1.1458487e-20 9.3386472e-36)
(0.01912929 -0.0041482145 -1.1750499e-20 0.0014495479 3.7694026e-21 1.0515824e-36)
(0.023799073 -0.0046507201 -1.8432088e-20 0.00149018 5.1836464e-21 2.0877755e-36)
(0.029471251 -0.0051967131 3.5602607e-20 0.0015295976 -8.7693059e-21 6.3573563e-36)
(0.036312598 -0.0057785342 1.2068164e-20 0.0015656939 -2.5991126e-21 6.0100583e-37)
(0.044491942 -0.0063803245 -2.3687149e-20 0.0015964372 4.4557432e-21 1.9319927e-36)
(0.054162873 -0.0069747763 -1.0433719e-20 0.0016205687 1.7096959e-21 3.1546466e-37)
(0.065437653 -0.0075205835 5.4855502e-20 0.0016387245 -7.7990568e-21 7.3927343e-36)
(0.078353822 -0.0079640442 -1.6854471e-20 0.0016552061 2.0684912e-21 6.0183332e-37)
(0.092839156 -0.0082472451 -2.6382726e-20 0.0016798899 2.7787126e-21 1.2760019e-36)
(0.10868955 -0.0083233305 -7.5626563e-20 0.0017296965 6.7670743e-21 9.1848936e-36)
(0.1255698 -0.0081754603 1.5311155e-19 0.0018278363 -1.147667e-20 3.34887e-35)
(0.14305368 -0.0078375161 -1.0475836e-19 0.001999254 6.4537272e-21 1.4114491e-35)
(0.16073853 -0.0074036674 -2.7731222e-20 0.002260057 1.3706568e-21 9.0088459e-37)
(0.17834849 -0.0069924717 -1.1388754e-19 0.0026005606 4.3274994e-21 1.4143526e-35)
(0.19576276 -0.0066924702 -1.4057755e-19 0.0029755785 3.8749474e-21 2.0320132e-35)
(0.21296633 -0.0065228574 -7.2966039e-21 0.0033234743 1.343614e-22 5.2200663e-38)
(0.22994209 -0.0064065694 3.1184256e-20 0.0035949185 -2.7846994e-22 9.3182974e-37)
(0.2465015 -0.0062160949 -2.2925628e-19 0.0037775742 -7.9577392e-24 5.0076407e-35)
(0.26227118 -0.0058551533 -9.6784746e-20 0.0038957774 -8.1574354e-22 9.0177522e-36)
(0.27682799 -0.0052940075 -9.7440918e-20 0.0039792374 -1.6400685e-21 9.4162531e-36)
(0.2898427 -0.0045466069 -3.1004722e-20 0.0040433312 -7.9469297e-22 1.0035948e-36)
(0.30098057 -0.0035950678 -2.2932465e-19 0.0040815665 -7.8979375e-21 5.9179095e-35)
(0.30972884 -0.0023249455 8.6061295e-20 0.0040650966 3.8083776e-21 9.2095186e-36)
(0.31506152 -0.00057705782 -2.4316029e-20 0.0039662399 -1.3314224e-21 8.4181668e-37)
(0.31512014 0.0018144781 -1.8312145e-19 0.0037567692 -1.2242894e-20 5.6040025e-35)
(0.30760065 0.0048909613 -6.5430633e-20 0.0034267721 -5.2892565e-21 8.7829223e-36)
(0.28969116 0.0085737719 6.8297935e-20 0.0029846119 6.6406052e-21 1.2392637e-35)
(0.26065444 0.012604514 2.0070093e-19 0.0025824807 2.3458595e-20 1.4629622e-34)
(0.21898811 0.016031261 -5.2697044e-20 0.0023651391 -7.415235e-21 1.4921774e-35)
(0.17187113 0.018538369 -6.7576568e-20 0.0026150838 -1.1540954e-20 3.8772485e-35)
(0.11644266 0.017053762 -2.1408319e-20 0.0028506024 -4.5160867e-21 7.11332e-36)
(4.7516934e-09 -4.8293946e-08 -2.5198953e-24 4.9084067e-07 2.4970088e-23 2.737632e-37)
(4.9203546e-08 -4.7759476e-07 8.5604879e-24 4.6365555e-06 -8.125911e-23 5.020935e-37)
(1.6165836e-07 -1.5027993e-06 -5.1926712e-24 1.3977452e-05 4.7152865e-23 6.5648031e-38)
(3.7922867e-07 -3.362894e-06 8.2948367e-25 2.9853756e-05 -7.1872849e-24 7.7590434e-40)
(7.5501242e-07 -6.3677409e-06 -2.2661451e-23 5.3807065e-05 1.8702347e-22 3.0328436e-37)
(1.3663648e-06 -1.0922716e-05 3.1282534e-23 8.7573236e-05 -2.4538788e-22 3.2473635e-37)
(2.3250877e-06 -1.7551793e-05 -6.1856894e-23 0.00013305945 4.599373e-22 7.4737935e-37)
(3.7917066e-06 -2.6924187e-05 3.7319547e-23 0.00019229731 -2.6220784e-22 1.6549159e-37)
(5.9955424e-06 -3.9884489e-05 1.7982884e-22 0.00026736346 -1.1899055e-21 2.3929102e-36)
(9.2623639e-06 -5.7483868e-05 -5.4329168e-23 0.00036025885 3.3738486e-22 1.3840368e-37)
(1.4052081e-05 -8.100928e-05 -2.5838273e-22 0.000472739 1.5006135e-21 2.0084357e-36)
(2.1009448e-05 -0.00011200568 9.8035693e-23 0.00060608922 -5.3060269e-22 1.8727453e-37)
(3.1031281e-05 -0.00015228414 8.1117499e-24 0.00076084567 -4.0771178e-23 8.3711418e-40)
(4.5353856e-05 -0.00020390596 -3.9247983e-22 0.00093647335 1.8253953e-21 1.2832619e-36)
(6.5664196e-05 -0.00026913115 1.5133092e-21 0.0011310283 -6.4900355e-21 1.2562076e-35)
(9.4237943e-05 -0.00035031866 -1.1427511e-21 0.0013408547 4.503189e-21 4.7339433e-36)
(0.00013410523 -0.00044976943 -1.3369285e-23 0.0015603907 4.8237722e-23 4.2953205e-40)
(0.00018924284 -0.00056951081 9.5055289e-22 0.0017821853 -3.1293443e-21 1.4460749e-36)
(0.00026478806 -0.00071104013 -2.9496626e-21 0.0019972377 8.8290625e-21 9.311219e-36)
(0.00036726616 -0.00087506992 1.6959789e-21 0.0021957499 -4.5995642e-21 2.0698719e-36)
(0.00050482405 -0.0010613564 3.0702635e-21 0.0023683218 -7.5185426e-21 4.5919042e-36)
(0.00068746775 -0.0012687227 1.5026819e-21 0.002507484 -3.3115164e-21 7.5057168e-37)
(0.00092731422 -0.0014953965 -8.9360618e-21 0.0026092892 1.7666471e-20 1.8308148e-35)
(0.0012388963 -0.0017397416 -5.5831281e-21 0.0026745179 9.8721649e-21 4.9841696e-36)
(0.001639686 -0.0020013873 4.2843732e-21 0.0027089788 -6.75831e-21 2.076231e-36)
(0.0021509293 -0.0022824319 -2.9505226e-21 0.0027225836 4.1415401e-21 7.0514591e-37)
(0.002797247 -0.0025873531 1.2950419e-20 0.0027272131 -1.6149372e-20 9.8960592e-36)
(0.0036098464 -0.0029233436 -4.3301406e-21 0.0027330185 4.7896942e-21 8.1739457e-37)
(0.0046286547 -0.0032987458 1.3493577e-20 0.0027457871 -1.322652e-20 5.9558791e-36)
(0.0059002323 -0.0037201115 -8.7657998e-21 0.0027698988 7.6069692e-21 1.912619e-36)
(0.0074818457 -0.0041935083 6.2038596e-21 0.0028080259 -4.7604529e-21 7.3737531e-37)
(0.009442674 -0.0047251645 -2.5880212e-20 0.0028598359 1.7548007e-20 1.0019261e-35)
(0.011865338 -0.0053201256 4.2076162e-21 0.0029234592 -2.5185378e-21 2.0922293e-37)
(0.014847203 -0.0059827022 -2.5052055e-20 0.0029963868 1.3219245e-20 5.9014626e-36)
(0.018501364 -0.0067158402 2.6935399e-20 0.0030757018 -1.2520378e-20 5.4953358e-36)
(0.022956449 -0.0075197811 9.6563307e-21 0.0031579699 -3.9483842e-21 5.7193844e-37)
(0.028354353 -0.0083898747 -1.3399206e-19 0.0032390081 4.8173815e-20 9.0719851e-35)
(0.034844483 -0.0093133369 -3.8796464e-20 0.0033137759 1.2243664e-20 6.2934726e-36)
(0.042572697 -0.010265028 3.5486893e-20 0.0033766983 -9.8149065e-21 4.4087791e-36)
(0.051662736 -0.01120289 -3.8293847e-20 0.0034228566 9.259903e-21 4.3354984e-36)
(0.062189779 -0.012064979 1.0774889e-20 0.0034504369 -2.269257e-21 2.9198233e-37)
(0.074148523 -0.012772224 7.319756e-20 0.0034649442 -1.3383067e-20 1.1644585e-35)
(0.087421595 -0.013240646 -3.6627893e-21 0.0034847355 5.7811444e-22 2.551726e-38)
(0.10176196 -0.013403691 -2.8456262e-20 0.0035454252 3.8309568e-21 1.3484252e-36)
(0.11680045 -0.013241498 1.4705397e-20 0.0036992212 -1.6590509e-21 3.2430861e-37)
(0.13210877 -0.012813505 -7.8672128e-21 0.0040046179 7.4154525e-22 8.1720394e-38)
(0.14733067 -0.012268199 -2.3571793e-20 0.0044998327 1.7924168e-21 6.8659128e-37)
(0.16225017 -0.011785747 3.7578272e-19 0.0051633859 -2.234954e-20 1.6390698e-34)
(0.17683761 -0.011492668 -4.3171862e-20 0.0058964785 1.8858019e-21 2.0561063e-36)
(0.19115797 -0.01139749 4.0560065e-20 0.0065663825 -1.2139496e-21 1.7532772e-36)
(0.20521212 -0.011371986 -3.8356199e-19 0.0070717814 6.4091437e-21 1.5418464e-34)
(0.21878441 -0.011234674 2.0911961e-19 0.0073948544 -8.7514929e-22 4.5905241e-35)
(0.23148856 -0.010875431 1.6937521e-19 0.0075956349 1.4057639e-21 3.0730108e-35)
(0.24293492 -0.010287735 1.5724333e-19 0.0077453555 3.250274e-21 2.7612069e-35)
(0.25286926 -0.0095057779 1.455006e-19 0.0078791153 4.8578205e-21 2.5200369e-35)
(0.26103499 -0.0084925609 2.1658828e-19 0.00798005 1.0141186e-20 6.1034452e-35)
(0.26695449 -0.0070645414 -4.0528341e-19 0.007986193 -2.4951418e-20 2.3987624e-34)
(0.26961401 -0.0049607303 2.2999001e-19 0.0078356655 1.7924437e-20 8.9494073e-35)
(0.26717377 -0.0019128439 3.1594566e-19 0.0074628813 3.0589958e-20 2.0333533e-34)
(0.25755954 0.0021727292 -2.0575593e-19 0.0068426282 -2.4545568e-20 1.0842516e-34)
(0.23819208 0.0071312199 -5.6702913e-20 0.005979755 -8.2958411e-21 1.0974465e-35)
(0.20908725 0.012549146 -4.1303944e-20 0.0051345974 -7.4284842e-21 8.3236377e-36)
(0.16876529 0.01692154 1.6972698e-19 0.0045567255 3.7632226e-20 2.1562833e-34)
(0.12591812 0.01999821 9.6126816e-20 0.0047341801 2.6671547e-20 1.1636897e-34)
(0.07853816 0.017989319 -2.945122e-21 0.0049295878 -1.0596423e-21 2.2590791e-37)
(1.3040198e-08 -1.0226255e-07 2.9292133e-24 8.0195533e-07 -2.2623868e-23 1.3573541e-37)
(1.2931666e-07 -9.9021319e-07 -2.0307951e-23 7.5826119e-06 1.5321283e-22 1.0839097e-36)
(4.0884488e-07 -3.0582446e-06 2.7181678e-23 2.2878956e-05 -1.9995039e-22 7.2054873e-37)
(9.2040534e-07 -6.7089326e-06 -1.4774192e-23 4.8914521e-05 1.0577924e-22 1.0292997e-37)
(1.7563775e-06 -1.2447778e-05 -7.2243776e-24 8.8260089e-05 5.0263967e-23 1.3438182e-38)
(3.0423599e-06 -2.0910678e-05 8.1271745e-23 0.00014382896 -5.484711e-22 9.9546888e-37)
(4.9485144e-06 -3.2890311e-05 -2.6291614e-23 0.00021884823 1.7170307e-22 6.389406e-38)
(7.704628e-06 -4.9364989e-05 -7.0146146e-23 0.00031679211 4.4211927e-22 2.8826477e-37)
(1.1620384e-05 -7.1529778e-05 -6.6815339e-24 0.00044126365 4.0522461e-23 1.6984173e-39)
(1.7112094e-05 -0.00010082674 -6.9873052e-23 0.00059580953 4.0647296e-22 1.2268917e-37)
(2.4737742e-05 -0.00013897067 1.196917e-22 0.00078365283 -6.6562339e-22 2.4085791e-37)
(3.5242464e-05 -0.00018796452 -1.0131099e-22 0.001007332 5.3670382e-22 1.1651083e-37)
(4.9617037e-05 -0.00025009698 -4.5324415e-22 0.001268242 2.2789228e-21 1.5843883e-36)
(6.9171961e-05 -0.00032791171 -1.5962882e-23 0.0015660909 7.5886892e-23 1.339905e-39)
(9.5629946e-05 -0.00042413649 5.0763311e-22 0.0018983068 -2.2727592e-21 9.2895003e-37)
(0.00013123914 -0.00054156064 4.3443719e-22 0.0022594736 -1.8242997e-21 4.6694023e-37)
(0.00017890878 -0.000682852 -4.5122959e-22 0.002640908 1.7696887e-21 3.4638543e-37)
(0.00024236795 -0.00085031615 5.2166308e-23 0.0030305525 -1.9026064e-22 3.1960946e-39)
(0.00032634665 -0.0010456172 1.2768795e-21 0.003413373 -4.3113171e-21 1.3209032e-36)
(0.00043677778 -0.0012695115 1.8695226e-21 0.0037724561 -5.8176105e-21 1.9628802e-36)
(0.00058102044 -0.001521681 -2.5569908e-21 0.0040908949 7.3001482e-21 2.5580205e-36)
(0.0007681086 -0.0018007917 -3.0723241e-21 0.0043543715 8.011393e-21 2.5888083e-36)
(0.0010090405 -0.0021049122 4.9152417e-21 0.0045540276 -1.1655324e-20 4.6820726e-36)
(0.0013171328 -0.0024323777 -7.1955445e-21 0.0046889025 1.545117e-20 7.1574693e-36)
(0.00170855 -0.0027830997 -1.4665106e-20 0.0047670039 2.8405749e-20 2.1441984e-35)
(0.0022031908 -0.0031600776 4.0382933e-20 0.0048042521 -7.0312896e-20 1.1878183e-34)
(0.0028245648 -0.0035695398 -2.5805833e-20 0.0048212743 4.0267601e-20 3.5902125e-35)
(0.0036016511 -0.0040209263 4.4094518e-20 0.0048375332 -6.1507253e-20 7.8622682e-35)
(0.0045717175 -0.0045250529 -6.3132125e-20 0.0048641802 7.856415e-20 1.2254721e-34)
(0.0057790139 -0.0050913262 8.0327877e-20 0.0049084639 -8.9018262e-20 1.5269763e-34)
(0.0072765126 -0.00572788 -9.4188137e-20 0.0049753576 9.2793124e-20 1.6354253e-34)
(0.0091283678 -0.0064427481 1.7887098e-20 0.0050648647 -1.5644536e-20 4.6508703e-36)
(0.011410885 -0.0072425381 6.9480049e-20 0.0051742203 -5.3870512e-20 5.5797278e-35)
(0.014213403 -0.0081324923 -4.3882283e-20 0.0052995254 3.0127187e-20 1.7892961e-35)
(0.017638759 -0.0091157339 1.5307639e-20 0.0054359961 -9.2953026e-21 1.7676595e-36)
(0.021802403 -0.010191465 4.9601221e-21 0.0055776847 -2.6620205e-21 1.5242799e-37)
(0.026829161 -0.011352047 6.78712e-20 0.0057169689 -3.2134296e-20 2.3482667e-35)
(0.032846282 -0.0125788 2.4426198e-20 0.0058442499 -1.0192687e-20 2.5302836e-36)
(0.039971196 -0.01383669 2.7079236e-20 0.005948408 -9.9376203e-21 2.61307e-36)
(0.048292322 -0.015068951 2.9244638e-20 0.0060188073 -9.4229428e-21 2.5958344e-36)
(0.057843543 -0.016194258 -1.6210224e-19 0.0060496436 4.5688175e-20 6.8449159e-35)
(0.068575371 -0.017111437 7.6946373e-20 0.0060479338 -1.8885854e-20 1.3372613e-35)
(0.080329301 -0.017716155 1.3221248e-20 0.0060440763 -2.8129319e-21 3.4272352e-37)
(0.092828077 -0.017931461 -1.6207823e-19 0.0061007248 2.9522566e-20 4.612579e-35)
(0.10569768 -0.017749373 -8.7025588e-20 0.0063121525 1.3438751e-20 1.1941769e-35)
(0.11855863 -0.017275466 4.4859775e-20 0.0067841797 -5.7840781e-21 2.9021469e-36)
(0.13115973 -0.016728683 1.6974248e-19 0.0075808923 -1.7790281e-20 3.8441052e-35)
(0.14341875 -0.016343171 -7.6019546e-20 0.0086522381 6.3272342e-21 7.2772817e-36)
(0.15541753 -0.016254981 2.2669988e-19 0.0098188661 -1.4083601e-20 6.1987647e-35)
(0.1672597 -0.016421073 1.2450521e-19 0.010847885 -5.3984866e-21 1.823894e-35)
(0.17888054 -0.016631211 1.7182799e-19 0.011577314 -4.4839966e-21 3.4489073e-35)
(0.18996064 -0.016648446 4.5666756e-19 0.012000261 -4.0004363e-21 2.4655218e-34)
(0.20005639 -0.016370862 -3.4544546e-19 0.0122386 -2.6909278e-21 1.457156e-34)
(0.20880041 -0.015838469 1.0897774e-19 0.012422496 2.7734177e-21 1.5295934e-35)
(0.21601145 -0.015112082 -1.7868405e-19 0.012609504 -7.5085346e-21 4.4485286e-35)
(0.22148563 -0.014128938 -1.5980308e-19 0.012767388 -9.7353965e-21 3.9498281e-35)
(0.224731 -0.01263064 -5.793731e-20 0.012788301 -4.7418886e-21 5.945295e-36)
(0.22471442 -0.01025894 -4.8146084e-19 0.012562816 -5.0217361e-20 4.851485e-34)
(0.21965207 -0.0066759846 -1.1582495e-19 0.011975635 -1.5250117e-20 3.4614102e-35)
(0.20778679 -0.0017626994 2.3167808e-19 0.010981581 3.8237264e-20 1.7913406e-34)
(0.18688509 0.0041886495 7.4422325e-20 0.0096006312 1.5384272e-20 2.5451005e-35)
(0.15794562 0.010641797 -4.551344e-20 0.0081947047 -1.1813619e-20 1.4180813e-35)
(0.11989378 0.015582469 -7.3636306e-20 0.0072008845 -2.4199239e-20 6.0624175e-35)
(0.082044123 0.018543805 -8.5784987e-20 0.007211821 -3.6358156e-20 1.4700248e-34)
(0.045092477 0.015920945 4.3555699e-21 0.0072294033 2.475172e-21 8.5498517e-37)
(2.7766576e-08 -1.7634815e-07 1.3229415e-23 1.120005e-06 -8.3165916e-23 1.2601328e-36)
(2.6962905e-07 -1.6907296e-06 9.6211239e-24 1.0601986e-05 -5.9662211e-23 1.1371869e-37)
(8.361818e-07 -5.1746319e-06 -1.2623505e-23 3.202404e-05 7.7089452e-23 7.4576555e-38)
(1.8428944e-06 -1.1239108e-05 -6.620185e-23 6.8549296e-05 3.977156e-22 1.0170996e-36)
(3.4384098e-06 -2.0634908e-05 4.8509589e-23 0.00012385698 -2.8636993e-22 3.0543963e-37)
(5.8146776e-06 -3.427972e-05 -9.0213963e-23 0.00020214784 5.22622e-22 6.3307242e-37)
(9.2189566e-06 -5.3285386e-05 4.9270504e-23 0.00030811921 -2.7962128e-22 1.1859407e-37)
(1.3968793e-05 -7.898513e-05 1.4565769e-23 0.00044688984 -8.0817451e-23 6.7327533e-39)
(2.0471255e-05 -0.00011296028 -1.0107319e-22 0.00062385578 5.4701924e-22 2.1590882e-37)
(2.9247087e-05 -0.00015706242 -2.6464304e-22 0.00084445397 1.3935663e-21 1.0040425e-36)
(4.0961044e-05 -0.00021342689 -1.6039803e-23 0.0011138103 8.1955627e-23 2.5335155e-39)
(5.6459751e-05 -0.0002844713 6.3077571e-22 0.0014362502 -3.1179928e-21 2.7231099e-36)
(7.681867e-05 -0.00037287123 -1.0447714e-21 0.0018146601 4.9803285e-21 5.223769e-36)
(0.00010340005 -0.00048150379 2.0151948e-21 0.0022497043 -9.2321057e-21 1.3658437e-35)
(0.00013792384 -0.00061334895 -6.281724e-22 0.0027389402 2.7555888e-21 9.3595655e-37)
(0.0001825538 -0.00077133977 1.5904167e-21 0.0032759148 -6.6541749e-21 4.2411738e-36)
(0.00024000127 -0.00095815825 -2.289579e-21 0.0038494055 9.0985325e-21 6.2265763e-36)
(0.00031364943 -0.0011759839 1.7694003e-21 0.0044430302 -6.6488783e-21 2.6387811e-36)
(0.0004077015 -0.0014262219 -3.3233403e-22 0.0050355258 1.1753683e-21 6.6218386e-38)
(0.00052735773 -0.0017092661 -1.600629e-21 0.0056020115 5.3020425e-21 1.0951601e-36)
(0.00067902913 -0.002024389 4.611328e-21 0.0061164553 -1.4234349e-20 6.5058969e-36)
(0.00087059788 -0.0023698797 -7.694011e-21 0.0065553277 2.2018378e-20 1.3032611e-35)