/*--------------------------------*- C++ -*----------------------------------*\
  =========                 |
  \\      /  F ield         | OpenFOAM: The Open Source CFD Toolbox
   \\    /   O peration     | Website:  https://openfoam.org
    \\  /    A nd           | Version:  13
     \\/     M anipulation  |
\*---------------------------------------------------------------------------*/
FoamFile
{
    format      ascii;
    class       surfaceScalarField;
    location    "37.898921";
    object      phi;
}
// * * * * * * * * * * * * * * * * * * * * * * * * * * * * * * * * * * * * * //

dimensions      [0 3 -1 0 0 0 0];

internalField   nonuniform List<scalar> 
34068
(
-1.0461769e-08
4.8809713e-08
-3.8347944e-08
-4.6579203e-08
1.6793841e-07
-1.3182098e-07
-1.1694292e-07
3.2685441e-07
-2.5649069e-07
-2.3239227e-07
5.3690826e-07
-4.2145891e-07
-4.0655672e-07
8.1249612e-07
-6.3833168e-07
-6.5648929e-07
1.1718013e-06
-9.2186873e-07
-1.0034507e-06
1.6376989e-06
-1.2907375e-06
-1.4738484e-06
2.2388359e-06
-1.7684383e-06
-2.1003648e-06
3.0109124e-06
-2.384396e-06
-2.9233052e-06
3.9981799e-06
-3.1752395e-06
-3.9921941e-06
5.2551599e-06
-4.186271e-06
-5.3676573e-06
6.8485849e-06
-5.4731217e-06
-7.1236213e-06
8.8595248e-06
-7.1035608e-06
-9.3498535e-06
1.1385641e-05
-9.1594088e-06
-1.2154877e-05
1.4543455e-05
-1.1738432e-05
-1.5669242e-05
1.8470454e-05
-1.495609e-05
-2.0049163e-05
2.3326768e-05
-1.8946847e-05
-2.5480445e-05
2.9296047e-05
-2.3864765e-05
-3.2182608e-05
3.6585006e-05
-2.9882843e-05
-4.0413022e-05
4.5421018e-05
-3.7190604e-05
-5.0470788e-05
5.6046884e-05
-4.5989118e-05
-6.2699972e-05
6.8711901e-05
-5.6482717e-05
-7.7491587e-05
8.3658167e-05
-6.8866552e-05
-9.5283617e-05
0.00010110134
-8.3309308e-05
-0.00011655801
0.00012120525
-9.9930857e-05
-0.00014183339
0.00014405085
-0.00011877547
-0.00017165204
0.00016960148
-0.00013978283
-0.00020655965
0.00019766937
-0.00016276176
-0.000247077
0.00022789323
-0.00018737588
-0.00029366499
0.0002597443
-0.00021315631
-0.00034668906
0.00029258628
-0.00023956221
-0.00040639729
0.00032581522
-0.00026610699
-0.00047293301
0.00035907393
-0.00029253821
-0.0005463963
0.00039245815
-0.00031899486
-0.00062694062
0.000426566
-0.00034602168
-0.00071486285
0.00046232517
-0.00037440294
-0.00081065392
0.00050073247
-0.0004049414
-0.00091501411
0.00054269424
-0.00043833404
-0.001028861
0.00058901108
-0.00047516424
-0.001153357
0.00064042798
-0.00051593199
-0.0012899743
0.00069766155
-0.00056104417
-0.0014406074
0.00076134305
-0.00061070994
-0.0016077506
0.00083182267
-0.00066467954
-0.0017947658
0.00090875801
-0.00072174282
-0.0020062075
0.00099020601
-0.00077876423
-0.002248172
0.0010712104
-0.00082924591
-0.0025288251
0.0011419623
-0.00086130915
-0.0028589928
0.0011841911
-0.00085402348
-0.0032526657
0.0011654335
-0.00077176053
-0.0037273534
0.0010299036
-0.00055521595
-0.0043038361
0.00068274072
-0.00010625803
-0.0050045725
-3.538148e-05
0.00073611788
-0.0058487291
-0.0013891797
0.0022333363
-0.006841828
-0.0038031174
0.0047962163
-0.0079572999
-0.0079105573
0.0090260292
-0.009104973
-0.014506522
0.015654195
-0.010091129
-0.024323373
0.025309529
-0.010648452
-0.037198651
0.037755974
-0.010574882
-0.051073999
0.051000429
-0.0099482462
-0.061591743
0.060965107
-0.0082537508
-0.0578248
0.056130304
-0.00080418941
-0.021485191
0.01403563
0.013632846
0.054483898
-0.068920934
0.026656171
0.12606266
-0.13908598
0.16342629
0.034252838
-0.17102296
-1.0510601e-08
5.9320313e-08
-4.6800176e-08
2.0422798e-07
-1.1750305e-07
3.9755729e-07
-2.3351338e-07
6.5291858e-07
-4.0851355e-07
9.8749629e-07
-6.5961743e-07
1.4229052e-06
-1.008148e-06
1.9862295e-06
-1.4805741e-06
2.711262e-06
-2.1096353e-06
3.6399736e-06
-2.9356818e-06
4.8242264e-06
-4.008268e-06
6.3277461e-06
-5.3880228e-06
8.2283398e-06
-7.1488466e-06
1.0620349e-05
-9.3804423e-06
1.3617237e-05
-1.2191224e-05
1.7354237e-05
-1.5711601e-05
2.1990831e-05
-2.0097616e-05
2.7712784e-05
-2.5534898e-05
3.4733329e-05
-3.224284e-05
4.3292949e-05
-4.0478804e-05
5.3656983e-05
-5.0542118e-05
6.6110197e-05
-6.2777436e-05
8.0947219e-05
-7.7576953e-05
9.8457684e-05
-9.538063e-05
0.00011890502
-0.00011667346
0.00014249807
-0.00014197842
0.00016935581
-0.00017184368
0.00019946674
-0.00020682236
0.00023264804
-0.00024744402
0.0002685149
-0.00029417912
0.00030647939
-0.00034740217
0.00034580933
-0.00040736801
0.00038578106
-0.00047422232
0.00042592825
-0.00054806228
0.00046629811
-0.00062903501
0.00050753873
-0.00071743115
0.00055072131
-0.00081373727
0.00059703859
-0.00091865144
0.00064760841
-0.0010330919
0.00070345154
-0.0011582272
0.00076556326
-0.0012955459
0.00083498023
-0.0014469795
0.00091277667
-0.0016150976
0.00099994078
-0.0018034018
0.0010970622
-0.0020166945
0.0012034987
-0.0022615024
0.0013160183
-0.0025467098
0.0014271697
-0.0028843027
0.001521784
-0.0032901339
0.0015712647
-0.0037846821
0.0015244518
-0.0043933855
0.0012914441
-0.0051458995
0.0007171325
-0.0060717549
-0.00046332429
-0.0071892077
-0.0026856647
-0.0084817771
-0.0066179879
-0.0098520863
-0.013136213
-0.011080708
-0.023094751
-0.011837197
-0.036442162
-0.011911852
-0.050999345
-0.011421471
-0.062082123
-0.01011994
-0.059126331
-0.0043389219
-0.027266209
0.0084575907
0.041687385
0.021910234
0.11261001
0.15279489
0.032541635
-1.041584e-08
6.9736153e-08
-4.6385001e-08
2.4019714e-07
-1.1647052e-07
4.676428e-07
-2.3147105e-07
7.6791911e-07
-4.0494158e-07
1.1609668e-06
-6.5382711e-07
1.6717907e-06
-9.9922619e-07
2.3316286e-06
-1.4673157e-06
3.1793515e-06
-2.0904527e-06
4.2631106e-06
-2.9084969e-06
5.6422706e-06
-3.9703733e-06
7.3896224e-06
-5.335921e-06
9.5938875e-06
-7.0780491e-06
1.2362477e-05
-9.2852474e-06
1.5824435e-05
-1.2064455e-05
2.0133445e-05
-1.5544322e-05
2.5470698e-05
-1.9878835e-05
3.2047297e-05
-2.5251286e-05
4.010578e-05
-3.1878469e-05
4.9920132e-05
-4.0014983e-05
6.1793496e-05
-4.9957353e-05
7.6052568e-05
-6.2047618e-05
9.3037484e-05
-7.6675823e-05
0.00011308589
-9.4280626e-05
0.00013650982
-0.00011534705
0.0001635645
-0.00014039998
0.00019440874
-0.00016999184
0.0002290586
-0.00020468283
0.00026733903
-0.00024501255
0.00030884462
-0.00029146393
0.00035293077
-0.00034442485
0.00039877024
-0.00040416112
0.00044551734
-0.00047082259
0.00049258971
-0.00054450006
0.00053997558
-0.00062532395
0.00058836262
-0.00071356172
0.00063895908
-0.00080967458
0.00069315145
-0.00091433437
0.0007522682
-0.0010284315
0.00081754864
-0.0011531041
0.00089023587
-0.0012898093
0.00097168544
-0.0014404513
0.0010634187
-0.0016075874
0.0011670769
-0.0017947385
0.0012842133
-0.0020067897
0.0014155499
-0.0022504724
0.001559701
-0.0025350735
0.0017117707
-0.0028733092
0.0018600197
-0.0032823017
0.0019802572
-0.0037846959
0.002026846
-0.0044095089
0.0019162572
-0.0051921598
0.0014997833
-0.0061706893
0.00051520519
-0.0073740828
-0.0014822711
-0.0087938675
-0.0051982032
-0.010316555
-0.011613525
-0.01170379
-0.021707516
-0.012507775
-0.035638177
-0.012479612
-0.051027507
-0.011798196
-0.062763539
-0.010395039
-0.060529488
-0.0055312889
-0.03212996
0.0058480699
0.030308026
0.019719929
0.098738154
0.1385299
0.033984915
-1.0159859e-08
7.9896012e-08
-4.5255348e-08
2.7529263e-07
-1.1364933e-07
5.3603679e-07
-2.2588262e-07
8.801524e-07
-3.9517944e-07
1.3302636e-06
-6.3806055e-07
1.9146718e-06
-9.7508744e-07
2.6686555e-06
-1.4317529e-06
3.636017e-06
-2.0395558e-06
4.8709135e-06
-2.8372774e-06
6.4399923e-06
-3.872504e-06
8.424849e-06
-5.2034173e-06
1.0924801e-05
-6.9009016e-06
1.4059961e-05
-9.0509851e-06
1.7974518e-05
-1.1757657e-05
2.2840117e-05
-1.514607e-05
2.8859111e-05
-1.9366131e-05
3.6267358e-05
-2.4596449e-05
4.5336098e-05
-3.1048567e-05
5.6372249e-05
-3.8971325e-05
6.9716255e-05
-4.8655174e-05
8.5736416e-05
-6.0436014e-05
0.00010481832
-7.4698073e-05
0.00012734795
-9.1875082e-05
0.00015368683
-0.00011244867
0.00018413809
-0.00013694274
0.00021890281
-0.00016591198
0.00025802784
-0.00019992299
0.00030135004
-0.0002395264
0.00034844803
-0.00028522049
0.00039862485
-0.00033741083
0.00045096059
-0.00039637877
0.00050448527
-0.00046228033
0.00055849127
-0.00053519635
0.0006128916
-0.00061522917
0.00066839544
-0.00070260463
0.00072633453
-0.00079773506
0.00078828188
-0.0009012385
0.00085577164
-0.0010139444
0.0009302545
-0.0011369188
0.0010132103
-0.0012715322
0.0011062988
-0.0014195867
0.0012114733
-0.001583525
0.0013310152
-0.0017667451
0.0014674334
-0.001974015
0.0016228197
-0.0022119913
0.0017976773
-0.0024899726
0.0019897521
-0.0028208529
0.0021909001
-0.0032222401
0.0023816443
-0.0037178365
0.0025224425
-0.0043386581
0.0025370788
-0.0051236438
0.0022847691
-0.0061162545
0.0015078158
-0.0073519396
-0.00024658598
-0.008825162
-0.0037249808
-0.010416703
-0.010021985
-0.011802586
-0.020321633
-0.01246664
-0.034974122
-0.012143191
-0.051350957
-0.010984386
-0.063922344
-0.0090452748
-0.062468599
-0.0043387811
-0.036836454
0.0062314172
0.019737828
0.020889047
0.084080524
0.11974953
0.039669418
-9.732339e-09
8.9628351e-08
-4.3361865e-08
3.0892216e-07
-1.0891173e-07
6.0158665e-07
-2.1648971e-07
9.8773039e-07
-3.7876971e-07
1.4925436e-06
-6.1157803e-07
2.1474801e-06
-9.3459851e-07
2.991676e-06
-1.3722274e-06
4.0736458e-06
-1.9545905e-06
5.4532766e-06
-2.7187702e-06
7.204172e-06
-3.7102513e-06
9.41633e-06
-4.984645e-06
1.2199195e-05
-6.6096994e-06
1.5685015e-05
-8.6676646e-06
2.0032484e-05
-1.125801e-05
2.5430462e-05
-1.4500548e-05
3.2101649e-05
-1.8538947e-05
4.0305757e-05
-2.3544641e-05
5.0341791e-05
-2.9721066e-05
6.2548675e-05
-3.7308125e-05
7.7303313e-05
-4.6586646e-05
9.5014938e-05
-5.788257e-05
0.00011611425
-7.15703e-05
0.00014103568
-8.807458e-05
0.00017019111
-0.0001078698
0.00020393331
-0.00013147545
0.00024250846
-0.00015944599
0.00028599838
-0.00019235321
0.00033425726
-0.00023075932
0.00038685415
-0.0002751805
0.00044304603
-0.00032604441
0.00050182449
-0.0003836527
0.00056209357
-0.00044817017
0.00062300874
-0.00051966432
0.00068438575
-0.00059819774
0.00074692886
-0.00068393497
0.00081207176
-0.0007772136
0.00088156051
-0.00087856685
0.0009571249
-0.00098872578
0.0010404134
-0.0011086371
0.0011331216
-0.0012395223
0.001237184
-0.0013829963
0.0013549473
-0.0015412693
0.0014892882
-0.0017174517
0.0016436157
-0.0019159576
0.0018213256
-0.0021430364
0.0020247562
-0.0024075243
0.00225424
-0.0027218022
0.002505178
-0.0031029573
0.0027627994
-0.0035742725
0.0029937577
-0.0041665472
0.0031293534
-0.0049189775
0.0030371994
-0.0058757583
0.0024645967
-0.0070730986
0.00095075427
-0.0085009084
-0.002297171
-0.010015863
-0.0085070299
-0.011216374
-0.019121122
-0.011515581
-0.034674915
-0.010626193
-0.052240345
-0.0087459856
-0.065802551
-0.005986761
-0.065227823
-0.00078716902
-0.042036045
0.0098358834
0.0091147756
0.026085432
0.067830976
0.096028687
0.049806276
-9.125154e-09
9.8753505e-08
-4.0669529e-08
3.4046653e-07
-1.0217106e-07
6.6308819e-07
-2.0312137e-07
1.0886807e-06
-3.5541649e-07
1.6448388e-06
-5.7390228e-07
2.3659659e-06
-8.7703614e-07
3.2948098e-06
-1.2876797e-06
4.4842894e-06
-1.8340584e-06
5.9996553e-06
-2.5509018e-06
7.9210154e-06
-3.4808054e-06
1.0346234e-05
-4.6758478e-06
1.3394237e-05
-6.1994993e-06
1.7208667e-05
-8.1288525e-06
2.1961837e-05
-1.0557224e-05
2.7858834e-05
-1.3597151e-05
3.5141576e-05
-1.7383811e-05
4.4092416e-05
-2.2078848e-05
5.5036828e-05
-2.7874602e-05
6.8344429e-05
-3.4998641e-05
8.4427352e-05
-4.371841e-05
0.00010373471
-5.4345779e-05
0.00012674162
-6.7240976e-05
0.00015393087
-8.281526e-05
0.00018576539
-0.0001015314
0.00022264945
-0.00012390049
0.00026487756
-0.00015047358
0.00031257147
-0.00018182567
0.00036560935
-0.0002185304
0.00042355887
-0.00026112385
0.00048563948
-0.00031005974
0.00055076038
-0.0003656651
0.00061769893
-0.00042811684
0.00068546048
-0.00049746687
0.00075373578
-0.00057372675
0.00082318874
-0.00065697904
0.00089532406
-0.00074745849
0.00097203996
-0.0008455793
0.0010552457
-0.00095193277
0.0011467669
-0.0010672939
0.0012484827
-0.0011926652
0.0013625554
-0.0013293793
0.0014916613
-0.0014792811
0.00163919
-0.0016450064
0.0018093411
-0.0018303411
0.0020066603
-0.0020407402
0.0022351552
-0.0022840109
0.0024975107
-0.0025711787
0.0027923457
-0.0029175476
0.0031091683
-0.0033440574
0.0034202676
-0.0038782791
0.003663575
-0.0045550896
0.0037140099
-0.0054126943
0.0033222014
-0.0064781122
0.0020161722
-0.0077224243
-0.0010528588
-0.0089531238
-0.0072763304
-0.0096800843
-0.018394162
-0.0092367151
-0.035118284
-0.0074010103
-0.05407605
-0.0045894493
-0.068614112
-0.00096010524
-0.068857167
0.0050827438
-0.048078895
0.01657935
-0.0023818303
0.035254873
0.049155453
0.06788278
0.06340078
-8.3363875e-09
1.0708989e-07
-3.7169691e-08
3.6929984e-07
-9.3405038e-08
7.1932353e-07
-1.8573283e-07
1.1810085e-06
-3.250388e-07
1.7841447e-06
-5.2490214e-07
2.5658293e-06
-8.021954e-07
3.5721031e-06
-1.1778101e-06
4.8599041e-06
-1.6775288e-06
6.4993741e-06
-2.3330713e-06
8.5765578e-06
-3.1833428e-06
1.1196505e-05
-4.2759271e-06
1.4486821e-05
-5.6688401e-06
1.860158e-05
-7.4326221e-06
2.3725619e-05
-9.6527704e-06
3.0078982e-05
-1.243258e-05
3.7921386e-05
-1.5896422e-05
4.7556258e-05
-2.0193465e-05
5.9333872e-05
-2.5501848e-05
7.3652812e-05
-3.2033264e-05
9.0958768e-05
-4.0037828e-05
0.00011173927
-4.9808958e-05
0.00013651275
-6.1687983e-05
0.0001658099
-7.6067779e-05
0.00020014519
-9.3394491e-05
0.00023997616
-0.00011416618
0.00028564924
-0.00013892636
0.00033733165
-0.00016825041
0.0003949334
-0.00020272214
0.0004580306
-0.00024289855
0.00052581589
-0.00028926287
0.0005971247
-0.00034217255
0.00067060861
-0.00040182094
0.00074510887
-0.0004682437
0.00082015854
-0.00054139136
0.0008963364
-0.00062124362
0.00097517632
-0.0007079024
0.0010586987
-0.00080162566
0.001148969
-0.00090281974
0.001247961
-0.0010120307
0.0013576936
-0.0011299665
0.0014804913
-0.0012575723
0.0016192671
-0.0013961798
0.0017777975
-0.0015477386
0.0019608998
-0.0017151008
0.0021740226
-0.0019024808
0.0024225352
-0.0021159912
0.002711021
-0.0023642907
0.0030406452
-0.0026593427
0.0034042203
-0.0030172815
0.0037782064
-0.003458449
0.0041047426
-0.0040071918
0.0042627527
-0.0046861138
0.0040011234
-0.0054970792
0.0028271376
-0.0063644033
-0.00018553473
-0.006998208
-0.0066425258
-0.0067630551
-0.018629314
-0.0049468899
-0.03693445
-0.0015962463
-0.057426693
0.0023080754
-0.072518434
0.0066378735
-0.073186965
0.01347265
-0.054913671
0.026159
-0.01506818
0.047486131
0.027828321
0.036351988
0.079016923
-7.3710419e-09
1.1446093e-07
-3.288288e-08
3.9481168e-07
-8.2663308e-08
7.6910396e-07
-1.6442006e-07
1.2627652e-06
-2.8780304e-07
1.9075277e-06
-4.6484179e-07
2.742868e-06
-7.1047556e-07
3.8177369e-06
-1.0431961e-06
5.1926246e-06
-1.4858163e-06
6.9419943e-06
-2.0664015e-06
9.157143e-06
-2.8193832e-06
1.1949487e-05
-3.7868896e-06
1.5454328e-05
-5.020344e-06
1.9835034e-05
-6.5823492e-06
2.5287624e-05
-8.5489404e-06
3.2045573e-05
-1.1012215e-05
4.0384661e-05
-1.4083421e-05
5.0627464e-05
-1.7896542e-05
6.3146993e-05
-2.2612387e-05
7.8368657e-05
-2.842317e-05
9.6769551e-05
-3.5557552e-05
0.00011887365
-4.4285935e-05
0.00014524113
-5.492573e-05
0.00017644969
-6.7846e-05
0.00021306546
-8.3470754e-05
0.00025560091
-0.00010227943
0.00030445792
-0.00012480299
0.0003598552
-0.00015161299
0.0004217434
-0.00018330088
0.00048971848
-0.00022044415
0.00056295916
-0.00026355784
0.00064023839
-0.00031303462
0.00072008539
-0.0003690896
0.00080116386
-0.00043174376
0.00088281269
-0.00050087884
0.00096547148
-0.00057635154
0.001050649
-0.00065809969
0.0011404469
-0.00074618512
0.0012370544
-0.00084078043
0.0013425563
-0.00094214126
0.0014590545
-0.0010505998
0.0015889498
-0.0011666018
0.001735269
-0.0012908043
0.0019020001
-0.0014242303
0.0020943258
-0.0015684655
0.0023182577
-0.0017259768
0.0025800466
-0.0019004096
0.0028854538
-0.0020968576
0.0032370933
-0.0023220403
0.003629403
-0.0025841767
0.0040403428
-0.0028912035
0.0044117694
-0.003248835
0.0046203842
-0.0036505583
0.0044028467
-0.0040479567
0.0032245359
-0.0042714836
3.7992228e-05
-0.0038451416
-0.0070688678
-0.0018852793
-0.020589177
0.0022841291
-0.041103858
0.0079304607
-0.063073025
0.013199481
-0.077787455
0.017978949
-0.077966433
0.024988799
-0.061923521
0.038480709
-0.02856009
0.061964925
0.0043441053
0.0023871182
0.095929795
-6.2403489e-09
1.2070128e-07
-2.7859662e-08
4.1643099e-07
-7.0072603e-08
8.1131691e-07
-1.3943448e-07
1.3321271e-06
-2.4414562e-07
2.0122389e-06
-3.9442138e-07
2.8931438e-06
-6.0294233e-07
4.0262578e-06
-8.8539404e-07
5.4750764e-06
-1.2611257e-06
7.317726e-06
-1.7539405e-06
9.6499578e-06
-2.3930534e-06
1.25886e-05
-3.2142443e-06
1.6275519e-05
-4.2612524e-06
2.0882042e-05
-5.5874356e-06
2.6613807e-05
-7.2577867e-06
3.3715924e-05
-9.3513275e-06
4.2478202e-05
-1.1963968e-05
5.3240104e-05
-1.5211864e-05
6.6394889e-05
-1.9235393e-05
8.2392186e-05
-2.4203704e-05
0.00010173786
-3.0319863e-05
0.00012498981
-3.7826547e-05
0.00015274781
-4.7011949e-05
0.0001856351
-5.8215559e-05
0.00022426907
-7.183299e-05
0.00026921834
-8.8318704e-05
0.00032094364
-0.00010818481
0.00037972131
-0.0001319934
0.00044555199
-0.00016033911
0.00051806419
-0.00019381765
0.0005964377
-0.00023297645
0.0006793972
-0.00027824728
0.00076535623
-0.00032987317
0.00085278975
-0.0003878645
0.00094080402
-0.00045202973
0.0010296367
-0.00052208458
0.0011207039
-0.0005977712
0.0012161335
-0.00067891329
0.0013181965
-0.00076539795
0.001429041
-0.00085712533
0.0015507818
-0.00095396535
0.0016857899
-0.001055744
0.0018370477
-0.0011622706
0.0020085266
-0.0012733876
0.0022054429
-0.0013890385
0.0024339086
-0.0015093748
0.0027003829
-0.0016346889
0.0030107679
-0.0017650961
0.0033675005
-0.0018997617
0.0037640686
-0.0020351118
0.0041756928
-0.002160207
0.0045368646
-0.0022519466
0.0047121238
-0.0022563697
0.0044072698
-0.0020384194
0.0030065856
-0.0012638077
-0.00073661947
0.00085008372
-0.0091827592
0.0055406036
-0.025279697
0.013092457
-0.048655712
0.021815281
-0.071795848
0.029033243
-0.085005417
0.034264993
-0.083198183
0.040776835
-0.068435363
0.054186886
-0.041970141
0.078763855
-0.020232863
-0.03313122
0.11428219
-4.9644295e-09
1.2566571e-07
-2.2189443e-08
4.33656e-07
-5.5856482e-08
8.4498394e-07
-1.1121725e-07
1.3874879e-06
-1.9483516e-07
2.0958568e-06
-3.148781e-07
3.0131867e-06
-4.814764e-07
4.1928561e-06
-7.0715302e-07
5.700753e-06
-1.0073528e-06
7.6179257e-06
-1.4010762e-06
1.0043681e-05
-1.9116665e-06
1.309919e-05
-2.5677496e-06
1.6931602e-05
-3.4043985e-06
2.1718691e-05
-4.4645477e-06
2.7673957e-05
-5.8007224e-06
3.5052099e-05
-7.47715e-06
4.4154629e-05
-9.5723207e-06
5.5335275e-05
-1.218212e-05
6.9004689e-05
-1.5423559e-05
8.5633625e-05
-1.9439246e-05
0.00010575355
-2.4402612e-05
0.00012995318
-3.0523869e-05
0.00015886907
-3.8056585e-05
0.00019316781
-4.7304524e-05
0.00023351701
-5.8628146e-05
0.00028054197
-7.2449588e-05
0.00033476508
-8.9254513e-05
0.00039652623
-0.00010958812
0.00046588559
-0.00013404161
0.00054251768
-0.00016322403
0.00062562012
-0.00019771325
0.00071388641
-0.00023798244
0.00080562542
-0.00028430883
0.00089911614
-0.0003366989
0.00099319409
-0.00039488753
0.0010878253
-0.00045843507
0.0011842514
-0.00052685769
0.0012845561
-0.00059969752
0.0013910363
-0.00067650197
0.0015058454
-0.00075674743
0.0016310273
-0.00083975109
0.0017687935
-0.00092459267
0.0019218893
-0.0010100487
0.0020939827
-0.0010945102
0.0022899044
-0.0011758663
0.0025152646
-0.0012513155
0.002775832
-0.001316782
0.0030762345
-0.0013657317
0.0034164502
-0.001386935
0.0037852719
-0.001360328
0.0041490858
-0.001248428
0.0044249646
-0.00098687415
0.00445057
-0.00045015862
0.0038705543
0.00062753647
0.0019288905
0.0028547052
-0.0029637882
0.0074669654
-0.013795019
0.015672125
-0.033484856
0.026875599
-0.059859186
0.038259166
-0.083179416
0.047408084
-0.094154335
0.054147553
-0.089937652
0.061137626
-0.075425436
0.074444172
-0.055276687
0.099058943
-0.044847635
-0.066485954
0.13241368
-3.5718707e-09
1.2923758e-07
-1.5998049e-08
4.4608218e-07
-4.0329498e-08
8.6931539e-07
-8.039172e-08
1.4275501e-06
-1.4095785e-07
2.1564229e-06
-2.2795832e-07
3.1001872e-06
-3.4873623e-07
4.313634e-06
-5.1236163e-07
5.8643784e-06
-7.3001352e-07
7.8355776e-06
-1.0154524e-06
1.032912e-05
-1.3856011e-06
1.3469339e-05
-1.8612736e-06
1.7407274e-05
-2.4680683e-06
2.2325486e-05
-3.2375088e-06
2.8443397e-05
-4.2084426e-06
3.6023033e-05
-5.4288271e-06
4.5375014e-05
-6.9579673e-06
5.6864415e-05
-8.8692909e-06
7.0916012e-05
-1.1253827e-05
8.8018161e-05
-1.4224478e-05
0.0001087242
-1.7921228e-05
0.00013364993
-2.2517271e-05
0.00016346511
-2.8226163e-05
0.00019887671
-3.5309663e-05
0.00024060051
-4.4085785e-05
0.00028931809
-5.4936178e-05
0.00034561547
-6.8311097e-05
0.00040990115
-8.4729447e-05
0.00048230394
-0.00010476975
0.00056255799
-0.00012904622
0.00064989659
-0.00015816178
0.00074300198
-0.0001926307
0.00084009434
-0.00023277015
0.00093925559
-0.00027859103
0.001039015
-0.00032975836
0.0011389927
-0.00038566846
0.0012401615
-0.00044558452
0.0013444722
-0.00050872367
0.0014541755
-0.00057423733
0.0015713591
-0.0006411075
0.0016978975
-0.00070800489
0.0018356909
-0.00077313082
0.0019870152
-0.00083403452
0.0021548864
-0.00088736018
0.0023432301
-0.00092849295
0.0025563974
-0.00095095428
0.0027982934
-0.00094511399
0.0030703942
-0.00089576636
0.0033671025
-0.00077789209
0.0036673976
-0.00054917343
0.0039203671
-0.00013721434
0.0040130056
0.00057895134
0.0037344043
0.0018268453
0.0026226603
0.0040743668
-0.00031863087
0.0083225116
-0.007211933
0.016125896
-0.021598404
0.027901306
-0.045260266
0.041343946
-0.073301826
0.053049855
-0.094885324
0.062166819
-0.1032713
0.070346734
-0.098117567
0.079998269
-0.085076971
0.095102508
-0.070380925
0.1181638
-0.067908932
-0.09268104
0.14435889
-2.1015124e-09
1.313391e-07
-9.4580573e-09
4.5343873e-07
-2.3922785e-08
8.8378012e-07
-4.7811994e-08
1.4514393e-06
-8.4002314e-08
2.1926132e-06
-1.3605643e-07
3.1522413e-06
-2.0836923e-07
4.3859468e-06
-3.0635535e-07
5.9623645e-06
-4.3668071e-07
7.965903e-06
-6.0755415e-07
1.0499994e-05
-8.2910441e-07
1.3690889e-05
-1.1138548e-06
1.7692025e-05
-1.4773513e-06
2.2688982e-05
-1.9389757e-06
2.8905021e-05
-2.5230087e-06
3.6607066e-05
-3.2600336e-06
4.6112039e-05
-4.1887634e-06
5.7793145e-05
-5.3584428e-06
7.2085692e-05
-6.8319615e-06
8.9491679e-05
-8.6898262e-06
0.00011058207
-1.1035204e-05
0.00013599531
-1.4000154e-05
0.00016643006
-1.7753105e-05
0.00020262966
-2.2507563e-05
0.00024535496
-2.8531631e-05
0.00029534216
-3.61576e-05
0.00035324144
-4.57901e-05
0.00041953365
-5.791026e-05
0.0004944241
-7.3071731e-05
0.00057771946
-9.1881877e-05
0.00066870673
-0.0001149583
0.00076607841
-0.00014285294
0.00086798897
-0.00017592625
0.00097232891
-0.00021420365
0.0010772924
-0.00025728366
0.0011820727
-0.00030439909
0.0012872769
-0.0003545404
0.0013946135
-0.00040655735
0.0015061924
-0.00045914764
0.0016239493
-0.00051072558
0.0017494754
-0.00055921858
0.0018841839
-0.00060181157
0.0020296082
-0.00063461821
0.002187693
-0.00065221402
0.0023608259
-0.00064697153
0.0025511549
-0.00060788375
0.0027592056
-0.00051836584
0.0029808763
-0.00035201035
0.0032007471
-6.5866072e-05
0.0033812533
0.00041088237
0.0034436186
0.0011962365
0.0032276515
0.0024896117
0.002441029
0.0046625269
0.00044974508
0.0084909838
-0.0041470878
0.015433509
-0.014154458
0.026713949
-0.032878844
0.040929115
-0.059475433
0.054151883
-0.086524594
0.063837825
-0.10457127
0.070899565
-0.11033304
0.078340488
-0.10555849
0.089013896
-0.095750379
0.10502368
-0.086390707
0.12564693
-0.088532187
-0.11249831
0.1454642
-5.9933931e-10
1.3193844e-07
-2.7738028e-09
4.5561319e-07
-7.1496016e-09
8.8815592e-07
-1.4494852e-08
1.4587846e-06
-2.5745706e-08
2.2038641e-06
-4.2036232e-08
3.1685318e-06
-6.4741378e-08
4.408652e-06
-9.5529978e-08
5.9931531e-06
-1.3644214e-07
8.0068151e-06
-1.8999729e-07
1.0553549e-05
-2.5934549e-07
1.3760237e-05
-3.4850088e-07
1.778118e-05
-4.6266261e-07
2.2803144e-05
-6.0869792e-07
2.9051057e-05
-7.9582901e-07
3.6794197e-05
-1.0366144e-06
4.6352824e-05
-1.3483345e-06
5.8104865e-05
-1.7549375e-06
7.2492295e-05
-2.2896697e-06
9.0026411e-05
-2.9986672e-06
0.00011129106
-3.945673e-06
0.00013694231
-5.2181445e-06
0.00016770254
-6.9349257e-06
0.00020434644
-9.2554892e-06
0.00024767553
-1.239071e-05
0.00029847738
-1.66144e-05
0.00035746513
-2.2274444e-05
0.0004251937
-2.9801051e-05
0.00050195071
-3.9707957e-05
0.00058762636
-5.2579256e-05
0.00068157803
-6.9028132e-05
0.00078252728
-8.9628023e-05
0.00088858886
-0.00011480885
0.00099750974
-0.00014459602
0.0011070795
-0.00017852274
0.0012159994
-0.00021567831
0.0013244325
-0.00025477192
0.0014337071
-0.0002942434
0.0015456639
-0.00033227741
0.0016619834
-0.00036664435
0.0017838424
-0.00039442661
0.0019119662
-0.00041164531
0.0020468269
-0.00041274956
0.0021887973
-0.00038988601
0.0023379623
-0.00033181625
0.0024930852
-0.00022192667
0.002649316
-3.4825004e-05
0.0027937746
0.00026969039
0.0028962317
0.00075782992
0.0028931138
0.0015387704
0.0026626781
0.0027923721
0.0019740498
0.0048255185
0.00040788266
0.008245433
-0.0029701694
0.014282139
-0.010183793
0.024461984
-0.024334304
0.038528234
-0.046945094
0.053004784
-0.073951983
0.063873592
-0.097393401
0.070617747
-0.11131542
0.075569289
-0.11528458
0.081873883
-0.11186308
0.091809986
-0.10568648
0.10667072
-0.10125144
0.12504769
-0.10690916
-0.13007858
0.14262796
8.7695577e-10
1.3106148e-07
3.7995679e-09
4.5269058e-07
9.3529955e-09
8.8260249e-07
1.8296095e-08
1.4498415e-06
3.1610019e-08
2.1905501e-06
5.0554636e-08
3.1495872e-06
7.6739191e-08
4.3824674e-06
1.1219261e-07
5.9576997e-06
1.5944873e-07
7.959559e-06
2.2162007e-07
1.0491377e-05
3.0246268e-07
1.3679395e-05
4.0640873e-07
1.7677234e-05
5.3854036e-07
2.2671013e-05
7.0445939e-07
2.8885138e-05
9.0999612e-07
3.658866e-05
1.1606704e-06
4.610215e-05
1.4608072e-06
5.7804729e-05
1.8121191e-06
7.2140983e-05
2.2116108e-06
8.962692e-05
2.6485389e-06
0.00011085413
3.1001602e-06
0.00013649069
3.5259785e-06
0.00016727672
3.8602041e-06
0.00020401221
4.0021943e-06
0.00024753354
3.804985e-06
0.00029867459
3.0620939e-06
0.00035820802
1.4938105e-06
0.00042676198
-1.2650135e-06
0.00050470954
-5.6715064e-06
0.00059203286
-1.226966e-05
0.00068817618
-2.166048e-05
0.0007919181
-3.4385162e-05
0.00090131354
-5.1002143e-05
0.0010141267
-7.1354316e-05
0.0011274317
-9.5049278e-05
0.0012396944
-0.00012109893
0.0013504822
-0.00014789904
0.0014605072
-0.00017342845
0.0015711933
-0.00019529815
0.0016838531
-0.0002105539
0.0017990981
-0.00021532198
0.0019167343
-0.00020429445
0.0020357994
-0.00016998588
0.0021544887
-0.00010167415
0.0022696506
1.630472e-05
0.0023751063
0.00020720959
0.0024584111
0.00050766923
0.002493315
0.00097714724
0.0024267537
0.0017138499
0.0021564112
0.0028771705
0.0014993576
0.0047337174
0.0001175028
0.0077811677
-0.0026395676
0.013033133
-0.0082221351
0.02199108
-0.01914174
0.035170516
-0.03751374
0.050100393
-0.06187497
0.062432816
-0.086284407
0.069951689
-0.10491227
0.074166388
-0.11553012
0.077952872
-0.11907107
0.083888344
-0.11779856
0.093470536
-0.11526867
0.10730505
-0.11508596
0.12408749
-0.1236916
-0.14648026
0.14048917
2.2677559e-09
1.2879372e-07
9.9942154e-09
4.4496412e-07
2.4909675e-08
8.6768703e-07
4.9217655e-08
1.4255335e-06
8.5711071e-08
2.1540567e-06
1.3791938e-07
3.0973789e-06
2.1027223e-07
4.3101146e-06
3.0830431e-07
5.8596676e-06
4.388813e-07
7.828982e-06
6.1045712e-07
1.0319802e-05
8.3334976e-07
1.3456502e-05
1.1200343e-06
1.7390549e-05
1.4853973e-06
2.230565e-05
1.9469736e-06
2.8423561e-05
2.5250484e-06
3.6010585e-05
3.2425935e-06
4.5384605e-05
4.1248802e-06
5.6922442e-05
5.1986949e-06
7.1067168e-05
6.490824e-06
8.8334791e-05
8.0257094e-06
0.00010931925
9.821843e-06
0.00013469456
1.1886606e-05
0.00016521195
1.4209183e-05
0.00020168963
1.6751208e-05
0.00024499151
1.9434966e-05
0.00029599083
2.2129361e-05
0.00035551363
2.4634363e-05
0.00042425698
2.6665857e-05
0.00050267804
2.7844824e-05
0.00059085389
2.7700847e-05
0.00068832016
2.5682626e-05
0.00079393632
2.1177198e-05
0.00090581897
1.3943611e-05
0.0010213603
3.855589e-06
0.0011375197
-8.8388802e-06
0.0012523888
-2.2864361e-05
0.0013645076
-3.6236852e-05
0.0014738797
-4.6504588e-05
0.001581461
-5.0659726e-05
0.0016880082
-4.4940508e-05
0.0017933789
-2.4385835e-05
0.0018961796
1.7854805e-05
0.0019935587
9.152091e-05
0.0020808226
0.00021083759
0.0021503339
0.00039690212
0.0021890418
0.00068209054
0.0021732227
0.0011180902
0.0020573153
0.0017910585
0.0017537854
0.0028449425
0.0011025271
0.0045132132
-0.00016891308
0.0072262958
-0.0025955798
0.011847631
-0.0072609029
0.019724692
-0.016099196
0.0316982
-0.031115248
0.046280544
-0.052096084
0.059555125
-0.075149552
0.068267639
-0.09499692
0.072818954
-0.10946359
0.075734022
-0.11844519
0.079357023
-0.12269407
0.085456818
-0.12389835
0.094937781
-0.12474964
0.10804901
-0.12819719
0.12360504
-0.13924762
-0.16179244
0.13891722
3.505577e-09
1.2528815e-07
1.5513205e-08
4.3295649e-07
3.8779393e-08
8.4442085e-07
7.6800796e-08
1.3875121e-06
1.3399649e-07
2.096861e-06
2.1592425e-07
3.0154512e-06
3.2954635e-07
4.1964925e-06
4.835401e-07
5.7056739e-06
6.8866051e-07
7.6238616e-06
9.5816448e-07
1.0050298e-05
1.3082818e-06
1.3106385e-05
1.7587355e-06
1.6940096e-05
2.3332996e-06
2.1731086e-05
3.0603391e-06
2.7696522e-05
3.9733321e-06
3.5097593e-05
5.1112501e-06
4.4246687e-05
6.5187372e-06
5.5514955e-05
8.2458834e-06
6.9340022e-05
1.0347491e-05
8.6233183e-05
1.2881432e-05
0.00010678531
1.5905915e-05
0.00013167007
1.9475159e-05
0.00016164271
2.3633119e-05
0.00019753167
2.8404777e-05
0.00024021985
3.3784729e-05
0.00029061088
3.9722934e-05
0.00034957542
4.610811e-05
0.0004178718
5.2750298e-05
0.00049603585
5.9365573e-05
0.00058423862
6.5566361e-05
0.00068211937
7.089021e-05
0.00078861247
7.4924656e-05
0.00090178452
7.7502481e-05
0.0010187825
7.7923316e-05
0.0011370989
7.6845159e-05
0.001253467
7.5819614e-05
0.0013655332
7.6966293e-05
0.001472733
8.3195602e-05
0.0015752317
9.8226482e-05
0.0016729773
0.00012674214
0.0017648632
0.00017496842
0.0018479533
0.00025159127
0.0019169359
0.00036918583
0.001963228
0.00054644251
0.0019730773
0.00081175675
0.0019237275
0.0012101657
0.0017748137
0.0018159293
0.0014515518
0.0027565992
0.00081311541
0.004246285
-0.00038715868
0.0066643946
-0.0025870227
0.01078428
-0.0067154657
0.017797299
-0.014273922
0.028574741