/*--------------------------------*- C++ -*----------------------------------*\
  =========                 |
  \\      /  F ield         | OpenFOAM: The Open Source CFD Toolbox
   \\    /   O peration     | Website:  https://openfoam.org
    \\  /    A nd           | Version:  13
     \\/     M anipulation  |
\*---------------------------------------------------------------------------*/
FoamFile
{
    format      ascii;
    class       surfaceScalarField;
    location    "8.702646";
    object      phi;
}
// * * * * * * * * * * * * * * * * * * * * * * * * * * * * * * * * * * * * * //

dimensions      [0 3 -1 0 0 0 0];

internalField   nonuniform List<scalar> 
34068
(
-2.8908206e-07
2.2873553e-07
6.0346526e-08
-1.2798478e-06
7.8383059e-07
2.0693518e-07
-3.1970583e-06
1.5167298e-06
4.0048071e-07
-6.319441e-06
2.4703204e-06
6.5206235e-07
-1.0990413e-05
3.6961083e-06
9.7486362e-07
-1.7630235e-05
5.2553861e-06
1.3844359e-06
-2.6749646e-05
7.220463e-06
1.8989477e-06
-3.8964819e-05
9.6757795e-06
2.5393936e-06
-5.5013329e-05
1.271879e-05
3.3297207e-06
-7.5770584e-05
1.6460427e-05
4.2968275e-06
-0.00010226583
2.1024877e-05
5.4703711e-06
-0.00013569654
2.6548403e-05
6.8823097e-06
-0.00017743948
3.3176837e-05
8.5660948e-06
-0.00022905635
4.1061425e-05
1.055545e-05
-0.00029229175
5.0352739e-05
1.2882663e-05
-0.00036906079
6.1192605e-05
1.5576435e-05
-0.00046142456
7.3704394e-05
1.8659376e-05
-0.00057155273
8.7982695e-05
2.2145471e-05
-0.00070167503
0.00010408427
2.6038028e-05
-0.00085402747
0.00012202349
3.0328959e-05
-0.0010308042
0.00014177631
3.5000428e-05
-0.0012341317
0.00016329745
4.0030004e-05
-0.0014660854
0.00018655369
4.540005e-05
-0.0017287697
0.00021157319
5.1111156e-05
-0.0020244715
0.00023850381
5.7197964e-05
-0.0023558645
0.00026765322
6.3739734e-05
-0.0027261934
0.00029947401
7.0854897e-05
-0.0031392587
0.0003344029
7.8662424e-05
-0.0035996075
0.00037300714
8.7341708e-05
-0.0041126278
0.00041590579
9.7114515e-05
-0.0046845961
0.0004637306
0.00010823762
-0.0053227277
0.00051712758
0.00012100409
-0.0060352483
0.00057677807
0.00013574253
-0.0068314751
0.00064341725
0.00015280947
-0.0077218931
0.00071784151
0.00017257657
-0.0087182036
0.00080089345
0.00019541699
-0.0098333194
0.00089341698
0.00022169888
-0.01108129
0.00099617696
0.00025179386
-0.012477131
0.0011097391
0.00028610122
-0.014036523
0.0012343113
0.00032508129
-0.015775359
0.0013695522
0.0003692831
-0.017708977
0.0015142932
0.00041932514
-0.019850893
0.0016661199
0.00047579642
-0.022211518
0.001821403
0.00053922131
-0.024796269
0.0019749036
0.00060984798
-0.027602986
0.0021193507
0.00068736613
-0.030617607
0.0022442223
0.00077039875
-0.033801528
0.0023299249
0.00085399632
-0.037078151
0.0023460498
0.00093057286
-0.040350475
0.0022760972
0.00099622719
-0.043483153
0.0020960562
0.0010366213
-0.04613861
0.0016772848
0.00097817207
-0.048017046
0.0010225602
0.00085587654
-0.048883093
0.00018583518
0.00068021123
-0.048294508
-0.00094549886
0.00035691416
-0.045771092
-0.0024140966
-0.00010931999
-0.040669956
-0.0042953917
-0.00080574391
-0.032464003
-0.0065058626
-0.0017000901
-0.021073511
-0.0087262971
-0.0026641948
-0.0068745418
-0.010586876
-0.0036120937
0.0090286568
-0.011570435
-0.0043327634
0.025545174
-0.011780059
-0.0047364576
0.042056982
-0.011572076
-0.0049397329
0.058420401
-0.011305809
-0.0050576102
-0.011352342
0.07487127
-0.0050985275
-2.8790505e-07
5.1664059e-07
-1.2747282e-06
1.7706538e-06
-3.1844785e-06
3.42648e-06
-6.2951588e-06
5.5810007e-06
-1.0949449e-05
8.3503982e-06
-1.7566931e-05
1.1872868e-05
-2.6657828e-05
1.6311361e-05
-3.8838118e-05
2.1856069e-05
-5.4845737e-05
2.8726409e-05
-7.5557322e-05
3.7172012e-05
-0.00010200468
4.7472236e-05
-0.00013538971
5.993343e-05
-0.00017709621
7.4883333e-05
-0.00022869637
9.2661587e-05
-0.00029194966
0.00011360603
-0.00036879147
0.00013803441
-0.00046130936
0.00016622228
-0.00057170611
0.00019837945
-0.00070225112
0.00023462927
-0.00085522527
0.00027499764
-0.0010328704
0.00031942142
-0.0012373594
0.00036778651
-0.0014708089
0.0004200031
-0.0017353532
0.00047611754
-0.0020332959
0.0005364465
-0.0023673152
0.00060167254
-0.0027406542
0.000672813
-0.0031571152
0.00075086391
-0.0036212519
0.00083714378
-0.0041384627
0.00093311662
-0.0047150376
0.0010403055
-0.0053582043
0.0011602943
-0.0060761919
0.0012947657
-0.0068783043
0.0014455296
-0.0077749865
0.0016145237
-0.0087778582
0.0018037652
-0.0098996902
0.002015249
-0.011154301
0.0022507881
-0.01255635
0.0025117881
-0.014120995
0.002798956
-0.015863379
0.0031119357
-0.017797796
0.0034487108
-0.019936328
0.0038046514
-0.022287587
0.0041726625
-0.024854661
0.0045419775
-0.027633323
0.0048980128
-0.030603878
0.0052147772
-0.033722334
0.0054483808
-0.036912261
0.0055359775
-0.040055614
0.0054194497
-0.042940918
0.0049813602
-0.045324022
0.0040603886
-0.0469354
0.0026339385
-0.047389516
0.00063995114
-0.046302846
-0.0020321685
-0.043177886
-0.0055390567
-0.037364438
-0.01010884
-0.028316815
-0.015553485
-0.016009475
-0.021033637
-0.0009444512
-0.0256519
0.015860776
-0.028375662
0.033206931
-0.029126215
0.050529833
-0.028894978
0.067658114
-0.028434089
-0.028318493
0.084624265
-2.778144e-07
7.9445499e-07
-1.2304498e-06
2.7232891e-06
-3.0747503e-06
5.2707805e-06
-6.080107e-06
8.5863574e-06
-1.0578966e-05
1.2849257e-05
-1.6978921e-05
1.8272823e-05
-2.5776354e-05
2.5108794e-05
-3.7571593e-05
3.3651308e-05
-5.3085227e-05
4.4240043e-05
-7.317526e-05
5.7262045e-05
-9.8854172e-05
7.3151148e-05
-0.00013130489
9.2384146e-05
-0.00017189395
0.00011547239
-0.00022217995
0.00014294759
-0.00028391468
0.00017534076
-0.00035903434
0.00021315408
-0.00044963849
0.00025682643
-0.0005579551
0.00030669606
-0.00068629265
0.00036296683
-0.00083698375
0.00042568874
-0.0010123298
0.0004947675
-0.0012145632
0.00057001985
-0.0014458475
0.0006512874
-0.0017083394
0.00073860942
-0.002004328
0.00083243519
-0.0023364399
0.00093378436
-0.0027078355
0.0010442086
-0.0031222338
0.0011652622
-0.0035840971
0.0012990071
-0.0040987199
0.0014477394
-0.00467227
0.0016138556
-0.0053118279
0.0017998523
-0.0060254333
0.002008371
-0.006822136
0.0022422324
-0.0077120371
0.0025044247
-0.008706289
0.002798017
-0.0098170299
0.00312599
-0.011057224
0.0034909825
-0.012440386
0.0038949498
-0.013980153
0.0043387231
-0.015689662
0.0048214444
-0.017580589
0.0053396377
-0.019661712
0.0058857752
-0.021937433
0.0064483835
-0.024406142
0.0070106858
-0.027058532
0.0075504035
-0.029865468
0.0080217125
-0.032774545
0.0083574578
-0.035701074
0.0084625068
-0.038508801
0.0082271767
-0.040998284
0.0074708435
-0.042919583
0.0059816869
-0.043947725
0.0036620809
-0.043716115
0.00040834067
-0.041857554
-0.003890729
-0.037875289
-0.0095213219
-0.031120555
-0.016863574
-0.021023317
-0.025650723
-0.0076489384
-0.034408016
0.0083745897
-0.041675428
0.025856147
-0.045857219
0.043771166
-0.047041234
0.061433913
-0.046557725
0.078613725
-0.045613901
-0.045002319
0.09529755
-2.5851202e-07
1.052967e-06
-1.1456035e-06
3.6103806e-06
-2.8641742e-06
6.9893512e-06
-5.6667256e-06
1.1388909e-05
-9.8654807e-06
1.7048012e-05
-1.5844091e-05
2.4251434e-05
-2.4071017e-05
3.333572e-05
-3.5114449e-05
4.469474e-05
-4.9658743e-05
5.8784337e-05
-6.8521852e-05
7.6125155e-05
-9.2673261e-05
9.7302557e-05
-0.00012325128
0.00012296216
-0.00016157837
0.00015379948
-0.00020917246
0.00019054168
-0.00026775181
0.00023392012
-0.00033923069
0.00028463295
-0.00042570278
0.00034329853
-0.00052941042
0.0004104037
-0.00065269889
0.00048625529
-0.00079795875
0.00057094861
-0.00096756455
0.0006643733
-0.0011638241
0.00076627937
-0.0013889598
0.00087642317
-0.0016451475
0.00099479708
-0.0019346326
0.0011219203
-0.00225993
0.0012590818
-0.0026240329
0.0014083116
-0.0030305311
0.0015717604
-0.0034836763
0.0017521523
-0.0039885256
0.0019525887
-0.0045509836
0.0021763136
-0.0051778236
0.0024266923
-0.0058767052
0.0027072526
-0.0066561911
0.0030217183
-0.0075257469
0.0033739805
-0.0084956952
0.0037679653
-0.0095770912
0.004207386
-0.01078149
0.0046953809
-0.01212058
0.0052340399
-0.013605659
0.0058238026
-0.015246894
0.0064626796
-0.017052289
0.0071450327
-0.019026402
0.0078598873
-0.021168598
0.0085905796
-0.023471976
0.0093140638
-0.025920342
0.0099987692
-0.028478444
0.010579815
-0.031089076
0.01096809
-0.03366305
0.011036481
-0.0360574
0.010621527
-0.038066345
0.0094797883
-0.039422126
0.0073374687
-0.039781639
0.0040215934
-0.038787366
-0.00058593219
-0.036083992
-0.0065941034
-0.031214627
-0.014390687
-0.023542716
-0.024535485
-0.012491073
-0.036702366
0.0016862607
-0.048585349
0.018192585
-0.058181752
0.035801801
-0.063466435
0.053445847
-0.064685279
0.07044841
-0.063560288
0.086584278
-0.061749769
-0.060407158
0.10198912
-2.3007705e-07
1.2830441e-06
-1.0205001e-06
4.4008037e-06
-2.553409e-06
8.5222601e-06
-5.0560788e-06
1.3891579e-05
-8.8103912e-06
2.0802324e-05
-1.4163938e-05
2.960498e-05
-2.1542786e-05
4.0714568e-05
-3.1466074e-05
5.4618028e-05
-4.4562209e-05
7.1880472e-05
-6.1586681e-05
9.3149626e-05
-8.3440756e-05
0.00011915663
-0.00011119056
0.00015071196
-0.00014608494
0.00018869387
-0.00018957084
0.00023402758
-0.00024330318
0.00028765246
-0.00030914686
0.00035047663
-0.00038916699
0.00042331865
-0.00048560458
0.0005068413
-0.00060083536
0.00060148606
-0.00073731223
0.00070742548
-0.00089749693
0.00082455801
-0.0010837933
0.00095257573
-0.0012985023
0.0010911322
-0.0015438265
0.0012401212
-0.0018219464
0.0014000402
-0.0021351974
0.0015723327
-0.0024863176
0.0017594318
-0.0028787856
0.0019642284
-0.0033165164
0.002189883
-0.0038041676
0.0024402399
-0.0043472316
0.0027193776
-0.0049520208
0.0030314815
-0.0056256375
0.0033808693
-0.006375947
0.0037720278
-0.0072115267
0.0042095602
-0.0081415634
0.0046980021
-0.0091756659
0.0052414885
-0.010323555
0.0058432695
-0.011594601
0.0065050868
-0.012997223
0.0072264247
-0.014538116
0.0080035722
-0.016221237
0.0088281533
-0.018046723
0.0096853742
-0.020009133
0.010552989
-0.022097438
0.011402369
-0.024289769
0.0121911
-0.026547863
0.012837908
-0.028812524
0.013232751
-0.030991437
0.013215394
-0.032937265
0.012567354
-0.034434985
0.010977508
-0.035190061
0.0080925449
-0.03483302
0.0036645524
-0.033007536
-0.0024114164
-0.029392501
-0.010209139
-0.023608227
-0.020174961
-0.01504786
-0.033095852
-0.0031741365
-0.04857609
0.011485398
-0.063244883
0.027985968
-0.074682323
0.045054041
-0.080534508
0.061621022
-0.08125226
0.077160646
-0.079099911
0.091616143
-0.076205267
-0.074187415
0.1053964
-1.9298012e-07
1.4760242e-06
-8.571393e-07
5.0649628e-06
-2.1472929e-06
9.8124137e-06
-4.2573991e-06
1.6001685e-05
-7.4291471e-06
2.3974072e-05
-1.196211e-05
3.4137943e-05
-1.8225696e-05
4.6978153e-05
-2.6672956e-05
6.3065288e-05
-3.7856488e-05
8.3064004e-05
-5.2446219e-05
0.00010773936
-7.1248952e-05
0.00013795937
-9.5229175e-05
0.00017469218
-0.00012553018
0.00021899487
-0.00016349389
0.00027199129
-0.00021067735
0.00033483592
-0.00026886273
0.00040866201
-0.0003400571
0.00049451302
-0.00042647742
0.00059326162
-0.00053051695
0.0007055256
-0.00065469064
0.00083159916
-0.00080156083
0.0009714282
-0.00097365277
0.0011246677
-0.0011733777
0.0012908572
-0.0014029927
0.0014697362
-0.0016646256
0.0016616731
-0.0019604055
0.0018681126
-0.0022927621
0.0020917884
-0.0026648958
0.0023363621
-0.0030803554
0.0026053427
-0.0035432734
0.0029031579
-0.0040585909
0.0032346951
-0.0046320091
0.0036048997
-0.0052699148
0.004018775
-0.0059792991
0.004481412
-0.0067676505
0.0049979116
-0.0076427955
0.0055731471
-0.0086126422
0.0062113352
-0.0096847912
0.0069154185
-0.010866002
0.0076862978
-0.012161614
0.0085220361
-0.013574816
0.0094167748
-0.01510555
0.010358887
-0.016749683
0.011329508
-0.018498001
0.012301307
-0.020336561
0.013240928
-0.022239488
0.014094028
-0.024167354
0.014765774
-0.026060327
0.015125724
-0.02782371
0.014978777
-0.02930491
0.014048554
-0.03027469
0.011947289
-0.030409083
0.0082269375
-0.029304857
0.0025603261
-0.026589922
-0.0051263505
-0.022000332
-0.014798728
-0.015275557
-0.026899736
-0.0058606033
-0.042510806
0.0066335526
-0.061070245
0.021413509
-0.07802484
0.03741796
-0.090686774
0.053303448
-0.096419995
0.068174571
-0.096123384
0.081818228
-0.092743568
0.094495985
-0.088883023
-0.086580536
0.10688911
-1.4817343e-07
1.6241976e-06
-6.5963285e-07
5.5764223e-06
-1.655858e-06
1.0808639e-05
-3.2900579e-06
1.7635885e-05
-5.7545578e-06
2.6438572e-05
-9.2897372e-06
3.7673123e-05
-1.4194731e-05
5.1883147e-05
-2.0840209e-05
6.9710765e-05
-2.9683438e-05
9.1907234e-05
-4.1285835e-05
0.00011934175
-5.6333026e-05
0.00015300656
-7.5657363e-05
0.00019401652
-0.00010026209
0.0002435996
-0.00013134653
0.00030307573
-0.00017032997
0.00037381935
-0.00021887153
0.00045720358
-0.00027888192
0.00055452341
-0.00035252147
0.00066690116
-0.00044217821
0.00079518234
-0.00055042065
0.00093984161
-0.00067992182
0.0011009294
-0.00083335777
0.0012781036
-0.0010132961
0.0014707955
-0.0012221023
0.0016785424
-0.0014619052
0.001901476
-0.0017346758
0.0021408832
-0.0020424814
0.002399594
-0.0023878768
0.0026817575
-0.00277415
0.0029916159
-0.0032048518
0.0033338597
-0.00368422
0.0037140633
-0.0042172002
0.0041378799
-0.0048093295
0.0046109043
-0.0054665855
0.005138668
-0.0061952261
0.0057265522
-0.0070015701
0.0063794911
-0.0078916695
0.0071014346
-0.0088708476
0.0078945967
-0.0099432006
0.0087586508
-0.011111062
0.0096898979
-0.012374209
0.010679922
-0.013728863
0.01171354
-0.015166979
0.012767624
-0.016676357
0.013810684
-0.018240512
0.014805083
-0.019830777
0.015684292
-0.021406804
0.016341801
-0.022907563
0.016626483
-0.02423543
0.016306644
-0.025231707
0.015044832
-0.025651631
0.012367212
-0.025139558
0.0077148646
-0.023260586
0.00068135459
-0.019624276
-0.0087626604
-0.014052588
-0.020370416
-0.0064062867
-0.034546038
0.0037626386
-0.052679731
0.016638269
-0.073945876
0.031164161
-0.092550732
0.046142478
-0.10566509
0.060310607
-0.11058812
0.07313825
-0.10895103
0.084851276
-0.10445659
0.096070721
-0.10010247
-0.098128697
0.10761888
-9.7136209e-08
1.7213338e-06
-4.34415e-07
5.9137011e-06
-1.0949416e-06
1.1469165e-05
-2.1848419e-06
1.8725785e-05
-3.8391864e-06
2.8092917e-05
-6.2293293e-06
4.0063266e-05
-9.5720212e-06
5.5225839e-05
-1.4140691e-05
7.4279435e-05
-2.0279183e-05
9.8045727e-05
-2.8418547e-05
0.00012748112
-3.9097109e-05
0.00016368512
-5.2984097e-05
0.00020790351
-7.0906969e-05
0.00026152247
-9.3881569e-05
0.00032605033
-0.00012314425
0.00040308204
-0.00016018291
0.00049424223
-0.0002067631
0.0006011036
-0.00026494304
0.0007250811
-0.00033706907
0.00086730836
-0.00042574201
0.0010285146
-0.0005337464
0.0012089338
-0.00066393833
0.0014082955
-0.00081910002
0.0016259572
-0.0010017864
0.0018612287
-0.0012142117
0.0021139013
-0.0014582261
0.0023848976
-0.001735462
0.0026768299
-0.0020477741
0.0029940696
-0.0023979924
0.0033418342
-0.0027892276
0.003725095
-0.0032248184
0.0041496541
-0.0037087934
0.0046218549
-0.0042457161
0.0051478269
-0.0048404597
0.0057334117
-0.0054979684
0.0063840609
-0.0062229709
0.0071044935
-0.0070195867
0.0078980504
-0.0078908497
0.0087658597
-0.0088382897
0.0097060908
-0.009861328
0.010712936
-0.010956422
0.011775016
-0.012116438
0.012873556
-0.013329853
0.01398104
-0.014581738
0.015062569
-0.015852025
0.016075371
-0.017109474
0.016941741
-0.018311387
0.017543714
-0.019393204
0.0177083
-0.020251793
0.017165233
-0.020720043
0.015513082
-0.020538411
0.012185581
-0.019326662
0.0065031151
-0.016631486
-0.0020138211
-0.012078495
-0.013315652
-0.0056206346
-0.026828277
0.0028386573
-0.04300533
0.013602029
-0.063443103
0.02657783
-0.086921677
0.040394597
-0.1063675
0.053880135
-0.11915063
0.065972418
-0.12268041
0.076708942
-0.11968755
0.086786294
-0.11453395
0.097075983
-0.11039216
-0.1093824
0.10832969
-4.1835266e-08
1.7631691e-06
-1.9010006e-07
6.0619658e-06
-4.8581052e-07
1.1764876e-05
-9.8325407e-07
1.9223229e-05
-1.7541402e-06
2.8863803e-05
-2.8930352e-06
4.1202161e-05
-4.524481e-06
5.6857285e-05
-6.8121699e-06
7.6567124e-05
-9.9708804e-06
0.00010120444
-1.4281683e-05
0.00013179192
-2.0111248e-05
0.00016951468
-2.7935887e-05
0.00021572815
-3.837101e-05
0.00027195759
-5.220587e-05
0.00033988519
-7.0443608e-05
0.00042131978
-9.4344262e-05
0.00051814289
-0.00012546732
0.00063222666
-0.00016570701
0.00076532079
-0.00021731128
0.00091891263
-0.00028287075
0.001094074
-0.00036526311
0.0012913261
-0.00046754136
0.0015105738
-0.00059276146
0.0017511773
-0.00074376778
0.0020122351
-0.00092298196
0.0022931155
-0.0011322708
0.0025941864
-0.0013729811
0.0029175402
-0.0016462421
0.0032673306
-0.0019537441
0.0036493362
-0.0022982586
0.0040696094
-0.0026825872
0.0045339827
-0.0031096583
0.0050489261
-0.0035828192
0.0056209878
-0.0041057143
0.0062563067
-0.0046819312
0.0069602779
-0.0053145888
0.0077371511
-0.0060058785
0.0085893401
-0.0067566372
0.0095166185
-0.0075659182
0.010515372
-0.0084302793
0.011577297
-0.0093429999
0.012687737
-0.010293679
0.013824235
-0.011267504
0.014954865
-0.012246425
0.01604149
-0.013205327
0.017034272
-0.014108757
0.017845171
-0.014908492
0.01834345
-0.01553236
0.018332168
-0.015867267
0.01750014
-0.015734909
0.015380723
-0.014865447
0.01131612
-0.012875387
0.0045130553
-0.0093232324
-0.0055659761
-0.0039306422
-0.018708242
0.0032178566
-0.033976775
0.012273081
-0.052060554
0.023395545
-0.074565567
0.036157934
-0.099684066
0.048851802
-0.11906137
0.060462571
-0.1307614
0.070318574
-0.13253641
0.079197776
-0.12856675
0.088129408
-0.12346558
0.098013733
-0.12027648
-0.12071398
0.10934532
1.5293391e-08
1.7478757e-06
6.2646515e-08
6.0146127e-06
1.4515131e-07
1.1682371e-05
2.6310547e-07
1.9105274e-05
4.11856e-07
2.8715052e-05
5.7861605e-07
4.1035401e-05
7.3780257e-07
5.6698099e-05
8.4444283e-07
7.6460483e-05
8.2482586e-07
0.00010122405
5.637363e-07
0.00013205301
-1.1307849e-07
0.0001701915
-1.461955e-06
0.00021707703
-3.8515318e-06
0.00027434717
-7.8008835e-06
0.00034383454
-1.402615e-05
0.00042754504
-2.3495034e-05
0.00052761177
-3.7486307e-05
0.00064621794
-5.7648928e-05
0.00078548341
-8.6049765e-05
0.00094731347
-0.0001251952
0.0011332195
-0.00017800569
0.0013441366
-0.00024772072
0.0015802888
-0.00033771678
0.0018411733
-0.00045124137
0.0021257597
-0.00059110176
0.0024329759
-0.00075938866
0.0027624733
-0.00095736466
0.0031155162
-0.0011856605
0.0034956264
-0.0014448116
0.0039084873
-0.0017361511
0.004360949
-0.002061964
0.0048597955
-0.002424596
0.0054115581
-0.0028261813
0.0060225731
-0.0032689752
0.0066991007
-0.0037551218
0.0074464244
-0.0042860949
0.0082681242
-0.0048621996
0.0091654448
-0.0054821679
0.010136587
-0.0061426292
0.011175833
-0.0068373571
0.012272025
-0.0075565681
0.013406948
-0.0082863364
0.014554003
-0.0090083636
0.015676892
-0.0097001032
0.01673323
-0.010329812
0.017663981
-0.010855183
0.018370542
-0.011218449
0.018706717
-0.011335233
0.018448951
-0.011078306
0.017243213
-0.010258085
0.014560501
-0.008604394
0.0096624288
-0.0057692608
0.0016779221
-0.0013550147
-0.0099802222
0.0046905368
-0.024753794
0.012298997
-0.041585235
0.021723109
-0.061484667
0.032952098
-0.085794556
0.045070818
-0.11180279
0.056342855
-0.1303334
0.065738485
-0.14015703
0.073509561
-0.14030749
0.080969483
-0.13602667
0.089281353
-0.13177745
0.099132274
-0.1301274
-0.13226172
0.11068001
7.1336805e-08
1.6765389e-06
3.110311e-07
5.7749184e-06
7.6619574e-07
1.1227206e-05
1.4919172e-06
1.8379553e-05
2.5512846e-06
2.7655685e-05
4.0147248e-06
3.957196e-05
5.9582233e-06
5.47546e-05
8.4598237e-06
7.3958883e-05
1.1593704e-05
9.8090174e-05
1.5420739e-05
0.00012822598
1.9974309e-05
0.00016563793
2.5239614e-05
0.00021181172
3.1124916e-05
0.00026846187
3.742231e-05
0.00033753715
4.3756931e-05
0.00042121042
4.9523061e-05
0.00052184564
5.3808411e-05
0.00064193259
5.5311076e-05
0.00078398074
5.2257988e-05
0.00095036656
4.2341769e-05
0.0011431357
2.2700458e-05
0.0013637779
-1.0027695e-05
0.001613017
-5.9544372e-05
0.00189069
-0.00012960165
0.0021958169
-0.00022359944
0.0025269737
-0.00034415073
0.0028830246
-0.00049275775
0.0032641232
-0.00066978753
0.0036726562
-0.00087495096
0.0041136507
-0.0011081035
0.0045941015
-0.0013698911
0.0051215832
-0.0016614679
0.0057031349
-0.0019843016
0.0063454068
-0.002339651
0.0070544501
-0.0027281765
0.0078349498
-0.0031496536
0.0086896014
-0.0036025361
0.0096183272
-0.0040834747
0.010617525
-0.0045867002
0.011679059
-0.0051032805
0.012788606
-0.0056203437
0.013924011
-0.0061201934
0.015053853
-0.0065802756
0.016136974
-0.0069715837
0.017124538
-0.0072546502
0.017947048
-0.0073778082
0.0184937
-0.0072705348
0.018599443
-0.0068334937
0.01801191
-0.0059237538
0.016333474
-0.00434375
0.012980498
-0.0018437807
0.0071624595
0.0018660159
-0.0020318746
0.0070150485
-0.015129255
0.013518494
-0.031257239
0.021371666
-0.049438407
0.030964321
-0.071077321
0.042059953
-0.096890188
0.053013774
-0.12275661
0.062533975
-0.13985361
0.069694876
-0.14731793
0.075805359
-0.14641797
0.08237393
-0.14259525
0.090485918
-0.13988944
0.1004696
-0.14011108
-0.14398619
0.11219408
1.2304328e-07
1.5534956e-06
5.4070824e-07
5.3572535e-06
1.3416218e-06
1.0426293e-05
2.6328738e-06
1.7088301e-05
4.5423826e-06
2.5746176e-05
7.2208947e-06
3.6893448e-05
1.0843411e-05
5.1132084e-05
1.5609324e-05
6.9192969e-05
2.1740593e-05
9.1958905e-05
2.9476808e-05
0.00012048976
3.9065632e-05
0.0001560491
5.0746821e-05
0.00020013053
6.4727202e-05
0.00025448149
8.1143935e-05
0.00032112042
0.00010001303
0.00040234133
0.00012116026
0.0005006984
0.00014413333
0.00061895952
0.00016809632
0.00076001775
0.00019171347
0.00092674942
0.00021303716
0.001121812
0.00022942611
0.001347389
0.00023753288
0.0016049102
0.00023340967
0.0018948132
0.00021277509
0.0022164515
0.00017146271
0.0025682861
0.00010600681
0.0029484805
1.4220678e-05
0.0033559094
-0.00010449433
0.0037913712
-0.00024933767
0.004258494
-0.00041887802
0.0047636419
-0.00061196861
0.0053146737
-0.00082821411
0.0059193804
-0.001067632
0.0065848247
-0.0013301648
0.0073169829
-0.0016151866
0.0081199716
-0.0019210239
0.0089954386
-0.0022444295
0.0099417328
-0.0025800525
0.010953148
-0.0029197486
0.012018755
-0.0032517858
0.013120643
-0.0035599817
0.014232207
-0.0038227289
0.0153166
-0.0040123388
0.016326584
-0.0040923136
0.017204512
-0.0040144508
0.017869185
-0.0037159832
0.018195232
-0.0031122134
0.017995674
-0.0020893173
0.016989014
-0.00049249064
0.014736647
0.0018700515
0.010617955
0.005210288
0.0038222231
0.0097332227
-0.0065548093
0.015463966
-0.020859998
0.022207862
-0.038001135
0.030144456
-0.057375001
0.039779317
-0.080712182
0.050474672
-0.10758554
0.059990022
-0.13227196
0.067377618
-0.1472412
0.072568341
-0.15250865
0.07749783
-0.15134746
0.083668759
-0.14876618
0.091822046
-0.14804272
0.10193616
-0.1502252
-0.15576718
0.11371714
1.6685197e-07
1.3866436e-06
7.359061e-07
4.7881993e-06
1.8320078e-06
9.3301912e-06
3.6080594e-06
1.5312249e-05
6.2496203e-06
2.3104615e-05
9.9797384e-06
3.316333e-05
1.5063642e-05
4.604818e-05
2.1812913e-05
6.2443698e-05
3.0588341e-05
8.3183477e-05
4.1800443e-05
0.00010927766
5.5906171e-05
0.00014194338
7.3399536e-05
0.00018263717
9.4793666e-05
0.00023308736
0.00012059045
0.00029532363
0.00015123375
0.00037169803
0.00018704148
0.00046489067
0.00022811239
0.00057788861
0.00027420498
0.00071392516
0.00032459119
0.00087636321
0.00037789436
0.0010685088
0.00043193544
0.0012933479
0.00048362766
0.001553218
0.00052897955
0.0018494614
0.00056327804
0.002182153
0.00058151167
0.0025500524
0.00057904298
0.0029509492
0.00055242795
0.0033825244
0.00050014283
0.0038436564
0.0004228691
0.0043357678
0.00032299078
0.0048635202
0.00020332162
0.0054343429
6.6389243e-05
0.0060563127
-8.5950791e-05
0.0067371647
-0.00025209469
0.0074831268
-0.00042987765
0.0082977546
-0.00061615035
0.0091817113
-0.00080603477
0.010131617
-0.00099222922
0.011139343
-0.0011642341
0.01219076
-0.0013074893
0.013263898
-0.0014023639
0.014327081
-0.0014231052
0.015337342
-0.0013362763
0.016239755
-0.0010977374
0.016965973
-0.00064987309
0.017421321
8.193867e-05
0.01746342
0.0011928116
0.016884801
0.00280937
0.015372456
0.0050875616
0.012458455
0.0081981744
0.0075073427
0.012297278
-0.00027688046
0.017494599
-0.01175213
0.023610277
-0.026975676
0.030416689
-0.044807547
0.038405726
-0.065364038
0.048017378
-0.090323834
0.05789015
-0.11745832
0.065657572
-0.14003938
0.070876814
-0.15246044
0.074578788
-0.15621063
0.078858765
-0.15562744
0.084981548
-0.15488896
0.093246083
-0.15630726
0.1033983
-0.16037742
-0.1674876
0.11511872
1.9941983e-07
1.1872238e-06
8.8176255e-07
4.1058566e-06
2.2000743e-06
8.0118794e-06
4.3433865e-06
1.3168937e-05
7.5434179e-06
1.9904584e-05
1.2081989e-05
2.8624759e-05
1.8299034e-05
3.9831135e-05
2.6600773e-05
5.414196e-05
3.7467639e-05
7.2316611e-05
5.1460895e-05
9.5284403e-05
6.9226676e-05
0.0001241776
9.1495406e-05
0.00016036844
0.00011907373
0.00020550903
0.00015282505
0.00026157231
0.00019363362
0.00033088947
0.0002423459
0.00041617839
0.00029968248
0.00052055203
0.00036611345
0.00064749419
0.00044169377
0.0008007829
0.00052586083
0.00098434175
0.00061720934
0.0012019994
0.0007132785
0.0014571488
0.00081041353
0.0017523263
0.00090379109
0.0020887755
0.00098771411
0.0024661294
0.0010562535
0.0028824099
0.0011042237
0.0033345542
0.0011282995
0.0038195806
0.0011278588
0.0043362084
0.0011051555
0.0048862235
0.0010631467
0.0054763517
0.0010096857
0.0061097738
0.00094744956
0.0067994008
0.00088028413
0.0075502922
0.00081205394
0.0083659848
0.00074751771
0.0092462476
0.00069335629
0.010185779
0.00065877062
0.011173929
0.00065657282
0.012192957
0.0007041222
0.013216349
0.00082446023
0.014206743
0.0010476497
0.015114152
0.0014129598
0.015874445
0.0019719043
0.016407029
0.0027907286
0.016602497
0.0039529423
0.016301207
0.0055643147
0.015273428
0.0077529096
0.013183861
0.010663772
0.0095475927
0.014434222
0.003736893
0.019176566
-0.0050192243
0.024877441
-0.017453006
0.031149266
-0.033247502
0.037924634
-0.051582914
0.046060421
-0.073499824
0.055509547
-0.09977296
0.064132779
-0.12608155
0.069879297
-0.1457859
0.073212534
-0.15579368
0.075973932
-0.15897202
0.080075825
-0.15972933
0.086323737
-0.16113687
0.094654055
-0.16463758
0.10473904
-0.1704624
-0.17907532
0.11632677
2.1802934e-07
9.6919447e-07
9.6602713e-07
3.3578588e-06
2.4147751e-06
6.5631315e-06
4.7766279e-06
1.0807084e-05
8.3139082e-06
1.6367303e-05
1.3348591e-05
2.3590077e-05
2.0273127e-05
3.2906599e-05
2.956246e-05
4.4852626e-05
4.1786742e-05
6.0092329e-05
5.7624227e-05
7.9446917e-05
7.787325e-05
0.00010392857
0.00010346168
0.00013478001
0.00013545099
0.00017351971
0.00017503175
0.00022199155
0.00022350449
0.00028241672
0.00028223959
0.00035744329
0.00035260644
0.00045018518
0.00043586235
0.00056423829
0.00053298953
0.00070365572
0.00064447442
0.00087285686
0.00077003035
0.0010764435
0.00090828452
0.0013188946
0.0010564801
0.0016041308
0.0012102844
0.0019349711
0.0013638378
0.0023125761
0.0015101928
0.0027360548
0.0016422499
0.0032024971
0.0017541423
0.0037076883
0.001842751
0.0042475996
0.0019085517
0.0048204229
0.0019555073
0.0054293961
0.0019891601
0.0060761209
0.0020174481
0.0067711128
0.0020498946
0.0075178458
0.0020916189
0.0083242605
0.0021494263
0.0091884401
0.0022312818
0.010103923
0.0023481827
0.011057028
0.0025153846
0.012025755
0.0027530328
0.0129787
0.0030875191
0.013872257
0.0035531166
0.014648554
0.0041942877
0.015233274
0.0050688612
0.015532456
0.0062501542
0.015421203
0.0078281974
0.014723164
0.0099117697
0.013189856
0.012625808
0.010469822
0.016094173
0.0060792282
0.02042098
-0.00058991449
0.025678796
-0.01027704
0.031654232
-0.023428442
0.037853084
-0.039446353
0.044682778
-0.058412608
0.053105947
-0.081922993
0.062069739
-0.10873675
0.068954479
-0.13296629
0.072674252
-0.14950567
0.074651374
-0.1577708
0.077027647
-0.1613483
0.081244092
-0.16394577
0.087631782
-0.16752456
0.095936887
-0.17294268
0.10588343
-0.18040895
-0.19050491
0.11731302
2.2110486e-07
7.4808961e-07
9.815225e-07
2.5974412e-06
2.4576844e-06
5.0869695e-06
4.8702609e-06
8.394508e-06
8.493719e-06
1.2743845e-05
1.3667527e-05
1.8416269e-05
2.080924e-05
2.5764886e-05
3.042947e-05
3.5232396e-05
4.3148738e-05
4.7373061e-05
5.9715994e-05
6.2879662e-05
8.1028137e-05
8.261643e-05
0.00010814946
0.00010765868
0.00014232915
0.00013934003
0.0001850135
0.0001793072
0.00023784851
0.00022958171
0.00030266551
0.0002926263
0.00038144034
0.00037141034
0.00047621318
0.00046946545
0.00058895389
0.00059091501
0.00072135567
0.00074045507
0.00087454513
0.000923254
0.001048707
0.0011447328
0.0012426496
0.0014101882
0.0014533795
0.0017242412
0.0016758169
0.0020901386
0.0019028439
0.0025090279
0.0021259023
0.0029794387
0.0023362816
0.0034973089
0.0025270102
0.0040568711
0.0026950331
0.0046523999
0.0028447774
0.0052796518
0.0029789496
0.0059419488
0.0031072224
0.00664284
0.0032387118
0.0073863563
0.0033876386
0.0081753337
0.0035649789
0.0090110999
0.0037802015
0.0098887005
0.0040462881
0.010790941
0.0043801479
0.011691896
0.0048044317
0.012554417
0.0053487292
0.013327959
0.0060511696
0.013946114
0.0069606471
0.014323797
0.0081397846
0.014353318
0.009666621
0.013894367
0.011634111
0.012755674
0.014149356
0.010674611
0.017326178
0.0072930009
0.021265213
0.0021401926
0.026049069
-0.0053737705
0.031644237
-0.015872208
0.037589608
-0.029373813
0.043635159
-0.045491904
0.050822407
-0.065599857
0.059497101
-0.090597687
0.067408054
-0.11664771
0.072225278
-0.13778351
0.074247395
-0.15152779
0.075484411
-0.15900782
0.077906523
-0.16377041
0.08235335
-0.1683926
0.088812887
-0.1739841
0.097015926
-0.18114572
0.10679605
-0.19018907
-0.20177629
0.11806743
2.0923653e-07
5.3885308e-07
9.3052484e-07
1.8761529e-06
2.3337863e-06
3.6837081e-06
4.6327309e-06
6.0955634e-06
8.0948262e-06
9.2817501e-06
1.3053265e-05
1.345783e-05
1.9921208e-05
1.8896943e-05
2.920861e-05
2.5944995e-05
4.1541911e-05
3.503976e-05
5.768666e-05
4.6734913e-05
7.8573112e-05
6.1729977e-05
0.00010532429
8.0907507e-05
0.00013928558
0.00010537874
0.00018205382
0.00013653896
0.0002355024
0.00017613313
0.00030179688
0.00022633182
0.00038339224
0.00028981498
0.00048299935
0.00036985834
0.00060350271
0.00047041165
0.00074780742
0.00059615036
0.0009185897
0.00075247171
0.0011179282
0.00094539432
0.0013468077
0.0011813087
0.0016045222
0.0014665267
0.0018880654
0.0018065954
0.0021916885
0.0022054048
0.0025068995
0.0026642276
0.0028232213