/*--------------------------------*- C++ -*----------------------------------*\
  =========                 |
  \\      /  F ield         | OpenFOAM: The Open Source CFD Toolbox
   \\    /   O peration     | Website:  https://openfoam.org
    \\  /    A nd           | Version:  13
     \\/     M anipulation  |
\*---------------------------------------------------------------------------*/
FoamFile
{
    format      ascii;
    class       volScalarField;
    location    "44.801255";
    object      pMean;
}
// * * * * * * * * * * * * * * * * * * * * * * * * * * * * * * * * * * * * * //

dimensions      [0 2 -2 0 0 0 0];

internalField   nonuniform List<scalar> 
17140
(
0.87031564
0.87024527
0.87016035
0.87007348
0.86997937
0.86987663
0.86976508
0.8696444
0.86951429
0.86937442
0.86922463
0.86906469
0.86889439
0.86871337
0.86852098
0.86831609
0.86809667
0.8678594
0.86759899
0.86730757
0.86697359
0.8665808
0.86610687
0.86552167
0.86478493
0.8638469
0.86265766
0.86117284
0.85934936
0.85713703
0.85446706
0.85125582
0.84741157
0.84283342
0.83741582
0.83105409
0.82365051
0.81512098
0.80540307
0.79446855
0.78234142
0.76912073
0.75501239
0.74035953
0.72565485
0.71157424
0.69891962
0.68840237
0.68074429
0.67656985
0.67633786
0.6803472
0.68884969
0.70179868
0.71912029
0.74014154
0.76473148
0.79134749
0.82148756
0.85204376
0.88704529
0.91686441
0.95221
0.97049144
0.99908287
0.86924509
0.86917609
0.8690928
0.86900774
0.86891557
0.86881486
0.86870547
0.86858715
0.86845954
0.86832238
0.86817548
0.86801865
0.86785165
0.86767419
0.86748565
0.8672849
0.86707001
0.86683771
0.86658285
0.86629761
0.86597058
0.86558565
0.86512061
0.86454558
0.86382051
0.86289562
0.86172064
0.86025116
0.85844381
0.85624773
0.85359364
0.85039768
0.84656805
0.84200354
0.83659819
0.83024672
0.82285075
0.81432535
0.80460733
0.7936675
0.78152896
0.76828996
0.75415586
0.73946957
0.72472911
0.71060874
0.69789818
0.68734479
0.67965934
0.67544391
0.67516388
0.67911841
0.68754432
0.70039994
0.71761733
0.73851704
0.76299483
0.78958852
0.82000908
0.8511537
0.88669649
0.91685775
0.95217245
0.97005256
0.99849442
0.8667597
0.86669413
0.86661506
0.86653414
0.86644637
0.8663504
0.86624615
0.86613335
0.86601165
0.8658808
0.86574061
0.86559095
0.86543164
0.86526241
0.86508273
0.86489161
0.86468719
0.8644664
0.8642243
0.8639533
0.86364231
0.86327548
0.862831
0.86227942
0.86158128
0.86068673
0.85954457
0.85810949
0.85633756
0.85417757
0.85155986
0.84839991
0.84460543
0.84007438
0.83469968
0.82837453
0.82099883
0.81248569
0.80276979
0.79181989
0.77965699
0.76637823
0.7521893
0.73743504
0.72262304
0.70843649
0.69564779
0.68501948
0.67727493
0.67300597
0.67265905
0.67651935
0.68482145
0.69752552
0.7145653
0.73526342
0.75954211
0.78602407
0.81670375
0.84853568
0.88493226
0.91570542
0.95126111
0.9690591
0.99760646
0.86290458
0.8628444
0.86277203
0.86269749
0.86261658
0.86252816
0.86243204
0.8623279
0.86221541
0.86209445
0.86196483
0.86182642
0.86167915
0.86152279
0.86135695
0.86118074
0.86099255
0.86078958
0.86056716
0.86031811
0.86003173
0.8596927
0.85927974
0.85876404
0.8581071
0.85725923
0.85616785
0.85478562
0.85306788
0.85096336
0.8484023
0.84529905
0.84156046
0.83708327
0.83175854
0.82547725
0.81813657
0.80964658
0.79993875
0.78897848
0.77678383
0.76345084
0.74918611
0.73433896
0.71943088
0.70515434
0.69226731
0.6815538
0.67373888
0.66940517
0.66898072
0.67272905
0.68087279
0.69337101
0.71016339
0.73056737
0.75453308
0.78084832
0.81180107
0.84448896
0.8819138
0.91360949
0.94971423
0.96763983
0.99647674
0.85779993
0.85774698
0.85768356
0.85761769
0.85754607
0.8574677
0.85738239
0.85728984
0.85718983
0.85708222
0.85696681
0.85684353
0.85671235
0.85657319
0.85642576
0.85626939
0.85610271
0.85592316
0.85572657
0.85550619
0.85525192
0.85494903
0.854577
0.8541079
0.85350445
0.85271796
0.8516939
0.85038139
0.84873493
0.84670385
0.84421825
0.84119146
0.83752885
0.83312572
0.82787081
0.82165216
0.8143635
0.80591101
0.79622192
0.7852574
0.77303197
0.75964067
0.7452921
0.73034341
0.71533398
0.70095805
0.68797095
0.67717841
0.66930293
0.66491691
0.6644193
0.66804997
0.6760182
0.68828141
0.70478142
0.72483583
0.74846508
0.77469557
0.80601677
0.83975789
0.87836623
0.91113912
0.94788173
0.96605399
0.99516676
0.85164309
0.85159899
0.8515465
0.85149128
0.85143109
0.85136511
0.85129313
0.85121494
0.85113028
0.85103901
0.85094105
0.85083637
0.850725
0.85060692
0.85048198
0.85034967
0.8502089
0.85005751
0.8498917
0.84970531
0.84948891
0.84922858
0.84890465
0.84849026
0.84794951
0.84723561
0.84629225
0.84506425
0.84350409
0.84156135
0.83916709
0.83623438
0.8326662
0.82835624
0.82319072
0.81705441
0.80983698
0.80144001
0.79178569
0.78083025
0.76858458
0.75514291
0.74071683
0.7256741
0.71057366
0.69610434
0.68303679
0.67218701
0.66427269
0.6598552
0.65930427
0.66283014
0.67063003
0.6826541
0.69884131
0.71851972
0.74181239
0.76806154
0.79999698
0.83493902
0.87483016
0.90873105
0.94602077
0.96438318
0.99371719
0.84470151
0.84466748
0.84462711
0.84458416
0.84453718
0.84448553
0.84442903
0.84436742
0.84430055
0.84422827
0.84415056
0.84406741
0.84397888
0.84388505
0.84378586
0.84368098
0.84356953
0.84344969
0.84331814
0.84316932
0.84299448
0.84278059
0.84250901
0.84215407
0.84168146
0.84104651
0.84019307
0.83906162
0.83759939
0.83575562
0.83346473
0.83064026
0.82718204
0.82298226
0.8179246
0.81189043
0.80476514
0.79644521
0.78684729
0.77592245
0.76367784
0.75020728
0.73572662
0.72061588
0.70544907
0.69091366
0.67779766
0.66691468
0.65898434
0.65455535
0.65397067
0.65741269
0.66506873
0.67688091
0.69279459
0.71214418
0.735212
0.76167942
0.79443773
0.83067961
0.87187229
0.90674977
0.94435973
0.96275829
0.99213873
0.83729882
0.83727574
0.83724823
0.83721878
0.83718634
0.83715046
0.83711095
0.83706766
0.83702045
0.83696916
0.8369138
0.83685441
0.83679106
0.83672383
0.83665277
0.83657764
0.83649773
0.83641154
0.83631612
0.83620647
0.83607455
0.83590822
0.83568997
0.83539543
0.83499195
0.83443703
0.83367704
0.83264921
0.83129262
0.82955469
0.82737439
0.82466682
0.8213304
0.8172548
0.81232157
0.80640877
0.79939757
0.79117921
0.78166478
0.77080021
0.75858929
0.74512573
0.73063059
0.71549641
0.70030202
0.68574178
0.67261188
0.66171475
0.65378011
0.64935116
0.64874843
0.65212839
0.65966918
0.67131867
0.68702412
0.70617513
0.72922312
0.75615766
0.78994636
0.8275095
0.86981716
0.90540196
0.94301737
0.96146143
0.99078676
0.82979437
0.82978272
0.82976864
0.8297533
0.82973613
0.82971683
0.8296953
0.82967135
0.82964487
0.82961581
0.82958416
0.8295499
0.82951315
0.82947398
0.82943243
0.8293883
0.82934101
0.82928918
0.82923019
0.82915946
0.82906964
0.8289494
0.82878234
0.82854546
0.8282078
0.827729
0.82705819
0.82613398
0.8248891
0.82326097
0.82119136
0.81860417
0.81539673
0.81145509
0.80665998
0.80088656
0.79401199
0.78592271
0.77652466
0.76575919
0.75362722
0.7402225
0.72577082
0.71067519
0.69550894
0.68097654
0.66787022
0.6569785
0.64904811
0.64462327
0.64400479
0.64733746
0.65480644
0.66635983
0.68195271
0.70105637
0.7243097
0.75201424
0.78702865
0.82598032
0.8691335
0.90510352
0.94243279
0.96073793
0.98962151
0.82255865
0.82255838
0.82255771
0.82255652
0.82255466
0.82255206
0.82254861
0.8225442
0.82253877
0.82253227
0.82252467
0.82251601
0.82250632
0.82249565
0.82248395
0.82247101
0.82245622
0.82243826
0.82241467
0.82238118
0.82233089
0.82225322
0.82213271
0.8219477
0.8216689
0.82125812
0.82066712
0.8198372
0.81870107
0.81718781
0.8152296
0.81275673
0.80967843
0.8058793
0.80123438
0.79561721
0.78890244
0.78097289
0.7717306
0.76111325
0.74911932
0.73584263
0.72151202
0.70653457
0.6914753
0.67704233
0.66401124
0.65316275
0.64525491
0.6408347
0.64021216
0.64353667
0.65099165
0.66251881
0.67810083
0.69735173
0.72114403
0.75003583
0.78647304
0.82649017
0.86983722
0.90563926
0.94208789
0.96010758
0.98849996
0.81594069
0.81595119
0.81596323
0.81597547
0.81598822
0.81600161
0.81601553
0.81602997
0.81604489
0.81606029
0.81607615
0.81609245
0.81610921
0.81612638
0.81614385
0.81616127
0.81617794
0.81619245
0.81620237
0.81620353
0.81618933
0.81614973
0.81607008
0.81592981
0.81570117
0.81534796
0.81482455
0.81407511
0.81303432
0.81163035
0.8097889
0.80743306
0.80447678
0.80081661
0.79633039
0.79088714
0.78435869
0.77662564
0.76758724
0.75717879
0.7453974
0.73233677
0.71822762
0.70346895
0.6886215
0.67438551
0.66151209
0.6507724
0.64292404
0.63853158
0.63792664
0.64124071
0.64868434
0.66022588
0.67591126
0.69554672
0.72024151
0.75047993
0.78804726
0.82846663
0.87121909
0.90626863
0.94179447
0.95986158
0.98726553
0.81023923
0.81025929
0.81028263
0.81030689
0.81033278
0.81036058
0.81039026
0.81042186
0.81045543
0.81049096
0.81052848
0.810568
0.81060944
0.81065271
0.81069755
0.81074353
0.81078972
0.81083463
0.81087562
0.81090855
0.81092691
0.81092102
0.81087671
0.8107744
0.81058756
0.81028177
0.80981373
0.80913059
0.80816974
0.80686049
0.80512741
0.80289055
0.80006359
0.79654624
0.79222359
0.786969
0.78065444
0.77315923
0.76438131
0.75425483
0.74277596
0.73003746
0.71626806
0.70185281
0.6873432
0.6734189
0.66080787
0.65026341
0.64254084
0.63819261
0.63753962
0.64080057
0.64820497
0.6597885
0.67570047
0.69595897
0.72169481
0.75317653
0.7913875
0.831589
0.87340308
0.90769204
0.94198781
0.95988986
0.98582641
0.80566996
0.8056978
0.80573037
0.80576453
0.80580128
0.80584108
0.80588398
0.8059301
0.80597954
0.80603237
0.80608865
0.80614842
0.80621161
0.80627805
0.80634747
0.80641922
0.80649232
0.80656505
0.80663468
0.80669694
0.80674533
0.80677032
0.8067582
0.80668993
0.80654003
0.80627549
0.80585485
0.80522797
0.80433572
0.80310972
0.80147454
0.79935095
0.79665469
0.7932902
0.7891484
0.78410584
0.77803805
0.77082664
0.76237269
0.75261025
0.74153498
0.729236
0.71593332
0.70199982
0.68796564
0.6744728
0.66222756
0.65197512
0.6443987
0.64005213
0.63931999
0.64250722
0.64988397
0.66158816
0.67787901
0.69888139
0.72571526
0.75817796
0.7966241
0.83613244
0.87662303
0.90951142
0.94245636
0.95985266
0.98415127
0.80234664
0.80238005
0.80241924
0.80246058
0.80250528
0.80255396
0.80260674
0.80266383
0.80272541
0.80279165
0.80286268
0.80293858
0.80301934
0.80310484
0.80319474
0.80328841
0.80338477
0.80348207
0.8035775
0.80366677
0.80374347
0.80379822
0.80381769
0.80378345
0.80367081
0.80344769
0.8030741
0.80250182
0.80167466
0.80052881
0.79899575
0.79697904
0.79441864
0.79121855
0.78727456
0.78246943
0.77669186
0.76982376
0.76176721
0.75245915
0.74189505
0.7301579
0.71745424
0.70413655
0.69070062
0.677747
0.66596814
0.65602799
0.6485856
0.6442276
0.64342462
0.6465282
0.65393275
0.66583812
0.68256289
0.70433811
0.73216688
0.76533751
0.80343428
0.84176257
0.88042719
0.91200028
0.94309425
0.95983408
0.98266329
0.80026414
0.80030054
0.80034347
0.80038885
0.80043816
0.8004921
0.80055086
0.80061474
0.80068402
0.80075897
0.80083984
0.80092679
0.80101991
0.80111917
0.80122434
0.8013349
0.80144985
0.80156753
0.80168529
0.80179908
0.80190274
0.80198739
0.80204031
0.80204391
0.80197446
0.80180113
0.80148523
0.80098001
0.80023097
0.79917509
0.79774646
0.79589255
0.7934902
0.79043899
0.78672045
0.78219764
0.77675162
0.7702799
0.76269478
0.75393385
0.74398861
0.73293263
0.72095283
0.70836636
0.6956257
0.68330969
0.67201458
0.66237746
0.6550744
0.65070927
0.6498272
0.65290216
0.66037673
0.67249503
0.68965819
0.71232851
0.74098817
0.77434283
0.81150741
0.8482384
0.88499024
0.91464055
0.94379161
0.95973627
0.98115507
0.79931668
0.79935356
0.79939734
0.79944357
0.79949401
0.7995494
0.79961001
0.79967623
0.79974841
0.79982694
0.79991216
0.80000438
0.80010386
0.8002107
0.80032487
0.80044608
0.80057359
0.80070606
0.80084129
0.80097575
0.80110401
0.80121808
0.80130643
0.80135294
0.80133541
0.80122459
0.80098336
0.80056592
0.79991871
0.79898148
0.79768964
0.79597634
0.79374501
0.79097521
0.78751124
0.78326538
0.77821032
0.77221771
0.76519338
0.75707587
0.74785437
0.73758876
0.7264354
0.71466998
0.70271382
0.69104803
0.68023329
0.67090341
0.66372335
0.65936552
0.65844859
0.66152904
0.66907242
0.68142006
0.69924626
0.72277633
0.7517582
0.78460268
0.82050491
0.85536916
0.88967867
0.91734097
0.94459811
0.95975042
0.97996339
0.79929945
0.79933458
0.7993766
0.79942076
0.79946911
0.79952243
0.79958104
0.79964534
0.79971579
0.79979288
0.79987702
0.79996869
0.80006826
0.80017612
0.80029241
0.8004172
0.80055008
0.8006903
0.80083623
0.80098524
0.80113306
0.80127309
0.80139558
0.80148661
0.80152672
0.8014895
0.80134014
0.80103533
0.80052326
0.79974416
0.79863337
0.79712023
0.79515014
0.79263621
0.78948023
0.78568901
0.78109035
0.77561817
0.76922625
0.76184123
0.75343878
0.74405377
0.73380673
0.72294169
0.71178216
0.70076702
0.69043789
0.68139055
0.67433918
0.67000678
0.66909484
0.67216845
0.67981227
0.69265223
0.71120378
0.73513166
0.76389808
0.79592222
0.83003667
0.86258801
0.89448694
0.92009687
0.9455851
0.95994057
0.97907696
0.7999738
0.80000532
0.80004332
0.80008305
0.80012669
0.80017498
0.80022832
0.8002871
0.80035182
0.80042304
0.80050124
0.80058701
0.80068091
0.80078344
0.80089507
0.80101614
0.80114677
0.80128675
0.80143529
0.80159079
0.80175046
0.8019096
0.80206097
0.80219374
0.8022923
0.80233463
0.80229115
0.80212313
0.80178209
0.80121056
0.80034435
0.79911304
0.79745188
0.79528995
0.79257551
0.78920543
0.78513969
0.7803446
0.77467795
0.76810784
0.76060452
0.7521717
0.74290126
0.73295181
0.72259471
0.7122379
0.70235774
0.69358659
0.6866681
0.68238349
0.68144061
0.68456061
0.69257144
0.70603481
0.72492597
0.7488313
0.77724928
0.80773091
0.83962809
0.86986603
0.8992091
0.92301176
0.94684559
0.96044549
0.97862685
0.80107653
0.80110321
0.80113558
0.80116931
0.80120645
0.80124775
0.80129352
0.80134422
0.80140032
0.80146237
0.80153093
0.80160666
0.80169016
0.80178212
0.80188319
0.80199401
0.80211511
0.80224681
0.80238915
0.8025416
0.80270282
0.80287021
0.80303929
0.80320286
0.80334994
0.80346455
0.80352386
0.80349668
0.80334244
0.80301013
0.80243951
0.80156226
0.80031005
0.79860824
0.79639986
0.79362272
0.79023478
0.78613537
0.78129884
0.77565551
0.76913135
0.76172067
0.75345042
0.74442709
0.73488109
0.72513494
0.71568693
0.70715838
0.70035319
0.69605542
0.69517093
0.69856327
0.70710252
0.72090216
0.73990767
0.76377864
0.79098573
0.81948686
0.8492625
0.87684088
0.90405483
0.92612195
0.94844932
0.96128489
0.97860022
0.80238412
0.80240544
0.8024314
0.80245838
0.80248822
0.80252153
0.8025586
0.80259982
0.80264568
0.80269668
0.80275337
0.80281641
0.80288643
0.8029642
0.80305046
0.80314606
0.80325177
0.80336837
0.80349653
0.80363661
0.80378857
0.80395165
0.80412395
0.80430186
0.80447924
0.80464641
0.80478881
0.80488533
0.8049067
0.80481399
0.80455803
0.80407935
0.8033125
0.80218562
0.80063265
0.79858118
0.79596716
0.79274756
0.78885715
0.78420767
0.77873934
0.77238733
0.76513647
0.75704503
0.74825234
0.73907628
0.72998363
0.72165812
0.71489099
0.71069316
0.71004712
0.71390992
0.72287254
0.73687716
0.75611728
0.77913952
0.80456877
0.83124843
0.85835661
0.88383651
0.90900325
0.92948497
0.95042077
0.96250848
0.97904675
0.80371641
0.80373237
0.80375166
0.80377199
0.80379454
0.80381978
0.803848
0.80387952
0.80391476
0.80395416
0.80399821
0.80404752
0.80410273
0.80416452
0.80423372
0.80431121
0.80439791
0.80449483
0.80460299
0.80472338
0.80485692
0.80500417
0.80516522
0.80533943
0.80552507
0.80571837
0.80591254
0.80609686
0.80625512
0.80636422
0.8063923
0.806297
0.80602575
0.8055159
0.80469871
0.80349969
0.80184556
0.79965362
0.79683737
0.79332046
0.78899044
0.78374794
0.77753168
0.7703164
0.76222091
0.75350809
0.74469008
0.73649646
0.7298902
0.72595497
0.72579761
0.73022894
0.7395027
0.7539695
0.77279262
0.79432513
0.81814949
0.84241761
0.86740101
0.89080398
0.91412441
0.93312998
0.95278361
0.96412779
0.97996005
0.80496531
0.80497633
0.80498953
0.8050037
0.80501949
0.8050372
0.80505709
0.80507943
0.80510457
0.80513292
0.80516494
0.80520103
0.80524165
0.80528741
0.80533894
0.80539704
0.80546277
0.80553726
0.80562172
0.80571747
0.80582588
0.8059485
0.80608689
0.80624255
0.8064167
0.80661006
0.80682239
0.80705194
0.80729493
0.8075443
0.80778751
0.80800488
0.80816758
0.80823344
0.80814596
0.8078321
0.80720419
0.80615816
0.80457417
0.80231472
0.79922636
0.79515543
0.78996298
0.78357406
0.77608168
0.76773856
0.75916694
0.75119419
0.74485539
0.74148404
0.74207995
0.74699972
0.75705446
0.77154584
0.78924601
0.80917039
0.83115933
0.85328894
0.87623435
0.89781183
0.91944634
0.9370726
0.95554353
0.9661597
0.98135495
0.80607897
0.80608552
0.80609338
0.8061019
0.80611148
0.80612228
0.80613448
0.80614853
0.80616472
0.80618266
0.80620202
0.80622336
0.80624792
0.80627697
0.80631172
0.80635257
0.80639948
0.80645288
0.80651362
0.80658288
0.80666274
0.80675562
0.80686407
0.80699121
0.80714034
0.8073151
0.80751994
0.80776025
0.80804135
0.80836838
0.80874647
0.80917869
0.80966143
0.81018209
0.81071045
0.81119233
0.81154235
0.81163484
0.81130791
0.81036431
0.80856713
0.80569171
0.80149494
0.79591073
0.78895824
0.78099092
0.77271651
0.76504772
0.75942714
0.75712688
0.75844452
0.76446104
0.77497128
0.78868641
0.80495748
0.82365707
0.8434042
0.86381858
0.88499568
0.90488916
0.92498275
0.94132495
0.9587061
0.96860432
0.98321969
0.80705441
0.80705667
0.80705943
0.80706242
0.80706573
0.80706962
0.80707444
0.80708026
0.80708718
0.8070953
0.80710477
0.80711596
0.80712913
0.80714456
0.80716242
0.80718279
0.80720664
0.80723626
0.8072728
0.80731597
0.80736697
0.80742932
0.80750749
0.80760546
0.80772612
0.80787379
0.80805663
0.80828477
0.80856982
0.80892553
0.80936785
0.80991979
0.81060256
0.81142348
0.81238299
0.81345839
0.8145812
0.81562968
0.8164126
0.81667434
0.81609245
0.81433142
0.81111562
0.80629259
0.79989914
0.7924096
0.78470989
0.77802929
0.77392153
0.77259808
0.77528819
0.78219368
0.79229811
0.80489157
0.82022538
0.83700419
0.85534247
0.87415138
0.89369157
0.91205523
0.93074024
0.94588776
0.96226777
0.97146634
0.98555679
0.80787531
0.80787304
0.80787041
0.80786768
0.8078648
0.80786175
0.80785867
0.80785581
0.80785365
0.80785237
0.80785111
0.80784887
0.80784584
0.80784299
0.80784159
0.80784321
0.80784947
0.80786184
0.8078809
0.80790504
0.80793407
0.80797167
0.80802248
0.8080908
0.80818171
0.80830173
0.80846
0.80866959
0.80894667
0.80930964
0.8097807
0.81039341
0.81117449
0.81214936
0.8133498
0.81477559
0.81638335
0.81806437
0.81964534
0.82081257
0.82121721
0.82042687
0.81810536
0.81403355
0.80840427
0.80188872
0.79560428
0.79078144
0.78793806
0.7882367
0.79214671
0.79891803
0.80847295
0.82047061
0.83443119
0.8500142
0.86691688
0.88427115
0.9023611
0.91932772
0.93672683
0.95076502
0.96622054
0.97474198
0.98835714
0.8084879
0.80848097
0.8084728
0.80846423
0.8084549
0.80844473
0.80843381
0.80842233
0.80841044
0.808398
0.80838488
0.80837098
0.80835679
0.80834328
0.80833114
0.80832061
0.80831145
0.80830335
0.80829808
0.80829857
0.80830748
0.80832764
0.80836128
0.80841109
0.80848365
0.80858794
0.80873291
0.80893021
0.80919631
0.80954989
0.81002209
0.81063949
0.81143367
0.81245399
0.81373885
0.81530688
0.81714532
0.81915876
0.82118153
0.82293312
0.82400869
0.82394125
0.82238204
0.81928566
0.81500849
0.8102404
0.80600784
0.80280058
0.80178421
0.80363561
0.80770375
0.81464134
0.8237174
0.83509421
0.848075
0.86249313
0.87818496
0.89425251
0.91102513
0.92671886
0.94294565
0.95595434
0.97056033
0.97842957
0.99161354
0.80870048
0.80868967
0.80867694
0.80866352
0.80864899
0.80863318
0.80861606
0.8085976
0.80857779
0.80855663
0.80853422
0.80851071
0.80848645
0.80846182
0.80843732
0.80841381
0.80839225
0.8083737
0.80835918
0.80834972
0.80834736
0.80835468
0.80837452
0.80841016
0.80846805
0.80855914
0.8086946
0.80888414
0.80914191
0.80948588
0.80994409
0.81055392
0.81134639
0.81236279
0.81364682
0.81521387
0.81706952
0.81917714
0.82135542
0.82334572
0.82479265
0.8253714
0.82484619
0.82320245
0.82069778
0.81809022
0.81569759
0.81434642
0.81529218
0.8176567
0.82237244
0.82934214
0.83831414
0.84890011
0.86112033
0.874597
0.88920774
0.90411218
0.91970441
0.93424092
0.94939928
0.96145403
0.97527719
0.98251947
0.99531729
0.80833341
0.80832069
0.80830577
0.80829002
0.80827296
0.80825443
0.80823439
0.8082128
0.80818969
0.80816509
0.80813908
0.8081118
0.80808354
0.80805458
0.80802544
0.80799677
0.8079694
0.80794446
0.80792345
0.80790811
0.80790075
0.80790503
0.80792609
0.80796761
0.80803155
0.80812299
0.80825266
0.80843309
0.80866984
0.80898919
0.80943237
0.81002098
0.81076781
0.81170616
0.81288535
0.81436484
0.81614476
0.81819497
0.8204042
0.82257739
0.82449699
0.82589741
0.82659037
0.82654522
0.82604451
0.82530756
0.82467413
0.82556919
0.82752151
0.83083492
0.83632938
0.84326916
0.85191371
0.86211425
0.87371324
0.88635263
0.90001765
0.91388902
0.92842003
0.94190434
0.9560885
0.96726145
0.98036508
0.9870143
0.99946064
0.80718171
0.80717012
0.8071565
0.80714214
0.80712662
0.80710977
0.80709155
0.80707198
0.80705106
0.80702883
0.80700541
0.80698096
0.80695577
0.80693016
0.80690466
0.80687994
0.80685688
0.80683653
0.8068204
0.80681026
0.80680818
0.80681698
0.80684033
0.80688281
0.80695002
0.80704481
0.80717087
0.80734571
0.80760036
0.80793493
0.808351
0.80889035
0.8095834
0.8104749
0.81161044
0.81301832
0.81472222
0.81673395
0.81901705
0.82146815
0.82394318
0.82626047
0.82824458
0.82986786
0.83111339
0.83194405
0.83358143
0.83603088
0.83897711
0.84344234
0.84920218
0.85636202
0.86497511
0.87482907
0.88589595
0.8978288
0.91066425
0.92361142
0.93719004
0.94971835
0.9630156
0.97337394
0.98581543
0.99190317
1.0040246
0.80532674
0.8053183
0.80530838
0.80529796
0.80528673
0.80527461
0.80526157
0.80524767
0.80523295
0.80521749
0.80520143
0.805185
0.80516847
0.80515229
0.80513697
0.80512323
0.805112
0.8051045
0.80510222
0.80510703
0.80512125
0.80514793
0.80519042
0.80525056
0.80533188
0.80544349
0.80560179
0.80581335
0.80607361
0.8064023
0.80683793
0.80740467
0.80811426
0.80899492
0.81010728
0.81150787
0.81323258
0.81531892
0.81779207
0.82063609
0.82377878
0.827067
0.83032282
0.83339916
0.83591025
0.83880202
0.84229319
0.84569569
0.8499061
0.85515127
0.86148578
0.86891213
0.87749361
0.88711159
0.89775349
0.90907707
0.9211855
0.93330955
0.94603344
0.95769404
0.97018282
0.97978879
0.99161952
0.99717691
1.0090051
0.80284121
0.80283641
0.80283083
0.80282505
0.80281894
0.80281247
0.80280569
0.8027987
0.80279162
0.8027846
0.80277786
0.80277172
0.80276656
0.80276295
0.80276153
0.80276317
0.80276891
0.80278017
0.80279877
0.80282701
0.8028675
0.80292267
0.80299567
0.80309081
0.80321484
0.8033772
0.80358145
0.80384212
0.80418001
0.80459463
0.80509493
0.80571404
0.80648647
0.80744813
0.80864263
0.81012539
0.81196559
0.81424973
0.81705835
0.82044164
0.82432861
0.82858044
0.83299765
0.8370198
0.84125871
0.84595525
0.850358
0.85499704
0.8603644
0.86640386
0.87325582
0.88096862
0.88961178
0.89906282
0.90935155
0.92015347
0.93162459
0.94301259
0.95496973
0.96583778
0.97758963
0.98649934
0.99777294
1.0028162
1.0144145
0.79981069
0.79980895
0.79980706
0.79980526
0.79980359
0.79980211
0.79980096
0.7998003
0.79980035
0.79980137
0.79980373
0.79980789
0.79981441
0.79982404
0.79983769
0.79985656
0.7998821
0.7999161
0.79996086
0.80001906
0.80009373
0.80018824
0.80030755
0.80045771
0.80064634
0.80088591
0.80118159
0.80153324
0.80195662
0.80247143
0.80309262
0.80384216
0.80474722
0.805841
0.80717843
0.80884165
0.81093591
0.81359061
0.81692651
0.82097985
0.82566657
0.83088401
0.83603001
0.84138715
0.84722589
0.85280511
0.85830572
0.8642337
0.87050619
0.87727565
0.88466276
0.89268827
0.90142046
0.91075734
0.92075911
0.93111094
0.94202073
0.95274908
0.96401523
0.97415851
0.98524107
0.99350043
1.0042696
1.008813
1.0202186
0.79611067
0.79611149
0.79611271
0.79611433
0.79611654
0.79611951
0.79612347
0.79612868
0.79613545
0.79614427
0.79615559
0.79617015
0.79618874
0.79621239
0.79624239
0.79628033
0.79632811
0.7963881
0.79646317
0.79655675
0.79667287
0.79681742
0.79699604
0.79721495
0.79748225
0.79780494
0.79819253
0.79865604
0.79920715
0.79986012
0.80063187
0.80154152
0.8026175
0.80391296
0.80550462
0.80749893
0.81004089
0.81328556
0.8173321
0.82217038
0.82774688
0.83364207
0.8397752
0.8465125
0.85317928
0.85971063
0.86645299
0.87332755
0.88046304
0.88793703
0.89583247
0.90416894
0.91301786
0.92227981
0.93204262
0.94200237
0.95241424
0.96254777
0.97318868
0.9826675
0.99314102
1.000788
1.011104
1.0151611
1.0264027
0.79147487
0.79147873
0.79148363
0.79148934
0.79149618
0.79150446
0.79151452
0.79152673
0.79154161
0.79155973
0.79158187
0.79160895
0.79164205
0.79168259
0.79173224
0.79179304
0.79186748
0.79195852
0.79206977
0.79220542
0.79237052
0.79257154
0.79281463
0.79310693
0.79345757
0.79387591
0.79437254
0.79495969
0.79564975
0.79645598
0.79739673
0.79850455
0.79982774
0.80143438
0.80343121
0.80596241
0.80918729
0.81323631
0.81813708
0.82388463
0.83021481
0.83687284
0.84427958
0.85184016
0.85936569
0.86699354
0.87467413
0.88245567
0.89038502
0.89850364
0.90688189
0.91552268
0.92449624
0.9337066
0.94326629
0.95287883
0.96284368
0.97243662
0.98250712
0.99137481
1.0012878
1.0083688
1.0182623
1.0218559
1.0329571
0.78554469
0.78555319
0.78556368
0.78557545
0.78558915
0.78560521
0.7856241
0.78564634
0.7856726
0.78570373
0.7857407
0.78578471
0.78583721
0.78589992
0.785975
0.78606496
0.78617279
0.78630215
0.78645727
0.78664312
0.78686548
0.78713107
0.78744751
0.78782317
0.78826833
0.78879364
0.78940937
0.79012841
0.79096816
0.79195213
0.79311204
0.79449452
0.7961711
0.79824746
0.8008621
0.80416972
0.80830326
0.81332207
0.81921832
0.82587379
0.83294835
0.84081744
0.849127
0.85747821
0.86599358
0.87453161
0.8831138
0.8917233
0.90037873
0.90909584
0.91792226
0.92684773
0.93594368
0.94511384
0.9544927
0.96379029
0.97334719
0.98244325
0.99198811
1.0002889
1.0096855
1.0162323
1.0257383
1.0288855
1.0398602
0.77795935
0.77797467
0.77799333
0.77801396
0.77803753
0.77806473
0.7780961
0.77813242
0.77817454
0.77822354
0.77828066
0.77834742
0.77842563
0.77851745
0.77862539
0.77875244
0.77890218
0.77907885
0.77928736
0.77953291
0.77982223
0.78016363
0.78056501
0.78103512
0.78158418
0.78222537
0.78297543
0.78385316
0.78488369
0.786103
0.7875641
0.78934439
0.79155114
0.7943206
0.79780202
0.8021247
0.80735687
0.81350068
0.82047514
0.82797445
0.83627859
0.84521638
0.85431525
0.86362164
0.8730079
0.88243885
0.89186098
0.90123721
0.9105619
0.91982474
0.92905876
0.93824172
0.94744588
0.95657459
0.96578256
0.97478533
0.9839614
0.99259368
1.0016476
1.0094235
1.0183282
1.0243849
1.0335141
1.0362464
1.0470807
0.76842575
0.76845029
0.76848002
0.76851252
0.76854929
0.76859123
0.76863911
0.76869385
0.76875658
0.7688286
0.76891148
0.76900698
0.76911737
0.76924522
0.76939322
0.76956384
0.76976229
0.76999547
0.77026712
0.7705816
0.77094649
0.771371
0.77186561
0.7724414
0.77311149
0.77389292
0.77480774
0.77588623
0.77717106
0.77872301
0.78062709
0.78299647
0.78596967
0.78969506
0.79429885
0.79985165
0.80636286
0.81375773
0.82177661
0.83055522
0.84010447
0.84993289
0.85998629
0.87019874
0.88050042
0.89079391
0.90101329
0.91110394
0.92104065
0.9307959
0.94039141
0.94979578
0.95908368
0.96815858
0.97719365
0.9859098
0.99472067
1.0029145
1.011503
1.0187843
1.0272236
1.0328247
1.0415829
1.0439059
1.0546465
0.75665503
0.75669122
0.75673473
0.75678208
0.75683533
0.7568957
0.75696405
0.75704155
0.75712956
0.75722762
0.75733335
0.7574562
0.75761036
0.7577886
0.75798369
0.75820446
0.75845916
0.75875317
0.75909252
0.759484
0.75993543
0.76045637
0.76105911
0.76175895
0.76257541
0.76353475
0.76467304
0.76604066
0.76770766
0.7697688
0.77234588
0.77558185
0.77962704
0.78460532
0.79058577
0.79758237
0.80551224
0.81413922
0.8235208
0.8337266
0.84430539
0.85512886
0.86619036
0.87738291
0.88859007
0.89971938
0.91069305
0.92144261
0.93193114
0.94211906
0.95202125
0.96160066
0.97093598
0.97993267
0.98878076
0.99720871
1.0056591
1.0134277
1.0215664
1.0283815
1.036373
1.0415665
1.0499407
1.0520173
1.0624363
0.74265401
0.74270466
0.74276488
0.74282797
0.7428951
0.7429725
0.74306696
0.74317443
0.74328979
0.74341751
0.74356279
0.74372794
0.74391527
0.74412739
0.7443678
0.74464403
0.74496677
0.74533819
0.74575612
0.74623093
0.746778
0.74741084
0.74814673
0.74900895
0.75002907
0.75125031
0.75273192
0.75455394
0.75682092
0.75966209
0.76322477
0.76765674
0.77308362
0.77956606
0.78712692
0.79568558
0.8049641
0.81505482
0.82601524
0.83739504
0.84907271
0.86103396
0.87316192
0.88532803
0.89742802
0.90935991
0.92103738
0.93238432
0.94335705
0.95390973
0.96405432
0.97375241
0.98308707
0.99196905
1.0006037
1.0087283
1.016811
1.0241595
1.0318518
1.0382177
1.0457614
1.0505733
1.0585374
1.0602585
1.0703611
0.72649991
0.72657081
0.72664147
0.72671046
0.72679218
0.72688817
0.72699897
0.72712662
0.72727385
0.72744346
0.72763666
0.7278534
0.7280942
0.72836058
0.72865714
0.72899159
0.72937108
0.72980246
0.73029452
0.73085867
0.73150932
0.73226544
0.73315253
0.73420536
0.73547173
0.73701698
0.73892898
0.74132216
0.74433788
0.74813828
0.75288933
0.75873287
0.76575459
0.77396368
0.78330209
0.79350038
0.80460254
0.81656443
0.82896297
0.84164918
0.85463207
0.86778725
0.88099193
0.89413552
0.90710673
0.91979975
0.93212495
0.94400326
0.95538882
0.96623418
0.9765523
0.98630611
0.99558562
1.0043093
1.0126961
1.0204958
1.0281954
1.0351201
1.0423655
1.0483008
1.055401
1.0599266
1.0674929
1.0694179
1.0798143
0.70802638
0.70810605
0.70820138
0.70830415
0.70841767
0.70854413
0.70868502
0.70884207
0.70901715
0.70921256
0.70943083
0.70967498
0.70994857
0.71025578
0.71060176
0.71099279
0.71143663
0.71194318
0.71252507
0.7131991
0.71398757
0.71492063
0.71603911
0.7173984
0.71907268
0.72115948
0.72378284
0.72709309
0.73126021
0.73645756
0.74283599
0.75049148
0.75943324
0.76960009
0.78081243
0.79299488
0.80607867
0.81959709
0.83340006
0.84752156
0.86182042
0.876173
0.89046541
0.90457705
0.91839154
0.93180081
0.94471387
0.95705217
0.96877081
0.97982586
0.9902315
0.99995948
1.0091057
1.0176019
1.0256783
1.0331018
1.0403724
1.0468409
1.0536045
1.0590927
1.065704
1.0699608
1.076889
1.0795227
1.0872103
0.68900961
0.6891032
0.68921756
0.68933577
0.68946603
0.68961111
0.68977229
0.68995136
0.69015048
0.6903722
0.69061951
0.69089593
0.69120585
0.69155458
0.69194892
0.69239755
0.69291175
0.69350641
0.69420138
0.69502334
0.69600822
0.6972044
0.69867649
0.70050948
0.70281262
0.70572158
0.7093969
0.71401574
0.71975508
0.72676619
0.73514569
0.74489936
0.75595521
0.76825042
0.78151299
0.79557908