/*--------------------------------*- C++ -*----------------------------------*\
  =========                 |
  \\      /  F ield         | OpenFOAM: The Open Source CFD Toolbox
   \\    /   O peration     | Website:  https://openfoam.org
    \\  /    A nd           | Version:  13
     \\/     M anipulation  |
\*---------------------------------------------------------------------------*/
FoamFile
{
    format      ascii;
    class       volVectorField;
    location    "44.801255";
    object      wallShearStress;
}
// * * * * * * * * * * * * * * * * * * * * * * * * * * * * * * * * * * * * * //

dimensions      [0 2 -2 0 0 0 0];

internalField   uniform (0 0 0);

boundaryField
{
    inlet
    {
        type            calculated;
        value           uniform (0 0 0);
    }
    outlet
    {
        type            calculated;
        value           uniform (0 0 0);
    }
    cylinder
    {
        type            calculated;
        value           nonuniform List<vector> 
132
(
(2.9158462e-05 -0.0018765426 -3.0143555e-22)
(9.1440151e-05 -0.0021527863 8.5616004e-23)
(0.00016930483 -0.0024104583 4.7125539e-21)
(0.00026088997 -0.0026444128 -1.5757618e-20)
(0.00036419229 -0.0028500343 1.1080231e-20)
(0.00047669112 -0.003023082 3.3718362e-20)
(0.00059542093 -0.0031599932 -6.3615902e-21)
(0.00071706968 -0.0032580607 -2.5093542e-20)
(0.00083804201 -0.0033155119 2.3548565e-20)
(0.00095477674 -0.003331861 -5.257019e-20)
(0.0010637597 -0.0033076403 -9.5264145e-22)
(0.0011618515 -0.0032449773 3.2388401e-20)
(0.001246355 -0.0031470569 5.2616185e-20)
(0.0013154422 -0.0030186668 -4.2582961e-20)
(0.0013682184 -0.0028656559 4.4687528e-20)
(0.0014049771 -0.0026949165 7.170485e-20)
(0.0014275223 -0.0025144256 -4.6857154e-20)
(0.0014390105 -0.0023323778 7.4981392e-20)
(0.0014445172 -0.0021576848 9.8931429e-20)
(0.0014507721 -0.0019990113 -6.4059722e-20)
(0.001466821 -0.0018652788 -8.1529727e-20)
(0.0015037591 -0.0017647467 2.8689156e-23)
(0.0015751973 -0.0017051254 1.1804419e-20)
(0.0016961677 -0.0016919439 -1.4126839e-20)
(0.0018815959 -0.0017270785 -2.4029886e-20)
(0.0021429087 -0.0018063569 5.1403439e-21)
(0.0024830063 -0.0019171925 -4.6433316e-20)
(0.0028885102 -0.0020359909 1.2414607e-20)
(0.0033325639 -0.0021348773 9.7564264e-21)
(0.0037789759 -0.0021876962 -6.7251722e-20)
(0.0041878487 -0.0021749337 8.7831275e-20)
(0.0045277104 -0.0020897797 2.6605974e-21)
(0.0047604356 -0.001929271 1.9199337e-20)
(0.0048091139 -0.001684524 -2.2781047e-20)
(0.0045574784 -0.0013508549 7.2501199e-20)
(0.0038398333 -0.00093569348 -4.5934978e-21)
(0.0024687126 -0.00047708422 1.8560828e-20)
(0.00021176026 -4.6940598e-05 -2.5519965e-21)
(-0.0031176488 0.00022772427 3.6630727e-21)
(-0.007668986 0.00017030037 -2.2834424e-21)
(-0.013823037 -0.0004586863 4.2549355e-21)
(-0.021435493 -0.001990172 -1.3072547e-22)
(-0.029804133 -0.004583089 4.76923e-20)
(-0.038462973 -0.0083060684 -1.8277486e-20)
(-0.046817081 -0.013101957 1.6405956e-20)
(-0.054388842 -0.018820049 -1.0490582e-19)
(-0.06074461 -0.025211191 -1.6860346e-20)
(-0.06562927 -0.031999444 1.4774155e-19)
(-0.068858787 -0.038874088 -1.2599119e-19)
(-0.070402531 -0.045548361 -2.4112441e-21)
(-0.070267721 -0.05172496 3.8686692e-20)
(-0.068604797 -0.057186503 -3.5671283e-20)
(-0.065510774 -0.061668727 -7.1625528e-21)
(-0.061221595 -0.065026803 -4.8090428e-21)
(-0.05598608 -0.06715601 -8.9125386e-21)
(-0.049983853 -0.067894186 -5.884337e-22)
(-0.043503315 -0.067234503 4.9639959e-22)
(-0.036779655 -0.065143429 4.4667839e-20)
(-0.030062118 -0.06165241 -7.0928649e-20)
(-0.02358418 -0.056822599 -7.7193237e-20)
(-0.017563838 -0.050750699 -3.170368e-20)
(-0.012198378 -0.043565464 -7.3236811e-20)
(-0.007660045 -0.035424479 1.6425061e-20)
(-0.0040893565 -0.026507667 2.3986337e-20)
(-0.001602039 -0.017036308 -3.7374255e-20)
(-0.00025817567 -0.0071688592 -5.0012873e-21)
(-1.7712811e-05 -0.0015842026 -1.3894979e-21)
(-4.8394143e-05 -0.0012751357 -8.2903093e-23)
(-6.1636887e-05 -0.00095087322 -4.765157e-21)
(-5.5960852e-05 -0.00061473657 1.5992356e-20)
(-3.0670094e-05 -0.00027434975 -1.1295846e-20)
(1.4417204e-05 6.5890196e-05 -3.4534179e-20)
(7.879646e-05 0.0003993204 6.5468876e-21)
(0.00016165789 0.00071917566 2.5952701e-20)
(0.00026074702 0.0010187734 -2.4479719e-20)
(0.00037323382 0.00129182 5.4936945e-20)
(0.00049575103 0.0015325897 1.000808e-21)
(0.00062437555 0.0017363661 -3.4215406e-20)
(0.00075484093 0.0018996761 -5.589019e-20)
(0.00088286975 0.0020206892 4.5480789e-20)
(0.0010044371 0.0020992739 -4.7986187e-20)
(0.0011162893 0.00213746 -7.7401034e-20)
(0.0012161239 0.0021390135 5.0833017e-20)
(0.0013034318 0.0021101647 -8.1726825e-20)
(0.0013793179 0.0020583778 -1.0830182e-19)
(0.0014475432 0.0019931434 7.040381e-20)
(0.001514456 0.0019249108 8.9918329e-20)
(0.0015888793 0.0018641478 8.0674466e-20)
(0.0016823449 0.0018210494 6.6382567e-20)
(0.0018073931 0.0018032178 1.5700564e-20)
(0.0019765236 0.0018148551 2.6751098e-20)
(0.0021986818 0.0018542323 -5.7294713e-21)
(0.0024755814 0.0019123852 5.1798787e-20)
(0.002802507 0.0019761998 -1.3855612e-20)
(0.003161779 0.0020261401 -1.089136e-20)
(0.0035253813 0.0020413587 7.5077348e-20)
(0.003865135 0.0020076778 -9.8044563e-20)
(0.0041387951 0.0019107037 -2.952444e-21)
(0.0042851185 0.0017373764 4.8748036e-20)
(0.0042073671 0.0014750274 2.5416799e-20)
(0.0037750306 0.0011211088 -8.0834402e-20)
(0.0028156315 0.00069001694 5.1151187e-21)
(0.0011431602 0.00022977465 1.504232e-20)
(-0.0014642372 -0.00017613756 2.8272517e-21)
(-0.0052037489 -0.0003960094 -4.039978e-21)
(-0.010121095 -0.00023700582 2.5038836e-21)
(-0.016610349 0.00054479411 -4.6305641e-21)
(-0.024454075 0.002265489 3.7164136e-20)
(-0.032884167 0.0050521039 -5.089075e-20)
(-0.041455551 0.0089479429 1.929467e-20)
(-0.04955264 0.013864046 -1.713014e-20)
(-0.056753947 0.019635232 1.083594e-19)
(-0.062664297 0.026003504 1.7226177e-20)
(-0.067062761 0.032694163 -1.4931276e-19)
(-0.069798718 0.039400696 1.258754e-19)
(-0.070874369 0.045849735 2.3791121e-21)
(-0.070290506 0.051737929 -3.759784e-20)
(-0.068258657 0.056894263 3.4016717e-20)
(-0.064809735 0.061004617 -5.3357871e-20)
(-0.060233285 0.063973189 4.2009762e-21)
(-0.054814144 0.065745959 -8.824644e-21)
(-0.048650908 0.0660787 2.9500141e-21)
(-0.042085304 0.06503742 -6.2639796e-22)
(-0.035331803 0.062572412 -5.0647904e-20)
(-0.02864049 0.058728774 7.7146907e-20)
(-0.022240412 0.053574558 8.2037542e-20)
(-0.016343759 0.047211147 3.3177816e-20)
(-0.011142724 0.039774746 7.5769614e-20)
(-0.0068023504 0.031425014 -1.6837697e-20)
(-0.0034565963 0.022349271 4.83842e-20)
(-0.0012129246 0.012754299 3.7745308e-20)
(-0.00013133639 0.0028669695 5.0206712e-21)
)
;
    }
    frontAndBack
    {
        type            empty;
    }
}


// ************************************************************************* //
