/*--------------------------------*- C++ -*----------------------------------*\
  =========                 |
  \\      /  F ield         | OpenFOAM: The Open Source CFD Toolbox
   \\    /   O peration     | Website:  https://openfoam.org
    \\  /    A nd           | Version:  13
     \\/     M anipulation  |
\*---------------------------------------------------------------------------*/
FoamFile
{
    format      ascii;
    class       surfaceScalarField;
    location    "26.901784";
    object      phi;
}
// * * * * * * * * * * * * * * * * * * * * * * * * * * * * * * * * * * * * * //

dimensions      [0 3 -1 0 0 0 0];

internalField   nonuniform List<scalar> 
34068
(
-1.3109179e-08
5.6168795e-08
-4.3059617e-08
-5.8350402e-08
1.9408846e-07
-1.4884724e-07
-1.4645356e-07
3.7837022e-07
-2.9026706e-07
-2.9093694e-07
6.2116231e-07
-4.7667893e-07
-5.0875648e-07
9.374665e-07
-7.1964695e-07
-8.2108688e-07
1.3457471e-06
-1.0334167e-06
-1.2542671e-06
1.8686551e-06
-1.435475e-06
-1.8409312e-06
2.5338797e-06
-1.9472155e-06
-2.6213609e-06
3.3751435e-06
-2.5947138e-06
-3.6450899e-06
4.4333571e-06
-3.4096281e-06
-4.9727941e-06
5.7579347e-06
-4.4302304e-06
-6.6785019e-06
7.4082838e-06
-5.7025759e-06
-8.8521546e-06
9.4554509e-06
-7.2817982e-06
-1.1602533e-05
1.1983906e-05
-9.233528e-06
-1.5060569e-05
1.5093412e-05
-1.1635376e-05
-1.9383006e-05
1.8900891e-05
-1.4578454e-05
-2.4756373e-05
2.3542161e-05
-1.8168794e-05
-3.140115e-05
2.9173334e-05
-2.2528557e-05
-3.9575958e-05
3.5971578e-05
-2.779677e-05
-4.9581459e-05
4.4134849e-05
-3.4129348e-05
-6.1763572e-05
5.3880018e-05
-4.1697906e-05
-7.6515383e-05
6.5438705e-05
-5.0686894e-05
-9.427688e-05
7.9049837e-05
-6.128834e-05
-0.00011553144
9.4947975e-05
-7.3693417e-05
-0.00014079758
0.00011334622
-8.8080082e-05
-0.00017061432
0.0001344131
-0.00010459635
-0.00020551851
0.00015824396
-0.00012333977
-0.00024601319
0.00018483098
-0.0001443363
-0.00029252889
0.00021404244
-0.00016752674
-0.0003453853
0.00024563332
-0.0001927769
-0.00040476977
0.00027931729
-0.00021993283
-0.00047075436
0.00031491521
-0.00024893063
-0.0005433625
0.00035253358
-0.00027992544
-0.00062266388
0.00039266042
-0.00031335903
-0.00070885285
0.00043610792
-0.00034991896
-0.00080228238
0.00048387269
-0.00039044315
-0.00090346276
0.00053704073
-0.00043586036
-0.0010130504
0.00059678753
-0.00048719993
-0.0011318462
0.0006644482
-0.00054565234
-0.0012608128
0.00074162334
-0.00061265672
-0.0014011127
0.00083030318
-0.00069000332
-0.0015541718
0.00093300369
-0.00077994455
-0.0017217706
0.001052902
-0.00088530327
-0.0019061648
0.0011939465
-0.0010095522
-0.0021102439
0.0013609085
-0.0011568294
-0.0023377112
0.0015592616
-0.0013317943
-0.0025932036
0.0017946288
-0.0015391365
-0.0028823928
0.0020718381
-0.0017826488
-0.0032121334
0.0023933476
-0.002063607
-0.003590426
0.0027557843
-0.0023774916
-0.0040261259
0.0031438361
-0.0027081361
-0.0045282692
0.0035197565
-0.0030176133
-0.0051044207
0.0038051903
-0.0032290388
-0.0057572775
0.0038525765
-0.0031997196
-0.00647677
0.0034016005
-0.002682108
-0.007222934
0.0020278886
-0.0012817247
-0.0079118246
-0.00088284078
0.0015717314
-0.008364363
-0.0060852067
0.006537745
-0.0083299761
-0.014199997
0.01416561
-0.0075080931
-0.024998167
0.024176284
-0.0058440233
-0.036494767
0.034830697
-0.0034790506
-0.045030574
0.042665601
-0.00079015156
-0.046024292
0.043335393
0.0023953973
-0.034129045
0.030943497
-0.0079200776
0.0070439891
0.0032714859
-1.2939898e-08
6.9108694e-08
-5.7597462e-08
2.3874603e-07
-1.4456652e-07
4.6533928e-07
-2.8719671e-07
7.6379251e-07
-5.0223108e-07
1.1525009e-06
-8.1057972e-07
1.6540957e-06
-1.2382522e-06
2.2963277e-06
-1.8174766e-06
3.113104e-06
-2.5880373e-06
4.1457042e-06
-3.5988618e-06
5.4441816e-06
-4.9098966e-06
7.0689694e-06
-6.5942947e-06
9.0926819e-06
-8.7409652e-06
1.1602122e-05
-1.1457483e-05
1.4700424e-05
-1.487339e-05
1.8509319e-05
-1.9143868e-05
2.317137e-05
-2.4453725e-05
2.8852018e-05
-3.1021599e-05
3.5741208e-05
-3.9104227e-05
4.4054206e-05
-4.9000464e-05
5.4031085e-05
-6.1054667e-05
6.5934222e-05
-7.5658822e-05
8.004286e-05
-9.325261e-05
9.6643624e-05
-0.00011432024
0.0001160156
-0.00013938263
0.00013840862
-0.00016898324
0.0001640137
-0.00020366568
0.0001929264
-0.00024394223
0.00022510753
-0.00029025457
0.00026035478
-0.00034293385
0.00029831259
-0.00040217583
0.00033855928
-0.00046805357
0.00038079295
-0.00054058032
0.00042506033
-0.00061980454
0.00047188464
-0.00070589184
0.00052219522
-0.00079916265
0.0005771435
-0.0009000918
0.00063796987
-0.0010092958
0.0007059915
-0.0011275283
0.0007826807
-0.0012556936
0.00086978871
-0.0013948824
0.000969492
-0.001546432
0.0010845533
-0.0017120156
0.0012184856
-0.0018937646
0.0013756955
-0.0020944338
0.0015615776
-0.002317594
0.0017824218
-0.0025677708
0.0020448056
-0.002850618
0.0023546853
-0.0031731364
0.002715866
-0.0035437746
0.0031264224
-0.0039723535
0.0035724149
-0.0044697037
0.0040171067
-0.0050463601
0.0043818467
-0.0057095157
0.004515732
-0.006454734
0.0041468188
-0.0072482272
0.0028213818
-0.0080050738
-0.00012599414
-0.0085201461
-0.0055701344
-0.0084951121
-0.014225031
-0.0075817379
-0.025911541
-0.0057269785
-0.038349526
-0.0031623007
-0.047595252
-0.00043683496
-0.048749757
0.0024056719
-0.036971552
-0.011733396
0.0062189906
-1.2566218e-08
8.1674913e-08
-5.5939293e-08
2.821191e-07
-1.4041494e-07
5.4981493e-07
-2.7896805e-07
9.0234563e-07
-4.8787314e-07
1.361406e-06
-7.874579e-07
1.9536805e-06
-1.2030094e-06
2.7118791e-06
-1.7658685e-06
3.6759632e-06
-2.5147307e-06
4.8945664e-06
-3.497201e-06
6.426652e-06
-4.7716237e-06
8.3433921e-06
-6.4092357e-06
1.0730294e-05
-8.4966605e-06
1.3689546e-05
-1.1138789e-05
1.7342553e-05
-1.4462036e-05
2.1832566e-05
-1.8617989e-05
2.7327323e-05
-2.3787396e-05
3.4021424e-05
-3.0184405e-05
4.2138217e-05
-3.8060896e-05
5.1930697e-05
-4.7710661e-05
6.368085e-05
-5.9473001e-05
7.7696561e-05
-7.3735202e-05
9.4305061e-05
-9.0933058e-05
0.00011384148
-0.0001115483
0.00013663085
-0.00013610157
0.00016296188
-0.00016513901
0.00019305114
-0.0001992108
0.0002269982
-0.00023884019
0.00026473691
-0.00028448393
0.00030599852
-0.00033649034
0.00035031901
-0.00039506979
0.00039713873
-0.00046030008
0.00044602323
-0.00053218288
0.00049694313
-0.00061073736
0.00055043912
-0.00069608687
0.00060754473
-0.00078850216
0.0006695588
-0.00088840319
0.0007378709
-0.00099634433
0.00081393264
-0.0011130055
0.00089934185
-0.0012391999
0.00099598315
-0.0013759036
0.0011061957
-0.0015243091
0.0012329587
-0.0016859081
0.0013800847
-0.001862608
0.0015523954
-0.0020568948
0.0017558644
-0.002272023
0.0019975501
-0.0025121631
0.0022849457
-0.0027826201
0.0026251424
-0.0030900897
0.0030233355
-0.0034428509
0.0034791837
-0.0038508529
0.0039804169
-0.0043255839
0.0044918377
-0.0048790151
0.004935278
-0.0055208946
0.0051576115
-0.0062501515
0.0048760757
-0.0070372748
0.0036085051
-0.0077878641
0.00062459511
-0.0082763252
-0.0050816733
-0.0081382589
-0.014363097
-0.0069568267
-0.027092973
-0.0046791947
-0.040627158
-0.0016122521
-0.050662195
0.0015801038
-0.051942113
0.0046796473
-0.040071096
-0.015461835
0.0084080861
-1.1976283e-08
9.3651197e-08
-5.33228e-08
3.2346562e-07
-1.3386488e-07
6.30357e-07
-2.6598644e-07
1.0344672e-06
-4.6522378e-07
1.5606433e-06
-7.5098534e-07
2.2394421e-06
-1.1474246e-06
3.1083184e-06
-1.6844837e-06
4.2130223e-06
-2.3991506e-06
5.6092333e-06
-3.336949e-06
7.3644504e-06
-4.5537105e-06
9.5601536e-06
-6.1176507e-06
1.2294234e-05
-8.111799e-06
1.5683695e-05
-1.0636796e-05
1.9867549e-05
-1.3814091e-05
2.5009861e-05
-1.7789533e-05
3.1302766e-05
-2.2737335e-05
3.8969226e-05
-2.8864326e-05
4.8265207e-05
-3.6414363e-05
5.9480735e-05
-4.5672661e-05
7.2939147e-05
-5.6969695e-05
8.8993595e-05
-7.0684108e-05
0.00010801947
-8.7243839e-05
0.00013040121
-0.00010712444
0.00015651145
-0.00013084305
0.00018668049
-0.00015894637
0.00022115446
-0.00019199045
0.00026004228
-0.00023051083
0.00030325729
-0.00027498308
0.00035047077
-0.00032577863
0.00040111456
-0.00038312911
0.00045448921
-0.00044712183
0.00051001595
-0.0005177463
0.0005675676
-0.00059498464
0.00062767746
-0.00067890364
0.00069146373
-0.00076970595
0.0007603611
-0.0008677353
0.00083590025
-0.00097345959
0.00091965693
-0.0010874559
0.0010133381
-0.00121041
0.0011189373
-0.0013431364
0.0012389221
-0.0014866209
0.0013764432
-0.0016420907
0.0015355545
-0.0018111183
0.001721423
-0.001995769
0.0019405151
-0.0021987668
0.0022005478
-0.002423645
0.002509824
-0.0026749683
0.0028764657
-0.00295858
0.0033069471
-0.0032818307
0.0038024345
-0.0036537434
0.0043523296
-0.0040849951
0.0049230894
-0.0045869743
0.0054372572
-0.005169366
0.0057400032
-0.0058316461
0.0055383558
-0.0065439664
0.0043208254
-0.0071992658
0.0012798945
-0.0075458346
-0.0047351045
-0.0071450174
-0.014763914
-0.0054927391
-0.028745251
-0.0025470415
-0.043572856
0.0012960931
-0.054505329
0.0053350796
-0.0559811
0.0092791377
-0.044015154
-0.019977167
0.01379447
-1.1167332e-08
1.0481853e-07
-4.9731084e-08
3.6202937e-07
-1.2486834e-07
7.0549426e-07
-2.4814934e-07
1.1577482e-06
-4.3409381e-07
1.7465878e-06
-7.0084906e-07
2.5061973e-06
-1.0710062e-06
3.4784755e-06
-1.5725899e-06
4.714606e-06
-2.2402369e-06
6.2768803e-06
-3.1166157e-06
8.2408293e-06
-4.2540989e-06
1.0697637e-05
-5.7167515e-06
1.3756887e-05
-7.5826425e-06
1.7549586e-05
-9.9465503e-06
2.2231457e-05
-1.2923049e-05
2.798636e-05
-1.6650021e-05
3.5029738e-05
-2.1292551e-05
4.3611756e-05
-2.7047179e-05
5.4019835e-05
-3.4146379e-05
6.6579935e-05
-4.2863075e-05
8.1655843e-05
-5.3514852e-05
9.9645372e-05
-6.6467407e-05
0.00012097203
-8.213645e-05
0.00014607025
-0.0001009871
0.00017536209
-0.00012352928
0.00020922267
-0.00015030737
0.00024793255
-0.00018188193
0.00029161685
-0.00021880156
0.00034017692
-0.00026156391
0.00039323312
-0.0003105693
0.00045011995
-0.00036607795
0.00050999786
-0.00042819271
0.00057213071
-0.00049689181
0.0006362667
-0.0005721134
0.00070289906
-0.00065385319
0.00077320351
-0.00074222585
0.00084873377
-0.00083747572
0.00093115012
-0.00093995757
0.0010221388
-0.0010501139
0.0011234945
-0.0011684639
0.0012372873
-0.0012956094
0.0013660676
-0.0014322621
0.0015130959
-0.001579294
0.0016825865
-0.0017378185
0.0018799474
-0.0019093101
0.0021120067
-0.0020957266
0.0023869643
-0.0022996335
0.0027137309
-0.0025243976
0.0031012297
-0.0027743587
0.0035569083
-0.003055014
0.0040830898
-0.0033731429
0.0046704584
-0.0037367187
0.0052866652
-0.004153837
0.0058543754
-0.0046305681
0.0062167343
-0.0051624545
0.0060702422
-0.0057126294
0.0048710003
-0.006158213
0.0017254781
-0.0062045413
-0.0046887762
-0.0053366612
-0.015631795
-0.002959117
-0.031122795
0.00093071244
-0.047462685
0.0057730674
-0.059347684
0.010917448
-0.061125481
0.01611009
-0.049207795
-0.026003125
0.022136048
-1.0139384e-08
1.1495791e-07
-4.5165328e-08
3.9705532e-07
-1.1342935e-07
7.7375828e-07
-2.2546511e-07
1.2697839e-06
-3.944994e-07
1.9156221e-06
-6.3707171e-07
2.7487696e-06
-9.7378839e-07
3.8151922e-06
-1.4302281e-06
5.1710457e-06
-2.0380404e-06
6.8846926e-06
-2.8362527e-06
9.0390416e-06
-3.8728331e-06
1.1734217e-05
-5.206545e-06
1.5090598e-05
-6.9091335e-06
1.9252174e-05
-9.0678735e-06
2.4390197e-05
-1.1788525e-05
3.0707012e-05
-1.5198715e-05
3.8439928e-05
-1.9451748e-05
4.7864789e-05
-2.473081e-05
5.9298897e-05
-3.12535e-05
7.3102626e-05
-3.927653e-05
8.9678872e-05
-4.9100281e-05
0.00010946912
-6.1072868e-05
0.00013294462
-7.5592954e-05
0.00016059034
-9.3110411e-05
0.00019287955
-0.00011412349
0.00023023575
-0.00013917059
0.00027297965
-0.00016881452
0.00032126079
-0.00020361663
0.00037497903
-0.00024409913
0.00043371562
-0.00029069673
0.00049671754
-0.00034370589
0.00056300702
-0.00040325245
0.00063167727
-0.00046930651
0.00070232075
-0.00054175695
0.0007753495
-0.00062051414
0.0008519607
-0.00070558388
0.00093380351
-0.00079708589
0.0010226521
-0.00089523295
0.0011202858
-0.001000299
0.0012285605
-0.0011125942
0.0013495824
-0.0012324535
0.0014859269
-0.0013602421
0.0016408845
-0.0014963786
0.0018187231
-0.0016413823
0.002024951
-0.0017959483
0.0022665727
-0.0019610065
0.0025520226
-0.0021377833
0.0028905077
-0.0023279159
0.0032913623
-0.0025334715
0.0037624639
-0.0027569768
0.0043065951
-0.0030013282
0.0049148099
-0.0032693576
0.0055546946
-0.003562244
0.0061472618
-0.0038774094
0.0065318998
-0.0041995696
0.0063924025
-0.004475251
0.0051466816
-0.0045534229
0.00180365
-0.0040732793
-0.0051689198
-0.0024280563
-0.017277017
0.0010360131
-0.034586865
0.0062099459
-0.052636618
0.012278902
-0.06541664
0.018583561
-0.06743014
0.025141225
-0.055765459
-0.033840515
0.032978614
-8.9006857e-09
1.238586e-07
-3.9662534e-08
4.2781717e-07
-9.9640064e-08
8.3373581e-07
-1.9811581e-07
1.3682597e-06
-3.4675403e-07
2.0642603e-06
-5.601547e-07
2.9621703e-06
-8.5652432e-07
4.1115618e-06
-1.2584912e-06
5.5730126e-06
-1.79409e-06
7.4202914e-06
-2.4979468e-06
9.7428983e-06
-3.4126989e-06
1.2648969e-05
-4.5906953e-06
1.6268595e-05
-6.0959975e-06
2.0757476e-05
-8.0067634e-06
2.6300963e-05
-1.0418014e-05
3.3118263e-05
-1.3444848e-05
4.1466761e-05
-1.7226114e-05
5.1646055e-05
-2.1928547e-05
6.4001329e-05
-2.7751296e-05
7.8925374e-05
-3.4930792e-05
9.6858369e-05
-4.3745706e-05
0.00011828404
-5.4521593e-05
0.0001437205
-6.7634779e-05
0.00017370353
-8.3514502e-05
0.00020875927
-0.00010264203
0.00024936328
-0.00012554516
0.00029588277
-0.00015278538
0.00034850101
-0.00018493525
0.0004071289
-0.00022254267
0.00047132305
-0.0002660813
0.00054025617
-0.00031589171
0.00061281743
-0.00037213184
0.0006879174
-0.0004347694
0.00076495831
-0.0005036415
0.0008442216
-0.00057856007
0.00092687927
-0.00065940039
0.0010146438
-0.00074613063
0.0011093824
-0.00083879046
0.0012129457
-0.00093744891
0.001327219
-0.0010421623
0.0014542958
-0.0011529414
0.0015967059
-0.0012697282
0.0017576713
-0.0013923841
0.0019413789
-0.0015206897
0.0021532566
-0.0016543559
0.0024002389
-0.0017929944
0.002690661
-0.0019360825
0.0030335957
-0.0020829183
0.0034381981
-0.002232396
0.0039119416
-0.0023827293
0.0044569284
-0.0025308962
0.0050629768
-0.0026714757
0.0056952741
-0.0027939665
0.0062697526
-0.0028803794
0.0066183127
-0.0028941123
0.0064061354
-0.0027479214
0.0050004907
-0.0022347016
0.0012904302
-0.00088603184
-0.0065175895
0.0020391827
-0.020202232
0.0071346766
-0.039682359
0.014071001
-0.059572943
0.021580837
-0.072926476
0.028849199
-0.074698501
0.036564347
-0.063480607
-0.043331853
0.046055685
-7.4675628e-09
1.3132616e-07
-3.3293378e-08
4.5364298e-07
-8.367612e-08
8.8411855e-07
-1.6644705e-07
1.4510306e-06
-2.9145912e-07
2.1892723e-06
-4.7106035e-07
3.1417715e-06
-7.2067239e-07
4.3611739e-06
-1.0594979e-06
5.9118382e-06
-1.5113731e-06
7.8721665e-06
-2.1058078e-06
1.0337333e-05
-2.8792376e-06
1.3422399e-05
-3.8765272e-06
1.7265885e-05
-5.1527839e-06
2.2033733e-05
-6.7754995e-06
2.7923679e-05
-8.8271118e-06
3.5169875e-05
-1.1407989e-05
4.4047638e-05
-1.4639914e-05
5.4877981e-05
-1.8670098e-05
6.8031513e-05
-2.3675691e-05
8.3930967e-05
-2.9868745e-05
0.00010305142
-3.7501522e-05
0.00012591681
-4.6871831e-05
0.00015309081
-5.8327967e-05
0.00018515966
-7.2272439e-05
0.00022270375
-8.9163446e-05
0.00026625428
-0.00010951221
0.00031623154
-0.00013387395
0.00037286274
-0.00016282901
0.00043608396
-0.00019695035
0.00050544439
-0.00023675358
0.00058005939
-0.00028263074
0.00065869459
-0.00033478234
0.000740069
-0.00039318286
0.00082335883
-0.0004576189
0.00090865764
-0.00052779323
0.0009970536
-0.00060342907
0.0010902797
-0.00068431448
0.0011902678
-0.00077028294
0.0012989141
-0.00086115998
0.001418096
-0.00095670153
0.0015498374
-0.0010565339
0.0016965383
-0.0011600967
0.0018612341
-0.0012665847
0.0020478669
-0.0013748883
0.0022615603
-0.0014835148
0.0025088654
-0.0015904427
0.0027975889
-0.0016929466
0.0031360997
-0.0017872976
0.0035325491
-0.0018681695
0.0039928135
-0.0019278514
0.0045166102
-0.0019548358
0.0050899612
-0.0019314924
0.0056719307
-0.001829926
0.0061681861
-0.0016074926
0.0063958794
-0.0011901576
0.0059888004
-0.00042908385
0.0042394169
0.00099097431
-0.00012962797
0.0037300856
-0.0092567008
0.0087085185
-0.025180665
0.016308011
-0.047281851
0.025593171
-0.068858103
0.034728189
-0.082061494
0.042596068
-0.082566381
0.050884442
-0.071768981
-0.053899255
0.061451844
-5.8658636e-09
1.3719202e-07
-2.6172921e-08
4.7395004e-07
-6.5824487e-08
9.2377012e-07
-1.3102627e-07
1.5162324e-06
-2.2959967e-07
2.2878457e-06
-3.7136737e-07
3.2835392e-06
-5.6862896e-07
4.5584355e-06
-8.3673825e-07
6.1799474e-06
-1.1948168e-06
8.2302451e-06
-1.6666202e-06
1.0809136e-05
-2.2815983e-06
1.4037377e-05
-3.0761844e-06
1.8060471e-05
-4.0953653e-06
2.3052914e-05
-5.394561e-06
2.9222874e-05
-7.0419145e-06
3.6817229e-05
-9.1210146e-06
4.6126738e-05
-1.173414e-05
5.7491106e-05
-1.5006047e-05
7.130342e-05
-1.908842e-05
8.801334e-05
-2.4164888e-05
0.00010812789
-3.0456601e-05
0.00013220853
-3.8228239e-05
0.00016086245
-4.7793989e-05
0.00019472541
-5.9523008e-05
0.00023443277
-7.3843269e-05
0.00028057455
-9.1242271e-05
0.00033363054
-0.00011226211
0.00039388259
-0.00013748538
0.00046130722
-0.0001675068
0.00053546581
-0.00020288467
0.00061543726
-0.00024406859
0.00069987852
-0.00029131293
0.00078731334
-0.00034461171
0.00087665761
-0.0004037073
0.00096775323
-0.00046818637
0.0010615327
-0.00053759986
0.0011596932
-0.0006115262
0.0012641941
-0.00068955758
0.0013769455
-0.00077123573
0.0014997742
-0.00085596772
0.0016345694
-0.00094293417
0.0017835048
-0.0010309902
0.0019492901
-0.001118552
0.0021354287
-0.0012034601
0.0023464684
-0.0012827876
0.0025881929
-0.0013525452
0.0028673464
-0.0014073025
0.0031908571
-0.0014395319
0.0035647785
-0.001438473
0.0039917545
-0.00138855
0.0044666873
-0.0012666217
0.0049680328
-0.0010373743
0.0054426834
-0.00064998956
0.0057808014
-2.414249e-05
0.0057700323
0.00097532894
0.004989329
0.002602188
0.0026125579
0.0053717001
-0.0028991401
0.010239701
-0.014124702
0.01827864
-0.033219603
0.029429037
-0.058432249
0.041613491
-0.081042556
0.052330536
-0.09277854
0.06051265
-0.090748494
0.068690391
-0.079946722
-0.064731399
0.079522535
-4.1294231e-09
1.4132145e-07
-1.84513e-08
4.8827191e-07
-4.6461003e-08
9.5177982e-07
-9.259625e-08
1.5623676e-06
-1.6246982e-07
2.3577193e-06
-2.6315736e-07
3.3842268e-06
-4.0355719e-07
4.6988353e-06
-5.948312e-07
6.3712215e-06
-8.5095871e-07
8.4863726e-06
-1.1894117e-06
1.1147589e-05
-1.632008e-06
1.4479973e-05
-2.2059456e-06
1.8634408e-05
-2.9451004e-06
2.3792069e-05
-3.8916188e-06
3.0169392e-05
-5.0978769e-06
3.8023487e-05
-6.6288854e-06
4.7657747e-05
-8.5652074e-06
5.9427428e-05
-1.1006518e-05
7.3744731e-05
-1.4075824e-05
9.1082645e-05
-1.7924478e-05
0.00011197655
-2.2737976e-05
0.00013702203
-2.874246e-05
0.00016686693
-3.6211764e-05
0.00020219472
-4.5474514e-05
0.00024369552
-5.692052e-05
0.00029202055
-7.1004922e-05
0.00034771494
-8.8247902e-05
0.00041112557
-0.00010922603
0.00048228535
-0.00013454941
0.00056078919
-0.00016481638
0.00064570424
-0.0002005375
0.00073559964
-0.00024203217
0.00082880801
-0.00028932995
0.00092395538
-0.00034214099
0.0010205643
-0.00039993465
0.0011193263
-0.00046207229
0.0012218308
-0.00052789344
0.0013300153
-0.00059671242
0.0014457645
-0.00066774528
0.0015708071
-0.00074000049
0.0017068246
-0.00081215059
0.0018556549
-0.00088238337
0.0020195229
-0.00094822138
0.0022012667
-0.0010062903
0.0024045373
-0.0010519869
0.0026338896
-0.001078999
0.0028943585
-0.0010786391
0.0031904972
-0.0010387115
0.0035248509
-0.0009416154
0.0038946584
-0.00076156861
0.0042866405
-0.00046013039
0.0046665946
2.0999268e-05
0.0049615537
0.00076508772
0.0050367129
0.0019085791
0.004626541
0.0036770448
0.0032208633
0.0064918605
-0.00020225785
0.011185779
-0.0075930587
0.019075205
-0.022014128
0.030974288
-0.045118686
0.045728525
-0.073186486
0.06005465
-0.095368681
0.071711229
-0.10443512
0.080588127
-0.099625393
0.089269262
-0.088627858
-0.075871266
0.10040913
-2.3046626e-09
1.4362611e-07
-1.0334608e-08
4.9630186e-07
-2.6102275e-08
9.6754749e-07
-5.2181469e-08
1.5884468e-06
-9.1854879e-08
2.3973927e-06
-1.4929893e-07
3.4416708e-06
-2.2981766e-07
4.779354e-06
-3.4014161e-07
6.4815454e-06
-4.8880351e-07
8.6350345e-06
-6.8661855e-07
1.1345404e-05
-9.4729149e-07
1.4740646e-05
-1.288199e-06
1.8975316e-05
-1.7313684e-06
2.4235238e-05
-2.304748e-06
3.0742772e-05
-3.0437865e-06
3.8762525e-05
-3.9934632e-06
4.8607423e-05
-5.2108432e-06
6.0644808e-05
-6.7682501e-06
7.5302138e-05
-8.7572324e-06
9.3071628e-05
-1.1293416e-05
0.00011451273
-1.452238e-05
0.00014025099
-1.8626537e-05
0.00017097109
-2.3833087e-05
0.00020740127
-3.0422678e-05
0.00025028511
-3.8738179e-05
0.00030033605
-4.9192449e-05
0.00035816921
-6.227284e-05
0.00042420596
-7.853868e-05
0.00049855119
-9.8605103e-05
0.00058085562
-0.00012310315
0.00067020228
-0.00015260348
0.00076509996
-0.00018750002
0.00086370455
-0.000227877
0.00096433236
-0.00027343068
0.001066118
-0.00032351824
0.0011694139
-0.00037730023
0.0012756128
-0.00043384965
0.0013865647
-0.00049216556
0.0015040804
-0.00055109483
0.0016297363
-0.00060919675
0.0017649265
-0.00066457259
0.0019110307
-0.00071465892
0.0020696092
-0.0007559672
0.002242575
-0.00078373672
0.0024323068
-0.00079143321
0.002641586
-0.00077003704
0.0028729623
-0.00070698943
0.0031274495
-0.00058442505
0.0034022866
-0.00037620288
0.0036864363
-4.3574321e-05
0.0039540119
0.00047171621
0.0041513041
0.0012561057
0.0041771643
0.0024433356
0.003849483
0.0042446282
0.0028252484
0.0070143723
0.0004511191
0.011439469
-0.0046273546
0.018781294
-0.014934883
0.030378661
-0.033611496
0.045862642
-0.060602667
0.062052671
-0.089376515
0.075444772
-0.10876078
0.085772184
-0.11476253
0.09524768
-0.10910089
0.10628567
-0.099665844
-0.089734368
0.12014877
-4.4382397e-10
1.4406993e-07
-2.0539412e-09
4.9791198e-07
-5.3248549e-09
9.708184e-07
-1.092344e-08
1.5940454e-06
-1.9744258e-08
2.4062135e-06
-3.2992265e-08
3.4549188e-06
-5.2285383e-08
4.7986471e-06
-7.9801359e-08
6.5090614e-06
-1.1847375e-07
8.6737069e-06
-1.7225729e-07
1.1399188e-05
-2.4649354e-07
1.4814883e-05
-3.4839434e-07
1.9077217e-05
-4.8770816e-07
2.4374552e-05
-6.7760902e-07
3.0932673e-05
-9.3588427e-07
3.90208e-05
-1.2865233e-06
4.8958062e-05
-1.7618045e-06
6.1120089e-05
-2.4050464e-06
7.594538e-05
-3.2741752e-06
9.3940756e-05
-4.4462736e-06
0.00011568483
-6.0233433e-06
0.00014182806
-8.1394224e-06
0.00017308717
-1.0969136e-05
0.00021023098
-1.473769e-05
0.00025405366
-1.9731886e-05
0.00030533025
-2.6311275e-05
0.0003647486
-3.4917543e-05
0.00043281223
-4.6078429e-05
0.00050971208
-6.0399438e-05
0.00059517663
-7.8531588e-05
0.00068833443
-0.00010109871
0.00078766709
-0.00012857694
0.00089118278
-0.00016112243
0.00099687785
-0.00019843726
0.0011034328
-0.00023978238
0.001210759
-0.00028411419
0.0013199446
-0.00033021827
0.0014326688
-0.00037674115
0.0015506033
-0.00042211603
0.0016751112
-0.00046440085
0.0018072113
-0.00050106134
0.0019476912
-0.00052869676
0.0020972446
-0.00054268491
0.0022565631
-0.00053669633
0.0024263183
-0.00050198874
0.0026068785
-0.00042639727
0.0027973709
-0.00029277327
0.0029938255
-7.6341797e-05
0.0031858551
0.00025981686
0.0033502776
0.00077129485
0.003442534
0.0015419536
0.0033806453
0.0026954385
0.0030236793
0.0044325237
0.0021123979
0.0070689924
0.00018877966
0.011167777
-0.0036476659
0.01781587
-0.011275447
0.028537812
-0.025656825
0.043774556
-0.04884824
0.060862738
-0.077690849
0.075056786
-0.10357056
0.084772914
-0.11847691
0.092238654
-0.12222827
0.10095072
-0.11781295
0.11314041
-0.11185553
-0.10678376
0.1301898
1.387201e-09
1.4268273e-07
6.0963577e-09
4.9320282e-07
1.513061e-08
9.6178415e-07
2.970917e-08
1.5794669e-06
5.1296592e-08
2.3846261e-06
8.1633169e-08
3.4245822e-06
1.2275473e-07
4.7575256e-06
1.7700397e-07
6.4548121e-06
2.4701591e-07
8.603695e-06
3.3566803e-07
1.1310536e-05
4.4597832e-07
1.4704572e-05
5.8090528e-07
1.894229e-05
7.4303928e-07
2.4212418e-05
9.340996e-07
3.0741613e-05
1.1541857e-06
3.8800714e-05
1.4006791e-06
4.8711569e-05
1.6666699e-06
6.0854098e-05
1.9387326e-06
7.5673317e-05
2.1939063e-06
9.3685583e-05
2.3955683e-06
0.00011548317
2.4880034e-06
0.00014173562
2.3893458e-06
0.00017318583
1.9826539e-06
0.00021063767
1.1050213e-06
0.00025493129
-4.6532619e-07
0.0003069006
-3.0231962e-06
0.00036730647
-6.9504464e-06
0.00043673948
-1.2726446e-05
0.00051548808
-2.0928121e-05
0.0006033783
-3.2206844e-05
0.00069961315
-4.721862e-05
0.00080267886
-6.6505064e-05
0.00091046923
-9.0351353e-05
0.0010207241
-0.00011846017
0.0011315416
-0.00015001977
0.0012423186
-0.00018380821
0.0013537331
-0.00021830788
0.0014671684
-0.00025177203
0.0015840674
-0.00028217386
0.001705513
-0.00030701578
0.0018320532
-0.00032306101
0.0019637364
-0.00032598007
0.0021001637
-0.00030988271
0.0022404658
-0.00026666412
0.0023830997
-0.00018504873
0.0025252631
-4.9179136e-05
0.0026615013
0.00016358825
0.0027810582
0.00048665036
0.002862793
0.00097084143
0.0028660865
0.0016933968
0.0027199786
0.0027692639
0.0023047783
0.0043835225
0.0014094207
0.0068242072
-0.00032828684
0.010572978
-0.0035599914
0.016553438
-0.0096281261
0.026232725
-0.020954734
0.040588058
-0.040012158
0.057804765
-0.066064946
0.073102719
-0.092988803
0.083093299
-0.11356114
0.089249183
-0.12463279
0.094954178
-0.12793326
0.10310899
-0.12596777
0.11507961
-0.12382615
-0.12379305
0.1320889
3.1223674e-09
1.3956037e-07
1.3825826e-08
4.8249936e-07
3.4540616e-08
9.4106936e-07
6.8282539e-08
1.5457249e-06
1.1876904e-07
2.3341396e-06
1.9054977e-07
3.3528015e-06
2.8915734e-07
4.658918e-06
4.2126177e-07
6.3227077e-06
5.9484329e-07
8.4301135e-06
8.1935292e-07
1.1086026e-05
1.1058609e-06
1.4418064e-05
1.4671644e-06
1.8580986e-05
1.9178211e-06
2.3761761e-05
2.4740568e-06
3.0185377e-05
3.1534778e-06
3.8121293e-05
3.9744914e-06
4.7890555e-05
4.9553189e-06
5.9873271e-05
6.112393e-06
7.4516243e-05
7.457968e-06
9.2340008e-05
8.9966375e-06
0.0001139445
1.0720439e-05
0.00014001182
1.2602177e-05
0.00017130409
1.458657e-05
0.00020865328
1.6578838e-05
0.00025293903
1.8430658e-05
0.00030504878
1.9923509e-05
0.00036581362
2.0750608e-05
0.00043591238
2.0500228e-05
0.00051573846
1.8646602e-05
0.00060523193
1.4559841e-05
0.00070369992
7.5538017e-06
0.0008096849
-2.9366669e-06
0.0009209597
-1.7339498e-05
0.001035127
-3.5300552e-05
0.0011495027
-5.6076043e-05
0.0012630941
-7.8274944e-05
0.001375932
-0.00010004867
0.0014889422
-0.00011923689
0.0016032556
-0.00013330589
0.001719582
-0.00013914382
0.0018378912
-0.0001327371
0.0019573297
-0.00010872265
0.0020761492
-5.9780475e-05
0.0021915236
2.4231411e-05
0.0022990878
0.00015755351
0.002391941
0.00036049383
0.002458561
0.00066255532
0.0024789967
0.0011083368
0.0024170115
0.0017673433
0.00220708
0.0027440152
0.0017433066
0.0042067993
0.00084199416
0.0064244063
-0.00080818626
0.0098246531
-0.0037285337
0.015221757
-0.0089570952
0.023949148
-0.018355517
0.037166127
-0.034171713
0.053847182
-0.056693214
0.069754456
-0.08197222
0.08064132
-0.10387567
0.086718264
-0.11963809
0.091105038
-0.12901957
0.096472444
-0.13330067
0.1047839
-0.13427922
0.11676593
-0.13580818
-0.14001308
0.13298595
4.6909932e-09
1.3486937e-07
2.0814415e-08
4.6637594e-07
5.2094898e-08
9.0978888e-07
1.0318108e-07
1.4946388e-06
1.7983781e-07
2.2574829e-06
2.891786e-07
3.2434607e-06
4.3992218e-07
4.5081744e-06
6.4269844e-07
6.1199314e-06
9.1038142e-07
8.1624305e-06
1.2584585e-06
1.0737949e-05
1.7054198e-06
1.3971103e-05
2.2731639e-06
1.8013242e-05
2.9873568e-06
2.3047568e-05
3.8777628e-06
2.9294971e-05
4.9784172e-06
3.7020639e-05
6.3276032e-06
4.6541369e-05
7.9674572e-06
5.8233417e-05
9.9431125e-06
7.2540587e-05
1.2301013e-05
8.9982107e-05
1.5086265e-05
0.00011115924
1.8338517e-05
0.00013675957
2.2085993e-05
0.00016755661
2.6337151e-05
0.00020440212
3.1069413e-05
0.00024820676
3.621453e-05
0.00029990366
4.1640447e-05
0.0003603877
4.7130228e-05
0.0004304226
5.2360222e-05
0.00051050846
5.6883412e-05
0.00060070874
6.0133519e-05
0.00070044981
6.1453192e-05
0.00080836523
6.013512e-05
0.00092227777
5.5937892e-05
0.0010393242
4.8888783e-05
0.0011565518
3.9686305e-05
0.0012722966
2.9987103e-05
0.0013856312
2.1930468e-05
0.0014969988
1.8112152e-05
0.001607074
2.1623155e-05
0.001716071
3.6246575e-05
0.0018232678
6.6856911e-05
0.0019267194
0.00011998244
0.0020230237
0.00020459139
0.0021069146
0.00033324059
0.0021704386
0.00052382124
0.0022013603
0.0008022425
0.0021801397
0.0012072212
0.002074018
0.0017990151
0.0018252176
0.0026726303
0.0013334648
0.0039792091
0.00043672789
0.0059682699
-0.0011470667
0.0090383441
-0.0038782604
0.013946045
-0.0086362351
0.021902286
-0.016913336
0.034017792
-0.030471023
0.049716822
-0.049870743
0.065549049
-0.072525442
0.077129843
-0.093553014
0.083765843
-0.11051167
0.087968988
-0.12384123
0.092018231
-0.13306881
0.097762722
-0.13904516
0.10641192
-0.14292842
0.11837498
-0.14777124
-0.15555681
0.13391871
6.007347e-09
1.2886202e-07
2.6687371e-08
4.4569592e-07
6.6861614e-08
8.6961463e-07
1.3256212e-07
1.4289383e-06
2.3129548e-07
2.1587495e-06
3.7235087e-07
3.1024053e-06
5.6716781e-07
4.3133575e-06
8.2975858e-07
5.8573407e-06
1.1771924e-06
7.8149967e-06
1.6301498e-06
1.0284992e-05
2.2135314e-06
1.3387721e-05
2.9571206e-06
1.7269653e-05
3.8962859e-06
2.2108403e-05
5.0726636e-06
2.8118593e-05
6.5348143e-06
3.5558488e-05
8.3387223e-06
4.4737461e-05
1.0548065e-05
5.6024074e-05
1.323403e-05
6.9854622e-05
1.6474556e-05
8.674158e-05
2.0352545e-05
0.00010728126
2.4952797e-05
0.00013215932
3.0357054e-05
0.00016215235
3.663663e-05
0.00019812255
4.3841869e-05
0.00024100153
5.1987804e-05
0.00029175772
6.1035408e-05
0.0003513401
7.0868477e-05
0.00042058953
8.1267554e-05
0.00050010938
9.188499e-05
0.0005900913
0.00010222786
0.00069010694
0.00011169432
0.00079889877
0.00011974883
0.00091422325
0.00012624601
0.001032827
0.00013070069
0.0011520971
0.00013383736
0.0012691599
0.00013742198
0.0013820465
0.00014395714
0.0014904636
0.00015648727
0.0015945438
0.00017869319
0.0016938651
0.00021510753
0.0017868534
0.00027158518
0.0018702417
0.00035601442
0.0019385945
0.00047935284
0.0019835762
0.00065718628
0.0019926051
0.00091217872
0.0019463679
0.0012779684
0.0018143501
0.0018068622
0.0015451242
0.0025829797
0.0010491
0.0037433452
0.00017309935
0.0055166114
-0.0013365383
0.0082891531
-0.0039196084
0.012791442
-0.0083805488
0.020151307
-0.0159961
0.031320342