/*--------------------------------*- C++ -*----------------------------------*\
  =========                 |
  \\      /  F ield         | OpenFOAM: The Open Source CFD Toolbox
   \\    /   O peration     | Website:  https://openfoam.org
    \\  /    A nd           | Version:  13
     \\/     M anipulation  |
\*---------------------------------------------------------------------------*/
FoamFile
{
    format      ascii;
    class       surfaceScalarField;
    location    "0.04";
    object      phi;
}
// * * * * * * * * * * * * * * * * * * * * * * * * * * * * * * * * * * * * * //

dimensions      [1 0 -1 0 0 0 0];

internalField   nonuniform List<scalar> 
999
(
27.7483
27.9877
28.227
28.4662
28.7053
28.9443
29.1832
29.4221
29.6608
29.8995
30.138
30.3765
30.6149
30.8532
31.0914
31.3295
31.5675
31.8054
32.0432
32.281
32.5186
32.7562
32.9936
33.231
33.4683
33.7055
33.9426
34.1795
34.4165
34.6533
34.89
35.1266
35.3631
35.5996
35.8359
36.0722
36.3083
36.5444
36.7804
37.0163
37.252
37.4877
37.7233
37.9588
38.1942
38.4296
38.6648
38.8999
39.1349
39.3699
39.6047
39.8395
40.0742
40.3087
40.5432
40.7776
41.0119
41.2462
41.4803
41.7144
41.9484
42.1823
42.4162
42.6499
42.8836
43.1173
43.3509
43.5844
43.8178
44.0512
44.2846
44.5179
44.7512
44.9844
45.2176
45.4507
45.6838
45.9169
46.1499
46.383
46.6159
46.8489
47.0818
47.3147
47.5475
47.7804
48.0132
48.2459
48.4787
48.7114
48.944
49.1766
49.4092
49.6418
49.8743
50.1068
50.3392
50.5716
50.8039
51.0362
51.2684
51.5006
51.7327
51.9648
52.1968
52.4288
52.6607
52.8926
53.1244
53.3561
53.5878
53.8194
54.0509
54.2824
54.5139
54.7452
54.9765
55.2078
55.4389
55.67
55.9011
56.1321
56.363
56.5938
56.8246
57.0553
57.286
57.5166
57.7471
57.9775
58.2079
58.4382
58.6685
58.8987
59.1288
59.3588
59.5888
59.8187
60.0486
60.2784
60.5081
60.7378
60.9674
61.1969
61.4263
61.6557
61.8851
62.1143
62.3435
62.5727
62.8017
63.0307
63.2597
63.4885
63.7173
63.9461
64.1748
64.4034
64.6319
64.8604
65.0888
65.3172
65.5455
65.7737
66.0019
66.23
66.458
66.686
66.9139
67.1418
67.3696
67.5973
67.8249
68.0525
68.2801
68.5076
68.735
68.9623
69.1896
69.4168
69.644
69.8711
70.0982
70.3252
70.5521
70.7789
71.0057
71.2324
71.459
71.6856
71.912
72.1384
72.3648
72.591
72.8172
73.0433
73.2693
73.4952
73.721
73.9468
74.1725
74.398
74.6235
74.8489
75.0743
75.2995
75.5246
75.7497
75.9746
76.1995
76.4243
76.649
76.8736
77.0981
77.3225
77.5468
77.771
77.9951
78.2191
78.443
78.6669
78.8906
79.1142
79.3377
79.5612
79.7845
80.0078
80.2309
80.4539
80.6769
80.8997
81.1225
81.3451
81.5676
81.7901
82.0124
82.2346
82.4568
82.6788
82.9008
83.1226
83.3443
83.5659
83.7875
84.0089
84.2302
84.4514
84.6726
84.8936
85.1145
85.3353
85.556
85.7766
85.9971
86.2175
86.4378
86.658
86.8781
87.0981
87.318
87.5378
87.7575
87.977
88.1965
88.4159
88.6352
88.8543
89.0734
89.2924
89.5112
89.73
89.9487
90.1672
90.3857
90.604
90.8223
91.0405
91.2585
91.4765
91.6943
91.9121
92.1297
92.3473
92.5647
92.782
92.9993
93.2164
93.4335
93.6504
93.8673
94.084
94.3007
94.5172
94.7337
94.95
95.1663
95.3824
95.5985
95.8144
96.0303
96.2461
96.4617
96.6773
96.8928
97.1081
97.3234
97.5386
97.7537
97.9687
98.1836
98.3984
98.6131
98.8277
99.0422
99.2566
99.471
99.6852
99.8993
100.113
100.327
100.541
100.755
100.969
101.182
101.396
101.609
101.822
102.036
102.249
102.462
102.675
102.888
103.101
103.313
103.526
103.738
103.951
104.163
104.375
104.588
104.8
105.012
105.224
105.435
105.647
105.859
106.071
106.282
106.493
106.705
106.916
107.127
107.338
107.549
107.76
107.971
108.182
108.393
108.603
108.814
109.024
109.235
109.445
109.655
109.866
110.076
110.286
110.496
110.706
110.916
111.125
111.335
111.545
111.754
111.964
112.173
112.382
112.592
112.801
113.01
113.219
113.428
113.637
113.846
114.055
114.263
114.472
114.681
114.889
115.098
115.306
115.515
115.723
115.931
116.14
116.348
116.556
116.764
116.972
117.18
117.388
117.596
117.803
118.011
118.219
118.426
118.634
118.842
119.049
119.257
119.464
119.671
119.879
120.086
120.293
120.5
120.707
120.914
121.121
121.328
121.535
121.742
121.949
122.156
122.363
122.57
122.776
122.983
123.19
123.396
123.603
123.809
124.016
124.222
124.429
124.635
124.842
125.048
125.254
125.461
125.667
125.873
126.08
126.286
126.492
126.698
126.904
127.11
127.316
127.523
127.729
127.935
128.141
128.347
128.553
128.759
128.964
129.17
129.376
129.582
129.788
129.994
130.2
130.406
130.612
130.817
131.023
131.229
131.435
131.641
131.846
132.052
132.258
132.464
132.669
132.875
133.081
133.287
133.493
133.698
133.904
134.11
134.316
134.521
134.727
134.933
135.139
135.344
135.55
135.756
135.962
136.168
136.373
136.579
136.785
136.991
137.197
137.402
137.608
137.814
138.02
138.226
138.432
138.638
138.844
139.05
139.256
139.462
139.668
139.874
140.08
140.286
140.492
140.698
140.904
141.11
141.316
141.523
141.729
141.935
142.141
142.347
142.554
142.76
142.966
143.173
143.379
143.586
143.792
143.999
144.205
144.412
144.618
144.825
145.031
145.238
145.445
145.652
145.858
146.065
146.272
146.479
146.686
146.893
147.1
147.307
147.514
147.721
147.928
148.135
148.342
148.55
148.757
148.964
149.171
149.379
149.586
149.794
150.001
150.209
150.416
150.624
150.832
151.04
151.247
151.455
151.663
151.871
152.079
152.287
152.495
152.703
152.911
153.12
153.328
153.536
153.745
153.953
154.161
154.37
154.579
154.787
154.996
155.205
155.413
155.622
155.831
156.04
156.249
156.458
156.667
156.877
157.086
157.295
157.504
157.714
157.923
158.133
158.342
158.552
158.762
158.972
159.182
159.391
159.601
159.812
160.022
160.232
160.442
160.652
160.863
161.073
161.284
161.494
161.705
161.916
162.127
162.338
162.549
162.76
162.971
163.182
163.393
163.605
163.816
164.028
164.239
164.451
164.663
164.874
165.086
165.298
165.511
165.723
165.935
166.147
166.36
166.572
166.785
166.998
167.21
167.423
167.636
167.849
168.063
168.276
168.489
168.703
168.916
169.13
169.344
169.558
169.772
169.986
170.2
170.415
170.629
170.844
171.058
171.273
171.488
171.703
171.918
172.133
172.349
172.564
172.78
172.996
173.212
173.428
173.644
173.86
174.077
174.293
174.51
174.727
174.944
175.161
175.378
175.596
175.813
176.031
176.249
176.467
176.685
176.903
177.122
177.34
177.559
177.778
177.997
178.217
178.436
178.656
178.876
179.096
179.316
179.536
179.757
179.978
180.198
180.42
180.641
180.862
181.084
181.306
181.528
181.751
181.973
182.196
182.419
182.642
182.865
183.089
183.313
183.537
183.761
183.986
184.211
184.436
184.661
184.886
185.112
185.338
185.564
185.791
186.018
186.245
186.472
186.699
186.927
187.155
187.384
187.612
187.841
188.071
188.3
188.53
188.76
188.99
189.221
189.452
189.683
189.915
190.147
190.379
190.612
190.845
191.078
191.312
191.546
191.78
192.015
192.25
192.485
192.721
192.957
193.193
193.43
193.667
193.905
194.143
194.381
194.62
194.859
195.099
195.339
195.579
195.82
196.061
196.303
196.545
196.787
197.03
197.274
197.518
197.762
198.007
198.252
198.498
198.744
198.99
199.238
199.485
199.733
199.982
200.231
200.481
200.731
200.982
201.233
201.485
201.737
201.99
202.243
202.497
202.752
203.007
203.263
203.519
203.776
204.033
204.291
204.55
204.809
205.069
205.329
205.591
205.852
206.115
206.378
206.642
206.906
207.171
207.437
207.703
207.97
208.238
208.506
208.775
209.045
209.316
209.587
209.859
210.132
210.405
210.68
210.955
211.23
211.507
211.784
212.062
212.341
212.621
212.901
213.182
213.464
213.747
214.03
214.315
214.6
214.886
215.173
215.46
215.749
216.038
216.328
216.619
216.911
217.204
217.497
217.791
218.087
218.383
218.68
218.977
219.276
219.575
219.876
220.177
220.479
220.782
221.086
221.391
221.696
222.003
222.31
222.618
222.927
223.237
223.548
223.86
224.172
224.486
224.8
225.115
225.431
225.748
226.065
226.384
226.703
227.024
227.345
227.667
227.989
228.313
228.637
228.962
229.288
229.615
229.943
230.271
230.6
230.93
231.261
231.593
231.925
232.258
232.592
232.927
233.262
233.598
233.935
234.272
234.611
234.95
235.289
235.63
235.971
236.312
236.655
236.998
237.342
237.686
238.031
238.377
238.723
239.07
239.417
239.765
240.114
240.463
240.813
241.163
241.514
241.865
242.217
242.57
242.923
243.276
243.63
243.985
244.34
244.695
245.051
245.408
245.765
246.122
246.479
246.838
247.196
247.555
247.914
248.274
248.634
248.995
249.355
249.717
250.078
250.44
250.802
251.165
251.527
251.89
252.254
252.617
252.981
253.346
253.71
254.075
254.44
254.805
255.171
255.536
255.902
256.268
256.635
257.001
257.368
257.735
258.102
258.469
258.837
259.204
259.572
259.94
260.308
260.676
261.044
261.413
261.781
262.15
262.519
262.888
263.257
263.626
263.995
264.364
264.733
265.103
265.472
265.841
266.211
266.581
266.95
267.32
267.69
268.059
268.429
)
;

boundaryField
{
    sides
    {
        type            calculated;
        value           nonuniform List<scalar> 2(268.799 -27.5088);
    }
    empty
    {
        type            empty;
    }
}


// ************************************************************************* //
