/*--------------------------------*- C++ -*----------------------------------*\
  =========                 |
  \\      /  F ield         | OpenFOAM: The Open Source CFD Toolbox
   \\    /   O peration     | Website:  https://openfoam.org
    \\  /    A nd           | Version:  13
     \\/     M anipulation  |
\*---------------------------------------------------------------------------*/
FoamFile
{
    format      ascii;
    class       volScalarField;
    location    "47.801614";
    object      pPrime2Mean;
}
// * * * * * * * * * * * * * * * * * * * * * * * * * * * * * * * * * * * * * //

dimensions      [0 4 -4 0 0 0 0];

internalField   nonuniform List<scalar> 
17140
(
6489.6478
6489.6479
6489.6479
6489.6477
6489.6473
6489.6467
6489.6458
6489.6446
6489.643
6489.6408
6489.6381
6489.6345
6489.63
6489.6242
6489.6169
6489.6075
6489.5956
6489.5805
6489.5612
6489.5365
6489.505
6489.4647
6489.4129
6489.3465
6489.2614
6489.1523
6489.0128
6488.8349
6488.6089
6488.323
6487.9625
6487.5095
6486.9422
6486.2341
6485.353
6484.2606
6482.9116
6481.253
6479.2236
6476.7533
6473.7626
6470.1614
6465.8483
6460.7095
6454.6184
6447.4345
6439.0029
6429.1542
6417.7027
6404.4467
6389.1672
6371.6275
6351.5711
6328.722
6302.7818
6273.4295
6240.3163
6203.0675
6161.2708
6114.4895
6062.2339
6004.0051
5939.2143
5867.2954
5787.5598
6489.8092
6489.8093
6489.8093
6489.8091
6489.8087
6489.8081
6489.8072
6489.8059
6489.8043
6489.8021
6489.7993
6489.7957
6489.7911
6489.7852
6489.7777
6489.7682
6489.7561
6489.7407
6489.7211
6489.6961
6489.6642
6489.6234
6489.5711
6489.5042
6489.4186
6489.309
6489.1693
6488.9913
6488.7655
6488.48
6488.1201
6487.6679
6487.1015
6486.3944
6485.5143
6484.423
6483.0751
6481.4177
6479.3897
6476.9211
6473.9322
6470.3333
6466.0227
6460.887
6454.7993
6447.6193
6439.1921
6429.348
6417.9018
6404.6518
6389.3792
6371.8473
6351.7999
6328.961
6303.0325
6273.6934
6240.5952
6203.3633
6161.5859
6114.8269
6062.5961
6004.3948
5939.6339
5867.7487
5788.0465
6490.2088
6490.2089
6490.2089
6490.2087
6490.2082
6490.2076
6490.2066
6490.2053
6490.2036
6490.2013
6490.1983
6490.1946
6490.1897
6490.1835
6490.1757
6490.1658
6490.1532
6490.1373
6490.117
6490.0913
6490.0585
6490.0168
6489.9636
6489.8958
6489.8094
6489.6993
6489.5592
6489.3813
6489.1559
6488.8713
6488.5127
6488.0621
6487.4975
6486.7923
6485.9142
6484.825
6483.4793
6481.8245
6479.7996
6477.3346
6474.3502
6470.7564
6466.452
6461.3235
6455.2443
6448.0737
6439.6572
6429.8249
6418.3918
6405.1565
6389.9009
6372.3884
6352.3633
6329.5499
6303.6503
6274.3442
6241.2832
6204.0934
6162.3635
6115.6575
6063.4859
6005.3498
5940.6616
5868.8586
5789.2381
6490.8555
6490.8556
6490.8555
6490.8553
6490.8548
6490.8541
6490.853
6490.8516
6490.8497
6490.8473
6490.8441
6490.84
6490.8349
6490.8283
6490.82
6490.8096
6490.7964
6490.7797
6490.7586
6490.732
6490.6984
6490.6557
6490.6016
6490.533
6490.446
6490.3355
6490.1955
6490.018
6489.7936
6489.5104
6489.1535
6488.7049
6488.1427
6487.4399
6486.5645
6485.4783
6484.1361
6482.4853
6480.4651
6478.006
6475.0285
6471.443
6467.1486
6462.0318
6455.966
6448.8108
6440.4112
6430.5978
6419.1859
6405.9748
6390.7469
6373.2662
6353.2776
6330.5059
6304.6538
6275.4015
6242.4015
6205.2804
6163.6275
6117.0071
6064.9306
6006.8998
5942.3294
5870.6596
5791.1718
6491.7585
6491.7585
6491.7584
6491.7581
6491.7576
6491.7568
6491.7557
6491.7541
6491.7521
6491.7495
6491.7461
6491.7418
6491.7364
6491.7295
6491.7208
6491.7099
6491.6962
6491.6789
6491.6572
6491.6299
6491.5955
6491.5522
6491.4975
6491.4284
6491.3411
6491.2308
6491.0912
6490.9146
6490.6915
6490.4098
6490.055
6489.6087
6489.0489
6488.349
6487.4769
6486.3945
6485.0568
6483.4115
6481.398
6478.9469
6475.9791
6472.4052
6468.1246
6463.024
6456.9768
6449.8426
6441.4665
6431.6795
6420.2973
6407.1202
6391.9314
6374.4958
6354.5588
6331.8461
6306.0611
6276.8849
6243.9707
6206.946
6165.4009
6118.9004
6066.957
6009.074
5944.6692
5873.1871
5793.8868
6492.9271
6492.9271
6492.927
6492.9267
6492.9261
6492.9253
6492.9241
6492.9225
6492.9204
6492.9177
6492.9142
6492.9097
6492.9041
6492.8971
6492.8882
6492.877
6492.863
6492.8455
6492.8235
6492.7959
6492.7613
6492.7179
6492.6632
6492.5942
6492.5073
6492.3976
6492.2589
6492.0836
6491.862
6491.5822
6491.2294
6490.7855
6490.2284
6489.5316
6488.6633
6487.5854
6486.2535
6484.6152
6482.6102
6480.1694
6477.2141
6473.6553
6469.3925
6464.3126
6458.2892
6451.1819
6442.8361
6433.0831
6421.7398
6408.6072
6393.4697
6376.093
6356.2237
6333.5882
6307.891
6278.8142
6246.012
6209.1128
6167.7078
6121.3628
6069.5927
6011.9025
5947.7143
5876.4774
5797.423
6494.374
6494.374
6494.3738
6494.3735
6494.3729
6494.372
6494.3708
6494.3692
6494.3671
6494.3644
6494.3609
6494.3564
6494.3508
6494.3437
6494.3349
6494.3237
6494.3098
6494.2924
6494.2706
6494.2432
6494.2089
6494.1659
6494.1117
6494.0435
6493.9575
6493.8489
6493.7115
6493.5378
6493.318
6493.0401
6492.6894
6492.2478
6491.6936
6491.0002
6490.1361
6489.0636
6487.7384
6486.1086
6484.114
6481.6859
6478.746
6475.2056
6470.9647
6465.9103
6459.916
6452.8416
6444.5331
6434.8225
6423.5276
6410.4507
6395.3772
6378.0743
6358.2894
6335.7503
6310.1627
6281.2096
6248.5467
6211.8036
6170.5725
6124.4209
6072.8662
6015.4165
5951.4985
5880.5675
5801.8217
6496.1135
6496.1135
6496.1134
6496.113
6496.1124
6496.1116
6496.1104
6496.1088
6496.1067
6496.104
6496.1006
6496.0963
6496.0908
6496.0839
6496.0753
6496.0644
6496.0509
6496.0339
6496.0126
6495.9859
6495.9525
6495.9103
6495.8573
6495.7903
6495.7056
6495.5985
6495.4627
6495.2907
6495.0726
6494.7967
6494.448
6494.0089
6493.4575
6492.7677
6491.9083
6490.842
6489.5245
6487.9045
6485.9222
6483.5091
6480.5875
6477.0692
6472.8542
6467.8299
6461.8701
6454.8349
6446.571
6436.9116
6425.6753
6412.6659
6397.6701
6380.4565
6360.7739
6338.3513
6312.8959
6284.0921
6251.597
6215.0417
6174.0201
6128.1015
6076.8071
6019.648
5956.0569
5885.4956
5807.1242
6498.1626
6498.1626
6498.1624
6498.162
6498.1614
6498.1606
6498.1595
6498.1579
6498.1559
6498.1534
6498.1501
6498.1459
6498.1407
6498.1341
6498.1258
6498.1155
6498.1025
6498.0861
6498.0657
6498.0399
6498.0075
6497.9666
6497.9148
6497.8493
6497.7662
6497.6606
6497.5264
6497.356
6497.1397
6496.8656
6496.5189
6496.0821
6495.5337
6494.8478
6493.9936
6492.934
6491.6253
6490.0164
6488.0481
6485.6523
6482.7519
6479.259
6475.0739
6470.0844
6464.1644
6457.175
6448.9636
6439.3647
6428.1979
6415.2685
6400.3646
6383.2567
6363.695
6341.4101
6316.1107
6287.4828
6255.1854
6218.8512
6178.0762
6132.4322
6081.4451
6024.6297
5961.4246
5891.3001
5813.3733
6500.5393
6500.5392
6500.539
6500.5387
6500.5381
6500.5373
6500.5362
6500.5347
6500.5328
6500.5303
6500.5272
6500.5233
6500.5183
6500.512
6500.5041
6500.4942
6500.4817
6500.4661
6500.4464
6500.4215
6500.3901
6500.3504
6500.2999
6500.2356
6500.1539
6500.0497
6499.9169
6499.7479
6499.5331
6499.2605
6498.9157
6498.4813
6497.936
6497.2543
6496.4056
6495.3535
6494.0545
6492.458
6490.5053
6488.1291
6485.2526
6481.7883
6477.637
6472.6868
6466.8123
6459.8753
6451.7248
6442.196
6431.1102
6418.2738
6403.4771
6386.492
6367.0709
6344.9458
6319.8273
6291.4033
6259.3346
6223.2559
6182.7661
6137.441
6086.8114
6030.3957
5967.6396
5898.0219
5820.6121
6503.2596
6503.2596
6503.2594
6503.259
6503.2584
6503.2576
6503.2566
6503.2551
6503.2533
6503.2509
6503.2479
6503.2441
6503.2393
6503.2333
6503.2258
6503.2162
6503.2042
6503.1891
6503.1701
6503.1459
6503.1153
6503.0764
6503.0268
6502.9636
6502.8828
6502.7796
6502.6478
6502.4798
6502.2661
6501.9949
6501.6519
6501.2199
6500.6779
6500.0008
6499.1582
6498.1142
6496.8258
6495.2431
6493.3078
6490.9532
6488.1032
6484.6706
6480.5569
6475.6504
6469.827
6462.9496
6454.8684
6445.4199
6434.4269
6421.6975
6407.0239
6390.18
6370.92
6348.978
6324.0663
6295.8752
6264.0677
6228.2809
6188.1178
6143.1586
6092.9393
6036.9818
5974.7389
5905.7005
5828.8843
6506.3383
6506.3382
6506.338
6506.3376
6506.3371
6506.3363
6506.3352
6506.3338
6506.332
6506.3296
6506.3267
6506.323
6506.3183
6506.3124
6506.3049
6506.2956
6506.2838
6506.269
6506.2502
6506.2264
6506.1962
6506.1576
6506.1085
6506.0457
6505.9654
6505.8627
6505.7315
6505.5641
6505.3513
6505.0813
6504.7402
6504.3108
6503.7725
6503.1004
6502.2647
6501.2296
6499.9529
6498.3852
6496.469
6494.1383
6491.3173
6487.9195
6483.8469
6478.9889
6473.2224
6466.4118
6458.4087
6449.0512
6438.1635
6425.5557
6411.0221
6394.3385
6375.2613
6353.5266
6328.849
6300.9211
6269.409
6233.9529
6194.1601
6149.6157
6099.861
6044.4217
5982.76
5914.3767
5838.2329
6509.7856
6509.7855
6509.7853
6509.7849
6509.7844
6509.7836
6509.7825
6509.781
6509.7792
6509.7769
6509.7739
6509.7702
6509.7655
6509.7595
6509.7521
6509.7428
6509.731
6509.7161
6509.6974
6509.6736
6509.6433
6509.6048
6509.5556
6509.4928
6509.4126
6509.31
6509.1791
6509.0123
6508.8003
6508.5317
6508.1927
6507.7664
6507.2323
6506.566
6505.7378
6504.7127
6503.449
6501.8979
6500.0027
6497.698
6494.9085
6491.5485
6487.5208
6482.7161
6477.0127
6470.2766
6462.3609
6453.1053
6442.3362
6429.8655
6415.4894
6398.9861
6380.1141
6358.6119
6334.1966
6306.5641
6275.3832
6240.2982
6200.9211
6156.8425
6107.6093
6052.7521
5991.7408
5924.0924
5848.7024
6513.6104
6513.6103
6513.6101
6513.6097
6513.6091
6513.6082
6513.6071
6513.6057
6513.6038
6513.6014
6513.5984
6513.5946
6513.5898
6513.5838
6513.5762
6513.5668
6513.5548
6513.5398
6513.5208
6513.4968
6513.4662
6513.4274
6513.378
6513.315
6513.2346
6513.1321
6513.0014
6512.8352
6512.6243
6512.3576
6512.0213
6511.5987
6511.0696
6510.41
6509.5905
6508.5766
6507.3274
6505.7946
6503.9224
6501.6458
6498.8905
6495.5716
6491.5928
6486.8465
6481.2128
6474.5593
6466.7407
6457.599
6446.9622
6434.6445
6420.4444
6404.142
6385.4984
6364.2548
6340.1316
6312.8276
6282.0155
6247.3437
6208.4302
6164.8707
6116.2185
6062.0074
6001.72
5934.8881
5860.3354
6517.8216
6517.8215
6517.8212
6517.8208
6517.8202
6517.8193
6517.8182
6517.8167
6517.8148
6517.8123
6517.8092
6517.8053
6517.8004
6517.7942
6517.7865
6517.7768
6517.7647
6517.7494
6517.7301
6517.7058
6517.6749
6517.6358
6517.5861
6517.5229
6517.4424
6517.34
6517.2099
6517.0447
6516.8354
6516.5711
6516.238
6515.82
6515.2971
6514.6451
6513.8355
6512.8344
6511.6012
6510.0887
6508.2416
6505.9958
6503.2775
6500.0031
6496.0777
6491.3955
6485.8384
6479.2761
6471.5652
6462.5495
6452.0594
6439.9114
6425.9059
6409.8258
6391.4346
6370.4768
6346.6766
6319.7358
6289.3313
6255.1174
6216.7173
6173.7321
6125.7211
6072.2245
6012.7348
5946.8044
5873.1755
6522.4299
6522.4298
6522.4295
6522.4291
6522.4285
6522.4276
6522.4264
6522.4249
6522.4229
6522.4204
6522.4173
6522.4133
6522.4083
6522.402
6522.3942
6522.3843
6522.372
6522.3565
6522.337
6522.3124
6522.2814
6522.242
6522.1922
6522.129
6522.0488
6521.9469
6521.8177
6521.6539
6521.4469
6521.1856
6520.8567
6520.4441
6519.928
6519.2849
6518.4867
6517.4997
6516.2845
6514.7943
6512.9745
6510.762
6508.0839
6504.8578
6500.9908
6496.3789
6490.906
6484.444
6476.8515
6467.9746
6457.6461
6445.6847
6431.8933
6416.0573
6397.9434
6377.3
6353.8544
6327.3125
6297.3571
6263.6473
6225.812
6183.458
6136.1516
6083.4383
6024.8233
5959.8811
5887.2647
6527.4494
6527.4493
6527.4491
6527.4487
6527.448
6527.4472
6527.446
6527.4444
6527.4424
6527.4399
6527.4367
6527.4327
6527.4277
6527.4213
6527.4134
6527.4035
6527.3911
6527.3755
6527.3559
6527.3312
6527.3001
6527.2609
6527.2112
6527.1483
6527.0686
6526.9676
6526.8398
6526.6781
6526.4737
6526.2161
6525.892
6525.4854
6524.9771
6524.344
6523.5582
6522.587
6521.3915
6519.9256
6518.1355
6515.959
6513.3246
6510.1513
6506.348
6501.813
6496.4324
6490.0801
6482.6172
6473.8923
6463.7406
6451.9833
6438.4259
6422.8567
6405.0462
6384.7461
6361.6878
6335.5832
6306.1198
6272.9615
6235.7443
6194.0801
6147.5425
6095.6839
6038.0223
5974.1582
5902.6452
6532.8962
6532.8961
6532.8959
6532.8954
6532.8948
6532.894
6532.8928
6532.8912
6532.8893
6532.8867
6532.8835
6532.8795
6532.8745
6532.8682
6532.8603
6532.8503
6532.8379
6532.8224
6532.8028
6532.7783
6532.7474
6532.7084
6532.6591
6532.5969
6532.5181
6532.4184
6532.2923
6532.1329
6531.9317
6531.6781
6531.3592
6530.9594
6530.4597
6529.8374
6529.0654
6528.1113
6526.9371
6525.4974
6523.7395
6521.602
6519.015
6515.8992
6512.1656
6507.7145
6502.4344
6496.2016
6488.8799
6480.3204
6470.3611
6458.8259
6445.523
6430.2442
6412.7634
6392.8366
6370.2011
6344.5732
6315.6451
6283.0884
6246.5435
6205.6292
6159.9267
6108.9955
6052.3686
5989.6748
5919.3581
6538.7859
6538.7858
6538.7856
6538.7852
6538.7846
6538.7837
6538.7826
6538.7811
6538.7791
6538.7766
6538.7735
6538.7695
6538.7646
6538.7583
6538.7505
6538.7407
6538.7284
6538.713
6538.6937
6538.6695
6538.639
6538.6005
6538.5519
6538.4906
6538.413
6538.315
6538.191
6538.0343
6537.8366
6537.5874
6537.2743
6536.8817
6536.3912
6535.7806
6535.0234
6534.0879
6532.9366
6531.5251
6529.8017
6527.7063
6525.1707
6522.1174
6518.4597
6514.0999
6508.9289
6502.8256
6495.6568
6487.2766
6477.5257
6466.2311
6453.204
6438.2395
6421.1158
6401.5947
6379.4179
6354.3063
6325.9602
6294.0553
6258.2387
6218.1359
6173.3357
6123.4073
6067.8985
6006.4694
5937.4436
6545.1325
6545.1324
6545.1322
6545.1318
6545.1312
6545.1304
6545.1293
6545.1279
6545.126
6545.1235
6545.1205
6545.1166
6545.1117
6545.1056
6545.098
6545.0884
6545.0764
6545.0613
6545.0424
6545.0186
6544.9887
6544.951
6544.9034
6544.8433
6544.7674
6544.6713
6544.5498
6544.3963
6544.2026
6543.9585
6543.6516
6543.2671
6542.7866
6542.1887
6541.4473
6540.5316
6539.4048
6538.0234
6536.337
6534.2871
6531.8072
6528.8219
6525.2464
6520.9854
6515.9323
6509.969
6502.9652
6494.7784
6485.2525
6474.2172
6461.4873
6446.8619
6430.1247
6411.0421
6389.3601
6364.808
6337.0908
6305.8895
6270.8584
6231.6294
6187.8013
6138.9524
6084.6474
6024.5795
5956.9408
6551.9464
6551.9463
6551.9461
6551.9458
6551.9452
6551.9445
6551.9434
6551.942
6551.9402
6551.9379
6551.9349
6551.9312
6551.9265
6551.9206
6551.9133
6551.904
6551.8924
6551.8778
6551.8595
6551.8365
6551.8075
6551.7709
6551.7247
6551.6663
6551.5924
6551.4989
6551.3806
6551.231
6551.0421
6550.8039
6550.5043
6550.1288
6549.6597
6549.0756
6548.3514
6547.4569
6546.3561
6545.007
6543.3603
6541.3594
6538.9396
6536.0278
6532.5411
6528.3867
6523.4606
6517.648
6510.8219
6502.843
6493.5587
6482.8019
6470.3912
6456.1313
6439.8104
6421.199
6400.0515
6376.1028
6349.0618
6318.6172
6284.4293
6246.139
6203.3542
6155.6637
6102.6495
6044.0414
5977.8868
6559.2369
6559.2369
6559.2367
6559.2364
6559.2359
6559.2352
6559.2342
6559.2329
6559.2312
6559.229
6559.2262
6559.2227
6559.2183
6559.2127
6559.2057
6559.1969
6559.1858
6559.1719
6559.1544
6559.1324
6559.1046
6559.0695
6559.0252
6558.969
6558.8978
6558.8075
6558.6931
6558.5484
6558.3653
6558.1343
6557.8435
6557.4787
6557.0224
6556.454
6555.7488
6554.8772
6553.8046
6552.49
6550.886
6548.9377
6546.5827
6543.7499
6540.3588
6536.319
6531.5295
6525.8786
6519.2432
6511.4871
6502.4612
6492.0023
6479.9344
6466.0667
6450.1914
6432.0874
6411.5153
6388.213
6361.8976
6332.2634
6298.9787
6261.693
6220.0248
6173.573
6121.9383
6064.8903
6000.3171
6567.0132
6567.0131
6567.013
6567.0127
6567.0122
6567.0116
6567.0107
6567.0095
6567.0079
6567.0059
6567.0033
6567.0001
6566.996
6566.9908
6566.9843
6566.9761
6566.9657
6566.9527
6566.9363
6566.9156
6566.8894
6566.8562
6566.8141
6566.7607
6566.6928
6566.6065
6566.4969
6566.3579
6566.1819
6565.9594
6565.6789
6565.3264
6564.8849
6564.3344
6563.6505
6562.8044
6561.7626
6560.4855
6558.9275
6557.036
6554.7506
6552.0026
6548.7139
6544.7968
6540.1537
6534.6762
6528.2445
6520.7262
6511.976
6501.8355
6490.134
6476.6844
6461.2876
6443.7283
6423.7712
6401.1609
6375.6212
6346.8527
6314.5325
6278.3195
6237.8424
6192.7112
6142.5459
6087.1598
6024.2651
6575.2881
6575.2881
6575.2879
6575.2877
6575.2873
6575.2867
6575.2859
6575.2848
6575.2834
6575.2815
6575.2792
6575.2762
6575.2724
6575.2677
6575.2617
6575.2541
6575.2446
6575.2325
6575.2173
6575.198
6575.1735
6575.1424
6575.1028
6575.0523
6574.9881
6574.9062
6574.802
6574.6696
6574.5014
6574.2885
6574.0197
6573.6813
6573.2567
6572.7261
6572.066
6571.2484
6570.2406
6569.0047
6567.4969
6565.6667
6563.4561
6560.7989
6557.6198
6553.8341
6549.3475
6544.055
6537.8405
6530.5749
6522.1176
6512.3167
6501.0043
6488.0024
6473.1183
6456.1404
6436.8391
6414.9678
6390.2545
6362.4087
6331.1161
6296.0453
6256.8356
6213.1079
6164.503
6110.8823
6049.7625
6584.076
6584.076
6584.0759
6584.0757
6584.0753
6584.0748
6584.074
6584.0731
6584.0718
6584.0701
6584.068
6584.0652
6584.0618
6584.0574
6584.0519
6584.045
6584.0362
6584.025
6584.0109
6583.9929
6583.9701
6583.9409
6583.9038
6583.8563
6583.7957
6583.7183
6583.6196
6583.4938
6583.3339
6583.1312
6582.8748
6582.5515
6582.1452
6581.6366
6581.0028
6580.2167
6579.2467
6578.0564
6576.6037
6574.8401
6572.7101
6570.1503
6567.0882
6563.4428
6559.123
6554.0272
6548.0424
6541.0443
6532.8994
6523.458
6512.5616
6500.0385
6485.6998
6469.3405
6450.7389
6429.6526
6405.8187
6378.9544
6348.7541
6314.8966
6277.0319
6234.7918
6187.8389
6136.0893
6076.8392
6593.3923
6593.3923
6593.3922
6593.392
6593.3917
6593.3912
6593.3906
6593.3897
6593.3885
6593.3869
6593.3849
6593.3824
6593.3791
6593.375
6593.3699
6593.3633
6593.355
6593.3445
6593.3311
6593.3141
6593.2925
6593.2649
6593.2297
6593.1846
6593.1271
6593.0536
6592.9599
6592.8405
6592.6887
6592.4961
6592.2524
6591.9448
6591.5579
6591.073
6590.4679
6589.7164
6588.788
6587.6477
6586.255
6584.5637
6582.5205
6580.065
6577.1282
6573.6322
6569.4891
6564.6007
6558.859
6552.1466
6544.3319
6535.2741
6524.8218
6512.8062
6499.0467
6483.3454
6465.4859
6445.2338
6422.3337
6396.5114
6367.4701
6334.8984
6298.4577
6257.7905
6212.5815
6162.8106
6105.5243
6603.2484
6603.2484
6603.2483
6603.2482
6603.2479
6603.2474
6603.2467
6603.2459
6603.2447
6603.2432
6603.2412
6603.2387
6603.2356
6603.2316
6603.2265
6603.2201
6603.212
6603.2017
6603.1887
6603.1722
6603.1513
6603.1246
6603.0906
6603.0474
6602.9922
6602.9219
6602.8324
6602.7187
6602.5744
6602.3916
6602.1605
6601.869
6601.5022
6601.0422
6600.4676
6599.7533
6598.87
6597.7839
6596.4563
6594.8429
6592.8931
6590.5491
6587.7453
6584.4072
6580.4507
6575.7826
6570.3005
6563.8898
6556.4261
6547.7777
6537.7948
6526.3179
6513.1726
6498.1686
6481.0963
6461.7285
6439.8183
6415.1002
6387.2864
6356.0749
6321.1386
6282.1305
6238.7579
6191.0748
6135.8472
6613.6492
6613.6492
6613.6492
6613.649
6613.6487
6613.6482
6613.6476
6613.6467
6613.6455
6613.6439
6613.642
6613.6394
6613.6362
6613.6321
6613.627
6613.6205
6613.6123
6613.602
6613.589
6613.5726
6613.5518
6613.5255
6613.4922
6613.45
6613.3965
6613.3288
6613.243
6613.1345
6612.9973
6612.824
6612.6055
6612.3302
6611.9842
6611.5502
6611.008
6610.3334
6609.4982
6608.4701
6607.212
6605.6817
6603.831
6601.6052
6598.9422
6595.7715
6592.0134
6587.58
6582.3723
6576.2814
6569.1925
6560.9757
6551.4899
6540.5835
6528.0887
6513.8225
6497.5834
6479.1522
6458.29
6434.7403
6408.2242
6378.4493
6345.0993
6307.8377
6266.3944
6220.9085
6167.8393
6624.5935
6624.5935
6624.5934
6624.5932
6624.5929
6624.5924
6624.5917
6624.5908
6624.5895
6624.5879
6624.5859
6624.5832
6624.5799
6624.5757
6624.5704
6624.5638
6624.5554
6624.545
6624.5318
6624.5153
6624.4945
6624.4684
6624.4356
6624.3943
6624.3424
6624.277
6624.1948
6624.0914
6623.9614
6623.7979
6623.5922
6623.3338
6623.0093
6622.6025
6622.0941
6621.4609
6620.6763
6619.7093
6618.5245
6617.0819
6615.336
6613.2354
6610.7218
6607.7285
6604.1815
6599.9964
6595.0785
6589.3285
6582.635
6574.8746
6565.9153
6555.6115
6543.8039
6530.3177
6514.9596
6497.5186
6477.7645
6455.4495
6430.3038
6402.0442
6370.3646
6334.9379
6295.5178
6252.339
6201.5345
6636.0745
6636.0745
6636.0744
6636.0742
6636.0739
6636.0733
6636.0726
6636.0717
6636.0704
6636.0687
6636.0666
6636.064
6636.0606
6636.0563
6636.051
6636.0443
6636.0359
6636.0254
6636.0123
6635.9959
6635.9754
6635.9498
6635.9179
6635.8779
6635.828
6635.7656
6635.6876
6635.59
6635.4679
6635.3149
6635.123
6634.8823
6634.5802
6634.2017
6633.7282
6633.1382
6632.406
6631.5026
6630.3946
6629.0442
6627.4088
6625.4407
6623.085
6620.2804
6616.9565
6613.0326
6608.4231
6603.0332
6596.7566
6589.479
6581.075
6571.4076
6560.3256
6547.6627
6533.2346
6516.8394
6498.2557
6477.2443
6453.5442
6426.8815
6396.959
6363.4578
6326.1578
6285.4006
6236.9678
6648.0848
6648.0848
6648.0847
6648.0845
6648.0841
6648.0836
6648.0829
6648.0819
6648.0807
6648.0791
6648.077
6648.0744
6648.0711
6648.067
6648.0618
6648.0553
6648.0472
6648.0371
6648.0245
6648.0088
6647.9893
6647.965
6647.9348
6647.8972
6647.8504
6647.7922
6647.7196
6647.6292
6647.5163
6647.3751
6647.1982
6646.9763
6646.6977
6646.3483
6645.9108
6645.365
6644.6872
6643.8498
6642.8218
6641.5681
6640.0493
6638.2207
6636.0324
6633.427
6630.3369
6626.6898
6622.406
6617.395
6611.5587
6604.79
6596.9718
6587.9754
6577.6583
6565.8633
6552.4161
6537.1243
6519.7755
6500.1396
6477.9639
6452.9831
6424.908
6393.4256
6358.347
6320.1387
6274.1765
6660.6193
6660.6193
6660.6192
6660.619
6660.6187
6660.6182
6660.6175
6660.6167
6660.6155
6660.614
6660.6121
6660.6098
6660.6067
6660.603
6660.5982
6660.5923
6660.5849
6660.5757
6660.5643
6660.55
6660.5323
6660.5102
6660.4828
6660.4488
6660.4064
6660.3538
6660.2882
6660.2064
6660.1043
6659.9762
6659.8155
6659.6134
6659.3593
6659.0399
6658.6395
6658.1393
6657.5175
6656.7487
6655.8042
6654.6519
6653.2554
6651.5742
6649.5623
6647.1646
6644.3212
6640.9664
6637.0243
6632.4122
6627.0396
6620.8069
6613.6055
6605.3156
6595.8039
6584.923
6572.509
6558.3802
6542.3336
6524.1483
6503.5801
6480.3711
6454.2391
6424.8732
6392.1116
6356.5557
6313.2612
6673.6768
6673.6768
6673.6768
6673.6766
6673.6763
6673.6759
6673.6753
6673.6746
6673.6736
6673.6724
6673.6707
6673.6687
6673.6661
6673.6629
6673.6589
6673.6538
6673.6475
6673.6396
6673.6298
6673.6175
6673.6023
6673.5832
6673.5595
6673.53
6673.4931
6673.4472
6673.3897
6673.3177
6673.2272
6673.1133
6672.9696
6672.7882
6672.5592
6672.2709
6671.9087
6671.4558
6670.8921
6670.1947
6669.3375
6668.2914
6667.0235
6665.4975
6663.669
6661.4897
6658.9061
6655.8568
6652.2733
6648.0805
6643.195
6637.5257
6630.9727
6623.4256
6614.7609
6604.8418
6593.5153
6580.6112
6565.9371
6549.2815
6530.4087
6509.068
6484.984
6457.8376
6427.4675
6394.7444
6354.2541
6687.259
6687.259
6687.259
6687.2588
6687.2586
6687.2583
6687.2578
6687.2572
6687.2564
6687.2554
6687.2541
6687.2524
6687.2503
6687.2477
6687.2444
6687.2403
6687.2351
6687.2286
6687.2205
6687.2104
6687.1978
6687.182
6687.1622
6687.1374
6687.1063
6687.0672
6687.018
6686.9559
6686.8773
6686.7777
6686.6514
6686.4912
6686.2883
6686.0322
6685.7098
6685.306
6684.8029
6684.1801
6683.4145
6682.4797
6681.3473
6679.9821
6678.3457
6676.3958
6674.0834
6671.3537
6668.1462
6664.3926
6660.0179
6654.9396
6649.0669
6642.2993
6634.5243
6625.6161
6615.4334
6603.818
6590.5898
6575.5478
6558.4648
6539.0976
6517.1735
6492.337
6464.4708
6434.7512
6397.1942
6701.3651
6701.3651
6701.365
6701.3649
6701.3647
6701.3645
6701.3641
6701.3636
6701.3629
6701.3621
6701.361
6701.3596
6701.3579
6701.3557
6701.353
6701.3496
6701.3453
6701.34
6701.3333
6701.325
6701.3145
6701.3015
6701.285
6701.2643
6701.2383
6701.2054
6701.1637
6701.1109
6701.0437
6700.9581
6700.8492
6700.7107
6700.5348
6700.3121
6700.0312
6699.6788
6699.2392
6698.6947
6698.0249
6697.2074
6696.2153
6695.018
6693.583
6691.872
6689.8426
6687.4473
6684.6324
6681.338
6677.4975
6673.0377
6667.8774
6661.9266
6655.0847
6647.238
6638.2573
6627.9975
6616.2922
6602.9527
6587.7618
6570.4819
6550.8293
6528.4543
6503.168
6476.6167
6442.2177
6715.9882
6715.9881
6715.9881
6715.9879
6715.9878
6715.9875
6715.9871
6715.9867
6715.986
6715.9853
6715.9843
6715.983
6715.9814
6715.9794
6715.9769
6715.9739
6715.97
6715.9653
6715.9594
6715.952
6715.9429
6715.9316
6715.9174
6715.8996
6715.8774
6715.8495
6715.8143
6715.7697
6715.7132
6715.6413
6715.5498
6715.4333
6715.2851
6715.0971
6714.8594
6714.5605
6714.1874
6713.7248
6713.1555
6712.4596
6711.6133
6710.5917
6709.3661
6707.9041
6706.1699
6704.1229
6701.7175
6698.9019
6695.619
6691.805
6687.3893
6682.2931
6676.4284
6669.6946
6661.9761
6653.1416
6643.0403
6631.4975
6618.3081
6603.2328
6586.0119
6566.2372
6543.6484
6520.4167
6489.4625
6731.1109
6731.1108
6731.1107
6731.1106
6731.1104
6731.1101
6731.1097
6731.1091
6731.1085
6731.1076
6731.1066
6731.1052
6731.1036
6731.1015
6731.099
6731.0959
6731.092
6731.0873
6731.0816
6731.0745
6731.0659
6731.0554
6731.0425
6731.0267
6731.0072
6730.9833
6730.9537
6730.9168
6730.8704
6730.812
6730.7378
6730.6435
6730.5234
6730.3707
6730.1773
6729.9339
6729.6296
6729.2522
6728.787
6728.2164
6727.5222
6726.6831
6725.6751
6724.4724
6723.0456
6721.3614
6719.3821
6717.065
6714.3626
6711.2216
6707.5827
6703.3795
6698.5366
6692.9678
6686.5726
6679.2357
6670.8222
6661.1734
6650.1012
6637.3837
6622.7511
6605.7737
6586.0815
6566.3055
6539.0379
6746.7068
6746.7068
6746.7066
6746.7064
6746.7062
6746.7058
6746.7053
6746.7047
6746.7039
6746.703
6746.7018
6746.7003
6746.6984
6746.6961
6746.6934
6746.69
6746.6859
6746.681
6746.675
6746.6679
6746.6594
6746.6492
6746.6371
6746.6228
6746.6058
6746.5854
6746.561
6746.5313
6746.4947
6746.4492
6746.3919
6746.3193
6746.227
6746.1096
6745.9612
6745.7743
6745.5408
6745.2508
6744.892
6744.4516
6743.9149
6743.265
6742.4836
6741.551
6740.4441
6739.1371
6737.6006
6735.8016
6733.7027
6731.2618
6728.4321
6725.1602
6721.384
6717.0321
6712.0214
6706.2529
6699.6128
6691.9658
6683.1437
6672.9385
6661.0961
6647.1701
6630.7125
6614.5292
6590.9373
6762.7402
6762.7401
6762.7399
6762.7397
6762.7394
6762.739
6762.7384
6762.7377
6762.7369
6762.7358
6762.7345
6762.7329
6762.731
6762.7286
6762.7258
6762.7223
6762.7182
6762.7133
6762.7074
6762.7005
6762.6924
6762.683
6762.6721
6762.6596
6762.6452
6762.6287
6762.6094
6762.5868
6762.5597
6762.5266
6762.4856
6762.4343
6762.3695
6762.2877
6762.1847
6762.0556
6761.8944
6761.6933
6761.4441
6761.1379
6760.7636
6760.3097
6759.7637
6759.1115
6758.3368
6757.4212
6756.3442
6755.0825
6753.6096
6751.8957
6749.9067
6747.6023
6744.9358
6741.8526
6738.2879
6734.164
6729.388
6723.8491
6717.4134
6709.9062
6701.0954
6690.5454
6677.8039
6665.1457
6645.5032
6779.1731
6779.173
6779.1728
6779.1725
6779.1722
6779.1718
6779.1712
6779.1706
6779.1697
6779.1687
6779.1675
6779.166
6779.1642
6779.162
6779.1594
6779.1564
6779.1527
6779.1485
6779.1435
6779.1377
6779.131
6779.1233
6779.1147
6779.1049
6779.0939
6779.0816
6779.0676
6779.0517
6779.0333
6779.0118
6778.9863
6778.956
6778.9191
6778.8733
6778.8165
6778.7457
6778.6571
6778.5469
6778.4104
6778.2418
6778.0353
6777.7847
6777.4826
6777.121
6776.6902
6776.1798
6775.5785
6774.8731
6774.0488
6773.089
6771.9722
6770.6736
6769.1616
6767.3993
6765.3427
6762.9362
6760.1152
6756.797
6752.883
6748.2502
6742.7188
6735.9459
6727.5489
6718.9518
6704.179
6796.7144
6796.7142
6796.7139
6796.7136
6796.7133
6796.7129
6796.7123
6796.7117
6796.711
6796.7101
6796.7091
6796.7079
6796.7064
6796.7047
6796.7026
6796.7002
6796.6974
6796.6941
6796.6904
6796.686
6796.6811
6796.6755
6796.6693
6796.6625
6796.6551
6796.6471
6796.6384
6796.6293
6796.6198
6796.61
6796.6003
6796.591
6796.5828
6796.5752
6796.5679
6796.5597
6796.5505
6796.5398
6796.5257
6796.5074
6796.4845
6796.4558
6796.4203
6796.3757
6796.3194
6796.2498
6796.1655
6796.0646
6795.9445
6795.8015
6795.6304
6795.4222
6795.1634
6794.8371
6794.4216
6793.8888
6793.2023
6792.3171
6791.1748
6789.7093
6787.8252
6785.331
6782.2325
6779.4087
6774.029
6815.1708
6815.1706
6815.1703
6815.17
6815.1697
6815.1693
6815.1689
6815.1684
6815.1678
6815.1671
6815.1663
6815.1655
6815.1644
6815.1632
6815.1619
6815.1603
6815.1584
6815.1563
6815.1539
6815.1513
6815.1483
6815.145
6815.1415
6815.1379
6815.1344
6815.1311
6815.1284
6815.127
6815.1277
6815.1316
6815.1401
6815.1548
6815.1782
6815.2115
6815.2567
6815.3165
6815.3935
6815.4893
6815.6059
6815.7478
6815.9202
6816.1278
6816.3752
6816.6676
6817.0105
6817.4113
6817.8789
6818.4231
6819.0542
6819.7831
6820.6204
6821.5751
6822.654
6823.8624
6825.2029
6826.677
6828.2813
6830.0108
6831.855
6833.811
6835.8751
6838.0235
6840.4593
6843.602
6845.9872
6833.5976
6833.5974
6833.5972
6833.5969
6833.5966
6833.5963
6833.596
6833.5957
6833.5954
6833.595
6833.5947
6833.5943
6833.5939
6833.5935
6833.5931
6833.5927
6833.5923
6833.592
6833.5917
6833.5914
6833.5913
6833.5913
6833.5916
6833.5922
6833.5936
6833.596
6833.6002
6833.6073
6833.6187
6833.6365
6833.6634
6833.7027
6833.7573
6833.8312
6833.9285
6834.0533
6834.211
6834.4082
6834.6524
6834.9524
6835.3183
6835.7606
6836.29
6836.9187
6837.6609
6838.533
6839.5543
6840.7463
6842.1323
6843.7375
6845.5884
6847.7127
6850.1384
6852.8936
6856.0064
6859.5076
6863.4279
6867.8032
6872.6729
6878.0934
6884.1311
6890.8842
6898.5884
6907.4956
6917.4516
6851.9141
6851.9138
6851.9136
6851.9134
6851.9132
6851.913
6851.9129
6851.9128
6851.9127
6851.9128
6851.9129
6851.9131
6851.9134
6851.9139
6851.9146
6851.9156
6851.9168
6851.9183
6851.9203
6851.9227
6851.9256
6851.9291
6851.9334
6851.9387
6851.9454
6851.954
6851.9656
6851.9818
6852.0047
6852.037
6852.0825
6852.1454
6852.2312
6852.3453
6852.493
6852.6817
6852.92
6853.2182
6853.5883
6854.0441
6854.6009
6855.2748
6856.0832
6857.0457
6858.185
6859.5268
6861.1004
6862.939
6865.0789
6867.5595
6870.4234
6873.7169
6877.4895
6881.7927
6886.6805
6892.2127
6898.4541
6905.4807
6913.3787
6922.2584
6932.2477
6943.5276
6956.3734
6971.1095
6988.2
6870.0399
6870.0396
6870.0394
6870.0393
6870.0392
6870.0391
6870.0392
6870.0393
6870.0396
6870.04
6870.0406
6870.0414
6870.0425
6870.0439
6870.0457
6870.048
6870.0508
6870.0542
6870.0584
6870.0634
6870.0693
6870.0763
6870.0846
6870.0945
6870.1066
6870.1217
6870.1411
6870.1667
6870.2013
6870.2487
6870.3136
6870.4021
6870.5203
6870.6746
6870.8738
6871.1271
6871.4463
6871.8454
6872.3406
6872.9505
6873.6957
6874.5982
6875.6822
6876.975
6878.5078
6880.3155
6882.4375
6884.9186
6887.8077
6891.1588
6895.0306
6899.4879
6904.6006
6910.444
6917.0981
6924.6513
6933.2022
6942.8649
6953.7704
6966.0794
6979.9802
6995.7235
7013.6457
7034.1762
7057.9519
6887.9085
6887.9083
6887.9082
6887.9081
6887.908
6887.9081
6887.9084
6887.9087
6887.9093
6887.91
6887.9111
6887.9124
6887.9142
6887.9164
6887.9191
6887.9226
6887.9267
6887.9317
6887.9378
6887.9449
6887.9534
6887.9634
6887.9753
6887.9894
6888.0065
6888.0275
6888.0543
6888.0893
6888.136
6888.1991
6888.2844
6888.3987
6888.5496
6888.7458
6888.9972
6889.3157
6889.7162
6890.216
6890.8355
6891.5978
6892.5287
6893.6562