/*--------------------------------*- C++ -*----------------------------------*\
  =========                 |
  \\      /  F ield         | OpenFOAM: The Open Source CFD Toolbox
   \\    /   O peration     | Website:  https://openfoam.org
    \\  /    A nd           | Version:  13
     \\/     M anipulation  |
\*---------------------------------------------------------------------------*/
FoamFile
{
    format      ascii;
    class       volScalarField;
    location    "40.6002";
    object      omega;
}
// * * * * * * * * * * * * * * * * * * * * * * * * * * * * * * * * * * * * * //

dimensions      [0 0 -1 0 0 0 0];

internalField   nonuniform List<scalar> 
17140
(
3736295.3
603677.93
185335.27
78621.662
40006.335
22786.78
13994.061
9063.881
6105.5487
4237.5943
3010.6828
2179.2606
1601.4712
1191.5707
895.75415
679.18161
518.68484
398.50236
307.6991
238.55832
185.55305
144.67307
112.97542
88.278874
68.952931
53.770175
41.80185
32.343421
24.861111
18.952749
14.317391
10.728412
8.006813
5.9967322
4.5510096
3.5319609
2.8210441
2.3259301
1.9803023
1.7389373
1.5717421
1.4588305
1.3877
1.3503559
1.3378602
1.3443677
1.3694971
1.4106905
1.4662486
1.5353357
1.6179548
1.7146927
1.8254832
1.9476374
2.0778832
2.2149559
2.3549352
2.4886956
2.6079955
2.7255684
2.8968829
3.239559
3.5736055
3.37343
3.1945122
3736320.9
603682.56
185336.97
78622.537
40006.859
22787.128
13994.307
9064.0634
6105.6889
4237.705
3010.772
2179.3336
1601.5318
1191.6215
895.79705
679.21814
518.71618
398.52948
307.72283
238.57942
185.57223
144.69102
112.99284
88.296451
68.971344
53.790037
41.823645
32.367406
24.887191
18.98036
14.345423
10.755336
8.0310671
6.0172055
4.5673199
3.5443779
2.8302035
2.3325259
1.9849212
1.7419968
1.5735421
1.4595841
1.3874601
1.3491962
1.3361145
1.3418953
1.3662714
1.4066402
1.4612019
1.5289771
1.6097679
1.7038552
1.8108481
1.927804
2.0509084
2.1785416
2.3080226
2.4336848
2.5547766
2.7009201
2.9444563
3.5446327
3.7614266
3.3865392
3.2113819
3736345.9
603686.66
185338.24
78623.079
40007.139
22787.29
13994.41
9064.1331
6105.7394
4237.7439
3010.8038
2179.3611
1601.5568
1191.6452
895.82036
679.24166
518.74036
398.5547
307.7494
238.60761
185.60233
144.72331
113.02761
88.334019
69.011981
53.833943
41.87085
32.417635
24.939699
19.033783
14.397734
10.804069
8.0738822
6.0526043
4.5950364
3.5652865
2.8455844
2.3436297
1.9927937
1.74744
1.5771433
1.4617621
1.3884361
1.3492258
1.335542
1.3407449
1.3646435
1.4045798
1.4586989
1.5259389
1.6059692
1.6988906
1.8040971
1.9184265
2.0378574
2.1614954
2.288838
2.4182292
2.5539319
2.7288498
3.0986463
3.8718436
3.8274147
3.2017566
3.1218308
3736372.1
603690.93
185339.57
78623.646
40007.431
22787.46
13994.519
9064.2089
6105.7959
4237.7891
3010.8423
2179.3961
1601.5901
1191.6782
895.85403
679.27672
518.77739
398.59416
307.79168
238.65307
185.65128
144.77607
113.08445
88.395181
69.077629
53.904092
41.945255
32.495635
25.020017
19.11435
14.475652
10.875918
8.1365
6.1040694
4.6352537
3.5954545
2.8676291
2.3595054
2.0041234
1.7554512
1.5827166
1.4655253
1.3907842
1.3505562
1.3362761
1.3410517
1.3647335
1.4046458
1.4588924
1.5263616
1.6066687
1.6998411
1.8051647
1.9193133
2.038344
2.1631031
2.2948813
2.4349216
2.5918164
2.8219302
3.3893673
4.0317925
3.8649902
2.9863823
2.8006839
3736400.1
603695.47
185340.97
78624.24
40007.736
22787.64
13994.636
9064.2916
6105.8593
4237.8414
3010.8887
2179.4395
1601.6328
1191.7216
895.8992
679.32451
518.82846
398.64903
307.85083
238.71689
185.72013
144.85025
113.16424
88.48076
69.169062
54.001238
42.047633
32.602238
25.129074
19.223105
14.580327
10.972102
8.2201221
6.1726542
4.688588
3.6353392
2.8967599
2.3805462
2.0192599
1.7663226
1.5905076
1.4710898
1.394702
1.3533661
1.3384997
1.3430194
1.3667661
1.407088
1.462055
1.530541
1.6121599
1.7069424
1.8141139
1.9301015
2.0516755
2.1830788
2.3281124
2.4923526
2.6887975
2.9870838
3.7172767
4.1289951
3.8869468
2.8301772
2.2700222
3736429.1
603700.15
185342.4
78624.854
40008.055
22787.828
13994.76
9064.3805
6105.9289
4237.9003
3010.942
2179.4907
1601.6841
1191.7746
895.95513
679.38426
518.89276
398.71851
307.926
238.79821
185.80797
144.94494
113.266
88.589716
69.285165
54.124173
42.176673
32.736033
25.265396
19.358607
14.710496
11.091696
8.3242736
6.258332
4.755507
3.6855996
2.9336232
2.4073017
2.038648
1.7804204
1.6008285
1.4787349
1.4004546
1.3579179
1.3424805
1.3469446
1.371137
1.4124141
1.4688703
1.5394341
1.6238183
1.7221929
1.833786
1.9546836
2.0842374
2.2317091
2.4028693
2.6042143
2.8302554
3.1982469
4.007396
4.2322983
3.9072241
2.6463748
1.7290615
3736459.3
603704.98
185343.88
78625.489
40008.386
22788.025
13994.89
9064.4755
6106.0045
4237.9654
3011.0021
2179.5492
1601.7435
1191.8366
896.02103
679.45508
518.96932
398.80149
308.016
238.89572
185.91341
145.05862
113.38815
88.720398
69.424253
54.271227
42.330788
32.895613
25.427865
19.520135
14.865922
11.234967
8.4496523
6.3620805
4.8370323
3.7471726
2.9790165
2.4404294
2.0628278
1.7981964
1.6140717
1.4888184
1.4083928
1.3645833
1.3486414
1.3532614
1.3784519
1.4214169
1.4803826
1.5544219
1.6434806
1.7480463
1.8673126
1.9973643
2.1428409
2.3164394
2.5240459
2.7587643
2.9986739
3.4663416
4.2868442
4.3499434
3.8702623
2.2890818
1.2862347
3736490.6
603709.98
185345.41
78626.147
40008.731
22788.231
13995.027
9064.5763
6106.0855
4238.0361
3011.0681
2179.6143
1601.8101
1191.9066
896.09578
679.53571
519.05677
398.89653
308.11927
239.00777
186.0347
145.18951
113.52885
88.870973
69.584516
54.440654
42.508345
33.079512
25.615256
19.706794
15.046128
11.40192
8.5967322
6.4847289
4.9341657
3.821062
3.0338424
2.4806981
2.0924451
1.8202017
1.6307247
1.5017954
1.4189761
1.3738584
1.3575386
1.3627801
1.3895548
1.4351862
1.4980697
1.5775631
1.6740777
1.7886673
1.920206
2.0655302
2.2374145
2.4495079
2.7006174
2.9565531
3.2190644
3.8409451
4.6014368
4.4637818
3.5777253
1.8623069
0.94529203
3736522
603715.14
185347
78626.83
40009.087
22788.445
13995.171
9064.6824
6106.1714
4238.1116
3011.1392
2179.6848
1601.8826
1191.9832
896.1779
679.62456
519.15334
399.00168
308.23373
239.13215
186.16951
145.33514
113.68556
89.038817
69.763304
54.629826
42.706799
33.28535
25.825455
19.916854
15.249899
11.591959
8.7655661
6.626875
5.0478417
3.9083134
3.0991
2.528992
2.1282628
1.8471018
1.6513903
1.5182421
1.4328018
1.386405
1.369931
1.376399
1.4057009
1.4554433
1.524365
1.6123889
1.720852
1.8516631
2.0028439
2.1742667
2.3888175
2.6559986
2.9524482
3.2289973
3.5750126
4.4249077
4.9686098
4.5598439
2.9902814
1.4137048
0.6394019
3736555.2
603720.51
185348.66
78627.54
40009.457
22788.667
13995.32
9064.7932
6106.2615
4238.1911
3011.2143
2179.7595
1601.9598
1192.0648
896.26561
679.71965
519.25688
399.11459
308.35682
239.26611
186.31491
145.49243
113.85505
89.220601
69.957225
54.835343
42.92281
33.509941
26.055541
20.147804
15.475294
11.80386
8.9557163
6.7888025
5.1788549
4.009967
3.1758635
2.5863078
2.1711705
1.879695
1.6768109
1.5388885
1.4506497
1.403115
1.386873
1.3954588
1.4287469
1.4848176
1.5631115
1.6646668
1.7925806
1.9494278
2.1320107
2.3496829
2.631667
2.9736418
3.3224685
3.6686545
4.2416024
5.2295547
5.2034846
4.4132354
2.1043705
0.94604582
0.45766059
3736589.7
603726.07
185350.37
78628.276
40009.841
22788.897
13995.474
9064.908
6106.3548
4238.2735
3011.2921
2179.837
1602.0399
1192.1496
896.35685
679.81868
519.36485
399.23251
308.48555
239.40642
186.46745
145.65773
114.03347
89.41233
70.162175
55.053046
43.152247
33.74927
26.301748
20.396284
15.719543
12.035634
9.166105
6.9703312
5.3277363
4.1269737
3.2652376
2.6537398
2.2221893
1.9189314
1.7079003
1.5646635
1.4735458
1.4252047
1.4098579
1.4219548
1.4614726
1.5273641
1.6204428
1.7439015
1.9035617
2.1005572
2.3340875
2.6332081
3.0169435
3.4644966
3.9315646
4.4812026
5.4203093
5.8730114
5.3193616
3.3295871
1.3534794
0.60580233
0.35394516
3736625.1
603731.8
185352.14
78629.037
40010.239
22789.135
13995.634
9065.0258
6106.4503
4238.3575
3011.3713
2179.9156
1602.1211
1192.2356
896.4493
679.91908
519.47443
399.35231
308.61653
239.54941
186.62319
145.82682
114.21638
89.609354
70.373339
55.278018
43.39016
33.998464
26.559407
20.657996
15.978931
12.284373
9.3948229
7.1706179
5.4945759
4.260065
3.3682788
2.7324448
2.282469
1.9659338
1.7457866
1.5967618
1.5028585
1.4543525
1.4410271
1.4588288
1.5081096
1.5894648
1.7063967
1.8659182
2.0751803
2.3321316
2.6538114
3.087917
3.6477783
4.3105066
5.0437222
6.0498877
6.5258141
6.1211694
4.6026497
1.8360068
0.77199097
0.42237926
0.29055608
3736662.3
603737.8
185353.99
78629.826
40010.65
22789.381
13995.798
9065.1463
6106.5472
4238.442
3011.4504
2179.9938
1602.2014
1192.3204
896.54052
680.01811
519.58254
399.47064
308.74608
239.69108
186.77779
145.99506
114.39884
89.80645
70.585262
55.504625
43.630815
34.251785
26.822907
20.927633
16.248673
12.546078
9.6389181
7.3879169
5.6787916
4.4095651
3.4858699
2.8235758
2.3532698
2.0220199
1.7918718
1.636747
1.5404504
1.4929161
1.4835255
1.5105353
1.5752775
1.6814836
1.8379937
2.0557495
2.3369184
2.692074
3.1768101
3.8620557
4.7896294
5.8662492
7.0279
7.2780931
6.8888334
5.525461
2.3332765
0.98595196
0.49404923
0.32908211
0.24841736
3736699.8
603743.93
185355.88
78630.639
40011.074
22789.633
13995.965
9065.2679
6106.6439
4238.5255
3011.5277
2180.0696
1602.2788
1192.4019
896.62783
680.1128
519.68593
399.58387
308.87021
239.82708
186.92654
146.15737
114.57541
89.997855
70.791878
55.726548
43.867705
34.50263
27.085677
21.198823
16.522822
12.815513
9.8941814
7.619314
5.8788456
4.5751381
3.6185334
2.928172
2.4359233
2.0887259
1.84792
1.6867227
1.5889494
1.544267
1.5421356
1.584065
1.6737318
1.8209567
2.0439352
2.3473456
2.741305
3.2863829
4.0975407
5.2989966
6.8742474
8.0452134
8.1041599
7.5995967
6.0123716
2.6478062
1.1758766
0.5943919
0.36466215
0.28238095
0.21308139
3736738.4
603750.24
185357.83
78631.48
40011.511
22789.891
13996.135
9065.3901
6106.7397
4238.6068
3011.6018
2180.1413
1602.3514
1192.4776
896.70864
680.20024
519.7813
399.68837
308.9849
239.95298
187.0646
146.30849
114.74041
90.177467
70.986695
55.936942
44.093688
34.743643
27.340258
21.46416
16.794241
13.086104
10.154971
7.860467
6.0919291
4.7554746
3.7661763
3.0469932
2.5317629
2.1678325
1.9161881
1.7496252
1.652338
1.6132354
1.6245042
1.6909063
1.8218275
2.0388517
2.3646717
2.7972417
3.411148
4.3492309
5.8098653
7.8921034
8.9533704
8.8549519
8.1491228
6.0910623
2.7978202
1.2982546
0.67387343
0.41412196
0.29908661
0.23840173
0.18799183
3736780.4
603757
185359.89
78632.356
40011.962
22790.157
13996.307
9065.5123
6106.8336
4238.6848
3011.6713
2180.2071
1602.4169
1192.5453
896.78029
680.27741
519.8653
399.78037
309.08599
240.06419
187.18694
146.44292
114.88788
90.338857
71.162826
56.128483
44.301045
34.966768
27.578349
21.715232
17.054604
13.349894
10.41408
8.1053768
6.3136445
4.9479356
3.9277697
3.1802957
2.6420275
2.2614073
1.9995968
1.8295992
1.7362816
1.7082107
1.7431728
1.8509961
2.052837
2.3891237
2.8635406
3.5443585
4.6219357
6.3259835
8.854328
9.8063176
9.5683693
8.6099587
6.0000867
2.8162052
1.3581828
0.72878661
0.45331297
0.32949482
0.25746239
0.21149752
0.16847323
3736824.8
603764.02
185362.03
78633.265
40012.43
22790.429
13996.482
9065.6337
6106.9245
4238.758
3011.7346
2180.2654
1602.4735
1192.6027
896.84029
680.34149
519.93474
399.85631
309.1695
240.1563
187.28866
146.55526
115.01189
90.475576
71.313287
56.293659
44.481757
35.16352
27.791062
21.94285
17.294575
13.597644
10.662755
8.3462833
6.5377696
5.1482187
4.101007
3.3275811
2.7677796
2.3719588
2.1022158
1.9329192
1.849782
1.843434
1.9203066
2.1012553
2.4310304
2.9558793
3.6982394
4.9124773
6.9045113
9.752674
10.638456
10.313084
9.088028
5.9458297
2.8179507
1.3973148
0.76914102
0.48643431
0.35227995
0.27751777
0.22450161
0.18896612
0.15270471
3736869.6
603771.19
185364.23
78634.204
40012.911
22790.707
13996.658
9065.7531
6107.0113
4238.8254
3011.7903
2180.3145
1602.5193
1192.6476
896.88611
680.38966
519.98645
399.91263
309.23144
240.22486
187.36483
146.6401
115.10648
90.581103
71.430976
56.424778
44.627544
35.325049
27.969017
22.137171
17.503968
13.819026
10.890839
8.5737221
6.7561784
5.3501589
4.2820529
3.4874233
2.909963
2.502905
2.2304907
2.0697588
2.0080665
2.0443607
2.197716
2.5145994
3.0755386
3.9093332
5.2435761
7.5223382
10.603701
11.462194
11.062191
9.6129007
6.0121964
2.8654405
1.4474784
0.81279008
0.5198892
0.37643187
0.29531226
0.24023696
0.19711456
0.16860827
0.13899454
3736913.9
603778.51
185366.49
78635.163
40013.401
22790.989
13996.833
9065.8696
6107.0929
4238.8855
3011.8369
2180.3526
1602.5523
1192.6778
896.91527
680.41907
520.01722
399.94574
309.26781
240.2654
187.4105
146.69192
115.16559
90.64876
71.508588
56.513895
44.729816
35.442128
28.102369
22.287772
17.671867
14.002792
11.087058
8.7768246
6.9590883
5.5458396
4.4655796
3.6575954
3.0698231
2.6594877
2.3948977
2.2572206
2.2408971
2.3588725
2.6594596
3.2400924
4.1748593
5.6570683
8.1917341
11.449454
12.268065
11.81123
10.189009
6.2229136
2.9775757
1.5229446
0.86693061
0.55986482
0.40578147
0.3149901
0.25260127
0.21162979
0.17803871
0.15167915
0.12617506
3736961
603786.16
185368.84
78636.159
40013.908
22791.278
13997.01
9065.9832
6107.1687
4238.9375
3011.8733
2180.3785
1602.571
1192.6915
896.92556
680.4272
520.02416
399.95233
309.27483
240.27363
187.42081
146.70527
115.1831
90.671758
71.538666
56.552915
44.779907
35.505586
28.181385
22.384356
17.787459
14.1377
11.239879
8.9441679
7.1358147
5.7263783
4.6456111
3.8361165
3.2505203
2.8516124
2.6143469
2.5290721
2.6045674
2.8846674
3.481203
4.5180104
6.154187
8.9407102
12.320554
13.090061
12.588841
10.834042
6.5793822
3.1599387
1.6283461
0.93504052
0.60776252
0.44143345
0.33812948
0.26694767
0.2203703
0.18634481
0.15934674
0.14018526
0.11963387
3737011.6
603794.22
185371.3
78637.194
40014.431
22791.571
13997.186
9066.0931
6107.238
4238.9804
3011.8983
2180.3906
1602.5736
1192.6867
896.9149
680.41174
520.00474
399.92964
309.24951
240.24635
187.39228
146.67634
115.1548
90.645328
71.515627
56.535124
44.769621
35.50556
28.195087
22.415446
17.839326
14.212697
11.338451
9.0652919
7.2769537
5.8842346
4.8180457
4.024315
3.4613626
3.1002411
2.9280672
2.9538146
3.2136166
3.8306095
4.9748935
6.7758068
9.7738692
13.230043
13.948925
13.411754
11.551749
7.0582551
3.4042217
1.7632456
1.0192074
0.66437956
0.48345515
0.3651874
0.28476556
0.23196954
0.19426876
0.16810543
0.14490844
0.12789119
0.10964179
3737062.3
603802.42
185373.81
78638.258
40014.967
22791.869
13997.361
9066.1982
6107.2996
4239.0131
3011.9106
2180.3877
1602.5586
1192.6618
896.8814
680.3706
519.95664
399.87515
309.18914
240.18065
187.3219
146.60211
115.07777
90.566864
71.437452
56.459382
44.69891
35.442921
28.14387
22.379418
17.822666
14.220156
11.375218
9.1338591
7.3776352
6.0174612
4.9860423
4.2338866
3.7277879
3.4529298
3.4200829
3.66564
4.3165206
5.5781664
7.5473033
10.707438
14.186258
14.858659
14.28994
12.340159
7.6385202
3.7040427
1.9271571
1.1193046
0.73344346
0.53190387
0.39651259
0.3063641
0.24766485
0.20522174
0.17499444
0.15164674
0.13330245
0.11856044
0.10403326
3737113.2
603810.77
185376.4
78639.349
40015.514
22792.171
13997.535
9066.2983
6107.3531
4239.035
3011.9094
2180.3687
1602.525
1192.6156
896.8238
680.30242
519.87845
399.78735
309.09214
240.0749
187.208
146.48086
114.95029
90.434638
71.302436
56.324077
44.566429
35.31703
28.028987
22.280562
17.745318
14.169957
11.357765
9.1562065
7.4457674
6.1385469
5.1709932
4.5017036
4.1127199
4.0163306
4.2553816
4.9573533
6.3509611
8.4939081
11.76425
15.199497
15.840755
15.238227
13.197907
8.3027576
4.0560833
2.1212406
1.2361147
0.81357524
0.58503702
0.43092247
0.3323749
0.26703025
0.21875012
0.18402113
0.15873956
0.13955241
0.12307388
0.11174556
0.099594337
3737167.7
603819.6
185379.1
78640.481
40016.08
22792.48
13997.709
9066.3939
6107.3988
4239.0462
3011.8951
2180.334
1602.4732
1192.5484
896.74262
680.20789
519.77103
399.66738
308.95995
239.93091
187.05281
146.31533
114.77565
90.252579
71.115225
56.134657
44.378529
35.135247
27.858844
22.128517
17.618708
14.076862
11.306859
9.1566213
7.5116956
6.2885597
5.432267
4.9177899
4.7569575
4.9989348
5.7704303
7.3075675
9.6356945
12.948659
16.293252
16.908539
16.26474
14.119936
9.0270807
4.459961
2.3482018
1.3715877
0.90504532
0.64419903
0.47099521
0.36393338
0.29069333
0.23514426
0.19577703
0.1669192
0.14554756
0.12936315
0.11598828
0.1052859
0.094171773
3737225.4
603828.81
185381.91
78641.662
40016.665
22792.797
13997.884
9066.4865
6107.4384
4239.0487
3011.8697
2180.2861
1602.4059
1192.4639
896.64186
680.09165
519.63975
399.52141
308.79965
239.75676
186.86552
146.11595
114.56563
90.033958
70.890709
55.907781
44.153795
34.918277
27.656517
21.949097
17.471937
13.974051
11.261107
9.1854328
7.6424202
6.55892
5.8985598
5.6687356
5.9199999
6.7745026
8.4671665
10.9837
14.283574
17.48498
18.058648
17.36688
15.101699
9.7955551
4.9215086
2.6129721
1.5319073
1.0091788
0.71028531
0.51780159
0.40043353
0.31714483
0.25428442
0.21002431
0.177433
0.15334876
0.13560616
0.12077698
0.10878656
0.10016377
0.091584608
3737283.9
603838.24
185384.81
78642.881
40017.268
22793.122
13998.063
9066.5796
6107.4762
4239.0478
3011.8394
2180.2322
1602.3317
1192.3713
896.53229
679.96584
519.49826
399.36472
308.62828
239.5714
186.66714
145.9059
114.34578
89.806824
70.659614
55.67703
43.928877
34.706089
27.465638
21.790162
17.357995
13.920765
11.293265
9.3405413
7.9675102
7.1236455
6.8066119
7.0615142
7.9939714
9.8304097
12.539755
15.815335
18.802471
19.301037
18.552424
16.145875
10.603464
5.4630554
2.9388324
1.7208591
1.1209402
0.78217048
0.57117373
0.44176727
0.34648002
0.27678545
0.22773178
0.19054631
0.16303158
0.14214735
0.12585964
0.11396797
0.1042087
0.096463456
0.088937373
3737344.3
603848.04
185387.8
78644.142
40017.895
22793.461
13998.252
9066.6795
6107.5196
4239.052
3011.8144
2180.1837
1602.2635
1192.2857
896.43067
679.84933
519.36771
399.22093
308.47215
239.40404
186.48998
145.72084
114.15534
89.614271
70.469183
55.494146
43.760408
34.560605
27.353557
21.726052
17.363272
14.028874
11.547183
9.7965162
8.7073966
8.2635056
8.4955937
9.4784549
11.429405
14.277651
17.593095
20.300013
20.643497
19.82714
17.251633
11.445189
6.068253
3.2938623
1.9069127
1.2282686
0.85946338
0.63498673
0.48930634
0.38026288
0.30312147
0.24871631
0.20607593
0.17429534
0.15036776
0.13250841
0.11957502
0.10852891
0.099744038
0.093207185
0.086418662
3737407.1
603858.19
185390.92
78645.452
40018.549
22793.819
13998.456
9066.7943
6107.5781
4239.0723
3011.8071
2180.1552
1602.2178
1192.2256
896.35818
679.76595
519.2748
399.11983
308.36435
239.2913
186.37446
145.6052
114.04289
89.509256
70.377071
55.422133
43.718207
34.561795
27.418045
21.879949
17.641302
14.477692
12.231607
10.807284
10.168894
10.330663
11.305046
13.320201
16.246424
19.551339
22.06005
22.119229
21.189729
18.414689
12.312458
6.735432
3.6774939
2.1090797
1.3578969
0.96427218
0.71587237
0.54450086
0.41741221
0.33308182
0.27207335
0.22406915
0.18790777
0.16087543
0.14074861
0.12540538
0.11296728
0.10340133
0.095837411
0.090067511
0.08479417
3737471.9
603868.67
185394.15
78646.816
40019.237
22794.204
13998.683
9066.9329
6107.6621
4239.1209
3011.8314
2180.1625
1602.2128
1192.2116
896.33785
679.74152
519.24833
399.09347
308.34046
239.27265
186.36439
145.60795
114.06391
89.555548
70.457724
55.549019
43.906942
34.833094
27.799536
22.41023
18.373682
15.483072
13.606574
12.681252
12.704337
13.587644
15.584676
18.507801
21.780531
24.034508
23.801223
22.664231
19.543499
13.219308
7.4692593
4.0884068
2.3288052
1.5077498
1.078177
0.79540623
0.59536861
0.4568764
0.36646416
0.29920504
0.24494774
0.20470346
0.17357495
0.15022165
0.13214764
0.11825572
0.10792995
0.099881851
0.093583135
0.088415386
0.083528818
3737539.4
603879.61
185397.5
78648.241
40019.962
22794.618
13998.94
9067.1011
6107.7784
4239.2056
3011.8968
2180.2165
1602.2611
1192.2584
896.3867
679.79567
519.31105
399.16826
308.43125
239.38405
186.50194
145.7784
114.27564
89.819159
70.786792
55.961286
44.426028
35.490899
28.639125
23.488685
19.766601
17.290451
15.955927
15.725383
16.467306
18.322599
21.142905
24.312008
26.245665
25.769501
24.297557
20.665066
14.181717
8.2398372
4.5099927
2.5709124
1.6756959
1.202671
0.88085272
0.66076747
0.51184425
0.41113025
0.33053586
0.26929583
0.22361162
0.18846357
0.16117981
0.1406457
0.12500897
0.11340938
0.10405037
0.096410837
0.090381852
0.08595773
0.082067194
3737610.3
603891
185400.99
78649.73
40020.727
22795.064
13999.225
9067.3001
6107.9285
4239.3284
3012.0057
2180.3204
1602.3665
1192.3708
896.51079
679.93604
519.4725
399.35604
308.65139
239.64363
186.8095
146.1444
114.71311
90.344591
71.421458
56.73315
45.371543
36.657394
30.087807
25.298649
22.037955
20.14526
19.53196
20.039301
21.62151
24.210336
27.166755
28.646334
27.95977
26.082235
21.815462
15.18912
9.0335555
4.9547443
2.8392881
1.862918
1.336494
0.97821015
0.73741131
0.57406098
0.45307125
0.36003749
0.2933262
0.24538367
0.20557979
0.17500492
0.1509893
0.13317606
0.11934442
0.10835232
0.099873801
0.093695368
0.088792785
0.084922435
0.081424828
3737682.9
603902.72
185404.61
78651.275
40021.528
22795.538
13999.537
9067.5264
6108.1088
4239.4855
3012.1541
2180.4702
1602.5255
1192.5458
896.70801
680.16196
519.73407
399.6611
309.00907
240.06479
187.30732
146.73511
115.41693
91.187303
72.435511
57.959556
46.862343
38.478139
32.320045
28.04117
25.403675
24.248544
24.414413
25.541769
27.766901
30.3173
31.228377
30.29316
27.991903
23.046904
16.231004
9.8317642
5.4224089
3.1320468
2.0663389
1.4820577
1.0878069
0.82630485
0.64032523
0.50153254
0.39793315
0.32835954
0.27303091
0.2274376
0.19096129
0.16359979
0.14239117
0.12648907
0.11379742
0.1046732
0.09738264
0.09144783
0.086849571
0.083408715
0.080408428
3737758.4
603914.96
185408.37
78652.884
40022.37
22796.044
13999.88
9067.785
6108.3248
4239.6835
3012.3501
2180.6758
1602.7503
1192.7982
896.99659
680.49562
520.12276
400.11628
309.54423
240.69612
188.05449
147.62231
116.47407
92.451222
73.95209
59.785298
49.066292
41.142928
35.540192
31.915704
30.018125
29.641201
30.284666
31.735357
33.818731
33.923767
32.71361
29.794951
24.266665
17.232833
10.591758
5.9067915
3.4553805
2.2937394
1.6441784
1.2130132
0.92516723
0.71496962
0.557454
0.44581522
0.36441243
0.29962932
0.24684659
0.2084697
0.17740609
0.15396235
0.13493145
0.12085936
0.10990329
0.10126319
0.094363483
0.089422901
0.085329824
0.082260152
0.079748489
3737836.4
603927.56
185412.25
78654.565
40023.262
22796.597
14000.272
9068.0978
6108.6026
4239.9529
3012.629
2180.9779
1603.0871
1193.1807
897.43597
681.00411
520.71413
400.80654
310.35235
241.64489
189.17151
148.94116
118.0357
94.305253
76.158032
62.413137
52.195522
44.857887
39.917938
37.003001
35.795623
35.926297
36.797458
37.56545
36.779222
35.131107
31.489082
25.483485
18.218795
11.356699
6.455465
3.8424253
2.5560097
1.8229486
1.3498208
1.0336727
0.79834756
0.62463938
0.49909061
0.40504849
0.32875587
0.27461588
0.23203014
0.19731235
0.16791701
0.14595433
0.12878543
0.11616871
0.10578705
0.09835332
0.092360523
0.08782317
0.08420195
0.08163768
0.079286431
3737916.9
603940.6
185416.29
78656.336
40024.23
22797.222
14000.74
9068.4959
6108.9784
4240.3354
3013.0387
2181.4309
1603.5978
1193.7631
898.10486
681.77571
521.60701
401.84243
311.55708
243.04947
190.81339
150.86562
120.29723
96.967349
79.283096
66.054766
56.424637
49.724719
45.42609
43.065694
42.195798
42.090657
41.574964
39.995945
37.510118
33.190138
26.723375
19.173485
12.125363
7.0586883
4.2679735
2.8257005
2.0041656
1.4957002
1.1549433
0.89593475
0.70286731
0.56039976
0.4500847
0.36674898
0.30529962
0.25749185
0.21481748
0.18277102
0.15710471
0.13862883
0.12320608
0.1118887
0.10281461
0.096006783
0.090398183
0.086376377
0.083042777
0.080654279
0.078581915
3738001.3
603954.26
185420.55
78658.223
40025.288
22797.936
14001.304
9069.003
6109.4799
4240.8635
3013.6166
2182.0779
1604.3316
1194.6015
899.06684
682.88267
522.88353
403.31741
313.265
245.0318
193.11934
153.55114
123.42139
100.58452
83.438702
70.782557
61.723996
55.560199
51.681951
49.41901
47.853598
45.887038
43.306833
40.055152
34.913685
27.921486
20.093676
12.930891
7.7438163
4.7513233
3.1294639
2.2179471
1.6732812
1.2994565
1.0094219
0.79179014
0.6286201
0.5039307
0.41046838
0.34104746
0.28259162
0.23815774
0.20229754
0.17483916
0.15093149
0.13313452
0.11876069
0.10848522
0.099914815
0.09373219
0.088758285
0.085188499
0.082096341
0.080125435
0.078286374
3738088.5
603968.42
185424.99
78660.225
40026.443
22798.75
14001.98
9069.6389
6110.1303
4241.5639
3014.3934
2182.9536
1605.3276
1195.7396
900.37074
684.37896
524.60259
405.29416
315.53916
247.64728
196.12342
156.99345
127.35116
105.04697
88.468075
76.357231
67.725425
61.710652
57.442277
53.946644
50.519805
46.984898
42.677877
36.660812
29.158562
21.117974
13.878308
8.5482722
5.3011563
3.4698225
2.457239
1.8639178
1.4489269
1.1276353
0.88909466
0.70761772
0.56808049
0.46264417
0.38008511
0.31465793
0.26441992
0.22647255
0.19123865
0.16436549
0.14239288
0.12728956
0.114457
0.10524137
0.097488282
0.092108115
0.087331396
0.084078737
0.081417197
0.079629225
0.077824835
3738178.6
603983.1
185429.61
78662.342
40027.699
22799.669
14002.774
9070.4095
6110.9358
4242.4431
3015.3758
2184.0649
1606.5921
1197.1826
902.01891
686.26117
526.75049
407.742
318.32301
250.80329
199.68389
160.97981
131.76379
109.85149
93.58078
81.644261
72.860689
66.193607
60.74396
55.867582
51.119514
45.57868
38.656068
30.63701
22.366755
14.994002
9.4465939
5.9012729
3.8502919
2.7302219
2.0777259
1.6196416
1.2713247
1.0102297
0.80571123
0.64492429
0.52191169
0.4261047
0.35176692
0.29640363
0.2495083
0.21217338
0.18061833
0.15803082
0.1380942
0.12357123
0.11123254
0.10272631
0.095452229
0.090302359
0.086146506
0.083294527
0.080639436
0.079024855
0.07745472
3738271.2
603998.26
185434.42
78664.576
40029.057
22800.691
14003.68
9071.3061
6111.8845
4243.4851
3016.5429
2185.3847
1608.0911
1198.8873
903.95709
688.46202
529.24399
410.55756
321.48668
254.33294
203.58164
165.22086
136.28114
114.51629
98.177684
85.855017
76.370397
68.728689
62.122014
55.838754
48.888365
40.987128
32.397959
23.839218
16.266148
10.457005
6.6042633
4.323335
3.0658619
2.3253565
1.8128928
1.4331
1.1431076
0.91020079
0.72842686
0.58867923
0.48061203
0.39719319
0.33154468
0.27816232
0.23522433
0.20325758
0.17331109
0.15074965
0.13154287
0.11883995
0.10786319
0.10018797
0.093549509
0.089089188
0.085051952
0.082353994
0.080101559
0.078760998
0.077255186
3738367.1
604011.17
185437.06
78665.09
40029.156
22800.781
14003.887
9071.6786
6112.4442
4244.2467
3017.5198
2186.5912
1609.5432
1200.6026
905.95474
690.76117
531.862
413.50661
324.76879
257.93275
207.45688
169.2908
140.41443
118.52146
101.80197
88.799847
78.327554
69.457966
61.186135
52.70494
43.77046
34.564886
25.657092
17.818082
11.694126
7.4902018
4.9160961
3.4557426
2.5937001
2.022771
1.6130946
1.2946945
1.0356197
0.83290722
0.67477569
0.54879073
0.4506775
0.37288317
0.3109506
0.26425232
0.22482969
0.19289416
0.16462685
0.14547308
0.12829652
0.11626335
0.10547328
0.098363438
0.092007781
0.08776128
0.084171124
0.081871119
0.079665981
0.078275686
0.076941482
3739014.3
604121.86
185474.38
78682.849
40039.319
22807.385
14008.616
9075.3482
6115.4973
4246.9456
3020.0322
2189.0317
1611.9946
1203.1276
908.60094
693.56396
534.84371
416.67367
328.10655
261.39833
210.97065
172.72822
143.60126
121.23675
103.79456
89.838234
78.096167
67.442023
57.194198
47.046809
37.073189
27.687077
19.489964
13.00636
8.4309128
5.5386694
3.8583315
2.8787997
2.258461
1.8177944
1.4662076
1.1778611
0.94963718
0.7671486
0.62176872
0.50799646
0.4196977
0.35040531
0.29577615
0.25077126
0.21320028
0.18547482
0.15930267
0.14019713
0.12312346
0.11230851
0.10270224
0.096232066
0.090494699
0.086752075
0.08330957
0.081043227
0.079082203
0.077970202
0.076815343
3739013.7
604118.88
185472
78681.159
40038.235
22806.752
14008.331
9075.3523
6115.7568
4247.4428
3020.7597
2189.9881
1613.182
1204.5485
910.25588
695.44708
536.93818
418.94558
330.49772
263.81879
213.29225
174.78188
145.18365
122.12641
103.70581
88.351343
74.918801
62.622104
51.038014
40.108932
30.094313
21.433836
14.534813
9.5583783
6.3146376
4.378748
3.2472611
2.5435411
2.0459597
1.6518954
1.3344618
1.0813327
0.8755236
0.71135134
0.58248185
0.47923779
0.39806188
0.33261097
0.2795924
0.23915083
0.20504492
0.17742402
0.1519134
0.13551587
0.12041567
0.11033136
0.10080002
0.094805784
0.089277969
0.085657623
0.082484162
0.08068182
0.078835075
0.077684085
0.076671431
3739013.8
604119.03
185472.16
78681.378
40038.521
22807.111
14008.771
9075.8825
6116.3861
4248.1807
3021.6152
2190.9692
1614.2941
1205.7925
911.6252
696.92423
538.48995
420.51779
332.01005
265.16129
214.3271
175.33379
145.02346
120.95305
101.26703
84.56892
69.870079
56.571577
44.444605
33.573231
24.233543
16.716107
11.148466
7.3854087
5.060163
3.6853189
2.8522742
2.2902948
1.8636875
1.5225492
1.2419374
1.0083353
0.81940581
0.66817899
0.54678399
0.45027328
0.37515533
0.31536321
0.2681495
0.22935745
0.19604277
0.17159034
0.14810438
0.13182438
0.11648165
0.10721518
0.098635881
0.093129201
0.08801368
0.085007479
0.082027657
0.080030594
0.07839017
0.07737817
0.076519708
3739014
604119.13
185472.25
78681.493
40038.673
22807.304
14009.011
9076.1759
6116.7389
4248.5983
3022.102
2191.5272
1614.9211
1206.4802
912.35584
697.66747
539.19922
421.12507
332.42067
265.24714
213.91443
174.22256
143.02446
117.94377
97.201057
79.513911
64.039913
50.33113
38.268989
27.95717
19.573397
13.211508
8.770365
5.9370016
4.2439601
3.2452688
2.6042816
2.1320247
1.749749
1.4285438
1.1616132
0.94572393
0.77090823
0.63068808
0.51971343
0.43048685
0.36029636
0.30307145
0.25645277
0.22059923
0.19008571
0.16587516
0.14256143
0.12822859
0.11450271
0.10580203
0.097240313
0.092087012
0.087236763
0.084046483
0.08130099
0.079796422
0.078221989
0.077251393
0.076409618
3739014.9
604119.22
185472.27
78681.5
40038.683
22807.323
14009.042
9076.2214
6116.8022
4248.6812
3022.2043
2191.6453
1615.0463
1206.5958
912.43445
697.6666
539.05621
420.75493
331.7151
264.07906
212.15356
171.74737
139.7426
113.82079
92.291944
73.987305
58.182362
44.519669
32.908842
23.397372
16.028268
10.719059
7.1997648
5.0387161
3.7639142
2.9760706
2.4247908
1.9928458
1.6368088
1.3425945
1.0997569
0.89813624
0.73360579
0.60139792
0.49497869
0.40959858