/*--------------------------------*- C++ -*----------------------------------*\
  =========                 |
  \\      /  F ield         | OpenFOAM: The Open Source CFD Toolbox
   \\    /   O peration     | Website:  https://openfoam.org
    \\  /    A nd           | Version:  13
     \\/     M anipulation  |
\*---------------------------------------------------------------------------*/
FoamFile
{
    format      ascii;
    class       surfaceScalarField;
    location    "40.6002";
    object      phi;
}
// * * * * * * * * * * * * * * * * * * * * * * * * * * * * * * * * * * * * * //

dimensions      [0 3 -1 0 0 0 0];

internalField   nonuniform List<scalar> 
34068
(
-1.1212069e-08
-3.3067966e-08
4.4280035e-08
-4.9902991e-08
-1.1342796e-07
1.5211888e-07
-1.2525975e-07
-2.2033912e-07
2.9569587e-07
-2.4888567e-07
-3.6153178e-07
4.851577e-07
-4.3534567e-07
-5.4688031e-07
7.3334031e-07
-7.0282789e-07
-7.8894369e-07
1.0564259e-06
-1.073987e-06
-1.103573e-06
1.4747321e-06
-1.5769597e-06
-1.510651e-06
2.0136237e-06
-2.2465371e-06
-2.0350184e-06
2.7045959e-06
-3.1255717e-06
-2.7074856e-06
3.5865202e-06
-4.2666424e-06
-3.5659752e-06
4.7070459e-06
-5.7340036e-06
-4.6567779e-06
6.1241392e-06
-7.6058451e-06
-6.0358651e-06
7.9077065e-06
-9.9768871e-06
-7.770189e-06
1.0141231e-05
-1.2961305e-05
-9.9388464e-06
1.2923264e-05
-1.6695988e-05
-1.2633927e-05
1.636861e-05
-2.1344068e-05
-1.5960797e-05
2.0608876e-05
-2.7098636e-05
-2.0037482e-05
2.5792051e-05
-3.4186491e-05
-2.4992708e-05
3.2080563e-05
-4.2871673e-05
-3.0962099e-05
3.9647281e-05
-5.3458426e-05
-3.8081934e-05
4.8668686e-05
-6.6293052e-05
-4.6479912e-05
5.9314538e-05
-8.1764016e-05
-5.6262457e-05
7.173342e-05
-0.00010029929
-6.7498535e-05
8.6033804e-05
-0.00012235981
-8.0200548e-05
0.00010226107
-0.00014842772
-9.430422e-05
0.00012037213
-0.00017898786
-0.00010965136
0.00014021149
-0.00021450182
-0.00012598253
0.00016149649
-0.00025537579
-0.00014295077
0.00018382474
-0.00030192785
-0.00016017082
0.00020672287
-0.00035436804
-0.00017731399
0.00022975418
-0.00041281062
-0.00019423431
0.0002526769
-0.0004773306
-0.00021106564
0.00027558561
-0.00054804993
-0.00022820838
0.00029892772
-0.00062521526
-0.00024619689
0.00032336222
-0.00070923854
-0.00026554808
0.00034957135
-0.00080070541
-0.00028668817
0.00037815504
-0.00090037568
-0.00030995685
0.00040962712
-0.0010091969
-0.00033563286
0.0004444541
-0.0011283435
-0.00036393388
0.00048308044
-0.0012592888
-0.00039496041
0.00052590572
-0.0014039197
-0.00042854956
0.00057318046
-0.0015647064
-0.00046399091
0.00062477763
-0.001744948
-0.00049954972
0.00067979136
-0.0019490745
-0.00053162656
0.00073575301
-0.0021829699
-0.00055341961
0.000787315
-0.0024544531
-0.00055310406
0.00082458732
-0.0027737954
-0.00051056935
0.00082991164
-0.0031541477
-0.00039252801
0.00077288029
-0.0036118127
-0.00014450145
0.00060216645
-0.0041659826
0.00032234321
0.0002318267
-0.0048372534
0.0011527247
-0.00048145393
-0.0056430327
0.0025792662
-0.0017734869
-0.0065887281
0.0049676395
-0.0040219441
-0.0076516979
0.0088591903
-0.0077962205
-0.0087543917
0.014929195
-0.013826501
-0.0097356191
0.0237814
-0.022800173
-0.01036538
0.035264938
-0.034635177
-0.010433764
0.047651766
-0.047583382
-0.0099664459
0.057233938
-0.057701257
-0.0084447351
0.053063135
-0.054584846
-0.0014187601
0.013104703
-0.020130678
0.012627014
-0.068729558
0.054683784
0.025536852
-0.14048293
0.12757309
-0.17233967
0.03258182
0.16529471
-1.1354993e-08
-2.1712973e-08
-5.0533096e-08
-7.4249852e-08
-1.2681605e-07
-1.4405616e-07
-2.5191596e-07
-2.3643187e-07
-4.4055312e-07
-3.5824314e-07
-7.1117501e-07
-5.1832179e-07
-1.0867984e-06
-7.279496e-07
-1.5959786e-06
-1.0014708e-06
-2.2740425e-06
-1.3569545e-06
-3.1645312e-06
-1.816997e-06
-4.3209023e-06
-2.4096041e-06
-5.8085267e-06
-3.1691534e-06
-7.7070008e-06
-4.137391e-06
-1.0112801e-05
-5.3643884e-06
-1.3142284e-05
-6.9093643e-06
-1.6935008e-05
-8.8412031e-06
-2.1657351e-05
-1.1238454e-05
-2.7506308e-05
-1.4188525e-05
-3.4713308e-05
-1.7785708e-05
-4.3547817e-05
-2.212759e-05
-5.4320339e-05
-2.7309411e-05
-6.7384312e-05
-3.3415939e-05
-8.3136159e-05
-4.051061e-05
-0.0001020126
-4.8622096e-05
-0.000124484
-5.7729146e-05
-0.00015104242
-6.7745803e-05
-0.0001821829
-7.8510882e-05
-0.00021837728
-8.9788147e-05
-0.00026004169
-0.00010128636
-0.00030750343
-0.00011270907
-0.00036098049
-0.00012383693
-0.00042059271
-0.00013462209
-0.00048641745
-0.0001452409
-0.0005585763
-0.00015604954
-0.00063731417
-0.00016745901
-0.00072304154
-0.00017982071
-0.00081634342
-0.00019338629
-0.00091797922
-0.00020832105
-0.0010288937
-0.00022471837
-0.0011502516
-0.00024257603
-0.0012835026
-0.00026170941
-0.0014304844
-0.00028156774
-0.0015935733
-0.00030090201
-0.0017759012
-0.00031722181
-0.0019816148
-0.00032591295
-0.0022161223
-0.00031891215
-0.0024864602
-0.00028276615
-0.0028016398
-0.00019538974
-0.0031727963
-2.1371452e-05
-0.0036130375
0.0002957397
-0.0041365486
0.00084585434
-0.0047562677
0.0017724438
-0.0054783584
0.0033013569
-0.006293845
0.0057831261
-0.0071647316
0.0097300769
-0.0080006463
0.015765109
-0.0086320698
0.024412823
-0.0088386442
0.035471512
-0.008401968
0.04721509
-0.0072153858
0.056047356
-0.004274262
0.050122011
0.0054030194
0.0034274215
0.02135421
-0.084680749
0.034185078
-0.15331379
-0.17730287
0.039148277
-1.1340544e-08
-1.0372428e-08
-5.0464898e-08
-3.5125499e-08
-1.2664529e-07
-6.7875767e-08
-2.5158418e-07
-1.1149298e-07
-4.4000167e-07
-1.6982566e-07
-7.1035554e-07
-2.4796791e-07
-1.0856842e-06
-3.5262093e-07
-1.5946023e-06
-4.9255274e-07
-2.2725385e-06
-6.7901833e-07
-3.1631973e-06
-9.2633815e-07
-4.3202845e-06
-1.2525169e-06
-5.8095299e-06
-1.679908e-06
-7.7110373e-06
-2.2358836e-06
-1.0121977e-05
-2.9534488e-06
-1.3159636e-05
-3.8717055e-06
-1.6964803e-05
-5.0360356e-06
-2.1705448e-05
-6.4978093e-06
-2.7580587e-05
-8.3133857e-06
-3.4824195e-05
-1.05421e-05
-4.3708879e-05
-1.3242905e-05
-5.4548979e-05
-1.6469312e-05
-6.770254e-05
-2.0262378e-05
-8.3571472e-05
-2.4641678e-05
-0.00010259895
-2.9594619e-05
-0.00012526287
-3.5065229e-05
-0.000152064
-4.0944672e-05
-0.00018350743
-4.7067451e-05
-0.00022007644
-5.3219133e-05
-0.00026219989
-5.9162914e-05
-0.00031021845
-6.469051e-05
-0.00036436246
-6.9692917e-05
-0.0004247603
-7.4224248e-05
-0.00049149121
-7.8509989e-05
-0.00056467084
-8.2869906e-05
-0.00064453168
-8.7598177e-05
-0.0007314695
-9.288289e-05
-0.00082605201
-9.8803772e-05
-0.00092901836
-0.0001053547
-0.001041286
-0.00011245072
-0.001163979
-0.00011988301
-0.0012984828
-0.00012720567
-0.0014465304
-0.00013352015
-0.0016103284
-0.00013710398
-0.0017927366
-0.00013481359
-0.0019974682
-0.00012118137
-0.0022292492
-8.7131115e-05
-0.0024940484
-1.7966968e-05
-0.0027992183
0.00010978009
-0.0031533272
0.00033273751
-0.003565538
0.00070795044
-0.004044061
0.0013243773
-0.0045929338
0.0023213166
-0.0052055764
0.0039139995
-0.0058577473
0.006435297
-0.0064960911
0.010368421
-0.0070065181
0.016275536
-0.0071729569
0.024579262
-0.0067171492
0.035015704
-0.0053891167
0.045887057
-0.0029012325
0.053559472
0.002607617
0.044613162
0.015229151
-0.0091941122
0.03189964
-0.10135124
0.04443329
-0.16584744
-0.18082815
0.047958564
-1.1157613e-08
7.8518481e-10
-4.9650562e-08
3.3674507e-09
-1.2462342e-07
7.097093e-09
-2.4764405e-07
1.1527643e-08
-4.3326236e-07
1.5792661e-08
-6.9968721e-07
1.8456935e-08
-1.069643e-06
1.733487e-08
-1.5714295e-06
9.2337635e-09
-2.240126e-06
-1.032184e-08
-3.119052e-06
-4.7412116e-08
-4.261496e-06
-1.1007297e-07
-5.732746e-06
-2.0865794e-07
-7.6124526e-06
-3.5617702e-07
-9.9973434e-06
-5.6855796e-07
-1.3004299e-05
-8.6474995e-07
-1.6773778e-05
-1.2665564e-06
-2.1473545e-05
-1.7980429e-06
-2.7302603e-05
-2.4843272e-06
-3.4495187e-05
-3.3495171e-06
-4.3324545e-05
-4.413547e-06
-5.4106169e-05
-5.6876884e-06
-6.7199932e-05
-7.1686142e-06
-8.3010463e-05
-8.8311477e-06
-0.0001019848
-1.0620284e-05
-0.00012460619
-1.2443839e-05
-0.00015138265
-1.4168208e-05
-0.0001828289
-1.5621207e-05
-0.00021944063
-1.66074e-05
-0.00026166209
-1.6941458e-05
-0.00030985155
-1.6501046e-05
-0.00036425681
-1.5287653e-05
-0.00042501874
-1.3462325e-05
-0.00049221885
-1.1309876e-05
-0.00056596263
-9.1261251e-06
-0.00064645757
-7.103242e-06
-0.00073407234
-5.2681168e-06
-0.00082933788
-3.5382306e-06
-0.00093295331
-1.7392708e-06
-0.0010457838
3.7976319e-07
-0.0011688817
3.2148867e-06
-0.0013035267
7.4393106e-06
-0.0014512918
1.4244939e-05
-0.0016141385
2.5742752e-05
-0.0017945504
4.5598366e-05
-0.0019956622
7.9930339e-05
-0.0022213213
0.00013852804
-0.0024761584
0.00023687015
-0.0027654846
0.00039910622
-0.0030947982
0.00066205112
-0.0034686388
0.0010817911
-0.003888365
0.0017441035
-0.004347957
0.0027809086
-0.0048268916
0.0043929341
-0.0052842429
0.0068926484
-0.0056483211
0.010732499
-0.005757241
0.016384456
-0.0053177547
0.024139776
-0.0039514136
0.033649363
-0.0013337773
0.043269421
0.0031097874
0.049115907
0.011887671
0.035835278
0.026947092
-0.024253533
0.043569824
-0.11797397
0.055372374
-0.17764999
-0.18354546
0.058089689
-1.0828533e-08
1.1613718e-08
-4.8185478e-08
4.0724396e-08
-1.2093946e-07
7.9851078e-08
-2.403055e-07
1.3089368e-07
-4.2041811e-07
1.9590527e-07
-6.7902027e-07
2.770591e-07
-1.0382833e-06
3.7659792e-07
-1.5258198e-06
4.9677027e-07
-2.1758933e-06
6.3975167e-07
-3.0308659e-06
8.0756044e-07
-4.1429133e-06
1.0019744e-06
-5.5760441e-06
1.2244729e-06
-7.4084524e-06
1.4762312e-06
-9.7352287e-06
1.7582184e-06
-1.267144e-05
2.071461e-06
-1.6355569e-05
2.4175726e-06
-2.0953273e-05
2.7996617e-06
-2.6661375e-05
3.2237745e-06
-3.3711928e-05
3.7010365e-06
-4.237613e-05
4.2506542e-06
-5.2967712e-05
4.9038941e-06
-6.5845329e-05
5.7090025e-06
-8.1413238e-05
6.7367614e-06
-0.0001001194
8.0858731e-06
-0.00012244982
9.8865813e-06
-0.00014891785
1.2299823e-05
-0.00018004693
1.5507871e-05
-0.00021634576
1.9691438e-05
-0.00025827638
2.4989163e-05
-0.00030621908
3.1441649e-05
-0.00036044476
3.8938023e-05
-0.00042111257
4.7205492e-05
-0.0004883081
5.5885647e-05
-0.00056211929
6.4685066e-05
-0.00064272529
7.3502757e-05
-0.000730442
8.2448597e-05
-0.00082575165
9.1771422e-05
-0.00092929018
0.00010179926
-0.0010418473
0.00011293687
-0.0011643717
0.00012573931
-0.0012979963
0.00014106387
-0.0014440795
0.00016032814
-0.0016042645
0.00018592782
-0.0017805588
0.00022189266
-0.0019753823
0.00027475379
-0.0021915177
0.00035466348
-0.0024320029
0.00047735532
-0.002699772
0.00066687535
-0.0029967805
0.00095905961
-0.0033223282
0.0014073388
-0.0036701134
0.0020918887
-0.0040228161
0.0031336113
-0.0043450685
0.0047151865
-0.0045773669
0.0071249468
-0.0046066034
0.010761735
-0.0041911184
0.015968971
-0.0029596426
0.0229083
-0.00044661395
0.031136335
0.003769903
0.039052904
0.010679279
0.042206532
0.022715216
0.02379934
0.039696489
-0.041234806
0.055945531
-0.13422301
0.066163138
-0.1878676
-0.18566336
0.06828103
-1.0344213e-08
2.1957931e-08
-4.6027429e-08
7.6407612e-08
-1.1552434e-07
1.4934799e-07
-2.2956768e-07
2.4493702e-07
-4.0169259e-07
3.6803018e-07
-6.4890202e-07
5.2426853e-07
-9.9247679e-07
7.201727e-07
-1.4589556e-06
9.6324906e-07
-2.0813163e-06
1.2621124e-06
-2.9003899e-06
1.6266341e-06
-3.9665415e-06
2.068126e-06
-5.3416546e-06
2.599586e-06
-7.1014499e-06
3.2360266e-06
-9.338165e-06
3.9949334e-06
-1.216361e-05
4.8969059e-06
-1.5712596e-05
5.9665587e-06
-2.01467e-05
7.233766e-06
-2.5658289e-05
8.7353639e-06
-3.2474663e-05
1.051741e-05
-4.0862092e-05
1.2638083e-05
-5.1129415e-05
1.5171216e-05
-6.3630723e-05
1.8210311e-05
-7.8766476e-05
2.1872515e-05
-9.6982191e-05
2.6301588e-05
-0.0001187636
3.1667989e-05
-0.00014462695
3.8163178e-05
-0.00017510305
4.5983967e-05
-0.00021071375
5.530214e-05
-0.00025194101
6.6216426e-05
-0.0002991914
7.8692039e-05
-0.00035276489
9.2511506e-05
-0.00041284397
0.00010728457
-0.0004795208
0.00012256248
-0.0005528656
0.00013802986
-0.00063301193
0.00015364909
-0.00072021845
0.00016965512
-0.00081489408
0.00018644705
-0.00091759236
0.00020449753
-0.0010290002
0.00022434467
-0.0011499317
0.00024667081
-0.0012813331
0.00027246534
-0.0014242965
0.00030329152
-0.0015800774
0.00034170874
-0.0017501135
0.00039192868
-0.0019359834
0.00046062376
-0.0021392355
0.00055791559
-0.0023610879
0.00069920772
-0.002601783
0.00090757038
-0.002859307
0.0012165837
-0.0031271465
0.0016751782
-0.0033905247
0.0023552669
-0.0036195845
0.0033626711
-0.0037615735
0.0048571755
-0.0037317467
0.00709512
-0.0033480979
0.010378087
-0.002280681
0.014901554
-7.4408586e-05
0.020702028
0.00380432
0.027257606
0.0097946406
0.033062583
0.019214192
0.03278698
0.034237738
0.0087757939
0.05288202
-0.059879088
0.068449898
-0.14979089
0.076215238
-0.19563294
-0.18697194
0.077523824
-9.7060312e-09
3.1663962e-08
-4.3187901e-08
1.0988948e-07
-1.0840438e-07
2.1456447e-07
-2.1544641e-07
3.5197905e-07
-3.7705625e-07
5.2964002e-07
-6.092633e-07
7.5647558e-07
-9.3215894e-07
1.0430683e-06
-1.3708375e-06
1.4019276e-06
-1.9565325e-06
1.8478074e-06
-2.7279809e-06
2.3980825e-06
-3.7330497e-06
3.0731947e-06
-5.0306624e-06
3.8971988e-06
-6.6930552e-06
4.8984193e-06
-8.8083997e-06
6.110278e-06
-1.1483803e-05
7.5723088e-06
-1.4848691e-05
9.3314474e-06
-1.9058556e-05
1.1443631e-05
-2.4298984e-05
1.3975791e-05
-3.0789853e-05
1.700828e-05
-3.8789506e-05
2.0637736e-05
-4.8598564e-05
2.4980275e-05
-6.0562969e-05
3.0174715e-05
-7.5075622e-05
3.6385168e-05
-9.2575828e-05
4.3801794e-05
-0.00011354547
5.2637633e-05
-0.00013850069
6.3118398e-05
-0.00016797756
7.5460832e-05
-0.00020251045
8.9835029e-05
-0.00024260257
0.00010630854
-0.00028869041
0.00012477988
-0.00034110877
0.00014492987
-0.00040007029
0.00016624609
-0.00046567833
0.00018817052
-0.00053798361
0.00021033514
-0.00061706782
0.0002327333
-0.00070311502
0.00025570232
-0.00079644342
0.00027977545
-0.00089750146
0.00030555557
-0.0010068481
0.00033369132
-0.0011251323
0.00036495502
-0.0012530756
0.00040040867
-0.0013914544
0.00044167027
-0.0015410725
0.00049132681
-0.0017027126
0.00055356884
-0.0018769981
0.00063490924
-0.0020640892
0.00074500671
-0.0022631797
0.00089829823
-0.0024715337
0.0011159243
-0.0026827656
0.0014278156
-0.0028839834
0.0018763961
-0.0030510264
0.0025223099
-0.0031404562
0.0034521009
-0.0030779758
0.004794695
-0.0027390163
0.0067561605
-0.0018577754
0.0094968458
-1.9581246e-05
0.01306336
0.0033091204
0.017373326
0.0086473287
0.021919398
0.016364145
0.025345767
0.028094046
0.021057079
0.045916077
-0.0090462365
0.066083118
-0.080046129
0.080255993
-0.16396377
0.085025041
-0.20040199
-0.18727093
0.085324033
-8.9252918e-09
4.0589254e-08
-3.9716632e-08
1.4068082e-07
-9.9702429e-08
2.7455027e-07
-1.9818711e-07
4.5046374e-07
-3.4693798e-07
6.7839088e-07
-5.6078206e-07
9.7031967e-07
-8.583363e-07
1.3406226e-06
-1.2628971e-06
1.8064884e-06
-1.8035159e-06
2.3884261e-06
-2.5162969e-06
3.1108635e-06
-3.4459488e-06
4.0028467e-06
-4.6476275e-06
5.0988775e-06
-6.1891088e-06
6.4399007e-06
-8.1533171e-06
8.0744863e-06
-1.0641243e-05
1.0060234e-05
-1.3775247e-05
1.2465451e-05
-1.7702744e-05
1.5371129e-05
-2.2600219e-05
1.8873266e-05
-2.8677452e-05
2.3085513e-05
-3.6181798e-05
2.8142082e-05
-4.5402237e-05
3.4200714e-05
-5.6672794e-05
4.1445273e-05
-7.0374792e-05
5.0087166e-05
-8.6937155e-05
6.0364157e-05
-0.00010683384
7.2534313e-05
-0.0001305771
8.6861665e-05
-0.0001587053
0.00010358903
-0.00019176357
0.0001228933
-0.00023027648
0.00014482146
-0.000274713
0.0001692164
-0.00032544803
0.0001956649
-0.00038273163
0.00022352969
-0.00044668501
0.0002521239
-0.00051734114
0.00028099127
-0.00059472397
0.00031011613
-0.0006789285
0.00033990685
-0.0007701633
0.00037101025
-0.00086874919
0.00040414145
-0.00097509195
0.00044003409
-0.0010896456
0.00047950867
-0.0012128708
0.00052363389
-0.0013451828
0.00057398223
-0.0014868752
0.00063301924
-0.0016379997
0.00070469334
-0.0017981224
0.00079503189
-0.0019658797
0.00091276404
-0.0021382515
0.00107067
-0.002309253
0.0012869258
-0.0024677191
0.0015862817
-0.0025937328
0.0020024099
-0.0026526836
0.0025812608
-0.0025862785
0.0033856958
-0.0022948103
0.0045032268
-0.0015941352
0.0060554853
-0.00012530694
0.0080280175
0.002587381
0.010350672
0.0070912744
0.012869433
0.013750876
0.015259796
0.023073267
0.016023377
0.037162056
0.0069682898
0.05778678
-0.02967096
0.078951043
-0.10121039
0.0904993
-0.17551202
0.092213819
-0.20211651
-0.18657451
0.091517392
-8.0188936e-09
4.8608148e-08
-3.5685578e-08
1.6834751e-07
-8.9595195e-08
3.2845989e-07
-1.7813567e-07
5.3900422e-07
-3.1193483e-07
8.1219004e-07
-5.0441091e-07
1.1627958e-06
-7.7244879e-07
1.6086605e-06
-1.1372239e-06
2.1712636e-06
-1.6252061e-06
2.8764083e-06
-2.2693713e-06
3.7550288e-06
-3.110659e-06
4.8441344e-06
-4.1997103e-06
6.1879287e-06
-5.5989264e-06
7.8391168e-06
-7.3848759e-06
9.8604358e-06
-9.6510916e-06
1.232645e-05
-1.2511263e-05
1.5325622e-05
-1.6102824e-05
1.896269e-05
-2.05909e-05
2.3361342e-05
-2.617254e-05
2.8667153e-05
-3.3081078e-05
3.505062e-05
-4.1590389e-05
4.2710025e-05
-5.2018721e-05
5.1873605e-05
-6.473157e-05
6.2800016e-05
-8.0142967e-05
7.5775554e-05
-9.871427e-05
9.1105616e-05
-0.00012094935
0.00010909674
-0.00014738474
0.00013002442
-0.00017857322
0.00015408178
-0.00021505919
0.00018130743
-0.00025734503
0.00021150224
-0.00030584986
0.00024416973
-0.00036086848
0.00027854831
-0.00042254845
0.00031380387
-0.00049091009
0.0003493529
-0.00056591662
0.00038512267
-0.00064756175
0.00042155198
-0.0007359254
0.0004593739
-0.00083117804
0.00049939409
-0.00093354685
0.0005424029
-0.001043262
0.00058922385
-0.0011604891
0.00064086096
-0.0012852399
0.00069873303
-0.0014172448
0.00076502416
-0.0015557554
0.00084320388
-0.0016991884
0.00093846491
-0.0018445332
0.0010581088
-0.0019863737
0.0012125106
-0.0021151929
0.001415745
-0.002214574
0.0016856628
-0.0022566993
0.0020445351
-0.0021950488
0.0025196102
-0.0019536307
0.0031442777
-0.0014000506
0.0039496467
-0.00026915849
0.0049245932
0.0018672138
0.0058916452
0.0054978126
0.0067200733
0.011034666
0.0073325787
0.018830234
0.0074642281
0.029893522
0.0049600892
0.046863815
-0.010002004
0.07023028
-0.053037425
0.0908578
-0.12183791
0.098389107
-0.18304333
0.097580777
-0.20130818
-0.18538851
0.096394778
-7.0079083e-09
5.5616056e-08
-3.118942e-08
1.9252902e-07
-7.8320642e-08
3.7559111e-07
-1.5576376e-07
6.1644734e-07
-2.7286915e-07
9.2929542e-07
-4.414718e-07
1.3313984e-06
-6.7650398e-07
1.8436926e-06
-9.9674456e-07
2.4915041e-06
-1.4257365e-06
3.3054002e-06
-1.992897e-06
4.3221893e-06
-2.7348642e-06
5.5861016e-06
-3.6971037e-06
7.1501682e-06
-4.9358277e-06
9.0778409e-06
-6.5202554e-06
1.1444863e-05
-8.5352502e-06
1.4341445e-05
-1.108436e-05
1.7874732e-05
-1.4293265e-05
2.2171594e-05
-1.8313623e-05
2.73817e-05
-2.3327246e-05
3.3680776e-05
-2.9550505e-05
4.1273879e-05
-3.7238773e-05
5.0398293e-05
-4.6690617e-05
6.132545e-05
-5.8251334e-05
7.4360732e-05
-7.2315226e-05
8.9839447e-05
-8.9325892e-05
0.00010811628
-0.00010977343
0.00012954427
-0.0001341873
0.0001544383
-0.00016312322
0.00018301769
-0.00019714192
0.00021532613
-0.00023677786
0.00025113818
-0.00028249655
0.00028988842
-0.00033464404
0.0003306958
-0.00039340407
0.00037256389
-0.00045879291
0.00041474174
-0.0005307142
0.00045704396
-0.00060905082
0.0004998886
-0.00069373596
0.00054405903
-0.00078476676
0.00059042489
-0.0008821661
0.00063980225
-0.00098591168
0.00069296942
-0.0010958407
0.00075078997
-0.0012115215
0.00081441386
-0.0013320711
0.0008855738
-0.0014558755
0.00096700822
-0.0015801133
0.0010627027
-0.0017000005
0.0011779961
-0.0018075274
0.0013200374
-0.0018892971
0.0014975147
-0.0019229936
0.0017193593
-0.0018715639
0.0019931055
-0.0016742181
0.0023222645
-0.0012316861
0.0027017457
-0.00036762481
0.0030855854
0.0012675953
0.0032893731
0.0041055005
0.0030537401
0.0085371457
0.0022884281
0.014960715
0.00090900898
0.02406499
-0.0016400462
0.037595531
-0.008570452
0.05815909
-0.030565564
0.083208064
-0.078086399
0.10062507
-0.13925492
0.10380379
-0.18622205
0.10125483
-0.19875922
-0.18478082
0.10064715
-5.9192274e-09
6.1535284e-08
-2.6347466e-08
2.1295726e-07
-6.6177689e-08
4.1542133e-07
-1.3166394e-07
6.8193359e-07
-2.3077373e-07
1.0284052e-06
-3.7362477e-07
1.4742494e-06
-5.7302568e-07
2.0430936e-06
-8.4514314e-07
2.7636216e-06
-1.2103193e-06
3.6705763e-06
-1.6940704e-06
4.8059404e-06
-2.3282985e-06
6.2203297e-06
-3.1527562e-06
7.9746258e-06
-4.2167944e-06
1.0141879e-05
-5.5814486e-06
1.2809518e-05
-7.3218794e-06
1.6081876e-05
-9.5302226e-06
2.0083075e-05
-1.2318858e-05
2.496023e-05
-1.5824087e-05
3.0886929e-05
-2.021021e-05
3.80669e-05
-2.5673913e-05
4.6737582e-05
-3.2448835e-05
5.7173215e-05
-4.0810069e-05
6.9686684e-05
-5.1078309e-05
8.4628972e-05
-6.3623125e-05
0.00010238426
-7.8864717e-05
0.00012335787
-9.7273278e-05
0.00014795284
-0.00011936473
0.00017652975
-0.00014569123
0.00020934419
-0.00017682401
0.00024645891
-0.00021332552
0.00028763969
-0.00025570691
0.00033226981
-0.00030436997
0.00037935886
-0.00035954466
0.00042773858
-0.00042125501
0.0004764521
-0.00048935099
0.00052513993
-0.00056359913
0.00057413674
-0.00064376947
0.00062422938
-0.0007296628
0.00067631822
-0.00082107112
0.00073121057
-0.00091769023
0.00078958854
-0.0010189951
0.00085209482
-0.0011240697
0.0009194885
-0.0012313657
0.00099286977
-0.0013383327
0.0010739752
-0.0014408107
0.0011651806
-0.0015320885
0.0012692739
-0.0016012957
0.0013892446
-0.0016306484
0.0015268673
-0.0015908848
0.0016795957
-0.0014336375
0.0018358582
-0.0010800116
0.0019686386
-0.00040066915
0.0020224032
0.00083608136
0.0018488349
0.0030097077
0.0011157467
0.0064922185
-0.00042877065
0.01168842
-0.0029077733
0.019293792
-0.0066963629
0.030549207
-0.012895461
0.047683083
-0.025704329
0.071704686
-0.054587166
0.095270543
-0.10165226
0.10684911
-0.15083349
0.10680023
-0.18617317
0.10389324
-0.19585223
-0.18559791
0.10471033
-4.7854833e-09
6.6320767e-08
-2.1304826e-08
2.294766e-07
-5.3529632e-08
4.4764614e-07
-1.0655639e-07
7.3496034e-07
-1.8690412e-07
1.1087529e-06
-3.0288911e-07
1.5902344e-06
-4.6508734e-07
2.2052918e-06
-6.8691104e-07
2.9854453e-06
-9.8531925e-07
3.9689846e-06
-1.3816904e-06
5.2023116e-06
-1.9028917e-06
6.7415309e-06
-2.5825725e-06
8.6543067e-06
-3.4627323e-06
1.1022039e-05
-4.5955942e-06
1.394238e-05
-6.0458277e-06
1.7532109e-05
-7.8931642e-06
2.1930412e-05
-1.0235427e-05
2.7302493e-05
-1.3192003e-05
3.3843506e-05
-1.6907752e-05
4.1782649e-05
-2.1557292e-05
5.1387122e-05
-2.7349609e-05
6.2965531e-05
-3.4532798e-05
7.6869873e-05
-4.339871e-05
9.3494883e-05
-5.428713e-05
0.00011327268
-6.758897e-05
0.00013665971
-8.3747721e-05
0.00016411159
-0.00010325813
0.00019604016
-0.00012666051
0.00023274657
-0.00015452821
0.00027432661
-0.00018744417
0.00032055565
-0.00022596056
0.0003707862
-0.00027053594
0.00042393424
-0.00032145508
0.00047865772
-0.00037876362
0.00053376065
-0.00044226887
0.00058864517
-0.00051162058
0.00064348846
-0.00058641195
0.00069902075
-0.00066622438
0.00075613065
-0.00075059097
0.00081557716
-0.00083889352
0.00087789109
-0.00093020701
0.00094340831
-0.0010230838
0.0010123653
-0.0011152466
0.0010850326
-0.0012031168
0.0011618453
-0.0012810553
0.0012431192
-0.0013401899
0.0013284085
-0.001366357
0.0014154117
-0.0013365211
0.0014970315
-0.0012126525
0.0015557271
-0.00093168795
0.0015548937
-0.00039117835
0.001428129
0.00057593052
0.0010552943
0.0022454797
0.00017928571
0.0049820193
-0.0016207929
0.009244545
-0.0046912963
0.015760706
-0.0094239346
0.025633478
-0.016569135
0.040411619
-0.027673602
0.061437591
-0.0467303
0.085770021
-0.078919596
0.10330046
-0.11918269
0.10905672
-0.15658974
0.10783739
-0.18495384
0.10609791
-0.19411276
-0.18817131
0.10867131
-3.6436756e-09
6.9964442e-08
-1.6225268e-08
2.4205819e-07
-4.0786463e-08
4.7220733e-07
-8.1252651e-08
7.7542653e-07
-1.426769e-07
1.1701772e-06
-2.3154526e-07
1.6791028e-06
-3.5616217e-07
2.3299087e-06
-5.2712969e-07
3.1564128e-06
-7.5794591e-07
4.1998008e-06
-1.0657452e-06
5.5101109e-06
-1.4722082e-06
7.1479939e-06
-2.0046832e-06
9.1867816e-06
-2.6975424e-06
1.1714898e-05
-3.5938299e-06
1.4838667e-05
-4.7472328e-06
1.8685512e-05
-6.2244244e-06
2.3407604e-05
-8.1078179e-06
2.9185886e-05
-1.0498772e-05
3.623446e-05
-1.3521243e-05
4.480512e-05
-1.7325909e-05
5.5191788e-05
-2.2094697e-05
6.773432e-05
-2.8045643e-05
8.2820819e-05
-3.5437913e-05
0.00010088715
-4.4576707e-05
0.00012241148
-5.5817736e-05
0.00014790074
-6.9570605e-05
0.00017786446
-8.6300302e-05
0.00021276986
-0.00010652536
0.00025297163
-0.00013081019
0.00029861144
-0.00015974699
0.00034949245
-0.00019391954
0.00040495875
-0.000233839
0.0004638537
-0.00027984981
0.00052466853
-0.00033203293
0.00058594376
-0.00039016809
0.00064678034
-0.00045379378
0.00070711415
-0.00052231658
0.00076754355
-0.00059507588
0.00082888996
-0.00067131506
0.00089181634
-0.00075006438
0.00095664041
-0.00082995184
0.0010232958
-0.00090893505
0.0010913485
-0.00098391657
0.0011600141
-0.0010501459
0.0012280746
-0.0011002734
0.0012932467
-0.0011228485
0.0013509836
-0.0010996136
0.0013921768
-0.0010006506
0.0013980685
-0.00077582685
0.0013309033
-0.00034170931
0.0011207762
0.00043551607
0.0006509036
0.0017690817
-0.00027827127
0.003993216
-0.0020448486
0.0076107009
-0.0052382778
0.013445973
-0.010526568
0.022600539
-0.018578501
0.036172708
-0.030141304
0.054672314
-0.046173208
0.07669766
-0.068755646
0.096127547
-0.098349483
0.10654229
-0.12959743
0.10935523
-0.15940269
0.10820867
-0.18380728
0.10818735
-0.19409144
-0.19232811
0.11234416
-2.5352821e-09
7.2499725e-08
-1.12936e-08
2.5081651e-07
-2.841173e-08
4.8932546e-07
-5.6673827e-08
8.0368863e-07
-9.9699814e-08
1.2132032e-06
-1.6218552e-07
1.7415885e-06
-2.5020449e-07
2.4179277e-06
-3.7159416e-07
3.2778025e-06
-5.3643518e-07
4.3646418e-06
-7.5765693e-07
5.7313327e-06
-1.0517885e-06
7.4421255e-06
-1.4398889e-06
9.574882e-06
-1.9486902e-06
1.22237e-05
-2.611998e-06
1.5501975e-05
-3.4723881e-06
1.9545902e-05
-4.5832509e-06
2.4518466e-05
-6.01122e-06
3.0613855e-05
-7.8390521e-06
3.8062292e-05
-1.0168967e-05
4.7135035e-05
-1.3126493e-05
5.8149314e-05
-1.686481e-05
7.1472636e-05
-2.1569558e-05
8.7525567e-05
-2.7464034e-05
0.00010678163
-3.4814646e-05
0.00012976209
-4.3936322e-05
0.00015702242
-5.5197585e-05
0.00018912572
-6.9024536e-05
0.00022659681
-8.5902604e-05
0.0002698497
-0.00010637373
0.00031908256
-0.0001310242
0.00037414292
-0.00016045436
0.00043438891
-0.00019521708
0.00049861642
-0.00023571505
0.0005651665
-0.00028207535
0.00063230406
-0.00033406684
0.00069877182
-0.00039112785
0.00076417516
-0.00045247356
0.00082888926
-0.00051717918
0.00089359557
-0.00058416294
0.0009588001
-0.00065205593
0.0010245334
-0.00071897433
0.0010902142
-0.00078218642
0.0011545606
-0.00083762694
0.0012154546
-0.00087912664
0.0012695743
-0.00089720268
0.0013113228
-0.00087702205
0.001330803
-0.00079462347
0.0013097782
-0.00060994001
0.001213385
-0.00025442534
0.00097538861
0.000385775
0.00048057583
0.001495311
-0.00045863243
0.0033854272
-0.0021683875
0.006596267
-0.0052556884
0.012051453
-0.010693464
0.020901581
-0.019376696
0.033919675
-0.031596594
0.05078153
-0.047003159
0.069818326
-0.065210005
0.087641637
-0.086578958
0.09992717
-0.11063502
0.10606007
-0.13573033
0.10849311
-0.16183573
0.10865268
-0.18396685
0.11024633
-0.19568509
-0.1976546
0.11557282
-1.5029127e-09
7.4002637e-08
-6.6995872e-09
2.5601318e-07
-1.6881742e-08
4.9950762e-07
-3.3765389e-08
8.2057228e-07
-5.9627408e-08
1.2390652e-06
-9.7477948e-08
1.779439e-06
-1.5128961e-07
2.4717393e-06
-2.2628355e-07
3.3527965e-06
-3.2930025e-07
4.4676585e-06
-4.6926728e-07
5.8712997e-06
-6.5779121e-07
7.6306495e-06
-9.0989458e-07
9.8269854e-06
-1.2449494e-06
1.2558754e-05
-1.6878125e-06
1.5944838e-05
-2.2702407e-06
2.012833e-05
-3.0326056e-06
2.5280831e-05
-4.0259836e-06
3.1607233e-05
-5.3146312e-06
3.935094e-05
-6.9789699e-06
4.8799374e-05
-9.1190401e-06
6.0289384e-05
-1.185853e-05
7.4212126e-05
-1.5349364e-05
9.1016402e-05
-1.9776843e-05
0.00011120911
-2.5365306e-05
0.00013535055
-3.238419e-05
0.0001640413
-4.1154265e-05
0.00019789579
-5.2053618e-05
0.00023749616
-6.5522477e-05
0.00028331856
-8.2064799e-05
0.00033562488
-0.00010224216
0.00039432028
-0.00012665067
0.00045879742
-0.00015586731
0.00052783306
-0.00019034294
0.00059964214
-0.00023025161
0.00067221273
-0.00027536678
0.00074388699
-0.00032503975
0.00081384813
-0.00037829573
0.00088214523
-0.00043392358
0.00094922343
-0.00049047407
0.0010153506
-0.00054611388
0.0010801732
-0.00059835042
0.0011424507
-0.00064361111
0.0011998213
-0.00067660898
0.0012484525
-0.0006893155
0.0012822808
-0.00066930638
0.0012913137
-0.00059676105
0.0012582577
-0.00043871282
0.00115173
-0.00013820217
0.0009128744
0.00040379337
0.00043339307
0.0013556474
-0.00047127824
0.0030186833
-0.0021216683
0.0059655665
-0.0051152707
0.01119497
-0.010485092
0.019887454
-0.019385947
0.032523002
-0.032012244
0.04821303
-0.047286622
0.064856923
-0.063647052
0.080209603
-0.080562684
0.092205394
-0.098574749
0.099997556
-0.11842718
0.1047474
-0.14048018
0.10742635
-0.16451468
0.10903492
-0.18557542
0.11199902
-0.19864919
-0.20389638
0.11824079
-5.9322152e-10
7.4595859e-08
-2.6508518e-09
2.5807082e-07
-6.7176799e-09
5.0357445e-07
-1.3563716e-08
8.2741831e-07
-2.4270637e-08
1.2497721e-06
-4.0349115e-08
1.7955175e-06
-6.3890474e-08
2.4952807e-06
-9.7768805e-08
3.3866748e-06
-1.4590511e-07
4.5157948e-06
-2.1360539e-07
5.939e-06
-3.0800046e-07
7.7250445e-06
-4.386053e-07
9.9575902e-06
-6.1802547e-07
1.2738174e-05
-8.6285801e-07
1.6189671e-05
-1.194801e-06
2.0460273e-05
-1.6420453e-06
2.5728076e-05
-2.2409746e-06
3.2206163e-05
-3.0382602e-06
4.0148225e-05
-4.0933558e-06
4.9854469e-05
-5.4815308e-06
6.1677559e-05
-7.2974222e-06
7.6028018e-05
-9.659225e-06
9.3378204e-05
-1.2713522e-05
0.0001142634
-1.6640823e-05
0.00013927785
-2.1661778e-05
0.00016906226
-2.8044045e-05
0.00020427806
-3.6109571e-05
0.00024556169
-4.6241636e-05
0.00029345062
-5.8890038e-05
0.00034827329
-7.4570331e-05
0.00041000058
-9.3847206e-05
0.0004780743
-0.00011728782
0.00055127367
-0.00014537888
0.0006277332
-0.00017833228
0.00070516613
-0.00021592266
0.00078147738
-0.00025743491
0.00085536038
-0.00030171193
0.00092642225
-0.00034722827
0.00099473976
-0.00039211311
0.0010602354
-0.00043397259
0.0011220327
-0.00046955196
0.0011780301
-0.00049418361
0.001224453
-0.00050091189
0.0012551808