/*--------------------------------*- C++ -*----------------------------------*\
  =========                 |
  \\      /  F ield         | OpenFOAM: The Open Source CFD Toolbox
   \\    /   O peration     | Website:  https://openfoam.org
    \\  /    A nd           | Version:  13
     \\/     M anipulation  |
\*---------------------------------------------------------------------------*/
FoamFile
{
    format      ascii;
    class       volScalarField;
    location    "30.501039";
    object      omega;
}
// * * * * * * * * * * * * * * * * * * * * * * * * * * * * * * * * * * * * * //

dimensions      [0 0 -1 0 0 0 0];

internalField   nonuniform List<scalar> 
17140
(
3736295.3
603677.92
185335.26
78621.644
40006.309
22786.745
13994.018
9063.8286
6105.4867
4237.5218
3010.5989
2179.1644
1601.3617
1191.4467
895.61445
679.02497
518.5099
398.30764
307.48302
238.31916
185.28899
144.38221
112.65592
87.929241
68.572574
53.360373
41.367292
31.894343
24.41561
18.537978
13.967166
10.475092
7.8692118
5.971842
4.6168099
3.6586623
2.9815142
2.5002611
2.1557007
1.90779
1.7296732
1.6032439
1.5161193
1.4599161
1.4293576
1.4181359
1.4205167
1.4362713
1.4629959
1.4989504
1.5431022
1.5950844
1.6550902
1.7232985
1.7989194
1.8806483
1.9693429
2.0675575
2.177331
2.2973081
2.40656
2.4687085
2.4618293
2.3909202
2.3486246
3736320.9
603682.55
185336.96
78622.517
40006.831
22787.09
13994.26
9064.0064
6105.6214
4237.6262
3010.6809
2179.2294
1601.4132
1191.4874
895.64631
679.04936
518.52791
398.32015
307.49073
238.32265
185.28877
144.37872
112.64958
87.920453
68.56175
53.347945
41.353734
31.880177
24.401409
18.524352
13.954707
10.464292
7.8603626
5.964981
4.6117598
3.6551315
2.9791942
2.4988825
2.1550521
1.9077152
1.7300605
1.6040304
1.5172615
1.4614472
1.4312746
1.4203636
1.4231514
1.439397
1.4666963
1.5033384
1.5483178
1.6012889
1.6624387
1.7318352
1.8082805
1.8896278
1.9751899
2.0653048
2.1580715
2.2498933
2.3221346
2.3598485
2.3594573
2.3643482
2.4478964
3736345.9
603686.65
185338.23
78623.058
40007.109
22787.25
13994.36
9064.0722
6105.6673
4237.6598
3010.7067
2179.2501
1601.4307
1191.5029
895.66051
679.06288
518.54115
398.33339
307.50417
238.33642
185.30293
144.39331
112.66461
87.935893
68.577544
53.364003
41.369911
31.896247
24.417029
18.539054
13.967946
10.475589
7.8694893
5.97205
4.6171407
3.6592811
2.9825257
2.5017172
2.1576243
1.9101982
1.7325916
1.6067129
1.520202
1.4648522
1.4352713
1.4249139
1.428579
1.4459509
1.4746794
1.5131443
1.5604667
1.6164742
1.6815524
1.7558009
1.8375038
1.9237451
2.0129034
2.1036328
2.1908732
2.2686636
2.3238164
2.356063
2.3781196
2.4633788
2.7356713
3736372.1
603690.92
185339.56
78623.624
40007.399
22787.418
13994.467
9064.1453
6105.7206
4237.7013
3010.7411
2179.2803
1601.4588
1191.5301
895.68781
679.09099
518.57059
398.36454
307.53731
238.37174
185.34054
144.43325
112.70681
87.980229
68.623759
53.411704
41.418509
31.944893
24.464549
18.583944
14.008535
10.51042
7.8977996
5.9940192
4.6337035
3.6716818
2.9919455
2.5091079
2.1636961
1.9154693
1.7374485
1.6114655
1.5251156
1.4703137
1.4415899
1.4320525
1.4371305
1.4563601
1.4875026
1.5291106
1.5805575
1.6420314
1.7143515
1.7977056
1.8896047
1.9865984
2.0868051
2.1877783
2.2817827
2.3596139
2.4090245
2.4471068
2.5072393
2.7452464
3.1191009
3736400.1
603695.46
185340.96
78624.218
40007.703
22787.597
13994.582
9064.2265
6105.7823
4237.7517
3010.7853
2179.3215
1601.499
1191.5708
895.73014
679.13572
518.61833
398.41576
307.59233
238.4308
185.40376
144.50062
112.77823
88.055427
68.702284
53.492863
41.50128
32.027815
24.54562
18.660619
14.077989
10.570169
7.9464925
6.0318717
4.6622169
3.6929167
3.0078907
2.5213852
2.1735246
1.9237422
1.7448312
1.6184811
1.5322058
1.4780695
1.45047
1.4420911
1.4492149
1.471166
1.5058944
1.552234
1.6099758
1.6799133
1.7635496
1.8609587
1.9685098
2.0829041
2.2025905
2.3240747
2.4376266
2.5329076
2.5985539
2.6679109
2.8014838
3.1549382
3.4265582
3736429.1
603700.14
185342.39
78624.832
40008.022
22787.785
13994.706
9064.3158
6105.8524
4237.8112
3010.8394
2179.3736
1601.5514
1191.6252
895.78763
679.19725
518.6846
398.48731
307.66957
238.51399
185.49305
144.596
112.87951
88.162207
68.813928
53.608382
41.619226
32.14612
24.661458
18.770401
14.177707
10.656247
8.016897
6.0867695
4.7036322
3.7237307
3.0309337
2.5389914
2.1874609
1.9353085
1.7549974
1.6280092
1.5417472
1.488465
1.4621729
1.4554315
1.4653694
1.4910891
1.5308391
1.5838849
1.6506647
1.7329095
1.8329744
1.9500835
2.0794916
2.219428
2.3687358
2.5217846
2.6662595
2.7893415
2.8831568
2.9960265
3.1991578
3.5666438
3.6310248
3736459.3
603704.97
185343.87
78625.467
40008.355
22787.984
13994.838
9064.413
6105.9306
4237.8795
3010.9032
2179.4365
1601.6158
1191.6929
895.85994
679.27521
518.76903
398.57883
307.76867
238.621
185.60812
144.71912
113.01045
88.300479
68.958711
53.75842
41.772669
32.300329
24.812814
18.914286
14.308914
10.770034
8.1104269
6.1600224
4.7590651
3.7650213
3.0617771
2.5624757
2.2059442
1.9505346
1.7682713
1.640356
1.5540355
1.501764
1.4772218
1.4726266
1.4863098
1.5170989
1.5636836
1.6259759
1.7053976
1.8050542
1.9278828
2.0709915
2.2302073
2.4068761
2.5991602
2.7978607
2.9835557
3.1407213
3.2648936
3.4131501
3.6568323
3.9013806
3.7518794
3736490.6
603709.98
185345.4
78626.127
40008.702
22788.193
13994.979
9064.5182
6106.0169
4237.9562
3010.9763
2179.5096
1601.6916
1191.7732
895.94632
679.36878
518.87072
398.68939
307.88865
238.75081
185.74796
144.86899
113.1701
88.469354
69.135859
53.94236
41.961205
32.490305
24.999881
19.092847
14.472573
10.91282
8.228543
6.2530763
4.8298022
3.8178536
3.1012703
2.5925115
2.2295183
1.969878
1.7850614
1.6559168
1.5694947
1.5184588
1.4961241
1.4944029
1.5129987
1.5505198
1.6063032
1.6812301
1.7782159
1.9021626
2.0551102
2.2318509
2.4329835
2.6634963
2.9183839
3.1809013
3.4210051
3.6148859
3.7665377
3.9269119
4.1490282
4.1644877
3.7485554
3736522
603715.13
185346.99
78626.812
40009.061
22788.411
13995.128
9064.6307
6106.1104
4238.0407
3011.0577
2179.592
1601.7777
1191.865
896.04552
679.47662
518.98823
398.81741
308.02785
238.90166
185.91075
145.04377
113.35664
88.667068
69.343711
54.158707
42.183578
32.715122
25.222159
19.306102
14.669263
11.085696
8.3726831
6.36748
4.9172954
3.883471
3.1504275
2.6299148
2.2588502
1.9939051
1.8058783
1.6751918
1.5887011
1.5392346
1.5194549
1.5217663
1.5467534
1.5931961
1.6613661
1.7536171
1.8751161
2.0322423
2.2233677
2.4456066
2.708986
3.0209662
3.3693835
3.7223512
4.0315759
4.256151
4.43438
4.5526641
4.6145762
4.328716
3.2980512
3736555.2
603720.5
185348.65
78627.525
40009.435
22788.638
13995.284
9064.7501
6106.2107
4238.1321
3011.1465
2179.6824
1601.8727
1191.9668
896.1558
679.59678
519.11943
398.96061
308.18384
239.07101
186.09384
145.24073
113.56728
88.890855
69.579584
54.404944
42.437532
32.972902
25.478282
19.553328
14.899001
11.289401
8.5441489
6.5048181
5.0231357
3.9632948
3.2104407
2.6756644
2.294752
2.0233151
1.8313556
1.698779
1.6124003
1.5649116
1.5481497
1.5560539
1.5894057
1.647755
1.7327664
1.8490834
2.0049461
2.2053408
2.4454833
2.7350224
3.0950292
3.532891
4.0222941
4.5008177
4.891905
5.117235
5.2585027
5.1766934
4.9063632
4.1388023
2.0964086
3736589.7
603726.07
185350.36
78628.265
40009.824
22788.875
13995.448
9064.8755
6106.3166
4238.2292
3011.2414
2179.7793
1601.9748
1192.0765
896.27487
679.72676
519.2616
399.11604
308.35342
239.25545
186.29364
145.45613
113.79822
89.136857
69.839664
54.677391
42.719647
33.26063
25.76581
19.832843
15.161009
11.524113
8.743932
6.6665946
5.1489923
4.0589049
3.2826853
2.7309192
2.3382074
2.0589739
1.8623031
1.7274966
1.641474
1.5965114
1.5836751
1.5990725
1.6435646
1.7180441
1.8263637
1.9767517
2.1797735
2.4343563
2.744561
3.1409671
3.6543229
4.2848441
4.9747138
5.6042871
6.0593386
6.1153097
5.8631578
5.4323096
4.5664361
2.49141
1.0046009
3736625.1
603731.8
185352.14
78629.03
40010.229
22789.122
13995.617
9065.0058
6106.4268
4238.3304
3011.3403
2179.8807
1602.0818
1192.1915
896.39987
679.8634
519.41125
399.27991
308.53253
239.45065
186.50555
145.68515
114.04445
89.39999
70.11885
54.971046
43.025153
33.573938
26.080986
20.141733
15.453437
11.789157
8.9724636
6.8540465
5.2964993
4.1719869
3.3687068
2.7970304
2.3903981
2.1019547
1.8997625
1.7624499
1.6770799
1.6354598
1.6279861
1.6534581
1.71307
1.8098896
1.951294
2.1503615
2.4141485
2.7414704
3.1643083
3.735928
4.4915948
5.3966776
6.3103173
6.9381154
6.8487746
6.544235
5.7988972
4.5327679
2.3515219
1.077733
0.50565582
3736662.3
603737.8
185353.99
78629.824
40010.647
22789.377
13995.793
9065.1401
6106.5401
4238.4341
3011.4416
2179.9842
1602.1909
1192.3089
896.52754
680.00306
519.5644
399.44785
308.71641
239.65145
186.72409
145.922
114.29991
89.673965
70.410741
55.279512
43.34781
33.906939
26.418515
20.475578
15.773026
12.082662
9.2292779
7.0678663
5.4670644
4.3042243
3.4701754
2.875536
2.4527256
2.1535797
1.9450659
1.8050973
1.7208731
1.6836952
1.6838803
1.7231316
1.8037718
1.9324721
2.1221768
2.3879236
2.7292284
3.1715582
3.7853002
4.6447958
5.762373
6.9817896
7.6575564
7.5219101
7.0168582
5.7643083
3.6643393
1.9115996
0.97298977
0.52536055
0.31133334
3736699.8
603743.93
185355.88
78630.642
40011.078
22789.638
13995.972
9065.2766
6106.6545
4238.5381
3011.5427
2180.0872
1602.2992
1192.4252
896.65398
680.14143
519.71627
399.61464
308.89938
239.85174
186.94268
146.15969
114.55723
89.951137
70.707476
55.594832
43.679724
34.252005
26.771297
20.828125
16.114736
12.401124
9.5125709
7.3078075
5.6615694
4.4571058
3.5887857
2.9681266
2.5268239
2.2154684
1.9999238
1.8574374
1.7753457
1.7437793
1.7556096
1.8141256
1.924936
2.1009149
2.3609002
2.7117181
3.1694865
3.812544
4.7521091
6.063451
7.6250542
8.306236
8.1165838
7.3803217
5.4460733
2.7917078
1.5019643
0.83588716
0.4897603
0.32726371
0.23391894
3736738.4
603750.24
185357.84
78631.488
40011.523
22789.907
13996.154
9065.414
6106.7683
4238.6406
3011.6412
2180.1868
1602.4036
1192.5369
896.77521
680.27405
519.86191
399.7748
309.07542
240.04494
187.15419
146.39053
114.80824
90.222842
71.000007
55.907684
44.011453
34.599784
27.130341
21.191094
16.471422
12.73898
9.8186967
7.5721776
5.8799379
4.6316169
3.726071
3.076563
2.6145558
2.2895954
2.0665002
1.9221285
1.843641
1.8205257
1.8495146
1.936086
2.0918968
2.3402762
2.6944188
3.1650361
3.830347
4.8315633
6.3089438
8.2177016
8.9470803
8.7011273
7.7395499
5.2377576
2.5407458
1.3246405
0.75333627
0.47409881
0.32225545
0.25026415
0.19897416
3736780.4
603757.01
185359.9
78632.371
40011.983
22790.183
13996.34
9065.5514
6106.88
4238.7393
3011.7346
2180.2801
1602.5004
1192.6399
896.88668
680.39584
519.99569
399.9221
309.2377
240.22358
187.35053
146.60581
115.04357
90.479151
71.277878
56.20718
44.331811
34.938978
27.484505
21.553862
16.833442
13.088115
10.141576
7.8572051
6.1205483
4.8277763
3.8830989
3.2025236
2.7180012
2.3784347
2.1478217
2.0029417
1.9306511
1.9211963
1.9761015
2.1053357
2.3312753
2.6851801
3.166767
3.8506093
4.9053883
6.5351282
8.781513
9.5969281
9.3127626
8.1995305
5.2689172
2.5087492
1.2884828
0.73872852
0.4729021
0.33648816
0.25322252
0.21444765
0.17135142
3736824.8
603764.03
185362.04
78633.287
40012.459
22790.465
13996.526
9065.6869
6106.9876
4238.832
3011.8204
2180.3642
1602.5864
1192.7307
896.98429
680.50216
520.11238
400.0507
309.37972
240.38049
187.52378
146.79684
115.2538
90.709864
71.530161
56.481727
44.628642
35.257031
27.821058
21.903848
17.188825
13.43779
10.472378
8.1564612
6.3795352
5.0440018
4.0600096
3.3473481
2.8394074
2.4851257
2.2482018
2.1055937
2.0441422
2.0577733
2.1535985
2.3513502
2.6911066
3.1884087
3.8896459
4.9929436
6.7733998
9.3601657
10.271454
9.9619707
8.7481443
5.516915
2.5974942
1.3254623
0.76027961
0.49379785
0.35247677
0.27343696
0.2191773
0.18328998
0.15320913
3736869.6
603771.21
185364.25
78634.232
40012.946
22790.752
13996.713
9065.819
6107.0894
4238.9168
3011.8963
2180.4365
1602.6587
1192.8057
897.0641
680.58857
520.20698
400.155
309.4952
240.50864
187.66615
146.95503
115.42945
90.904632
71.745614
56.719201
44.888996
35.540261
28.125759
22.226519
17.52315
13.774224
10.798689
8.4599418
6.6499447
5.2763575
4.2554255
3.5116851
2.981119
2.6137071
2.3737643
2.2388751
2.1982533
2.2511137
2.4155272
2.7312943
3.2528753
3.9786985
5.1257888
7.0543884
9.9816192
10.9841
10.65434
9.3639203
5.9024563
2.7683106
1.4073593
0.80726251
0.526431
0.38098982
0.29337217
0.23278915
0.18599001
0.16216056
0.13803824
3736913.9
603778.53
185366.52
78635.195
40013.443
22791.041
13996.897
9065.946
6107.1833
4238.9914
3011.9597
2180.494
1602.7138
1192.861
897.1217
680.65009
520.27392
400.22876
309.57719
240.60034
187.76913
147.07099
115.56022
91.052162
71.911925
56.906257
45.098494
35.7733
28.382341
22.504892
17.819065
14.080395
11.104944
8.7543492
6.9214632
5.517941
4.4658486
3.6951589
3.1456814
2.7698054
2.5338772
2.4183525
2.417904
2.5391652
2.8290271
3.35884
4.1571278
5.3613599
7.425193
10.680711
11.746146
11.395754
10.036331
6.3789189
2.9956699
1.5222777
0.87283327
0.57002215
0.41480917
0.31789907
0.24495958
0.19736807
0.16525976
0.14770053
0.12743419
3736961
603786.18
185368.87
78636.194
40013.954
22791.335
13997.08
9066.0677
6107.2688
4239.0547
3012.0092
2180.5348
1602.7496
1192.8943
897.15424
680.68344
520.3094
400.26764
309.62075
240.64994
187.82629
147.13743
115.63788
91.143228
72.018801
57.031486
45.2446
35.942501
28.576113
22.72337
18.060312
14.339685
11.374427
9.0237786
7.1804144
5.7586418
4.6854423
3.896489
3.3366845
2.9627563
2.7457233
2.6730814
2.7463118
3.0019242
3.5327005
4.4185966
5.7388541
7.968764
11.477144
12.567676
12.192616
10.76158
6.9233775
3.2663069
1.663495
0.95445975
0.62365179
0.45444862
0.34384869
0.26230533
0.20954805
0.17627305
0.15108314
0.13450256
0.11901362
3737011.6
603794.24
185371.33
78637.232
40014.48
22791.632
13997.261
9066.1829
6107.3443
4239.1049
3012.0426
2180.5567
1602.7634
1192.9022
897.15803
680.68439
520.30863
400.26618
309.61964
240.65037
187.82962
147.1453
115.65227
91.166508
72.053763
57.081321
45.312773
36.032448
28.690627
22.864354
18.228149
14.532454
11.587386
9.2496169
7.4106626
5.9861532
4.9071017
4.1150216
3.5614092
3.2102792
3.0422378
3.0583785
3.2768114
3.8071329
4.7847296
6.2653502
8.6927678
12.360098
13.454192
13.04866
11.538186
7.5230014
3.5749657
1.8280234
1.0505577
0.68729386
0.49966645
0.37312184
0.28370415
0.22756578
0.18816412
0.15969091
0.13728721
0.12615511
0.11212146
3737062.3
603802.44
185373.84
78638.295
40015.016
22791.932
13997.438
9066.2902
6107.4086
4239.1407
3012.0586
2180.558
1602.7533
1192.8829
897.13102
680.65076
520.26926
400.22188
309.57127
240.59889
187.77621
147.09139
115.59965
91.117372
72.010756
57.047577
45.29195
36.028805
28.709284
22.910203
18.304885
14.641326
11.72655
9.4151784
7.5974345
6.1896839
5.1265062
4.35584
3.8382801
3.5505065
3.4927732
3.6799431
4.2172704
5.2878933
6.956099
9.6019288
13.342141
14.408554
13.966248
12.365179
8.1734499
3.9199483
2.0162379
1.1609299
0.76047308
0.5488141
0.40576418
0.30914073
0.24814078
0.20218983
0.16759521
0.14491499
0.12893924
0.11818157
0.10686606
3737113.2
603810.79
185376.42
78639.384
40015.562
22792.232
13997.611
9066.3894
6107.4611
4239.1616
3012.0563
2180.5378
1602.7183
1192.8351
897.07169
680.5808
520.18932
400.13255
309.4732
240.49287
187.6633
146.97299
115.47761
90.994062
71.889135
56.931228
45.185053
35.936012
28.635381
22.860263
18.284234
14.65583
11.781545
9.5115771
7.7345108
6.3682795
5.3520368
4.6425484
4.2151077
4.0705095
4.2303503
4.7901342
5.9728888
7.8432205
10.69143
14.419549
15.4354
14.94924
13.242294
8.8697668
4.3041144
2.2290329
1.2872994
0.84354951
0.60389359
0.44326755
0.33971658
0.27143684
0.2182795
0.17922431
0.15401707
0.135913
0.12109394
0.1123555
0.10255191
3737167.7
603819.61
185379.11
78640.512
40016.123
22792.537
13997.781
9066.4808
6107.5021
4239.1673
3012.0356
2180.4958
1602.658
1192.7585
896.97983
680.47436
520.06876
399.99827
309.32566
240.33272
187.49148
146.79087
115.28707
90.797635
71.690086
56.733636
44.993844
35.756929
28.474878
22.725335
18.182125
14.593497
11.765832
9.5513554
7.8379291
6.546809
5.6249993
5.0445753
4.808311
4.9481902
5.5515417
6.8689814
8.9605368
11.953546
15.589029
16.538423
16.001302
14.169346
9.6026073
4.7300114
2.4717221
1.4304191
0.93843299
0.66516049
0.48651682
0.37408949
0.29721853
0.23628533
0.19374835
0.1650569
0.14270226
0.12662174
0.11472403
0.10752842
0.098928956
3737225.4
603828.82
185381.93
78641.689
40016.705
22792.849
13997.95
9066.5661
6107.5331
4239.1598
3011.9986
2180.4344
1602.5754
1192.6564
896.85926
680.33585
519.91265
399.82483
309.13525
240.12593
187.26923
146.55456
115.0387
90.539977
71.426781
56.469339
44.734317
35.509099
28.246838
22.526285
18.022265
14.483888
11.718413
9.5792182
7.9638142
6.8012998
6.0546515
5.7256489
5.8556691
6.5269556
8.0018585
10.319631
13.387547
16.853177
17.722222
17.127207
15.14995
10.358959
5.2080572
2.7493053
1.5977857
1.0452611
0.73360376
0.5351877
0.41272893
0.32507856
0.25732738
0.210671
0.17779463
0.15119277
0.13317396
0.12014199
0.11031118
0.10345132
0.095980744
3737283.9
603838.25
185384.82
78642.904
40017.303
22793.167
13998.12
9066.6487
6107.5582
4239.1439
3011.951
2180.3605
1602.4783
1192.5377
896.72011
680.17677
519.73397
399.62685
308.91838
239.89082
187.01694
146.28668
114.75752
90.248646
71.129489
56.171491
44.442706
35.23207
27.994433
22.310393
17.856844
14.385194
11.705802
9.686194
8.2330285
7.2945252
6.865905
6.989629
7.734274
9.3792894
11.910094
15.010841
18.231615
18.993778
18.333159
16.188476
11.136456
5.7639502
3.08892
1.7935488
1.160214
0.8071539
0.59054346
0.45561443
0.35653678
0.28175068
0.23098801
0.19223449
0.16206743
0.14140802
0.12621807
0.11471813
0.10569317
0.099985497
0.093552619
3737344.3
603848.04
185387.81
78644.161
40017.922
22793.497
13998.297
9066.7344
6107.5848
4239.1284
3011.9029
2180.2856
1602.3797
1192.4176
896.57952
680.01648
519.55453
399.42878
308.70236
239.65783
186.76841
146.02465
114.48484
89.969121
70.84815
55.894818
44.178911
34.991427
27.789623
22.156749
17.773576
14.401302
11.865934
10.044372
8.8652441
8.3112136
8.4169981
9.2220272
11.001442
13.715166
16.860177
19.765901
20.361801
19.625958
17.289988
11.935144
6.3875863
3.4549224
1.9840668
1.2676583
0.88650452
0.6557076
0.50520452
0.39182996
0.31015583
0.25327972
0.2085041
0.17429841
0.15125395
0.13303967
0.11971149
0.10963414
0.10255618
0.097421926
0.091543538
3737407.1
603858.19
185390.93
78645.466
40018.568
22793.845
13998.488
9066.8331
6107.6242
4239.1263
3011.8696
2180.2271
1602.2998
1192.3186
896.46316
679.88386
519.40664
399.26667
308.52727
239.47134
186.57263
145.82239
114.27979
89.766129
70.65344
55.716272
44.026434
34.87827
27.733961
22.184823
17.923488
14.72173
12.419673
10.919605
10.184381
10.233074
11.057896
12.91258
15.70394
18.961512
21.523261
21.843593
21.0071
18.454408
12.757915
7.0605646
3.842032
2.1859951
1.4004407
0.99510684
0.74028938
0.56143883
0.43061856
0.34134098
0.27823853
0.22701934
0.18963617
0.1627906
0.14175517
0.12595242
0.11478977
0.10629954
0.099624162
0.094696598
0.089790623
3737471.9
603868.67
185394.16
78646.824
40019.248
22794.218
13998.702
9066.9557
6107.6891
4239.1525
3011.8681
2180.2046
1602.2608
1192.2661
896.39944
679.81079
519.32597
399.18019
308.43703
239.37982
186.48287
145.73829
114.20636
89.709934
70.62326
55.724127
44.089075
35.017847
27.98009
22.577143
18.514594
15.58225
13.645434
12.637117
12.561242
13.336912
15.181448
17.988268
21.198747
23.572933
23.491359
22.481753
19.639351
13.624446
7.7800895
4.2571728
2.4136182
1.5564531
1.1138113
0.81923116
0.61219974
0.4697901
0.37680467
0.30663923
0.24923994
0.20736309
0.17620215
0.15132534
0.13370188
0.12043653
0.11052444
0.10254738
0.097023221
0.092963531
0.088573275
3737539.4
603879.61
185397.5
78648.244
40019.967
22794.624
13998.947
9067.1107
6107.7898
4239.2188
3011.9121
2180.2341
1602.2811
1192.2811
896.41224
679.82437
519.3432
399.20417
308.47128
239.42853
186.5512
145.83268
114.33501
89.88338
70.85513
56.032218
44.496856
35.557243
28.694448
23.523654
19.768723
17.243709
15.84309
15.524924
16.178877
17.905109
20.620293
23.76194
25.798588
25.391164
24.090469
20.773728
14.541405
8.5436154
4.7003094
2.6641161
1.7279078
1.2359733
0.90458496
0.67852696
0.52879565
0.42371075
0.34047387
0.27431687
0.22751683
0.19111781
0.16306105
0.14277976
0.12758955
0.11542722
0.1066602
0.10017007
0.095202453
0.09109844
0.087300775
3737610.3
603891
185400.99
78649.73
40020.728
22795.065
13999.227
9067.3023
6107.9311
4239.3313
3012.009
2180.324
1602.3705
1192.3752
896.51548
679.94107
519.47784
399.36167
308.65726
239.64965
186.8155
146.15008
114.71794
90.347703
71.421427
56.727742
45.357333
36.629279
30.03852
25.21825
21.91356
19.961241
19.271576
19.705651
21.183555
23.684761
26.612127
28.226644
27.633235
25.88974
21.918438
15.521105
9.3483659
5.1660882
2.9395439
1.9150205
1.3701148
1.0043335
0.76094094
0.59204459
0.46633333
0.36874538
0.29970564
0.24983313
0.20901315
0.17720614
0.15390653
0.13563955
0.12180771
0.11138867
0.10391202
0.097608979
0.093074537
0.089686982
0.086487955
3737682.9
603902.72
185404.61
78651.275
40021.529
22795.538
13999.538
9067.5267
6108.109
4239.4855
3012.1539
2180.4696
1602.5245
1192.5441
896.70544
680.15829
519.72897
399.65419
308.99986
240.05265
187.29143
146.71439
115.38995
91.152139
72.389491
57.898967
46.782101
38.371358
32.177636
27.851668
25.153819
23.925731
24.030257
25.092361
27.26857
29.787536
30.826829
29.954259
27.793436
23.148182
16.554075
10.164285
5.6449279
3.2371004
2.1199513
1.5175749
1.1180548
0.85060462
0.65845834
0.51320821
0.40969375
0.33718521
0.28071061
0.2310795
0.19404909
0.16643966
0.14507822
0.12908691
0.11728338
0.10790407
0.10093862
0.095599508
0.091856135
0.088552294
0.085615123
3737758.4
603914.96
185408.37
78652.885
40022.37
22796.044
13999.881
9067.7853
6108.3249
4239.6832
3012.3493
2180.6743
1602.7478
1192.7945
896.99117
680.48803
520.11236
400.10228
309.52564
240.67167
188.02256
147.58088
116.42048
92.382057
73.862892
59.670268
48.917957
40.951868
35.295032
31.603871
29.628505
29.172207
29.786572
31.331105
33.383518
33.542057
32.397389
29.664214
24.413204
17.571515
10.941827
6.1357973
3.5642705
2.3493065
1.6831386
1.2444422
0.94987487
0.73322053
0.57345363
0.4594117
0.37596939
0.30618012
0.25133611
0.2111496
0.18084261
0.15649953
0.1382333
0.12431251
0.1132997
0.10489094
0.098951824
0.094025492
0.090278561
0.087344022
0.084958283
3737836.4
603927.56
185412.25
78654.564
40023.262
22796.596
14000.271
9068.0958
6108.5999
4239.9493
3012.6242
2180.9715
1603.0787
1193.1699
897.42206
680.9863
520.69141
400.77766
310.31574
241.59853
189.11288
148.86704
117.94199
94.186787
76.008317
62.224135
51.957137
44.5588
39.546008
36.546999
35.248054
35.317837
36.109863
37.01422
36.349718
34.802
31.382038
25.635174
18.541446
11.695537
6.6775112
3.9497606
2.6140924
1.8650589
1.3826952
1.0584977
0.81988508
0.64299035
0.51424338
0.41444856
0.33752296
0.28044468
0.23803041
0.20060529
0.17124552
0.14911135
0.13231971
0.11942953
0.10970386
0.10236475
0.09677944
0.092275198
0.08924422
0.086709391
0.084386544
3737916.9
603940.59
185416.29
78656.333
40024.226
22797.217
14000.734
9068.4882
6108.9688
4240.3236
3013.0243
2181.4133
1603.5763
1193.737
898.07311
681.73714
521.56013
401.78537
311.48748
242.96436
190.70905
150.73732
120.13904
96.772574
79.044571
65.763083
56.069684
49.296487
44.917092
42.475023
41.524336
41.42299
40.992388
39.54232
37.176552
33.108571
26.898209
19.510181
12.475548
7.2983186
4.3946675
2.8982503
2.0527021
1.5300432
1.1812121
0.91901485
0.72315736
0.57506137
0.4619581
0.37704734
0.315315
0.26274176
0.21857545
0.18491813
0.16078658
0.14167622
0.12698894
0.11587819
0.10694393
0.10017324
0.095196041
0.091300022
0.088223551
0.085716321
0.083805004
3738001.3
603954.26
185420.54
78658.216
40025.28
22797.925
14001.29
9068.9864
6109.4597
4240.8392
3013.5874
2182.0431
1604.2901
1194.5522
899.00838
682.81324
522.80097
403.21903
313.14744
244.89087
192.95003
153.34753
123.17682
100.29156
83.090298
70.370799
61.241862
55.004157
51.05198
48.755259
47.231152
45.368437
42.865828
39.752253
34.877486
28.127796
20.440691
13.2742
7.9791088
4.8755488
3.1971693
2.2590359
1.7022208
1.3253438
1.0339146
0.81264521
0.64596333
0.51803532
0.42342857
0.34962241
0.28981872
0.24194007
0.20752727
0.17803732
0.15492219
0.13666008
0.1229478
0.11234108
0.10410056
0.098257498
0.093670993
0.089846521
0.087276994
0.085279529
0.083444769
3738088.5
603968.42
185424.98
78660.214
40026.428
22798.731
14001.957
9069.6104
6110.0959
4241.5228
3014.3447
2182.8961
1605.2598
1195.66
900.2774
684.26942
524.47395
405.14291
315.3611
247.43748
195.87607
156.70206
127.00886
104.64708
88.005022
75.828795
67.136408
61.078821
56.812003
53.376985
50.043125
46.586821
42.467373
36.689434
29.39212
21.46222
14.210121
8.7824117
5.4368806
3.551462
2.5096615
1.9030905
1.4832953
1.1571948
0.91214034
0.72680006
0.58500003
0.47515437
0.39007704
0.32278004
0.27297451
0.23094818
0.19507174
0.16640697
0.14646634
0.13077372
0.1186862
0.10950167
0.10212823
0.096677075
0.092289246
0.089130698
0.086702386
0.084560745
0.082947163
3738178.6
603983.09
185429.6
78662.325
40027.677
22799.641
14002.739
9070.3669
6110.8846
4242.3822
3015.304
2183.9806
1606.4936
1197.0677
901.88516
686.10559
526.56958
407.53167
318.07861
250.51965
199.35561
160.60173
131.33185
109.36394
93.039618
81.061263
72.258577
65.605316
60.20501
55.397236
50.749782
45.405281
38.700962
30.864666
22.693679
15.315186
9.6874001
6.0524065
3.9407368
2.7816801
2.1114682
1.6473095
1.2946864
1.0304951
0.82477449
0.66270687
0.53671857
0.43759406
0.36317279
0.30449366
0.2560448
0.21481625
0.18555493
0.16141168
0.14280598
0.12742797
0.11586927
0.10701301
0.099972026
0.095162128
0.091258882
0.088122413
0.085838999
0.084173134
0.082720888
3738271.2
603998.25
185434.4
78664.553
40029.027
22800.652
14003.632
9071.2483
6111.8154
4243.4033
3016.4468
2185.2723
1607.9602
1198.7354
903.78124
688.25882
529.00961
410.28778
321.17706
253.97918
203.18016
164.76971
135.7813
113.97331
97.603318
85.268482
75.798183
68.204364
61.670166
55.512612
48.764883
41.069087
32.645266
24.174352
16.595972
10.712645
6.7694488
4.4192578
3.1182664
2.361916
1.8462549
1.4641088
1.1717667
0.93623422
0.74982509
0.60621591
0.49530738
0.40836688
0.34084416
0.28502006
0.24264618
0.20728259
0.1776575
0.1529375
0.13618686
0.12262257
0.11243807
0.10470359
0.098439346
0.09398882
0.090109162
0.087441591
0.085468267
0.083752087
0.082310724
3738367.1
604011.16
185437.03
78665.061
40029.117
22800.732
14003.827
9071.6053
6112.3567
4244.1434
3017.3989
2186.4504
1609.38
1200.4142
905.73797
690.51261
531.57802
413.18362
324.40362
257.52327
207.0029
168.79516
139.8844
117.96996
101.2481
88.268137
77.84086
69.06044
60.943427
52.645827
43.888843
34.821304
25.983919
18.137337
11.94635
7.6576246
5.0157129
3.5129501
2.6346955
2.0573657
1.6421521
1.3195158
1.0568733
0.85084673
0.69089071
0.56432526
0.46371425
0.38295346
0.32143265
0.27193459
0.23116908
0.19509713
0.16956991
0.14907317
0.13349346
0.12040042
0.11046397
0.10296379
0.096838479
0.092785583
0.089326757
0.086769493
0.084798394
0.083284506
0.08212696
3739014.3
604121.84
185474.35
78682.815
40039.274
22807.328
14008.546
9075.2635
6115.3965
4246.8267
3019.8932
2188.8702
1611.808
1202.913
908.35546
693.2845
534.52743
416.31837
327.71123
260.964
210.50133
172.23199
143.09121
120.73147
103.31621
89.418087
77.783896
67.270853
57.180708
47.184456
37.328635
28.003325
19.803083
13.264645
8.6133747
5.6549237
3.9277703
2.924632
2.2925451
1.8463836
1.4937032
1.2046193
0.97495452
0.79077837
0.64212795
0.52487634
0.43317519
0.36090807
0.3049028
0.25693825
0.22000535
0.18932627
0.16430039
0.14259564
0.12822515
0.11635678
0.10754658
0.1009859
0.095540329
0.091839982
0.088382758
0.086122215
0.084502597
0.083034388
0.081919512
3739013.7
604118.86
185471.98
78681.122
40038.187
22806.691
14008.256
9075.2619
6115.649
4247.3157
3020.611
2189.8155
1612.9828
1204.3203
909.99593
695.15323
536.609
418.58091
330.09942
263.39155
212.8444
174.32592
144.73548
121.71211
103.35999
88.109069
74.804222
62.647052
51.195356
40.369039
30.408031
21.744305
14.796448
9.7477024
6.4364249
4.4488474
3.2897178
2.5746118
2.0747117
1.6810644
1.361808
1.1051152
0.89579995
0.72822968
0.59705814
0.49332972
0.40990158
0.34200019
0.28974393
0.24663142
0.21152718
0.1795409
0.15708215
0.1393219
0.12608976
0.11469795
0.10606898
0.099671536
0.094249108
0.090829672
0.087742341
0.085717157
0.083926662
0.082609953
0.081729082
3739013.8
604119.01
185472.13
78681.341
40038.473
22807.049
14008.696
9075.7908
6116.2768
4248.0516
3021.4643
2190.7942
1614.0927
1205.5627
911.36531
696.63333
538.16841
420.16788
331.63662
264.77235
213.93398
174.95555
144.6863
120.68247
101.08815
84.501595
69.92361
56.739303
44.701229
33.877466
24.537373
16.978132
11.346215
7.5197996
5.1421983
3.7371765
2.8904634
2.323582
1.894389
1.5503983
1.2676866
1.0326983
0.84255295
0.6900319
0.56626613
0.46694846
0.38815532
0.32567551
0.27756662
0.23537398
0.2027536
0.17533071
0.15372583
0.13451674
0.12197493
0.11149216
0.1036785
0.098055269
0.093201286
0.090093041
0.086989861
0.085116487
0.08370992
0.08244358
0.08160458
3739014
604119.11
185472.23
78681.46
40038.629
22807.248
14008.942
9076.0915
6116.6377
4248.4784
3021.9615
2191.364
1614.7334
1206.2666
912.11557
697.40084
538.90809
420.8141
332.09773
264.92435
213.60929
173.95402
142.81376
117.81196
97.165166
79.582349
64.208159
50.579454
38.564111
28.25871
19.843933
13.425755
8.922038
6.0327415
4.3020937
3.2831183
2.633658
2.1588255
1.7764745
1.4558291
1.1878106
0.96910227
0.79122454
0.64780799
0.5342958
0.44438077
0.37181442
0.31244346
0.26680331
0.22806475
0.19699701
0.16821106
0.14815722
0.13214598
0.12050392
0.11035136
0.1026702
0.097171677
0.09229882
0.089311645
0.086516579
0.084878428
0.083328822
0.082144201
0.081429705
3739014.9
604119.21
185472.25
78681.472
40038.646
22807.275
14008.982
9076.1479
6116.7134
4248.5753
3022.0797
2191.5002
1614.8794
1206.4066
912.22329
697.4355
538.80946
420.49912
331.45996
263.83766
211.942
171.58375
139.64504
113.80442
92.365216
74.148391
58.41695
44.801527
33.204027
23.671553
16.254967
10.885904
7.3093268
5.1061611
3.8072336
3.0093818
2.4556438
2.0235715
1.6669447
1.3707216
1.1254304
0.92193131
0.75616829
0.62270794
0.51420641
0.42655448