/*--------------------------------*- C++ -*----------------------------------*\
  =========                 |
  \\      /  F ield         | OpenFOAM: The Open Source CFD Toolbox
   \\    /   O peration     | Website:  https://openfoam.org
    \\  /    A nd           | Version:  13
     \\/     M anipulation  |
\*---------------------------------------------------------------------------*/
FoamFile
{
    format      ascii;
    class       volScalarField;
    location    "30.501039";
    object      pPrime2Mean;
}
// * * * * * * * * * * * * * * * * * * * * * * * * * * * * * * * * * * * * * //

dimensions      [0 4 -4 0 0 0 0];

internalField   nonuniform List<scalar> 
17140
(
10169.597
10169.597
10169.598
10169.597
10169.597
10169.596
10169.595
10169.593
10169.591
10169.588
10169.584
10169.578
10169.572
10169.563
10169.552
10169.537
10169.519
10169.496
10169.466
10169.428
10169.379
10169.316
10169.236
10169.133
10169.002
10168.833
10168.617
10168.341
10167.99
10167.547
10166.987
10166.284
10165.402
10164.301
10162.93
10161.23
10159.129
10156.545
10153.382
10149.531
10144.865
10139.245
10132.51
10124.481
10114.959
10103.723
10090.528
10075.108
10057.171
10036.399
10012.45
9984.9509
9953.5001
9917.6648
9876.9781
9830.9375
9778.9987
9720.5764
9655.0303
9581.6814
9499.771
9408.5146
9306.994
9194.31
9069.3837
10169.852
10169.852
10169.852
10169.852
10169.852
10169.851
10169.85
10169.848
10169.846
10169.842
10169.838
10169.833
10169.826
10169.817
10169.806
10169.791
10169.772
10169.749
10169.718
10169.68
10169.63
10169.567
10169.486
10169.382
10169.25
10169.08
10168.863
10168.588
10168.238
10167.795
10167.236
10166.533
10165.653
10164.554
10163.184
10161.486
10159.387
10156.805
10153.644
10149.795
10145.133
10139.515
10132.784
10124.761
10115.244
10104.014
10090.826
10075.413
10057.485
10036.723
10012.784
9985.2973
9953.8606
9918.0415
9877.3733
9831.3537
9779.4386
9721.0431
9655.5271
9582.2123
9500.3402
9409.1269
9307.6545
9195.0247
9070.1508
10170.483
10170.483
10170.483
10170.483
10170.483
10170.482
10170.48
10170.479
10170.476
10170.473
10170.468
10170.463
10170.455
10170.446
10170.434
10170.419
10170.399
10170.374
10170.343
10170.303
10170.252
10170.188
10170.105
10170
10169.866
10169.696
10169.479
10169.203
10168.853
10168.412
10167.855
10167.155
10166.277
10165.181
10163.815
10162.119
10160.024
10157.446
10154.29
10150.446
10145.791
10140.182
10133.461
10125.448
10115.945
10104.73
10091.559
10076.165
10058.256
10037.517
10013.606
9986.1493
9954.7478
9918.9688
9878.3462
9832.3785
9780.5221
9722.1927
9656.7509
9583.519
9501.7398
9410.6302
9309.2732
9196.7731
9072.0275
10171.504
10171.504
10171.504
10171.504
10171.503
10171.502
10171.501
10171.499
10171.496
10171.492
10171.488
10171.481
10171.474
10171.464
10171.451
10171.435
10171.414
10171.388
10171.356
10171.314
10171.262
10171.196
10171.112
10171.006
10170.871
10170.699
10170.482
10170.207
10169.859
10169.419
10168.865
10168.168
10167.294
10166.201
10164.839
10163.148
10161.058
10158.487
10155.338
10151.504
10146.859
10141.263
10134.558
10126.563
10117.081
10105.89
10092.746
10077.381
10059.506
10038.806
10014.937
9987.5309
9956.1868
9920.4734
9879.9256
9834.0428
9782.2822
9724.0606
9658.7395
9585.6424
9504.0135
9413.071
9311.9002
9199.6095
9075.0712
10172.929
10172.929
10172.929
10172.929
10172.928
10172.927
10172.925
10172.923
10172.92
10172.916
10172.911
10172.904
10172.896
10172.885
10172.872
10172.855
10172.834
10172.807
10172.773
10172.731
10172.677
10172.61
10172.525
10172.418
10172.282
10172.111
10171.895
10171.621
10171.274
10170.837
10170.286
10169.592
10168.722
10167.633
10166.276
10164.591
10162.508
10159.945
10156.807
10152.985
10148.356
10142.778
10136.094
10128.125
10118.672
10107.514
10094.407
10079.084
10061.255
10040.608
10016.801
9989.4652
9958.2022
9922.5816
9882.1393
9836.3761
9784.7504
9726.6804
9661.529
9588.621
9507.2029
9416.4948
9315.5852
9203.588
9079.3417
10174.772
10174.772
10174.772
10174.772
10174.771
10174.77
10174.768
10174.766
10174.762
10174.758
10174.753
10174.746
10174.738
10174.727
10174.713
10174.696
10174.674
10174.647
10174.612
10174.569
10174.516
10174.448
10174.363
10174.256
10174.121
10173.95
10173.735
10173.463
10173.119
10172.684
10172.136
10171.446
10170.58
10169.496
10168.144
10166.466
10164.392
10161.84
10158.715
10154.909
10150.299
10144.745
10138.089
10130.153
10120.737
10109.621
10096.561
10081.292
10063.524
10042.946
10019.219
9991.9765
9960.8197
9925.3203
9885.016
9839.4091
9787.9595
9730.0871
9665.1566
9592.495
9511.3514
9420.9481
9320.3782
9208.7637
9084.9001
10177.053
10177.053
10177.053
10177.052
10177.052
10177.05
10177.048
10177.046
10177.043
10177.039
10177.033
10177.026
10177.018
10177.007
10176.993
10176.976
10176.954
10176.927
10176.893
10176.85
10176.797
10176.73
10176.645
10176.539
10176.405
10176.236
10176.023
10175.753
10175.411
10174.98
10174.435
10173.748
10172.886
10171.807
10170.462
10168.793
10166.729
10164.189
10161.08
10157.295
10152.709
10147.183
10140.562
10132.665
10123.296
10112.231
10099.229
10084.026
10066.334
10045.844
10022.217
9995.09
9964.0657
9928.7176
9888.5853
9843.1728
9791.9423
9734.3155
9669.6598
9597.3046
9516.5022
9426.4778
9326.331
9215.1931
9091.8099
10179.793
10179.793
10179.793
10179.792
10179.791
10179.79
10179.788
10179.786
10179.783
10179.779
10179.773
10179.767
10179.758
10179.747
10179.734
10179.717
10179.696
10179.669
10179.636
10179.594
10179.542
10179.476
10179.394
10179.289
10179.157
10178.991
10178.78
10178.512
10178.173
10177.744
10177.202
10176.519
10175.661
10174.588
10173.25
10171.59
10169.538
10167.013
10163.924
10160.161
10155.604
10150.113
10143.532
10135.683
10126.367
10115.364
10102.432
10087.309
10069.709
10049.324
10025.819
9998.8316
9967.9676
9932.8024
9892.8775
9847.6995
9796.7328
9739.4021
9675.0776
9603.0917
9522.7007
9433.133
9333.4965
9222.934
9100.1341
10183.018
10183.018
10183.018
10183.017
10183.017
10183.015
10183.013
10183.011
10183.008
10183.004
10182.999
10182.992
10182.984
10182.974
10182.961
10182.945
10182.924
10182.899
10182.867
10182.827
10182.776
10182.712
10182.631
10182.529
10182.399
10182.235
10182.026
10181.761
10181.425
10180.998
10180.459
10179.779
10178.926
10177.858
10176.528
10174.878
10172.84
10170.333
10167.265
10163.529
10159.005
10153.553
10147.019
10139.224
10129.971
10119.039
10106.19
10091.161
10073.67
10053.41
10030.05
10003.228
9972.5532
9937.6039
9897.9238
9853.0221
9802.3663
9745.3843
9681.45
9609.8987
9529.9917
9440.9621
9341.9278
9232.0458
9109.9397
10186.756
10186.756
10186.756
10186.755
10186.754
10186.753
10186.751
10186.749
10186.746
10186.742
10186.737
10186.731
10186.723
10186.713
10186.701
10186.685
10186.666
10186.641
10186.61
10186.571
10186.522
10186.46
10186.381
10186.281
10186.153
10185.991
10185.784
10185.521
10185.187
10184.762
10184.226
10183.55
10182.701
10181.64
10180.318
10178.68
10176.656
10174.168
10171.124
10167.419
10162.932
10157.525
10151.043
10143.31
10134.127
10123.278
10110.523
10095.605
10078.241
10058.127
10034.934
10008.304
9977.85
9943.1514
9903.7551
9859.1737
9808.8779
9752.2993
9688.8159
9617.7679
9538.4225
9450.0176
9351.683
9242.5918
9121.2935
10191.031
10191.031
10191.031
10191.03
10191.029
10191.028
10191.026
10191.024
10191.021
10191.017
10191.012
10191.006
10190.999
10190.989
10190.978
10190.963
10190.944
10190.92
10190.89
10190.852
10190.804
10190.743
10190.666
10190.567
10190.441
10190.28
10190.074
10189.813
10189.48
10189.058
10188.524
10187.851
10187.007
10185.953
10184.641
10183.015
10181.007
10178.54
10175.524
10171.852
10167.406
10162.049
10155.625
10147.96
10138.857
10128.101
10115.455
10100.662
10083.443
10063.496
10040.496
10014.088
9983.8863
9949.4748
9910.4033
9866.188
9816.3037
9760.1862
9697.2187
9626.7465
9548.0435
9460.3539
9362.8201
9254.6342
9134.2638
10195.866
10195.866
10195.865
10195.865
10195.864
10195.862
10195.861
10195.858
10195.855
10195.852
10195.847
10195.841
10195.834
10195.824
10195.813
10195.798
10195.779
10195.756
10195.726
10195.689
10195.642
10195.581
10195.504
10195.406
10195.281
10195.12
10194.916
10194.655
10194.323
10193.903
10193.372
10192.703
10191.865
10190.818
10189.516
10187.904
10185.914
10183.471
10180.484
10176.849
10172.448
10167.144
10160.785
10153.195
10144.181
10133.528
10121.004
10106.354
10089.299
10069.544
10046.763
10020.606
9990.6915
9956.6054
9917.9017
9874.1007
9824.6821
9769.0861
9706.7019
9636.8805
9558.9041
9472.0239
9375.3982
9268.237
9148.9188
10201.276
10201.276
10201.275
10201.275
10201.274
10201.272
10201.27
10201.268
10201.265
10201.261
10201.257
10201.251
10201.243
10201.234
10201.222
10201.207
10201.189
10201.165
10201.136
10201.098
10201.051
10200.99
10200.913
10200.815
10200.69
10200.53
10200.325
10200.065
10199.735
10199.317
10198.789
10198.125
10197.293
10196.255
10194.965
10193.367
10191.398
10188.98
10186.025
10182.43
10178.078
10172.833
10166.543
10159.036
10150.12
10139.584
10127.196
10112.705
10095.836
10076.295
10053.762
10027.888
9998.2956
9964.5746
9926.2836
9882.9476
9834.0506
9779.0389
9717.308
9648.2169
9571.0562
9485.086
9389.477
9283.4663
9165.3279
10207.275
10207.275
10207.274
10207.274
10207.272
10207.271
10207.269
10207.267
10207.264
10207.26
10207.255
10207.249
10207.241
10207.232
10207.22
10207.205
10207.186
10207.162
10207.132
10207.094
10207.046
10206.986
10206.908
10206.81
10206.684
10206.524
10206.32
10206.061
10205.732
10205.316
10204.792
10204.134
10203.31
10202.282
10201.005
10199.425
10197.478
10195.088
10192.169
10188.618
10184.318
10179.137
10172.922
10165.506
10156.698
10146.29
10134.054
10119.741
10103.08
10083.779
10061.522
10035.963
10006.73
9973.4152
9935.5836
9892.7646
9844.4485
9790.0868
9729.0838
9660.8056
9584.5539
9499.5947
9405.1186
9300.3868
9183.5594
10213.877
10213.877
10213.876
10213.876
10213.875
10213.873
10213.871
10213.869
10213.866
10213.862
10213.857
10213.85
10213.843
10213.833
10213.82
10213.805
10213.786
10213.762
10213.731
10213.693
10213.644
10213.583
10213.505
10213.406
10213.28
10213.12
10212.917
10212.659
10212.333
10211.921
10211.402
10210.751
10209.936
10208.92
10207.659
10206.098
10204.176
10201.817
10198.936
10195.432
10191.189
10186.077
10179.945
10172.628
10163.939
10153.673
10141.605
10127.489
10111.058
10092.023
10070.072
10044.863
10016.026
9983.161
9945.8373
9903.5902
9855.9156
9802.2733
9742.0752
9674.6971
9599.4492
9515.6091
9422.382
9319.0623
9203.6815
10221.099
10221.099
10221.099
10221.098
10221.097
10221.095
10221.094
10221.091
10221.088
10221.084
10221.079
10221.072
10221.064
10221.054
10221.042
10221.026
10221.007
10220.982
10220.951
10220.913
10220.864
10220.802
10220.724
10220.625
10220.499
10220.34
10220.138
10219.883
10219.56
10219.152
10218.64
10217.997
10217.192
10216.19
10214.946
10213.407
10211.512
10209.188
10206.349
10202.896
10198.715
10193.677
10187.635
10180.427
10171.869
10161.76
10149.877
10135.978
10119.8
10101.058
10079.443
10054.618
10026.217
9993.8464
9957.0811
9915.462
9868.4931
9815.6423
9756.3298
9689.9409
9615.7969
9533.184
9441.3271
9339.5559
9225.7609
10228.965
10228.964
10228.964
10228.963
10228.962
10228.961
10228.959
10228.956
10228.953
10228.949
10228.944
10228.937
10228.929
10228.919
10228.907
10228.891
10228.871
10228.846
10228.816
10228.777
10228.728
10228.666
10228.588
10228.489
10228.365
10228.207
10228.007
10227.754
10227.435
10227.033
10226.528
10225.894
10225.102
10224.115
10222.889
10221.375
10219.51
10217.223
10214.429
10211.032
10206.918
10201.961
10196.018
10188.929
10180.515
10170.576
10158.896
10145.235
10129.335
10110.914
10089.667
10065.26
10037.336
10005.506
9969.3512
9928.4193
9882.2233
9830.2378
9771.8948
9706.5876
9633.6486
9552.3753
9462.012
9361.93
9249.8635
10237.498
10237.498
10237.498
10237.497
10237.496
10237.494
10237.492
10237.49
10237.487
10237.483
10237.478
10237.471
10237.463
10237.453
10237.44
10237.425
10237.405
10237.38
10237.35
10237.311
10237.262
10237.201
10237.123
10237.026
10236.902
10236.746
10236.549
10236.3
10235.985
10235.589
10235.092
10234.468
10233.689
10232.718
10231.514
10230.025
10228.193
10225.946
10223.202
10219.864
10215.823
10210.955
10205.12
10198.161
10189.903
10180.151
10168.692
10155.291
10139.692
10121.62
10100.772
10076.823
10049.418
10018.176
9982.6849
9942.5021
9897.1464
9846.1051
9788.8171
9724.686
9653.0565
9573.2368
9484.4945
9386.2464
9276.0538
10246.725
10246.725
10246.725
10246.724
10246.723
10246.722
10246.72
10246.717
10246.714
10246.71
10246.705
10246.699
10246.691
10246.681
10246.669
10246.653
10246.634
10246.609
10246.579
10246.541
10246.492
10246.432
10246.356
10246.259
10246.138
10245.984
10245.79
10245.544
10245.235
10244.846
10244.357
10243.744
10242.978
10242.025
10240.843
10239.383
10237.585
10235.381
10232.69
10229.417
10225.455
10220.683
10214.965
10208.148
10200.06
10190.511
10179.291
10166.171
10150.9
10133.206
10112.791
10089.337
10062.494
10031.89
9997.1198
9957.7479
9913.3055
9863.2878
9807.1425
9744.285
9674.0699
9595.8218
9508.8316
9412.5652
9304.3951
10256.668
10256.668
10256.668
10256.667
10256.666
10256.665
10256.663
10256.661
10256.658
10256.654
10256.649
10256.643
10256.635
10256.625
10256.613
10256.598
10256.579
10256.555
10256.525
10256.488
10256.441
10256.381
10256.307
10256.212
10256.093
10255.942
10255.752
10255.511
10255.208
10254.826
10254.346
10253.745
10252.994
10252.06
10250.902
10249.471
10247.711
10245.553
10242.917
10239.714
10235.838
10231.171
10225.581
10218.917
10211.013
10201.683
10190.722
10177.905
10162.987
10145.701
10125.754
10102.834
10076.599
10046.683
10012.691
9974.1965
9930.742
9881.8287
9826.9168
9765.4297
9696.7386
9620.1827
9535.0785
9440.9453
9334.9484
10267.344
10267.344
10267.343
10267.343
10267.342
10267.341
10267.339
10267.337
10267.334
10267.33
10267.326
10267.32
10267.312
10267.303
10267.291
10267.277
10267.258
10267.235
10267.206
10267.17
10267.124
10267.067
10266.994
10266.902
10266.786
10266.64
10266.454
10266.219
10265.923
10265.55
10265.081
10264.493
10263.759
10262.846
10261.713
10260.314
10258.593
10256.484
10253.909
10250.78
10246.997
10242.443
10236.991
10230.493
10222.788
10213.694
10203.011
10190.521
10175.982
10159.134
10139.691
10117.345
10091.763
10062.588
10029.434
9991.8876
9949.4949
9901.7702
9848.1814
9788.1665
9721.111
9646.3707
9563.2892
9471.4438
9367.7722
10278.767
10278.767
10278.766
10278.766
10278.765
10278.764
10278.762
10278.76
10278.758
10278.754
10278.75
10278.744
10278.737
10278.728
10278.717
10278.703
10278.686
10278.664
10278.637
10278.602
10278.558
10278.503
10278.433
10278.345
10278.233
10278.091
10277.912
10277.685
10277.398
10277.035
10276.58
10276.008
10275.293
10274.403
10273.298
10271.934
10270.255
10268.198
10265.688
10262.639
10258.955
10254.524
10249.22
10242.901
10235.409
10226.568
10216.185
10204.045
10189.913
10173.534
10154.629
10132.899
10108.018
10079.638
10047.387
10010.856
9969.6035
9923.1508
9870.9791
9812.5398
9747.2346
9674.4359
9593.5161
9504.1155
9402.9218
10290.951
10290.951
10290.951
10290.951
10290.95
10290.949
10290.947
10290.945
10290.943
10290.94
10290.936
10290.931
10290.924
10290.916
10290.906
10290.893
10290.876
10290.856
10290.83
10290.798
10290.756
10290.704
10290.638
10290.554
10290.448
10290.312
10290.14
10289.922
10289.646
10289.297
10288.857
10288.304
10287.612
10286.748
10285.676
10284.35
10282.717
10280.717
10278.277
10275.315
10271.738
10267.437
10262.292
10256.165
10248.901
10240.333
10230.269
10218.504
10204.806
10188.928
10170.597
10149.523
10125.392
10097.867
10066.583
10031.138
9991.1036
9946.0095
9895.3506
9838.5934
9775.1555
9704.4265
9625.8094
9539.0134
9440.4497
10303.918
10303.918
10303.917
10303.917
10303.916
10303.915
10303.914
10303.912
10303.91
10303.907
10303.903
10303.899
10303.893
10303.885
10303.876
10303.864
10303.849
10303.83
10303.806
10303.776
10303.737
10303.689
10303.626
10303.547
10303.446
10303.318
10303.154
10302.947
10302.683
10302.349
10301.927
10301.396
10300.73
10299.897
10298.861
10297.578
10295.998
10294.059
10291.696
10288.828
10285.366
10281.206
10276.23
10270.308
10263.29
10255.011
10245.29
10233.922
10220.684
10205.337
10187.617
10167.245
10143.918
10117.306
10087.051
10052.768
10014.03
9970.3832
9921.336
9866.3696
9804.9185
9736.3892
9660.2175
9576.1882
9480.4054
10317.688
10317.688
10317.688
10317.687
10317.687
10317.686
10317.685
10317.683
10317.681
10317.679
10317.675
10317.671
10317.666
10317.659
10317.65
10317.639
10317.625
10317.608
10317.586
10317.558
10317.522
10317.476
10317.418
10317.343
10317.248
10317.127
10316.972
10316.775
10316.524
10316.206
10315.803
10315.296
10314.658
10313.86
10312.865
10311.631
10310.108
10308.24
10305.961
10303.196
10299.858
10295.848
10291.055
10285.351
10278.595
10270.625
10261.265
10250.316
10237.567
10222.783
10205.715
10186.092
10163.621
10137.981
10108.824
10075.773
10038.415
9996.3078
9948.9736
9895.9094
9836.5666
9770.3689
9696.786
9615.689
9522.836
10332.287
10332.287
10332.286
10332.286
10332.286
10332.285
10332.284
10332.282
10332.281
10332.278
10332.275
10332.271
10332.266
10332.26
10332.251
10332.241
10332.228
10332.212
10332.191
10332.164
10332.13
10332.087
10332.032
10331.961
10331.871
10331.756
10331.609
10331.421
10331.183
10330.881
10330.499
10330.016
10329.409
10328.647
10327.697
10326.517
10325.059
10323.269
10321.083
10318.43
10315.226
10311.379
10306.781
10301.311
10294.831
10287.186
10278.206
10267.703
10255.47
10241.288
10224.915
10206.088
10184.526
10159.918
10131.926
10100.183
10064.29
10023.817
9978.3004
9927.2521
9870.1413
9806.4089
9735.5589
9657.5628
9567.7871
10347.731
10347.731
10347.731
10347.731
10347.731
10347.73
10347.729
10347.728
10347.726
10347.723
10347.72
10347.716
10347.712
10347.705
10347.697
10347.687
10347.675
10347.659
10347.638
10347.612
10347.58
10347.538
10347.485
10347.417
10347.33
10347.22
10347.08
10346.901
10346.675
10346.388
10346.026
10345.568
10344.992
10344.27
10343.368
10342.246
10340.859
10339.154
10337.07
10334.538
10331.48
10327.807
10323.417
10318.194
10312.005
10304.704
10296.128
10286.097
10274.414
10260.871
10245.234
10227.252
10206.653
10183.139
10156.381
10126.026
10091.685
10052.944
10009.352
9960.4356
9905.6826
9844.5506
9776.5786
9701.8544
9615.3047
10364.03
10364.03
10364.03
10364.03
10364.03
10364.029
10364.028
10364.027
10364.025
10364.022
10364.019
10364.015
10364.01
10364.004
10363.996
10363.986
10363.973
10363.957
10363.937
10363.911
10363.878
10363.837
10363.785
10363.719
10363.635
10363.529
10363.394
10363.224
10363.009
10362.737
10362.394
10361.962
10361.419
10360.738
10359.887
10358.828
10357.517
10355.902
10353.927
10351.526
10348.623
10345.135
10340.965
10336.003
10330.124
10323.189
10315.041
10305.51
10294.412
10281.545
10266.685
10249.598
10230.019
10207.662
10182.211
10153.325
10120.627
10083.718
10042.16
9995.4962
9943.2296
9884.8348
9819.8862
9748.6055
9665.4378
10381.182
10381.182
10381.182
10381.182
10381.181
10381.18
10381.179
10381.178
10381.176
10381.174
10381.17
10381.166
10381.161
10381.154
10381.146
10381.136
10381.123
10381.106
10381.086
10381.06
10381.027
10380.987
10380.935
10380.871
10380.789
10380.687
10380.558
10380.396
10380.192
10379.935
10379.613
10379.207
10378.698
10378.06
10377.262
10376.268
10375.036
10373.518
10371.658
10369.394
10366.656
10363.364
10359.428
10354.744
10349.193
10342.645
10334.951
10325.951
10315.471
10303.318
10289.283
10273.14
10254.638
10233.504
10209.435
10182.101
10151.141
10116.168
10076.758
10032.469
9982.8208
9927.3019
9865.5239
9797.8588
9718.2399
10399.175
10399.175
10399.175
10399.175
10399.175
10399.174
10399.173
10399.171
10399.169
10399.167
10399.163
10399.159
10399.154
10399.147
10399.139
10399.128
10399.115
10399.099
10399.078
10399.053
10399.02
10398.98
10398.93
10398.868
10398.789
10398.692
10398.569
10398.416
10398.225
10397.985
10397.684
10397.307
10396.833
10396.239
10395.496
10394.57
10393.42
10392.002
10390.263
10388.144
10385.58
10382.495
10378.807
10374.416
10369.215
10363.075
10355.861
10347.424
10337.596
10326.198
10313.033
10297.887
10280.523
10260.679
10238.068
10212.374
10183.248
10150.319
10113.175
10071.389
10024.495
9971.9936
9913.5381
9849.6679
9773.7655
10417.999
10417.999
10417.998
10417.998
10417.998
10417.997
10417.996
10417.994
10417.992
10417.99
10417.986
10417.982
10417.977
10417.971
10417.963
10417.952
10417.94
10417.924
10417.904
10417.88
10417.849
10417.811
10417.764
10417.705
10417.631
10417.54
10417.426
10417.285
10417.108
10416.886
10416.609
10416.261
10415.824
10415.275
10414.589
10413.732
10412.668
10411.353
10409.74
10407.774
10405.392
10402.528
10399.101
10395.022
10390.186
10384.478
10377.772
10369.927
10360.788
10350.186
10337.939
10323.845
10307.679
10289.196
10268.122
10244.157
10216.968
10186.194
10151.44
10112.291
10068.292
10018.954
9963.9799
9904.1044
9832.0734
10437.643
10437.643
10437.643
10437.643
10437.642
10437.641
10437.64
10437.639
10437.637
10437.635
10437.632
10437.628
10437.623
10437.617
10437.61
10437.601
10437.589
10437.575
10437.557
10437.534
10437.507
10437.472
10437.429
10437.376
10437.309
10437.227
10437.124
10436.996
10436.835
10436.635
10436.382
10436.065
10435.666
10435.165
10434.537
10433.751
10432.775
10431.569
10430.087
10428.28
10426.091
10423.458
10420.307
10416.553
10412.102
10406.851
10400.679
10393.458
10385.044
10375.282
10364.001
10351.013
10336.109
10319.059
10299.605
10277.463
10252.315
10223.815
10191.58
10155.208
10114.254
10068.234
10016.89
9961.1716
9893.321
10458.107
10458.107
10458.107
10458.107
10458.106
10458.105
10458.105
10458.103
10458.102
10458.1
10458.097
10458.094
10458.09
10458.085
10458.079
10458.071
10458.061
10458.048
10458.033
10458.014
10457.99
10457.96
10457.923
10457.876
10457.819
10457.747
10457.656
10457.543
10457.401
10457.223
10456.997
10456.712
10456.353
10455.9
10455.331
10454.62
10453.736
10452.641
10451.297
10449.657
10447.671
10445.28
10442.417
10439.005
10434.96
10430.186
10424.575
10418.009
10410.358
10401.478
10391.213
10379.389
10365.812
10350.269
10332.52
10312.297
10289.301
10263.198
10233.621
10200.176
10162.432
10119.89
10072.295
10021.015
9957.5587
10479.393
10479.393
10479.393
10479.392
10479.392
10479.392
10479.391
10479.39
10479.389
10479.387
10479.385
10479.382
10479.379
10479.375
10479.37
10479.363
10479.355
10479.345
10479.332
10479.316
10479.297
10479.272
10479.241
10479.202
10479.153
10479.092
10479.014
10478.917
10478.793
10478.637
10478.438
10478.187
10477.868
10477.466
10476.959
10476.326
10475.536
10474.559
10473.359
10471.894
10470.119
10467.982
10465.419
10462.366
10458.745
10454.471
10449.448
10443.57
10436.719
10428.764
10419.564
10408.962
10396.779
10382.821
10366.864
10348.661
10327.93
10304.357
10277.585
10247.233
10212.874
10173.952
10130.28
10083.708
10024.848
10501.499
10501.499
10501.499
10501.499
10501.499
10501.498
10501.498
10501.497
10501.496
10501.495
10501.493
10501.491
10501.488
10501.485
10501.48
10501.475
10501.468
10501.46
10501.45
10501.436
10501.42
10501.399
10501.374
10501.341
10501.3
10501.249
10501.183
10501.1
10500.994
10500.86
10500.689
10500.471
10500.194
10499.844
10499.403
10498.85
10498.16
10497.307
10496.257
10494.975
10493.422
10491.547
10489.299
10486.62
10483.442
10479.691
10475.283
10470.124
10464.109
10457.123
10449.039
10439.716
10428.996
10416.7
10402.627
10386.549
10368.205
10347.3
10323.493
10296.413
10265.614
10230.549
10190.921
10149.313
10095.402
10524.416
10524.416
10524.416
10524.416
10524.416
10524.415
10524.415
10524.414
10524.413
10524.412
10524.41
10524.408
10524.406
10524.402
10524.399
10524.394
10524.388
10524.38
10524.371
10524.36
10524.345
10524.327
10524.305
10524.277
10524.242
10524.198
10524.143
10524.073
10523.984
10523.871
10523.726
10523.543
10523.31
10523.014
10522.641
10522.172
10521.587
10520.862
10519.969
10518.879
10517.554
10515.954
10514.034
10511.744
10509.029
10505.823
10502.056
10497.647
10492.505
10486.531
10479.613
10471.629
10462.44
10451.889
10439.794
10425.95
10410.119
10392.03
10371.36
10347.735
10320.746
10289.757
10254.355
10217.95
10169.437
10548.116
10548.116
10548.116
10548.115
10548.115
10548.115
10548.114
10548.113
10548.112
10548.111
10548.109
10548.107
10548.104
10548.101
10548.097
10548.092
10548.086
10548.079
10548.07
10548.059
10548.045
10548.029
10548.008
10547.984
10547.953
10547.915
10547.869
10547.81
10547.737
10547.645
10547.528
10547.379
10547.19
10546.95
10546.647
10546.265
10545.787
10545.196
10544.467
10543.573
10542.486
10541.171
10539.593
10537.709
10535.475
10532.837
10529.738
10526.109
10521.876
10516.956
10511.256
10504.671
10497.083
10488.357
10478.336
10466.839
10453.654
10438.533
10421.18
10401.25
10378.318
10351.713
10320.85
10289.861
10247.124
10572.557
10572.557
10572.557
10572.556
10572.556
10572.555
10572.555
10572.554
10572.552
10572.551
10572.549
10572.547
10572.544
10572.54
10572.536
10572.53
10572.524
10572.516
10572.507
10572.496
10572.482
10572.466
10572.447
10572.425
10572.398
10572.366
10572.327
10572.28
10572.222
10572.15
10572.06
10571.945
10571.8
10571.615
10571.382
10571.089
10570.723
10570.268
10569.706
10569.016
10568.175
10567.157
10565.934
10564.473
10562.74
10560.693
10558.287
10555.47
10552.183
10548.359
10543.927
10538.801
10532.885
10526.066
10518.214
10509.175
10498.769
10486.785
10472.959
10456.966
10438.406
10416.583
10390.789
10365.43
10328.454
10597.683
10597.683
10597.683
10597.682
10597.682
10597.681
10597.68
10597.679
10597.678
10597.676
10597.674
10597.672
10597.669
10597.665
10597.661
10597.655
10597.649
10597.641
10597.632
10597.621
10597.608
10597.593
10597.576
10597.556
10597.534
10597.507
10597.477
10597.441
10597.398
10597.345
10597.28
10597.199
10597.097
10596.969
10596.807
10596.604
10596.351
10596.036
10595.646
10595.166
10594.58
10593.869
10593.014
10591.993
10590.779
10589.346
10587.66
10585.684
10583.377
10580.693
10577.578
10573.968
10569.79
10564.959
10559.374
10552.912
10545.427
10536.747
10526.661
10514.896
10501.087
10484.554
10464.584
10444.749
10413.962
10623.435
10623.435
10623.435
10623.434
10623.434
10623.433
10623.432
10623.431
10623.43
10623.428
10623.426
10623.424
10623.421
10623.418
10623.414
10623.409
10623.403
10623.397
10623.389
10623.38
10623.369
10623.357
10623.343
10623.328
10623.31
10623.291
10623.268
10623.243
10623.214
10623.179
10623.139
10623.091
10623.032
10622.96
10622.871
10622.76
10622.621
10622.448
10622.234
10621.97
10621.647
10621.254
10620.781
10620.215
10619.541
10618.742
10617.801
10616.697
10615.406
10613.903
10612.155
10610.121
10607.752
10604.991
10601.769
10597.998
10593.577
10588.377
10582.243
10574.983
10566.313
10555.699
10542.538
10529.067
10505.911
10650.924
10650.923
10650.923
10650.923
10650.922
10650.921
10650.921
10650.92
10650.918
10650.917
10650.916
10650.914
10650.911
10650.909
10650.905
10650.902
10650.897
10650.892
10650.886
10650.879
10650.871
10650.863
10650.853
10650.842
10650.83
10650.817
10650.803
10650.788
10650.773
10650.757
10650.742
10650.727
10650.713
10650.701
10650.69
10650.677
10650.662
10650.645
10650.623
10650.594
10650.558
10650.514
10650.458
10650.389
10650.301
10650.193
10650.062
10649.905
10649.718
10649.495
10649.228
10648.902
10648.497
10647.987
10647.336
10646.502
10645.426
10644.039
10642.248
10639.951
10636.997
10633.089
10628.231
10623.806
10615.372
10679.846
10679.846
10679.845
10679.845
10679.845
10679.844
10679.843
10679.842
10679.842
10679.841
10679.839
10679.838
10679.836
10679.834
10679.832
10679.83
10679.827
10679.824
10679.82
10679.816
10679.811
10679.806
10679.8
10679.794
10679.788
10679.783
10679.778
10679.776
10679.776
10679.782
10679.795
10679.818
10679.854
10679.906
10679.977
10680.07
10680.191
10680.341
10680.523
10680.746
10681.016
10681.342
10681.73
10682.188
10682.726
10683.355
10684.088
10684.942
10685.932
10687.075
10688.388
10689.885
10691.576
10693.47
10695.571
10697.882
10700.396
10703.106
10705.996
10709.061
10712.294
10715.661
10719.476
10724.402
10728.137
10708.722
10708.722
10708.722
10708.721
10708.721
10708.72
10708.72
10708.719
10708.719
10708.718
10708.718
10708.717
10708.716
10708.716
10708.715
10708.715
10708.714
10708.713
10708.713
10708.712
10708.712
10708.712
10708.712
10708.713
10708.715
10708.719
10708.725
10708.736
10708.754
10708.781
10708.823
10708.884
10708.97
10709.085
10709.237
10709.433
10709.68
10709.989
10710.371
10710.841
10711.415
10712.108
10712.938
10713.923
10715.087
10716.454
10718.055
10719.923
10722.096
10724.612
10727.513
10730.843
10734.645
10738.963
10743.842
10749.329
10755.472
10762.329
10769.96
10778.454
10787.915
10798.497
10810.569
10824.528
10840.127
10737.425
10737.425
10737.424
10737.424
10737.424
10737.424
10737.423
10737.423
10737.423
10737.423
10737.423
10737.424
10737.424
10737.425
10737.426
10737.428
10737.429
10737.432
10737.435
10737.439
10737.443
10737.449
10737.455
10737.463
10737.474
10737.487
10737.505
10737.53
10737.566
10737.616
10737.687
10737.785
10737.92
10738.098
10738.33
10738.625
10738.998
10739.466
10740.045
10740.76
10741.632
10742.688
10743.955
10745.464
10747.249
10749.352
10751.819
10754.7
10758.054
10761.942
10766.431
10771.593
10777.505
10784.249
10791.909
10800.579
10810.36
10821.371
10833.748
10847.663
10863.316
10880.993
10901.122
10924.215
10950.996
10765.829
10765.829
10765.829
10765.829
10765.828
10765.828
10765.828
10765.829
10765.829
10765.83
10765.831
10765.832
10765.834
10765.836
10765.839
10765.842
10765.847
10765.852
10765.858
10765.866
10765.875
10765.886
10765.899
10765.915
10765.934
10765.957
10765.987
10766.027
10766.081
10766.155
10766.257
10766.395
10766.58
10766.822
10767.134
10767.531
10768.031
10768.656
10769.432
10770.387
10771.555
10772.969
10774.668
10776.694
10779.096
10781.929
10785.255
10789.144
10793.672
10798.924
10804.992
10811.977
10819.989
10829.147
10839.575
10851.412
10864.812
10879.954
10897.044
10916.333
10938.116
10962.787
10990.872
11023.045
11060.302
10793.831
10793.831
10793.83
10793.83
10793.83
10793.83
10793.831
10793.831
10793.832
10793.833
10793.835
10793.837
10793.84
10793.843
10793.848
10793.853
10793.859
10793.867
10793.877
10793.888
10793.901
10793.917
10793.935
10793.957
10793.984
10794.017
10794.059
10794.113
10794.187
10794.285
10794.419
10794.598
10794.834
10795.141
10795.535
10796.034
10796.661