/*--------------------------------*- C++ -*----------------------------------*\
  =========                 |
  \\      /  F ield         | OpenFOAM: The Open Source CFD Toolbox
   \\    /   O peration     | Website:  https://openfoam.org
    \\  /    A nd           | Version:  13
     \\/     M anipulation  |
\*---------------------------------------------------------------------------*/
FoamFile
{
    format      ascii;
    class       volScalarField;
    location    "22.603662";
    object      k;
}
// * * * * * * * * * * * * * * * * * * * * * * * * * * * * * * * * * * * * * //

dimensions      [0 2 -2 0 0 0 0];

internalField   nonuniform List<scalar> 
17140
(
4.2613887e-11
1.3390749e-09
1.094995e-08
4.708984e-08
1.4489711e-07
3.655923e-07
8.1055502e-07
1.6423495e-06
3.1157426e-06
5.6230996e-06
9.7603914e-06
1.6422594e-05
2.6940749e-05
4.3277641e-05
6.830517e-05
0.00010619421
0.00016295666
0.00024718852
0.00037106814
0.00055165832
0.00081252697
0.0011856052
0.0017129826
0.0024478929
0.0034533535
0.0047957903
0.0065301657
0.0086748884
0.011183012
0.013930159
0.01674146
0.019450812
0.021949742
0.024196294
0.026195659
0.027976521
0.029575251
0.031028344
0.032369908
0.033631512
0.034842854
0.03603254
0.037228645
0.038458978
0.039751169
0.041131772
0.042624927
0.044252114
0.046033126
0.047984726
0.050120772
0.05245179
0.054982782
0.057706613
0.060596438
0.063596094
0.066612206
0.069479434
0.071951691
0.073513516
0.07406265
0.073279331
0.071363973
0.068637479
0.065756421
4.2175059e-11
1.3252854e-09
1.0837218e-08
4.6605267e-08
1.4340702e-07
3.6183549e-07
8.0223313e-07
1.6255046e-06
3.083822e-06
5.5655648e-06
9.660668e-06
1.6255075e-05
2.666645e-05
4.2837951e-05
6.7612947e-05
0.00010512122
0.00016131611
0.00024471108
0.00036736996
0.0005461996
0.00080456111
0.001174122
0.0016966561
0.0024250589
0.0034220644
0.0047540252
0.0064762799
0.0086083052
0.011104901
0.013843524
0.01665078
0.019360625
0.021863252
0.024115348
0.026121162
0.027908868
0.029514615
0.030974845
0.032323707
0.033592871
0.034812183
0.036010448
0.037215995
0.038456998
0.039761515
0.041156698
0.042667378
0.044315683
0.046122152
0.048104177
0.050275882
0.052647215
0.055220827
0.057984366
0.060904215
0.063918018
0.066925657
0.069768976
0.072234064
0.074035242
0.075160445
0.075569636
0.075976773
0.076691698
0.077122469
4.1361685e-11
1.2997263e-09
1.0628214e-08
4.5706465e-08
1.4064149e-07
3.5485827e-07
7.8676575e-07
1.5941696e-06
3.0243879e-06
5.4583306e-06
9.4745988e-06
1.594214e-05
2.6153392e-05
4.2014418e-05
6.6314523e-05
0.0001031054
0.00015822875
0.00024004017
0.00036038344
0.00053586434
0.00078944249
0.0011522699
0.0016654972
0.0023813429
0.0033619575
0.0046735042
0.0063720027
0.0084789838
0.010952709
0.013674456
0.016472886
0.019181436
0.021688199
0.023947502
0.025961899
0.027758646
0.029373512
0.030842861
0.03220092
0.033479517
0.034708727
0.035917652
0.037135008
0.0383895
0.039709902
0.041124268
0.04265856
0.044336483
0.046180595
0.048210683
0.050443947
0.052893982
0.055567634
0.058456742
0.061530676
0.064733266
0.067979137
0.071144585
0.074092656
0.07672323
0.079181663
0.081619309
0.084570172
0.087695688
0.089748744
4.017714e-11
1.2625038e-09
1.0323835e-08
4.439751e-08
1.3661394e-07
3.4469693e-07
7.6423917e-07
1.5485322e-06
2.9378233e-06
5.3021404e-06
9.2035711e-06
1.5486297e-05
2.540599e-05
4.0814638e-05
6.4422714e-05
0.00010016802
0.00015372926
0.00023323148
0.00035019668
0.00052078957
0.00076738011
0.0011203602
0.0016199556
0.0023173677
0.0032738441
0.0045551883
0.0062182973
0.0082875733
0.010726254
0.013421214
0.016204537
0.018909236
0.021420246
0.023688323
0.02571345
0.027521478
0.029147596
0.030628037
0.031997123
0.033286897
0.034527727
0.035749091
0.036980198
0.038250433
0.039589498
0.04102667
0.042589572
0.044304258
0.046195972
0.04828896
0.050605845
0.053167523
0.055990223
0.059077033
0.062411519
0.06595928
0.069668093
0.073470046
0.077306155
0.081156726
0.085189309
0.08930222
0.093662683
0.097602589
0.098878859
3.863079e-11
1.2139122e-09
9.9264892e-09
4.2688758e-08
1.3135621e-07
3.3143178e-07
7.3483135e-07
1.4889526e-06
2.8248105e-06
5.0982225e-06
8.84971e-06
1.4891107e-05
2.4430055e-05
3.9247883e-05
6.1952019e-05
9.6331321e-05
0.00014785126
0.0002243349
0.00033688233
0.00050107899
0.00073851833
0.0010785874
0.0015602815
0.0022334324
0.0031580384
0.0043993213
0.006015172
0.008033594
0.010424293
0.013081669
0.015842716
0.018540269
0.021055199
0.023333434
0.025371394
0.027192951
0.028832441
0.030325879
0.031707683
0.03301014
0.034263955
0.035499042
0.036745177
0.038032524
0.039391869
0.04085393
0.042448321
0.044203936
0.046150039
0.048315341
0.050730621
0.053426369
0.056431598
0.059764818
0.063428645
0.067415838
0.071709118
0.076292945
0.081146853
0.086220663
0.091449537
0.096649771
0.10123771
0.10445567
0.10284998
3.6743377e-11
1.1546032e-09
9.4415056e-09
4.0603121e-08
1.2493878e-07
3.1524059e-07
6.9893633e-07
1.416229e-06
2.6868626e-06
4.8493055e-06
8.4177472e-06
1.4164519e-05
2.3238601e-05
3.7334997e-05
5.893521e-05
9.164599e-05
0.00014067192
0.00021346628
0.00032061183
0.00047698235
0.00070321473
0.0010274528
0.0014871586
0.0021304361
0.0030156597
0.0042071839
0.0057638943
0.007717972
0.010046969
0.012654803
0.015385143
0.01807121
0.020589071
0.02287853
0.024931314
0.026768608
0.028423544
0.029931775
0.031327775
0.032644078
0.03391175
0.035161159
0.036422672
0.03772727
0.039106882
0.040593756
0.042219661
0.044016611
0.046018106
0.048259195
0.050776491
0.05361408
0.056814033
0.060411048
0.064426869
0.06887923
0.073775797
0.079138326
0.084934972
0.090997652
0.096884054
0.10241118
0.10625147
0.10728436
0.10243751
3.4547345e-11
1.0855964e-09
8.877221e-09
3.817645e-08
1.1747196e-07
2.9640164e-07
6.5717094e-07
1.3316108e-06
2.526349e-06
4.5596635e-06
7.915095e-06
1.3318991e-05
2.1852033e-05
3.5108694e-05
5.5423765e-05
8.6191734e-05
0.00013231286
0.00020080866
0.00030165692
0.00044889748
0.00066204276
0.00096776807
0.0014017101
0.0020098862
0.002848648
0.0039811231
0.0054670453
0.0073431312
0.0095959574
0.012140955
0.014830546
0.01749936
0.020018195
0.022319427
0.024388802
0.026243946
0.027916312
0.029440975
0.030852373
0.03218326
0.033465037
0.034728505
0.036004589
0.037325036
0.03872286
0.040231773
0.041885635
0.043719513
0.045771047
0.048080996
0.050694918
0.053662976
0.05704562
0.060889643
0.065232578
0.070109614
0.075537222
0.081555129
0.08807013
0.094738411
0.10071753
0.10580221
0.1080229
0.10612774
0.095761792
3.2086332e-11
1.008263e-09
8.2448472e-09
3.5456961e-08
1.0910412e-07
2.7528925e-07
6.103649e-07
1.2367787e-06
2.3464573e-06
4.2350461e-06
7.3517273e-06
1.2371292e-05
2.0297825e-05
3.2613028e-05
5.1487053e-05
8.007604e-05
0.00012293826
0.00018660945
0.00028038568
0.00041736475
0.00061578437
0.00090064614
0.0013054881
0.0018738914
0.002659767
0.003724579
0.0051285928
0.0069131418
0.0090747071
0.011542132
0.014178983
0.016822902
0.019339382
0.021652133
0.023739476
0.025614399
0.02730604
0.028848572
0.030276246
0.031621948
0.032917352
0.034193615
0.035482111
0.036815209
0.038226819
0.039751877
0.041426012
0.043286931
0.045375837
0.04773849
0.050427576
0.053503441
0.057028701
0.061070504
0.065674546
0.070882632
0.076704718
0.083168267
0.090058084
0.096861737
0.10238152
0.10624488
0.10616882
0.10080231
0.081502204
2.9414094e-11
9.2429205e-10
7.5581936e-09
3.2504041e-08
1.0001799e-07
2.5236444e-07
5.595402e-07
1.1338031e-06
2.1511141e-06
3.8825372e-06
6.7399337e-06
1.1342083e-05
1.8609839e-05
2.9902321e-05
4.7210639e-05
7.3431578e-05
0.00011275094
0.00017117471
0.00025725416
0.00038305521
0.00056541383
0.00082748014
0.0012004487
0.0017251344
0.0024525822
0.0034420864
0.0047539458
0.0064338669
0.00848871
0.010862395
0.01343227
0.016041269
0.018550169
0.020872986
0.022979036
0.024875343
0.026587891
0.028149486
0.029593944
0.030954137
0.032261889
0.033548575
0.034845839
0.03618642
0.037604798
0.039136716
0.040819006
0.042691252
0.044797205
0.047186248
0.049915953
0.053053768
0.056672924
0.060838529
0.065602239
0.071010329
0.077048988
0.083655398
0.090500039
0.09688021
0.10134621
0.10305928
0.1003704
0.089633305
0.057010673
2.6592804e-11
8.3563741e-10
6.8332412e-09
2.9386413e-08
9.0425016e-08
2.2816067e-07
5.0587949e-07
1.0250799e-06
1.9448636e-06
3.5103357e-06
6.0939398e-06
1.0255287e-05
1.6827289e-05
2.7039498e-05
4.2693692e-05
6.6412199e-05
0.00010198629
0.00015486003
0.00023279311
0.0003467516
0.00051207109
0.00074990729
0.0010889046
0.0015668158
0.0022314027
0.0031392305
0.0043499585
0.0059130685
0.0078457668
0.010108297
0.012594518
0.015155653
0.017649205
0.019978891
0.022103376
0.024022136
0.025756898
0.027338447
0.028799794
0.030173564
0.031491546
0.032785124
0.034085959
0.035426808
0.036842256
0.038368269
0.040042096
0.041904148
0.043999351
0.046378944
0.049103044
0.052242658
0.055877201
0.060080277
0.064895311
0.070357186
0.076343048
0.082706595
0.089014242
0.094313698
0.096840748
0.095635143
0.088560897
0.067885607
0.026565766
2.3690745e-11
7.4444475e-10
6.0875348e-09
2.6179527e-08
8.0557351e-08
2.0326366e-07
4.5068127e-07
9.1323981e-07
1.7326961e-06
3.1274455e-06
5.4293695e-06
9.1371816e-06
1.4993258e-05
2.4093716e-05
3.8045246e-05
5.9187172e-05
9.0903517e-05
0.00013805746
0.00020758865
0.00030932032
0.00045702202
0.00066975374
0.00097345188
0.0014025595
0.0020011696
0.0028225335
0.0039248508
0.0053604271
0.0071561926
0.0092893357
0.011672785
0.014169709
0.016636848
0.018967731
0.021108834
0.023050247
0.024808021
0.026410021
0.02788792
0.029273753
0.030598998
0.031894781
0.033192437
0.034524306
0.035924487
0.037428446
0.039072875
0.040897738
0.04294752
0.045273269
0.047935036
0.051005926
0.054573571
0.058710589
0.063440398
0.068750512
0.074355879
0.080049126
0.085131617
0.08834226
0.087641728
0.082233365
0.06708462
0.031261961
0.0099712235
2.077938e-11
6.5295964e-10
5.3394361e-09
2.2962347e-08
7.065797e-08
1.7828644e-07
3.9530459e-07
8.010364e-07
1.5198347e-06
2.7432922e-06
4.7625809e-06
8.015285e-06
1.3152876e-05
2.113744e-05
3.3379606e-05
5.1934059e-05
7.9774774e-05
0.00012117915
0.00018225806
0.00027167599
0.00040160734
0.00058896256
0.00085687047
0.0012362816
0.0017672906
0.0024992638
0.0034880247
0.0047874362
0.006432905
0.0084183516
0.010677814
0.013090471
0.01551603
0.01783904
0.01999264
0.021955522
0.023736301
0.025358709
0.026852316
0.028248079
0.029576796
0.030868971
0.032155217
0.033466929
0.034837025
0.036299634
0.037889776
0.039645536
0.041609145
0.043829161
0.04636308
0.049289069
0.052707723
0.056672958
0.06116659
0.066040861
0.070874961
0.075162552
0.077889081
0.077170988
0.071720956
0.058275598
0.028896896
0.010072403
0.0031969986
1.7929732e-11
5.634139e-10
4.6071961e-09
1.9813362e-08
6.0968385e-08
1.5383837e-07
3.4110046e-07
6.9120704e-07
1.3114726e-06
2.3672475e-06
4.109841e-06
6.9169667e-06
1.135104e-05
1.8242792e-05
2.8810595e-05
4.4829803e-05
6.8871544e-05
0.0001046368
0.00015741909
0.00023473639
0.00034717733
0.00050950042
0.00074199349
0.0010720112
0.0015354041
0.0021771431
0.0030497337
0.0042071006
0.0056912876
0.0075117503
0.0096247274
0.011929438
0.014293453
0.016595047
0.018753694
0.020734726
0.022537215
0.024179169
0.025687006
0.027089912
0.028417495
0.029699194
0.030964412
0.032243018
0.03356596
0.034965085
0.036472531
0.038122935
0.039954252
0.042009897
0.044345111
0.047053635
0.050244524
0.053914087
0.057935019
0.061992616
0.065228818
0.066681647
0.064800221
0.058246463
0.042842786
0.021616924
0.0088224693
0.0031018706
0.0010451967
1.5208747e-11
4.7791113e-10
3.9080156e-09
1.6806542e-08
5.1716199e-08
1.3049373e-07
2.8934216e-07
5.863317e-07
1.1125045e-06
2.0081462e-06
3.4864863e-06
5.8680362e-06
9.6301004e-06
1.5477827e-05
2.4445678e-05
3.8041596e-05
5.8450617e-05
8.8820418e-05
0.00013365813
0.00019937515
0.00029502229
0.00043325677
0.00063156302
0.00091368787
0.0013111013
0.0018639791
0.0026206295
0.0036334418
0.0049487865
0.0065894282
0.0085335473
0.010703723
0.012981104
0.015242174
0.017393818
0.019386471
0.021207338
0.022866699
0.024386397
0.025792885
0.027113896
0.028377223
0.0296105
0.030841415
0.032098111
0.033409016
0.03480213
0.036306891
0.037954606
0.039782022
0.041853041
0.044278695
0.047150725
0.050329084
0.053421247
0.055761089
0.055372167
0.051516373
0.042047862
0.024835808
0.013083436
0.006208655
0.0025772954
0.00098524831
0.00039397032
1.2675302e-11
3.9830153e-10
3.2570252e-09
1.4006958e-08
4.3101653e-08
1.0875778e-07
2.4114994e-07
4.8868052e-07
9.2723783e-07
1.6737636e-06
2.9060174e-06
4.8912193e-06
8.0273612e-06
1.290252e-05
2.0379624e-05
3.1717007e-05
4.8738936e-05
7.4075267e-05
0.00011149558
0.00016637007
0.00024629612
0.00036193158
0.0005280666
0.00076492602
0.001099591
0.0015671992
0.002211137
0.0030807203
0.0042240786
0.0056741577
0.0074292001
0.0094369738
0.011597944
0.013793041
0.015919626
0.017912751
0.019745521
0.021418114
0.022945939
0.024351405
0.025659429
0.026895416
0.02808454
0.029251566
0.030420931
0.031616247
0.032859972
0.034174251
0.035581656
0.037122648
0.038880924
0.040936708
0.043319535
0.045517475
0.046522824
0.044574336
0.038174921
0.024269121
0.013137864
0.0071147293
0.0036433027
0.0017538661
0.00079301811
0.00036577949
0.00020041263
1.0376902e-11
3.2607792e-10
2.666433e-09
1.1467115e-08
3.5286318e-08
8.903819e-08
1.9742776e-07
4.000853e-07
7.5914845e-07
1.3703745e-06
2.3793306e-06
4.0048607e-06
6.5729425e-06
1.0565317e-05
1.6689028e-05
2.5975414e-05
3.9920314e-05
6.0681497e-05
9.1354711e-05
0.0001363561
0.0002019454
0.00029692881
0.00043357766
0.00062877624
0.00090534489
0.0012933254
0.0018306902
0.0025623639
0.0035356855
0.0047900761
0.0063403909
0.0081593522
0.010171251
0.012268751
0.014345074
0.016321278
0.018154817
0.019833263
0.021363303
0.022761559
0.024048852
0.025247209
0.026378462
0.02746355
0.02852205
0.029571169
0.030625591
0.031698111
0.03281074
0.034033918
0.035420282
0.036899521
0.038258202
0.037841292
0.034159295
0.024755055
0.01292628
0.0070221691
0.0036824202
0.0019695425
0.001039341
0.00054769679
0.00029918255
0.00018879605
0.00014389347
8.34746e-12
2.6230592e-10
2.1449522e-09
9.22448e-09
2.8385483e-08
7.1625898e-08
1.5882078e-07
3.2185374e-07
6.1071829e-07
1.1024609e-06
1.9142117e-06
3.2220759e-06
5.288394e-06
8.5009106e-06
1.3428814e-05
2.0902568e-05
3.2127105e-05
4.8841485e-05
7.354267e-05
0.00010979667
0.00016266655
0.00023929243
0.00034965982
0.00050758194
0.0007318809
0.001047649
0.0014872459
0.0020902601
0.0029010142
0.003961582
0.0052988034
0.0069073511
0.0087377666
0.010701319
0.012694629
0.01462872
0.016445399
0.018117477
0.019640352
0.021022655
0.022279405
0.023427898
0.024485438
0.02546791
0.026388379
0.027255732
0.02807214
0.028848947
0.029639548
0.030513288
0.031347934
0.031569309
0.029956999
0.02479095
0.013349589
0.0072915553
0.0036755845
0.0019579926
0.0010524186
0.00059520121
0.0003540855
0.00022795957
0.00016553645
0.00013864451
0.00012681754
6.6049002e-12
2.0754871e-10
1.697187e-09
7.2988562e-09
2.2460095e-08
5.6674733e-08
1.2567025e-07
2.5467771e-07
4.8326121e-07
8.7239695e-07
1.5147893e-06
2.5498275e-06
4.1851733e-06
6.7277856e-06
1.0628325e-05
1.6544449e-05
2.5430631e-05
3.8665018e-05
5.8227576e-05
8.6948524e-05
0.00012885161
0.00018962252
0.00027723628
0.00040277421
0.0005814386
0.00083371011
0.0011864445
0.0016734083
0.0023342461
0.0032102446
0.0043350865
0.0057205236
0.0073419124
0.0091342468
0.011005831
0.01286437
0.014638427
0.016285114
0.017786151
0.019139645
0.02035262
0.021435806
0.022400296
0.023255102
0.024004567
0.024645995
0.02516645
0.025618217
0.026053155
0.026406899
0.025932599
0.023143437
0.015846353
0.0079158203
0.0039204557
0.0020486258
0.0010638124
0.00059706725
0.00035877778
0.00023924954
0.00017631196
0.00014447126
0.00012927311
0.00012372935
0.00012079387
5.1516771e-12
1.618834e-10
1.3237682e-09
5.6929584e-09
1.7518516e-08
4.4205829e-08
9.8023137e-08
1.986528e-07
3.7695945e-07
6.8051392e-07
1.1816433e-06
1.9891034e-06
3.2649281e-06
5.248648e-06
8.2919634e-06
1.2908185e-05
1.9842436e-05
3.0170899e-05
4.5440367e-05
6.7863299e-05
0.00010058823
0.00014807072
0.00021657437
0.00031483239
0.00045488934
0.00065310667
0.00093122299
0.0013171643
0.0018449365
0.0025523992
0.0034752786
0.0046363254
0.0060315306
0.0076205298
0.0093302407
0.01107322
0.012770193
0.014363892
0.015820938
0.017126429
0.018276801
0.019273748
0.020119684
0.020813849
0.021349681
0.021706318
0.02189715
0.021984285
0.021849877
0.02083982
0.017349544
0.0093309627
0.004783594
0.0023192217
0.0011573337
0.00063018449
0.0003683696
0.00024304742
0.00017977705
0.00014769605
0.00013034278
0.00012225295
0.00011871337
0.00011846203
0.00011675394
3.9761416e-12
1.2494403e-10
1.0217044e-09
4.393922e-09
1.3521172e-08
3.4119383e-08
7.5658309e-08
1.5333126e-07
2.9096452e-07
5.2528248e-07
9.1212374e-07
1.5354548e-06
2.5203816e-06
4.0518549e-06
6.4014522e-06
9.9655742e-06
1.5319702e-05
2.3295137e-05
3.5087005e-05
5.2405415e-05
7.7685489e-05
0.00011437648
0.00016733457
0.00024334657
0.00035180759
0.00050555646
0.00072181721
0.0010230713
0.0014374417
0.0019977691
0.0027380904
0.0036861722
0.0048521915
0.0062173798
0.0077302477
0.0093158725
0.010894534
0.012398599
0.013780067
0.015009319
0.016069496
0.016950074
0.017641124
0.018128147
0.018390386
0.018392721
0.018227991
0.017745417
0.016189202
0.011869788
0.0059868977
0.0028424273
0.0014118738
0.00072189973
0.00040228341
0.00025777361
0.00018654879
0.00015178579
0.00013346395
0.00012377307
0.00011788265
0.0001157331
0.00011483821
0.00011454529
0.0001129153
3.0548097e-12
9.5992631e-11
7.8496072e-10
3.3757957e-09
1.0388217e-08
2.6213957e-08
5.8129244e-08
1.178086e-07
2.2356095e-07
4.0360786e-07
7.0086137e-07
1.1798524e-06
1.9367323e-06
3.1136513e-06
4.9193454e-06
7.6584992e-06
1.1773458e-05
1.7903229e-05
2.6966559e-05
4.0278252e-05
5.9710976e-05
8.7918394e-05
0.00012863934
0.00018710572
0.000270576
0.00038900611
0.00055583692
0.00078880041
0.0011104883
0.0015481468
0.0021317757
0.0028893443
0.0038384349
0.0049758108
0.0062698669
0.0076622406
0.0090798413
0.010450675
0.011714967
0.012828213
0.013757995
0.014477743
0.014959869
0.01517273
0.015080128
0.014704598
0.013927091
0.011978366
0.0073659356
0.0037367851
0.0018074602
0.00088235567
0.00047719823
0.00028856752
0.00020151306
0.00016008335
0.00013897032
0.00012778013
0.00012089629
0.00011696735
0.00011399579
0.00011306413
0.00011071855
0.00011064886
0.00010975989
2.3558958e-12
7.4030353e-11
6.0536882e-10
2.6034511e-09
8.0115589e-09
2.021684e-08
4.4831352e-08
9.0859897e-08
1.7242518e-07
3.1129702e-07
5.4057874e-07
9.1005271e-07
1.4938971e-06
2.4017788e-06
3.7947349e-06
5.9078222e-06
9.0822847e-06
1.3811048e-05
2.0802753e-05
3.1071396e-05
4.6060992e-05
6.7817495e-05
9.9223332e-05
0.00014431248
0.00020868456
0.00030003058
0.00042876381
0.00060870008
0.00085762973
0.0011974339
0.0016531092
0.0022497729
0.0030067928
0.003929334
0.0050001604
0.0061766444
0.0073962894
0.0085884454
0.009685964
0.010631114
0.011374683
0.011870133
0.012068863
0.011933976
0.011449882
0.010458026
0.0082090408
0.0045196395
0.0022930159
0.0011416421
0.00058815051
0.00033678
0.00022577713
0.00017344726
0.00014804997
0.00013378949
0.00012597434
0.00012108663
0.00011727375
0.00011454574
0.00011196271
0.00010980743
0.00010791196
0.00010802134
0.00010720844
1.8423142e-12
5.7891848e-11
4.7339949e-10
2.0359084e-09
6.2651044e-09
1.5809882e-08
3.5059269e-08
7.1055943e-08
1.3484577e-07
2.4345642e-07
4.2278127e-07
7.1176138e-07
1.1684221e-06
1.87855e-06
2.9681138e-06
4.6209717e-06
7.1040114e-06
1.0802681e-05
1.6270955e-05
2.4301201e-05
3.6021181e-05
5.302759e-05
7.7567788e-05
0.00011278341
0.00016302985
0.00023428196
0.00033462271
0.0004747792
0.00066860077
0.00093324541
0.0012886353
0.0017555015
0.0023512614
0.0030835214
0.0039426271
0.0048967513
0.0058931783
0.0068657696
0.0077441866
0.0084604775
0.0089488467
0.0091438905
0.0090002392
0.008473189
0.0074248154
0.0051007443
0.0027346317
0.0014064588
0.00072802703
0.0004033646
0.0002556898
0.00018992336
0.00015920999
0.00014237128
0.00013324927
0.00012721095
0.00012271026
0.00011882423
0.00011528602
0.00011183943
0.00010876061
0.00010740601
0.00010563171
0.00010544757
0.00010455339
1.4734706e-12
4.6301519e-11
3.7862208e-10
1.6283111e-09
5.0108253e-09
1.2644813e-08
2.8040812e-08
5.6832036e-08
1.0785401e-07
1.9472757e-07
3.3816606e-07
5.6932118e-07
9.3461214e-07
1.5026661e-06
2.37425e-06
3.696424e-06
5.6826199e-06
8.6409873e-06
1.3014194e-05
1.9434946e-05
2.8802842e-05
4.2389701e-05
6.1982102e-05
9.0071013e-05
0.00013009809
0.00018676454
0.00026639732
0.0003773423
0.00053030269
0.00073844916
0.0010169837
0.0013816683
0.0018457499
0.0024149398
0.0030812059
0.0038177088
0.0045779375
0.0053000933
0.0059135273
0.0063444815
0.0065178133
0.006383291
0.0058801845
0.0048235115
0.0029833521
0.0016291495
0.00086373001
0.00047489277
0.00028999476
0.00020493171
0.00016817044
0.00015144847
0.00014110571
0.00013472922
0.00012949384
0.00012474873
0.00012022027
0.00011559802
0.00011185542
0.00010907914
0.00010721205
0.00010555528
0.00010358408
0.00010336226
0.00010270162
1.2064413e-12
3.791055e-11
3.1000679e-10
1.3332244e-09
4.1027582e-09
1.035333e-08
2.2959353e-08
4.6533335e-08
8.8309982e-08
1.5944251e-07
2.7689204e-07
4.6616734e-07
7.6527886e-07
1.2304197e-06
1.9440922e-06
3.0266796e-06
4.6528441e-06
7.0746378e-06
1.065387e-05
1.5907098e-05
2.3567575e-05
3.4669549e-05
5.0661163e-05
7.3552533e-05
0.00010610422
0.00015205669
0.00021639033
0.00030558272
0.00042778783
0.00059279158
0.00081149709
0.0010945863
0.0014499302
0.0018786049
0.0023700301
0.0028979293
0.00341919
0.0038765179
0.0042033225
0.004329226
0.0041977692
0.0037637349
0.0028438671
0.0016987441
0.00094689271
0.0005302881
0.00031878272
0.00021910021
0.00017395959
0.00015340253
0.00014622921
0.0001418785
0.00013706025
0.0001320793
0.0001266539
0.00012113744
0.00011639543
0.00011281589
0.00011019944
0.00010774433
0.00010521121
0.00010347284
0.00010189433
0.00010163956
0.00010092062
9.9756514e-13
3.1346947e-11
2.5633427e-10
1.102399e-09
3.39243e-09
8.560788e-09
1.8984159e-08
3.847632e-08
7.3019096e-08
1.318341e-07
2.2894471e-07
3.8544062e-07
6.3274523e-07
1.017308e-06
1.6073117e-06
2.5022117e-06
3.8462311e-06
5.8473288e-06
8.8036646e-06
1.314018e-05
1.9458566e-05
2.8604483e-05
4.1756123e-05
6.0537583e-05
8.7158066e-05
0.00012457189
0.00017664221
0.00024826908
0.00034540561
0.0004748307
0.00064347806
0.00085706046
0.001117812
0.0014213815
0.0017534503
0.0020874696
0.0023843424
0.0025947086
0.0026610975
0.0025452436
0.0021810477
0.0015270856
0.00092270735
0.0005399194
0.00032901424
0.00021985958
0.00017303353
0.00015284238
0.00014439516
0.00014270008
0.00014212526
0.00013996286
0.00013483796
0.00012806155
0.00012225159
0.00011777769
0.00011450416
0.00011127048
0.00010819085
0.00010537706
0.00010358544
0.00010214348
0.00010048694
0.00010009205
9.9498651e-05
8.0873774e-13
2.5413338e-11
2.0781322e-10
8.9372663e-10
2.7502657e-09
6.9402254e-09
1.5390241e-08
3.1191765e-08
5.9193393e-08
1.0686919e-07
1.8558386e-07
3.1242631e-07
5.1285357e-07
8.2448428e-07
1.3025138e-06
2.0274012e-06
3.1157111e-06
4.7352922e-06
7.1263273e-06
1.0630184e-05
1.5728349e-05
2.3093884e-05
3.3657482e-05
4.8688762e-05
6.9889901e-05
9.9491606e-05
0.00014032852
0.00019584995
0.00026999041
0.00036678539
0.00048959768
0.00063980857
0.00081505539
0.0010070936
0.0012000362
0.0013694931
0.0014826389
0.0015034438
0.0014048707
0.001138284
0.00077423823
0.0004853415
0.00030563702
0.00020444421
0.00016031093
0.00013878771
0.00013666186
0.0001383638
0.00014152532
0.000143258
0.00014195105
0.00013746609
0.00012944574
0.00012370109
0.00011978143
0.00011604747
0.00011220914
0.00010870736
0.00010616332
0.00010424775
0.00010233101
0.00010054875
9.9080989e-05
9.8758862e-05
9.8264262e-05
6.1811152e-13
1.94232e-11
1.5882973e-10
6.8306428e-10
2.1019741e-09
5.3041896e-09
1.1761973e-08
2.3837458e-08
4.5234899e-08
8.1663351e-08
1.4180166e-07
2.3869579e-07
3.9177127e-07
6.2971589e-07
9.9458493e-07
1.5476093e-06
2.3773502e-06
3.61104e-06
5.4301689e-06
8.0915702e-06
1.1955351e-05
1.7520814e-05
2.547069e-05
3.6722049e-05
5.2478191e-05
7.4268634e-05
0.00010395248
0.00014364339
0.00019549333
0.00026125711
0.00034156549
0.00043491282
0.00053646335
0.00063708899
0.00072273543
0.00077481553
0.00077044943
0.00069745155
0.00053812542
0.00037052182
0.00024963935
0.00017191651
0.00013447742
0.00011593269
0.00011794632
0.0001235536
0.00013440143
0.0001445808
0.00014588405
0.0001445248
0.00013999227
0.00013079808
0.00012556491
0.00012161706
0.00011739778
0.00011311997
0.00010993242
0.00010733296
0.00010511343
0.00010261276
0.00010079673
9.9349425e-05
9.8033505e-05
9.7631464e-05
9.7225725e-05
4.2831474e-13
1.3459122e-11
1.1005925e-10
4.7331784e-10
1.4565037e-09
3.6752884e-09
8.1495743e-09
1.6515431e-08
3.1337893e-08
5.6568943e-08
9.8213685e-08
1.6529352e-07
2.7123051e-07
4.3582483e-07
6.8806008e-07
1.0700516e-06
1.6425502e-06
2.4925209e-06
3.743416e-06
5.5688023e-06
8.2099075e-06
1.1997236e-05
1.7375406e-05
2.4928339e-05
3.5398254e-05
4.9686012e-05
6.8811766e-05
9.3804565e-05
0.00012547931
0.00016406628
0.00020869662
0.00025678369
0.00030342998
0.00034115526
0.00036002098
0.00034960839
0.00030434998
0.0002335365
0.00017211624
0.000126219
0.00010199508
8.8736075e-05
9.109024e-05
9.9070997e-05
0.00011638193
0.00013897152
0.00014724488
0.00014851513
0.00014706841
0.00014220074
0.00013282112
0.0001276618
0.00012350914
0.00011871233
0.00011466651
0.00011145524
0.00010861331
0.00010568068
0.00010323123
0.00010139785
9.9847369e-05
9.8224157e-05
9.6956629e-05
9.6611187e-05
9.6316436e-05
2.6077729e-13
8.194511e-12
6.7008635e-11
2.8817184e-10
8.8674634e-10
2.2374923e-09
4.9611069e-09
1.0053007e-08
1.9073219e-08
3.4424055e-08
5.9753305e-08
1.0053583e-07
1.6490682e-07
2.6484698e-07
4.1785419e-07
6.4927797e-07
9.9553901e-07
1.5084979e-06
2.2612557e-06
3.3556237e-06
4.9313219e-06
7.1765256e-06
1.0338494e-05
1.4731404e-05
2.0735898e-05
2.8781036e-05
3.929452e-05
5.2603701e-05
6.876936e-05
8.7348943e-05
0.00010711182
0.00012578497
0.00013994033
0.00014508476
0.00013813717
0.00011912213
9.7362392e-05
7.8594654e-05
6.6881602e-05
6.1186087e-05
6.4819512e-05
7.1704924e-05
8.7882311e-05
0.0001200874
0.00014275858
0.00015012599
0.00015107967
0.00014962359
0.00014471408
0.0001349409
0.00012968331
0.00012488683
0.00012017337
0.00011627967
0.00011302244
0.00010956056
0.00010657997
0.00010411628
0.0001023465
0.0001003036
9.8591198e-05
9.7160279e-05
9.6088916e-05
9.5740945e-05
9.553023e-05
1.3626951e-13
4.2820464e-12
3.5015148e-11
1.5058042e-10
4.6334113e-10
1.1690626e-09
2.5918927e-09
5.2514651e-09
9.9617059e-09
1.7975045e-08
3.119128e-08
5.2457824e-08
8.5997881e-08
1.3801566e-07
2.1754291e-07
3.3760752e-07
5.1682024e-07
7.814809e-07
1.1682884e-06
1.7276702e-06
2.5275818e-06
3.657296e-06
5.230097e-06
7.3828165e-06
1.0268707e-05
1.403845e-05
1.8802509e-05
2.456833e-05
3.1151262e-05
3.8068163e-05
4.444684e-05
4.8994999e-05
5.0232645e-05
4.8418957e-05
4.4683651e-05
4.0657523e-05
3.702164e-05
3.746504e-05
4.185594e-05
4.8240044e-05
6.1907955e-05
8.8085835e-05
0.00012525442
0.00014459171
0.000152546
0.00015357883
0.00015215616
0.00014737618
0.00013729112
0.00013173281
0.00012655994
0.00012192236
0.00011832323
0.00011450437
0.00011087198
0.00010779296
0.00010545093
0.00010313629
0.00010091255
9.90864e-05
9.7712656e-05
9.6288903e-05
9.5257123e-05
9.4944079e-05
9.4833431e-05
6.0247969e-14
1.8931899e-12
1.548083e-11
6.6572585e-11
2.0483616e-10
5.1678424e-10
1.1456112e-09
2.3207445e-09
4.401276e-09
7.939184e-09
1.3770578e-08
2.3146241e-08
3.7916601e-08
6.0790931e-08
9.5695657e-08
1.4826113e-07
2.2646784e-07
3.4147724e-07
5.0865073e-07
7.4870886e-07
1.0888797e-06
1.5636993e-06
2.2148291e-06
3.0888318e-06
4.2313133e-06
5.675521e-06
7.4237027e-06
9.4212922e-06
1.1528998e-05
1.3504654e-05
1.5014401e-05
1.5941532e-05
1.6577543e-05
1.7151032e-05
1.81991e-05
2.0454618e-05
2.3552141e-05
3.0800293e-05
4.1864436e-05
6.1504089e-05
9.1384317e-05
0.00012537957
0.00014425971
0.00015414661
0.00015593735
0.00015460157
0.00015010513
0.00013982501
0.00013399925
0.00012836886
0.00012380405
0.00011997569
0.00011597959
0.00011217759
0.00010930884
0.00010653245
0.00010399891
0.00010159583
9.9999911e-05
9.8303595e-05
9.677992e-05
9.5430879e-05
9.4537392e-05
9.4251093e-05
9.4213949e-05
2.2921324e-14
7.2026169e-13
5.8895875e-12
2.5326352e-11
7.7921815e-11
1.9657212e-10
4.3570286e-10
8.8246087e-10
1.6731254e-09
3.0169261e-09
5.2302778e-09
8.7854922e-09
1.4379296e-08
2.3027908e-08
3.6196725e-08
5.5973337e-08
8.529144e-08
1.282083e-07
1.9022632e-07
2.7862476e-07
4.0272441e-07
5.7393968e-07
8.0537523e-07
1.1106412e-06
1.5015066e-06
1.9842332e-06
2.5551391e-06
3.1975735e-06
3.8854809e-06
4.6269277e-06
5.5075103e-06
6.6002428e-06
8.0203584e-06
9.9255947e-06
1.3415528e-05
1.8875652e-05
2.8244694e-05
4.2887818e-05
6.41654e-05
9.1595109e-05
0.00012190189
0.00014252416
0.00015558398
0.00015823434
0.00015702823
0.00015289298
0.00014272642
0.00013641516
0.00013040367
0.00012566608
0.00012165013
0.00011755527
0.00011405334
0.00011083794
0.00010783382
0.00010496262
0.00010279873
0.00010087002
9.9011656e-05
9.7231632e-05
9.5944816e-05
9.4685311e-05
9.3857201e-05
9.3602621e-05
9.3519866e-05
8.9129953e-15
2.8007467e-13
2.2901618e-12
9.8480306e-12
3.0299046e-11
7.6433171e-11
1.6940888e-10
3.4310046e-10
6.5047004e-10
1.1728106e-09
2.0330252e-09
3.4145134e-09
5.5877339e-09
8.9470785e-09
1.4061256e-08
2.1740779e-08
3.3126068e-08
4.9798629e-08
7.3914939e-08
1.0835743e-07
1.568889e-07
2.2428796e-07
3.1644281e-07
4.4040997e-07
6.0455169e-07
8.1915669e-07
1.0986541e-06
1.4688364e-06
1.9846879e-06
2.7155382e-06
3.7883001e-06
5.4133145e-06
7.9457747e-06
1.2111012e-05
1.8839655e-05
2.9186982e-05
4.3918191e-05
6.3959432e-05
8.9001256e-05
0.00011752643
0.00014219814
0.00015731584
0.0001606277
0.00015956415
0.00015584559
0.00014605197
0.00013892895
0.00013254215
0.0001276918
0.00012334666
0.00011933721
0.000115834
0.0001124212
0.00010898203
0.00010631854
0.00010390754
0.00010183888
9.9588203e-05
9.8038993e-05
9.6540327e-05
9.523159e-05
9.400029e-05
9.3267542e-05
9.3009023e-05
9.2855107e-05
5.840845e-15
1.8353861e-13
1.5008179e-12
6.4540737e-12
1.9859064e-11
5.0105682e-11
1.1108483e-10
2.2506209e-10
4.2690791e-10
7.7027092e-10
1.3365214e-09
2.247622e-09
3.6845293e-09