/*--------------------------------*- C++ -*----------------------------------*\
  =========                 |
  \\      /  F ield         | OpenFOAM: The Open Source CFD Toolbox
   \\    /   O peration     | Website:  https://openfoam.org
    \\  /    A nd           | Version:  13
     \\/     M anipulation  |
\*---------------------------------------------------------------------------*/
FoamFile
{
    format      ascii;
    class       volScalarField;
    location    "42.701637";
    object      k;
}
// * * * * * * * * * * * * * * * * * * * * * * * * * * * * * * * * * * * * * //

dimensions      [0 2 -2 0 0 0 0];

internalField   nonuniform List<scalar> 
17140
(
5.2049622e-12
1.6355799e-10
1.3374673e-09
5.751973e-09
1.7700855e-08
4.466913e-08
9.9060666e-08
2.0078256e-07
3.8106484e-07
6.88064e-07
1.1950353e-06
2.0121914e-06
3.3038319e-06
5.3129778e-06
8.3966476e-06
1.3076143e-05
2.0108381e-05
3.0586498e-05
4.6080786e-05
6.8834389e-05
0.00010203195
0.00015016264
0.0002194998
0.00031871358
0.00045961208
0.00065795432
0.00093416816
0.0013135956
0.0018255328
0.0024998826
0.0033599613
0.0044109534
0.0056271145
0.0069470864
0.0082878117
0.0095737034
0.010760239
0.011837251
0.012818022
0.013727245
0.01459382
0.015447978
0.016321228
0.01724721
0.018259636
0.019391564
0.020678378
0.022156534
0.023860936
0.025823351
0.028068714
0.030604463
0.033405144
0.036421204
0.039592773
0.042731626
0.045190893
0.045971158
0.04198612
0.030069151
0.014321684
0.01600026
0.035029398
0.052882849
0.032458387
5.2566824e-12
1.6518323e-10
1.3507609e-09
5.8091741e-09
1.7877014e-08
4.511408e-08
1.0004846e-07
2.0278709e-07
3.8487437e-07
6.9495276e-07
1.2070188e-06
2.0324034e-06
3.3370774e-06
5.3665399e-06
8.4814568e-06
1.3208465e-05
2.0312231e-05
3.0897086e-05
4.6549362e-05
6.9535009e-05
0.00010307078
0.00015169048
0.00022172856
0.00032193693
0.0004642297
0.00066449689
0.00094331568
0.0013261739
0.0018424649
0.0025220505
0.0033879398
0.0044445623
0.0056650029
0.0069867382
0.0083262345
0.0096083251
0.010789393
0.011860092
0.012834143
0.013736321
0.014595279
0.015440842
0.016304094
0.017218108
0.018215996
0.019330211
0.020595684
0.022048364
0.023723266
0.025653357
0.027867561
0.03038388
0.033201762
0.036321733
0.039770996
0.043567326
0.04754005
0.050276303
0.049513398
0.041520505
0.028080061
0.027272625
0.044081138
0.049936169
0.026206457
5.27128e-12
1.6564193e-10
1.3545118e-09
5.8253092e-09
1.7926695e-08
4.5239567e-08
1.003271e-07
2.033528e-07
3.8595014e-07
6.9689962e-07
1.2104088e-06
2.0381276e-06
3.346505e-06
5.3817505e-06
8.5055787e-06
1.3246162e-05
2.0370405e-05
3.0985865e-05
4.6683498e-05
6.9735804e-05
0.00010336869
0.00015212852
0.00022236657
0.00032285648
0.00046553888
0.00066633324
0.00094584355
0.0013295694
0.0018468777
0.0025275259
0.0033942864
0.0044512035
0.0056708612
0.0069902733
0.0083257208
0.0096022833
0.010776862
0.011840477
0.012806965
0.013700965
0.014550841
0.01538599
0.016236963
0.017136136
0.018115809
0.019207644
0.0204458
0.021865409
0.023501142
0.025386759
0.027554812
0.030033544
0.032849279
0.036058858
0.039791258
0.044294869
0.049646116
0.054981378
0.057457255
0.053496868
0.042892339
0.039391238
0.04916332
0.045708147
0.026118593
5.2446534e-12
1.6480522e-10
1.3476697e-09
5.7958868e-09
1.7836177e-08
4.5011243e-08
9.9821082e-08
2.0232799e-07
3.8400707e-07
6.9339515e-07
1.20433e-06
2.027907e-06
3.3297503e-06
5.3548532e-06
8.463149e-06
1.3180217e-05
2.0269207e-05
3.083227e-05
4.6452611e-05
6.9391677e-05
0.00010285969
0.00015138089
0.00022127554
0.0003212742
0.00046325838
0.00066306788
0.00094120222
0.0013230302
0.0018377666
0.0025150156
0.0033774355
0.004429055
0.0056425812
0.0069552577
0.0082835926
0.0095527979
0.01071977
0.011775442
0.012733452
0.01361814
0.014457479
0.015280376
0.01611676
0.016998166
0.017955885
0.019020554
0.020225202
0.02160372
0.023189886
0.025017643
0.027122385
0.02954168
0.032329231
0.035599286
0.039587266
0.04468359
0.051406347
0.059350355
0.065627926
0.066344
0.057607975
0.050727173
0.052729966
0.045620857
0.030680929
5.1740413e-12
1.6258634e-10
1.3295253e-09
5.7178564e-09
1.759607e-08
4.4405398e-08
9.8477773e-08
1.9960593e-07
3.7884232e-07
6.8407256e-07
1.1881445e-06
2.0006654e-06
3.285043e-06
5.2829953e-06
8.3496497e-06
1.3003577e-05
1.9997768e-05
3.0419728e-05
4.5831678e-05
6.8465178e-05
0.00010148819
0.00014936573
0.00021833589
0.00031701694
0.00045713992
0.00065434881
0.00092889962
0.0013058801
0.0018142232
0.0024833314
0.0033358782
0.0043762796
0.0055780446
0.0068793784
0.0081974105
0.0094573262
0.010615526
0.011662352
0.012610923
0.013485117
0.014312434
0.015121217
0.015940687
0.016801379
0.017733366
0.018765999
0.019930776
0.021259827
0.022785373
0.024540689
0.026562667
0.028896626
0.031621792
0.034902477
0.039065268
0.044657132
0.052316474
0.06239465
0.073336143
0.078468769
0.073267903
0.063208982
0.058551139
0.049734299
0.036604867
5.0581973e-12
1.5894613e-10
1.2997581e-09
5.5898397e-09
1.7202129e-08
4.341132e-08
9.6273424e-08
1.9513846e-07
3.7036454e-07
6.6876696e-07
1.161566e-06
1.9559211e-06
3.2115928e-06
5.1649075e-06
8.1630779e-06
1.271313e-05
1.9551312e-05
2.9740997e-05
4.4809823e-05
6.6940122e-05
9.9230306e-05
0.00014604802
0.00021349663
0.00031001089
0.00044707721
0.00064002377
0.00090871858
0.0012778109
0.0017758119
0.0024318627
0.0032687697
0.0042917379
0.0054757767
0.0067608338
0.0080651099
0.0093136363
0.010461805
0.011498832
0.012436975
0.013299473
0.014113261
0.014906057
0.015706281
0.016543319
0.017445799
0.018441496
0.019559946
0.020830935
0.022284366
0.023951771
0.025869703
0.028089556
0.030710825
0.033932302
0.038144652
0.044003737
0.052331434
0.06354016
0.078208583
0.088614496
0.088313164
0.078408228
0.069075749
0.061450487
0.040903987
4.89722e-12
1.5388767e-10
1.2583936e-09
5.4119456e-09
1.665469e-08
4.2029852e-08
9.3209901e-08
1.8892936e-07
3.5858087e-07
6.4749119e-07
1.1246166e-06
1.8937111e-06
3.1094599e-06
5.0006856e-06
7.903583e-06
1.2309103e-05
1.8930183e-05
2.8796583e-05
4.3387777e-05
6.4817533e-05
9.6087413e-05
0.00014142952
0.0002067598
0.00030025792
0.0004330708
0.00062008927
0.00088064585
0.0012387879
0.0017224549
0.0023604491
0.0031758036
0.0041748899
0.0053349137
0.0065983881
0.0078851163
0.0091199129
0.010256653
0.01128287
0.01220957
0.013059157
0.013857901
0.014632838
0.015411489
0.016221945
0.017091206
0.018045123
0.019110835
0.020315196
0.021685001
0.023248835
0.025041251
0.027118772
0.029590936
0.032668286
0.036764893
0.042580465
0.051043061
0.062844872
0.079283247
0.094114974
0.099872615
0.093426227
0.083749872
0.073100123
0.041068557
4.6926898e-12
1.4746063e-10
1.2058376e-09
5.1859199e-09
1.5959125e-08
4.0274554e-08
8.9317264e-08
1.8103953e-07
3.4360687e-07
6.2045381e-07
1.0776584e-06
1.8146447e-06
2.9796442e-06
4.7919359e-06
7.5737004e-06
1.1795439e-05
1.8140427e-05
2.7595654e-05
4.157929e-05
6.2117827e-05
9.208952e-05
0.00013555389
0.00019818817
0.00028784714
0.00041524517
0.0005947157
0.00084490823
0.0011891014
0.0016545015
0.0022694716
0.0030573253
0.0040259277
0.0051553448
0.0063915107
0.0076564684
0.008874864
0.0099985854
0.011012887
0.011927094
0.012762543
0.013544728
0.014299943
0.015054734
0.01583573
0.016668146
0.01757561
0.018582425
0.019712007
0.020987376
0.022433056
0.024081918
0.025994621
0.028275465
0.031120836
0.034910379
0.040253567
0.047960398
0.058841742
0.075634022
0.093989097
0.10444729
0.10216751
0.094303448
0.077431415
0.034544955
4.4477579e-12
1.39764e-10
1.1428994e-09
4.9152432e-09
1.5126149e-08
3.8172459e-08
8.4655461e-08
1.7159049e-07
3.2567311e-07
5.8807113e-07
1.0214144e-06
1.7199391e-06
2.8241433e-06
4.5418695e-06
7.1785015e-06
1.1180029e-05
1.7194164e-05
2.6156607e-05
3.9412004e-05
5.8882134e-05
8.7297257e-05
0.00012850966
0.00018790978
0.00027296164
0.00039385881
0.00056426217
0.00080199439
0.0011293978
0.0015727743
0.0021599178
0.0029144216
0.003845893
0.004937855
0.006140529
0.0073789619
0.00857784
0.0096866716
0.010687815
0.011588426
0.012408495
0.013172609
0.013906255
0.014634933
0.015383685
0.016175778
0.017032402
0.017974683
0.019022298
0.020194192
0.021510385
0.0230067
0.024743014
0.026802953
0.029343147
0.032621914
0.036900541
0.042429747
0.049962034
0.064372875
0.083964265
0.098383446
0.099066766
0.092041253
0.067738195
0.022359871
4.1671488e-12
1.3094629e-10
1.0707937e-09
4.6051393e-09
1.4171834e-08
3.5764135e-08
7.931446e-08
1.6076459e-07
3.0512572e-07
5.5096815e-07
9.5697004e-07
1.6114218e-06
2.6459581e-06
4.2553112e-06
6.7256091e-06
1.0474735e-05
1.6109621e-05
2.4507136e-05
3.6927559e-05
5.5172475e-05
8.180218e-05
0.00012043078
0.00017611877
0.00025588001
0.00036930676
0.00052928099
0.00075266274
0.0010606941
0.0014785925
0.0020334226
0.0027489874
0.0036367788
0.0046842635
0.0058467935
0.0070533133
0.0082289747
0.0093206484
0.010307182
0.011193002
0.011996416
0.012740943
0.013451183
0.014151532
0.014865362
0.015613863
0.016415674
0.017288609
0.01824872
0.019311336
0.020493702
0.021842267
0.023405145
0.025235833
0.027418598
0.029919588
0.032143924
0.033173917
0.033845045
0.041224073
0.058402723
0.076202757
0.079376048
0.072591126
0.037837554
0.010421613
3.8570708e-12
1.2120256e-10
9.9111577e-10
4.2624688e-09
1.3117294e-08
3.310286e-08
7.341243e-08
1.4880136e-07
2.8241934e-07
5.0996585e-07
8.8575136e-07
1.4914943e-06
2.4490312e-06
3.9386013e-06
6.2250425e-06
9.6951586e-06
1.4910775e-05
2.2683675e-05
3.418077e-05
5.1070559e-05
7.5725018e-05
0.00011149411
0.00016307194
0.00023697157
0.00034211446
0.00049051007
0.00069793285
0.00098436947
0.0013737695
0.0018922767
0.0025637588
0.0034016025
0.0043975498
0.0055128485
0.0066813479
0.0078293517
0.0089010468
0.0098711947
0.010740873
0.011526288
0.012249681
0.012934672
0.0136045
0.014280824
0.014982705
0.015726241
0.016526117
0.017395499
0.018347676
0.019404233
0.020622856
0.022029458
0.0236359
0.025367107
0.026484144
0.024930541
0.019287055
0.012728725
0.013632743
0.019247125
0.032408852
0.037128374
0.030842337
0.011358161
0.0033139113
3.5250069e-12
1.1076795e-10
9.0578813e-10
3.8955001e-09
1.1987974e-08
3.0252853e-08
6.7091797e-08
1.3598951e-07
2.5810199e-07
4.6605391e-07
8.0947751e-07
1.3630517e-06
2.2381169e-06
3.5993859e-06
5.6888857e-06
8.8601148e-06
1.3626554e-05
2.0730204e-05
3.1237833e-05
4.6675117e-05
6.9211777e-05
0.00010191378
0.00014908068
0.00021668507
0.00031292216
0.00044885203
0.00063905871
0.00090213333
0.0012605773
0.0017393968
0.0023623021
0.0031444369
0.0040819491
0.0051425984
0.0062662069
0.0073812062
0.0084293519
0.009380857
0.010232778
0.010998715
0.011699351
0.01235719
0.012994276
0.013630567
0.014282993
0.014965297
0.015689608
0.016467809
0.017313865
0.01826696
0.019379407
0.020647528
0.021985811
0.022852177
0.021260795
0.014907225
0.0067609993
0.0039138751
0.0038986577
0.0052029701
0.0081765579
0.0092983559
0.0076875791
0.0031042825
0.00098038606
3.1793866e-12
9.9907362e-11
8.1697714e-10
3.5135504e-09
1.081255e-08
2.7286484e-08
6.0513062e-08
1.226544e-07
2.3279126e-07
4.2034765e-07
7.30086e-07
1.2293569e-06
2.018574e-06
3.2462843e-06
5.1307627e-06
7.9908231e-06
1.2289587e-05
1.8696344e-05
2.817347e-05
4.2097664e-05
6.2427499e-05
9.193209e-05
0.00013449789
0.00019553016
0.00028245901
0.00040533881
0.00057748156
0.000815965
0.0011416743
0.0015782471
0.002148945
0.0028703781
0.003742993
0.0047414453
0.005812566
0.0068881658
0.0079082087
0.008838111
0.0096702315
0.010414961
0.011091054
0.011719707
0.012321691
0.012915348
0.01351551
0.014133902
0.01478102
0.015469909
0.016220234
0.017097453
0.018119188
0.019219083
0.019995849
0.01894893
0.013718773
0.0054456063
0.0022180711
0.0012235063
0.0011195356
0.0013568128
0.0017183518
0.0018331957
0.0015415617
0.00083643003
0.00032721073
2.8291733e-12
8.8902433e-11
7.2698572e-10
3.1265238e-09
9.6214989e-09
2.428067e-08
5.3846827e-08
1.0914187e-07
2.0714362e-07
3.7403268e-07
6.4963645e-07
1.0938789e-06
1.7960995e-06
2.8884606e-06
4.5651606e-06
7.1098499e-06
1.0934584e-05
1.6634896e-05
2.5067223e-05
3.7456982e-05
5.5548126e-05
8.180765e-05
0.00011970077
0.00017405271
0.0002515082
0.00036108321
0.00051476407
0.00072802677
0.0010199956
0.0014127095
0.00192864
0.002585432
0.0033874662
0.0043163644
0.0053268382
0.0063555246
0.0073416862
0.0082460406
0.0090556503
0.009777009
0.01042647
0.011023632
0.011587833
0.012135919
0.012680639
0.013232067
0.013800029
0.014400762
0.015070288
0.015883562
0.016784731
0.017488275
0.016853041
0.013107417
0.0052366675
0.0018388688
0.00076910976
0.0004410199
0.00038070336
0.00038982582
0.00041239961
0.00040587376
0.00035155431
0.00025318153
0.00015726882
2.4833463e-12
7.8035338e-11
6.3812143e-10
2.7443444e-09
8.4453642e-09
2.1312498e-08
4.7264061e-08
9.5798505e-08
1.8181701e-07
3.2829727e-07
5.7019323e-07
9.6009468e-07
1.5764043e-06
2.5351023e-06
4.0066054e-06
6.2398261e-06
9.5963615e-06
1.4598845e-05
2.1998949e-05
3.2872395e-05
4.8750562e-05
7.1800791e-05
0.00010506968
0.00015280442
0.0002208638
0.00031721825
0.00045250654
0.00064055082
0.00089860489
0.0012468985
0.0017067497
0.0022962952
0.0030232376
0.0038758602
0.004817305
0.0057905192
0.0067355995
0.0076091477
0.0083925427
0.0090876551
0.009707841
0.010270702
0.010793882
0.011292578
0.01177755
0.012257262
0.012741308
0.013247843
0.013843519
0.014552873
0.015141564
0.014736282
0.011972004
0.0051995774
0.0017800325
0.00065896387
0.00031908986
0.00021480754
0.00018815291
0.00018131379
0.00017179792
0.00016239173
0.00015147289
0.00013471695
0.0001147415
2.150373e-12
6.7572162e-11
5.5256035e-10
2.3763718e-09
7.3129513e-09
1.8454666e-08
4.0926008e-08
8.2951179e-08
1.5743192e-07
2.8426207e-07
4.9370323e-07
8.3128352e-07
1.3648748e-06
2.1948752e-06
3.4687995e-06
5.4021032e-06
8.3077759e-06
1.2638202e-05
1.904406e-05
2.845666e-05
4.2202117e-05
6.215803e-05
9.0965421e-05
0.00013230981
0.00019128318
0.00027482941
0.00039225154
0.00055570693
0.0007805148
0.0010849262
0.0014887536
0.0020100223
0.0026589425
0.0034297512
0.0042940994
0.0052025349
0.0060978512
0.0069337014
0.0076857807
0.0083506723
0.0089380118
0.0094628309
0.0099406688
0.010384496
0.010802891
0.011201997
0.011589751
0.011984777
0.012466156
0.012887316
0.012565641
0.010376753
0.0048502816
0.0017421389
0.00063325733
0.00028516883
0.00018140712
0.0001489198
0.00013682744
0.00012987335
0.00012187484
0.00011549832
0.0001105721
0.00010709318
0.00010303951
1.8376527e-12
5.7745417e-11
4.7220368e-10
2.0307817e-09
6.2494202e-09
1.5770674e-08
3.497351e-08
7.0885418e-08
1.3453037e-07
2.4290606e-07
4.2186737e-07
7.1031052e-07
1.1662175e-06
1.8753518e-06
2.9637183e-06
4.6153452e-06
7.0975549e-06
1.0796716e-05
1.6268556e-05
2.4308531e-05
3.6049483e-05
5.3095814e-05
7.7705402e-05
0.00011303166
0.00016343708
0.00023488302
0.00033538207
0.00047545931
0.0006684887
0.00093063148
0.0012798923
0.0017335805
0.0023034538
0.0029886629
0.0037689001
0.0046031068
0.0054386903
0.0062280965
0.0069419068
0.0075709844
0.0081204293
0.0086019036
0.0090280006
0.0094084973
0.0097485638
0.010049528
0.010310597
0.010556308
0.010747856
0.010390345
0.0085483838
0.004149218
0.0016046275
0.00060912069
0.00027285053
0.00016991843
0.0001399438
0.00012904654
0.00012202247
0.00011578
0.00010822136
0.00010272489
9.9237293e-05
9.9054414e-05
9.8605098e-05
1.5510853e-12
4.8740475e-11
3.9856706e-10
1.7140928e-09
5.2748329e-09
1.3311155e-08
2.951887e-08
5.9828893e-08
1.1354459e-07
2.0500994e-07
3.5604208e-07
5.9946072e-07
9.8418628e-07
1.5825734e-06
2.5009175e-06
3.8944484e-06
5.9886364e-06
9.1093341e-06
1.3725199e-05
2.0507039e-05
3.0410212e-05
4.4787938e-05
6.5545164e-05
9.5343849e-05
0.0001378701
0.0001981689
0.00028303873
0.00040144752
0.00056487049
0.00078734038
0.0010848298
0.0014733805
0.0019653203
0.0025634111
0.00325435
0.0040055745
0.0047707027
0.0055030889
0.0061694221
0.006754822
0.0072590414
0.0076892377
0.008053565
0.008357026
0.0085979996
0.0087673419
0.0088520614
0.0088124112
0.0083467712
0.0066530611
0.0032844283
0.0013634155
0.00055529053
0.00025991281
0.00016364342
0.00013555842
0.00012729097
0.00012247562
0.0001169443
0.00011133283
0.00010394567
9.85817e-05
9.5502511e-05
9.5504053e-05
9.4950797e-05
1.2946914e-12
4.0683678e-11
3.3268365e-10
1.4307487e-09
4.4028646e-09
1.1110621e-08
2.4638633e-08
4.9936773e-08
9.4769117e-08
1.7110567e-07
2.9715158e-07
5.0029093e-07
8.2133851e-07
1.3206548e-06
2.0869056e-06
3.2495596e-06
4.9966459e-06
7.5998697e-06
1.1449958e-05
1.7106099e-05
2.5364599e-05
3.7353323e-05
5.4660035e-05
7.9503902e-05
0.00011495933
0.00016523803
0.00023602517
0.00033484241
0.00047136411
0.0006575287
0.00090715353
0.0012345917
0.0016518624
0.0021639352
0.0027629099
0.0034240758
0.0041082012
0.004771589
0.0053787859
0.0059096661
0.0063579311
0.0067246668
0.007011381
0.007214722
0.0073213136
0.0073004047
0.0071343682
0.0065504828
0.0048812019
0.0024417389
0.0010787174
0.00047494947
0.00023923534
0.00015725004
0.00013211513
0.00012533208
0.00012289762
0.00011786867
0.00011150042
0.00010585372
0.00010030683
9.6017762e-05
9.3040757e-05
9.2592889e-05
9.1505712e-05
1.0703332e-12
3.3633564e-11
2.750324e-10
1.1828091e-09
3.6398549e-09
9.1850761e-09
2.0368309e-08
4.1281071e-08
7.8340727e-08
1.4144042e-07
2.4562552e-07
4.1352539e-07
6.7886492e-07
1.0915141e-06
1.7247197e-06
2.6854205e-06
4.1288988e-06
6.2794975e-06
9.4597626e-06
1.4131193e-05
2.09508e-05
3.0848893e-05
4.5134761e-05
6.5637926e-05
9.4892697e-05
0.00013637132
0.00019476355
0.00027628293
0.00038894488
0.00054269775
0.00074918496
0.0010207802
0.0013684297
0.0017979537
0.0023051734
0.0028718301
0.0034657503
0.0040476369
0.004581791
0.0050437911
0.0054207123
0.0057054548
0.0058900554
0.0059559685
0.0058814115
0.0056289816
0.0049970664
0.0034446729
0.0017232191
0.00080649862
0.00038584978
0.00021254206
0.00014902181
0.00012880106
0.00012327114
0.00012200383
0.00011802226
0.00011168225
0.00010581963
0.00010125902
9.6720848e-05
9.3188529e-05
9.0599604e-05
9.0374528e-05
8.9466393e-05
8.7773452e-13
2.7581451e-11
2.2554228e-10
9.6996876e-10
2.9848644e-09
7.5321508e-09
1.670264e-08
3.3851132e-08
6.4239197e-08
1.1597767e-07
2.0140053e-07
3.3905744e-07
5.5659059e-07
8.9487051e-07
1.4139177e-06
2.2013459e-06
3.3843506e-06
5.1466499e-06
7.7523015e-06
1.1578976e-05
1.71641e-05
2.526823e-05
3.6961048e-05
5.3736129e-05
7.7660653e-05
0.00011156433
0.0001592659
0.00022582214
0.0003177571
0.00044318107
0.00061162993
0.00083335084
0.0011176688
0.0014701216
0.0018885159
0.0023591758
0.0028559728
0.0033444969
0.003790255
0.0041655722
0.0044504493
0.0046277821
0.0046746704
0.0045741314
0.0042694579
0.0036569101
0.0023070931
0.0011683201
0.00057920078
0.00030232709
0.0001849658
0.00013942394
0.0001249608
0.00012136574
0.00012060932
0.00011829115
0.00011262768
0.00010722021
0.00010292229
9.9131629e-05
9.5084624e-05
9.1919729e-05
8.9375063e-05
8.8877124e-05
8.7615697e-05
7.145678e-13
2.2454188e-11
1.8361494e-10
7.8965402e-10
2.4299727e-09
6.1318546e-09
1.3597291e-08
2.7557082e-08
5.229392e-08
9.4409299e-08
1.6394129e-07
2.7598542e-07
4.5303444e-07
7.2834119e-07
1.1507319e-06
1.7914662e-06
2.7539717e-06
4.1875903e-06
6.3068832e-06
9.4185672e-06
1.3958803e-05
2.0544298e-05
3.004145e-05
4.3658279e-05
6.3063789e-05
9.0537669e-05
0.00012914831
0.00018294624
0.00025713877
0.0003581743
0.00049360603
0.00067152576
0.00089928747
0.0011812685
0.0015157343
0.0018916467
0.0022872843
0.0026726088
0.003014975
0.0032842996
0.0034536548
0.0034946471
0.0033931638
0.0030899004
0.0024877058
0.0014988692
0.00078023222
0.00040725374
0.00023309196
0.00015886252
0.00013033319
0.00012043682
0.00011931896
0.0001194255
0.00011844954
0.00011443756
0.00010858178
0.0001043145
0.00010049885
9.6705406e-05
9.3209502e-05
9.0232497e-05
8.7857239e-05
8.7360151e-05
8.5970766e-05
5.7682107e-13
1.8125706e-11
1.482195e-10
6.3743142e-10
1.9615354e-09
4.9497519e-09
1.0975882e-08
2.2244077e-08
4.2210943e-08
7.6204355e-08
1.3232526e-07
2.2275519e-07
3.6564325e-07
5.8781738e-07
9.2866348e-07
1.4456509e-06
2.2221672e-06
3.3785693e-06
5.087682e-06
7.5963787e-06
1.1255375e-05
1.6559915e-05
2.4204536e-05
3.5155413e-05
5.0743396e-05
7.2779176e-05
0.00010368755
0.00014664854
0.00020571563
0.00028585225
0.00039278227
0.00053249355
0.0007101867
0.00092849059
0.0011849797
0.0014696058
0.0017633706
0.0020396214
0.0022677066
0.0024161469
0.0024533498
0.0023650173
0.0021046786
0.0015911787
0.00094004906
0.0005090663
0.00028411359
0.00018014386
0.00013638721
0.00012072251
0.00011657185
0.00011747314
0.00011939505
0.00011876585
0.00011604763
0.00010958321
0.00010539398
0.00010165179
9.7783199e-05
9.4295314e-05
9.1123182e-05
8.8816916e-05
8.6799424e-05
8.6172264e-05
8.4557793e-05
4.5951383e-13
1.4439508e-11
1.1807631e-10
5.0779739e-10
1.5626147e-09
3.9430922e-09
8.7435887e-09
1.7719862e-08
3.362525e-08
6.0703448e-08
1.0540657e-07
1.7743605e-07
2.912444e-07
4.6819228e-07
7.3963275e-07
1.1513014e-06
1.7695338e-06
2.6900229e-06
4.050072e-06
6.0456073e-06
8.9545657e-06
1.3168647e-05
1.9235716e-05
2.7915178e-05
4.0248049e-05
5.7641594e-05
8.1964188e-05
0.00011563779
0.00016170084
0.00022379074
0.00030596119
0.00041220965
0.00054557039
0.00070665889
0.00089173465
0.0010907776
0.0012864989
0.0014551641
0.0015688449
0.0015976881
0.0015274776
0.0013179987
0.00093975046
0.00055775935
0.00032129125
0.00019782216
0.0001393113
0.00011811476
0.00011129586
0.00011244728
0.00011640368
0.00011989582
0.0001196447
0.00011720944
0.00011060696
0.00010650691
0.00010287153
9.9154344e-05
9.5787186e-05
9.2770856e-05
9.0110335e-05
8.7915082e-05
8.5887139e-05
8.5089257e-05
8.3348915e-05
3.5776361e-13
1.1242167e-11
9.1930668e-11
3.9535553e-10
1.2166016e-09
3.069954e-09
6.8074152e-09
1.3795881e-08
2.617881e-08
4.7259742e-08
8.2061028e-08
1.3813355e-07
2.2672451e-07
3.6445369e-07
5.7570844e-07
8.9604844e-07
1.3770197e-06
2.0929188e-06
3.1502267e-06
4.7006453e-06
6.9589047e-06
1.0226721e-05
1.4924378e-05
2.1631214e-05
3.1135447e-05
4.4491749e-05
6.3080874e-05
8.8658175e-05
0.00012336542
0.00016966174
0.00023010489
0.0003068929
0.00040109328
0.00051143696
0.00063294842
0.00075567754
0.00086423663
0.00093860977
0.00095585496
0.0009049952
0.00075458164
0.00052281047
0.00031982434
0.00019882259
0.00013523177
0.00011014861
0.00010074851
0.0001031593
0.00010803402
0.00011837927
0.00012082911
0.00012065668
0.0001183827
0.00011187231
0.00010755927
0.00010404262
0.00010043425
9.7117342e-05
9.4051317e-05
9.1220296e-05
8.8546116e-05
8.6537899e-05
8.4801458e-05
8.390486e-05
8.2328675e-05
2.6801443e-13
8.4219376e-12
6.8868758e-11
2.9617549e-10
9.113991e-10
2.2998004e-09
5.0996155e-09
1.0334751e-08
1.9610728e-08
3.540181e-08
6.1469165e-08
1.0346658e-07
1.6981347e-07
2.7294675e-07
4.311071e-07
6.7087349e-07
1.0307373e-06
1.5661057e-06
2.3562438e-06
3.5137992e-06
5.1976813e-06
7.630142e-06
1.1118833e-05
1.6084218e-05
2.309171e-05
3.2885785e-05
4.641946e-05
6.4865992e-05
8.958976e-05
0.00012203995
0.00016351571
0.00021475423
0.00027528089
0.00034258522
0.00041124772
0.00047236771
0.00051365503
0.00052037014
0.00048476813
0.00039074134
0.00027093494
0.00017881276
0.00012112335
9.501462e-05
8.4782432e-05
8.7843167e-05
9.4053689e-05
0.00010780956
0.00011967978
0.00012223794
0.00012195763
0.00011984491
0.00011334021
0.00010862298
0.00010513491
0.00010167373
9.8361125e-05
9.5229553e-05
9.2212676e-05
8.9584737e-05
8.7420213e-05
8.5670878e-05
8.4024347e-05
8.3045215e-05
8.1520904e-05
1.891686e-13
5.9443279e-12
4.8608531e-11
2.090442e-10
6.4327272e-10
1.6232021e-09
3.5992623e-09
7.2940145e-09
1.3840338e-08
2.4983836e-08
4.3377446e-08
7.3007823e-08
1.1980916e-07
1.9254203e-07
3.0404454e-07
4.7300216e-07
7.2643303e-07
1.103147e-06
1.6585063e-06
2.4708846e-06
3.6502638e-06
5.3493788e-06
7.7776308e-06
1.1217485e-05
1.6042008e-05
2.2730237e-05
3.1873732e-05
4.4162631e-05
6.0332663e-05
8.1046531e-05
0.00010668266
0.00013700533
0.00017072291
0.00020501878
0.0002351926
0.00025462826
0.00025513536
0.00023400447
0.00018635318
0.00013463827
9.6431157e-05
7.5724786e-05
6.6302372e-05
6.7982181e-05
7.4196355e-05
8.8120273e-05
0.00011104632
0.00012095228
0.00012359793
0.00012330602
0.00012129339
0.00011496656
0.0001095498
0.00010622235
0.00010279268
9.9591774e-05
9.64289e-05
9.3442528e-05
9.0871294e-05
8.8583767e-05
8.6459874e-05
8.4701895e-05
8.3096204e-05
8.2123818e-05
8.0715218e-05
1.2275425e-13
3.8573586e-12
3.1542686e-11
1.3565056e-10
4.1742025e-10
1.0532767e-09
2.3354497e-09
4.732656e-09
8.9796328e-09
1.6208184e-08
2.8137729e-08
4.7350702e-08
7.7688258e-08
1.2481537e-07
1.970225e-07
3.0635417e-07
4.701835e-07
7.1338405e-07
1.0712823e-06
1.5935942e-06
2.3495373e-06
3.4342183e-06
4.9761627e-06
7.1453527e-06
1.0160208e-05
1.4290379e-05
1.9849814e-05
2.7171262e-05
3.6549934e-05
4.8143493e-05
6.1815329e-05
7.6928071e-05
9.2123392e-05
0.00010515574
0.00011288723
0.00011173005
0.0001009343
8.2223913e-05
6.5097519e-05
5.3456222e-05
4.7310984e-05
4.8806032e-05
5.3551218e-05
6.5133241e-05
8.9530059e-05
0.0001127223
0.00012259854
0.00012505414
0.00012472484
0.00012284796
0.00011678645
0.00011078688
0.00010736346
0.00010400191
0.00010079861
9.7697305e-05
9.4638987e-05
9.201449e-05
8.9503247e-05
8.7266029e-05
8.5314391e-05
8.3801981e-05
8.2379849e-05
8.1373828e-05
8.0079317e-05
7.1411762e-14
2.244e-12
1.8349726e-11
7.8912838e-11
2.4282332e-10
6.1269509e-10
1.3584696e-09
2.7526563e-09
5.2222842e-09
9.4248512e-09
1.6358582e-08
2.7521441e-08
4.5138937e-08
7.2488173e-08
1.1435509e-07
1.7767362e-07
2.7240859e-07
4.1275746e-07
6.1875368e-07
9.1834856e-07
1.3500105e-06
1.9657804e-06
2.8345108e-06
4.0446247e-06
5.7050667e-06
7.9421021e-06
1.0888269e-05
1.4658448e-05
1.9307262e-05
2.4764186e-05
3.0748945e-05
3.6683466e-05
4.1632205e-05
4.4303658e-05
4.3638687e-05
4.0081959e-05
3.5755672e-05
3.2189982e-05
3.0258234e-05
3.2118495e-05
3.5961884e-05
4.4994577e-05
6.271718e-05
9.109885e-05
0.00011247243
0.00012320618
0.00012659049
0.00012624392
0.00012452335
0.00011879845
0.00011215719
0.00010864117
0.00010499351
0.00010196935
9.8831069e-05
9.5863486e-05
9.3131743e-05
9.0564661e-05
8.8267489e-05
8.6313945e-05
8.4607079e-05
8.3081382e-05
8.1630739e-05
8.0652347e-05
7.9503009e-05
3.6461879e-14
1.1457544e-12
9.3690442e-12
4.0290795e-11
1.2397507e-10
3.1279898e-10
6.9348387e-10
1.4050417e-09
2.6651977e-09
4.8089525e-09
8.3444325e-09
1.4033185e-08
2.3004729e-08
3.6918582e-08
5.8191161e-08
9.0309709e-08
1.3825995e-07
2.0909697e-07
3.1268638e-07
4.6262875e-07
6.7734364e-07
9.8121287e-07
1.4055403e-06
1.9888447e-06
2.775642e-06
3.812415e-06
5.1389413e-06
6.773168e-06
8.6885229e-06
1.0785539e-05
1.2864678e-05
1.4614597e-05
1.5676372e-05
1.6035489e-05
1.6053116e-05
1.6147285e-05
1.6971845e-05
1.915705e-05
2.2344412e-05
2.9478892e-05
4.2273495e-05
6.3044412e-05
8.9935532e-05
0.0001103313
0.00012270967
0.00012789551
0.00012787495
0.00012630824
0.00012091116
0.0001137628
0.00010997496
0.00010612808
0.00010308133
0.00010013918
9.7120802e-05
9.4389353e-05
9.1660851e-05
8.9362768e-05
8.727275e-05
8.5387856e-05
8.3639848e-05
8.2266983e-05
8.0986e-05
8.0066529e-05
7.8995686e-05
1.628746e-14
5.1180564e-13
4.185091e-12
1.7997219e-11
5.5375197e-11
1.3970637e-10
3.0970085e-10
6.2738097e-10
1.1898249e-09
2.1462678e-09
3.7227963e-09
6.2577109e-09
1.0251706e-08
1.6438349e-08
2.5881841e-08
4.0110555e-08
6.1295782e-08
9.2484571e-08
1.3789151e-07
2.0324353e-07
2.961491e-07
4.2642133e-07
6.0621453e-07
8.4973154e-07
1.1721229e-06
1.5871148e-06
2.1028901e-06
2.7161734e-06
3.4055364e-06
4.1270845e-06
4.8192152e-06
5.4776626e-06
6.2182893e-06
7.1531597e-06
8.4103058e-06
1.0031071e-05
1.3281408e-05
1.8482051e-05
2.7806604e-05
4.2272009e-05
6.2446519e-05
8.6490404e-05
0.00010696991
0.00012249356
0.00012914549
0.00012966113
0.00012822521
0.00012317841
0.0001155112
0.00011146829
0.00010737511
0.00010428646
0.00010123631
9.8411839e-05
9.5514848e-05
9.2830067e-05
9.04031e-05
8.8254883e-05
8.6191352e-05
8.4480697e-05
8.2994922e-05
8.1672255e-05
8.0389649e-05
7.9445075e-05
7.8496645e-05
6.8199512e-15
2.1430498e-13
1.7523809e-12
7.5356485e-12
2.3185463e-11
5.8491584e-11
1.2965372e-10
2.6261807e-10
4.9797546e-10
8.9808211e-10
1.5573195e-09
2.6167445e-09
4.2848013e-09
6.8662747e-09
1.0802211e-08
1.672403e-08
2.5525265e-08
3.8453891e-08
5.7226304e-08
8.4159591e-08
1.2231037e-07
1.7559473e-07
2.488446e-07
3.4773722e-07
4.7853202e-07
6.4760588e-07
8.6096759e-07
1.1243912e-06
1.4440543e-06
1.831741e-06
2.3205287e-06
2.9896355e-06
3.9833152e-06
5.4789651e-06
7.8076795e-06
1.1642184e-05
1.7996488e-05
2.7849115e-05
4.1768656e-05
6.0298981e-05
8.2638987e-05
0.00010443911
0.00012300645
0.00013049013
0.00013143985
0.00013017868
0.00012560783
0.00011746485
0.00011310675
0.00010880367
0.00010550818
0.00010237677
9.9591401e-05
9.6857691e-05
9.4029676e-05
9.1621519e-05
8.925068e-05
8.7194691e-05
8.5384851e-05
8.378462e-05
8.2232819e-05
8.100143e-05
7.979484e-05
7.9015686e-05
7.815888e-05
3.5486055e-15
1.1150877e-13
9.1181573e-13
3.9210795e-12
1.2064662e-11
3.0438104e-11
6.7475607e-11
1.3669099e-10
2.5923698e-10
4.6763318e-10
8.1115264e-10
1.3635448e-09
2.2340192e-09
3.5827311e-09
5.6424069e-09
8.748211e-09
1.3378483e-08
2.020951e-08
3.0188013e-08
4.4625548e-08
6.5319814e-08
9.4710101e-08
1.3608065e-07
1.9383299e-07
2.7391538e-07
3.8458005e-07
5.378909e-07
7.5239406e-07
1.0584746e-06
1.5045796e-06
2.1723666e-06
3.2054707e-06
4.8458842e-06
7.4660446e-06
1.1619092e-05
1.8037981e-05
2.7434258e-05
4.0489641e-05
5.7989885e-05
7.9802646e-05
0.00010274956
0.00012289754
0.00013168779
0.00013321421
0.00013212561
0.00012823044
0.00011962844
0.00011495203
0.00011035454
0.00010686354
0.00010355514
0.00010079927
9.8055062e-05
9.5382342e-05
9.2729152e-05
9.0369631e-05
8.8166023e-05
8.6344396e-05
8.45107e-05
8.2984068e-05
8.1648769e-05
8.0467588e-05
7.9356826e-05
7.851598e-05
7.7670858e-05
3.3176863e-15
1.0425288e-13
8.5249835e-13
3.6661676e-12
1.1281368e-11
2.8466237e-11
6.3118644e-11
1.2790583e-10
2.4268319e-10
4.3803426e-10
7.6041914e-10
1.2796213e-09
2.0994657e-09
3.3731776e-09
5.3253051e-09
8.2829105e-09
1.2719855e-08
1.9319651e-08
2.9064878e-08
4.3365258e-08
6.4243536e-08
9.4611263e-08
1.386918e-07
2.0270895e-07
2.959529e-07
4.3247091e-07
6.3398204e-07
9.3496222e-07
1.3908833e-06
2.0913672e-06
3.1800565e-06
4.8821119e-06
7.5383313e-06
1.1649107e-05
1.7862869e-05
2.6842164e-05
3.9371824e-05
5.6332212e-05
7.7715527e-05
0.00010097362
0.0001216498
0.00013265413
0.0001349771
0.00013405788