/*--------------------------------*- C++ -*----------------------------------*\
  =========                 |
  \\      /  F ield         | OpenFOAM: The Open Source CFD Toolbox
   \\    /   O peration     | Website:  https://openfoam.org
    \\  /    A nd           | Version:  13
     \\/     M anipulation  |
\*---------------------------------------------------------------------------*/
FoamFile
{
    format      ascii;
    class       surfaceScalarField;
    location    "0.0015";
    object      phi;
}
// * * * * * * * * * * * * * * * * * * * * * * * * * * * * * * * * * * * * * //

dimensions      [1 0 -1 0 0 0 0];

internalField   nonuniform List<scalar> 
999
(
-1.56619e-12
-1.27265e-12
-1.17129e-12
-4.39487e-13
-4.1576e-13
2.1813e-13
5.3977e-13
6.26293e-13
3.01215e-13
1.67452e-13
-4.32292e-14
-7.3122e-14
2.17475e-13
4.69726e-13
-9.87084e-14
-5.84431e-13
-8.55607e-13
-1.19546e-12
-5.40788e-13
-4.46308e-13
-5.10896e-13
-4.59577e-14
2.39624e-13
-3.64374e-13
-4.82367e-13
-6.84154e-13
-1.22672e-12
-9.80635e-13
-9.96405e-13
-5.9584e-13
-5.71618e-13
-3.06821e-13
-1.30834e-13
4.70381e-13
5.65356e-13
1.27099e-12
1.44583e-12
1.59694e-12
1.33214e-12
1.52826e-12
1.59148e-12
1.69944e-12
1.11366e-12
1.0817e-12
1.05955e-12
1.93694e-13
7.72788e-14
1.90712e-14
-3.91365e-14
-6.74514e-14
-1.8408e-13
-3.258e-13
-4.51819e-13
-6.15474e-13
-5.36482e-13
-2.79002e-13
1.29374e-13
3.31162e-13
2.6335e-13
6.16743e-13
6.37528e-13
2.40988e-13
-1.01126e-14
-4.20786e-14
-9.6607e-13
-1.33789e-12
-1.00213e-12
-6.45367e-13
-3.07744e-13
-9.8213e-14
-2.73545e-13
4.48712e-14
-7.29083e-14
-1.0165e-13
-5.03861e-13
-7.15441e-14
4.44848e-13
9.12423e-14
-4.13687e-13
-2.74909e-13
-1.30393e-13
-6.10017e-13
-5.31025e-13
-5.31025e-13
-8.44639e-13
-1.16306e-12
-5.62068e-13
-3.08239e-13
-6.8602e-14
3.89369e-13
3.92098e-13
1.29608e-12
1.16368e-12
5.30662e-13
3.69026e-13
1.83622e-14
5.4932e-13
2.57359e-13
8.41001e-14
2.5463e-13
2.12299e-13
4.2401e-13
1.06516e-12
1.23433e-12
6.20127e-13
8.35062e-13
1.00696e-12
1.00079e-12
1.41888e-12
1.6384e-12
1.48112e-12
8.71722e-13
5.93671e-13
4.18339e-13
3.81678e-13
4.44795e-13
5.3339e-13
5.99342e-13
5.9454e-13
7.41344e-13
6.62244e-13
5.57666e-13
8.29444e-13
5.36333e-13
2.30569e-13
-1.63898e-13
-5.90597e-13
-2.29354e-13
-3.44405e-13
-6.22068e-13
-9.78722e-13
-1.00431e-12
-9.80796e-13
-1.10692e-12
-8.84456e-13
-6.6353e-13
-2.43866e-13
7.52594e-14
7.04576e-14
-5.70322e-14
1.21135e-13
2.97831e-13
4.7747e-13
-1.0553e-13
-1.31985e-13
-1.55605e-13
-3.69027e-14
1.49717e-13
6.01027e-13
7.52739e-13
8.18691e-13
5.1702e-13
5.35838e-13
2.48892e-13
1.48795e-13
3.39508e-13
2.53977e-14
-6.63538e-14
-2.47959e-13
-1.94873e-13
-2.57227e-13
-7.30297e-13
-1.04528e-12
-1.0204e-12
-1.57769e-12
-1.62668e-12
-1.65292e-12
-1.24412e-12
-9.65857e-13
1.90524e-13
3.37434e-13
5.42659e-13
8.13073e-13
1.37807e-12
1.41767e-12
1.16657e-12
1.26575e-12
7.13189e-13
8.29605e-13
4.78125e-13
-1.62534e-13
-1.8293e-13
-7.8599e-13
-8.98313e-13
-1.25017e-12
-1.34514e-12
-1.38611e-12
-9.66231e-13
-1.02444e-12
-1.30052e-12
-9.2505e-13
-5.99865e-13
-8.69075e-13
-1.22312e-12
-3.14512e-13
-7.21029e-13
-4.93655e-13
-5.10896e-13
-4.93228e-13
-1.54027e-13
-2.94383e-13
-6.4067e-14
1.81416e-13
-4.79425e-13
-8.56476e-13
-9.65361e-13
-1.46205e-12
-1.72362e-12
-1.55152e-12
-1.1887e-12
-1.01522e-12
-1.08952e-12
-1.53564e-12
-1.42174e-12
-1.14931e-12
-1.17604e-12
-1.0216e-12
-8.79562e-13
-3.11623e-13
-3.80905e-13
-1.2091e-13
-5.51863e-13
-1.11511e-12
-9.13319e-13
-7.98268e-13
-5.06589e-13
-3.86523e-13
-5.67525e-13
-4.82367e-13
-5.09531e-13
-5.59995e-13
-6.08706e-13
-9.63181e-13
-2.50687e-13
-5.97606e-14
5.93832e-13
2.92374e-13
6.2236e-13
7.0479e-13
5.07309e-13
-9.85478e-14
-1.39729e-13
-6.4067e-14
-2.24887e-13
-2.23523e-13
-1.57785e-13
-1.62587e-13
5.45174e-13
6.64531e-13
5.34755e-13
4.91059e-13
1.13308e-12
1.17541e-12
1.14219e-12
1.60048e-12
1.33831e-12
9.61187e-13
9.07072e-13
8.13716e-14
-1.00233e-13
4.43979e-13
3.41366e-13
-3.02234e-13
-2.73919e-13
3.05977e-16
4.53689e-13
6.13145e-13
7.09591e-13
7.36756e-13
1.39465e-12
1.71199e-12
1.30634e-12
7.83675e-13
1.06789e-12
6.24219e-13
8.98726e-13
1.14012e-12
1.43519e-12
2.11535e-12
2.69824e-12
3.14557e-12
3.16908e-12
2.85224e-12
2.95889e-12
2.32254e-12
2.43917e-12
3.02004e-12
3.06287e-12
2.46612e-12
2.7954e-12
2.70751e-12
2.95076e-12
3.44647e-12
3.54751e-12
3.5774e-12
4.27627e-12
4.77951e-12
4.765e-12
4.42667e-12
4.65268e-12
5.29656e-12
5.23871e-12
5.38466e-12
5.30648e-12
5.41693e-12
5.54766e-12
4.7742e-12
4.06865e-12
3.7322e-12
3.09145e-12
3.24589e-12
3.04339e-12
2.43694e-12
2.63412e-12
2.8712e-12
2.88637e-12
1.85585e-12
2.04413e-12
1.76963e-12
2.29846e-12
2.03442e-12
1.76128e-12
1.36747e-12
6.54092e-13
6.47411e-13
5.22437e-13
1.7218e-13
4.94122e-13
-6.39466e-15
-6.89961e-14
8.33109e-13
5.18698e-13
1.8274e-13
1.31869e-13
-3.44445e-13
-3.91578e-13
6.42517e-14
3.37394e-13
2.20678e-13
1.1943e-13
2.74084e-13
5.84951e-13
6.12221e-14
4.47343e-13
4.15785e-13
6.44522e-13
2.92689e-13
1.12749e-13
1.87047e-13
2.92689e-13
-4.97362e-14
-5.91454e-14
1.0031e-13
1.49109e-13
7.17819e-14
-1.75988e-13
-5.1999e-13
-6.17588e-13
-5.00658e-13
-1.48911e-13
6.39506e-14
-6.05096e-14
-1.39201e-13
-7.31619e-14
-1.5414e-13
-3.35745e-13
-3.35745e-13
-6.67964e-13
-6.175e-13
-9.75306e-13
-4.0912e-13
5.59057e-14
4.64583e-13
-2.41498e-14
-5.26783e-14
-3.91578e-13
-4.70978e-13
-2.61447e-13
-7.58138e-13
-6.19165e-13
-5.11946e-13
-4.61569e-13
-1.58534e-13
3.26936e-14
3.46803e-13
-1.39201e-13
-4.96919e-13
-4.49786e-13
-7.55763e-13
-5.24083e-13
-5.72882e-13
-3.60748e-13
6.31214e-13
3.69146e-12
1.00678e-11
2.74901e-11
6.9285e-11
1.72685e-10
4.25055e-10
1.03734e-09
2.50632e-09
5.99395e-09
1.41902e-08
3.32487e-08
7.709e-08
1.76832e-07
4.01209e-07
9.00175e-07
1.99677e-06
4.37794e-06
9.48508e-06
2.03014e-05
4.29148e-05
8.95688e-05
0.00018452
0.000375087
0.000752101
0.00148705
0.00289815
0.0055654
0.0105263
0.0196006
0.0359158
0.0647313
0.114693
0.199674
0.341368
0.57277
0.942585
1.5204
2.40209
3.71456
5.61809
8.3043
11.987
16.8832
23.1823
31.0009
40.34
51.082
63.012
75.858
89.3367
103.191
117.214
131.25
145.193
158.975
172.55
185.892
198.982
211.809
224.362
236.635
248.62
260.314
271.711
282.808
293.602
304.091
314.273
324.147
333.714
342.972
351.922
360.566
368.903
376.936
384.667
392.098
399.231
406.068
412.613
418.869
424.839
430.527
435.937
441.072
445.937
450.537
454.875
458.958
462.789
466.374
469.719
472.83
475.712
478.371
480.814
483.048
485.079
486.915
488.563
490.03
491.326
492.457
493.433
494.261
494.952
495.513
495.954
496.285
496.514
496.65
496.704
496.683
496.597
496.454
496.263
496.03
495.762
495.467
495.149
494.814
494.465
494.106
493.738
493.362
492.975
492.574
492.152
491.699
491.199
490.629
489.96
489.155
488.164
486.931
485.386
483.456
481.059
478.114
474.545
470.284
465.283
459.515
452.981
445.711
437.771
429.255
420.285
411.003
401.568
392.143
382.889
373.955
365.474
357.554
350.278
343.7
337.847
332.721
328.301
324.547
321.407
318.817
316.712
315.02
313.673
312.606
311.758
311.072
310.499
309.992
309.508
309.01
308.459
307.819
307.051
306.114
304.959
303.534
301.773
299.597
296.91
293.591
289.489
284.408
278.098
270.229
260.356
247.867
231.876
211.032
183.264
146.018
99.0707
51.4455
19.4337
5.71603
1.47008
0.361562
0.0880098
0.0213787
0.00519016
0.00125951
0.000305522
7.40779e-05
1.79528e-05
4.3488e-06
1.0529e-06
2.54791e-07
6.16238e-08
1.48962e-08
3.59875e-09
8.68911e-10
2.09666e-10
5.06097e-11
1.22901e-11
3.06861e-12
8.90751e-13
3.76328e-13
2.68864e-13
1.43205e-13
6.38183e-14
-2.49243e-14
-2.59681e-15
2.32575e-14
5.70539e-14
1.91139e-14
4.6475e-14
5.91297e-14
1.26885e-13
3.78054e-14
6.95261e-14
3.90326e-14
5.18497e-14
6.60606e-14
7.2829e-14
8.54756e-14
1.29839e-13
7.80291e-14
9.38082e-14
1.11655e-13
9.57094e-14
6.72877e-14
1.78868e-14
6.77993e-14
1.47694e-13
1.88592e-13
1.77846e-13
1.01413e-13
1.35214e-13
1.81819e-13
1.49591e-13
1.04887e-13
9.46488e-14
7.09237e-14
1.03322e-13
7.33366e-14
4.26725e-14
8.72064e-14
6.39888e-14
8.70398e-14
5.81105e-14
1.91216e-13
1.34702e-13
8.51346e-14
1.59815e-14
6.38183e-14
3.34953e-14
4.09338e-14
7.83662e-14
3.90326e-14
4.89908e-15
-1.93831e-14
-1.85464e-14
-3.06855e-14
-1.43454e-14
1.5474e-14
-1.87129e-14
-4.71386e-14
-9.62145e-14
-1.46355e-13
-1.15296e-13
-9.20709e-14
-1.70808e-13
-9.91803e-14
-1.79144e-13
-1.72205e-13
-2.12774e-13
-1.5346e-13
-2.358e-14
-1.16694e-13
-1.21732e-13
-2.26319e-13
-2.21452e-13
-1.65104e-13
-2.19213e-13
-2.34826e-13
-2.31689e-13
-1.75675e-13
-2.69183e-13
-2.41428e-13
-1.50381e-13
-1.71531e-13
-2.56479e-13
-2.09142e-13
-2.92462e-13
-4.08457e-13
-3.58994e-13
-3.97166e-13
-4.40871e-13
-4.59567e-13
-3.81009e-13
-3.08711e-13
-2.537e-13
-2.33781e-13
-1.55041e-13
-1.24823e-13
-9.70711e-14
-1.41167e-13
-1.49109e-13
-1.58457e-13
-3.04775e-14
5.26557e-15
4.45992e-14
-6.8263e-14
-3.89472e-14
1.18594e-14
-1.65663e-14
-8.28229e-14
-5.42266e-14
-9.83142e-14
-2.16605e-13
-2.2891e-13
-2.49166e-13
-2.14479e-13
-1.57579e-13
-2.12669e-14
-3.92842e-14
-6.98391e-14
-1.69034e-14
-6.20726e-16
-5.09737e-15
5.41589e-14
2.7805e-14
6.6635e-14
2.71269e-14
2.97062e-14
-9.49659e-14
-7.95199e-14
-2.85428e-14
-2.88759e-14
-3.84436e-14
-1.63958e-14
1.11799e-15
7.18352e-14
7.33994e-14
2.40025e-14
7.91112e-14
1.43231e-13
1.11343e-13
5.46625e-14
8.39395e-15
-8.92502e-14
-8.42165e-14
-1.27755e-13
-1.3469e-13
-7.99064e-14
-6.47975e-14
-8.56142e-14
-2.90424e-14
-5.15978e-14
-4.60566e-14
-9.35683e-14
-5.14847e-14
-9.56321e-14
9.47464e-16
-3.68794e-14
-3.39135e-14
-4.79619e-14
-1.55591e-14
-6.32849e-15
2.19227e-14
6.35026e-14
-2.22741e-14
5.22496e-14
5.39804e-14
2.38319e-14
-8.67959e-14
1.49918e-14
2.0529e-14
1.37647e-14
1.56699e-14
5.1201e-14
-1.41495e-14
-9.11514e-14
-8.858e-14
-9.80943e-14
-3.51407e-14
1.41057e-14
-2.18492e-15
-2.35945e-15
-3.87352e-14
-3.91297e-14
-8.14292e-14
-2.17785e-14
-5.681e-14
2.84472e-15
2.88616e-14
5.74538e-14
1.39424e-13
8.27431e-14
6.45553e-14
9.50527e-14
4.18453e-14
1.1307e-13
1.05794e-13
5.20831e-14
4.34135e-14
6.06404e-16
-2.85468e-14
-6.76008e-14
-4.43713e-14
-6.51306e-14
-1.77934e-14
-3.91137e-14
6.14764e-15
-2.5581e-14
-9.80194e-15
-1.65743e-14
2.74639e-14
6.82177e-15
-3.02776e-14
6.4887e-15
-2.38423e-14
1.56619e-14
-7.90163e-14
-3.34099e-14
-9.46289e-14
-3.65423e-14
4.94623e-14
3.52515e-14
-8.42165e-14
-5.23214e-14
-1.32634e-14
-2.96034e-14
-1.1785e-13
-3.02776e-14
-1.97027e-14
-2.42367e-14
-6.11655e-14
-7.86793e-14
-1.03302e-13
-5.26584e-14
-2.87054e-14
9.86887e-14
6.81992e-14
4.13417e-14
5.79654e-14
2.7805e-14
1.17047e-13
2.62408e-14
8.98566e-14
3.49104e-14
-1.20897e-14
2.79755e-14
7.91112e-14
8.05088e-14
1.30754e-13
-6.15796e-15
-2.96034e-14
-8.45536e-14
-2.59675e-14
-6.98351e-14
-4.66096e-14
-1.16573e-15
1.08897e-13
1.33861e-13
1.90875e-13
2.3367e-13
2.67126e-13
2.99187e-13
3.51001e-13
3.04392e-13
3.48592e-13
2.43056e-13
1.43405e-13
9.71325e-14
4.18453e-14
2.06956e-14
2.74639e-14
4.91213e-14
-3.39135e-14
-1.08625e-14
-8.59592e-14
-1.24267e-14
2.72974e-14
6.83658e-14
2.74639e-14
-4.29282e-14
-7.91256e-16
9.3322e-14
1.56044e-13
9.36631e-14
1.13935e-13
1.44424e-13
2.18948e-13
1.77364e-13
1.31087e-13
1.3058e-13
4.09927e-14
7.36677e-15
-1.31088e-14
-1.27678e-14
-5.43972e-14
-4.96926e-14
-6.20022e-14
-6.4968e-14
-6.16197e-14
-3.91297e-14
-4.44964e-14
-4.15306e-14
-1.93696e-14
-2.01439e-15
1.1532e-13
1.76145e-13
1.6557e-13
2.18956e-13
2.60191e-13
8.79219e-14
6.14014e-14
1.07841e-13
1.58976e-13
1.73016e-13
1.14093e-13
2.13817e-14
-9.11514e-14
-1.80296e-13
-2.38773e-13
-2.45375e-13
-2.639e-13
-2.50197e-13
-2.80028e-13
-2.86634e-13
-2.1103e-13
-1.85675e-13
-1.69726e-13
-1.76327e-13
-1.79797e-13
-1.40568e-13
-3.02736e-14
1.25375e-14
-2.16454e-14
3.09079e-14
6.08978e-14
1.48576e-13
8.65242e-14
1.7196e-13
1.80463e-13
2.1376e-13
1.92444e-13
1.78062e-13
3.00926e-13
2.33508e-13
2.00053e-13
1.64351e-13
1.8533e-13
2.19297e-13
2.35576e-13
2.14085e-13
1.58976e-13
1.2379e-13
1.57079e-13
1.55007e-13
2.24834e-13
2.28133e-13
2.47378e-13
2.24323e-13
1.67479e-13
1.03701e-13
1.55511e-13
1.3766e-13
1.58806e-13
1.53439e-13
1.66252e-13
1.29157e-13
8.02347e-15
-7.21069e-14
-1.25879e-13
-3.13636e-14
4.02517e-14
7.71805e-14
1.53609e-13
1.14442e-13
9.34631e-14
4.54599e-14
-3.7916e-14
-5.77255e-14
-1.30243e-13
-1.25709e-13
-1.47033e-13
-1.43568e-13
-1.24652e-13
-1.00029e-13
-1.49105e-13
-1.81898e-13
-1.17717e-13
)
;

boundaryField
{
    sides
    {
        type            calculated;
        value           nonuniform List<scalar> 2(-7.27596e-14 1.04774e-12);
    }
    empty
    {
        type            empty;
    }
}


// ************************************************************************* //
