/*--------------------------------*- C++ -*----------------------------------*\
  =========                 |
  \\      /  F ield         | OpenFOAM: The Open Source CFD Toolbox
   \\    /   O peration     | Website:  https://openfoam.org
    \\  /    A nd           | Version:  13
     \\/     M anipulation  |
\*---------------------------------------------------------------------------*/
FoamFile
{
    format      ascii;
    class       volScalarField;
    location    "3700";
    object      p;
}
// * * * * * * * * * * * * * * * * * * * * * * * * * * * * * * * * * * * * * //

dimensions      [0 2 -2 0 0 0 0];

internalField   nonuniform List<scalar> 
25000
(
-2.35576e-08
-2.32748e-06
-3.01941e-06
-3.80512e-06
-3.70598e-06
-3.54123e-06
-2.92817e-06
-2.13347e-06
-6.73478e-07
8.39082e-07
2.8784e-06
5.04462e-06
7.59725e-06
1.03482e-05
1.34262e-05
1.65938e-05
2.00079e-05
2.33713e-05
2.68893e-05
3.02115e-05
3.35771e-05
3.65961e-05
3.95185e-05
4.195e-05
4.41133e-05
4.56788e-05
4.67751e-05
4.72145e-05
4.70505e-05
4.61859e-05
4.46163e-05
4.2754e-05
4.06639e-05
3.83004e-05
3.5791e-05
3.31097e-05
3.04126e-05
2.76681e-05
2.4992e-05
2.23905e-05
1.98591e-05
1.75223e-05
1.51636e-05
1.30983e-05
1.08834e-05
9.02188e-06
6.99968e-06
5.32348e-06
3.44122e-06
1.75439e-06
-7.34518e-08
-2.32539e-06
-3.01732e-06
-3.80325e-06
-3.70456e-06
-3.54027e-06
-2.92764e-06
-2.13333e-06
-6.7372e-07
8.38532e-07
2.87755e-06
5.04352e-06
7.59591e-06
1.03466e-05
1.34244e-05
1.65918e-05
2.00059e-05
2.33692e-05
2.68872e-05
3.02093e-05
3.35749e-05
3.65939e-05
3.95164e-05
4.19481e-05
4.41114e-05
4.56771e-05
4.67737e-05
4.72132e-05
4.70495e-05
4.61851e-05
4.46158e-05
4.27539e-05
4.0664e-05
3.83008e-05
3.57917e-05
3.31106e-05
3.04138e-05
2.76695e-05
2.49935e-05
2.23923e-05
1.9861e-05
1.75242e-05
1.51656e-05
1.31003e-05
1.08853e-05
9.0236e-06
7.00117e-06
5.32468e-06
3.44226e-06
1.75552e-06
-7.79006e-08
-2.32309e-06
-3.01533e-06
-3.80161e-06
-3.7034e-06
-3.53958e-06
-2.9274e-06
-2.13357e-06
-6.74418e-07
8.37434e-07
2.87609e-06
5.04173e-06
7.59382e-06
1.03443e-05
1.34218e-05
1.65891e-05
2.0003e-05
2.33662e-05
2.68841e-05
3.02063e-05
3.3572e-05
3.65911e-05
3.95137e-05
4.19456e-05
4.41092e-05
4.56752e-05
4.6772e-05
4.72119e-05
4.70485e-05
4.61845e-05
4.46157e-05
4.27542e-05
4.06646e-05
3.83018e-05
3.5793e-05
3.31122e-05
3.04157e-05
2.76716e-05
2.49959e-05
2.23948e-05
1.98636e-05
1.75269e-05
1.51683e-05
1.3103e-05
1.08879e-05
9.02602e-06
7.00336e-06
5.32664e-06
3.444e-06
1.75721e-06
-7.11409e-08
-2.31972e-06
-3.01306e-06
-3.80008e-06
-3.70256e-06
-3.53934e-06
-2.92781e-06
-2.13475e-06
-6.76359e-07
8.34807e-07
2.87282e-06
5.0379e-06
7.58949e-06
1.03395e-05
1.34167e-05
1.65836e-05
1.99973e-05
2.33604e-05
2.68784e-05
3.02006e-05
3.35665e-05
3.65859e-05
3.95089e-05
4.19412e-05
4.41054e-05
4.56719e-05
4.67694e-05
4.721e-05
4.70472e-05
4.6184e-05
4.46161e-05
4.27553e-05
4.06665e-05
3.83042e-05
3.5796e-05
3.31158e-05
3.04198e-05
2.76761e-05
2.50007e-05
2.23999e-05
1.98689e-05
1.75322e-05
1.51736e-05
1.31081e-05
1.08928e-05
9.03068e-06
7.00775e-06
5.3308e-06
3.4478e-06
1.76061e-06
-6.37428e-08
-2.31455e-06
-3.01019e-06
-3.79852e-06
-3.70208e-06
-3.5397e-06
-2.92912e-06
-2.13732e-06
-6.80188e-07
8.29841e-07
2.86678e-06
5.03092e-06
7.58167e-06
1.03309e-05
1.34075e-05
1.6574e-05
1.99874e-05
2.33504e-05
2.68684e-05
3.01908e-05
3.35571e-05
3.65771e-05
3.95008e-05
4.1934e-05
4.40991e-05
4.56667e-05
4.67653e-05
4.72072e-05
4.70456e-05
4.61838e-05
4.46173e-05
4.27579e-05
4.06701e-05
3.8309e-05
3.58017e-05
3.31225e-05
3.04272e-05
2.76842e-05
2.50094e-05
2.24089e-05
1.98781e-05
1.75415e-05
1.51827e-05
1.3117e-05
1.09013e-05
9.03881e-06
7.01554e-06
5.33834e-06
3.45472e-06
1.76669e-06
-5.50327e-08
-2.30717e-06
-3.00644e-06
-3.79678e-06
-3.70186e-06
-3.54067e-06
-2.93147e-06
-2.14152e-06
-6.86254e-07
8.22089e-07
2.85743e-06
5.02016e-06
7.56966e-06
1.03178e-05
1.33934e-05
1.65593e-05
1.99723e-05
2.33351e-05
2.68533e-05
3.01761e-05
3.35431e-05
3.65639e-05
3.94887e-05
4.19232e-05
4.40898e-05
4.56591e-05
4.67595e-05
4.72032e-05
4.70435e-05
4.61837e-05
4.46194e-05
4.27621e-05
4.0676e-05
3.83164e-05
3.58107e-05
3.31327e-05
3.04387e-05
2.76967e-05
2.50226e-05
2.24226e-05
1.98921e-05
1.75555e-05
1.51965e-05
1.31304e-05
1.09141e-05
9.05111e-06
7.02737e-06
5.34987e-06
3.46534e-06
1.77594e-06
-4.37222e-08
-2.29754e-06
-3.00167e-06
-3.79469e-06
-3.70179e-06
-3.54213e-06
-2.9348e-06
-2.14733e-06
-6.94517e-07
8.11586e-07
2.8448e-06
5.00567e-06
7.5535e-06
1.03001e-05
1.33746e-05
1.65396e-05
1.99521e-05
2.33147e-05
2.68331e-05
3.01564e-05
3.35243e-05
3.65463e-05
3.94726e-05
4.19089e-05
4.40775e-05
4.56491e-05
4.67519e-05
4.71982e-05
4.7041e-05
4.61839e-05
4.46225e-05
4.27679e-05
4.06839e-05
3.83264e-05
3.58227e-05
3.31466e-05
3.04541e-05
2.77134e-05
2.50402e-05
2.24409e-05
1.99107e-05
1.75742e-05
1.52149e-05
1.31482e-05
1.09313e-05
9.06751e-06
7.04316e-06
5.36526e-06
3.47951e-06
1.7883e-06
-3.00561e-08
-2.28602e-06
-2.99593e-06
-3.79218e-06
-3.70174e-06
-3.54394e-06
-2.9389e-06
-2.15445e-06
-7.04578e-07
7.98822e-07
2.82947e-06
4.9881e-06
7.53392e-06
1.02788e-05
1.33518e-05
1.65158e-05
1.99277e-05
2.32901e-05
2.68087e-05
3.01327e-05
3.35016e-05
3.65251e-05
3.94533e-05
4.18917e-05
4.40628e-05
4.56372e-05
4.67429e-05
4.71922e-05
4.7038e-05
4.61842e-05
4.46262e-05
4.27748e-05
4.06935e-05
3.83386e-05
3.58372e-05
3.31633e-05
3.04726e-05
2.77335e-05
2.50615e-05
2.2463e-05
1.99332e-05
1.75967e-05
1.5237e-05
1.31697e-05
1.09519e-05
9.08727e-06
7.06217e-06
5.38375e-06
3.49654e-06
1.80317e-06
-1.48456e-08
-2.27311e-06
-2.98939e-06
-3.78927e-06
-3.7016e-06
-3.54595e-06
-2.94355e-06
-2.16252e-06
-7.15934e-07
7.84423e-07
2.8122e-06
4.96829e-06
7.51185e-06
1.02547e-05
1.33262e-05
1.6489e-05
1.99002e-05
2.32624e-05
2.67813e-05
3.01061e-05
3.34762e-05
3.65014e-05
3.94316e-05
4.18725e-05
4.40464e-05
4.56238e-05
4.67329e-05
4.71857e-05
4.70348e-05
4.61846e-05
4.46304e-05
4.27826e-05
4.07043e-05
3.83522e-05
3.58535e-05
3.3182e-05
3.04934e-05
2.7756e-05
2.50854e-05
2.24878e-05
1.99585e-05
1.7622e-05
1.52619e-05
1.31939e-05
1.09751e-05
9.10943e-06
7.08346e-06
5.4044e-06
3.51554e-06
1.81983e-06
1.28279e-09
-2.25922e-06
-2.9822e-06
-3.78598e-06
-3.70134e-06
-3.54804e-06
-2.94858e-06
-2.17126e-06
-7.28193e-07
7.6888e-07
2.79356e-06
4.94693e-06
7.48805e-06
1.02287e-05
1.32986e-05
1.64601e-05
1.98706e-05
2.32326e-05
2.67518e-05
3.00774e-05
3.34489e-05
3.64758e-05
3.94083e-05
4.18519e-05
4.40288e-05
4.56096e-05
4.67222e-05
4.71787e-05
4.70314e-05
4.61852e-05
4.4635e-05
4.2791e-05
4.07159e-05
3.83669e-05
3.5871e-05
3.32021e-05
3.05158e-05
2.77802e-05
2.5111e-05
2.25145e-05
1.99856e-05
1.76492e-05
1.52887e-05
1.322e-05
1.1e-05
9.13326e-06
7.10629e-06
5.4265e-06
3.53586e-06
1.8377e-06
1.79892e-08
-2.2446e-06
-2.97447e-06
-3.78236e-06
-3.70094e-06
-3.55018e-06
-2.95388e-06
-2.18049e-06
-7.41123e-07
7.52487e-07
2.77391e-06
4.92441e-06
7.46296e-06
1.02014e-05
1.32694e-05
1.64297e-05
1.98394e-05
2.32012e-05
2.67208e-05
3.00473e-05
3.34201e-05
3.6449e-05
3.93839e-05
4.18303e-05
4.40104e-05
4.55947e-05
4.6711e-05
4.71714e-05
4.7028e-05
4.61859e-05
4.46398e-05
4.27999e-05
4.07281e-05
3.83823e-05
3.58894e-05
3.32233e-05
3.05392e-05
2.78057e-05
2.51379e-05
2.25424e-05
2.00141e-05
1.76778e-05
1.53169e-05
1.32473e-05
1.10262e-05
9.1583e-06
7.13025e-06
5.44962e-06
3.55709e-06
1.85645e-06
3.51036e-08
-2.22938e-06
-2.96628e-06
-3.77843e-06
-3.7004e-06
-3.55234e-06
-2.9594e-06
-2.19014e-06
-7.54595e-07
7.35406e-07
2.75344e-06
4.90095e-06
7.43682e-06
1.01729e-05
1.32391e-05
1.6398e-05
1.9807e-05
2.31686e-05
2.66885e-05
3.00159e-05
3.33903e-05
3.64211e-05
3.93585e-05
4.18078e-05
4.39912e-05
4.55793e-05
4.66994e-05
4.7164e-05
4.70245e-05
4.61867e-05
4.46448e-05
4.2809e-05
4.07407e-05
3.83983e-05
3.59085e-05
3.32452e-05
3.05636e-05
2.78321e-05
2.51659e-05
2.25715e-05
2.00437e-05
1.77075e-05
1.53461e-05
1.32758e-05
1.10535e-05
9.18431e-06
7.15509e-06
5.47353e-06
3.57903e-06
1.87588e-06
5.25351e-08
-2.21364e-06
-2.95764e-06
-3.77421e-06
-3.69973e-06
-3.5545e-06
-2.96511e-06
-2.20013e-06
-7.68542e-07
7.17721e-07
2.73226e-06
4.87668e-06
7.40978e-06
1.01435e-05
1.32078e-05
1.63653e-05
1.97735e-05
2.31349e-05
2.66552e-05
2.99836e-05
3.33595e-05
3.63924e-05
3.93323e-05
4.17847e-05
4.39715e-05
4.55634e-05
4.66875e-05
4.71564e-05
4.7021e-05
4.61875e-05
4.46499e-05
4.28184e-05
4.07537e-05
3.84148e-05
3.59282e-05
3.32678e-05
3.05886e-05
2.78593e-05
2.51947e-05
2.26014e-05
2.00742e-05
1.77382e-05
1.53764e-05
1.33052e-05
1.10816e-05
9.21115e-06
7.18069e-06
5.49811e-06
3.60157e-06
1.8959e-06
7.02334e-08
-2.19742e-06
-2.9486e-06
-3.76971e-06
-3.69891e-06
-3.55667e-06
-2.97099e-06
-2.21046e-06
-7.82925e-07
6.99483e-07
2.71042e-06
4.85166e-06
7.38191e-06
1.01131e-05
1.31755e-05
1.63316e-05
1.97391e-05
2.31002e-05
2.66209e-05
2.99503e-05
3.33277e-05
3.63628e-05
3.93054e-05
4.1761e-05
4.39513e-05
4.55472e-05
4.66754e-05
4.71486e-05
4.70174e-05
4.61885e-05
4.46552e-05
4.2828e-05
4.0767e-05
3.84317e-05
3.59483e-05
3.3291e-05
3.06144e-05
2.78872e-05
2.52243e-05
2.26322e-05
2.01057e-05
1.77697e-05
1.54075e-05
1.33355e-05
1.11106e-05
9.23876e-06
7.20698e-06
5.52329e-06
3.62464e-06
1.91645e-06
8.81712e-08
-2.18075e-06
-2.93915e-06
-3.76493e-06
-3.69796e-06
-3.55884e-06
-2.97704e-06
-2.22111e-06
-7.97725e-07
6.80718e-07
2.68797e-06
4.82593e-06
7.35324e-06
1.00819e-05
1.31424e-05
1.6297e-05
1.97036e-05
2.30646e-05
2.65857e-05
2.99161e-05
3.32952e-05
3.63325e-05
3.92779e-05
4.17367e-05
4.39306e-05
4.55306e-05
4.6663e-05
4.71407e-05
4.70138e-05
4.61895e-05
4.46606e-05
4.28379e-05
4.07807e-05
3.8449e-05
3.5969e-05
3.33147e-05
3.06408e-05
2.79158e-05
2.52546e-05
2.26638e-05
2.01379e-05
1.78021e-05
1.54394e-05
1.33666e-05
1.11403e-05
9.26709e-06
7.23391e-06
5.54902e-06
3.6482e-06
1.93751e-06
1.06335e-07
-2.16364e-06
-2.92931e-06
-3.75987e-06
-3.69688e-06
-3.56102e-06
-2.98325e-06
-2.23206e-06
-8.12932e-07
6.61439e-07
2.6649e-06
4.79951e-06
7.32381e-06
1.00499e-05
1.31083e-05
1.62615e-05
1.96673e-05
2.3028e-05
2.65496e-05
2.98811e-05
3.32619e-05
3.63015e-05
3.92497e-05
4.17118e-05
4.39095e-05
4.55136e-05
4.66503e-05
4.71327e-05
4.70102e-05
4.61907e-05
4.46661e-05
4.2848e-05
4.07947e-05
3.84668e-05
3.59902e-05
3.33391e-05
3.06678e-05
2.79451e-05
2.52857e-05
2.26961e-05
2.01709e-05
1.78353e-05
1.54721e-05
1.33984e-05
1.11708e-05
9.29612e-06
7.26147e-06
5.57529e-06
3.67224e-06
1.95905e-06
1.2472e-07
-2.1461e-06
-2.91908e-06
-3.75456e-06
-3.69567e-06
-3.56322e-06
-2.98963e-06
-2.24332e-06
-8.2854e-07
6.41654e-07
2.64125e-06
4.77242e-06
7.29363e-06
1.00171e-05
1.30734e-05
1.62251e-05
1.96301e-05
2.29906e-05
2.65127e-05
2.98453e-05
3.32278e-05
3.62698e-05
3.92208e-05
4.16864e-05
4.38879e-05
4.54963e-05
4.66374e-05
4.71246e-05
4.70066e-05
4.61919e-05
4.46718e-05
4.28584e-05
4.0809e-05
3.84849e-05
3.60118e-05
3.33639e-05
3.06954e-05
2.79751e-05
2.53174e-05
2.27292e-05
2.02046e-05
1.78692e-05
1.55057e-05
1.34311e-05
1.12021e-05
9.32583e-06
7.28964e-06
5.60208e-06
3.69674e-06
1.98107e-06
1.43323e-07
-2.12815e-06
-2.90846e-06
-3.74897e-06
-3.69434e-06
-3.56542e-06
-2.99618e-06
-2.25488e-06
-8.44548e-07
6.21366e-07
2.617e-06
4.74465e-06
7.2627e-06
9.98343e-06
1.30377e-05
1.61879e-05
1.9592e-05
2.29523e-05
2.64749e-05
2.98086e-05
3.31929e-05
3.62373e-05
3.91913e-05
4.16605e-05
4.38658e-05
4.54787e-05
4.66243e-05
4.71164e-05
4.70029e-05
4.61932e-05
4.46776e-05
4.28689e-05
4.08236e-05
3.85035e-05
3.60339e-05
3.33893e-05
3.07236e-05
2.80057e-05
2.53499e-05
2.2763e-05
2.02392e-05
1.7904e-05
1.554e-05
1.34645e-05
1.1234e-05
9.35623e-06
7.31842e-06
5.62939e-06
3.72169e-06
2.00355e-06
1.62147e-07
-2.10977e-06
-2.89746e-06
-3.74313e-06
-3.69288e-06
-3.56764e-06
-3.0029e-06
-2.26675e-06
-8.60957e-07
6.00577e-07
2.59217e-06
4.71621e-06
7.23103e-06
9.949e-06
1.30011e-05
1.61498e-05
1.95531e-05
2.29132e-05
2.64362e-05
2.97711e-05
3.31573e-05
3.62042e-05
3.91612e-05
4.1634e-05
4.38434e-05
4.54608e-05
4.6611e-05
4.7108e-05
4.69993e-05
4.61946e-05
4.46835e-05
4.28797e-05
4.08385e-05
3.85224e-05
3.60564e-05
3.34153e-05
3.07524e-05
2.8037e-05
2.5383e-05
2.27975e-05
2.02745e-05
1.79395e-05
1.5575e-05
1.34987e-05
1.12667e-05
9.3873e-06
7.3478e-06
5.65722e-06
3.7471e-06
2.0265e-06
1.81191e-07
-2.09098e-06
-2.88608e-06
-3.73703e-06
-3.69131e-06
-3.56989e-06
-3.00979e-06
-2.27893e-06
-8.77765e-07
5.79287e-07
2.56675e-06
4.68711e-06
7.19862e-06
9.91378e-06
1.29638e-05
1.61108e-05
1.95133e-05
2.28732e-05
2.63968e-05
2.97329e-05
3.31209e-05
3.61703e-05
3.91305e-05
4.1607e-05
4.38204e-05
4.54425e-05
4.65974e-05
4.70996e-05
4.69956e-05
4.61961e-05
4.46896e-05
4.28907e-05
4.08537e-05
3.85417e-05
3.60794e-05
3.34418e-05
3.07818e-05
2.80689e-05
2.54169e-05
2.28328e-05
2.03105e-05
1.79757e-05
1.56109e-05
1.35336e-05
1.13001e-05
9.41904e-06
7.37778e-06
5.68556e-06
3.77296e-06
2.04992e-06
2.00457e-07
-2.07177e-06
-2.87431e-06
-3.73066e-06
-3.68962e-06
-3.57216e-06
-3.01686e-06
-2.29142e-06
-8.94974e-07
5.57498e-07
2.54074e-06
4.65735e-06
7.16548e-06
9.87778e-06
1.29255e-05
1.6071e-05
1.94726e-05
2.28323e-05
2.63564e-05
2.96938e-05
3.30837e-05
3.61358e-05
3.90991e-05
4.15795e-05
4.37971e-05
4.54239e-05
4.65836e-05
4.7091e-05
4.6992e-05
4.61977e-05
4.46958e-05
4.29019e-05
4.08692e-05
3.85614e-05
3.61029e-05
3.34688e-05
3.08118e-05
2.81015e-05
2.54514e-05
2.28687e-05
2.03473e-05
1.80128e-05
1.56475e-05
1.35693e-05
1.13343e-05
9.45145e-06
7.40836e-06
5.7144e-06
3.79927e-06
2.07379e-06
2.19945e-07
-2.05216e-06
-2.86216e-06
-3.72404e-06
-3.68782e-06
-3.57446e-06
-3.02411e-06
-2.30422e-06
-9.12583e-07
5.35211e-07
2.51416e-06
4.62693e-06
7.13162e-06
9.841e-06
1.28865e-05
1.60304e-05
1.94311e-05
2.27906e-05
2.63153e-05
2.96539e-05
3.30459e-05
3.61006e-05
3.90672e-05
4.15515e-05
4.37733e-05
4.5405e-05
4.65695e-05
4.70824e-05
4.69883e-05
4.61993e-05
4.47021e-05
4.29133e-05
4.08849e-05
3.85815e-05
3.61268e-05
3.34963e-05
3.08423e-05
2.81347e-05
2.54866e-05
2.29054e-05
2.03848e-05
1.80506e-05
1.56848e-05
1.36058e-05
1.13692e-05
9.48453e-06
7.43954e-06
5.74374e-06
3.82601e-06
2.09813e-06
2.39654e-07
-2.03214e-06
-2.84964e-06
-3.71717e-06
-3.68591e-06
-3.5768e-06
-3.03154e-06
-2.31734e-06
-9.3059e-07
5.1243e-07
2.48701e-06
4.59585e-06
7.09703e-06
9.80344e-06
1.28467e-05
1.59889e-05
1.93887e-05
2.2748e-05
2.62733e-05
2.96133e-05
3.30072e-05
3.60648e-05
3.90347e-05
4.15229e-05
4.37491e-05
4.53858e-05
4.65553e-05
4.70736e-05
4.69846e-05
4.62011e-05
4.47086e-05
4.29249e-05
4.0901e-05
3.8602e-05
3.61511e-05
3.35243e-05
3.08734e-05
2.81685e-05
2.55224e-05
2.29428e-05
2.0423e-05
1.80891e-05
1.57229e-05
1.3643e-05
1.14047e-05
9.51827e-06
7.4713e-06
5.77358e-06
3.85319e-06
2.12291e-06
2.59582e-07
-2.01173e-06
-2.83673e-06
-3.71004e-06
-3.68389e-06
-3.57918e-06
-3.03915e-06
-2.33076e-06
-9.48994e-07
4.89159e-07
2.45928e-06
4.56414e-06
7.06173e-06
9.76513e-06
1.2806e-05
1.59466e-05
1.93455e-05
2.27047e-05
2.62306e-05
2.95719e-05
3.29679e-05
3.60282e-05
3.90015e-05
4.14939e-05
4.37245e-05
4.53663e-05
4.65409e-05
4.70648e-05
4.6981e-05
4.6203e-05
4.47151e-05
4.29367e-05
4.09174e-05
3.86228e-05
3.61759e-05
3.35529e-05
3.09051e-05
2.82029e-05
2.55589e-05
2.29809e-05
2.0462e-05
1.81284e-05
1.57618e-05
1.36809e-05
1.1441e-05
9.55267e-06
7.50365e-06
5.80391e-06
3.8808e-06
2.14815e-06
2.79727e-07
-1.99092e-06
-2.82345e-06
-3.70266e-06
-3.68176e-06
-3.58159e-06
-3.04695e-06
-2.34449e-06
-9.67791e-07
4.65403e-07
2.43099e-06
4.53179e-06
7.02573e-06
9.72607e-06
1.27646e-05
1.59035e-05
1.93015e-05
2.26605e-05
2.6187e-05
2.95297e-05
3.29279e-05
3.59911e-05
3.89678e-05
4.14644e-05
4.36995e-05
4.53465e-05
4.65262e-05
4.70558e-05
4.69773e-05
4.6205e-05
4.47218e-05
4.29488e-05
4.0934e-05
3.86441e-05
3.62011e-05
3.35819e-05
3.09373e-05
2.82379e-05
2.55961e-05
2.30196e-05
2.05016e-05
1.81683e-05
1.58014e-05
1.37195e-05
1.1478e-05
9.58771e-06
7.53657e-06
5.83472e-06
3.90882e-06
2.17382e-06
3.00084e-07
-1.96973e-06
-2.80979e-06
-3.69504e-06
-3.67954e-06
-3.58405e-06
-3.05493e-06
-2.35853e-06
-9.86977e-07
4.41169e-07
2.40215e-06
4.49881e-06
6.98904e-06
9.68627e-06
1.27224e-05
1.58596e-05
1.92567e-05
2.26155e-05
2.61427e-05
2.94868e-05
3.28871e-05
3.59533e-05
3.89336e-05
4.14344e-05
4.36741e-05
4.53264e-05
4.65113e-05
4.70468e-05
4.69736e-05
4.6207e-05
4.47287e-05
4.2961e-05
4.09509e-05
3.86656e-05
3.62268e-05
3.36114e-05
3.09701e-05
2.82735e-05
2.56339e-05
2.30591e-05
2.0542e-05
1.8209e-05
1.58417e-05
1.37589e-05
1.15156e-05
9.62338e-06
7.57005e-06
5.866e-06
3.93726e-06
2.19993e-06
3.20647e-07
-1.94816e-06
-2.79577e-06
-3.68717e-06
-3.67722e-06
-3.58657e-06
-3.06309e-06
-2.37288e-06
-1.00655e-06
4.16465e-07
2.37277e-06
4.46523e-06
6.95168e-06
9.64575e-06
1.26795e-05
1.5815e-05
1.92111e-05
2.25698e-05
2.60976e-05
2.94432e-05
3.28457e-05
3.59149e-05
3.88988e-05
4.14039e-05
4.36483e-05
4.53061e-05
4.64963e-05
4.70377e-05
4.69699e-05
4.62092e-05
4.47356e-05
4.29734e-05
4.09681e-05
3.86875e-05
3.62528e-05
3.36414e-05
3.10034e-05
2.83097e-05
2.56723e-05
2.30991e-05
2.0583e-05
1.82504e-05
1.58827e-05
1.3799e-05
1.15539e-05
9.65968e-06
7.60409e-06
5.89775e-06
3.96609e-06
2.22646e-06
3.41409e-07
-1.92623e-06
-2.78139e-06
-3.67907e-06
-3.67481e-06
-3.58913e-06
-3.07145e-06
-2.38753e-06
-1.0265e-06
3.91299e-07
2.34286e-06
4.43105e-06
6.91366e-06
9.60453e-06
1.26358e-05
1.57695e-05
1.91648e-05
2.25233e-05
2.60518e-05
2.93989e-05
3.28036e-05
3.58758e-05
3.88634e-05
4.1373e-05
4.36222e-05
4.52854e-05
4.6481e-05
4.70285e-05
4.69663e-05
4.62114e-05
4.47427e-05
4.2986e-05
4.09855e-05
3.87098e-05
3.62793e-05
3.36719e-05
3.10372e-05
2.83465e-05
2.57113e-05
2.31398e-05
2.06247e-05
1.82925e-05
1.59243e-05
1.38397e-05
1.15929e-05
9.69659e-06
7.63867e-06
5.92994e-06
3.99531e-06
2.25341e-06
3.62362e-07
-1.90395e-06
-2.76665e-06
-3.67073e-06
-3.67232e-06
-3.59176e-06
-3.07999e-06
-2.40248e-06
-1.04681e-06
3.65684e-07
2.31243e-06
4.39628e-06
6.875e-06
9.56263e-06
1.25914e-05
1.57234e-05
1.91177e-05
2.24761e-05
2.60052e-05
2.93539e-05
3.27609e-05
3.58362e-05
3.88276e-05
4.13416e-05
4.35957e-05
4.52645e-05
4.64656e-05
4.70192e-05
4.69626e-05
4.62138e-05
4.47499e-05
4.29988e-05
4.10032e-05
3.87324e-05
3.63061e-05
3.37028e-05
3.10715e-05
2.83838e-05
2.57509e-05
2.31812e-05
2.0667e-05
1.83352e-05
1.59667e-05
1.38811e-05
1.16325e-05
9.73409e-06
7.67378e-06
5.96256e-06
4.0249e-06
2.28076e-06
3.83496e-07
-1.88132e-06
-2.75156e-06
-3.66216e-06
-3.66974e-06
-3.59444e-06
-3.08871e-06
-2.41772e-06
-1.06749e-06
3.3963e-07
2.2815e-06
4.36096e-06
6.83572e-06
9.52007e-06
1.25464e-05
1.56766e-05
1.90699e-05
2.24282e-05
2.5958e-05
2.93082e-05
3.27176e-05
3.57961e-05
3.87912e-05
4.13098e-05
4.35688e-05
4.52434e-05
4.645e-05
4.70099e-05
4.6959e-05
4.62163e-05
4.47572e-05
4.30118e-05
4.10211e-05
3.87553e-05
3.63333e-05
3.37342e-05
3.11063e-05
2.84216e-05
2.5791e-05
2.32231e-05
2.071e-05
1.83786e-05
1.60096e-05
1.39232e-05
1.16728e-05
9.77217e-06
7.7094e-06
5.9956e-06
4.05486e-06
2.3085e-06
4.04801e-07
-1.85836e-06
-2.73614e-06
-3.65338e-06
-3.66708e-06
-3.5972e-06
-3.09763e-06
-2.43325e-06
-1.08853e-06
3.13151e-07
2.25009e-06
4.32509e-06
6.79584e-06
9.47687e-06
1.25007e-05
1.5629e-05
1.90214e-05
2.23796e-05
2.59101e-05
2.92619e-05
3.26736e-05
3.57554e-05
3.87544e-05
4.12777e-05
4.35416e-05
4.5222e-05
4.64343e-05
4.70006e-05
4.69554e-05
4.62188e-05
4.47646e-05
4.3025e-05
4.10393e-05
3.87785e-05
3.63609e-05
3.3766e-05
3.11415e-05
2.84599e-05
2.58317e-05
2.32656e-05
2.07535e-05
1.84226e-05
1.60532e-05
1.39658e-05
1.17136e-05
9.81081e-06
7.74552e-06
6.02904e-06
4.08516e-06
2.33662e-06
4.26264e-07
-1.8351e-06
-2.72039e-06
-3.64439e-06
-3.66436e-06
-3.60002e-06
-3.10673e-06
-2.44907e-06
-1.10991e-06
2.86261e-07
2.21821e-06
4.2887e-06
6.75539e-06
9.43307e-06
1.24543e-05
1.55809e-05
1.89723e-05
2.23303e-05
2.58616e-05
2.9215e-05
3.26292e-05
3.57142e-05
3.87171e-05
4.12451e-05
4.35141e-05
4.52004e-05
4.64184e-05
4.69911e-05
4.69518e-05
4.62215e-05
4.47721e-05
4.30383e-05
4.10577e-05
3.8802e-05
3.63888e-05
3.37981e-05
3.11772e-05
2.84987e-05
2.58729e-05
2.33086e-05
2.07976e-05
1.84671e-05
1.60974e-05
1.40091e-05
1.1755e-05
9.84999e-06
7.78211e-06
6.06287e-06
4.11578e-06
2.3651e-06
4.47874e-07
-1.81153e-06
-2.70433e-06
-3.63519e-06
-3.66157e-06
-3.60292e-06
-3.11601e-06
-2.46516e-06
-1.13162e-06
2.58975e-07
2.18589e-06
4.25182e-06
6.7144e-06
9.38869e-06
1.24073e-05
1.55321e-05
1.89226e-05
2.22804e-05
2.58125e-05
2.91676e-05
3.25841e-05
3.56725e-05
3.86794e-05
4.12122e-05
4.34863e-05
4.51786e-05
4.64023e-05
4.69817e-05
4.69483e-05
4.62243e-05
4.47797e-05
4.30517e-05
4.10763e-05
3.88258e-05
3.6417e-05
3.38307e-05
3.12132e-05
2.8538e-05
2.59145e-05
2.33521e-05
2.08422e-05
1.85122e-05
1.61422e-05
1.40529e-05
1.17969e-05
9.88968e-06
7.81915e-06
6.09707e-06
4.14672e-06
2.39394e-06
4.69615e-07
-1.7877e-06
-2.68796e-06
-3.62581e-06
-3.65873e-06
-3.6059e-06
-3.12548e-06
-2.48153e-06
-1.15365e-06
2.31309e-07
2.15313e-06
4.21446e-06
6.67288e-06
9.34376e-06
1.23598e-05
1.54827e-05
1.88722e-05
2.223e-05
2.57629e-05
2.91196e-05
3.25386e-05
3.56304e-05
3.86412e-05
4.11789e-05
4.34582e-05
4.51566e-05
4.63862e-05
4.69722e-05
4.69447e-05
4.62272e-05
4.47874e-05
4.30653e-05
4.10951e-05
3.88499e-05
3.64455e-05
3.38635e-05
3.12497e-05
2.85777e-05
2.59566e-05
2.33961e-05
2.08873e-05
1.85578e-05
1.61875e-05
1.40973e-05
1.18394e-05
9.92986e-06
7.85663e-06
6.13161e-06
4.17796e-06
2.42311e-06
4.91475e-07
-1.7636e-06
-2.67131e-06
-3.61624e-06
-3.65584e-06
-3.60897e-06
-3.13513e-06
-2.49816e-06
-1.17599e-06
2.03281e-07
2.11998e-06
4.17665e-06
6.63087e-06
9.29831e-06
1.23117e-05
1.54328e-05
1.88214e-05
2.2179e-05
2.57126e-05
2.90711e-05
3.24926e-05
3.55878e-05
3.86027e-05
4.11454e-05
4.34299e-05
4.51344e-05
4.63699e-05
4.69627e-05
4.69413e-05
4.62301e-05
4.47952e-05
4.30791e-05
4.1114e-05
3.88741e-05
3.64743e-05
3.38968e-05
3.12865e-05
2.86177e-05
2.59992e-05
2.34406e-05
2.09329e-05
1.86039e-05
1.62333e-05
1.41422e-05
1.18824e-05
9.97052e-06
7.89453e-06
6.16648e-06
4.20948e-06
2.4526e-06
5.13435e-07
-1.73927e-06
-2.65438e-06
-3.60651e-06
-3.65291e-06
-3.61212e-06
-3.14497e-06
-2.51505e-06
-1.19863e-06
1.74907e-07
2.08644e-06
4.13841e-06
6.58841e-06
9.25238e-06
1.22631e-05
1.53824e-05
1.877e-05
2.21275e-05
2.56619e-05
2.90221e-05
3.24462e-05
3.55448e-05
3.85639e-05
4.11115e-05
4.34014e-05
4.51121e-05
4.63536e-05
4.69532e-05
4.69378e-05
4.62332e-05
4.48031e-05
4.3093e-05
4.11332e-05
3.88987e-05
3.65034e-05
3.39303e-05
3.13237e-05
2.86582e-05
2.60421e-05
2.34855e-05
2.0979e-05
1.86505e-05
1.62795e-05
1.41876e-05
1.19258e-05
1.00116e-05
7.93281e-06
6.20167e-06
4.24125e-06
2.4824e-06
5.35481e-07
-1.71472e-06
-2.6372e-06
-3.59662e-06
-3.64995e-06
-3.61538e-06
-3.15498e-06
-2.53218e-06
-1.22156e-06
1.46207e-07
2.05254e-06
4.09979e-06
6.54551e-06
9.20599e-06
1.22141e-05
1.53315e-05
1.87181e-05
2.20756e-05
2.56108e-05
2.89727e-05
3.23993e-05
3.55015e-05
3.85247e-05
4.10774e-05
4.33726e-05
4.50897e-05
4.63371e-05
4.69436e-05
4.69344e-05
4.62364e-05
4.48111e-05
4.3107e-05
4.11525e-05
3.89234e-05
3.65327e-05
3.39641e-05
3.13612e-05
2.8699e-05
2.60854e-05
2.35307e-05
2.10254e-05
1.86975e-05
1.63262e-05
1.42334e-05
1.19697e-05
1.00531e-05
7.97146e-06
6.23714e-06
4.27327e-06
2.51248e-06
5.57596e-07
-1.68998e-06
-2.61979e-06
-3.5866e-06
-3.64697e-06
-3.61874e-06
-3.16518e-06
-2.54956e-06
-1.24475e-06
1.172e-07
2.0183e-06
4.06079e-06
6.50221e-06
9.15919e-06
1.21646e-05
1.52801e-05
1.86658e-05
2.20232e-05
2.55592e-05
2.89229e-05
3.23521e-05
3.54579e-05
3.84853e-05
4.1043e-05
4.33437e-05
4.50671e-05
4.63206e-05
4.69341e-05
4.69311e-05
4.62397e-05
4.48191e-05
4.31211e-05
4.11719e-05
3.89483e-05
3.65622e-05
3.39981e-05
3.13989e-05
2.87401e-05
2.6129e-05
2.35763e-05
2.10722e-05
1.87449e-05
1.63733e-05
1.42796e-05
1.2014e-05
1.0095e-05
8.01046e-06
6.27288e-06
4.30552e-06
2.54284e-06
5.79761e-07
-1.66508e-06
-2.60216e-06
-3.57645e-06
-3.64399e-06
-3.6222e-06
-3.17555e-06
-2.56717e-06
-1.2682e-06
8.79061e-08
1.98376e-06
4.02146e-06
6.45854e-06
9.112e-06
1.21148e-05
1.52284e-05
1.86131e-05
2.19704e-05
2.55073e-05
2.88727e-05
3.23046e-05
3.54139e-05
3.84455e-05
4.10085e-05
4.33146e-05
4.50444e-05
4.6304e-05
4.69246e-05
4.69278e-05
4.62431e-05
4.48272e-05
4.31353e-05
4.11915e-05
3.89734e-05
3.6592e-05
3.40324e-05
3.14369e-05
2.87814e-05
2.6173e-05
2.36223e-05
2.11193e-05
1.87926e-05
1.64208e-05
1.43262e-05
1.20587e-05
1.01373e-05
8.04977e-06
6.30886e-06
4.33797e-06
2.57345e-06
6.01958e-07
-1.64003e-06
-2.58433e-06
-3.56619e-06
-3.641e-06
-3.62578e-06
-3.18609e-06
-2.585e-06
-1.29189e-06
5.83445e-08
1.94893e-06
3.98182e-06
6.41455e-06
9.06446e-06
1.20645e-05
1.51763e-05
1.856e-05
2.19172e-05
2.5455e-05
2.88222e-05
3.22567e-05
3.53697e-05
3.84056e-05
4.09737e-05
4.32853e-05
4.50217e-05
4.62874e-05
4.69152e-05
4.69246e-05
4.62466e-05
4.48354e-05
4.31495e-05
4.12112e-05
3.89987e-05
3.66219e-05
3.40669e-05
3.14751e-05
2.8823e-05
2.62171e-05
2.36685e-05
2.11668e-05
1.88407e-05
1.64686e-05
1.43732e-05
1.21037e-05
1.01799e-05
8.08938e-06
6.34507e-06
4.37062e-06
2.60429e-06
6.2417e-07
-1.61486e-06
-2.56632e-06
-3.55584e-06
-3.63802e-06
-3.62949e-06
-3.19682e-06
-2.60306e-06
-1.3158e-06
2.85362e-08
1.91384e-06
3.9419e-06
6.37025e-06
9.01662e-06
1.2014e-05
1.51239e-05
1.85067e-05
2.18638e-05
2.54024e-05
2.87715e-05
3.22087e-05
3.53253e-05
3.83655e-05
4.09388e-05
4.32559e-05
4.49989e-05
4.62708e-05
4.69057e-05
4.69215e-05
4.62503e-05
4.48437e-05
4.31639e-05
4.1231e-05
3.90241e-05
3.66519e-05
3.41016e-05
3.15135e-05
2.88648e-05
2.62615e-05
2.37149e-05
2.12145e-05
1.8889e-05
1.65167e-05
1.44205e-05
1.2149e-05
1.02227e-05
8.12925e-06
6.38148e-06
4.40343e-06
2.63536e-06
6.46375e-07
-1.5896e-06
-2.54817e-06
-3.54542e-06
-3.63507e-06
-3.63332e-06
-3.20771e-06
-2.62131e-06
-1.33993e-06
-1.49816e-09
1.87851e-06
3.90174e-06
6.32569e-06
8.96851e-06
1.19632e-05
1.50712e-05
1.8453e-05
2.18101e-05
2.53495e-05
2.87205e-05
3.21603e-05
3.52806e-05
3.83252e-05
4.09038e-05
4.32265e-05
4.49761e-05
4.62542e-05
4.68964e-05
4.69185e-05
4.6254e-05
4.4852e-05
4.31784e-05
4.12509e-05
3.90496e-05
3.66821e-05
3.41364e-05
3.15521e-05
2.89068e-05
2.63061e-05
2.37616e-05
2.12624e-05
1.89375e-05
1.6565e-05
1.4468e-05
1.21946e-05
1.02659e-05
8.16937e-06
6.41808e-06
4.4364e-06
2.66664e-06
6.68556e-07
-1.56427e-06
-2.52989e-06
-3.53495e-06
-3.63216e-06
-3.63729e-06
-3.21878e-06
-2.63977e-06
-1.36426e-06
-3.17375e-08
1.84298e-06
3.86136e-06
6.2809e-06
8.92016e-06
1.19122e-05
1.50183e-05
1.83991e-05
2.17562e-05
2.52965e-05
2.86693e-05
3.21118e-05
3.52359e-05
3.82847e-05
4.08687e-05
4.3197e-05
4.49532e-05
4.62375e-05
4.68871e-05
4.69155e-05
4.62579e-05
4.48604e-05
4.31929e-05
4.12708e-05
3.90752e-05
3.67124e-05
3.41713e-05
3.15908e-05
2.89489e-05
2.63509e-05
2.38084e-05
2.13105e-05
1.89863e-05
1.66136e-05
1.45158e-05
1.22405e-05
1.03093e-05
8.2097e-06
6.45484e-06
4.46951e-06
2.6981e-06
6.90692e-07
-1.53891e-06
-2.5115e-06
-3.52444e-06
-3.6293e-06
-3.6414e-06
-3.23001e-06
-2.65842e-06
-1.38877e-06
-6.21608e-08
1.80727e-06
3.82079e-06
6.23591e-06
8.87162e-06
1.18609e-05
1.49652e-05
1.83451e-05
2.1702e-05
2.52433e-05
2.86179e-05
3.20632e-05
3.5191e-05
3.82442e-05
4.08336e-05
4.31674e-05
4.49304e-05
4.6221e-05
4.68779e-05
4.69127e-05
4.62619e-05
4.48689e-05
4.32074e-05
4.12908e-05
3.91009e-05
3.67428e-05
3.42064e-05
3.16296e-05
2.89912e-05
2.63957e-05
2.38553e-05
2.13587e-05
1.90352e-05
1.66623e-05
1.45638e-05
1.22865e-05
1.03529e-05
8.25023e-06
6.49174e-06
4.50274e-06
2.72973e-06
7.12764e-07
-1.51355e-06
-2.49304e-06
-3.51392e-06
-3.6265e-06
-3.64566e-06
-3.24142e-06
-2.67724e-06
-1.41344e-06
-9.27471e-08
1.77141e-06
3.78007e-06
6.19076e-06
8.82292e-06
1.18095e-05
1.49119e-05
1.82909e-05
2.16478e-05
2.51899e-05
2.85665e-05
3.20145e-05
3.5146e-05
3.82036e-05
4.07984e-05
4.31379e-05
4.49076e-05
4.62044e-05
4.68687e-05
4.69099e-05
4.6266e-05
4.48774e-05
4.3222e-05
4.13109e-05
3.91267e-05
3.67732e-05
3.42415e-05
3.16684e-05
2.90335e-05
2.64406e-05
2.39023e-05
2.1407e-05
1.90842e-05
1.67112e-05
1.46119e-05
1.23328e-05
1.03967e-05
8.29091e-06
6.52876e-06
4.53607e-06
2.76152e-06
7.34751e-07
-1.4882e-06
-2.47453e-06
-3.50341e-06
-3.62377e-06
-3.65008e-06
-3.25299e-06
-2.69624e-06
-1.43827e-06
-1.23475e-07
1.73541e-06
3.73922e-06
6.14549e-06
8.7741e-06
1.1758e-05
1.48586e-05
1.82366e-05
2.15935e-05
2.51365e-05
2.85149e-05
3.19657e-05
3.5101e-05
3.8163e-05
4.07632e-05
4.31083e-05
4.48848e-05
4.61879e-05
4.68597e-05
4.69073e-05
4.62702e-05
4.48859e-05
4.32366e-05
4.1331e-05
3.91525e-05
3.68037e-05
3.42766e-05
3.17073e-05
2.90758e-05
2.64856e-05
2.39494e-05
2.14554e-05
1.91333e-05
1.67601e-05
1.46602e-05
1.23791e-05
1.04406e-05
8.33174e-06
6.56588e-06
4.5695e-06
2.79345e-06
7.56634e-07
-1.4629e-06
-2.45599e-06
-3.49293e-06
-3.62114e-06
-3.65467e-06
-3.26472e-06
-2.71541e-06
-1.46323e-06
-1.54324e-07
1.69932e-06
3.69829e-06
6.10012e-06
8.7252e-06
1.17065e-05
1.48051e-05
1.81822e-05
2.15391e-05
2.5083e-05
2.84634e-05
3.19169e-05
3.5056e-05
3.81224e-05
4.0728e-05
4.30789e-05
4.48621e-05
4.61716e-05
4.68508e-05
4.69048e-05
4.62746e-05
4.48945e-05
4.32513e-05
4.13511e-05
3.91783e-05
3.68342e-05
3.43118e-05
3.17462e-05
2.91182e-05
2.65306e-05
2.39965e-05
2.15038e-05
1.91824e-05
1.68091e-05
1.47086e-05
1.24256e-05
1.04846e-05
8.37267e-06
6.60308e-06
4.60299e-06
2.8255e-06
7.78393e-07
-1.43769e-06
-2.43746e-06
-3.4825e-06
-3.61862e-06
-3.65943e-06
-3.27663e-06
-2.73472e-06
-1.48832e-06
-1.85274e-07
1.66315e-06
3.65729e-06
6.0547e-06
8.67626e-06
1.16549e-05
1.47517e-05
1.81279e-05
2.14847e-05
2.50295e-05
2.84118e-05
3.18681e-05
3.5011e-05
3.80819e-05
4.06929e-05
4.30494e-05
4.48396e-05
4.61553e-05
4.68421e-05
4.69024e-05
4.62791e-05
4.49031e-05
4.32659e-05
4.13712e-05
3.92041e-05
3.68647e-05
3.43469e-05
3.1785e-05
2.91605e-05
2.65755e-05
2.40435e-05
2.15522e-05
1.92316e-05
1.68582e-05
1.4757e-05
1.24721e-05
1.05288e-05
8.4137e-06
6.64034e-06
4.63655e-06
2.85766e-06
8.00008e-07
-1.41258e-06
-2.41896e-06
-3.47214e-06
-3.61621e-06
-3.66438e-06
-3.28869e-06
-2.75419e-06
-1.51351e-06
-2.16303e-07
1.62693e-06
3.61626e-06
6.00926e-06
8.62731e-06
1.16033e-05
1.46983e-05
1.80735e-05
2.14304e-05
2.49761e-05
2.83603e-05
3.18194e-05
3.49661e-05
3.80414e-05
4.06579e-05
4.30201e-05
4.48171e-05
4.61391e-05
4.68334e-05
4.69001e-05
4.62838e-05
4.49118e-05
4.32806e-05
4.13913e-05