/*--------------------------------*- C++ -*----------------------------------*\
  =========                 |
  \\      /  F ield         | OpenFOAM: The Open Source CFD Toolbox
   \\    /   O peration     | Website:  https://openfoam.org
    \\  /    A nd           | Version:  13
     \\/     M anipulation  |
\*---------------------------------------------------------------------------*/
FoamFile
{
    format      ascii;
    class       volVectorField;
    location    "3700";
    object      wallShearStress;
}
// * * * * * * * * * * * * * * * * * * * * * * * * * * * * * * * * * * * * * //

dimensions      [0 2 -2 0 0 0 0];

internalField   uniform (0 0 0);

boundaryField
{
    movingWall
    {
        type            calculated;
        value           nonuniform List<vector> 
50
(
(0.119924 -4.64614e-07 0)
(0.119795 -4.21138e-07 0)
(0.119677 -3.73168e-07 0)
(0.11957 -3.09379e-07 0)
(0.11948 -2.30931e-07 0)
(0.119409 -1.65477e-07 0)
(0.119353 -9.36124e-08 0)
(0.119316 -3.50228e-09 0)
(0.119305 8.42673e-08 0)
(0.119314 1.58684e-07 0)
(0.119344 2.58737e-07 0)
(0.1194 3.375e-07 0)
(0.119476 3.99834e-07 0)
(0.119568 4.59472e-07 0)
(0.119679 5.05052e-07 0)
(0.119803 5.40163e-07 0)
(0.119937 5.58423e-07 0)
(0.120078 5.66122e-07 0)
(0.120223 5.61863e-07 0)
(0.120369 5.48291e-07 0)
(0.120514 5.25129e-07 0)
(0.120655 4.94315e-07 0)
(0.12079 4.57736e-07 0)
(0.120917 4.15766e-07 0)
(0.121035 3.72326e-07 0)
(0.121142 3.24069e-07 0)
(0.121239 2.78879e-07 0)
(0.121323 2.26232e-07 0)
(0.121397 1.83871e-07 0)
(0.121456 1.09044e-07 0)
(0.121497 6.29592e-08 0)
(0.121528 2.19974e-08 0)
(0.121547 -3.93132e-08 0)
(0.121547 -8.36682e-08 0)
(0.121538 -1.21486e-07 0)
(0.121515 -1.85212e-07 0)
(0.121476 -2.30656e-07 0)
(0.121425 -2.68188e-07 0)
(0.121364 -3.10841e-07 0)
(0.121289 -3.55833e-07 0)
(0.121201 -3.94501e-07 0)
(0.121103 -4.30668e-07 0)
(0.120993 -4.59075e-07 0)
(0.120876 -4.86035e-07 0)
(0.120749 -5.03973e-07 0)
(0.120617 -5.20755e-07 0)
(0.12048 -5.24145e-07 0)
(0.12034 -5.2664e-07 0)
(0.120198 -5.11891e-07 0)
(0.12006 -4.94339e-07 0)
)
;
    }
    bottomWall
    {
        type            calculated;
        value           nonuniform List<vector> 
50
(
(-0.000444729 -5.24039e-08 0)
(-0.000444559 2.38655e-10 0)
(-0.000444364 1.95575e-10 0)
(-0.00044418 1.3233e-10 0)
(-0.000444025 8.70896e-11 0)
(-0.000443917 3.46387e-11 0)
(-0.000443845 -1.45995e-11 0)
(-0.000443809 -7.96782e-11 0)
(-0.000443806 -1.28045e-10 0)
(-0.000443833 -1.84292e-10 0)
(-0.000443884 -2.26106e-10 0)
(-0.000443961 -2.70291e-10 0)
(-0.000444056 -3.05054e-10 0)
(-0.000444172 -3.39829e-10 0)
(-0.000444305 -3.64603e-10 0)
(-0.000444454 -3.87779e-10 0)
(-0.000444616 -3.99117e-10 0)
(-0.000444788 -4.09103e-10 0)
(-0.000444968 -4.06453e-10 0)
(-0.000445152 -4.02577e-10 0)
(-0.000445338 -3.86496e-10 0)
(-0.000445522 -3.68944e-10 0)
(-0.000445703 -3.40856e-10 0)
(-0.000445878 -3.10543e-10 0)
(-0.000446042 -2.73171e-10 0)
(-0.000446196 -2.30393e-10 0)
(-0.000446335 -1.87168e-10 0)
(-0.000446457 -1.35327e-10 0)
(-0.000446562 -8.86953e-11 0)
(-0.000446647 -3.07565e-11 0)
(-0.000446705 1.76477e-11 0)
(-0.000446736 7.57918e-11 0)
(-0.000446743 1.18143e-10 0)
(-0.000446728 1.64575e-10 0)
(-0.00044669 2.04954e-10 0)
(-0.00044663 2.4549e-10 0)
(-0.000446547 2.79477e-10 0)
(-0.000446446 3.0995e-10 0)
(-0.000446326 3.34151e-10 0)
(-0.000446192 3.53594e-10 0)
(-0.000446043 3.6425e-10 0)
(-0.000445887 3.72805e-10 0)
(-0.000445722 3.67924e-10 0)
(-0.000445557 3.64919e-10 0)
(-0.000445394 3.44575e-10 0)
(-0.000445242 3.30214e-10 0)
(-0.000445107 3.00158e-10 0)
(-0.000444999 2.82638e-10 0)
(-0.000444911 2.52603e-10 0)
(-0.000444831 2.31884e-10 0)
)
;
    }
    cyc_half0
    {
        type            cyclic;
    }
    cyc_half1
    {
        type            cyclic;
    }
    frontAndBack
    {
        type            empty;
    }
}


// ************************************************************************* //
