/*--------------------------------*- C++ -*----------------------------------*\
  =========                 |
  \\      /  F ield         | OpenFOAM: The Open Source CFD Toolbox
   \\    /   O peration     | Website:  https://openfoam.org
    \\  /    A nd           | Version:  13
     \\/     M anipulation  |
\*---------------------------------------------------------------------------*/
FoamFile
{
    format      ascii;
    class       volVectorField;
    location    "0.0025";
    object      CrankNicolson:ddtCorrDdt0(rho,U);
}
// * * * * * * * * * * * * * * * * * * * * * * * * * * * * * * * * * * * * * //

dimensions      [1 -2 -2 0 0 0 0];

internalField   nonuniform List<vector> 
1000
(
(1.45519e-09 0 0)
(-1.9177e-23 0 0)
(-4.36557e-09 0 0)
(1.45519e-09 0 0)
(2.65732e-23 0 0)
(1.0133e-23 0 0)
(3.62925e-23 0 0)
(1.45519e-09 0 0)
(2.91038e-09 0 0)
(-1.45519e-09 0 0)
(-5.82077e-09 0 0)
(5.82077e-09 0 0)
(2.91038e-09 0 0)
(-5.82077e-09 0 0)
(-5.82077e-09 0 0)
(-2.91038e-09 0 0)
(1.45519e-09 0 0)
(1.45519e-09 0 0)
(6.5783e-23 0 0)
(-1.45519e-09 0 0)
(-2.91038e-09 0 0)
(1.45519e-09 0 0)
(2.91038e-09 0 0)
(-4.46678e-23 0 0)
(-2.91038e-09 0 0)
(2.91038e-09 0 0)
(4.36557e-09 0 0)
(-5.82077e-09 0 0)
(-2.91038e-09 0 0)
(1.45519e-09 0 0)
(4.95274e-23 0 0)
(-3.25121e-23 0 0)
(2.91038e-09 0 0)
(2.91038e-09 0 0)
(-5.68687e-23 0 0)
(4.36557e-09 0 0)
(1.45519e-09 0 0)
(-1.45519e-09 0 0)
(-1.45519e-09 0 0)
(-5.82077e-09 0 0)
(-7.27596e-09 0 0)
(-5.82077e-09 0 0)
(-5.82077e-09 0 0)
(-7.27596e-09 0 0)
(1.45519e-09 0 0)
(1.88134e-24 0 0)
(-5.82077e-09 0 0)
(-4.36557e-09 0 0)
(-1.45519e-09 0 0)
(4.36557e-09 0 0)
(1.45519e-09 0 0)
(-1.45519e-09 0 0)
(5.82077e-09 0 0)
(4.36557e-09 0 0)
(1.45519e-09 0 0)
(2.91038e-09 0 0)
(1.45519e-09 0 0)
(-4.36557e-09 0 0)
(-8.73115e-09 0 0)
(-4.36557e-09 0 0)
(-2.91038e-09 0 0)
(-1.45519e-09 0 0)
(-1.45519e-09 0 0)
(-1.45519e-09 0 0)
(4.36557e-09 0 0)
(4.36557e-09 0 0)
(-1.45519e-09 0 0)
(1.45519e-09 0 0)
(-2.91038e-09 0 0)
(-8.73115e-09 0 0)
(-7.27596e-09 0 0)
(2.06795e-25 0 0)
(1.45519e-09 0 0)
(-4.1359e-24 0 0)
(5.82077e-09 0 0)
(5.82077e-09 0 0)
(1.45519e-09 0 0)
(-4.36557e-09 0 0)
(2.91038e-09 0 0)
(5.82077e-09 0 0)
(-2.91038e-09 0 0)
(-4.36557e-09 0 0)
(-1.45519e-09 0 0)
(2.91038e-09 0 0)
(5.82077e-09 0 0)
(5.82077e-09 0 0)
(8.16841e-24 0 0)
(2.91038e-09 0 0)
(7.6702e-24 0 0)
(2.91038e-09 0 0)
(5.27328e-24 0 0)
(-4.36557e-09 0 0)
(-4.36557e-09 0 0)
(-7.27596e-09 0 0)
(-1.45519e-09 0 0)
(-1.92319e-23 0 0)
(4.36557e-09 0 0)
(4.36557e-09 0 0)
(2.91038e-09 0 0)
(-2.91038e-09 0 0)
(-1.45519e-09 0 0)
(1.67504e-23 0 0)
(1.8198e-23 0 0)
(4.36557e-09 0 0)
(4.36557e-09 0 0)
(-2.91038e-09 0 0)
(-4.36557e-09 0 0)
(-4.36557e-09 0 0)
(-1.45519e-09 0 0)
(1.30638e-23 0 0)
(-1.68339e-23 0 0)
(-2.10026e-25 0 0)
(1.45519e-09 0 0)
(1.45519e-09 0 0)
(1.45519e-09 0 0)
(-5.82077e-09 0 0)
(-4.36557e-09 0 0)
(-1.45519e-09 0 0)
(1.45519e-09 0 0)
(2.91038e-09 0 0)
(2.6263e-23 0 0)
(-1.45519e-09 0 0)
(-4.36557e-09 0 0)
(-1.45519e-09 0 0)
(7.27596e-09 0 0)
(4.36557e-09 0 0)
(-1.45519e-09 0 0)
(2.91038e-09 0 0)
(2.91038e-09 0 0)
(4.36557e-09 0 0)
(1.45519e-09 0 0)
(-7.27596e-09 0 0)
(-7.27596e-09 0 0)
(2.91038e-09 0 0)
(1.47859e-23 0 0)
(7.23783e-25 0 0)
(2.91038e-09 0 0)
(6.61744e-24 0 0)
(5.68687e-24 0 0)
(-1.45519e-09 0 0)
(8.68378e-24 0 0)
(4.36557e-09 0 0)
(1.45519e-09 0 0)
(-1.45519e-09 0 0)
(-1.45519e-09 0 0)
(0 0 0)
(2.06795e-25 0 0)
(4.36557e-09 0 0)
(5.82077e-09 0 0)
(1.45519e-09 0 0)
(-4.36557e-09 0 0)
(-7.27596e-09 0 0)
(1.45519e-09 0 0)
(2.91038e-09 0 0)
(4.47114e-24 0 0)
(5.16988e-25 0 0)
(-3.01105e-24 0 0)
(-4.36557e-09 0 0)
(-4.36557e-09 0 0)
(2.91038e-09 0 0)
(1.16146e-24 0 0)
(-2.91038e-09 0 0)
(1.30782e-23 0 0)
(1.45519e-09 0 0)
(-1.45519e-09 0 0)
(1.45519e-09 0 0)
(5.82077e-09 0 0)
(7.27596e-09 0 0)
(1.90619e-24 0 0)
(-4.36557e-09 0 0)
(1.45519e-09 0 0)
(1.45519e-09 0 0)
(-1.45519e-09 0 0)
(-2.91038e-09 0 0)
(-2.91038e-09 0 0)
(-2.58494e-24 0 0)
(-2.91038e-09 0 0)
(1.45519e-09 0 0)
(3.10193e-25 0 0)
(-1.45519e-09 0 0)
(2.91038e-09 0 0)
(1.45519e-09 0 0)
(-1.45519e-09 0 0)
(-2.91038e-09 0 0)
(2.91038e-09 0 0)
(4.36557e-09 0 0)
(1.45519e-09 0 0)
(-1.01863e-08 0 0)
(-1.30967e-08 0 0)
(-4.36557e-09 0 0)
(4.36557e-09 0 0)
(-1.45519e-09 0 0)
(1.45519e-09 0 0)
(7.27596e-09 0 0)
(5.82077e-09 0 0)
(1.45519e-09 0 0)
(-3.54056e-24 0 0)
(-2.91038e-09 0 0)
(1.45519e-09 0 0)
(-1.45519e-09 0 0)
(2.09897e-23 0 0)
(4.36557e-09 0 0)
(4.36557e-09 0 0)
(2.91038e-09 0 0)
(-8.40474e-24 0 0)
(-5.82077e-09 0 0)
(-5.82077e-09 0 0)
(-8.73115e-09 0 0)
(-2.37814e-24 0 0)
(-1.45519e-09 0 0)
(-1.45519e-09 0 0)
(9.30497e-24 0 0)
(4.36557e-09 0 0)
(4.36557e-09 0 0)
(7.27596e-09 0 0)
(1.45519e-09 0 0)
(3.78612e-24 0 0)
(-1.45519e-09 0 0)
(4.51032e-24 0 0)
(-2.91038e-09 0 0)
(-1.45519e-09 0 0)
(4.36557e-09 0 0)
(1.45519e-09 0 0)
(-9.08768e-26 0 0)
(-2.91038e-09 0 0)
(-5.58347e-24 0 0)
(-1.45519e-09 0 0)
(1.45519e-09 0 0)
(-1.45519e-09 0 0)
(-1.45519e-09 0 0)
(-4.36774e-24 0 0)
(-1.45519e-09 0 0)
(-1.45519e-09 0 0)
(-1.45519e-09 0 0)
(1.45519e-09 0 0)
(1.45519e-09 0 0)
(-1.27163e-23 0 0)
(-1.45519e-09 0 0)
(2.91038e-09 0 0)
(1.45519e-09 0 0)
(-1.45519e-09 0 0)
(-1.12499e-23 0 0)
(-4.36557e-09 0 0)
(-8.582e-24 0 0)
(-1.45519e-09 0 0)
(-5.82077e-09 0 0)
(-5.82077e-09 0 0)
(-1.30281e-23 0 0)
(-1.45519e-09 0 0)
(7.27596e-09 0 0)
(7.27596e-09 0 0)
(-1.45519e-09 0 0)
(-4.36557e-09 0 0)
(1.45519e-09 0 0)
(-1.42689e-23 0 0)
(-2.91038e-09 0 0)
(-2.91038e-09 0 0)
(-5.82077e-09 0 0)
(-5.82077e-09 0 0)
(1.45519e-09 0 0)
(2.91038e-09 0 0)
(-1.45519e-09 0 0)
(2.91038e-09 0 0)
(2.91038e-09 0 0)
(-4.55848e-24 0 0)
(-2.19203e-23 0 0)
(2.91038e-09 0 0)
(1.45519e-09 0 0)
(-1.45519e-09 0 0)
(-5.82077e-09 0 0)
(-4.36557e-09 0 0)
(1.45519e-09 0 0)
(4.36557e-09 0 0)
(7.27596e-09 0 0)
(7.27596e-09 0 0)
(7.27596e-09 0 0)
(8.73115e-09 0 0)
(7.27596e-09 0 0)
(5.16988e-25 0 0)
(-2.91038e-09 0 0)
(-4.36557e-09 0 0)
(-7.27596e-09 0 0)
(-7.27596e-09 0 0)
(-5.82077e-09 0 0)
(-1.16415e-08 0 0)
(-8.73115e-09 0 0)
(-5.82077e-09 0 0)
(-1.45519e-09 0 0)
(4.36557e-09 0 0)
(1.01863e-08 0 0)
(1.30967e-08 0 0)
(1.01863e-08 0 0)
(4.36557e-09 0 0)
(5.82077e-09 0 0)
(4.36557e-09 0 0)
(-2.91038e-09 0 0)
(2.31611e-23 0 0)
(1.45519e-09 0 0)
(-7.27596e-09 0 0)
(-1.60071e-08 0 0)
(-7.27596e-09 0 0)
(2.91038e-09 0 0)
(1.45519e-09 0 0)
(-1.45519e-09 0 0)
(-1.45519e-09 0 0)
(6.51405e-24 0 0)
(5.82077e-09 0 0)
(8.73115e-09 0 0)
(4.36557e-09 0 0)
(-2.91038e-09 0 0)
(-1.45519e-09 0 0)
(2.91038e-09 0 0)
(5.82077e-09 0 0)
(1.45519e-09 0 0)
(1.45519e-09 0 0)
(-1.45519e-09 0 0)
(-7.27596e-09 0 0)
(-5.82077e-09 0 0)
(-4.36557e-09 0 0)
(2.06731e-23 0 0)
(1.45519e-09 0 0)
(1.45519e-09 0 0)
(5.82077e-09 0 0)
(5.82077e-09 0 0)
(5.82077e-09 0 0)
(5.82077e-09 0 0)
(1.80946e-24 0 0)
(-7.27596e-09 0 0)
(-8.73115e-09 0 0)
(-2.91038e-09 0 0)
(5.8662e-24 0 0)
(-2.91038e-09 0 0)
(1.45519e-09 0 0)
(5.82077e-09 0 0)
(5.82077e-09 0 0)
(1.45519e-09 0 0)
(-1.45519e-09 0 0)
(-7.27596e-09 0 0)
(-2.91038e-09 0 0)
(5.76361e-24 0 0)
(2.91038e-09 0 0)
(7.27596e-09 0 0)
(7.27596e-09 0 0)
(2.91038e-09 0 0)
(1.45519e-09 0 0)
(2.91038e-09 0 0)
(-3.61892e-24 0 0)
(-2.91038e-09 0 0)
(-2.91038e-09 0 0)
(-1.45519e-09 0 0)
(-4.36557e-09 0 0)
(-7.27596e-09 0 0)
(-2.91038e-09 0 0)
(-9.40918e-24 0 0)
(5.82077e-09 0 0)
(4.36557e-09 0 0)
(1.45519e-09 0 0)
(-1.45519e-09 0 0)
(2.91038e-09 0 0)
(1.60071e-08 0 0)
(4.51109e-08 0 0)
(1.1205e-07 0 0)
(2.79397e-07 0 0)
(7.10133e-07 0 0)
(1.77388e-06 0 0)
(4.41505e-06 0 0)
(1.08703e-05 0 0)
(2.64743e-05 0 0)
(6.37476e-05 0 0)
(0.000151737 0 0)
(0.000356945 0 0)
(0.00082965 0 0)
(0.00190486 0 0)
(0.00431911 0 0)
(0.00966866 0 0)
(0.0213624 0 0)
(0.0465706 0 0)
(0.100139 0 0)
(0.212314 0 0)
(0.443683 0 0)
(0.913505 0 0)
(1.85229 0 0)
(3.69719 0 0)
(7.26074 0 0)
(14.0219 0 0)
(26.6135 0 0)
(49.6124 0 0)
(90.7767 0 0)
(162.903 0 0)
(286.478 0 0)
(493.252 0 0)
(830.664 0 0)
(1366.73 0 0)
(2194.41 0 0)
(3433.78 0 0)
(5229.35 0 0)
(7739.83 0 0)
(11117.7 0 0)
(15478.4 0 0)
(20863.2 0 0)
(27203.3 0 0)
(34299.8 0 0)
(41827.7 0 0)
(49373 0 0)
(56493.4 0 0)
(62795.7 0 0)
(68028.2 0 0)
(72123.5 0 0)
(75151.1 0 0)
(77245.9 0 0)
(78561.8 0 0)
(79245.1 0 0)
(79423.2 0 0)
(79201.6 0 0)
(78665.4 0 0)
(77881.8 0 0)
(76903.6 0 0)
(75772.1 0 0)
(74519.6 0 0)
(73171.6 0 0)
(71748 0 0)
(70264.6 0 0)
(68734.3 0 0)
(67167.2 0 0)
(65571.9 0 0)
(63955.3 0 0)
(62323.3 0 0)
(60681.1 0 0)
(59033.1 0 0)
(57383.2 0 0)
(55734.9 0 0)
(54091.4 0 0)
(52455.6 0 0)
(50830.1 0 0)
(49217.4 0 0)
(47619.7 0 0)
(46039.1 0 0)
(44477.5 0 0)
(42936.7 0 0)
(41418.1 0 0)
(39923.1 0 0)
(38453.1 0 0)
(37009.1 0 0)
(35592.1 0 0)
(34202.9 0 0)
(32842.3 0 0)
(31510.9 0 0)
(30209.1 0 0)
(28937.4 0 0)
(27696.1 0 0)
(26485.3 0 0)
(25305.3 0 0)
(24156.2 0 0)
(23037.9 0 0)
(21950.4 0 0)
(20893.8 0 0)
(19867.7 0 0)
(18872.2 0 0)
(17906.9 0 0)
(16971.8 0 0)
(16066.5 0 0)
(15190.7 0 0)
(14344.2 0 0)
(13526.6 0 0)
(12737.7 0 0)
(11977.1 0 0)
(11244.4 0 0)
(10539.3 0 0)
(9861.38 0 0)
(9210.29 0 0)
(8585.65 0 0)
(7987.05 0 0)
(7414.1 0 0)
(6866.4 0 0)
(6343.52 0 0)
(5845.07 0 0)
(5370.63 0 0)
(4919.8 0 0)
(4492.15 0 0)
(4087.27 0 0)
(3704.75 0 0)
(3344.14 0 0)
(3005.03 0 0)
(2687 0 0)
(2389.62 0 0)
(2112.47 0 0)
(1855.11 0 0)
(1617.12 0 0)
(1398.03 0 0)
(1197.4 0 0)
(1014.74 0 0)
(849.587 0 0)
(701.433 0 0)
(569.747 0 0)
(453.953 0 0)
(353.414 0 0)
(267.419 0 0)
(195.163 0 0)
(135.725 0 0)
(88.0288 0 0)
(50.8045 0 0)
(22.5509 0 0)
(1.50701 0 0)
(-14.3384 0 0)
(-27.1675 0 0)
(-39.1277 0 0)
(-51.9302 0 0)
(-66.1818 0 0)
(-80.4426 0 0)
(-90.1747 0 0)
(-87.0932 0 0)
(-59.8687 0 0)
(2.63952 0 0)
(105.186 0 0)
(238.495 0 0)
(371.761 0 0)
(462.333 0 0)
(470.059 0 0)
(378.068 0 0)
(204.063 0 0)
(-6.94332 0 0)
(-203.176 0 0)
(-346.805 0 0)
(-420.49 0 0)
(-423.236 0 0)
(-368.141 0 0)
(-265.978 0 0)
(-121.213 0 0)
(65.3085 0 0)
(287.162 0 0)
(520.463 0 0)
(721.174 0 0)
(820.225 0 0)
(770.631 0 0)
(563.905 0 0)
(243.81 0 0)
(-106.862 0 0)
(-398.364 0 0)
(-567.166 0 0)
(-580.703 0 0)
(-446.742 0 0)
(-197.429 0 0)
(122.688 0 0)
(459.115 0 0)
(748.358 0 0)
(924.533 0 0)
(931.523 0 0)
(763.81 0 0)
(468.766 0 0)
(137.821 0 0)
(-124.721 0 0)
(-237.246 0 0)
(-158.635 0 0)
(94.3355 0 0)
(463.509 0 0)
(862.299 0 0)
(1192.66 0 0)
(1364.5 0 0)
(1327.7 0 0)
(1113.69 0 0)
(879.329 0 0)
(965.549 0 0)
(1965.3 0 0)
(4767.27 0 0)
(10511.6 0 0)
(20390.5 0 0)
(35256 0 0)
(55120 0 0)
(78749.5 0 0)
(103582 0 0)
(126111 0 0)
(142674 0 0)
(150408 0 0)
(148059 0 0)
(136279 0 0)
(117263 0 0)
(93938.8 0 0)
(69217.6 0 0)
(45592.7 0 0)
(25043.9 0 0)
(8984.27 0 0)
(-1873.29 0 0)
(-7643.91 0 0)
(-9225.75 0 0)
(-8018.51 0 0)
(-5503.67 0 0)
(-2870.89 0 0)
(-828.721 0 0)
(382.295 0 0)
(849.845 0 0)
(818.85 0 0)
(553.049 0 0)
(253.051 0 0)
(28.4087 0 0)
(-91.3217 0 0)
(-125.96 0 0)
(-112.524 0 0)
(-83.1965 0 0)
(-56.6775 0 0)
(-39.4743 0 0)
(-31.2475 0 0)
(-29.5121 0 0)
(-31.8471 0 0)
(-36.4034 0 0)
(-42.0101 0 0)
(-47.6633 0 0)
(-51.8618 0 0)
(-54.2488 0 0)
(-56.6918 0 0)
(-58.1618 0 0)
(-55.1166 0 0)
(-55.1907 0 0)
(-65.6188 0 0)
(-61.3313 0 0)
(-39.4125 0 0)
(-71.1129 0 0)
(-111.577 0 0)
(14.2684 0 0)
(62.573 0 0)
(-280.86 0 0)
(-94.415 0 0)
(871.236 0 0)
(-153.291 0 0)
(-1860.09 0 0)
(2749.09 0 0)
(5075.9 0 0)
(-8518.19 0 0)
(-3680.71 0 0)
(34392.1 0 0)
(-2430.34 0 0)
(-78800.4 0 0)
(95227.9 0 0)
(213498 0 0)
(-348216 0 0)
(-165233 0 0)
(1.9314e+06 0 0)
(1.89847e+06 0 0)
(592822 0 0)
(107441 0 0)
(18264.9 0 0)
(3010.71 0 0)
(495.892 0 0)
(81.9606 0 0)
(13.5548 0 0)
(2.2419 0 0)
(0.370799 0 0)
(0.061328 0 0)
(0.0101433 0 0)
(0.00167763 0 0)
(0.000277469 0 0)
(4.58906e-05 0 0)
(7.5901e-06 0 0)
(1.25547e-06 0 0)
(2.07365e-07 0 0)
(3.43789e-08 0 0)
(6.54836e-09 0 0)
(1.27329e-09 0 0)
(5.45697e-10 0 0)
(3.63798e-10 0 0)
(-3.63798e-10 0 0)
(2.85575e-24 0 0)
(7.27596e-10 0 0)
(3.63798e-10 0 0)
(1.81899e-10 0 0)
(1.81899e-10 0 0)
(-5.45697e-10 0 0)
(-9.09495e-10 0 0)
(-3.63798e-10 0 0)
(-1.81899e-10 0 0)
(-7.27596e-10 0 0)
(-5.45697e-10 0 0)
(3.3475e-24 0 0)
(2.08088e-24 0 0)
(-3.63798e-10 0 0)
(-1.81899e-10 0 0)
(-5.45697e-10 0 0)
(-1.27329e-09 0 0)
(-5.45697e-10 0 0)
(1.81899e-10 0 0)
(1.81899e-10 0 0)
(5.45697e-10 0 0)
(-1.81899e-10 0 0)
(-1.81899e-10 0 0)
(3.63798e-10 0 0)
(3.11445e-24 0 0)
(-3.63798e-10 0 0)
(-5.45697e-10 0 0)
(-3.63798e-10 0 0)
(1.81899e-10 0 0)
(-6.81132e-24 0 0)
(-3.63798e-10 0 0)
(-5.45697e-10 0 0)
(-7.59972e-24 0 0)
(7.27596e-10 0 0)
(5.45697e-10 0 0)
(1.81899e-10 0 0)
(3.63798e-10 0 0)
(-1.81899e-10 0 0)
(-7.27596e-10 0 0)
(-3.63798e-10 0 0)
(1.81899e-10 0 0)
(5.45697e-10 0 0)
(9.09495e-10 0 0)
(9.09495e-10 0 0)
(-1.81899e-10 0 0)
(-5.45697e-10 0 0)
(-3.63798e-10 0 0)
(-3.63798e-10 0 0)
(-3.63798e-10 0 0)
(-5.45697e-10 0 0)
(-3.63798e-10 0 0)
(-1.81899e-10 0 0)
(-5.45697e-10 0 0)
(-1.09139e-09 0 0)
(1.24247e-23 0 0)
(5.45697e-10 0 0)
(1.81899e-10 0 0)
(-3.63798e-10 0 0)
(-3.63798e-10 0 0)
(1.54628e-23 0 0)
(1.27329e-09 0 0)
(1.09139e-09 0 0)
(1.81899e-10 0 0)
(-3.63798e-10 0 0)
(-9.09495e-10 0 0)
(-1.57164e-23 0 0)
(-1.81899e-10 0 0)
(1.75086e-23 0 0)
(2.45569e-24 0 0)
(-1.81899e-10 0 0)
(-1.81899e-10 0 0)
(-5.45697e-10 0 0)
(-9.09495e-10 0 0)
(-1.81899e-10 0 0)
(6.97934e-25 0 0)
(3.63798e-10 0 0)
(5.45697e-10 0 0)
(5.45697e-10 0 0)
(5.45697e-10 0 0)
(3.63798e-10 0 0)
(-3.63798e-10 0 0)
(3.63798e-10 0 0)
(2.88608e-23 0 0)
(1.28084e-23 0 0)
(-1.81899e-10 0 0)
(-3.63798e-10 0 0)
(5.45697e-10 0 0)
(3.63798e-10 0 0)
(-1.81899e-10 0 0)
(-7.27596e-10 0 0)
(-9.09495e-10 0 0)
(-1.27329e-09 0 0)
(-9.09495e-10 0 0)
(-3.63798e-10 0 0)
(-1.81899e-10 0 0)
(-3.63798e-10 0 0)
(-5.45697e-10 0 0)
(-3.63798e-10 0 0)
(5.45697e-10 0 0)
(9.09495e-10 0 0)
(1.81899e-10 0 0)
(-1.81899e-10 0 0)
(7.75482e-26 0 0)
(-3.63798e-10 0 0)
(-5.45697e-10 0 0)
(-3.63798e-10 0 0)
(-3.63798e-10 0 0)
(-5.45697e-10 0 0)
(1.81899e-10 0 0)
(1.81899e-10 0 0)
(7.27596e-10 0 0)
(1.09139e-09 0 0)
(1.45519e-09 0 0)
(9.09495e-10 0 0)
(3.63798e-10 0 0)
(-1.81899e-10 0 0)
(-9.09495e-10 0 0)
(-9.09495e-10 0 0)
(-5.45697e-10 0 0)
(-5.45697e-10 0 0)
(-5.45697e-10 0 0)
(-1.58974e-24 0 0)
(-7.23783e-25 0 0)
(1.81899e-10 0 0)
(-5.45697e-10 0 0)
(-8.34935e-24 0 0)
(9.09495e-10 0 0)
(7.27596e-10 0 0)
(-4.67793e-24 0 0)
(-7.27596e-10 0 0)
(-7.27596e-10 0 0)
(5.43383e-24 0 0)
(1.81899e-10 0 0)
(-1.81899e-10 0 0)
(-5.45697e-10 0 0)
(-5.45697e-10 0 0)
(-2.89513e-24 0 0)
(-3.63798e-10 0 0)
(-3.63798e-10 0 0)
(-1.81899e-10 0 0)
(-5.45697e-10 0 0)
(8.78879e-25 0 0)
(3.63798e-10 0 0)
(2.58494e-25 0 0)
(5.45697e-10 0 0)
(7.27596e-10 0 0)
(-1.81899e-10 0 0)
(1.69293e-24 0 0)
(7.27596e-10 0 0)
(1.27329e-09 0 0)
(5.45697e-10 0 0)
(1.81899e-10 0 0)
(1.81899e-10 0 0)
(-5.45697e-10 0 0)
(-1.27329e-09 0 0)
(-7.27596e-10 0 0)
(-3.63798e-10 0 0)
(-3.63798e-10 0 0)
(3.63798e-10 0 0)
(3.63798e-10 0 0)
(1.81899e-10 0 0)
(-1.81899e-10 0 0)
(-1.81899e-10 0 0)
(3.63798e-10 0 0)
(3.63798e-10 0 0)
(-6.46235e-26 0 0)
(1.81899e-10 0 0)
(2.58494e-25 0 0)
(-1.81899e-10 0 0)
(-1.81899e-10 0 0)
(-7.27596e-10 0 0)
(-1.09139e-09 0 0)
(-7.27596e-10 0 0)
(-1.80946e-25 0 0)
(-9.09495e-10 0 0)
(-1.81899e-10 0 0)
(3.63798e-10 0 0)
(5.45697e-10 0 0)
(7.27596e-10 0 0)
(3.63798e-10 0 0)
(5.45697e-10 0 0)
(1.81899e-10 0 0)
(3.63798e-10 0 0)
(5.45697e-10 0 0)
(-2.37662e-25 0 0)
(-5.45697e-10 0 0)
(1.81899e-10 0 0)
(3.63798e-10 0 0)
(-2.13719e-24 0 0)
(-1.81899e-10 0 0)
(3.55429e-24 0 0)
(-7.37389e-25 0 0)
(1.32791e-24 0 0)
(7.27596e-10 0 0)
(3.63798e-10 0 0)
(2.1972e-25 0 0)
(-1.29247e-24 0 0)
(-1.09139e-09 0 0)
(-3.63798e-10 0 0)
(-5.45697e-10 0 0)
(-7.27596e-10 0 0)
(-7.27596e-10 0 0)
(-1.09139e-09 0 0)
(-7.27596e-10 0 0)
(-3.63798e-10 0 0)
(-1.61117e-25 0 0)
(7.27596e-10 0 0)
(9.09495e-10 0 0)
(9.09495e-10 0 0)
(9.09495e-10 0 0)
(1.81899e-10 0 0)
(5.45697e-10 0 0)
(5.45697e-10 0 0)
(-1.81899e-10 0 0)
(-9.09495e-10 0 0)
(-3.63798e-10 0 0)
(1.81899e-10 0 0)
(-7.75482e-26 0 0)
(2.85908e-25 0 0)
(-1.56011e-24 0 0)
(-9.56428e-25 0 0)
(-1.81899e-10 0 0)
(0 0 0)
(3.63798e-10 0 0)
(-3.63798e-10 0 0)
(-1.81899e-10 0 0)
(-5.45697e-10 0 0)
(-9.09495e-10 0 0)
(-1.09139e-09 0 0)
(-7.27596e-10 0 0)
(7.27596e-10 0 0)
(9.09495e-10 0 0)
(1.09139e-09 0 0)
(3.63798e-10 0 0)
(-5.57307e-24 0 0)
(3.02438e-24 0 0)
(5.45697e-10 0 0)
(3.63798e-10 0 0)
(-5.45697e-10 0 0)
(-1.81899e-10 0 0)
(3.63798e-10 0 0)
(3.63798e-10 0 0)
(1.81899e-10 0 0)
(3.63798e-10 0 0)
(-1.81899e-10 0 0)
(-1.81899e-10 0 0)
(7.27596e-10 0 0)
(-1.81899e-10 0 0)
(-1.81899e-10 0 0)
(-4.47195e-24 0 0)
(-3.63798e-10 0 0)
(2.71419e-25 0 0)
(-3.63798e-10 0 0)
(-1.81899e-10 0 0)
(-5.45697e-10 0 0)
(-3.63798e-10 0 0)
(-2.16428e-24 0 0)
(-3.78653e-24 0 0)
(-7.27596e-10 0 0)
(-3.63798e-10 0 0)
(-3.63798e-10 0 0)
(-3.63798e-10 0 0)
(7.75482e-25 0 0)
(3.63798e-10 0 0)
(1.09139e-09 0 0)
(1.09139e-09 0 0)
(1.81899e-10 0 0)
(-3.63798e-10 0 0)
(-9.09495e-10 0 0)
(-1.27329e-09 0 0)
(-3.63798e-10 0 0)
(-1.81899e-10 0 0)
(-9.09495e-10 0 0)
(-1.09139e-09 0 0)
(-5.45697e-10 0 0)
(-3.63798e-10 0 0)
(-3.63798e-10 0 0)
(1.81899e-10 0 0)
(7.27596e-10 0 0)
(1.27329e-09 0 0)
(1.09139e-09 0 0)
(1.09139e-09 0 0)
(7.27596e-10 0 0)
(5.45697e-10 0 0)
(-1.81899e-10 0 0)
(-9.09495e-10 0 0)
(-7.27596e-10 0 0)
(-3.63798e-10 0 0)
(-5.45697e-10 0 0)
(-9.09495e-10 0 0)
(-1.81899e-10 0 0)
(3.63798e-10 0 0)
(5.45697e-10 0 0)
(9.09495e-10 0 0)
(7.27596e-10 0 0)
(7.27596e-10 0 0)
(3.98081e-24 0 0)
(-3.63798e-10 0 0)
(-7.27596e-10 0 0)
(-1.09139e-09 0 0)
(-1.81899e-10 0 0)
(1.13737e-24 0 0)
(-1.81899e-10 0 0)
(-1.42172e-25 0 0)
(1.81899e-10 0 0)
(5.45697e-10 0 0)
(5.45697e-10 0 0)
(1.81899e-10 0 0)
(-7.27596e-10 0 0)
(-1.81899e-10 0 0)
(-7.88407e-25 0 0)
(-1.27329e-09 0 0)
(-1.63709e-09 0 0)
(-9.09495e-10 0 0)
(-3.63798e-10 0 0)
(5.493e-24 0 0)
(3.63798e-10 0 0)
(-1.81899e-10 0 0)
(1.81899e-10 0 0)
(1.81899e-10 0 0)
(5.45697e-10 0 0)
(2.45569e-25 0 0)
(7.27596e-10 0 0)
(9.09495e-10 0 0)
(1.81899e-10 0 0)
(-1.81899e-10 0 0)
(1.81899e-10 0 0)
(3.63798e-10 0 0)
(1.81899e-10 0 0)
(-5.45697e-10 0 0)
(-7.27596e-10 0 0)
(1.18907e-24 0 0)
(-2.06795e-25 0 0)
(3.63798e-10 0 0)
(-1.11778e-24 0 0)
(-3.63798e-10 0 0)
(3.63798e-10 0 0)
(1.81899e-10 0 0)
(-5.45697e-10 0 0)
(-3.63798e-10 0 0)
)
;

boundaryField
{
    sides
    {
        type            calculated;
        value           nonuniform List<vector> 2((-3.63798e-10 0 0) (1.45519e-09 0 0));
    }
    empty
    {
        type            empty;
    }
}


// ************************************************************************* //
