/*--------------------------------*- C++ -*----------------------------------*\
  =========                 |
  \\      /  F ield         | OpenFOAM: The Open Source CFD Toolbox
   \\    /   O peration     | Website:  https://openfoam.org
    \\  /    A nd           | Version:  13
     \\/     M anipulation  |
\*---------------------------------------------------------------------------*/
FoamFile
{
    format      ascii;
    class       volScalarField;
    location    "0.0025";
    object      CrankNicolson:ddt0(rho,e);
}
// * * * * * * * * * * * * * * * * * * * * * * * * * * * * * * * * * * * * * //

dimensions      [1 -1 -3 0 0 0 0];

internalField   nonuniform List<scalar> 
1000
(
-8.12037e-07
-1.62006e-06
-1.13402e-06
-2.22224e-06
3.85977e-06
2.81292e-07
-1.20213e-06
6.18789e-07
1.3429e-06
1.5129e-06
-6.84525e-07
1.49756e-07
1.43245e-06
-1.8909e-06
-2.54989e-06
1.92687e-06
1.37072e-06
1.09435e-06
6.17424e-06
1.06581e-06
8.62643e-09
2.71536e-07
-2.37037e-06
-3.40925e-07
1.75246e-06
1.26506e-06
-6.36375e-07
1.36877e-06
3.15421e-07
2.81119e-08
-1.49743e-06
-3.36762e-06
-2.75579e-07
1.84177e-06
1.16516e-06
2.93228e-06
-6.0823e-07
-2.41219e-06
1.73636e-08
2.75246e-06
1.82673e-07
8.18799e-07
9.13559e-07
-1.13527e-06
-9.45509e-07
1.35757e-06
-9.7599e-09
1.75539e-06
4.58157e-06
3.48536e-06
7.0544e-07
-3.92594e-07
1.47301e-06
-2.44943e-06
-3.21123e-08
1.4306e-06
-1.00565e-06
1.19032e-07
3.03588e-06
-4.14456e-07
1.53637e-06
-1.31521e-06
-2.15039e-06
-2.26379e-08
1.75849e-08
-1.66895e-06
-1.69418e-06
1.01222e-06
9.93798e-07
-3.27713e-07
-2.49535e-06
-8.59279e-07
3.46978e-06
-3.7727e-06
-1.29403e-06
1.08923e-06
-3.94095e-08
4.07192e-09
-7.02687e-07
-9.65454e-08
4.72135e-06
-2.7232e-06
1.0957e-06
1.02156e-06
3.02284e-06
-1.09131e-06
-1.37265e-06
-1.12585e-06
-1.165e-07
1.9127e-06
3.13767e-06
-5.3238e-07
2.40385e-06
2.20517e-06
2.57502e-06
1.09873e-06
-9.31547e-07
-1.40595e-06
-1.81155e-06
-4.97285e-07
-2.09917e-06
1.7267e-06
-5.07189e-07
3.49398e-06
6.42086e-09
2.20448e-09
1.18636e-06
-2.10631e-06
2.72799e-06
1.30721e-08
-7.03538e-08
-9.14163e-09
-2.21353e-07
3.89185e-07
3.68723e-06
2.85332e-06
-1.22037e-06
-3.71391e-06
4.88589e-07
-1.06611e-06
2.31215e-06
-1.1091e-07
-2.43397e-06
-3.26266e-06
1.09858e-06
4.02107e-06
-2.9205e-06
5.43203e-07
-1.40138e-06
-1.44668e-06
4.54866e-06
3.26932e-06
3.11897e-06
5.41786e-06
-1.41346e-07
2.46048e-08
-1.66221e-07
1.58407e-07
-2.12235e-07
-2.19851e-06
-1.46907e-08
1.44232e-07
-2.04881e-07
-1.88579e-07
-5.63054e-08
-4.60533e-07
-1.01708e-06
-1.07537e-06
3.85825e-06
2.80576e-06
-2.55908e-08
-9.28456e-07
-2.41484e-06
1.07812e-06
6.09522e-07
-1.43394e-06
-7.41345e-07
1.44047e-08
-2.15003e-06
2.60938e-06
2.37717e-06
1.0961e-06
7.90467e-07
2.0391e-06
5.18754e-08
-1.1057e-08
-1.69721e-06
-2.75527e-06
1.42821e-06
5.46646e-07
2.99675e-06
3.76321e-07
-1.53463e-06
-1.12073e-06
-3.43628e-06
1.67675e-06
9.89692e-07
-2.17945e-06
5.03416e-07
-1.09167e-06
-1.51004e-06
4.58716e-08
-1.41238e-06
-2.04569e-07
-2.3536e-06
-2.03169e-08
3.72738e-06
-1.84542e-07
-1.76691e-07
-1.42546e-06
-5.64372e-07
-2.77437e-07
2.90571e-07
-1.85629e-07
-6.38139e-07
-1.1178e-06
7.32322e-07
6.07791e-07
9.45302e-07
-3.00643e-07
-6.92746e-08
-1.78151e-06
-1.99821e-06
-2.06649e-06
-2.5089e-06
1.71931e-06
2.53607e-08
1.69017e-07
-3.3801e-07
-2.65522e-06
-5.09924e-07
-2.57811e-06
-8.67516e-07
-8.95285e-07
-6.06479e-07
-2.72823e-07
2.18278e-06
1.03662e-10
-1.91081e-09
-1.33273e-07
-5.33244e-07
7.56519e-08
-6.26293e-07
-2.12851e-09
1.02584e-07
-1.37941e-06
-2.7712e-07
3.92953e-07
-2.66652e-07
1.49094e-06
8.2121e-07
2.17396e-06
8.92145e-08
-5.57847e-07
6.39352e-09
2.56831e-07
-1.12064e-06
-8.17424e-07
-1.1018e-06
1.37093e-06
3.72022e-07
7.00023e-07
1.70498e-06
-1.68759e-06
1.22722e-08
4.12456e-06
-2.68627e-07
7.77196e-08
1.47681e-06
-1.64159e-06
-1.52454e-06
5.95552e-08
1.65028e-06
-1.63583e-06
2.80166e-06
8.83013e-07
7.27414e-07
-1.18792e-06
2.9523e-06
-4.66382e-06
5.8309e-06
-2.20332e-06
-1.26458e-06
2.15896e-06
2.4326e-06
-3.26604e-06
2.41942e-06
-6.8931e-07
3.87718e-08
-2.67684e-06
-1.3971e-08
-1.72998e-06
-1.26731e-06
5.11325e-08
-1.19582e-06
-2.31936e-06
-2.21295e-06
3.0585e-06
-2.24482e-07
-1.14646e-06
3.02112e-07
2.42291e-06
1.52962e-06
4.85247e-07
5.75572e-07
1.48336e-06
-9.71276e-07
1.42551e-06
-1.52812e-06
-7.55675e-07
-1.05052e-06
-3.04987e-07
-8.0504e-07
-2.10871e-06
-4.60469e-07
3.28937e-06
1.64718e-06
-3.37853e-07
2.33868e-07
1.05722e-06
-7.06707e-08
1.79966e-06
-1.46882e-07
-1.14047e-06
-2.4531e-06
3.66706e-07
-1.37221e-07
-6.33166e-07
1.19413e-07
1.0198e-06
7.89833e-08
1.62827e-06
-5.55329e-07
-1.76724e-06
6.70339e-07
-4.78043e-07
-1.14045e-06
8.91251e-07
-3.71951e-07
-1.0265e-07
-1.10397e-06
1.28507e-06
3.5213e-06
2.2067e-06
-1.20018e-07
-1.047e-06
2.33164e-06
6.05579e-07
-3.95777e-06
-2.29705e-06
1.02304e-06
1.33494e-06
2.69594e-06
-1.20932e-06
-6.06074e-06
-2.84476e-08
1.34399e-06
6.13029e-07
-2.65295e-06
1.26706e-10
1.10552e-06
-4.10161e-06
7.5053e-07
8.99401e-07
-6.13471e-07
1.4301e-06
-1.69394e-07
-8.05036e-07
-1.81435e-06
-4.37952e-07
-3.74206e-07
-1.02865e-06
-2.63792e-07
-1.61796e-06
3.30178e-06
2.77905e-07
-1.5177e-06
-7.0332e-07
1.24714e-07
-4.00682e-06
-5.76494e-06
-1.23598e-05
-3.38013e-05
-8.6977e-05
-0.000219803
-0.000552395
-0.00136486
-0.00332418
-0.00802606
-0.0191317
-0.0450851
-0.104984
-0.241487
-0.548591
-1.2304
-2.72372
-5.94927
-12.8175
-27.2291
-57.015
-117.625
-238.989
-478.001
-940.672
-1820.44
-3462.52
-6468.67
-11861.7
-21333.4
-37600.6
-64886.7
-109522
-180612
-290642
-455782
-695535
-1.03131e+06
-1.48357e+06
-2.06744e+06
-2.7874e+06
-3.63216e+06
-4.5717e+06
-5.5582e+06
-6.5317e+06
-7.42933e+06
-8.19577e+06
-8.7969e+06
-9.22845e+06
-9.5047e+06
-9.64804e+06
-9.68245e+06
-9.63008e+06
-9.50981e+06
-9.33709e+06
-9.12426e+06
-8.88099e+06
-8.61486e+06
-8.33177e+06
-8.03632e+06
-7.73212e+06
-7.42201e+06
-7.10823e+06
-6.7926e+06
-6.47657e+06
-6.16135e+06
-5.84793e+06
-5.53716e+06
-5.22975e+06
-4.92634e+06
-4.62747e+06
-4.33363e+06
-4.04526e+06
-3.76272e+06
-3.48638e+06
-3.21654e+06
-2.95347e+06
-2.69742e+06
-2.44859e+06
-2.20716e+06
-1.97328e+06
-1.74708e+06
-1.52866e+06
-1.31809e+06
-1.11542e+06
-920680
-733887
-555032
-384095
-221037
-65810.2
81647.2
221407
353548
478161
595340
705186
807807
903314
991820
1.07345e+06
1.14831e+06
1.21654e+06
1.27825e+06
1.33358e+06
1.38265e+06
1.4256e+06
1.46254e+06
1.49361e+06
1.51894e+06
1.53866e+06
1.55291e+06
1.5618e+06
1.56548e+06
1.56407e+06
1.55769e+06
1.5465e+06
1.5306e+06
1.51013e+06
1.48522e+06
1.45599e+06
1.42259e+06
1.38513e+06
1.34376e+06
1.29859e+06
1.24977e+06
1.19743e+06
1.14172e+06
1.08277e+06
1.02074e+06
955787
888090
817833
745221
670489
593906
515788
436514
356546
276452
196945
118926
43533.2
-27790.7
-93236.3
-150568
-197101
-229740
-245159
-240190
-212489
-161535
-89822.3
-3939.03
85040.2
162495
213064
221393
177837
83225.2
-49345.9
-197469
-335775
-441847
-500219
-502113
-442921
-326603
-165894
17929
196577
338520
414201
406160
304938
122324
-108082
-339161
-524120
-628384
-638253
-554970
-397933
-203189
-16017.9
118752
167271
115969
-29123.3
-235759
-454457
-634373
-739574
-759818
-708532
-623002
-551620
-535603
-590910
-705087
-860906
-1.10052e+06
-1.63331e+06
-2.95592e+06
-5.9282e+06
-1.17394e+07
-2.16973e+07
-3.67959e+07
-5.71217e+07
-8.13327e+07
-1.06572e+08
-1.2905e+08
-1.45092e+08
-1.52145e+08
-1.49313e+08
-1.37367e+08
-1.18359e+08
-9.50427e+07
-7.02887e+07
-4.66608e+07
-2.61798e+07
-1.02029e+07
664040
6.60114e+06
8.48194e+06
7.6153e+06
5.38792e+06
2.93845e+06
975129
-232994
-740103
-764127
-549944
-286775
-80390.3
36488.4
76546.6
69860.9
44750.5
19415.7
1628.05
-7762.79
-10915.8
-10357.5
-7885.52
-4575.9
-1094.33
2224.59
5133.62
7020.83
7646.52
7983.96
7697.97
4588.41
1997.19
4970.15
1872.3
-11831.3
1415.49
29106.6
-25263.5
-56365.8
133724
105784
-389737
86640.7
1.22563e+06
-805185
-2.42731e+06
4.8705e+06
4.77459e+06
-1.5252e+07
496279
4.96229e+07
-1.86417e+07
-9.88474e+07
2.73659e+08
2.38157e+08
5.85374e+06
-8.10927e+06
-1.08577e+06
-162064
-27106.9
-4520.53
-749.518
-124.037
-20.5176
-3.39357
-0.561278
-0.0928319
-0.0153536
-0.00253964
-0.00042001
-7.03971e-05
-1.08015e-05
-1.31737e-06
-7.69281e-07
5.07065e-07
-2.20415e-07
-5.62263e-07
3.50137e-09
4.34415e-08
-6.28194e-07
4.45709e-07
4.43388e-08
6.13725e-08
3.1716e-07
3.26623e-07
3.90987e-07
2.88839e-07
3.08289e-07
-1.76897e-07
7.40067e-08
3.03366e-07
4.90358e-07
-7.84293e-07
-2.53134e-07
-6.53276e-07
-4.09181e-07
3.59178e-07
-2.95211e-07
7.57381e-08
8.4083e-09
-1.72644e-07
3.0995e-07
1.26236e-07
-8.79429e-07
-1.02529e-08
-2.51468e-08
-6.19773e-07
-1.70572e-07
5.73308e-07
-2.53647e-07
-6.01293e-08
6.03315e-07
-4.33954e-07
-9.55902e-08
-2.94471e-07
-4.52525e-07
1.60037e-07
-7.06607e-08
-6.85332e-07
-3.80018e-07
8.4628e-07
3.2455e-07
4.74452e-07
1.03444e-07
-9.09398e-08
-5.42943e-09
-6.63917e-07
-7.5996e-07
-2.36919e-07
-2.10487e-08
-6.12994e-07
4.69575e-07
4.69794e-07
1.98961e-07
-1.63432e-07
-1.14485e-07
2.07366e-07
3.08454e-07
2.16603e-07
-6.31207e-07
-6.30347e-08
1.08364e-07
1.04872e-07
2.69777e-09
4.84353e-08
6.63471e-08
-8.15492e-08
-8.88505e-07
1.15107e-07
-3.25362e-07
2.99805e-08
-1.1907e-08
-4.27464e-08
2.77615e-07
5.44425e-07
1.07869e-07
1.88914e-07
3.30448e-07
2.09322e-07
4.06492e-07
8.49519e-07
8.02007e-07
-8.18053e-08
2.81518e-07
5.72633e-09
1.53003e-07
3.83818e-08
2.05802e-07
3.28138e-07
-1.15894e-07
-2.57907e-07
1.68929e-07
-1.74529e-07
-3.96235e-07
1.23859e-08
2.081e-07
3.91853e-07
1.32968e-07
-3.62422e-08
-7.85097e-07
4.51241e-07
7.10083e-07
1.33738e-07
-4.07406e-07
-4.09107e-07
-4.26087e-07
-1.21398e-07
3.32016e-07
-2.0787e-07
1.66883e-08
1.63307e-07
2.7692e-07
-6.19539e-07
-2.77749e-07
-5.69705e-07
-5.40424e-07
-5.02835e-07
-1.37291e-08
2.70766e-07
-1.15503e-07
-1.47853e-07
-2.59811e-07
2.67881e-07
5.34949e-07
-2.77578e-07
-6.98091e-07
6.17004e-09
-5.94558e-07
8.22611e-07
-3.81391e-07
7.94351e-08
2.58809e-08
-2.74647e-07
-2.72868e-07
3.6956e-08
-4.43122e-07
-4.77462e-07
2.56229e-07
9.15102e-08
7.29659e-09
4.13558e-07
-2.51432e-07
5.05864e-10
5.74768e-07
-1.83378e-07
-5.84436e-07
-7.74946e-07
-1.02317e-07
2.75692e-07
-6.55319e-08
-3.31715e-07
1.22845e-07
-6.27923e-07
4.21255e-07
-8.18404e-07
1.58505e-07
-5.59543e-08
7.2882e-07
3.93225e-07
-6.71443e-08
-2.70555e-08
-2.69526e-07
3.9532e-08
-1.13949e-07
5.19499e-09
1.6873e-08
-3.41193e-07
-4.2628e-07
7.15738e-07
-3.61649e-07
1.10981e-07
-1.97092e-07
3.07139e-07
2.63921e-07
-2.04524e-07
-6.55602e-07
1.10843e-07
9.60866e-07
-2.13246e-07
-1.11877e-08
5.38508e-07
-3.62011e-07
6.06486e-07
1.41224e-07
-1.50523e-08
3.96273e-07
-7.21697e-07
5.96639e-07
-8.45022e-08
-2.04664e-08
1.82088e-07
1.65023e-10
3.13429e-07
-6.58155e-07
2.79232e-07
-6.96203e-07
6.13026e-07
2.21154e-08
1.07967e-06
1.64135e-07
-1.11272e-06
-2.13164e-07
-1.01364e-08
-9.8611e-08
-1.31689e-07
-8.09444e-07
1.72848e-07
-2.92222e-08
6.73058e-07
-2.60973e-07
2.06549e-07
-1.60984e-06
5.34644e-07
-6.1825e-08
1.51742e-07
-8.54286e-09
-4.45765e-07
-1.12549e-06
-3.44259e-07
-9.37913e-08
-2.5846e-07
-1.38499e-07
-8.14771e-09
2.85663e-07
-1.9138e-07
-1.3578e-07
6.0365e-07
-2.10685e-08
-2.0219e-07
2.29059e-07
6.8633e-08
1.52818e-07
-5.74573e-07
1.21438e-06
-3.30575e-07
5.48469e-07
-4.66384e-07
7.26383e-07
-2.54437e-07
-1.02747e-08
-5.58587e-07
-7.55932e-07
2.37489e-09
-4.18146e-07
2.48351e-07
-4.6888e-07
6.28265e-07
-3.73806e-07
-4.77926e-07
2.55908e-07
-7.52465e-07
-5.45699e-07
1.96614e-07
-4.77593e-09
2.10845e-07
2.00454e-07
-5.84117e-07
-4.42533e-07
-8.47387e-08
-3.92147e-07
-1.86858e-07
-2.99894e-07
-2.53192e-07
-8.92288e-07
-2.50825e-08
4.549e-07
3.86779e-07
2.70529e-07
4.10401e-07
-6.79449e-07
-3.26201e-12
-6.37419e-07
6.73436e-07
1.02915e-07
5.97653e-09
4.35988e-07
-2.64848e-08
1.8329e-07
-8.35731e-07
2.59803e-07
-6.56337e-07
-7.47983e-07
-5.47704e-07
-6.01542e-07
-6.22463e-07
-8.4531e-08
-4.1104e-07
-4.91436e-08
-1.28031e-07
-3.95697e-07
-9.30232e-08
7.00599e-07
-3.17258e-08
-1.5348e-07
2.39502e-07
-1.02241e-06
9.54699e-07
9.51254e-08
4.04235e-07
-9.00373e-07
2.58193e-07
-2.11456e-07
-6.44012e-07
1.29603e-07
9.58106e-08
2.72833e-07
-8.9748e-07
6.81263e-07
-8.07413e-07
1.41174e-07
1.87373e-07
2.27024e-07
-3.17766e-07
-6.5951e-07
-2.59068e-07
2.01113e-08
-5.41918e-07
4.33396e-07
-1.04649e-07
-9.1833e-08
-2.70778e-08
4.74834e-08
3.06188e-07
-1.47216e-08
3.47051e-08
-3.09873e-07
3.54184e-07
-5.67246e-07
-1.09798e-07
1.07922e-08
-8.94512e-09
-2.74641e-07
-1.1908e-07
-3.6639e-07
-2.30079e-07
1.15378e-07
4.0068e-07
-1.31575e-10
)
;

boundaryField
{
    sides
    {
        type            calculated;
        value           nonuniform List<scalar> 2(-1.31575e-10 -8.12037e-07);
    }
    empty
    {
        type            empty;
    }
}


// ************************************************************************* //
