/*--------------------------------*- C++ -*----------------------------------*\
  =========                 |
  \\      /  F ield         | OpenFOAM: The Open Source CFD Toolbox
   \\    /   O peration     | Website:  https://openfoam.org
    \\  /    A nd           | Version:  13
     \\/     M anipulation  |
\*---------------------------------------------------------------------------*/
FoamFile
{
    format      ascii;
    class       volScalarField;
    location    "0.0025";
    object      mag(U);
}
// * * * * * * * * * * * * * * * * * * * * * * * * * * * * * * * * * * * * * //

dimensions      [0 1 -1 0 0 0 0];

internalField   nonuniform List<scalar> 
1000
(
1.31772e-12
1.13781e-12
1.35662e-12
9.43312e-13
1.35176e-12
1.07946e-12
1.17185e-12
8.75238e-13
9.91936e-13
9.53037e-13
1.1524e-12
1.00652e-12
1.21561e-12
1.07946e-12
9.87074e-13
7.97439e-13
7.58539e-13
7.1964e-13
9.43312e-13
9.53037e-13
1.04056e-12
9.82211e-13
8.02301e-13
8.84963e-13
1.11836e-12
1.06487e-12
9.57899e-13
1.08918e-12
1.06974e-12
1.16698e-12
1.0357e-12
1.12808e-12
8.9955e-13
7.97439e-13
1.00166e-12
1.11836e-12
9.91936e-13
1.18643e-12
7.05053e-13
9.57899e-13
1.06974e-12
1.10863e-12
9.38449e-13
5.25143e-13
4.37619e-13
3.88995e-14
2.13947e-13
2.86883e-13
5.10555e-13
2.04222e-13
4.37619e-13
3.93857e-13
3.45233e-13
7.29365e-14
1.84772e-13
1.02111e-13
6.32116e-14
6.32116e-14
4.37619e-14
1.84772e-13
4.03582e-13
4.23032e-13
5.0083e-13
4.76518e-13
3.64682e-13
3.20921e-13
2.28534e-13
3.06333e-13
3.50095e-13
4.23032e-13
1.06974e-13
6.8074e-14
4.86243e-15
1.45873e-13
4.86243e-13
3.4037e-13
1.89635e-13
2.18809e-13
2.52846e-13
2.04222e-13
1.06974e-13
9.23862e-14
1.45873e-13
9.72486e-14
4.0011e-27
6.8074e-14
1.50735e-13
3.88995e-14
2.18809e-13
8.26613e-14
1.55598e-13
4.23032e-13
4.95968e-13
4.37619e-13
2.91746e-13
3.88995e-13
5.68905e-13
2.82021e-13
2.28534e-13
5.34868e-14
1.84772e-13
5.34868e-13
6.8074e-14
1.45873e-14
3.4037e-14
6.32116e-14
1.50735e-13
2.43122e-13
3.84132e-13
4.03582e-13
3.64682e-13
4.42481e-13
5.15418e-13
4.76518e-13
4.61931e-13
4.08444e-13
4.66793e-13
4.42481e-13
4.42481e-13
6.41841e-13
3.4037e-13
2.96608e-13
1.94497e-14
2.96608e-13
3.06333e-13
2.38259e-13
1.6046e-13
3.35508e-13
2.77159e-13
8.26613e-14
9.72486e-15
3.06333e-13
2.82021e-13
5.15418e-13
4.66793e-13
4.52206e-13
4.95968e-13
3.16058e-13
4.08444e-13
2.86883e-13
2.96608e-13
2.91746e-14
1.84772e-13
1.41011e-13
2.62571e-13
1.21561e-13
4.86243e-15
1.84772e-13
3.45233e-13
6.8074e-14
9.72486e-15
4.37619e-14
2.47984e-13
3.30645e-13
1.55598e-13
4.86243e-15
7.29365e-14
3.4037e-14
6.81576e-28
1.11836e-13
8.75238e-14
9.72486e-14
1.70185e-13
1.94497e-14
4.37619e-14
1.41011e-13
1.02111e-13
2.67434e-13
1.21561e-13
9.23862e-14
7.77989e-14
2.86883e-13
3.54958e-13
2.67434e-13
1.75048e-13
1.26423e-13
2.91746e-14
7.29365e-14
7.00632e-27
5.34868e-14
1.65323e-13
8.75238e-14
6.3172e-27
2.47984e-13
1.55598e-13
9.23862e-14
9.72486e-15
1.94497e-13
6.8074e-14
9.72486e-15
5.83492e-14
7.77989e-14
5.83492e-14
1.9936e-13
1.02111e-13
2.09085e-13
1.6046e-13
3.98719e-13
3.84132e-13
3.54958e-13
3.93857e-13
3.11196e-13
2.91746e-14
4.86243e-15
2.43122e-14
4.32756e-13
3.16058e-13
2.47984e-13
2.91746e-14
1.7991e-13
3.35508e-13
1.36148e-13
1.94497e-13
3.88995e-14
3.88995e-14
3.4037e-14
1.06974e-13
8.26613e-14
3.06333e-13
2.43122e-14
3.5982e-13
1.65323e-13
2.67434e-13
1.26423e-13
1.75048e-13
2.23672e-13
6.8074e-14
5.34868e-14
8.26613e-14
1.26423e-13
1.45873e-13
2.13947e-13
3.74407e-13
2.57709e-13
3.54958e-13
2.18809e-13
3.4037e-13
3.30645e-13
1.94497e-13
6.32116e-14
4.86243e-15
1.21561e-13
5.10555e-13
1.94497e-13
5.05693e-13
5.78629e-13
7.58539e-13
7.0019e-13
7.48815e-13
5.83492e-13
5.15418e-13
3.69545e-13
1.45873e-13
6.32116e-14
1.06974e-13
6.12666e-13
5.83492e-13
9.77349e-13
6.36979e-13
4.86243e-13
2.28534e-13
3.11196e-13
1.70185e-13
1.9936e-13
2.43122e-14
2.57709e-13
4.37619e-14
2.57709e-13
3.01471e-13
2.86883e-13
2.13947e-13
1.36148e-13
1.16698e-13
4.32756e-13
4.57069e-13
6.32116e-13
5.2028e-13
1.94497e-13
9.23862e-14
2.13947e-13
7.77989e-14
4.86243e-15
2.82021e-13
2.33397e-13
3.7927e-13
2.77159e-13
3.98719e-13
2.57709e-13
4.03582e-13
5.98079e-13
5.54317e-13
5.98079e-13
6.12666e-13
5.64042e-13
4.91106e-13
8.31476e-13
6.8074e-13
8.89825e-13
6.51566e-13
5.78629e-13
2.96608e-13
5.30005e-13
1.75048e-13
2.57709e-13
9.72486e-15
3.4037e-13
2.43122e-13
5.5918e-13
3.7927e-13
5.15418e-13
9.72486e-14
4.27894e-13
1.89635e-13
7.92576e-13
6.95328e-13
9.19e-13
8.31476e-13
6.36979e-13
8.12026e-13
6.66153e-13
6.07804e-13
6.56428e-13
4.13307e-13
4.23032e-13
3.93857e-13
3.84132e-13
2.57709e-13
1.11836e-13
2.18809e-13
4.47344e-13
5.3973e-13
5.15418e-13
1.9936e-13
2.67434e-13
2.67434e-13
3.20921e-13
2.04222e-13
2.13947e-13
3.88995e-13
4.95968e-13
5.93217e-13
7.29365e-13
6.27254e-13
5.73767e-13
5.78629e-13
3.30645e-13
3.69545e-13
5.34868e-14
3.69545e-13
3.7927e-13
4.13307e-13
3.30645e-13
4.61931e-13
7.05053e-13
7.29365e-13
6.85603e-13
7.48815e-13
8.31476e-13
8.26613e-13
1.13781e-12
1.95956e-12
4.57069e-12
1.10961e-11
2.82118e-11
7.10353e-11
1.78247e-10
4.42617e-10
1.08666e-09
2.63802e-09
6.33342e-09
1.50312e-08
3.5263e-08
8.17499e-08
1.87242e-07
4.23603e-07
9.46318e-07
2.08698e-06
4.54232e-06
9.75394e-06
2.06578e-05
4.31364e-05
8.87767e-05
0.000180004
0.000359431
0.000706492
0.00136633
0.00259859
0.0048576
0.00891978
0.0160791
0.0284351
0.0492965
0.083717
0.139154
0.226205
0.359302
0.557201
0.842996
1.24341
1.78719
2.50254
3.41397
4.53904
5.88574
7.45121
9.22216
11.1778
13.294
15.5472
17.9158
20.3816
22.9293
25.5466
28.2234
30.9518
33.7251
36.5384
39.3872
42.2681
45.1782
48.1151
51.0767
54.0612
57.067
60.0927
63.137
66.1987
69.2768
72.3702
75.4781
78.5994
81.7334
84.8792
88.0361
91.2033
94.3801
97.566
100.76
103.962
107.171
110.387
113.61
116.838
120.071
123.309
126.552
129.799
133.05
136.305
139.562
142.823
146.087
149.353
152.622
155.892
159.164
162.438
165.714
168.99
172.268
175.546
178.826
182.105
185.385
188.665
191.945
195.224
198.503
201.781
205.057
208.333
211.607
214.879
218.148
221.415
224.679
227.94
231.196
234.448
237.694
240.935
244.169
247.396
250.613
253.821
257.017
260.201
263.369
266.52
269.651
272.758
275.838
278.886
281.897
284.862
287.774
290.622
293.393
296.072
298.638
301.067
303.33
305.389
307.199
308.706
309.845
310.541
310.713
310.274
309.147
307.274
304.644
301.319
297.452
293.308
289.245
285.686
283.046
281.639
281.608
282.884
285.22
288.244
291.534
294.68
297.319
299.169
300.05
299.9
298.785
296.902
294.557
292.13
290.018
288.565
287.98
288.297
289.373
290.932
292.636
294.147
295.193
295.615
295.385
294.616
293.524
292.381
291.454
290.939
290.914
291.326
292.017
292.772
293.385
293.708
293.689
293.379
292.909
292.445
292.133
292.053
292.201
292.495
292.817
293.056
293.151
293.115
293.023
292.966
293.002
293.106
293.186
293.148
292.964
292.694
292.432
292.239
292.123
292.066
292.063
292.123
292.243
292.398
292.547
292.658
292.72
292.741
292.736
292.719
292.7
292.683
292.672
292.667
292.667
292.671
292.675
292.678
292.679
292.68
292.681
292.682
292.683
292.684
292.685
292.686
292.687
292.688
292.69
292.691
292.692
292.694
292.695
292.696
292.697
292.699
292.7
292.701
292.704
292.704
292.701
292.706
292.709
292.686
292.677
292.715
292.659
292.507
292.648
292.77
291.953
291.673
293.389
291.536
285.433
291.247
293.333
233.841
110.385
27.012
4.84982
0.816425
0.134481
0.0222202
0.00367472
0.000607783
0.000100524
1.66262e-05
2.74988e-06
4.54811e-07
7.52225e-08
1.24406e-08
2.05738e-09
3.39982e-10
5.59132e-11
8.92744e-12
1.23992e-12
4.32757e-13
4.13307e-13
7.39091e-13
6.27255e-13
8.80101e-13
6.3698e-13
7.53678e-13
3.84133e-13
2.67434e-13
4.08445e-13
5.7863e-13
4.66794e-13
6.27255e-13
8.65514e-13
6.71017e-13
6.1753e-13
4.1817e-13
6.07805e-13
6.95329e-13
7.00191e-13
7.73128e-13
9.67625e-13
9.579e-13
8.26615e-13
7.82853e-13
9.14139e-13
8.75239e-13
7.19641e-13
7.53678e-13
6.85604e-13
1.13781e-12
1.03084e-12
1.09891e-12
7.14779e-13
9.82213e-13
5.25143e-13
8.31477e-13
9.28726e-13
8.46064e-13
8.12027e-13
1.00652e-12
1.10377e-12
1.28368e-12
1.39066e-12
1.40038e-12
1.21075e-12
1.27882e-12
1.22533e-12
1.36635e-12
1.76507e-12
1.90608e-12
1.89635e-12
1.88176e-12
1.89149e-12
2.3048e-12
2.31452e-12
2.76673e-12
2.85425e-12
2.44581e-12
2.24158e-12
1.90121e-12
2.07626e-12
1.82828e-12
1.85745e-12
1.37607e-12
1.6435e-12
1.33717e-12
1.66295e-12
1.70672e-12
1.78452e-12
1.85745e-12
1.80883e-12
1.48791e-12
1.43928e-12
1.50736e-12
1.66782e-12
1.92066e-12
1.96443e-12
1.67754e-12
1.83314e-12
1.59002e-12
1.56084e-12
1.75048e-12
1.66295e-12
1.55112e-12
1.37607e-12
1.88176e-12
1.38093e-12
1.46846e-12
1.08432e-12
1.27396e-12
9.53038e-13
1.1135e-12
6.85604e-13
3.88995e-13
6.51567e-13
1.7991e-13
1.6046e-13
4.3762e-13
1.16699e-13
7.7799e-14
4.86244e-14
2.57709e-13
2.13947e-13
1.70185e-13
2.72297e-13
9.72488e-15
2.52847e-13
4.86244e-13
2.43122e-14
2.09085e-13
1.02111e-13
3.40371e-13
5.44593e-13
6.61292e-13
3.9872e-13
5.34868e-14
2.91746e-14
1.6046e-13
2.77159e-13
2.86884e-13
5.15419e-13
2.82021e-13
2.82021e-13
1.84773e-13
3.11196e-13
7.29366e-13
7.43953e-13
8.31477e-13
7.48816e-13
1.25451e-12
1.13781e-12
1.22533e-12
9.72488e-13
9.43313e-13
6.3698e-13
4.81381e-13
2.13947e-13
3.16059e-13
2.3826e-13
3.93858e-13
4.57069e-13
1.89635e-13
3.5982e-13
3.5982e-13
9.72488e-15
1.55598e-13
8.26615e-14
1.50736e-13
1.41011e-13
2.82021e-13
5.73768e-13
7.82853e-13
1.34203e-12
1.12809e-12
1.1913e-12
1.0357e-12
9.67625e-13
7.39091e-13
7.63403e-13
6.75879e-13
7.43953e-13
3.54958e-13
3.20921e-13
3.9872e-13
3.88995e-14
1.75048e-13
2.43122e-14
3.88995e-14
1.94498e-14
2.28535e-13
1.45873e-14
6.32117e-14
9.23863e-14
1.84773e-13
2.23672e-13
2.82021e-13
1.9936e-13
2.77159e-13
3.88995e-14
4.86244e-15
6.80741e-14
2.96609e-13
1.45873e-14
4.3762e-14
1.70185e-13
2.1881e-13
8.26615e-14
4.86244e-15
1.65323e-13
7.7799e-14
1.26423e-13
2.43122e-13
1.89635e-13
5.15419e-13
9.23863e-14
2.13947e-13
2.33397e-13
2.1881e-13
1.7991e-13
3.64683e-13
3.11196e-13
4.95969e-13
3.84133e-13
3.25783e-13
7.29366e-14
9.72488e-14
1.11836e-13
6.32117e-14
4.3762e-14
7.7799e-14
1.31286e-13
2.67434e-13
3.06334e-13
3.25783e-13
5.15419e-13
3.93858e-13
7.53678e-13
4.47344e-13
7.09916e-13
5.83493e-14
1.41011e-13
6.80741e-14
7.29366e-14
3.54958e-13
3.11196e-13
3.20921e-13
3.93858e-13
5.34868e-14
3.30646e-13
2.86884e-13
5.88355e-13
7.14779e-13
8.60652e-13
8.41202e-13
1.11836e-12
5.10556e-13
1.12809e-12
1.00652e-12
1.08919e-12
1.05515e-12
1.10864e-12
1.23506e-12
1.11836e-12
1.16212e-12
1.05515e-12
1.22533e-12
1.57057e-12
1.52194e-12
1.58516e-12
1.49763e-12
1.30313e-12
1.23506e-12
9.7735e-13
1.1524e-12
9.48176e-13
1.0357e-12
6.56429e-13
8.46064e-13
8.99551e-13
8.65514e-13
1.09405e-12
1.28855e-12
1.61433e-12
1.37607e-12
1.49277e-12
1.26423e-12
1.02111e-12
1.26423e-12
1.24478e-12
1.37121e-12
1.30313e-12
1.44901e-12
1.21561e-12
1.05029e-12
1.12809e-12
5.15419e-13
8.60652e-13
4.3762e-13
7.14779e-13
5.88355e-13
7.73128e-13
6.41842e-13
4.42482e-13
4.3762e-14
2.28535e-13
3.25783e-13
4.52207e-13
1.94498e-14
1.36148e-13
5.34868e-14
2.72297e-13
4.95969e-13
7.00191e-13
6.02942e-13
5.88355e-13
1.11836e-13
1.9936e-13
5.39731e-13
6.07805e-13
4.95969e-13
2.52847e-13
5.34868e-13
1.02111e-13
3.40371e-14
1.41011e-13
1.02111e-13
2.91746e-14
2.47984e-13
1.16699e-13
1.7991e-13
1.06974e-13
5.34868e-14
2.91746e-13
4.3762e-14
3.93858e-13
1.45873e-13
1.02111e-13
6.46704e-13
4.81381e-13
7.48816e-13
2.28535e-13
3.74408e-13
1.31286e-13
5.34868e-13
2.86884e-13
8.1689e-13
5.34868e-13
6.80741e-13
5.20281e-13
2.96609e-13
9.23863e-14
2.91746e-14
5.68905e-13
4.47344e-13
6.22392e-13
5.44593e-13
4.52207e-13
3.74408e-13
5.54318e-13
6.32117e-13
6.41842e-13
1.7991e-13
3.9872e-13
)
;

boundaryField
{
    sides
    {
        type            calculated;
        value           nonuniform List<scalar> 2(3.9872e-13 1.31772e-12);
    }
    empty
    {
        type            empty;
    }
}


// ************************************************************************* //
