/*--------------------------------*- C++ -*----------------------------------*\
  =========                 |
  \\      /  F ield         | OpenFOAM: The Open Source CFD Toolbox
   \\    /   O peration     | Website:  https://openfoam.org
    \\  /    A nd           | Version:  13
     \\/     M anipulation  |
\*---------------------------------------------------------------------------*/
FoamFile
{
    format      ascii;
    class       volScalarField;
    location    "0.0025";
    object      p;
}
// * * * * * * * * * * * * * * * * * * * * * * * * * * * * * * * * * * * * * //

dimensions      [1 -1 -2 0 0 0 0];

internalField   nonuniform List<scalar> 
1000
(
100000
100000
100000
100000
100000
100000
100000
100000
100000
100000
100000
100000
100000
100000
100000
100000
100000
100000
100000
100000
100000
100000
100000
100000
100000
100000
100000
100000
100000
100000
100000
100000
100000
100000
100000
100000
100000
100000
100000
100000
100000
100000
100000
100000
100000
100000
100000
100000
100000
100000
100000
100000
100000
100000
100000
100000
100000
100000
100000
100000
100000
100000
100000
100000
100000
100000
100000
100000
100000
100000
100000
100000
100000
100000
100000
100000
100000
100000
100000
100000
100000
100000
100000
100000
100000
100000
100000
100000
100000
100000
100000
100000
100000
100000
100000
100000
100000
100000
100000
100000
100000
100000
100000
100000
100000
100000
100000
100000
100000
100000
100000
100000
100000
100000
100000
100000
100000
100000
100000
100000
100000
100000
100000
100000
100000
100000
100000
100000
100000
100000
100000
100000
100000
100000
100000
100000
100000
100000
100000
100000
100000
100000
100000
100000
100000
100000
100000
100000
100000
100000
100000
100000
100000
100000
100000
100000
100000
100000
100000
100000
100000
100000
100000
100000
100000
100000
100000
100000
100000
100000
100000
100000
100000
100000
100000
100000
100000
100000
100000
100000
100000
100000
100000
100000
100000
100000
100000
100000
100000
100000
100000
100000
100000
100000
100000
100000
100000
100000
100000
100000
100000
100000
100000
100000
100000
100000
100000
100000
100000
100000
100000
100000
100000
100000
100000
100000
100000
100000
100000
100000
100000
100000
100000
100000
100000
100000
100000
100000
100000
100000
100000
100000
100000
100000
100000
100000
100000
100000
100000
100000
100000
100000
100000
100000
100000
100000
100000
100000
100000
100000
100000
100000
100000
100000
100000
100000
100000
100000
100000
100000
100000
100000
100000
100000
100000
100000
100000
100000
100000
100000
100000
100000
100000
100000
100000
100000
100000
100000
100000
100000
100000
100000
100000
100000
100000
100000
100000
100000
100000
100000
100000
100000
100000
100000
100000
100000
100000
100000
100000
100000
100000
100000
100000
100000
100000
100000
100000
100000
100000
100000
100000
100000
100000
100000
100000
100000
100000
100000
100000
100000
100000
100000
100000
100000
100000
100000
100000
100000
100000
100000
100000
100000
100000
100000
100000
100000
100000
100000
100000
100000
100000
100000
100000
100000
100000
100000
100000
100000
100000
100000
100000
100000
100000
100000
100000
100000
100000
100000
100000
100000
100000
100000
100000
100000
100000
100000
100000
100000
100000
100000
100000
100000
100000
100000
100000
100000
100000
100000
100000
100000
100000
100000
99999.9
99999.9
99999.7
99999.5
99999.1
99998.2
99996.8
99994.2
99989.6
99982
99969.4
99949
99917
99867.9
99794.8
99689
99540.6
99338.9
99073.6
98735.8
98319.5
97822.4
97246.6
96598.3
95886.6
95121.7
94313.4
93470.6
92600.5
91709.3
90801.9
89882.2
88953.5
88018.3
87078.7
86136.2
85192.3
84248.1
83304.6
82362.5
81422.5
80485.3
79551.4
78621.2
77695.1
76773.6
75857
74945.6
74039.8
73139.7
72245.7
71357.9
70476.6
69602
68734.2
67873.5
67019.9
66173.6
65334.7
64503.3
63679.5
62863.4
62055
61254.3
60461.5
59676.6
58899.5
58130.3
57369.1
56615.7
55870.3
55132.7
54403.1
53681.3
52967.4
52261.4
51563.1
50872.7
50190
49515
48847.7
48188.1
47536.2
46891.8
46255.1
45625.8
45004.1
44389.9
43783.1
43183.7
42591.7
42007.1
41429.9
40860
40297.4
39742.2
39194.4
38653.9
38120.7
37595
37076.8
36566.1
36063
35567.7
35080.2
34600.7
34129.6
33666.9
33213.2
32768.7
32334
31909.8
31496.7
31095.8
30708.3
30335.5
29979.5
29642.4
29327
29036.9
28776.3
28550.6
28365.9
28229.9
28151.2
28139.2
28203.8
28353.9
28595.7
28930
29348.9
29832.6
30348.5
30852.1
31291.1
31614.5
31783.6
31782.3
31620.8
31331.8
30962.9
30566
30190.3
29878.1
29661.4
29559.9
29579.1
29710
29929.1
30200.4
30480
30722.5
30889
30955.7
30919.6
30798.2
30623.4
30433.7
30266.4
30150.8
30104
30128.1
30210.4
30327.4
30449.6
30548.9
30604.5
30608.6
30566.9
30496.3
30418.9
30355.8
30322
30322.4
30352
30397.5
30442.9
30474
30483
30470.9
30445.4
30418.3
30400.1
30396.4
30405.9
30421.7
30434.6
30438.5
30433.6
30425.2
30419.8
30420.2
30424.2
30427.8
30428.6
30427.5
30426.5
30426.8
30427.8
30428.4
30428.3
30427.9
30427.6
30427.5
30427.7
30427.7
30427.7
30427.7
30427.8
30427.9
30428.1
30428.3
30428.3
30428.4
30428.5
30428.6
30428.7
30428.8
30428.9
30429.1
30429.2
30429.3
30429.4
30429.6
30429.7
30429.9
30430
30430.2
30430.4
30430.5
30430.7
30430.9
30431.1
30431.1
30431.3
30431.7
30431.6
30431.2
30432.2
30433.1
30429.7
30429.3
30437.8
30429.9
30405.3
30435.2
30468.4
30336.2
30300.4
30651.6
30409.8
29391.9
30563
32142.3
24852.4
14906
10984.8
10167.1
10027.3
10004.5
10000.7
10000.1
10000
10000
10000
10000
10000
10000
10000
10000
10000
10000
10000
10000
10000
10000
10000
10000
10000
10000
10000
10000
10000
10000
10000
10000
10000
10000
10000
10000
10000
10000
10000
10000
10000
10000
10000
10000
10000
10000
10000
10000
10000
10000
10000
10000
10000
10000
10000
10000
10000
10000
10000
10000
10000
10000
10000
10000
10000
10000
10000
10000
10000
10000
10000
10000
10000
10000
10000
10000
10000
10000
10000
10000
10000
10000
10000
10000
10000
10000
10000
10000
10000
10000
10000
10000
10000
10000
10000
10000
10000
10000
10000
10000
10000
10000
10000
10000
10000
10000
10000
10000
10000
10000
10000
10000
10000
10000
10000
10000
10000
10000
10000
10000
10000
10000
10000
10000
10000
10000
10000
10000
10000
10000
10000
10000
10000
10000
10000
10000
10000
10000
10000
10000
10000
10000
10000
10000
10000
10000
10000
10000
10000
10000
10000
10000
10000
10000
10000
10000
10000
10000
10000
10000
10000
10000
10000
10000
10000
10000
10000
10000
10000
10000
10000
10000
10000
10000
10000
10000
10000
10000
10000
10000
10000
10000
10000
10000
10000
10000
10000
10000
10000
10000
10000
10000
10000
10000
10000
10000
10000
10000
10000
10000
10000
10000
10000
10000
10000
10000
10000
10000
10000
10000
10000
10000
10000
10000
10000
10000
10000
10000
10000
10000
10000
10000
10000
10000
10000
10000
10000
10000
10000
10000
10000
10000
10000
10000
10000
10000
10000
10000
10000
10000
10000
10000
10000
10000
10000
10000
10000
10000
10000
10000
10000
10000
10000
10000
10000
10000
10000
10000
10000
10000
10000
10000
10000
10000
10000
10000
10000
10000
10000
10000
10000
10000
10000
10000
10000
10000
10000
10000
10000
10000
10000
10000
10000
10000
10000
10000
10000
10000
10000
10000
10000
10000
10000
10000
10000
10000
10000
10000
10000
10000
10000
10000
10000
10000
10000
10000
10000
10000
10000
10000
10000
10000
10000
10000
10000
10000
10000
10000
10000
10000
10000
10000
10000
10000
10000
10000
10000
10000
10000
10000
10000
10000
10000
10000
10000
10000
10000
10000
10000
10000
10000
10000
10000
10000
10000
10000
10000
10000
10000
10000
10000
10000
10000
10000
10000
10000
10000
10000
10000
10000
10000
10000
10000
10000
)
;

boundaryField
{
    sides
    {
        type            zeroGradient;
    }
    empty
    {
        type            empty;
    }
}


// ************************************************************************* //
