/*--------------------------------*- C++ -*----------------------------------*\
  =========                 |
  \\      /  F ield         | OpenFOAM: The Open Source CFD Toolbox
   \\    /   O peration     | Website:  https://openfoam.org
    \\  /    A nd           | Version:  13
     \\/     M anipulation  |
\*---------------------------------------------------------------------------*/
FoamFile
{
    format      ascii;
    class       volScalarField;
    location    "0.0025";
    object      p_0;
}
// * * * * * * * * * * * * * * * * * * * * * * * * * * * * * * * * * * * * * //

dimensions      [1 -1 -2 0 0 0 0];

internalField   nonuniform List<scalar> 
1000
(
100000
100000
100000
100000
100000
100000
100000
100000
100000
100000
100000
100000
100000
100000
100000
100000
100000
100000
100000
100000
100000
100000
100000
100000
100000
100000
100000
100000
100000
100000
100000
100000
100000
100000
100000
100000
100000
100000
100000
100000
100000
100000
100000
100000
100000
100000
100000
100000
100000
100000
100000
100000
100000
100000
100000
100000
100000
100000
100000
100000
100000
100000
100000
100000
100000
100000
100000
100000
100000
100000
100000
100000
100000
100000
100000
100000
100000
100000
100000
100000
100000
100000
100000
100000
100000
100000
100000
100000
100000
100000
100000
100000
100000
100000
100000
100000
100000
100000
100000
100000
100000
100000
100000
100000
100000
100000
100000
100000
100000
100000
100000
100000
100000
100000
100000
100000
100000
100000
100000
100000
100000
100000
100000
100000
100000
100000
100000
100000
100000
100000
100000
100000
100000
100000
100000
100000
100000
100000
100000
100000
100000
100000
100000
100000
100000
100000
100000
100000
100000
100000
100000
100000
100000
100000
100000
100000
100000
100000
100000
100000
100000
100000
100000
100000
100000
100000
100000
100000
100000
100000
100000
100000
100000
100000
100000
100000
100000
100000
100000
100000
100000
100000
100000
100000
100000
100000
100000
100000
100000
100000
100000
100000
100000
100000
100000
100000
100000
100000
100000
100000
100000
100000
100000
100000
100000
100000
100000
100000
100000
100000
100000
100000
100000
100000
100000
100000
100000
100000
100000
100000
100000
100000
100000
100000
100000
100000
100000
100000
100000
100000
100000
100000
100000
100000
100000
100000
100000
100000
100000
100000
100000
100000
100000
100000
100000
100000
100000
100000
100000
100000
100000
100000
100000
100000
100000
100000
100000
100000
100000
100000
100000
100000
100000
100000
100000
100000
100000
100000
100000
100000
100000
100000
100000
100000
100000
100000
100000
100000
100000
100000
100000
100000
100000
100000
100000
100000
100000
100000
100000
100000
100000
100000
100000
100000
100000
100000
100000
100000
100000
100000
100000
100000
100000
100000
100000
100000
100000
100000
100000
100000
100000
100000
100000
100000
100000
100000
100000
100000
100000
100000
100000
100000
100000
100000
100000
100000
100000
100000
100000
100000
100000
100000
100000
100000
100000
100000
100000
100000
100000
100000
100000
100000
100000
100000
100000
100000
100000
100000
100000
100000
100000
100000
100000
100000
100000
100000
100000
100000
100000
100000
100000
100000
100000
100000
100000
100000
100000
100000
100000
100000
100000
100000
100000
100000
100000
100000
100000
100000
100000
100000
100000
100000
100000
99999.9
99999.8
99999.6
99999.3
99998.6
99997.5
99995.4
99991.7
99985.5
99975.1
99958.2
99931.2
99889.4
99826.4
99734.2
99603.2
99422.9
99182.5
98872.3
98485.2
98017.1
97468.7
96844.5
96152.8
95403.9
94607.7
93773.7
92909.6
92022.3
91116.9
90198
89268.8
88332.3
87390.6
86445.5
85498.6
84551
83603.7
82657.6
81713.5
80772
79833.5
78898.7
77968
77041.7
76120.2
75203.9
74293.1
73388
72488.9
71596
70709.6
69829.9
68957.1
68091.2
67232.6
66381.2
65537.3
64700.9
63872.1
63051
62237.7
61432.2
60634.5
59844.8
59063
58289.2
57523.3
56765.4
56015.5
55273.5
54539.5
53813.4
53095.3
52385.1
51682.7
50988.2
50301.6
49622.7
48951.6
48288.2
47632.5
46984.5
46344.1
45711.4
45086.2
44468.5
43858.4
43255.8
42660.6
42072.8
41492.5
40919.6
40354.1
39796
39245.3
38702
38166.1
37637.7
37116.9
36603.6
36098
35600.2
35110.4
34628.6
34155.1
33690.3
33234.3
32787.8
32351
31924.8
31509.8
31107
30717.6
30343.1
29985.4
29646.7
29329.8
29038.3
28776.4
28549.5
28363.9
28227.1
28147.8
28135.6
28200.4
28351
28593.7
28929.3
29349.7
29835.1
30352.5
30857
31296.2
31618.7
31786.1
31782.3
31618
31326.6
30955.9
30558.1
30182.6
29871.7
29657.2
29558.6
29581.2
29715.3
29937
30209.7
30489.2
30730
30893.3
30956
30916
30791.4
30614.9
30425.4
30259.7
30147.1
30104
30131.5
30216.5
30334.5
30456.2
30553.3
30605.9
30606.7
30562.6
30490.8
30413.8
30352.5
30321.2
30324.2
30355.5
30401.6
30446.2
30475.4
30482.4
30468.6
30442.5
30415.9
30399.2
30397.2
30407.9
30423.6
30435.5
30438.1
30432.3
30424.1
30419.6
30420.8
30425
30428.1
30428.5
30427.3
30426.6
30427
30428
30428.5
30428.3
30427.8
30427.5
30427.6
30427.7
30427.8
30427.7
30427.7
30427.8
30428
30428.2
30428.3
30428.4
30428.4
30428.5
30428.6
30428.8
30428.9
30429
30429.1
30429.3
30429.4
30429.5
30429.7
30429.8
30430
30430.1
30430.3
30430.5
30430.6
30430.8
30431
30431.1
30431.2
30431.6
30431.8
30431.4
30431.5
30433
30431.7
30428.2
30433.9
30437.8
30414.8
30412.3
30466.6
30414.7
30267
30474.7
30681.2
29800.1
29606
32014.6
29383
18801.4
12112.6
10377.4
10062
10010.2
10001.7
10000.3
10000
10000
10000
10000
10000
10000
10000
10000
10000
10000
10000
10000
10000
10000
10000
10000
10000
10000
10000
10000
10000
10000
10000
10000
10000
10000
10000
10000
10000
10000
10000
10000
10000
10000
10000
10000
10000
10000
10000
10000
10000
10000
10000
10000
10000
10000
10000
10000
10000
10000
10000
10000
10000
10000
10000
10000
10000
10000
10000
10000
10000
10000
10000
10000
10000
10000
10000
10000
10000
10000
10000
10000
10000
10000
10000
10000
10000
10000
10000
10000
10000
10000
10000
10000
10000
10000
10000
10000
10000
10000
10000
10000
10000
10000
10000
10000
10000
10000
10000
10000
10000
10000
10000
10000
10000
10000
10000
10000
10000
10000
10000
10000
10000
10000
10000
10000
10000
10000
10000
10000
10000
10000
10000
10000
10000
10000
10000
10000
10000
10000
10000
10000
10000
10000
10000
10000
10000
10000
10000
10000
10000
10000
10000
10000
10000
10000
10000
10000
10000
10000
10000
10000
10000
10000
10000
10000
10000
10000
10000
10000
10000
10000
10000
10000
10000
10000
10000
10000
10000
10000
10000
10000
10000
10000
10000
10000
10000
10000
10000
10000
10000
10000
10000
10000
10000
10000
10000
10000
10000
10000
10000
10000
10000
10000
10000
10000
10000
10000
10000
10000
10000
10000
10000
10000
10000
10000
10000
10000
10000
10000
10000
10000
10000
10000
10000
10000
10000
10000
10000
10000
10000
10000
10000
10000
10000
10000
10000
10000
10000
10000
10000
10000
10000
10000
10000
10000
10000
10000
10000
10000
10000
10000
10000
10000
10000
10000
10000
10000
10000
10000
10000
10000
10000
10000
10000
10000
10000
10000
10000
10000
10000
10000
10000
10000
10000
10000
10000
10000
10000
10000
10000
10000
10000
10000
10000
10000
10000
10000
10000
10000
10000
10000
10000
10000
10000
10000
10000
10000
10000
10000
10000
10000
10000
10000
10000
10000
10000
10000
10000
10000
10000
10000
10000
10000
10000
10000
10000
10000
10000
10000
10000
10000
10000
10000
10000
10000
10000
10000
10000
10000
10000
10000
10000
10000
10000
10000
10000
10000
10000
10000
10000
10000
10000
10000
10000
10000
10000
10000
10000
10000
10000
10000
10000
10000
10000
10000
10000
10000
10000
10000
10000
10000
10000
10000
10000
10000
10000
)
;

boundaryField
{
    sides
    {
        type            calculated;
        value           nonuniform List<scalar> 2(10000 100000);
    }
    empty
    {
        type            empty;
    }
}


// ************************************************************************* //
