/*--------------------------------*- C++ -*----------------------------------*\
  =========                 |
  \\      /  F ield         | OpenFOAM: The Open Source CFD Toolbox
   \\    /   O peration     | Website:  https://openfoam.org
    \\  /    A nd           | Version:  13
     \\/     M anipulation  |
\*---------------------------------------------------------------------------*/
FoamFile
{
    format      ascii;
    class       surfaceScalarField;
    location    "0.0025";
    object      phi;
}
// * * * * * * * * * * * * * * * * * * * * * * * * * * * * * * * * * * * * * //

dimensions      [1 0 -1 0 0 0 0];

internalField   nonuniform List<scalar> 
999
(
-4.71747e-12
-5.26697e-12
-4.87948e-12
-4.09876e-12
-5.13584e-12
-4.51705e-12
-3.94789e-12
-3.71779e-12
-3.71788e-12
-4.46536e-12
-4.51662e-12
-4.06989e-12
-4.87687e-12
-4.45684e-12
-3.5908e-12
-2.9723e-12
-2.84523e-12
-3.39869e-12
-3.69122e-12
-3.9191e-12
-4.26208e-12
-3.45178e-12
-3.12266e-12
-3.94665e-12
-4.76608e-12
-3.63438e-12
-4.08072e-12
-4.32115e-12
-4.67256e-12
-4.415e-12
-4.47598e-12
-4.18844e-12
-2.99652e-12
-3.84431e-12
-4.34136e-12
-3.90695e-12
-4.72182e-12
-3.66073e-12
-3.25733e-12
-3.96307e-12
-4.89832e-12
-3.91096e-12
-2.96385e-12
-1.91581e-12
-5.35152e-13
-7.92591e-13
-9.01202e-13
-1.71193e-12
-1.48303e-12
-9.49346e-13
-1.9304e-12
-1.46916e-12
-7.00698e-13
-6.69606e-13
-5.55411e-13
-4.13452e-13
6.58169e-14
-7.40937e-14
-5.52128e-13
-9.81368e-13
-1.75074e-12
-1.91509e-12
-2.04732e-12
-1.96574e-12
-1.11663e-12
-1.17744e-12
-1.0908e-12
-1.21787e-12
-1.79389e-12
-1.00921e-12
-2.31702e-13
4.30547e-13
1.57076e-13
1.55394e-12
1.78404e-12
1.15531e-12
6.37026e-13
7.47893e-13
1.18286e-12
3.27774e-13
-5.8415e-13
1.27056e-13
4.79372e-13
2.54726e-13
-9.78026e-14
-5.28755e-13
-3.32173e-13
-4.4211e-13
-6.58351e-13
-3.54175e-13
-1.33795e-12
-1.74294e-12
-2.07772e-12
-1.69987e-12
-1.14571e-12
-1.98165e-12
-1.7072e-12
-1.02606e-12
-4.14346e-13
4.17238e-13
1.58547e-12
1.18499e-12
1.68737e-13
-1.54822e-14
6.70518e-14
4.26003e-13
5.98368e-13
1.55063e-12
1.40963e-12
1.72398e-12
1.75997e-12
1.99883e-12
2.07432e-12
1.86093e-12
1.64232e-12
1.81879e-12
1.72993e-12
1.78464e-12
2.22804e-12
2.20058e-12
1.2952e-12
7.4084e-13
4.95281e-13
1.29322e-12
1.37098e-12
6.71415e-13
1.07586e-12
1.23985e-12
7.16404e-13
3.05172e-13
-7.47963e-13
-1.39371e-12
-1.75767e-12
-1.48162e-12
-2.15864e-12
-1.72799e-12
-1.58183e-12
-1.36895e-12
-1.66562e-12
-1.1022e-12
-7.21251e-13
-2.21215e-13
-8.66574e-13
-6.38478e-13
-8.91903e-13
-2.85203e-13
4.4677e-13
1.31821e-12
8.13308e-13
2.03487e-13
-1.03626e-13
3.53103e-13
1.37592e-12
9.41944e-13
2.34854e-13
-1.49936e-13
-1.93304e-13
-1.45759e-13
3.25045e-13
7.09596e-14
-4.13472e-13
-5.40995e-13
-2.66712e-13
-1.59595e-13
3.185e-13
3.27174e-13
9.21538e-13
4.34042e-13
-6.46733e-14
2.48929e-13
-3.78123e-13
-1.54846e-12
-1.07796e-12
-1.17399e-12
-5.19447e-14
1.68737e-13
4.08281e-14
3.73723e-13
5.07008e-14
5.75914e-13
1.50699e-13
-8.83822e-14
2.75493e-13
9.57614e-13
4.8963e-13
3.53251e-13
-3.70978e-13
-7.1308e-13
-3.29332e-13
4.31759e-14
-2.32129e-13
-4.0362e-13
-5.69348e-13
-4.98948e-13
-7.94273e-13
-7.16449e-13
-1.34872e-12
-1.50238e-12
-1.44458e-12
-1.63213e-12
-1.24872e-12
-4.05795e-13
2.36838e-14
-1.51213e-14
-1.01694e-12
-1.60818e-12
-1.13608e-12
-5.2253e-13
7.6086e-13
9.32864e-13
8.62545e-13
6.08368e-13
4.74661e-13
2.9155e-13
4.53785e-15
-4.56094e-13
-3.24008e-13
-9.74077e-13
-4.46968e-13
-1.06297e-12
-1.10514e-12
-7.25575e-13
-1.07216e-12
-4.65006e-13
4.81195e-14
7.82521e-13
-4.53085e-14
-1.1644e-13
1.27564e-13
-6.37328e-14
-7.59965e-13
-1.16198e-12
-1.54974e-12
-9.77405e-13
-1.1184e-12
-9.83949e-13
-1.39923e-12
-9.49494e-13
-4.2929e-13
-2.30275e-13
-2.30874e-13
-1.10751e-12
-1.66871e-12
-1.24196e-12
-2.07325e-12
-3.17122e-12
-2.64705e-12
-3.06446e-12
-2.62481e-12
-2.1976e-12
-1.64795e-12
-1.07924e-12
-6.62507e-13
-3.0914e-13
-1.66564e-12
-2.1993e-12
-3.39757e-12
-3.20171e-12
-2.76782e-12
-1.11149e-12
-1.5404e-12
-8.26701e-13
-7.9444e-13
-4.05748e-13
-6.47344e-13
-4.6061e-13
-9.08127e-13
-7.43634e-13
-1.59415e-12
-1.00614e-12
-1.71017e-13
5.2803e-13
1.2723e-12
1.85076e-12
2.10361e-12
2.24226e-12
1.56758e-12
6.99768e-13
6.98386e-13
5.76061e-13
2.78608e-13
4.5677e-13
1.14964e-12
1.11723e-12
1.37324e-12
1.16118e-12
1.43117e-12
1.37235e-12
2.10035e-12
2.23606e-12
2.50608e-12
2.39476e-12
2.00156e-12
2.46891e-12
2.38328e-12
3.0827e-12
3.13299e-12
3.02129e-12
2.54215e-12
1.44938e-12
1.87225e-12
1.33824e-12
8.83312e-13
3.70975e-13
6.26079e-13
1.2491e-12
1.58911e-12
2.07446e-12
1.93761e-12
1.01233e-12
1.23712e-12
1.21938e-12
2.20015e-12
2.86501e-12
3.6014e-12
3.16394e-12
2.75842e-12
3.01019e-12
2.9825e-12
2.59152e-12
2.26925e-12
2.23242e-12
1.83998e-12
1.62881e-12
1.60455e-12
1.36901e-12
8.06943e-13
4.87196e-13
1.20465e-12
2.28545e-12
1.84832e-12
1.49346e-12
8.66168e-13
1.25365e-12
1.10887e-12
1.15422e-12
6.89962e-13
9.48702e-13
2.04917e-12
2.19908e-12
2.45649e-12
3.08506e-12
2.13967e-12
2.50804e-12
1.74888e-12
1.61259e-12
7.22936e-13
8.11473e-13
1.61443e-12
1.67034e-12
1.31743e-12
1.67854e-12
2.28107e-12
3.01565e-12
2.744e-12
3.18107e-12
3.10346e-12
3.02387e-12
3.423e-12
5.84926e-12
1.13472e-11
2.70966e-11
6.85009e-11
1.72681e-10
4.35219e-10
1.08654e-09
2.68465e-09
6.55706e-09
1.5839e-08
3.7829e-08
8.93144e-08
2.08412e-07
4.80538e-07
1.09454e-06
2.46222e-06
5.46877e-06
1.19895e-05
2.59377e-05
5.53533e-05
0.000116491
0.000241673
0.000494067
0.000994934
0.00197274
0.00384958
0.00738955
0.0139462
0.0258633
0.047102
0.0841861
0.147565
0.253477
0.426346
0.701593
1.12857
1.77301
2.71806
4.06286
5.91751
8.39417
11.5945
15.5958
20.4382
26.1166
32.5793
39.7342
47.4672
55.6628
64.2156
73.0348
82.0451
91.1855
100.407
109.671
118.946
128.207
137.434
146.611
155.724
164.764
173.72
182.585
191.354
200.019
208.577
217.023
225.353
233.565
241.654
249.619
257.458
265.167
272.746
280.193
287.506
294.685
301.727
308.634
315.403
322.035
328.529
334.885
341.103
347.184
353.127
358.934
364.604
370.139
375.538
380.803
385.935
390.934
395.802
400.539
405.147
409.627
413.979
418.206
422.308
426.286
430.143
433.878
437.494
440.991
444.371
447.636
450.787
453.824
456.75
459.566
462.273
464.872
467.366
469.754
472.04
474.223
476.306
478.29
480.175
481.965
483.659
485.259
486.768
488.185
489.513
490.752
491.905
492.973
493.956
494.857
495.677
496.418
497.08
497.667
498.178
498.617
498.985
499.284
499.517
499.686
499.795
499.847
499.847
499.8
499.713
499.595
499.455
499.305
499.16
499.035
498.947
498.912
498.94
499.034
499.187
499.379
499.577
499.742
499.835
499.829
499.713
499.497
499.207
498.88
498.557
498.283
498.097
498.031
498.1
498.3
498.606
498.971
499.332
499.623
499.784
499.783
499.619
499.327
498.965
498.602
498.306
498.127
498.095
498.204
498.418
498.678
498.915
499.063
499.082
498.965
498.741
498.463
498.194
497.989
497.879
497.865
497.914
497.974
497.994
497.933
497.775
497.506
497.078
496.349
495.018
492.589
488.391
481.678
471.827
458.563
442.12
423.254
403.108
382.981
364.114
347.521
333.886
323.523
316.389
312.137
310.207
309.929
310.628
311.726
312.803
313.623
314.113
314.316
314.325
314.241
314.137
314.056
314.009
313.993
313.996
314.007
314.02
314.029
314.036
314.039
314.041
314.042
314.043
314.045
314.048
314.05
314.054
314.058
314.062
314.066
314.071
314.075
314.079
314.084
314.087
314.09
314.098
314.103
314.097
314.104
314.131
314.102
314.048
314.16
314.214
313.813
313.859
314.819
313.743
311.365
315.478
318.389
302.519
302.4
347.308
300.2
132.436
32.8561
5.82328
0.934678
0.153933
0.0254698
0.00421385
0.000697012
0.000115285
1.90676e-05
3.15367e-06
5.21597e-07
8.62685e-08
1.4268e-08
2.35965e-09
3.90178e-10
6.44087e-11
1.05453e-11
1.64029e-12
5.14425e-14
-3.04612e-13
-2.35568e-13
-3.62592e-13
-3.69641e-13
-4.06021e-13
-2.99398e-13
-3.25855e-13
-1.32218e-13
-1.41981e-13
-2.81351e-13
-3.11954e-13
-2.10402e-13
-4.14372e-13
-3.93168e-13
-3.43742e-13
-2.19459e-13
-2.48465e-13
-3.30747e-13
-3.21172e-13
-3.73555e-13
-4.98598e-13
-4.58488e-13
-4.53847e-13
-3.75533e-13
-4.29816e-13
-4.89637e-13
-3.78448e-13
-3.32637e-13
-3.74111e-13
-4.6162e-13
-5.11586e-13
-5.85208e-13
-4.23497e-13
-4.60822e-13
-3.65787e-13
-3.3455e-13
-4.44647e-13
-4.80097e-13
-3.92472e-13
-4.65824e-13
-5.16213e-13
-5.782e-13
-7.30655e-13
-7.01788e-13
-6.17058e-13
-6.60209e-13
-5.97895e-13
-6.13953e-13
-7.8254e-13
-9.86648e-13
-9.368e-13
-9.21778e-13
-9.33991e-13
-1.03676e-12
-1.15704e-12
-1.24858e-12
-1.49392e-12
-1.37131e-12
-1.08583e-12
-1.01954e-12
-1.02321e-12
-9.41185e-13
-9.66727e-13
-7.72985e-13
-7.48966e-13
-7.18546e-13
-7.24832e-13
-8.75942e-13
-8.5755e-13
-9.31829e-13
-9.43825e-13
-7.89436e-13
-7.33536e-13
-7.00703e-13
-8.04834e-13
-9.09649e-13
-9.58825e-13
-9.41499e-13
-8.71291e-13
-8.29615e-13
-7.73117e-13
-8.18629e-13
-8.64257e-13
-8.39936e-13
-6.94457e-13
-7.64297e-13
-9.03191e-13
-6.46764e-13
-6.8223e-13
-5.99304e-13
-5.17777e-13
-5.36608e-13
-4.43829e-13
-2.88657e-13
-2.3922e-13
-1.41994e-13
1.16576e-13
1.82349e-13
1.29036e-13
3.10714e-14
5.87305e-14
5.79464e-14
1.46419e-13
1.13315e-13
9.10245e-14
7.40665e-14
-6.41836e-14
-2.14697e-13
-1.45377e-13
-4.93088e-14
-8.76885e-14
-1.13266e-13
-2.16282e-13
-3.21216e-13
-2.63101e-13
-6.95658e-14
1.16145e-14
3.8442e-14
1.13049e-13
1.24039e-13
2.27343e-13
1.69352e-13
1.81392e-13
7.15817e-14
1.47695e-13
2.4842e-13
4.23801e-13
3.87489e-13
3.44724e-13
5.12202e-13
6.53022e-13
6.17113e-13
5.44247e-13
4.4277e-13
4.18609e-13
2.68611e-13
1.84914e-13
1.29479e-13
1.35522e-13
1.51987e-13
2.37745e-13
1.61139e-13
1.33188e-13
1.83855e-13
9.76733e-14
2.96579e-14
1.03698e-13
2.91038e-14
1.25586e-13
6.85123e-14
1.98172e-13
3.23129e-13
5.63238e-13
6.43321e-13
5.57501e-13
5.69055e-13
5.51694e-13
4.05142e-13
3.25544e-13
4.11947e-13
3.21149e-13
3.03837e-13
1.66712e-13
1.74088e-13
1.29541e-13
1.96756e-15
6.10873e-14
2.36957e-14
1.86445e-14
5.03272e-14
5.59619e-14
2.31201e-14
3.67894e-14
-2.3885e-14
-9.69467e-14
-1.46937e-13
-1.01106e-13
-1.06768e-13
-1.28128e-13
1.2453e-16
-4.16754e-14
-6.47243e-14
-9.30134e-14
-2.86956e-15
-6.23765e-14
-1.01581e-13
-3.7888e-14
4.25351e-14
-7.20555e-14
-6.88706e-14
2.31819e-14
-5.35078e-14
-8.98187e-14
-2.13262e-13
-1.26476e-13
-9.45503e-14
-8.41127e-15
1.58437e-13
-5.85565e-15
8.50657e-14
1.19508e-13
2.13167e-13
2.78587e-13
1.57113e-13
1.01851e-13
3.15851e-14
-3.43723e-15
-2.19498e-14
-5.81314e-14
-4.58909e-15
-6.6434e-14
-9.65124e-14
-1.45728e-13
-1.83094e-13
-1.94292e-13
-2.39109e-13
-2.59863e-13
-3.26921e-13
-3.1886e-13
-1.69742e-13
-1.76837e-14
-6.04485e-14
-3.65374e-14
-1.16251e-13
-1.47372e-13
-2.05597e-13
-1.33847e-13
-1.52639e-13
-7.89129e-14
-1.58676e-13
-2.40189e-13
-3.13384e-13
-3.99469e-13
-4.40852e-13
-4.64636e-13
-4.2926e-13
-3.70493e-13
-5.41995e-13
-5.54221e-13
-5.01422e-13
-5.36727e-13
-6.10161e-13
-5.63775e-13
-6.01009e-13
-5.52901e-13
-5.13501e-13
-7.3463e-13
-7.32353e-13
-8.45549e-13
-7.31888e-13
-7.04742e-13
-6.59779e-13
-5.62163e-13
-5.03703e-13
-5.58292e-13
-4.85448e-13
-4.0001e-13
-3.6252e-13
-4.61087e-13
-4.22619e-13
-4.64273e-13
-6.22918e-13
-7.67136e-13
-7.0414e-13
-8.00187e-13
-6.2108e-13
-6.06497e-13
-5.42061e-13
-6.16726e-13
-6.58234e-13
-6.73472e-13
-6.84741e-13
-7.30679e-13
-5.66854e-13
-5.08664e-13
-4.39027e-13
-3.26439e-13
-3.63112e-13
-2.74711e-13
-3.60442e-13
-3.05626e-13
-4.19735e-13
-2.62025e-13
-1.00534e-13
8.01844e-14
1.40922e-13
2.08127e-13
1.17005e-13
-2.5055e-14
-2.76241e-14
8.59919e-14
2.34498e-13
2.47534e-13
3.4814e-13
2.96493e-13
1.74743e-13
-1.41176e-14
-1.69831e-13
-2.8237e-13
-2.99302e-13
-1.54667e-13
-1.99604e-13
-1.91217e-13
-3.09729e-14
7.07794e-14
7.38953e-14
3.17488e-14
-8.41664e-14
-9.41154e-14
-7.334e-14
-5.77604e-14
-6.06966e-14
-1.24057e-13
-4.81299e-14
-1.26312e-13
-1.44315e-13
-7.41585e-14
1.67231e-13
2.82388e-13
3.47635e-13
2.21478e-13
1.80316e-13
6.19472e-14
1.13816e-13
1.91484e-13
2.34436e-13
3.95649e-13
2.93773e-13
2.99088e-13
1.85082e-13
1.26845e-13
2.7071e-14
-1.30671e-13
-2.93896e-13
-2.49918e-13
-2.98136e-13
-2.77457e-13
-1.68231e-13
-2.53373e-13
-3.38882e-13
-2.60873e-13
-2.4438e-13
-1.48332e-13
)
;

boundaryField
{
    sides
    {
        type            calculated;
        value           nonuniform List<scalar> 2(-1.89175e-13 5.2969e-12);
    }
    empty
    {
        type            empty;
    }
}


// ************************************************************************* //
