/*--------------------------------*- C++ -*----------------------------------*\
  =========                 |
  \\      /  F ield         | OpenFOAM: The Open Source CFD Toolbox
   \\    /   O peration     | Website:  https://openfoam.org
    \\  /    A nd           | Version:  13
     \\/     M anipulation  |
\*---------------------------------------------------------------------------*/
FoamFile
{
    format      ascii;
    class       surfaceScalarField;
    location    "0.0025";
    object      phi_0;
}
// * * * * * * * * * * * * * * * * * * * * * * * * * * * * * * * * * * * * * //

dimensions      [1 0 -1 0 0 0 0];

internalField   nonuniform List<scalar> 
999
(
-4.85214e-12
-5.14578e-12
-4.80003e-12
-3.96887e-12
-5.17627e-12
-4.73368e-12
-3.79083e-12
-3.93463e-12
-3.85689e-12
-4.14831e-12
-4.29978e-12
-4.48737e-12
-4.91273e-12
-4.05305e-12
-3.50841e-12
-2.91545e-12
-2.96186e-12
-3.44205e-12
-3.82111e-12
-3.81433e-12
-4.11829e-12
-3.63711e-12
-3.0181e-12
-3.90329e-12
-4.68664e-12
-3.95894e-12
-3.90725e-12
-4.16409e-12
-4.65909e-12
-4.6524e-12
-4.26208e-12
-4.33018e-12
-2.8874e-12
-3.81898e-12
-4.61026e-12
-3.95326e-12
-4.63509e-12
-3.57856e-12
-3.0332e-12
-3.86883e-12
-4.76182e-12
-3.78653e-12
-2.55388e-12
-1.70626e-12
-8.20691e-13
-5.18907e-13
-6.15877e-13
-1.85986e-12
-1.42618e-12
-1.00184e-12
-2.01713e-12
-1.52601e-12
-1.0134e-12
-7.56342e-13
-6.37584e-13
-5.30081e-13
1.79504e-13
2.17415e-13
-2.36697e-13
-8.37789e-13
-1.7327e-12
-1.87172e-12
-1.87385e-12
-2.00911e-12
-1.29923e-12
-1.22972e-12
-1.1983e-12
-1.07429e-12
-1.51727e-12
-7.09986e-13
4.58437e-15
3.87178e-13
1.30126e-13
1.39526e-12
1.60276e-12
8.80004e-13
6.63977e-13
6.4039e-13
1.12145e-12
2.57455e-13
-4.24153e-13
2.15413e-13
4.36004e-13
9.76715e-14
-3.53662e-13
-7.15703e-13
-2.88805e-13
-5.72215e-13
-7.01719e-13
-3.88631e-13
-1.15557e-12
-1.6174e-12
-1.81752e-12
-1.604e-12
-1.00213e-12
-1.98165e-12
-2.166e-12
-1.07672e-12
-4.00871e-13
4.27985e-13
1.74688e-12
1.23889e-12
2.97204e-14
7.56034e-14
-3.26691e-15
6.03825e-13
6.50649e-13
1.64172e-12
1.42311e-12
1.66714e-12
1.75997e-12
1.94199e-12
2.08779e-12
1.6605e-12
1.77404e-12
1.99845e-12
1.86165e-12
1.89833e-12
2.10088e-12
2.34233e-12
1.24108e-12
7.81266e-13
4.71572e-13
1.16768e-12
1.20044e-12
5.68475e-13
1.1777e-12
1.06932e-12
7.62501e-13
2.06068e-13
-6.55556e-13
-1.07371e-12
-1.75311e-12
-1.57292e-12
-2.04201e-12
-1.85809e-12
-1.64324e-12
-1.45569e-12
-1.53552e-12
-1.14557e-12
-8.90161e-13
-2.16866e-13
-9.36892e-13
-5.9511e-13
-9.05379e-13
-4.44986e-13
3.82635e-13
1.20452e-12
7.24951e-13
2.42292e-13
3.70119e-14
3.32337e-13
1.48343e-12
7.57938e-13
2.34854e-13
-7.23256e-14
-2.06779e-13
-1.85966e-14
3.25045e-13
4.83583e-14
-4.40423e-13
-5.49908e-13
-3.48885e-13
-7.28588e-14
2.36327e-13
2.45001e-13
7.49173e-13
1.84067e-13
-7.81486e-14
4.62827e-13
-2.916e-13
-1.69204e-12
-1.15557e-12
-8.91182e-13
1.0511e-13
2.73512e-13
1.23001e-13
3.12317e-13
2.08081e-14
4.27985e-13
9.38553e-14
-1.84031e-13
4.19073e-13
1.05326e-12
3.9671e-13
1.90012e-13
-2.2902e-13
-2.95817e-13
2.73344e-13
-1.36675e-14
-2.93535e-13
-5.26219e-13
-5.51523e-13
-1.03284e-12
-9.46765e-13
-7.04595e-13
-1.16795e-12
-1.6252e-12
-1.44458e-12
-1.58876e-12
-1.33546e-12
-7.30138e-13
-8.38192e-14
1.01294e-13
-9.18346e-13
-1.46166e-12
-9.53482e-13
-2.99506e-13
8.69984e-13
1.12416e-12
8.39944e-13
4.21421e-13
3.26519e-13
-9.42e-14
-1.25566e-13
-5.47179e-13
-2.23796e-13
-9.30709e-13
-3.90124e-13
-7.9406e-13
-1.37883e-12
-7.73506e-13
-1.16781e-12
-4.21638e-13
9.31444e-15
8.00559e-13
1.15349e-14
-1.68721e-13
1.79845e-13
4.08281e-14
-7.7344e-13
-1.27111e-12
-1.35823e-12
-1.02077e-12
-1.1184e-12
-1.07069e-12
-1.30793e-12
-9.79386e-13
-5.59394e-13
-2.73643e-13
-1.92069e-13
-1.05229e-12
-1.71643e-12
-1.14631e-12
-1.96574e-12
-2.87818e-12
-2.674e-12
-2.90903e-12
-2.6698e-12
-2.79562e-12
-1.77187e-12
-1.02056e-12
-4.57521e-13
2.84656e-14
-1.51639e-12
-2.2833e-12
-3.1554e-12
-3.20606e-12
-2.60142e-12
-8.49663e-13
-1.4192e-12
-9.13437e-13
-9.94863e-13
-4.58029e-13
-4.12679e-13
-6.29733e-13
-1.02638e-12
-8.3037e-13
-1.33851e-12
-7.89303e-13
-2.00696e-13
3.54771e-13
1.11981e-12
1.54121e-12
1.84634e-12
2.14478e-12
1.26349e-12
4.10988e-13
6.38814e-13
9.72344e-13
2.92297e-13
1.10738e-12
1.3455e-12
1.45829e-12
1.77115e-12
1.30638e-12
1.67202e-12
1.32898e-12
1.80722e-12
1.74251e-12
2.09175e-12
2.23314e-12
1.77419e-12
2.25774e-12
2.23697e-12
3.36691e-12
3.03278e-12
3.06466e-12
3.22244e-12
1.99248e-12
1.75856e-12
1.23803e-12
9.40156e-13
5.62272e-13
4.55549e-13
1.15345e-12
1.26152e-12
1.756e-12
2.00631e-12
9.1668e-13
1.31929e-12
8.35162e-13
2.12983e-12
2.76207e-12
3.61944e-12
3.40935e-12
3.04264e-12
3.18072e-12
3.29366e-12
2.45524e-12
2.07795e-12
2.31004e-12
1.50621e-12
1.49546e-12
1.30686e-12
1.19392e-12
9.77474e-13
6.66852e-13
1.50528e-12
2.33338e-12
1.94854e-12
1.62791e-12
6.68687e-13
9.82911e-13
1.02214e-12
1.1451e-12
7.73756e-13
1.22106e-12
2.10601e-12
2.14223e-12
2.31747e-12
2.71411e-12
1.98262e-12
2.5738e-12
1.57379e-12
1.59455e-12
8.05109e-13
9.11685e-13
1.70278e-12
1.8436e-12
1.35645e-12
1.93581e-12
2.35595e-12
2.92729e-12
2.27305e-12
3.14227e-12
3.19182e-12
3.05082e-12
2.8103e-12
4.50106e-12
7.65091e-12
1.82157e-11
4.55114e-11
1.15065e-10
2.92295e-10
7.33433e-10
1.82364e-09
4.4799e-09
1.08861e-08
2.6155e-08
6.21266e-08
1.45859e-07
3.38395e-07
7.7562e-07
1.75589e-06
3.92513e-06
8.66162e-06
1.88627e-05
4.05261e-05
8.58719e-05
0.000179392
0.000369343
0.000749143
0.00149633
0.00294189
0.00569057
0.0108242
0.0202352
0.0371567
0.0669743
0.11842
0.205242
0.348413
0.578824
0.940256
1.49213
2.31128
3.49156
5.14041
7.37128
10.2923
13.9926
18.5281
23.9118
30.1092
37.0416
44.5995
52.6651
61.1276
69.8898
78.8701
88.002
97.2319
106.517
115.824
125.125
134.398
143.626
152.794
161.891
170.907
179.834
188.666
197.395
206.017
214.528
222.924
231.201
239.356
247.387
255.29
263.065
270.708
278.219
285.595
292.836
299.941
306.908
313.738
320.429
326.981
333.395
339.669
345.805
351.803
357.663
363.385
368.97
374.419
379.733
384.912
389.957
394.869
399.65
404.3
408.821
413.214
417.479
421.618
425.633
429.524
433.294
436.942
440.471
443.883
447.177
450.356
453.421
456.373
459.214
461.945
464.568
467.083
469.493
471.799
474.001
476.102
478.103
480.006
481.811
483.519
485.134
486.655
488.085
489.424
490.674
491.836
492.913
493.905
494.813
495.64
496.387
497.055
497.646
498.162
498.604
498.975
499.276
499.511
499.682
499.791
499.844
499.844
499.797
499.71
499.59
499.449
499.299
499.153
499.028
498.941
498.907
498.936
499.033
499.188
499.383
499.582
499.748
499.84
499.832
499.713
499.493
499.2
498.869
498.544
498.27
498.086
498.023
498.096
498.302
498.612
498.98
499.342
499.631
499.787
499.779
499.608
499.31
498.944
498.58
498.286
498.114
498.089
498.205
498.424
498.686
498.919
499.061
499.071
498.944
498.712
498.43
498.162
497.961
497.857
497.847
497.897
497.955
497.968
497.898
497.725
497.427
496.935
496.066
494.473
491.606
486.76
479.198
468.369
454.124
436.852
417.449
397.136
377.227
358.914
343.124
330.433
321.045
314.818
311.331
309.975
310.065
310.944
312.073
313.089
313.81
314.203
314.335
314.305
314.208
314.108
314.038
314.002
313.993
314
314.012
314.024
314.032
314.038
314.04
314.042
314.043
314.045
314.047
314.049
314.052
314.056
314.06
314.064
314.069
314.073
314.077
314.082
314.086
314.089
314.094
314.103
314.101
314.098
314.121
314.127
314.063
314.086
314.237
314.031
313.685
314.402
314.681
312.108
312.62
318.815
311.486
296.178
325.835
344.761
208.631
65.211
13.149
2.13193
0.348058
0.0575428
0.009521
0.00157497
0.000260502
4.30859e-05
7.12617e-06
1.17862e-06
1.94936e-07
3.22409e-08
5.33224e-09
8.81748e-10
1.4574e-10
2.39869e-11
3.82611e-12
5.52219e-13
-1.56237e-13
-3.33547e-13
-2.64752e-13
-3.61023e-13
-3.65818e-13
-4.23196e-13
-3.13733e-13
-3.32961e-13
-1.41676e-13
-1.41981e-13
-2.41535e-13
-2.75447e-13
-1.97051e-13
-3.89552e-13
-3.7097e-13
-3.34014e-13
-2.32443e-13
-2.22715e-13
-3.17223e-13
-3.11741e-13
-3.48221e-13
-4.25829e-13
-5.1119e-13
-4.21505e-13
-4.15078e-13
-4.21927e-13
-4.87625e-13
-3.77761e-13
-3.4131e-13
-3.68206e-13
-4.22247e-13
-5.0965e-13
-5.81385e-13
-4.37291e-13
-4.42691e-13
-3.59466e-13
-2.99855e-13
-4.86177e-13
-5.01095e-13
-4.10604e-13
-4.51786e-13
-5.3687e-13
-5.45246e-13
-7.20413e-13
-7.12274e-13
-6.01036e-13
-6.99657e-13
-6.54004e-13
-5.97589e-13
-7.84941e-13
-9.64694e-13
-9.33247e-13
-8.98109e-13
-9.23847e-13
-9.90551e-13
-1.15616e-12
-1.23758e-12
-1.47447e-12
-1.33843e-12
-1.11619e-12
-1.01954e-12
-1.04315e-12
-8.94805e-13
-9.68955e-13
-8.0317e-13
-8.22005e-13
-7.1933e-13
-7.32208e-13
-8.36127e-13
-8.16047e-13
-9.54984e-13
-9.57593e-13
-7.73657e-13
-7.33536e-13
-6.69318e-13
-8.11426e-13
-8.65496e-13
-9.53704e-13
-9.28489e-13
-8.79181e-13
-8.58404e-13
-7.94801e-13
-8.30342e-13
-9.04489e-13
-8.35573e-13
-6.67506e-13
-7.69347e-13
-9.41828e-13
-6.40713e-13
-6.50818e-13
-5.99304e-13
-5.52471e-13
-5.47878e-13
-4.24595e-13
-2.51437e-13
-1.8103e-13
-1.0492e-13
1.52887e-13
2.04963e-13
1.3717e-13
3.56518e-14
5.66485e-14
5.89033e-14
1.2155e-13
8.4893e-14
1.33041e-13
6.01967e-14
-6.56543e-14
-1.91985e-13
-1.34351e-13
-3.42163e-14
-8.38655e-14
-9.54052e-14
-2.07537e-13
-3.70635e-13
-3.03701e-13
-1.19353e-13
-3.8713e-14
2.30353e-15
1.09496e-13
1.49865e-13
2.80461e-13
2.11985e-13
1.7507e-13
9.52503e-14
1.43115e-13
2.54498e-13
4.23287e-13
3.86462e-13
3.55041e-13
4.99635e-13
6.15927e-13
6.13561e-13
5.58188e-13
5.0341e-13
4.11331e-13
2.69909e-13
1.86726e-13
1.28182e-13
1.71049e-13
1.5554e-13
2.51955e-13
1.71283e-13
1.52249e-13
2.05171e-13
1.1899e-13
3.14696e-14
7.75314e-14
2.12143e-14
7.68046e-14
7.64018e-14
1.98172e-13
3.11859e-13
5.03529e-13
6.33447e-13
5.33416e-13
5.69055e-13
5.40079e-13
4.61985e-13
3.67663e-13
4.13244e-13
3.6993e-13
2.83819e-13
1.40642e-13
1.74699e-13
1.18099e-13
3.2201e-14
4.99861e-14
-7.59213e-15
7.98639e-15
6.02012e-14
4.80724e-14
2.74569e-14
4.58793e-14
-1.51436e-15
-5.86995e-14
-1.01584e-13
-7.40578e-14
-1.1794e-13
-9.55157e-14
6.44586e-15
-6.33594e-14
-1.12429e-13
-1.09306e-13
-2.32557e-14
-9.11659e-14
-1.15619e-13
-5.27369e-14
2.83243e-14
-5.41944e-14
-6.93844e-14
1.52923e-14
-4.91977e-14
-9.43283e-14
-2.23136e-13
-1.26476e-13
-1.03738e-13
-2.22058e-14
1.42755e-13
-2.77833e-14
9.6508e-14
1.4004e-13
2.49208e-13
2.96178e-13
1.97318e-13
1.0827e-13
8.2621e-14
3.33878e-14
-1.65587e-14
-4.15682e-14
-2.70572e-14
-1.0652e-13
-1.31207e-13
-1.84246e-13
-2.02452e-13
-1.98802e-13
-2.88014e-13
-2.60403e-13
-3.10358e-13
-2.84949e-13
-1.8378e-13
-1.56992e-14
-6.42715e-14
-3.1173e-14
-1.18776e-13
-1.54477e-13
-1.97707e-13
-1.33334e-13
-1.60528e-13
-6.66866e-14
-1.42897e-13
-2.03413e-13
-2.62326e-13
-3.63109e-13
-4.62265e-13
-5.03668e-13
-4.73926e-13
-3.95584e-13
-5.50154e-13
-5.52653e-13
-5.10853e-13
-5.55669e-13
-6.15282e-13
-5.42091e-13
-6.12451e-13
-5.61575e-13
-5.28864e-13
-7.28309e-13
-7.61413e-13
-8.04949e-13
-7.60948e-13
-7.24074e-13
-6.36257e-13
-5.64932e-13
-5.01962e-13
-5.43297e-13
-4.81111e-13
-3.90135e-13
-3.42674e-13
-4.44941e-13
-4.01205e-13
-4.75742e-13
-5.96286e-13
-7.56354e-13
-6.84321e-13
-8.06996e-13
-6.2446e-13
-5.78248e-13
-5.58651e-13
-7.01894e-13
-6.76365e-13
-6.59677e-13
-6.70163e-13
-6.96325e-13
-5.1976e-13
-5.10233e-13
-4.19841e-13
-2.68249e-13
-3.38022e-13
-2.6959e-13
-3.4084e-13
-2.8093e-13
-4.43404e-13
-3.36778e-13
-1.243e-13
3.32151e-14
1.12743e-13
1.63656e-13
1.31973e-13
-2.67692e-14
-8.11958e-15
1.08876e-13
2.4714e-13
2.77329e-13
3.77762e-13
3.11558e-13
1.65627e-13
-5.30781e-14
-2.13101e-13
-3.29805e-13
-2.98004e-13
-1.5033e-13
-1.82257e-13
-1.52186e-13
7.15011e-15
8.8884e-14
5.25791e-14
3.04509e-14
-6.65756e-14
-1.26458e-13
-7.30964e-14
-9.39256e-14
-4.63883e-14
-1.03157e-13
-5.09961e-14
-1.00902e-13
-7.77917e-14
-2.23118e-14
1.88547e-13
2.96355e-13
3.33251e-13
2.33434e-13
1.96166e-13
4.18313e-14
9.80374e-14
1.84378e-13
2.15374e-13
3.72862e-13
2.67434e-13
3.02641e-13
1.89933e-13
1.155e-13
1.21735e-14
-1.29373e-13
-2.59202e-13
-2.48079e-13
-2.95784e-13
-2.99385e-13
-1.70314e-13
-2.34555e-13
-3.23103e-13
-3.00418e-13
-2.37788e-13
-1.24123e-13
)
;

boundaryField
{
    sides
    {
        type            calculated;
        value           nonuniform List<scalar> 2(-1.74623e-13 5.3551e-12);
    }
    empty
    {
        type            empty;
    }
}


// ************************************************************************* //
