/*--------------------------------*- C++ -*----------------------------------*\
  =========                 |
  \\      /  F ield         | OpenFOAM: The Open Source CFD Toolbox
   \\    /   O peration     | Website:  https://openfoam.org
    \\  /    A nd           | Version:  13
     \\/     M anipulation  |
\*---------------------------------------------------------------------------*/
FoamFile
{
    format      ascii;
    class       volVectorField;
    location    "0.0025";
    object      U;
}
// * * * * * * * * * * * * * * * * * * * * * * * * * * * * * * * * * * * * * //

dimensions      [0 1 -1 0 0 0 0];

internalField   nonuniform List<vector> 
1000
(
(-1.31772e-12 0 0)
(-1.13781e-12 0 0)
(-1.35662e-12 0 0)
(-9.43312e-13 0 0)
(-1.35176e-12 0 0)
(-1.07946e-12 0 0)
(-1.17185e-12 0 0)
(-8.75238e-13 0 0)
(-9.91936e-13 0 0)
(-9.53037e-13 0 0)
(-1.1524e-12 0 0)
(-1.00652e-12 0 0)
(-1.21561e-12 0 0)
(-1.07946e-12 0 0)
(-9.87074e-13 0 0)
(-7.97439e-13 0 0)
(-7.58539e-13 0 0)
(-7.1964e-13 0 0)
(-9.43312e-13 0 0)
(-9.53037e-13 0 0)
(-1.04056e-12 0 0)
(-9.82211e-13 0 0)
(-8.02301e-13 0 0)
(-8.84963e-13 0 0)
(-1.11836e-12 0 0)
(-1.06487e-12 0 0)
(-9.57899e-13 0 0)
(-1.08918e-12 0 0)
(-1.06974e-12 0 0)
(-1.16698e-12 0 0)
(-1.0357e-12 0 0)
(-1.12808e-12 0 0)
(-8.9955e-13 0 0)
(-7.97439e-13 0 0)
(-1.00166e-12 0 0)
(-1.11836e-12 0 0)
(-9.91936e-13 0 0)
(-1.18643e-12 0 0)
(-7.05053e-13 0 0)
(-9.57899e-13 0 0)
(-1.06974e-12 0 0)
(-1.10863e-12 0 0)
(-9.38449e-13 0 0)
(-5.25143e-13 0 0)
(-4.37619e-13 0 0)
(-3.88995e-14 0 0)
(-2.13947e-13 0 0)
(-2.86883e-13 0 0)
(-5.10555e-13 0 0)
(-2.04222e-13 0 0)
(-4.37619e-13 0 0)
(-3.93857e-13 0 0)
(-3.45233e-13 0 0)
(-7.29365e-14 0 0)
(-1.84772e-13 0 0)
(-1.02111e-13 0 0)
(-6.32116e-14 0 0)
(6.32116e-14 0 0)
(-4.37619e-14 0 0)
(-1.84772e-13 0 0)
(-4.03582e-13 0 0)
(-4.23032e-13 0 0)
(-5.0083e-13 0 0)
(-4.76518e-13 0 0)
(-3.64682e-13 0 0)
(-3.20921e-13 0 0)
(-2.28534e-13 0 0)
(-3.06333e-13 0 0)
(-3.50095e-13 0 0)
(-4.23032e-13 0 0)
(-1.06974e-13 0 0)
(6.8074e-14 0 0)
(4.86243e-15 0 0)
(1.45873e-13 0 0)
(4.86243e-13 0 0)
(3.4037e-13 0 0)
(1.89635e-13 0 0)
(2.18809e-13 0 0)
(2.52846e-13 0 0)
(2.04222e-13 0 0)
(-1.06974e-13 0 0)
(-9.23862e-14 0 0)
(1.45873e-13 0 0)
(9.72486e-14 0 0)
(4.0011e-27 0 0)
(-6.8074e-14 0 0)
(-1.50735e-13 0 0)
(3.88995e-14 0 0)
(-2.18809e-13 0 0)
(-8.26613e-14 0 0)
(-1.55598e-13 0 0)
(-4.23032e-13 0 0)
(-4.95968e-13 0 0)
(-4.37619e-13 0 0)
(-2.91746e-13 0 0)
(-3.88995e-13 0 0)
(-5.68905e-13 0 0)
(-2.82021e-13 0 0)
(-2.28534e-13 0 0)
(5.34868e-14 0 0)
(1.84772e-13 0 0)
(5.34868e-13 0 0)
(6.8074e-14 0 0)
(1.45873e-14 0 0)
(-3.4037e-14 0 0)
(6.32116e-14 0 0)
(1.50735e-13 0 0)
(2.43122e-13 0 0)
(3.84132e-13 0 0)
(4.03582e-13 0 0)
(3.64682e-13 0 0)
(4.42481e-13 0 0)
(5.15418e-13 0 0)
(4.76518e-13 0 0)
(4.61931e-13 0 0)
(4.08444e-13 0 0)
(4.66793e-13 0 0)
(4.42481e-13 0 0)
(4.42481e-13 0 0)
(6.41841e-13 0 0)
(3.4037e-13 0 0)
(2.96608e-13 0 0)
(1.94497e-14 0 0)
(2.96608e-13 0 0)
(3.06333e-13 0 0)
(2.38259e-13 0 0)
(1.6046e-13 0 0)
(3.35508e-13 0 0)
(2.77159e-13 0 0)
(8.26613e-14 0 0)
(9.72486e-15 0 0)
(-3.06333e-13 0 0)
(-2.82021e-13 0 0)
(-5.15418e-13 0 0)
(-4.66793e-13 0 0)
(-4.52206e-13 0 0)
(-4.95968e-13 0 0)
(-3.16058e-13 0 0)
(-4.08444e-13 0 0)
(-2.86883e-13 0 0)
(-2.96608e-13 0 0)
(2.91746e-14 0 0)
(-1.84772e-13 0 0)
(-1.41011e-13 0 0)
(-2.62571e-13 0 0)
(-1.21561e-13 0 0)
(4.86243e-15 0 0)
(1.84772e-13 0 0)
(3.45233e-13 0 0)
(6.8074e-14 0 0)
(9.72486e-15 0 0)
(-4.37619e-14 0 0)
(2.47984e-13 0 0)
(3.30645e-13 0 0)
(1.55598e-13 0 0)
(4.86243e-15 0 0)
(-7.29365e-14 0 0)
(-3.4037e-14 0 0)
(-6.81576e-28 0 0)
(1.11836e-13 0 0)
(-8.75238e-14 0 0)
(-9.72486e-14 0 0)
(-1.70185e-13 0 0)
(1.94497e-14 0 0)
(-4.37619e-14 0 0)
(1.41011e-13 0 0)
(1.02111e-13 0 0)
(2.67434e-13 0 0)
(-1.21561e-13 0 0)
(9.23862e-14 0 0)
(7.77989e-14 0 0)
(-2.86883e-13 0 0)
(-3.54958e-13 0 0)
(-2.67434e-13 0 0)
(-1.75048e-13 0 0)
(1.26423e-13 0 0)
(-2.91746e-14 0 0)
(7.29365e-14 0 0)
(-7.00632e-27 0 0)
(5.34868e-14 0 0)
(1.65323e-13 0 0)
(-8.75238e-14 0 0)
(-6.3172e-27 0 0)
(2.47984e-13 0 0)
(1.55598e-13 0 0)
(9.23862e-14 0 0)
(9.72486e-15 0 0)
(-1.94497e-13 0 0)
(-6.8074e-14 0 0)
(-9.72486e-15 0 0)
(-5.83492e-14 0 0)
(-7.77989e-14 0 0)
(-5.83492e-14 0 0)
(-1.9936e-13 0 0)
(-1.02111e-13 0 0)
(-2.09085e-13 0 0)
(-1.6046e-13 0 0)
(-3.98719e-13 0 0)
(-3.84132e-13 0 0)
(-3.54958e-13 0 0)
(-3.93857e-13 0 0)
(-3.11196e-13 0 0)
(2.91746e-14 0 0)
(4.86243e-15 0 0)
(-2.43122e-14 0 0)
(-4.32756e-13 0 0)
(-3.16058e-13 0 0)
(-2.47984e-13 0 0)
(2.91746e-14 0 0)
(1.7991e-13 0 0)
(3.35508e-13 0 0)
(1.36148e-13 0 0)
(1.94497e-13 0 0)
(3.88995e-14 0 0)
(3.88995e-14 0 0)
(-3.4037e-14 0 0)
(-1.06974e-13 0 0)
(-8.26613e-14 0 0)
(-3.06333e-13 0 0)
(-2.43122e-14 0 0)
(-3.5982e-13 0 0)
(-1.65323e-13 0 0)
(-2.67434e-13 0 0)
(-1.26423e-13 0 0)
(-1.75048e-13 0 0)
(2.23672e-13 0 0)
(6.8074e-14 0 0)
(-5.34868e-14 0 0)
(-8.26613e-14 0 0)
(1.26423e-13 0 0)
(-1.45873e-13 0 0)
(-2.13947e-13 0 0)
(-3.74407e-13 0 0)
(-2.57709e-13 0 0)
(-3.54958e-13 0 0)
(-2.18809e-13 0 0)
(-3.4037e-13 0 0)
(-3.30645e-13 0 0)
(-1.94497e-13 0 0)
(-6.32116e-14 0 0)
(4.86243e-15 0 0)
(-1.21561e-13 0 0)
(-5.10555e-13 0 0)
(-1.94497e-13 0 0)
(-5.05693e-13 0 0)
(-5.78629e-13 0 0)
(-7.58539e-13 0 0)
(-7.0019e-13 0 0)
(-7.48815e-13 0 0)
(-5.83492e-13 0 0)
(-5.15418e-13 0 0)
(-3.69545e-13 0 0)
(-1.45873e-13 0 0)
(-6.32116e-14 0 0)
(-1.06974e-13 0 0)
(-6.12666e-13 0 0)
(-5.83492e-13 0 0)
(-9.77349e-13 0 0)
(-6.36979e-13 0 0)
(-4.86243e-13 0 0)
(-2.28534e-13 0 0)
(-3.11196e-13 0 0)
(-1.70185e-13 0 0)
(-1.9936e-13 0 0)
(2.43122e-14 0 0)
(-2.57709e-13 0 0)
(-4.37619e-14 0 0)
(-2.57709e-13 0 0)
(-3.01471e-13 0 0)
(-2.86883e-13 0 0)
(-2.13947e-13 0 0)
(1.36148e-13 0 0)
(1.16698e-13 0 0)
(4.32756e-13 0 0)
(4.57069e-13 0 0)
(6.32116e-13 0 0)
(5.2028e-13 0 0)
(1.94497e-13 0 0)
(9.23862e-14 0 0)
(2.13947e-13 0 0)
(7.77989e-14 0 0)
(-4.86243e-15 0 0)
(2.82021e-13 0 0)
(2.33397e-13 0 0)
(3.7927e-13 0 0)
(2.77159e-13 0 0)
(3.98719e-13 0 0)
(2.57709e-13 0 0)
(4.03582e-13 0 0)
(5.98079e-13 0 0)
(5.54317e-13 0 0)
(5.98079e-13 0 0)
(6.12666e-13 0 0)
(5.64042e-13 0 0)
(4.91106e-13 0 0)
(8.31476e-13 0 0)
(6.8074e-13 0 0)
(8.89825e-13 0 0)
(6.51566e-13 0 0)
(5.78629e-13 0 0)
(2.96608e-13 0 0)
(5.30005e-13 0 0)
(1.75048e-13 0 0)
(2.57709e-13 0 0)
(-9.72486e-15 0 0)
(3.4037e-13 0 0)
(2.43122e-13 0 0)
(5.5918e-13 0 0)
(3.7927e-13 0 0)
(5.15418e-13 0 0)
(9.72486e-14 0 0)
(4.27894e-13 0 0)
(1.89635e-13 0 0)
(7.92576e-13 0 0)
(6.95328e-13 0 0)
(9.19e-13 0 0)
(8.31476e-13 0 0)
(6.36979e-13 0 0)
(8.12026e-13 0 0)
(6.66153e-13 0 0)
(6.07804e-13 0 0)
(6.56428e-13 0 0)
(4.13307e-13 0 0)
(4.23032e-13 0 0)
(3.93857e-13 0 0)
(3.84132e-13 0 0)
(2.57709e-13 0 0)
(1.11836e-13 0 0)
(2.18809e-13 0 0)
(4.47344e-13 0 0)
(5.3973e-13 0 0)
(5.15418e-13 0 0)
(1.9936e-13 0 0)
(2.67434e-13 0 0)
(2.67434e-13 0 0)
(3.20921e-13 0 0)
(2.04222e-13 0 0)
(2.13947e-13 0 0)
(3.88995e-13 0 0)
(4.95968e-13 0 0)
(5.93217e-13 0 0)
(7.29365e-13 0 0)
(6.27254e-13 0 0)
(5.73767e-13 0 0)
(5.78629e-13 0 0)
(3.30645e-13 0 0)
(3.69545e-13 0 0)
(5.34868e-14 0 0)
(3.69545e-13 0 0)
(3.7927e-13 0 0)
(4.13307e-13 0 0)
(3.30645e-13 0 0)
(4.61931e-13 0 0)
(7.05053e-13 0 0)
(7.29365e-13 0 0)
(6.85603e-13 0 0)
(7.48815e-13 0 0)
(8.31476e-13 0 0)
(8.26613e-13 0 0)
(1.13781e-12 0 0)
(1.95956e-12 0 0)
(4.57069e-12 0 0)
(1.10961e-11 0 0)
(2.82118e-11 0 0)
(7.10353e-11 0 0)
(1.78247e-10 0 0)
(4.42617e-10 0 0)
(1.08666e-09 0 0)
(2.63802e-09 0 0)
(6.33342e-09 0 0)
(1.50312e-08 0 0)
(3.5263e-08 0 0)
(8.17499e-08 0 0)
(1.87242e-07 0 0)
(4.23603e-07 0 0)
(9.46318e-07 0 0)
(2.08698e-06 0 0)
(4.54232e-06 0 0)
(9.75394e-06 0 0)
(2.06578e-05 0 0)
(4.31364e-05 0 0)
(8.87767e-05 0 0)
(0.000180004 0 0)
(0.000359431 0 0)
(0.000706492 0 0)
(0.00136633 0 0)
(0.00259859 0 0)
(0.0048576 0 0)
(0.00891978 0 0)
(0.0160791 0 0)
(0.0284351 0 0)
(0.0492965 0 0)
(0.083717 0 0)
(0.139154 0 0)
(0.226205 0 0)
(0.359302 0 0)
(0.557201 0 0)
(0.842996 0 0)
(1.24341 0 0)
(1.78719 0 0)
(2.50254 0 0)
(3.41397 0 0)
(4.53904 0 0)
(5.88574 0 0)
(7.45121 0 0)
(9.22216 0 0)
(11.1778 0 0)
(13.294 0 0)
(15.5472 0 0)
(17.9158 0 0)
(20.3816 0 0)
(22.9293 0 0)
(25.5466 0 0)
(28.2234 0 0)
(30.9518 0 0)
(33.7251 0 0)
(36.5384 0 0)
(39.3872 0 0)
(42.2681 0 0)
(45.1782 0 0)
(48.1151 0 0)
(51.0767 0 0)
(54.0612 0 0)
(57.067 0 0)
(60.0927 0 0)
(63.137 0 0)
(66.1987 0 0)
(69.2768 0 0)
(72.3702 0 0)
(75.4781 0 0)
(78.5994 0 0)
(81.7334 0 0)
(84.8792 0 0)
(88.0361 0 0)
(91.2033 0 0)
(94.3801 0 0)
(97.566 0 0)
(100.76 0 0)
(103.962 0 0)
(107.171 0 0)
(110.387 0 0)
(113.61 0 0)
(116.838 0 0)
(120.071 0 0)
(123.309 0 0)
(126.552 0 0)
(129.799 0 0)
(133.05 0 0)
(136.305 0 0)
(139.562 0 0)
(142.823 0 0)
(146.087 0 0)
(149.353 0 0)
(152.622 0 0)
(155.892 0 0)
(159.164 0 0)
(162.438 0 0)
(165.714 0 0)
(168.99 0 0)
(172.268 0 0)
(175.546 0 0)
(178.826 0 0)
(182.105 0 0)
(185.385 0 0)
(188.665 0 0)
(191.945 0 0)
(195.224 0 0)
(198.503 0 0)
(201.781 0 0)
(205.057 0 0)
(208.333 0 0)
(211.607 0 0)
(214.879 0 0)
(218.148 0 0)
(221.415 0 0)
(224.679 0 0)
(227.94 0 0)
(231.196 0 0)
(234.448 0 0)
(237.694 0 0)
(240.935 0 0)
(244.169 0 0)
(247.396 0 0)
(250.613 0 0)
(253.821 0 0)
(257.017 0 0)
(260.201 0 0)
(263.369 0 0)
(266.52 0 0)
(269.651 0 0)
(272.758 0 0)
(275.838 0 0)
(278.886 0 0)
(281.897 0 0)
(284.862 0 0)
(287.774 0 0)
(290.622 0 0)
(293.393 0 0)
(296.072 0 0)
(298.638 0 0)
(301.067 0 0)
(303.33 0 0)
(305.389 0 0)
(307.199 0 0)
(308.706 0 0)
(309.845 0 0)
(310.541 0 0)
(310.713 0 0)
(310.274 0 0)
(309.147 0 0)
(307.274 0 0)
(304.644 0 0)
(301.319 0 0)
(297.452 0 0)
(293.308 0 0)
(289.245 0 0)
(285.686 0 0)
(283.046 0 0)
(281.639 0 0)
(281.608 0 0)
(282.884 0 0)
(285.22 0 0)
(288.244 0 0)
(291.534 0 0)
(294.68 0 0)
(297.319 0 0)
(299.169 0 0)
(300.05 0 0)
(299.9 0 0)
(298.785 0 0)
(296.902 0 0)
(294.557 0 0)
(292.13 0 0)
(290.018 0 0)
(288.565 0 0)
(287.98 0 0)
(288.297 0 0)
(289.373 0 0)
(290.932 0 0)
(292.636 0 0)
(294.147 0 0)
(295.193 0 0)
(295.615 0 0)
(295.385 0 0)
(294.616 0 0)
(293.524 0 0)
(292.381 0 0)
(291.454 0 0)
(290.939 0 0)
(290.914 0 0)
(291.326 0 0)
(292.017 0 0)
(292.772 0 0)
(293.385 0 0)
(293.708 0 0)
(293.689 0 0)
(293.379 0 0)
(292.909 0 0)
(292.445 0 0)
(292.133 0 0)
(292.053 0 0)
(292.201 0 0)
(292.495 0 0)
(292.817 0 0)
(293.056 0 0)
(293.151 0 0)
(293.115 0 0)
(293.023 0 0)
(292.966 0 0)
(293.002 0 0)
(293.106 0 0)
(293.186 0 0)
(293.148 0 0)
(292.964 0 0)
(292.694 0 0)
(292.432 0 0)
(292.239 0 0)
(292.123 0 0)
(292.066 0 0)
(292.063 0 0)
(292.123 0 0)
(292.243 0 0)
(292.398 0 0)
(292.547 0 0)
(292.658 0 0)
(292.72 0 0)
(292.741 0 0)
(292.736 0 0)
(292.719 0 0)
(292.7 0 0)
(292.683 0 0)
(292.672 0 0)
(292.667 0 0)
(292.667 0 0)
(292.671 0 0)
(292.675 0 0)
(292.678 0 0)
(292.679 0 0)
(292.68 0 0)
(292.681 0 0)
(292.682 0 0)
(292.683 0 0)
(292.684 0 0)
(292.685 0 0)
(292.686 0 0)
(292.687 0 0)
(292.688 0 0)
(292.69 0 0)
(292.691 0 0)
(292.692 0 0)
(292.694 0 0)
(292.695 0 0)
(292.696 0 0)
(292.697 0 0)
(292.699 0 0)
(292.7 0 0)
(292.701 0 0)
(292.704 0 0)
(292.704 0 0)
(292.701 0 0)
(292.706 0 0)
(292.709 0 0)
(292.686 0 0)
(292.677 0 0)
(292.715 0 0)
(292.659 0 0)
(292.507 0 0)
(292.648 0 0)
(292.77 0 0)
(291.953 0 0)
(291.673 0 0)
(293.389 0 0)
(291.536 0 0)
(285.433 0 0)
(291.247 0 0)
(293.333 0 0)
(233.841 0 0)
(110.385 0 0)
(27.012 0 0)
(4.84982 0 0)
(0.816425 0 0)
(0.134481 0 0)
(0.0222202 0 0)
(0.00367472 0 0)
(0.000607783 0 0)
(0.000100524 0 0)
(1.66262e-05 0 0)
(2.74988e-06 0 0)
(4.54811e-07 0 0)
(7.52225e-08 0 0)
(1.24406e-08 0 0)
(2.05738e-09 0 0)
(3.39982e-10 0 0)
(5.59132e-11 0 0)
(8.92744e-12 0 0)
(1.23992e-12 0 0)
(-4.32757e-13 0 0)
(-4.13307e-13 0 0)
(-7.39091e-13 0 0)
(-6.27255e-13 0 0)
(-8.80101e-13 0 0)
(-6.3698e-13 0 0)
(-7.53678e-13 0 0)
(-3.84133e-13 0 0)
(-2.67434e-13 0 0)
(-4.08445e-13 0 0)
(-5.7863e-13 0 0)
(-4.66794e-13 0 0)
(-6.27255e-13 0 0)
(-8.65514e-13 0 0)
(-6.71017e-13 0 0)
(-6.1753e-13 0 0)
(-4.1817e-13 0 0)
(-6.07805e-13 0 0)
(-6.95329e-13 0 0)
(-7.00191e-13 0 0)
(-7.73128e-13 0 0)
(-9.67625e-13 0 0)
(-9.579e-13 0 0)
(-8.26615e-13 0 0)
(-7.82853e-13 0 0)
(-9.14139e-13 0 0)
(-8.75239e-13 0 0)
(-7.19641e-13 0 0)
(-7.53678e-13 0 0)
(-6.85604e-13 0 0)
(-1.13781e-12 0 0)
(-1.03084e-12 0 0)
(-1.09891e-12 0 0)
(-7.14779e-13 0 0)
(-9.82213e-13 0 0)
(-5.25143e-13 0 0)
(-8.31477e-13 0 0)
(-9.28726e-13 0 0)
(-8.46064e-13 0 0)
(-8.12027e-13 0 0)
(-1.00652e-12 0 0)
(-1.10377e-12 0 0)
(-1.28368e-12 0 0)
(-1.39066e-12 0 0)
(-1.40038e-12 0 0)
(-1.21075e-12 0 0)
(-1.27882e-12 0 0)
(-1.22533e-12 0 0)
(-1.36635e-12 0 0)
(-1.76507e-12 0 0)
(-1.90608e-12 0 0)
(-1.89635e-12 0 0)
(-1.88176e-12 0 0)
(-1.89149e-12 0 0)
(-2.3048e-12 0 0)
(-2.31452e-12 0 0)
(-2.76673e-12 0 0)
(-2.85425e-12 0 0)
(-2.44581e-12 0 0)
(-2.24158e-12 0 0)
(-1.90121e-12 0 0)
(-2.07626e-12 0 0)
(-1.82828e-12 0 0)
(-1.85745e-12 0 0)
(-1.37607e-12 0 0)
(-1.6435e-12 0 0)
(-1.33717e-12 0 0)
(-1.66295e-12 0 0)
(-1.70672e-12 0 0)
(-1.78452e-12 0 0)
(-1.85745e-12 0 0)
(-1.80883e-12 0 0)
(-1.48791e-12 0 0)
(-1.43928e-12 0 0)
(-1.50736e-12 0 0)
(-1.66782e-12 0 0)
(-1.92066e-12 0 0)
(-1.96443e-12 0 0)
(-1.67754e-12 0 0)
(-1.83314e-12 0 0)
(-1.59002e-12 0 0)
(-1.56084e-12 0 0)
(-1.75048e-12 0 0)
(-1.66295e-12 0 0)
(-1.55112e-12 0 0)
(-1.37607e-12 0 0)
(-1.88176e-12 0 0)
(-1.38093e-12 0 0)
(-1.46846e-12 0 0)
(-1.08432e-12 0 0)
(-1.27396e-12 0 0)
(-9.53038e-13 0 0)
(-1.1135e-12 0 0)
(-6.85604e-13 0 0)
(-3.88995e-13 0 0)
(-6.51567e-13 0 0)
(1.7991e-13 0 0)
(1.6046e-13 0 0)
(4.3762e-13 0 0)
(1.16699e-13 0 0)
(7.7799e-14 0 0)
(4.86244e-14 0 0)
(2.57709e-13 0 0)
(2.13947e-13 0 0)
(1.70185e-13 0 0)
(2.72297e-13 0 0)
(-9.72488e-15 0 0)
(-2.52847e-13 0 0)
(-4.86244e-13 0 0)
(-2.43122e-14 0 0)
(-2.09085e-13 0 0)
(-1.02111e-13 0 0)
(-3.40371e-13 0 0)
(-5.44593e-13 0 0)
(-6.61292e-13 0 0)
(-3.9872e-13 0 0)
(5.34868e-14 0 0)
(-2.91746e-14 0 0)
(1.6046e-13 0 0)
(2.77159e-13 0 0)
(2.86884e-13 0 0)
(5.15419e-13 0 0)
(2.82021e-13 0 0)
(2.82021e-13 0 0)
(1.84773e-13 0 0)
(3.11196e-13 0 0)
(7.29366e-13 0 0)
(7.43953e-13 0 0)
(8.31477e-13 0 0)
(7.48816e-13 0 0)
(1.25451e-12 0 0)
(1.13781e-12 0 0)
(1.22533e-12 0 0)
(9.72488e-13 0 0)
(9.43313e-13 0 0)
(6.3698e-13 0 0)
(4.81381e-13 0 0)
(2.13947e-13 0 0)
(3.16059e-13 0 0)
(2.3826e-13 0 0)
(3.93858e-13 0 0)
(4.57069e-13 0 0)
(1.89635e-13 0 0)
(3.5982e-13 0 0)
(3.5982e-13 0 0)
(9.72488e-15 0 0)
(1.55598e-13 0 0)
(8.26615e-14 0 0)
(1.50736e-13 0 0)
(1.41011e-13 0 0)
(2.82021e-13 0 0)
(5.73768e-13 0 0)
(7.82853e-13 0 0)
(1.34203e-12 0 0)
(1.12809e-12 0 0)
(1.1913e-12 0 0)
(1.0357e-12 0 0)
(9.67625e-13 0 0)
(7.39091e-13 0 0)
(7.63403e-13 0 0)
(6.75879e-13 0 0)
(7.43953e-13 0 0)
(3.54958e-13 0 0)
(3.20921e-13 0 0)
(3.9872e-13 0 0)
(-3.88995e-14 0 0)
(1.75048e-13 0 0)
(2.43122e-14 0 0)
(3.88995e-14 0 0)
(1.94498e-14 0 0)
(2.28535e-13 0 0)
(-1.45873e-14 0 0)
(6.32117e-14 0 0)
(9.23863e-14 0 0)
(-1.84773e-13 0 0)
(-2.23672e-13 0 0)
(-2.82021e-13 0 0)
(-1.9936e-13 0 0)
(-2.77159e-13 0 0)
(-3.88995e-14 0 0)
(-4.86244e-15 0 0)
(-6.80741e-14 0 0)
(-2.96609e-13 0 0)
(1.45873e-14 0 0)
(-4.3762e-14 0 0)
(-1.70185e-13 0 0)
(-2.1881e-13 0 0)
(8.26615e-14 0 0)
(4.86244e-15 0 0)
(-1.65323e-13 0 0)
(-7.7799e-14 0 0)
(1.26423e-13 0 0)
(-2.43122e-13 0 0)
(-1.89635e-13 0 0)
(-5.15419e-13 0 0)
(-9.23863e-14 0 0)
(-2.13947e-13 0 0)
(2.33397e-13 0 0)
(2.1881e-13 0 0)
(-1.7991e-13 0 0)
(3.64683e-13 0 0)
(3.11196e-13 0 0)
(4.95969e-13 0 0)
(3.84133e-13 0 0)
(3.25783e-13 0 0)
(7.29366e-14 0 0)
(9.72488e-14 0 0)
(-1.11836e-13 0 0)
(-6.32117e-14 0 0)
(-4.3762e-14 0 0)
(-7.7799e-14 0 0)
(-1.31286e-13 0 0)
(-2.67434e-13 0 0)
(-3.06334e-13 0 0)
(-3.25783e-13 0 0)
(-5.15419e-13 0 0)
(-3.93858e-13 0 0)
(-7.53678e-13 0 0)
(-4.47344e-13 0 0)
(-7.09916e-13 0 0)
(5.83493e-14 0 0)
(-1.41011e-13 0 0)
(-6.80741e-14 0 0)
(-7.29366e-14 0 0)
(-3.54958e-13 0 0)
(-3.11196e-13 0 0)
(-3.20921e-13 0 0)
(-3.93858e-13 0 0)
(-5.34868e-14 0 0)
(-3.30646e-13 0 0)
(-2.86884e-13 0 0)
(-5.88355e-13 0 0)
(-7.14779e-13 0 0)
(-8.60652e-13 0 0)
(-8.41202e-13 0 0)
(-1.11836e-12 0 0)
(-5.10556e-13 0 0)
(-1.12809e-12 0 0)
(-1.00652e-12 0 0)
(-1.08919e-12 0 0)
(-1.05515e-12 0 0)
(-1.10864e-12 0 0)
(-1.23506e-12 0 0)
(-1.11836e-12 0 0)
(-1.16212e-12 0 0)
(-1.05515e-12 0 0)
(-1.22533e-12 0 0)
(-1.57057e-12 0 0)
(-1.52194e-12 0 0)
(-1.58516e-12 0 0)
(-1.49763e-12 0 0)
(-1.30313e-12 0 0)
(-1.23506e-12 0 0)
(-9.7735e-13 0 0)
(-1.1524e-12 0 0)
(-9.48176e-13 0 0)
(-1.0357e-12 0 0)
(-6.56429e-13 0 0)
(-8.46064e-13 0 0)
(-8.99551e-13 0 0)
(-8.65514e-13 0 0)
(-1.09405e-12 0 0)
(-1.28855e-12 0 0)
(-1.61433e-12 0 0)
(-1.37607e-12 0 0)
(-1.49277e-12 0 0)
(-1.26423e-12 0 0)
(-1.02111e-12 0 0)
(-1.26423e-12 0 0)
(-1.24478e-12 0 0)
(-1.37121e-12 0 0)
(-1.30313e-12 0 0)
(-1.44901e-12 0 0)
(-1.21561e-12 0 0)
(-1.05029e-12 0 0)
(-1.12809e-12 0 0)
(-5.15419e-13 0 0)
(-8.60652e-13 0 0)
(-4.3762e-13 0 0)
(-7.14779e-13 0 0)
(-5.88355e-13 0 0)
(-7.73128e-13 0 0)
(-6.41842e-13 0 0)
(-4.42482e-13 0 0)
(4.3762e-14 0 0)
(2.28535e-13 0 0)
(3.25783e-13 0 0)
(4.52207e-13 0 0)
(-1.94498e-14 0 0)
(-1.36148e-13 0 0)
(5.34868e-14 0 0)
(2.72297e-13 0 0)
(4.95969e-13 0 0)
(7.00191e-13 0 0)
(6.02942e-13 0 0)
(5.88355e-13 0 0)
(1.11836e-13 0 0)
(-1.9936e-13 0 0)
(-5.39731e-13 0 0)
(-6.07805e-13 0 0)
(-4.95969e-13 0 0)
(-2.52847e-13 0 0)
(-5.34868e-13 0 0)
(-1.02111e-13 0 0)
(3.40371e-14 0 0)
(1.41011e-13 0 0)
(1.02111e-13 0 0)
(-2.91746e-14 0 0)
(-2.47984e-13 0 0)
(-1.16699e-13 0 0)
(-1.7991e-13 0 0)
(-1.06974e-13 0 0)
(-5.34868e-14 0 0)
(-2.91746e-13 0 0)
(-4.3762e-14 0 0)
(-3.93858e-13 0 0)
(-1.45873e-13 0 0)
(-1.02111e-13 0 0)
(6.46704e-13 0 0)
(4.81381e-13 0 0)
(7.48816e-13 0 0)
(2.28535e-13 0 0)
(3.74408e-13 0 0)
(-1.31286e-13 0 0)
(5.34868e-13 0 0)
(2.86884e-13 0 0)
(8.1689e-13 0 0)
(5.34868e-13 0 0)
(6.80741e-13 0 0)
(5.20281e-13 0 0)
(2.96609e-13 0 0)
(9.23863e-14 0 0)
(2.91746e-14 0 0)
(-5.68905e-13 0 0)
(-4.47344e-13 0 0)
(-6.22392e-13 0 0)
(-5.44593e-13 0 0)
(-4.52207e-13 0 0)
(-3.74408e-13 0 0)
(-5.54318e-13 0 0)
(-6.32117e-13 0 0)
(-6.41842e-13 0 0)
(-1.7991e-13 0 0)
(-3.9872e-13 0 0)
)
;

boundaryField
{
    sides
    {
        type            zeroGradient;
    }
    empty
    {
        type            empty;
    }
}


// ************************************************************************* //
