/*--------------------------------*- C++ -*----------------------------------*\
  =========                 |
  \\      /  F ield         | OpenFOAM: The Open Source CFD Toolbox
   \\    /   O peration     | Website:  https://openfoam.org
    \\  /    A nd           | Version:  13
     \\/     M anipulation  |
\*---------------------------------------------------------------------------*/
FoamFile
{
    format      ascii;
    class       volScalarField;
    location    "37.503363";
    object      nut;
}
// * * * * * * * * * * * * * * * * * * * * * * * * * * * * * * * * * * * * * //

dimensions      [0 2 -1 0 0 0 0];

internalField   nonuniform List<scalar> 
17140
(
1.1880882e-18
2.3106742e-16
6.1545537e-15
6.2393881e-14
3.7733118e-13
1.6717234e-12
6.0363271e-12
1.8888401e-11
5.321307e-11
1.3842244e-10
3.3834294e-10
7.8692994e-10
1.7579142e-09
3.7986189e-09
7.9839041e-09
1.6393038e-08
3.2997153e-08
6.5297876e-08
1.273321e-07
2.4514781e-07
4.6672655e-07
8.7986794e-07
1.6442571e-06
3.0486545e-06
5.6122835e-06
1.0263272e-05
1.8649631e-05
3.3673203e-05
6.0384316e-05
0.0001074171
0.00018910886
0.00032816117
0.00055782793
0.00092116915
0.0014640705
0.0022212604
0.00320091
0.0043767669
0.0056920726
0.0070717803
0.0084370148
0.0097177797
0.010861592
0.011821519
0.012601619
0.013265937
0.013803096
0.014246222
0.014631108
0.01498733
0.015335861
0.015690291
0.016064743
0.016483213
0.016961801
0.017492502
0.018053702
0.018570801
0.018554294
0.017308122
0.0139587
0.0095300064
0.0092479829
0.014682138
0.019553602
1.1954044e-18
2.3249013e-16
6.1924537e-15
6.2778256e-14
3.7965698e-13
1.6820334e-12
6.0735759e-12
1.9005024e-11
5.3541808e-11
1.3927805e-10
3.4043541e-10
7.9179919e-10
1.7687968e-09
3.8221444e-09
8.0333656e-09
1.6494615e-08
3.3201613e-08
6.5702365e-08
1.2812035e-07
2.4666366e-07
4.6960742e-07
8.8528514e-07
1.6543456e-06
3.0672764e-06
5.6463753e-06
1.0325207e-05
1.8761338e-05
3.3873286e-05
6.0740044e-05
0.0001080438
0.00019020239
0.00033004071
0.000560978
0.00092621596
0.0014715909
0.0022314855
0.003213384
0.0043901158
0.005703993
0.0070792458
0.0084365994
0.0097059836
0.010834364
0.01177621
0.012537987
0.013181428
0.013694007
0.014110358
0.014465333
0.014787462
0.015096688
0.015406373
0.015734222
0.016114984
0.016580968
0.017157207
0.017882386
0.018782902
0.019582626
0.019371577
0.017334337
0.013912158
0.013181091
0.017229365
0.019005479
1.194663e-18
2.3234591e-16
6.1886111e-15
6.2739292e-14
3.7942117e-13
1.6809875e-12
6.0697931e-12
1.8993163e-11
5.3508309e-11
1.3919065e-10
3.4022101e-10
7.9129841e-10
1.7676724e-09
3.8196993e-09
8.028185e-09
1.6483865e-08
3.3179674e-08
6.5658148e-08
1.2803201e-07
2.4648811e-07
4.6925934e-07
8.8459465e-07
1.6529727e-06
3.0645379e-06
5.6408982e-06
1.0314244e-05
1.8739449e-05
3.382988e-05
6.0655034e-05
0.00010788045
0.00018989695
0.00032948877
0.00056001728
0.00092460371
0.0014689773
0.0022273242
0.0032067795
0.0043796709
0.0056877127
0.0070545498
0.0084004993
0.0096553216
0.010765029
0.011685621
0.012426022
0.013043245
0.013525597
0.013907856
0.014223648
0.014499914
0.014754851
0.015001031
0.015260797
0.015580243
0.016002654
0.016577923
0.017424602
0.018641248
0.020174919
0.021087865
0.020543291
0.018041237
0.01677743
0.0189121
0.017231475
1.1848448e-18
2.3043637e-16
6.1377482e-15
6.2223631e-14
3.7630243e-13
1.6671682e-12
6.0198836e-12
1.8836947e-11
5.3068062e-11
1.3804496e-10
3.3741917e-10
7.8477762e-10
1.753094e-09
3.7881661e-09
7.9618252e-09
1.6347391e-08
3.2904395e-08
6.5111922e-08
1.2696311e-07
2.4442079e-07
4.6530033e-07
8.7707527e-07
1.6387887e-06
3.0379344e-06
5.5912407e-06
1.0221955e-05
1.8568667e-05
3.3515434e-05
6.0079969e-05
0.00010683914
0.00018803957
0.00032625026
0.00055455295
0.00091578028
0.0014554644
0.0022077428
0.0031797784
0.0043438475
0.0056414296
0.0069957839
0.0083267929
0.0095638442
0.01065158
0.011547498
0.012262855
0.01284865
0.01329468
0.013635024
0.013901692
0.01411946
0.014304082
0.014467187
0.01463806
0.01487198
0.015214059
0.01573686
0.016608098
0.018046653
0.020104088
0.022216871
0.023070707
0.021745947
0.019943039
0.020041731
0.01672501
1.1655383e-18
2.2668152e-16
6.0377359e-15
6.1209704e-14
3.7017037e-13
1.6399985e-12
5.9217654e-12
1.8529871e-11
5.220277e-11
1.3579348e-10
3.3191408e-10
7.7196834e-10
1.7244645e-09
3.7262605e-09
7.8316021e-09
1.6079718e-08
3.2364842e-08
6.4042254e-08
1.2487229e-07
2.4038308e-07
4.5758282e-07
8.6245334e-07
1.6112917e-06
2.9865543e-06
5.4957626e-06
1.004541e-05
1.8243797e-05
3.2920763e-05
5.899862e-05
0.00010489113
0.00018457954
0.00032023602
0.00054442859
0.00089947381
0.0014306057
0.0021720631
0.0031314406
0.0042814574
0.0055637482
0.0069013653
0.0082137293
0.009429664
0.01049199
0.011359546
0.012046147
0.012594929
0.012998079
0.013288248
0.013495358
0.013641507
0.013739522
0.013801185
0.013866311
0.013991253
0.014211252
0.014611867
0.015393123
0.016851969
0.019235663
0.022404275
0.024569637
0.02471296
0.022986073
0.021382631
0.017278662
1.1366045e-18
2.2105428e-16
5.8878524e-15
5.9690186e-14
3.6098062e-13
1.5992817e-12
5.7747297e-12
1.8069721e-11
5.0906206e-11
1.3242005e-10
3.2366638e-10
7.5277933e-10
1.6815808e-09
3.6335461e-09
7.6366051e-09
1.5678992e-08
3.1557326e-08
6.2441936e-08
1.2174574e-07
2.3434893e-07
4.4605853e-07
8.4064085e-07
1.5703239e-06
2.9101201e-06
5.3539846e-06
9.7838e-06
1.7763493e-05
3.2043672e-05
5.7407422e-05
0.00010203051
0.00017950633
0.00031142525
0.0005295989
0.00087558401
0.0013941958
0.0021199111
0.0030611635
0.0041916375
0.0054535471
0.0067699393
0.0080597512
0.0092510719
0.010284472
0.011119436
0.011773401
0.012279458
0.012632856
0.012864326
0.013001292
0.013062814
0.01305895
0.013005405
0.012954742
0.01294834
0.013003268
0.013211203
0.013792004
0.01510398
0.017495556
0.021108101
0.024619918
0.026259683
0.02544361
0.023194437
0.019381101
1.0981729e-18
2.1357987e-16
5.6887697e-15
5.7671886e-14
3.4877439e-13
1.5452005e-12
5.5794368e-12
1.7458565e-11
4.9184211e-11
1.2793991e-10
3.1271337e-10
7.2729765e-10
1.6246383e-09
3.5104474e-09
7.3777326e-09
1.5147073e-08
3.0485631e-08
6.0318568e-08
1.1759854e-07
2.2634804e-07
4.3078562e-07
8.1175122e-07
1.5161062e-06
2.809061e-06
5.1667409e-06
9.4387427e-06
1.7130888e-05
3.0890178e-05
5.5317772e-05
9.8278316e-05
0.00017285713
0.00029987892
0.00051015204
0.00084421329
0.0013463077
0.0020512533
0.0029687192
0.0040738991
0.0053100498
0.0066004457
0.0078635271
0.0090265082
0.010027664
0.010824824
0.011442361
0.011899816
0.012196431
0.012360686
0.012417221
0.012382026
0.012264117
0.01209082
0.011921029
0.011762474
0.011614635
0.011568876
0.01183792
0.012830328
0.014959707
0.01858055
0.022878464
0.025911349
0.026211788
0.024391166
0.020084536
1.0506656e-18
2.0434036e-16
5.4426728e-15
5.5176963e-14
3.3368574e-13
1.4783491e-12
5.3380323e-12
1.6703119e-11
4.7055716e-11
1.2240233e-10
2.991756e-10
6.9580402e-10
1.554265e-09
3.3583241e-09
7.0578491e-09
1.4489864e-08
2.9161687e-08
5.7695883e-08
1.1247731e-07
2.1647098e-07
4.1193851e-07
7.761181e-07
1.4492733e-06
2.6845802e-06
4.9363045e-06
9.0145203e-06
1.635402e-05
2.9475295e-05
5.2757457e-05
9.3685156e-05
0.00016472152
0.00028574817
0.00048632429
0.00080569119
0.0012873319
0.0019664548
0.0028543283
0.0039282113
0.0051329108
0.0063921989
0.007623984
0.0087541735
0.0097178471
0.010476447
0.011051253
0.011453873
0.011686693
0.011775565
0.011742266
0.011600206
0.011362802
0.011077778
0.010788449
0.010461914
0.010089583
0.009757923
0.0096509538
0.010127007
0.011581796
0.014748853
0.019347083
0.02321375
0.024506909
0.023319225
0.018433355
9.9481211e-19
1.9347757e-16
5.1533373e-15
5.2243696e-14
3.1594624e-13
1.3997535e-12
5.0542217e-12
1.581498e-11
4.4553402e-11
1.1589235e-10
2.832611e-10
6.5878259e-10
1.4715433e-09
3.1795181e-09
6.6818849e-09
1.3717507e-08
2.760597e-08
5.4614553e-08
1.0646173e-07
2.0487211e-07
3.8981347e-07
7.3430571e-07
1.3708931e-06
2.5386885e-06
4.6664462e-06
8.5181793e-06
1.5446008e-05
2.7823321e-05
4.9771139e-05
8.8332026e-05
0.00015524301
0.0002692776
0.00045850756
0.00076059078
0.0012180085
0.0018663338
0.0027187372
0.0037550956
0.0049223215
0.0061450214
0.007340623
0.0084336204
0.0093560717
0.010070324
0.010597974
0.01093976
0.01110206
0.01110816
0.010977206
0.010721571
0.01037158
0.0099921249
0.0095826872
0.0090844103
0.0084936114
0.0078868138
0.007392746
0.007193408
0.0076123761
0.0097375266
0.013843691
0.018175447
0.019954809
0.019131407
0.013637635
9.3164579e-19
1.8119257e-16
4.8261213e-15
4.8926403e-14
2.9588436e-13
1.310869e-12
4.7332606e-12
1.4810599e-11
4.172362e-11
1.085306e-10
2.6526477e-10
6.1691965e-10
1.3780075e-09
2.9773476e-09
6.2568224e-09
1.2844363e-08
2.5847444e-08
5.1132053e-08
9.9664292e-08
1.9176906e-07
3.6482733e-07
6.8710596e-07
1.28246e-06
2.3741901e-06
4.3624045e-06
7.9594651e-06
1.4424909e-05
2.5967556e-05
4.6419783e-05
8.2329251e-05
0.00014461732
0.00025080306
0.00042724825
0.0007097336
0.0011394481
0.0017522072
0.002563294
0.0035557254
0.0046791179
0.0058593218
0.0070133948
0.0080643017
0.0089410096
0.0096058352
0.010080888
0.010355909
0.010441473
0.010358672
0.0101247
0.0097552872
0.0093159445
0.0088579225
0.0083301319
0.0076755673
0.0069046578
0.0060669877
0.0051982864
0.0044189789
0.0039025106
0.0045402757
0.0070532595
0.011035526
0.012768934
0.012037439
0.0064527833
8.6248621e-19
1.6774196e-16
4.4678595e-15
4.5294373e-14
2.7391909e-13
1.2135522e-12
4.3818538e-12
1.3710957e-11
3.8625492e-11
1.0047088e-10
2.455627e-10
5.7109023e-10
1.2756133e-09
2.7560415e-09
5.7915586e-09
1.1888722e-08
2.3922986e-08
4.7321516e-08
9.2228011e-08
1.7743815e-07
3.375087e-07
6.3552147e-07
1.185862e-06
2.1946194e-06
4.0307612e-06
7.3505818e-06
1.3313254e-05
2.3949399e-05
4.2778963e-05
7.5813373e-05
0.00013308696
0.00023074303
0.00039323594
0.00065417994
0.0010531333
0.0016259202
0.0023900152
0.0033320294
0.0044049063
0.0055362261
0.0066428407
0.0076460367
0.0084719758
0.0090826609
0.0094985311
0.0097009587
0.0097042812
0.0095282068
0.0091894861
0.0087191581
0.0082222364
0.0076924948
0.0070561635
0.0062799477
0.005382365
0.0043417917
0.0032862742
0.0021152154
0.00121349
0.0013849531
0.0021112911
0.0034272017
0.0043355198
0.0042262698
0.0032316551
7.888957e-19
1.5342959e-16
4.0866436e-15
4.1429641e-14
2.5054659e-13
1.1100011e-12
4.0079384e-12
1.2540892e-11
3.5329003e-11
9.1895291e-11
2.2460005e-10
5.2232999e-10
1.1666751e-09
2.5206037e-09
5.2966172e-09
1.0872212e-08
2.1876184e-08
4.3269336e-08
8.432171e-08
1.6220533e-07
3.0848036e-07
5.807317e-07
1.0833162e-06
2.0041171e-06
3.6792091e-06
6.7057512e-06
1.2137221e-05
2.1816797e-05
3.8935969e-05
6.8941879e-05
0.00012093192
0.00020958328
0.00035728071
0.00059520136
0.00096089795
0.0014898495
0.0022016338
0.0030867897
0.0041022043
0.0051777488
0.0062303066
0.0071791583
0.0079482348
0.0085016871
0.0088492464
0.008973593
0.0088900064
0.008618446
0.0081785306
0.0076394627
0.0071059903
0.0065058667
0.005780492
0.0049210495
0.0039122282
0.0028247484
0.001676236
0.00071329037
0.00043989316
0.00056209575
0.00096995268
0.0015633944
0.0020795266
0.0026276729
0.0023191609
7.1261805e-19
1.3859461e-16
3.6915087e-15
3.7423808e-14
2.2632084e-13
1.0026703e-12
3.6203774e-12
1.1328139e-11
3.1912292e-11
8.3007106e-11
2.0287378e-10
4.7179503e-10
1.0537763e-09
2.2766184e-09
4.7837411e-09
9.8189595e-09
1.9755643e-08
3.9071808e-08
7.6133449e-08
1.4643337e-07
2.784347e-07
5.2404618e-07
9.7728001e-07
1.8072637e-06
3.3162351e-06
6.0406191e-06
1.0925514e-05
1.962216e-05
3.4985947e-05
6.1886131e-05
0.00010845704
0.00018785532
0.00032027907
0.00053423365
0.00086487544
0.0013468707
0.0020016126
0.0028237189
0.0037745748
0.0047869771
0.0057782897
0.0066651211
0.0073710286
0.0078610946
0.0081322341
0.008172521
0.0079981317
0.0076312882
0.0071021835
0.0065373905
0.0059688474
0.0053015566
0.0045084709
0.0035681175
0.002527123
0.0015659987
0.0006010556
0.00027464876
0.00022954563
0.00033969799
0.00058198559
0.00086747788
0.0011333061
0.0014042159
0.001349352
6.3549732e-19
1.2359564e-16
3.2920053e-15
3.3373687e-14
2.0182729e-13
8.9415354e-13
3.2285368e-12
1.0102006e-11
2.8457932e-11
7.4021137e-11
1.8090898e-10
4.2070673e-10
9.3964567e-10
2.0299836e-09
4.2653301e-09
8.7544345e-09
1.7612656e-08
3.48305e-08
6.7861455e-08
1.3050432e-07
2.4810015e-07
4.6684074e-07
8.7033068e-07
1.6088529e-06
2.9507002e-06
5.3714728e-06
9.707919e-06
1.7419695e-05
3.1027006e-05
5.4822491e-05
9.5976204e-05
0.00016610886
0.00028316881
0.00047280961
0.00076741371
0.0012002764
0.0017941027
0.0025474888
0.0034267206
0.0043681379
0.0052900169
0.0061067545
0.0067419659
0.0071599866
0.0073466177
0.0072964722
0.0070283046
0.0065694383
0.0059793784
0.0054169053
0.0048049678
0.0040772785
0.0032152129
0.0022456663
0.0014366365
0.00055837322
0.00022351403
0.00015410585
0.0001658266
0.00023411467
0.00034963941
0.00048270117
0.00061426014
0.0007302863
0.00076495944
5.5938381e-19
1.0879256e-16
2.8977195e-15
2.9376464e-14
1.7765371e-13
7.8705492e-13
2.8418195e-12
8.8919176e-12
2.5048817e-11
6.5153015e-11
1.5923272e-10
3.7029106e-10
8.2702206e-10
1.7866179e-09
3.7538252e-09
7.7041841e-09
1.5498655e-08
3.0647209e-08
5.9704273e-08
1.1480054e-07
2.1820494e-07
4.1048883e-07
7.6503658e-07
1.413651e-06
2.5913902e-06
4.7144105e-06
8.5137708e-06
1.5262576e-05
2.7155036e-05
4.7922852e-05
8.3795162e-05
0.00014488141
0.00024687674
0.00041247471
0.00067095491
0.0010536359
0.0015838269
0.0022636898
0.0030645575
0.0039268343
0.0047701789
0.0055077193
0.0060634249
0.0063982938
0.0064919811
0.0063450146
0.0059819009
0.0054395787
0.0048370862
0.0042715433
0.0036117534
0.0028233457
0.0019385861
0.0012283243
0.00049994716
0.00019680604
0.00011867113
0.0001196474
0.00015108755
0.00021298424
0.00029340402
0.00037211502
0.00046301323
0.00054818882
0.0006243022
4.8602455e-19
9.4525182e-17
2.5177039e-15
2.5523923e-14
1.5435521e-13
6.8383371e-13
2.4691057e-12
7.7256584e-12
2.1763221e-11
5.6606352e-11
1.3834268e-10
3.2170545e-10
7.1849085e-10
1.5521074e-09
3.2609654e-09
6.6923076e-09
1.3462134e-08
2.6617865e-08
5.184888e-08
9.9681773e-08
1.8943333e-07
3.56279e-07
6.6380235e-07
1.2261094e-06
2.2464851e-06
4.0843643e-06
7.3701621e-06
1.3199686e-05
2.3457774e-05
4.1343882e-05
7.2192153e-05
0.00012466373
0.00021225684
0.00035468265
0.00057787871
0.00091059328
0.0013758668
0.001978673
0.002695171
0.0034701362
0.004225042
0.0048729123
0.0053386087
0.0055768355
0.0055701844
0.0053212519
0.0048670779
0.0042685134
0.0036968515
0.0031065992
0.0024002042
0.0016113677
0.00097833183
0.0004125511
0.00016783777
9.5205774e-05
9.5525774e-05
0.00012188883
0.0001708109
0.00023503697
0.00030449607
0.00037076222
0.00044984663
0.0005224522
0.00062779713
4.1696993e-19
8.1095028e-17
2.1599883e-15
2.189746e-14
1.3242398e-13
5.8667047e-13
2.1182686e-12
6.6278644e-12
1.8670547e-11
4.8561664e-11
1.1868002e-10
2.7597582e-10
6.1634335e-10
1.3314019e-09
2.7971504e-09
5.7401465e-09
1.1546022e-08
2.2827336e-08
4.4460553e-08
8.5465665e-08
1.6238874e-07
3.0534549e-07
5.6873985e-07
1.0501261e-06
1.9231225e-06
3.4943072e-06
6.300513e-06
1.1273047e-05
2.0010218e-05
3.5218861e-05
6.140322e-05
0.00010587238
0.00018004336
0.00030071779
0.00049036624
0.00077463796
0.0011753508
0.0016992263
0.0023265788
0.0030065295
0.0036628961
0.0042094468
0.0045703173
0.0047012863
0.0045870785
0.0042380256
0.0037107017
0.0031259156
0.0025822899
0.0019583894
0.0012862424
0.00072728259
0.00031470459
0.00013463576
7.5050846e-05
7.7554321e-05
0.00010086556
0.00014738433
0.00020951166
0.00027659581
0.00034481903
0.00041280501
0.00049201888
0.00057671964
0.0006883655
3.534839e-19
6.8747859e-17
1.8311176e-15
1.8563423e-14
1.1226127e-13
4.9734282e-13
1.7957265e-12
5.6186172e-12
1.5827361e-11
4.1166076e-11
1.0060429e-10
2.3393822e-10
5.224466e-10
1.1285341e-09
2.3708506e-09
4.8650788e-09
9.7852576e-09
1.9344657e-08
3.7673632e-08
7.2410134e-08
1.3756037e-07
2.5860611e-07
4.8155363e-07
8.8883689e-07
1.6270197e-06
2.9545751e-06
5.323359e-06
9.515656e-06
1.6870744e-05
2.965062e-05
5.1609458e-05
8.8828544e-05
0.00015081141
0.000251605
0.00041020185
0.00064877534
0.0009869991
0.001432029
0.0019671667
0.0025453478
0.0030929859
0.0035250083
0.0037666364
0.0037844748
0.0035596689
0.0031300688
0.002585687
0.0020733146
0.0015400698
0.00098175796
0.00050552414
0.00022377273
0.00010112495
5.7268789e-05
6.1933121e-05
8.3456571e-05
0.00012711068
0.0001900398
0.00026163987
0.00028110653
0.00033327041
0.00044897226
0.00057465199
0.00064591129
0.00073832061
2.9644621e-19
5.7654764e-17
1.5356489e-15
1.5568017e-14
9.4146498e-14
4.1708864e-13
1.5059491e-12
4.7119025e-12
1.3273062e-11
3.4522066e-11
8.4365943e-11
1.9617497e-10
4.3810086e-10
9.4631179e-10
1.9879624e-09
4.079195e-09
8.2041339e-09
1.6217778e-08
3.1581293e-08
6.069373e-08
1.1528604e-07
2.1669239e-07
4.0341115e-07
7.4437659e-07
1.3620387e-06
2.4720808e-06
4.4509465e-06
7.948998e-06
1.4076738e-05
2.4703908e-05
4.2923033e-05
7.3727443e-05
0.00012490394
0.00020796829
0.00033857522
0.00053521886
0.00081460618
0.0011828954
0.0016247666
0.0020958558
0.0025251416
0.0028302658
0.0029447317
0.0028489642
0.002530909
0.0020727654
0.0016084274
0.0011656221
0.00071327965
0.00033143717
0.00015286556
7.2413104e-05
4.2677924e-05
4.8573877e-05
6.8483651e-05
0.00010904152
0.00016960307
0.00019573461
0.0001994725
0.00022738738
0.00029151196
0.00044875733
0.00061669952
0.0006787315
0.0007791895
2.4632549e-19
4.7906958e-17
1.2760132e-15
1.2935884e-14
7.8228681e-14
3.4656814e-13
1.2513199e-12
3.9151767e-12
1.1028651e-11
2.8684235e-11
7.0098346e-11
1.6299601e-10
3.6399776e-10
7.8622733e-10
1.6516155e-09
3.388904e-09
6.8155023e-09
1.3472003e-08
2.6232546e-08
5.0409947e-08
9.5741582e-08
1.7993054e-07
3.3490915e-07
6.17821e-07
1.1300885e-06
2.0501528e-06
3.6889687e-06
6.5826164e-06
1.1643872e-05
2.0404011e-05
3.5384639e-05
6.063713e-05
0.00010244775
0.00017007328
0.00027606003
0.00043517913
0.00066054659
0.00095593221
0.0013055313
0.0016662353
0.0019699117
0.0021407506
0.0021363852
0.0019390115
0.0015851607
0.001200272
0.00084200475
0.00048960168
0.00021382627
0.00010060464
5.0388321e-05
3.1452559e-05
3.7538102e-05
5.5590471e-05
9.2824027e-05
0.00014931512
0.00015952924
0.00015469432
0.00016964678
0.00020671437
0.00028529423
0.00048160081
0.00066550825
0.00073685793
0.00081823561
2.0314102e-19
3.9508178e-17
1.0523099e-15
1.0668032e-14
6.4513925e-14
2.8580833e-13
1.0319361e-12
3.2287432e-12
9.0949767e-12
2.3654775e-11
5.7806798e-11
1.3441347e-10
3.0016371e-10
6.483358e-10
1.3619204e-09
2.7944159e-09
5.6197415e-09
1.1107961e-08
2.16283e-08
4.1559724e-08
7.8926737e-08
1.4831504e-07
2.760255e-07
5.0910222e-07
9.3098553e-07
1.6883309e-06
3.0363129e-06
5.4138609e-06
9.5659553e-06
1.6736905e-05
2.8964283e-05
4.9498841e-05
8.3339537e-05
0.00013776685
0.00022250054
0.00034867387
0.00052537942
0.00075279546
0.001012913
0.001262908
0.0014396895
0.0014866629
0.0013851964
0.0011415713
0.0008482956
0.00057721004
0.00031186857
0.00013537602
6.5341841e-05
3.4524848e-05
2.3283436e-05
2.9012726e-05
4.5164835e-05
7.9713587e-05
0.00013214789
0.0001359152
0.00012773589
0.00013436423
0.0001552139
0.00019574492
0.00027822405
0.00049170365
0.00072690888
0.00077918121
0.00085165641
1.6646154e-19
3.2374514e-17
8.6230289e-16
8.7417889e-15
5.2865102e-14
2.3420158e-13
8.4560358e-13
2.6457345e-12
7.4526861e-12
1.9383324e-11
4.7368129e-11
1.1014066e-10
2.4595759e-10
5.3124982e-10
1.1159551e-09
2.2897157e-09
4.6047007e-09
9.1014918e-09
1.7721141e-08
3.405099e-08
6.4664192e-08
1.2150644e-07
2.2611251e-07
4.1698557e-07
7.623731e-07
1.3821076e-06
2.484378e-06
4.4264777e-06
7.8127577e-06
1.3647476e-05
2.3562125e-05
4.013007e-05
6.7251685e-05
0.00011049205
0.00017702321
0.00027448666
0.00040770138
0.00057244562
0.00074768558
0.00089213533
0.00095452543
0.00091265773
0.00076293266
0.00056080049
0.0003693244
0.00018715862
8.1673657e-05
4.1628359e-05
2.3537809e-05
1.7438129e-05
2.2726637e-05
3.7502496e-05
6.8676458e-05
0.00011643693
0.00012301811
0.00011401444
0.0001169513
0.00012953513
0.00015331387
0.00019571357
0.00028231424
0.00050976693
0.0007504663
0.00080480834
0.00087334791
1.354624e-19
2.6345591e-17
7.0172087e-16
7.1138532e-15
4.3020328e-14
1.9058757e-13
6.8813196e-13
2.1530368e-12
6.0648271e-12
1.5773731e-11
3.8547233e-11
8.9630481e-11
2.0015647e-10
4.3232454e-10
9.0815463e-10
1.8633604e-09
3.7473042e-09
7.4068228e-09
1.4421541e-08
2.7710718e-08
5.2622927e-08
9.887687e-08
1.8398788e-07
3.3925795e-07
6.2012749e-07
1.1238206e-06
2.0189158e-06
3.5938466e-06
6.3342247e-06
1.1041376e-05
1.9003756e-05
3.2221892e-05
5.36502e-05
8.7339959e-05
0.00013814978
0.00021039468
0.00030461727
0.0004122437
0.00051060625
0.00056534291
0.00055251253
0.00046878426
0.00034310062
0.00021645739
0.00010544147
4.8165137e-05
2.5778424e-05
1.6074486e-05
1.3140551e-05
1.8317754e-05
3.1412563e-05
5.9327427e-05
0.00010187063
0.00011584581
0.00010736506
0.0001082119
0.00011611639
0.00013070218
0.00015594441
0.00020165029
0.00029067133
0.00050145837
0.00079140891
0.00084377239
0.0008986983
1.0904342e-19
2.120746e-17
5.6486572e-16
5.7264585e-15
3.4630244e-14
1.5341836e-13
5.5393129e-13
1.7331551e-12
4.8821005e-12
1.2697714e-11
3.1030424e-11
7.2152964e-11
1.611286e-10
3.4803102e-10
7.3109414e-10
1.5000851e-09
3.0167756e-09
5.9629284e-09
1.1610204e-08
2.2308529e-08
4.2362683e-08
7.9592558e-08
1.480848e-07
2.7299465e-07
4.9882108e-07
9.0344973e-07
1.6215218e-06
2.8823376e-06
5.0692166e-06
8.8078617e-06
1.5087761e-05
2.540606e-05
4.1883755e-05
6.7217212e-05
0.00010413676
0.00015389683
0.00021334114
0.00027133373
0.00030834942
0.00030696448
0.00026376423
0.00019290445
0.00011661338
5.7294925e-05
2.7628146e-05
1.5989635e-05
1.0911008e-05
1.0104914e-05
1.4764028e-05
2.6702419e-05
5.1014802e-05
8.9651237e-05
0.00011217938
0.00010531458
0.00010532558
0.00010995896
0.00011956099
0.00013546569
0.00016243379
0.0002087435
0.00029443262
0.00047863476
0.00082624608
0.00086501255
0.00091715836
8.6042336e-20
1.6734067e-17
4.4571604e-16
4.5185552e-15
2.7325615e-14
1.2105792e-13
4.3709293e-13
1.367596e-12
3.8523883e-12
1.0019642e-11
2.4486005e-11
5.6936138e-11
1.2714807e-10
2.7463611e-10
5.7691789e-10
1.1837362e-09
2.3805432e-09
4.7052183e-09
9.1608668e-09
1.7600624e-08
3.3417728e-08
6.2772072e-08
1.1674873e-07
2.1511261e-07
3.9274715e-07
7.1049859e-07
1.273012e-06
2.2571309e-06
3.955051e-06
6.8352965e-06
1.1618459e-05
1.9347064e-05
3.1389843e-05
4.9211139e-05
7.3688063e-05
0.00010366574
0.00013399752
0.00015485299
0.00015614016
0.00013537943
9.8167796e-05
5.7459135e-05
2.8960206e-05
1.5465552e-05
9.826869e-06
7.6429065e-06
7.6807259e-06
1.2094545e-05
2.249986e-05
4.4440186e-05
7.9972126e-05
0.0001116487
0.00010565618
0.00010512636
0.0001073134
0.00011400072
0.00012472937
0.00014209456
0.00017007015
0.00021664394
0.00029785018
0.00045461343
0.00071891373
0.00088433033
0.00093232836
6.5550782e-20
1.2748738e-17
3.3956583e-16
3.4424327e-15
2.0817875e-14
9.2227532e-14
3.329985e-13
1.0419033e-12
2.9349477e-12
7.6334789e-12
1.865464e-11
4.3376392e-11
9.6865353e-11
2.0922078e-10
4.3948372e-10
9.016863e-10
1.8131525e-09
3.5832415e-09
6.9749834e-09
1.3396957e-08
2.5425657e-08
4.7731281e-08
8.8700136e-08
1.6323963e-07
2.9754569e-07
5.3702594e-07
9.5906876e-07
1.6927296e-06
2.947065e-06
5.0473206e-06
8.470513e-06
1.3851108e-05
2.1887559e-05
3.3036551e-05
4.6855561e-05
6.1080117e-05
7.1215651e-05
7.2313631e-05
6.3030603e-05
4.5358713e-05
2.6640753e-05
1.4351778e-05
8.3814071e-06
6.1106026e-06
5.3659334e-06
6.0441882e-06
9.8151175e-06
1.9152262e-05
4.008692e-05
7.1785842e-05
0.00011308096
0.00010726253
0.00010573537
0.00010659507
0.00011147694
0.00011874494
0.00013021061
0.00014834647
0.00017707345
0.00022347121
0.00029957256
0.00043107074
0.00062035704
0.00081227409
0.00094529913
4.7220279e-20
9.1837015e-18
2.4461002e-16
2.4797916e-15
1.4996343e-14
6.6436747e-14
2.3987661e-13
7.5053225e-13
2.1141525e-12
5.4985604e-12
1.34369e-11
3.1242414e-11
6.9763662e-11
1.5066852e-10
3.1644629e-10
6.4912545e-10
1.3049429e-09
2.5779473e-09
5.0156074e-09
9.6269797e-09
1.8253793e-08
3.4224505e-08
6.3491699e-08
1.1657711e-07
2.1182571e-07
3.8068924e-07
6.7594371e-07
1.1836527e-06
2.0386251e-06
3.4397488e-06
5.652961e-06
8.9745278e-06
1.3603007e-05
1.936578e-05
2.5334904e-05
2.964796e-05
3.0162381e-05
2.6383068e-05
1.8855267e-05
1.1453152e-05
6.8825681e-06
4.5742735e-06
3.8535085e-06
3.8388869e-06
4.727344e-06
8.0870888e-06
1.7292244e-05
3.5824444e-05
6.4983046e-05
0.0001024979
0.00010860185
0.00010629258
0.00010612232
0.000109893
0.00011467286
0.00012258454
0.00013509651
0.00015455619
0.00018400563
0.00022995948
0.00029992153
0.00041175027
0.00055624632
0.00073658191
0.00090583722
3.1374202e-20
6.1018526e-18
1.6252393e-16
1.6476176e-15
9.9637625e-15
4.4140881e-14
1.5937208e-13
4.9863319e-13
1.404526e-12
3.6527186e-12
8.9254326e-12
2.0750254e-11
4.6327355e-11
1.0003099e-10
2.1003026e-10
4.3066062e-10
8.6529244e-10
1.7081701e-09
3.3201787e-09
6.364585e-09
1.2047353e-08
2.2536737e-08
4.1683458e-08
7.6229756e-08
1.3777887e-07
2.4586671e-07
4.324385e-07
7.4763469e-07
1.2655218e-06
2.0852588e-06
3.3171474e-06
5.0348391e-06
7.1742793e-06
9.3929751e-06
1.1003159e-05
1.11791e-05
9.8329429e-06
7.2145441e-06
4.7901936e-06
3.2493427e-06
2.5519386e-06
2.4676592e-06
2.7984291e-06
3.7660572e-06
7.1098537e-06
1.5841181e-05
3.2172553e-05
5.8676472e-05
9.2360097e-05
0.00010905906
0.00010616469
0.0001054983
0.00010831355
0.0001117597
0.00011747312
0.00012656265
0.00014007537
0.0001602263
0.00018983126
0.00023434748
0.00029869501
0.00039685399
0.00051636516
0.00068203505
0.00087571994
1.8730178e-20
3.6427602e-18
9.7025188e-17
9.8360264e-16
5.9481173e-15
2.6350304e-14
9.5134781e-14
2.9763403e-13
8.382906e-13
2.1798667e-12
5.325651e-12
1.2378591e-11
2.762844e-11
5.9632181e-11
1.2514049e-10
2.5641642e-10
5.1471856e-10
1.0148585e-09
1.9694042e-09
3.7672297e-09
7.1110501e-09
1.325394e-08
2.4396794e-08
4.4335747e-08
7.9470565e-08
1.4026989e-07
2.4315466e-07
4.1233347e-07
6.8009954e-07
1.0821566e-06
1.6420805e-06
2.3389208e-06
3.0628216e-06
3.5931217e-06
3.6676866e-06
3.2868685e-06
2.6226358e-06
2.0037492e-06
1.5758282e-06
1.4731185e-06
1.6492848e-06
2.0555228e-06
3.1672771e-06
6.6081817e-06
1.4270922e-05
2.8776689e-05
5.2803724e-05
8.3081383e-05
0.00010828996
0.00010556041
0.00010441534
0.00010658228
0.00010898412
0.00011343325
0.00011995433
0.00012974406
0.00014392298
0.00016481712
0.00019449825
0.00023835505
0.00029834248
0.00038557528
0.00048740456
0.00064741155
0.00085121183
9.8200625e-21
1.9098634e-18
5.0869043e-17
5.1568229e-16
3.1183872e-15
1.3813915e-14
4.9870207e-14
1.5600626e-13
4.3933348e-13
1.1422129e-12
2.7898277e-12
6.4822286e-12
1.4461285e-11
3.1193357e-11
6.5406916e-11
1.3387625e-10
2.6835718e-10
5.2813475e-10
1.0224061e-09
1.9495745e-09
3.6649206e-09
6.7943438e-09
1.2419416e-08
2.2364825e-08
3.9614e-08
6.883941e-08
1.1691227e-07
1.9297284e-07
3.0712739e-07
4.6619154e-07
6.6499146e-07
8.7457011e-07
1.0360777e-06
1.0940647e-06
1.0587122e-06
9.6994315e-07
8.7536413e-07
8.4125745e-07
8.992117e-07
1.1644163e-06
1.6805613e-06
2.9530961e-06
6.1430473e-06
1.2753787e-05
2.5585542e-05
4.7393694e-05
7.4993064e-05
0.00010660884
0.00010461713
0.00010280395
0.00010433756
0.00010603884
0.00010947497
0.0001145549
0.00012185426
0.00013262766
0.0001476753
0.00016919594
0.00019892354
0.00024144404
0.0002968482
0.00037690535
0.00046767641
0.000624008
0.00083164247
4.4820973e-21
8.7170322e-19
2.321754e-17
2.3536158e-16
1.4232017e-15
6.304141e-15
2.2756699e-14
7.117885e-14
2.0041042e-13
5.2090557e-13
1.2718466e-12
2.9537546e-12
6.5853883e-12
1.4192948e-11
2.9727326e-11
6.0758882e-11
1.2156348e-10
2.3865627e-10
4.605465e-10
8.7458988e-10
1.6353808e-09
3.0110307e-09
5.4551884e-09
9.7115563e-09
1.6948536e-08
2.8893747e-08
4.7874423e-08
7.6555971e-08
1.1704171e-07
1.6902608e-07
2.2732822e-07
2.8231873e-07
3.2816168e-07
3.6470771e-07
4.0144923e-07
4.3585677e-07
4.8920069e-07
6.4131298e-07
9.528974e-07
1.5498122e-06
2.7988858e-06
5.5235059e-06
1.117671e-05
2.2727573e-05
4.2615753e-05
6.776628e-05
9.668297e-05
0.00010271606
0.00010003639
0.00010129798
0.000102627
0.0001053824
0.00010942753
0.00011537104
0.0001235182
0.000134944
0.00015051055
0.0001725029
0.00020194092
0.00024352361
0.00029627233
0.00037115166
0.00045458381
0.00060777831
0.00081307306
1.8659609e-21
3.6290181e-19
9.6656852e-18
9.7981161e-17
5.9245674e-16
2.6241534e-15
9.4717972e-15
2.9622131e-14
8.3388255e-14
2.1668707e-13
5.2888291e-13
1.2277232e-12
2.735553e-12
5.891054e-12
1.2326214e-11
2.5159749e-11
5.025243e-11
9.844104e-11
1.8943733e-10
3.5847638e-10
6.6732527e-10
1.2218152e-09
2.198272e-09
3.8801792e-09
6.7022448e-09
1.1288995e-08
1.8457191e-08
2.9132427e-08
4.4144408e-08
6.4067185e-08
8.9056878e-08
1.1818775e-07
1.5285104e-07
2.0057617e-07
2.6588733e-07
3.5966309e-07
5.4638749e-07
8.7552014e-07
1.4500673e-06
2.5708971e-06
4.8993704e-06
9.8624724e-06
2.0479233e-05
3.8287219e-05
6.0999262e-05
8.7441535e-05
9.941159e-05
9.6256611e-05
9.7567685e-05
9.8745044e-05
0.00010096502
0.00010426771
0.00010921474
0.00011582989
0.00012455434
0.00013678076
0.00015302249
0.00017543072
0.00020485875
0.00024573864
0.00029561757
0.00036652902
0.00044433224
0.00059690594
0.00079730058
8.9294629e-22
1.7366482e-19
4.6254653e-18
4.6888511e-17
2.8352004e-16
1.2558063e-15
4.5328977e-15
1.4176688e-14
3.991028e-14
1.0371538e-13
2.5317013e-13
5.8777877e-13
1.309919e-12
2.8217235e-12
5.906432e-12
1.2062852e-11
2.4113189e-11
4.7290986e-11
9.1156411e-11
1.7290537e-10
3.2296165e-10
5.9417615e-10
1.0764605e-09
1.9190931e-09
3.3629182e-09
5.7837541e-09
9.7464735e-09
1.6069934e-08
2.5909538e-08
4.0826284e-08
6.2806198e-08
9.4620042e-08
1.4101248e-07
2.116825e-07
3.2045946e-07
5.0781852e-07
8.1328485e-07
1.3351889e-06
2.3357565e-06
4.4018246e-06
8.8613125e-06
1.842768e-05
3.4256803e-05
5.4921003e-05
7.9381689e-05
9.5258027e-05
9.2215582e-05
9.3312473e-05
9.4264085e-05
9.6107322e-05
9.8842627e-05
0.00010306632
0.00010861233
0.00011582565
0.00012533597
0.00013815145
0.00015482031
0.00017767578
0.00020685298
0.00024686049
0.00029503464
0.00036376871
0.0004387527
0.00059032907
0.00078303171
7.4371287e-22
1.4464159e-19
3.852509e-18
3.9054636e-17
2.3616992e-16
1.0462137e-15
3.7771067e-15
1.1816282e-14
3.3278338e-14
8.6527327e-14
2.1136697e-13
4.912005e-13
1.0960924e-12
2.3651234e-12
4.9617315e-12
1.0163128e-11