/*--------------------------------*- C++ -*----------------------------------*\
  =========                 |
  \\      /  F ield         | OpenFOAM: The Open Source CFD Toolbox
   \\    /   O peration     | Website:  https://openfoam.org
    \\  /    A nd           | Version:  13
     \\/     M anipulation  |
\*---------------------------------------------------------------------------*/
FoamFile
{
    format      ascii;
    class       volScalarField;
    location    "37.502511";
    object      pPrime2Mean;
}
// * * * * * * * * * * * * * * * * * * * * * * * * * * * * * * * * * * * * * //

dimensions      [0 4 -4 0 0 0 0];

internalField   nonuniform List<scalar> 
17140
(
8271.4364
8271.4366
8271.4366
8271.4364
8271.436
8271.4353
8271.4342
8271.4327
8271.4308
8271.4281
8271.4247
8271.4203
8271.4146
8271.4074
8271.3981
8271.3863
8271.3713
8271.3521
8271.3277
8271.2965
8271.2566
8271.2054
8271.1399
8271.0557
8270.9478
8270.8096
8270.6328
8270.4073
8270.1208
8269.7582
8269.3008
8268.726
8268.0059
8267.1067
8265.9877
8264.6
8262.886
8260.778
8258.1983
8255.0575
8251.2541
8246.6732
8241.1853
8234.6452
8226.891
8217.743
8207.0037
8194.4562
8179.8637
8162.9685
8143.4916
8121.1305
8095.5587
8066.424
8033.3463
7995.9167
7953.6916
7906.1943
7852.9021
7793.262
7726.6533
7652.4378
7569.8637
7478.2079
7376.5884
8271.643
8271.6431
8271.6431
8271.6429
8271.6425
8271.6418
8271.6407
8271.6392
8271.6372
8271.6345
8271.6311
8271.6266
8271.6208
8271.6134
8271.604
8271.592
8271.5767
8271.5572
8271.5324
8271.5007
8271.4603
8271.4085
8271.3423
8271.2575
8271.1489
8271.0102
8270.833
8270.6074
8270.3211
8269.959
8269.5024
8268.9285
8268.2095
8267.3116
8266.1939
8264.8076
8263.0949
8260.9885
8258.4106
8255.2719
8251.4709
8246.8928
8241.4083
8234.872
8227.1222
8217.9792
8207.2454
8194.704
8180.1182
8163.2308
8143.7626
8121.4116
8095.8513
8066.7297
8033.6669
7996.2543
7954.0483
7906.5724
7853.3043
7793.6915
7727.1135
7652.9333
7570.3992
7478.7884
7377.2123
8272.1543
8272.1544
8272.1544
8272.1542
8272.1537
8272.1529
8272.1518
8272.1502
8272.1481
8272.1452
8272.1416
8272.1368
8272.1307
8272.123
8272.1131
8272.1006
8272.0847
8272.0645
8272.0388
8272.0062
8271.9646
8271.9117
8271.8443
8271.7584
8271.6488
8271.5093
8271.3317
8271.1061
8270.8204
8270.4593
8270.0043
8269.4324
8268.7157
8267.8202
8266.705
8265.3213
8263.6116
8261.5085
8258.9344
8255.8003
8252.0049
8247.4335
8241.9568
8235.4299
8227.6908
8218.56
8207.8398
8195.3134
8180.7443
8163.8757
8144.4292
8122.1031
8096.5713
8067.4822
8034.4565
7997.0859
7954.9273
7907.5049
7854.2967
7794.7509
7728.2481
7654.1522
7571.7126
7480.208
7378.7368
8272.9815
8272.9817
8272.9816
8272.9814
8272.9808
8272.9799
8272.9787
8272.9769
8272.9746
8272.9715
8272.9676
8272.9625
8272.956
8272.9477
8272.9373
8272.924
8272.9073
8272.8862
8272.8595
8272.8257
8272.783
8272.7289
8272.6603
8272.5733
8272.4629
8272.3229
8272.1453
8271.9203
8271.6357
8271.2763
8270.8235
8270.2542
8269.5404
8268.648
8267.5362
8266.1562
8264.4508
8262.3528
8259.7849
8256.6582
8252.8717
8248.3109
8242.8469
8236.3348
8228.6129
8219.5017
8208.8032
8196.3009
8181.7589
8164.9211
8145.5099
8123.2245
8097.7392
8068.7034
8035.7384
7998.4366
7956.3557
7909.0205
7855.9101
7796.4734
7730.0925
7656.1325
7573.8446
7482.5109
7381.2092
8274.1364
8274.1365
8274.1364
8274.1361
8274.1355
8274.1345
8274.1331
8274.1312
8274.1287
8274.1254
8274.1212
8274.1158
8274.1089
8274.1002
8274.0893
8274.0754
8274.058
8274.0361
8274.0086
8273.9739
8273.9303
8273.8752
8273.8058
8273.7182
8273.6075
8273.4675
8273.2904
8273.0665
8272.7834
8272.4261
8271.9757
8271.4092
8270.6986
8269.8098
8268.7021
8267.3269
8265.6272
8263.5362
8260.9767
8257.8603
8254.086
8249.5401
8244.0937
8237.6023
8229.9041
8220.8197
8210.1512
8197.6825
8183.1784
8166.384
8147.0228
8124.7948
8099.3754
8070.4149
8037.5356
8000.3308
7958.3593
7911.147
7858.174
7798.8906
7732.6809
7658.9113
7576.8358
7485.7414
7384.6782
8275.6307
8275.6308
8275.6306
8275.6303
8275.6296
8275.6286
8275.6271
8275.6251
8275.6225
8275.6191
8275.6147
8275.6091
8275.602
8275.593
8275.5818
8275.5676
8275.5499
8275.5276
8275.4997
8275.4647
8275.4207
8275.3655
8275.296
8275.2085
8275.0981
8274.9589
8274.7829
8274.5605
8274.2794
8273.9243
8273.4765
8272.9129
8272.2056
8271.3208
8270.2178
8268.8484
8267.1559
8265.0737
8262.5251
8259.4217
8255.6634
8251.1366
8245.7129
8239.248
8231.5803
8222.5301
8211.9001
8199.4749
8185.0203
8168.2827
8148.9867
8126.834
8101.5009
8072.639
8039.8717
8002.7938
7960.9651
7913.913
7861.1191
7802.0355
7736.0486
7662.5263
7580.7274
7489.9447
7389.1938
8277.4802
8277.4803
8277.4801
8277.4797
8277.479
8277.4779
8277.4764
8277.4744
8277.4717
8277.4683
8277.4638
8277.4582
8277.4511
8277.4421
8277.4309
8277.4168
8277.3991
8277.3769
8277.3492
8277.3144
8277.2708
8277.2161
8277.1473
8277.0606
8276.9514
8276.8135
8276.6392
8276.4186
8276.1396
8275.7869
8275.3417
8274.7811
8274.0773
8273.1966
8272.0989
8270.7364
8269.0524
8266.9809
8264.4454
8261.3582
8257.6195
8253.1163
8247.7205
8241.288
8233.6573
8224.6491
8214.0666
8201.6954
8187.3025
8170.6358
8151.4216
8129.3628
8104.1376
8075.3986
8042.7709
8005.851
7964.2001
7917.3472
7864.7763
7805.9411
7740.231
7667.0163
7585.5615
7495.1672
7394.8083
8279.7031
8279.7031
8279.7029
8279.7025
8279.7017
8279.7006
8279.6992
8279.6971
8279.6945
8279.6911
8279.6868
8279.6813
8279.6744
8279.6656
8279.6546
8279.6409
8279.6236
8279.602
8279.5749
8279.541
8279.4984
8279.4448
8279.3773
8279.2922
8279.1846
8279.0485
8278.8761
8278.6577
8278.3809
8278.0305
8277.5879
8277.0302
8276.3299
8275.4538
8274.362
8273.0071
8271.333
8269.2739
8266.7539
8263.6859
8259.9705
8255.4952
8250.1325
8243.7384
8236.1515
8227.1933
8216.6678
8204.3617
8190.0436
8173.4629
8154.3476
8132.4026
8107.3077
8078.7174
8046.2584
8009.5289
7968.0922
7921.4796
7869.1773
7810.6416
7745.2652
7672.4212
7591.3819
7501.4568
7401.5735
8282.3204
8282.3204
8282.3202
8282.3197
8282.319
8282.3179
8282.3165
8282.3145
8282.312
8282.3087
8282.3046
8282.2993
8282.2926
8282.2843
8282.2737
8282.2605
8282.244
8282.2232
8282.1971
8282.1643
8282.123
8282.0709
8282.0051
8281.9217
8281.816
8281.6819
8281.5115
8281.2951
8281.0204
8280.6722
8280.232
8279.6772
8278.9806
8278.1094
8277.0241
8275.6777
8274.0146
8271.9697
8269.4674
8266.4213
8262.7328
8258.2898
8252.9652
8246.6153
8239.0793
8230.1793
8219.7207
8207.4917
8193.2622
8176.7833
8157.7853
8135.9749
8111.0342
8082.6194
8050.3594
8013.8545
7972.6703
7926.3407
7874.3549
7816.1716
7751.1879
7678.7814
7598.2325
7508.862
7409.5442
8285.3551
8285.355
8285.3548
8285.3543
8285.3536
8285.3525
8285.3511
8285.3492
8285.3468
8285.3437
8285.3397
8285.3346
8285.3283
8285.3203
8285.3102
8285.2976
8285.2817
8285.2617
8285.2366
8285.205
8285.1649
8285.1143
8285.05
8284.9683
8284.8643
8284.7318
8284.5631
8284.3484
8284.0755
8283.7293
8283.2914
8282.7395
8282.0468
8281.1807
8280.1024
8278.7654
8277.1145
8275.0853
8272.6029
8269.5816
8265.9235
8261.5169
8256.2352
8249.9353
8242.4571
8233.624
8223.2428
8211.1032
8196.9768
8180.6166
8161.755
8140.1013
8115.3397
8087.1288
8055.0996
8018.8549
7977.9631
7931.9608
7880.3409
7822.5659
7758.0383
7686.1397
7606.1611
7517.4348
7418.7749
8288.8272
8288.8271
8288.8268
8288.8264
8288.8256
8288.8246
8288.8232
8288.8214
8288.819
8288.816
8288.8122
8288.8073
8288.8012
8288.7935
8288.7838
8288.7716
8288.7563
8288.7371
8288.7127
8288.6819
8288.6429
8288.5933
8288.5302
8288.4497
8288.3469
8288.2157
8288.0482
8287.8347
8287.5631
8287.2186
8286.7829
8286.234
8285.5454
8284.685
8283.6144
8282.2876
8280.6502
8278.6383
8276.1779
8273.1841
8269.5596
8265.1933
8259.9593
8253.7151
8246.3018
8237.5444
8227.2515
8215.2142
8201.2061
8184.9822
8166.2774
8144.8037
8120.2476
8092.2702
8060.505
8024.5577
7984.0001
7938.372
7887.1707
7829.8631
7765.8576
7694.5413
7615.2148
7527.2252
7429.3209
8292.7552
8292.7551
8292.7548
8292.7543
8292.7536
8292.7526
8292.7512
8292.7494
8292.747
8292.744
8292.7402
8292.7355
8292.7294
8292.7219
8292.7124
8292.7004
8292.6854
8292.6664
8292.6424
8292.6121
8292.5735
8292.5244
8292.4618
8292.3818
8292.2796
8292.149
8291.9821
8291.7695
8291.499
8291.1559
8290.7225
8290.1769
8289.493
8288.6389
8287.5768
8286.2613
8284.6386
8282.6458
8280.2096
8277.246
8273.6582
8269.336
8264.1542
8257.9715
8250.6306
8241.9582
8231.7647
8219.8432
8205.9692
8189.9003
8171.3741
8150.1049
8125.7819
8098.0689
8066.6026
8030.9919
7990.8123
7945.6076
7894.8798
7838.1012
7774.6868
7704.029
7625.4417
7538.2859
7441.2377
8297.1523
8297.1521
8297.1518
8297.1513
8297.1506
8297.1495
8297.1481
8297.1462
8297.1439
8297.1408
8297.137
8297.1322
8297.1262
8297.1186
8297.1091
8297.0971
8297.082
8297.063
8297.039
8297.0087
8296.9701
8296.921
8296.8583
8296.7784
8296.6762
8296.5457
8296.3792
8296.1671
8295.8977
8295.5564
8295.1256
8294.5838
8293.9052
8293.0584
8292.0059
8290.703
8289.0967
8287.1248
8284.7152
8281.7843
8278.2365
8273.9623
8268.8374
8262.7223
8255.4615
8246.8837
8236.8014
8225.0097
8211.2867
8195.3927
8177.0675
8156.0282
8131.9671
8104.5509
8073.4198
8038.1867
7998.4306
7953.7005
7903.5035
7847.3186
7784.5676
7714.6503
7636.8905
7550.67
7454.582
8302.0294
8302.0292
8302.0289
8302.0284
8302.0276
8302.0265
8302.025
8302.0231
8302.0207
8302.0176
8302.0137
8302.0088
8302.0026
8301.9949
8301.9852
8301.9731
8301.9578
8301.9386
8301.9143
8301.8836
8301.8447
8301.7952
8301.7322
8301.6519
8301.5496
8301.4191
8301.2529
8301.0416
8300.7735
8300.4345
8300.0071
8299.47
8298.7977
8297.9593
8296.9178
8295.629
8294.0409
8292.0922
8289.7116
8286.8165
8283.3119
8279.0896
8274.0267
8267.9857
8260.8133
8252.3405
8242.3817
8230.7349
8217.1807
8201.4817
8183.3809
8162.5981
8138.8286
8111.7426
8080.9847
8046.1713
8006.887
7962.6848
7913.0794
7857.5555
7795.5442
7726.449
7649.6108
7564.4302
7469.409
8307.398
8307.3979
8307.3975
8307.397
8307.3962
8307.395
8307.3935
8307.3916
8307.3891
8307.3859
8307.3819
8307.3768
8307.3705
8307.3626
8307.3527
8307.3403
8307.3247
8307.3051
8307.2805
8307.2494
8307.21
8307.1601
8307.0967
8307.0162
8306.9137
8306.7834
8306.6179
8306.4078
8306.1418
8305.8057
8305.3824
8304.8511
8304.1865
8303.3578
8302.3288
8301.056
8299.4883
8297.5652
8295.2163
8292.3599
8288.9022
8284.7361
8279.7408
8273.781
8266.706
8258.349
8248.5272
8237.041
8223.6737
8208.1912
8190.3388
8169.8396
8146.3923
8119.6716
8089.3261
8054.9771
8016.2136
7972.5958
7923.6449
7868.853
7807.6579
7739.4729
7663.6505
7579.6183
7485.774
8313.272
8313.2718
8313.2715
8313.2709
8313.2701
8313.2689
8313.2674
8313.2654
8313.2629
8313.2596
8313.2555
8313.2504
8313.244
8313.2359
8313.2258
8313.2132
8313.1974
8313.1776
8313.1526
8313.1212
8313.0815
8313.0314
8312.9678
8312.8873
8312.785
8312.6554
8312.4909
8312.2827
8312.0194
8311.6872
8311.2692
8310.7447
8310.0886
8309.2711
8308.2564
8307.0016
8305.4564
8303.5614
8301.247
8298.4327
8295.0257
8290.9208
8285.9994
8280.1287
8273.1605
8264.931
8255.26
8243.9506
8230.7893
8215.5449
8197.9658
8177.7782
8154.685
8128.3658
8098.4735
8064.6342
8026.4441
7983.4697
7935.2387
7881.2509
7820.9535
7753.7662
7679.0582
7596.2853
7503.7312
8319.6695
8319.6693
8319.669
8319.6684
8319.6676
8319.6664
8319.6649
8319.6629
8319.6603
8319.657
8319.6529
8319.6477
8319.6412
8319.6331
8319.6229
8319.6102
8319.5943
8319.5743
8319.5493
8319.5177
8319.478
8319.4279
8319.3645
8319.2843
8319.1828
8319.0542
8318.8915
8318.6857
8318.4258
8318.0981
8317.6861
8317.1692
8316.523
8315.718
8314.7189
8313.484
8311.9636
8310.0992
8307.8223
8305.0535
8301.7016
8297.6634
8292.8227
8287.0494
8280.1984
8272.1086
8262.6025
8251.4868
8238.5511
8223.5672
8206.2867
8186.4396
8163.7339
8137.8533
8108.4561
8075.175
8037.6128
7995.3417
7947.8989
7894.7904
7835.4726
7769.3745
7695.8812
7614.482
7523.334
8326.611
8326.6109
8326.6106
8326.61
8326.6092
8326.6081
8326.6065
8326.6045
8326.602
8326.5987
8326.5946
8326.5894
8326.5829
8326.5748
8326.5646
8326.5519
8326.536
8326.5161
8326.4911
8326.4597
8326.4202
8326.3704
8326.3075
8326.2281
8326.1277
8326.0007
8325.8401
8325.6372
8325.3811
8325.0585
8324.653
8324.1445
8323.5091
8322.7177
8321.7359
8320.5226
8319.0289
8317.1977
8314.9612
8312.2416
8308.9495
8304.984
8300.2315
8294.5648
8287.8415
8279.9037
8270.5774
8259.6726
8246.9824
8232.2818
8215.3262
8195.85
8173.5655
8148.162
8119.3044
8086.6318
8049.7524
8008.2487
7961.6633
7909.5108
7851.2575
7786.3413
7714.1664
7634.2586
7544.635
8334.1169
8334.1168
8334.1165
8334.116
8334.1152
8334.1141
8334.1126
8334.1106
8334.1081
8334.1049
8334.1008
8334.0957
8334.0893
8334.0813
8334.0713
8334.0587
8334.043
8334.0233
8333.9986
8333.9676
8333.9286
8333.8794
8333.8175
8333.7392
8333.6403
8333.5153
8333.3573
8333.1577
8332.9059
8332.5888
8332.1903
8331.6909
8331.0669
8330.2902
8329.3269
8328.1368
8326.6721
8324.8762
8322.6832
8320.0167
8316.7895
8312.9032
8308.2467
8302.6959
8296.1113
8288.3384
8279.207
8268.5308
8256.1064
8241.7128
8225.1092
8206.0347
8184.2066
8159.321
8131.0488
8099.035
8062.898
8022.2259
7976.5692
7925.4516
7868.3484
7804.71
7733.96
7655.664
7567.6856
8342.2051
8342.205
8342.2047
8342.2042
8342.2034
8342.2024
8342.2009
8342.1991
8342.1966
8342.1935
8342.1896
8342.1846
8342.1783
8342.1705
8342.1607
8342.1484
8342.133
8342.1137
8342.0895
8342.0592
8342.0209
8341.9728
8341.9121
8341.8354
8341.7385
8341.6159
8341.4611
8341.2654
8341.0186
8340.7077
8340.317
8339.8274
8339.2159
8338.4549
8337.5114
8336.3461
8334.912
8333.154
8331.0075
8328.3983
8325.2415
8321.4411
8316.8889
8311.4636
8305.029
8297.4342
8288.5133
8278.0837
8265.9463
8251.8838
8235.6601
8217.019
8195.6842
8171.3581
8143.7174
8112.4171
8077.0826
8037.308
7992.6534
7942.6498
7886.7856
7824.5232
7755.3072
7678.7461
7592.5354
8350.8889
8350.8889
8350.8886
8350.8882
8350.8875
8350.8865
8350.8851
8350.8833
8350.881
8350.878
8350.8742
8350.8694
8350.8634
8350.8559
8350.8464
8350.8346
8350.8197
8350.8011
8350.7777
8350.7482
8350.7112
8350.6645
8350.6055
8350.531
8350.4367
8350.3174
8350.1665
8349.9758
8349.7349
8349.4314
8349.0497
8348.5714
8347.9739
8347.2301
8346.308
8345.169
8343.7676
8342.0499
8339.9534
8337.4059
8334.325
8330.6176
8326.1781
8320.8882
8314.6152
8307.2124
8298.5179
8288.3537
8276.5247
8262.8181
8247.0024
8228.8277
8208.0242
8184.2994
8157.3402
8126.8099
8092.3381
8053.5291
8009.9498
7961.1429
7906.6087
7845.8227
7778.2517
7703.5512
7619.2319
8360.1805
8360.1804
8360.1802
8360.1798
8360.1791
8360.1782
8360.1769
8360.1753
8360.1731
8360.1703
8360.1667
8360.1622
8360.1566
8360.1494
8360.1404
8360.1292
8360.1151
8360.0973
8360.075
8360.0468
8360.0114
8359.9666
8359.9099
8359.8382
8359.7473
8359.6322
8359.4863
8359.3017
8359.0682
8358.7737
8358.403
8357.938
8357.3565
8356.6323
8355.7337
8354.6235
8353.2571
8351.5827
8349.5396
8347.0584
8344.0593
8340.4519
8336.1337
8330.9893
8324.8902
8317.6936
8309.2423
8299.3624
8287.8638
8274.538
8259.1596
8241.4853
8221.2504
8198.1725
8171.9475
8142.2419
8108.6961
8070.9207
8028.4932
7980.9672
7927.8561
7868.649
7802.8361
7730.124
7647.8203
8370.0913
8370.0912
8370.0911
8370.0907
8370.0901
8370.0893
8370.0881
8370.0866
8370.0845
8370.082
8370.0787
8370.0745
8370.0693
8370.0626
8370.0543
8370.0438
8370.0306
8370.014
8369.9931
8369.9666
8369.9332
8369.8908
8369.8371
8369.7689
8369.6823
8369.5722
8369.4324
8369.2552
8369.0307
8368.747
8368.3893
8367.9397
8367.3769
8366.675
8365.8031
8364.7247
8363.3968
8361.7693
8359.784
8357.3741
8354.4629
8350.9628
8346.7745
8341.7862
8335.8735
8328.898
8320.7067
8311.1308
8299.9845
8287.0649
8272.1539
8255.0128
8235.3877
8213.0046
8187.5644
8158.7418
8126.1856
8089.5143
8048.3166
8002.1582
7950.5655
7893.0415
7829.1014
7758.5075
7678.3431
8380.6378
8380.6378
8380.6376
8380.6373
8380.6368
8380.636
8380.635
8380.6336
8380.6317
8380.6294
8380.6264
8380.6226
8380.6178
8380.6117
8380.6041
8380.5944
8380.5822
8380.5668
8380.5474
8380.5228
8380.4915
8380.4518
8380.4013
8380.337
8380.255
8380.1506
8380.0177
8379.8488
8379.6343
8379.3628
8379.0199
8378.5883
8378.0468
8377.3702
8376.5282
8375.4855
8374.2003
8372.6245
8370.7024
8368.3698
8365.5531
8362.1679
8358.1185
8353.2973
8347.5839
8340.8445
8332.9308
8323.6778
8312.905
8300.4181
8286.0033
8269.4329
8250.4614
8228.8201
8204.2165
8176.3369
8144.8347
8109.3402
8069.4527
8024.7503
7974.7731
7919.038
7857.0867
7788.7431
7710.8406
8391.8382
8391.8382
8391.8381
8391.8378
8391.8374
8391.8367
8391.8357
8391.8345
8391.8328
8391.8307
8391.828
8391.8245
8391.8201
8391.8146
8391.8075
8391.7987
8391.7874
8391.7732
8391.7552
8391.7323
8391.7031
8391.666
8391.6186
8391.5581
8391.4808
8391.3821
8391.2562
8391.0958
8390.8919
8390.6333
8390.3063
8389.8939
8389.3756
8388.7269
8387.9184
8386.9155
8385.6782
8384.16
8382.3074
8380.0589
8377.344
8374.0821
8370.1814
8365.5387
8360.0381
8353.5498
8345.9293
8337.0169
8326.642
8314.6134
8300.7285
8284.7683
8266.4926
8245.6404
8221.9295
8195.051
8164.6703
8130.4273
8091.9326
8048.7769
8000.5141
7946.6751
7886.8294
7820.8705
7745.3511
8403.7122
8403.7122
8403.7121
8403.7119
8403.7115
8403.7109
8403.71
8403.7089
8403.7073
8403.7054
8403.7028
8403.6996
8403.6955
8403.6902
8403.6836
8403.6753
8403.6647
8403.6513
8403.6343
8403.6126
8403.585
8403.5498
8403.5049
8403.4475
8403.3742
8403.2805
8403.161
8403.0087
8402.8151
8402.5695
8402.2586
8401.8663
8401.3728
8400.7543
8399.9823
8399.0235
8397.839
8396.3842
8394.6078
8392.4508
8389.8461
8386.7166
8382.9752
8378.5229
8373.2474
8367.0234
8359.7122
8351.1635
8341.2091
8329.6691
8316.3502
8301.037
8283.5
8263.487
8240.7225
8214.9079
8185.7179
8152.8035
8115.7863
8074.2698
8027.8222
7975.988
7918.365
7854.9282
7781.9116
8416.2743
8416.2743
8416.2743
8416.274
8416.2737
8416.2731
8416.2723
8416.2711
8416.2697
8416.2677
8416.2653
8416.2621
8416.2581
8416.253
8416.2465
8416.2383
8416.228
8416.215
8416.1984
8416.1774
8416.1507
8416.1167
8416.0734
8416.0182
8415.9479
8415.8583
8415.7442
8415.5992
8415.4152
8415.1821
8414.8874
8414.5155
8414.0476
8413.4608
8412.7278
8411.8164
8410.6894
8409.3037
8407.6101
8405.5523
8403.0664
8400.079
8396.5069
8392.2554
8387.2174
8381.2736
8374.2925
8366.1279
8356.6206
8345.6019
8332.8809
8318.2547
8301.5007
8282.3769
8260.6162
8235.9293
8208.0015
8176.4949
8141.0425
8101.2599
8056.7298
8007.0105
7951.728
7890.9523
7820.5597
8429.5309
8429.531
8429.5309
8429.5307
8429.5303
8429.5297
8429.5289
8429.5277
8429.5262
8429.5243
8429.5218
8429.5186
8429.5145
8429.5093
8429.5028
8429.4945
8429.4841
8429.471
8429.4544
8429.4335
8429.407
8429.3735
8429.331
8429.2772
8429.2091
8429.1227
8429.0133
8428.875
8428.7
8428.4791
8428.2004
8427.8494
8427.408
8426.8545
8426.1628
8425.3022
8424.2367
8422.925
8421.3201
8419.3683
8417.0086
8414.1716
8410.7788
8406.7405
8401.9548
8396.3092
8389.6774
8381.9198
8372.8893
8362.4203
8350.3327
8336.4336
8320.509
8302.326
8281.6277
8258.1349
8231.5433
8201.5262
8167.7282
8129.7769
8087.2687
8039.7755
7986.9521
7928.977
7861.3352
8443.4806
8443.4806
8443.4805
8443.4803
8443.4799
8443.4793
8443.4784
8443.4772
8443.4756
8443.4736
8443.471
8443.4676
8443.4634
8443.4581
8443.4513
8443.4429
8443.4323
8443.4189
8443.4022
8443.3811
8443.3547
8443.3214
8443.2796
8443.227
8443.1608
8443.0775
8442.9727
8442.8408
8442.6751
8442.4666
8442.2044
8441.8748
8441.4609
8440.9422
8440.2936
8439.486
8438.485
8437.2513
8435.74
8433.9001
8431.674
8428.9967
8425.7943
8421.9819
8417.4644
8412.1347
8405.8717
8398.5475
8390.0204
8380.1325
8368.7159
8355.5849
8340.5364
8323.3478
8303.7726
8281.5422
8256.3632
8227.9203
8195.8691
8159.8493
8119.4704
8074.316
8024.0713
7969.0368
7904.2815
8458.1146
8458.1146
8458.1145
8458.1143
8458.1138
8458.1132
8458.1123
8458.1111
8458.1094
8458.1073
8458.1047
8458.1013
8458.0969
8458.0915
8458.0847
8458.0762
8458.0655
8458.0521
8458.0354
8458.0145
8457.9885
8457.9559
8457.9151
8457.8642
8457.8006
8457.7211
8457.6216
8457.4973
8457.3416
8457.1465
8456.9019
8456.595
8456.2098
8455.7269
8455.1231
8454.3704
8453.4365
8452.284
8450.8706
8449.1485
8447.0636
8444.5552
8441.5541
8437.9815
8433.7481
8428.7509
8422.8798
8416.0139
8408.0174
8398.7446
8388.0356
8375.7156
8361.592
8345.4528
8327.0633
8306.1662
8282.4792
8255.698
8225.4896
8191.5053
8153.3661
8110.666
8063.1235
8011.1755
7949.443
8473.4234
8473.4234
8473.4232
8473.423
8473.4225
8473.4219
8473.421
8473.4198
8473.4182
8473.4161
8473.4135
8473.4102
8473.406
8473.4007
8473.3941
8473.3858
8473.3755
8473.3626
8473.3466
8473.3266
8473.3018
8473.2708
8473.2323
8473.1843
8473.1247
8473.0505
8472.958
8472.8427
8472.6988
8472.5188
8472.2932
8472.0103
8471.655
8471.2093
8470.6514
8469.9551
8469.0904
8468.0223
8466.7113
8465.1127
8463.1766
8460.8464
8458.0583
8454.7394
8450.8038
8446.1584
8440.7016
8434.318
8426.8823
8418.2578
8408.2952
8396.8304
8383.6817
8368.6488
8351.5096
8332.0191
8309.9063
8284.8784
8256.6132
8224.7728
8188.9883
8148.8613
8104.1502
8055.4512
7996.8675
8489.4002
8489.4002
8489.4001
8489.3998
8489.3994
8489.3988
8489.398
8489.3969
8489.3954
8489.3935
8489.3911
8489.3881
8489.3842
8489.3794
8489.3734
8489.3658
8489.3564
8489.3447
8489.3301
8489.3119
8489.2893
8489.2612
8489.2262
8489.1828
8489.1288
8489.0617
8488.9781
8488.8739
8488.7436
8488.5804
8488.3754
8488.1177
8487.7935
8487.3861
8486.8753
8486.2373
8485.4442
8484.4637
8483.2594
8481.7903
8480.0104
8477.8681
8475.3048
8472.2507
8468.6288
8464.3552
8459.3334
8453.4577
8446.6125
8438.6708
8429.4942
8418.9298
8406.8076
8392.9399
8377.1177
8359.1097
8338.6569
8315.478
8289.2618
8259.6798
8226.3721
8188.9429
8147.1849
8101.8665
8046.6831
8506.0436
8506.0436
8506.0435
8506.0433
8506.0429
8506.0424
8506.0417
8506.0407
8506.0395
8506.0379
8506.0358
8506.0332
8506.03
8506.0258
8506.0207
8506.0142
8506.0062
8505.9961
8505.9836
8505.968
8505.9485
8505.9242
8505.894
8505.8563
8505.8094
8505.7507
8505.6774
8505.5856
8505.4702
8505.3249
8505.1416
8504.9102
8504.6181
8504.2503
8503.7882
8503.2105
8502.4916
8501.6023
8500.5095
8499.1761
8497.5604
8495.6158
8493.2865
8490.5103
8487.219
8483.3345
8478.7693
8473.4275
8467.2028
8459.9789
8451.6285
8442.0106
8430.9681
8418.3262
8403.8903
8387.4433
8368.74
8347.511
8323.4558
8296.2553
8265.5578
8230.9576
8192.2479
8150.5401
8098.9307
8523.3556
8523.3556
8523.3555
8523.3554
8523.3551
8523.3546
8523.3541
8523.3533
8523.3523
8523.351
8523.3493
8523.3472
8523.3445
8523.3411
8523.3369
8523.3316
8523.325
8523.3168
8523.3065
8523.2936
8523.2775
8523.2573
8523.2321
8523.2005
8523.1608
8523.1109
8523.0482
8522.9689
8522.8686
8522.7416
8522.5804
8522.376
8522.1171
8521.7902
8521.379
8520.8639
8520.2225
8519.4285
8518.4526
8517.2613
8515.8181
8514.079
8511.9943
8509.5101
8506.5641
8503.0867
8499.0003
8494.218
8488.644
8482.1731
8474.6896
8466.0652
8456.1565
8444.8032
8431.8251
8417.0208
8400.1605
8380.9882
8359.2144
8334.5294
8306.5849
8274.9288
8239.4105
8201.5311
8153.6602
8541.3352
8541.3352
8541.3352
8541.335
8541.3348
8541.3344
8541.3339
8541.3333
8541.3324
8541.3314
8541.33
8541.3282
8541.326
8541.3232
8541.3198
8541.3154
8541.31
8541.3032
8541.2947
8541.2841
8541.2708
8541.2541
8541.2331
8541.2067
8541.1735
8541.1315
8541.0783
8541.0109
8540.9251
8540.8159
8540.6769
8540.5
8540.2755
8539.9913
8539.633
8539.1836
8538.6231
8537.9291
8537.0755
8536.0336
8534.7698
8533.2444
8531.416
8529.2363
8526.651
8523.5993
8520.0131
8515.8158
8510.9225
8505.2397
8498.6639
8491.0805
8482.361
8472.3606
8460.9146
8447.8381
8432.9189
8415.9168
8396.5546
8374.5301
8349.4809
8320.9623
8288.7322
8254.891
8211.0452
8559.9738
8559.9737
8559.9736
8559.9735
8559.9733
8559.9729
8559.9725
8559.9719
8559.9711
8559.9701
8559.9688
8559.9672
8559.9652
8559.9626
8559.9595
8559.9556
8559.9507
8559.9446
8559.9371
8559.9277
8559.9161
8559.9016
8559.8835
8559.8609
8559.8325
8559.7969
8559.7519
8559.695
8559.6228
8559.531
8559.4141
8559.2653
8559.0762
8558.8362
8558.533
8558.1519
8557.6763
8557.0867
8556.3613
8555.4747
8554.3965
8553.095
8551.5336
8549.671
8547.4616
8544.8538
8541.7892
8538.202
8534.0191
8529.1593
8523.5323
8517.0381
8509.564
8500.982
8491.1448
8479.8851
8467.0103
8452.2983
8435.4873
8416.2726
8394.3229
8369.1187
8340.3266
8310.7168
8271.2614
8579.2491
8579.249
8579.2489
8579.2487
8579.2484
8579.248
8579.2475
8579.2469
8579.246
8579.2449
8579.2436
8579.2419
8579.2398
8579.2371
8579.2339
8579.2299
8579.2251
8579.2191
8579.2117
8579.2027
8579.1917
8579.1783
8579.1618
8579.1417
8579.1169
8579.0863
8579.0484
8579.0012
8578.942
8578.8673
8578.7725
8578.652
8578.4987
8578.3038
8578.0572
8577.747
8577.3592
8576.8782
8576.2855
8575.5588
8574.6742
8573.6052
8572.3211
8570.789
8568.9713
8566.8257
8564.3039
8561.3518
8557.9087
8553.9065
8549.2696
8543.9133
8537.7416
8530.6444
8522.4938
8513.1428
8502.4194
8490.1215
8476.009
8459.7998
8441.1489
8419.5101
8394.4101
8369.2048
8334.4481
8599.1274
8599.1273
8599.1272
8599.1269
8599.1266
8599.1261
8599.1255
8599.1247
8599.1237
8599.1225
8599.121
8599.119
8599.1167
8599.1138
8599.1103
8599.106
8599.1008
8599.0945
8599.0869
8599.0778
8599.0669
8599.054
8599.0386
8599.0203
8598.9985
8598.9725
8598.9412
8598.9031
8598.8564
8598.7982
8598.7249
8598.6321
8598.5143
8598.3646
8598.1753
8597.9372
8597.6396
8597.2702
8596.8133
8596.2522
8595.5685
8594.7405
8593.7452
8592.5571
8591.1471
8589.4821
8587.5248
8585.2328
8582.5586
8579.4486
8575.843
8571.6736
8566.8614
8561.3153
8554.9293
8547.5774
8539.1143
8529.3679
8518.1234
8505.1162
8490.0217
8472.2723
8451.2949
8430.6687
8400.5971
8619.5631
8619.563
8619.5628
8619.5625
8619.5621
8619.5616
8619.5609
8619.56
8619.5589
8619.5576
8619.5559
8619.5539
8619.5514
8619.5484
8619.5448
8619.5404
8619.5351
8619.5289
8619.5214
8619.5126
8619.5023
8619.4903
8619.4764
8619.4604
8619.442
8619.4208
8619.3961
8619.3671
8619.3324
8619.29
8619.2376
8619.172
8619.0894
8618.9851
8618.8538
8618.6893
8618.484
8618.2279
8617.9106
8617.5205
8617.0438
8616.4658
8615.7704
8614.9396
8613.9528
8612.7866
8611.4148
8609.8076
8607.9312
8605.7476
8603.2133
8600.277
8596.8791
8592.95
8588.4071
8583.1513
8577.0642
8570.0047
8561.8019
8552.2335
8541.0031
8527.5566
8511.3158
8495.1827
8470.1448
8640.508
8640.5078
8640.5076
8640.5073
8640.5068
8640.5063
8640.5056
8640.5048
8640.5037
8640.5024
8640.5009
8640.499
8640.4966
8640.4939
8640.4906
8640.4867
8640.4821
8640.4766
8640.4703
8640.4629
8640.4543
8640.4446
8640.4335
8640.421
8640.4069
8640.3911
8640.3732
8640.3528
8640.3292
8640.3016
8640.269
8640.2303
8640.1833
8640.125
8640.0526
8639.9624
8639.8498
8639.7094
8639.5357
8639.321
8639.0583
8638.7392
8638.3546
8637.8942
8637.3458
8636.6959
8635.9302
8635.032
8633.9821
8632.7595
8631.3369
8629.6824
8627.756
8625.5104
8622.8896
8619.8228
8616.2275
8611.9984
8607.0098
8601.1051
8594.0547
8585.4223
8574.7189
8563.7618
8544.9308
8662.8654
8662.8652
8662.8649
8662.8645
8662.8641
8662.8635
8662.8629
8662.8621
8662.8612
8662.86
8662.8587
8662.8572
8662.8553
8662.8531
8662.8505
8662.8475
8662.8439
8662.8397
8662.8349
8662.8293
8662.823
8662.8159
8662.808
8662.7993
8662.7897
8662.7794
8662.7683
8662.7566
8662.7444
8662.7318
8662.7194
8662.7077
8662.6972
8662.6876
8662.6785
8662.6682
8662.6566
8662.6431
8662.6254
8662.6023
8662.5734
8662.5373
8662.4923
8662.436
8662.3648
8662.2766
8662.1699
8662.0419
8661.8894
8661.708
8661.4906
8661.2258
8660.8966
8660.4813
8659.9522
8659.2735
8658.3988
8657.2707
8655.8148
8653.9472
8651.5455
8648.3667
8644.4167
8640.818
8633.9599
8686.3892
8686.389
8686.3886
8686.3882
8686.3878
8686.3873
8686.3868
8686.3862
8686.3854
8686.3846
8686.3836
8686.3825
8686.3812
8686.3796
8686.3779
8686.3759
8686.3735
8686.3709
8686.3678
8686.3644
8686.3606
8686.3564
8686.3519
8686.3473
8686.3427
8686.3385
8686.3351
8686.3333
8686.3341
8686.3391
8686.3499
8686.3688
8686.3988
8686.4413
8686.4992
8686.5754
8686.6737
8686.796
8686.9448
8687.126
8687.3459
8687.6109
8687.9266
8688.2996
8688.7371
8689.2485
8689.8451
8690.5393
8691.3443
8692.2739
8693.3417
8694.5591
8695.9349
8697.4755
8699.1846
8701.0638
8703.1089
8705.3135
8707.6641
8710.1574
8712.788
8715.5266
8718.6306
8722.6366
8725.6757
8709.8754
8709.8751
8709.8748
8709.8744
8709.8741
8709.8737
8709.8734
8709.873
8709.8725
8709.8721
8709.8716
8709.8711
8709.8707
8709.8702
8709.8697
8709.8692
8709.8687
8709.8682
8709.8678
8709.8675
8709.8673
8709.8673
8709.8676
8709.8685
8709.8702
8709.8732
8709.8786
8709.8877
8709.9023
8709.925
8709.9594
8710.0097
8710.0793
8710.1737
8710.2977
8710.457
8710.6582
8710.9098
8711.2212
8711.6038
8712.0705
8712.6345
8713.3095
8714.1112
8715.0576
8716.1697
8717.4719
8718.9917
8720.7587
8722.8053
8725.1649
8727.873
8730.9653
8734.4774
8738.4454
8742.9082
8747.9051
8753.4822
8759.689
8766.598
8774.2934
8782.9009
8792.72
8804.0732
8816.7622
8733.2209
8733.2206
8733.2203
8733.22
8733.2198
8733.2196
8733.2194
8733.2193
8733.2192
8733.2192
8733.2194
8733.2197
8733.2201
8733.2207
8733.2216
8733.2228
8733.2244
8733.2264
8733.2288
8733.2319
8733.2356
8733.2401
8733.2456
8733.2524
8733.2609
8733.2719
8733.2868
8733.3074
8733.3367
8733.378
8733.4361
8733.5163
8733.6258
8733.7715
8733.9598
8734.2005
8734.5044
8734.8847
8735.3567
8735.9378
8736.6477
8737.507
8738.5376
8739.7648
8741.2172
8742.9278
8744.9339
8747.2778
8750.0057
8753.1679
8756.8186
8761.0169
8765.8258
8771.3109
8777.5413
8784.5928
8792.5482
8801.5043
8811.5711
8822.8891
8835.6211
8849.9984
8866.371
8885.1535
8906.9361
8756.3235
8756.3233
8756.323
8756.3228
8756.3227
8756.3226
8756.3227
8756.3229
8756.3232
8756.3237
8756.3245
8756.3256
8756.327
8756.3288
8756.3311
8756.334
8756.3375
8756.3419
8756.3472
8756.3536
8756.3611
8756.3701
8756.3807
8756.3934
8756.4088
8756.4282
8756.453
8756.4857
8756.5299
8756.5905
8756.6733
8756.7861
8756.937
8757.1339
8757.3878
8757.7109
8758.1179
8758.6267
8759.2581
8760.0356
8760.9856
8762.1362
8763.518
8765.1661
8767.1201
8769.4245
8772.1295
8775.2922
8778.975
8783.2467
8788.182
8793.8635
8800.3805
8807.8287
8816.3102
8825.9377
8836.8366
8849.1528
8863.0528
8878.7417
8896.4593
8916.5254
8939.3684
8965.5361
8995.8398
8779.0986
8779.0984
8779.0981
8779.098
8779.098
8779.0981
8779.0984
8779.0989
8779.0996
8779.1006
8779.1019
8779.1036
8779.1058
8779.1087
8779.1122
8779.1165
8779.1218
8779.1282
8779.1359
8779.1451
8779.1559
8779.1687
8779.1839
8779.2019
8779.2238
8779.2507
8779.285
8779.3297
8779.3893
8779.4698
8779.5787
8779.7246
8779.917
8780.1671
8780.4877
8780.8938
8781.4043
8782.0415
8782.8313
8783.8031