/*--------------------------------*- C++ -*----------------------------------*\
  =========                 |
  \\      /  F ield         | OpenFOAM: The Open Source CFD Toolbox
   \\    /   O peration     | Website:  https://openfoam.org
    \\  /    A nd           | Version:  13
     \\/     M anipulation  |
\*---------------------------------------------------------------------------*/
FoamFile
{
    format      ascii;
    class       volScalarField;
    location    "35.596902";
    object      p;
}
// * * * * * * * * * * * * * * * * * * * * * * * * * * * * * * * * * * * * * //

dimensions      [0 2 -2 0 0 0 0];

internalField   nonuniform List<scalar> 
17140
(
-0.28852781
-0.28853583
-0.28854533
-0.28855548
-0.28856661
-0.2885789
-0.28859243
-0.28860731
-0.28862362
-0.28864149
-0.28866101
-0.28868228
-0.2887054
-0.28873046
-0.28875753
-0.28878665
-0.28881787
-0.28885117
-0.28888654
-0.28892393
-0.28896327
-0.28900449
-0.28904756
-0.28909257
-0.28913983
-0.28919004
-0.2892446
-0.28930605
-0.28937876
-0.28946983
-0.28959015
-0.28975525
-0.28998477
-0.29029921
-0.29071327
-0.29122787
-0.29182541
-0.29247195
-0.29312503
-0.29374314
-0.294293
-0.29475389
-0.29511782
-0.29538521
-0.29557346
-0.29570978
-0.2958105
-0.29589474
-0.29597894
-0.29608582
-0.29619708
-0.29633262
-0.29633394
-0.29617549
-0.29521478
-0.29316617
-0.28836447
-0.28031386
-0.265398
-0.24638568
-0.22799747
-0.22934308
-0.23225169
-0.19535207
-0.10014851
-0.28809769
-0.2881058
-0.2881154
-0.28812566
-0.2881369
-0.28814932
-0.28816301
-0.28817804
-0.28819452
-0.28821257
-0.2882323
-0.28825381
-0.28827719
-0.28830254
-0.28832993
-0.28835941
-0.28839103
-0.28842478
-0.28846064
-0.28849858
-0.28853851
-0.28858037
-0.28862414
-0.28866989
-0.2887179
-0.28876885
-0.2888241
-0.28888613
-0.28895921
-0.28905035
-0.28917033
-0.28933458
-0.28956266
-0.28987503
-0.2902863
-0.29079708
-0.29138912
-0.29202749
-0.29266836
-0.29326853
-0.29379257
-0.29421712
-0.29453085
-0.29472971
-0.29482512
-0.29483704
-0.29477052
-0.29462906
-0.29440768
-0.29409873
-0.29364296
-0.29300433
-0.29195289
-0.29039
-0.2875792
-0.28329322
-0.27616032
-0.2667947
-0.25347562
-0.2400266
-0.23269903
-0.25059847
-0.2678965
-0.23218322
-0.11749695
-0.28773355
-0.28774164
-0.28775121
-0.28776149
-0.28777309
-0.28778522
-0.28779788
-0.28781308
-0.28783019
-0.28784822
-0.28786788
-0.28788936
-0.28791273
-0.28793807
-0.28796546
-0.28799497
-0.28802663
-0.28806045
-0.28809641
-0.28813446
-0.28817455
-0.28821661
-0.28826059
-0.28830657
-0.28835481
-0.28840594
-0.28846127
-0.28852318
-0.28859583
-0.28868603
-0.28880434
-0.28896595
-0.28919018
-0.2894973
-0.28990178
-0.29040408
-0.29098569
-0.29161103
-0.29223527
-0.29281365
-0.29330872
-0.29369448
-0.29395621
-0.29408543
-0.29408754
-0.29397483
-0.29374136
-0.29337522
-0.29285028
-0.2921293
-0.29111363
-0.2897146
-0.2876365
-0.28471835
-0.28013211
-0.27374297
-0.26444403
-0.25405039
-0.2422594
-0.23421123
-0.23696788
-0.27102858
-0.30271942
-0.26333319
-0.13125632
-0.28744286
-0.2874508
-0.28746055
-0.28747121
-0.28748221
-0.28749356
-0.28750573
-0.28751993
-0.28753704
-0.28755573
-0.28757527
-0.28759638
-0.28761941
-0.28764442
-0.28767147
-0.28770063
-0.28773193
-0.28776539
-0.287801
-0.28783872
-0.28787847
-0.2879202
-0.28796387
-0.28800953
-0.2880574
-0.2881081
-0.28816285
-0.28822391
-0.28829526
-0.28838347
-0.28849878
-0.28865594
-0.28887386
-0.28917246
-0.28956608
-0.29005521
-0.2906214
-0.29122887
-0.29183207
-0.292385
-0.29284827
-0.29319331
-0.29340198
-0.29346149
-0.2933714
-0.29313578
-0.29273815
-0.29215165
-0.29132946
-0.29020573
-0.28864427
-0.28650731
-0.28343946
-0.27922385
-0.27293529
-0.26448073
-0.25331877
-0.24206617
-0.23123402
-0.22823333
-0.24105893
-0.2880982
-0.32793521
-0.28512107
-0.13756969
-0.28723084
-0.28723858
-0.28724775
-0.28725755
-0.28726829
-0.28728015
-0.28729321
-0.28730755
-0.2873233
-0.28734056
-0.28735944
-0.28738005
-0.28740249
-0.28742686
-0.28745324
-0.28748169
-0.28751227
-0.28754497
-0.28757981
-0.28761674
-0.28765569
-0.28769661
-0.28773945
-0.28778424
-0.28783119
-0.28788086
-0.28793437
-0.28799386
-0.28806309
-0.28814831
-0.2882593
-0.28841027
-0.28861949
-0.28890642
-0.2892852
-0.28975653
-0.29030237
-0.29088716
-0.29146506
-0.29198905
-0.29241805
-0.29272099
-0.29287639
-0.29286725
-0.2926876
-0.29233285
-0.29177654
-0.29097752
-0.28986889
-0.28835731
-0.28627107
-0.28342743
-0.27941828
-0.27397974
-0.26608157
-0.25575058
-0.24315371
-0.23115126
-0.22037501
-0.22102712
-0.24391918
-0.30063439
-0.34787756
-0.29557219
-0.14156046
-0.2871018
-0.28710922
-0.287118
-0.28712737
-0.28713764
-0.28714899
-0.28716148
-0.28717522
-0.28719031
-0.28720687
-0.28722499
-0.28724478
-0.28726634
-0.28728977
-0.28731516
-0.28734256
-0.28737203
-0.28740359
-0.28743723
-0.28747292
-0.2875106
-0.28755021
-0.28759169
-0.28763508
-0.28768054
-0.28772857
-0.28778021
-0.28783743
-0.28790374
-0.287985
-0.28809045
-0.28823358
-0.28843189
-0.28870416
-0.2890643
-0.28951338
-0.29003411
-0.29059159
-0.29114012
-0.29163205
-0.29202477
-0.2922849
-0.29238766
-0.29231224
-0.29204689
-0.29157896
-0.29087226
-0.28987205
-0.28849218
-0.28661303
-0.28402948
-0.28051781
-0.27562254
-0.26903834
-0.25953854
-0.24798693
-0.23411545
-0.22117409
-0.21057142
-0.21414011
-0.24474326
-0.30832508
-0.35518439
-0.29512153
-0.14105987
-0.28705803
-0.28706507
-0.28707361
-0.28708244
-0.2870921
-0.28710279
-0.28711457
-0.28712753
-0.28714176
-0.28715739
-0.2871745
-0.2871932
-0.2872136
-0.28723579
-0.28725984
-0.28728584
-0.28731383
-0.28734384
-0.28737586
-0.28740987
-0.2874458
-0.28748361
-0.28752322
-0.28756466
-0.28760807
-0.28765388
-0.28770303
-0.28775731
-0.28781995
-0.28789637
-0.28799518
-0.28812901
-0.28831439
-0.2885693
-0.28890735
-0.28933008
-0.28982127
-0.29034714
-0.29086261
-0.29131972
-0.29167469
-0.29189201
-0.29194371
-0.29180552
-0.29146001
-0.29088712
-0.29004098
-0.28885441
-0.28722274
-0.28500176
-0.28195571
-0.27781882
-0.2721046
-0.26444659
-0.25358169
-0.24104144
-0.22605153
-0.21202433
-0.20169592
-0.20908942
-0.24419418
-0.31062936
-0.35140743
-0.28510817
-0.13335322
-0.28710044
-0.28710695
-0.28711482
-0.28712299
-0.28713194
-0.28714184
-0.28715275
-0.28716476
-0.28717797
-0.28719247
-0.28720837
-0.28722576
-0.28724475
-0.28726542
-0.28728787
-0.28731215
-0.28733832
-0.28736642
-0.28739643
-0.28742834
-0.2874621
-0.28749764
-0.28753491
-0.2875739
-0.28761473
-0.28765778
-0.28770385
-0.28775458
-0.28781287
-0.28788367
-0.28797488
-0.28809816
-0.28826894
-0.28850419
-0.28881715
-0.2892099
-0.28966757
-0.29015796
-0.29063705
-0.29105706
-0.29137331
-0.29154846
-0.29155165
-0.2913553
-0.29093719
-0.29026963
-0.28929782
-0.28794299
-0.28608287
-0.28355006
-0.28007764
-0.27536472
-0.26890397
-0.26022765
-0.24856946
-0.2347235
-0.21867622
-0.20420129
-0.19453346
-0.20478578
-0.24275519
-0.30719618
-0.33727059
-0.26622005
-0.12321629
-0.28722724
-0.28723314
-0.28724025
-0.28724766
-0.28725579
-0.28726479
-0.2872747
-0.28728563
-0.28729765
-0.28731086
-0.28732535
-0.28734123
-0.28735858
-0.28737751
-0.28739807
-0.28742036
-0.28744441
-0.28747026
-0.28749792
-0.28752736
-0.28755854
-0.28759141
-0.28762589
-0.28766198
-0.28769976
-0.28773954
-0.28778204
-0.28782867
-0.28788205
-0.28794659
-0.28802945
-0.28814122
-0.28829609
-0.2885099
-0.28879537
-0.28915514
-0.2895759
-0.29002745
-0.29046732
-0.29084837
-0.29112545
-0.29125974
-0.29121779
-0.29096923
-0.29048768
-0.28973758
-0.28865673
-0.287155
-0.28509339
-0.28228156
-0.27842332
-0.27317993
-0.2660206
-0.25644274
-0.24420995
-0.22941925
-0.21235486
-0.19724793
-0.18899478
-0.20027799
-0.23931822
-0.29852597
-0.31580938
-0.25386105
-0.10633859
-0.28743471
-0.28743993
-0.28744619
-0.28745278
-0.28746
-0.28746799
-0.28747681
-0.28748653
-0.28749724
-0.28750902
-0.28752196
-0.28753615
-0.28755169
-0.28756866
-0.28758713
-0.28760718
-0.28762885
-0.28765219
-0.28767719
-0.28770384
-0.28773211
-0.28776194
-0.28779326
-0.28782606
-0.28786038
-0.28789648
-0.28793497
-0.28797708
-0.28802509
-0.28808291
-0.28815688
-0.28825651
-0.28839463
-0.28858579
-0.28884208
-0.28916663
-0.28954785
-0.28995786
-0.29035625
-0.29069703
-0.29093508
-0.29103045
-0.29094762
-0.29065417
-0.29011942
-0.28930111
-0.28813037
-0.28650599
-0.28427283
-0.28121699
-0.27700968
-0.27127861
-0.26345168
-0.25317196
-0.24012028
-0.22440869
-0.20637286
-0.19059726
-0.1826166
-0.19515683
-0.23399427
-0.28226138
-0.28856585
-0.23298219
-0.098456965
-0.28771717
-0.28772168
-0.28772704
-0.28773274
-0.28773899
-0.28774591
-0.28775355
-0.28776198
-0.28777128
-0.28778153
-0.28779281
-0.28780519
-0.28781878
-0.28783364
-0.28784985
-0.28786748
-0.28788657
-0.28790717
-0.28792928
-0.2879529
-0.28797798
-0.28800448
-0.28803234
-0.28806151
-0.28809204
-0.28812413
-0.28815827
-0.28819552
-0.28823783
-0.28828861
-0.2883534
-0.28844058
-0.28856154
-0.28872947
-0.28895565
-0.2892436
-0.28958348
-0.28995002
-0.29030533
-0.29060509
-0.29080479
-0.29086383
-0.2907452
-0.29041521
-0.28983882
-0.28896855
-0.28772919
-0.28600889
-0.28363641
-0.28037187
-0.2758467
-0.26964975
-0.26118556
-0.25013439
-0.23598404
-0.21916843
-0.1996498
-0.18338334
-0.17588405
-0.18970104
-0.22692152
-0.26306723
-0.26077179
-0.20244132
-0.092151635
-0.28806687
-0.28807064
-0.2880751
-0.28807988
-0.28808512
-0.28809093
-0.28809736
-0.28810446
-0.2881123
-0.28812095
-0.28813049
-0.288141
-0.28815255
-0.28816521
-0.28817906
-0.28819415
-0.28821053
-0.28822825
-0.28824732
-0.28826772
-0.28828943
-0.2883124
-0.28833657
-0.2883619
-0.2883884
-0.28841622
-0.28844578
-0.28847794
-0.28851436
-0.28855795
-0.28861347
-0.28868817
-0.28879203
-0.28893675
-0.28913266
-0.28938352
-0.28968119
-0.29000314
-0.29031445
-0.29057302
-0.29073554
-0.29076133
-0.29061266
-0.29025511
-0.28964982
-0.28874531
-0.28746018
-0.28567235
-0.28319404
-0.27975175
-0.27493139
-0.26828311
-0.2591831
-0.24729852
-0.23216433
-0.21405218
-0.19309301
-0.17668389
-0.17001365
-0.18568525
-0.21545022
-0.24000878
-0.22885234
-0.18611029
-0.086636711
-0.28847455
-0.28847759
-0.28848119
-0.28848504
-0.28848927
-0.28849397
-0.28849917
-0.28850493
-0.28851131
-0.28851836
-0.28852616
-0.28853477
-0.28854425
-0.28855469
-0.28856613
-0.28857865
-0.28859227
-0.28860705
-0.28862299
-0.28864009
-0.28865833
-0.28867765
-0.28869801
-0.28871935
-0.28874168
-0.28876508
-0.2887899
-0.28881683
-0.28884726
-0.28888362
-0.28892994
-0.28899239
-0.28907954
-0.28920158
-0.28936779
-0.28958193
-0.28983744
-0.29011459
-0.29038169
-0.29059942
-0.29072629
-0.29072224
-0.29054966
-0.29017386
-0.28955304
-0.28863277
-0.28732533
-0.28549891
-0.28294663
-0.27934757
-0.27425527
-0.2671724
-0.25747518
-0.24476484
-0.22848237
-0.20945634
-0.18813282
-0.17314859
-0.16791053
-0.18112931
-0.20396792
-0.22043908
-0.19897308
-0.16647988
-0.083329324
-0.28892943
-0.28893175
-0.28893451
-0.28893747
-0.28894073
-0.28894434
-0.28894836
-0.28895282
-0.28895777
-0.28896327
-0.28896936
-0.28897612
-0.28898359
-0.28899185
-0.28900094
-0.28901091
-0.28902182
-0.28903369
-0.28904653
-0.28906036
-0.28907513
-0.28909081
-0.28910735
-0.28912468
-0.2891428
-0.28916175
-0.28918178
-0.28920346
-0.2892279
-0.28925711
-0.28929445
-0.28934506
-0.28941617
-0.2895165
-0.28965414
-0.2898327
-0.29004695
-0.29027985
-0.29050317
-0.29068079
-0.2907737
-0.29074322
-0.29055285
-0.29016772
-0.28954444
-0.28862645
-0.28731886
-0.28548105
-0.28287445
-0.27913361
-0.27377607
-0.26630035
-0.25594143
-0.24255773
-0.22541135
-0.20630037
-0.18598692
-0.17240832
-0.16706076
-0.17870489
-0.19129744
-0.19814903
-0.18143394
-0.15202506
-0.080642203
-0.28942021
-0.28942187
-0.28942385
-0.28942597
-0.28942832
-0.28943094
-0.28943385
-0.28943709
-0.28944071
-0.28944475
-0.28944925
-0.28945427
-0.28945985
-0.28946605
-0.28947291
-0.28948048
-0.2894888
-0.28949789
-0.28950777
-0.28951843
-0.28952986
-0.289542
-0.2895548
-0.2895682
-0.28958215
-0.28959668
-0.28961195
-0.28962837
-0.28964685
-0.28966899
-0.28969752
-0.28973669
-0.28979247
-0.28987218
-0.28998274
-0.29012745
-0.29030208
-0.29049204
-0.2906726
-0.29081115
-0.29087168
-0.29081775
-0.29061486
-0.29022812
-0.28961379
-0.2887133
-0.28742335
-0.28559291
-0.28293513
-0.27905799
-0.27346628
-0.26551744
-0.25467963
-0.24066013
-0.22350341
-0.20449497
-0.18500346
-0.17258951
-0.1670398
-0.17635158
-0.1808982
-0.18199482
-0.16337781
-0.13924158
-0.078750311
-0.28993459
-0.28993567
-0.28993696
-0.28993834
-0.28993988
-0.2899416
-0.28994354
-0.28994571
-0.28994814
-0.28995088
-0.28995396
-0.28995742
-0.28996131
-0.28996565
-0.28997051
-0.2899759
-0.28998187
-0.28998843
-0.28999559
-0.29000335
-0.29001168
-0.29002053
-0.29002984
-0.29003952
-0.29004951
-0.29005979
-0.29007043
-0.29008174
-0.29009437
-0.29010959
-0.29012959
-0.2901578
-0.29019906
-0.29025949
-0.2903446
-0.29045724
-0.29059415
-0.29074274
-0.29088167
-0.29098199
-0.29101109
-0.29093558
-0.29072323
-0.29034017
-0.2897423
-0.28886822
-0.28760599
-0.28577538
-0.28305316
-0.27903971
-0.27313826
-0.26478519
-0.25344105
-0.23891199
-0.22150181
-0.20306639
-0.1848833
-0.17301383
-0.16845551
-0.17139014
-0.17061682
-0.16986231
-0.15111658
-0.1297356
-0.077102732
-0.2904617
-0.2904623
-0.29046302
-0.2904638
-0.29046467
-0.29046566
-0.29046678
-0.29046806
-0.29046951
-0.29047117
-0.29047307
-0.29047523
-0.29047768
-0.29048047
-0.29048362
-0.29048716
-0.29049111
-0.29049549
-0.29050029
-0.2905055
-0.29051109
-0.29051699
-0.29052313
-0.29052939
-0.29053568
-0.2905419
-0.29054806
-0.29055429
-0.29056105
-0.29056927
-0.2905806
-0.29059778
-0.29062447
-0.29066574
-0.29072657
-0.29080954
-0.29091116
-0.29102033
-0.29111898
-0.29118151
-0.29117901
-0.29108166
-0.29085935
-0.29048059
-0.28989953
-0.28905064
-0.28780299
-0.28594134
-0.28312594
-0.27893068
-0.27270795
-0.26398581
-0.25192573
-0.23693694
-0.21944186
-0.20210555
-0.18572659
-0.17362185
-0.16816529
-0.16585344
-0.16318459
-0.15926713
-0.13990363
-0.12149486
-0.07583707
-0.29098979
-0.29099004
-0.29099034
-0.29099067
-0.29099106
-0.29099151
-0.29099204
-0.29099266
-0.29099339
-0.29099425
-0.29099526
-0.29099645
-0.29099783
-0.29099943
-0.29100128
-0.29100339
-0.29100578
-0.29100844
-0.29101137
-0.29101453
-0.29101788
-0.29102133
-0.29102477
-0.29102807
-0.29103105
-0.29103356
-0.29103549
-0.29103683
-0.29103781
-0.29103905
-0.2910418
-0.29104829
-0.29106075
-0.29108692
-0.29112405
-0.29117587
-0.29124321
-0.29131341
-0.2913718
-0.2913953
-0.29135858
-0.29123523
-0.29099724
-0.29061564
-0.29003977
-0.28919947
-0.28792694
-0.28598768
-0.28303439
-0.27859887
-0.27210263
-0.26263816
-0.24986758
-0.2342087
-0.21720858
-0.20086684
-0.18496371
-0.17343128
-0.16589077
-0.16181309
-0.15592701
-0.15024162
-0.13129039
-0.11492796
-0.074654966
-0.29151172
-0.29151177
-0.29151183
-0.29151192
-0.29151203
-0.29151218
-0.29151237
-0.29151261
-0.29151292
-0.29151331
-0.2915138
-0.2915144
-0.29151513
-0.29151601
-0.29151704
-0.29151824
-0.2915196
-0.29152111
-0.29152276
-0.29152448
-0.29152619
-0.29152779
-0.29152913
-0.29152999
-0.29153016
-0.29152936
-0.29152734
-0.29152393
-0.29151911
-0.29151318
-0.29150695
-0.29150267
-0.29149884
-0.29149992
-0.29151386
-0.29154014
-0.29157525
-0.29160647
-0.29162368
-0.29160487
-0.29152785
-0.29136884
-0.29110142
-0.29069883
-0.29010488
-0.28923494
-0.28788548
-0.28582743
-0.28269999
-0.27795646
-0.27069837
-0.26034216
-0.24673547
-0.23097635
-0.2148123
-0.19864564
-0.18349173
-0.17157206
-0.16317319
-0.15720973
-0.14962894
-0.14254784
-0.12381187
-0.10923906
-0.073612235
-0.2920187
-0.29201873
-0.29201878
-0.29201885
-0.29201894
-0.29201907
-0.29201923
-0.29201943
-0.29201969
-0.29202001
-0.29202042
-0.2920209
-0.29202149
-0.29202217
-0.29202296
-0.29202386
-0.29202484
-0.29202587
-0.29202691
-0.29202787
-0.29202863
-0.29202903
-0.29202885
-0.29202779
-0.29202552
-0.29202162
-0.29201563
-0.29200713
-0.29199579
-0.2919815
-0.2919646
-0.29194502
-0.29192982
-0.29191754
-0.29190418
-0.29189617
-0.29189578
-0.2918862
-0.29185776
-0.29178928
-0.2916602
-0.2914483
-0.29112929
-0.29067744
-0.29003064
-0.28908714
-0.28762141
-0.28545029
-0.28202021
-0.27654903
-0.26824055
-0.25683245
-0.24260376
-0.22751434
-0.21134446
-0.19574163
-0.1814127
-0.16984369
-0.16025553
-0.15302541
-0.14383528
-0.13572691
-0.11758299
-0.10442491
-0.072576863
-0.29251085
-0.29251107
-0.29251134
-0.29251164
-0.29251199
-0.29251239
-0.29251286
-0.29251339
-0.29251399
-0.29251468
-0.29251547
-0.29251635
-0.29251733
-0.29251842
-0.2925196
-0.29252086
-0.29252216
-0.29252345
-0.29252464
-0.29252561
-0.2925262
-0.29252616
-0.2925252
-0.29252291
-0.2925188
-0.29251228
-0.2925027
-0.29248933
-0.29247154
-0.29244884
-0.29242112
-0.29238853
-0.29235344
-0.29231267
-0.29227308
-0.29223772
-0.29219396
-0.29213873
-0.29205588
-0.29192519
-0.2917266
-0.29143856
-0.2910392
-0.29051324
-0.28978163
-0.28873913
-0.28718635
-0.28471519
-0.28059066
-0.27404571
-0.26441974
-0.25202696
-0.23830522
-0.22301813
-0.20724384
-0.19267537
-0.17887175
-0.16710091
-0.1569123
-0.14866239
-0.13849725
-0.12974969
-0.11217823
-0.10018181
-0.071554491
-0.29298858
-0.29298922
-0.29298998
-0.2929908
-0.29299171
-0.29299273
-0.29299386
-0.29299512
-0.29299651
-0.29299805
-0.29299973
-0.29300156
-0.29300354
-0.29300566
-0.2930079
-0.29301023
-0.29301257
-0.29301486
-0.29301696
-0.2930187
-0.29301982
-0.29302001
-0.29301884
-0.29301576
-0.29301009
-0.29300101
-0.29298757
-0.29296872
-0.29294339
-0.29291063
-0.29286974
-0.29282046
-0.29276311
-0.29269836
-0.29262721
-0.29255073
-0.29246214
-0.29235161
-0.29220295
-0.29199251
-0.29170411
-0.29131959
-0.29082656
-0.29022221
-0.28940505
-0.28828266
-0.28641583
-0.28328493
-0.27812026
-0.27010925
-0.25930288
-0.24711655
-0.23304903
-0.21779703
-0.20325656
-0.18919362
-0.17577964
-0.16413833
-0.15340791
-0.1444368
-0.13353656
-0.12433004
-0.10743045
-0.096403034
-0.070481263
-0.29346174
-0.29346302
-0.29346453
-0.29346616
-0.29346794
-0.29346992
-0.2934721
-0.29347448
-0.2934771
-0.29347994
-0.29348303
-0.29348635
-0.29348991
-0.29349367
-0.29349761
-0.29350166
-0.29350573
-0.2935097
-0.29351337
-0.29351651
-0.29351877
-0.2935197
-0.29351872
-0.29351511
-0.29350794
-0.29349611
-0.29347835
-0.29345322
-0.2934192
-0.29337482
-0.29331881
-0.29325035
-0.29316906
-0.2930731
-0.29296576
-0.29284317
-0.29269936
-0.29252064
-0.29229046
-0.29198588
-0.29160257
-0.29111881
-0.29056373
-0.28988992
-0.28897527
-0.2875415
-0.28501433
-0.28090515
-0.27421334
-0.26474238
-0.25407277
-0.24136076
-0.22693024
-0.21293212
-0.1988974
-0.18534322
-0.17232152
-0.16068535
-0.14964426
-0.14016837
-0.12884083
-0.11940723
-0.10318388
-0.092961909
-0.069353539
-0.29394944
-0.29395156
-0.29395406
-0.29395674
-0.29395967
-0.2939629
-0.29396644
-0.29397031
-0.29397452
-0.29397908
-0.293984
-0.29398927
-0.29399487
-0.29400077
-0.29400691
-0.29401321
-0.29401952
-0.29402566
-0.29403138
-0.29403633
-0.29404005
-0.29404196
-0.29404128
-0.29403706
-0.29402813
-0.29401308
-0.29399026
-0.29395785
-0.29391388
-0.29385633
-0.2937836
-0.29369798
-0.29357932
-0.29343999
-0.29329498
-0.29312003
-0.29291276
-0.29265685
-0.29234436
-0.29194034
-0.29146989
-0.29093525
-0.29032432
-0.28952969
-0.2883095
-0.28625417
-0.28270714
-0.27724543
-0.26876697
-0.25935411
-0.24801372
-0.23446802
-0.22132236
-0.20777934
-0.19429603
-0.18121219
-0.16849987
-0.1569711
-0.1457361
-0.13593605
-0.1243665
-0.1148246
-0.099287693
-0.089759168
-0.068134396
-0.29447974
-0.29448285
-0.29448653
-0.29449045
-0.29449473
-0.29449942
-0.29450455
-0.29451014
-0.29451621
-0.29452275
-0.29452978
-0.29453728
-0.29454522
-0.29455354
-0.29456215
-0.29457092
-0.29457966
-0.29458812
-0.29459593
-0.29460263
-0.29460761
-0.2946101
-0.2946091
-0.29460339
-0.29459148
-0.29457159
-0.29454166
-0.29449938
-0.29444212
-0.29436731
-0.29427876
-0.29415057
-0.29399757
-0.29383783
-0.29363868
-0.29340613
-0.2931302
-0.29279343
-0.29238318
-0.29194132
-0.29140889
-0.29080693
-0.29007329
-0.28897251
-0.28714221
-0.28402821
-0.27905347
-0.27169943
-0.26327618
-0.253154
-0.24062125
-0.22835199
-0.21555092
-0.20253378
-0.18949213
-0.17679618
-0.16438398
-0.15296137
-0.14165499
-0.13167779
-0.12003645
-0.11051628
-0.09565802
-0.086729345
-0.066819907
-0.29509779
-0.29510194
-0.29510683
-0.29511203
-0.29511769
-0.29512389
-0.29513065
-0.29513799
-0.29514592
-0.29515446
-0.29516358
-0.29517328
-0.29518348
-0.29519411
-0.29520503
-0.29521604
-0.2952269
-0.29523724
-0.29524658
-0.29525432
-0.29525965
-0.29526159
-0.29525887
-0.29524998
-0.29523306
-0.29520593
-0.29516611
-0.29511078
-0.2950364
-0.29494211
-0.2948172
-0.29466951
-0.29449798
-0.29428658
-0.29403299
-0.29374128
-0.29338423
-0.29298325
-0.29252122
-0.29200407
-0.2914136
-0.29069138
-0.28964415
-0.28793712
-0.28508152
-0.28057908
-0.27394341
-0.26614858
-0.25728384
-0.24551006
-0.23408703
-0.22219957
-0.20972607
-0.1971139
-0.18446462
-0.17213337
-0.16000043
-0.14872993
-0.13744245
-0.12740516
-0.11581084
-0.10639144
-0.092196231
-0.08380334
-0.065388309
-0.2958626
-0.29586764
-0.29587358
-0.29587987
-0.29588671
-0.29589419
-0.29590231
-0.2959111
-0.29592057
-0.29593071
-0.2959415
-0.2959529
-0.2959648
-0.29597709
-0.29598958
-0.296002
-0.296014
-0.29602511
-0.29603471
-0.29604202
-0.29604603
-0.29604551
-0.29603892
-0.29602443
-0.29599983
-0.29596258
-0.2959099
-0.29583842
-0.29573706
-0.29562069
-0.29548999
-0.29530806
-0.29507858
-0.29481994
-0.29450579
-0.29414907
-0.29375043
-0.29327696
-0.29275093
-0.29215657
-0.29142639
-0.29039136
-0.28874083
-0.2860473
-0.28189271
-0.27580994
-0.26858235
-0.26051915
-0.24996859
-0.23867518
-0.22779812
-0.21592428
-0.20378956
-0.19154079
-0.17924542
-0.16724123
-0.1553813
-0.14428509
-0.13309125
-0.12308939
-0.11163959
-0.10239512
-0.0888458
-0.080938692
-0.063834642
-0.29684583
-0.29685145
-0.29685807
-0.29686506
-0.29687264
-0.29688089
-0.29688983
-0.29689946
-0.29690977
-0.29692076
-0.29693236
-0.2969445
-0.29695704
-0.29696979
-0.2969825
-0.29699481
-0.29700626
-0.29701622
-0.29702392
-0.29702837
-0.29702832
-0.29702226
-0.29700834
-0.29698438
-0.29694776
-0.29689524
-0.29682284
-0.29673144
-0.2966346
-0.29648866
-0.29628296
-0.29605151
-0.2957857
-0.29547414
-0.29511746
-0.29468762
-0.29421592
-0.29368814
-0.29306387
-0.29231792
-0.29126767
-0.28964435
-0.28704925
-0.28314622
-0.27751831
-0.27068027
-0.26323798
-0.25341043
-0.24278862
-0.23233132
-0.22117079
-0.20959388
-0.19775074
-0.18580731
-0.173831
-0.16213388
-0.15054363
-0.13965141
-0.12861166
-0.11872171
-0.10748823
-0.09847012
-0.085545607
-0.078090838
-0.062146481
-0.29812012
-0.29812592
-0.29813271
-0.29813987
-0.29814759
-0.29815596
-0.29816496
-0.29817459
-0.29818483
-0.29819561
-0.29820685
-0.29821841
-0.2982301
-0.29824166
-0.29825272
-0.2982628
-0.2982713
-0.29827741
-0.29828014
-0.29827824
-0.29827016
-0.29825407
-0.29822771
-0.29818812
-0.29813163
-0.29806237
-0.29798786
-0.29788474
-0.2977093
-0.29749786
-0.29727486
-0.29699778
-0.29667557
-0.29629674
-0.29586486
-0.29537629
-0.29481582
-0.29418212
-0.29339783
-0.29232635
-0.29068647
-0.28816732
-0.28442215
-0.27914779
-0.2725941
-0.26560799
-0.25645141
-0.24627497
-0.23635466
-0.2256267
-0.21460038
-0.20320675
-0.19158413
-0.17991428
-0.16822906
-0.15682122
-0.14550138
-0.13483592
-0.12399869
-0.11428282
-0.10332219
-0.094574857
-0.082255868
-0.075230209
-0.060318772
-0.29977854
-0.29978398
-0.29979034
-0.29979698
-0.2998041
-0.29981174
-0.29981987
-0.29982846
-0.29983744
-0.2998467
-0.29985611
-0.29986546
-0.29987447
-0.29988276
-0.29988985
-0.29989511
-0.29989773
-0.2998967
-0.29989075
-0.29987835
-0.29985761
-0.29982591
-0.29978025
-0.2997243
-0.2996588
-0.29956722
-0.29942749
-0.29924837
-0.29904329
-0.29880095
-0.29851008
-0.2981671
-0.29776549
-0.29730945
-0.29679788
-0.29621827
-0.29554921
-0.29473128
-0.29361772
-0.29197824
-0.28946696
-0.28589773
-0.28084258
-0.27453395
-0.26784126
-0.25927705
-0.24945258
-0.23985009
-0.22960508
-0.21894198
-0.20795845
-0.19670163
-0.18528
-0.17385202
-0.1624355
-0.15130652
-0.14026014
-0.12984417
-0.11924966
-0.10975841
-0.099113497
-0.090670779
-0.078937832
-0.07232763
-0.058343011
-0.3019249
-0.30192947
-0.30193477
-0.30194023
-0.30194598
-0.30195204
-0.30195835
-0.3019648
-0.30197129
-0.30197765
-0.30198364
-0.30198897
-0.30199323
-0.30199592
-0.30199637
-0.30199375
-0.30198701
-0.30197485
-0.3019557
-0.30192753
-0.30188783
-0.30183503
-0.30177003
-0.3016835
-0.30156209
-0.30140586
-0.3012203
-0.30100125
-0.30073601
-0.30042059
-0.30005005
-0.29962305
-0.29913923
-0.29859307
-0.29797756
-0.29727009
-0.29640624
-0.29525134
-0.29358069
-0.29110989
-0.2875897
-0.28293547
-0.27674092
-0.27036474
-0.26215017
-0.25256927
-0.2431376
-0.23322096
-0.22288353
-0.21218399
-0.20122263
-0.19007604
-0.17882014
-0.16761013
-0.15644624
-0.14558942
-0.13482189
-0.12467565
-0.11435697
-0.10513197
-0.094836569
-0.086727267
-0.075563401
-0.069362497
-0.056214863
-0.30467656
-0.30467982
-0.3046835
-0.30468717
-0.30469087
-0.30469455
-0.3046981
-0.30470135
-0.3047041
-0.30470609
-0.30470697
-0.3047063
-0.30470351
-0.30469788
-0.30468853
-0.30467431
-0.30465387
-0.30462551
-0.30458714
-0.30453635
-0.30447108
-0.30438748
-0.30428002
-0.30413992
-0.3039684
-0.30376619
-0.30352169
-0.30322912
-0.30288304
-0.30248038
-0.30202031
-0.30149901
-0.30091226
-0.30025278
-0.29949437
-0.29857196
-0.29735449
-0.29563022
-0.29313489
-0.28962798
-0.28499755
-0.27902274
-0.27262276
-0.26484943
-0.2556249
-0.24630324
-0.2366676
-0.22654657
-0.21607067
-0.2053121
-0.19435584
-0.18329109
-0.17218139
-0.16117282
-0.15025094
-0.13966441
-0.12918321
-0.11932626
-0.10931203
-0.10038818
-0.090469175
-0.082717005
-0.072107205
-0.06631552
-0.053928145
-0.30822445
-0.30822566
-0.30822687
-0.30822779
-0.30822835
-0.30822842
-0.3082278
-0.30822624
-0.30822343
-0.30821897
-0.30821234
-0.30820293
-0.30818994
-0.30817239
-0.30814908
-0.30811852
-0.30807894
-0.30802815
-0.30796358
-0.30788225
-0.30778059
-0.30765362
-0.30749762
-0.30730845
-0.30708013
-0.30680671
-0.3064824
-0.30610296
-0.30566573
-0.30516661
-0.30460209
-0.30396894
-0.30325625
-0.30243511
-0.301439
-0.30014148
-0.29834445
-0.29580083
-0.29229078
-0.2876809
-0.28185881
-0.27531738
-0.26793937
-0.25870555
-0.24956649
-0.24008398
-0.23014134
-0.21978675
-0.20914319
-0.19829543
-0.18732202
-0.17631959
-0.16533964
-0.15452153
-0.14383659
-0.13352249
-0.12333751
-0.11378895
-0.10410439
-0.095511626
-0.085991445
-0.078617126
-0.068549541
-0.063171762
-0.051481426
-0.31283107
-0.31282902
-0.31282628
-0.31282287
-0.31281854
-0.31281302
-0.31280602
-0.31279716
-0.312786
-0.31277195
-0.31275431
-0.31273222
-0.31270462
-0.3126702
-0.3126274
-0.31257433
-0.31250872
-0.31242788
-0.31232865
-0.31220738
-0.31205986
-0.31188139
-0.31166679
-0.31141037
-0.31110651
-0.3107502
-0.31033693
-0.30986181
-0.3093207
-0.30871038
-0.30802486
-0.30725023
-0.30635375
-0.30526701
-0.30386661
-0.30196813
-0.29934169
-0.2957832
-0.29117339
-0.28540729
-0.27880639
-0.27154047
-0.26267074
-0.25336972
-0.24401277
-0.23392171
-0.22354614
-0.21289694
-0.20204711
-0.19108371
-0.1800769
-0.16912344
-0.15826494
-0.14763324
-0.13718586
-0.12715085
-0.11727459
-0.10805386
-0.09872253
-0.090487389
-0.081385708
-0.074407448
-0.064873549
-0.059918792
-0.048871318
-0.31878606
-0.31877905
-0.31877033
-0.31876041
-0.31874875
-0.31873494
-0.31871857
-0.31869909
-0.31867587
-0.31864812
-0.31861491
-0.31857509
-0.31852728
-0.31846983
-0.31840076
-0.31831773
-0.31821797
-0.31809825
-0.31795483
-0.31778345
-0.3175793
-0.31733717
-0.31705172
-0.3167175
-0.3163289
-0.31588032
-0.31536675
-0.31478367
-0.31412557
-0.31338342
-0.31253892
-0.31155432
-0.31035769
-0.30882772
-0.30678897
-0.30403171
-0.30035687
-0.29566696
-0.28985999
-0.28313214
-0.27581841
-0.26703484
-0.25766986
-0.24811424
-0.23796172
-0.22746845
-0.21672344
-0.20577488
-0.19471062
-0.18361996
-0.17257199
-0.16166278
-0.1509244
-0.14048164
-0.13027843
-0.12053373
-0.11098185
-0.1021094
-0.093154192
-0.085300907
-0.076636206
-0.070069956
-0.061065584
-0.05654345
-0.046097712
-0.32643916
-0.32642509
-0.32640793
-0.32638884
-0.32636694
-0.32634161
-0.32631227
-0.32627821
-0.32623856
-0.32619231
-0.32613823
-0.32607486
-0.32600043
-0.32591292
-0.32580995
-0.32568871
-0.32554592
-0.32537785
-0.3251803
-0.32494862
-0.32467771
-0.32436209
-0.3239959
-0.32357326
-0.32308841
-0.32253551
-0.32190822
-0.32119825
-0.32039239
-0.31946666
-0.318377
-0.3170467
-0.31535466
-0.31313251
-0.31018421
-0.30632603
-0.30144955
-0.29550845
-0.28853509
-0.28103601
-0.2722104
-0.26267027
-0.2528755
-0.24251546
-0.23181983
-0.22083147
-0.20965261
-0.19837238
-0.18707319
-0.17584569
-0.16475469
-0.15389227
-0.14328053
-0.13303658
-0.12309051
-0.11365243
-0.10444422
-0.095942254
-0.087386591
-0.079938245
-0.07172903
-0.065588477
-0.05711449
-0.053031287
-0.043170737
-0.33609701
-0.33607349
-0.33604503
-0.33601373
-0.33597829
-0.3359378
-0.33589151
-0.33583851
-0.33577769
-0.33570776
-0.33562726
-0.3355345
-0.33542726
-0.33530305
-0.33515915
-0.33499233
-0.33479885
-0.33457458
-0.33431499
-0.334015
-0.3336691
-0.33327147
-0.33281593
-0.33229595
-0.33170432
-0.33103238
-0.33026824
-0.3293934
-0.32837707
-0.32716755
-0.32568166
-0.32379596
-0.32134598
-0.31814398
-0.31401953
-0.30885962
-0.30263176
-0.29537724
-0.28752408
-0.27847656
-0.26858728
-0.25840243
-0.24772022
-0.23667126
-0.22533918
-0.21381522
-0.2021999
-0.19058321
-0.17905013
-0.16769111
-0.15656637
-0.14576322
-0.13529342
-0.12526587
-0.11559667
-0.10648678
-0.097645533
-0.089538481
-0.081407088
-0.074386325
-0.066652498
-0.060950456
-0.053013973
-0.04938855
-0.040059949
-0.34807598
-0.34804059
-0.34799799
-0.34795146
-0.34789913
-0.34783986
-0.34777277
-0.3476964
-0.34760899
-0.34751244
-0.34741441
-0.34729848
-0.34714051
-0.34695897
-0.34676676
-0.34654974
-0.34630025
-0.34601389
-0.34568599
-0.3453114
-0.34488391
-0.34439675
-0.34384219
-0.34321099
-0.34249119
-0.34166601
-0.34071012
-0.33958409
-0.33822669
-0.33654623
-0.33441427
-0.33166846
-0.32812585
-0.32362688
-0.31806165
-0.31138323
-0.3036818
-0.29530152
-0.28593804
-0.27555728
-0.26486515
-0.25373418
-0.24221283
-0.23040616
-0.21841436
-0.206336
-0.19427044
-0.18231556
-0.17055608
-0.15908002
-0.14794132
-0.13722049
-0.12691795
-0.11713332