/*--------------------------------*- C++ -*----------------------------------*\
  =========                 |
  \\      /  F ield         | OpenFOAM: The Open Source CFD Toolbox
   \\    /   O peration     | Website:  https://openfoam.org
    \\  /    A nd           | Version:  13
     \\/     M anipulation  |
\*---------------------------------------------------------------------------*/
FoamFile
{
    format      ascii;
    class       volVectorField;
    location    "35.596902";
    object      wallShearStress;
}
// * * * * * * * * * * * * * * * * * * * * * * * * * * * * * * * * * * * * * //

dimensions      [0 2 -2 0 0 0 0];

internalField   uniform (0 0 0);

boundaryField
{
    inlet
    {
        type            calculated;
        value           uniform (0 0 0);
    }
    outlet
    {
        type            calculated;
        value           uniform (0 0 0);
    }
    cylinder
    {
        type            calculated;
        value           nonuniform List<vector> 
132
(
(-1.6293766e-05 0.0014804634 -2.7141049e-22)
(-4.4393133e-05 0.0011759402 7.7111224e-23)
(-5.5808405e-05 0.00086433401 4.2462808e-21)
(-4.9876596e-05 0.00054967169 -1.4205209e-20)
(-2.6489486e-05 0.00023806379 9.9943896e-21)
(1.3976238e-05 -6.6030062e-05 3.0435782e-20)
(7.0264108e-05 -0.00035735265 -5.7474164e-21)
(0.00014151179 -0.0006307031 -2.2695195e-20)
(0.00022529852 -0.00088136846 2.1325178e-20)
(0.00031908209 -0.0011051816 -4.7678223e-20)
(0.00041992909 -0.0012986588 -8.6545144e-22)
(0.00052463465 -0.0014592768 2.9482803e-20)
(0.00062994419 -0.0015855709 4.7999249e-20)
(0.00073280209 -0.0016773618 -3.8937262e-20)
(0.00083045071 -0.0017357089 4.0963046e-20)
(0.00092085753 -0.0017632397 6.5898078e-20)
(0.0010027687 -0.001763665 -4.3175781e-20)
(0.0010763658 -0.0017424126 6.927135e-20)
(0.0011430229 -0.0017055444 9.1631448e-20)
(0.0012062529 -0.0016606526 -5.9477359e-20)
(0.0012716211 -0.0016159689 -7.5869479e-20)
(0.001346663 -0.0015796456 2.6737298e-23)
(0.0014419046 -0.0015604341 1.102715e-20)
(0.0015688536 -0.0015648541 -1.3216535e-20)
(0.0017398395 -0.0015971215 -2.2508109e-20)
(0.0019654339 -0.001657075 4.818885e-21)
(0.0022501869 -0.0017377983 -4.3551495e-20)
(0.0025879144 -0.0018244186 1.1645947e-20)
(0.0029639387 -0.0018988853 9.151087e-21)
(0.0033550577 -0.0019422723 -6.3056237e-20)
(0.0037273176 -0.0019356278 8.2311462e-20)
(0.0040498074 -0.0018689925 2.4919247e-21)
(0.0042870759 -0.0017371688 1.7969418e-20)
(0.0043670255 -0.0015293658 -2.1302931e-20)
(0.0041816504 -0.0012390891 6.7722618e-20)
(0.0035788902 -0.00087158891 -4.2849314e-21)
(0.0023833611 -0.00045958154 1.7286486e-20)
(0.00037574479 -6.7169314e-05 -2.3725429e-21)
(-0.0026278467 0.00019037178 3.3992406e-21)
(-0.0067928985 0.00014949486 -2.1151762e-21)
(-0.012488671 -0.00041552388 3.9350265e-21)
(-0.01961683 -0.0018224323 -1.2074997e-22)
(-0.027552011 -0.0042380246 4.4017879e-20)
(-0.035840371 -0.0077410277 -1.6860121e-20)
(-0.043902321 -0.0122876 1.5127825e-20)
(-0.05129269 -0.017750112 -9.6690966e-20)
(-0.057555125 -0.023889038 -1.5524159e-20)
(-0.062423122 -0.030437749 1.3581151e-19)
(-0.065707482 -0.037096456 -1.1547659e-19)
(-0.067356219 -0.043578782 -2.1997438e-21)
(-0.067369734 -0.049592846 3.5022411e-20)
(-0.065886867 -0.054921895 -3.1885128e-20)
(-0.062994797 -0.059301037 -6.2529687e-21)
(-0.058921511 -0.062584301 -3.9888786e-21)
(-0.053914218 -0.064671093 -6.1361787e-21)
(-0.048142948 -0.065393668 -2.7668968e-21)
(-0.041893658 -0.064746477 5.9844399e-22)
(-0.035397225 -0.062694188 4.8688784e-20)
(-0.028899428 -0.059266682 -7.4521101e-20)
(-0.022630869 -0.054523732 -7.9587298e-20)
(-0.016806716 -0.048559835 -3.2318871e-20)
(-0.011622131 -0.041502354 -7.4103209e-20)
(-0.0072470008 -0.033505537 1.6533162e-20)
(-0.0038204422 -0.024748731 2.4052478e-20)
(-0.0014561596 -0.015443543 -3.7372086e-20)
(-0.00021580721 -0.0057684192 -4.990405e-21)
(2.7885803e-05 0.0017759338 -1.25066e-21)
(8.7959265e-05 0.0020630692 -7.4592528e-23)
(0.00016471997 0.0023396631 -4.2856891e-21)
(0.00025700965 0.0026005151 1.4375822e-20)
(0.00036348077 0.0028404557 -1.0147654e-20)
(0.00048218544 0.0030543096 -3.0999618e-20)
(0.00061057315 0.0032371991 5.8711191e-21)
(0.00074550778 0.0033847216 2.3246937e-20)
(0.00088350245 0.0034931786 -2.1897334e-20)
(0.0010206404 0.003559768 4.9062883e-20)
(0.0011528339 0.0035829105 8.92202e-22)
(0.0012759941 0.0035623126 -3.0439062e-20)
(0.0013863358 0.0034992838 -4.9611154e-20)
(0.0014806288 0.0033967481 4.0275482e-20)
(0.0015564199 0.0032590819 -4.2388569e-20)
(0.0016125159 0.0030924887 -6.8198571e-20)
(0.0016491222 0.0029044733 4.4674995e-20)
(0.0016682954 0.002703963 -7.1647098e-20)
(0.0016740444 0.0025007106 -9.4716715e-20)
(0.0016727431 0.0023052535 6.1434948e-20)
(0.0016731601 0.0021282463 7.8303055e-20)
(0.0016869826 0.0019804968 7.0126255e-20)
(0.0017282063 0.0018715808 5.7613244e-20)
(0.0018132292 0.0018095664 1.3608952e-20)
(0.0019579277 0.0017979587 2.316418e-20)
(0.0021745114 0.0018337117 -4.9577664e-21)
(0.0024682734 0.0019063666 4.4804423e-20)
(0.0028319885 0.0019965108 -1.1983929e-20)
(0.003240313 0.0020760217 -9.4225872e-21)
(0.0036528982 0.0021148921 6.4988732e-20)
(0.0040295336 0.0020928892 -8.4935398e-20)
(0.0043338702 0.002000551 -2.5600686e-21)
(0.0045212105 0.0018326974 4.2318139e-20)
(0.004507319 0.001579433 2.2096976e-20)
(0.0041702957 0.001237108 -7.0412818e-20)
(0.0033453674 0.00081698028 4.4670125e-21)
(0.0018484347 0.0003612024 1.3179546e-20)
(-0.00054278013 -5.3479887e-05 2.4873203e-21)
(-0.0040219541 -0.00030174216 -3.5720106e-21)
(-0.0086803901 -0.0001985244 2.226765e-21)
(-0.014892443 0.00049122133 -4.1459767e-21)
(-0.022494125 0.0020861474 3.3526169e-20)
(-0.030748656 0.0047261102 -4.6249255e-20)
(-0.039208096 0.008464879 1.7659583e-20)
(-0.047295786 0.013234245 -1.578152e-20)
(-0.054550012 0.018874196 1.0038703e-19)
(-0.060567706 0.025135571 1.6037512e-20)
(-0.06511896 0.031748473 -1.395359e-19)
(-0.06803198 0.038405217 1.1797239e-19)
(-0.069300571 0.044833334 2.233278e-21)
(-0.068921752 0.050732065 -3.5298835e-20)
(-0.067083885 0.055916599 3.1858102e-20)
(-0.063840325 0.06009374 -4.965272e-20)
(-0.059455911 0.063148965 3.8330763e-21)
(-0.054200831 0.065011837 -7.3607211e-21)
(-0.048203645 0.065472868 3.6303887e-21)
(-0.041780996 0.064568936 -6.5047591e-22)
(-0.035153618 0.062258919 -5.1244259e-20)
(-0.028568187 0.058583014 7.7310998e-20)
(-0.022252734 0.053607441 8.1843175e-20)
(-0.01641864 0.047431822 3.3025188e-20)
(-0.011257176 0.040189767 7.5343473e-20)
(-0.0069329128 0.032038925 -1.6738483e-20)
(-0.0035795363 0.023163932 4.8112317e-20)
(-0.0013044375 0.013772385 3.7560148e-20)
(-0.00016574811 0.0040707058 5.0016197e-21)
)
;
    }
    frontAndBack
    {
        type            empty;
    }
}


// ************************************************************************* //
