/*--------------------------------*- C++ -*----------------------------------*\
  =========                 |
  \\      /  F ield         | OpenFOAM: The Open Source CFD Toolbox
   \\    /   O peration     | Website:  https://openfoam.org
    \\  /    A nd           | Version:  13
     \\/     M anipulation  |
\*---------------------------------------------------------------------------*/
FoamFile
{
    format      ascii;
    class       volScalarField;
    location    "0.006";
    object      p;
}
// * * * * * * * * * * * * * * * * * * * * * * * * * * * * * * * * * * * * * //

dimensions      [1 -1 -2 0 0 0 0];

internalField   nonuniform List<scalar> 
1000
(
100000
100000
100000
100000
100000
100000
100000
100000
100000
100000
100000
100000
100000
100000
100000
100000
100000
100000
100000
100000
100000
100000
100000
100000
100000
100000
100000
100000
100000
100000
100000
100000
100000
100000
100000
100000
100000
100000
100000
100000
100000
100000
100000
100000
100000
100000
100000
100000
100000
100000
100000
100000
100000
100000
100000
100000
100000
100000
100000
100000
100000
100000
100000
100000
100000
100000
100000
100000
100000
100000
100000
100000
100000
100000
100000
100000
100000
100000
100000
100000
100000
100000
100000
100000
100000
100000
100000
100000
100000
100000
100000
100000
100000
100000
100000
100000
100000
100000
100000
100000
100000
100000
100000
100000
100000
100000
100000
100000
100000
100000
100000
100000
100000
100000
100000
100000
100000
100000
100000
100000
100000
100000
100000
100000
100000
100000
100000
100000
100000
100000
100000
100000
100000
100000
100000
100000
100000
100000
100000
100000
100000
100000
100000
100000
100000
100000
100000
100000
100000
100000
100000
100000
100000
100000
100000
100000
100000
100000
100000
100000
100000
100000
100000
100000
100000
100000
100000
100000
100000
100000
100000
100000
100000
100000
100000
100000
100000
100000
100000
100000
100000
100000
100000
100000
100000
100000
100000
100000
100000
100000
100000
100000
100000
100000
100000
100000
100000
100000
100000
100000
100000
100000
100000
100000
100000
100000
100000
100000
100000
100000
100000
100000
100000
100000
100000
100000
100000
100000
100000
100000
100000
100000
100000
100000
100000
100000
100000
99999.9
99999.9
99999.9
99999.8
99999.7
99999.5
99999.3
99999.1
99998.6
99998.1
99997.3
99996.2
99994.7
99992.7
99990
99986.3
99981.4
99975
99966.6
99955.8
99941.8
99923.9
99901.3
99873
99837.7
99794.3
99741.3
99677.2
99600.5
99509.4
99402.5
99278.2
99135.3
98972.6
98789.6
98585.8
98361.3
98116.5
97852.4
97570.1
97271
96956.8
96629.2
96290
95940.9
95583.5
95219.3
94849.5
94475.3
94097.6
93717.2
93334.6
92950.5
92565.1
92178.7
91791.6
91404
91016
90627.7
90239.2
89850.6
89461.9
89073.2
88684.6
88296.2
87907.8
87519.7
87131.9
86744.3
86357.1
85970.3
85583.9
85197.9
84812.4
84427.5
84043.1
83659.3
83276
82893.5
82511.5
82130.3
81749.8
81370
80991
80612.8
80235.4
79858.8
79483
79108.1
78734.1
78361
77988.8
77617.5
77247.2
76877.9
76509.5
76142.1
75775.7
75410.3
75046
74682.7
74320.4
73959.2
73599.1
73240.1
72882.2
72525.3
72169.6
71815.1
71461.6
71109.3
70758.2
70408.2
70059.3
69711.7
69365.2
69019.9
68675.8
68332.9
67991.3
67650.8
67311.5
66973.5
66636.7
66301.2
65966.8
65633.8
65301.9
64971.4
64642.1
64314
63987.2
63661.7
63337.4
63014.5
62692.8
62372.4
62053.3
61735.4
61418.9
61103.6
60789.7
60477.1
60165.7
59855.7
59546.9
59239.5
58933.4
58628.6
58325.1
58023
57722.1
57422.6
57124.4
56827.5
56532
56237.8
55944.9
55653.3
55363.1
55074.2
54786.6
54500.4
54215.5
53932
53649.8
53369
53089.4
52811.3
52534.5
52259
51984.9
51712.1
51440.7
51170.7
50902
50634.7
50368.7
50104.1
49840.9
49579
49318.5
49059.4
48801.6
48545.3
48290.3
48036.7
47784.5
47533.6
47284.2
47036.2
46789.5
46544.3
46300.5
46058.1
45817.1
45577.5
45339.3
45102.6
44867.3
44633.5
44401
44170.1
43940.6
43712.5
43486
43260.9
43037.2
42815.1
42594.5
42375.3
42157.7
41941.6
41727
41514
41302.5
41092.6
40884.2
40677.4
40472.2
40268.6
40066.6
39866.3
39667.6
39470.5
39275.1
39081.3
38889.3
38698.9
38510.3
38323.4
38138.3
37954.9
37773.3
37593.5
37415.6
37239.4
37065.2
36892.8
36722.3
36553.7
36387.1
36222.4
36059.7
35899
35740.4
35583.8
35429.2
35276.8
35126.4
34978.2
34832.2
34688.4
34546.8
34407.4
34270.2
34135.4
34002.9
33872.6
33744.8
33619.3
33496.2
33375.6
33257.4
33141.6
33028.3
32917.5
32809.3
32703.5
32600.3
32499.7
32401.6
32306.1
32213.2
32122.8
32035.1
31950
31867.4
31787.5
31710.1
31635.3
31563
31493.3
31426.2
31361.5
31299.4
31239.7
31182.5
31127.6
31075.2
31025
30977.2
30931.6
30888.2
30847
30807.9
30770.9
30735.9
30702.8
30671.6
30642.3
30614.7
30588.8
30564.6
30542
30520.9
30501.2
30483
30466
30450.4
30435.9
30422.6
30410.3
30399.1
30388.8
30379.4
30370.8
30363.1
30356
30349.7
30344
30338.8
30334.3
30330.2
30326.5
30323.3
30320.5
30318
30315.9
30314
30312.4
30311
30309.9
30308.9
30308.1
30307.5
30307
30306.6
30306.3
30306.1
30306
30305.9
30305.9
30306
30306.1
30306.2
30306.4
30306.6
30306.8
30307
30307.3
30307.5
30307.8
30308.1
30308.4
30308.6
30308.9
30309.2
30309.5
30309.7
30310
30310.3
30310.5
30310.8
30311
30311.3
30311.5
30311.8
30312
30312.2
30312.5
30312.7
30312.9
30313.1
30313.3
30313.5
30313.7
30313.9
30314.1
30314.3
30314.5
30314.6
30314.8
30315
30315.1
30315.3
30315.5
30315.6
30315.8
30315.9
30316.1
30316.2
30316.4
30316.5
30316.7
30316.8
30316.9
30317.1
30317.2
30317.3
30317.5
30317.6
30317.7
30317.9
30318
30318.1
30318.2
30318.3
30318.4
30318.6
30318.7
30318.8
30318.9
30319
30319.1
30319.2
30319.3
30319.4
30319.5
30319.6
30319.7
30319.8
30319.9
30320
30320.1
30320.2
30320.3
30320.4
30320.4
30320.5
30320.6
30320.7
30320.8
30320.9
30321
30321
30321.1
30321.2
30321.3
30321.4
30321.5
30321.5
30321.6
30321.7
30321.8
30321.9
30322
30322
30322.1
30322.2
30322.3
30322.4
30322.5
30322.5
30322.6
30322.7
30322.8
30322.9
30323
30323
30323.1
30323.2
30323.3
30323.4
30323.4
30323.5
30323.6
30323.6
30323.7
30323.8
30323.8
30323.9
30324
30324
30324.1
30324.1
30324.2
30324.3
30324.3
30324.4
30324.4
30324.5
30324.6
30324.6
30324.7
30324.7
30324.8
30324.9
30324.9
30325
30325.1
30325.1
30325.2
30325.3
30325.3
30325.4
30325.5
30325.5
30325.6
30325.7
30325.8
30325.8
30325.9
30326
30326.1
30326.1
30326.2
30326.3
30326.4
30326.4
30326.5
30326.6
30326.7
30326.8
30326.8
30326.9
30327
30327.1
30327.2
30327.3
30327.4
30327.4
30327.5
30327.6
30327.7
30327.8
30327.9
30328
30328.1
30328.2
30328.3
30328.4
30328.5
30328.6
30328.7
30328.8
30328.9
30329
30329.1
30329.2
30329.3
30329.4
30329.5
30329.6
30329.7
30329.8
30329.9
30329.9
30330
30330.1
30330.2
30330.2
30330.3
30330.3
30330.3
30330.3
30330.3
30330.2
30330.2
30330
30329.8
30329.6
30329.3
30328.9
30328.4
30327.8
30327
30326.1
30324.9
30323.6
30321.9
30319.9
30317.5
30314.7
30311.3
30307.2
30302.3
30296.5
30289.6
30281.4
30271.6
30260.1
30246.3
30230
30210.6
30187.5
30160.2
30127.8
30089.2
30043.5
29989
29924.3
29847.3
29755.5
29646
29515.1
29358.5
29170.6
28944.7
28672.1
28342.2
27940.9
27450.5
26847.2
26099.2
25162.4
23972.7
22433.5
20409.3
17784.7
14741.3
12121.8
10705.3
10195.4
10049.9
10012.4
10003.1
10000.8
10000.2
10000
10000
10000
10000
10000
10000
10000
10000
10000
10000
10000
10000
10000
10000
10000
10000
10000
10000
10000
10000
10000
10000
10000
10000
10000
10000
10000
10000
10000
10000
10000
10000
10000
10000
10000
10000
10000
10000
10000
10000
10000
10000
10000
10000
10000
10000
10000
10000
10000
10000
10000
10000
10000
10000
10000
10000
10000
10000
10000
10000
10000
10000
10000
10000
10000
10000
10000
10000
10000
10000
10000
10000
10000
10000
10000
10000
10000
10000
10000
10000
10000
10000
10000
10000
10000
10000
10000
10000
10000
10000
10000
10000
10000
10000
10000
10000
10000
10000
10000
10000
10000
10000
10000
10000
10000
10000
10000
10000
10000
10000
10000
10000
10000
10000
10000
10000
10000
10000
10000
10000
10000
10000
10000
10000
10000
10000
10000
10000
10000
10000
10000
10000
10000
10000
10000
10000
10000
10000
10000
10000
10000
10000
10000
10000
10000
10000
10000
10000
10000
10000
10000
10000
10000
10000
)
;

boundaryField
{
    sides
    {
        type            zeroGradient;
    }
    empty
    {
        type            empty;
    }
}


// ************************************************************************* //
