/*--------------------------------*- C++ -*----------------------------------*\
  =========                 |
  \\      /  F ield         | OpenFOAM: The Open Source CFD Toolbox
   \\    /   O peration     | Website:  https://openfoam.org
    \\  /    A nd           | Version:  13
     \\/     M anipulation  |
\*---------------------------------------------------------------------------*/
FoamFile
{
    format      ascii;
    class       surfaceScalarField;
    location    "0.006";
    object      phi;
}
// * * * * * * * * * * * * * * * * * * * * * * * * * * * * * * * * * * * * * //

dimensions      [1 0 -1 0 0 0 0];

internalField   nonuniform List<scalar> 
999
(
-2.03282e-12
-2.02645e-12
-1.60395e-12
-1.38846e-12
-1.39032e-12
-1.82149e-12
-2.01302e-12
-2.29881e-12
-2.51178e-12
-1.92061e-12
-2.62088e-12
-2.70352e-12
-2.98452e-12
-3.07469e-12
-3.42006e-12
-3.38809e-12
-3.43304e-12
-3.68501e-12
-4.00844e-12
-3.45333e-12
-3.74687e-12
-3.13835e-12
-2.79141e-12
-2.64762e-12
-2.30088e-12
-1.9252e-12
-1.43375e-12
-2.39238e-13
-1.72364e-13
6.44228e-13
5.54764e-13
1.05969e-13
-1.77098e-13
-6.1744e-13
1.72789e-13
9.89381e-13
1.4414e-12
1.73336e-12
2.47025e-12
2.75174e-12
2.13263e-12
1.72354e-12
9.3734e-13
5.60221e-13
2.52277e-13
-1.23692e-13
-1.07348e-12
-1.79117e-12
-1.21685e-12
-2.04544e-13
5.34848e-13
1.53179e-12
2.6237e-12
3.03121e-12
3.45421e-12
3.73842e-12
3.08963e-12
3.99913e-12
3.98952e-12
4.79357e-12
4.81435e-12
4.52877e-12
3.90988e-12
4.32993e-12
4.41394e-12
4.41874e-12
4.43608e-12
3.79346e-12
3.87109e-12
3.6483e-12
3.19012e-12
3.62201e-12
3.14146e-12
2.62987e-12
2.34565e-12
2.45525e-12
2.57919e-12
2.83346e-12
1.91344e-12
9.67888e-13
7.10408e-13
-4.01529e-13
1.66409e-13
5.98299e-13
6.93929e-13
5.51714e-13
1.74595e-13
1.42629e-13
1.50373e-13
1.56539e-13
9.83309e-14
3.13373e-13
7.48044e-13
9.42088e-13
9.21303e-13
9.94129e-13
8.63095e-13
4.30497e-13
3.15446e-13
7.71557e-13
6.15539e-13
4.00604e-13
3.61215e-13
9.59328e-13
4.57448e-13
4.78994e-13
4.98335e-14
1.62896e-14
-1.12351e-13
2.23801e-13
3.58928e-13
1.17751e-13
-2.50192e-13
-3.38787e-13
-3.2112e-13
-3.19153e-13
-3.11623e-13
-7.35636e-14
-5.00504e-14
9.06631e-13
7.43737e-13
1.5498e-12
1.42641e-12
1.72868e-12
1.94154e-12
2.40109e-12
2.09963e-12
1.74456e-12
1.68908e-12
1.78825e-12
1.74728e-12
1.6336e-12
2.02806e-12
2.27426e-12
2.38303e-12
2.53966e-12
2.24573e-12
2.45095e-12
2.22014e-12
1.83811e-12
1.75629e-12
1.53393e-12
1.65242e-12
1.53393e-12
2.39274e-12
2.85513e-12
2.74919e-12
3.73707e-12
3.7266e-12
3.45776e-12
3.80362e-12
3.21501e-12
2.97656e-12
3.00215e-12
2.87122e-12
2.43235e-12
2.97383e-12
3.16787e-12
3.04311e-12
2.98136e-12
2.6846e-12
2.13068e-12
2.10853e-12
1.73277e-12
2.17508e-12
2.12588e-12
1.9033e-12
1.82431e-12
1.81951e-12
1.76883e-12
1.77374e-12
2.06003e-12
2.05441e-12
1.93183e-12
1.99975e-12
2.48919e-12
2.58837e-12
2.57435e-12
2.8871e-12
2.61395e-12
3.11153e-12
3.04039e-12
2.95638e-12
3.10132e-12
3.15462e-12
2.91334e-12
2.98763e-12
3.89151e-12
5.13149e-12
7.62021e-12
1.09723e-11
1.76711e-11
3.05704e-11
5.23249e-11
9.0041e-11
1.57091e-10
2.73113e-10
4.73403e-10
8.19436e-10
1.41399e-09
2.42998e-09
4.15825e-09
7.08498e-09
1.20156e-08
2.02829e-08
3.40796e-08
5.69902e-08
9.48454e-08
1.57082e-07
2.58885e-07
4.24561e-07
6.92797e-07
1.12482e-06
1.817e-06
2.92009e-06
4.66863e-06
7.42526e-06
1.17474e-05
1.84865e-05
2.89356e-05
4.50454e-05
6.97404e-05
0.000107377
0.000164401
0.000250289
0.000378874
0.000570218
0.000853202
0.00126911
0.00187654
0.00275803
0.00402895
0.00584935
0.0084395
0.0121001
0.0172381
0.0244
0.0343127
0.0479348
0.0665189
0.0916856
0.125512
0.170631
0.230349
0.308767
0.410918
0.542901
0.712017
0.926888
1.19755
1.53551
1.95374
2.46662
3.08977
3.83977
4.73376
5.78894
7.02189
8.44775
10.0793
11.9258
13.9931
16.2823
18.7905
21.5103
24.4305
27.5362
30.8101
34.2332
37.7857
41.448
45.2011
49.0275
52.9118
56.8401
60.8008
64.7843
68.7827
72.7897
76.8003
80.8107
84.8178
88.8194
92.8137
96.7992
100.775
104.74
108.693
112.634
116.562
120.476
124.376
128.262
132.133
135.988
139.828
143.651
147.458
151.247
155.02
158.774
162.511
166.229
169.928
173.609
177.27
180.912
184.535
188.137
191.72
195.282
198.824
202.345
205.846
209.325
212.784
216.221
219.637
223.032
226.404
229.755
233.085
236.392
239.678
242.941
246.182
249.401
252.597
255.771
258.923
262.052
265.159
268.243
271.304
274.342
277.358
280.351
283.321
286.269
289.194
292.095
294.974
297.83
300.663
303.473
306.261
309.025
311.766
314.485
317.181
319.853
322.503
325.131
327.735
330.316
332.875
335.411
337.924
340.415
342.883
345.328
347.75
350.151
352.528
354.883
357.216
359.526
361.814
364.079
366.323
368.544
370.743
372.92
375.074
377.207
379.318
381.407
383.474
385.519
387.543
389.545
391.525
393.484
395.421
397.338
399.232
401.106
402.958
404.789
406.599
408.388
410.156
411.904
413.63
415.336
417.021
418.686
420.33
421.954
423.558
425.141
426.704
428.247
429.77
431.273
432.756
434.22
435.664
437.088
438.492
439.878
441.243
442.59
443.917
445.226
446.515
447.785
449.037
450.269
451.483
452.679
453.855
455.014
456.154
457.276
458.38
459.465
460.533
461.583
462.615
463.629
464.625
465.605
466.566
467.511
468.438
469.348
470.241
471.116
471.976
472.818
473.644
474.453
475.245
476.022
476.782
477.525
478.253
478.965
479.661
480.341
481.006
481.655
482.289
482.907
483.511
484.099
484.672
485.23
485.774
486.303
486.818
487.318
487.805
488.277
488.735
489.179
489.61
490.027
490.431
490.822
491.2
491.564
491.916
492.255
492.582
492.897
493.199
493.49
493.769
494.036
494.292
494.537
494.77
494.993
495.205
495.407
495.599
495.781
495.953
496.115
496.268
496.412
496.547
496.674
496.792
496.902
497.004
497.098
497.185
497.265
497.338
497.405
497.465
497.518
497.567
497.609
497.646
497.678
497.705
497.728
497.746
497.76
497.771
497.778
497.781
497.781
497.779
497.774
497.766
497.756
497.744
497.73
497.715
497.698
497.68
497.66
497.64
497.619
497.597
497.574
497.551
497.528
497.504
497.48
497.456
497.431
497.407
497.383
497.359
497.335
497.311
497.288
497.265
497.241
497.219
497.196
497.173
497.151
497.129
497.108
497.086
497.065
497.044
497.023
497.002
496.981
496.96
496.939
496.919
496.898
496.877
496.857
496.836
496.815
496.794
496.773
496.751
496.73
496.708
496.686
496.664
496.642
496.619
496.596
496.573
496.549
496.525
496.501
496.476
496.45
496.425
496.399
496.372
496.345
496.318
496.289
496.261
496.232
496.202
496.171
496.14
496.109
496.077
496.043
496.01
495.975
495.94
495.904
495.867
495.829
495.79
495.751
495.71
495.668
495.625
495.581
495.536
495.49
495.442
495.393
495.342
495.29
495.236
495.18
495.122
495.063
495.001
494.936
494.869
494.799
494.725
494.648
494.566
494.479
494.387
494.288
494.182
494.067
493.941
493.805
493.654
493.488
493.303
493.096
492.865
492.605
492.311
491.98
491.605
491.181
490.701
490.158
489.545
488.853
488.073
487.197
486.215
485.118
483.897
482.541
481.041
479.389
477.575
475.592
473.433
471.091
468.563
465.845
462.935
459.834
456.543
453.065
449.407
445.575
441.58
437.432
433.146
428.735
424.216
419.606
414.925
410.192
405.427
400.651
395.885
391.148
386.462
381.845
377.315
372.89
368.586
364.417
360.396
356.534
352.84
349.321
345.983
342.829
339.863
337.084
334.491
332.082
329.852
327.798
325.912
324.188
322.62
321.197
319.914
318.759
317.726
316.805
315.988
315.266
314.63
314.074
313.589
313.168
312.804
312.492
312.226
311.999
311.808
311.648
311.515
311.404
311.314
311.241
311.183
311.137
311.101
311.074
311.055
311.041
311.033
311.028
311.027
311.029
311.032
311.037
311.043
311.05
311.058
311.066
311.075
311.083
311.092
311.101
311.109
311.117
311.126
311.134
311.141
311.149
311.156
311.163
311.17
311.177
311.184
311.19
311.196
311.202
311.208
311.213
311.218
311.224
311.229
311.234
311.239
311.243
311.248
311.252
311.257
311.261
311.265
311.269
311.273
311.277
311.281
311.285
311.288
311.292
311.295
311.299
311.302
311.305
311.307
311.31
311.312
311.314
311.316
311.317
311.318
311.319
311.319
311.318
311.316
311.313
311.309
311.304
311.297
311.288
311.276
311.262
311.245
311.224
311.198
311.166
311.128
311.083
311.028
310.963
310.884
310.791
310.68
310.547
310.39
310.202
309.979
309.714
309.399
309.026
308.582
308.054
307.427
306.681
305.795
304.739
303.481
301.98
300.187
298.042
295.468
292.374
288.644
284.129
278.641
271.936
263.69
253.469
240.666
224.396
203.297
175.285
137.924
91.5923
46.2
17.0707
4.98471
1.29023
0.321303
0.0793213
0.0195529
0.00481897
0.00118767
0.000292711
7.21409e-05
1.77797e-05
4.38191e-06
1.07994e-06
2.66156e-07
6.55949e-08
1.61659e-08
3.98411e-09
9.81879e-10
2.42004e-10
5.96352e-11
1.46649e-11
3.60789e-12
9.19748e-13
2.32173e-13
6.43887e-14
-2.47443e-14
-6.96766e-14
-1.79967e-13
-1.72862e-13
-1.5378e-13
-1.03473e-13
-8.61258e-14
-4.136e-14
-2.21649e-14
-2.66376e-14
-4.77913e-14
-1.28429e-13
-7.74522e-14
-5.85367e-14
-3.72125e-14
-7.72776e-14
-7.38122e-14
-2.52399e-14
-1.77974e-14
-7.43158e-14
-2.24446e-14
-2.52598e-15
-6.14532e-14
-2.85508e-14
-1.06439e-13
-1.35422e-13
-7.34751e-14
-7.00057e-14
-7.71111e-14
-7.55469e-14
-5.2829e-14
-1.33633e-13
-1.26357e-13
-1.56185e-13
-7.01762e-14
-9.82648e-14
-4.5549e-14
-4.15226e-14
-3.24951e-15
-1.43705e-13
-1.67824e-13
-5.12608e-14
-5.97639e-14
-3.08306e-14
1.42762e-14
8.73102e-15
1.56659e-14
-4.96926e-14
-1.19423e-13
-8.05885e-14
-5.29995e-14
-4.4996e-14
-1.70779e-14
-7.06878e-14
-7.29795e-14
-1.36599e-13
-9.77652e-14
-7.01762e-14
-1.74089e-13
-1.83433e-13
-7.5884e-14
4.92051e-15
-6.8608e-14
-9.61971e-14
-3.96747e-14
-9.70297e-14
-4.76208e-14
-1.61222e-13
-1.29161e-13
-7.06798e-14
-8.83641e-14
-1.29664e-13
-7.81263e-14
-4.62311e-14
-1.31062e-13
-1.18025e-13
-7.69486e-14
-1.36599e-13
-7.60545e-14
-1.36084e-14
-6.20142e-14
-3.86181e-14
-5.69685e-14
-1.52719e-13
-1.06106e-13
-1.56912e-13
-1.64018e-13
-1.59537e-13
-9.1322e-14
-3.51407e-14
-7.69406e-14
-9.79238e-14
-1.44761e-13
-1.10908e-13
-9.67006e-14
-1.3761e-13
-1.09522e-13
-1.21835e-13
-1.4786e-13
-1.53572e-13
-7.74214e-15
-1.10371e-14
-1.16681e-13
-1.30892e-13
-1.66086e-13
-1.65415e-13
-2.15889e-13
-1.79626e-13
-1.97144e-13
-2.10851e-13
-1.5081e-13
-6.87785e-14
-8.18157e-14
-1.35031e-13
-1.67101e-13
-1.70408e-13
-1.63855e-13
-2.75036e-13
-2.93224e-13
-3.01731e-13
-2.0078e-13
-1.70782e-13
-1.6418e-13
-1.48235e-13
-1.98542e-13
-2.57859e-13
-2.44148e-13
-3.19919e-13
-2.82483e-13
-2.63064e-13
-3.25851e-13
-3.4163e-13
-3.73358e-13
-3.57579e-13
-3.74593e-13
-3.09901e-13
)
;

boundaryField
{
    sides
    {
        type            calculated;
        value           nonuniform List<scalar> 2(-2.40107e-13 2.09548e-12);
    }
    empty
    {
        type            empty;
    }
}


// ************************************************************************* //
