/*--------------------------------*- C++ -*----------------------------------*\
  =========                 |
  \\      /  F ield         | OpenFOAM: The Open Source CFD Toolbox
   \\    /   O peration     | Website:  https://openfoam.org
    \\  /    A nd           | Version:  13
     \\/     M anipulation  |
\*---------------------------------------------------------------------------*/
FoamFile
{
    format      ascii;
    class       volVectorField;
    location    "0.006";
    object      U;
}
// * * * * * * * * * * * * * * * * * * * * * * * * * * * * * * * * * * * * * //

dimensions      [0 1 -1 0 0 0 0];

internalField   nonuniform List<vector> 
1000
(
(-5.10555e-13 0 0)
(-4.81381e-13 0 0)
(-4.81381e-13 0 0)
(-3.50095e-13 0 0)
(-3.7927e-13 0 0)
(-3.06333e-13 0 0)
(-6.27254e-13 0 0)
(-3.64682e-13 0 0)
(-7.58539e-13 0 0)
(-3.64682e-13 0 0)
(-7.14777e-13 0 0)
(-5.68905e-13 0 0)
(-9.19e-13 0 0)
(-5.98079e-13 0 0)
(-1.06487e-12 0 0)
(-6.41841e-13 0 0)
(-1.02111e-12 0 0)
(-8.02301e-13 0 0)
(-1.05029e-12 0 0)
(-8.6065e-13 0 0)
(-9.33587e-13 0 0)
(-8.89825e-13 0 0)
(-8.02301e-13 0 0)
(-7.14777e-13 0 0)
(-5.83492e-13 0 0)
(-5.98079e-13 0 0)
(-2.77159e-13 0 0)
(-2.77159e-13 0 0)
(8.75238e-14 0 0)
(-1.02111e-13 0 0)
(3.7927e-13 0 0)
(-1.02111e-13 0 0)
(1.16698e-13 0 0)
(-2.33397e-13 0 0)
(1.45873e-14 0 0)
(4.37619e-14 0 0)
(4.08444e-13 0 0)
(2.91746e-13 0 0)
(5.68905e-13 0 0)
(6.41841e-13 0 0)
(6.85603e-13 0 0)
(4.23032e-13 0 0)
(4.23032e-13 0 0)
(1.16698e-13 0 0)
(1.6046e-13 0 0)
(-5.83492e-14 0 0)
(-7.29365e-14 0 0)
(-4.81381e-13 0 0)
(-3.06333e-13 0 0)
(-2.62571e-13 0 0)
(1.31286e-13 0 0)
(2.77159e-13 0 0)
(5.54317e-13 0 0)
(6.12666e-13 0 0)
(8.75238e-13 0 0)
(8.89825e-13 0 0)
(8.31476e-13 0 0)
(9.04412e-13 0 0)
(1.05029e-12 0 0)
(9.62762e-13 0 0)
(1.38579e-12 0 0)
(9.62762e-13 0 0)
(1.21075e-12 0 0)
(7.87714e-13 0 0)
(1.32744e-12 0 0)
(9.19e-13 0 0)
(1.22533e-12 0 0)
(9.33587e-13 0 0)
(1.10863e-12 0 0)
(9.48174e-13 0 0)
(7.43952e-13 0 0)
(9.19e-13 0 0)
(8.16889e-13 0 0)
(7.29365e-13 0 0)
(5.83492e-13 0 0)
(6.41841e-13 0 0)
(6.12666e-13 0 0)
(6.85603e-13 0 0)
(6.27254e-13 0 0)
(2.62571e-13 0 0)
(3.93857e-13 0 0)
(-1.89635e-13 0 0)
(1.16698e-13 0 0)
(-5.83492e-14 0 0)
(2.77159e-13 0 0)
(8.75238e-14 0 0)
(2.04222e-13 0 0)
(-5.83492e-14 0 0)
(7.29365e-14 0 0)
(4.37619e-14 0 0)
(-8.05239e-27 0 0)
(7.29365e-14 0 0)
(4.37619e-14 0 0)
(3.06333e-13 0 0)
(1.89635e-13 0 0)
(2.04222e-13 0 0)
(3.50095e-13 0 0)
(5.83492e-14 0 0)
(1.16698e-13 0 0)
(1.45873e-14 0 0)
(3.06333e-13 0 0)
(1.02111e-13 0 0)
(1.45873e-14 0 0)
(2.33397e-13 0 0)
(2.18809e-13 0 0)
(8.75238e-14 0 0)
(4.37619e-14 0 0)
(-5.33901e-27 0 0)
(-1.16698e-13 0 0)
(1.6046e-13 0 0)
(-8.75238e-14 0 0)
(1.89635e-13 0 0)
(-7.29365e-14 0 0)
(-5.83492e-14 0 0)
(-7.29365e-14 0 0)
(-4.37619e-14 0 0)
(-1.02111e-13 0 0)
(-8.75238e-14 0 0)
(5.83492e-14 0 0)
(-2.81466e-27 0 0)
(2.91746e-13 0 0)
(2.33397e-13 0 0)
(3.7927e-13 0 0)
(3.20921e-13 0 0)
(6.27254e-13 0 0)
(3.7927e-13 0 0)
(8.02301e-13 0 0)
(3.06333e-13 0 0)
(4.81381e-13 0 0)
(2.91746e-13 0 0)
(5.10555e-13 0 0)
(3.50095e-13 0 0)
(5.10555e-13 0 0)
(5.25143e-13 0 0)
(5.68905e-13 0 0)
(6.12666e-13 0 0)
(5.98079e-13 0 0)
(5.3973e-13 0 0)
(5.98079e-13 0 0)
(4.81381e-13 0 0)
(4.95968e-13 0 0)
(3.35508e-13 0 0)
(5.83492e-13 0 0)
(1.6046e-13 0 0)
(7.43952e-13 0 0)
(3.35508e-13 0 0)
(9.77349e-13 0 0)
(5.54317e-13 0 0)
(1.10863e-12 0 0)
(8.31476e-13 0 0)
(9.48174e-13 0 0)
(9.62762e-13 0 0)
(6.56428e-13 0 0)
(7.29365e-13 0 0)
(7.43952e-13 0 0)
(6.85603e-13 0 0)
(6.85603e-13 0 0)
(6.41841e-13 0 0)
(9.48174e-13 0 0)
(7.0019e-13 0 0)
(6.71016e-13 0 0)
(6.27254e-13 0 0)
(3.7927e-13 0 0)
(4.95968e-13 0 0)
(4.66793e-13 0 0)
(6.27254e-13 0 0)
(3.64682e-13 0 0)
(7.43952e-13 0 0)
(2.18809e-13 0 0)
(7.14777e-13 0 0)
(2.47984e-13 0 0)
(7.29365e-13 0 0)
(2.77159e-13 0 0)
(6.71016e-13 0 0)
(3.50095e-13 0 0)
(5.98079e-13 0 0)
(6.27254e-13 0 0)
(6.56428e-13 0 0)
(6.56428e-13 0 0)
(7.0019e-13 0 0)
(7.58539e-13 0 0)
(7.43952e-13 0 0)
(8.46063e-13 0 0)
(7.14777e-13 0 0)
(7.58539e-13 0 0)
(8.89825e-13 0 0)
(6.12666e-13 0 0)
(9.77349e-13 0 0)
(9.62762e-13 0 0)
(1.63378e-12 0 0)
(2.26103e-12 0 0)
(3.61765e-12 0 0)
(5.99538e-12 0 0)
(1.00944e-11 0 0)
(1.76798e-11 0 0)
(3.03416e-11 0 0)
(5.32582e-11 0 0)
(9.19729e-11 0 0)
(1.59804e-10 0 0)
(2.75685e-10 0 0)
(4.75035e-10 0 0)
(8.14205e-10 0 0)
(1.38986e-09 0 0)
(2.36183e-09 0 0)
(3.99488e-09 0 0)
(6.72592e-09 0 0)
(1.12706e-08 0 0)
(1.87964e-08 0 0)
(3.11961e-08 0 0)
(5.15238e-08 0 0)
(8.46796e-08 0 0)
(1.3848e-07 0 0)
(2.25332e-07 0 0)
(3.64801e-07 0 0)
(5.87588e-07 0 0)
(9.41563e-07 0 0)
(1.50095e-06 0 0)
(2.38012e-06 0 0)
(3.75431e-06 0 0)
(5.89025e-06 0 0)
(9.19154e-06 0 0)
(1.4265e-05 0 0)
(2.20169e-05 0 0)
(3.37927e-05 0 0)
(5.15755e-05 0 0)
(7.82699e-05 0 0)
(0.0001181 0 0)
(0.000177167 0 0)
(0.00026422 0 0)
(0.000391718 0 0)
(0.000577267 0 0)
(0.000845564 0 0)
(0.00123099 0 0)
(0.00178102 0 0)
(0.00256072 0 0)
(0.00365849 0 0)
(0.00519344 0 0)
(0.00732471 0 0)
(0.010263 0 0)
(0.0142848 0 0)
(0.0197493 0 0)
(0.0271191 0 0)
(0.0369836 0 0)
(0.0500859 0 0)
(0.0673532 0 0)
(0.0899291 0 0)
(0.119208 0 0)
(0.156868 0 0)
(0.204904 0 0)
(0.265655 0 0)
(0.341822 0 0)
(0.436476 0 0)
(0.553048 0 0)
(0.695303 0 0)
(0.867283 0 0)
(1.07322 0 0)
(1.31744 0 0)
(1.60419 0 0)
(1.93744 0 0)
(2.32071 0 0)
(2.75681 0 0)
(3.24769 0 0)
(3.79436 0 0)
(4.39681 0 0)
(5.05399 0 0)
(5.76387 0 0)
(6.52357 0 0)
(7.32952 0 0)
(8.17766 0 0)
(9.06367 0 0)
(9.98315 0 0)
(10.9318 0 0)
(11.9056 0 0)
(12.901 0 0)
(13.9146 0 0)
(14.9438 0 0)
(15.9861 0 0)
(17.0398 0 0)
(18.1032 0 0)
(19.1752 0 0)
(20.2548 0 0)
(21.3413 0 0)
(22.4341 0 0)
(23.5328 0 0)
(24.6371 0 0)
(25.7465 0 0)
(26.8611 0 0)
(27.9804 0 0)
(29.1045 0 0)
(30.2331 0 0)
(31.3661 0 0)
(32.5034 0 0)
(33.6448 0 0)
(34.7903 0 0)
(35.9397 0 0)
(37.093 0 0)
(38.25 0 0)
(39.4106 0 0)
(40.5747 0 0)
(41.7423 0 0)
(42.9133 0 0)
(44.0875 0 0)
(45.2649 0 0)
(46.4454 0 0)
(47.6289 0 0)
(48.8154 0 0)
(50.0048 0 0)
(51.1969 0 0)
(52.3919 0 0)
(53.5895 0 0)
(54.7897 0 0)
(55.9925 0 0)
(57.1977 0 0)
(58.4054 0 0)
(59.6155 0 0)
(60.8279 0 0)
(62.0426 0 0)
(63.2595 0 0)
(64.4785 0 0)
(65.6997 0 0)
(66.9229 0 0)
(68.1482 0 0)
(69.3754 0 0)
(70.6046 0 0)
(71.8356 0 0)
(73.0685 0 0)
(74.3031 0 0)
(75.5395 0 0)
(76.7777 0 0)
(78.0174 0 0)
(79.2589 0 0)
(80.5019 0 0)
(81.7464 0 0)
(82.9925 0 0)
(84.2401 0 0)
(85.4891 0 0)
(86.7394 0 0)
(87.9912 0 0)
(89.2443 0 0)
(90.4987 0 0)
(91.7543 0 0)
(93.0112 0 0)
(94.2693 0 0)
(95.5285 0 0)
(96.7889 0 0)
(98.0504 0 0)
(99.3129 0 0)
(100.577 0 0)
(101.841 0 0)
(103.107 0 0)
(104.373 0 0)
(105.641 0 0)
(106.909 0 0)
(108.178 0 0)
(109.448 0 0)
(110.719 0 0)
(111.99 0 0)
(113.263 0 0)
(114.536 0 0)
(115.809 0 0)
(117.084 0 0)
(118.359 0 0)
(119.634 0 0)
(120.911 0 0)
(122.187 0 0)
(123.465 0 0)
(124.742 0 0)
(126.02 0 0)
(127.299 0 0)
(128.578 0 0)
(129.858 0 0)
(131.137 0 0)
(132.417 0 0)
(133.698 0 0)
(134.979 0 0)
(136.26 0 0)
(137.541 0 0)
(138.822 0 0)
(140.104 0 0)
(141.385 0 0)
(142.667 0 0)
(143.949 0 0)
(145.231 0 0)
(146.512 0 0)
(147.794 0 0)
(149.076 0 0)
(150.358 0 0)
(151.64 0 0)
(152.921 0 0)
(154.203 0 0)
(155.484 0 0)
(156.765 0 0)
(158.045 0 0)
(159.326 0 0)
(160.606 0 0)
(161.886 0 0)
(163.165 0 0)
(164.444 0 0)
(165.722 0 0)
(167 0 0)
(168.278 0 0)
(169.555 0 0)
(170.831 0 0)
(172.106 0 0)
(173.381 0 0)
(174.656 0 0)
(175.929 0 0)
(177.201 0 0)
(178.473 0 0)
(179.744 0 0)
(181.014 0 0)
(182.283 0 0)
(183.551 0 0)
(184.817 0 0)
(186.083 0 0)
(187.347 0 0)
(188.61 0 0)
(189.872 0 0)
(191.132 0 0)
(192.391 0 0)
(193.649 0 0)
(194.905 0 0)
(196.159 0 0)
(197.412 0 0)
(198.663 0 0)
(199.912 0 0)
(201.159 0 0)
(202.405 0 0)
(203.648 0 0)
(204.889 0 0)
(206.128 0 0)
(207.365 0 0)
(208.599 0 0)
(209.831 0 0)
(211.061 0 0)
(212.288 0 0)
(213.512 0 0)
(214.733 0 0)
(215.952 0 0)
(217.167 0 0)
(218.379 0 0)
(219.589 0 0)
(220.794 0 0)
(221.997 0 0)
(223.195 0 0)
(224.39 0 0)
(225.582 0 0)
(226.769 0 0)
(227.952 0 0)
(229.131 0 0)
(230.305 0 0)
(231.475 0 0)
(232.641 0 0)
(233.801 0 0)
(234.957 0 0)
(236.107 0 0)
(237.252 0 0)
(238.392 0 0)
(239.526 0 0)
(240.654 0 0)
(241.775 0 0)
(242.891 0 0)
(244 0 0)
(245.103 0 0)
(246.198 0 0)
(247.287 0 0)
(248.368 0 0)
(249.442 0 0)
(250.508 0 0)
(251.566 0 0)
(252.615 0 0)
(253.657 0 0)
(254.689 0 0)
(255.712 0 0)
(256.727 0 0)
(257.731 0 0)
(258.726 0 0)
(259.711 0 0)
(260.685 0 0)
(261.649 0 0)
(262.602 0 0)
(263.543 0 0)
(264.474 0 0)
(265.392 0 0)
(266.298 0 0)
(267.192 0 0)
(268.074 0 0)
(268.942 0 0)
(269.797 0 0)
(270.639 0 0)
(271.467 0 0)
(272.281 0 0)
(273.08 0 0)
(273.865 0 0)
(274.635 0 0)
(275.39 0 0)
(276.129 0 0)
(276.853 0 0)
(277.562 0 0)
(278.254 0 0)
(278.929 0 0)
(279.589 0 0)
(280.232 0 0)
(280.858 0 0)
(281.467 0 0)
(282.059 0 0)
(282.634 0 0)
(283.192 0 0)
(283.733 0 0)
(284.256 0 0)
(284.763 0 0)
(285.252 0 0)
(285.723 0 0)
(286.178 0 0)
(286.615 0 0)
(287.035 0 0)
(287.439 0 0)
(287.826 0 0)
(288.196 0 0)
(288.55 0 0)
(288.888 0 0)
(289.21 0 0)
(289.517 0 0)
(289.809 0 0)
(290.085 0 0)
(290.347 0 0)
(290.595 0 0)
(290.829 0 0)
(291.049 0 0)
(291.257 0 0)
(291.452 0 0)
(291.635 0 0)
(291.806 0 0)
(291.966 0 0)
(292.115 0 0)
(292.253 0 0)
(292.382 0 0)
(292.501 0 0)
(292.611 0 0)
(292.713 0 0)
(292.807 0 0)
(292.893 0 0)
(292.972 0 0)
(293.044 0 0)
(293.109 0 0)
(293.169 0 0)
(293.223 0 0)
(293.273 0 0)
(293.317 0 0)
(293.357 0 0)
(293.392 0 0)
(293.424 0 0)
(293.452 0 0)
(293.478 0 0)
(293.5 0 0)
(293.519 0 0)
(293.536 0 0)
(293.551 0 0)
(293.564 0 0)
(293.575 0 0)
(293.585 0 0)
(293.593 0 0)
(293.599 0 0)
(293.605 0 0)
(293.609 0 0)
(293.613 0 0)
(293.616 0 0)
(293.618 0 0)
(293.619 0 0)
(293.62 0 0)
(293.621 0 0)
(293.621 0 0)
(293.621 0 0)
(293.62 0 0)
(293.619 0 0)
(293.618 0 0)
(293.617 0 0)
(293.616 0 0)
(293.615 0 0)
(293.613 0 0)
(293.612 0 0)
(293.61 0 0)
(293.609 0 0)
(293.607 0 0)
(293.606 0 0)
(293.604 0 0)
(293.603 0 0)
(293.601 0 0)
(293.6 0 0)
(293.598 0 0)
(293.597 0 0)
(293.596 0 0)
(293.594 0 0)
(293.593 0 0)
(293.592 0 0)
(293.591 0 0)
(293.59 0 0)
(293.589 0 0)
(293.588 0 0)
(293.587 0 0)
(293.586 0 0)
(293.585 0 0)
(293.584 0 0)
(293.583 0 0)
(293.583 0 0)
(293.582 0 0)
(293.581 0 0)
(293.581 0 0)
(293.58 0 0)
(293.58 0 0)
(293.579 0 0)
(293.579 0 0)
(293.579 0 0)
(293.578 0 0)
(293.578 0 0)
(293.578 0 0)
(293.578 0 0)
(293.578 0 0)
(293.578 0 0)
(293.579 0 0)
(293.579 0 0)
(293.58 0 0)
(293.58 0 0)
(293.581 0 0)
(293.582 0 0)
(293.583 0 0)
(293.585 0 0)
(293.587 0 0)
(293.589 0 0)
(293.592 0 0)
(293.596 0 0)
(293.6 0 0)
(293.604 0 0)
(293.61 0 0)
(293.617 0 0)
(293.624 0 0)
(293.633 0 0)
(293.644 0 0)
(293.656 0 0)
(293.669 0 0)
(293.685 0 0)
(293.702 0 0)
(293.722 0 0)
(293.745 0 0)
(293.77 0 0)
(293.798 0 0)
(293.828 0 0)
(293.862 0 0)
(293.899 0 0)
(293.939 0 0)
(293.982 0 0)
(294.029 0 0)
(294.078 0 0)
(294.131 0 0)
(294.187 0 0)
(294.245 0 0)
(294.306 0 0)
(294.369 0 0)
(294.434 0 0)
(294.501 0 0)
(294.568 0 0)
(294.636 0 0)
(294.704 0 0)
(294.772 0 0)
(294.838 0 0)
(294.902 0 0)
(294.964 0 0)
(295.023 0 0)
(295.078 0 0)
(295.129 0 0)
(295.175 0 0)
(295.216 0 0)
(295.25 0 0)
(295.278 0 0)
(295.299 0 0)
(295.313 0 0)
(295.32 0 0)
(295.319 0 0)
(295.31 0 0)
(295.294 0 0)
(295.27 0 0)
(295.24 0 0)
(295.202 0 0)
(295.158 0 0)
(295.108 0 0)
(295.053 0 0)
(294.994 0 0)
(294.93 0 0)
(294.863 0 0)
(294.794 0 0)
(294.723 0 0)
(294.651 0 0)
(294.578 0 0)
(294.507 0 0)
(294.436 0 0)
(294.366 0 0)
(294.299 0 0)
(294.234 0 0)
(294.173 0 0)
(294.114 0 0)
(294.058 0 0)
(294.006 0 0)
(293.958 0 0)
(293.913 0 0)
(293.872 0 0)
(293.835 0 0)
(293.8 0 0)
(293.769 0 0)
(293.742 0 0)
(293.717 0 0)
(293.695 0 0)
(293.675 0 0)
(293.658 0 0)
(293.643 0 0)
(293.63 0 0)
(293.618 0 0)
(293.609 0 0)
(293.6 0 0)
(293.593 0 0)
(293.588 0 0)
(293.583 0 0)
(293.579 0 0)
(293.575 0 0)
(293.573 0 0)
(293.571 0 0)
(293.569 0 0)
(293.568 0 0)
(293.567 0 0)
(293.566 0 0)
(293.566 0 0)
(293.566 0 0)
(293.566 0 0)
(293.566 0 0)
(293.567 0 0)
(293.567 0 0)
(293.567 0 0)
(293.568 0 0)
(293.569 0 0)
(293.569 0 0)
(293.57 0 0)
(293.571 0 0)
(293.571 0 0)
(293.572 0 0)
(293.573 0 0)
(293.574 0 0)
(293.574 0 0)
(293.575 0 0)
(293.576 0 0)
(293.577 0 0)
(293.578 0 0)
(293.578 0 0)
(293.579 0 0)
(293.58 0 0)
(293.581 0 0)
(293.582 0 0)
(293.583 0 0)
(293.584 0 0)
(293.584 0 0)
(293.585 0 0)
(293.586 0 0)
(293.587 0 0)
(293.588 0 0)
(293.589 0 0)
(293.59 0 0)
(293.59 0 0)
(293.591 0 0)
(293.592 0 0)
(293.593 0 0)
(293.594 0 0)
(293.595 0 0)
(293.596 0 0)
(293.596 0 0)
(293.597 0 0)
(293.598 0 0)
(293.599 0 0)
(293.599 0 0)
(293.6 0 0)
(293.6 0 0)
(293.6 0 0)
(293.601 0 0)
(293.601 0 0)
(293.6 0 0)
(293.6 0 0)
(293.599 0 0)
(293.598 0 0)
(293.596 0 0)
(293.594 0 0)
(293.592 0 0)
(293.588 0 0)
(293.584 0 0)
(293.578 0 0)
(293.572 0 0)
(293.564 0 0)
(293.554 0 0)
(293.542 0 0)
(293.527 0 0)
(293.51 0 0)
(293.489 0 0)
(293.464 0 0)
(293.434 0 0)
(293.399 0 0)
(293.356 0 0)
(293.306 0 0)
(293.246 0 0)
(293.174 0 0)
(293.089 0 0)
(292.988 0 0)
(292.869 0 0)
(292.726 0 0)
(292.558 0 0)
(292.357 0 0)
(292.12 0 0)
(291.838 0 0)
(291.504 0 0)
(291.107 0 0)
(290.636 0 0)
(290.077 0 0)
(289.412 0 0)
(288.622 0 0)
(287.681 0 0)
(286.561 0 0)
(285.224 0 0)
(283.628 0 0)
(281.717 0 0)
(279.425 0 0)
(276.668 0 0)
(273.342 0 0)
(269.313 0 0)
(264.41 0 0)
(258.41 0 0)
(251.015 0 0)
(241.821 0 0)
(230.257 0 0)
(215.481 0 0)
(196.189 0 0)
(170.357 0 0)
(135.448 0 0)
(91.2541 0 0)
(46.9254 0 0)
(17.6397 0 0)
(5.25773 0 0)
(1.39051 0 0)
(0.35001 0 0)
(0.0867251 0 0)
(0.0214009 0 0)
(0.00527596 0 0)
(0.0013004 0 0)
(0.000320499 0 0)
(7.89899e-05 0 0)
(1.94676e-05 0 0)
(4.79791e-06 0 0)
(1.18247e-06 0 0)
(2.91424e-07 0 0)
(7.18216e-08 0 0)
(1.77008e-08 0 0)
(4.3621e-09 0 0)
(1.0753e-09 0 0)
(2.64876e-10 0 0)
(6.53512e-11 0 0)
(1.59148e-11 0 0)
(3.99692e-12 0 0)
(1.06487e-12 0 0)
(1.89635e-13 0 0)
(1.75048e-13 0 0)
(-2.33397e-13 0 0)
(-1.02111e-13 0 0)
(-4.81381e-13 0 0)
(-3.20921e-13 0 0)
(-2.47984e-13 0 0)
(-1.31286e-13 0 0)
(-2.91746e-13 0 0)
(2.04222e-13 0 0)
(-3.20921e-13 0 0)
(2.33397e-13 0 0)
(-4.08445e-13 0 0)
(-7.29366e-14 0 0)
(-2.1881e-13 0 0)
(5.83493e-14 0 0)
(-2.77159e-13 0 0)
(4.3762e-14 0 0)
(-3.35508e-13 0 0)
(1.89635e-13 0 0)
(-2.77159e-13 0 0)
(4.3762e-14 0 0)
(-1.16699e-13 0 0)
(7.29366e-14 0 0)
(-2.04222e-13 0 0)
(1.33791e-27 0 0)
(-3.35508e-13 0 0)
(-1.75048e-13 0 0)
(-1.02111e-13 0 0)
(-1.75048e-13 0 0)
(-2.1881e-13 0 0)
(-4.3762e-14 0 0)
(-1.6046e-13 0 0)
(-3.7927e-13 0 0)
(-8.75239e-14 0 0)
(-4.52207e-13 0 0)
(4.3762e-14 0 0)
(-3.06334e-13 0 0)
(2.91746e-14 0 0)
(-7.29366e-14 0 0)
(-2.91746e-14 0 0)
(-3.7927e-13 0 0)
(-2.04222e-13 0 0)
(-5.83493e-14 0 0)
(-1.89635e-13 0 0)
(1.02111e-13 0 0)
(-7.29366e-14 0 0)
(1.45873e-13 0 0)
(-1.16699e-13 0 0)
(-5.83493e-14 0 0)
(-3.35508e-13 0 0)
(-7.29366e-14 0 0)
(-8.75239e-14 0 0)
(-2.91746e-14 0 0)
(-1.45873e-14 0 0)
(-2.62572e-13 0 0)
(-2.91746e-14 0 0)
(-4.3762e-13 0 0)
(2.30348e-26 0 0)
(-3.20921e-13 0 0)
(-3.93858e-13 0 0)
(-1.89635e-13 0 0)
(-4.3762e-14 0 0)
(1.45873e-14 0 0)
(-2.1881e-13 0 0)
(-1.31286e-13 0 0)
(-8.75239e-14 0 0)
(-1.75048e-13 0 0)
(-7.29366e-14 0 0)
(-3.93858e-13 0 0)
(-1.31286e-13 0 0)
(-1.45873e-13 0 0)
(-2.33397e-13 0 0)
(-2.47984e-13 0 0)
(1.45873e-14 0 0)
(-2.47984e-13 0 0)
(-2.33397e-13 0 0)
(-1.75048e-13 0 0)
(-1.89635e-13 0 0)
(-2.91746e-13 0 0)
(-1.45873e-14 0 0)
(-1.45873e-14 0 0)
(-1.89635e-13 0 0)
(-5.83493e-14 0 0)
(-1.6046e-13 0 0)
(-3.06334e-13 0 0)
(-2.1881e-13 0 0)
(-3.35508e-13 0 0)
(-3.20921e-13 0 0)
(-2.47984e-13 0 0)
(-1.02111e-13 0 0)
(-1.16699e-13 0 0)
(-2.04222e-13 0 0)
(-2.04222e-13 0 0)
(-3.35508e-13 0 0)
(-8.75239e-14 0 0)
(-3.64683e-13 0 0)
(-1.45873e-14 0 0)
(-5.25143e-13 0 0)
(-1.7519e-26 0 0)
(-4.95969e-13 0 0)
(-1.60896e-26 0 0)
(-8.75239e-14 0 0)
(2.91746e-14 0 0)
(-4.3762e-13 0 0)
(-8.75239e-14 0 0)
(-4.81381e-13 0 0)
(-3.06334e-13 0 0)
(-4.66794e-13 0 0)
(-2.47984e-13 0 0)
(-5.68905e-13 0 0)
(-2.47984e-13 0 0)
(-2.33397e-13 0 0)
(-1.02111e-13 0 0)
(-3.50096e-13 0 0)
(-1.02111e-13 0 0)
(-4.95969e-13 0 0)
(-2.04222e-13 0 0)
(-5.10556e-13 0 0)
(-5.25143e-13 0 0)
(-5.83493e-13 0 0)
(-5.10556e-13 0 0)
(-2.77159e-13 0 0)
(-4.66794e-13 0 0)
(-1.89635e-13 0 0)
(-4.52207e-13 0 0)
(-3.35508e-13 0 0)
(-6.12667e-13 0 0)
(-5.25143e-13 0 0)
(-5.9808e-13 0 0)
(-5.68905e-13 0 0)
(-4.95969e-13 0 0)
(-7.5854e-13 0 0)
(-5.39731e-13 0 0)
(-7.87715e-13 0 0)
(-5.9808e-13 0 0)
(-7.43953e-13 0 0)
(-4.66794e-13 0 0)
)
;

boundaryField
{
    sides
    {
        type            zeroGradient;
    }
    empty
    {
        type            empty;
    }
}


// ************************************************************************* //
