/*--------------------------------*- C++ -*----------------------------------*\
  =========                 |
  \\      /  F ield         | OpenFOAM: The Open Source CFD Toolbox
   \\    /   O peration     | Website:  https://openfoam.org
    \\  /    A nd           | Version:  13
     \\/     M anipulation  |
\*---------------------------------------------------------------------------*/
FoamFile
{
    format      ascii;
    class       volSymmTensorField;
    location    "45.899199";
    object      UPrime2Mean;
}
// * * * * * * * * * * * * * * * * * * * * * * * * * * * * * * * * * * * * * //

dimensions      [0 2 -2 0 0 0 0];

internalField   nonuniform List<symmTensor> 
17140
(
(5.0910407e-12 -2.8260377e-10 -1.0476432e-27 1.7305365e-08 1.3719192e-26 6.5438018e-41)
(5.6056841e-10 -6.1414092e-09 -4.2505607e-28 1.6473683e-07 2.7222296e-27 5.6115037e-43)
(4.9901026e-09 -2.8332592e-08 6.7506308e-26 4.9989641e-07 -2.7421901e-25 2.4453263e-39)
(2.3404032e-08 -8.4386268e-08 -1.4166325e-25 1.0753936e-06 4.1200928e-25 2.95385e-39)
(7.8118414e-08 -1.9940569e-07 2.8038235e-26 1.9540327e-06 -6.2582461e-26 4.034443e-41)
(2.1366083e-07 -4.0989516e-07 -1.4454194e-25 3.2098585e-06 2.5841335e-25 4.3181525e-40)
(5.1253209e-07 -7.6706418e-07 -3.6590691e-25 4.9290445e-06 5.3658716e-25 1.2227946e-39)
(1.1197091e-06 -1.3407465e-06 2.5969879e-25 7.2104291e-06 -3.1712106e-25 2.9111424e-40)
(2.2801162e-06 -2.2238158e-06 1.206878e-24 1.016547e-05 -1.2400512e-24 3.114518e-39)
(4.3944334e-06 -3.5366428e-06 4.1208825e-24 1.391738e-05 -3.5910477e-24 1.8704865e-38)
(8.1001997e-06 -5.430948e-06 -8.3728423e-24 1.8599136e-05 6.2263746e-24 4.1043043e-38)
(1.438671e-05 -8.0920698e-06 1.0096622e-23 2.4350049e-05 -6.4383078e-24 3.2512835e-38)
(2.47534e-05 -1.1738246e-05 2.0707344e-24 3.1310605e-05 -1.1365176e-24 7.5931104e-40)
(4.1421533e-05 -1.6615073e-05 -1.5514443e-23 3.9615352e-05 7.3555848e-24 2.419581e-38)
(6.7607319e-05 -2.2983081e-05 2.2670853e-24 4.9383814e-05 -9.3050312e-25 2.9690457e-40)
(0.00010785989 -3.109645e-05 -2.3438247e-23 6.0709615e-05 8.3478112e-24 1.8527735e-38)
(0.00016845895 -4.1171829e-05 1.1258486e-24 7.3648368e-05 -3.4873936e-25 2.5495027e-41)
(0.00025785418 -5.3348162e-05 -3.3228138e-25 8.8205128e-05 8.9160185e-26 1.266903e-42)
(0.00038711279 -6.7641843e-05 -2.9510852e-23 0.00010432245 6.9242792e-24 6.3164629e-39)
(0.00057032848 -8.3905997e-05 4.8387e-23 0.00012187001 -9.9023998e-24 1.0484929e-38)
(0.00082494037 -0.00010180714 -2.9250113e-23 0.0001406364 5.2227759e-24 2.3940977e-39)
(0.0011719244 -0.00012083403 6.8872585e-24 0.00016032342 -1.0764595e-24 8.5582726e-41)
(0.0016359208 -0.00014035296 6.2544878e-23 0.00018054321 -8.5275727e-24 4.5449081e-39)
(0.0022455742 -0.0001597154 -7.5758641e-23 0.0002008208 9.0289801e-24 4.4067161e-39)
(0.0030333508 -0.00017834337 -1.4467327e-22 0.00022060866 1.5073295e-23 1.0868809e-38)
(0.004035753 -0.00019572154 1.3769366e-22 0.00023931665 -1.25518e-23 6.8239352e-39)
(0.0052960755 -0.00021168467 7.9520598e-22 0.00025633419 -6.3284758e-23 1.6003822e-37)
(0.0068662415 -0.00022611989 1.0951184e-22 0.0002710765 -7.5853467e-24 2.1620001e-39)
(0.0088064116 -0.0002387187 -1.105681e-21 0.00028304432 6.6763476e-23 1.6260548e-37)
(0.011187066 -0.00024948385 -2.9762703e-22 0.0002919142 1.556696e-23 8.7029241e-39)
(0.014092013 -0.00025836817 -1.211839e-21 0.00029763584 5.4779903e-23 1.0891016e-37)
(0.017618993 -0.00026496502 1.8111182e-21 0.00030051037 -7.0467849e-23 1.8614033e-37)
(0.02188043 -0.00026853025 -5.3545838e-22 0.00030117833 1.7810239e-23 1.2509902e-38)
(0.027003219 -0.00026791056 -2.8761874e-22 0.00030045815 8.1581906e-24 2.8371622e-39)
(0.033127183 -0.0002615402 -3.1854325e-21 0.000299116 7.6187876e-23 2.7317211e-37)
(0.040401798 -0.00024744376 1.5595349e-21 0.00029772991 -3.1330309e-23 5.2562592e-38)
(0.048980278 -0.00022319724 -2.6237085e-21 0.00029670222 4.3678179e-23 1.194634e-37)
(0.059009642 -0.00018584633 -1.9696224e-21 0.000296361 2.6848969e-23 5.4822937e-38)
(0.070614957 -0.00013179546 -9.9620485e-22 0.00029709205 1.0920537e-23 1.1517576e-38)
(0.083876329 -5.6751703e-05 3.3030225e-21 0.00029944711 -2.8553909e-23 1.0593987e-37)
(0.098798437 4.4123945e-05 6.8025535e-21 0.0003042212 -4.4730181e-23 3.7728983e-37)
(0.11527274 0.00017588221 6.6875217e-21 0.00031247669 -3.1800879e-23 3.1004017e-37)
(0.13303717 0.00034298219 3.1397719e-21 0.00032552522 -9.8832314e-24 5.8851003e-38)
(0.15165351 0.00054847892 -1.6391044e-20 0.00034497479 2.7910351e-23 1.3850033e-36)
(0.17048711 0.00079206994 -1.273662e-20 0.00037284827 5.384343e-24 7.3408232e-37)
(0.18874828 0.001066418 3.2979928e-21 0.00041175736 2.3623392e-24 4.384825e-38)
(0.20564189 0.0013634422 -2.3473647e-20 0.00046536387 -4.101873e-23 2.0000141e-36)
(0.2202587 0.0016726504 -8.2806415e-21 0.00053883451 -2.2153371e-23 2.2726636e-37)
(0.23178255 0.0019810487 8.6909747e-21 0.00063943384 3.0557823e-23 2.3207623e-37)
(0.2396908 0.0022729235 2.1744772e-20 0.00077779348 9.2901184e-23 1.3664695e-36)
(0.24363504 0.0025320017 -1.3573361e-20 0.0009700119 -6.7062865e-23 5.0879921e-37)
(0.2434127 0.0027471254 -8.6177123e-21 0.0012411496 -4.7595236e-23 1.9901266e-37)
(0.23911205 0.0029232244 2.2445353e-20 0.00162738 1.3696536e-22 1.327967e-36)
(0.23115827 0.0030439594 1.0515079e-20 0.0021796288 7.0051529e-23 2.9110791e-37)
(0.22039334 0.003071292 7.3706076e-21 0.0029630679 5.3416087e-23 1.4519356e-37)
(0.20810564 0.002988173 -5.6796754e-21 0.004055397 -4.5670583e-23 8.8084624e-38)
(0.19578999 0.0028012308 1.4828655e-20 0.0055255761 1.3369612e-22 6.3063922e-37)
(0.18466625 0.0025521638 1.1958753e-20 0.0074450929 1.2760938e-22 4.3335601e-37)
(0.1756875 0.0022939493 2.8639023e-21 0.0099592154 3.7930856e-23 2.6830407e-38)
(0.16882811 0.0019852735 -7.0262115e-21 0.013501603 -1.2143167e-22 1.7626567e-37)
(0.16307373 0.0013725971 -5.1304784e-21 0.019006378 -1.1330997e-22 1.0705628e-37)
(0.15753684 0.0002405311 -1.7485976e-20 0.026547569 -4.284198e-22 1.456244e-36)
(0.14861647 -0.00012706822 -2.3062321e-21 0.032654182 -5.1393224e-23 3.1196248e-38)
(0.13835512 0.00058406447 1.7284447e-20 0.034655999 2.8815377e-22 2.2025482e-36)
(0.12049999 0.001446307 -1.1419412e-20 0.034337939 -1.2281324e-22 1.3159862e-36)
(3.478745e-10 -8.1341965e-09 1.2158538e-27 1.9023456e-07 -2.2984177e-26 5.2993968e-42)
(5.5685454e-09 -9.9748149e-08 -3.6766057e-25 1.7962604e-06 5.557168e-24 6.7333525e-38)
(2.5077999e-08 -3.6609044e-07 6.1305712e-25 5.4098351e-06 -7.5176044e-24 5.3299525e-38)
(7.8264894e-08 -9.4115039e-07 -2.733551e-25 1.1541351e-05 2.7810608e-24 3.9592581e-39)
(2.0039731e-07 -2.0134011e-06 -8.6325921e-25 2.0775311e-05 7.4285571e-24 1.6885467e-38)
(4.5428751e-07 -3.8519019e-06 2.4179824e-24 3.3765985e-05 -1.785548e-23 6.1604659e-38)
(9.4735928e-07 -6.8301204e-06 -3.5885581e-24 5.1226725e-05 2.2935573e-23 6.6878816e-38)
(1.8575237e-06 -1.1454356e-05 4.4013227e-25 7.3909454e-05 -2.4478764e-24 5.1741598e-40)
(3.4720253e-06 -1.839701e-05 -1.8833575e-24 0.00010257147 9.1490185e-24 5.0359748e-39)
(6.2442717e-06 -2.8532003e-05 -4.3544127e-26 0.00013792662 1.8540336e-25 1.4361939e-42)
(1.0875204e-05 -4.2968991e-05 -1.1377273e-23 0.0001805782 4.2494128e-23 5.5909739e-38)
(1.8427173e-05 -6.3080949e-05 2.3961497e-23 0.00023093259 -7.8702196e-23 1.4076363e-37)
(3.0479317e-05 -9.0517024e-05 2.6037907e-24 0.00028909547 -7.5315549e-24 9.5684431e-40)
(4.9333464e-05 -0.0001271896 -3.3568647e-23 0.00035475671 8.5604511e-23 9.2785904e-38)
(7.827791e-05 -0.00017522243 1.3374061e-23 0.00042707658 -3.0092038e-23 8.7001552e-39)
(0.00012191204 -0.00023684638 1.0955247e-23 0.00050459358 -2.1759793e-23 3.481652e-39)
(0.00018652673 -0.00031423304 -8.9106499e-23 0.00058518206 1.5626851e-22 1.3873859e-37)
(0.00028052378 -0.00040926659 3.694248e-22 0.00066609356 -5.7207794e-22 1.4545294e-36)
(0.00041484331 -0.00052327274 -2.922774e-22 0.00074411344 3.9962474e-22 5.6175561e-37)
(0.00060335646 -0.00065675032 4.391539e-22 0.00081585072 -5.3005562e-22 7.9208144e-37)
(0.0008631768 -0.00080918055 -8.0624564e-22 0.00087814881 8.5895972e-22 1.6932775e-36)
(0.0012148574 -0.00097900795 2.4335961e-22 0.000928559 -2.2883352e-22 9.9433002e-38)
(0.0016825321 -0.0011638967 1.2216611e-22 0.00096576996 -1.0139039e-22 1.6455288e-38)
(0.0022942716 -0.0013613349 -4.8275658e-22 0.00098985999 3.5347123e-22 1.7109032e-37)
(0.0030820264 -0.0015692432 2.0727364e-21 0.0010022752 -1.3393912e-21 2.1515329e-36)
(0.0040816627 -0.0017864321 3.6703062e-22 0.0010053963 -2.0909616e-22 4.65555e-38)
(0.0053357183 -0.0020131443 -2.2207078e-21 0.0010015357 1.1169057e-21 1.2171637e-36)
(0.0068954772 -0.0022507311 2.8968968e-21 0.0009926595 -1.2838184e-21 1.4924304e-36)
(0.0088201794 -0.0025005937 -4.5707356e-22 0.00098049416 1.78571e-22 2.7626678e-38)
(0.011179165 -0.002764622 -5.1696423e-21 0.00096617028 1.7707655e-21 2.5970624e-36)
(0.01405483 -0.0030446062 6.0973647e-22 0.00095023865 -1.8323252e-22 2.7526298e-38)
(0.017543156 -0.0033413258 5.3399592e-21 0.00093295149 -1.4011968e-21 1.597155e-36)
(0.021754356 -0.003654214 1.5741557e-22 0.00091445252 -3.5738232e-23 1.0039914e-39)
(0.026812568 -0.0039809654 -5.0898709e-21 0.00089481839 1.0151609e-21 8.7792535e-37)
(0.032854179 -0.0043172346 6.3796885e-21 0.00087399548 -1.1068798e-21 1.09226e-36)
(0.040024382 -0.0046562417 -3.2195645e-21 0.00085175922 4.8503855e-22 2.2183036e-37)
(0.048471024 -0.0049880793 4.2067052e-21 0.00082774761 -5.5002373e-22 3.0837247e-37)
(0.058334371 -0.0052986868 1.4874116e-20 0.00080156757 -1.6827056e-21 3.1329099e-36)
(0.069731107 -0.0055686635 3.6888453e-21 0.0007729779 -3.6022745e-22 1.5794728e-37)
(0.082731034 -0.0057723307 1.5814409e-20 0.00074214968 -1.3299075e-21 2.4243581e-36)
(0.097326268 -0.0058775894 -2.207313e-20 0.00071001686 1.5922688e-21 3.9906248e-36)
(0.11339346 -0.0058473809 -2.2089592e-20 0.000678717 1.3590076e-21 3.3852831e-36)
(0.13065389 -0.0056435512 -4.1038514e-21 0.00065207681 2.1382946e-22 9.9099786e-38)
(0.14864774 -0.0052335184 3.4842321e-20 0.00063604633 -1.5214857e-21 6.3192595e-36)
(0.16671589 -0.004600415 -1.7605668e-20 0.00063889922 6.3599738e-22 1.4067631e-36)
(0.18406191 -0.0037566517 -6.4534158e-21 0.00067058381 1.897098e-22 1.6773531e-37)
(0.19981786 -0.0027339024 3.5886293e-21 0.00074024277 -8.3923328e-23 4.7698881e-38)
(0.2131263 -0.0015773875 1.1693723e-20 0.00085321087 -2.0919324e-22 4.5867131e-37)
(0.22324634 -0.0003635384 -5.8923516e-21 0.0010121828 7.7031584e-23 1.0830229e-37)
(0.2296288 0.00083607639 1.0935359e-20 0.0012213414 -9.4725899e-23 3.5065611e-37)
(0.23196742 0.0019719225 6.6729183e-20 0.001491589 -3.1759942e-22 1.2513181e-35)
(0.23018225 0.0029962013 3.2019111e-21 0.0018471307 -3.7818225e-24 2.8106986e-38)
(0.22449105 0.0038536299 -1.4413491e-20 0.0023257462 -2.7803931e-23 5.612326e-37)
(0.21546542 0.0044723 3.1774909e-20 0.0029780244 1.5627406e-22 2.732287e-36)
(0.20416176 0.0047745021 -2.6682674e-20 0.0038627966 -2.076538e-22 1.9587488e-36)
(0.19192548 0.0047306612 7.3919631e-20 0.0050430725 7.865533e-22 1.5505746e-35)
(0.18034311 0.0043868012 2.0458738e-20 0.0065679827 2.8553456e-22 1.2410636e-36)
(0.17068375 0.0038422629 -5.5399375e-20 0.0084946288 -9.88535e-22 9.6888982e-36)
(0.16377144 0.0032470068 9.0074102e-21 0.010966746 2.1403072e-22 2.7554647e-37)
(0.1594112 0.0025277267 9.6998765e-21 0.014415825 3.0484239e-22 3.5478417e-37)
(0.15640299 0.001196387 1.8093296e-21 0.019905644 7.4522576e-23 1.4163034e-38)
(0.15341585 -0.00082810324 -2.2093363e-20 0.02715186 -1.099361e-21 2.4873901e-36)
(0.1459789 -0.0018969791 3.8547573e-20 0.032554852 2.0377391e-21 9.424756e-36)
(0.13674204 -0.0015827185 1.0234017e-20 0.034131986 5.4456415e-22 8.4437386e-37)
(0.11905621 -0.0010353767 1.4420034e-20 0.033841707 7.9556061e-22 2.3316035e-36)
(2.9791648e-09 -4.2538042e-08 1.7504467e-25 6.0738646e-07 -2.3147144e-24 1.6107454e-38)
(3.3948691e-08 -4.4118665e-07 -2.5372006e-25 5.7349893e-06 3.0713937e-24 6.1510744e-39)
(1.206757e-07 -1.4431591e-06 -1.1274929e-25 1.7271447e-05 1.2410953e-24 4.3490376e-40)
(3.0637425e-07 -3.3574511e-06 1.5923003e-25 3.6846393e-05 -1.5958027e-24 3.9082565e-40)
(6.5831403e-07 -6.600053e-06 -1.0928588e-24 6.6324873e-05 9.9960905e-24 9.172422e-39)
(1.2826347e-06 -1.1738488e-05 -1.120105e-25 0.00010779304 9.3693555e-25 5.0672171e-41)
(2.343878e-06 -1.9532835e-05 -1.9257232e-24 0.00016352298 1.4724336e-23 8.2665192e-39)
(4.093251e-06 -3.0983385e-05 -2.7565925e-24 0.00023590621 1.9247129e-23 9.5856072e-39)
(6.9098195e-06 -4.7386424e-05 2.9582132e-23 0.00032734469 -1.8829248e-22 6.3942579e-37)
(1.1358517e-05 -7.0391556e-05 -3.44001e-23 0.00044009071 1.9925025e-22 5.0885568e-37)
(1.8270935e-05 -0.00010205602 2.1296329e-23 0.00057602632 -1.1204452e-22 1.1627864e-37)
(2.8855707e-05 -0.00014488666 4.0159825e-23 0.00073637913 -1.9158569e-22 2.4894798e-37)
(4.484596e-05 -0.00020185556 -1.0199313e-22 0.00092137893 4.4042548e-22 9.7554447e-37)
(6.8691186e-05 -0.00027637075 -1.6116638e-23 0.0011298744 6.2889698e-23 1.4881029e-38)
(0.00010379955 -0.00037218085 7.902617e-23 0.0013589501 -2.7818363e-22 2.2060947e-37)
(0.00015483262 -0.00049319121 6.8781121e-23 0.0016036111 -2.1804868e-22 1.0351365e-37)
(0.00022804806 -0.00064317622 -1.0052885e-22 0.0018566284 2.8651953e-22 1.3795773e-37)
(0.00033167599 -0.00082538912 4.565854e-22 0.0021086616 -1.1679466e-21 1.7878922e-36)
(0.0004763036 -0.0010421019 -3.3659062e-22 0.0023487714 7.7147506e-22 6.1629144e-37)
(0.00067523363 -0.0012941536 2.0649843e-22 0.0025653939 -4.2338455e-22 1.4831815e-37)
(0.00094478041 -0.0015806343 -8.5676374e-22 0.0027477531 1.569125e-21 1.6557639e-36)
(0.001304479 -0.0018988691 -2.7214566e-22 0.0028875331 4.4457857e-22 1.0969735e-37)
(0.0017772538 -0.002244872 6.8700321e-22 0.0029804574 -9.9984612e-22 4.6658128e-37)
(0.0023897996 -0.0026144096 -1.240605e-21 0.0030273035 1.606376e-21 1.0309051e-36)
(0.0031727999 -0.0030042054 -5.8168445e-22 0.0030339439 6.6908413e-22 1.5576348e-37)
(0.0041605409 -0.0034126195 8.194174e-22 0.0030099566 -8.3734457e-22 2.1918288e-37)
(0.0053937612 -0.0038405797 5.4437717e-21 0.0029652444 -4.9295161e-21 6.8956692e-36)
(0.0069220475 -0.0042912086 2.8596338e-21 0.0029082895 -2.2911154e-21 1.3801351e-36)
(0.0088022574 -0.0047676942 -1.6356973e-21 0.00284591 1.1590397e-21 3.3726015e-37)
(0.011100973 -0.0052738769 2.0195525e-21 0.0027827692 -1.2591881e-21 3.7991294e-37)
(0.013896963 -0.0058134004 -1.4260294e-21 0.0027210866 7.8369738e-22 1.4691572e-37)
(0.017281821 -0.0063882026 -9.2320328e-21 0.0026612106 4.4451554e-21 4.670771e-36)
(0.021360233 -0.0069978123 3.498245e-21 0.0026022675 -1.4752868e-21 5.2158397e-37)
(0.026249476 -0.0076386544 1.1794017e-20 0.0025426497 -4.3484211e-21 4.6466001e-36)
(0.032077435 -0.0083034582 -4.3984179e-21 0.0024803139 1.4178899e-21 5.1923914e-37)
(0.038978751 -0.0089804623 -6.9253449e-21 0.0024129325 1.9459446e-21 1.0240336e-36)
(0.04708817 -0.0096520746 1.3395334e-20 0.0023379534 -3.2790153e-21 3.1003257e-36)
(0.056529665 -0.010292956 4.5596256e-21 0.0022527043 -9.7052878e-22 2.9164123e-37)
(0.067399757 -0.010867802 -8.9266427e-21 0.0021546964 1.6515137e-21 9.3349929e-37)
(0.079743676 -0.01132953 -3.9310137e-21 0.0020422838 6.30458e-22 1.518594e-37)
(0.093524002 -0.01161894 2.0762593e-20 0.001915783 -2.8754458e-21 3.5471515e-36)
(0.10858292 -0.011667347 -6.3579323e-21 0.0017791444 7.5686633e-22 2.8794736e-37)
(0.12460352 -0.011403577 -1.000354e-20 0.0016418732 1.0192113e-21 6.0894854e-37)
(0.14108304 -0.010767036 -2.8822696e-20 0.0015207087 2.4913664e-21 4.3733297e-36)
(0.15732723 -0.009728032 5.8483327e-20 0.0014401414 -4.2412282e-21 1.5912715e-35)
(0.17252405 -0.008311962 -4.01885e-20 0.0014290078 2.4128158e-21 6.694196e-36)
(0.18581644 -0.0065906307 -1.0720479e-20 0.0015094942 5.2504558e-22 4.2653616e-37)
(0.19640506 -0.0046601751 -4.4068779e-20 0.0016871772 1.7137811e-21 6.6859958e-36)
(0.20365388 -0.0026529001 -5.4641425e-20 0.0019553024 1.6389979e-21 9.5919693e-36)
(0.20717917 -0.00070019466 -2.8555169e-21 0.0023011052 6.477398e-23 2.4607961e-38)
(0.20686895 0.0010998516 1.2286858e-20 0.0027219002 -1.8175088e-22 4.3873926e-37)
(0.20285242 0.0026692414 -9.0793637e-20 0.0032403257 7.2434158e-22 2.3551619e-35)
(0.19554816 0.0039197247 -3.8646322e-20 0.0039003138 8.1443745e-23 4.2368314e-36)
(0.18572302 0.004733353 -3.9325658e-20 0.0047543849 -1.3014174e-22 4.4199466e-36)
(0.17459234 0.0050077687 -1.2700296e-20 0.0058488755 -1.1181202e-22 4.7068646e-37)
(0.16359606 0.0047221357 -9.561329e-20 0.0072194258 -1.2943801e-21 2.7734093e-35)
(0.15430645 0.0039922281 3.6790374e-20 0.0088778662 7.1637547e-22 4.3130948e-36)
(0.14780394 0.003031325 -1.0717537e-20 0.010843102 -2.7316972e-22 3.9401139e-37)
(0.14448932 0.0020855853 -8.3921906e-20 0.013231837 -2.9235841e-21 2.6215732e-35)
(0.14378056 0.0010170254 -3.1411862e-20 0.016473878 -1.5012146e-21 4.1067725e-36)
(0.14415263 -0.00090505544 3.4556812e-20 0.021749205 2.1909532e-21 5.7925092e-36)
(0.14377231 -0.003336822 1.0840382e-19 0.028194477 8.4398362e-21 6.8356402e-35)
(0.13748311 -0.0046057724 -3.0710889e-20 0.032423657 -2.686614e-21 6.9699164e-36)
(0.12918496 -0.0043508997 -4.3462282e-20 0.033161123 -4.128551e-21 1.8105448e-35)
(0.11153275 -0.003904063 -1.5551206e-20 0.032506742 -1.6633867e-21 3.3208849e-36)
(1.1824866e-08 -1.2021525e-07 -1.1488919e-24 1.2221479e-06 1.1242404e-23 1.8064512e-37)
(1.2191571e-07 -1.1863945e-06 3.4339403e-24 1.15455e-05 -3.2162169e-23 3.1976698e-37)
(3.9874956e-07 -3.7241973e-06 -1.9802034e-24 3.478635e-05 1.7648839e-23 4.1792319e-38)
(9.3072376e-07 -8.3121689e-06 3.0688374e-25 7.4250727e-05 -2.5995621e-24 4.937047e-40)
(1.8431923e-06 -1.5697171e-05 -8.2532678e-24 0.00013373166 6.6399267e-23 1.9286002e-37)
(3.3169083e-06 -2.6850724e-05 1.1315774e-23 0.00021748629 -8.6377747e-23 2.0634463e-37)
(5.6105302e-06 -4.3021653e-05 -2.2349803e-23 0.00033017076 1.6155249e-22 4.7445594e-37)
(9.0915196e-06 -6.5794852e-05 1.3507618e-23 0.00047671207 -9.2205906e-23 1.0493685e-37)
(1.4279226e-05 -9.7157106e-05 6.5381453e-23 0.00066209587 -4.2021232e-22 1.5151625e-36)
(2.1903243e-05 -0.00013956255 -1.9861587e-23 0.00089105031 1.1979944e-22 8.7482055e-38)
(3.2981392e-05 -0.00019598941 -9.5147951e-23 0.0011676066 5.3687179e-22 1.2667624e-36)
(4.892314e-05 -0.0002699777 3.63772e-23 0.0014945237 -1.9138245e-22 1.1780758e-37)
(7.166339e-05 -0.00036562833 3.0271207e-24 0.001872585 -1.4799241e-23 5.2491157e-40)
(0.00010383229 -0.00048754215 -1.4819146e-22 0.0022998007 6.712411e-22 8.0154389e-37)
(0.00014896514 -0.00064067286 5.7638803e-22 0.0027705923 -2.4106925e-21 7.8097e-36)
(0.00021175331 -0.00083006788 -4.3896109e-22 0.003275089 1.6897147e-21 2.926528e-36)
(0.00029833283 -0.0010604812 -5.1792062e-24 0.0037987291 1.8289192e-23 2.6376867e-40)
(0.00041659998 -0.0013358638 3.7069847e-22 0.0043224059 -1.1970275e-21 8.8105594e-37)
(0.00057653637 -0.0016587777 -1.1571193e-21 0.00482341 3.405844e-21 5.6215192e-36)
(0.00079052042 -0.0020298373 6.680946e-22 0.0052773471 -1.7869205e-21 1.2366609e-36)
(0.001073603 -0.0024473452 1.2125708e-21 0.0056610285 -2.9382962e-21 2.711371e-36)
(0.0014437351 -0.0029073345 5.9428986e-22 0.0059560151 -1.3008905e-21 4.3746274e-37)
(0.0019219774 -0.0034042262 -3.5264566e-21 0.0061521178 6.9556175e-21 1.0521558e-35)
(0.0025329103 -0.0039322863 -2.1975502e-21 0.0062498495 3.8949775e-21 2.8219594e-36)
(0.0033052023 -0.0044874955 1.6757261e-21 0.0062608469 -2.6634351e-21 1.1574921e-36)
(0.0042707782 -0.0050681945 -1.1504208e-21 0.0062054344 1.6346048e-21 3.8699585e-37)
(0.0054676671 -0.0056765477 5.0106112e-21 0.0061060227 -6.3553077e-21 5.3469874e-36)
(0.0069426132 -0.006317811 -1.6668779e-21 0.0059816021 1.88181e-21 4.3502734e-37)
(0.0087488617 -0.0069971462 5.1665438e-21 0.0058470109 -5.1796919e-21 3.1253906e-36)
(0.010948747 -0.0077204808 -3.3392115e-21 0.0057128462 2.9651179e-21 9.9045909e-37)
(0.013615343 -0.0084932587 2.3609881e-21 0.0055843678 -1.8505873e-21 3.7720522e-37)
(0.016833457 -0.009318505 -9.8100675e-21 0.0054623461 6.7787619e-21 5.0689299e-36)
(0.020699227 -0.010195676 1.5890042e-21 0.00534446 -9.6612961e-22 1.0481117e-37)
(0.025319393 -0.011119701 -9.4834411e-21 0.0052264693 5.0586022e-21 2.9308143e-36)
(0.030808856 -0.012080112 1.0186772e-20 0.0051031082 -4.7647303e-21 2.7085899e-36)
(0.037286269 -0.013059887 3.6735037e-21 0.0049685513 -1.5030988e-21 2.8006385e-37)
(0.044866775 -0.014033511 -5.0715939e-20 0.0048165211 1.8166056e-20 4.4174543e-35)
(0.053650354 -0.014964194 -1.4719632e-20 0.004640386 4.6041812e-21 3.049701e-36)
(0.063704394 -0.015800764 1.3458395e-20 0.004433679 -3.6712858e-21 2.1275308e-36)
(0.075039421 -0.016475173 -1.4544359e-20 0.0041914098 3.4521595e-21 2.0846342e-36)
(0.087578005 -0.016902215 4.1189856e-21 0.0039124974 -8.4740784e-22 1.3995209e-37)
(0.10111847 -0.016983639 2.791213e-20 0.0036035092 -4.9679224e-21 5.5661244e-36)
(0.11529952 -0.016619041 -1.3910242e-21 0.0032831541 2.1330323e-22 1.2167609e-38)
(0.12957732 -0.015726649 -1.0954622e-20 0.0029862914 1.4293881e-21 6.415657e-37)
(0.14324705 -0.014277296 5.6387486e-21 0.0027649647 -6.1618195e-22 1.540024e-37)
(0.15553981 -0.012325622 -3.1250003e-21 0.0026782506 2.8701281e-22 3.8733759e-38)
(0.16567251 -0.0099919807 -9.2201456e-21 0.0027673066 6.9565943e-22 3.2490873e-37)
(0.1729889 -0.0074401572 1.4686511e-19 0.0030366823 -8.9471418e-21 7.7448114e-35)
(0.17706556 -0.0048688217 -1.6991235e-20 0.0034591771 7.9875065e-22 9.7019408e-37)
(0.17775285 -0.0024502485 1.6056629e-20 0.0039911748 -5.7489998e-22 8.2624246e-37)
(0.17514635 -0.00030258305 -1.5300373e-19 0.0046089224 3.8583014e-21 7.2575021e-35)
(0.16955408 0.0014796253 8.4118044e-20 0.0053354699 -1.3292444e-21 2.1584378e-35)
(0.16155295 0.0027795769 6.8913234e-20 0.0062273817 -4.6769851e-22 1.4434852e-35)
(0.15205589 0.0034510913 6.4825981e-20 0.0073418673 7.9700009e-23 1.2958567e-35)
(0.14236407 0.0033929123 6.102174e-20 0.0087085537 5.3761293e-22 1.1817127e-35)
(0.13390587 0.0026327927 9.2871147e-20 0.010323787 1.5157908e-21 2.8599803e-35)
(0.1280184 0.0014017529 -1.7883555e-19 0.012142313 -4.4331986e-21 1.1232901e-34)
(0.12538037 3.9565992e-05 1.0515596e-19 0.014132265 3.6416465e-21 4.1883915e-35)
(0.12570326 -0.0011138702 1.5074277e-19 0.016358412 7.1565363e-21 9.5113821e-35)
(0.12807403 -0.0023988508 -1.0310327e-19 0.019284996 -6.8329839e-21 5.0694857e-35)
(0.13040981 -0.0046559592 -3.0077639e-20 0.024038007 -2.6626447e-21 5.1293768e-36)
(0.13084082 -0.0069676584 -2.3625328e-20 0.029271111 -2.5828382e-21 3.8890581e-36)
(0.12384278 -0.0078904689 1.0494459e-19 0.031948038 1.3523655e-20 1.0071573e-34)
(0.11486824 -0.0073600492 6.6661635e-20 0.031589265 9.662674e-21 5.4338991e-35)
(0.096600232 -0.0067736566 -2.3613978e-21 0.030357778 -3.8240365e-22 1.0546259e-37)
(3.1794636e-08 -2.4935903e-07 1.3459914e-24 1.9556747e-06 -1.03245e-23 8.9566237e-38)
(3.1471553e-07 -2.4122245e-06 -8.2481632e-24 1.8489305e-05 6.171109e-23 6.9030556e-37)
(9.927211e-07 -7.4390967e-06 1.0488654e-23 5.5747265e-05 -7.6248754e-23 4.5870895e-37)
(2.2289499e-06 -1.6291739e-05 -5.5283751e-24 0.00011908508 3.9004958e-23 6.5493731e-38)
(4.2411963e-06 -3.0172425e-05 -2.6595196e-24 0.00021467094 1.8192471e-23 8.5453758e-39)
(7.3232813e-06 -5.0584772e-05 2.9715311e-23 0.00034946244 -1.9683791e-22 6.3253984e-37)
(1.1870116e-05 -7.9391251e-05 -9.5995464e-24 0.00053111765 6.145796e-23 4.056135e-38)
(1.841025e-05 -0.00011887327 -2.5678991e-23 0.00076780785 1.5850581e-22 1.8278456e-37)
(2.7649105e-05 -0.00017179332 -2.4559275e-24 0.0010678982 1.4574057e-23 1.0754031e-39)
(4.0524883e-05 -0.00024145033 -2.5860877e-23 0.0014394597 1.4710013e-22 7.7547695e-38)
(5.8280405e-05 -0.0003317188 4.4641596e-23 0.0018895792 -2.426137e-22 1.5190965e-37)
(8.2554155e-05 -0.00044705699 -3.8100542e-23 0.0024234426 1.9717858e-22 7.3289575e-38)
(0.0001154942 -0.0005924656 -1.7203945e-22 0.0030431925 8.4493034e-22 9.9342771e-37)
(0.0001598981 -0.00077337317 -6.1269734e-24 0.0037466034 2.8456628e-23 8.3684914e-40)
(0.00021938106 -0.00099542278 1.9626061e-22 0.0045256825 -8.5869762e-22 5.7744284e-37)
(0.00029857302 -0.0012641374 1.6949362e-22 0.0053653978 -6.9601888e-22 2.8860995e-37)
(0.00040334226 -0.0015844531 -1.7754678e-22 0.0062428354 6.8162275e-22 2.1265486e-37)
(0.00054104033 -0.0019601368 2.0590101e-23 0.0071271889 -7.3600958e-23 1.9466195e-39)
(0.0007207593 -0.0023931483 5.0880041e-22 0.0079810226 -1.6867723e-21 7.9710372e-37)
(0.0009535915 -0.0028830696 7.4834457e-22 0.0087631736 -2.2913417e-21 1.1720194e-36)
(0.0012528851 -0.0034267948 -1.0257526e-21 0.0094333828 2.8889693e-21 1.5092475e-36)
(0.0016344973 -0.0040187158 -1.232576e-21 0.0099582487 3.1804293e-21 1.5073965e-36)
(0.0021170617 -0.0046516168 1.9680691e-21 0.010317432 -4.6343491e-21 2.6876096e-36)
(0.0027224316 -0.0053184597 -2.8714997e-21 0.010508423 6.14711e-21 4.0469104e-36)
(0.0034765391 -0.0060148913 -5.8262274e-21 0.010548042 1.1296732e-20 1.1935257e-35)
(0.0044085126 -0.0067399632 1.5938833e-20 0.010469464 -2.7899016e-20 6.5077551e-35)
(0.0055528932 -0.0074978311 -1.011754e-20 0.010312556 1.5934347e-20 1.9362464e-35)
(0.00695228 -0.0082960683 1.7186777e-20 0.010110599 -2.4274017e-20 4.176226e-35)
(0.0086556478 -0.0091424204 -2.446787e-20 0.0098896101 3.0893758e-20 6.4177925e-35)
(0.010719806 -0.010045105 3.0984806e-20 0.0096688799 -3.4858508e-20 7.8913759e-35)
(0.013210378 -0.011011245 -3.6183439e-20 0.0094584981 3.6163415e-20 8.3491044e-35)
(0.016203383 -0.012044878 6.8409178e-21 0.0092603028 -6.0593412e-21 2.3483098e-36)
(0.019783947 -0.013145172 2.6565396e-20 0.0090702734 -2.0791469e-20 2.7898567e-35)
(0.024045293 -0.014305292 -1.6756785e-20 0.0088806485 1.1569143e-20 8.8700632e-36)
(0.029085861 -0.015511292 5.8390454e-21 0.0086816668 -3.5504045e-21 8.6978593e-37)
(0.035004394 -0.016740643 1.881741e-21 0.0084625122 -1.0070542e-21 7.4524815e-38)
(0.041891962 -0.017959759 2.5929268e-20 0.0082115298 -1.2175768e-20 1.1417968e-35)
(0.049819785 -0.01912051 9.3617351e-21 0.0079163447 -3.8554903e-21 1.224507e-36)
(0.058821573 -0.020156439 1.04207e-20 0.0075646903 -3.7555571e-21 1.2594511e-36)
(0.068869566 -0.020979909 1.1218684e-20 0.0071466508 -3.5342952e-21 1.2467958e-36)
(0.079844918 -0.021482273 -6.2293811e-20 0.0066589846 1.7089873e-20 3.2777024e-35)
(0.09150512 -0.021540116 2.9637929e-20 0.0061119229 -7.052402e-21 6.3865141e-36)
(0.10345514 -0.02103128 5.1646533e-21 0.0055375688 -1.0627961e-21 1.6328979e-37)
(0.11513752 -0.019866259 -6.287925e-20 0.0049977358 1.105623e-20 2.1930906e-35)
(0.1258902 -0.018037244 -3.3941866e-20 0.0045845138 5.0723308e-21 5.6670369e-36)
(0.13504554 -0.015647741 1.7523819e-20 0.0043972516 -2.207097e-21 1.3748634e-36)
(0.14198963 -0.012876632 6.6872324e-20 0.0044958021 -6.9404416e-21 1.8182378e-35)
(0.1462845 -0.009953884 -3.0062476e-20 0.0048770825 2.5559227e-21 3.4371395e-36)
(0.14773388 -0.0071203398 9.0544155e-20 0.0054792952 -6.003836e-21 2.9238518e-35)
(0.1463677 -0.0045623277 5.0148579e-20 0.0062148515 -2.5417865e-21 8.592423e-36)
(0.14242023 -0.0023943555 6.9827619e-20 0.0070357273 -2.5920183e-21 1.6229502e-35)
(0.13630853 -0.00071367703 1.8783437e-19 0.0079732344 -4.4303228e-21 1.1589922e-34)
(0.12870583 0.00034046838 -1.4393159e-19 0.009106118 1.7204505e-21 6.8432754e-35)
(0.1206135 0.00060226022 4.6237335e-20 0.010497624 2.4732614e-23 7.1772292e-36)
(0.1133391 -3.6032265e-06 -7.7255897e-20 0.012152812 -7.2405773e-22 2.08572e-35)
(0.10816756 -0.0013585505 -7.0935819e-20 0.014014339 -1.4370305e-21 1.8505949e-35)
(0.10602652 -0.0030774452 -2.6563811e-20 0.015969963 -8.582904e-22 2.7837423e-36)
(0.10701101 -0.0046727096 -2.2955969e-19 0.017913295 -1.0147154e-20 2.2703293e-34)
(0.11004972 -0.0058010434 -5.780797e-20 0.019851473 -3.5732545e-21 1.6190209e-35)
(0.11409811 -0.0071384108 1.216927e-19 0.02232839 1.0632944e-20 8.3750502e-35)
(0.11640847 -0.0093941252 4.135174e-20 0.026231638 4.9249766e-21 1.1894819e-35)
(0.11546347 -0.011091741 -2.737933e-20 0.029858871 -4.0728981e-21 6.6254105e-36)
(0.10622606 -0.011244524 -4.8520472e-20 0.030840468 -8.6311475e-21 2.8315584e-35)
(0.095329717 -0.010194842 -6.3901442e-20 0.029370024 -1.3307472e-20 6.8641819e-35)
(0.076900153 -0.0093199395 3.8639172e-21 0.027507893 9.3170219e-22 3.9914338e-37)
(6.7090057e-08 -4.26102e-07 6.1533882e-24 2.7062575e-06 -3.8516896e-23 8.3150911e-37)
(6.510201e-07 -4.083327e-06 3.9714174e-24 2.5611514e-05 -2.4487037e-23 7.2423381e-38)
(2.0163536e-06 -1.2483978e-05 -4.9491399e-24 7.72936e-05 2.9979309e-23 4.7476064e-38)
(4.4371108e-06 -2.7080632e-05 -2.5163839e-23 0.00016528242 1.4964338e-22 6.4717189e-37)
(8.2643838e-06 -4.9649987e-05 1.8131647e-23 0.00029829425 -1.0577121e-22 1.9422894e-37)
(1.3948792e-05 -8.2351732e-05 -3.348095e-23 0.00048622452 1.9140332e-22 4.0226379e-37)
(2.2066904e-05 -0.0001277853 1.8262463e-23 0.00074005351 -1.0215966e-22 7.5285507e-38)
(3.3353252e-05 -0.00018904219 5.4119761e-24 0.0010716215 -2.9567113e-23 4.2690963e-39)
(4.8740734e-05 -0.00026975234 -3.7728068e-23 0.0014932249 2.0085182e-22 1.3670699e-37)
(6.9409987e-05 -0.00037411303 -9.9418352e-23 0.00201698 5.1447152e-22 6.3460797e-37)
(9.6849682e-05 -0.00050688943 -6.085293e-24 0.0026538995 3.0531109e-23 1.5978444e-39)
(0.00013292916 -0.00067337004 2.4083411e-22 0.0034126386 -1.1678848e-21 1.712861e-36)
(0.00017998522 -0.00087925841 -4.0262264e-22 0.004297894 1.8815489e-21 3.2751509e-36)
(0.00024092445 -0.001130479 7.8395012e-22 0.0053084944 -3.5189365e-21 8.5297143e-36)
(0.00031934215 -0.0014328765 -2.4670285e-22 0.0064353094 1.0599485e-21 5.8172346e-37)
(0.00041965863 -0.0017917946 6.3046299e-22 0.0076592277 -2.5831124e-21 2.6209426e-36)
(0.0005472731 -0.0022115369 -9.1517275e-22 0.0089496184 3.5614956e-21 3.8216945e-36)
(0.00070873533 -0.0026947431 7.1250077e-22 0.010263847 -2.6226814e-21 1.6066285e-36)
(0.00091193607 -0.0032417613 -1.3455131e-22 0.011548529 4.664084e-22 3.9941451e-38)
(0.0011663197 -0.0038501568 -6.5095198e-22 0.012743148 2.1153438e-21 6.535202e-37)
(0.0014831267 -0.0045145648 1.8800952e-21 0.013786369 -5.7008089e-21 3.8355987e-36)
(0.0018756826 -0.005227127 -3.1377177e-21 0.014624656 8.8357165e-21 7.5814119e-36)
(0.0023597484 -0.0059787111 4.0132686e-21 0.015221874 -1.0445906e-20 8.8836424e-36)