/*--------------------------------*- C++ -*----------------------------------*\
  =========                 |
  \\      /  F ield         | OpenFOAM: The Open Source CFD Toolbox
   \\    /   O peration     | Website:  https://openfoam.org
    \\  /    A nd           | Version:  13
     \\/     M anipulation  |
\*---------------------------------------------------------------------------*/
FoamFile
{
    format      ascii;
    class       volVectorField;
    location    "24.400547";
    object      wallShearStress;
}
// * * * * * * * * * * * * * * * * * * * * * * * * * * * * * * * * * * * * * //

dimensions      [0 2 -2 0 0 0 0];

internalField   uniform (0 0 0);

boundaryField
{
    inlet
    {
        type            calculated;
        value           uniform (0 0 0);
    }
    outlet
    {
        type            calculated;
        value           uniform (0 0 0);
    }
    cylinder
    {
        type            calculated;
        value           nonuniform List<vector> 
132
(
(1.8454437e-06 0.00023674613 -2.4193151e-22)
(1.2564812e-05 -0.00018258264 6.8927008e-23)
(4.64718e-05 -0.00060408915 3.806996e-21)
(0.00010428766 -0.0010200073 -1.277653e-20)
(0.00018505385 -0.0014219546 9.0197116e-21)
(0.00028714572 -0.0018014032 2.7564848e-20)
(0.00040794402 -0.0021497822 -5.2241902e-21)
(0.00054384521 -0.0024588686 -2.0705435e-20)
(0.0006902271 -0.0027211176 1.952763e-20)
(0.00084180143 -0.002930081 -4.3818334e-20)
(0.00099264981 -0.0030806699 -7.9815394e-22)
(0.0011365366 -0.003169801 2.7281917e-20)
(0.0012671822 -0.0031963497 4.4553175e-20)
(0.001378939 -0.0031621007 -3.6242653e-20)
(0.0014668142 -0.0030707661 3.822197e-20)
(0.0015277497 -0.0029297919 6.1617098e-20)
(0.0015597387 -0.0027473777 -4.0440535e-20)
(0.0015638678 -0.0025353971 6.4970014e-20)
(0.0015432878 -0.002306368 8.6027141e-20)
(0.001503526 -0.0020732483 -5.5876492e-20)
(0.0014535135 -0.0018501969 -7.1302673e-20)
(0.0014039412 -0.0016496042 2.5102481e-23)
(0.0013689708 -0.0014838815 1.0363396e-20)
(0.0013649718 -0.001363363 -1.2417072e-20)
(0.0014107453 -0.0012962923 -2.11363e-20)
(0.0015247506 -0.0012861538 4.5222551e-21)
(0.0017204526 -0.0013287211 -4.0839429e-20)
(0.0019968913 -0.0014073508 1.0911625e-20)
(0.0023399311 -0.0014984544 8.5667418e-21)
(0.0027193954 -0.0015735637 -5.8979208e-20)
(0.0030975474 -0.0016078694 7.6916881e-20)
(0.0034452356 -0.0015892287 2.3260583e-21)
(0.0037435796 -0.0015159609 1.6749527e-20)
(0.0039571473 -0.0013844062 -1.9821644e-20)
(0.0040060374 -0.001184961 6.289055e-20)
(0.0037579492 -0.00091185186 -3.9713276e-21)
(0.0030501234 -0.00058124664 1.5994149e-20)
(0.001673684 -0.00023757366 -2.1928451e-21)
(-0.0005747703 2.6531356e-05 3.1422721e-21)
(-0.0039249744 7.8606226e-05 -1.957971e-21)
(-0.0087219735 -0.00029614006 3.6546217e-21)
(-0.014949688 -0.0013937084 -1.1272758e-22)
(-0.022098379 -0.0034038634 4.1356433e-20)
(-0.029736012 -0.0064270708 -1.5949712e-20)
(-0.037303975 -0.010444563 1.4404931e-20)
(-0.044309417 -0.015336871 -9.2611258e-20)
(-0.05031617 -0.020888102 -1.4947747e-20)
(-0.055049044 -0.026845254 1.3131458e-19)
(-0.058310194 -0.032922822 -1.1203737e-19)
(-0.06005455 -0.038856878 -2.1394685e-21)
(-0.060274263 -0.044371485 3.4118e-20)
(-0.059105803 -0.049270898 -3.1077478e-20)
(-0.056633158 -0.053313687 -6.0873162e-21)
(-0.053053967 -0.056352979 -3.8601255e-21)
(-0.048605149 -0.058303621 -5.7757775e-21)
(-0.043452835 -0.059023725 -2.9969955e-21)
(-0.037849857 -0.058497437 6.0679901e-22)
(-0.032011034 -0.056697284 4.893035e-20)
(-0.026159864 -0.05364897 -7.4665934e-20)
(-0.020506824 -0.049406948 -7.964608e-20)
(-0.015248143 -0.044057368 -3.2329881e-20)
(-0.010561388 -0.037715527 -7.4132131e-20)
(-0.0066012254 -0.030521702 1.6545472e-20)
(-0.0034944129 -0.022638373 2.4084972e-20)
(-0.0013435615 -0.014258381 -3.7453572e-20)
(-0.00020480301 -0.005541255 -5.0067535e-21)
(1.3849595e-05 0.00065057082 -1.111987e-21)
(4.8088564e-05 0.0010588959 -6.616702e-23)
(0.00010513621 0.0014579071 -3.7932801e-21)
(0.00018393399 0.0018396463 1.2699152e-20)
(0.00028281721 0.0021960472 -8.9484986e-21)
(0.00039920508 0.0025191102 -2.7294789e-20)
(0.00052960913 0.0028012262 5.1627082e-21)
(0.00066969199 0.0030355019 2.0419512e-20)
(0.00081428793 0.0032161246 -1.9216744e-20)
(0.00095786948 0.0033387085 4.3025453e-20)
(0.0010945347 0.0034005674 7.8196116e-22)
(0.0012184253 0.0034011943 -2.6665501e-20)
(0.0013240702 0.0033423133 -4.3444579e-20)
(0.0014068563 0.0032281555 3.5258121e-20)
(0.0014635133 0.0030655382 -3.7097436e-20)
(0.0014921307 0.0028628759 -5.9669806e-20)
(0.001493003 0.0026309503 3.9077224e-20)
(0.0014688251 0.0023821982 -6.2651735e-20)
(0.0014248512 0.0021300187 -8.2798829e-20)
(0.0013686579 0.0018876979 5.3686672e-20)
(0.0013099247 0.0016676163 6.8401916e-20)
(0.0012607757 0.0014813527 6.1234156e-20)
(0.0012358122 0.0013392784 5.0284242e-20)
(0.0012523291 0.0012503682 1.1871262e-20)
(0.0013293987 0.001220892 2.0192843e-20)
(0.0014854631 0.001252298 -4.3183427e-21)
(0.0017303851 0.0013357291 3.8989073e-20)
(0.0020607547 0.001451855 -1.0417318e-20)
(0.0024518773 0.0015698842 -8.1809804e-21)
(0.0028634653 0.001656892 5.6349007e-20)
(0.0032562009 0.0016903284 -7.3531535e-20)
(0.0036047498 0.00166298 -2.2123091e-21)
(0.003893216 0.0015768027 3.6490645e-20)
(0.0040764972 0.0014265334 1.9006977e-20)
(0.0040677212 0.0012037502 -6.0410481e-20)
(0.0037261156 0.00090498468 3.8233657e-21)
(0.0028766466 0.00054974176 1.1260679e-20)
(0.00130197 0.00018891607 2.1237544e-21)
(-0.0011965747 -7.5416143e-05 -3.0534537e-21)
(-0.0048310436 -0.00010073507 1.9090685e-21)
(-0.0099518453 0.00033530812 -3.573874e-21)
(-0.016478683 0.0015341043 2.9126751e-20)
(-0.023848055 0.0036712363 -4.0542566e-20)
(-0.031610405 0.0068299789 1.5620958e-20)
(-0.039173846 0.010966032 -1.4075129e-20)
(-0.046081055 0.015948182 9.0173969e-20)
(-0.051909935 0.02154714 1.4482575e-20)
(-0.056407008 0.027504941 -1.264396e-19)
(-0.059403035 0.03353737 1.0700762e-19)
(-0.060870487 0.039382378 2.0219086e-21)
(-0.060814371 0.044766691 -3.1766932e-20)
(-0.059393329 0.049508199 2.830057e-20)
(-0.056679345 0.053354622 -4.2923919e-20)
(-0.052892297 0.056178791 3.0845519e-21)
(-0.048283453 0.057915086 -3.8802356e-21)
(-0.042994465 0.058398148 5.6199867e-21)
(-0.037295081 0.057636729 -7.4526013e-22)
(-0.031396148 0.055604367 -5.5094946e-20)
(-0.025520321 0.052332752 8.091753e-20)
(-0.019876583 0.047882659 8.4421961e-20)
(-0.014657921 0.042344198 3.3761296e-20)
(-0.010038785 0.035838065 7.6562992e-20)
(-0.0061694062 0.028507278 -1.6937942e-20)
(-0.0031719602 0.020519059 4.8535833e-20)
(-0.001143876 0.012060716 3.7802752e-20)
(-0.00013938972 0.003323199 5.025006e-21)
)
;
    }
    frontAndBack
    {
        type            empty;
    }
}


// ************************************************************************* //
