/*--------------------------------*- C++ -*----------------------------------*\
  =========                 |
  \\      /  F ield         | OpenFOAM: The Open Source CFD Toolbox
   \\    /   O peration     | Website:  https://openfoam.org
    \\  /    A nd           | Version:  13
     \\/     M anipulation  |
\*---------------------------------------------------------------------------*/
FoamFile
{
    format      ascii;
    class       volVectorField;
    location    "15.595919";
    object      wallShearStress;
}
// * * * * * * * * * * * * * * * * * * * * * * * * * * * * * * * * * * * * * //

dimensions      [0 2 -2 0 0 0 0];

internalField   uniform (0 0 0);

boundaryField
{
    inlet
    {
        type            calculated;
        value           uniform (0 0 0);
    }
    outlet
    {
        type            calculated;
        value           uniform (0 0 0);
    }
    cylinder
    {
        type            calculated;
        value           nonuniform List<vector> 
132
(
(3.4309507e-05 0.0010058181 -1.3082175e-22)
(0.00017501143 -0.0031038127 3.738852e-23)
(0.00054065566 -0.0071688336 2.1076871e-21)
(0.0011233522 -0.011059073 -7.2968147e-21)
(0.0018986238 -0.014640523 5.3690272e-21)
(0.0028287164 -0.017790863 1.7228969e-20)
(0.0038617785 -0.020395181 -3.443395e-21)
(0.0049335515 -0.022357721 -1.4407076e-20)
(0.0059743671 -0.023608439 1.4318947e-20)
(0.0069075518 -0.024100769 -3.3717057e-20)
(0.0076555697 -0.023818407 -6.4036384e-22)
(0.0081447423 -0.022776771 2.2669835e-20)
(0.0083162442 -0.021038706 3.8002234e-20)
(0.0081354808 -0.018716857 -3.1449744e-20)
(0.0076021388 -0.015973766 3.3443433e-20)
(0.0067524254 -0.013003827 5.3923516e-20)
(0.0056608027 -0.010018183 -3.5149044e-20)
(0.0044278631 -0.0072178758 5.5792112e-20)
(0.0031658135 -0.0047625618 7.2741287e-20)
(0.0019829181 -0.0027586556 -4.645564e-20)
(0.00095708809 -0.0012368842 -5.829886e-20)
(0.00013773346 -0.00017702885 2.0195774e-23)
(-0.00047930284 0.00050948111 8.232547e-21)
(-0.00091332744 0.00090638281 -9.7487835e-21)
(-0.0011960871 0.0010973385 -1.6424657e-20)
(-0.0012617513 0.001066911 3.4800854e-21)
(-0.001074328 0.00083733341 -3.1129226e-20)
(-0.00036193168 0.00026688364 8.2389813e-21)
(0.00076268741 -0.00047680373 6.4405411e-21)
(0.0019446646 -0.0011169275 -4.4305581e-20)
(0.0028889646 -0.0014958186 5.7951864e-20)
(0.0034014525 -0.0015685806 1.7574285e-21)
(0.0036374823 -0.0014736399 1.2675271e-20)
(0.0037745766 -0.0013205408 -1.499445e-20)
(0.0039072784 -0.0011545326 4.7532343e-20)
(0.0039185165 -0.00094828786 -2.9993971e-21)
(0.0036263407 -0.0006863716 1.2080691e-20)
(0.0028220324 -0.0003881732 -1.6580768e-21)
(0.0012914955 -0.00011774446 2.3824513e-21)
(-0.0012019277 1.2904192e-05 -1.4919106e-21)
(-0.0050430218 -0.00017155964 2.8062249e-21)
(-0.0103665 -0.00097275479 -8.7595483e-23)
(-0.01682518 -0.0025979153 3.2582591e-20)
(-0.024045714 -0.0052035175 -1.2754792e-20)
(-0.031477854 -0.008819606 1.1690341e-20)
(-0.038611737 -0.013370032 -7.6190629e-20)
(-0.044964132 -0.018672006 -1.2440132e-20)
(-0.050163408 -0.024468987 1.1022681e-19)
(-0.053958881 -0.030471755 -9.4527298e-20)
(-0.056255364 -0.036403855 -1.8058834e-21)
(-0.057013149 -0.041975345 2.8624761e-20)
(-0.056341014 -0.046970128 -2.56367e-20)
(-0.054325165 -0.051144473 -4.8295126e-21)
(-0.051148399 -0.054331836 -2.7534269e-21)
(-0.047046043 -0.056435962 -2.0942248e-21)
(-0.042200876 -0.057325281 -5.8814013e-21)
(-0.036854543 -0.056960906 7.4388038e-22)
(-0.03123383 -0.05532211 5.452917e-20)
(-0.025564632 -0.052429294 -7.9993764e-20)
(-0.020062215 -0.048336417 -8.3567764e-20)
(-0.014926896 -0.043129407 -3.3501538e-20)
(-0.010339726 -0.036923635 -7.6207018e-20)
(-0.0064583941 -0.029860108 1.6918047e-20)
(-0.0034120965 -0.022102483 2.4537995e-20)
(-0.0013052249 -0.013843824 -3.8065381e-20)
(-0.00019560842 -0.0052485499 -5.0807443e-21)
(0.00011634135 0.005075379 -6.0648179e-22)
(0.00041683861 0.009056629 -3.6896534e-23)
(0.00093053687 0.012861106 -2.1864941e-21)
(0.0016368242 0.016360826 7.6463723e-21)
(0.0025022388 0.019437329 -5.6685782e-21)
(0.0034799337 0.02197912 -1.8266204e-20)
(0.0045104175 0.023891606 3.6541456e-21)
(0.0055282466 0.025105167 1.5259514e-20)
(0.0064607271 0.025571021 -1.510192e-20)
(0.0072334388 0.025270627 3.5347918e-20)
(0.0077742823 0.024215003 6.6654326e-22)
(0.0080225756 0.022458089 -2.3398734e-20)
(0.0079385824 0.020102722 -3.8888127e-20)
(0.0075130403 0.017301283 3.1909128e-20)
(0.0067704958 0.014240017 -3.366473e-20)
(0.0057731552 0.011127668 -5.3901022e-20)
(0.0046103374 0.0081673435 3.4940629e-20)
(0.0033873142 0.0055286479 -5.5236316e-20)
(0.002210386 0.0033316179 -7.183933e-20)
(0.0011640763 0.0016268183 4.5828831e-20)
(0.00030409306 0.00040496448 5.7509299e-20)
(-0.00035503089 -0.00040499899 5.0792436e-20)
(-0.0008310609 -0.00089302857 4.1227575e-20)
(-0.0011582486 -0.0011527933 9.6365015e-21)
(-0.0013419501 -0.0012331818 1.6239875e-20)
(-0.0012808266 -0.0010857408 -3.4393092e-21)
(-0.00083338134 -0.00065409353 3.0767132e-20)
(0.00010610408 6.1862332e-05 -8.162713e-21)
(0.001335026 0.00084394237 -6.3934372e-21)
(0.0024648793 0.0014199981 4.4113016e-20)
(0.0032189263 0.0016691339 -5.7767886e-20)
(0.0035801459 0.0016522024 -1.7430175e-21)
(0.0037449688 0.0015174756 2.8773008e-20)
(0.0038892833 0.0013606961 1.4977943e-20)
(0.0040102542 0.0011852404 -4.7561951e-20)
(0.0039551333 0.00095783474 3.0085101e-21)
(0.0035320025 0.0006697079 8.8613652e-21)
(0.0025346423 0.00035090609 1.672999e-21)
(0.00074568271 7.5320208e-05 -2.4117475e-21)
(-0.0020790296 -3.3834076e-05 1.5148276e-21)
(-0.0063123247 0.00021453568 -2.856933e-21)
(-0.012022095 0.0011251798 2.3541748e-20)
(-0.018808045 0.0029013312 -3.3192738e-20)
(-0.026242233 0.0056760398 1.2964728e-20)
(-0.033746625 0.0094525511 -1.1841299e-20)
(-0.040861586 0.014146823 7.6825558e-20)
(-0.047061752 0.019540721 1.2468315e-20)
(-0.052031976 0.025377459 -1.0976571e-19)
(-0.055558617 0.031372216 9.3367254e-20)
(-0.0575549 0.037242003 1.7667662e-21)
(-0.058011256 0.042707481 -2.7640893e-20)
(-0.057057247 0.047564648 2.4298367e-20)
(-0.054770044 0.051560615 -3.5619851e-20)
(-0.05135457 0.05454833 2.3044291e-21)
(-0.047060281 0.05645037 -3.6506851e-22)
(-0.042043638 0.057108841 7.5699422e-21)
(-0.036571727 0.056520738 -8.3640043e-22)
(-0.030860577 0.054657524 -5.876773e-20)
(-0.02513762 0.051549489 8.4391415e-20)
(-0.019615632 0.04725544 8.6989318e-20)
(-0.014491806 0.041865717 3.4542023e-20)
(-0.0099438921 0.035500847 7.7994204e-20)
(-0.0061251231 0.0283047 -1.7209094e-20)
(-0.0031600705 0.020445392 4.9239522e-20)
(-0.0011479285 0.012112055 3.8326971e-20)
(-0.00014388499 0.0034944951 5.095202e-21)
)
;
    }
    frontAndBack
    {
        type            empty;
    }
}


// ************************************************************************* //
