/*--------------------------------*- C++ -*----------------------------------*\
  =========                 |
  \\      /  F ield         | OpenFOAM: The Open Source CFD Toolbox
   \\    /   O peration     | Website:  https://openfoam.org
    \\  /    A nd           | Version:  13
     \\/     M anipulation  |
\*---------------------------------------------------------------------------*/
FoamFile
{
    format      ascii;
    class       volVectorField;
    location    "15.501653";
    object      UMean;
}
// * * * * * * * * * * * * * * * * * * * * * * * * * * * * * * * * * * * * * //

dimensions      [0 1 -1 0 0 0 0];

internalField   nonuniform List<vector> 
17140
(
(-3.3990078e-06 0.00012904843 -2.7937496e-22)
(-4.8615584e-05 0.00039642374 -2.2441301e-23)
(-0.00014738667 0.00068754351 1.4831347e-21)
(-0.0003205671 0.0010031714 -1.6310327e-21)
(-0.00058683871 0.0013440531 1.9075285e-22)
(-0.00097172785 0.0017105582 -6.2445236e-22)
(-0.0015064939 0.0021025992 -1.0518082e-21)
(-0.0022286866 0.0025194963 5.1425112e-22)
(-0.0031832274 0.0029598216 1.684014e-21)
(-0.0044234104 0.0034212233 4.1345967e-21)
(-0.0060118374 0.0039002378 -6.140854e-21)
(-0.0080212125 0.0043921007 5.4821252e-21)
(-0.010534903 0.0048905729 8.4008561e-22)
(-0.013647105 0.0053878079 -4.7701952e-21)
(-0.017462448 0.0058743021 5.3107753e-22)
(-0.022094841 0.0063389676 -4.2249386e-21)
(-0.027665401 0.0067693981 1.5873452e-22)
(-0.034299336 0.0071523786 -3.4680395e-23)
(-0.042121823 0.0074746981 -2.5344369e-21)
(-0.051253112 0.0077242731 3.3075405e-21)
(-0.06180338 0.0078915335 -1.5989322e-21)
(-0.073868115 0.0079708916 3.0892143e-22)
(-0.087526124 0.0079619569 2.272665e-21)
(-0.10284399 0.0078700405 -2.2684873e-21)
(-0.11987351 0.0077056411 -3.6171476e-21)
(-0.1386525 0.0074821483 2.91602e-21)
(-0.15922098 0.007211107 1.4288594e-20)
(-0.18165822 0.0069012094 1.6699813e-21)
(-0.20604753 0.0065620761 -1.4747193e-20)
(-0.23243757 0.006200161 -3.4288719e-21)
(-0.26089575 0.005818225 -1.2241477e-20)
(-0.29149427 0.0054171959 1.6136713e-20)
(-0.32428702 0.0049972073 -4.1859302e-21)
(-0.35931045 0.0045580134 -2.0095614e-21)
(-0.39657274 0.0040989195 -1.9635773e-20)
(-0.43604137 0.0036185758 8.6500177e-21)
(-0.47762689 0.0031146401 -1.2957631e-20)
(-0.521161 0.0025834334 -8.7370986e-21)
(-0.56636861 0.0020194324 -3.9744472e-21)
(-0.61283467 0.0014155944 1.2040289e-20)
(-0.65996836 0.00076328192 2.2534231e-20)
(-0.70696407 5.316534e-05 2.02801e-20)
(-0.75276805 -0.00072347198 8.7816646e-21)
(-0.79607862 -0.0015737477 -4.1996046e-20)
(-0.83532864 -0.0024974863 -3.0268301e-20)
(-0.86877671 -0.0034755004 7.3432113e-21)
(-0.89474816 -0.0044940734 -4.9159552e-20)
(-0.91127148 -0.005531967 -1.6459477e-20)
(-0.9164738 -0.0065593115 1.6570393e-20)
(-0.90889604 -0.0075321504 4.017601e-20)
(-0.88732225 -0.0083976866 -2.460844e-20)
(-0.85069905 -0.0091324293 -1.5524402e-20)
(-0.79821638 -0.0097991239 4.0489761e-20)
(-0.72929433 -0.010404398 1.9244171e-20)
(-0.64347448 -0.010867438 1.3867592e-20)
(-0.54096577 -0.011157816 -1.0940459e-20)
(-0.42207203 -0.01122127 3.0280333e-20)
(-0.28799493 -0.01101056 2.5653252e-20)
(-0.14056354 -0.010432224 6.5526231e-21)
(0.016107677 -0.0094405675 -1.7024108e-20)
(0.17624384 -0.0080709874 -1.3519685e-20)
(0.32990278 -0.0064616755 -5.0469062e-20)
(0.4698299 -0.0046220312 -7.4227131e-21)
(0.58505093 -0.0027047238 6.2301303e-20)
(0.6805425 -0.0011281113 -4.8043467e-20)
(-3.7895296e-05 0.00088305113 7.9270213e-23)
(-0.00015380032 0.0027144068 -7.7679655e-21)
(-0.00032880919 0.0047115751 6.9137382e-21)
(-0.0005835992 0.0068832285 -1.885766e-21)
(-0.00093688435 0.0092371969 -3.8961556e-21)
(-0.0014139819 0.011779422 7.4474857e-21)
(-0.002045764 0.01451331 -7.7687972e-21)
(-0.0028691806 0.017438873 6.8421558e-22)
(-0.0039282965 0.020551698 -2.1379164e-21)
(-0.0052752459 0.023841778 -3.576063e-23)
(-0.0069711279 0.027292229 -7.1556579e-21)
(-0.0090867662 0.030877929 1.1392117e-20)
(-0.01170325 0.034564215 9.4267991e-22)
(-0.014912098 0.038305745 -9.3272469e-21)
(-0.018814896 0.042045792 2.8739126e-21)
(-0.023522215 0.045716241 1.8301135e-21)
(-0.029151657 0.049238686 -1.1638222e-20)
(-0.035824925 0.052527033 3.8047995e-20)
(-0.04366392 0.05549202 -2.3903484e-20)
(-0.052786119 0.058047877 2.8719199e-20)
(-0.063299708 0.060121003 -4.2565256e-20)
(-0.075299208 0.061659912 1.0467254e-20)
(-0.088863496 0.062644781 4.3281312e-21)
(-0.10405998 0.06309405 -1.4142313e-20)
(-0.12094338 0.063065402 5.0982159e-20)
(-0.13955357 0.062645897 7.5724328e-21)
(-0.15993132 0.061924437 -3.9490382e-20)
(-0.18215726 0.060974599 4.422251e-20)
(-0.20631564 0.059849604 -6.1475927e-21)
(-0.2324551 0.05859478 -5.9534929e-20)
(-0.26064088 0.057238839 6.219983e-21)
(-0.29094367 0.055795083 4.7224034e-20)
(-0.32341488 0.054267072 1.1181384e-21)
(-0.35808757 0.052650368 -3.5207464e-20)
(-0.3949656 0.05093304 3.9332186e-20)
(-0.43401063 0.049094834 -1.7667233e-20)
(-0.47512555 0.047105582 2.0923311e-20)
(-0.51813229 0.044923708 6.6170327e-20)
(-0.56274337 0.042495317 1.4700358e-20)
(-0.60852811 0.039755297 5.7363796e-20)
(-0.65487596 0.036629949 -7.3335635e-20)
(-0.70095718 0.033042976 -6.6750613e-20)
(-0.74568969 0.028924723 -1.1178898e-20)
(-0.78773072 0.024225033 8.9915523e-20)
(-0.82546592 0.018937112 -4.1677531e-20)
(-0.8571393 0.013123046 -1.4215574e-20)
(-0.88091082 0.0068505746 7.6665912e-21)
(-0.89489072 0.00018811654 2.3361049e-20)
(-0.89726728 -0.0066730574 -1.1327031e-20)
(-0.8864715 -0.013537742 2.0291136e-20)
(-0.86127314 -0.020271097 1.2175929e-19)
(-0.82072216 -0.026778095 5.8304543e-21)
(-0.76409146 -0.033016326 -2.6330567e-20)
(-0.69088215 -0.038942055 5.8934699e-20)
(-0.60085637 -0.044433029 -5.0812896e-20)
(-0.49417072 -0.04938545 1.4608991e-19)
(-0.37135831 -0.05363957 4.2187068e-20)
(-0.23368937 -0.056924522 -1.2127726e-19)
(-0.083213247 -0.058786865 2.0755806e-20)
(0.075765103 -0.058588219 2.4217666e-20)
(0.2372999 -0.055667906 4.9334144e-21)
(0.39114007 -0.049930014 -6.5807619e-20)
(0.52995453 -0.041566327 1.2888023e-19)
(0.64352418 -0.032379024 3.8497935e-20)
(0.73665001 -0.02384798 6.3946589e-20)
(-0.00011358343 0.0016211653 4.3657399e-21)
(-0.00038445928 0.0049842289 -2.3386497e-21)
(-0.00072635803 0.0086530685 -6.2201376e-22)
(-0.0011595516 0.012644503 5.9016313e-22)
(-0.0017027511 0.016973679 -2.8600645e-21)
(-0.0023807332 0.021652475 -2.122929e-22)
(-0.003223422 0.026688299 -2.7197598e-21)
(-0.0042663362 0.032082532 -2.9322111e-21)
(-0.0055515269 0.037828651 2.4000257e-20)
(-0.0071284304 0.043910088 -2.1455416e-20)
(-0.0090546754 0.050297852 1.0283685e-20)
(-0.011396768 0.056948016 1.5092341e-20)
(-0.014230589 0.063799223 -2.999915e-20)
(-0.017641561 0.070770507 -3.7202102e-21)
(-0.021724358 0.077759803 1.4419023e-20)
(-0.026581985 0.084643706 9.9437963e-21)
(-0.032324104 0.091279172 -1.1575643e-20)
(-0.039064486 0.097507942 4.2066868e-20)
(-0.046917632 0.10316446 -2.4982832e-20)
(-0.055994728 0.10808782 1.2398411e-20)
(-0.066399394 0.11213752 -4.2022972e-20)
(-0.07822384 0.11521201 -1.097596e-20)
(-0.091546897 0.11726687 2.300135e-20)
(-0.10643754 0.1183283 -3.4713156e-20)
(-0.12295648 0.11849633 -1.3662116e-20)
(-0.14114736 0.1179294 1.6560602e-20)
(-0.16105412 0.11679688 9.3910643e-20)
(-0.18275836 0.11524012 4.242017e-20)
(-0.20634511 0.11335645 -2.1379461e-20)
(-0.23186482 0.11123031 2.263123e-20)
(-0.25937572 0.10891856 -1.4420786e-20)
(-0.28894465 0.10644802 -8.0843434e-20)
(-0.32061649 0.10382592 2.7118124e-20)
(-0.35441562 0.10104349 8.0908165e-20)
(-0.3903347 0.09807706 -2.7337095e-20)
(-0.42832094 0.094886659 -3.80478e-20)
(-0.46825868 0.091413185 6.591561e-20)
(-0.50994588 0.087576088 1.9970003e-20)
(-0.55306481 0.083271845 -3.5883817e-20)
(-0.59714709 0.07837539 -1.4446196e-20)
(-0.64153506 0.072745916 6.8784269e-20)
(-0.68534248 0.066237881 -1.9705526e-20)
(-0.72742174 0.0587174 -2.8201867e-20)
(-0.76634973 0.050088927 -7.4360091e-20)
(-0.80043922 0.040340393 1.4078692e-19)
(-0.82788286 0.029580804 -9.0233804e-20)
(-0.84678418 0.017969126 -2.2332736e-20)
(-0.85525126 0.0056550908 -8.8757801e-20)
(-0.85153916 -0.0070572391 -1.0600492e-19)
(-0.83423216 -0.019800382 -5.3508992e-21)
(-0.8022987 -0.032285575 2.2540711e-20)
(-0.75501331 -0.044358193 -1.6741558e-19)
(-0.69184104 -0.055962159 -7.1919038e-20)
(-0.61246601 -0.067009059 -7.4670161e-20)
(-0.51683491 -0.077317632 -2.471746e-20)
(-0.40532932 -0.086684453 -1.9511215e-19)
(-0.27877338 -0.094841997 7.8302719e-20)
(-0.13861689 -0.10133543 -2.4420083e-20)
(0.012921016 -0.10533194 -2.03239e-19)
(0.17134923 -0.10561425 -8.1985713e-20)
(0.33063049 -0.10078366 9.9197211e-20)
(0.48014138 -0.090531147 3.4477657e-19)
(0.61240982 -0.07546937 -1.1081842e-19)
(0.71867136 -0.058940912 -1.7838472e-19)
(0.80297987 -0.043252449 -7.6256914e-20)
(-0.00022795201 0.0023171984 -1.4553933e-20)
(-0.00073294572 0.0071260657 1.6756502e-20)
(-0.0013269932 0.012374552 -6.0604582e-21)
(-0.00202969 0.018087793 6.5921408e-22)
(-0.0028597692 0.024288559 -1.3033799e-20)
(-0.003841191 0.030995238 1.3495475e-20)
(-0.0050024461 0.038220123 -2.0483342e-20)
(-0.0063768904 0.045967202 9.6499937e-21)
(-0.0080035282 0.054229508 3.672085e-20)
(-0.0099277114 0.062986052 -8.845834e-21)
(-0.012201807 0.072198411 -3.3738238e-20)
(-0.014885762 0.081807046 1.0325333e-20)
(-0.01804753 0.091727619 6.9453341e-22)
(-0.02176323 0.10184764 -2.7166037e-20)
(-0.026116944 0.11202404 8.531572e-20)
(-0.031200041 0.12208234 -5.2606278e-20)
(-0.037109881 0.13181857 -5.0322492e-22)
(-0.043947861 0.14100495 2.9397814e-20)
(-0.051816792 0.1494006 -7.5101371e-20)
(-0.06081775 0.15676807 3.5686503e-20)
(-0.071046769 0.1628959 5.3587346e-20)
(-0.082591839 0.16762544 2.1822533e-20)
(-0.095531127 0.17087832 -1.0889286e-19)
(-0.10993556 0.17267793 -5.7258575e-20)
(-0.12587366 0.17315655 3.73878e-20)
(-0.14339558 0.17253796 -2.1843976e-20)
(-0.16255185 0.17107579 8.2604765e-20)
(-0.18342314 0.16898248 -2.3814916e-20)
(-0.20609572 0.16640197 6.4584688e-20)
(-0.23062431 0.16345719 -3.6743506e-20)
(-0.2570559 0.16023648 2.2707347e-20)
(-0.2854509 0.15678243 -8.399393e-20)
(-0.31584432 0.15310629 1.2184394e-20)
(-0.34824703 0.14919479 -6.4072071e-20)
(-0.38263443 0.1450116 6.1731723e-20)
(-0.41893167 0.14049601 1.9545918e-20)
(-0.45699504 0.13555889 -2.4840078e-19)
(-0.49658703 0.13007883 -6.4760101e-20)
(-0.53734525 0.12390068 5.4034897e-20)
(-0.57874655 0.11683791 -5.3156146e-20)
(-0.6200682 0.10868129 1.3493573e-20)
(-0.66034935 0.099215361 8.5551493e-20)
(-0.69836029 0.088242841 -4.0420022e-21)
(-0.73258814 0.075628757 -2.8187191e-20)
(-0.76129809 0.06137322 1.3962059e-20)
(-0.78270155 0.045644462 -6.263101e-21)
(-0.79488812 0.028677328 -1.9244119e-20)
(-0.79604621 0.0107522 3.012369e-19)
(-0.78463007 -0.0076499378 -3.3420436e-20)
(-0.75949 -0.026004989 3.0949754e-20)
(-0.71986223 -0.043907883 -2.9105235e-19)
(-0.66527826 -0.06115327 1.6034574e-19)
(-0.59542793 -0.077676457 1.3222395e-19)
(-0.51019256 -0.093374079 1.2744288e-19)
(-0.40974822 -0.10801386 1.241461e-19)
(-0.29479293 -0.12131211 1.976404e-19)
(-0.16645619 -0.13292643 -3.9983185e-19)
(-0.026453199 -0.14225417 2.499016e-19)
(0.1228637 -0.14810252 3.8604856e-19)
(0.2767845 -0.1486883 -2.8701008e-19)
(0.42921812 -0.1418097 -9.3229445e-20)
(0.56912437 -0.12688719 -8.2694998e-20)
(0.68901984 -0.10525382 4.1943663e-19)
(0.78212777 -0.081606165 3.0832267e-19)
(0.85210721 -0.059331943 -1.3405516e-20)
(-0.00037553006 0.0029450723 1.0185654e-20)
(-0.0011827595 0.0090602605 -2.4412723e-20)
(-0.0021024186 0.015738549 1.9909883e-20)
(-0.0031532931 0.023013527 -7.5275124e-21)
(-0.0043541918 0.030915922 -2.7207002e-21)
(-0.0057280857 0.039471363 2.3430549e-20)
(-0.0073016881 0.048698197 -5.9422391e-21)
(-0.0091056466 0.058604746 -1.2629028e-20)
(-0.011175123 0.069185961 -9.711692e-22)
(-0.013550287 0.080419553 -8.2597574e-21)
(-0.016276799 0.092261596 1.1590347e-20)
(-0.019406204 0.10464175 -8.0794906e-21)
(-0.022996238 0.11745833 -2.9861304e-20)
(-0.027110958 0.13057372 -8.6852235e-22)
(-0.031820624 0.14381068 2.3031905e-20)
(-0.037201269 0.15695064 1.6400512e-20)
(-0.043333881 0.16973507 -1.419611e-20)
(-0.050303152 0.18187172 1.3814067e-21)
(-0.058195816 0.19304707 2.8112479e-20)
(-0.067098667 0.20294654 3.4517069e-20)
(-0.077096516 0.21128285 -3.9747811e-20)
(-0.088270385 0.21783088 -4.036257e-20)
(-0.10069632 0.22246485 5.4812474e-20)
(-0.11444701 0.22518927 -6.8372088e-20)
(-0.12959846 0.22615261 -1.1925579e-19)
(-0.14621231 0.22563285 2.8323073e-19)
(-0.16434821 0.2239705 -1.5679857e-19)
(-0.18408248 0.2214522 2.3298361e-19)
(-0.20550531 0.21827557 -2.9214041e-19)
(-0.22867855 0.21459966 3.2673033e-19)
(-0.2536361 0.21054854 -3.3841337e-19)
(-0.28042785 0.20618447 5.7250284e-20)
(-0.30907661 0.20152362 1.9717002e-19)
(-0.33957578 0.19654803 -1.114027e-19)
(-0.37187882 0.19120815 3.4945979e-20)
(-0.40588335 0.18542125 1.0369954e-20)
(-0.44141052 0.17906644 1.2584153e-19)
(-0.47817918 0.17197975 4.0793874e-20)
(-0.51577424 0.16395286 4.0803787e-20)
(-0.55360995 0.15473669 4.0900922e-20)
(-0.59089167 0.1440534 -2.0831098e-19)
(-0.62658182 0.13161819 9.1237702e-20)
(-0.65937378 0.11717484 1.3974536e-20)
(-0.68769316 0.10056461 -1.6552224e-19)
(-0.70982639 0.081826321 -8.2982702e-20)
(-0.72404781 0.061206569 4.093374e-20)
(-0.72856901 0.039008924 1.4605933e-19)
(-0.72176316 0.015673625 -6.374557e-20)
(-0.70231243 -0.0081487819 1.8321371e-19)
(-0.66926471 -0.031767815 9.9233405e-20)
(-0.62206958 -0.054673087 1.3734085e-19)
(-0.56047207 -0.076642293 3.6767934e-19)
(-0.48434876 -0.097627991 -2.8637334e-19)
(-0.39379747 -0.11750616 9.2931798e-20)
(-0.28930346 -0.13598044 -1.6370326e-19)
(-0.17195322 -0.15268396 -1.5711462e-19)
(-0.043262255 -0.16722659 -6.1886329e-20)
(0.094661847 -0.17892337 -5.795286e-19)
(0.23928831 -0.18624379 -1.5899093e-19)
(0.3855186 -0.18687301 3.6919886e-19)
(0.52719786 -0.17776574 1.4106645e-19)
(0.65294221 -0.15808785 -1.0741538e-19)
(0.75594488 -0.13015097 -2.2298359e-19)
(0.83179122 -0.099946948 -3.4599959e-19)
(0.88512141 -0.072062653 2.6370488e-20)
(-0.00054791718 0.0034798103 3.0805598e-20)
(-0.0017084683 0.01071041 7.8253194e-21)
(-0.0030089826 0.018612992 -6.3415563e-21)
(-0.0044674335 0.02722963 -2.342183e-20)
(-0.0061028067 0.036599301 1.2839853e-20)
(-0.0079370452 0.046755658 -1.8496701e-20)
(-0.0099949323 0.057724461 8.0116199e-21)
(-0.012304118 0.069520424 1.9104294e-21)
(-0.014895458 0.082143335 -1.0832158e-20)
(-0.017803262 0.0955735 -2.3392202e-20)
(-0.021065537 0.10976651 -1.1735176e-21)
(-0.024724168 0.12464743 3.8679115e-20)
(-0.028825052 0.14010468 -5.371038e-20)
(-0.033418129 0.15598405 8.7148891e-20)
(-0.038557316 0.17208356 -2.2905551e-20)
(-0.044300294 0.18815029 4.8978525e-20)
(-0.050708154 0.20388061 -5.9697705e-20)
(-0.057844909 0.21892574 3.9116912e-20)
(-0.065776894 0.23290478 -6.2496447e-21)
(-0.07457215 0.24542712 -2.5617377e-20)
(-0.084299937 0.25612521 6.298391e-20)
(-0.095030483 0.26469671 -9.0012587e-20)
(-0.10683504 0.27095146 9.9101809e-20)
(-0.11978698 0.27485371 1.7150502e-20)
(-0.13396646 0.27654605 -1.7109855e-19)
(-0.14945402 0.27634078 1.7473872e-19)
(-0.16631728 0.27465547 -1.1477463e-19)
(-0.18462659 0.27186644 1.2968426e-19)
(-0.20448196 0.26823879 1.2166756e-20)
(-0.22595221 0.26396178 7.5743407e-21)
(-0.24906225 0.25919473 -5.2500995e-20)
(-0.27384406 0.25402675 3.3390434e-21)
(-0.30030748 0.24848221 -1.9906223e-19)
(-0.32842593 0.24253908 5.4305633e-20)
(-0.35812764 0.23613415 1.6211406e-19)
(-0.38927866 0.2291614 -7.6012627e-20)
(-0.42166119 0.2214669 6.2810056e-20)
(-0.45494719 0.21284339 -6.2902437e-20)
(-0.48866599 0.20302876 -3.5130692e-19)
(-0.52216854 0.19171142 1.9440111e-19)
(-0.55459265 0.17854645 4.7389681e-20)
(-0.5848357 0.16318422 -2.6805285e-19)
(-0.6115392 0.14532032 1.6055582e-20)
(-0.63312379 0.12479463 3.2893361e-20)
(-0.64798713 0.10171008 3.488563e-19)
(-0.65452199 0.076396044 8.0109733e-20)
(-0.65117691 0.049226948 -1.246449e-19)
(-0.63653731 0.020787019 -1.2641364e-19)
(-0.60941666 -0.0081319358 -1.7826131e-19)
(-0.56892328 -0.036678098 -2.1868501e-19)
(-0.51464218 -0.064214664 -1.331533e-19)
(-0.44650236 -0.09049034 -2.0842812e-19)
(-0.3645682 -0.1154743 7.1881744e-20)
(-0.26920224 -0.13901649 -4.4537252e-19)
(-0.16128002 -0.16074376 -3.0006204e-20)
(-0.042393402 -0.18022372 -2.6326112e-20)
(0.085512385 -0.19704903 -1.4287423e-20)
(0.21991752 -0.21052084 6.2412968e-19)
(0.35798781 -0.21879888 2.4870184e-19)
(0.49408698 -0.21909999 -3.8909226e-19)
(0.62176222 -0.20758356 -5.6788859e-19)
(0.72967237 -0.18318426 -2.5722199e-19)
(0.81270814 -0.14949611 -8.425581e-20)
(0.86928148 -0.11373221 4.9142521e-19)
(0.90616602 -0.081602543 -1.2345191e-19)
(-0.00073389471 0.0038993029 -5.7697941e-21)
(-0.0022766677 0.012008484 -1.3156337e-20)
(-0.0039889749 0.020879987 3.177052e-20)
(-0.0058888616 0.030564066 -1.1832444e-21)
(-0.007995354 0.041108145 -1.5492234e-20)
(-0.010329503 0.052554598 -6.8344926e-21)
(-0.012914239 0.064937962 -5.0525856e-21)
(-0.015774229 0.078281534 9.9730111e-21)
(-0.018935957 0.092593132 -5.1727646e-20)
(-0.022427701 0.10786005 3.91341e-20)
(-0.026279499 0.12404316 -1.8960287e-21)
(-0.030523064 0.14107022 -2.3839169e-20)
(-0.035191678 0.15882864 8.9590603e-20)
(-0.040320065 0.17715806 -8.9773372e-20)
(-0.045944272 0.19584354 1.2045207e-20)
(-0.052101586 0.21461045 7.5035519e-20)
(-0.058830562 0.23312271 -7.1189084e-20)
(-0.066171221 0.25098655 2.5152486e-20)
(-0.074165523 0.26776248 -4.9379563e-20)
(-0.082858186 0.28298792 6.4151957e-20)
(-0.092297962 0.29621259 1.2200752e-19)
(-0.10253928 0.30704635 -1.2241021e-19)
(-0.1136441 0.31521547 -1.8156179e-19)
(-0.12568347 0.3206176 3.5456331e-19)
(-0.13873983 0.32335957 -2.8741759e-19)
(-0.15290885 0.32375841 1.6831817e-19)
(-0.16827227 0.3222867 -4.3793064e-20)
(-0.18490429 0.31943249 1.0392558e-19)
(-0.20290332 0.31554476 -1.0715041e-19)
(-0.22234828 0.31084397 -1.445955e-19)
(-0.24326632 0.30551568 9.6648737e-20)
(-0.26566564 0.29968457 1.5997051e-19)
(-0.28954079 0.29339068 -1.4254936e-20)
(-0.31484381 0.28661009 -5.9744508e-21)
(-0.34147533 0.27926586 -1.0382722e-19)
(-0.36926807 0.2712284 4.501814e-20)
(-0.39796419 0.26231041 1.6519964e-19)
(-0.42718817 0.25226101 8.2947e-20)
(-0.45641554 0.24076465 -1.2737413e-19)
(-0.48493978 0.22744935 1.0094643e-19)
(-0.51184312 0.21190734 -8.5286088e-20)
(-0.53598009 0.19373238 2.8877812e-20)
(-0.55597936 0.17259037 1.0821006e-19)
(-0.57032827 0.14834979 -2.5771808e-19)
(-0.57760791 0.12119314 -1.5256757e-19)
(-0.57641944 0.09151919 -9.833553e-20)
(-0.5654679 0.059766167 3.063336e-19)
(-0.54347626 0.026581611 1.9719523e-19)
(-0.50920153 -0.0071371433 2.2985536e-19)
(-0.46173469 -0.040338261 3.9913606e-19)
(-0.40082993 -0.072201315 -1.3756273e-19)
(-0.32662908 -0.10243005 2.8890271e-20)
(-0.23941929 -0.13101081 2.3151242e-19)
(-0.13987775 -0.15774666 6.8502035e-19)
(-0.029323154 -0.18216628 4.569856e-19)
(0.09010009 -0.20379724 1.826107e-19)
(0.21606385 -0.22225566 5.416218e-19)
(0.34565093 -0.23686621 -3.733713e-19)
(0.47558626 -0.24549708 3.9223367e-20)
(0.59961216 -0.24491881 6.2771516e-19)
(0.71060681 -0.23070253 4.3265174e-19)
(0.79808093 -0.20183104 2.0330432e-20)
(0.85949522 -0.16326385 -7.0275381e-19)
(0.89684749 -0.12324216 7.4210869e-20)
(0.91944926 -0.088367626 -1.058336e-19)
(-0.00092037657 0.0041856243 -2.2577518e-20)
(-0.0028470607 0.012899148 1.0888533e-20)
(-0.004973284 0.022443095 -1.4716388e-20)
(-0.0073175605 0.032875387 -8.3694611e-21)
(-0.0098990825 0.044251813 2.3376364e-20)
(-0.012738261 0.056623921 2.1844405e-20)
(-0.015856452 0.070036183 -2.2446057e-20)
(-0.01927567 0.084522527 2.7041329e-21)
(-0.023018382 0.10010195 6.2770203e-22)
(-0.027107217 0.11677323 4.4730801e-20)
(-0.03156462 0.13450858 -4.9249434e-21)
(-0.036412466 0.1532463 -9.0831034e-20)
(-0.041671653 0.1728826 7.295939e-20)
(-0.047361718 0.19326284 -2.53086e-21)
(-0.053500558 0.21417284 -4.9507347e-20)
(-0.060104315 0.23533155 -4.2973672e-21)
(-0.067187613 0.25638646 1.1028523e-20)
(-0.074764256 0.27691439 5.0229255e-20)
(-0.082848602 0.29643049 -9.309163e-20)
(-0.091457757 0.31440894 1.657739e-19)
(-0.10061465 0.33031825 -3.6272447e-20)
(-0.11035185 0.34367237 2.6989458e-20)
(-0.12071567 0.3540948 -2.2571123e-20)
(-0.13176957 0.36138663 9.1209639e-22)
(-0.14359572 0.3655815 -1.3712264e-19)
(-0.15629496 0.36696408 -1.3833081e-19)
(-0.16997529 0.36602953 2.7661907e-19)
(-0.18472121 0.36336399 4.6396245e-20)
(-0.20061451 0.35944387 -1.6301962e-19)
(-0.21774908 0.35454505 -5.8283697e-20)
(-0.23616564 0.34886193 -1.3217577e-19)
(-0.25585486 0.34254949 1.5007415e-19)
(-0.27678707 0.33567638 6.5860677e-20)
(-0.29889222 0.32822268 -1.5371114e-19)
(-0.32204269 0.32009998 6.4920488e-20)
(-0.34603734 0.31115618 3.0432697e-20)
(-0.37057834 0.30117105 -9.1288582e-20)
(-0.39524438 0.28985117 -2.3891868e-19)
(-0.41946195 0.27683033 -7.2524185e-20)
(-0.44247619 0.26168026 4.8603664e-20)
(-0.46333011 0.24393758 1.1527333e-19)
(-0.48086143 0.22315257 1.1876391e-19)
(-0.4937273 0.19898371 1.3088784e-19)
(-0.50055239 0.17135744 2.7318321e-19)
(-0.50013043 0.1405542 -7.5258897e-21)
(-0.49132246 0.10700678 1.1384487e-19)
(-0.473009 0.071159799 -6.1130285e-19)
(-0.44388852 0.033631068 -1.6819668e-19)
(-0.40257967 -0.004581766 -1.9101049e-19)
(-0.34833179 -0.04214969 -5.2743441e-19)
(-0.28118594 -0.078021478 6.1586522e-19)
(-0.20150531 -0.11186469 -1.3780706e-19)
(-0.10980136 -0.1436637 -4.4570209e-19)
(-0.0070887082 -0.17315329 -5.5319183e-19)
(0.10485563 -0.19975297 -7.1309987e-20)
(0.22342509 -0.22298284 1.817844e-19)
(0.34598821 -0.24251518 2.9758769e-19)
(0.46930091 -0.25769041 -1.2766102e-19)
(0.58950259 -0.26611761 2.3343361e-19)
(0.69972077 -0.26413471 -1.9745169e-19)
(0.79197774 -0.24698862 -6.7261251e-20)
(0.85726268 -0.21402896 -1.9998611e-19)
(0.896944 -0.17162609 8.7673369e-19)
(0.91691787 -0.12901781 2.8422626e-20)
(0.92844126 -0.092892558 3.4743271e-19)
(-0.001092856 0.0043265685 2.1013476e-20)
(-0.0033751813 0.013344408 4.009499e-21)
(-0.0058853885 0.023235497 -4.4081809e-21)
(-0.0086426181 0.0340646 -2.1678854e-20)
(-0.011666468 0.045895383 2.6018677e-20)
(-0.01497705 0.058788604 -2.21146e-20)
(-0.018594608 0.072799385 -1.0580073e-20)
(-0.022539098 0.087973881 5.6835845e-22)
(-0.026829723 0.10434498 8.9608842e-21)
(-0.031484371 0.12192704 5.1064658e-20)
(-0.036518963 0.14070937 -8.59602e-20)
(-0.041946735 0.16064862 1.0360506e-19)
(-0.047777482 0.1816598 -3.0542524e-20)
(-0.054016838 0.20360646 -4.1637624e-20)
(-0.060665682 0.22629026 6.4214208e-20)
(-0.067719823 0.24944105 -1.2740706e-19)
(-0.075170162 0.27270906 1.5560058e-19)
(-0.083003616 0.29566147 2.4637595e-21)
(-0.091205041 0.31778674 9.0908617e-20)
(-0.099760527 0.33851078 -3.650743e-19)
(-0.10866209 0.35722898 8.9538878e-20)
(-0.11791377 0.37335701 3.7534786e-19)
(-0.12753837 0.38639994 -1.7996229e-19)
(-0.13758361 0.39603204 -2.1760265e-19)
(-0.14812553 0.4021712 5.5488839e-20)
(-0.15926677 0.40502182 2.9358769e-19)
(-0.17112793 0.40505643 -4.4993046e-19)
(-0.18382369 0.40291388 5.0360631e-19)
(-0.19743115 0.39921445 -3.9970871e-19)
(-0.21202823 0.39437217 7.7061874e-20)
(-0.22767766 0.38859764 -1.3275995e-19)
(-0.24437084 0.3820393 -1.8986165e-19)
(-0.26205851 0.37479272 7.5443493e-20)
(-0.28064371 0.36686111 1.9706236e-20)
(-0.29996934 0.35815313 2.8097143e-19)
(-0.31979855 0.34849665 -5.5022402e-20)
(-0.3397937 0.33764018 1.41069e-19)
(-0.35949047 0.32525041 -1.1959531e-19)
(-0.37827139 0.31091491 7.1368793e-20)
(-0.39534244 0.29415587 4.6358277e-20)
(-0.40972235 0.27446437 3.9685159e-20)
(-0.42025499 0.25136306 3.9352749e-20)
(-0.42566099 0.2245282 -2.391994e-19)
(-0.42474804 0.19397223 -1.8720363e-19)
(-0.41649495 0.16007299 5.2513777e-20)
(-0.399981 0.12325201 -3.3020417e-20)
(-0.37412961 0.08387675 1.3718235e-19)
(-0.33751875 0.042480649 -2.7002564e-19)
(-0.28889224 0.00020941727 -3.124021e-19)
(-0.22795955 -0.041297221 -9.0357269e-20)
(-0.15510017 -0.080794734 -2.3781723e-19)
(-0.07081663 -0.11789199 7.6556857e-21)
(0.024217778 -0.15256484 1.161175e-19)
(0.12865846 -0.18445605 5.6808514e-19)
(0.24030124 -0.21287061 -2.8681777e-19)
(0.35620503 -0.2373362 1.1709577e-19)
(0.47358205 -0.25758817 -3.4774852e-19)
(0.5889709 -0.27292347 5.9164321e-19)
(0.69784679 -0.28067322 -3.4368716e-19)
(0.79250486 -0.27663294 1.1973525e-19)
(0.86427081 -0.25625627 -2.801522e-22)
(0.90664449 -0.21988826 9.5824061e-20)
(0.92609327 -0.17531796 3.5520064e-19)
(0.93181734 -0.13178187 -6.7001948e-19)
(0.93572341 -0.095693712 6.8042629e-19)
(-0.0012365163 0.0043171293 -4.6538903e-20)
(-0.0038157053 0.01332804 -2.2726213e-20)
(-0.0066470266 0.023227666 3.5699219e-20)
(-0.0097503507 0.034086357 -9.4039165e-22)
(-0.013145898 0.045974674 -3.2332644e-20)
(-0.016853856 0.058962033 -1.692572e-20)
(-0.020893922 0.073114237 3.5730822e-20)
(-0.025284782 0.08849048 -5.8765591e-21)
(-0.030043426 0.10513939 8.3064194e-20)
(-0.035184343 0.12309406 -1.6236826e-20)
(-0.040718587 0.14236575 -4.1648776e-22)
(-0.046652737 0.16293627 6.0183032e-20)
(-0.052987767 0.18474878 -1.9389242e-19)
(-0.059717916 0.20769713 9.0924842e-20)
(-0.066829664 0.23161403 1.6415135e-19)
(-0.074301 0.25625877 -1.7651473e-19)
(-0.082101232 0.28130577 2.1943131e-20)
(-0.090191695 0.30633632 -1.2623702e-19)
(-0.098527804 0.33083667 -9.5049418e-20)
(-0.10706284 0.35420709 3.0347213e-19)
(-0.11575391 0.375787 -2.3153641e-19)
(-0.12457001 0.39490107 3.0989051e-19)
(-0.13350168 0.41092845 -3.7064377e-20)
(-0.14257059 0.42339102 1.5380434e-19)
(-0.15183636 0.43204667 -3.3976297e-19)
(-0.16139702 0.43696133 8.1628382e-20)
(-0.17137907 0.43852432 2.0860708e-19)
(-0.18191513 0.4373745 -5.0988825e-19)
(-0.19311539 0.43423148 2.2382219e-19)
(-0.20503999 0.4296853 2.4254557e-19)
(-0.21773066 0.42407169 -2.0189925e-19)
(-0.23120574 0.41755658 -2.6935885e-20)
(-0.2454051 0.41021409 1.3698749e-19)
(-0.2602071 0.4020506 -7.6214709e-20)
(-0.27542786 0.3929858 1.1745907e-19)
(-0.29079767 0.38283956 -4.1516425e-19)
(-0.30593818 0.37133742 2.1897213e-19)
(-0.32034233 0.35811262 1.3229102e-19)
(-0.3333517 0.34271235 2.7226396e-19)
(-0.34413988 0.324618 3.5963786e-20)
(-0.35171086 0.30328788 -2.9303824e-19)
(-0.35492891 0.27823716 1.1791721e-19)
(-0.35259974 0.24918692 1.7372823e-19)
(-0.34370243 0.21623917 2.7168194e-20)
(-0.32735515 0.179844 -1.6703663e-19)
(-0.30275179 0.14038789 -1.4595226e-19)
(-0.26877019 0.098102375 4.4109597e-19)
(-0.22405609 0.053473847 2.3228089e-19)
(-0.16792874 0.0078124422 5.0219232e-19)
(-0.10070227 -0.036995628 1.7599306e-19)
(-0.022975086 -0.079580945 6.8293029e-20)
(0.064713758 -0.11954606 5.0771228e-19)
(0.16157516 -0.15679264 2.0106895e-19)
(0.26599189 -0.19080489 -6.7975405e-19)
(0.37540772 -0.22076186 5.4982022e-19)
(0.48668299 -0.24623248 -5.0961452e-19)
(0.59712005 -0.26697151 2.4619652e-19)
(0.70299951 -0.2821387 -1.1976902e-18)
(0.79902757 -0.28873925 -6.019666e-19)
(0.87645462 -0.28243802 2.4383982e-19)
(0.92626394 -0.25918526 3.8167202e-19)
(0.94616675 -0.22060342 6.3618469e-19)
(0.94825553 -0.17521262 1.103884e-19)
(0.94357253 -0.13228428 8.6964735e-20)
(0.94294289 -0.097210427 -9.088635e-19)
(-0.0013376405 0.0041606682 -8.3746409e-22)
(-0.0041265406 0.012859273 4.2165292e-20)
(-0.0071853133 0.022433818 -4.973706e-20)
(-0.010534563 0.032958532 -2.3952967e-20)
(-0.014195258 0.044509317 4.8017108e-20)
(-0.018187991 0.057162978 1.5570211e-20)
(-0.022532478 0.070995147 -7.5616032e-20)
(-0.027246991 0.086077805 8.1509999e-20)
(-0.0323475 0.10247589 1.7231065e-20)
(-0.037846699 0.12024292 6.8720785e-20)
(-0.043752832 0.13941528 -1.8304795e-19)
(-0.050068369 0.16000503 -2.2422586e-21)
(-0.056788529 0.18199094 1.65779e-19)
(-0.06389971 0.20530764 -1.7894154e-19)
(-0.071377956 0.22983287 1.2895408e-19)
(-0.079187627 0.25537336 4.8192781e-20)
(-0.087280581 0.28165002 -1.0161341e-19)
(-0.095596242 0.30828468 9.2680258e-20)
(-0.10406314 0.334791 1.2485205e-19)
(-0.11260259 0.36057447 -2.6880127e-21)
(-0.12113498 0.38494715 -2.023286e-19)
(-0.12958924 0.40716387 1.2693951e-19)
(-0.13791497 0.42648499 -7.1784106e-20)
(-0.14609587 0.4422663 -3.523892e-19)
(-0.15416137 0.45406684 -1.1935179e-19)
(-0.16219183 0.4617512 3.2873312e-19)
(-0.17031186 0.46554835 -3.3220108e-20)
(-0.17866737 0.46602347 3.7962215e-19)
(-0.18739041 0.46393559 -2.2722456e-19)
(-0.19656657 0.4600202 1.2104812e-19)
(-0.20623493 0.45480751 -1.7721419e-19)
(-0.21637601 0.44856339 -4.352273e-20)
(-0.22692063 0.44138076 2.2127831e-19)
(-0.23775425 0.43326131 -2.3040298e-19)
(-0.24866886 0.42411497 -3.401493e-19)
(-0.25936271 0.41374736 3.4976479e-20)
(-0.26942089 0.40186399 3.7467942e-19)
(-0.27829645 0.38807171 -4.8356918e-19)
(-0.28529282 0.37189035 1.0541995e-19)
(-0.28955457 0.35277166 -2.263948e-19)
(-0.29007717 0.3301548 3.5019454e-20)
(-0.28575061 0.30356332 -3.5601681e-19)
(-0.27547823 0.2727709 -1.7089639e-19)
(-0.25834577 0.23798256 -2.1140713e-19)
(-0.23357962 0.19969167 8.5017426e-19)
(-0.20041511 0.15822853 2.7603271e-19)
(-0.15774695 0.11372201 -3.6677489e-19)
(-0.10469835 0.066657637 2.9734862e-19)
(-0.041412818 0.018489047 2.4812689e-19)
(0.031330068 -0.02882361 -2.7991891e-19)
(0.11284842 -0.07394237 -1.4660166e-19)
(0.20260184 -0.11642048 -3.4483469e-19)
(0.29973557 -0.15596694 -1.680636e-19)
(0.4024305 -0.19186721 5.7616235e-19)
(0.50784587 -0.2231985 3.2556538e-19)
(0.61288624 -0.24957881 5.2552212e-20)
(0.71499288 -0.27079853 -2.4167676e-21)
(0.8100944 -0.28575416 2.9712106e-19)
(0.89183277 -0.2910987 -4.2888491e-19)
(0.95006766 -0.28213757 -5.5635049e-19)
(0.97696339 -0.25616086 -1.5593661e-19)
(0.97647808 -0.2164907 -1.1755586e-18)
(0.96524868 -0.17219408 -9.2695287e-19)
(0.95392416 -0.13118961 -2.3433784e-19)
(0.95088733 -0.097747032 -1.2355982e-19)
(-0.0013851961 0.0038697418 2.8296627e-20)
(-0.0042736662 0.011975438 1.7677109e-20)
(-0.0074410846 0.020916689 -3.6782576e-20)
(-0.010908645 0.030769452 6.3082338e-20)
(-0.014698033 0.041612835 1.5803991e-20)
(-0.018830431 0.05352898 -6.7780408e-20)
(-0.023326019 0.066601486 3.468913e-22)
(-0.028203414 0.080913578 -4.0668613e-20)
(-0.033478718 0.096545487 1.2157108e-20)
(-0.039164439 0.11357091 -2.7379294e-22)
(-0.045268178 0.13205221 6.6525141e-20)