/*--------------------------------*- C++ -*----------------------------------*\
  =========                 |
  \\      /  F ield         | OpenFOAM: The Open Source CFD Toolbox
   \\    /   O peration     | Website:  https://openfoam.org
    \\  /    A nd           | Version:  13
     \\/     M anipulation  |
\*---------------------------------------------------------------------------*/
FoamFile
{
    format      ascii;
    class       volScalarField;
    location    "31.204001";
    object      k;
}
// * * * * * * * * * * * * * * * * * * * * * * * * * * * * * * * * * * * * * //

dimensions      [0 2 -2 0 0 0 0];

internalField   nonuniform List<scalar> 
17140
(
1.0927979e-11
3.4339494e-10
2.8080429e-09
1.2076182e-08
3.7161033e-08
9.3770954e-08
2.0792929e-07
4.2138611e-07
7.9961119e-07
1.4435097e-06
2.5064908e-06
4.2192028e-06
6.9252007e-06
1.1132124e-05
1.758476e-05
2.7368757e-05
4.205691e-05
6.3913834e-05
9.6179449e-05
0.00014345626
0.00021222843
0.00031153799
0.00045382765
0.00065591367
0.00093994796
0.0013340163
0.0018716395
0.0025888825
0.003517274
0.004671262
0.0060324123
0.0075397291
0.0090994577
0.010615641
0.012020942
0.01328688
0.014414911
0.015422382
0.016332357
0.017168606
0.017953861
0.018709648
0.019456625
0.020215117
0.021005628
0.021848542
0.022763284
0.023769201
0.024886791
0.026137283
0.027543449
0.029130351
0.030925984
0.032957384
0.035248197
0.037819648
0.040701695
0.043894435
0.047335391
0.050904869
0.054275465
0.057717819
0.061710531
0.066558665
0.067952234
1.0935326e-11
3.4362582e-10
2.8099378e-09
1.2084386e-08
3.7186504e-08
9.3835856e-08
2.0807474e-07
4.2168428e-07
8.0018396e-07
1.4445571e-06
2.5083344e-06
4.2223506e-06
6.9304435e-06
1.1140679e-05
1.759848e-05
2.7390434e-05
4.2090712e-05
6.3965922e-05
9.6258829e-05
0.00014357595
0.00021240694
0.00031180121
0.0004542109
0.00065646357
0.00094072314
0.001335085
0.0018730711
0.0025907274
0.0035195282
0.0046738145
0.0060349925
0.0075418907
0.0091006482
0.01061532
0.012018687
0.013282428
0.014408109
0.015413109
0.016320497
0.017153992
0.017936251
0.018688695
0.019431869
0.020185979
0.020971429
0.021808469
0.022716494
0.023715075
0.024825233
0.026069373
0.027472631
0.029064584
0.030881418
0.032964406
0.035360681
0.03812772
0.041341903
0.045046258
0.049140489
0.053395418
0.057151553
0.059995948
0.062320079
0.064282832
0.062706713
1.086767e-11
3.4149981e-10
2.7925524e-09
1.200962e-08
3.6956436e-08
9.3255332e-08
2.0678756e-07
4.1907592e-07
7.9523499e-07
1.4356243e-06
2.4928265e-06
4.1962524e-06
6.8876211e-06
1.1071872e-05
1.7489847e-05
2.7221476e-05
4.1831312e-05
6.3572174e-05
9.5667209e-05
0.00014269528
0.00021110751
0.00030990037
0.00045145473
0.00065250503
0.00093509878
0.0013271965
0.0018621847
0.0025760147
0.0035001791
0.0046492404
0.0060050696
0.0075070839
0.0090618462
0.010573444
0.011974373
0.013235955
0.014359499
0.015362241
0.016267164
0.017097924
0.017877108
0.01862605
0.019365183
0.0201146
0.020894603
0.021725302
0.022626054
0.023616722
0.024718971
0.025956665
0.027357882
0.028957788
0.030802524
0.03295024
0.035475824
0.038479298
0.042094142
0.04642509
0.051367523
0.056648475
0.061034685
0.063503579
0.064081455
0.063844526
0.060554395
1.0719616e-11
3.3684743e-10
2.7545081e-09
1.1846007e-08
3.6452965e-08
9.1984896e-08
2.039705e-07
4.1336701e-07
7.8440221e-07
1.4160691e-06
2.4588733e-06
4.139104e-06
6.7938333e-06
1.092114e-05
1.7251816e-05
2.6851165e-05
4.1262612e-05
6.2708671e-05
9.4369379e-05
0.00014076284
0.00020825558
0.00030572806
0.00044540545
0.00064381962
0.00092276699
0.0013099212
0.0018383887
0.0025439438
0.0034581691
0.0045961865
0.0059409839
0.0074333736
0.0089809168
0.010487766
0.011885705
0.013145171
0.01426682
0.015267533
0.016170123
0.016998165
0.017774184
0.018519438
0.01925426
0.019998633
0.020772738
0.02159652
0.022489276
0.023471176
0.024564575
0.02579497
0.027193782
0.028802545
0.030678553
0.032898657
0.035568532
0.038835049
0.042896495
0.047932656
0.053874527
0.060371569
0.065792548
0.068562365
0.068041571
0.066105805
0.062377912
1.0489279e-11
3.2960945e-10
2.6953208e-09
1.1591467e-08
3.5669693e-08
9.0008412e-08
1.9958781e-07
4.0448519e-07
7.6754853e-07
1.3856445e-06
2.4060468e-06
4.050187e-06
6.6479058e-06
1.0686606e-05
1.6881432e-05
2.6274928e-05
4.0377628e-05
6.1364873e-05
9.2349589e-05
0.00013775531
0.00020381687
0.00029923418
0.00043599021
0.00063030183
0.00090357533
0.001283039
0.0018013663
0.0024940593
0.0033928487
0.0045137438
0.0058415074
0.0073191907
0.0088559918
0.01035621
0.0117505
0.013007852
0.014127841
0.015126752
0.016027135
0.01685246
0.017625192
0.018366528
0.019096703
0.019835608
0.020603263
0.021419377
0.022303184
0.023275104
0.024358157
0.025579532
0.026974214
0.02859056
0.030497592
0.032791831
0.035610272
0.03915082
0.043675624
0.049444557
0.056439972
0.06423407
0.071100694
0.07492411
0.074285224
0.071846263
0.06775841
1.0176993e-11
3.1979634e-10
2.615076e-09
1.1246368e-08
3.4607742e-08
8.732871e-08
1.9364579e-07
3.924432e-07
7.4469814e-07
1.3443943e-06
2.334423e-06
3.9296292e-06
6.4500474e-06
1.0368602e-05
1.6379222e-05
2.5493577e-05
3.9177591e-05
5.9542613e-05
8.9610509e-05
0.00013367647
0.00019779656
0.00029042552
0.00042321711
0.00061195978
0.00087752821
0.0012465421
0.0017510787
0.0024262571
0.003303988
0.0044014668
0.0057058746
0.0071633755
0.0086855232
0.010176932
0.011566741
0.012821904
0.013940439
0.014937767
0.015836056
0.016658631
0.017427906
0.018165021
0.018890123
0.019622994
0.020383475
0.021190974
0.022064579
0.023024887
0.024095491
0.025305236
0.02669274
0.028313329
0.030247838
0.032612863
0.035576561
0.039383144
0.044353288
0.05081278
0.058784838
0.067808301
0.076238401
0.08156438
0.081401252
0.079227056
0.073321519
9.7853553e-12
3.0748974e-10
2.5144414e-09
1.081358e-08
3.3275948e-08
8.3968084e-08
1.8619386e-07
3.7734122e-07
7.1604113e-07
1.2926615e-06
2.2445973e-06
3.7784323e-06
6.2019015e-06
9.9697681e-06
1.5749346e-05
2.451357e-05
3.7672387e-05
5.725683e-05
8.6174445e-05
0.00012855923
0.00019024258
0.00027937083
0.0004071832
0.00058892746
0.0008448053
0.0012006615
0.0016878047
0.0023408384
0.0031918486
0.0042594642
0.0055338876
0.0069652842
0.0084683797
0.0099483959
0.011332635
0.012585406
0.013702644
0.014698583
0.015594858
0.016414606
0.017180177
0.017912665
0.018632134
0.019358233
0.020110583
0.020908253
0.021770063
0.022716674
0.02377213
0.024966847
0.026343081
0.027963042
0.029919515
0.03234879
0.035446363
0.039493524
0.044855352
0.051871673
0.060493112
0.070267427
0.079832845
0.086408792
0.086829035
0.08399996
0.073869887
9.3193353e-12
2.928458e-10
2.3946935e-09
1.0298593e-08
3.1691209e-08
7.9969177e-08
1.7732656e-07
3.5937084e-07
6.8194101e-07
1.2311022e-06
2.1377088e-06
3.5985131e-06
5.906612e-06
9.4951534e-06
1.4999769e-05
2.3347282e-05
3.5880981e-05
5.4536232e-05
8.2084357e-05
0.00012246716
0.00018124793
0.00026620456
0.00038808006
0.0005614733
0.00080577462
0.0011458871
0.0016121697
0.0022385539
0.0030572468
0.0040884852
0.0053260233
0.0067249085
0.0082039594
0.0096694669
0.01104668
0.012296659
0.013412667
0.014407363
0.015301661
0.016118435
0.016879954
0.017607269
0.018320364
0.01903874
0.019781724
0.020568018
0.02141606
0.022346438
0.023383537
0.024559308
0.025919711
0.027533861
0.029507561
0.031994531
0.035211728
0.039464282
0.045099005
0.052361207
0.061052195
0.070683166
0.080313455
0.086910407
0.086933128
0.081995167
0.064120356
8.7863061e-12
2.7609615e-10
2.2577259e-09
9.7095511e-09
2.9878587e-08
7.5395232e-08
1.6718413e-07
3.3881622e-07
6.4293698e-07
1.1606898e-06
2.0154472e-06
3.3927151e-06
5.5688443e-06
8.9522522e-06
1.4142318e-05
2.2013091e-05
3.3831554e-05
5.1423514e-05
7.7404212e-05
0.00011549507
0.00017095165
0.00025112828
0.00036619626
0.00053000424
0.00076099932
0.0010829792
0.0015251658
0.0021206358
0.0029016063
0.0038900001
0.0050835463
0.0064430108
0.0078923268
0.0093395247
0.010707753
0.011954245
0.013068938
0.014062457
0.014954745
0.015768306
0.016525296
0.017246708
0.017952463
0.018661893
0.019393957
0.020166933
0.020998829
0.021910013
0.022925207
0.024078047
0.025418511
0.027023822
0.02901438
0.031556317
0.034880232
0.039290375
0.04504648
0.052132876
0.059831808
0.067448059
0.074693462
0.078904287
0.077130877
0.068236484
0.038577114
8.1959468e-12
2.5754501e-10
2.1060272e-09
9.0571567e-09
2.7871015e-08
7.0329343e-08
1.5595084e-07
3.1605081e-07
5.9973763e-07
1.0827033e-06
1.8800333e-06
3.1647756e-06
5.1947304e-06
8.3509166e-06
1.3192544e-05
2.0535172e-05
3.1561189e-05
4.7974892e-05
7.2218302e-05
0.00010776805
0.00015953748
0.00023440897
0.00034191519
0.00049506334
0.00071123573
0.0010129683
0.0014281561
0.0019888141
0.0027269941
0.0036662688
0.0048086186
0.0061212728
0.0075343767
0.008958613
0.010315215
0.011557096
0.012670155
0.01366243
0.014552569
0.015362556
0.016114374
0.016828939
0.017526102
0.018225022
0.018944235
0.019701514
0.020514439
0.021403103
0.022392743
0.02351923
0.024837535
0.026437076
0.028451225
0.031053134
0.034472231
0.038949355
0.044448909
0.050291337
0.054631384
0.057014673
0.057870545
0.056796558
0.051157813
0.033804332
0.012686685
7.5600495e-12
2.3756292e-10
1.9426273e-09
8.3544397e-09
2.5708584e-08
6.4872685e-08
1.4385103e-07
2.9152925e-07
5.5320568e-07
9.9870017e-07
1.7341709e-06
2.9192456e-06
4.7917381e-06
7.7031459e-06
1.216939e-05
1.8942981e-05
2.9115089e-05
4.4258924e-05
6.66295e-05
9.9438926e-05
0.00014723017
0.00021637387
0.00031570806
0.00045732054
0.00065742187
0.00093714242
0.0013228635
0.0018453114
0.0025361336
0.0034203879
0.0045043998
0.0057624525
0.0071320263
0.0085276259
0.0098690684
0.011104598
0.012215344
0.013206095
0.01409379
0.014899679
0.015645478
0.016351985
0.017038963
0.017725388
0.018429356
0.019168063
0.019958699
0.020821189
0.021781818
0.022879784
0.024178379
0.025784154
0.027836737
0.030512096
0.033995131
0.038273595
0.042486306
0.044692715
0.042119355
0.035150307
0.026639743
0.020987157
0.015613079
0.009396713
0.0036440118
6.8921422e-12
2.1657495e-10
1.7710017e-09
7.6163475e-09
2.3437295e-08
5.9141327e-08
1.3114207e-07
2.6577315e-07
5.043309e-07
9.1046708e-07
1.5809625e-06
2.6613466e-06
4.3684365e-06
7.0227109e-06
1.1094598e-05
1.7270337e-05
2.6545171e-05
4.0354389e-05
6.0756102e-05
9.0683577e-05
0.00013428877
0.00019740084
0.00028812037
0.00041755428
0.00060065322
0.00085701639
0.0012113353
0.0016928089
0.0023323832
0.0031563036
0.0041751198
0.0053705364
0.0066884341
0.0080485448
0.0093701536
0.010596742
0.011703956
0.012692573
0.013577292
0.014378333
0.015117003
0.01581392
0.016488712
0.017160139
0.017845898
0.018562553
0.019326995
0.020159303
0.021087871
0.022157297
0.023447181
0.025077695
0.027189005
0.029942395
0.033333075
0.036521573
0.036878894
0.032435981
0.020657924
0.011053348
0.0075703998
0.0057461615
0.0041544678
0.0024640715
0.001051381
6.2070034e-12
1.9504552e-10
1.5949486e-09
6.8592145e-09
2.1107412e-08
5.3262112e-08
1.1810523e-07
2.393525e-07
4.5419492e-07
8.199567e-07
1.4237984e-06
2.3967858e-06
3.9341924e-06
6.3246665e-06
9.9919452e-06
1.5554227e-05
2.3908237e-05
3.6347528e-05
5.4727694e-05
8.169488e-05
0.00012099774
0.00017790557
0.0002597538
0.00037662618
0.00054214836
0.00077428733
0.0010958881
0.001534384
0.0021196779
0.00287878
0.0038261095
0.0049508667
0.0062082285
0.0075247233
0.0088204255
0.010034336
0.011136012
0.012121381
0.013002235
0.013797363
0.014527452
0.015212834
0.015872938
0.016526237
0.017190079
0.017880409
0.01861396
0.019411516
0.020305253
0.021351138
0.022650322
0.024322606
0.026498457
0.029226139
0.031809572
0.031375091
0.026259651
0.012987115
0.0062969278
0.0032323385
0.0020710342
0.0015273332
0.0011023294
0.00068621125
0.00034940136
5.5200112e-12
1.7345783e-10
1.418419e-09
6.1000314e-09
1.8771219e-08
4.7366969e-08
1.0503306e-07
2.1286021e-07
4.0392284e-07
7.2920016e-07
1.2662057e-06
2.1315001e-06
3.4987502e-06
5.6246764e-06
8.8861716e-06
1.3833153e-05
2.1263436e-05
3.2328188e-05
4.8679386e-05
7.2674137e-05
0.00010765439
0.00015832342
0.00023124022
0.00033544461
0.00048319884
0.00069076724
0.00097902091
0.0013734051
0.0019024149
0.0025932978
0.0034637577
0.0045102137
0.005697727
0.0069612189
0.0082233107
0.0094193111
0.010512333
0.01149258
0.012368142
0.01315584
0.013875428
0.014546797
0.015189058
0.015820319
0.016457515
0.017116125
0.017812899
0.018569876
0.019426721
0.02046183
0.021782476
0.023491059
0.025628815
0.027687666
0.02709552
0.022163165
0.010004944
0.0040729722
0.001887617
0.00097637402
0.00062003804
0.00045032948
0.00033442543
0.00024099717
0.00016642298
4.8464502e-12
1.5229219e-10
1.2453405e-09
5.3556904e-09
1.6480698e-08
4.1587078e-08
9.2216448e-08
1.8688581e-07
3.5463341e-07
6.4021728e-07
1.1116918e-06
1.8713945e-06
3.0718032e-06
4.9383245e-06
7.8018985e-06
1.2145441e-05
1.8669673e-05
2.8385904e-05
4.274593e-05
6.3822349e-05
9.4556054e-05
0.00013909071
0.00020321482
0.00029492644
0.00042511565
0.00060830967
0.00086331776
0.0012134074
0.0016853057
0.0023059006
0.003095388
0.0040567473
0.005165071
0.0063651112
0.007584128
0.0087551386
0.0098348698
0.010807017
0.011675052
0.012453138
0.013159662
0.013813808
0.014434182
0.015038401
0.015642795
0.016262545
0.016914804
0.017622529
0.018445836
0.019478448
0.020803065
0.022433502
0.023917222
0.023102213
0.018528934
0.0080258612
0.0031329669
0.0012850682
0.00061751394
0.00035192263
0.00024439944
0.00019236207
0.00015771103
0.00013651351
0.00011985323
4.2006215e-12
1.3199803e-10
1.0793888e-09
4.6419995e-09
1.4284497e-08
3.6045193e-08
7.9927597e-08
1.6198095e-07
3.0737347e-07
5.5489795e-07
9.6353863e-07
1.6219938e-06
2.6624212e-06
4.280193e-06
6.762167e-06
1.0526967e-05
1.6182104e-05
2.4604549e-05
3.705365e-05
5.5328143e-05
8.1982181e-05
0.00012061842
0.00017627763
0.00025594132
0.00036914933
0.00052869676
0.00075129049
0.0010578808
0.0014731015
0.0020228676
0.0027289278
0.0035997989
0.0046202117
0.0057457581
0.0069105502
0.0080473551
0.009107181
0.010066683
0.010923756
0.011689062
0.012379027
0.013011711
0.013604895
0.014175406
0.014738642
0.015309435
0.01590605
0.016554968
0.017348975
0.018351741
0.019551129
0.020489876
0.019354013
0.014739546
0.006289476
0.0024937733
0.0010046211
0.00045760336
0.00025954789
0.00018090058
0.00014654946
0.00012866451
0.00011697738
0.00011133429
0.00010751773
3.595093e-12
1.1297025e-10
9.2379282e-10
3.9728445e-09
1.2225343e-08
3.0849131e-08
6.8405588e-08
1.3863017e-07
2.630625e-07
4.7490219e-07
8.2462876e-07
1.3881511e-06
2.2785713e-06
3.6630931e-06
5.7872227e-06
9.0092583e-06
1.3849219e-05
2.10579e-05
3.1713748e-05
4.7357748e-05
7.0179429e-05
0.00010327007
0.0001509611
0.00021926441
0.00031642148
0.00045354068
0.00064523849
0.00091007224
0.0012703237
0.0017503576
0.0023724745
0.0031494267
0.0040746006
0.0051148237
0.0062129974
0.0073041564
0.0083350477
0.0092752308
0.010116167
0.010864047
0.011532555
0.012138018
0.012696834
0.01322432
0.01373439
0.014240499
0.014760324
0.015343457
0.016083359
0.01690771
0.017351047
0.015954628
0.011045776
0.0047547293
0.0019425721
0.00080804663
0.00037650059
0.00021822282
0.00015849959
0.00013365262
0.0001199514
0.00011177997
0.0001064697
0.00010462677
0.00010365372
3.040252e-12
9.553523e-11
7.8122114e-10
3.3597015e-09
1.0338553e-08
2.6088012e-08
5.7848045e-08
1.1723401e-07
2.2246063e-07
4.016025e-07
6.9734603e-07
1.1738805e-06
1.9268452e-06
3.0976276e-06
4.8938296e-06
7.6184398e-06
1.1711231e-05
1.7807213e-05
2.6818694e-05
4.0049678e-05
5.9353905e-05
8.735059e-05
0.00012771409
0.00018555354
0.00026789241
0.0003842381
0.00054718522
0.00077289865
0.0010811441
0.0014942543
0.0020341086
0.0027162103
0.0035410963
0.0044862074
0.0055048428
0.0065369526
0.0075271731
0.0084386299
0.0092558097
0.0099794428
0.010619474
0.011189579
0.011703813
0.012174739
0.012613175
0.013028516
0.013434464
0.013922284
0.01446841
0.014447592
0.012864741
0.007861433
0.0034907518
0.0014710442
0.00064181941
0.00031819987
0.00019581035
0.00014912025
0.00012920575
0.00011996219
0.00011314442
0.00010790226
0.00010348723
0.00010251735
0.00010171517
2.5435135e-12
7.9925967e-11
6.5357898e-10
2.8107649e-09
8.6493421e-09
2.1825463e-08
4.8396061e-08
9.8078406e-08
1.8611052e-07
3.3597861e-07
5.8339199e-07
9.8204708e-07
1.6119477e-06
2.5913644e-06
4.0939538e-06
6.3731616e-06
9.7968578e-06
1.4896256e-05
2.2434624e-05
3.350315e-05
4.9653561e-05
7.3079555e-05
0.00010686127
0.00015528759
0.00022426738
0.00032182715
0.00045865896
0.00064861033
0.00090887207
0.0012593968
0.0017208008
0.0023098693
0.0030323898
0.0038751275
0.0048021365
0.0057605675
0.0066957096
0.0075657849
0.0083483233
0.0090377325
0.0096390348
0.010161897
0.010616266
0.011010167
0.01134687
0.011624733
0.011870709
0.012105482
0.011824567
0.010011087
0.0053409467
0.0024550553
0.0010857907
0.00050304124
0.00026993913
0.00017941041
0.00014396486
0.00012856982
0.00012102956
0.00011587017
0.00011060901
0.00010608591
0.00010218896
0.00010074837
9.9362173e-05
2.10918e-12
6.6277704e-11
5.4197281e-10
2.3307927e-09
7.1723533e-09
1.8098443e-08
4.0131607e-08
8.1329531e-08
1.5432761e-07
2.7860027e-07
4.8375654e-07
8.1431864e-07
1.3366194e-06
2.1487163e-06
3.3945817e-06
5.2843307e-06
8.1229311e-06
1.2350757e-05
1.8600562e-05
2.7777003e-05
4.1166738e-05
6.0589263e-05
8.8600633e-05
0.00012876318
0.00018599219
0.00026698126
0.00038068397
0.00053877695
0.00075592827
0.0010495224
0.0014382563
0.0019388393
0.0025602919
0.0032967252
0.0041221501
0.0049924062
0.0058560914
0.0066687366
0.0074016815
0.0080424837
0.0085899008
0.0090476345
0.0094188656
0.0097029741
0.0098882403
0.0099637784
0.0099205425
0.0093657096
0.0073660751
0.0037094271
0.0016934908
0.00078299329
0.00039150464
0.00023057726
0.00016623918
0.00014015171
0.0001285515
0.00012215654
0.00011748224
0.00011273177
0.00010748682
0.00010327118
9.9863622e-05
9.8459215e-05
9.7315908e-05
1.7380453e-12
5.4615377e-11
4.4660646e-10
1.920662e-09
5.9102857e-09
1.4913762e-08
3.3069786e-08
6.7018003e-08
1.2717001e-07
2.2957246e-07
3.9862223e-07
6.71003e-07
1.1013672e-06
1.7705014e-06
2.7970139e-06
4.3539912e-06
6.6926369e-06
1.0175657e-05
1.5324161e-05
2.2883117e-05
3.3911989e-05
4.9908971e-05
7.2978936e-05
0.00010605628
0.00015319256
0.00021991247
0.0003136243
0.00044403287
0.0006234282
0.00086659283
0.0011898812
0.0016088445
0.0021338467
0.0027639605
0.0034814023
0.0042507331
0.0050258245
0.0057619486
0.0064256924
0.0069976734
0.0074688556
0.0078340574
0.0080861954
0.0082076383
0.0081653797
0.0079529699
0.0071906741
0.0049759314
0.0024737033
0.0011782491
0.00056590296
0.00030626052
0.00019949326
0.00015590633
0.00013725794
0.000128664
0.00012344782
0.00011869241
0.00011320414
0.00010829661
0.00010421464
0.00010117196
9.85434e-05
9.7193932e-05
9.5873184e-05
1.4275108e-12
4.4857311e-11
3.6681174e-10
1.5774986e-09
4.8542943e-09
1.2249101e-08
2.7161104e-08
5.5043517e-08
1.0444738e-07
1.885516e-07
3.2739249e-07
5.510962e-07
9.0454359e-07
1.4540735e-06
2.2970751e-06
3.5756557e-06
5.4960327e-06
8.3559093e-06
1.2582915e-05
1.8788224e-05
2.7840759e-05
4.0968816e-05
5.9897401e-05
8.7030388e-05
0.00012568584
0.00018038801
0.00025720675
0.00036410641
0.00051121099
0.0007107951
0.0009766664
0.0013224467
0.0017582458
0.0022857029
0.002892776
0.0035514433
0.0042215075
0.0048599198
0.0054301738
0.0059061163
0.0062691301
0.0065018695
0.0065799981
0.0064762016
0.0061342988
0.0052647018
0.0031721075
0.0016207083
0.00080181748
0.00041568645
0.00024530225
0.00017603802
0.00014797412
0.0001353191
0.00012918294
0.00012469632
0.00011941837
0.00011363925
0.0001092645
0.00010576962
0.00010243675
9.9816246e-05
9.7005057e-05
9.5482683e-05
9.4231685e-05
1.1717178e-12
3.6819405e-11
3.0108326e-10
1.2948286e-09
3.9844581e-09
1.0054189e-08
2.2294092e-08
4.5180167e-08
8.5731057e-08
1.5476379e-07
2.6872353e-07
4.5233616e-07
7.4243585e-07
1.1934643e-06
1.8853379e-06
2.9346538e-06
4.5105809e-06
6.8572786e-06
1.0325348e-05
1.541565e-05
2.2839848e-05
3.3603159e-05
4.91159e-05
7.1340986e-05
0.00010298378
0.00014772677
0.00021050129
0.00029776654
0.00041772344
0.00058031804
0.00079677875
0.0010783077
0.0014335131
0.0018644691
0.0023621983
0.0029038536
0.0034544331
0.0039734161
0.0044224613
0.0047687563
0.0049827798
0.0050311667
0.0048953254
0.0044935476
0.0035643726
0.0020220369
0.001039725
0.00054423283
0.0003074861
0.00020261866
0.00015864788
0.00014198176
0.00013411445
0.00013006275
0.00012618527
0.00012024331
0.00011469669
0.00011080036
0.00010731951
0.00010372492
0.00010028592
9.754089e-05
9.5343602e-05
9.4182375e-05
9.3019937e-05
9.6183e-13
3.022401e-11
2.471508e-10
1.062889e-09
3.270733e-09
8.2532145e-09
1.8300636e-08
3.7087243e-08
7.0374471e-08
1.2704171e-07
2.2058819e-07
3.7130997e-07
6.09441e-07
9.7966474e-07
1.5475664e-06
2.4088192e-06
3.702201e-06
5.6279398e-06
8.4734121e-06
1.2648874e-05
1.8736692e-05
2.755838e-05
4.0264492e-05
5.8452665e-05
8.4318115e-05
0.0001208372
0.00017197582
0.00024289609
0.00034010108
0.00047140059
0.0006454982
0.00087090805
0.0011538818
0.001495235
0.001886624
0.0023078842
0.0027276589
0.0031078756
0.0034090723
0.0035927391
0.0036185375
0.0034703841
0.0030686964
0.002198987
0.0012292266
0.00066527184
0.00036945551
0.00023307589
0.00017140302
0.00014608239
0.00013657908
0.00013324616
0.00013082766
0.00012790611
0.00012142272
0.00011603569
0.00011232335
0.00010842419
0.00010453244
0.0001010713
9.8369145e-05
9.6433992e-05
9.4335988e-05
9.3002225e-05
9.185125e-05
7.8665069e-13
2.4719278e-11
2.0213706e-10
8.6930512e-10
2.6750388e-09
6.7500818e-09
1.4967639e-08
3.0332839e-08
5.755793e-08
1.0390533e-07
1.8041589e-07
3.0368917e-07
4.9845146e-07
8.0124326e-07
1.2656903e-06
1.9700024e-06
3.0275878e-06
4.6019885e-06
6.927755e-06
1.0339377e-05
1.531096e-05
2.2509917e-05
3.2868314e-05
4.7675381e-05
6.8693289e-05
9.8294461e-05
0.00013961028
0.00019666496
0.00027444013
0.00037877097
0.00051591347
0.00069156235
0.00090909675
0.0011669981
0.0014558912
0.0017564916
0.0020399136
0.0022706929
0.0024100295
0.0024159356
0.0022761229
0.0019045955
0.0012584915
0.00072729418
0.00041385781
0.00025590654
0.00017933943
0.00014949978
0.00013588072
0.00013280303
0.00013256192
0.00013175812
0.00012944332
0.00012315057
0.00011750982
0.00011360059
0.00010942713
0.00010552706
0.00010237984
9.9750043e-05
9.7255647e-05
9.493729e-05
9.283962e-05
9.1789857e-05
9.0865055e-05
6.3411892e-13
1.9926206e-11
1.6294273e-10
7.0074771e-10
2.1563554e-09
5.4412724e-09
1.2065523e-08
2.4451614e-08
4.6398205e-08
8.3759666e-08
1.4543604e-07
2.4480759e-07
4.0180344e-07
6.4587049e-07
1.0202138e-06
1.5878224e-06
2.4399828e-06
3.7082303e-06
5.5809906e-06
8.326527e-06
1.2324186e-05
1.8106236e-05
2.6412649e-05
3.8260589e-05
5.5028517e-05
7.8550615e-05
0.0001112089
0.00015599573
0.00021649531
0.00029669821
0.00040051996
0.00053087506
0.00068818099
0.00086830992
0.0010605097
0.0012461944
0.001399462
0.0014891489
0.0014804648
0.0013610219
0.0010668002
0.0006893004
0.00041447304
0.00025850956
0.00017612272
0.00014396983
0.00012949094
0.00012847236
0.00012990178
0.00013275391
0.00013285162
0.00013107495
0.00012528241
0.00011881185
0.00011469548
0.00011054896
0.00010689863
0.00010382732
0.00010093327
9.7964647e-05
9.5476963e-05
9.3635935e-05
9.1969234e-05
9.0918251e-05
9.0011916e-05
4.9418066e-13
1.5528862e-11
1.2698431e-10
5.4610603e-10
1.68049e-09
4.2404938e-09
9.4029098e-09
1.9055627e-08
3.6158915e-08
6.5274837e-08
1.1333828e-07
1.9077375e-07
3.1310484e-07
5.032619e-07
7.9487346e-07
1.2369341e-06
1.9003808e-06
2.8872869e-06
4.3435906e-06
6.4765037e-06
9.5779387e-06
1.4055357e-05
2.0471169e-05
2.9590855e-05
4.2437716e-05
6.0347687e-05
8.5009594e-05
0.00011846317
0.00016300802
0.00022095273
0.00029411361
0.0003829861
0.00048554791
0.00059588509
0.0007030479
0.00079071881
0.00083797598
0.00082264922
0.00073167852
0.00054350263
0.0003564208
0.00023274163
0.00015946696
0.00012730447
0.00011301452
0.00011595905
0.00012031391
0.00012914171
0.00013506624
0.00013481491
0.00013305657
0.00012718667
0.00011987841
0.00011586412
0.00011192889
0.0001084109
0.00010510771
0.00010182382
9.8816031e-05
9.645487e-05
9.4557076e-05
9.2705134e-05
9.0910392e-05
8.9955023e-05
8.9194164e-05
3.6237284e-13
1.1387003e-11
9.3114982e-11
4.0044771e-10
1.2322634e-09
3.109437e-09
6.8948331e-09
1.3972641e-08
2.6513127e-08
4.7860431e-08
8.3097029e-08
1.3986065e-07
2.2952012e-07
3.6885843e-07
5.8246756e-07
9.0613316e-07
1.3915808e-06
2.1130668e-06
3.1764192e-06
4.7312403e-06
6.9870204e-06
1.0233776e-05
1.486732e-05
2.1418068e-05
3.0579893e-05
4.323126e-05
6.0433907e-05
8.3384266e-05
0.00011328051
0.00015105513
0.00019692862
0.00024977738
0.00030636324
0.00036063739
0.00040340105
0.00042241113
0.00040671733
0.00034693026
0.00025617983
0.00018022995
0.00012824814
0.00010283935
9.0969397e-05
9.3900277e-05
0.00010127699
0.00011672137
0.00013346425
0.00013693125
0.00013680473
0.00013499908
0.00012895466
0.00012132957
0.00011735329
0.00011345101
0.00010979993
0.00010623441
0.00010284434
0.00010002985
9.7714048e-05
9.5474311e-05
9.3299441e-05
9.1515083e-05
9.0059044e-05
8.9227477e-05
8.8533757e-05
2.4226981e-13
7.6129486e-12
6.2253252e-11
2.6772318e-10
8.2383347e-10
2.0787896e-09
4.6093686e-09
9.3407027e-09
1.772302e-08
3.1990332e-08
5.5536554e-08
9.3459029e-08
1.5333922e-07
2.4635693e-07
3.8886939e-07
6.0463078e-07
9.2788098e-07
1.40759e-06
2.1131942e-06
3.1421784e-06
4.6297851e-06
6.7608841e-06
9.7834372e-06
1.4021815e-05
1.9886107e-05
2.787017e-05
3.8526242e-05
5.2397805e-05
6.9887382e-05
9.1040149e-05
0.00011523365
0.00014079303
0.00016467549
0.00018228248
0.00018782568
0.00017702663
0.00014820836
0.00011505861
8.8747156e-05
7.4136854e-05
6.6654399e-05
6.9600905e-05
7.6610611e-05
9.2560408e-05
0.00012128753
0.00013550568
0.00013941799
0.00013903666
0.00013716985
0.00013095644
0.00012298506
0.00011877486
0.00011469173
0.00011102997
0.00010744556
0.0001041807
0.00010137616
9.8799065e-05
9.6233792e-05
9.3973446e-05
9.2287592e-05
9.0737365e-05
8.92958e-05
8.8523536e-05
8.7897341e-05
1.4307213e-13
4.495813e-12
3.6763383e-11
1.5810104e-10
4.8649618e-10
1.2275419e-09
2.7217327e-09
5.5150791e-09
1.0463201e-08
1.8883489e-08
3.2775941e-08
5.514151e-08
9.0437832e-08
1.4522667e-07
2.2908582e-07
3.5587992e-07
5.4550845e-07
8.2626888e-07
1.2379781e-06
1.8359624e-06
2.6959144e-06
3.9193559e-06
5.6389323e-06
8.021851e-06
1.1268315e-05
1.5599673e-05
2.1228488e-05
2.8301127e-05
3.680398e-05
4.6430919e-05
5.6431206e-05
6.5477743e-05
7.1644467e-05
7.2398466e-05
6.7748027e-05
5.9301845e-05
5.1144576e-05
4.5089034e-05
4.3339602e-05
4.7452553e-05
5.3166401e-05
6.6472527e-05
9.4124283e-05
0.00012439141
0.00013759462
0.00014157965
0.00014121444
0.00013934389
0.00013311642
0.00012477687
0.00012035186
0.0001159945
0.00011243886
0.00010896287
0.00010564665
0.00010262992
9.9741935e-05
9.7143788e-05
9.5009681e-05
9.3258504e-05
9.1459084e-05
8.9843577e-05
8.8576802e-05
8.7873538e-05
8.7320732e-05
7.2641082e-14
2.2826266e-12
1.8665472e-11
8.0269469e-11
2.4699076e-10
6.2318105e-10
1.3816182e-09
2.7992587e-09
5.3098653e-09
9.5807843e-09
1.6624075e-08
2.7956121e-08
4.5824981e-08
7.3531215e-08
1.1587563e-07
1.7977547e-07
2.7509748e-07
4.1575694e-07
6.2111907e-07
9.1769674e-07
1.3410423e-06
1.9375424e-06
2.7654919e-06
3.8942899e-06
5.3998557e-06
7.3535509e-06
9.8011239e-06
1.2729243e-05
1.6019916e-05
1.9400829e-05
2.2410741e-05
2.4404054e-05
2.4941592e-05
2.4600529e-05
2.3999084e-05
2.363309e-05
2.5018064e-05
2.8271636e-05
3.4485399e-05
4.5600159e-05
6.5300608e-05
9.7163124e-05
0.00012435207
0.00013828732
0.00014360786
0.0001434571
0.00014162121
0.00013548492
0.00012678978
0.0001220671
0.00011747434
0.00011381662
0.00011038116
0.00010699491
0.00010379093
0.00010086543
9.8313714e-05
9.6176222e-05
9.4111409e-05
9.2081861e-05
9.0480001e-05
8.9108873e-05
8.7927581e-05
8.7337308e-05
8.6835325e-05
3.1397232e-14
9.8660428e-13
8.0675654e-12
3.4693073e-11
1.067463e-10
2.6931073e-10
5.9700542e-10
1.2093784e-09
2.293522e-09
4.1369773e-09
7.1751892e-09
1.205933e-08
1.975227e-08
3.1662802e-08
4.98307e-08
7.7177199e-08
1.1783582e-07
1.7757454e-07
2.6430767e-07
3.8866738e-07
5.6454887e-07
8.0944629e-07
1.1442451e-06
1.5919332e-06
2.1744509e-06
2.9068942e-06
3.7885028e-06
4.7912817e-06
5.8498184e-06
6.8602825e-06
7.7300379e-06
8.5529108e-06
9.5473961e-06
1.0936628e-05
1.287917e-05
1.5604266e-05
2.1222663e-05
3.0222123e-05
4.5331943e-05
6.7379559e-05
9.6620355e-05
0.00012209239
0.00013759552
0.00014518807
0.00014572935
0.00014398078
0.00013809745
0.00012894963
0.00012399733
0.00011906158
0.00011527271
0.00011171064
0.00010844079
0.00010522103
0.00010222815
9.9603431e-05
9.718659e-05
9.491476e-05
9.2875044e-05
9.1345584e-05
8.9837168e-05
8.8447813e-05
8.7385521e-05
8.6798523e-05
8.6305169e-05
1.2274623e-14
3.8570816e-13
3.1539423e-12
1.3562612e-11
4.1728654e-11
1.052701e-10
2.3333751e-10
4.7261095e-10
8.9609514e-10
1.6158866e-09
2.8015294e-09
4.7061432e-09
7.7031964e-09
1.233758e-08
1.9395381e-08
2.9997195e-08
4.5719435e-08
6.8745871e-08
1.0204611e-07
1.495666e-07
2.1640052e-07
3.0887462e-07
4.3445643e-07
6.0136536e-07
8.1781145e-07
1.0909953e-06
1.4265413e-06
1.8294474e-06
2.3078189e-06
2.8882946e-06
3.6342337e-06
4.6841522e-06
6.3554861e-06
8.9284076e-06
1.2904976e-05
1.9875305e-05
3.0713586e-05
4.6456288e-05
6.7334194e-05
9.327305e-05
0.00011836141
0.00013769112
0.00014689348
0.00014798432
0.00014638842
0.00014090923
0.00013132622
0.00012606607
0.00012085496
0.00011679587
0.00011312973
0.00010985679
0.00010673228
0.00010359787
0.00010077477
9.8222948e-05
9.587721e-05
9.3959814e-05
9.2255346e-05
9.0523113e-05
8.9035445e-05
8.7795479e-05
8.6796154e-05
8.631894e-05
8.5852977e-05
5.8459555e-15
1.8369883e-13
1.5021125e-12
6.4594592e-12
1.9874524e-11
5.0140026e-11
1.1114532e-10
2.2513903e-10
4.2693288e-10
7.7001606e-10
1.3353722e-09
2.2440851e-09
3.6751987e-09
5.8907707e-09
9.270619e-09
1.4359886e-08
2.1933162e-08
3.3079453e-08
4.931266e-08
7.2712707e-08
1.0610398e-07
1.5328344e-07
2.1932674e-07
3.1102617e-07
4.3768165e-07
6.1267235e-07
8.5657024e-07
1.2029603e-06
1.7078771e-06
2.4617186e-06
3.6199595e-06
5.46778e-06
8.4316982e-06
1.3136684e-05
2.0515515e-05
3.1245547e-05
4.6088464e-05
6.5733471e-05
9.0296281e-05
0.00011634592
0.00013890636
0.00014875233
0.00015027037
0.00014884741
0.00014397899
0.00013388096
0.00012834845
0.00012278947
0.00011851818
0.00011459898
0.00011131196
0.00010814415
0.00010507842
0.00010211122
9.9456988e-05