/*--------------------------------*- C++ -*----------------------------------*\
  =========                 |
  \\      /  F ield         | OpenFOAM: The Open Source CFD Toolbox
   \\    /   O peration     | Website:  https://openfoam.org
    \\  /    A nd           | Version:  13
     \\/     M anipulation  |
\*---------------------------------------------------------------------------*/
FoamFile
{
    format      ascii;
    class       volScalarField;
    location    "25.004283";
    object      pPrime2Mean;
}
// * * * * * * * * * * * * * * * * * * * * * * * * * * * * * * * * * * * * * //

dimensions      [0 4 -4 0 0 0 0];

internalField   nonuniform List<scalar> 
17140
(
12453.87
12453.87
12453.87
12453.87
12453.869
12453.868
12453.866
12453.863
12453.86
12453.854
12453.848
12453.84
12453.829
12453.816
12453.798
12453.777
12453.75
12453.715
12453.673
12453.619
12453.551
12453.467
12453.36
12453.226
12453.057
12452.845
12452.577
12452.239
12451.812
12451.274
12450.597
12449.747
12448.681
12447.35
12445.694
12443.639
12441.1
12437.978
12434.154
12429.495
12423.848
12417.037
12408.867
12399.118
12387.543
12373.871
12357.802
12339.009
12317.134
12291.79
12262.553
12228.967
12190.539
12146.737
12096.988
12040.675
11977.133
11905.642
11825.423
11735.64
11635.373
11523.657
11399.38
11261.427
11108.491
12454.176
12454.177
12454.177
12454.176
12454.176
12454.174
12454.172
12454.169
12454.166
12454.161
12454.154
12454.146
12454.135
12454.122
12454.105
12454.083
12454.055
12454.021
12453.979
12453.925
12453.857
12453.772
12453.666
12453.532
12453.364
12453.152
12452.885
12452.547
12452.122
12451.585
12450.909
12450.061
12448.997
12447.668
12446.013
12443.959
12441.423
12438.301
12434.48
12429.823
12424.178
12417.371
12409.205
12399.46
12387.891
12374.225
12358.164
12339.38
12317.516
12292.184
12262.961
12229.391
12190.98
12147.198
12097.472
12041.186
11977.673
11906.216
11826.033
11736.292
11636.072
11524.41
11400.192
11262.307
11109.436
12454.934
12454.934
12454.934
12454.934
12454.933
12454.932
12454.93
12454.927
12454.923
12454.918
12454.912
12454.904
12454.893
12454.879
12454.862
12454.841
12454.814
12454.78
12454.737
12454.683
12454.616
12454.532
12454.426
12454.294
12454.126
12453.915
12453.65
12453.314
12452.89
12452.356
12451.683
12450.838
12449.777
12448.452
12446.8
12444.75
12442.217
12439.099
12435.281
12430.63
12424.991
12418.192
12410.035
12400.302
12388.747
12375.098
12359.057
12340.295
12318.457
12293.154
12263.964
12230.432
12192.066
12148.335
12098.666
12042.444
11979.004
11907.628
11827.537
11737.898
11637.793
11526.257
11402.182
11264.456
11111.744
12456.168
12456.168
12456.168
12456.168
12456.167
12456.165
12456.164
12456.161
12456.157
12456.152
12456.146
12456.137
12456.127
12456.113
12456.096
12456.075
12456.048
12456.015
12455.973
12455.92
12455.853
12455.77
12455.665
12455.534
12455.368
12455.159
12454.896
12454.563
12454.142
12453.612
12452.943
12452.102
12451.046
12449.725
12448.078
12446.033
12443.504
12440.392
12436.582
12431.939
12426.31
12419.523
12411.382
12401.668
12390.135
12376.513
12360.504
12341.779
12319.983
12294.727
12265.592
12232.123
12193.828
12150.179
12100.604
12044.487
11981.165
11909.923
11829.981
11740.509
11640.588
11529.258
11405.41
11267.943
11115.485
12457.902
12457.902
12457.902
12457.902
12457.901
12457.9
12457.898
12457.895
12457.891
12457.886
12457.88
12457.872
12457.861
12457.848
12457.831
12457.81
12457.784
12457.75
12457.709
12457.657
12457.591
12457.509
12457.405
12457.276
12457.112
12456.905
12456.644
12456.314
12455.898
12455.372
12454.708
12453.872
12452.822
12451.507
12449.867
12447.828
12445.307
12442.204
12438.403
12433.772
12428.158
12421.389
12413.27
12403.582
12392.081
12378.497
12362.531
12343.858
12322.12
12296.931
12267.873
12234.492
12196.298
12152.765
12103.32
12047.352
11984.196
11913.141
11833.408
11744.169
11644.507
11533.465
11409.938
11272.831
11120.732
12460.158
12460.158
12460.158
12460.157
12460.156
12460.155
12460.153
12460.15
12460.146
12460.141
12460.135
12460.127
12460.117
12460.104
12460.087
12460.066
12460.04
12460.007
12459.966
12459.915
12459.85
12459.769
12459.667
12459.539
12459.377
12459.174
12458.916
12458.591
12458.179
12457.658
12457.001
12456.171
12455.129
12453.821
12452.189
12450.159
12447.647
12444.555
12440.767
12436.152
12430.558
12423.813
12415.722
12406.069
12394.609
12381.074
12365.165
12346.558
12324.896
12299.794
12270.836
12237.57
12199.509
12156.125
12106.851
12051.075
11988.137
11917.325
11837.865
11748.929
11649.604
11538.936
11415.826
11279.189
11127.559
12462.957
12462.957
12462.956
12462.956
12462.955
12462.954
12462.952
12462.949
12462.945
12462.94
12462.934
12462.926
12462.915
12462.902
12462.886
12462.865
12462.84
12462.808
12462.767
12462.716
12462.653
12462.573
12462.473
12462.347
12462.188
12461.988
12461.734
12461.413
12461.008
12460.493
12459.843
12459.021
12457.987
12456.688
12455.065
12453.046
12450.547
12447.469
12443.699
12439.104
12433.535
12426.819
12418.764
12409.153
12397.744
12384.269
12368.432
12349.906
12328.338
12303.344
12274.511
12241.388
12203.491
12160.294
12111.232
12055.696
11993.027
11922.517
11843.394
11754.835
11655.929
11545.727
11423.137
11287.085
11136.044
12466.323
12466.323
12466.323
12466.322
12466.321
12466.32
12466.317
12466.314
12466.311
12466.306
12466.299
12466.292
12466.282
12466.269
12466.253
12466.233
12466.207
12466.176
12466.136
12466.087
12466.024
12465.946
12465.848
12465.725
12465.569
12465.372
12465.123
12464.807
12464.408
12463.901
12463.258
12462.446
12461.42
12460.133
12458.521
12456.515
12454.031
12450.97
12447.22
12442.651
12437.111
12430.431
12422.419
12412.859
12401.512
12388.109
12372.356
12353.929
12332.474
12307.612
12278.929
12245.98
12208.28
12165.308
12116.501
12061.252
11998.908
11928.762
11850.045
11761.94
11663.539
11553.898
11431.935
11296.588
11146.261
12470.285
12470.285
12470.285
12470.285
12470.283
12470.282
12470.279
12470.277
12470.273
12470.268
12470.262
12470.254
12470.244
12470.231
12470.216
12470.196
12470.171
12470.14
12470.101
12470.053
12469.992
12469.916
12469.82
12469.699
12469.547
12469.354
12469.11
12468.8
12468.407
12467.907
12467.273
12466.47
12465.455
12464.178
12462.58
12460.589
12458.122
12455.082
12451.357
12446.816
12441.311
12434.674
12426.712
12417.213
12405.937
12392.62
12376.966
12358.654
12337.333
12312.625
12284.121
12251.376
12213.91
12171.203
12122.695
12067.786
12005.822
11936.104
11857.867
11770.294
11672.489
11563.508
11442.283
11307.77
11158.293
12474.874
12474.874
12474.874
12474.873
12474.872
12474.87
12474.868
12474.865
12474.861
12474.857
12474.85
12474.842
12474.832
12474.82
12474.805
12474.786
12474.761
12474.731
12474.693
12474.646
12474.587
12474.513
12474.419
12474.301
12474.152
12473.964
12473.724
12473.42
12473.033
12472.541
12471.915
12471.121
12470.117
12468.852
12467.268
12465.294
12462.846
12459.83
12456.133
12451.626
12446.161
12439.572
12431.668
12422.239
12411.046
12397.826
12382.287
12364.108
12342.943
12318.415
12290.117
12257.609
12220.413
12178.014
12129.853
12075.336
12013.814
11944.59
11866.905
11779.951
11682.834
11574.62
11454.252
11320.709
11172.22
12480.121
12480.121
12480.121
12480.12
12480.119
12480.117
12480.115
12480.112
12480.108
12480.103
12480.097
12480.089
12480.079
12480.067
12480.052
12480.033
12480.01
12479.98
12479.943
12479.897
12479.839
12479.767
12479.676
12479.56
12479.415
12479.23
12478.995
12478.695
12478.314
12477.828
12477.21
12476.425
12475.432
12474.18
12472.611
12470.655
12468.229
12465.239
12461.573
12457.104
12451.684
12445.15
12437.313
12427.963
12416.864
12403.755
12388.345
12370.319
12349.332
12325.009
12296.948
12264.712
12227.826
12185.777
12138.014
12083.945
12022.926
11954.268
11877.216
11790.967
11694.638
11587.3
11467.913
11335.478
11188.125
12486.056
12486.055
12486.055
12486.054
12486.053
12486.051
12486.049
12486.046
12486.042
12486.038
12486.031
12486.024
12486.014
12486.002
12485.987
12485.969
12485.946
12485.917
12485.881
12485.835
12485.779
12485.708
12485.618
12485.505
12485.362
12485.18
12484.949
12484.653
12484.277
12483.797
12483.186
12482.409
12481.427
12480.188
12478.635
12476.698
12474.296
12471.334
12467.703
12463.275
12457.907
12451.434
12443.672
12434.41
12423.417
12410.432
12395.169
12377.315
12356.528
12332.439
12304.647
12272.718
12236.182
12194.531
12147.218
12093.656
12033.208
11965.188
11888.85
11803.399
11707.96
11601.613
11483.337
11352.158
11206.093
12492.703
12492.702
12492.702
12492.701
12492.7
12492.698
12492.696
12492.693
12492.689
12492.684
12492.678
12492.671
12492.661
12492.649
12492.635
12492.617
12492.594
12492.565
12492.53
12492.486
12492.43
12492.36
12492.272
12492.16
12492.019
12491.839
12491.61
12491.319
12490.946
12490.472
12489.867
12489.099
12488.127
12486.901
12485.365
12483.448
12481.072
12478.14
12474.547
12470.166
12464.854
12458.45
12450.77
12441.608
12430.732
12417.886
12402.787
12385.125
12364.563
12340.736
12313.246
12281.663
12245.52
12204.315
12157.506
12104.512
12044.702
11977.398
11901.86
11817.303
11722.862
11617.631
11500.599
11370.829
11226.209
12500.085
12500.085
12500.084
12500.083
12500.082
12500.08
12500.078
12500.075
12500.071
12500.066
12500.06
12500.052
12500.043
12500.032
12500.017
12499.999
12499.977
12499.949
12499.914
12499.87
12499.815
12499.746
12499.658
12499.548
12499.408
12499.23
12499.004
12498.715
12498.346
12497.876
12497.277
12496.517
12495.556
12494.344
12492.825
12490.93
12488.581
12485.683
12482.131
12477.801
12472.552
12466.224
12458.636
12449.583
12438.837
12426.145
12411.228
12393.781
12373.47
12349.935
12322.781
12291.582
12255.877
12215.169
12168.921
12116.56
12057.46
11990.951
11916.303
11832.742
11739.414
11635.42
11519.775
11391.571
11248.557
12508.222
12508.222
12508.221
12508.221
12508.219
12508.218
12508.215
12508.212
12508.208
12508.204
12508.198
12508.19
12508.181
12508.169
12508.155
12508.137
12508.115
12508.087
12508.053
12508.009
12507.955
12507.886
12507.8
12507.69
12507.551
12507.375
12507.15
12506.864
12506.498
12506.032
12505.44
12504.688
12503.738
12502.542
12501.041
12499.17
12496.85
12493.989
12490.482
12486.208
12481.028
12474.783
12467.296
12458.363
12447.761
12435.24
12420.525
12403.315
12383.283
12360.07
12333.288
12302.515
12267.294
12227.135
12181.507
12129.844
12071.528
12005.899
11932.237
11849.777
11757.678
11655.054
11540.939
11414.464
11273.22
12517.139
12517.139
12517.138
12517.137
12517.136
12517.134
12517.132
12517.129
12517.125
12517.121
12517.115
12517.107
12517.098
12517.087
12517.072
12517.055
12517.033
12517.005
12516.971
12516.928
12516.874
12516.806
12516.72
12516.611
12516.473
12516.298
12516.074
12515.79
12515.428
12514.967
12514.382
12513.639
12512.701
12511.52
12510.039
12508.194
12505.905
12503.084
12499.626
12495.413
12490.308
12484.155
12476.779
12467.979
12457.535
12445.201
12430.709
12413.761
12394.035
12371.178
12344.805
12314.499
12279.81
12240.254
12195.308
12144.412
12086.959
12022.297
11949.718
11868.469
11777.721
11676.601
11564.163
11439.585
11300.28
12526.863
12526.862
12526.862
12526.861
12526.86
12526.858
12526.856
12526.853
12526.849
12526.845
12526.839
12526.832
12526.822
12526.811
12526.797
12526.78
12526.757
12526.73
12526.696
12526.653
12526.599
12526.532
12526.446
12526.338
12526.201
12526.026
12525.805
12525.523
12525.164
12524.708
12524.13
12523.396
12522.471
12521.306
12519.847
12518.027
12515.773
12512.995
12509.591
12505.445
12500.422
12494.369
12487.114
12478.459
12468.189
12456.062
12441.815
12425.155
12405.764
12383.295
12357.369
12327.574
12293.468
12254.571
12210.37
12160.312
12103.803
12040.199
11968.806
11888.881
11799.609
11700.129
11589.519
11467.009
11329.817
12537.425
12537.425
12537.424
12537.423
12537.422
12537.42
12537.418
12537.415
12537.411
12537.407
12537.401
12537.394
12537.385
12537.374
12537.36
12537.342
12537.32
12537.293
12537.258
12537.216
12537.162
12537.094
12537.009
12536.901
12536.764
12536.591
12536.371
12536.091
12535.735
12535.284
12534.712
12533.989
12533.076
12531.928
12530.491
12528.701
12526.483
12523.751
12520.405
12516.332
12511.398
12505.455
12498.331
12489.835
12479.755
12467.855
12453.874
12437.528
12418.504
12396.458
12371.018
12341.78
12308.307
12270.127
12226.737
12177.594
12122.111
12059.661
11989.559
11911.073
11823.405
11725.705
11617.079
11496.813
11361.91
12548.857
12548.856
12548.856
12548.855
12548.854
12548.852
12548.85
12548.847
12548.844
12548.839
12548.833
12548.826
12548.817
12548.805
12548.791
12548.773
12548.751
12548.724
12548.689
12548.646
12548.592
12548.524
12548.439
12548.331
12548.194
12548.021
12547.802
12547.524
12547.172
12546.726
12546.161
12545.447
12544.547
12543.416
12542.003
12540.243
12538.064
12535.382
12532.1
12528.104
12523.267
12517.442
12510.461
12502.139
12492.266
12480.612
12466.922
12450.917
12432.289
12410.703
12385.79
12357.156
12324.369
12286.967
12244.456
12196.302
12141.934
12080.736
12012.031
11935.106
11849.169
11753.393
11646.911
11529.07
11396.635
12561.183
12561.183
12561.182
12561.182
12561.18
12561.179
12561.177
12561.174
12561.17
12561.166
12561.16
12561.152
12561.143
12561.131
12561.117
12561.099
12561.077
12561.049
12561.014
12560.97
12560.916
12560.848
12560.762
12560.653
12560.517
12560.345
12560.127
12559.851
12559.502
12559.061
12558.503
12557.799
12556.912
12555.8
12554.41
12552.683
12550.546
12547.918
12544.703
12540.792
12536.059
12530.361
12523.536
12515.401
12505.752
12494.365
12480.991
12465.355
12447.156
12426.066
12401.724
12373.741
12341.695
12305.132
12263.569
12216.486
12163.326
12103.477
12036.282
11961.033
11876.962
11783.258
11679.083
11563.851
11434.068
12574.423
12574.423
12574.422
12574.421
12574.42
12574.419
12574.416
12574.414
12574.41
12574.405
12574.399
12574.392
12574.383
12574.371
12574.357
12574.338
12574.316
12574.288
12574.253
12574.209
12574.154
12574.085
12573.999
12573.891
12573.755
12573.584
12573.368
12573.095
12572.75
12572.315
12571.764
12571.071
12570.2
12569.107
12567.744
12566.051
12563.959
12561.388
12558.246
12554.425
12549.805
12544.244
12537.586
12529.653
12520.247
12509.148
12496.114
12480.875
12463.139
12442.583
12418.855
12391.573
12360.322
12324.662
12284.122
12238.196
12186.331
12127.937
12062.36
11988.913
11906.844
11815.361
11713.661
11601.227
11474.281
12588.586
12588.586
12588.586
12588.585
12588.584
12588.583
12588.581
12588.578
12588.574
12588.57
12588.564
12588.556
12588.547
12588.536
12588.521
12588.503
12588.48
12588.453
12588.417
12588.374
12588.32
12588.252
12588.166
12588.059
12587.925
12587.756
12587.543
12587.274
12586.935
12586.507
12585.967
12585.287
12584.433
12583.364
12582.03
12580.375
12578.332
12575.824
12572.759
12569.036
12564.535
12559.121
12552.643
12544.928
12535.782
12524.993
12512.324
12497.513
12480.273
12460.29
12437.218
12410.684
12380.286
12345.597
12306.157
12261.473
12211.001
12154.163
12090.319
12018.8
11938.871
11849.765
11750.709
11641.264
11517.343
12603.683
12603.683
12603.682
12603.682
12603.681
12603.679
12603.677
12603.674
12603.671
12603.666
12603.661
12603.654
12603.645
12603.634
12603.62
12603.602
12603.58
12603.553
12603.519
12603.477
12603.424
12603.357
12603.274
12603.17
12603.039
12602.874
12602.666
12602.404
12602.073
12601.655
12601.128
12600.465
12599.632
12598.59
12597.291
12595.68
12593.691
12591.25
12588.27
12584.651
12580.279
12575.024
12568.739
12561.256
12552.39
12541.933
12529.654
12515.3
12498.591
12479.216
12456.843
12431.109
12401.625
12367.977
12329.719
12286.361
12237.379
12182.201
12120.208
12050.746
11973.102
11886.527
11790.289
11684.03
11563.317
12619.723
12619.723
12619.723
12619.722
12619.721
12619.72
12619.718
12619.715
12619.713
12619.708
12619.703
12619.696
12619.688
12619.678
12619.664
12619.648
12619.627
12619.602
12619.57
12619.529
12619.479
12619.416
12619.336
12619.237
12619.111
12618.952
12618.752
12618.499
12618.178
12617.774
12617.264
12616.622
12615.815
12614.805
12613.546
12611.984
12610.057
12607.692
12604.805
12601.299
12597.067
12591.981
12585.902
12578.668
12570.1
12559.997
12548.135
12534.266
12518.116
12499.388
12477.759
12452.88
12424.375
12391.843
12354.842
12312.903
12265.506
12212.097
12152.075
12084.804
12009.59
11925.706
11832.459
11729.584
11612.267
12636.727
12636.727
12636.727
12636.726
12636.726
12636.725
12636.723
12636.721
12636.718
12636.714
12636.71
12636.703
12636.696
12636.686
12636.675
12636.66
12636.641
12636.617
12636.588
12636.551
12636.504
12636.445
12636.371
12636.277
12636.158
12636.007
12635.816
12635.575
12635.268
12634.88
12634.39
12633.772
12632.995
12632.022
12630.809
12629.304
12627.447
12625.166
12622.382
12619.001
12614.919
12610.016
12604.158
12597.19
12588.939
12579.211
12567.787
12554.428
12538.872
12520.832
12499.996
12476.031
12448.571
12417.224
12381.566
12341.133
12295.422
12243.895
12185.967
12121.023
12048.388
11967.357
11877.277
11777.989
11664.249
12654.723
12654.723
12654.723
12654.722
12654.722
12654.721
12654.719
12654.717
12654.715
12654.712
12654.708
12654.702
12654.696
12654.687
12654.677
12654.663
12654.647
12654.625
12654.598
12654.565
12654.522
12654.468
12654.399
12654.312
12654.2
12654.059
12653.879
12653.649
12653.358
12652.988
12652.52
12651.929
12651.187
12650.256
12649.094
12647.653
12645.872
12643.685
12641.013
12637.768
12633.849
12629.144
12623.523
12616.838
12608.922
12599.588
12588.627
12575.809
12560.882
12543.573
12523.585
12500.589
12474.24
12444.154
12409.919
12371.085
12327.165
12277.636
12221.93
12159.451
12089.547
12011.532
11924.795
11829.302
11719.321
12673.74
12673.74
12673.74
12673.739
12673.739
12673.738
12673.737
12673.735
12673.733
12673.73
12673.727
12673.722
12673.716
12673.709
12673.699
12673.687
12673.672
12673.653
12673.629
12673.598
12673.559
12673.509
12673.445
12673.364
12673.26
12673.127
12672.957
12672.741
12672.465
12672.115
12671.671
12671.11
12670.404
12669.519
12668.413
12667.041
12665.344
12663.258
12660.709
12657.611
12653.87
12649.376
12644.007
12637.621
12630.059
12621.142
12610.671
12598.426
12584.168
12567.637
12548.544
12526.579
12501.406
12472.657
12439.931
12402.793
12360.772
12313.359
12260.005
12200.135
12133.116
12058.282
11975.067
11883.577
11777.539
12693.802
12693.802
12693.802
12693.802
12693.801
12693.8
12693.799
12693.798
12693.796
12693.793
12693.79
12693.786
12693.781
12693.774
12693.765
12693.754
12693.74
12693.722
12693.699
12693.67
12693.634
12693.587
12693.527
12693.451
12693.353
12693.228
12693.068
12692.864
12692.604
12692.274
12691.855
12691.325
12690.658
12689.822
12688.778
12687.479
12685.872
12683.895
12681.477
12678.537
12674.984
12670.715
12665.613
12659.545
12652.358
12643.884
12633.932
12622.294
12608.747
12593.038
12574.893
12554.02
12530.093
12502.759
12471.63
12436.287
12396.274
12351.101
12300.235
12243.119
12179.142
12107.658
12028.142
11940.867
11838.965
12714.919
12714.919
12714.919
12714.919
12714.918
12714.918
12714.916
12714.915
12714.913
12714.911
12714.907
12714.903
12714.898
12714.891
12714.883
12714.872
12714.858
12714.841
12714.82
12714.792
12714.757
12714.712
12714.656
12714.583
12714.49
12714.372
12714.221
12714.029
12713.785
12713.474
12713.081
12712.585
12711.96
12711.175
12710.194
12708.974
12707.462
12705.6
12703.32
12700.546
12697.193
12693.163
12688.346
12682.615
12675.827
12667.821
12658.419
12647.426
12634.628
12619.788
12602.649
12582.929
12560.318
12534.478
12505.037
12471.592
12433.704
12390.898
12342.658
12288.447
12227.673
12159.709
12084.073
12001.222
11903.663
12737.086
12737.086
12737.085
12737.085
12737.085
12737.084
12737.083
12737.081
12737.079
12737.077
12737.073
12737.069
12737.064
12737.057
12737.049
12737.038
12737.025
12737.008
12736.987
12736.96
12736.926
12736.883
12736.828
12736.759
12736.671
12736.559
12736.417
12736.237
12736.009
12735.719
12735.354
12734.892
12734.311
12733.58
12732.666
12731.527
12730.114
12728.372
12726.238
12723.64
12720.499
12716.723
12712.207
12706.833
12700.467
12692.957
12684.137
12673.825
12661.819
12647.898
12631.82
12613.316
12592.094
12567.831
12540.173
12508.733
12473.087
12432.78
12387.312
12336.162
12278.757
12214.485
12142.918
12064.713
11971.698
12760.287
12760.287
12760.287
12760.287
12760.286
12760.286
12760.284
12760.283
12760.281
12760.279
12760.275
12760.271
12760.266
12760.259
12760.251
12760.24
12760.227
12760.21
12760.19
12760.164
12760.131
12760.09
12760.038
12759.973
12759.89
12759.785
12759.653
12759.486
12759.275
12759.008
12758.671
12758.245
12757.71
12757.036
12756.192
12755.137
12753.828
12752.212
12750.23
12747.818
12744.899
12741.39
12737.193
12732.198
12726.278
12719.292
12711.088
12701.494
12690.324
12677.371
12662.41
12645.189
12625.431
12602.831
12577.053
12547.727
12514.448
12476.778
12434.232
12386.306
12332.442
12272.042
12204.737
12131.416
12043.148
12784.508
12784.508
12784.508
12784.508
12784.508
12784.507
12784.506
12784.504
12784.502
12784.5
12784.497
12784.493
12784.488
12784.481
12784.473
12784.463
12784.451
12784.435
12784.416
12784.391
12784.36
12784.322
12784.274
12784.214
12784.137
12784.041
12783.92
12783.768
12783.575
12783.333
12783.027
12782.641
12782.153
12781.538
12780.766
12779.8
12778.598
12777.113
12775.292
12773.073
12770.39
12767.162
12763.301
12758.704
12753.254
12746.821
12739.266
12730.428
12720.138
12708.206
12694.421
12678.55
12660.333
12639.484
12615.685
12588.588
12557.804
12522.915
12483.452
12438.922
12388.783
12332.443
12269.58
12201.345
12118.198
12809.734
12809.734
12809.734
12809.734
12809.733
12809.733
12809.732
12809.73
12809.729
12809.726
12809.724
12809.72
12809.716
12809.71
12809.703
12809.694
12809.683
12809.669
12809.651
12809.63
12809.602
12809.568
12809.525
12809.471
12809.403
12809.318
12809.21
12809.075
12808.904
12808.688
12808.415
12808.069
12807.631
12807.078
12806.38
12805.505
12804.415
12803.067
12801.413
12799.398
12796.961
12794.029
12790.522
12786.343
12781.386
12775.535
12768.659
12760.617
12751.253
12740.393
12727.846
12713.394
12696.797
12677.789
12656.074
12631.324
12603.171
12571.213
12535.001
12494.054
12447.842
12395.753
12337.472
12274.68
12196.898
12835.956
12835.956
12835.956
12835.956
12835.955
12835.955
12835.954
12835.953
12835.952
12835.95
12835.947
12835.945
12835.941
12835.936
12835.93
12835.923
12835.914
12835.902
12835.888
12835.869
12835.847
12835.818
12835.782
12835.736
12835.678
12835.605
12835.513
12835.396
12835.248
12835.06
12834.822
12834.518
12834.131
12833.639
12833.018
12832.237
12831.262
12830.057
12828.579
12826.778
12824.598
12821.977
12818.839
12815.097
12810.658
12805.415
12799.254
12792.047
12783.654
12773.921
12762.671
12749.708
12734.813
12717.74
12698.216
12675.935
12650.554
12621.689
12588.908
12551.747
12509.671
12462.012
12408.534
12351.5
12279.335
12863.164
12863.164
12863.164
12863.164
12863.164
12863.163
12863.162
12863.162
12863.161
12863.159
12863.158
12863.156
12863.153
12863.15
12863.145
12863.14
12863.133
12863.124
12863.113
12863.099
12863.082
12863.06
12863.031
12862.995
12862.948
12862.889
12862.813
12862.715
12862.591
12862.432
12862.228
12861.965
12861.63
12861.201
12860.657
12859.973
12859.12
12858.064
12856.769
12855.19
12853.281
12850.983
12848.229
12844.944
12841.045
12836.44
12831.026
12824.694
12817.32
12808.767
12798.877
12787.475
12774.364
12759.321
12742.097
12722.415
12699.954
12674.353
12645.2
12612.038
12574.32
12531.378
12482.845
12431.888
12365.767
12891.35
12891.35
12891.35
12891.349
12891.349
12891.349
12891.348
12891.348
12891.348
12891.347
12891.346
12891.344
12891.343
12891.341
12891.338
12891.334
12891.33
12891.324
12891.317
12891.308
12891.296
12891.28
12891.259
12891.232
12891.196
12891.15
12891.089
12891.011
12890.909
12890.777
12890.606
12890.385
12890.1
12889.735
12889.272
12888.689
12887.961
12887.06
12885.956
12884.61
12882.981
12881.017
12878.663
12875.855
12872.519
12868.578
12863.946
12858.53
12852.221
12844.902
12836.434
12826.665
12815.421
12802.506
12787.698
12770.747
12751.361
12729.207
12703.888
12674.956
12641.899
12603.942
12560.582
12515.992
12456.458
12920.493
12920.493
12920.493
12920.493
12920.493
12920.493
12920.492
12920.492
12920.492
12920.491
12920.491
12920.49
12920.489
12920.488
12920.487
12920.485
12920.483
12920.48
12920.476
12920.47
12920.463
12920.452
12920.438
12920.419
12920.393
12920.358
12920.312
12920.25
12920.169
12920.062
12919.923
12919.743
12919.509
12919.209
12918.828
12918.349
12917.751
12917.011
12916.104
12914.999
12913.659
12912.043
12910.105
12907.79
12905.04
12901.793
12897.977
12893.515
12888.319
12882.287
12875.305
12867.241
12857.949
12847.261
12834.985
12820.901
12804.753
12786.229
12764.975
12740.561
12712.467
12679.872
12642.072
12604.108
12551.622
12950.564
12950.564
12950.564
12950.563
12950.563
12950.563
12950.563
12950.563
12950.563
12950.563
12950.562
12950.562
12950.562
12950.562
12950.561
12950.56
12950.559
12950.558
12950.555
12950.552
12950.548
12950.541
12950.531
12950.517
12950.498
12950.472
12950.437
12950.389
12950.326
12950.243
12950.134
12949.993
12949.811
12949.577
12949.28
12948.907
12948.443
12947.869
12947.166
12946.308
12945.267
12944.011
12942.503
12940.701
12938.561
12936.035
12933.07
12929.603
12925.565
12920.874
12915.439
12909.154
12901.899
12893.537
12883.91
12872.827
12860.078
12845.396
12828.457
12808.861
12786.118
12759.374
12727.78
12696.701
12651.254
12981.507
12981.507
12981.507
12981.507
12981.507
12981.506
12981.506
12981.506
12981.506
12981.505
12981.505
12981.505
12981.505
12981.505
12981.504
12981.503
12981.503
12981.502
12981.5
12981.498
12981.495
12981.49
12981.482
12981.472
12981.458
12981.438
12981.411
12981.376
12981.329
12981.268
12981.189
12981.088
12980.957
12980.79
12980.579
12980.315
12979.988
12979.585
12979.09
12978.486
12977.753
12976.868
12975.805
12974.534
12973.028
12971.253
12969.171
12966.738
12963.902
12960.604
12956.776
12952.338
12947.203
12941.267
12934.407
12926.474
12917.295
12906.654
12894.295
12879.874
12862.945
12842.675
12818.206
12793.882
12756.012
13013.258
13013.258
13013.258
13013.258
13013.257
13013.257
13013.257
13013.256
13013.256
13013.255
13013.255
13013.255
13013.254
13013.253
13013.252
13013.251
13013.25
13013.249
13013.247
13013.244
13013.241
13013.236
13013.23
13013.221
13013.209
13013.194
13013.174
13013.149
13013.117
13013.077
13013.027
13012.965
13012.888
13012.789
13012.665
13012.512
13012.325
13012.094
13011.813
13011.471
13011.055
13010.552
13009.948
13009.229
13008.379
13007.382
13006.215
13004.852
13003.262
13001.409
12999.249
12996.732
12993.803
12990.393
12986.42
12981.777
12976.344
12969.959
12962.433
12953.526
12942.887
12929.862
12913.722
12897.19
12868.704
13047.169
13047.169
13047.169
13047.168
13047.168
13047.167
13047.167
13047.166
13047.165
13047.164
13047.163
13047.162
13047.161
13047.159
13047.158
13047.156
13047.153
13047.15
13047.147
13047.143
13047.138
13047.132
13047.124
13047.116
13047.105
13047.092
13047.078
13047.062
13047.044
13047.024
13047.003
13046.981
13046.957
13046.93
13046.901
13046.869
13046.833
13046.792
13046.745
13046.688
13046.618
13046.533
13046.433
13046.317
13046.184
13046.033
13045.861
13045.66
13045.421
13045.132
13044.781
13044.349
13043.816
13043.155
13042.325
13041.272
13039.928
13038.206
13035.992
13033.16
13029.517
13024.699
13018.715
13013.243
13002.781
13082.845
13082.844
13082.844
13082.843
13082.842
13082.842
13082.841
13082.84
13082.839
13082.838
13082.836
13082.834
13082.833
13082.83
13082.828
13082.825
13082.821
13082.817
13082.812
13082.806
13082.8
13082.793
13082.784
13082.775
13082.765
13082.756
13082.748
13082.742
13082.74
13082.744
13082.755
13082.777
13082.812
13082.863
13082.934
13083.031
13083.16
13083.324
13083.526
13083.773
13084.072
13084.435
13084.872
13085.399
13086.031
13086.784
13087.671
13088.708
13089.908
13091.288
13092.867
13094.663
13096.693
13098.969
13101.502
13104.295
13107.339
13110.628
13114.139
13117.868
13121.799
13125.886
13130.517
13136.492
13140.992
13118.449
13118.449
13118.448
13118.448
13118.447
13118.446
13118.445
13118.444
13118.443
13118.442
13118.44
13118.439
13118.437
13118.434
13118.432
13118.429
13118.425
13118.421
13118.417
13118.412
13118.406
13118.4
13118.394
13118.388
13118.383
13118.38
13118.382
13118.389
13118.405
13118.434
13118.479
13118.545
13118.638
13118.763
13118.931
13119.152
13119.435
13119.793
13120.238
13120.785
13121.452
13122.26
13123.235
13124.406
13125.804
13127.46
13129.408
13131.684
13134.328
13137.386
13140.907
13144.946
13149.557
13154.797
13160.723
13167.397
13174.879
13183.239
13192.551
13202.923
13214.474
13227.396
13242.135
13259.175
13278.21
13153.832
13153.831
13153.831
13153.83
13153.83
13153.829
13153.828
13153.827
13153.826
13153.825
13153.824
13153.822
13153.821
13153.819
13153.817
13153.815
13153.812
13153.81
13153.806
13153.804
13153.8
13153.797
13153.795
13153.794
13153.795
13153.801
13153.814
13153.835
13153.87
13153.923
13154
13154.109
13154.257
13154.457
13154.721
13155.062
13155.498
13156.048
13156.732
13157.575
13158.605
13159.856
13161.366
13163.178
13165.338
13167.892
13170.896
13174.407
13178.491
13183.224
13188.687
13194.969
13202.163
13210.37
13219.695
13230.259
13242.188
13255.63
13270.748
13287.753
13306.884
13328.491
13353.096
13381.325
13414.059
13188.824
13188.823
13188.823
13188.822
13188.822
13188.821
13188.82
13188.819
13188.819
13188.818
13188.817
13188.817
13188.816
13188.815
13188.814
13188.814
13188.813
13188.812
13188.812
13188.813
13188.813
13188.815
13188.819
13188.825
13188.835
13188.851
13188.876
13188.914
13188.97
13189.05
13189.162
13189.316
13189.524
13189.799
13190.157
13190.619
13191.208
13191.949
13192.87
13194.007
13195.397
13197.087
13199.128
13201.574
13204.487
13207.932
13211.981
13216.718
13222.234
13228.633
13236.026
13244.539
13254.303
13265.461
13278.171
13292.608
13308.964
13327.459
13348.343
13371.924
13398.558
13428.728
13463.076
13502.427
13547.998
13223.291
13223.29
13223.29
13223.289
13223.289
13223.288
13223.288
13223.288
13223.288
13223.287
13223.287
13223.287
13223.288
13223.288
13223.289
13223.29
13223.292
13223.294
13223.297
13223.301
13223.306
13223.313
13223.324
13223.338
13223.358
13223.386
13223.426
13223.483
13223.562
13223.672
13223.823
13224.025
13224.293
13224.644
13225.099
13225.682
13226.423
13227.353