/*--------------------------------*- C++ -*----------------------------------*\
  =========                 |
  \\      /  F ield         | OpenFOAM: The Open Source CFD Toolbox
   \\    /   O peration     | Website:  https://openfoam.org
    \\  /    A nd           | Version:  13
     \\/     M anipulation  |
\*---------------------------------------------------------------------------*/
FoamFile
{
    format      ascii;
    class       volVectorField;
    location    "25.004283";
    object      UMean;
}
// * * * * * * * * * * * * * * * * * * * * * * * * * * * * * * * * * * * * * //

dimensions      [0 1 -1 0 0 0 0];

internalField   nonuniform List<vector> 
17140
(
(-2.6083224e-06 0.0001201826 -1.3933918e-22)
(-3.0237949e-05 0.00037041086 -1.1450969e-23)
(-8.9487447e-05 0.00064450067 7.569439e-22)
(-0.00019255359 0.00094393403 -8.3252896e-22)
(-0.00035065557 0.0012702532 9.7380701e-23)
(-0.00057907203 0.0016248551 -3.1883294e-22)
(-0.00089661514 0.0020089376 -5.3714068e-22)
(-0.0013260264 0.0024234072 2.6272643e-22)
(-0.0018947181 0.0028687684 8.6057121e-22)
(-0.0026354982 0.0033449921 2.113713e-21)
(-0.0035873104 0.003851361 -3.1411376e-21)
(-0.0047959531 0.0043862967 2.8060135e-21)
(-0.0063147346 0.0049471719 4.3024728e-22)
(-0.0082049824 0.0055301138 -2.4462905e-21)
(-0.010536311 0.0061298187 2.7266238e-22)
(-0.013386527 0.0067393921 -2.1728369e-21)
(-0.016841039 0.0073502535 8.1871462e-23)
(-0.020991642 0.007952135 -1.7841382e-23)
(-0.025934572 0.0085332259 -1.3129315e-21)
(-0.031767792 0.0090805058 1.7197297e-21)
(-0.0385876 0.0095803064 -8.3479501e-22)
(-0.046484838 0.010019124 1.6211263e-22)
(-0.05554112 0.010384658 1.1994994e-21)
(-0.065826034 0.01066703 -1.2050804e-21)
(-0.077397122 0.010860122 -1.9358085e-21)
(-0.090300016 0.010962972 1.5733783e-21)
(-0.10456737 0.010980923 7.7779312e-21)
(-0.12023124 0.01092533 9.1687028e-22)
(-0.13732491 0.010812595 -8.1780548e-21)
(-0.15588998 0.010660914 -1.9186034e-21)
(-0.17597052 0.010481785 -6.9118081e-21)
(-0.19760206 0.010277066 9.1862348e-21)
(-0.22082333 0.010042063 -2.3996678e-21)
(-0.24566236 0.0097691999 -1.1595784e-21)
(-0.27213183 0.009449934 -1.139048e-20)
(-0.30021964 0.009075155 5.0417286e-21)
(-0.32987809 0.0086354515 -7.5795987e-21)
(-0.36101068 0.0081212119 -5.1262868e-21)
(-0.39345666 0.0075228755 -2.3374122e-21)
(-0.42697323 0.0068328964 7.0959758e-21)
(-0.46121852 0.0060477127 1.3298143e-20)
(-0.49573485 0.0051696023 1.1978935e-20)
(-0.5299291 0.0042043548 5.1901228e-21)
(-0.56306235 0.0031576798 -2.4805576e-20)
(-0.59424741 0.0020334471 -1.7863335e-20)
(-0.62244404 0.00083767337 4.3290304e-21)
(-0.64657723 -0.00042663713 -2.8941169e-20)
(-0.66560718 -0.0017620814 -9.6672562e-21)
(-0.67832344 -0.0031612107 9.7058861e-21)
(-0.68384365 -0.0045753466 2.3458284e-20)
(-0.68134662 -0.0059407793 -1.4319306e-20)
(-0.67018185 -0.0072020881 -8.9970058e-21)
(-0.64965992 -0.0083365409 2.3400474e-20)
(-0.61929437 -0.0092933881 1.1086521e-20)
(-0.57840106 -0.009953245 7.9694472e-21)
(-0.52668792 -0.010180492 -6.2776712e-21)
(-0.46388132 -0.0098565188 1.7369637e-20)
(-0.39003273 -0.0088636511 1.4730931e-20)
(-0.30501417 -0.0071386148 3.7764837e-21)
(-0.20999445 -0.0047414746 -9.8354405e-21)
(-0.10521296 -0.0019910893 -7.8849618e-21)
(0.0053113982 0.00053120309 -2.9731555e-20)
(0.12219075 0.0020773734 -4.4365254e-21)
(0.23539749 0.0017801352 3.7682167e-20)
(0.35489822 -0.00091303046 -2.9537429e-20)
(-2.3938392e-05 0.00055994369 3.9520272e-23)
(-9.5510484e-05 0.0017249075 -3.9638265e-21)
(-0.00020224383 0.0029999303 3.5282245e-21)
(-0.00035639595 0.0043919941 -9.6248902e-22)
(-0.00056920992 0.0059079119 -1.9888019e-21)
(-0.00085592355 0.0075537696 3.8021938e-21)
(-0.0012351903 0.0093346096 -3.9671839e-21)
(-0.0017294841 0.011253982 3.4949309e-22)
(-0.0023658023 0.013313396 -1.0923877e-21)
(-0.0031763641 0.015511673 -1.824119e-23)
(-0.0041993215 0.017844201 -3.659705e-21)
(-0.0054794502 0.020302094 5.8306077e-21)
(-0.0070687814 0.022871303 4.8284447e-22)
(-0.0090270947 0.025531703 -4.7825574e-21)
(-0.011422182 0.028256255 1.4757154e-21)
(-0.014329766 0.031010366 9.4126644e-22)
(-0.017832955 0.03375159 -5.9964168e-21)
(-0.022021093 0.036429919 1.9652335e-20)
(-0.026987916 0.038988873 -1.2383423e-20)
(-0.032828984 0.04136767 1.4931258e-20)
(-0.039638447 0.043504645 -2.2225366e-20)
(-0.047505426 0.045341962 5.4930252e-21)
(-0.056510405 0.046831377 2.2846529e-21)
(-0.066722494 0.047940421 -7.5148128e-21)
(-0.078199337 0.048657975 2.7292066e-20)
(-0.090987657 0.048998048 4.0865053e-21)
(-0.10512101 0.048999701 -2.1507708e-20)
(-0.12063242 0.048719002 2.4309307e-20)
(-0.13755625 0.048219336 -3.4148432e-21)
(-0.15593365 0.047557491 -3.3343942e-20)
(-0.17580793 0.046776188 3.5166304e-21)
(-0.19721292 0.045899741 2.6896944e-20)
(-0.22018525 0.044936175 6.3938735e-22)
(-0.24474988 0.043882379 -2.032445e-20)
(-0.27091542 0.042726922 2.2828842e-20)
(-0.29866493 0.041451184 -1.0299532e-20)
(-0.32794489 0.040030085 1.2246505e-20)
(-0.35865184 0.038432837 3.8840478e-20)
(-0.39061682 0.036624036 8.6473478e-21)
(-0.42358807 0.034566661 3.3808104e-20)
(-0.4572132 0.032226104 -4.3285545e-20)
(-0.49102155 0.029572243 -3.9421336e-20)
(-0.5244038 0.026578939 -6.5962366e-21)
(-0.55659746 0.023222947 5.312376e-20)
(-0.58668037 0.01948966 -2.4579743e-20)
(-0.61357594 0.015391394 -8.3674349e-21)
(-0.63613787 0.010971945 4.5171226e-21)
(-0.6532633 0.0062795979 1.3717027e-20)
(-0.66386663 0.0013891773 -6.6326715e-21)
(-0.66695368 -0.0035661688 1.1840228e-20)
(-0.66170723 -0.0084783518 7.0845876e-20)
(-0.64746192 -0.013264376 3.3859104e-21)
(-0.62360846 -0.017864173 -1.5215091e-20)
(-0.58964821 -0.022217901 3.3936209e-20)
(-0.54507596 -0.026204748 -2.9195504e-20)
(-0.4896343 -0.029659757 8.380016e-20)
(-0.42304625 -0.032450062 2.4189699e-20)
(-0.34553312 -0.034406182 -6.9634821e-20)
(-0.25702129 -0.035401878 1.1936821e-20)
(-0.15874152 -0.035363794 1.4010684e-20)
(-0.050970158 -0.034374612 2.878708e-21)
(0.061978006 -0.032874734 -3.8703071e-20)
(0.18094279 -0.031257838 7.6949638e-20)
(0.295886 -0.031183911 2.3195807e-20)
(0.41770681 -0.032134246 3.9289799e-20)
(-6.9320828e-05 0.00099024992 2.1771216e-21)
(-0.00023415479 0.0030506154 -1.1933998e-21)
(-0.00044166382 0.0053058137 -3.1742966e-22)
(-0.00070400775 0.007768412 3.0122269e-22)
(-0.0010325426 0.010450574 -1.4599359e-21)
(-0.0014423203 0.013363215 -1.0834039e-22)
(-0.0019516093 0.016515434 -1.3888046e-21)
(-0.0025822322 0.019913723 -1.4976421e-21)
(-0.0033602141 0.023560995 1.2263542e-20)
(-0.0043164189 0.027455443 -1.0967884e-20)
(-0.0054871979 0.03158921 5.2598103e-21)
(-0.0069150218 0.035946903 7.724112e-21)
(-0.0086490623 0.040503986 -1.5366387e-20)
(-0.010745655 0.045225153 -1.9071652e-21)
(-0.013268557 0.050062802 7.4031921e-21)
(-0.016288908 0.054955848 5.1133902e-21)
(-0.019884769 0.059829151 -5.9642776e-21)
(-0.024140139 0.064593955 2.172726e-20)
(-0.029143338 0.069149787 -1.294277e-20)
(-0.03498474 0.073388271 6.4457845e-21)
(-0.041753898 0.077199242 -2.1943431e-20)
(-0.049536288 0.08047922 -5.7607647e-21)
(-0.058410035 0.08314188 1.214363e-20)
(-0.068443303 0.085129296 -1.8450721e-20)
(-0.079693996 0.086422067 -7.3164346e-21)
(-0.092211008 0.087045866 8.9422852e-21)
(-0.1060298 0.087071005 5.1167889e-20)
(-0.1211857 0.086597937 2.3325489e-20)
(-0.13771431 0.085736694 -1.1876986e-20)
(-0.1556559 0.08458397 1.2675978e-20)
(-0.17505302 0.083215119 -8.1612243e-21)
(-0.19593571 0.081678221 -4.6080413e-20)
(-0.21833596 0.07999488 1.5568661e-20)
(-0.24227221 0.07816673 4.6734498e-20)
(-0.2677446 0.076179443 -1.5881572e-20)
(-0.29472559 0.074004934 -2.219493e-20)
(-0.32314879 0.071602488 3.8589295e-20)
(-0.35289526 0.068919916 1.1721965e-20)
(-0.38377743 0.065895756 -2.1119123e-20)
(-0.41552151 0.062463052 -8.5185809e-21)
(-0.44774868 0.058554722 4.0596167e-20)
(-0.47995516 0.054106243 -1.1651911e-20)
(-0.51148945 0.049056246 -1.6665989e-20)
(-0.54153658 0.043349094 -4.3906113e-20)
(-0.56910865 0.036949374 8.3082654e-20)
(-0.59306513 0.029877743 -5.317405e-20)
(-0.61223019 0.022236266 -1.3113473e-20)
(-0.62544231 0.01415005 -5.2094227e-20)
(-0.63160715 0.0057432042 -6.2035598e-20)
(-0.6297819 -0.0027658833 -3.1132738e-21)
(-0.61923959 -0.011180703 1.3065422e-20)
(-0.59941455 -0.019385622 -9.7079461e-20)
(-0.56981174 -0.027329975 -4.1551322e-20)
(-0.52999663 -0.034954656 -4.3000771e-20)
(-0.47959516 -0.042126575 -1.4199166e-20)
(-0.41844481 -0.048651786 -1.1188759e-19)
(-0.34644169 -0.054354835 4.4877757e-20)
(-0.26398193 -0.059036608 -1.40238e-20)
(-0.17106922 -0.06250956 -1.1694615e-19)
(-0.069165016 -0.06456552 -4.7367936e-20)
(0.041491651 -0.065005107 5.7767141e-20)
(0.15615817 -0.064250135 2.0268035e-19)
(0.27610582 -0.062289199 -6.6152987e-20)
(0.39035346 -0.061749257 -1.0753152e-19)
(0.51085519 -0.060465935 -4.6644318e-20)
(-0.00013731693 0.0013963872 -7.2578408e-21)
(-0.00044183142 0.004302561 8.55202e-21)
(-0.00080028887 0.007484492 -3.0933474e-21)
(-0.0012246474 0.010960334 3.3651556e-22)
(-0.001726431 0.014747651 -6.6541789e-21)
(-0.0023204219 0.018862371 6.8912187e-21)
(-0.0030242919 0.023317974 -1.0461407e-20)
(-0.0038588755 0.028124394 4.9301715e-21)
(-0.0048487275 0.033286668 1.8765902e-20)
(-0.0060226618 0.038803323 -4.5227663e-21)
(-0.0074143076 0.044664513 -1.725785e-20)
(-0.0090626493 0.050849902 5.2854306e-21)
(-0.011012534 0.05732637 3.5604736e-22)
(-0.013315076 0.064045639 -1.3929946e-20)
(-0.016027914 0.070942033 4.3804849e-20)
(-0.019215209 0.077930644 -2.7053515e-20)
(-0.02294733 0.08490632 -2.5909401e-22)
(-0.027300082 0.091744032 1.5184231e-20)
(-0.032353446 0.098301286 -3.8906432e-20)
(-0.038189753 0.10442321 1.8555461e-20)
(-0.044891348 0.10995101 2.798357e-20)
(-0.052537899 0.11473389 1.1454035e-20)
(-0.06120364 0.11864405 -5.7499027e-20)
(-0.070955013 0.12159316 -3.0440253e-20)
(-0.081850101 0.12354745 2.0027205e-20)
(-0.093940512 0.12453779 -1.1798274e-20)
(-0.10726508 0.12466058 4.5026525e-20)
(-0.1218625 0.12405942 -1.3103075e-20)
(-0.13776945 0.12288956 3.5870983e-20)
(-0.1550258 0.12129008 -2.0606155e-20)
(-0.17367333 0.1193703 1.2843287e-20)
(-0.19373641 0.11720388 -4.7899863e-20)
(-0.21524002 0.11482758 7.0004671e-21)
(-0.23819298 0.11224838 -3.702743e-20)
(-0.2625831 0.10944936 3.5866462e-20)
(-0.28836746 0.10639301 1.1399796e-20)
(-0.31546073 0.10302287 -1.4547915e-19)
(-0.3437211 0.099265191 -3.8031572e-20)
(-0.37293387 0.095031864 3.1809726e-20)
(-0.40279332 0.090225409 -3.1345846e-20)
(-0.43288278 0.084744904 7.9643416e-21)
(-0.46265208 0.078489351 5.0535397e-20)
(-0.49139371 0.071359995 -2.388152e-21)
(-0.51822717 0.063268702 -1.6629726e-20)
(-0.54209347 0.054164655 8.2660975e-21)
(-0.5618085 0.044090974 -3.654138e-21)
(-0.5762002 0.033204059 -1.1294537e-20)
(-0.58408534 0.021710256 1.7678773e-19)
(-0.58443601 0.0098334835 -1.958638e-20)
(-0.57644029 -0.0021112261 1.8062544e-20)
(-0.55952663 -0.013862763 -1.6925779e-19)
(-0.53326651 -0.025280246 9.2905213e-20)
(-0.49727949 -0.036322499 7.6340445e-20)
(-0.4512309 -0.046938856 7.3337186e-20)
(-0.39486416 -0.056989298 7.1255061e-20)
(-0.32818578 -0.066262033 1.1329408e-19)
(-0.25126903 -0.074552869 -2.2914965e-19)
(-0.16470646 -0.081646583 1.4333296e-19)
(-0.068598302 -0.087295154 2.2204183e-19)
(0.03531364 -0.091198645 -1.6564936e-19)
(0.14679136 -0.092845412 -5.424737e-20)
(0.26055951 -0.092686431 -4.8841025e-20)
(0.37852933 -0.090124886 2.4931482e-19)
(0.4886584 -0.088885564 1.8542271e-19)
(0.60271615 -0.085285866 -8.2452269e-21)
(-0.00022484049 0.001763692 5.0796923e-21)
(-0.00070920211 0.0054358251 -1.2462701e-20)
(-0.0012620518 0.0094582418 1.0164901e-20)
(-0.0018951082 0.013854614 -3.8435497e-21)
(-0.0026201295 0.018647921 -1.3893417e-21)
(-0.0034515736 0.023859295 1.1967151e-20)
(-0.0044063704 0.029507001 -3.0358342e-21)
(-0.0055041126 0.035605083 -6.4534739e-21)
(-0.0067674944 0.042161682 -4.9645932e-22)
(-0.0082227245 0.049177031 -4.2237522e-21)
(-0.0098999592 0.056641095 5.9299941e-21)
(-0.011833718 0.064530894 -4.1363756e-21)
(-0.014063287 0.072807535 -1.5299542e-20)
(-0.016633042 0.081413123 -4.4458802e-22)
(-0.019592677 0.090267715 1.1827867e-20)
(-0.022997253 0.099266751 8.4352367e-21)
(-0.026907021 0.10827938 -7.315086e-21)
(-0.031386931 0.11714844 7.1400014e-22)
(-0.036505788 0.1256929 1.4564474e-20)
(-0.042334991 0.13371379 1.7946519e-20)
(-0.048946898 0.14100425 -2.0757238e-20)
(-0.056412888 0.14736449 -2.118699e-20)
(-0.064801328 0.15262093 2.8945475e-20)
(-0.074175694 0.15664793 -3.635278e-20)
(-0.084593783 0.15938847 -6.3890709e-20)
(-0.096109372 0.16086894 1.5301495e-19)
(-0.10876744 0.16120293 -8.5488099e-20)
(-0.12260964 0.16057249 1.2822912e-19)
(-0.13767339 0.15917753 -1.6232021e-19)
(-0.15400093 0.1572037 1.8327022e-19)
(-0.17163171 0.15479438 -1.9152983e-19)
(-0.19058415 0.15205125 3.2672023e-20)
(-0.21087378 0.14902896 1.132962e-19)
(-0.23249766 0.14574124 -6.4413402e-20)
(-0.25542828 0.14216927 2.0314327e-20)
(-0.27960346 0.13826607 6.0567151e-21)
(-0.30491445 0.13395929 7.3719482e-20)
(-0.33119157 0.1291535 2.3957242e-20)
(-0.35818777 0.12373393 2.4013403e-20)
(-0.38556019 0.11757196 2.41161e-20)
(-0.41284851 0.11053139 -1.2297077e-19)
(-0.43945064 0.10247244 5.3893457e-20)
(-0.46460025 0.093257824 8.2299374e-21)
(-0.48735424 0.082769014 -9.7719969e-20)
(-0.50660139 0.070950384 -4.891535e-20)
(-0.5211584 0.057885668 2.4103424e-20)
(-0.52989754 0.043805319 8.5855588e-20)
(-0.53171375 0.02898945 -3.7379854e-20)
(-0.52569818 0.013777615 1.0725538e-19)
(-0.51119581 -0.0014138603 5.7881837e-20)
(-0.48776826 -0.016263551 7.9775771e-20)
(-0.45510103 -0.030630714 2.1291483e-19)
(-0.4128872 -0.044504491 -1.6523288e-19)
(-0.36085785 -0.057847597 5.3492831e-20)
(-0.29886952 -0.070496496 -9.3909265e-20)
(-0.22713197 -0.082201859 -9.0033416e-20)
(-0.14596981 -0.092741935 -3.5433323e-20)
(-0.056209801 -0.10192446 -3.3221016e-19)
(0.04192172 -0.10942412 -9.140906e-20)
(0.14632636 -0.11487687 2.1311431e-19)
(0.25674725 -0.11739668 8.1898379e-20)
(0.36727468 -0.11765863 -6.3292487e-20)
(0.48047588 -0.1143797 -1.3298124e-19)
(0.58405163 -0.11205073 -2.0766654e-19)
(0.68785856 -0.1060489 1.6337073e-20)
(-0.0003271655 0.0020781227 1.536433e-20)
(-0.0010218957 0.0064073423 3.996087e-21)
(-0.0018022237 0.01115245 -3.2388884e-21)
(-0.0026796274 0.016342472 -1.1963274e-20)
(-0.0036661815 0.022005736 6.5590494e-21)
(-0.0047760166 0.028168745 -9.4504185e-21)
(-0.0060252555 0.034854977 4.0941643e-21)
(-0.0074321084 0.042083344 9.7648437e-22)
(-0.009017172 0.049866266 -5.5387005e-21)
(-0.010803692 0.058207349 -1.1965391e-20)
(-0.012817845 0.067098625 -6.000747e-22)
(-0.015089008 0.076517376 1.9807644e-20)
(-0.01765001 0.086422573 -2.7525582e-20)
(-0.020537359 0.096751054 4.4706443e-20)
(-0.023791403 0.1074137 -1.1765029e-20)
(-0.027456398 0.11829195 2.5193162e-20)
(-0.031580461 0.12923525 -3.0767161e-20)
(-0.036215361 0.14006026 2.0206632e-20)
(-0.041416121 0.15055276 -3.2390438e-21)
(-0.047240398 0.16047364 -1.3320936e-20)
(-0.053747656 0.16956992 3.2891568e-20)
(-0.060998163 0.1775917 -4.7251394e-20)
(-0.069051879 0.18431498 5.233656e-20)
(-0.077967359 0.18956846 9.1191854e-21)
(-0.087800965 0.19326038 -9.1674224e-20)
(-0.098607602 0.19539945 9.4409702e-20)
(-0.11043976 0.19610288 -6.2579967e-20)
(-0.12334173 0.19558074 7.1377866e-20)
(-0.13735453 0.19408062 6.7452306e-21)
(-0.15252306 0.1918363 4.2354679e-21)
(-0.16888217 0.18902639 -2.9727744e-20)
(-0.18644763 0.18578379 1.8980744e-21)
(-0.20522231 0.18218497 -1.1441456e-19)
(-0.22519039 0.17825282 3.1414376e-20)
(-0.24630665 0.17396762 9.4245175e-20)
(-0.26848723 0.16927335 -4.4384416e-20)
(-0.29159742 0.16408204 3.6807727e-20)
(-0.31543742 0.15827704 -3.6960676e-20)
(-0.33972596 0.15171717 -2.0685164e-19)
(-0.36408121 0.14424224 1.1464431e-19)
(-0.38799815 0.13567927 2.7966086e-20)
(-0.41082451 0.12584876 -1.58278e-19)
(-0.43174298 0.11457614 9.5121505e-21)
(-0.44976693 0.10171895 1.9443908e-20)
(-0.46377332 0.08723169 2.0570679e-19)
(-0.47264999 0.07125676 4.7167664e-20)
(-0.47534582 0.054107336 -7.3256849e-20)
(-0.47091225 0.036132662 -7.4137078e-20)
(-0.45856371 0.017787685 -1.0424243e-19)
(-0.43774699 -0.00042436605 -1.2740977e-19)
(-0.40809081 -0.018132384 -7.7251479e-20)
(-0.36935748 -0.035201181 -1.206194e-19)
(-0.32128985 -0.05165562 4.1375617e-20)
(-0.26368444 -0.067460507 -2.5596814e-19)
(-0.19652908 -0.08240934 -1.7202345e-20)
(-0.12027541 -0.09620816 -1.5063645e-20)
(-0.035511452 -0.10861533 -8.1578559e-21)
(0.056612413 -0.11950191 3.5754979e-19)
(0.15577225 -0.12846494 1.4279174e-19)
(0.25940838 -0.13512856 -2.2406251e-19)
(0.36719348 -0.13818696 -3.2926481e-19)
(0.47284487 -0.13857915 -1.5042281e-19)
(0.5788873 -0.13456189 -5.0049335e-20)
(0.67401704 -0.13074719 2.944017e-19)
(0.76550676 -0.12226923 -7.4965807e-20)
(-0.00043800432 0.0023272105 -2.8779584e-21)
(-0.0013610193 0.0071787118 -6.7212373e-21)
(-0.0023881393 0.012500444 1.6232125e-20)
(-0.003530938 0.018326436 -6.0471134e-22)
(-0.0048017855 0.024690201 -7.9171683e-21)
(-0.0062145483 0.03162368 -3.4932609e-21)
(-0.0077845706 0.039155933 -2.5829618e-21)
(-0.0095286739 0.047311499 5.0996695e-21)
(-0.0114653 0.056108315 -2.6458687e-20)
(-0.013614614 0.065555183 2.0025313e-20)
(-0.015998612 0.075648728 -9.7048258e-22)
(-0.018641215 0.086369826 -1.2211212e-20)
(-0.021568354 0.097679541 4.5927415e-20)
(-0.02480804 0.10951465 -4.6064358e-20)
(-0.02839043 0.12178301 6.1886939e-21)
(-0.032347859 0.13435907 3.8604507e-20)
(-0.036714883 0.14708023 -3.6693675e-20)
(-0.041528292 0.15974481 1.2995138e-20)
(-0.046827139 0.17211286 -2.558439e-20)
(-0.052652765 0.18391135 3.3358088e-20)
(-0.05904883 0.19484494 6.3714659e-20)
(-0.06606137 0.20461409 -6.4256949e-20)
(-0.073738805 0.21294031 -9.5880196e-20)
(-0.082131893 0.21959763 1.8853069e-19)
(-0.091293444 0.22444591 -1.540006e-19)
(-0.1012783 0.22745929 9.093975e-20)
(-0.11214404 0.2287407 -2.3877118e-20)
(-0.1239417 0.22851292 5.7194947e-20)
(-0.13671761 0.22706957 -5.9545615e-20)
(-0.15051478 0.22469212 -8.1110844e-20)
(-0.1653682 0.22160204 5.4719953e-20)
(-0.18129281 0.21796508 9.1286072e-20)
(-0.19827661 0.21388363 -8.19878e-21)
(-0.2162902 0.20939399 -3.4571775e-21)
(-0.23526934 0.20447786 -6.0367085e-20)
(-0.25510728 0.19907151 2.6288216e-20)
(-0.27564272 0.19307234 9.6794195e-20)
(-0.29664556 0.1863432 4.87225e-20)
(-0.3178004 0.17871674 -7.4991166e-20)
(-0.33868739 0.17000088 5.9535698e-20)
(-0.35875977 0.15998563 -5.0325908e-20)
(-0.37732281 0.14845298 1.7069258e-20)
(-0.3935249 0.13519574 6.386855e-20)
(-0.40636806 0.1200595 -1.5206139e-19)
(-0.4147726 0.10302831 -8.9930921e-20)
(-0.41775598 0.084312331 -5.7919597e-20)
(-0.41439592 0.064296691 1.7991048e-19)
(-0.40389878 0.043393184 1.1558569e-19)
(-0.3855447 0.022133017 1.343188e-19)
(-0.3587816 0.0011044654 2.3246798e-19)
(-0.32327706 -0.019255766 -7.9708919e-20)
(-0.27886412 -0.038810227 1.6795784e-20)
(-0.2253351 -0.057623706 1.3335207e-19)
(-0.16258701 -0.075657356 3.9329015e-19)
(-0.090793681 -0.092638862 2.6172867e-19)
(-0.010695257 -0.10821861 1.0444472e-19)
(0.076908103 -0.12212852 3.0979418e-19)
(0.1705663 -0.13434975 -2.1366095e-19)
(0.2698421 -0.14437481 2.2423628e-20)
(0.37167912 -0.15182731 3.6122739e-19)
(0.47541706 -0.15510444 2.5071915e-19)
(0.57503129 -0.1552765 1.1981866e-20)
(0.67241928 -0.15045576 -4.155252e-19)
(0.75762678 -0.14503811 4.3794045e-20)
(0.83530687 -0.13396455 -6.4065383e-20)
(-0.00054991946 0.0025008243 -1.1262486e-20)
(-0.0017038615 0.0077185875 5.5649398e-21)
(-0.0029806417 0.013447563 -7.5218862e-21)
(-0.0043922625 0.019726247 -4.2781939e-21)
(-0.0059513822 0.02659302 1.1950933e-20)
(-0.0076717129 0.034085169 1.1169345e-20)
(-0.0095679357 0.042237556 -1.1479389e-20)
(-0.011655609 0.051080978 1.3832273e-21)
(-0.013951156 0.060640035 3.2109489e-22)
(-0.016471801 0.070930517 2.2896572e-20)
(-0.019235491 0.081956214 -2.5227981e-21)
(-0.022260802 0.093705085 -4.6543495e-20)
(-0.025566823 0.10614484 3.7412552e-20)
(-0.029173042 0.1192179 -1.2997408e-21)
(-0.033099252 0.13283603 -2.5439371e-20)
(-0.037365498 0.14687483 -2.2113305e-21)
(-0.0419921 0.16116875 5.6852369e-21)
(-0.046999824 0.17550756 2.5952061e-20)
(-0.052410214 0.18963534 -4.8236603e-20)
(-0.058246191 0.20325391 8.61984e-20)
(-0.064532933 0.21603227 -1.8944005e-20)
(-0.07129898 0.22762415 1.4165345e-20)
(-0.078577558 0.23769452 -1.1919964e-20)
(-0.086407843 0.24595444 4.8471458e-22)
(-0.094835752 0.25220066 -7.3465321e-20)
(-0.10391397 0.25635281 -7.4737255e-20)
(-0.11370133 0.25847757 1.5078396e-19)
(-0.12425919 0.25878848 2.552498e-20)
(-0.13563887 0.25760745 -9.0545178e-20)
(-0.14788079 0.25527409 -3.2686369e-20)
(-0.16102388 0.25206255 -7.4782543e-20)
(-0.17508185 0.24816763 8.5632952e-20)
(-0.19003233 0.24372406 3.7848203e-20)
(-0.20582895 0.23878845 -8.8892451e-20)
(-0.22238843 0.2333474 3.7741793e-20)
(-0.23958134 0.2273323 1.7752626e-20)
(-0.25722018 0.22062762 -5.3498829e-20)
(-0.27504538 0.21307686 -1.4036384e-19)
(-0.29270885 0.20448711 -4.2683938e-20)
(-0.30975511 0.194635 2.8664075e-20)
(-0.32560099 0.18327509 6.801458e-20)
(-0.33952112 0.17015514 7.0083356e-20)
(-0.3506512 0.15504455 7.7227289e-20)
(-0.35801804 0.13779248 1.610852e-19)
(-0.36063994 0.11843057 -4.3618455e-21)
(-0.35768682 0.097240955 6.7037276e-20)
(-0.34839201 0.07464933 -3.5871495e-19)
(-0.3320467 0.051096464 -9.8409893e-20)
(-0.30790582 0.027155036 -1.1157816e-19)
(-0.27541884 0.0035123229 -3.0694875e-19)
(-0.23434694 -0.019300326 3.5703413e-19)
(-0.18460403 -0.041141832 -7.9570114e-20)
(-0.12603986 -0.062108753 -2.5642792e-19)
(-0.058685576 -0.082139342 -3.172265e-19)
(0.01707315 -0.10088119 -4.0762207e-20)
(0.10019779 -0.11794636 1.0391194e-19)
(0.1896905 -0.13305356 1.7010216e-19)
(0.28395977 -0.14629056 -7.299111e-20)
(0.38234482 -0.15703838 1.3378405e-19)
(0.48136101 -0.16490365 -1.1369663e-19)
(0.57988616 -0.16813541 -3.8954311e-20)
(0.67258931 -0.16777741 -1.1687275e-19)
(0.76049819 -0.16195829 5.1810145e-19)
(0.83427671 -0.15461615 1.6808761e-20)
(0.89631195 -0.14088122 2.1109573e-19)
(-0.00065475556 0.0025920276 1.0482725e-20)
(-0.0020252647 0.0080053909 2.0499099e-21)
(-0.0035364041 0.013955867 -2.2539673e-21)
(-0.0052006607 0.020485734 -1.1085658e-20)
(-0.0070310657 0.027637694 1.3306495e-20)
(-0.0090413069 0.035454051 -1.1311573e-20)
(-0.011245582 0.043975448 -5.4126392e-21)
(-0.01365843 0.053239302 2.9095661e-22)
(-0.016294565 0.06327776 4.5868511e-21)
(-0.019168656 0.074115132 2.61474e-20)
(-0.022295065 0.085764696 -4.4035278e-20)
(-0.025687553 0.098224823 5.3104159e-20)
(-0.029358952 0.11147433 -1.5666364e-20)
(-0.033320835 0.12546711 -2.137582e-20)
(-0.03758321 0.14012609 3.3002483e-20)
(-0.042154295 0.15533678 -6.5572167e-20)
(-0.047040437 0.170941 8.0225025e-20)
(-0.05224626 0.18673135 1.2717882e-21)
(-0.057775189 0.20244808 4.7105086e-20)
(-0.063630418 0.21777963 -1.8983374e-19)
(-0.069816469 0.23236957 4.6759431e-20)
(-0.076341331 0.24583177 1.9700717e-19)
(-0.0832191 0.25777617 -9.5025271e-20)
(-0.090472774 0.2678453 -1.1568907e-19)
(-0.098136634 0.27575902 2.9726839e-20)
(-0.1062573 0.28136082 1.5858834e-19)
(-0.11489268 0.28465424 -2.4520938e-19)
(-0.12410815 0.28581521 2.769716e-19)
(-0.13396683 0.28516543 -2.2186022e-19)
(-0.14451343 0.28309572 4.3189461e-20)
(-0.15577789 0.27995416 -7.5074317e-20)
(-0.1677777 0.27597918 -1.0825231e-19)
(-0.18048965 0.27132555 4.3354352e-20)
(-0.19384848 0.26607897 1.1402147e-20)
(-0.20775338 0.26024175 1.6328172e-19)
(-0.22205122 0.25374487 -3.2123372e-20)
(-0.23652907 0.24646214 8.2622508e-20)
(-0.2508989 0.23821904 -7.0221498e-20)
(-0.26478138 0.2287984 4.2012305e-20)
(-0.27768817 0.21794726 2.7310748e-20)
(-0.28900581 0.20538874 2.3401803e-20)
(-0.29799067 0.19084404 2.3215828e-20)
(-0.30378694 0.1740722 -1.4102011e-19)
(-0.30547504 0.15494318 -1.1023128e-19)
(-0.30220548 0.133548 3.0991138e-20)
(-0.2932762 0.1102348 -1.9372762e-20)
(-0.27805154 0.085427027 8.0445355e-20)
(-0.25581833 0.059551121 -1.5793631e-19)
(-0.22582654 0.03321273 -1.8224222e-19)
(-0.18767624 0.0072184418 -5.2482419e-20)
(-0.14128897 -0.017808619 -1.3766179e-19)
(-0.086633279 -0.041718978 4.3933153e-21)
(-0.023585469 -0.06463034 6.671502e-20)
(0.047664824 -0.086450023 3.2542576e-19)
(0.12651005 -0.10672882 -1.6402125e-19)
(0.21164477 -0.12505349 6.6963934e-20)
(0.30193415 -0.14114812 -1.9859187e-19)
(0.39579182 -0.15516736 3.3844311e-19)
(0.49218361 -0.16636889 -1.9705369e-19)
(0.58728077 -0.17423644 6.8934956e-20)
(0.67987017 -0.17707527 -8.7037636e-23)
(0.76514622 -0.17591239 5.5982744e-20)
(0.84276349 -0.16883277 2.0975251e-19)
(0.90302316 -0.1595742 -3.9983957e-19)
(0.9473381 -0.14354115 4.1210298e-19)
(-0.00074412762 0.0025978556 -2.3215804e-20)
(-0.0022995388 0.0080296097 -1.1622337e-20)
(-0.0040110047 0.014008181 1.8258324e-20)
(-0.0058915101 0.020578729 -4.8098764e-22)
(-0.0079545154 0.027787487 -1.6539933e-20)
(-0.010213814 0.035681157 -8.6596211e-21)
(-0.012683337 0.044305788 1.8284485e-20)
(-0.015376927 0.053705392 -3.0077354e-21)
(-0.018308034 0.063920087 4.2527599e-20)
(-0.021489356 0.074983728 -8.3159724e-21)
(-0.024932414 0.086920885 -2.1347529e-22)
(-0.028647065 0.099743092 3.0853413e-20)
(-0.032640958 0.11344423 -9.9469301e-20)
(-0.036918973 0.12799498 4.668637e-20)
(-0.041482663 0.14333647 8.4375339e-20)
(-0.046329778 0.15937297 -9.0856394e-20)
(-0.051453951 0.17596437 1.1314556e-20)
(-0.056844692 0.19291879 -6.5233138e-20)
(-0.062487835 0.2099867 -4.9251532e-20)
(-0.068366655 0.22685811 1.57802e-19)
(-0.074463807 0.24316544 -1.2090346e-19)
(-0.080764287 0.25849466 1.6264104e-19)
(-0.087259257 0.27240784 -1.9569665e-20)
(-0.09395053 0.2844786 8.1762086e-20)
(-0.10085483 0.2943398 -1.8199924e-19)
(-0.10800676 0.30173801 4.4085386e-20)
(-0.11545882 0.30658355 1.1365881e-19)
(-0.12327715 0.30897994 -2.803194e-19)
(-0.13153155 0.30921461 1.2416192e-19)
(-0.14028054 0.30769682 1.3579284e-19)
(-0.14955363 0.3048473 -1.1408275e-19)
(-0.1593542 0.30098804 -1.5341325e-20)
(-0.1696644 0.2963162 7.8627259e-20)
(-0.18041347 0.29093245 -4.4029535e-20)
(-0.19147698 0.28485464 6.8208944e-20)
(-0.20268357 0.27802439 -2.4215777e-19)
(-0.21379564 0.27031139 1.2816301e-19)
(-0.22449615 0.26152645 7.7624363e-20)
(-0.23437455 0.25143059 1.6006283e-19)
(-0.24291178 0.23974461 2.11434e-20)
(-0.24947018 0.22616623 -1.726796e-19)
(-0.25329875 0.21040016 6.9549972e-20)
(-0.25356583 0.19220937 1.0244193e-19)
(-0.24942149 0.17150038 1.6060155e-20)
(-0.24014413 0.14842389 -9.8237126e-20)
(-0.22511765 0.12337435 -8.5743219e-20)
(-0.20377963 0.096743949 2.5850454e-19)
(-0.1754083 0.068929209 1.3579068e-19)
(-0.13943634 0.040580237 2.9273078e-19)
(-0.095752359 0.012610028 1.0231096e-19)
(-0.044424729 -0.014307367 3.9584645e-20)
(0.014593603 -0.040036674 2.925607e-19)
(0.081413359 -0.064692416 1.1519377e-19)
(0.1556942 -0.088107843 -3.8911608e-19)
(0.23660813 -0.10972399 3.1419875e-19)
(0.32264261 -0.12910873 -2.9094081e-19)
(0.4126964 -0.14601782 1.4078324e-19)
(0.50517639 -0.16060745 -6.8554302e-19)
(0.59853702 -0.17200317 -3.4538121e-19)
(0.68911322 -0.1797234 1.4052895e-19)
(0.77565559 -0.18209388 2.2119417e-19)
(0.85295151 -0.17987535 3.7140576e-19)
(0.91843016 -0.17124664 6.5422733e-20)
(0.96213336 -0.15981922 5.1718989e-20)
(0.98750366 -0.14189355 -5.5045462e-19)
(-0.00081023142 0.0025199855 -4.1772359e-22)
(-0.0025027113 0.0077958912 2.1566566e-20)
(-0.0043629036 0.013611741 -2.5441275e-20)
(-0.0064042392 0.020014475 -1.2253449e-20)
(-0.008640609 0.027052794 2.4566629e-20)
(-0.011086009 0.034776847 7.9672026e-21)
(-0.013754314 0.043237307 -3.8699205e-20)
(-0.016659014 0.05248424 4.172479e-20)
(-0.019812806 0.062565547 8.822916e-21)
(-0.023227127 0.073524928 3.5199283e-20)
(-0.02691159 0.085399199 -9.3797921e-20)
(-0.030873332 0.098214855 -1.1494242e-21)
(-0.035116283 0.11198374 8.5049182e-20)
(-0.039640359 0.12669766 -9.18781e-20)
(-0.044440646 0.14232188 6.6281894e-20)
(-0.049506608 0.15878749 2.4803764e-20)
(-0.054821449 0.17598279 -5.2388898e-20)
(-0.060361765 0.19374427 4.7887374e-20)
(-0.066097703 0.21184795 6.468785e-20)
(-0.071993856 0.23000284 -1.3990879e-21)
(-0.078011277 0.24784877 -1.0564498e-19)
(-0.084110739 0.26496177 6.6620089e-20)
(-0.09025751 0.28087067 -3.789871e-20)
(-0.096427251 0.29508816 -1.8733794e-19)
(-0.10261246 0.30715757 -6.3935165e-20)
(-0.10882795 0.3167126 1.7754012e-19)
(-0.11511334 0.32354039 -1.8097368e-20)
(-0.12153021 0.32763144 2.0863597e-19)
(-0.12815204 0.32919484 -1.2597343e-19)
(-0.13504673 0.32861705 6.771184e-20)
(-0.14225615 0.32636201 -1.0001385e-19)
(-0.14978645 0.32284669 -2.4760811e-20)
(-0.15760059 0.31835043 1.2685057e-19)
(-0.16561756 0.31301279 -1.3294802e-19)
(-0.17371102 0.30687488 -1.973037e-19)
(-0.18168998 0.29988691 2.0412807e-20)
(-0.18929072 0.29191523 2.1908027e-19)
(-0.19616889 0.28275901 -2.8351297e-19)
(-0.20188329 0.27216213 6.1943107e-20)
(-0.20588703 0.25982559 -1.3318595e-19)
(-0.20752429 0.24543007 2.06012e-20)
(-0.20604633 0.22867468 -2.0969412e-19)
(-0.20065492 0.2093383 -1.0066409e-19)
(-0.19057723 0.18736933 -1.2438418e-19)
(-0.17517379 0.1629768 4.9966629e-19)
(-0.15390064 0.13657499 1.6184565e-19)
(-0.12624043 0.10852731 -2.147639e-19)
(-0.091587789 0.079216453 1.7381192e-19)
(-0.049737861 0.049340531 1.4456063e-19)
(-0.00086696523 0.019852393 -1.6261428e-19)
(0.054887943 -0.0085971116 -8.4800414e-20)
(0.11764339 -0.035906619 -1.9844547e-19)
(0.18749269 -0.062111626 -9.6311222e-20)
(0.26397642 -0.086931155 3.2989883e-19)
(0.34604152 -0.10971065 1.8631983e-19)
(0.43209658 -0.13003439 3.0067689e-20)
(0.52116176 -0.1476746 -1.2013876e-21)
(0.61154371 -0.16271963 1.697684e-19)
(0.70144037 -0.17421844 -2.4653619e-19)
(0.78764917 -0.18145891 -3.2069584e-19)
(0.86814318 -0.18279231 -9.0197169e-20)
(0.93583082 -0.17898266 -6.8667484e-19)
(0.98545371 -0.16855191 -5.4776913e-19)
(1.0097965 -0.1556088 -1.3994934e-19)
(1.0165253 -0.1371531 -7.4751824e-20)
(-0.00084669106 0.0023651205 1.4111297e-20)
(-0.0026151266 0.0073242875 9.041046e-21)
(-0.0045579308 0.012800447 -1.8814055e-20)
(-0.00668885 0.018841033 3.2269176e-20)
(-0.0090221261 0.025495908 8.0853549e-21)
(-0.011571983 0.032817378 -3.4681206e-20)
(-0.014352388 0.040859505 1.7751177e-22)