/*--------------------------------*- C++ -*----------------------------------*\
  =========                 |
  \\      /  F ield         | OpenFOAM: The Open Source CFD Toolbox
   \\    /   O peration     | Website:  https://openfoam.org
    \\  /    A nd           | Version:  13
     \\/     M anipulation  |
\*---------------------------------------------------------------------------*/
FoamFile
{
    format      ascii;
    class       volScalarField;
    location    "25.8972";
    object      k;
}
// * * * * * * * * * * * * * * * * * * * * * * * * * * * * * * * * * * * * * //

dimensions      [0 2 -2 0 0 0 0];

internalField   nonuniform List<scalar> 
17140
(
1.9621246e-11
6.1656733e-10
5.041846e-09
2.168266e-08
6.672124e-08
1.6835797e-07
3.7330624e-07
7.5649999e-07
1.4354267e-06
2.5911273e-06
4.4987732e-06
7.5719436e-06
1.2426403e-05
1.997148e-05
3.1540239e-05
4.9073738e-05
7.5379801e-05
0.00011449293
0.00017216845
0.00025654884
0.00037903905
0.00055541035
0.00080709947
0.0011625435
0.0016581278
0.0023378384
0.003249959
0.0044384097
0.0059267775
0.0076973202
0.0096765863
0.011745489
0.013777342
0.01567882
0.017405725
0.018953896
0.020341326
0.021594667
0.02274216
0.023810794
0.024825749
0.025810696
0.026788253
0.027780348
0.028808648
0.029894794
0.031059367
0.032321368
0.033700348
0.035216701
0.036892307
0.038751851
0.040824957
0.043146349
0.04575467
0.04869103
0.051997066
0.055723209
0.059805832
0.064071456
0.068049092
0.071231903
0.073054508
0.074281857
0.075316549
1.9541956e-11
6.1407579e-10
5.0214839e-09
2.1595184e-08
6.6452402e-08
1.6768049e-07
3.7180606e-07
7.534641e-07
1.4296745e-06
2.5807591e-06
4.4807997e-06
7.5417418e-06
1.2376925e-05
1.989211e-05
3.1415149e-05
4.8879546e-05
7.5082264e-05
0.00011404231
0.00017149312
0.00025554659
0.00037756559
0.00055326469
0.00080400635
0.0011581348
0.0016519282
0.0023292655
0.00323836
0.0044231609
0.0059074645
0.0076739585
0.0096497363
0.011716088
0.013746283
0.015646612
0.017372589
0.018919712
0.020305854
0.021557689
0.022703402
0.023769967
0.024782546
0.025764746
0.026739057
0.027727212
0.028750598
0.029830488
0.030987032
0.032238882
0.033605225
0.035106326
0.036764505
0.038606196
0.040665277
0.042985088
0.045620687
0.048642732
0.052147988
0.056197595
0.060816312
0.065818772
0.070605193
0.074347438
0.076071502
0.076137226
0.075583704
1.9320109e-11
6.0710454e-10
4.9644769e-09
2.1350016e-08
6.5697935e-08
1.6577655e-07
3.6758383e-07
7.4490647e-07
1.4134339e-06
2.5514373e-06
4.4298812e-06
7.4560263e-06
1.223624e-05
1.9665993e-05
3.1058078e-05
4.8324115e-05
7.4229526e-05
0.00011274823
0.00016954985
0.00025265703
0.00037330972
0.00054705679
0.00079504413
0.0011453461
0.0016339304
0.0023043717
0.0032046888
0.004378932
0.0058515289
0.0076064436
0.00957239
0.011631838
0.013658133
0.015556694
0.017281947
0.018828565
0.020213989
0.021464715
0.022608923
0.023673598
0.024683889
0.025663346
0.026634351
0.027618457
0.028636816
0.029710345
0.03085877
0.032100434
0.033454368
0.034940958
0.036583429
0.038410717
0.040462089
0.042791021
0.045471077
0.048603936
0.052330229
0.056788743
0.062052301
0.067968069
0.073842384
0.078681717
0.081065051
0.080877686
0.079541615
1.8948838e-11
5.954379e-10
4.8690744e-09
2.0939725e-08
6.4435353e-08
1.6259049e-07
3.605187e-07
7.3058774e-07
1.3862619e-06
2.5023834e-06
4.3447046e-06
7.3126543e-06
1.2000944e-05
1.9287847e-05
3.046098e-05
4.7395391e-05
7.2803774e-05
0.00011058469
0.00016630107
0.00024782633
0.00036619488
0.00053667843
0.00078006043
0.0011239632
0.0016038343
0.0022627351
0.0031483521
0.0043048914
0.0057578178
0.0074932219
0.0094425595
0.01149037
0.013510255
0.015406261
0.017130979
0.018677676
0.02006302
0.021313189
0.022456289
0.02351931
0.024527408
0.025504104
0.02647169
0.027451568
0.028464675
0.029531605
0.030671684
0.031903017
0.033244594
0.034717102
0.036344998
0.038160236
0.040208142
0.042552998
0.045287383
0.048544086
0.052511175
0.057400562
0.063345928
0.070244762
0.07734288
0.08366869
0.087359815
0.08787605
0.087094962
1.8427799e-11
5.7906502e-10
4.7351881e-09
2.0363935e-08
6.266351e-08
1.5811942e-07
3.5060435e-07
7.1049531e-07
1.3481351e-06
2.4335559e-06
4.2251999e-06
7.1115118e-06
1.1670858e-05
1.8757396e-05
2.9623444e-05
4.6092764e-05
7.0804128e-05
0.00010755041
0.00016174493
0.00024105173
0.00035621677
0.00052212243
0.00075904246
0.0010939622
0.0015615925
0.002204262
0.0030691666
0.0042006916
0.0056257085
0.0073332644
0.009258714
0.011289657
0.01330024
0.015192685
0.016916984
0.018464354
0.019850295
0.021100482
0.022242877
0.023304467
0.024310431
0.025284279
0.02624824
0.027223597
0.028231091
0.029291004
0.03042232
0.031642928
0.032971857
0.034430218
0.036043903
0.037848206
0.03989476
0.042258623
0.04505045
0.048430816
0.052629693
0.057921952
0.064488356
0.072277457
0.080493637
0.088396178
0.093713053
0.095514662
0.095608895
1.7760824e-11
5.5810637e-10
4.5638028e-09
1.9626879e-08
6.0395422e-08
1.523962e-07
3.3791365e-07
6.8477686e-07
1.2993338e-06
2.345461e-06
4.072246e-06
6.8540779e-06
1.1248408e-05
1.8078537e-05
2.8551611e-05
4.4425768e-05
6.8245165e-05
0.0001036674
0.00015591417
0.00023238134
0.00034344493
0.00050348753
0.00073212718
0.0010555269
0.0015074411
0.0021292342
0.0029674277
0.0040665638
0.0054552276
0.0071262011
0.0090199119
0.01102813
0.013026001
0.014913555
0.016637409
0.018186012
0.019573241
0.020824036
0.021966123
0.023026464
0.024030272
0.025001066
0.025961031
0.026931366
0.027932649
0.028984841
0.030106619
0.03131571
0.032631203
0.03407472
0.035673736
0.037467117
0.039512822
0.041896511
0.044744321
0.048237443
0.052632585
0.058231555
0.065201008
0.073468233
0.082173253
0.091231074
0.09819179
0.10149143
0.10216822
1.6955887e-11
5.3281251e-10
4.3569677e-09
1.8737369e-08
5.7658208e-08
1.4548925e-07
3.2259832e-07
6.5373993e-07
1.2404415e-06
2.2391519e-06
3.8876713e-06
6.543429e-06
1.073864e-05
1.725937e-05
2.7258256e-05
4.241423e-05
6.5157233e-05
9.8981496e-05
0.00014887724
0.00022191601
0.00032802609
0.00048098405
0.00069961071
0.001009065
0.0014419243
0.0020383468
0.0028439661
0.0039033995
0.0052471615
0.0068724567
0.0087259472
0.010704816
0.012685871
0.014566733
0.016289876
0.01784019
0.019229384
0.020481372
0.021623517
0.022682721
0.023684227
0.024651583
0.025606945
0.026571454
0.027565562
0.028608909
0.029719873
0.03091609
0.032216714
0.033643983
0.035227144
0.037008948
0.039054021
0.041459001
0.044360869
0.047951074
0.052489074
0.058252709
0.065292572
0.07349121
0.081838393
0.091192031
0.099023793
0.10331916
0.10390079
1.6025166e-11
5.0356607e-10
4.1178111e-09
1.770886e-08
5.4493274e-08
1.3750307e-07
3.0489004e-07
6.1785394e-07
1.1723489e-06
2.1162365e-06
3.6742666e-06
6.1842609e-06
1.0149256e-05
1.6312263e-05
2.5762883e-05
4.0088436e-05
6.1586713e-05
9.3562853e-05
0.00014073896
0.00020981058
0.00031018618
0.00045493724
0.00066195403
0.00095521717
0.0013659098
0.0019327341
0.0027001907
0.0037128186
0.0050031582
0.0065733897
0.0083775143
0.010319494
0.012278735
0.014150447
0.015872239
0.017424579
0.018816355
0.020070088
0.021212602
0.022270674
0.023269566
0.024232858
0.025182691
0.026140167
0.027125635
0.028158439
0.029256656
0.030437898
0.031721441
0.033130316
0.034695917
0.03646557
0.038512278
0.040944399
0.043902853
0.047576626
0.052187879
0.057889914
0.064393927
0.071368044
0.077472426
0.085518698
0.093393544
0.098156336
0.097793185
1.4984952e-11
4.7087891e-10
3.8505177e-09
1.6559348e-08
5.0956006e-08
1.285774e-07
2.850987e-07
5.7774687e-07
1.0962475e-06
1.978865e-06
3.4357649e-06
5.7828545e-06
9.4905579e-06
1.5253761e-05
2.409159e-05
3.748892e-05
5.7595714e-05
8.7505464e-05
0.00013163994
0.00019627306
0.00029022935
0.00042578631
0.00061978227
0.00089485767
0.001280593
0.0018139812
0.0025381143
0.0034972205
0.004725819
0.0062314338
0.0079763933
0.0098729013
0.011804203
0.013663409
0.015382655
0.016937052
0.018331903
0.019587857
0.020730963
0.021787766
0.022783511
0.023741805
0.02468478
0.025633499
0.026608221
0.027628038
0.028710729
0.029873961
0.031137278
0.032524843
0.03407092
0.035829025
0.037884807
0.040357275
0.043383116
0.047131342
0.05171161
0.05693845
0.061751295
0.065358172
0.066503911
0.070215871
0.076634216
0.081403533
0.079712799
1.3855344e-11
4.3538272e-10
3.5602545e-09
1.5311054e-08
4.7114776e-08
1.1888477e-07
2.6360683e-07
5.3419392e-07
1.013608e-06
1.8296923e-06
3.1767746e-06
5.346964e-06
8.7752662e-06
1.4104294e-05
2.2276611e-05
3.4665764e-05
5.3261002e-05
8.0925578e-05
0.00012175426
0.00018156126
0.00026853326
0.00039407798
0.00057387645
0.00082908455
0.0011874866
0.0016841168
0.0023603569
0.0032598112
0.0044187682
0.0058502322
0.007525652
0.009366969
0.011262841
0.013104995
0.014819691
0.016375727
0.017773915
0.01903243
0.020176214
0.021231421
0.022223212
0.023175194
0.024109484
0.025047092
0.026008163
0.027011613
0.028074932
0.029215946
0.030454743
0.031817216
0.033341671
0.035091788
0.037171317
0.039704901
0.0428149
0.046611323
0.050920125
0.054740126
0.055713493
0.052146645
0.044976686
0.040946462
0.043263413
0.047933559
0.045092293
1.2659732e-11
3.9781247e-10
3.2530312e-09
1.3989822e-08
4.3049109e-08
1.0862585e-07
2.4085938e-07
4.8809671e-07
9.2614126e-07
1.6718061e-06
2.9026557e-06
4.885609e-06
8.0181775e-06
1.288763e-05
2.0355452e-05
3.1677258e-05
4.8671966e-05
7.3958646e-05
0.00011128489
0.0001659762
0.00024553964
0.00036045334
0.00052515558
0.00075919615
0.001088392
0.0015455809
0.0021701178
0.0030045944
0.0040866894
0.0054347495
0.0070298539
0.008805109
0.010656468
0.01247549
0.014182502
0.015739064
0.017140463
0.018401644
0.019545988
0.020599028
0.021585721
0.022529619
0.023452793
0.024376176
0.025319745
0.026302264
0.027341022
0.028454116
0.029662608
0.030995005
0.03249565
0.034246618
0.036369696
0.03898712
0.04218113
0.045883097
0.049189471
0.049399109
0.044149683
0.030062242
0.016615102
0.012288696
0.012636523
0.013972088
0.012826975
1.1424032e-11
3.589825e-10
2.9355066e-09
1.262429e-08
3.8847126e-08
9.8022979e-08
2.1734934e-07
4.4045427e-07
8.357427e-07
1.5086277e-06
2.6193477e-06
4.4087841e-06
7.2356894e-06
1.1630112e-05
1.8369691e-05
2.8588039e-05
4.392777e-05
6.6755017e-05
0.00010045738
0.00014985272
0.00022174069
0.00032562844
0.00047464961
0.00068665468
0.00098535176
0.0014011681
0.0019711132
0.0027363189
0.003735311
0.0049913397
0.0064952495
0.0081925287
0.0099885294
0.01177644
0.013471087
0.015026032
0.016429902
0.017693469
0.018837957
0.019887932
0.020867969
0.021801461
0.022710374
0.023615493
0.024536581
0.025492158
0.026499443
0.027576938
0.028747267
0.030042563
0.031518368
0.033283489
0.035466737
0.038171348
0.041345457
0.044356658
0.044514616
0.039339638
0.023742752
0.0099309832
0.005013786
0.0034263767
0.0033360774
0.0036288987
0.0032644767
1.0175622e-11
3.1975314e-10
2.6147163e-09
1.1244715e-08
3.4601936e-08
8.7311103e-08
1.9359764e-07
3.9232219e-07
7.4441511e-07
1.3437721e-06
2.3331264e-06
3.9270511e-06
6.4451319e-06
1.0359586e-05
1.6363289e-05
2.5466467e-05
3.913334e-05
5.9473891e-05
8.9510728e-05
0.00013354621
0.00019765981
0.00029036672
0.00042346073
0.00061303284
0.00088057871
0.0012539366
0.0017674695
0.0024603687
0.003371323
0.0045277429
0.0059299173
0.0075365481
0.0092645483
0.011011116
0.01268669
0.0142364
0.015641049
0.016906114
0.018049871
0.019095447
0.020066758
0.020986865
0.021877517
0.022759234
0.023651459
0.024572307
0.025538955
0.026570452
0.027691624
0.028939955
0.030393537
0.032180503
0.034418606
0.037121356
0.039763882
0.040035634
0.035458235
0.020435964
0.0077204281
0.0030887413
0.0015197932
0.00099969571
0.0009095112
0.00094880156
0.00083176667
8.9422131e-12
2.8099514e-10
2.29778e-09
9.8817134e-09
3.0407747e-08
7.672793e-08
1.7013136e-07
3.4476855e-07
6.5418508e-07
1.1808973e-06
2.0503425e-06
3.4510979e-06
5.6640441e-06
9.1042369e-06
1.438075e-05
2.2381778e-05
3.4394995e-05
5.2276693e-05
7.8687548e-05
0.00011741787
0.00017382995
0.00025544765
0.00037271844
0.00053995077
0.000776369
0.0011070924
0.0015635755
0.0021825877
0.0030022017
0.0040529673
0.0053437952
0.0068468635
0.0084926146
0.010185112
0.011832352
0.013371174
0.014773496
0.016038225
0.017179687
0.018218916
0.019178765
0.020081709
0.020949072
0.021800918
0.02265616
0.023532219
0.024446021
0.025417148
0.026473158
0.027664937
0.029096416
0.030886581
0.033093472
0.0353333
0.035498798
0.031464805
0.017720267
0.0065700442
0.0024294438
0.00099949414
0.00051766527
0.0003537669
0.00030105455
0.00029054729
0.0002466666
7.7502323e-12
2.4353897e-10
1.9914892e-09
8.5644936e-09
2.6354437e-08
6.6500247e-08
1.4745332e-07
2.9881224e-07
5.6698579e-07
1.0234927e-06
1.7770541e-06
2.9911207e-06
4.9091576e-06
7.8909561e-06
1.2464545e-05
1.9400055e-05
2.9814262e-05
4.5317667e-05
6.8219867e-05
0.0001018136
0.00015076254
0.00022162127
0.00032351376
0.0004689817
0.00067496897
0.00096380464
0.0013638332
0.001908959
0.0026358229
0.0035768876
0.0047483764
0.0061355357
0.0076837341
0.0093070063
0.010913675
0.012433273
0.013828137
0.015089264
0.016225816
0.017255859
0.018200613
0.01908158
0.019919348
0.020733214
0.021541087
0.022359301
0.023203663
0.024093713
0.02506434
0.026192901
0.027573954
0.029266837
0.031027273
0.030904855
0.0271439
0.014609974
0.0055824781
0.0020543396
0.00080736634
0.00038107702
0.00023403562
0.00018132653
0.00015973919
0.00015062505
0.00013270653
6.6238417e-12
2.081439e-10
1.7020535e-09
7.3197622e-09
2.2524193e-08
5.6835431e-08
1.2602335e-07
2.5538515e-07
4.8458547e-07
8.7475051e-07
1.5188041e-06
2.5564503e-06
4.1957901e-06
6.744371e-06
1.0653589e-05
1.6581895e-05
2.5484323e-05
3.873856e-05
5.8321277e-05
8.7052563e-05
0.00012893086
0.00018958447
0.00027686602
0.00040160648
0.00057851436
0.0008271277
0.0011725633
0.0016455025
0.002280377
0.0031102272
0.0041568677
0.0054172757
0.0068524271
0.0083891774
0.0099397885
0.011428483
0.012807966
0.01406012
0.015187557
0.016204261
0.017129026
0.017981806
0.018781964
0.019547514
0.020294607
0.021037689
0.021789204
0.022568738
0.02343923
0.02447544
0.025688258
0.026862033
0.026432066
0.022507742
0.011270552
0.0045145408
0.0017249221
0.00068905128
0.00032555813
0.00019961612
0.00015327385
0.00013449962
0.00012352242
0.00011642352
0.00010930119
5.5833911e-12
1.7544939e-10
1.4347013e-09
6.1700022e-09
1.8986194e-08
4.7908045e-08
1.0622853e-07
2.1527167e-07
4.084726e-07
7.373578e-07
1.2802585e-06
2.1549422e-06
3.5368379e-06
5.6852202e-06
8.9806609e-06
1.3978364e-05
2.148375e-05
3.2659003e-05
4.9172276e-05
7.3404975e-05
0.00010873667
0.00015993108
0.00023364815
0.00033910216
0.00048886455
0.00069975505
0.00099364313
0.0013977464
0.0019436227
0.0026635676
0.0035829838
0.0047085936
0.0060164232
0.0074483618
0.0089244013
0.010366658
0.011719208
0.012954044
0.014065802
0.015063044
0.015961076
0.016777458
0.017529548
0.018233164
0.018901712
0.019545916
0.02017078
0.020810727
0.021556905
0.022375597
0.022950206
0.022057479
0.018012977
0.0084661833
0.0034667041
0.0013901141
0.00058492957
0.00028918591
0.00018399518
0.00014594367
0.00012937331
0.00012098873
0.00011349203
0.00010714086
0.00010289396
4.6441182e-12
1.459342e-10
1.1933469e-09
5.1320469e-09
1.5792237e-08
3.9848777e-08
8.8358603e-08
1.7905889e-07
3.3976097e-07
6.1332484e-07
1.0649074e-06
1.7924702e-06
2.9419419e-06
4.7290034e-06
7.470254e-06
1.1627608e-05
1.7871242e-05
2.7168389e-05
4.0907822e-05
6.1073092e-05
9.0481267e-05
0.00013310771
0.00019451978
0.00028244029
0.00040744813
0.0005837854
0.00083015334
0.0011702042
0.0016321303
0.0022463244
0.0030397823
0.0040265005
0.0051958316
0.0065053179
0.0078862992
0.0092628433
0.010572653
0.011777891
0.012864038
0.013832755
0.014694507
0.015463243
0.016153063
0.016775925
0.017341067
0.017851227
0.018305035
0.018776778
0.019280465
0.019377308
0.017977201
0.01324162
0.0060502963
0.0025737494
0.0010777438
0.00048453429
0.00025765846
0.00017335815
0.00014205094
0.00012934595
0.0001219579
0.00011675211
0.00011048444
0.00010460259
0.00010079337
3.8165712e-12
1.199298e-10
9.8070084e-10
4.2175536e-09
1.2978191e-08
3.2748127e-08
7.2614215e-08
1.471534e-07
2.7922204e-07
5.0404423e-07
8.7516893e-07
1.4731059e-06
2.4177877e-06
3.8864759e-06
6.1393807e-06
9.5561627e-06
1.4687703e-05
2.2329164e-05
3.3622507e-05
5.019933e-05
7.437812e-05
0.00010943345
0.00015995734
0.00023233284
0.00033533185
0.00048082398
0.00068452252
0.0009665674
0.0013515148
0.0018669531
0.0025396129
0.0033879733
0.0044119828
0.0055841613
0.0068495139
0.0081382311
0.0093850648
0.010543602
0.011589606
0.012516429
0.013328065
0.014033103
0.014640309
0.015155318
0.015578967
0.015896457
0.016134134
0.016314594
0.016082479
0.01429271
0.0090555569
0.0041950364
0.0018374118
0.00081373057
0.0003941012
0.00022892599
0.00016443976
0.0001393874
0.00012894103
0.00012328614
0.00011820466
0.00011321053
0.00010727315
0.00010261085
9.9342526e-05
3.1053752e-12
9.7581563e-11
7.9795277e-10
3.4316379e-09
1.05598e-08
2.6645824e-08
5.9083465e-08
1.1973374e-07
2.2719465e-07
4.1012785e-07
7.1210603e-07
1.1986399e-06
1.9673186e-06
3.1623796e-06
4.9955562e-06
7.7757811e-06
1.1951321e-05
1.8169258e-05
2.7358978e-05
4.0848601e-05
6.0525966e-05
8.9058811e-05
0.00013019144
0.00018913593
0.0002730716
0.00039174989
0.00055816034
0.00078912478
0.0011055187
0.0015315481
0.0020921832
0.0028077497
0.0036855136
0.0047106451
0.0058422738
0.0070200877
0.0081799491
0.0092693779
0.010254839
0.011120336
0.011861538
0.012479132
0.012972982
0.013339294
0.013560598
0.013608031
0.013518659
0.012964389
0.010887173
0.005894035
0.0028124665
0.0012814109
0.00060256238
0.00031896535
0.00020403123
0.00015707063
0.00013733415
0.00012874286
0.0001237587
0.00011879007
0.0001131301
0.00010876849
0.0001040979
0.00010034227
9.7657741e-05
2.5092064e-12
7.8847899e-11
6.4476236e-10
2.7728366e-09
8.5325609e-09
2.1530512e-08
4.7741184e-08
9.6748944e-08
1.8358216e-07
3.314015e-07
5.7541691e-07
9.6856591e-07
1.5897073e-06
2.5553935e-06
4.0367147e-06
6.2832965e-06
9.6573402e-06
1.4681675e-05
2.2107216e-05
3.3007052e-05
4.890661e-05
7.1961869e-05
0.00010519996
0.00015283762
0.00022069066
0.00031667663
0.00045138493
0.00063862637
0.0008957555
0.001243357
0.001703617
0.0022965086
0.0030332799
0.0039083365
0.0048933908
0.0059391666
0.0069862224
0.0079793093
0.0088771027
0.0096538281
0.010294798
0.01078917
0.011123632
0.011276416
0.011207767
0.010921413
0.010076269
0.0076464772
0.0039357491
0.0018523495
0.00088017588
0.00044535452
0.00026046391
0.00018374528
0.00015134745
0.00013624216
0.00012903543
0.00012429314
0.00011875372
0.00011358669
0.00010927748
0.00010624904
0.00010260259
9.9314634e-05
9.6879299e-05
2.0212102e-12
6.351338e-11
5.1936757e-10
2.2335715e-09
6.8731539e-09
1.7343346e-08
3.84569e-08
7.793462e-08
1.4788298e-07
2.6695982e-07
4.6352993e-07
7.8023929e-07
1.2806153e-06
2.0585491e-06
3.2518608e-06
5.0616235e-06
7.7795671e-06
1.1826752e-05
1.7807844e-05
2.6586783e-05
3.9391441e-05
5.7956866e-05
8.4718714e-05
0.00012306954
0.00017768923
0.0002549535
0.0003634045
0.00051422378
0.00072156289
0.0010024394
0.0013756974
0.0018593442
0.0024656808
0.0031945643
0.004027157
0.0049244909
0.0058337864
0.0067000874
0.0074764386
0.0081274425
0.008625905
0.0089450758
0.0090529064
0.0089186874
0.0084926194
0.0074852704
0.0049461559
0.0025059561
0.0012336325
0.00060916717
0.00033406768
0.00021737437
0.00016846882
0.00014679958
0.00013619657
0.00013000544
0.00012520421
0.00011934593
0.00011456623
0.00011102223
0.00010733832
0.00010412403
0.0001006037
9.7930086e-05
9.5869279e-05
1.6296727e-12
5.1209916e-11
4.1875853e-10
1.8008987e-09
5.5417491e-09
1.3983824e-08
3.1007767e-08
6.2839186e-08
1.1924023e-07
2.152561e-07
3.7375971e-07
6.2914032e-07
1.0326255e-06
1.659926e-06
2.6221704e-06
4.0814772e-06
6.2730289e-06
9.536206e-06
1.4358247e-05
2.1435053e-05
3.1755171e-05
4.6714559e-05
6.8271222e-05
9.9149683e-05
0.00014310404
0.00020524281
0.00029240393
0.00041353611
0.00057998042
0.00080543885
0.0011052586
0.0014944992
0.0019842549
0.0025762572
0.0032571982
0.0039958197
0.0047458292
0.0054543545
0.0060707965
0.0065505972
0.0068520993
0.0069312762
0.0067661343
0.0062611646
0.0051832392
0.0030392242
0.0015862185
0.00080400823
0.00043025642
0.00025950089
0.00018680529
0.00015732989
0.00014373344
0.000136652
0.00013159868
0.00012614258
0.0001202015
0.00011574459
0.00011218078
0.00010823304
0.00010453276
0.00010165222
9.8846089e-05
9.6690679e-05
9.5004936e-05
1.3186532e-12
4.1436617e-11
3.3883957e-10
1.4572048e-09
4.4841473e-09
1.1315186e-08
2.5090542e-08
5.0848117e-08
9.648788e-08
1.7418539e-07
3.0245131e-07
5.0911665e-07
8.3563953e-07
1.3432907e-06
2.1219986e-06
3.3029394e-06
5.0763742e-06
7.7167815e-06
1.1618054e-05
1.7342427e-05
2.5687874e-05
3.7779883e-05
5.5194532e-05
8.0120181e-05
0.00011556377
0.00016560275
0.00023567137
0.00033284486
0.00046603711
0.00064594738
0.00088447458
0.0011931932
0.0015804686
0.0020471374
0.0025816575
0.0031569563
0.0037314644
0.0042547968
0.0046741434
0.004937345
0.0049912292
0.0048155842
0.0043219053
0.0032417432
0.0018476226
0.00097692264
0.00052651756
0.0003074745
0.00020898934
0.00016610208
0.00014881655
0.00014175527
0.00013752747
0.00013343726
0.00012742522
0.00012126734
0.00011722337
0.00011324828
0.00010916396
0.00010562621
0.00010272715
0.00010030971
9.7911432e-05
9.6034382e-05
9.4496343e-05
1.0687868e-12
3.3584966e-11
2.7463452e-10
1.1810889e-09
3.6344931e-09
9.1712554e-09
2.0336744e-08
4.1214652e-08
7.8208852e-08
1.411894e-07
2.4516225e-07
4.1268935e-07
6.7737965e-07
1.0889018e-06
1.7201488e-06
2.6774308e-06
4.1148998e-06
6.2548452e-06
9.4160559e-06
1.4053125e-05
2.0810354e-05
3.0594706e-05
4.4672795e-05
6.4796754e-05
9.3362024e-05
0.000133595
0.00018975727
0.0002673313
0.00037311393
0.0005150819
0.00070180879
0.00094112875
0.0012377449
0.0015897437
0.0019846779
0.0023968508
0.0027878113
0.0031101584
0.0033117895
0.0033386035
0.0031681368
0.0027076386
0.0018470419
0.0010630474
0.00059472118
0.00034522171
0.0002258526
0.00017318392
0.00015108952
0.00014245044
0.00014005782
0.0001381956
0.0001354508
0.00012892044
0.00012272582
0.00011855322
0.00011437629
0.00011015907
0.00010694506
0.00010402895
0.00010128659
9.8815262e-05
9.6435185e-05
9.4872666e-05
9.3621146e-05
8.5917173e-13
2.6998141e-11
2.2077222e-10
9.4945155e-10
2.9217026e-09
7.3726561e-09
1.6348603e-08
3.3132628e-08
6.2873255e-08
1.1350589e-07
1.9709525e-07
3.3178085e-07
5.4458264e-07
8.7542786e-07
1.3829027e-06
2.152426e-06
3.3077979e-06
5.0274116e-06
7.566829e-06
1.1289913e-05
1.6711227e-05
2.4552826e-05
3.581868e-05
5.1889185e-05
7.4635833e-05
0.00010655048
0.00015087263
0.00021167833
0.00029386189
0.0004028943
0.00054418375
0.0007218289
0.00093659467
0.001183167
0.0014472916
0.0017041613
0.0019191793
0.0020507482
0.0020517671
0.0019081671
0.0015361172
0.0010060204
0.0005955156
0.0003554952
0.00022785319
0.00017080425
0.00014667574
0.00013890157
0.0001383336
0.00013922684
0.00013906758
0.00013716274
0.00013117592
0.00012420326
0.00011996083
0.00011544382
0.00011154085
0.00010824163
0.00010520142
0.00010207784
9.9431386e-05
9.7340464e-05
9.5358174e-05
9.4228197e-05
9.3201542e-05
6.7134208e-13
2.1095886e-11
1.7250771e-10
7.4188662e-10
2.2829793e-09
5.7609194e-09
1.2774701e-08
2.5889781e-08
4.9129292e-08
8.8693952e-08
1.5401068e-07
2.5925173e-07
4.2552425e-07
6.8401026e-07
1.080446e-06
1.6814755e-06
2.5836036e-06
3.9257153e-06
5.906413e-06
8.8077359e-06
1.3027096e-05
1.9119364e-05
2.7850676e-05
4.0264291e-05
5.7755778e-05
8.2148829e-05
0.00011575218
0.00016136044
0.00022213555
0.00030127365
0.00040133548
0.0005231248
0.00066408439
0.00081638188
0.00096540041
0.0010892816
0.0011600054
0.0011464408
0.0010335889
0.00078165437
0.00050979788
0.00032483731
0.00021116898
0.00015540092
0.00012987949
0.00012642685
0.0001293688
0.00013521989
0.00014073471
0.00014076741
0.00013907088
0.00013327496
0.00012550399
0.00012109493
0.00011681108
0.00011292543
0.00010962512
0.00010611792
0.00010311082
0.00010052354
9.8457281e-05
9.6467675e-05
9.4576089e-05
9.3560863e-05
9.2566153e-05
4.9527627e-13
1.5563288e-11
1.2726587e-10
5.473192e-10
1.6842427e-09
4.2500449e-09
9.4243299e-09
1.9099604e-08
3.6243485e-08
6.5429356e-08
1.1360892e-07
1.9123052e-07
3.1384924e-07
5.0443215e-07
7.9663936e-07
1.2394629e-06
1.9037342e-06
2.8911646e-06
4.3467543e-06
6.4755508e-06
9.5648028e-06
1.4012372e-05
2.0361589e-05
2.9341141e-05
4.1905301e-05
5.9264057e-05
8.2883182e-05
0.00011442058
0.00015554785
0.00020759085
0.00027091962
0.00034409387
0.00042280449
0.00049892826
0.00056003877
0.00058968852
0.00057218096
0.00049479267
0.00036738125
0.00025276736
0.00017181513
0.0001288628
0.00010702582
0.00010367851
0.00010948453
0.00012224047
0.00013750728
0.00014299155
0.00014293789
0.00014117496
0.00013524813
0.00012698679
0.00012278204
0.00011837403
0.00011455722
0.00011079379
0.00010728351
0.00010422898
0.00010182254
9.9338359e-05
9.7151277e-05
9.5194724e-05
9.3500188e-05
9.2736085e-05
9.1997886e-05
3.3358155e-13
1.0482278e-11
8.5716693e-11
3.6863131e-10
1.1343649e-09
2.8624364e-09
6.3472213e-09
1.2863035e-08
2.4407764e-08
4.4059553e-08
7.6495533e-08
1.2874166e-07
2.1125013e-07
3.3943762e-07
5.3586633e-07
8.3331124e-07
1.2790312e-06
1.9406426e-06
2.9140654e-06
4.3340392e-06
6.3876135e-06
9.3306816e-06
1.3506818e-05
1.9366067e-05
2.7478432e-05
3.8532154e-05
5.3300072e-05
7.2548969e-05
9.6859296e-05
0.00012632765
0.00016014769
0.00019606988
0.00022996182
0.00025558292
0.00026495484
0.00025129913
0.00021149789
0.00016191146
0.00012030499
9.4273542e-05
7.9292341e-05
7.8125669e-05
8.3589645e-05
9.7203687e-05
0.00012352355
0.00014111101
0.00014544556
0.00014528987
0.00014345121
0.00013729241
0.00012878683
0.00012423283
0.00011986814
0.00011578692
0.00011206888
0.00010846411
0.00010564803
0.00010284595
0.00010030719
9.7899373e-05
9.6064431e-05
9.4353233e-05
9.2956102e-05
9.2311993e-05
9.1594977e-05
1.98401e-13
6.2344351e-12
5.0980608e-11
2.1924392e-10
6.7465274e-10
1.7023572e-09
3.7746693e-09
7.6490896e-09
1.4512846e-08
2.6194237e-08
4.5469469e-08
7.6505138e-08
1.2549194e-07
2.0154547e-07
3.1797571e-07
4.9405764e-07
7.5746893e-07
1.1475897e-06
1.719868e-06
2.5514128e-06
3.747825e-06
5.4509225e-06
7.8463099e-06
1.1168482e-05
1.5699115e-05
2.1751266e-05
2.962859e-05
3.9546293e-05
5.1501279e-05
6.5087209e-05
7.928078e-05
9.2250476e-05
0.00010129415
0.00010289411
9.622482e-05
8.2700335e-05
6.915966e-05
5.9026719e-05
5.2034836e-05
5.3522733e-05
5.8376762e-05
7.0459744e-05
9.4652544e-05
0.00012800583
0.00014323822
0.00014798301
0.00014771026
0.00014583928
0.00013962225
0.00013067015
0.00012595959
0.000121251
0.00011743334
0.00011354075
0.00011011047
0.00010692995
0.0001039896
0.00010117243
9.9015977e-05
9.6967389e-05
9.5268029e-05
9.3563704e-05
9.2180704e-05
9.1551196e-05
9.094221e-05
1.0130553e-13
3.1833603e-12
2.603099e-11
1.1194529e-10
3.4446509e-10
8.6914849e-10
1.9270337e-09
3.9045597e-09
7.4070714e-09
1.3366092e-08
2.3194652e-08
3.901049e-08
6.3954146e-08
1.0263816e-07
1.6177443e-07
2.5103861e-07
3.8424003e-07
5.8086815e-07
8.6806895e-07
1.2830478e-06
1.8757626e-06
2.7115092e-06
3.8725359e-06
5.4570752e-06
7.5731183e-06
1.0323102e-05
1.3774472e-05
1.7912258e-05
2.2573884e-05
2.7375518e-05
3.1656824e-05
3.4476561e-05
3.5012718e-05
3.3913139e-05
3.2020657e-05
2.996379e-05
2.9960248e-05
3.3007583e-05
3.7544986e-05
4.7923071e-05
6.610679e-05
9.7506477e-05
0.00012864715
0.00014420404
0.0001501137
0.00015013639
0.00014829155
0.00014211377
0.00013281616
0.00012776238
0.00012288212
0.00011889469
0.00011517716
0.00011142268
0.00010822214
0.0001049871
0.00010242245
0.00010006179
9.8050569e-05
9.5909543e-05
9.421947e-05
9.2644146e-05
9.1544011e-05
9.112333e-05
9.0584609e-05
4.377955e-14
1.3756977e-12
1.1249245e-11
4.8375744e-11
1.4884952e-10
3.7554725e-10
8.3255357e-10
1.6866527e-09
3.1989124e-09
5.7706537e-09
1.0009774e-08
1.6825576e-08
2.7563024e-08
4.4190618e-08
6.9559592e-08
1.0775504e-07
1.645601e-07
2.4804895e-07
3.6930694e-07
5.4323586e-07
7.8932377e-07
1.1321204e-06
1.6009416e-06
2.2280296e-06
3.044025e-06
4.0695544e-06
5.3019554e-06
6.6979333e-06
8.1567825e-06
9.5139563e-06
1.0581955e-05
1.1392854e-05
1.2226594e-05
1.3370948e-05
1.5145087e-05
1.7555707e-05
2.2641348e-05
3.1102491e-05
4.5754318e-05
6.7859489e-05
9.8591279e-05
0.0001274938
0.00014363681
0.00015171004
0.0001524922
0.00015075948
0.00014490257
0.00013509221
0.00012982013
0.00012457031
0.00012051514
0.000116616
0.00011308104
0.00010956719
0.00010652057
0.00010369605
0.00010128859
9.8810037e-05
9.6814998e-05
9.4963937e-05
9.3576021e-05
9.2141587e-05
9.1109989e-05
9.0603061e-05
9.0017763e-05
1.663797e-14
5.2281854e-13
4.2750992e-12
1.8383928e-11
5.6563476e-11
1.4269809e-10
3.1631019e-10
6.4069468e-10
1.2148489e-09
2.1907886e-09
3.7984389e-09
6.3810494e-09
1.0445005e-08
1.6728926e-08
2.6297904e-08
4.0669163e-08
6.1974646e-08
9.3162505e-08
1.3823093e-07
2.0247078e-07
2.9266397e-07
4.1713999e-07
5.8553423e-07
8.0805011e-07
1.0940442e-06
1.4499956e-06
1.8775745e-06
2.3739521e-06
2.9401395e-06
3.6003007e-06
4.4196577e-06
5.4794419e-06
7.002274e-06
9.5496893e-06
1.3508105e-05
2.0120438e-05
3.0932797e-05
4.704327e-05
6.8807469e-05
9.6104298e-05
0.00012332214
0.00014281623
0.00015331542
0.00015480152
0.0001532418
0.00014788168
0.00013764802
0.00013199639
0.00012649548
0.00012214499
0.00011820219
0.0001146056
0.00011123983
0.00010782379
0.00010504842
0.00010221501
9.9871215e-05
9.7742873e-05
9.6090318e-05
9.4268019e-05
9.2781013e-05
9.1331796e-05
9.0440014e-05
9.0056624e-05
8.9566721e-05
7.0975252e-15
2.2302701e-13
1.8236939e-12
7.8422857e-12
2.4128972e-11
6.0872272e-11
1.3493178e-10
2.7330921e-10
5.1824125e-10
9.3459746e-10
1.6205284e-09
2.722649e-09
4.4574721e-09
7.1413147e-09
1.123147e-08
1.7381968e-08
2.6517619e-08
3.9929954e-08
5.939795e-08
8.7334898e-08
1.2696123e-07
1.8250473e-07
2.5944316e-07
3.6484954e-07
5.0801472e-07
7.0177643e-07
9.6546322e-07
1.3311671e-06
1.8552293e-06
2.6248484e-06
3.7882434e-06
5.6007969e-06
8.5483192e-06
1.3262282e-05
2.0711244e-05
3.1749222e-05
4.712566e-05
6.749907e-05
9.2974804e-05
0.00012035661
0.00014386127
0.00015522624
0.0001571659
0.0001557748
0.00015103027
0.00014041173
0.00013445069
0.00012851444
0.00012400243
0.00011979072
0.00011623914
0.00011276024
0.00010946376
0.00010630241
0.00010363189
0.00010103286
9.9006257e-05
9.6875457e-05
9.5093136e-05
9.3344397e-05
9.2104076e-05
9.0874583e-05
9.0117425e-05
8.9693627e-05
8.9069851e-05