/*--------------------------------*- C++ -*----------------------------------*\
  =========                 |
  \\      /  F ield         | OpenFOAM: The Open Source CFD Toolbox
   \\    /   O peration     | Website:  https://openfoam.org
    \\  /    A nd           | Version:  13
     \\/     M anipulation  |
\*---------------------------------------------------------------------------*/
FoamFile
{
    format      ascii;
    class       volScalarField;
    location    "42.798386";
    object      nut;
}
// * * * * * * * * * * * * * * * * * * * * * * * * * * * * * * * * * * * * * //

dimensions      [0 2 -1 0 0 0 0];

internalField   nonuniform List<scalar> 
17140
(
1.8083615e-18
3.5170238e-16
9.3677122e-15
9.4968831e-14
5.7433736e-13
2.5445897e-12
9.1883741e-12
2.87526e-11
8.1006439e-11
2.1073185e-10
5.1511748e-10
1.198157e-09
2.6767436e-09
5.7845449e-09
1.215895e-08
2.4967803e-08
5.0262045e-08
9.9473602e-08
1.9399627e-07
3.7353422e-07
7.1122912e-07
1.3409188e-06
2.5059828e-06
4.6463419e-06
8.5522915e-06
1.5633866e-05
2.838561e-05
5.1169199e-05
9.14757e-05
0.00016180307
0.00028203153
0.00048143142
0.00079817785
0.0012736068
0.0019406405
0.0028109166
0.0038677767
0.0050683385
0.006352096
0.0076516782
0.0089029486
0.010053303
0.011054996
0.011881669
0.012593051
0.013189806
0.013685111
0.014114623
0.014510755
0.014898301
0.015292943
0.015702994
0.016137749
0.016612375
0.017122759
0.017627766
0.018070623
0.018162299
0.017354871
0.014959436
0.010721853
0.0075924576
0.010102326
0.017057963
0.017302314
1.8210368e-18
3.5416729e-16
9.4333754e-15
9.5634798e-14
5.7836758e-13
2.5624598e-12
9.252963e-12
2.8954931e-11
8.1577154e-11
2.1221844e-10
5.1875648e-10
1.2066342e-09
2.6957133e-09
5.8256116e-09
1.2245433e-08
2.514575e-08
5.0621032e-08
1.0018569e-07
1.9538836e-07
3.7622159e-07
7.1636041e-07
1.3506232e-06
2.5241837e-06
4.6802318e-06
8.6149994e-06
1.5749266e-05
2.8596928e-05
5.1554169e-05
9.2172256e-05
0.00016305019
0.00028422419
0.00048516941
0.00080425173
0.0012828216
0.0019534877
0.0028272143
0.003886433
0.0050873593
0.0063688045
0.0076630362
0.0089059036
0.010045051
0.011032245
0.011842197
0.012538078
0.013116365
0.013591814
0.013999823
0.014372265
0.014733339
0.015098348
0.01547643
0.015881782
0.016341662
0.016872481
0.017482746
0.018173127
0.018858581
0.018888201
0.017647321
0.014582259
0.011851331
0.013835335
0.018014316
0.014036781
1.8213208e-18
3.5422245e-16
9.4348438e-15
9.5649722e-14
5.7845832e-13
2.5628656e-12
9.2544476e-12
2.8959653e-11
8.1590721e-11
2.1225453e-10
5.1884687e-10
1.2068501e-09
2.6962091e-09
5.8267138e-09
1.2247816e-08
2.5150772e-08
5.0631376e-08
1.0020653e-07
1.9542944e-07
3.7630075e-07
7.1650944e-07
1.350897e-06
2.5246746e-06
4.6810924e-06
8.6164859e-06
1.5751836e-05
2.8601497e-05
5.1562805e-05
9.2189902e-05
0.00016308851
0.00028430797
0.00048534102
0.00080455639
0.0012832494
0.0019538313
0.0028268695
0.0038842427
0.0050815716
0.006357146
0.0076428829
0.0088744748
0.0099995925
0.010969349
0.011760926
0.012437305
0.012992184
0.013441763
0.013820688
0.014159786
0.014482
0.014801429
0.015127402
0.015479963
0.015899807
0.016423439
0.017101209
0.018007815
0.019163632
0.020173323
0.020063325
0.018344768
0.015873806
0.01675962
0.018329718
0.012521938
1.8077384e-18
3.5158082e-16
9.3644816e-15
9.4936414e-14
5.7414486e-13
2.5437574e-12
9.1854612e-12
2.8743827e-11
8.0982817e-11
2.1067355e-10
5.149834e-10
1.197866e-09
2.6761426e-09
5.7833545e-09
1.2156674e-08
2.496357e-08
5.0254313e-08
9.9459534e-08
1.9397031e-07
3.7348465e-07
7.1112978e-07
1.3407099e-06
2.505529e-06
4.6453503e-06
8.5501727e-06
1.5629569e-05
2.8377634e-05
5.1156503e-05
9.1461221e-05
0.0001618036
0.00028209631
0.00048165878
0.00079868075
0.0012743179
0.0019408921
0.0028088754
0.003859968
0.0050495043
0.0063154329
0.0075893442
0.0088066669
0.0099148587
0.01086435
0.0116351
0.012287914
0.012813947
0.013230979
0.013572345
0.013867225
0.014136528
0.014392202
0.014643322
0.01491762
0.01526786
0.015742183
0.016421097
0.017481263
0.019010682
0.020872932
0.022017683
0.021747373
0.01954825
0.019029435
0.018352652
0.012949999
1.7795973e-18
3.4610775e-16
9.2187044e-15
9.3458562e-14
5.6520762e-13
2.5041628e-12
9.0424941e-12
2.8296474e-11
7.9722536e-11
2.073952e-10
5.0696993e-10
1.1792266e-09
2.6344981e-09
5.6933441e-09
1.1967417e-08
2.457475e-08
4.9470999e-08
9.790757e-08
1.9093891e-07
3.6763529e-07
6.9996044e-07
1.3195733e-06
2.465842e-06
4.5713427e-06
8.4130266e-06
1.5376958e-05
2.7915358e-05
5.031712e-05
8.9953026e-05
0.00015913461
0.00027747859
0.00047392622
0.00078629037
0.0012554998
0.0019139089
0.0027722221
0.0038123674
0.0049897277
0.0062420847
0.007500705
0.0087006083
0.0097887962
0.010714964
0.011462373
0.012086896
0.012578106
0.012955234
0.01324969
0.013488359
0.013689313
0.013861443
0.014014125
0.014185857
0.014434829
0.014809791
0.01541927
0.016472722
0.018252562
0.020715642
0.023191054
0.024245978
0.022951978
0.021262873
0.019037901
0.014769726
1.7366116e-18
3.3774762e-16
8.99603e-15
9.1201118e-14
5.5155549e-13
2.4436779e-12
8.824089e-12
2.7613038e-11
7.7797045e-11
2.0238609e-10
4.9472501e-10
1.1507425e-09
2.5708534e-09
5.5557721e-09
1.1678138e-08
2.3980406e-08
4.8273614e-08
9.5535255e-08
1.8630548e-07
3.5869592e-07
6.8289459e-07
1.2872888e-06
2.4052485e-06
4.4584056e-06
8.203851e-06
1.4991863e-05
2.7210857e-05
4.9037874e-05
8.7653188e-05
0.00015505952
0.00027041382
0.00046206557
0.00076723876
0.0012265322
0.0018724474
0.0027162578
0.0037405499
0.0049011158
0.0061357623
0.0073754404
0.008554608
0.009619498
0.010518517
0.011239918
0.011831112
0.012281105
0.012610373
0.012847832
0.01301747
0.013133814
0.013202253
0.013235535
0.013285487
0.013400885
0.01362031
0.014070299
0.015001199
0.016751101
0.019471549
0.023016578
0.025467006
0.025397738
0.023654696
0.020922408
0.016042878
1.6789142e-18
3.2652629e-16
8.6971474e-15
8.8171066e-14
5.3323071e-13
2.3624899e-12
8.5309215e-12
2.6695633e-11
7.5212308e-11
1.9566177e-10
4.7828662e-10
1.1125023e-09
2.485407e-09
5.3710691e-09
1.1289746e-08
2.3182427e-08
4.6665999e-08
9.2350315e-08
1.800854e-07
3.4669699e-07
6.5999221e-07
1.2439743e-06
2.3239799e-06
4.3069926e-06
7.9235331e-06
1.4476011e-05
2.6267457e-05
4.7325055e-05
8.4573188e-05
0.00014959801
0.00026093223
0.00044611436
0.00074155251
0.0011873883
0.0018163621
0.0026406501
0.0036439492
0.0047828526
0.0059954114
0.0072122869
0.0083672553
0.009405656
0.010274679
0.010963642
0.011517275
0.011919506
0.012192508
0.012362398
0.012449835
0.012465416
0.012411949
0.012313026
0.012229085
0.012179402
0.012188746
0.012391464
0.013047177
0.014600816
0.017282785
0.021184631
0.024842041
0.026050273
0.024977704
0.022531203
0.016011721
1.607101e-18
3.1255963e-16
8.3251418e-15
8.4399692e-14
5.1042253e-13
2.2614374e-12
8.1660193e-12
2.5553734e-11
7.1995021e-11
1.8729169e-10
4.5782463e-10
1.0649013e-09
2.379043e-09
5.1411486e-09
1.0806273e-08
2.218911e-08
4.4664928e-08
8.8386118e-08
1.7234421e-07
3.3176586e-07
6.3149878e-07
1.1900995e-06
2.2229309e-06
4.1188e-06
7.5752757e-06
1.3835422e-05
2.5096403e-05
4.5199437e-05
8.0750703e-05
0.00014281627
0.00024914396
0.00042624083
0.00070945724
0.0011383172
0.0017458527
0.002545456
0.0035224
0.0046345071
0.0058203263
0.0070102723
0.0081372958
0.0091453336
0.009980269
0.010633035
0.011142448
0.011490177
0.011698241
0.011789872
0.011782282
0.011682445
0.01149505
0.011264837
0.011039838
0.010798635
0.01055843
0.01045184
0.010716227
0.011810371
0.01400699
0.017842269
0.022141877
0.024405571
0.024162792
0.021771816
0.013682535
1.5222553e-18
2.9605823e-16
7.885619e-15
7.9943831e-14
4.8347478e-13
2.1420438e-12
7.7348833e-12
2.4204554e-11
6.8193689e-11
1.7740208e-10
4.3364768e-10
1.0086578e-09
2.2533671e-09
4.8694841e-09
1.023503e-08
2.1015502e-08
4.2300774e-08
8.370301e-08
1.6320019e-07
3.1413184e-07
5.9785465e-07
1.1265039e-06
2.1036913e-06
3.8968236e-06
7.164699e-06
1.308059e-05
2.3717174e-05
4.2696854e-05
7.6250681e-05
0.00013482905
0.00023524339
0.00040275302
0.00067139585
0.0010798778
0.0016615166
0.0024311926
0.0033762217
0.0044561212
0.0056102357
0.0067688144
0.0078639071
0.0088368904
0.0096335431
0.010246277
0.010704297
0.010990469
0.011124889
0.011127954
0.011013754
0.010787568
0.010467608
0.010119875
0.0097486489
0.0093043125
0.0088089635
0.0083844963
0.0082106492
0.0085914935
0.0098599405
0.012887046
0.017235807
0.020104446
0.020273368
0.018044349
0.0091128509
1.4259438e-18
2.7732692e-16
7.3867029e-15
7.4885838e-14
4.5288547e-13
2.0065154e-12
7.2454819e-12
2.2673033e-11
6.3878584e-11
1.6617577e-10
4.0620289e-10
9.4481233e-10
2.1107054e-09
4.5611068e-09
9.5866055e-09
1.9683382e-08
3.9617483e-08
7.8388232e-08
1.528242e-07
2.9412562e-07
5.5969386e-07
1.0543933e-06
1.9685395e-06
3.6453442e-06
6.6998066e-06
1.2226407e-05
2.2157323e-05
3.9867882e-05
7.1164767e-05
0.00012579886
0.00021950855
0.0003761003
0.00062803688
0.0010129608
0.0015643936
0.0022989061
0.0032063074
0.0042483074
0.0053653938
0.0064877516
0.0075463801
0.0084796147
0.0092333559
0.0098012692
0.01020107
0.010418345
0.010470709
0.010375911
0.010145872
0.009790548
0.0093593352
0.0089099321
0.0083927278
0.0077611871
0.0070522808
0.0063561079
0.0057352514
0.0052801048
0.0054787013
0.0071191696
0.010538032
0.013275064
0.013647115
0.010037064
0.0048287812
1.32019e-18
2.5675922e-16
6.8388744e-15
6.9331965e-14
4.1929712e-13
1.8576994e-12
6.7080969e-12
2.0991348e-11
5.9140376e-11
1.5384869e-10
3.7606709e-10
8.747071e-10
1.9540583e-09
4.222506e-09
8.874655e-09
1.8220832e-08
3.6671691e-08
7.2554163e-08
1.4143613e-07
2.7217249e-07
5.1783075e-07
9.7531422e-07
1.8203916e-06
3.3698284e-06
6.1907933e-06
1.1291793e-05
2.0451771e-05
3.6776503e-05
6.5608881e-05
0.00011593185
0.00020229478
0.00034686578
0.00058026988
0.00093879691
0.0014559971
0.0021502355
0.0030142166
0.0040123651
0.0050867148
0.0061675389
0.0071846769
0.0080731646
0.0087788931
0.0092965087
0.0096313129
0.0097724346
0.0097350786
0.0095349114
0.0091837983
0.0087135629
0.0082054903
0.0076633294
0.007015119
0.0062450956
0.0053936948
0.0044725171
0.0035591395
0.0025982809
0.0018163021
0.0021888376
0.0032739125
0.004688498
0.0050617382
0.00380089
0.0028602945
1.2074096e-18
2.3482493e-16
6.2546448e-15
6.3409059e-14
3.8347691e-13
1.6989947e-12
6.1350021e-12
1.9197913e-11
5.4087307e-11
1.4070248e-10
3.4392895e-10
7.9994453e-10
1.7870074e-09
3.8614267e-09
8.1154723e-09
1.6661349e-08
3.353094e-08
6.6334745e-08
1.2929791e-07
2.4877854e-07
4.7323337e-07
8.9110224e-07
1.6627033e-06
3.0767411e-06
5.6496884e-06
1.0299017e-05
1.8641524e-05
3.3497727e-05
5.9718875e-05
0.00010547014
0.00018402241
0.00031574855
0.00052918521
0.00085894358
0.001338325
0.0019874598
0.0028022649
0.0037504021
0.0047759145
0.0058093838
0.0067794422
0.0076177366
0.0082698551
0.0087309799
0.008993967
0.0090520535
0.0089186437
0.0086084304
0.0081393456
0.0075924048
0.0070323604
0.0064043655
0.005659619
0.0048139696
0.0038476171
0.0028604221
0.0017769356
0.00083140533
0.00061603585
0.00082051343
0.0013090538
0.0018573101
0.0024406719
0.0025655254
0.0019324281
1.0903128e-18
2.1205118e-16
5.6480569e-15
5.7259489e-14
3.462859e-13
1.5342163e-12
5.539975e-12
1.7335843e-11
4.8840868e-11
1.2705326e-10
3.1056138e-10
7.2232301e-10
1.6135722e-09
3.4865601e-09
7.3273394e-09
1.504251e-08
3.0270967e-08
5.9880112e-08
1.1670293e-07
2.2451027e-07
4.2698406e-07
8.0380703e-07
1.4993266e-06
2.7732742e-06
5.0898428e-06
9.2727355e-06
1.6771875e-05
3.0114236e-05
5.3644396e-05
9.4680978e-05
0.00016515819
0.00028353503
0.00047603612
0.00077524691
0.00121384
0.0018135198
0.0025735977
0.0034654564
0.0044356584
0.0054153891
0.0063320946
0.0071141831
0.0077065929
0.0081040781
0.0082883405
0.0082571544
0.0080233808
0.0076029754
0.0070390003
0.0064597924
0.0058526652
0.0051541664
0.004355843
0.0034504565
0.0024668174
0.0015379214
0.0006049134
0.00031671768
0.00030836246
0.0004933948
0.00080099231
0.0010572062
0.0013133913
0.0014813973
0.0011464387
9.7178243e-19
1.8899858e-16
5.0340408e-15
5.1034604e-14
3.0863936e-13
1.3674198e-12
4.9376604e-12
1.5450971e-11
4.3530204e-11
1.1323703e-10
2.7678589e-10
6.4375383e-10
1.438024e-09
3.1071406e-09
6.5296769e-09
1.3404221e-08
2.6972175e-08
5.3349564e-08
1.0396232e-07
1.9996778e-07
3.8022813e-07
7.1559441e-07
1.3343244e-06
2.4669974e-06
4.5252744e-06
8.2387639e-06
1.4890118e-05
2.6712171e-05
4.7541182e-05
8.3842857e-05
0.00014619146
0.00025106031
0.00042218249
0.00068977335
0.0010854089
0.0016319958
0.0023322301
0.0031616014
0.0040697144
0.0049887146
0.0058449334
0.0065640463
0.0070903158
0.0074155154
0.0075140267
0.0073882306
0.0070525692
0.0065297101
0.0059210796
0.0053273724
0.0046721978
0.0039274346
0.0030853772
0.0021437113
0.0013961555
0.0005332236
0.00023045463
0.00018354176
0.00021161127
0.00031167747
0.00044241683
0.00055981931
0.00067772665
0.00075345756
0.00072294752
8.5471873e-19
1.6623122e-16
4.4276224e-15
4.4886744e-14
2.7145867e-13
1.2026874e-12
4.3428005e-12
1.3589434e-11
3.8285313e-11
9.959203e-11
2.4342943e-10
5.6616097e-10
1.2646621e-09
2.732462e-09
5.7420274e-09
1.178663e-08
2.3715426e-08
4.6903238e-08
9.1388614e-08
1.7575342e-07
3.3411389e-07
6.2863262e-07
1.171757e-06
2.1654588e-06
3.969925e-06
7.2227073e-06
1.3043025e-05
2.3376511e-05
4.1562666e-05
7.323044e-05
0.00012760732
0.00021916223
0.00036901831
0.00060470991
0.00095619254
0.0014470222
0.0020830265
0.0028440104
0.0036830947
0.0045337695
0.0053212874
0.0059692608
0.0064236349
0.0066651539
0.0066709614
0.0064464954
0.0060112385
0.0054102314
0.004807628
0.004192038
0.0034973165
0.0027153302
0.0018404357
0.0012096695
0.00047460283
0.00019418167
0.00013412197
0.00014026334
0.00017682183
0.00024598395
0.00032394973
0.00039150678
0.00048179543
0.00055587251
0.00061062444
7.4188148e-19
1.4428591e-16
3.8431014e-15
3.8960895e-14
2.3562073e-13
1.0439045e-12
3.7694261e-12
1.1795141e-11
3.3229914e-11
8.6440148e-11
2.1127894e-10
4.9137505e-10
1.097577e-09
2.3713653e-09
4.9829775e-09
1.0227909e-08
2.0577572e-08
4.0693245e-08
7.9278474e-08
1.5243841e-07
2.8972882e-07
5.4497172e-07
1.0154553e-06
1.8757611e-06
3.4368731e-06
6.2484971e-06
1.1274142e-05
2.0186079e-05
3.5850806e-05
6.3097932e-05
0.00010985719
0.00018863002
0.00031788537
0.00052223314
0.00082947763
0.0012631187
0.0018315838
0.0025189332
0.0032821468
0.0040564747
0.0047661371
0.0053342405
0.0057067008
0.0058543269
0.0057602285
0.0054352783
0.0049091767
0.004283206
0.0036990518
0.0030567762
0.002332365
0.0015356763
0.00097807654
0.00039860019
0.00016437227
0.00010438121
0.00010839954
0.00013807414
0.00018793707
0.00025014056
0.00031324608
0.00037292545
0.0004549329
0.00052279737
0.00063097641
6.357116e-19
1.2363735e-16
3.2931206e-15
3.3385211e-14
2.0190051e-13
8.9450454e-13
3.2299359e-12
1.0106891e-11
2.8473327e-11
7.4065768e-11
1.8102955e-10
4.2101288e-10
9.4038037e-10
2.0316541e-09
4.2689257e-09
8.7617168e-09
1.762633e-08
3.485348e-08
6.7892697e-08
1.3052405e-07
2.4802533e-07
4.6640224e-07
8.6875381e-07
1.6040612e-06
2.9373973e-06
5.3366473e-06
9.6205397e-06
1.7207487e-05
3.0524712e-05
5.3657518e-05
9.3318141e-05
0.00016013222
0.00026995696
0.0004443365
0.00070844154
0.0010849145
0.0015839713
0.0021935054
0.0028744237
0.0035640189
0.0041859181
0.0046640329
0.0049410886
0.00498596
0.0047863183
0.0043644926
0.0037734972
0.0031851698
0.0026025319
0.0019426559
0.0012377459
0.00073991185
0.00031043903
0.00013278487
8.1678944e-05
8.7658014e-05
0.0001150541
0.00016335503
0.00022020354
0.00027959217
0.00033967205
0.00040183244
0.00048954061
0.00057910245
0.00069610884
5.3821428e-19
1.0467544e-16
2.7880631e-15
2.8264959e-14
1.7093468e-13
7.5730852e-13
2.734517e-12
8.5565667e-12
2.4105382e-11
6.2702611e-11
1.5325266e-10
3.5640369e-10
7.9604184e-10
1.7197459e-09
3.6133588e-09
7.4157378e-09
1.4917395e-08
2.9494057e-08
5.7445712e-08
1.1042234e-07
2.0978561e-07
3.9439319e-07
7.3438439e-07
1.3553938e-06
2.4807004e-06
4.5038547e-06
8.1123186e-06
1.4494733e-05
2.5680993e-05
4.5082056e-05
7.8300124e-05
0.00013422477
0.00022622213
0.00037273786
0.00059594817
0.00091682999
0.0013463412
0.0018753759
0.0024684354
0.0030649748
0.0035888482
0.003963645
0.0041314707
0.0040680894
0.0037621592
0.0032623045
0.0026814041
0.0021458502
0.0015590175
0.00096004214
0.00052463328
0.00022846006
0.00010186961
6.2365182e-05
7.0333586e-05
9.6533762e-05
0.0001427433
0.0001995841
0.00026032358
0.00032778135
0.00040032403
0.00047679167
0.00056823178
0.00064202949
0.00073339654
4.5084036e-19
8.7682342e-17
2.3354444e-15
2.367634e-14
1.4318406e-13
6.343581e-13
2.290542e-12
7.1672386e-12
2.0191082e-11
5.2519776e-11
1.283616e-10
2.9850869e-10
6.6670824e-10
1.4402778e-09
3.0260164e-09
6.2099492e-09
1.2490914e-08
2.4694244e-08
4.8091593e-08
9.2428587e-08
1.755685e-07
3.2998974e-07
6.1428006e-07
1.1332961e-06
2.0731888e-06
3.7616095e-06
6.7699014e-06
1.2083842e-05
2.1382899e-05
3.7482706e-05
6.500064e-05
0.00011126727
0.00018735304
0.00030870208
0.00049427092
0.0007626391
0.0011243367
0.0015720264
0.0020729532
0.0025684761
0.0029829021
0.0032401846
0.0032921715
0.0031153411
0.0027232555
0.0022031353
0.0017077932
0.0012106361
0.00071583509
0.00035076367
0.00015936949
7.4578164e-05
4.6417566e-05
5.5756357e-05
8.0646776e-05
0.00012424537
0.00017878163
0.0002408399
0.00027347725
0.00031882021
0.00042702584
0.00053731105
0.00061151002
0.00067572845
0.00078030065
3.7439549e-19
7.2814838e-17
1.9394431e-15
1.9661709e-14
1.1890484e-13
5.2678851e-13
1.9021105e-12
5.9517362e-12
1.6766573e-11
4.3611292e-11
1.0658616e-10
2.4786224e-10
5.5357264e-10
1.1958254e-09
2.5123045e-09
5.1554267e-09
1.0369111e-08
2.049782e-08
3.9915171e-08
7.6704695e-08
1.4567858e-07
2.7375696e-07
5.094748e-07
9.3963357e-07
1.7181795e-06
3.1157216e-06
5.6033148e-06
9.991899e-06
1.7659359e-05
3.0908813e-05
5.350637e-05
9.1420035e-05
0.00015366777
0.00025289329
0.00040478264
0.00062495677
0.00092231883
0.0012897295
0.0016957724
0.0020830705
0.0023772932
0.0025069591
0.0024443445
0.0021689197
0.0017454476
0.0013101476
0.0009024755
0.00051053507
0.00022633442
0.00010639404
5.2608681e-05
3.4122255e-05
4.3900907e-05
6.7246787e-05
0.00010759369
0.00015936117
0.00019716805
0.00019499117
0.00021685312
0.00027621946
0.000418529
0.0005695306
0.0006592072
0.00073090686
0.00081608385
3.0902137e-19
6.0100476e-17
1.6007924e-15
1.6228504e-14
9.8141998e-14
4.3479902e-13
1.5699419e-12
4.9123102e-12
1.3838192e-11
3.5993619e-11
8.7966519e-11
2.0455746e-10
4.568421e-10
9.8683325e-10
2.0731485e-09
4.2540448e-09
8.5556869e-09
1.6911916e-08
3.2929837e-08
6.3275128e-08
1.2015916e-07
2.2576852e-07
4.2008694e-07
7.7457978e-07
1.4158851e-06
2.5663353e-06
4.6122771e-06
8.2172409e-06
1.4505205e-05
2.5347883e-05
4.3792415e-05
7.464544e-05
0.00012514079
0.00020539014
0.00032789459
0.00050492413
0.00074264694
0.0010323836
0.0013423208
0.0016158625
0.0017827831
0.0017933578
0.0016278328
0.0013108297
0.00096284443
0.00064135094
0.00033811592
0.0001465774
6.9743903e-05
3.6393082e-05
2.5125566e-05
3.4683263e-05
5.6099082e-05
9.3068494e-05
0.00014142658
0.00015965022
0.00015018597
0.00016254927
0.00019522792
0.00026139138
0.00040277232
0.00064020027
0.00071879152
0.00077205827
0.00084820195
2.5418422e-19
4.9435387e-17
1.3167244e-15
1.3348658e-14
8.0725784e-14
3.576375e-13
1.2913204e-12
4.0404618e-12
1.1381991e-11
2.9604449e-11
7.2350304e-11
1.6823976e-10
3.7572378e-10
8.1158565e-10
1.7049346e-09
3.4983611e-09
7.0355978e-09
1.390658e-08
2.7076696e-08
5.2025189e-08
9.8788443e-08
1.8559757e-07
3.4529789e-07
6.3656899e-07
1.1633205e-06
2.1077916e-06
3.7861627e-06
6.7401758e-06
1.1884176e-05
2.0732778e-05
3.5735084e-05
6.0722922e-05
0.00010140626
0.00016565005
0.00026292931
0.00040190616
0.00058504834
0.00080051507
0.0010147852
0.0011734534
0.0012212247
0.0011361166
0.0009223987
0.00066559624
0.00043099145
0.00020780952
9.0586529e-05
4.5517622e-05
2.5212674e-05
1.8815437e-05
2.7729289e-05
4.6875598e-05
8.0264e-05
0.00012543759
0.00013602042
0.00012526399
0.00013139361
0.00014999576
0.00018205739
0.00024268892
0.00038270949
0.00067796309
0.00074641923
0.0007996893
0.00087805089
2.0871921e-19
4.0593043e-17
1.0812056e-15
1.0961008e-14
6.6286302e-14
2.9366507e-13
1.0603277e-12
3.3176699e-12
9.345785e-12
2.4308004e-11
5.940554e-11
1.3813671e-10
3.0849118e-10
6.6634917e-10
1.3998083e-09
2.8722275e-09
5.7762838e-09
1.1417236e-08
2.2229452e-08
4.2710783e-08
8.1099317e-08
1.5235741e-07
2.8343461e-07
5.2245676e-07
9.5458403e-07
1.7289993e-06
3.1040582e-06
5.5211887e-06
9.7223527e-06
1.6929098e-05
2.9098137e-05
4.9244897e-05
8.1761795e-05
0.00013251966
0.00020811777
0.00031342804
0.00044649619
0.00059143336
0.00071389522
0.00076816393
0.00073141949
0.00060065693
0.00042807761
0.00026787812
0.00011965943
5.4399157e-05
2.9017365e-05
1.7550828e-05
1.443918e-05
2.2401208e-05
3.9076486e-05
6.9100199e-05
0.00011185865
0.00012016632
0.00011161465
0.00011444852
0.0001247563
0.00014279371
0.00017463328
0.00023853061
0.00037616186
0.00071159597
0.00078831594
0.00083601498
0.00090189032
1.7093578e-19
3.324468e-17
8.8548024e-16
8.9767876e-15
5.4286716e-14
2.4050318e-13
8.6837434e-13
2.7170526e-12
7.6538243e-12
1.9907183e-11
4.8650292e-11
1.1312691e-10
2.5263785e-10
5.4570395e-10
1.1463686e-09
2.3522093e-09
4.7305107e-09
9.3502556e-09
1.8205143e-08
3.4978724e-08
6.6417136e-08
1.2477096e-07
2.3209841e-07
4.2776801e-07
7.8137541e-07
1.4146405e-06
2.5378097e-06
4.5086407e-06
7.9246566e-06
1.3760084e-05
2.3552405e-05
3.9617226e-05
6.5200027e-05
0.00010432782
0.00016081941
0.000235677
0.0003224581
0.00040246981
0.00044610762
0.00043230474
0.00035850049
0.00025382727
0.0001511263
6.7586579e-05
3.2051101e-05
1.828824e-05
1.2342352e-05
1.1202658e-05
1.8445255e-05
3.3121924e-05
6.1064199e-05
0.0001012389
0.00011076786
0.0001050708
0.00010527911
0.00011150454
0.00012246703
0.00014237243
0.00017687064
0.00023956842
0.00035870342
0.00063592337
0.00081840516
0.00086155032
0.00092001546
1.3880838e-19
2.6996347e-17
7.1905467e-16
7.289607e-15
4.4083569e-14
1.9530073e-13
7.0516365e-13
2.2063832e-12
6.2152924e-12
1.6165661e-11
3.9506644e-11
9.1865469e-11
2.0515739e-10
4.4314813e-10
9.3093581e-10
1.9101845e-09
3.8415878e-09
7.5932516e-09
1.4784136e-08
2.840506e-08
5.3932218e-08
1.0130607e-07
1.8841313e-07
3.4714124e-07
6.3376177e-07
1.1464155e-06
2.0538799e-06
3.6414028e-06
6.3804182e-06
1.1027127e-05
1.8744664e-05
3.1212969e-05
5.0620328e-05
7.9254613e-05
0.00011827497
0.00016520679
0.00021075225
0.00023839249
0.00023392892
0.00019509085
0.00013442477
7.7355846e-05
3.5777483e-05
1.8413775e-05
1.1634628e-05
8.7051171e-06
8.937834e-06
1.5074986e-05
2.8515491e-05
5.3901665e-05
9.0688613e-05
0.00010698529
0.00010230229
0.00010096748
0.00010515512
0.00011269376
0.00012532309
0.00014647065
0.00018002286
0.00023834931
0.00034375271
0.00054975944
0.00078610463
0.00088130788
0.00094187385
1.1033914e-19
2.1459469e-17
5.7157862e-16
5.7945317e-15
3.5042192e-14
1.5524541e-13
5.6053827e-13
1.7538678e-12
4.9405821e-12
1.2850224e-11
3.1404214e-11
7.3024782e-11
1.6308143e-10
3.5226063e-10
7.399973e-10
1.5183664e-09
3.053486e-09
6.0351224e-09
1.174927e-08
2.2570567e-08
4.2843982e-08
8.0448327e-08
1.4953824e-07
2.7528907e-07
5.0197102e-07
9.0638887e-07
1.6195879e-06
2.8604144e-06
4.9839959e-06
8.5438717e-06
1.4352793e-05
2.3495004e-05
3.7153944e-05
5.6033611e-05
7.9139504e-05
0.00010209648
0.00011669022
0.0001151931
9.6270718e-05
6.4305387e-05
3.6727497e-05
1.8288413e-05
1.0335287e-05
7.3041915e-06
6.3727926e-06
7.0417614e-06
1.2636027e-05
2.4443325e-05
4.8442594e-05
8.1475479e-05
0.00010405246
0.00010116055
9.9493377e-05
0.00010256034
0.00010772372
0.00011627892
0.0001296157
0.0001508151
0.00018379782
0.00023957932
0.00033093025
0.00048789213
0.00066140346
0.00082593358
0.00095421387
8.4098618e-20
1.635604e-17
4.3564741e-16
4.4164909e-15
2.6708527e-14
1.1832509e-13
4.2723043e-13
1.3367551e-12
3.7655635e-12
9.793944e-12
2.3934664e-11
5.5654257e-11
1.242842e-10
2.6844236e-10
5.6387341e-10
1.15685e-09
2.3260736e-09
4.5963159e-09
8.9451552e-09
1.7175621e-08
3.2581337e-08
6.1120693e-08
1.1346263e-07
2.0849324e-07
3.7919911e-07
6.8225321e-07
1.2129845e-06
2.1272629e-06
3.6700322e-06
6.2041419e-06
1.0216113e-05
1.6241918e-05
2.4612643e-05
3.4903927e-05
4.5180255e-05
5.1775625e-05
5.109073e-05
4.2572449e-05
2.7834511e-05
1.6250372e-05
9.0659559e-06
5.7389327e-06
4.7197834e-06
4.5542027e-06
5.7701693e-06
1.0423739e-05
2.1728465e-05
4.4010133e-05
7.3866342e-05
0.00010421694
0.00010114285
9.9308606e-05
0.00010115877
0.00010483388
0.00011063703
0.0001199992
0.00013390821
0.00015582083
0.00018872298
0.00024140012
0.00032016049
0.00044462465
0.00058797611
0.00076686301
0.00096678556
5.9809388e-20
1.1632112e-17
3.0982395e-16
3.1409137e-15
1.8994432e-14
8.4149065e-14
3.0382854e-13
9.5062468e-13
2.6777738e-12
6.96438e-12
1.7018656e-11
3.9569334e-11
8.8353587e-11
1.9080405e-10
4.0070037e-10
8.2182746e-10
1.6517478e-09
3.2619769e-09
6.3433774e-09
1.2167086e-08
2.3047417e-08
4.3152096e-08
7.9897074e-08
1.4629657e-07
2.6480798e-07
4.7336059e-07
8.3419617e-07
1.4453836e-06
2.4522148e-06
4.0489317e-06
6.4486301e-06
9.7789257e-06
1.3861312e-05
1.7916708e-05
2.0489686e-05
2.0115465e-05
1.6765018e-05
1.1178415e-05
6.9522062e-06
4.3701312e-06
3.2995006e-06
3.0452192e-06
3.4074069e-06
4.5829039e-06
9.0000344e-06
2.019166e-05
3.9723577e-05
6.7227787e-05
9.9678003e-05
0.00010135121
9.8548577e-05
9.9970625e-05
0.00010252707
0.00010691522
0.00011353493
0.00012361416
0.0001383713
0.00016072206
0.00019286388
0.00024158497
0.00031064894
0.00041722734
0.00053799606
0.00072100757
0.00096745156
3.85012e-20
7.4879545e-18
1.9944278e-16
2.0218839e-15
1.222702e-14
5.4166887e-14
1.9556824e-13
6.1186719e-13
1.7234202e-12
4.4818447e-12
1.0950664e-11
2.5456181e-11
5.6826299e-11
1.2267763e-10
2.5751325e-10
5.2783172e-10
1.059997e-09
2.0910769e-09
4.0605206e-09
7.7734343e-09
1.4687221e-08
2.7406052e-08
5.0514824e-08
9.1943088e-08
1.6509841e-07
2.9197759e-07
5.0717107e-07
8.6170229e-07
1.4232701e-06
2.2648287e-06
3.4272917e-06
4.8431256e-06
6.2381586e-06
7.1099985e-06
6.9518564e-06
5.8229435e-06
4.188125e-06
2.9203936e-06
2.1869118e-06
1.9051026e-06
2.0942015e-06
2.5078524e-06
3.8179459e-06
8.4631968e-06
1.8472221e-05
3.6284292e-05
6.161064e-05
9.1013896e-05
0.00010093241
9.767378e-05
9.8389053e-05
0.00010054178
0.00010361291
0.00010872344
0.00011592224
0.00012686912
0.00014210162
0.00016464087
0.00019570973
0.00024246553
0.00030441019
0.00039631717
0.00050430381
0.00069135335
0.00095539329
2.1782924e-20
4.2364745e-18
1.1283853e-16
1.1439037e-15
6.9173994e-15
3.0643485e-14
1.1063063e-13
3.4609468e-13
9.7470602e-13
2.5343286e-12
6.1907392e-12
1.4386487e-11
3.2101282e-11
6.9260697e-11
1.4527363e-10
2.974677e-10
5.9657295e-10
1.17478e-09
2.2758865e-09
4.3435245e-09
8.1734718e-09
1.5170312e-08
2.7766018e-08
5.0071132e-08
8.8815434e-08
1.545364e-07
2.6266811e-07
4.3345751e-07
6.8828798e-07
1.0383941e-06
1.4625281e-06
1.8793279e-06
2.1419481e-06
2.118746e-06
1.8811652e-06
1.5464219e-06
1.2533851e-06
1.1289888e-06
1.2052992e-06
1.435952e-06
2.0139394e-06
3.5608237e-06
8.0102559e-06
1.6793237e-05
3.3006491e-05
5.6240345e-05
8.2549463e-05
9.9674056e-05
9.6152928e-05
9.6492973e-05
9.8019118e-05
0.00010038692
0.00010414117
0.00010998424
0.00011803614
0.00012956395
0.00014527871
0.00016810077
0.00019913732
0.00024309399
0.0002990531
0.0003822035
0.00048264427
0.0006684732
0.00094030098
1.0606148e-20
2.0627445e-18
5.4940771e-17
5.5695191e-16
3.3678607e-15
1.4918387e-14
5.3853949e-14
1.6845242e-13
4.7432072e-13
1.2329516e-12
3.0107115e-12
6.9931217e-12
1.559402e-11
3.3616322e-11
7.0430063e-11
1.4400018e-10
2.8822758e-10
5.661254e-10
1.0930656e-09
2.0769616e-09
3.8859569e-09
7.1585774e-09
1.2974352e-08
2.3098491e-08
4.0287649e-08
6.8564428e-08
1.1318826e-07
1.7973576e-07
2.713588e-07
3.8355549e-07
4.979929e-07
5.8302563e-07
6.19698e-07
6.2369571e-07
6.1115864e-07
6.0780669e-07
6.3334634e-07
8.0757059e-07
1.1365778e-06
1.8357488e-06
3.4424816e-06
7.3379442e-06
1.5015749e-05
2.992727e-05
5.128572e-05
7.5032877e-05
9.735737e-05
9.4036074e-05
9.3884634e-05
9.519791e-05
9.6831034e-05
9.9941592e-05
0.00010449819
0.00011110638
0.00011959306
0.00013174876
0.0001479975
0.00017108438
0.00020074551
0.00024318435
0.00029523453
0.00037296435
0.00046520765
0.00065506497
0.00092938761
4.4880206e-21
8.7285415e-19
2.3248034e-17
2.356664e-16
1.4249937e-15
6.311703e-15
2.2781956e-14
7.1248697e-14
2.005712e-13
5.2119571e-13
1.2721321e-12
2.9530948e-12
6.5799611e-12
1.416985e-11
2.9647083e-11
6.0508144e-11
1.2083112e-10
2.3661739e-10
4.5507531e-10
8.6034167e-10
1.5992196e-09
2.921382e-09
5.2379047e-09
9.196954e-09
1.5760219e-08
2.6229341e-08
4.2113978e-08
6.468056e-08
9.4089957e-08
1.284783e-07
1.6554774e-07
2.0428245e-07
2.424248e-07
2.8171066e-07
3.4657411e-07
4.4557949e-07
6.6335326e-07
1.0524004e-06
1.7634956e-06
3.2405432e-06
6.5567257e-06
1.3390047e-05
2.7266686e-05
4.6931447e-05
6.8519061e-05
9.3079289e-05
9.1418018e-05
9.0794503e-05
9.1834798e-05
9.313516e-05
9.5473325e-05
9.9273652e-05
0.00010449123
0.00011159143
0.00012072368
0.00013353909
0.00015003741
0.00017312427
0.00020284352
0.00024389939
0.00029274214
0.00036550978
0.00045538945
0.00064483967
0.00091390775
1.8888929e-21
3.673614e-19
9.7844221e-18
9.9183692e-17
5.9971496e-16
2.656208e-15
9.5869894e-15
2.9980125e-14
8.4387218e-14
2.1925172e-13
5.3504009e-13
1.2416978e-12
2.7657465e-12
5.9533833e-12
1.2449195e-11
2.539083e-11
5.066183e-11
9.9109716e-11
1.903912e-10
3.5946898e-10
6.6723688e-10
1.2171529e-09
2.1797092e-09
3.8250996e-09
6.5606185e-09
1.0963433e-08
1.7787922e-08
2.7949562e-08
4.2627733e-08
6.3290849e-08
9.1443006e-08
1.2935758e-07
1.8324957e-07
2.6454783e-07
3.8856762e-07
6.1825216e-07
9.9109578e-07
1.6456747e-06
2.9669435e-06
5.8719487e-06
1.2177395e-05
2.5037814e-05
4.2876071e-05
6.2503483e-05
8.5023362e-05
8.8301631e-05
8.7109879e-05
8.8012428e-05
8.8915776e-05
9.0844706e-05
9.3818861e-05
9.8355225e-05
0.0001041629
0.00011186769
0.00012150693
0.00013470628
0.00015169929
0.0001751176
0.00020404337
0.0002438685
0.00029082305
0.00036127854
0.0004475097
0.00063837855
0.00090253845
1.2022348e-21
2.3381723e-19
6.2276402e-18
6.3131146e-17
3.8174987e-16
1.6910144e-15
6.1044261e-15
1.9094433e-14
5.3765528e-14
1.3975922e-13
3.4127771e-13
7.9271884e-13
1.7677725e-12
3.8111805e-12
7.9862918e-12
1.6333873e-11
3.271139e-11