/*--------------------------------*- C++ -*----------------------------------*\
  =========                 |
  \\      /  F ield         | OpenFOAM: The Open Source CFD Toolbox
   \\    /   O peration     | Website:  https://openfoam.org
    \\  /    A nd           | Version:  13
     \\/     M anipulation  |
\*---------------------------------------------------------------------------*/
FoamFile
{
    format      ascii;
    class       volScalarField;
    location    "42.798386";
    object      pMean;
}
// * * * * * * * * * * * * * * * * * * * * * * * * * * * * * * * * * * * * * //

dimensions      [0 2 -2 0 0 0 0];

internalField   nonuniform List<scalar> 
17140
(
0.9312878
0.931215
0.93112714
0.93103769
0.9309411
0.93083597
0.93072223
0.93059969
0.93046809
0.93032727
0.93017708
0.93001731
0.92984764
0.92966743
0.92947547
0.92926964
0.92904644
0.92880026
0.92852262
0.92820106
0.92781782
0.92734817
0.92675799
0.92600069
0.92502189
0.92377606
0.92223449
0.92036433
0.91810738
0.91538747
0.91212035
0.90821117
0.90355613
0.89804555
0.89156734
0.88401173
0.87527707
0.86527745
0.85395483
0.84129703
0.82735989
0.81229508
0.79639019
0.78009467
0.76404655
0.74907129
0.7360056
0.72569358
0.71897745
0.7165437
0.71885966
0.72619387
0.7386781
0.75603566
0.77796525
0.80341634
0.83193254
0.86150442
0.8930212
0.92255486
0.95494648
0.98067458
1.0120613
1.0260621
1.0531179
0.93013749
0.93006606
0.9299799
0.92989219
0.92979746
0.92969429
0.92958264
0.92946234
0.92933317
0.92919495
0.92904755
0.9288908
0.9287244
0.92854775
0.92835971
0.92815824
0.9279399
0.92769922
0.92742785
0.92711346
0.92673845
0.9262783
0.92569915
0.92495477
0.92399039
0.92275959
0.9212337
0.91938035
0.91714117
0.91443954
0.91119096
0.90730034
0.90266347
0.89717011
0.89070752
0.88316523
0.87444078
0.86444738
0.85312603
0.84046351
0.82651467
0.8114306
0.79549794
0.77916849
0.76308921
0.74806694
0.73495133
0.72461872
0.71788847
0.71543262
0.71773422
0.72506374
0.73753667
0.75489002
0.77682367
0.802282
0.83082327
0.86043044
0.89197734
0.9214521
0.95357905
0.97901581
1.0102203
1.0242736
1.0519804
0.92730761
0.92723963
0.92715781
0.92707429
0.92698398
0.92688557
0.92677908
0.92666433
0.92654106
0.92640914
0.92626852
0.92611907
0.92596057
0.92579253
0.92561394
0.92542295
0.92521635
0.92498893
0.92473264
0.92443553
0.9240804
0.92364318
0.92309066
0.92237746
0.92144814
0.92025416
0.91876593
0.91695162
0.91475365
0.91209509
0.90889044
0.90504408
0.9004508
0.89499904
0.88857452
0.88106501
0.872366
0.86238853
0.85107139
0.83839914
0.82442464
0.80929845
0.79330786
0.7769129
0.76076801
0.74566385
0.73246545
0.72206654
0.71529193
0.71280727
0.71507659
0.72236001
0.73478112
0.75208292
0.77395873
0.7993574
0.82784282
0.85739338
0.88888254
0.91831195
0.95035137
0.97574131
1.0071343
1.0215567
1.0502055
0.92285142
0.92278901
0.92271409
0.92263711
0.9225538
0.92246303
0.92236474
0.92225875
0.92214484
0.92202294
0.92189306
0.92175517
0.92160914
0.92145465
0.9212909
0.92111631
0.920928
0.9207212
0.92048832
0.92021799
0.91989364
0.91949192
0.91898062
0.91831571
0.91744127
0.91630565
0.91487644
0.91312238
0.91098823
0.90839696
0.90526126
0.90148473
0.89696068
0.8915756
0.8852128
0.87775729
0.86910153
0.85915322
0.84784772
0.8351662
0.82115907
0.80597629
0.78990692
0.77342273
0.75718487
0.74197
0.72866851
0.71818456
0.71134944
0.70882289
0.7110502
0.71827041
0.73060356
0.74780037
0.76955186
0.79479379
0.82310811
0.85251818
0.8838871
0.91326186
0.94537534
0.9711185
1.0031
1.0182839
1.0480214
0.91691234
0.91685741
0.9167918
0.91672372
0.91664993
0.91656946
0.9164822
0.91638801
0.91628678
0.91617845
0.91606308
0.91594074
0.91581144
0.91567506
0.91553106
0.91537819
0.915214
0.91503425
0.91483201
0.91459662
0.91431238
0.91395692
0.91349932
0.91289735
0.91209559
0.91103848
0.90968813
0.90801351
0.9059637
0.90346197
0.90041857
0.89673607
0.89230594
0.8870122
0.88073519
0.87335639
0.86476423
0.85486214
0.84358107
0.83089788
0.81685998
0.80161666
0.78546146
0.76888046
0.75253359
0.73720097
0.72379441
0.71322409
0.70633627
0.70377637
0.70596562
0.71311815
0.7253509
0.74241507
0.76399273
0.78901456
0.8171151
0.84634788
0.87760798
0.90707705
0.93942838
0.96583955
0.99866223
1.0148125
1.0456244
0.90972791
0.90968218
0.90962795
0.90957087
0.90950883
0.90944107
0.90936748
0.90928793
0.90920235
0.90911076
0.90901325
0.90891
0.90880118
0.90868684
0.90856672
0.90843994
0.90830453
0.90815686
0.90799073
0.90779638
0.90755915
0.90725789
0.90686316
0.9063349
0.90562011
0.90465896
0.90340428
0.9018249
0.89987629
0.89748251
0.89455153
0.89098438
0.8866706
0.88149143
0.87532377
0.86804499
0.85953888
0.84970378
0.83846524
0.82579502
0.81173706
0.79644027
0.78020511
0.76353248
0.74707785
0.73164033
0.7181405
0.70749711
0.70057173
0.69799927
0.70017136
0.70727402
0.71941549
0.73633652
0.75771146
0.78247164
0.8103023
0.83934895
0.87055378
0.90032225
0.93319199
0.96057417
0.99441265
1.011519
1.0432853
0.90161999
0.90158476
0.90154301
0.90149868
0.90145031
0.90139733
0.90133962
0.90127709
0.90120969
0.90113751
0.90106068
0.90097948
0.90089417
0.90080499
0.90071193
0.90061444
0.90051106
0.90039874
0.9002721
0.90012233
0.89993596
0.89969325
0.89936646
0.89891785
0.89829752
0.89744392
0.89630028
0.89482982
0.89299294
0.89071937
0.88791623
0.88448133
0.88030248
0.87525815
0.86922163
0.86206597
0.85366979
0.84392569
0.83275313
0.82011825
0.80606127
0.79073138
0.77443836
0.75769358
0.74115428
0.72563792
0.71206132
0.70135898
0.69441024
0.69184313
0.69402043
0.70110076
0.71317713
0.72998308
0.75118086
0.77570899
0.80329231
0.83220821
0.86347225
0.89376129
0.92743854
0.95602598
0.99075366
1.0086538
1.0408897
0.8929787
0.89295494
0.89292665
0.89289636
0.89286311
0.89282645
0.89278631
0.89274261
0.89269536
0.89264463
0.89259063
0.89253367
0.89247408
0.89241223
0.89234827
0.89228196
0.89221221
0.89213658
0.89205041
0.89194589
0.89181074
0.89162675
0.89136806
0.89099928
0.89047376
0.88973268
0.88871139
0.88735879
0.88563792
0.88349023
0.88082357
0.87753208
0.87350182
0.86860852
0.86272212
0.85571128
0.84744933
0.83782281
0.82674467
0.81417516
0.80015073
0.78482208
0.76850972
0.75172656
0.73514064
0.71957783
0.70594111
0.69518539
0.68821637
0.68566734
0.68787371
0.69495853
0.70700351
0.7237369
0.74481341
0.7691892
0.79663155
0.82553284
0.85705101
0.88805563
0.92274322
0.95258984
0.98790796
1.0063694
1.0387481
0.8842387
0.88422698
0.88421281
0.88419734
0.88418003
0.88416064
0.8841391
0.88411538
0.88408948
0.88406151
0.88403169
0.8840003
0.88396773
0.88393435
0.88390042
0.88386585
0.88382984
0.88379037
0.88374342
0.88368205
0.88359515
0.88346601
0.88327068
0.88297625
0.88253913
0.88190421
0.88100662
0.87978151
0.87817937
0.87615308
0.87362307
0.87047933
0.86660439
0.86187282
0.85615151
0.84930497
0.84120142
0.83172132
0.82077124
0.80830571
0.79435783
0.77908041
0.76280351
0.7460365
0.72946099
0.71389455
0.7002217
0.68942354
0.68244235
0.67991675
0.68215441
0.689261
0.70131395
0.7180238
0.73904261
0.76334652
0.79076599
0.819846
0.85186037
0.88402374
0.91989926
0.95079928
0.98630588
1.0049303
1.0366086
0.87584849
0.87584883
0.87584882
0.87584825
0.87584703
0.87584511
0.87584245
0.87583901
0.87583485
0.87583006
0.87582484
0.87581943
0.87581418
0.87580941
0.87580534
0.87580192
0.87579844
0.87579311
0.87578236
0.87575991
0.87571562
0.87563412
0.87549329
0.87526261
0.87490156
0.87435858
0.87357171
0.87247311
0.87099713
0.86908691
0.86667918
0.86367859
0.85996226
0.85539896
0.84985354
0.84318777
0.83526576
0.82596312
0.81518096
0.80286903
0.7890581
0.7739035
0.75773906
0.7410721
0.72458953
0.70908511
0.69543144
0.68463633
0.67766585
0.67516164
0.67743818
0.68459342
0.69667981
0.71339754
0.7344031
0.75874839
0.78633369
0.81597721
0.84897153
0.88233566
0.91904223
0.95042757
0.98531715
1.0037411
1.0344888
0.86823281
0.86824462
0.86825811
0.86827179
0.86828603
0.86830095
0.86831653
0.86833278
0.86834977
0.86836758
0.86838638
0.86840634
0.86842771
0.86845068
0.86847535
0.86850153
0.86852844
0.86855431
0.86857573
0.86858681
0.86857812
0.86853535
0.86843792
0.86825743
0.86795625
0.86748631
0.86678896
0.86579737
0.8644419
0.86265483
0.86036511
0.85748761
0.85391525
0.84951887
0.84415718
0.8376887
0.82997477
0.82088722
0.81032387
0.7982316
0.7846405
0.76970826
0.75376068
0.7373096
0.72103966
0.70571036
0.69218766
0.68148036
0.674561
0.67210129
0.67440562
0.68155447
0.69363869
0.71036725
0.73142258
0.75593753
0.78393244
0.81433636
0.8482853
0.88259485
0.91961795
0.95083437
0.98504441
1.0032816
1.0324684
0.86175394
0.86177597
0.86180153
0.86182803
0.86185624
0.86188645
0.86191868
0.861953
0.86198948
0.86202823
0.86206935
0.86211298
0.86215922
0.8622081
0.86225954
0.86231309
0.86236776
0.86242158
0.86247107
0.86251044
0.86253059
0.86251793
0.862453
0.8623091
0.86205102
0.86163396
0.86100299
0.86009335
0.85883492
0.85715618
0.85498233
0.85222938
0.84879447
0.84455633
0.83937928
0.83312227
0.82564536
0.81681903
0.80653862
0.79475027
0.78148397
0.76689741
0.75130917
0.7352286
0.71931644
0.70431074
0.69106383
0.68055566
0.67376056
0.6713007
0.67352039
0.68056575
0.69256611
0.70926188
0.73038302
0.7551632
0.78366353
0.81486023
0.8496274
0.88453769
0.92155279
0.95256549
0.9854415
1.0034222
1.0308005
0.85667321
0.85670357
0.85673902
0.85677609
0.85681589
0.85685889
0.85690516
0.85695482
0.857008
0.85706483
0.8571254
0.85718981
0.85725805
0.85733004
0.85740545
0.85748361
0.85756326
0.85764214
0.85771653
0.85778053
0.85782511
0.85783702
0.85779747
0.85768098
0.8574541
0.85707455
0.85649095
0.85564319
0.85446146
0.85287043
0.85079816
0.84816245
0.84486386
0.84078928
0.83580818
0.82978335
0.82257696
0.81406246
0.80414096
0.79275577
0.77993632
0.76583651
0.75077093
0.73523074
0.71983907
0.70530996
0.69247949
0.6822918
0.6756029
0.6730751
0.67512113
0.68199143
0.69383481
0.71046834
0.73168298
0.75675254
0.78587012
0.81780196
0.85325722
0.88832074
0.92481351
0.95472949
0.98642087
1.0037125
1.0290583
0.85312145
0.85315767
0.85320015
0.85324482
0.85329307
0.85334549
0.85340223
0.8534635
0.85352949
0.85360038
0.85367631
0.85375737
0.85384354
0.85393464
0.85403025
0.85412952
0.85423098
0.85433218
0.85442916
0.85451588
0.85458332
0.85461839
0.85460275
0.85451159
0.85431255
0.85396512
0.85342013
0.85262032
0.85150171
0.84999636
0.84800343
0.84547752
0.84232023
0.83841704
0.83364807
0.8278858
0.82100165
0.81287265
0.80339292
0.79251792
0.78027731
0.76681584
0.75243295
0.73758856
0.72287199
0.70896094
0.69666444
0.68679508
0.68019445
0.6775671
0.67939144
0.68600895
0.69766459
0.71424024
0.73552419
0.76094246
0.79053607
0.82321482
0.85876196
0.89353105
0.92867495
0.9577621
0.9874749
1.0039818
1.0276138
0.85107562
0.85111489
0.85116118
0.85121
0.85126298
0.85132084
0.85138379
0.85145213
0.85152614
0.85160609
0.85169221
0.85178465
0.85188347
0.85198852
0.8520994
0.85221528
0.85233467
0.85245511
0.85257271
0.85268149
0.85277266
0.85283348
0.85284613
0.85278655
0.85262325
0.85231658
0.85181895
0.85107545
0.85002325
0.84859711
0.84674962
0.84434232
0.84128862
0.83757706
0.833052
0.82759366
0.82107801
0.81339152
0.80444477
0.7941971
0.78266737
0.76999041
0.75643738
0.7424255
0.72850334
0.71531512
0.70354664
0.69398129
0.68746561
0.68469037
0.68625647
0.69261705
0.70408759
0.72056902
0.74188681
0.76761967
0.79785552
0.83070933
0.8659027
0.89963345
0.933453
0.9607384
0.98874099
1.0042465
1.0262966
0.85038283
0.85042228
0.8504692
0.85051856
0.85057236
0.85063139
0.85069595
0.8507664
0.85084313
0.85092653
0.85101693
0.85111463
0.85121981
0.8513325
0.85145248
0.85157912
0.85171119
0.85184657
0.85198177
0.8521114
0.85222736
0.85231791
0.8523664
0.8523499
0.85223819
0.85199281
0.85156696
0.85090596
0.84994821
0.84862899
0.84688353
0.84461134
0.84179515
0.83828738
0.83400433
0.82888973
0.82280865
0.81565637
0.80735287
0.79784393
0.78715052
0.77538631
0.76278209
0.74970944
0.73666169
0.72418768
0.71292683
0.70365834
0.69717163
0.69425327
0.69558018
0.70171781
0.71300059
0.72930544
0.75076018
0.77699371
0.80734972
0.83984792
0.8741173
0.90648638
0.93825587
0.96390643
0.99001593
1.0046617
1.0253576
0.85076195
0.85079907
0.85084363
0.85089025
0.85094125
0.85099749
0.85105932
0.85112714
0.85120144
0.85128271
0.85137141
0.85146799
0.85157282
0.85168617
0.85180811
0.85193838
0.85207623
0.85222015
0.85236748
0.8525139
0.85265264
0.85277364
0.85286237
0.85289838
0.85285374
0.85269209
0.85236742
0.85182505
0.85100397
0.84983842
0.8482575
0.84621343
0.84361495
0.84037993
0.8364794
0.83175843
0.82617177
0.81963738
0.81206509
0.80340167
0.79365417
0.78290331
0.7713394
0.7592702
0.74709385
0.73531344
0.72454487
0.71550264
0.70904788
0.70600202
0.70714745
0.71308126
0.72408848
0.74042153
0.76221326
0.78847961
0.81839481
0.8503514
0.88300788
0.91350622
0.9432357
0.96701215
0.99149049
1.0052956
1.0247752
0.8518949
0.85192764
0.85196727
0.85200852
0.85205382
0.85210404
0.8521595
0.85222069
0.85228812
0.85236236
0.85244397
0.85253354
0.85263164
0.85273878
0.85285535
0.85298155
0.85311724
0.8532617
0.85341337
0.85356942
0.85372504
0.85387268
0.85400094
0.85409328
0.8541264
0.8540682
0.85387723
0.85350193
0.8528811
0.85194784
0.85062918
0.84886191
0.84657815
0.84372346
0.84020526
0.83600231
0.83105215
0.82520857
0.818451
0.81072434
0.80200929
0.79235188
0.78188197
0.77082077
0.75950545
0.74839489
0.73804946
0.72921958
0.72279583
0.71967513
0.72063806
0.7263178
0.73731471
0.75389363
0.77560124
0.80146721
0.83100313
0.86134684
0.89215679
0.92057252
0.9480689
0.97029048
0.99321265
1.0062218
1.0246408
0.85344274
0.85346984
0.8535028
0.85353704
0.85357482
0.85361688
0.85366358
0.85371538
0.85377282
0.85383648
0.85390698
0.853985
0.85407124
0.85416639
0.85427113
0.85438607
0.85451163
0.85464788
0.8547944
0.85494987
0.85511166
0.85527511
0.85543264
0.85557259
0.85567767
0.85572344
0.85567591
0.85549036
0.85511139
0.85447373
0.85350494
0.85213358
0.85028699
0.84791378
0.84495537
0.8413648
0.83707298
0.83206522
0.82626326
0.81956901
0.81196862
0.80345935
0.79410159
0.78404838
0.77357071
0.763066
0.75311115
0.74445521
0.7380875
0.73482385
0.73564397
0.74129499
0.75249707
0.76895544
0.79035802
0.81601671
0.84409166
0.87260663
0.90128632
0.9273854
0.95305688
0.97373581
0.9952479
1.0074759
1.0249419
0.85513052
0.85515152
0.85517695
0.85520365
0.85523322
0.85526631
0.85530322
0.8553444
0.85539033
0.85544159
0.85549879
0.85556261
0.85563378
0.85571313
0.85580148
0.8558997
0.85600861
0.85612892
0.85626109
0.85640511
0.85656022
0.85672446
0.85689399
0.85706217
0.85721841
0.8573466
0.85742343
0.85741636
0.85728192
0.85696533
0.85640153
0.85551899
0.85424482
0.85251243
0.85026216
0.8474479
0.84403427
0.8399874
0.83521035
0.82964404
0.82322633
0.81589905
0.80766711
0.79859972
0.78890018
0.77895127
0.76931373
0.76083335
0.75439784
0.75108151
0.75189667
0.75777841
0.76894976
0.78520039
0.80660715
0.83112331
0.85727933
0.88374874
0.91003876
0.93428432
0.95814299
0.97741597
0.99761928
1.0090911
1.0257117
0.85675007
0.8567653
0.85678365
0.85680318
0.85682492
0.85684933
0.85687672
0.85690744
0.85694192
0.85698067
0.85702422
0.85707322
0.85712836
0.85719044
0.85726034
0.85733902
0.85742751
0.85752687
0.85763812
0.85776214
0.85789948
0.85805017
0.85821332
0.85838652
0.85856519
0.8587413
0.85890215
0.85902921
0.85909584
0.85906576
0.85889198
0.85851727
0.85787735
0.85690438
0.85553409
0.85370525
0.851353
0.84842197
0.84484202
0.84053114
0.8353757
0.82927537
0.82215982
0.81402596
0.8050371
0.79554432
0.78616233
0.7777226
0.77130039
0.76806938
0.76916823
0.77519178
0.7862622
0.80276953
0.82340733
0.84602231
0.87033931
0.89447466
0.91879404
0.94117219
0.96340824
0.98135209
1.000349
1.0110796
1.0269399
0.85819579
0.8582061
0.85821845
0.85823182
0.85824677
0.85826363
0.85828263
0.85830407
0.85832829
0.85835567
0.85838671
0.85842196
0.85846207
0.85850771
0.85855958
0.85861855
0.85868564
0.85876197
0.85884867
0.85894698
0.8590583
0.85918407
0.85932528
0.85948235
0.85965491
0.85984132
0.86003809
0.86023897
0.86043386
0.8606074
0.86073723
0.86079246
0.86073326
0.86050904
0.86005934
0.85931478
0.85819516
0.85660691
0.85443596
0.85154965
0.84778329
0.8429646
0.83695761
0.8296975
0.82131293
0.81215738
0.80289843
0.79454807
0.78826582
0.78540428
0.78685586
0.79298969
0.80467495
0.82079426
0.83965851
0.86074819
0.88289177
0.90502729
0.92742856
0.94814652
0.96886896
0.98556159
1.0034505
1.0134604
1.0286394
0.85942868
0.85943497
0.85944256
0.8594508
0.85946006
0.85947057
0.85948247
0.85949597
0.8595113
0.85952885
0.85954905
0.85957209
0.85959805
0.85962736
0.85966103
0.8597003
0.85974634
0.85980033
0.85986345
0.85993653
0.86002013
0.86011571
0.86022589
0.86035333
0.86050049
0.8606701
0.86086505
0.86108793
0.86134159
0.86162812
0.86194808
0.86230093
0.86268041
0.86307074
0.86343982
0.86373151
0.86385637
0.86368222
0.86303958
0.86171868
0.85945246
0.85598799
0.85108107
0.84466698
0.83678273
0.82788835
0.81881745
0.81064245
0.80479923
0.80259493
0.8044311
0.8116344
0.82337444
0.83823216
0.85561287
0.8749161
0.89502228
0.91534007
0.9360533
0.95521999
0.97454462
0.99006491
1.0069258
1.016237
1.0308049
0.86049579
0.86049859
0.86050197
0.86050568
0.86050989
0.86051471
0.8605203
0.86052678
0.86053431
0.86054309
0.86055327
0.86056498
0.8605786
0.8605948
0.86061439
0.86063799
0.86066585
0.86069833
0.86073652
0.86078236
0.86083777
0.86090363
0.86098147
0.86107414
0.86118566
0.86132262
0.8614925
0.86170277
0.8619636
0.86228909
0.86269669
0.8632108
0.86385563
0.86464772
0.86559722
0.8666876
0.86784851
0.86894157
0.86974497
0.86994471
0.86917523
0.86705049
0.86326837
0.85762095
0.85024823
0.84172823
0.83291975
0.82545514
0.82079393
0.81933879
0.82268041
0.83039159
0.84122819
0.8548814
0.87109975
0.88826067
0.90679528
0.92551011
0.94466849
0.96241163
0.98044468
0.99486477
1.0107793
1.0194137
1.0334289
0.86143357
0.86143249
0.86143125
0.86142992
0.8614285
0.86142716
0.86142604
0.86142517
0.86142464
0.86142449
0.86142496
0.86142671
0.86142977
0.86143259
0.86143459
0.86143734
0.86144248
0.86145173
0.86146738
0.86149081
0.86152241
0.86156188
0.86161022
0.86167199
0.8617529
0.86185919
0.86199995
0.86218737
0.86243735
0.86276967
0.86321035
0.86379574
0.86456718
0.86556795
0.86684458
0.86841072
0.87023349
0.8721866
0.87405836
0.87547858
0.87599242
0.87507556
0.87231517
0.86749102
0.86074703
0.85290478
0.84535082
0.83970956
0.83610832
0.83650997
0.84079343
0.84800047
0.85811459
0.87084187
0.88531906
0.90123106
0.91830417
0.93554899
0.95330476
0.96973395
0.98657649
0.99996804
1.0150077
1.0229896
1.0365103
0.86226405
0.86225836
0.86225167
0.86224465
0.86223706
0.86222877
0.86221982
0.86221036
0.86220046
0.86219009
0.8621793
0.86216818
0.86215675
0.86214512
0.86213362
0.86212272
0.86211336
0.86210678
0.86210373
0.86210575
0.86211584
0.86213552
0.86216496
0.86220737
0.86226853
0.86235459
0.86247406
0.86264003
0.8628715
0.86319207
0.86362996
0.86422107
0.86501217
0.86606138
0.86743028
0.86916043
0.87127173
0.8736738
0.87615686
0.87837054
0.87976636
0.87976751
0.87786679
0.873876
0.86844329
0.86248196
0.85716577
0.85283091
0.85136574
0.85314438
0.85722705
0.86447736
0.87407017
0.88567782
0.89913186
0.91377548
0.92955018
0.94549263
0.96197286
0.97719657
0.99294455
1.0053754
1.0196083
1.0269639
1.0400415
0.86279289
0.86278274
0.8627708
0.86275822
0.86274451
0.86272924
0.86271214
0.86269376
0.86267513
0.86265628
0.86263666
0.86261615
0.86259489
0.86257291
0.86255024
0.86252717
0.8625042
0.86248197
0.86246171
0.86244571
0.86243677
0.86243762
0.86244995
0.86247516
0.86251942
0.86259312
0.86270447
0.86286137
0.86307883
0.86338583
0.86381236
0.86438755
0.86516357
0.86619763
0.867558
0.86930607
0.8714427
0.87394107
0.87659888
0.87907627
0.88086562
0.88147106
0.88062563
0.87829477
0.87492146
0.87121775
0.86762151
0.86554336
0.86605342
0.86803051
0.87275442
0.87979803
0.88899905
0.89983848
0.91233765
0.92594581
0.94059467
0.95536218
0.97069012
0.98480924
0.99955157
1.011087
1.0245749
1.03133
1.0440145
0.86282468
0.86281181
0.86279668
0.86278071
0.86276343
0.86274461
0.8627242
0.86270207
0.86267826
0.86265289
0.86262605
0.86259786
0.86256853
0.86253836
0.86250777
0.86247732
0.86244778
0.86242013
0.86239548
0.86237519
0.86236203
0.86236085
0.86237415
0.8623999
0.86244078
0.86250812
0.86261228
0.86276227
0.86297204
0.86325553
0.86364222
0.86417483
0.86489444
0.86585113
0.86708914
0.86866666
0.87064005
0.87298243
0.87557336
0.87814425
0.88037347
0.8819177
0.88243716
0.88189836
0.88068737
0.87888027
0.87742805
0.87778105
0.87901796
0.88205018
0.88736056
0.8942727
0.90305308
0.91335223
0.92511222
0.93781332
0.9514631
0.96518244
0.97947051
0.99257969
1.0063986
1.0171023
1.0299037
1.0360924
1.0484225
0.86204506
0.86203286
0.86201853
0.8620034
0.86198701
0.8619692
0.86194992
0.86192915
0.8619069
0.8618832
0.86185812
0.86183181
0.86180447
0.86177639
0.86174801
0.86171989
0.86169278
0.86166741
0.86164505
0.86162792
0.86161802
0.8616169
0.86162711
0.86165195
0.8616961
0.86176699
0.86187024
0.86200987
0.86220029
0.86247472
0.86284967
0.86333877
0.86398607
0.8648403
0.8659711
0.86742737
0.86924908
0.87146299
0.87401903
0.8768066
0.87958583
0.88207985
0.88400171
0.88533107
0.88586838
0.88595176
0.8870931
0.8887435
0.89110225
0.89526592
0.90080043
0.90785304
0.91647041
0.92635322
0.93748472
0.94941312
0.96219401
0.97497758
0.98832846
1.0005151
1.0134883
1.02342
1.0355882
1.0412417
1.0532478
0.8605772
0.86056811
0.86055744
0.86054618
0.86053401
0.8605208
0.86050654
0.86049122
0.86047488
0.86045757
0.86043937
0.86042042
0.86040096
0.86038132
0.86036197
0.86034351
0.86032671
0.86031257
0.86030241
0.8602978
0.86030042
0.86031266
0.86033783
0.86037931
0.86043766
0.86051598
0.86062518
0.86078574
0.8610023
0.86127122
0.86162264
0.86210252
0.86274688
0.86358033
0.86464845
0.86603925
0.86781966
0.87003346
0.87271634
0.8758413
0.87928134
0.88277432
0.88608925
0.88878976
0.89080485
0.8933006
0.89605518
0.89882433
0.90264588
0.90750168
0.91356745
0.92082628
0.92933821
0.93890824
0.94953691
0.9608042
0.97282293
0.98477149
0.99727849
1.0086244
1.0208226
1.0300388
1.0416217
1.0467708
1.0584869
0.8585164
0.85851103
0.85850476
0.85849818
0.85849115
0.8584836
0.85847557
0.8584671
0.85845827
0.85844919
0.85844003
0.85843099
0.85842234
0.85841447
0.85840797
0.85840361
0.85840234
0.85840536
0.85841411
0.85843044
0.85845673
0.85849565
0.85854746
0.85861523
0.85870245
0.8588207
0.85898761
0.85919788
0.85946265
0.85980844
0.86023889
0.86077665
0.86146495
0.86234905
0.86348341
0.86493643
0.8667953
0.86916356
0.87214811
0.8757723
0.87992595
0.88439766
0.88869374
0.89241045
0.89643251
0.90060134
0.90439486
0.90863624
0.9135179
0.91918267
0.92575078
0.93325413
0.94176428
0.95111234
0.96132938
0.97203178
0.98338541
0.9945885
1.0063369
1.0169119
1.0284009
1.0369526
1.0480009
1.0526603
1.0641546
0.85603777
0.8560352
0.85603227
0.85602932
0.85602631
0.85602328
0.85602032
0.85601753
0.85601508
0.85601318
0.8560121
0.85601219
0.85601393
0.85601793
0.85602496
0.856036
0.8560523
0.85607541
0.85610732
0.85615018
0.85620562
0.85627633
0.85636741
0.8564888
0.8566476
0.85684465
0.8570908
0.85739292
0.85775501
0.85819822
0.85874409
0.85941381
0.86023604
0.8612474
0.86251299
0.86412662
0.8662137
0.86893223
0.87241241
0.87665499
0.88158085
0.88678419
0.89172833
0.89701584
0.90254786
0.90758728
0.91270394
0.91816788
0.92402534
0.93043171
0.93751681
0.9453022
0.95385757
0.96304625
0.97292996
0.98314807
0.99391776
1.0044531
1.0155168
1.0253847
1.0362277
1.0441568
1.054722
1.0589034
1.0702174
0.85304217
0.85304136
0.8530406
0.85304005
0.85303981
0.85303999
0.85304074
0.85304229
0.85304489
0.85304889
0.85305472
0.85306294
0.85307424
0.85308951
0.85310985
0.85313663
0.85317157
0.8532168
0.85327486
0.85334837
0.85344148
0.85355953
0.85371032
0.85389868
0.85412782
0.85440654
0.85474464
0.8551533
0.85564464
0.85623153
0.85693042
0.85775949
0.85874993
0.8599602
0.86147444
0.86341616
0.86595198
0.86925378
0.87338362
0.87834114
0.88394909
0.8895835
0.89575493
0.90233068
0.90860705
0.91477384
0.92110287
0.92756894
0.93430422
0.94141518
0.94899949
0.95707354
0.9657121
0.97479178
0.98440186
0.99420102
1.0044555
1.0143902
1.0248342
1.0340522
1.044307
1.0516472
1.061779
1.0654964
1.0766582
0.84927027
0.84927133
0.84927288
0.84927492
0.84927768
0.84928137
0.84928624
0.84929261
0.84930089
0.84931158
0.84932532
0.84934289
0.84936528
0.84939369
0.84942963
0.84947493
0.84953185
0.84960312
0.849692
0.84980263
0.84994042
0.85011009
0.85031797
0.8505716
0.85087873
0.85124947
0.85169406
0.85222405
0.85285136
0.85358834
0.85445295
0.85547931
0.85671765
0.85824135
0.8601701
0.86266327
0.86588886
0.86995709
0.87486787
0.88062397
0.88667206
0.89335197
0.90065399
0.907887
0.91506607
0.92231234
0.9295907
0.93696673
0.9445068
0.95226591
0.96032474
0.96868632
0.97742548
0.98642771
0.99580851
1.0052399
1.0150345
1.0244246
1.0343035
1.0429236
1.0526351
1.0594313
1.0691602
1.0724342
1.0834704
0.84432543
0.84432979
0.84433533
0.84434177
0.84434953
0.84435894
0.84437039
0.84438432
0.84440131
0.84442205
0.8444474
0.84447843
0.84451641
0.84456293
0.8446199
0.84468964
0.84477496
0.84487922
0.84500643
0.8451613
0.84534936
0.84557706
0.84585198
0.84618235
0.84657817
0.84704986
0.8476073
0.8482629
0.84903394
0.84994424
0.85102578
0.85232707
0.8539251
0.85593458
0.85850402
0.86179098
0.86591233
0.87089754
0.87674398
0.88309688
0.89007652
0.89792392
0.90587305
0.91387937
0.92195639
0.93009545
0.93827209
0.9464807
0.95475119
0.96310761
0.97160811
0.98024212
0.98908616
0.99802938
1.0072106
1.016312
1.0256896
1.0345808
1.0439405
1.0520048
1.061217
1.0674981
1.0768582
1.0797052
1.0906301
0.83781566
0.83782547
0.83783758
0.83785116
0.83786694
0.83788542
0.83790713
0.83793268
0.83796284
0.83799853
0.83804088
0.83809124
0.83815124
0.83822286
0.83830845
0.83841079
0.83853323
0.83867976
0.83885511
0.83906451
0.83931438
0.83961243
0.83996646
0.84038518
0.8408786
0.84145947
0.84214441
0.84295255
0.84390902
0.84505086
0.84643376
0.84813995
0.85028398
0.85300708
0.85645626
0.86074206
0.86590465
0.87194017
0.87862766
0.88588904
0.89412283
0.90266636
0.91131824
0.92022051
0.92920333
0.93822663
0.94724017
0.95621497
0.96515492
0.97405586
0.98295904
0.99184177
1.0007819
1.0096704
1.018668
1.0274643
1.0364556
1.0448833
1.0537579
1.0613094
1.0700452
1.0758545
1.0848557
1.0873081
1.0981078
0.8293844
0.82940211
0.82942369
0.82944748
0.82947464
0.82950593
0.829542
0.82958369
0.82963198
0.82968805
0.82975332
0.82982946
0.82991847
0.83002278
0.83014508
0.83028805
0.830456
0.83065478
0.83088901
0.83116345
0.83148478
0.83186162
0.83230427
0.83282384
0.83343327
0.83414939
0.83499442
0.83599921
0.83720823
0.83868548
0.84052101
0.84283328
0.84576365
0.84945099
0.85400248
0.85945589
0.86580463
0.87288289
0.88055546
0.8891836
0.89831052
0.90762479
0.91725592
0.92705625
0.93692534
0.9467916
0.95659267
0.96627726
0.97582725
0.98521866
0.99447987
1.0035783
1.0125944
1.0214204
1.0302374
1.0387411
1.0473652
1.0553558
1.0637732
1.0708409
1.0791271
1.0844973
1.093145
1.0952035
1.1059293
0.81865842
0.81868654
0.81872053
0.81875768
0.8187997
0.81884762
0.81890225
0.81896458
0.81903579
0.81911703
0.8192094
0.81931452
0.81943831
0.81958528
0.81975298
0.81994394
0.82016557
0.82042321
0.82072274
0.82107103
0.82147577
0.82194614
0.82249408
0.82313465
0.8238874
0.82477902
0.82584687
0.82714381
0.82874385
0.83074684
0.83327855
0.83648164
0.84049424
0.84541339
0.85128613
0.85808056
0.86566617
0.87387988
0.88302279
0.89275344
0.90276029
0.91312934
0.92373022
0.93445756
0.94521039
0.95589766
0.96644401
0.97678312
0.986883
0.99670614
1.0062727
1.0155435
1.0246031
1.0333463
1.0419727
1.0501858
1.0584509
1.0660199
1.0739958
1.0806092
1.0884631
1.0934434
1.1017254
1.1035624
1.113977
0.80548336
0.80552514
0.80557193
0.80561957
0.80567279
0.80573746
0.80581868
0.80591328
0.80601419
0.80612378
0.80624853
0.8063916
0.80655547
0.80674328
0.80695862
0.80720538
0.80748866
0.80781461
0.80818947
0.80862152
0.80912187
0.80970422
0.81038623
0.8111917
0.81215337
0.81331668
0.81474437
0.81652114
0.81875621
0.82158152
0.82513923
0.8295633
0.83494477
0.84132442
0.84868316
0.85684802
0.86569697
0.87546947
0.88590647
0.89667152
0.90783973
0.91929164
0.9309094
0.94258525
0.95421138
0.96568749
0.97692969
0.98786267
0.99844597
1.0086344
1.0184442
1.0278338
1.0368927
1.0455201
1.0539331
1.0618441
1.0697452
1.0768997
1.0844393
1.090615
1.0980363
1.1026508
1.1105389
1.1120318
1.1221468
0.78983568
0.78989293
0.78995204
0.790012
0.79008241
0.79016401
0.79025752
0.79036595
0.79049242
0.79063915
0.79080908
0.7910045
0.79122472
0.79146892
0.79173931
0.79204224
0.79238643
0.79278009
0.79323172
0.79375234
0.79435636
0.79506306
0.79589872
0.79689979
0.79811698
0.79962012
0.80150311
0.80388686
0.80691724
0.81075471
0.81554854
0.82141679
0.82840006
0.83648491
0.84546635
0.85527273
0.86597465
0.87737212
0.8890944
0.90121108
0.91362695
0.92622336
0.93889386
0.95152573
0.96400882
0.97623747
0.98812347
0.9995876
1.0105858
1.02107
1.0310567
1.0405055
1.0495124
1.0579842
1.0661526
1.0737425
1.0812666
1.0880049
1.0951085
1.1008668
1.1078609
1.1122085
1.119718
1.1214497
1.1318748
0.77134799
0.77141663
0.7715012
0.77159294
0.7716949
0.771809
0.77193632
0.77207799
0.77223571
0.77241199
0.77260958
0.77283135
0.7730807
0.77336175
0.77367954
0.77404027
0.77445171
0.77492381
0.77546953
0.77610611
0.77685684
0.77775354
0.77883979
0.78017498
0.78183885
0.78393564
0.78659592
0.78997363
0.79423513
0.79953649
0.80599611
0.81367573
0.82251212
0.8324185
0.84329262
0.85511962
0.86763582
0.88046577
0.89368566
0.9072095
0.92091611
0.93470092
0.94844859
0.96204088
0.97536278
0.98830667
1.0007824
1.0127111
1.0240483
1.0347486
1.04483
1.0542598
1.0631407
1.0713913
1.079256
1.0864762
1.0935799
1.0998717
1.1065065
1.1118319
1.1183536
1.1224518
1.1293362
1.1318087
1.1395083
0.75163332
0.75171855
0.7518227
0.75193043
0.75204928
0.75218181
0.75232927
0.75249335
0.75267617
0.7528802
0.75310836
0.75336421
0.75365208
0.75397741
0.75434711
0.75477015
0.75525834
0.75582743
0.75649865
0.75730078
0.75827293
0.75946798
0.76095663
0.7628315
0.76521033
0.76823629
0.77207309
0.77689213
0.78285021
0.79006037
0.7985784
0.808336
0.81922463
0.83124362
0.84411735
0.85763837
0.87153131
0.88587078
0.90055229
0.91543842
0.93041334
0.94535175
0.96012628
0.97461074
0.98868648
1.0022449
1.0151975
1.0274688
1.0390186
1.0498083