/*--------------------------------*- C++ -*----------------------------------*\
  =========                 |
  \\      /  F ield         | OpenFOAM: The Open Source CFD Toolbox
   \\    /   O peration     | Website:  https://openfoam.org
    \\  /    A nd           | Version:  13
     \\/     M anipulation  |
\*---------------------------------------------------------------------------*/
FoamFile
{
    format      ascii;
    class       volSymmTensorField;
    location    "20.703133";
    object      UPrime2Mean;
}
// * * * * * * * * * * * * * * * * * * * * * * * * * * * * * * * * * * * * * //

dimensions      [0 2 -2 0 0 0 0];

internalField   nonuniform List<symmTensor> 
17140
(
(4.6774974e-12 -3.3507378e-10 -2.0351724e-27 2.5318937e-08 3.9699802e-26 1.0346198e-40)
(1.9951987e-10 -2.2111517e-09 -1.0427907e-27 2.4176432e-07 9.283472e-27 9.192452e-43)
(1.8378353e-09 -4.0103265e-09 1.7697629e-25 7.3563529e-07 -1.0061461e-24 4.0073991e-39)
(8.9804142e-09 -1.7094263e-09 -3.8746714e-25 1.5872813e-06 1.574889e-24 4.8431644e-39)
(3.0826001e-08 1.1223223e-08 7.887401e-26 2.8936394e-06 -2.4449381e-25 6.6189658e-41)
(8.6003573e-08 4.5604895e-08 -4.1428751e-25 4.7704751e-06 1.01918e-24 7.0897816e-40)
(2.093863e-07 1.1855701e-07 -1.0613452e-24 7.354501e-06 2.1230762e-24 2.0095254e-39)
(4.627577e-07 2.5638529e-07 7.5903189e-25 1.0805185e-05 -1.255291e-24 4.7896371e-40)
(9.5122176e-07 4.9863227e-07 3.5376659e-24 1.5305913e-05 -4.8939182e-24 5.1314945e-39)
(1.8478292e-06 9.0362013e-07 1.2083388e-23 2.106408e-05 -1.4110566e-23 3.0871738e-38)
(3.4296468e-06 1.5558785e-06 -2.4511327e-23 2.8309575e-05 2.4333776e-23 6.7884168e-38)
(6.129343e-06 2.575874e-06 2.9452582e-23 3.7290941e-05 -2.4992162e-23 5.3914964e-38)
(1.0607105e-05 4.1323904e-06 6.0056259e-24 4.8268407e-05 -4.3739566e-24 1.2631117e-39)
(1.7848062e-05 6.4577151e-06 -4.4766475e-23 6.1502907e-05 2.8098031e-23 4.0403357e-38)
(2.9290101e-05 9.8653273e-06 6.4937684e-24 7.7240161e-05 -3.5204363e-24 4.9806201e-40)
(4.6985457e-05 1.4769009e-05 -6.6657857e-23 9.5689107e-05 3.1286793e-23 3.1251049e-38)
(7.3796253e-05 2.1701024e-05 3.1892017e-24 0.00011699424 -1.2991577e-24 4.328253e-41)
(0.0001136192 3.1325178e-05 -9.1531846e-25 0.00014120221 3.2174834e-25 2.1670846e-42)
(0.00017162777 4.4438293e-05 -8.2109417e-23 0.00016822389 2.5193453e-23 1.0900249e-38)
(0.00025451465 6.1951282e-05 1.339736e-22 0.00019779463 -3.5734425e-23 1.8276104e-38)
(0.00037071523 8.4839596e-05 -8.0576907e-23 0.00022943735 1.867751e-23 4.2203996e-39)
(0.00053060081 0.00011405427 1.9019825e-23 0.00026243562 -3.8395324e-24 1.5275893e-40)
(0.00074665264 0.00015039179 1.7204807e-22 0.00029582779 -3.0141499e-23 8.2223911e-39)
(0.0010336937 0.00019433659 -2.08476e-22 0.00032843858 3.1724449e-23 8.0873613e-39)
(0.0014094075 0.00024591641 -3.9935926e-22 0.00035897109 5.2761748e-23 2.0246313e-38)
(0.0018947936 0.00030464457 3.8234653e-22 0.00038618588 -4.3857841e-23 1.2906194e-38)
(0.0025144386 0.00036972089 2.2173695e-21 0.00040917473 -2.2048836e-22 3.0732096e-37)
(0.0033001581 0.00044018733 3.0585819e-22 0.0004276518 -2.6320872e-23 4.21363e-39)
(0.0042922246 0.00051527814 -3.1133453e-21 0.00044208295 2.3252638e-22 3.2134359e-37)
(0.0055381597 0.00059575603 -8.3922854e-22 0.00045355249 5.4264163e-23 1.7426615e-38)
(0.0070970574 0.00068242112 -3.4286276e-21 0.00046332583 1.9211978e-22 2.2077154e-37)
(0.009040953 0.00077521009 5.1371351e-21 0.00047215415 -2.4937561e-22 3.8157339e-37)
(0.011456746 0.00087439722 -1.5169889e-21 0.00048014016 6.3600062e-23 2.5904056e-38)
(0.014448296 0.0009797346 -8.1682554e-22 0.00048692226 2.9578586e-23 5.9276683e-39)
(0.018138393 0.0010905575 -9.0218026e-21 0.0004918916 2.7985323e-22 5.7525317e-37)
(0.022670242 0.0012057607 4.4238665e-21 0.00049436528 -1.1731836e-22 1.1145194e-37)
(0.02820751 0.0013238885 -7.4232805e-21 0.00049370498 1.664617e-22 2.5482894e-37)
(0.034931665 0.0014432177 -5.5652369e-21 0.00048937509 1.0454804e-22 1.1755373e-37)
(0.043034766 0.0015618054 -2.8086376e-21 0.00048104548 4.3550768e-23 2.4808554e-38)
(0.052705222 0.0016780102 9.3196656e-21 0.00046881972 -1.1748486e-22 2.2909361e-37)
(0.064104181 0.0017908177 1.9154913e-20 0.00045353119 -1.9066344e-22 8.1871777e-37)
(0.077333345 0.0019002308 1.8803636e-20 0.00043679328 -1.4237684e-22 6.7484915e-37)
(0.092399536 0.0020058266 8.8195671e-21 0.00042054034 -4.7865314e-23 1.2844757e-37)
(0.10919108 0.0021048683 -4.5841203e-20 0.00040620633 1.5836615e-22 3.0303161e-36)
(0.12748274 0.0021897309 -3.5515671e-20 0.00039415295 5.9200908e-23 1.6096952e-36)
(0.14695402 0.0022453418 9.1737145e-21 0.00038361673 -2.0008788e-25 9.6344271e-38)
(0.16730308 0.0022551727 -6.5047804e-20 0.00037345463 -9.9014086e-23 4.4025799e-36)
(0.18834633 0.0022113432 -2.2856663e-20 0.00036323842 -6.8350065e-23 5.0112314e-37)
(0.20990496 0.0021158399 2.3892865e-20 0.00035376856 1.0541427e-22 5.1252552e-37)
(0.23214651 0.0019868972 5.9515332e-20 0.00034524217 3.4467508e-22 3.0220782e-36)
(0.25506287 0.0018568065 -3.697923e-20 0.00033811564 -2.6385468e-22 1.1267356e-36)
(0.27847317 0.0017739652 -2.3357554e-20 0.00033417624 -1.9762202e-22 4.4124348e-37)
(0.30183163 0.0018029593 6.0404333e-20 0.00033469509 5.9457004e-22 2.9475408e-36)
(0.32456642 0.0020014083 2.8053883e-20 0.00033826669 3.170428e-22 6.4678209e-37)
(0.34580258 0.0023960599 1.9446866e-20 0.00034379622 2.4990948e-22 3.2287945e-37)
(0.364818 0.0029896654 -1.4726919e-20 0.00035313559 -2.1288407e-22 1.9603874e-37)
(0.38059899 0.0037579196 3.7730098e-20 0.00036733709 6.1003817e-22 1.4045386e-36)
(0.39141394 0.004627597 2.9583288e-20 0.00038817611 5.2876946e-22 9.6576767e-37)
(0.39480402 0.0054596534 6.8387902e-21 0.00041839764 1.3370314e-22 5.9827038e-38)
(0.38772121 0.0060906105 -1.6039894e-20 0.00046140545 -3.3638792e-22 3.9323416e-37)
(0.36692339 0.0064048156 -1.1120742e-20 0.00052387896 -2.4786323e-22 2.3892591e-37)
(0.33106556 0.0063290974 -3.5616035e-20 0.00059131178 -8.3060372e-22 3.2512545e-36)
(0.27960446 0.00567206 -4.3826005e-21 0.00062482902 -1.047991e-22 6.9673331e-38)
(0.21969901 0.0043600319 3.0091879e-20 0.0005811943 7.0923039e-22 4.9205934e-36)
(0.15292698 0.0026357518 -1.8048648e-20 0.00039145976 -4.2891551e-22 2.9407342e-36)
(1.2491205e-10 -2.9322697e-09 2.756458e-27 6.8903737e-08 -5.613815e-26 8.3787053e-42)
(1.9733215e-09 -3.52571e-08 -9.6640839e-25 6.5115824e-07 1.5618454e-23 1.1030204e-37)
(8.9713003e-09 -1.2773916e-07 1.689007e-24 1.9635834e-06 -2.2449635e-23 8.7347288e-38)
(2.8479576e-08 -3.2499418e-07 -7.7663153e-25 4.1940756e-06 8.6159801e-24 6.4916498e-39)
(7.4273711e-08 -6.8921314e-07 -2.4979538e-24 7.5577443e-06 2.3475667e-23 2.7702594e-38)
(1.714006e-07 -1.3085148e-06 7.0724553e-24 1.2295664e-05 -5.6925307e-23 1.0114623e-37)
(3.6340004e-07 -2.3041319e-06 -1.0558586e-23 1.8671474e-05 7.3305459e-23 1.099083e-37)
(7.2338391e-07 -3.8388783e-06 1.2979631e-24 2.6964911e-05 -7.8114756e-24 8.512985e-40)
(1.3708102e-06 -6.1266465e-06 -5.5521039e-24 3.7461157e-05 2.9071544e-23 8.2973799e-39)
(2.4962879e-06 -9.441932e-06 -1.2683159e-25 5.0435116e-05 5.7925372e-25 2.3704129e-42)
(4.3974859e-06 -1.4127978e-05 -3.3331128e-23 6.6129864e-05 1.3317753e-22 9.2475424e-38)
(7.5300064e-06 -2.0601433e-05 6.9846429e-23 8.4728909e-05 -2.4452085e-22 2.3343166e-37)
(1.2577762e-05 -2.9350462e-05 7.5415016e-24 0.00010632298 -2.3166038e-23 1.5917889e-39)
(2.054778e-05 -4.0922336e-05 -9.6548465e-23 0.00013087332 2.6053405e-22 1.5494974e-37)
(3.2894033e-05 -5.5895874e-05 3.8190404e-23 0.00015817567 -9.06078e-23 1.4596198e-38)
(5.1673663e-05 -7.4834505e-05 3.1034461e-23 0.00018783161 -6.476976e-23 5.8734436e-39)
(7.9735881e-05 -9.8217522e-05 -2.5036245e-22 0.00021923634 4.5973993e-22 2.3558174e-37)
(0.00012093952 -0.00012635209 1.0306344e-21 0.00025159361 -1.6652879e-21 2.48883e-36)
(0.00018038895 -0.00015927679 -8.1023846e-22 0.0002839675 1.1517097e-21 9.697886e-37)
(0.00026467291 -0.00019667993 1.2108011e-21 0.00031537523 -1.513422e-21 1.3813585e-36)
(0.00038208949 -0.00023787025 -2.2152496e-21 0.00034491412 2.433512e-21 2.9868971e-36)
(0.00054284809 -0.00028184789 6.6757819e-22 0.00037189956 -6.4410141e-22 1.7762171e-37)
(0.00075925848 -0.00032751886 3.3539961e-22 0.0003959751 -2.8402917e-22 2.9798838e-38)
(0.0010459785 -0.0003740714 -1.3261511e-21 0.00041715013 9.8488938e-22 3.1434804e-37)
(0.001420539 -0.00042147951 5.7174801e-21 0.00043574322 -3.7224091e-21 4.0130482e-36)
(0.0019038683 -0.00047087256 1.0143422e-21 0.00045226191 -5.7854855e-22 8.8177651e-38)
(0.0025204085 -0.00052439156 -6.1907657e-21 0.00046726187 3.0953403e-21 2.340958e-36)
(0.0033017624 -0.00058508352 8.1134605e-21 0.00048112118 -3.555854e-21 2.9134584e-36)
(0.0042880451 -0.00065619559 -1.2928032e-21 0.00049430728 4.9721593e-22 5.4689149e-38)
(0.0055264155 -0.00073932662 -1.4592845e-20 0.00050805534 4.922154e-21 5.2093286e-36)
(0.0070755764 -0.00083604095 1.7316141e-21 0.00052341581 -5.1279179e-22 5.5894857e-38)
(0.0090070532 -0.00094866104 1.5119033e-20 0.00054060973 -3.9268318e-21 3.2796341e-36)
(0.011407075 -0.0010790554 4.341363e-22 0.00055925587 -9.8517815e-23 2.0824777e-39)
(0.01437866 -0.0012293947 -1.4412996e-20 0.00057860139 2.8758385e-21 1.8371449e-36)
(0.018043522 -0.0014018773 1.806489e-20 0.00059773283 -3.1536478e-21 2.3035341e-36)
(0.0225433 -0.0015983699 -9.101159e-21 0.00061572498 1.3875661e-21 4.7101881e-37)
(0.028039362 -0.001819656 1.1917428e-20 0.00063172641 -1.5847919e-21 6.5863982e-37)
(0.034709775 -0.0020642684 4.2022118e-20 0.00064500984 -4.8606062e-21 6.7257032e-36)
(0.042741571 -0.0023269952 1.0384901e-20 0.00065513765 -1.0419918e-21 3.4058569e-37)
(0.052315745 -0.0025968756 4.4499178e-20 0.00066229628 -3.8611072e-21 5.2478797e-36)
(0.063583222 -0.002855521 -6.2099846e-20 0.00066778551 4.6373656e-21 8.6674648e-36)
(0.076632677 -0.0030776205 -6.1933478e-20 0.00067433689 3.9529727e-21 7.374625e-36)
(0.091455573 -0.0032355572 -1.1424642e-20 0.00068610605 6.1771084e-22 2.1645699e-37)
(0.10792394 -0.003308063 9.7380597e-20 0.00070835426 -4.4029406e-21 1.3835291e-35)
(0.12579242 -0.0032901607 -4.8908519e-20 0.00074675917 1.8165386e-21 3.0865754e-36)
(0.14472554 -0.0032030335 -1.7847302e-20 0.00080603055 5.3077633e-22 3.6874724e-37)
(0.16438599 -0.0030939953 9.9572351e-21 0.00088804606 -2.2757702e-22 1.0504651e-37)
(0.18455441 -0.0030171138 3.2183108e-20 0.00098816689 -5.3026721e-22 1.0117843e-36)
(0.20516923 -0.0030181116 -1.6153109e-20 0.0010906155 1.7072045e-22 2.3926403e-37)
(0.22625787 -0.0030904767 2.9796015e-20 0.00117588 -1.4959412e-22 7.7575126e-37)
(0.2477909 -0.0031586838 1.8091443e-19 0.0012293739 3.6023777e-23 2.7717889e-35)
(0.26953032 -0.0031182737 8.635407e-21 0.0012473589 4.5593266e-23 6.2331901e-38)
(0.29097603 -0.0028800198 -3.8559382e-20 0.0012381022 -3.8972465e-22 1.2459532e-36)
(0.31151891 -0.0023838464 8.4153837e-20 0.0012095342 1.2683244e-21 6.0716152e-36)
(0.33050697 -0.0016101192 -6.9746172e-20 0.0011701029 -1.4083062e-21 4.3564644e-36)
(0.34727625 -0.00054406173 1.8988925e-19 0.0011263934 4.8419391e-21 3.451335e-35)
(0.36085246 0.00086775642 5.1334641e-20 0.0010793763 1.6007437e-21 2.7643367e-36)
(0.36973193 0.0026492119 -1.3492838e-19 0.0010324515 -5.0295983e-21 2.1594274e-35)
(0.37160837 0.0047702704 2.1099789e-20 0.00098853229 9.2914216e-22 6.1446262e-37)
(0.36357462 0.0071176644 2.1665396e-20 0.00095397485 1.1145487e-21 7.9153832e-37)
(0.34252088 0.009490404 3.8230806e-21 0.00093810571 2.283678e-22 3.16102e-38)
(0.30737798 0.011560752 -4.3660432e-20 0.00096806164 -3.0123622e-21 5.553632e-36)
(0.25751927 0.012636213 7.050704e-20 0.0010255125 5.5735463e-21 2.1049734e-35)
(0.20007009 0.012470755 1.6964377e-20 0.0010927503 1.5279882e-21 1.8864139e-36)
(0.13600825 0.010070526 2.1304553e-20 0.00096966467 2.2238803e-21 5.2103255e-36)
(1.0715684e-09 -1.5292016e-08 4.0808927e-25 2.1823895e-07 -5.5424051e-24 2.546693e-38)
(1.23082e-08 -1.5911602e-07 -6.7789146e-25 2.0602087e-06 8.4233481e-24 1.007635e-38)
(4.4111837e-08 -5.2209471e-07 -3.1661666e-25 6.2069392e-06 3.6096273e-24 7.1272094e-40)
(1.1300708e-07 -1.2181736e-06 4.6070378e-25 1.3245803e-05 -4.810697e-24 6.4080344e-40)
(2.450872e-07 -2.4008328e-06 -3.2120084e-24 2.3847042e-05 3.0721017e-23 1.5048468e-38)
(4.8208635e-07 -4.2797262e-06 -3.3098971e-25 3.8758178e-05 2.8984854e-24 8.319689e-41)
(8.8951093e-07 -7.1357789e-06 -5.7128005e-24 5.8790953e-05 4.5741556e-23 1.3585226e-38)
(1.5686146e-06 -1.1339023e-05 -8.1682466e-24 8.4797433e-05 5.9685837e-23 1.5771218e-38)
(2.673929e-06 -1.7369015e-05 8.7413423e-23 0.00011763156 -5.8169551e-22 1.053545e-36)
(4.4383902e-06 -2.5836181e-05 -1.01166e-22 0.00015809289 6.1178896e-22 8.3987791e-37)
(7.2087783e-06 -3.750185e-05 6.225629e-23 0.00020684969 -3.4142476e-22 1.9233193e-37)
(1.1494842e-05 -5.3293427e-05 1.1656055e-22 0.00026433996 -5.7853291e-22 4.1285403e-37)
(1.8036053e-05 -7.4309478e-05 -2.9378197e-22 0.00033065255 1.3170846e-21 1.6230013e-36)
(2.7890264e-05 -0.00010180776 -4.6015704e-23 0.00040539511 1.8597892e-22 2.4853164e-38)
(4.2548287e-05 -0.00013716765 2.2385864e-22 0.00048756343 -8.14113e-22 3.7016435e-37)
(6.4077431e-05 -0.00018181852 1.9316743e-22 0.00057543619 -6.3090409e-22 1.746574e-37)
(9.5294725e-05 -0.00023712833 -2.8007433e-22 0.00066652942 8.1995646e-22 2.3431813e-37)
(0.00013996694 -0.00030425312 1.2625432e-21 0.00075765277 -3.306792e-21 3.0603605e-36)
(0.00020302999 -0.00038396252 -9.2515223e-22 0.00084511001 2.1635549e-21 1.0644602e-36)
(0.0002908162 -0.00047647598 5.6450095e-22 0.0009250712 -1.1763529e-21 2.5882823e-37)
(0.00041127732 -0.00058137004 -2.3356521e-21 0.00099410744 4.3286834e-21 2.923148e-36)
(0.00057419854 -0.00069763789 -7.4091284e-22 0.0010498178 1.2188162e-21 1.961599e-37)
(0.00079141411 -0.00082398091 1.8722042e-21 0.0010914076 -2.7287375e-21 8.4598959e-37)
(0.0010770817 -0.00095937687 -3.3879857e-21 0.0011200207 4.3675437e-21 1.8968969e-36)
(0.0014482118 -0.0011039007 -1.5920108e-21 0.0011386419 1.8124119e-21 2.9101966e-37)
(0.0019253343 -0.0012594387 2.2622729e-21 0.0011515217 -2.2725647e-21 4.1591287e-37)
(0.0025323275 -0.0014295172 1.5089675e-20 0.0011631659 -1.3361207e-20 1.3289002e-35)
(0.0032999799 -0.0016193148 7.9581723e-21 0.0011767645 -6.2088789e-21 2.6999447e-36)
(0.004267657 -0.0018346416 -4.5919731e-21 0.0011940499 3.1576001e-21 6.6910118e-37)
(0.0054813251 -0.0020794854 5.6569282e-21 0.0012170301 -3.4257103e-21 7.637533e-37)
(0.0069981314 -0.0023577079 -4.0388392e-21 0.0012470023 2.1552899e-21 2.9898812e-37)
(0.0088876734 -0.0026738814 -2.6047381e-20 0.0012838022 1.2230979e-20 9.6118776e-36)
(0.011233712 -0.0030319728 9.8781199e-21 0.0013264869 -4.0800881e-21 1.0840803e-36)
(0.014136135 -0.0034360002 3.3271642e-20 0.0013737098 -1.2076164e-20 9.7428016e-36)
(0.017712615 -0.0038895746 -1.2460416e-20 0.0014239134 3.9717212e-21 1.0970922e-36)
(0.022099392 -0.0043950902 -1.9539698e-20 0.0014753782 5.4596842e-21 2.1781297e-36)
(0.02745046 -0.0049522883 3.7734546e-20 0.0015261679 -9.2326904e-21 6.6324895e-36)
(0.033933675 -0.0055560693 1.2787049e-20 0.0015741294 -2.7350228e-21 6.2701635e-37)
(0.041721959 -0.0061935212 -2.5098249e-20 0.0016170852 4.6864687e-21 2.0156059e-36)
(0.050977106 -0.0068405211 -1.1054427e-20 0.001653497 1.7969633e-21 3.2911741e-37)
(0.061824876 -0.0074589182 5.8101837e-20 0.0016835586 -8.1886693e-21 7.7126818e-36)
(0.074322859 -0.0079979211 -1.7852551e-20 0.0017109722 2.1691704e-21 6.2787973e-37)
(0.088426999 -0.0084022139 -2.7936108e-20 0.0017448766 2.9086995e-21 1.3312258e-36)
(0.10397116 -0.0086271833 -8.005108e-20 0.001801321 7.0664806e-21 9.5824092e-36)
(0.12066946 -0.008657332 1.6202789e-19 0.0019024534 -1.1944319e-20 3.4938072e-35)
(0.13815617 -0.0085257846 -1.1081662e-19 0.0020719064 6.6846084e-21 1.4725363e-35)
(0.15609608 -0.0083227702 -2.9318142e-20 0.0023241386 1.4099046e-21 9.3987514e-37)
(0.1742835 -0.0081591207 -1.2036924e-19 0.0026470264 4.4004978e-21 1.475566e-35)
(0.19266033 -0.0081101135 -1.4850197e-19 0.0029918553 3.862786e-21 2.1199592e-35)
(0.21125085 -0.0081726003 -7.7027301e-21 0.0032939092 1.2885212e-22 5.4459923e-38)
(0.23003671 -0.008241392 3.2894981e-20 0.0035023052 -2.3335718e-22 9.721597e-37)
(0.2487767 -0.0081595249 -2.4165768e-19 0.0036052784 -5.035988e-22 5.2243713e-35)
(0.26698993 -0.007803525 -1.0191996e-19 0.0036298221 -1.0931685e-21 9.408037e-36)
(0.28409493 -0.0071191838 -1.0248617e-19 0.0036100451 -1.9916045e-21 9.8237804e-36)
(0.29955123 -0.0060997238 -3.2559361e-20 0.0035688185 -9.3092209e-22 1.047029e-36)
(0.31276259 -0.0047138816 -2.4036048e-19 0.0035113324 -9.1016031e-21 6.1740233e-35)
(0.32290618 -0.0028515491 8.9973791e-20 0.003424961 4.3359208e-21 9.6080788e-36)
(0.32862522 -0.00038728383 -2.5337442e-20 0.0033008203 -1.5045781e-21 8.782467e-37)
(0.32773891 0.0027710345 -1.899909e-19 0.0031248765 -1.3705801e-20 5.8465144e-35)
(0.31766357 0.0065490944 -6.7492711e-20 0.0029042587 -5.8653044e-21 9.162992e-36)
(0.29549751 0.010654063 6.9899845e-20 0.0026564684 7.2753858e-21 1.2928898e-35)
(0.26069607 0.014564123 2.0324648e-19 0.0024967765 2.5255239e-20 1.5262669e-34)
(0.21275229 0.017067063 -5.2645035e-20 0.0024461361 -7.7889068e-21 1.5567459e-35)
(0.15996486 0.017859951 -6.6326962e-20 0.0026088608 -1.1722505e-20 4.0450222e-35)
(0.10259635 0.014715353 -2.0617167e-20 0.0024723364 -4.4318385e-21 7.4211319e-36)
(4.3854269e-09 -4.457305e-08 -2.6781765e-24 4.5304031e-07 2.655088e-23 2.8561142e-37)
(4.5384986e-08 -4.4065727e-07 9.1267753e-24 4.2792849e-06 -8.6671897e-23 5.2382496e-37)
(1.4903899e-07 -1.3861679e-06 -5.5460139e-24 1.2899803e-05 5.038434e-23 6.8489389e-38)
(3.4941897e-07 -3.1006157e-06 8.8685771e-25 2.7547401e-05 -7.6877358e-24 8.0948679e-40)
(6.951911e-07 -5.867939e-06 -2.4242959e-23 4.9635238e-05 2.0015089e-22 3.1641102e-37)
(1.2571581e-06 -1.0058754e-05 3.3475605e-23 8.074818e-05 -2.626672e-22 3.3879148e-37)
(2.1375209e-06 -1.6150976e-05 -6.6200774e-23 0.00012261928 4.923286e-22 7.7972717e-37)
(3.4828559e-06 -2.4753528e-05 3.9940624e-23 0.00017708404 -2.8064518e-22 1.7265434e-37)
(5.5023458e-06 -3.6632992e-05 1.9244122e-22 0.00024600457 -1.2733133e-21 2.4964792e-36)
(8.4928851e-06 -5.2740925e-05 -5.8131162e-23 0.00033115621 3.6094043e-22 1.44394e-37)
(1.287328e-05 -7.4238989e-05 -2.76403e-22 0.00043406969 1.6048384e-21 2.0953639e-36)
(1.9230231e-05 -0.0001025173 1.0484527e-22 0.00055582435 -5.6723764e-22 1.9538004e-37)
(2.8379276e-05 -0.00013919959 8.6731055e-24 0.00069679443 -4.3570144e-23 8.7334561e-40)
(4.1443987e-05 -0.00018612611 -4.1944769e-22 0.00085635982 1.9495598e-21 1.3388033e-36)
(5.9956824e-05 -0.00024530437 1.616626e-21 0.0010326085 -6.9276563e-21 1.3105778e-35)
(8.5984096e-05 -0.0003188165 -1.2202193e-21 0.0012220784 4.80393e-21 4.9388338e-36)
(0.00012227643 -0.00040867646 -1.4268437e-23 0.0014196088 5.1424765e-23 4.4812263e-40)
(0.00017244343 -0.00051663764 1.0139831e-21 0.0016183936 -3.3338308e-21 1.5086622e-36)
(0.00024114889 -0.00064396935 -3.1448411e-21 0.0018103378 9.3991208e-21 9.7142145e-36)
(0.00033432009 -0.00079124409 1.8072506e-21 0.0019867912 -4.89285e-21 2.1594568e-36)
(0.0004593662 -0.00095821289 3.2699744e-21 0.0021396748 -7.9917339e-21 4.7906424e-36)
(0.00062540596 -0.0011438715 1.5995633e-21 0.0022628856 -3.5170851e-21 7.8305632e-37)
(0.00084351749 -0.0013468233 -9.5077262e-21 0.002353702 1.874878e-20 1.9100516e-35)
(0.001127049 -0.0015660007 -5.9374206e-21 0.0024137704 1.0468685e-20 5.1998805e-36)
(0.0014921495 -0.0018017307 4.5545007e-21 0.0024492 -7.1615791e-21 2.1660878e-36)
(0.0019585972 -0.0020568116 -3.1350334e-21 0.0024695111 4.3852353e-21 7.3566361e-37)
(0.0025493877 -0.002336262 1.3755808e-20 0.0024855195 -1.7088863e-20 1.0324342e-35)
(0.0032939163 -0.0026475157 -4.5977106e-21 0.002505862 5.0651684e-21 8.5276972e-37)
(0.0042301072 -0.0029989057 1.4323004e-20 0.0025348115 -1.3979998e-20 6.2136359e-36)
(0.005402065 -0.0033968204 -9.3020348e-21 0.0025757641 8.0368143e-21 1.9953924e-36)
(0.0068642376 -0.0038473415 6.5809518e-21 0.0026310278 -5.0272327e-21 7.6928715e-37)
(0.0086829499 -0.0043571816 -2.7447795e-20 0.0027003268 1.8526328e-20 1.0452869e-35)
(0.010937811 -0.0049322661 4.461733e-21 0.00278209 -2.6583697e-21 2.1827755e-37)
(0.013723392 -0.0055782218 -2.6556435e-20 0.0028741551 1.394886e-20 6.1568641e-36)
(0.017150471 -0.0062997243 2.8548109e-20 0.0029739076 -1.3208788e-20 5.7331614e-36)
(0.021346236 -0.007099196 1.0230487e-20 0.0030781494 -4.1639432e-21 5.9669091e-37)
(0.026452549 -0.0079746854 -1.4196642e-19 0.0031828577 5.079869e-20 9.4646019e-35)
(0.032620937 -0.0089166552 -4.1096533e-20 0.0032830425 1.2906356e-20 6.5658426e-36)
(0.0400024 -0.0099037012 3.758728e-20 0.0033730085 -1.0342502e-20 4.5995832e-36)
(0.048729856 -0.010897799 -4.0553944e-20 0.0034474758 9.752541e-21 4.5231318e-36)
(0.058892785 -0.011841037 1.1406466e-20 0.0035039803 -2.3879939e-21 3.0461902e-37)
(0.070506556 -0.012658146 7.7489614e-20 0.0035471154 -1.4071293e-20 1.2148549e-35)
(0.08348232 -0.01326866 -3.8778584e-21 0.0035941513 6.0710666e-22 2.6621605e-38)
(0.097610893 -0.013609128 -3.0104516e-20 0.0036794692 4.0148703e-21 1.4067844e-36)
(0.11257117 -0.013661586 1.5557291e-20 0.0038537605 -1.7343362e-21 3.3834442e-37)
(0.12799175 -0.013484522 -8.3075895e-21 0.0041734889 7.7242283e-22 8.5257431e-38)
(0.14357667 -0.013221477 -2.4904002e-20 0.0046739135 1.8568857e-21 7.1630736e-37)
(0.15917086 -0.013042082 3.9693343e-19 0.0053287075 -2.2954281e-20 1.710009e-34)
(0.17479113 -0.013054186 -4.5572641e-20 0.0060320206 1.9088553e-21 2.1450954e-36)
(0.19051898 -0.01323646 4.2788224e-20 0.0066446261 -1.1949603e-21 1.8291595e-36)
(0.2063271 -0.013424569 -4.0431356e-19 0.007061806 5.851185e-21 1.6085778e-34)
(0.22192154 -0.013401053 2.2023466e-19 0.0072668244 -3.6457901e-22 4.7892017e-35)
(0.23678954 -0.013025369 1.7817505e-19 0.007324722 1.9900538e-21 3.2060099e-35)
(0.25037539 -0.012266036 1.6519165e-19 0.007314281 3.9613419e-21 2.8807098e-35)
(0.2622215 -0.01113823 1.5259905e-19 0.0072818148 5.6831792e-21 2.6291005e-35)
(0.27183856 -0.0095950356 2.2667168e-19 0.0072267621 1.1641066e-20 6.3675887e-35)
(0.27849592 -0.007462965 -4.2299074e-19 0.007109764 -2.8299394e-20 2.5025736e-34)
(0.2809344 -0.0045214657 2.3919107e-19 0.0068949421 2.0155664e-20 9.3367018e-35)
(0.27710108 -0.00058097739 3.2706576e-19 0.006534909 3.4145235e-20 2.1213464e-34)
(0.26476102 0.0043328164 -2.1167927e-19 0.0060330304 -2.7179527e-20 1.1311712e-34)
(0.24138247 0.0098198223 -5.7848309e-20 0.0054203527 -9.0948714e-21 1.1449359e-35)
(0.20726957 0.015180365 -4.1648392e-20 0.004935722 -8.028959e-21 8.6838142e-36)
(0.16201187 0.018620023 1.6866706e-19 0.0046719326 3.9845205e-20 2.2495884e-34)
(0.1150857 0.019835372 9.3643965e-20 0.0048658058 2.7409001e-20 1.214044e-34)
(0.067564458 0.016007489 -2.8176983e-21 0.0046113699 -1.0565885e-21 2.3568398e-37)
(1.2000864e-08 -9.411384e-08 3.1137753e-24 7.3806691e-07 -2.4056115e-23 1.4160993e-37)
(1.1896306e-07 -9.1108907e-07 -2.1655197e-23 6.9779421e-06 1.6342509e-22 1.1308233e-36)
(3.7598601e-07 -2.8133084e-06 2.9038047e-23 2.1053264e-05 -2.1367829e-22 7.5173542e-37)
(8.4606026e-07 -6.1697102e-06 -1.5799966e-23 4.5004071e-05 1.1316393e-22 1.0738497e-37)
(1.6136261e-06 -1.1442479e-05 -7.7303449e-24 8.1182122e-05 5.3803358e-23 1.4019811e-38)
(2.7932864e-06 -1.9211646e-05 8.6985292e-23 0.00013224347 -5.8722469e-22 1.0385546e-36)
(4.5400467e-06 -3.0198481e-05 -2.8141694e-23 0.00020111863 1.8383998e-22 6.6659511e-38)
(7.0629124e-06 -4.5290965e-05 -7.5076437e-23 0.00029094753 4.7331417e-22 3.0074139e-37)
(1.0643176e-05 -6.557105e-05 -7.1501512e-24 0.00040496685 4.3373497e-23 1.7719278e-39)
(1.5658528e-05 -9.2340852e-05 -7.4755563e-23 0.00054633634 4.3494305e-22 1.2799937e-37)
(2.2614656e-05 -0.00012714441 1.2801818e-22 0.00071789078 -7.119974e-22 2.5128265e-37)
(3.218626e-05 -0.00017177984 -1.0832232e-22 0.00092180794 5.7386656e-22 1.2155361e-37)
(4.5269825e-05 -0.00022829499 -4.8441891e-22 0.0011591909 2.4355803e-21 1.6529632e-36)
(6.3050516e-05 -0.00029895755 -1.7052226e-23 0.0014295778 8.1056057e-23 1.3978982e-39)
(8.7085813e-05 -0.00038618907 5.4205916e-22 0.001730416 -2.4263766e-21 9.6915629e-37)
(0.00011940815 -0.00049245354 4.6366157e-22 0.0020565724 -1.9463964e-21 4.8715e-37)
(0.00016264827 -0.00062009346 -4.8132217e-22 0.0023999888 1.8868691e-21 3.613774e-37)
(0.00022018048 -0.00077111811 5.5621884e-23 0.0027496396 -2.0274324e-22 3.3344242e-39)
(0.0002962896 -0.00094696377 1.3605348e-21 0.0030919657 -4.5902972e-21 1.3780729e-36)
(0.00039635953 -0.0011482756 1.9908628e-21 0.0034119506 -6.1893349e-21 2.0478347e-36)
(0.00052708546 -0.0013747926 -2.7214602e-21 0.0036949041 7.7606786e-21 2.6687323e-36)
(0.00069671543 -0.0016254508 -3.2682321e-21 0.0039288415 8.5102914e-21 2.7008518e-36)
(0.00091533779 -0.0018988226 5.2260912e-21 0.0041070502 -1.2371768e-20 4.8847109e-36)
(0.0011952382 -0.0021939586 -7.6469919e-21 0.0042301568 1.6388555e-20 7.4672394e-36)
(0.0015514318 -0.0025116138 -1.5578258e-20 0.0043068351 3.010682e-20 2.2369971e-35)
(0.0020025396 -0.0028556016 4.2881467e-20 0.0043525069 -7.4473608e-20 1.2392253e-34)
(0.0025706462 -0.0032327381 -2.7392909e-20 0.0043861271 4.262361e-20 3.7455906e-35)
(0.003283131 -0.0036526587 4.6790403e-20 0.004424648 -6.5068164e-20 8.2025312e-35)
(0.0041755361 -0.0041260711 -6.6972398e-20 0.00447661 8.3072185e-20 1.2785078e-34)
(0.0052900101 -0.0046620873 8.5189822e-20 0.0045474289 -9.4086797e-20 1.5930602e-34)
(0.0066771287 -0.0052688095 -9.9862691e-20 0.0046414312 9.8043181e-20 1.7062024e-34)
(0.0083987383 -0.0059548292 1.8960991e-20 0.0047587133 -1.6525697e-20 4.852148e-36)
(0.010528795 -0.0067278096 7.3630611e-20 0.0048970462 -5.6889337e-20 5.8212048e-35)
(0.013154603 -0.0075945778 -4.6494242e-20 0.0050531849 3.1809464e-20 1.8667326e-35)
(0.016377552 -0.0085603297 1.6216065e-20 0.0052229292 -9.8128217e-21 1.8441598e-36)
(0.020312638 -0.0096268669 5.2547908e-21 0.005400807 -2.8102463e-21 1.5902467e-37)
(0.025085748 -0.010789746 7.1873271e-20 0.00557955 -3.391067e-20 2.4498949e-35)
(0.030827375 -0.012034098 2.5860164e-20 0.0057497446 -1.0752918e-20 2.63979e-36)
(0.037661171 -0.013329239 2.8660522e-20 0.0059001948 -1.0479612e-20 2.7261604e-36)
(0.04568563 -0.014623065 3.0953609e-20 0.0060198236 -9.9342088e-21 2.7081781e-36)
(0.05494957 -0.015838915 -1.7154459e-19 0.0061019596 4.8139434e-20 7.1411548e-35)
(0.065424457 -0.016880051 8.1411644e-20 0.0061524011 -1.9883096e-20 1.3951364e-35)
(0.07698002 -0.017646255 1.3978005e-20 0.006200137 -2.9572263e-21 3.5755661e-37)
(0.089375595 -0.018064129 -1.7138269e-19 0.0063062763 3.0996704e-20 4.8122086e-35)
(0.10228205 -0.01812764 -9.1983045e-20 0.0065631535 1.4078087e-20 1.2458606e-35)
(0.11537031 -0.017940818 4.7402227e-20 0.0070737492 -6.0401547e-21 3.0277508e-36)
(0.12843973 -0.017716259 1.7924879e-19 0.0078974394 -1.8491709e-20 4.0104787e-35)
(0.14145489 -0.017674579 -8.0240875e-20 0.0089757561 6.5296368e-21 7.5922426e-36)
(0.15452463 -0.017926919 2.3910125e-19 0.010117501 -1.4363078e-20 6.4670497e-35)
(0.16774472 -0.018392615 1.3121518e-19 0.011078877 -5.3849912e-21 1.9028329e-35)
(0.18099717 -0.018818182 1.8093345e-19 0.011692761 -4.2422459e-21 3.5981769e-35)
(0.19386358 -0.018926891 4.8034808e-19 0.011954897 -2.7596003e-21 2.5722301e-34)
(0.20576407 -0.018586696 -3.6291657e-19 0.011995847 -4.0955126e-21 1.5202215e-34)
(0.21616908 -0.017815683 1.1430982e-19 0.011957585 3.3702035e-21 1.5957938e-35)
(0.22471405 -0.016660859 -1.8709179e-19 0.011913509 -8.7676027e-21 4.6410555e-35)
(0.23100145 -0.015057125 -1.6693025e-19 0.011852848 -1.1132395e-20 4.1207693e-35)
(0.23435067 -0.012766785 -6.0342109e-20 0.011695659 -5.3570328e-21 6.2025918e-36)
(0.23357097 -0.0094804565 -4.995125e-19 0.011364332 -5.6340248e-20 5.0614381e-34)
(0.22676751 -0.004942529 -1.1956255e-19 0.010763998 -1.6993607e-20 3.6112023e-35)
(0.21212958 0.00084278059 2.375386e-19 0.0098905464 4.2303124e-20 1.8688585e-34)
(0.18760959 0.0073286522 7.5618313e-20 0.0088070204 1.6866253e-20 2.6552338e-35)
(0.15458841 0.013683275 -4.5655292e-20 0.0078768731 -1.2789343e-20 1.4794437e-35)
(0.11314462 0.017627442 -7.2708971e-20 0.0073388942 -2.5721588e-20 6.3247454e-35)
(0.073148642 0.018646705 -8.2962513e-20 0.0074741487 -3.7566626e-20 1.5336346e-34)
(0.037591211 0.014270902 4.1349406e-21 0.0069605242 2.4811054e-21 8.9198367e-37)
(2.5487821e-08 -1.6187804e-07 1.4059905e-23 1.0281197e-06 -8.8403214e-23 1.3146706e-36)
(2.4741156e-07 -1.5516423e-06 1.0256965e-23 9.7312693e-06 -6.3618873e-23 1.1864067e-37)
(7.6706014e-07 -4.7481396e-06 -1.3483294e-23 2.9392571e-05 8.2361739e-23 7.7804382e-38)
(1.6898943e-06 -1.0310041e-05 -7.0788202e-23 6.2907982e-05 4.2539471e-22 1.0611218e-36)
(3.1513856e-06 -1.8922169e-05 5.1900192e-23 0.00011363762 -3.0648255e-22 3.1865968e-37)
(5.3261009e-06 -3.1419559e-05 -9.6542264e-23 0.00018540678 5.5946255e-22 6.6047308e-37)
(8.4384418e-06 -4.8811332e-05 5.2728133e-23 0.00028247889 -2.9933978e-22 1.2372706e-37)
(1.2776045e-05 -7.2304352e-05 1.5586252e-23 0.00040948177 -8.6506671e-23 7.0241603e-39)
(1.8706978e-05 -0.00010332618 -1.0813319e-22 0.00057127065 5.8540718e-22 2.2525378e-37)
(2.6701341e-05 -0.00014354362 -2.8305128e-22 0.00077270673 1.490939e-21 1.0474994e-36)
(3.7358403e-05 -0.00019487317 -1.7148574e-23 0.0010183312 8.7645327e-23 2.6431709e-39)
(5.1440521e-05 -0.00025947786 6.7416281e-22 0.0013119156 -3.3333291e-21 2.8409711e-36)
(6.9915303e-05 -0.00033974345 -1.1161385e-21 0.0016558801 5.3217826e-21 5.449863e-36)
(9.4007801e-05 -0.00043822608 2.1518082e-21 0.0020505868 -9.8599595e-21 1.4249597e-35)
(0.00012526465 -0.00055756275 -6.7040491e-22 0.0024935495 2.9413139e-21 9.7646624e-37)
(0.00016563246 -0.0007003378 1.696384e-21 0.0029786413 -7.098246e-21 4.4247381e-36)
(0.00021755299 -0.0008689035 -2.4407233e-21 0.0034954527 9.699423e-21 6.4960708e-36)
(0.00028407833 -0.0010651635 1.8850799e-21 0.0040290065 -7.083102e-21 2.7529906e-36)
(0.00036900995 -0.001290345 -3.53856e-22 0.004560104 1.2512598e-21 6.9084379e-38)
(0.00047706729 -0.001544814 -1.703262e-21 0.0050665797 5.6402148e-21 1.1425593e-36)
(0.00061409451 -0.0018280162 4.9041602e-21 0.0055256457 -1.5130954e-20 6.7874748e-36)