/*--------------------------------*- C++ -*----------------------------------*\
  =========                 |
  \\      /  F ield         | OpenFOAM: The Open Source CFD Toolbox
   \\    /   O peration     | Website:  https://openfoam.org
    \\  /    A nd           | Version:  13
     \\/     M anipulation  |
\*---------------------------------------------------------------------------*/
FoamFile
{
    format      ascii;
    class       volVectorField;
    location    "13.4024";
    object      wallShearStress;
}
// * * * * * * * * * * * * * * * * * * * * * * * * * * * * * * * * * * * * * //

dimensions      [0 2 -2 0 0 0 0];

internalField   uniform (0 0 0);

boundaryField
{
    inlet
    {
        type            calculated;
        value           uniform (0 0 0);
    }
    outlet
    {
        type            calculated;
        value           uniform (0 0 0);
    }
    cylinder
    {
        type            calculated;
        value           nonuniform List<vector> 
132
(
(5.1133597e-05 0.00068253349 -8.8710065e-23)
(0.00024584667 -0.0045310889 2.5340656e-23)
(0.00072614582 -0.0096759699 1.4575018e-21)
(0.0014789912 -0.014581875 -5.2150768e-21)
(0.0024720295 -0.019074661 4.004461e-21)
(0.0036539537 -0.022989934 1.3468498e-20)
(0.0049545077 -0.026176539 -2.8211381e-21)
(0.006288574 -0.02850845 -1.232863e-20)
(0.0075624613 -0.0298942 1.2731182e-20)
(0.0086766187 -0.030283358 -3.0955199e-20)
(0.0095349918 -0.029675528 -6.0307216e-22)
(0.010053343 -0.028123012 2.1778205e-20)
(0.010169153 -0.025733912 3.7029741e-20)
(0.0098530599 -0.022674787 -3.0935262e-20)
(0.0091161266 -0.019160141 3.3076261e-20)
(0.0080152628 -0.015439507 5.3445015e-20)
(0.0066487125 -0.011769167 -3.4825391e-20)
(0.0051418941 -0.0083835603 5.5157899e-20)
(0.0036315959 -0.0054643275 7.1683114e-20)
(0.0022423581 -0.0031204742 -4.5610927e-20)
(0.001060455 -0.0013711284 -5.7031879e-20)
(0.0001362855 -0.00017714041 1.9694352e-23)
(-0.00054512165 0.00057987418 8.0060112e-21)
(-0.0010150314 0.0010073957 -9.4601083e-21)
(-0.0013360472 0.0012253686 -1.5913815e-20)
(-0.0014535532 0.0012283924 3.3664577e-21)
(-0.0012935108 0.0010067748 -3.0058289e-20)
(-0.00058477473 0.00042483218 7.9391371e-21)
(0.00063091418 -0.0003908115 6.1926752e-21)
(0.0019647291 -0.0011270879 -4.2564791e-20)
(0.0030352124 -0.0015709866 5.5694204e-20)
(0.003603104 -0.0016615059 1.6907396e-21)
(0.0038429633 -0.0015569942 1.2205377e-20)
(0.0039733327 -0.001390161 -1.4450068e-20)
(0.0041100106 -0.0012143899 4.5838994e-20)
(0.0041385066 -0.0010013536 -2.8955929e-21)
(0.0038626179 -0.00073075917 1.1679621e-20)
(0.0030681692 -0.0004213392 -1.606233e-21)
(0.0015332968 -0.00013745526 2.3138897e-21)
(-0.00097727235 7.246473e-06 -1.4535193e-21)
(-0.004867412 -0.00016566804 2.7444878e-21)
(-0.010273071 -0.00096471581 -8.6043838e-23)
(-0.016837821 -0.0026004214 3.2140753e-20)
(-0.024180024 -0.0052330178 -1.2631304e-20)
(-0.03173573 -0.0088921925 1.1616803e-20)
(-0.038986335 -0.013499884 -7.592684e-20)
(-0.045436563 -0.018868264 -1.24261e-20)
(-0.050710546 -0.024735985 1.1030301e-19)
(-0.054555731 -0.03080886 -9.472815e-20)
(-0.056877679 -0.036806565 -1.8116969e-21)
(-0.057638985 -0.042436073 2.8740261e-20)
(-0.05695242 -0.047479782 -2.5755996e-20)
(-0.054906255 -0.051691459 -4.853662e-21)
(-0.05168799 -0.054904936 -2.7677219e-21)
(-0.047536207 -0.057023873 -2.1002223e-21)
(-0.042634652 -0.057914438 -5.9237185e-21)
(-0.037229518 -0.057540386 7.4891503e-22)
(-0.031549096 -0.055880466 5.4894032e-20)
(-0.025821479 -0.052956026 -8.052597e-20)
(-0.020263701 -0.048821874 -8.4119942e-20)
(-0.015077594 -0.043564893 -3.3720614e-20)
(-0.010445507 -0.03730153 -7.66981e-20)
(-0.0065262294 -0.030174044 1.7024902e-20)
(-0.0034497812 -0.022347225 2.4688952e-20)
(-0.0013212916 -0.01401595 -3.8291573e-20)
(-0.00019879392 -0.0053439808 -5.1095882e-21)
(0.00013922108 0.0058527433 -4.1793529e-22)
(0.00050560754 0.010914638 -2.6243938e-23)
(0.0011420149 0.015752682 -1.6227458e-21)
(0.0020228739 0.020202657 5.9626664e-21)
(0.0031046434 0.024106972 -4.6524964e-21)
(0.0043263076 0.027320117 -1.5746502e-20)
(0.0056103358 0.029718025 3.2939518e-21)
(0.0068713456 0.031206942 1.4298942e-20)
(0.0080158136 0.031729683 -1.4618062e-20)
(0.008950676 0.031274145 3.5122851e-20)
(0.0095905146 0.029876029 6.7581587e-22)
(0.0098665106 0.027623112 -2.4092485e-20)
(0.0097365185 0.024657913 -4.0473302e-20)
(0.0091943589 0.021174528 3.3441069e-20)
(0.0082749361 0.017404888 -3.5413529e-20)
(0.0070552892 0.013599073 -5.6770785e-20)
(0.0056443437 0.0099985386 3.6773351e-20)
(0.0041698538 0.0068047816 -5.8013563e-20)
(0.0027564776 0.0041532806 -7.5236717e-20)
(0.0015065775 0.0021031782 4.7845558e-20)
(0.00048396165 0.00063709633 5.9859714e-20)
(-0.00028976855 -0.00032636115 5.2725172e-20)
(-0.00084424307 -0.00090611996 4.270718e-20)
(-0.001221569 -0.0012152612 9.9652115e-21)
(-0.0014533083 -0.0013348182 1.6775216e-20)
(-0.0014470381 -0.0012251407 -3.5491235e-21)
(-0.0010927747 -0.00085421974 3.171151e-20)
(-0.00015087109 -0.0001203512 -8.3934253e-21)
(0.0011738012 0.00073921432 -6.5661398e-21)
(0.0024239764 0.0013950143 4.5253237e-20)
(0.0032890924 0.0017049021 -5.9270831e-20)
(0.003689478 0.0017025015 -1.7885348e-21)
(0.0038636422 0.0015656142 2.9531466e-20)
(0.0039991981 0.0013992178 1.5371162e-20)
(0.0041206652 0.0012178775 -4.8803226e-20)
(0.0040667139 0.0009848105 3.0863117e-21)
(0.0036411897 0.00069031922 9.0889931e-21)
(0.0026288657 0.00036375429 1.7157082e-21)
(0.00080980276 8.0771327e-05 -2.4731517e-21)
(-0.0020660075 -3.3195924e-05 1.5534008e-21)
(-0.0063772621 0.00021675141 -2.9299557e-21)
(-0.012188874 0.0011408961 2.414782e-20)
(-0.019088804 0.0029446876 -3.4054063e-20)
(-0.026637317 0.0057614851 1.3304026e-20)
(-0.034245746 0.0095922996 -1.215413e-20)
(-0.041447536 0.014349587 7.8878683e-20)
(-0.047710418 0.019809932 1.2807073e-20)
(-0.052719069 0.025712379 -1.128222e-19)
(-0.056260621 0.031768397 9.6066975e-20)
(-0.058251065 0.037692237 1.820871e-21)
(-0.058683696 0.043202288 -2.8566128e-20)
(-0.057692517 0.048093988 2.5234888e-20)
(-0.055356086 0.052112071 -3.7372062e-20)
(-0.051883812 0.055110257 2.4918273e-21)
(-0.047529331 0.057012789 -1.1864894e-21)
(-0.042448938 0.057659148 7.1449017e-21)
(-0.036913186 0.057048238 -8.1898272e-22)
(-0.031139887 0.055151995 -5.8214306e-20)
(-0.025358116 0.052001434 8.4058858e-20)
(-0.019782204 0.047656484 8.6922064e-20)
(-0.014610521 0.042208401 3.4585367e-20)
(-0.010021876 0.035778914 7.8200122e-20)
(-0.0061703091 0.02851301 -1.7271575e-20)
(-0.0031810419 0.020580156 4.9454348e-20)
(-0.0011536783 0.012170534 3.8515445e-20)
(-0.0001437317 0.0034767072 5.1224373e-21)
)
;
    }
    frontAndBack
    {
        type            empty;
    }
}


// ************************************************************************* //
