/*--------------------------------*- C++ -*----------------------------------*\
  =========                 |
  \\      /  F ield         | OpenFOAM: The Open Source CFD Toolbox
   \\    /   O peration     | Website:  https://openfoam.org
    \\  /    A nd           | Version:  13
     \\/     M anipulation  |
\*---------------------------------------------------------------------------*/
FoamFile
{
    format      ascii;
    class       volScalarField;
    location    "0.0035";
    object      mag(U);
}
// * * * * * * * * * * * * * * * * * * * * * * * * * * * * * * * * * * * * * //

dimensions      [0 1 -1 0 0 0 0];

internalField   nonuniform List<scalar> 
1000
(
2.77159e-13
4.08444e-13
2.62571e-13
3.06333e-13
3.93857e-13
2.91746e-13
5.98079e-13
3.7927e-13
7.14777e-13
4.66793e-13
1.00652e-12
4.66793e-13
8.31476e-13
3.20921e-13
6.27254e-13
2.91746e-14
3.64682e-13
1.31286e-13
2.04222e-13
2.04222e-13
3.35508e-13
2.77159e-13
3.64682e-13
3.93857e-13
5.54317e-13
4.08444e-13
2.47984e-13
3.35508e-13
1.6046e-13
2.33397e-13
1.45873e-13
2.47984e-13
1.45873e-13
1.45873e-14
1.6046e-13
1.45873e-14
2.04222e-13
1.02111e-13
4.37619e-14
2.33397e-13
2.04222e-13
3.20921e-13
1.75048e-13
3.06333e-13
1.6046e-13
1.6046e-13
2.18809e-13
2.91746e-14
1.6046e-13
1.45873e-14
7.29365e-14
1.45873e-14
1.02111e-13
1.45873e-13
7.29365e-14
2.77159e-13
2.04222e-13
1.16698e-13
1.75048e-13
2.91746e-14
2.91746e-14
2.91746e-14
1.31286e-13
1.45873e-13
2.04222e-13
7.29365e-14
5.83492e-14
1.72918e-27
1.6046e-13
7.41039e-27
2.47984e-13
1.16698e-13
2.33397e-13
2.91746e-14
2.77159e-13
4.37619e-14
7.29365e-14
4.37619e-14
7.03664e-28
2.18809e-13
1.89635e-13
5.83492e-14
2.33397e-13
8.75238e-14
1.02111e-13
1.45873e-14
8.75238e-14
1.16698e-13
8.75238e-14
5.83492e-14
2.18809e-13
2.91746e-14
2.47984e-13
1.31286e-13
2.62571e-13
1.16698e-13
3.64682e-13
1.31286e-13
2.04222e-13
1.75048e-13
1.02111e-13
2.77159e-13
7.29365e-14
7.29365e-14
1.02111e-13
1.45873e-14
8.75238e-14
2.33397e-13
1.95345e-27
5.83492e-14
2.64426e-27
8.75238e-14
4.37619e-14
7.29365e-14
1.02111e-13
2.91746e-14
4.37619e-14
8.75238e-14
1.45873e-14
2.91746e-14
4.37619e-14
2.91746e-14
2.91746e-14
1.45873e-13
1.31286e-13
1.6046e-13
7.29365e-14
2.91746e-14
2.18809e-13
2.91746e-14
3.06333e-13
1.89635e-13
1.31286e-13
1.45873e-14
2.91746e-14
5.83492e-14
8.75238e-14
1.45873e-14
1.75048e-13
1.16698e-13
8.75238e-14
1.02111e-13
1.31286e-13
1.6046e-13
1.02111e-13
1.45873e-13
1.89635e-13
1.16698e-13
2.62571e-13
2.91746e-13
1.6046e-13
1.31286e-13
1.45873e-14
4.37619e-14
1.45873e-14
5.83492e-14
8.75238e-14
2.91746e-14
1.89635e-13
5.83492e-14
1.89635e-13
1.75048e-13
1.16698e-13
2.91746e-14
7.63617e-28
1.45873e-13
4.37619e-14
4.37619e-14
5.83492e-14
7.29365e-14
8.75238e-14
2.91746e-14
2.47984e-13
1.45873e-14
1.31286e-13
8.75238e-14
7.29365e-14
5.83492e-14
2.18809e-13
5.83492e-14
1.89635e-13
2.04222e-13
3.20921e-13
4.37619e-14
2.97763e-27
7.29365e-14
1.45873e-14
5.83492e-14
5.83492e-14
1.45873e-13
1.45873e-13
1.45873e-14
2.77159e-13
1.89635e-13
4.23032e-13
2.47984e-13
4.81381e-13
3.7927e-13
5.68905e-13
4.23032e-13
3.93857e-13
2.62571e-13
3.06333e-13
1.75048e-13
2.04222e-13
1.45873e-14
4.66793e-13
5.83492e-14
7.14777e-13
4.95968e-13
9.33587e-13
7.14777e-13
1.02111e-12
5.3973e-13
1.00652e-12
5.83492e-13
8.6065e-13
5.83492e-13
6.71016e-13
5.10555e-13
3.93857e-13
5.54317e-13
4.81381e-13
4.81381e-13
4.23032e-13
3.50095e-13
3.93857e-13
1.89635e-13
3.06333e-13
2.62571e-13
2.18809e-13
2.62571e-13
3.50095e-13
5.3973e-13
3.64682e-13
4.23032e-13
4.23032e-13
5.83492e-13
7.14777e-13
5.10555e-13
8.89825e-13
9.33587e-13
8.75238e-13
8.31476e-13
9.33587e-13
6.12666e-13
7.29365e-13
4.81381e-13
5.3973e-13
3.35508e-13
7.87714e-13
4.66793e-13
6.85603e-13
6.56428e-13
6.71016e-13
7.58539e-13
6.41841e-13
5.68905e-13
5.83492e-13
5.10555e-13
7.0019e-13
6.27254e-13
5.98079e-13
3.93857e-13
4.52206e-13
3.64682e-13
4.23032e-13
4.66793e-13
4.08444e-13
5.83492e-13
5.68905e-13
5.83492e-13
7.73127e-13
5.68905e-13
6.56428e-13
5.25143e-13
7.43952e-13
6.56428e-13
8.02301e-13
8.89825e-13
1.06487e-12
1.12322e-12
1.18157e-12
1.42955e-12
1.61919e-12
1.53167e-12
1.57543e-12
1.40038e-12
1.75048e-12
1.28368e-12
1.4879e-12
9.62762e-13
1.25451e-12
1.0357e-12
1.16698e-12
1.06487e-12
1.12322e-12
1.10863e-12
1.54625e-12
1.77965e-12
2.59654e-12
4.09903e-12
6.8852e-12
1.29098e-11
2.44337e-11
4.80943e-11
9.41756e-11
1.83683e-10
3.57243e-10
6.90592e-10
1.3273e-09
2.53551e-09
4.81175e-09
9.07282e-09
1.69921e-08
3.16131e-08
5.84131e-08
1.07191e-07
1.95329e-07
3.53425e-07
6.34904e-07
1.13229e-06
2.00451e-06
3.52218e-06
6.14222e-06
1.06293e-05
1.82516e-05
3.10934e-05
5.25479e-05
8.80869e-05
0.000146448
0.000241445
0.000394693
0.000639659
0.00102761
0.0016362
0.00258171
0.00403625
0.00625147
0.00959065
0.0145715
0.0219219
0.0326506
0.0481355
0.0702298
0.101385
0.144792
0.204522
0.285678
0.394518
0.538547
0.726539
0.968468
1.27532
1.65871
2.13039
2.70143
3.38131
4.17687
5.09164
6.12556
7.27494
8.53283
9.88972
11.3344
12.855
14.4397
16.0776
17.7592
19.4764
21.2227
22.9931
24.7838
26.592
28.4156
30.2531
32.1035
33.9659
35.8397
37.7243
39.6193
41.5244
43.439
45.3629
47.2956
49.237
51.1866
53.1442
55.1095
57.0821
59.0619
61.0486
63.042
65.0417
67.0476
69.0594
71.077
73.1001
75.1285
77.1621
79.2006
81.2439
83.2917
85.344
87.4005
89.461
91.5254
93.5935
95.6652
97.7403
99.8187
101.9
103.984
106.072
108.161
110.254
112.348
114.445
116.544
118.644
120.747
122.851
124.956
127.063
129.171
131.279
133.389
135.499
137.61
139.721
141.833
143.944
146.055
148.166
150.277
152.387
154.496
156.604
158.711
160.816
162.92
165.022
167.122
169.22
171.316
173.409
175.499
177.585
179.669
181.749
183.825
185.897
187.964
190.027
192.085
194.137
196.184
198.224
200.258
202.286
204.306
206.319
208.324
210.321
212.309
214.287
216.256
218.215
220.162
222.099
224.024
225.936
227.836
229.722
231.593
233.45
235.291
237.116
238.924
240.714
242.486
244.239
245.971
247.683
249.373
251.04
252.685
254.304
255.899
257.468
259.01
260.523
262.009
263.464
264.889
266.283
267.645
268.973
270.268
271.528
272.753
273.942
275.094
276.209
277.286
278.325
279.326
280.288
281.211
282.095
282.939
283.745
284.511
285.239
285.929
286.581
287.196
287.774
288.316
288.823
289.297
289.737
290.145
290.523
290.871
291.191
291.484
291.751
291.994
292.215
292.414
292.593
292.753
292.896
293.022
293.134
293.233
293.319
293.394
293.459
293.515
293.563
293.603
293.637
293.666
293.689
293.709
293.724
293.736
293.746
293.753
293.758
293.762
293.764
293.766
293.766
293.766
293.765
293.764
293.763
293.762
293.761
293.76
293.76
293.76
293.761
293.763
293.765
293.77
293.776
293.783
293.794
293.807
293.823
293.844
293.868
293.898
293.933
293.974
294.021
294.075
294.137
294.206
294.282
294.365
294.456
294.553
294.656
294.764
294.876
294.991
295.107
295.223
295.337
295.446
295.55
295.646
295.733
295.809
295.871
295.92
295.953
295.969
295.969
295.952
295.918
295.868
295.803
295.724
295.633
295.531
295.421
295.304
295.183
295.06
294.938
294.817
294.699
294.586
294.48
294.38
294.287
294.203
294.126
294.058
293.997
293.943
293.897
293.857
293.822
293.793
293.769
293.749
293.733
293.72
293.709
293.701
293.695
293.69
293.686
293.684
293.682
293.681
293.681
293.68
293.68
293.68
293.68
293.679
293.678
293.676
293.674
293.671
293.666
293.661
293.653
293.644
293.632
293.617
293.599
293.576
293.549
293.515
293.474
293.425
293.365
293.293
293.207
293.103
292.979
292.83
292.653
292.44
292.187
291.885
291.524
291.094
290.581
289.97
289.241
288.371
287.332
286.09
284.605
282.825
280.688
278.117
275.014
271.258
266.689
261.106
254.237
245.72
235.048
221.491
203.927
180.6
149.029
107.561
61.3796
25.611
8.14748
2.21992
0.56448
0.140109
0.0345458
0.00850395
0.00209255
0.000514851
0.000126667
3.11623e-05
7.66616e-06
1.88586e-06
4.639e-07
1.14109e-07
2.80669e-08
6.90291e-09
1.69739e-09
4.16964e-10
1.02184e-10
2.45942e-11
5.48483e-12
6.56429e-13
3.64683e-13
8.1689e-13
7.73128e-13
8.89826e-13
1.00652e-12
9.7735e-13
1.02111e-12
7.87715e-13
9.19001e-13
8.31477e-13
6.27255e-13
1.00652e-12
6.56429e-13
8.02302e-13
7.73128e-13
8.31477e-13
7.29366e-13
9.91938e-13
5.54318e-13
8.1689e-13
6.56429e-13
6.41842e-13
6.85604e-13
6.85604e-13
1.02111e-12
4.66794e-13
1.07946e-12
3.06334e-13
1.00652e-12
5.25143e-13
9.7735e-13
9.04414e-13
8.02302e-13
8.46064e-13
6.85604e-13
8.46064e-13
7.5854e-13
6.27255e-13
5.68905e-13
6.71017e-13
5.10556e-13
7.5854e-13
1.45873e-14
3.7927e-13
7.29366e-14
2.77159e-13
1.16699e-13
7.29366e-14
1.45873e-14
2.77159e-13
1.31286e-13
3.20921e-13
1.02111e-13
3.50096e-13
5.83493e-14
1.45873e-13
4.3762e-14
4.3762e-14
1.31286e-13
2.47984e-13
8.75239e-14
2.1881e-13
1.16699e-13
1.75048e-13
2.62572e-13
8.75239e-14
1.45873e-13
1.02111e-13
4.3762e-14
2.91746e-13
4.3762e-14
1.6046e-13
2.70106e-27
4.66794e-13
1.31286e-13
5.25143e-13
2.91746e-14
3.93858e-13
5.83493e-14
1.31286e-13
1.6046e-13
1.89635e-13
2.47984e-13
3.93858e-13
3.7927e-13
4.66794e-13
6.12667e-13
4.3762e-13
5.9808e-13
3.50096e-13
8.46064e-13
4.3762e-13
9.33588e-13
6.27255e-13
7.87715e-13
5.9808e-13
7.87715e-13
3.20921e-13
4.52207e-13
1.45873e-14
4.23032e-13
2.77159e-13
3.35508e-13
3.06334e-13
4.3762e-14
3.7927e-13
4.3762e-14
3.35508e-13
1.16699e-13
4.3762e-13
2.33397e-13
2.91746e-14
1.16699e-13
1.02111e-13
2.91746e-14
1.16699e-13
1.02111e-13
1.31286e-13
2.47984e-13
1.16699e-13
1.02111e-13
5.83493e-14
1.6046e-13
1.6046e-13
4.3762e-14
2.62572e-13
3.7927e-13
8.75239e-14
2.91746e-13
2.91746e-14
2.1881e-13
3.74918e-29
2.62572e-13
8.75239e-14
1.45873e-14
3.35508e-13
2.47984e-13
3.35508e-13
2.33397e-13
3.50096e-13
1.31286e-13
8.75239e-14
1.45873e-13
7.29366e-14
2.33397e-13
8.75239e-14
1.31286e-13
1.31286e-13
1.02111e-13
4.81381e-13
1.16699e-13
3.7927e-13
5.83493e-14
1.45873e-13
1.02111e-13
7.29366e-14
1.75048e-13
8.75239e-14
1.45873e-14
2.91746e-14
2.1881e-13
1.45873e-13
5.9808e-13
5.68905e-13
7.29366e-13
6.41842e-13
4.23032e-13
4.3762e-13
3.93858e-13
6.56429e-13
4.52207e-13
6.12667e-13
4.52207e-13
5.83493e-13
3.35508e-13
6.56429e-13
5.54318e-13
5.83493e-13
7.29366e-13
7.00191e-13
5.9808e-13
4.81381e-13
6.27255e-13
3.06334e-13
5.83493e-13
3.64683e-13
7.43953e-13
7.43953e-13
7.73128e-13
7.87715e-13
6.27255e-13
8.31477e-13
4.08445e-13
5.9808e-13
6.85604e-13
6.85604e-13
9.48176e-13
5.25143e-13
6.85604e-13
3.64683e-13
2.1881e-13
3.64683e-13
1.89635e-13
3.64683e-13
4.23032e-13
4.3762e-13
1.75048e-13
5.83493e-14
2.33397e-13
8.75239e-14
3.50096e-13
8.75239e-14
3.93858e-13
2.91746e-13
2.77159e-13
2.91746e-13
1.02111e-13
4.52207e-13
2.04222e-13
4.3762e-13
2.91746e-13
4.52207e-13
3.35508e-13
2.91746e-13
4.52207e-13
1.31286e-13
2.33397e-13
1.16699e-13
3.06334e-13
1.31286e-13
3.64683e-13
1.89635e-13
1.31286e-13
4.08445e-13
1.02111e-13
5.54318e-13
2.1881e-13
2.91746e-14
4.3762e-14
1.6046e-13
5.83493e-14
1.6046e-13
7.29366e-14
3.35508e-13
1.45873e-14
1.45873e-14
8.75239e-14
1.6046e-13
1.45873e-13
1.16699e-13
1.31286e-13
5.10556e-13
5.10556e-13
5.54318e-13
4.08445e-13
9.33588e-13
4.3762e-13
7.5854e-13
5.25143e-13
5.68905e-13
7.43953e-13
6.71017e-13
7.5854e-13
7.14779e-13
7.14779e-13
7.5854e-13
8.89826e-13
8.02302e-13
7.14779e-13
5.83493e-13
4.3762e-13
6.85604e-13
1.6046e-13
3.35508e-13
3.06334e-13
3.50096e-13
3.7927e-13
)
;

boundaryField
{
    sides
    {
        type            calculated;
        value           nonuniform List<scalar> 2(3.7927e-13 2.77159e-13);
    }
    empty
    {
        type            empty;
    }
}


// ************************************************************************* //
