/*--------------------------------*- C++ -*----------------------------------*\
  =========                 |
  \\      /  F ield         | OpenFOAM: The Open Source CFD Toolbox
   \\    /   O peration     | Website:  https://openfoam.org
    \\  /    A nd           | Version:  13
     \\/     M anipulation  |
\*---------------------------------------------------------------------------*/
FoamFile
{
    format      ascii;
    class       volScalarField;
    location    "48.998914";
    object      omega;
}
// * * * * * * * * * * * * * * * * * * * * * * * * * * * * * * * * * * * * * //

dimensions      [0 0 -1 0 0 0 0];

internalField   nonuniform List<scalar> 
17140
(
4528389.9
731657.66
224626.36
95289.485
48487.722
27617.635
16960.875
10985.512
7400.0303
5136.0878
3649.0908
2641.4286
1941.1714
1444.3974
1085.8951
823.43863
628.94788
483.31984
373.30103
289.53848
225.33315
175.8242
137.44419
107.54877
84.160789
65.791212
51.312215
39.866521
30.80214
23.62491
17.96293
13.53755
10.136145
7.5847723
5.725375
4.4064843
3.4892283
2.858334
2.4272237
2.1354999
1.9428653
1.824744
1.7655929
1.7473732
1.7631207
1.811587
1.8890192
1.9929747
2.1221089
2.275955
2.4534648
2.6507896
2.8690669
3.1220324
3.4232973
3.7718
4.1057172
4.290003
4.330129
4.1952411
3.9258393
3.6766834
3.118713
2.3657911
2.3953692
4528420.9
731663.27
224628.42
95290.551
48488.365
27618.067
16961.186
10985.749
7400.2193
5136.2445
3649.2253
2641.5479
1941.2802
1444.4995
1085.9932
823.53485
629.04398
483.41718
373.40061
289.641
225.43897
175.93333
137.55625
107.66297
84.275904
65.905575
51.423763
39.972887
30.900806
23.71344
18.039269
13.600366
10.185145
7.620859
5.7504826
4.4230784
3.499751
2.8648396
2.4312673
2.1382045
1.9450367
1.8270326
1.7684929
1.75084
1.7677414
1.8176128
1.8967635
2.002844
2.1346992
2.2921916
2.4745098
2.678229
2.9072641
3.1805437
3.5196789
3.9369497
4.3688823
4.6117823
4.6591235
4.4680863
4.1807783
3.677539
3.0164953
2.4801864
2.4833122
4528451.2
731668.25
224629.97
95291.214
48488.712
27618.273
16961.323
10985.849
7400.2991
5136.3137
3649.2897
2641.6112
1941.3451
1444.5678
1086.0666
823.61434
629.13045
483.51128
373.50278
289.75141
225.55752
176.05958
137.68942
107.80184
84.418801
66.050365
51.56785
40.11327
31.034196
23.836444
18.14868
13.693567
10.260618
7.6786589
5.7923411
4.4519347
3.5189135
2.8772805
2.4393168
2.1435628
1.9489167
1.8303086
1.7718088
1.7544538
1.7723029
1.8234717
1.9043376
2.0126735
2.1475675
2.3092745
2.4971445
2.7081711
2.9496166
3.2465746
3.6311411
4.1306079
4.7058238
5.0446387
5.0692264
4.7954605
4.4584455
3.730431
3.0109627
2.5866222
2.5536097
4528483
731673.42
224631.58
95291.906
48489.073
27618.489
16961.468
10985.956
7400.3856
5136.3897
3649.3614
2641.6826
1941.419
1444.6463
1086.1511
823.70629
629.23084
483.62091
373.62221
289.88095
225.69719
176.20907
137.84801
107.96833
84.591503
66.227008
51.74559
40.288702
31.203418
23.995203
18.292642
13.818783
10.364242
7.7597598
5.852338
4.4941756
3.5475676
2.8962768
2.4518115
2.1518817
1.9547203
1.8347265
1.7756537
1.7583106
1.7769104
1.8292952
1.9119198
2.0227074
2.1610384
2.3275899
2.521703
2.7408341
2.9963254
3.3210076
3.7623257
4.382159
5.1623815
5.6333412
5.5512938
5.186727
4.7493227
4.0025203
3.0975516
2.6897816
2.6230676
4528516.9
731678.93
224633.28
95292.631
48489.45
27618.716
16961.622
10986.071
7400.4798
5136.4737
3649.4415
2641.7632
1941.503
1444.7359
1086.2481
823.812
629.34641
483.74724
373.75997
290.03056
225.85878
176.38241
138.03245
108.16275
84.794208
66.435673
51.957207
40.499548
31.409062
24.190596
18.472348
13.977495
10.49769
7.8658773
5.932065
4.5511486
3.5867767
2.9226327
2.4693492
2.163608
1.9627894
1.8405628
1.7802601
1.7626235
1.7817929
1.8353503
1.9198401
2.0333646
2.175642
2.3477653
2.5488101
2.7769136
3.0485101
3.4060076
3.9194631
4.7203231
5.7643157
6.2005495
5.8188483
5.5344393
5.0798609
4.3344556
3.3581789
2.8226834
2.7400876
4528552.1
731684.6
224635.02
95293.38
48489.843
27618.954
16961.783
10986.193
7400.581
5136.565
3649.5295
2641.8523
1941.5964
1444.8359
1086.3566
823.93046
629.47608
483.88912
373.91485
290.19897
226.04097
176.57826
138.24143
108.38382
85.02573
66.675322
52.201879
40.745276
31.650967
24.422901
18.68856
14.170939
10.66258
7.9988297
6.0333166
4.6244395
3.6378316
2.9573483
2.492691
2.179326
1.973586
1.8482069
1.7859716
1.7677146
1.7872984
1.8420418
1.9285948
2.0452709
2.1921759
2.3707665
2.5795392
2.8179162
3.1085497
3.5048756
4.1078979
5.1485568
6.2857054
6.3845161
5.8466113
5.656683
5.3538781
4.6405309
3.710307
3.0552523
2.9864302
4528588.7
731690.46
224636.81
95294.154
48490.252
27619.202
16961.952
10986.321
7400.6886
5136.6627
3649.6244
2641.9489
1941.698
1444.945
1086.4751
824.05999
629.618
484.04455
374.0847
290.38391
226.24137
176.79417
138.47246
108.62908
85.283703
66.943764
52.477679
41.024329
31.92805
24.691609
18.941424
14.399941
10.860343
8.1604598
6.1580611
4.715879
3.7022756
3.001651
2.5227918
2.1997841
1.9877153
1.8581825
1.7932645
1.7740393
1.7939233
1.8499492
1.9388956
2.059328
2.2117971
2.397991
2.6155263
2.8663919
3.1806297
3.6228806
4.3333674
5.6285668
6.5422959
6.4385731
5.4667727
5.4754046
5.4253303
4.9184428
4.0715579
3.4607161
3.3780983
4528626.6
731696.52
224638.67
95294.956
48490.676
27619.459
16962.129
10986.456
7400.8017
5136.766
3649.7251
2642.0517
1941.8062
1445.0613
1086.6016
824.19835
629.7697
484.21083
374.2666
290.58224
226.45668
177.02668
138.72199
108.89495
85.564601
67.237619
52.781491
41.333982
32.238121
24.995218
19.230256
14.664712
11.092056
8.3525098
6.3083748
4.8275285
3.7819217
3.0570249
2.5608314
2.2259248
2.0059542
1.8711755
1.8027792
1.7822211
1.802355
1.8598824
1.9517433
2.0768063
2.2361194
2.4313108
2.6590116
2.9267263
3.2708442
3.7688929
4.6230256
6.1791652
6.6994293
6.3157899
4.6100792
4.4564446
5.1589394
5.027272
4.3910801
3.880967
3.7618826
4528664.7
731702.77
224640.6
95295.788
48491.113
27619.725
16962.312
10986.596
7400.9194
5136.8735
3649.8298
2642.1587
1941.9191
1445.1826
1086.7335
824.34272
629.92807
484.38457
374.45687
290.79001
226.68268
177.27135
138.98541
109.17671
85.863679
67.552232
53.108881
41.670184
32.577693
25.331001
19.553288
14.964592
11.358194
8.5764309
6.4863223
4.9616297
3.8788512
3.125235
2.6082475
2.2589192
2.0292862
1.8880723
1.8153631
1.7931063
1.8135379
1.8729657
1.9685411
2.0994862
2.2673603
2.4731789
2.7132533
3.0046772
3.3903775
3.9592381
5.0506971
6.6715206
6.7671756
6.0870358
3.9922681
3.0207211
4.0914739
4.8448105
4.5932696
4.2158869
4.0386706
4528704.9
731709.28
224642.61
95296.651
48491.565
27620.001
16962.501
10986.74
7401.0403
5136.9837
3649.937
2642.2679
1942.0341
1445.3061
1086.8678
824.48972
630.08938
484.56166
374.65104
291.00239
226.91421
177.52272
139.25698
109.46841
86.174885
67.881552
53.453947
42.027357
32.941732
25.694714
19.907328
15.297689
11.658295
8.8330968
6.693758
5.1204995
3.9953819
3.2083383
2.6667677
2.3002071
2.0589457
1.9100099
1.8321358
1.8078568
1.8287813
1.890774
1.9912851
2.1298924
2.3085544
2.5281192
2.7875462
3.1150068
3.5581037
4.2339734
5.7210196
7.0827531
6.8484591
5.5329433
3.4985183
2.1308038
2.3706553
4.0583599
4.4507778
4.3645776
4.0647265
4528746.8
731716.03
224644.69
95297.548
48492.036
27620.286
16962.695
10986.887
7401.1631
5137.0949
3650.0445
2642.3771
1942.1486
1445.4289
1087.0011
824.6355
630.24939
484.73744
374.84402
291.21386
227.14532
177.77443
139.52999
109.76305
86.490979
68.218231
53.809381
42.398432
33.323644
26.080528
20.287627
15.660636
11.99064
9.1224714
6.9320531
5.3063547
4.1339873
3.3086699
2.7384314
2.3515357
2.0964641
1.9384336
1.854594
1.8281376
1.8499464
1.9155417
2.0228877
2.1717152
2.3658544
2.6064526
2.8990172
3.2841115
3.8077864
4.7125622
6.6451575
7.4863798
6.8987285
4.7265428
2.7716833
1.6974589
1.408062
2.1839328
3.69139
3.8666019
3.4130771
4528789.6
731722.98
224646.85
95298.475
48492.524
27620.58
16962.894
10987.036
7401.286
5137.205
3650.15
2642.4834
1942.2596
1445.5475
1087.1297
824.77598
630.40354
484.90689
375.0303
291.41842
227.36951
178.01949
139.79696
110.05271
86.803694
68.55374
54.166541
42.774846
33.7152
26.480875
20.687681
16.048425
12.352014
9.4433459
7.2018119
5.5210699
4.2971468
3.4287833
2.8255917
2.4149938
2.1437043
1.9750754
1.8847788
1.8564201
1.8796661
1.9506477
2.0678155
2.2320224
2.4513735
2.7260764
3.0761327
3.5528844
4.2153048
5.6464831
7.695362
7.6812205
6.60786
3.7156284
2.0018221
1.3142413
0.9002072
1.0207399
1.7596949
2.1589065
1.6425469
4528834.7
731730.26
224649.09
95299.436
48493.026
27620.881
16963.096
10987.186
7401.4076
5137.3123
3650.2514
2642.5844
1942.3642
1445.6586
1087.2496
824.90675
630.54694
485.0646
375.20392
291.60953
227.57965
178.25017
140.04959
110.32853
87.103641
68.878264
54.515303
43.146344
34.106261
26.886042
21.098611
16.453546
12.736925
9.7925172
7.502116
5.7656264
4.4870125
3.5712931
2.9308806
2.4930652
2.2030274
2.0223641
1.92548
1.8958884
1.9219573
2.0014656
2.1337048
2.324327
2.5854465
2.9180174
3.368155
3.9912763
5.0137426
7.2480521
8.4072853
7.7904899
5.4401522
2.7714219
1.4863623
0.91308471
0.65114521
0.58991261
0.71494257
0.78252893
0.59019092
4528880.1
731737.68
224651.39
95300.424
48493.542
27621.188
16963.299
10987.334
7401.5258
5137.4144
3650.3461
2642.6774
1942.4593
1445.7587
1087.357
825.02347
630.67476
485.20519
375.35894
291.78063
227.76855
178.4586
140.27931
110.58125
87.380909
69.181271
54.844625
43.501537
34.485332
27.284783
21.509853
16.866555
13.137399
10.164142
7.8297784
6.0394348
4.70492
3.7385982
3.0571151
2.5886858
2.2774922
2.0836351
1.9804475
1.9513393
1.9830107
2.0768436
2.2349076
2.4743682
2.8041743
3.2394943
3.8622778
4.7840755
6.7198295
8.8782756
8.6743646
7.3674001
3.8585665
1.8702509
1.0547072
0.68657461
0.52717579
0.43098322
0.39353824
0.36751207
0.27536973
4528926.9
731745.34
224653.75
95301.444
48494.072
27621.501
16963.504
10987.48
7401.639
5137.5094
3650.4318
2642.7593
1942.5414
1445.844
1087.4476
825.12138
630.78165
485.32271
375.48873
291.92442
227.92814
178.63593
140.47646
110.80035
87.624103
69.450521
55.141465
43.82668
34.838134
27.662535
21.906959
17.27378
13.541615
10.549167
8.1789481
6.3397733
4.9507953
3.9324449
3.2070756
2.7052154
2.3709497
2.1634141
2.0552789
2.0303382
2.0730436
2.1926681
2.3997372
2.7304405
3.1750695
3.7982897
4.7493627
6.4775554
9.1796978
9.5243507
8.5948912
5.4132781
2.5281141
1.3201134
0.79900254
0.57596295
0.44484107
0.3648941
0.29307089
0.24669437
0.18902426
4528977.9
731753.53
224656.25
95302.505
48494.616
27621.82
16963.708
10987.623
7401.7459
5137.5958
3650.5064
2642.828
1942.608
1445.9113
1087.5179
825.19644
630.86309
485.41209
375.58763
292.03454
228.05136
178.77432
140.63231
110.97619
87.822606
69.67439
55.393192
44.108195
35.15027
28.004326
22.274771
17.660406
13.935679
10.935411
8.5401981
6.6607361
5.2222147
4.15322
3.3831121
2.8463778
2.4883533
2.2681963
2.1587935
2.1452497
2.2100038
2.3793164
2.6849365
3.1736276
3.8191189
4.8112485
6.5583616
9.5203506
10.268961
9.6199148
7.2256697
3.3294142
1.6056103
0.91585356
0.62286431
0.48425931
0.38480512
0.31226574
0.2490758
0.20529847
0.16055801
4529031.7
731762.04
224658.84
95303.605
48495.179
27622.144
16963.913
10987.761
7401.8451
5137.6716
3650.568
2642.8811
1942.6565
1445.9579
1087.5647
825.24498
630.91491
485.46862
375.65035
292.10507
228.13153
178.86626
140.73849
111.09942
87.966009
69.841331
55.587073
44.332137
35.406625
28.293987
22.596291
18.009006
14.302397
11.306916
8.9000185
6.9923648
5.5133526
4.3990281
3.5865877
3.0162185
2.6363674
2.4079613
2.3061042
2.3164824
2.4285852
2.7001995
3.2010876
3.9270535
4.983204
6.8299394
10.048051
10.989721
10.502047
8.6691861
4.2220945
1.9982421
1.1070168
0.7281561
0.53696746
0.40821162
0.32437948
0.26043455
0.20581171
0.17133511
0.13452443
4529085.9
731770.73
224661.51
95304.738
48495.755
27622.473
16964.115
10987.893
7401.9354
5137.7356
3650.615
2642.9169
1942.6848
1445.9813
1087.585
825.26377
630.93342
485.48807
375.67204
292.13046
228.16237
178.90466
140.78699
111.16107
88.04431
69.94015
55.710604
44.484617
35.591882
28.514778
22.853462
18.300479
14.622161
11.644457
9.2408382
7.3202406
5.8142005
4.6648442
3.8173845
3.2193518
2.8247361
2.5991822
2.5244569
2.5827816
2.7997905
3.2870408
4.1038047
5.2676802
7.2622252
10.711681
11.793974
11.362155
9.7208842
5.2742401
2.5418912
1.3540304
0.82762105
0.58297907
0.44386917
0.34931228
0.27249679
0.22034323
0.17590654
0.1464813
0.12147024
4529139.6
731779.6
224664.24
95305.893
48496.341
27622.804
16964.315
10988.018
7402.0158
5137.7867
3650.6461
2642.9338
1942.6911
1445.9795
1087.5767
825.2503
630.9158
485.46725
375.64905
292.10647
228.13884
178.88341
140.77035
111.15196
88.046462
69.958197
55.749822
44.550687
35.690333
28.649828
23.028033
18.515206
14.874228
11.926786
9.5420487
7.6260729
6.1106918
4.9424443
4.0742185
3.462431
3.069889
2.871847
2.863208
3.0259463
3.476429
4.3658783
5.6769118
7.8326876
11.490764
12.659995
12.252957
10.711889
6.4479712
3.1158522
1.5764098
0.91046345
0.6241277
0.47340719
0.3725669
0.30080089
0.24133965
0.19196545
0.15366977
0.1309639
0.10902697
4529196.7
731788.86
224667.08
95307.093
48496.946
27623.141
16964.514
10988.138
7402.0861
5137.8244
3650.6606
2642.9309
1942.6744
1445.9512
1087.5384
825.20296
630.86024
485.40422
375.57933
292.03103
228.05894
178.80072
140.68705
111.07082
87.970896
69.892264
55.698367
44.519362
35.685726
28.680058
23.100105
18.633361
15.038027
12.132599
9.7823174
7.8900657
6.386938
5.2226734
4.3576518
3.7592661
3.4045232
3.2887026
3.4050702
3.8229081
4.7621239
6.2403656
8.5766778
12.338708
13.588944
13.185747
11.680593
7.5243456
3.6129606
1.8219423
1.0480948
0.70398878
0.52874714
0.41581139
0.33054705
0.26039394
0.20848314
0.16964844
0.13650456
0.11701142
0.10124591
4529258.1
731798.63
224670.06
95308.339
48497.569
27623.483
16964.711
10988.251
7402.1458
5137.8479
3650.6577
2642.9073
1942.6336
1445.8953
1087.4687
825.12024
630.76507
485.29707
375.46071
291.90166
227.91984
178.65338
140.53351
110.91384
87.814014
69.739909
55.555843
44.392765
35.581676
28.605032
23.061075
18.637965
15.094759
12.243918
9.9441673
8.096422
6.6315687
5.502882
4.6796431
4.144739
3.900093
3.9603246
4.3599278
5.3362948
7.0064664
9.4970829
13.296374
14.575576
14.164748
12.658943
8.5490796
4.1648108
2.1271727
1.2201323
0.7998893
0.5779802
0.43952717
0.34433112
0.2762069
0.22430246
0.18047348
0.14843356
0.12461681
0.10988933
0.096414171
4529319.5
731808.56
224673.1
95309.618
48498.206
27623.829
16964.905
10988.356
7402.1945
5137.8571
3650.6372
2642.8628
1942.5685
1445.8115
1087.3674
825.00199
630.63017
485.14572
375.29317
291.71839
227.72162
178.44148
140.30982
110.68103
87.575681
69.500659
55.321367
44.169804
35.377873
28.42864
22.920593
18.541458
15.049031
12.257102
10.024204
8.244582
6.8511834
5.8037862
5.0857493
4.7057807
4.7085399
5.0992263
6.1357149
7.9794038
10.59678
14.336455
15.638642
15.210469
13.675492
9.5507626
4.7876667
2.4810353
1.4166338
0.90541509
0.62654562
0.46749852
0.3721717
0.30688623
0.25095066
0.20311191
0.16612223
0.13624344
0.11381683
0.10119004
0.091311649
4529381.2
731818.67
224676.22
95310.929
48498.856
27624.179
16965.097
10988.455
7402.2328
5137.8525
3650.5998
2642.7983
1942.4802
1445.7012
1087.2361
824.85008
630.45776
484.95282
375.07984
291.48489
227.46856
178.16997
140.02164
110.37882
87.263063
69.182436
55.003611
43.859908
35.084495
28.161534
22.690313
18.358945
14.925191
12.202593
10.050379
8.3681169
7.0937459
6.1999854
5.6960286
5.6373491
6.0454154
7.1587396
9.1598554
11.863456
15.460069
16.779281
16.32558
14.737663
10.55391
5.4785835
2.8910458
1.6370867
1.0179757
0.69073824
0.51481499
0.4138247
0.33575268
0.26828892
0.21400631
0.1752425
0.14521422
0.12384945
0.10737083
0.097230358
0.088472044
4529447.3
731829.36
224679.48
95312.291
48499.528
27624.538
16965.29
10988.55
7402.2634
5137.8372
3650.5488
2642.7175
1942.3729
1445.5693
1087.0804
824.67096
630.25524
484.72681
374.83033
291.21207
227.17299
177.85274
139.68455
110.02457
86.895467
68.806584
54.626064
43.488822
34.729689
27.834481
22.404068
18.128043
14.765611
12.132187
10.090462
8.5557742
7.4797125
6.8609528
6.753444
7.1904098
8.390347
10.5155
13.27725
16.679281
18.00628
17.518356
15.856865
11.573987
6.2417569
3.3431738
1.8687909
1.1372424
0.76980933
0.57460751
0.45199401
0.35493341
0.28305037
0.23190767
0.1949359
0.16262934
0.13561537
0.11578258
0.10150922
0.093196675
0.085627931
4529517.1
731840.53
224682.89
95313.715
48500.23
27624.911
16965.488
10988.646
7402.2917
5137.8171
3650.4911
2642.6284
1942.2559
1445.4263
1086.9123
824.47824
630.03799
484.48505
374.56414
290.92176
226.85928
177.51689
139.3286
109.6515
86.509457
68.413253
54.232703
43.104638
34.366037
27.505091
22.125321
17.919346
14.649568
12.139132
10.272494
8.9762367
8.2304837
8.0761195
8.5434708
9.8263267
12.040925
14.843322
18.020119
19.335023
18.802519
17.043678
12.630138
7.0776915
3.8396541
2.1277611
1.2850485
0.87634846
0.6475518
0.49246201
0.38106966
0.30948324
0.25831605
0.21428798
0.17486524
0.14522376
0.12380161
0.1078749
0.096399088
0.0894588
0.083516174
4529588.1
731851.96
224686.4
95315.189
48500.955
27625.298
16965.696
10988.748
7402.3249
5137.801
3650.4371
2642.543
1942.1429
1445.288
1086.75
824.29253
629.82934
484.2538
374.31075
290.64694
226.56416
177.20323
138.99896
109.30946
86.159917
68.062701
53.889578
42.779735
34.072964
27.260751
21.950209
17.84113
14.711032
12.401591
10.809435
9.8902076
9.6623974
10.138024
11.466633
13.753805
16.581399
19.53018
20.781499
20.192297
18.306472
13.727437
7.9858107
4.3927486
2.4240499
1.4600748
0.99309359
0.71900729
0.53396069
0.41623065
0.34137037
0.28106344
0.22745344
0.18732026
0.15792605
0.13542497
0.11742592
0.1038619
0.093798702
0.08768345
0.081968256
4529661.3
731863.83
224690.03
95316.718
48501.714
27625.708
16965.924
10988.868
7402.3762
5137.8046
3650.4049
2642.4821
1942.0577
1445.1812
1086.6233
824.14725
629.66645
484.07424
374.11558
290.43754
226.34236
176.97151
138.76066
109.06907
85.923292
67.837475
53.685434
42.609422
33.953793
27.217005
22.01807
18.070589
15.1643
13.158981
11.97925
11.613683
12.048317
13.366822
15.669231
18.515649
21.253008
22.356074
21.697419
19.655473
14.870592
8.9711604
5.0054177
2.7592352
1.654696
1.1181065
0.79885225
0.59314489
0.46571714
0.3770257
0.30271121
0.24554449
0.20636032
0.17488474
0.14764923
0.12565223
0.10903079
0.097828811
0.08971984
0.084650656
0.080431219
4529737.4
731876.13
224693.81
95318.31
48502.512
27626.15
16966.18
10989.018
7402.46
5137.8443
3650.4134
2642.4672
1942.0247
1445.1335
1086.5636
824.07748
629.5884
483.98968
374.02643
290.34603
226.25123
176.88418
138.68156
109.00398
85.879966
67.826481
53.721704
42.713346
34.152899
27.548475
22.530349
18.826238
16.24745
14.678964
14.07246
14.383371
15.606631
17.854793
20.672681
23.228768
24.09616
23.325841
21.103539
16.06846
10.032476
5.6816459
3.1338351
1.8721729
1.2578635
0.89619589
0.66700155
0.52017652
0.40993424
0.3265329
0.26948598
0.22771498
0.18883842
0.15727164
0.13443857
0.11769224
0.10496855
0.095071328
0.087857492
0.08328385
0.079348124
4529816
731888.84
224697.73
95319.97
48503.356
27626.629
16966.472
10989.206
7402.5854
5137.9307
3650.4748
2642.5127
1942.0604
1445.1639
1086.5923
824.10769
629.6231
484.03196
374.07969
290.41419
226.33896
176.99722
138.82708
109.19114
86.120576
68.136005
54.120506
43.228961
34.822486
28.420873
23.6695
20.315499
18.191528
17.201717
17.297614
18.284148
20.375963
23.115415
25.505182
26.034952
25.105597
22.642548
17.319214
11.15946
6.4193636
3.5502043
2.1150543
1.4164911
1.0081984
0.7498158
0.57653056
0.44839395
0.35904591
0.29943905
0.24854987
0.20385106
0.17137778
0.1482114
0.12827533
0.1124123
0.10023653
0.091867691
0.085810125
0.081886589
0.07844412
4529897.8
731902.1
224701.79
95321.705
48504.247
27627.147
16966.803
10989.434
7402.7557
5138.0677
3650.5938
2642.624
1942.1712
1445.2799
1086.7185
824.24852
629.78318
484.21615
374.29336
290.6635
226.63121
177.34119
139.2336
109.67381
86.696821
68.828703
54.959287
44.252121
36.079327
29.974708
25.600197
22.720549
21.182222
20.890011
21.581251
23.326752
25.839254
28.114928
28.175231
27.045903
24.199677
18.648017
12.347687
7.2201844
4.0116876
2.3888437
1.5951138
1.135286
0.84145908
0.64255613
0.49822576
0.40126992
0.33002744
0.26997403
0.22241243
0.18921276
0.16113812
0.13690725
0.1188215
0.10595262
0.096155976
0.089019083
0.083739425
0.080315282
0.0775861
4529983.7
731915.9
224706.02
95323.517
48505.186
27627.703
16967.169
10989.699
7402.9654
5138.2493
3650.7639
2642.7938
1942.3493
1445.4735
1086.9338
824.49197
630.06124
484.53594
374.66294
291.09225
227.13022
177.9239
139.91645
110.47752
87.647059
69.957502
56.307006
45.869203
38.028346
32.331714
28.453378
26.163465
25.296881
25.610589
26.817849
28.879985
30.783634
30.522973
29.115067
25.795311
20.047112
13.56389
8.0642231
4.5146823
2.6946061
1.7958001
1.2767374
0.94563668
0.71931976
0.55840338
0.44620186
0.36108407
0.29352907
0.246046
0.20817201
0.17461643
0.14763352
0.12908478
0.11457612
0.10290677
0.093888553
0.087522885
0.082759698
0.079649611
0.077037314
4530071.7
731930.11
224710.41
95325.399
48506.169
27628.292
16967.567
10989.997
7403.2122
5138.4728
3650.9821
2643.0195
1942.5925
1445.743
1087.2378
824.8388
630.46
484.99675
375.19744
291.71405
227.85556
178.7723
140.91169
111.64832
89.028771
71.593148
58.248788
48.179542
40.779304
35.601116
32.314436
30.66421
30.429027
31.052623
32.318763
33.625827
32.996816
31.2903
27.47079
21.506855
14.802814
8.9442138
5.0714634
3.0469131
2.0248946
1.4362596
1.0632458
0.80895639
0.62658877
0.49737278
0.39804334
0.3259905
0.27346193
0.22930738
0.19019076
0.16221104
0.14066918
0.12304228
0.10840698
0.098015214
0.090393674
0.085055285
0.08106828
0.07852742
0.076409215
4530163.2
731944.95
224714.98
95327.361
48507.205
27628.928
16968.009
10990.343
7403.5118
5138.7564
3651.2695
2643.3252
1942.9283
1446.1194
1087.6654
825.32846
631.02378
485.64828
375.95253
292.59131
228.87714
179.96474
142.30686
113.28443
90.951307
73.85538
60.911404
51.30865
44.439778
39.842835
37.147723
36.0229
36.090168
36.749925
36.73596
35.730684
33.477664
29.212371
22.98719
16.027059
9.8574623
5.6943311
3.4507587
2.2803832
1.6103081
1.1943561
0.91039506
0.7053695
0.55589497
0.44418081
0.36272524
0.30172937
0.2494641
0.20922536
0.17817688
0.15287282
0.13136035
0.11582943
0.10442227
0.095901338
0.088934031
0.084019128
0.080260867
0.077836063
0.075896558
4530257.7
731960.25
224719.71
95329.423
48508.314
27629.627
16968.516
10990.757
7403.889
5139.1288
3651.6589
2643.7482
1943.3988
1446.6506
1088.2703
826.02126
631.82008
486.56595
377.0124
293.81802
230.30001
181.61881
144.23395
115.53418
93.578378
76.908203
64.43311
55.351535
49.030977
44.959198
42.676129
41.733146
41.378125
40.434526
38.472627
35.753634
31.00284
24.455148
17.235399
10.833177
6.4086381
3.9159432
2.5664936
1.8052891
1.3441335
1.0281631
0.79604109
0.62534711
0.49764468
0.40513144
0.33223604
0.27560976
0.23263143
0.19828406
0.1668824
0.14338101
0.12575965
0.11249988
0.10108097
0.092904225
0.086753287
0.08258973
0.079360021
0.077302231
0.075523166
4530355.2
731976.06
224724.62
95331.583
48509.502
27630.401
16969.101
10991.26
7404.3673
5139.6172
3652.1819
2644.3247
1944.0455
1447.3832
1089.1053
826.97642
632.91527
487.82408
378.46029
295.48737
232.22861
183.85051
146.81715
118.51715
97.004099
80.808907
68.828832
60.235532
54.3464
50.570986
48.260847
46.506597
44.33618
41.638577
38.160901
32.822402
25.923866
18.4935
11.916154
7.2280335
4.4399673
2.8829081
2.0230039
1.5129731
1.1598018
0.89845143
0.70473148
0.56053317
0.45289244
0.36996278
0.30614922
0.25883637
0.2172897
0.18318467
0.15635701
0.13668267
0.11951854
0.1068887
0.097446713
0.090525597
0.085066506
0.081360057
0.0783977
0.076615835
0.075052789
4530457.6
731992.62
224729.78
95333.868
48510.782
27631.262
16969.778
10991.866
7404.9626
5140.2401
3652.8594
2645.0784
1944.8949
1448.3473
1090.204
828.23126
634.35068
489.46773
380.34364
297.64573
234.70008
186.67562
150.03761
122.17363
101.13188
85.432851
73.918429
65.657611
59.844394
55.651553
52.157578
48.710539
45.154718
40.774839
34.79668
27.534714
19.906419
13.135097
8.1450558
5.0225421
3.2421678
2.2758291
1.7066648
1.3096097
1.0161901
0.79875537
0.6343383
0.51012007
0.41401189
0.34257347
0.28577323
0.23994474
0.20291851
0.17462349
0.14926513
0.12985707
0.11502968
0.10433449
0.095218634
0.089097841
0.084114416
0.080733196
0.077981099
0.076328423
0.074842467
4530563.2
732009.78
224735.15
95336.276
48512.155
27632.216
16970.556
10992.584
7405.6857
5141.0095
3653.7044
2646.0235
1945.962
1449.5581
1091.5809
829.79816
636.13338
491.49433
382.64417
300.25144
237.64186
189.98023
153.72163
126.23498
105.53914
90.116512
78.736067
70.31998
63.884626
58.586491
53.819256
49.174891
43.75377
37.05227
29.363585
21.484294
14.471293
9.1514813
5.6879722
3.6739345
2.5764204
1.9253238
1.4760457
1.1498152
0.90652053
0.71973055
0.5760971
0.46657591
0.38335742
0.31841675
0.26606691
0.22702315
0.19275535
0.16402623
0.14069902
0.1247126
0.11070686
0.10073106
0.092763603
0.086981212
0.082471971
0.0795878
0.077239551
0.075800979
0.074428833
4530672.5
732027.54
224740.72
95338.801
48513.624
27633.261
16971.432
10993.412
7406.5342
5141.9212
3654.711
2647.1507
1947.2331
1450.9958
1093.2081
831.63896
638.21285
493.8381
385.27722
303.19542
240.91083
193.5739
157.61554
130.36674
109.79019
94.287508
82.561913
73.49754
66.180179
59.837546
53.823392
47.185185
39.650042
31.456308
23.268576
15.978785
10.31789
6.4985378
4.2077591
2.9267261
2.1664335
1.6619348
1.3042104
1.032498
0.81951068
0.65521039
0.52892781
0.43254882
0.35629317
0.29815858
0.25147896
0.21349852
0.1810097
0.15684002
0.13566117
0.11983176
0.10715991
0.098182497
0.090726052
0.085839993
0.081725487
0.079057432
0.076774156
0.075498174
0.074260721
4530784.7
732045.88
224746.5
95341.431
48515.168
27634.371
16972.371
10994.308
7407.4565
5142.9155
3655.8103
2648.382
1948.6208
1452.5631
1094.9781
833.63435
640.45543
496.34707
388.06666
306.27032
244.26098
197.16558
161.38118
134.1937
113.51124
97.677562
85.347376
75.407969
66.993299
59.18969
51.180818
42.713171
33.935946
25.372024
17.750121
11.704793
7.4767801
4.8421547
3.3262057
2.439994
1.8789264
1.484542
1.1777493
0.93488833
0.74746075
0.60262682
0.48969215
0.40201316
0.33404156
0.28081443
0.23652775
0.2031315
0.17378186
0.14950875
0.12936572
0.11585752
0.10406411
0.096073472
0.089318951
0.084721298
0.080914672
0.07843351
0.076397523
0.075249809
0.074075871
4530901
732061.46
224749.61
95341.942
48515.14
27634.295
16972.395
10994.485
7407.8076
5143.453
3656.5441
2649.322
1949.778
1453.9495
1096.606
835.51516
642.59777
498.75378
390.73047
309.16803
247.3463
200.36086
164.56934
137.21293
116.15649
99.712884
86.550227
75.541752
65.597748
56.013783
46.462324
36.97356
27.916643
19.866674
13.361573
8.657989
5.6149747
3.8164431
2.7758313
2.1362063
1.6888678
1.3410566
1.0685229
0.85666034
0.68995613
0.5589078
0.45645489
0.3776287
0.31440812
0.26541634
0.22552053
0.19327539
0.16461821
0.14351802
0.12518361
0.11230059
0.10135508
0.093835532
0.087447627
0.083436437
0.079987195
0.077863674
0.075960958
0.074935708
0.073857964
4531685.4
732195.54
224794.75
95363.339
48527.293
27642.09
16977.87
10998.624
7411.1404
5146.2908
3659.0827
2651.692
1952.0707
1456.2311
1098.9247
837.90477
645.07821
501.32977
393.38812
311.86998
250.02601
202.91747
166.8652
139.07667
117.40206
100.12323
85.79496
73.275278
61.788804
50.890708
40.478871
30.768666
22.187367
15.17501
9.9737403
6.4978232
4.3839823
3.1550596
2.4121628
1.9051336
1.5212404
1.2218264
0.98293881
0.790327
0.63860286
0.52020798
0.42721858
0.35432434
0.29681718
0.25180982
0.21353388
0.18463971
0.15883307
0.13816921
0.12065641
0.10907059
0.098841129
0.092244557
0.086604514
0.082750731
0.079497553
0.077537783
0.075772712
0.074694094
0.073762295
4531684.6
732191.85
224791.77
95361.154
48525.803
27641.101
16977.254
10998.303
7411.0691
5146.4414
3659.4388
2652.2445
1952.8144
1457.1616
1100.0361
839.18654
646.51113
502.88151
395.00797
313.48343
251.53019
204.17971
167.72995
139.34659
116.80601
98.371083
82.724517
68.912813
56.334463
44.73549
34.174023
24.924322
17.319784
11.561456
7.5910621
5.0938829
3.6164226
2.7350422
2.1573707
1.7333081
1.3992444
1.1264707
0.90584437
0.73201084
0.59535445
0.48696931
0.40116759
0.33477524
0.28095206
0.23905015
0.20436617
0.17667727
0.1514332
0.13294539
0.11681686
0.10627751
0.096807822
0.090621128
0.084948335
0.081595901
0.078673332
0.076900853
0.07537514
0.074506529
0.073646287
4531684.8
732191.96
224791.87
95361.297
48525.989
27641.335
16977.541
10998.649
7411.4807
5146.9245
3659.999
2652.8864
1953.5402
1457.9699
1100.9198
840.12968
647.48621
503.84541
395.89858
314.21782
251.997
204.23189
167.16714
137.95911
114.43354
94.938241
78.260468
63.584574
50.462899
38.769919
28.614933
20.207196
13.702684
9.0678257
6.0418997
4.2097061
3.1297962
2.4537341
1.9751941
1.5997158
1.2930663
1.0452987
0.84666844
0.68660565
0.55921783
0.45871004
0.37936022
0.31711453
0.26727505
0.22844905
0.19504508
0.16994996
0.14681395
0.1291724
0.11373001
0.10378345
0.094726864
0.089080395
0.084241898
0.081188481
0.07838678
0.076634515
0.075141148
0.074302056
0.07355125
4531684.9
732192.03
224791.92
95361.353
48526.062
27641.429
16977.66
10998.796
7411.6596
5147.138
3660.2491
2653.173
1953.8601
1458.3152
1101.2756
840.47137
647.77618
504.02898
395.89885
313.92809
251.28773
202.96033
165.20373
135.19815
110.81868
90.493853
73.119766
58.001508
44.794246
33.420913
23.957091
16.493204
11.013747
7.307583
5.0011133
3.6405712
2.8180502
2.2622801
1.8383167
1.4950685
1.2141179
0.98342605
0.79559976
0.6461356
0.52840066
0.43473098
0.36018818
0.30243599
0.25524446
0.21882212
0.18798268
0.16401031
0.14154381
0.12516844
0.1107328
0.10176518
0.093382241
0.088244697
0.083294529
0.080385229
0.077830258
0.076385795
0.075012445
0.074217393
0.073487259
4531686.1
732192.12
224791.91
95361.319
48526.019
27641.38
16977.605
10998.738
7411.5979
5147.073
3660.1789
2653.0932
1953.7621
1458.1844
1101.0891
840.19538
647.3632
503.41581
395.00641
312.6657
249.55568
200.66009
162.25367
131.55485
106.50112
85.604882
67.856436
52.645103
39.674672
28.859107
20.199753
13.661886
9.0775216
6.1175401
4.3337014
3.2744735
2.5997513
2.1132129
1.7271062
1.4081907
1.1435591
0.92759168