/*--------------------------------*- C++ -*----------------------------------*\
  =========                 |
  \\      /  F ield         | OpenFOAM: The Open Source CFD Toolbox
   \\    /   O peration     | Website:  https://openfoam.org
    \\  /    A nd           | Version:  13
     \\/     M anipulation  |
\*---------------------------------------------------------------------------*/
FoamFile
{
    format      ascii;
    class       volScalarField;
    location    "48.998914";
    object      pPrime2Mean;
}
// * * * * * * * * * * * * * * * * * * * * * * * * * * * * * * * * * * * * * //

dimensions      [0 4 -4 0 0 0 0];

internalField   nonuniform List<scalar> 
17140
(
6356.3265
6356.3266
6356.3265
6356.3262
6356.3257
6356.3249
6356.3237
6356.3221
6356.32
6356.3172
6356.3137
6356.3092
6356.3035
6356.2963
6356.2873
6356.2759
6356.2617
6356.2439
6356.2216
6356.1937
6356.1587
6356.1148
6356.0597
6355.9903
6355.903
6355.7929
6355.6541
6355.4788
6355.2578
6354.9794
6354.6293
6354.1898
6353.6396
6352.9528
6352.0984
6351.0393
6349.7316
6348.1241
6346.1569
6343.7615
6340.8594
6337.362
6333.1695
6328.17
6322.2393
6315.2395
6307.0191
6297.4122
6286.2374
6273.2973
6258.3773
6241.2447
6221.6479
6199.3161
6173.9567
6145.2545
6112.8671
6076.4268
6035.5287
5989.743
5938.5904
5881.5826
5818.1493
5747.7355
5669.67
6356.4812
6356.4813
6356.4812
6356.4809
6356.4803
6356.4795
6356.4783
6356.4767
6356.4746
6356.4718
6356.4682
6356.4637
6356.458
6356.4508
6356.4417
6356.4303
6356.4161
6356.3982
6356.3759
6356.348
6356.313
6356.2692
6356.2142
6356.1449
6356.0578
6355.948
6355.8095
6355.6347
6355.4143
6355.1366
6354.7872
6354.3486
6353.7993
6353.1134
6352.2599
6351.2016
6349.8948
6348.2881
6346.3218
6343.9275
6341.0267
6337.531
6333.3404
6328.3434
6322.4155
6315.4192
6307.2028
6297.6006
6286.4312
6273.4972
6258.5841
6241.4594
6221.8718
6199.5504
6174.2026
6145.5135
6113.1407
6076.7164
6035.8366
5990.0716
5938.9431
5881.9624
5818.5598
5748.1802
5670.1479
6356.8636
6356.8637
6356.8636
6356.8633
6356.8627
6356.8619
6356.8607
6356.8591
6356.857
6356.8542
6356.8507
6356.8462
6356.8405
6356.8333
6356.8243
6356.813
6356.7989
6356.7812
6356.759
6356.7313
6356.6965
6356.653
6356.5983
6356.5295
6356.443
6356.3338
6356.1961
6356.0224
6355.8031
6355.5267
6355.1789
6354.7419
6354.1943
6353.5102
6352.6585
6351.602
6350.2969
6348.692
6346.7279
6344.3361
6341.4386
6337.9467
6333.761
6328.7698
6322.849
6315.8611
6307.6548
6298.0641
6286.9079
6273.9889
6259.0929
6241.9878
6222.4226
6200.1268
6174.8081
6146.1517
6113.8155
6077.4321
6036.5978
5990.8841
5939.8128
5882.8966
5819.5664
5749.2683
5671.3167
6357.4865
6357.4866
6357.4865
6357.4862
6357.4856
6357.4848
6357.4836
6357.482
6357.48
6357.4772
6357.4738
6357.4693
6357.4637
6357.4566
6357.4477
6357.4366
6357.4226
6357.4051
6357.3833
6357.3559
6357.3216
6357.2785
6357.2244
6357.1564
6357.0707
6356.9626
6356.8262
6356.6538
6356.4363
6356.1618
6355.8161
6355.3815
6354.8364
6354.1548
6353.3056
6352.2516
6350.9493
6349.3474
6347.3868
6344.9993
6342.1069
6338.6215
6334.4436
6329.4619
6323.5526
6316.5784
6308.3883
6298.8163
6287.6815
6274.7868
6259.9186
6242.8454
6223.3169
6201.0629
6175.7916
6147.1886
6114.9122
6078.5957
6037.8358
5992.205
5941.2266
5884.414
5821.2002
5751.0341
5673.213
6358.3628
6358.3628
6358.3627
6358.3624
6358.3619
6358.361
6358.3599
6358.3583
6358.3562
6358.3536
6358.3501
6358.3457
6358.3402
6358.3332
6358.3245
6358.3135
6358.2997
6358.2825
6358.2609
6358.2339
6358.2001
6358.1577
6358.1043
6358.0372
6357.9525
6357.8457
6357.7108
6357.5404
6357.3249
6357.0529
6356.7099
6356.2782
6355.7362
6355.0578
6354.212
6353.1615
6351.863
6350.2654
6348.3099
6345.9286
6343.0438
6339.5676
6335.4007
6330.4324
6324.5392
6317.5842
6309.4166
6299.8707
6288.7657
6275.9053
6261.0763
6244.0481
6224.5712
6202.376
6177.1714
6148.6435
6116.4513
6080.2285
6039.5733
5994.0588
5943.2105
5886.5435
5823.4932
5753.5121
5675.875
6359.5032
6359.5033
6359.5031
6359.5028
6359.5023
6359.5015
6359.5003
6359.4988
6359.4967
6359.4941
6359.4907
6359.4864
6359.4809
6359.4741
6359.4654
6359.4546
6359.4411
6359.4242
6359.403
6359.3764
6359.3431
6359.3014
6359.2489
6359.1828
6359.0994
6358.9941
6358.8611
6358.6928
6358.48
6358.211
6357.8713
6357.4431
6356.9049
6356.2305
6355.3889
6354.343
6353.0495
6351.4578
6349.5092
6347.1362
6344.2614
6340.7972
6336.6449
6331.6941
6325.8219
6318.8918
6310.7534
6301.2412
6290.175
6277.3591
6262.5813
6245.6119
6226.2023
6204.0838
6178.9661
6150.5361
6118.4534
6082.3527
6041.8335
5996.4706
5945.792
5889.3149
5826.4778
5756.7381
5679.3422
6360.9197
6360.9197
6360.9196
6360.9193
6360.9187
6360.9179
6360.9168
6360.9152
6360.9132
6360.9106
6360.9072
6360.903
6360.8976
6360.8909
6360.8824
6360.8718
6360.8585
6360.8419
6360.8211
6360.795
6360.7624
6360.7214
6360.6699
6360.605
6360.5231
6360.4197
6360.2889
6360.1232
6359.9134
6359.6478
6359.312
6358.888
6358.3542
6357.6846
6356.8481
6355.8079
6354.5208
6352.9366
6350.9969
6348.6344
6345.7722
6342.3231
6338.189
6333.2601
6327.4139
6320.5147
6312.4123
6302.9419
6291.9239
6279.1635
6264.4495
6247.5534
6228.2276
6206.2044
6181.1946
6152.8862
6120.9395
6084.9905
6044.6405
5999.4664
5948.9993
5892.7588
5830.1876
5760.7487
5683.655
6362.6251
6362.6251
6362.625
6362.6247
6362.6241
6362.6233
6362.6221
6362.6206
6362.6186
6362.616
6362.6127
6362.6086
6362.6033
6362.5967
6362.5884
6362.578
6362.565
6362.5488
6362.5284
6362.503
6362.4711
6362.431
6362.3806
6362.3172
6362.237
6362.1357
6362.0073
6361.8445
6361.6381
6361.3764
6361.0447
6360.6254
6360.0967
6359.4326
6358.6022
6357.5688
6356.2895
6354.7145
6352.7855
6350.4358
6347.5889
6344.1581
6340.046
6335.1434
6329.3287
6322.4665
6314.4074
6304.9872
6294.0274
6281.3339
6266.6971
6249.8895
6230.6647
6208.7564
6183.8765
6155.7142
6123.9312
6088.165
6048.0189
6003.0729
5952.8615
5896.907
5834.6569
5765.5809
5688.8539
6364.6347
6364.6347
6364.6346
6364.6342
6364.6336
6364.6328
6364.6317
6364.6302
6364.6282
6364.6257
6364.6224
6364.6183
6364.6132
6364.6067
6364.5986
6364.5885
6364.5758
6364.56
6364.5401
6364.5153
6364.4842
6364.4452
6364.3961
6364.3341
6364.2558
6364.1567
6364.0309
6363.8712
6363.6683
6363.4106
6363.0834
6362.669
6362.1458
6361.4878
6360.6642
6359.6387
6358.3686
6356.8042
6354.888
6352.5533
6349.7244
6346.3152
6342.2291
6337.3576
6331.5797
6324.761
6316.7527
6307.3917
6296.5003
6283.886
6269.3402
6252.6371
6233.5314
6211.7583
6187.0313
6159.041
6127.4507
6091.8997
6051.9942
6007.3173
5957.4078
5901.7911
5839.9201
5771.2725
5694.9806
6366.9646
6366.9646
6366.9644
6366.964
6366.9635
6366.9627
6366.9615
6366.96
6366.9581
6366.9556
6366.9524
6366.9484
6366.9434
6366.9371
6366.9292
6366.9194
6366.907
6366.8916
6366.8723
6366.8482
6366.818
6366.78
6366.7321
6366.6717
6366.5952
6366.4982
6366.3751
6366.2184
6366.0189
6365.7651
6365.4424
6365.033
6364.5154
6363.8639
6363.0478
6362.031
6360.7713
6359.2191
6357.3174
6355
6352.1919
6348.8077
6344.7516
6339.916
6334.1807
6327.412
6319.4624
6310.1698
6299.3578
6286.8354
6272.3954
6255.8133
6236.8456
6215.2291
6190.679
6162.8876
6131.5201
6096.2183
6056.5918
6012.2277
5962.6692
5907.4448
5846.0138
5777.863
5702.0774
6369.6316
6369.6315
6369.6313
6369.6309
6369.6304
6369.6295
6369.6284
6369.6269
6369.625
6369.6226
6369.6195
6369.6156
6369.6107
6369.6046
6369.5969
6369.5873
6369.5753
6369.5603
6369.5416
6369.5181
6369.4886
6369.4516
6369.4048
6369.3458
6369.271
6369.176
6369.0552
6368.9012
6368.7048
6368.4546
6368.136
6367.7314
6367.2196
6366.5748
6365.7666
6364.7594
6363.5109
6361.9724
6360.0869
6357.7891
6355.0046
6351.6489
6347.627
6342.8322
6337.1453
6330.4336
6322.5507
6313.3361
6302.615
6290.1977
6275.8787
6259.4352
6240.6254
6219.1879
6194.8398
6167.2753
6136.1623
6101.1457
6061.8392
6017.8341
5968.6782
5913.9031
5852.975
5785.3914
5710.1872
6372.6511
6372.651
6372.6508
6372.6504
6372.6498
6372.649
6372.6479
6372.6465
6372.6446
6372.6422
6372.6391
6372.6353
6372.6305
6372.6245
6372.617
6372.6076
6372.5959
6372.5813
6372.563
6372.54
6372.5112
6372.475
6372.4292
6372.3713
6372.2979
6372.2046
6372.0856
6371.9339
6371.7402
6371.4931
6371.1782
6370.7783
6370.272
6369.634
6368.8342
6367.8371
6366.601
6365.0774
6363.2099
6360.9339
6358.1759
6354.8523
6350.8689
6346.1201
6340.4875
6333.8399
6326.0322
6316.9058
6306.2874
6293.9891
6279.8072
6263.5206
6244.8894
6223.6543
6199.5343
6172.2263
6141.4014
6106.7082
6067.765
6024.1669
5975.4666
5921.1994
5860.84
5793.8981
5719.3528
6376.0363
6376.0362
6376.036
6376.0356
6376.035
6376.0342
6376.0331
6376.0317
6376.0298
6376.0275
6376.0245
6376.0207
6376.016
6376.0101
6376.0028
6375.9936
6375.9821
6375.9678
6375.9498
6375.9273
6375.899
6375.8634
6375.8184
6375.7614
6375.689
6375.5969
6375.4794
6375.3295
6375.138
6374.8935
6374.5822
6374.1866
6373.6858
6373.0549
6372.2639
6371.2776
6370.0547
6368.5473
6366.6996
6364.4479
6361.7194
6358.4315
6354.4912
6349.7935
6344.2216
6337.6455
6329.922
6320.8941
6310.3909
6298.2263
6284.1983
6268.0877
6249.6567
6228.6481
6204.7837
6177.7632
6147.2617
6112.932
6074.3966
6031.2555
5983.0663
5929.369
5869.6463
5803.4238
5729.617
6379.7986
6379.7985
6379.7983
6379.7979
6379.7974
6379.7966
6379.7955
6379.794
6379.7922
6379.7899
6379.7869
6379.7832
6379.7786
6379.7728
6379.7656
6379.7565
6379.7453
6379.7311
6379.7134
6379.6912
6379.6633
6379.6282
6379.5837
6379.5273
6379.4557
6379.3646
6379.2483
6379.0998
6378.9102
6378.6683
6378.3602
6377.969
6377.4739
6376.8503
6376.0685
6375.0938
6373.8852
6372.3953
6370.5694
6368.3444
6365.6486
6362.4004
6358.5077
6353.8668
6348.3621
6341.8654
6334.2355
6325.3175
6314.9426
6302.9267
6289.0699
6273.1551
6254.9467
6234.19
6210.6099
6183.9096
6153.7685
6119.8436
6081.7628
6039.1306
5991.5105
5938.446
5879.4314
5814.0081
5741.0213
6383.9487
6383.9486
6383.9484
6383.948
6383.9474
6383.9466
6383.9456
6383.9442
6383.9424
6383.9401
6383.9372
6383.9335
6383.929
6383.9233
6383.9161
6383.9072
6383.8961
6383.8821
6383.8647
6383.8427
6383.8151
6383.7803
6383.7362
6383.6804
6383.6094
6383.519
6383.4037
6383.2565
6383.0687
6382.8293
6382.5246
6382.1379
6381.6488
6381.033
6380.2611
6379.2987
6378.1056
6376.6349
6374.8328
6372.6372
6369.9774
6366.7729
6362.9327
6358.3545
6352.9241
6346.5152
6338.9889
6330.1926
6319.9596
6308.1082
6294.4407
6278.7422
6260.7796
6240.3013
6217.0354
6190.6891
6160.9467
6127.4703
6089.8925
6047.8231
6000.831
5948.4658
5890.2321
5825.6908
5753.6081
6388.4983
6388.4982
6388.498
6388.4976
6388.4971
6388.4963
6388.4952
6388.4938
6388.4921
6388.4898
6388.4869
6388.4833
6388.4788
6388.4732
6388.4661
6388.4573
6388.4463
6388.4325
6388.4152
6388.3935
6388.3661
6388.3316
6388.2879
6388.2324
6388.162
6388.0723
6387.958
6387.8122
6387.6262
6387.3894
6387.0884
6386.7065
6386.2239
6385.6162
6384.8549
6383.9059
6382.7294
6381.2797
6379.5035
6377.3402
6374.7199
6371.5634
6367.7808
6363.2714
6357.9229
6351.6109
6344.1988
6335.5364
6325.4596
6313.789
6300.3294
6284.8684
6267.1759
6247.0035
6224.0827
6198.1257
6168.8224
6135.8396
6098.8149
6057.3637
6011.0613
5959.4629
5902.0852
5838.511
5767.4184
6393.4614
6393.4614
6393.4612
6393.4608
6393.4602
6393.4595
6393.4584
6393.457
6393.4553
6393.453
6393.4502
6393.4466
6393.4422
6393.4366
6393.4296
6393.4208
6393.4099
6393.3961
6393.3789
6393.3573
6393.3301
6393.2957
6393.2523
6393.1972
6393.1272
6393.0382
6392.9248
6392.7804
6392.5965
6392.3624
6392.0652
6391.6885
6391.2126
6390.6138
6389.8637
6388.9289
6387.7705
6386.3435
6384.5958
6382.4676
6379.8905
6376.7864
6373.0669
6368.6329
6363.3741
6357.1685
6349.8816
6341.366
6331.4601
6319.9873
6306.7549
6291.5536
6274.1563
6254.3178
6231.7747
6206.2442
6177.4218
6144.9788
6108.5591
6067.7833
6022.2336
5971.4716
5915.0269
5852.5076
5782.4932
6398.8534
6398.8533
6398.8531
6398.8528
6398.8522
6398.8515
6398.8504
6398.8491
6398.8473
6398.8451
6398.8422
6398.8387
6398.8342
6398.8286
6398.8216
6398.8129
6398.8019
6398.7882
6398.771
6398.7494
6398.7222
6398.6879
6398.6446
6398.5897
6398.5201
6398.4316
6398.3191
6398.176
6397.9941
6397.7629
6397.4695
6397.0981
6396.6293
6396.0397
6395.3016
6394.3822
6393.2434
6391.841
6390.1241
6388.0342
6385.504
6382.4568
6378.806
6374.4544
6369.2937
6363.2042
6356.0541
6347.6986
6337.9789
6326.7213
6313.7363
6298.8175
6281.7409
6262.266
6240.1347
6215.0695
6186.7703
6154.9156
6119.154
6079.1119
6034.3797
5984.5255
5929.0932
5867.7186
5798.8725
6404.6899
6404.6899
6404.6897
6404.6893
6404.6888
6404.688
6404.6869
6404.6856
6404.6838
6404.6816
6404.6787
6404.6751
6404.6706
6404.6649
6404.6578
6404.649
6404.6379
6404.6241
6404.6067
6404.5849
6404.5576
6404.5232
6404.4798
6404.4249
6404.3555
6404.2674
6404.1557
6404.0139
6403.8338
6403.6054
6403.316
6402.95
6402.4885
6401.9087
6401.1832
6400.2802
6399.1624
6397.7867
6396.1033
6394.0547
6391.5752
6388.5898
6385.0135
6380.7514
6375.6973
6369.7341
6362.7326
6354.5509
6345.0333
6334.0093
6321.2922
6306.6791
6289.9502
6270.8702
6249.1859
6224.6249
6196.8942
6165.6772
6130.6276
6091.3798
6047.5308
5998.6579
5944.3195
5884.1818
5816.5958
6410.9832
6410.9831
6410.9829
6410.9826
6410.9821
6410.9813
6410.9802
6410.9789
6410.9771
6410.9748
6410.9719
6410.9682
6410.9636
6410.9579
6410.9507
6410.9417
6410.9305
6410.9164
6410.8988
6410.8768
6410.8493
6410.8146
6410.771
6410.7161
6410.6468
6410.5591
6410.4482
6410.3076
6410.1295
6409.904
6409.6187
6409.2583
6408.8045
6408.2348
6407.5229
6406.6375
6405.5424
6404.1955
6402.548
6400.544
6398.1192
6395.2004
6391.7048
6387.5393
6382.6007
6376.7742
6369.9336
6361.94
6352.6409
6341.8688
6329.4408
6315.1577
6298.8048
6280.1517
6258.9504
6234.9353
6207.819
6177.2894
6143.0083
6104.6153
6061.7176
6013.9011
5960.7402
5901.9335
5835.7013
6417.7425
6417.7425
6417.7423
6417.742
6417.7414
6417.7406
6417.7396
6417.7382
6417.7364
6417.7341
6417.7311
6417.7274
6417.7228
6417.7169
6417.7096
6417.7005
6417.6891
6417.6749
6417.6572
6417.635
6417.6072
6417.5725
6417.5288
6417.474
6417.4049
6417.3178
6417.2078
6417.0688
6416.893
6416.6707
6416.39
6416.0359
6415.5905
6415.032
6414.3347
6413.4684
6412.3977
6411.0817
6409.473
6407.517
6405.151
6402.3038
6398.8949
6394.8338
6390.0196
6384.3406
6377.6734
6369.8823
6360.8181
6350.3169
6338.1996
6324.2719
6308.3241
6290.1307
6269.4505
6246.0242
6219.5683
6189.7785
6156.322
6118.8472
6076.9702
6030.2872
5978.3889
5921.0096
5856.2256
6424.9732
6424.9732
6424.973
6424.9727
6424.9722
6424.9714
6424.9703
6424.969
6424.9672
6424.9649
6424.9619
6424.9582
6424.9536
6424.9477
6424.9404
6424.9313
6424.92
6424.9058
6424.8881
6424.866
6424.8384
6424.8039
6424.7606
6424.7063
6424.638
6424.552
6424.4436
6424.3068
6424.1341
6423.9159
6423.6407
6423.294
6422.8582
6422.3123
6421.6313
6420.786
6419.7421
6418.4596
6416.8926
6414.988
6412.6851
6409.9149
6406.5991
6402.65
6397.9695
6392.4488
6385.9677
6378.3937
6369.5813
6359.3702
6347.5861
6334.04
6318.5265
6300.8276
6280.7083
6257.9139
6232.1664
6203.1687
6170.5954
6134.1032
6093.3184
6047.8473
5997.2983
5941.4445
5878.2037
6432.6795
6432.6794
6432.6793
6432.679
6432.6785
6432.6778
6432.6767
6432.6754
6432.6737
6432.6714
6432.6686
6432.665
6432.6605
6432.6548
6432.6477
6432.6389
6432.6278
6432.614
6432.5968
6432.5752
6432.5483
6432.5146
6432.4724
6432.4194
6432.3527
6432.2688
6432.163
6432.0295
6431.861
6431.6482
6431.3799
6431.042
6430.6175
6430.0863
6429.424
6428.6022
6427.5876
6426.3417
6424.8198
6422.9707
6420.7356
6418.0478
6414.8319
6411.0027
6406.4652
6401.1138
6394.8315
6387.4894
6378.9454
6369.044
6357.6166
6344.4781
6329.4308
6312.2628
6292.7445
6270.6252
6245.636
6217.4841
6185.8537
6150.4106
6110.7909
6066.6114
6017.4999
5963.2714
5901.6688
6440.8673
6440.8673
6440.8672
6440.8669
6440.8664
6440.8658
6440.8648
6440.8636
6440.862
6440.8599
6440.8572
6440.8539
6440.8496
6440.8443
6440.8376
6440.8293
6440.8189
6440.8058
6440.7895
6440.7691
6440.7434
6440.7113
6440.6709
6440.6201
6440.5561
6440.4753
6440.3732
6440.2443
6440.0813
6439.8754
6439.6157
6439.2887
6438.8778
6438.3634
6437.7223
6436.9268
6435.9449
6434.7391
6433.2664
6431.4771
6429.315
6426.7158
6423.6066
6419.9055
6415.5207
6410.3495
6404.2786
6397.1826
6388.9238
6379.3532
6368.3054
6355.6029
6341.055
6324.455
6305.5771
6284.1796
6259.9976
6232.7475
6202.1218
6167.7957
6129.4155
6086.6088
6039.0239
5986.5222
5926.652
6449.5469
6449.5468
6449.5467
6449.5465
6449.5461
6449.5455
6449.5446
6449.5435
6449.5421
6449.5402
6449.5378
6449.5348
6449.5309
6449.5261
6449.52
6449.5124
6449.5029
6449.4909
6449.4758
6449.4569
6449.4331
6449.4031
6449.3653
6449.3174
6449.2569
6449.1802
6449.083
6448.9598
6448.8037
6448.6061
6448.3566
6448.0419
6447.6464
6447.1513
6446.534
6445.768
6444.8222
6443.6606
6442.2414
6440.5173
6438.4338
6435.9295
6432.9345
6429.37
6425.1471
6420.167
6414.3196
6407.4842
6399.5297
6390.3101
6379.6673
6367.4314
6353.416
6337.4199
6319.2251
6298.5948
6275.2721
6248.9812
6219.4234
6186.2838
6149.2193
6107.8677
6061.899
6011.2277
5953.1833
6458.7321
6458.7321
6458.732
6458.7318
6458.7315
6458.731
6458.7302
6458.7293
6458.728
6458.7264
6458.7242
6458.7216
6458.7182
6458.7139
6458.7085
6458.7016
6458.693
6458.6822
6458.6686
6458.6514
6458.6296
6458.6019
6458.5669
6458.5223
6458.4656
6458.3934
6458.3016
6458.1847
6458.0363
6457.848
6457.6098
6457.3091
6456.931
6456.4573
6455.8664
6455.1328
6454.2266
6453.113
6451.7521
6450.0982
6448.0995
6445.697
6442.8239
6439.4043
6435.3529
6430.5745
6424.9637
6418.4061
6410.7738
6401.9276
6391.7176
6379.9771
6366.5277
6351.1736
6333.7039
6313.8888
6291.4788
6266.2062
6237.7814
6205.8994
6170.228
6130.4152
6086.1525
6037.4174
5981.2915
6468.4382
6468.4383
6468.4382
6468.438
6468.4377
6468.4373
6468.4367
6468.4358
6468.4347
6468.4333
6468.4314
6468.429
6468.426
6468.4222
6468.4173
6468.4112
6468.4034
6468.3936
6468.3812
6468.3654
6468.3454
6468.3199
6468.2875
6468.246
6468.193
6468.1253
6468.0388
6467.9285
6467.788
6467.6095
6467.3834
6467.0979
6466.7385
6466.288
6465.7257
6465.0272
6464.1637
6463.102
6461.8038
6460.2255
6458.3177
6456.0238
6453.28
6450.0138
6446.1438
6441.5791
6436.2204
6429.9569
6422.6664
6414.2186
6404.4666
6393.2519
6380.4022
6365.7297
6349.0291
6330.0783
6308.636
6284.4426
6257.2177
6226.6662
6192.4666
6154.2772
6111.8111
6065.1191
6011.0058
6478.677
6478.6771
6478.677
6478.6769
6478.6766
6478.6762
6478.6757
6478.6749
6478.6739
6478.6725
6478.6708
6478.6686
6478.6658
6478.6623
6478.6578
6478.6521
6478.6449
6478.6358
6478.6242
6478.6095
6478.5908
6478.5669
6478.5365
6478.4975
6478.4477
6478.3839
6478.3023
6478.1983
6478.0657
6477.8973
6477.6839
6477.4143
6477.0749
6476.6492
6476.1176
6475.4565
6474.6387
6473.6324
6472.401
6470.9032
6469.0917
6466.9129
6464.3062
6461.2027
6457.5252
6453.1881
6448.0965
6442.144
6435.2176
6427.1907
6417.9235
6407.2659
6395.0517
6381.1002
6365.2139
6347.1785
6326.7606
6303.7095
6277.7534
6248.6069
6215.9596
6179.479
6138.9008
6094.359
6042.3571
6489.4534
6489.4535
6489.4534
6489.4533
6489.453
6489.4527
6489.4521
6489.4514
6489.4504
6489.4491
6489.4474
6489.4453
6489.4425
6489.4391
6489.4347
6489.4292
6489.4223
6489.4135
6489.4023
6489.3882
6489.3703
6489.3475
6489.3185
6489.2815
6489.2343
6489.174
6489.097
6488.999
6488.8744
6488.7162
6488.5159
6488.2631
6487.9447
6487.5452
6487.0459
6486.4244
6485.6548
6484.7068
6483.5461
6482.1332
6480.4236
6478.3668
6475.9055
6472.9745
6469.5017
6465.4061
6460.5962
6454.9742
6448.4326
6440.8504
6432.0968
6422.0276
6410.4848
6397.2957
6382.2705
6365.2029
6345.8683
6324.0245
6299.4084
6271.7439
6240.7308
6206.046
6167.4482
6125.1644
6075.3784
6500.7649
6500.7649
6500.7649
6500.7647
6500.7645
6500.7641
6500.7635
6500.7628
6500.7618
6500.7605
6500.7588
6500.7566
6500.7539
6500.7505
6500.7462
6500.7407
6500.7338
6500.7252
6500.7143
6500.7005
6500.6832
6500.6612
6500.6334
6500.598
6500.5532
6500.4962
6500.4237
6500.3318
6500.2153
6500.0678
6499.8814
6499.6461
6499.3499
6498.978
6498.5126
6497.9326
6497.2134
6496.3267
6495.24
6493.9165
6492.3145
6490.3866
6488.0792
6485.3315
6482.0759
6478.2344
6473.7232
6468.4512
6462.3152
6455.203
6446.991
6437.543
6426.7089
6414.3246
6400.2087
6384.1635
6365.9729
6345.404
6322.2018
6296.0988
6266.8046
6234.0044
6197.4825
6157.5693
6110.1031
6512.6045
6512.6045
6512.6044
6512.6043
6512.604
6512.6036
6512.6031
6512.6023
6512.6013
6512.6
6512.5983
6512.5962
6512.5935
6512.5901
6512.5858
6512.5804
6512.5737
6512.5653
6512.5547
6512.5414
6512.5247
6512.5037
6512.4772
6512.4438
6512.4016
6512.3482
6512.2808
6512.1956
6512.0878
6511.9518
6511.78
6511.5634
6511.2905
6510.9474
6510.5175
6509.9808
6509.3143
6508.4915
6507.4824
6506.2527
6504.764
6502.9723
6500.8276
6498.2742
6495.2466
6491.6739
6487.479
6482.5751
6476.8668
6470.25
6462.6091
6453.8158
6443.7289
6432.193
6419.0362
6404.0696
6387.0864
6367.8626
6346.1516
6321.6935
6294.2062
6263.382
6229.0351
6191.6144
6146.5708
6524.9645
6524.9645
6524.9645
6524.9643
6524.964
6524.9636
6524.9631
6524.9624
6524.9614
6524.9601
6524.9585
6524.9565
6524.9539
6524.9507
6524.9466
6524.9415
6524.9352
6524.9272
6524.9172
6524.9048
6524.8891
6524.8695
6524.845
6524.8141
6524.7752
6524.7262
6524.6645
6524.5869
6524.4889
6524.3654
6524.2094
6524.0126
6523.7643
6523.4514
6523.0583
6522.5665
6521.9548
6521.1986
6520.2705
6519.1394
6517.7699
6516.1217
6514.1493
6511.7992
6509.012
6505.7234
6501.8608
6497.344
6492.0862
6485.991
6478.951
6470.847
6461.5468
6450.9044
6438.7578
6424.9283
6409.2183
6391.4132
6371.2746
6348.55
6322.9635
6294.2104
6262.1308
6227.3057
6184.8754
6537.8375
6537.8375
6537.8374
6537.8373
6537.837
6537.8367
6537.8362
6537.8355
6537.8347
6537.8335
6537.8321
6537.8303
6537.828
6537.8251
6537.8215
6537.8169
6537.8112
6537.8041
6537.7953
6537.7841
6537.7702
6537.7528
6537.7309
6537.7034
6537.6688
6537.6253
6537.5706
6537.5015
6537.4145
6537.3046
6537.1655
6536.9896
6536.7668
6536.485
6536.13
6535.6846
6535.1296
6534.4429
6533.5997
6532.5721
6531.3278
6529.8308
6528.0384
6525.9018
6523.3681
6520.3774
6516.8631
6512.7535
6507.9691
6502.4221
6496.0138
6488.6344
6480.1614
6470.4588
6459.3754
6446.7435
6432.3757
6416.0665
6397.5865
6376.6905
6353.1076
6326.5241
6296.783
6264.735
6225.0437
6551.219
6551.219
6551.219
6551.2188
6551.2186
6551.2184
6551.2179
6551.2174
6551.2167
6551.2158
6551.2146
6551.2131
6551.2112
6551.2088
6551.2059
6551.2021
6551.1974
6551.1915
6551.1842
6551.1749
6551.1632
6551.1486
6551.1301
6551.1068
6551.0773
6551.0402
6550.9932
6550.9338
6550.8585
6550.763
6550.6417
6550.4871
6550.2904
6550.0405
6549.7244
6549.3269
6548.8307
6548.2165
6547.4623
6546.5431
6545.4305
6544.0916
6542.4872
6540.575
6538.3062
6535.6269
6532.4781
6528.7955
6524.5081
6519.5363
6513.791
6507.1722
6499.5676
6490.8525
6480.887
6469.5155
6456.562
6441.8309
6425.1021
6406.1373
6384.6655
6360.343
6333.0526
6303.9433
6267.1189
6565.1039
6565.1039
6565.1039
6565.1038
6565.1036
6565.1034
6565.1031
6565.1027
6565.1022
6565.1015
6565.1007
6565.0996
6565.0982
6565.0965
6565.0943
6565.0916
6565.0881
6565.0837
6565.0781
6565.0711
6565.0622
6565.0508
6565.0362
6565.0177
6564.994
6564.9638
6564.9252
6564.8758
6564.8126
6564.7317
6564.628
6564.4949
6564.3243
6564.1066
6563.8302
6563.4821
6563.0472
6562.5087
6561.8476
6561.0421
6560.0671
6558.8925
6557.4851
6555.8068
6553.8142
6551.4605
6548.6941
6545.4589
6541.692
6537.323
6532.2723
6526.4504
6519.7565
6512.0775
6503.2864
6493.2407
6481.7773
6468.7121
6453.8344
6436.9102
6417.6627
6395.7471
6370.9808
6344.9728
6311.2325
6579.4879
6579.4879
6579.4879
6579.4878
6579.4877
6579.4876
6579.4874
6579.4871
6579.4868
6579.4864
6579.4859
6579.4852
6579.4843
6579.4833
6579.4819
6579.4802
6579.4779
6579.4751
6579.4714
6579.4666
6579.4604
6579.4523
6579.4417
6579.4278
6579.4098
6579.3862
6579.3556
6579.3159
6579.2643
6579.1974
6579.1108
6578.9987
6578.8543
6578.6691
6578.4335
6578.1364
6577.7654
6577.3059
6576.742
6576.0551
6575.2225
6574.2193
6573.0168
6571.5815
6569.8768
6567.8629
6565.4961
6562.7285
6559.506
6555.7673
6551.443
6546.4548
6540.7142
6534.1212
6526.5628
6517.9107
6508.0172
6496.7107
6483.7899
6469.0241
6452.155
6432.7832
6410.6572
6387.8985
6357.5206
6594.3609
6594.3608
6594.3608
6594.3607
6594.3607
6594.3606
6594.3605
6594.3603
6594.3602
6594.36
6594.3597
6594.3594
6594.359
6594.3585
6594.3578
6594.3569
6594.3558
6594.3542
6594.3521
6594.3493
6594.3455
6594.3402
6594.333
6594.3233
6594.3102
6594.2925
6594.269
6594.2379
6594.1968
6594.1431
6594.0728
6593.9813
6593.8629
6593.7108
6593.5171
6593.2728
6592.9679
6592.5905
6592.1276
6591.5629
6590.8781
6590.0528
6589.0624
6587.8795
6586.4743
6584.8146
6582.8649
6580.5852
6577.9306
6574.8497
6571.2837
6567.1663
6562.4222
6556.9658
6550.6995
6543.511
6535.2691
6525.8154
6514.969
6502.5091
6488.1726
6471.5379
6452.2491
6432.8721
6406.0911
6609.7074
6609.7074
6609.7073
6609.7073
6609.7072
6609.7071
6609.707
6609.707
6609.7069
6609.7068
6609.7067
6609.7066
6609.7064
6609.7061
6609.7058
6609.7055
6609.7049
6609.7041
6609.703
6609.7014
6609.699
6609.6956
6609.6908
6609.6839
6609.6744
6609.6612
6609.6434
6609.6195
6609.5878
6609.546
6609.4913
6609.4199
6609.3275
6609.2088
6609.0578
6608.8678
6608.6309
6608.3383
6607.979
6607.5405
6607.0088
6606.3671
6605.5963
6604.6754
6603.5818
6602.2911
6600.7757
6599.0042
6596.941
6594.545
6591.769
6588.5595
6584.8553
6580.5863
6575.6718
6570.015
6563.5083
6556.0148
6547.3706
6537.3697
6525.7639
6512.115
6495.9936
6480.1302
6456.942
6625.4995
6625.4995
6625.4994
6625.4993
6625.4992
6625.4991
6625.499
6625.4989
6625.4988
6625.4987
6625.4986
6625.4984
6625.4983
6625.4981
6625.4979
6625.4976
6625.4973
6625.4967
6625.4959
6625.4948
6625.4931
6625.4906
6625.487
6625.4819
6625.4748
6625.465
6625.4517
6625.4339
6625.4106
6625.3801
6625.3405
6625.2892
6625.2231
6625.1384
6625.031
6624.8966
6624.7299
6624.5239
6624.2709
6623.9625
6623.5881
6623.1357
6622.592
6621.9427
6621.1726
6620.2652
6619.201
6617.9574
6616.5082
6614.8235
6612.868
6610.6011
6607.9791
6604.9483
6601.4462
6597.397
6592.7124
6587.2816
6580.9743
6573.6142
6564.9759
6554.6308
6542.1458
6529.7299
6510.4086
6641.7042
6641.7041
6641.704
6641.7039
6641.7037
6641.7036
6641.7034
6641.7032
6641.703
6641.7028
6641.7025
6641.7022
6641.7019
6641.7015
6641.7011
6641.7006
6641.7001
6641.6993
6641.6984
6641.6971
6641.6954
6641.6931
6641.6899
6641.6855
6641.6797
6641.6721
6641.6623
6641.6498
6641.634
6641.6141
6641.5893
6641.5582
6641.519
6641.469
6641.4061
6641.3283
6641.2324
6641.1146
6640.9709
6640.796
6640.5835
6640.3262
6640.0173
6639.6494
6639.2146
6638.7044
6638.1076
6637.4105
6636.5976
6635.6504
6634.5463
6633.2604
6631.7641
6630.023
6627.9944
6625.624
6622.8513
6619.5922
6615.7518
6611.206
6605.778
6599.1302
6590.8957
6582.4568
6567.9246
6659.0114
6659.0113
6659.0111
6659.0108
6659.0106
6659.0103
6659.01
6659.0096
6659.0092
6659.0088
6659.0083
6659.0077
6659.007
6659.0063
6659.0054
6659.0044
6659.0031
6659.0017
6659
6658.9979
6658.9954
6658.9924
6658.9888
6658.9843
6658.979
6658.9729
6658.9658
6658.9579
6658.9491
6658.9397
6658.9294
6658.9184
6658.9063
6658.8929
6658.8781
6658.8618
6658.8434
6658.8227
6658.7984
6658.769
6658.7331
6658.6895
6658.6378
6658.5777
6658.5089
6658.4311
6658.3421
6658.2382
6658.1149
6657.9666
6657.7859
6657.5643
6657.2914
6656.953
6656.5287
6655.9908
6655.3046
6654.4253
6653.2961
6651.8506
6649.9928
6647.5336
6644.482
6641.6884
6636.3532
6677.2192
6677.219
6677.2187
6677.2184
6677.2181
6677.2177
6677.2173
6677.2168
6677.2163
6677.2156
6677.2149
6677.214
6677.2131
6677.2119
6677.2106
6677.209
6677.2072
6677.2051
6677.2026
6677.1998
6677.1965
6677.1927
6677.1886
6677.1841
6677.1795
6677.175
6677.171
6677.1682
6677.1675
6677.1697
6677.1758
6677.1872
6677.2054
6677.2314
6677.2678
6677.3173
6677.3831
6677.4668
6677.5698
6677.6957
6677.8485
6678.0329
6678.2557
6678.5242
6678.8462
6679.2296
6679.6816
6680.2094
6680.8208
6681.5244
6682.3293
6683.2448
6684.2795
6685.4407
6686.7328
6688.1572
6689.7111
6691.3893
6693.1819
6695.0847
6697.092
6699.1779
6701.5434
6704.5926
6706.8923
6695.3911
6695.3908
6695.3906
6695.3902
6695.3899
6695.3895
6695.389
6695.3885
6695.3879
6695.3872
6695.3865
6695.3856
6695.3846
6695.3834
6695.3821
6695.3805
6695.3788
6695.3767
6695.3745
6695.3719
6695.3691
6695.3661
6695.363
6695.3601
6695.3577
6695.3566
6695.3574
6695.3614
6695.3699
6695.3848
6695.408
6695.4419
6695.4889
6695.5532
6695.6392
6695.7518
6695.8965
6696.0791
6696.3061
6696.5852
6696.9253
6697.3374
6697.835
6698.4324
6699.1452
6699.9899
6700.9833
6702.144
6703.4926
6705.0523
6706.8486
6708.909
6711.2615
6713.9349
6716.9589
6720.3647
6724.1832
6728.4496
6733.2025
6738.4956
6744.3924
6750.9871
6758.5111
6767.2076
6776.9247
6713.4495
6713.4492
6713.4489
6713.4486
6713.4482
6713.4479
6713.4474
6713.447
6713.4464
6713.4458
6713.4452
6713.4445
6713.4437
6713.4428
6713.4418
6713.4406
6713.4394
6713.438
6713.4365
6713.435
6713.4334
6713.4319
6713.4308
6713.4304
6713.4313
6713.4344
6713.4408
6713.452
6713.47
6713.4971
6713.5366
6713.5919
6713.6679
6713.7703
6713.9047
6714.0789
6714.3017
6714.5824
6714.9316
6715.3618
6715.8874
6716.5256
6717.2962
6718.2207
6719.3222
6720.6255
6722.1578
6723.949
6726.033
6728.4478
6731.2351
6734.4404
6738.1115
6742.2991
6747.058
6752.449
6758.5373
6765.3972
6773.1133
6781.7919
6791.5568
6802.584
6815.1431
6829.55
6846.2583
6731.3085
6731.3082
6731.3079
6731.3076
6731.3073
6731.307
6731.3066
6731.3063
6731.3059
6731.3056
6731.3052
6731.3048
6731.3044
6731.304
6731.3036
6731.3033
6731.303
6731.3027
6731.3026
6731.3027
6731.3032
6731.3042
6731.306
6731.3092
6731.3144
6731.3228
6731.3357
6731.3552
6731.3838
6731.4248
6731.4821
6731.5608
6731.667
6731.8073
6731.9901
6732.2261
6732.5267
6732.9048
6733.3752
6733.9552
6734.6648
6735.5273
6736.5686
6737.8171
6739.3033
6741.0609
6743.1272
6745.5441
6748.3588
6751.6238
6755.3968
6759.7406
6764.7231
6770.4175
6776.9038
6784.2713
6792.6186
6802.0577
6812.7166
6824.7515
6838.3456
6853.7435
6871.2745
6891.3582
6914.6175
6748.8995
6748.8992
6748.899
6748.8987
6748.8985
6748.8983
6748.8981
6748.8979
6748.8978
6748.8977
6748.8977
6748.8977
6748.8978
6748.8981
6748.8985
6748.8991
6748.8999
6748.901
6748.9025
6748.9046
6748.9074
6748.9112
6748.9163
6748.9236
6748.9337
6748.9482
6748.9687
6748.9977
6749.0383
6749.0946
6749.1715
6749.2749
6749.4119
6749.5911
6749.8234
6750.1213
6750.4996
6750.9744
6751.565
6752.2936
6753.1856
6754.2698
6755.5785