/*--------------------------------*- C++ -*----------------------------------*\
  =========                 |
  \\      /  F ield         | OpenFOAM: The Open Source CFD Toolbox
   \\    /   O peration     | Website:  https://openfoam.org
    \\  /    A nd           | Version:  13
     \\/     M anipulation  |
\*---------------------------------------------------------------------------*/
FoamFile
{
    format      ascii;
    class       surfaceScalarField;
    location    "267";
    object      phi;
}
// * * * * * * * * * * * * * * * * * * * * * * * * * * * * * * * * * * * * * //

dimensions      [0 3 -1 0 0 0 0];

internalField   nonuniform List<scalar> 
580
(
3.8434607e-09
-3.8426822e-09
3.2838927e-08
-2.8993965e-08
1.9266669e-07
-1.5982722e-07
1.0510649e-06
-8.5840795e-07
5.3724556e-06
-4.3215051e-06
2.3796632e-05
-1.8425166e-05
7.5942758e-05
-5.2152652e-05
0.0001225176
-4.6606312e-05
5.1874374e-05
7.0528969e-05
0.00096031024
-0.00090872758
0.0094080881
-0.0084481768
0.043227672
-0.033819779
-0.10907272
0.15230067
-6.3636235e-09
2.5213174e-09
-5.4260535e-08
1.8905937e-08
-3.2289712e-07
1.0881913e-07
-1.8105282e-06
6.2925658e-07
-9.7587651e-06
3.6267132e-06
-4.8172354e-05
1.9986486e-05
-0.00019510574
9.476042e-05
-0.00054766553
0.00030585522
-0.00058983848
0.00011247928
0.0033826321
-0.0048814673
0.023196856
-0.028262471
0.085410769
-0.096033299
-0.26721853
0.24355797
-1.2636926e-09
3.7814463e-09
-8.8927262e-09
2.6517527e-08
-5.4099511e-08
1.5393316e-07
-3.2704244e-07
9.0173457e-07
-2.0679897e-06
5.3653434e-06
-1.2083589e-05
2.9991306e-05
-4.1609658e-05
0.00012424195
0.00014952921
0.00011458718
0.0027043074
-0.0024425054
0.015463567
-0.017640931
0.056443369
-0.069242405
0.16139349
-0.20098362
-0.49718965
0.39136443
-4.4785855e-09
8.2510968e-09
-3.4379579e-08
5.6388245e-08
-2.1473623e-07
3.3415596e-07
-1.2211288e-06
1.9075305e-06
-5.7396813e-06
9.8812698e-06
-1.1016633e-05
3.5257665e-05
0.00013685224
-2.3664253e-05
0.0016636326
-0.0014122858
0.0094827437
-0.01026175
0.035123295
-0.043281614
0.099090671
-0.13321003
0.2376762
-0.33956963
-0.76788264
0.50836884
-1.5826567e-08
2.4049507e-08
-1.092186e-07
1.4969423e-07
-4.6501759e-07
6.8966758e-07
-7.7122884e-07
2.2128104e-06
1.0524522e-05
-1.4168237e-06
0.00014730012
-0.00010152121
0.0011172122
-0.0009935787
0.0057358192
-0.0060309014
0.020818329
-0.025344303
0.057472074
-0.079935472
0.13313721
-0.20887547
0.27896012
-0.48539274
-1.0341701
0.54524761
3.6741271e-08
-1.276273e-08
5.5354104e-07
-3.6723357e-07
4.7090491e-06
-3.4659302e-06
3.1918799e-05
-2.4996181e-05
0.00018509766
-0.00015459062
0.0009179269
-0.00083433345
0.0037690347
-0.0038446578
0.012324188
-0.01458605
0.03195455
-0.044974729
0.069971498
-0.11795252
0.13976281
-0.27866693
0.26806025
-0.61368991
-1.2637282
0.49761858
1.7994067e-06
-1.8120253e-06
1.3898877e-05
-1.2466023e-05
6.4514869e-05
-5.4079491e-05
0.00024778112
-0.00020825526
0.00085061089
-0.00075740307
0.0026169373
-0.0026006298
0.0070283419
-0.0082560413
0.016147512
-0.023705249
0.032288337
-0.061115591
0.060069114
-0.14573324
0.10996489
-0.3285627
0.20251361
-0.70623827
-1.4276668
0.36645175
2.2421663e-06
-4.0510357e-06
1.6801506e-05
-2.7019697e-05
7.4435827e-05
-0.00011170593
0.00026507451
-0.00039888413
0.00080918972
-0.0013015106
0.0021040669
-0.0038955125
0.0045624424
-0.010714443
0.008431733
-0.027574518
0.014374458
-0.06705809
0.024650148
-0.15600857
0.043908228
-0.34782077
0.080468273
-0.742798
-1.4914442
0.14424451
-2.0910791e-06
-1.9629976e-06
-1.569437e-05
-1.3421707e-05
-6.9702565e-05
-5.7704737e-05
-0.00024912892
-0.00021946555
-0.00076404889
-0.0007865962
-0.0019975983
-0.0026619655
-0.0043584551
-0.0083535912
-0.0081260173
-0.023806943
-0.014001997
-0.061181966
-0.023985498
-0.14602475
-0.042254636
-0.32955166
-0.075419281
-0.7096328
-1.4342355
-0.13262767
-1.9427208e-06
-2.0475776e-08
-1.4946119e-05
-4.1918856e-07
-6.8967895e-05
-3.6858024e-06
-0.00026291105
-2.5529854e-05
-0.00089617897
-0.00015334209
-0.002746182
-0.00081197285
-0.0073862501
-0.003713498
-0.017056958
-0.014136176
-0.034330102
-0.043908816
-0.064341768
-0.1160131
-0.11850331
-0.27539029
-0.21830828
-0.60982744
-1.2611978
-0.39134674
-3.9734434e-08
1.9311446e-08
-5.7903323e-07
1.2013144e-07
-4.8311812e-06
5.6601274e-07
-3.2321629e-05
1.9581968e-06
-0.00018637526
7.0184793e-07
-0.00093092471
-6.7444351e-05
-0.003911826
-0.00073258878
-0.013249815
-0.0047980289
-0.035630052
-0.021528305
-0.080481881
-0.071161145
-0.1649538
-0.19091824
-0.32379138
-0.45098986
-0.97678794
-0.6082035
1.4197818e-08
5.1308864e-09
9.8879179e-08
3.5474146e-08
4.5469365e-07
2.1021128e-07
1.1865084e-06
1.2259708e-06
-4.9676851e-06
6.8524902e-06
-0.00010393437
3.1506094e-05
-0.00090508767
6.8539689e-05
-0.0052434573
-0.00045954368
-0.021170619
-0.0056006164
-0.063488663
-0.028842328
-0.15620093
-0.098204928
-0.3447934
-0.26239654
-0.61388902
-0.70769496
5.4356552e-09
-2.9833441e-10
4.3446924e-08
-2.5047526e-09
2.6578837e-07
-1.1960588e-08
1.537344e-06
-4.4789991e-08
8.3977798e-06
-4.6883652e-09
3.7776848e-05
2.1368705e-06
8.4435797e-05
2.190235e-05
-0.00045479853
7.9780738e-05
-0.0055682688
-0.00048673615
-0.02816066
-0.0062491379
-0.096182401
-0.030181985
-0.26317773
-0.09540001
-0.24141438
-0.6356535
-2.9401813e-10
-2.7561848e-09
-1.4479124e-08
-5.7975542e-08
-5.6028379e-08
2.1100968e-06
2.4102986e-05
0.00010402045
-0.0003827661
-0.0066325405
-0.036815664
-0.13221644
-0.3736289
0.25017957
-0.097878495
0.37170112
-0.12151956
0.51492461
-0.14322263
0.6709774
-0.15605074
-0.15268063
0.82365982
0.36597913
-0.22029914
0.51636866
-0.27190678
0.69089445
-0.31774701
0.87541677
-0.34057228
-0.31723505
1.0399712
0.55469332
-0.38362848
0.74608658
-0.46329982
0.96048465
-0.5321447
1.179709
-0.55979658
-0.49922743
1.361701
0.71002904
-0.58528869
0.94026928
-0.69354
1.1929339
-0.78480837
1.449734
-0.81659597
-0.71785326
1.6683605
0.7770801
-0.81711978
1.0398079
-0.95626744
1.3290729
-1.0740715
1.6297739
-1.1172952
-0.99130395
1.9032256
0.76167937
-1.0811782
1.0643479
-1.2589352
1.4046972
-1.4144188
1.7676039
-1.4802005
-1.3373164
2.1136171
0.6735698
-1.3882947
1.0328689
-1.6182331
1.4440975
-1.8256458
1.8916028
-1.9277046
-1.7794961
2.3337829
0.509262
-1.7533124
0.94440223
-2.0533722
1.4482856
-2.3295283
2.0059239
-2.4853421
2.5749166
-2.3484882
0.86836844
-0.044707808
0.92075262
-0.052384638
0.97467902
-0.053926544
1.0254332
-0.050755107
-0.030051793
1.0587492
-0.063485723
1.0851095
-0.07874672
1.1196325
-0.088450121
1.1593015
-0.090424696
-0.056210563
1.3458746
-0.047659139
1.3313361
-0.064209409
1.3273747
-0.084488745
1.3370746
-0.10012476
-0.067175517
1.643283
-0.02258019
1.6106347
-0.031561177
1.5789868
-0.052839794
1.5567326
-0.077869856
-0.057544792
1.8894312
-0.0087840576
1.8682317
-0.010361316
1.8376799
-0.022286685
1.801976
-0.042164837
-0.033681236
2.1082579
-0.0034234746
2.0997578
-0.001861029
2.0829709
-0.0054991048
2.0539
-0.013093128
-0.008864988
2.3315187
-0.0011581295
2.3287088
0.0009489591
2.3218199
0.001389993
2.3056091
0.003117568
0.0076478332
2.5736566
0.00010283423
2.5726937
0.0019117796
2.5701998
0.0038834278
2.5634448
0.0098718448
0.015313036
-0.19170617
-1.5932295
1.652306
-0.5881503
-11.253327
11.649768
-80.284248
82.844783
-0.56202715
-1.4225472
-1.729574
-10.085771
-72.265222
-0.89031984
-1.1404267
-2.756409
-8.2196799
-59.337466
-1.0883646
-0.75975537
-3.5586948
-5.7493481
-42.345284
-1.0677221
-0.32769265
-3.965924
-2.8511457
-22.29412
-0.7013218
-3.5524655
1.619373
-1.7203871
1.5826858
-2.0166846
1.5421515
-2.2889936
1.4988989
-2.442089
-2.3075844
1.4579954
11.432971
-1.5035877
11.184295
-1.7680084
10.901298
-2.0059965
10.59858
-2.1393711
-2.0211335
10.312129
81.317797
79.520045
77.476279
75.288947
73.206912
1.4575244
0.00057390336
1.4571681
0.0022673609
1.4563915
0.0046591979
1.4544
0.011862897
0.017735966
10.310921
0.0017821631
10.30922
0.0039679429
10.305544
0.0083342021
10.303208
0.014197667
0.019937612
73.154869
73.074597
72.951088
72.758937
)
;

boundaryField
{
    inlet
    {
        type            calculated;
        value           nonuniform List<scalar> 
16
(
-3.1486868
-9.748603
-15.684168
-20.550883
-24.017089
-25.84657
0.023423751
0.029744028
0.037769664
0.047960804
0.060901753
0.053824587
0.08424003
0.13184277
0.20634509
0.32294752
)
;
    }
    outlet
    {
        type            calculated;
        value           nonuniform List<scalar> 
11
(
1.0554847
1.18546
1.3480397
1.5471024
1.7781133
2.0290844
2.2890962
2.5557788
1.4519766
10.301004
72.455928
)
;
    }
    cylinder
    {
        type            calculated;
        value           uniform 0;
    }
    frontAndBack
    {
        type            empty;
    }
}


// ************************************************************************* //
