/*--------------------------------*- C++ -*----------------------------------*\
  =========                 |
  \\      /  F ield         | OpenFOAM: The Open Source CFD Toolbox
   \\    /   O peration     | Website:  https://openfoam.org
    \\  /    A nd           | Version:  13
     \\/     M anipulation  |
\*---------------------------------------------------------------------------*/
FoamFile
{
    format      ascii;
    class       volScalarField;
    location    "0.06";
    object      p;
}
// * * * * * * * * * * * * * * * * * * * * * * * * * * * * * * * * * * * * * //

dimensions      [1 -1 -2 0 0 0 0];

internalField   nonuniform List<scalar> 
1000
(
9066.55
9066.44
9066.15
9065.8
9065.42
9065.03
9064.66
9064.29
9063.93
9063.59
9063.27
9062.95
9062.65
9062.37
9062.09
9061.84
9061.59
9061.36
9061.14
9060.94
9060.75
9060.57
9060.41
9060.26
9060.12
9060
9059.89
9059.79
9059.7
9059.63
9059.57
9059.52
9059.49
9059.46
9059.45
9059.45
9059.46
9059.48
9059.52
9059.56
9059.63
9059.7
9059.79
9059.9
9060.03
9060.17
9060.33
9060.51
9060.71
9060.92
9061.15
9061.4
9061.67
9061.95
9062.25
9062.57
9062.9
9063.25
9063.62
9064
9064.4
9064.81
9065.24
9065.69
9066.15
9066.63
9067.12
9067.63
9068.16
9068.7
9069.25
9069.82
9070.41
9071.01
9071.63
9072.26
9072.91
9073.57
9074.25
9074.94
9075.65
9076.38
9077.12
9077.87
9078.64
9079.43
9080.23
9081.05
9081.88
9082.73
9083.59
9084.47
9085.36
9086.27
9087.19
9088.13
9089.08
9090.05
9091.03
9092.03
9093.05
9094.08
9095.12
9096.18
9097.26
9098.35
9099.46
9100.58
9101.71
9102.87
9104.03
9105.22
9106.41
9107.63
9108.85
9110.1
9111.36
9112.63
9113.92
9115.23
9116.55
9117.88
9119.23
9120.6
9121.98
9123.38
9124.79
9126.22
9127.66
9129.12
9130.59
9132.08
9133.59
9135.11
9136.64
9138.19
9139.76
9141.34
9142.94
9144.55
9146.18
9147.82
9149.48
9151.16
9152.84
9154.55
9156.27
9158.01
9159.76
9161.53
9163.31
9165.11
9166.92
9168.75
9170.59
9172.45
9174.33
9176.22
9178.13
9180.05
9181.99
9183.94
9185.91
9187.9
9189.9
9191.91
9193.95
9195.99
9198.06
9200.14
9202.23
9204.34
9206.47
9208.61
9210.76
9212.94
9215.13
9217.33
9219.55
9221.79
9224.04
9226.31
9228.59
9230.89
9233.2
9235.53
9237.88
9240.24
9242.62
9245.01
9247.42
9249.85
9252.29
9254.75
9257.22
9259.71
9262.21
9264.73
9267.27
9269.82
9272.39
9274.97
9277.57
9280.19
9282.82
9285.47
9288.13
9290.81
9293.51
9296.22
9298.95
9301.69
9304.45
9307.22
9310.01
9312.82
9315.64
9318.48
9321.34
9324.21
9327.09
9330
9332.92
9335.85
9338.8
9341.77
9344.75
9347.75
9350.76
9353.79
9356.84
9359.9
9362.98
9366.07
9369.18
9372.3
9375.44
9378.6
9381.77
9384.96
9388.17
9391.39
9394.62
9397.87
9401.14
9404.42
9407.72
9411.04
9414.37
9417.71
9421.07
9424.45
9427.84
9431.25
9434.67
9438.11
9441.57
9445.04
9448.52
9452.02
9455.54
9459.07
9462.62
9466.18
9469.76
9473.35
9476.96
9480.58
9484.22
9487.88
9491.54
9495.23
9498.93
9502.64
9506.37
9510.11
9513.87
9517.64
9521.43
9525.23
9529.05
9532.88
9536.73
9540.59
9544.46
9548.35
9552.25
9556.17
9560.1
9564.04
9568
9571.98
9575.96
9579.96
9583.98
9588.01
9592.05
9596.1
9600.17
9604.25
9608.35
9612.46
9616.58
9620.71
9624.86
9629.02
9633.19
9637.38
9641.57
9645.78
9650
9654.24
9658.48
9662.74
9667.01
9671.29
9675.59
9679.89
9684.21
9688.54
9692.88
9697.22
9701.59
9705.96
9710.34
9714.73
9719.13
9723.55
9727.97
9732.4
9736.84
9741.3
9745.76
9750.23
9754.71
9759.2
9763.7
9768.2
9772.72
9777.24
9781.77
9786.31
9790.86
9795.42
9799.98
9804.55
9809.13
9813.71
9818.3
9822.9
9827.5
9832.11
9836.73
9841.35
9845.98
9850.61
9855.25
9859.89
9864.54
9869.19
9873.85
9878.51
9883.17
9887.84
9892.51
9897.19
9901.86
9906.54
9911.23
9915.91
9920.6
9925.29
9929.98
9934.67
9939.37
9944.06
9948.76
9953.45
9958.15
9962.84
9967.54
9972.23
9976.93
9981.62
9986.31
9991
9995.69
10000.4
10005.1
10009.7
10014.4
10019.1
10023.8
10028.4
10033.1
10037.7
10042.4
10047.1
10051.7
10056.3
10061
10065.6
10070.2
10074.8
10079.4
10084
10088.6
10093.2
10097.8
10102.4
10106.9
10111.5
10116
10120.6
10125.1
10129.6
10134.1
10138.6
10143.1
10147.6
10152
10156.5
10160.9
10165.4
10169.8
10174.2
10178.6
10183
10187.3
10191.7
10196
10200.3
10204.7
10209
10213.2
10217.5
10221.8
10226
10230.2
10234.4
10238.6
10242.8
10247
10251.1
10255.2
10259.3
10263.4
10267.5
10271.6
10275.6
10279.6
10283.6
10287.6
10291.6
10295.5
10299.5
10303.4
10307.3
10311.1
10315
10318.8
10322.6
10326.4
10330.2
10333.9
10337.7
10341.4
10345.1
10348.7
10352.4
10356
10359.6
10363.2
10366.8
10370.3
10373.8
10377.3
10380.8
10384.2
10387.7
10391.1
10394.5
10397.8
10401.2
10404.5
10407.8
10411.1
10414.3
10417.5
10420.7
10423.9
10427.1
10430.2
10433.3
10436.4
10439.5
10442.6
10445.6
10448.6
10451.6
10454.5
10457.4
10460.3
10463.2
10466.1
10468.9
10471.7
10474.5
10477.3
10480.1
10482.8
10485.5
10488.2
10490.8
10493.4
10496.1
10498.6
10501.2
10503.8
10506.3
10508.8
10511.2
10513.7
10516.1
10518.5
10520.9
10523.3
10525.6
10527.9
10530.2
10532.5
10534.8
10537
10539.2
10541.4
10543.6
10545.7
10547.8
10549.9
10552
10554.1
10556.1
10558.1
10560.1
10562.1
10564.1
10566
10567.9
10569.8
10571.7
10573.5
10575.4
10577.2
10579
10580.8
10582.5
10584.3
10586
10587.7
10589.4
10591
10592.7
10594.3
10595.9
10597.5
10599.1
10600.6
10602.2
10603.7
10605.2
10606.6
10608.1
10609.6
10611
10612.4
10613.8
10615.2
10616.5
10617.9
10619.2
10620.5
10621.8
10623.1
10624.4
10625.6
10626.8
10628.1
10629.3
10630.5
10631.6
10632.8
10633.9
10635
10636.2
10637.3
10638.3
10639.4
10640.5
10641.5
10642.5
10643.5
10644.5
10645.5
10646.5
10647.5
10648.4
10649.3
10650.3
10651.2
10652.1
10652.9
10653.8
10654.7
10655.5
10656.4
10657.2
10658
10658.8
10659.6
10660.3
10661.1
10661.9
10662.6
10663.3
10664
10664.7
10665.4
10666.1
10666.8
10667.5
10668.1
10668.8
10669.4
10670
10670.6
10671.3
10671.8
10672.4
10673
10673.6
10674.1
10674.7
10675.2
10675.8
10676.3
10676.8
10677.3
10677.8
10678.3
10678.8
10679.2
10679.7
10680.1
10680.6
10681
10681.5
10681.9
10682.3
10682.7
10683.1
10683.5
10683.9
10684.3
10684.6
10685
10685.4
10685.7
10686
10686.4
10686.7
10687
10687.4
10687.7
10688
10688.3
10688.6
10688.8
10689.1
10689.4
10689.7
10689.9
10690.2
10690.4
10690.7
10690.9
10691.2
10691.4
10691.6
10691.8
10692
10692.2
10692.4
10692.6
10692.8
10693
10693.2
10693.4
10693.6
10693.7
10693.9
10694
10694.2
10694.3
10694.5
10694.6
10694.8
10694.9
10695
10695.2
10695.3
10695.4
10695.5
10695.6
10695.7
10695.8
10695.9
10696
10696.1
10696.2
10696.3
10696.4
10696.4
10696.5
10696.6
10696.7
10696.7
10696.8
10696.8
10696.9
10696.9
10697
10697
10697.1
10697.1
10697.2
10697.2
10697.2
10697.2
10697.3
10697.3
10697.3
10697.3
10697.4
10697.4
10697.4
10697.4
10697.4
10697.4
10697.4
10697.4
10697.4
10697.4
10697.4
10697.4
10697.4
10697.4
10697.3
10697.3
10697.3
10697.3
10697.3
10697.2
10697.2
10697.2
10697.2
10697.1
10697.1
10697.1
10697
10697
10697
10696.9
10696.9
10696.8
10696.8
10696.7
10696.7
10696.7
10696.6
10696.6
10696.5
10696.5
10696.4
10696.3
10696.3
10696.2
10696.2
10696.1
10696.1
10696
10695.9
10695.9
10695.8
10695.7
10695.7
10695.6
10695.5
10695.5
10695.4
10695.3
10695.3
10695.2
10695.1
10695.1
10695
10694.9
10694.8
10694.8
10694.7
10694.6
10694.5
10694.5
10694.4
10694.3
10694.2
10694.2
10694.1
10694
10693.9
10693.9
10693.8
10693.7
10693.6
10693.6
10693.5
10693.4
10693.3
10693.2
10693.2
10693.1
10693
10692.9
10692.9
10692.8
10692.7
10692.6
10692.5
10692.5
10692.4
10692.3
10692.2
10692.2
10692.1
10692
10691.9
10691.9
10691.8
10691.7
10691.7
10691.6
10691.5
10691.4
10691.4
10691.3
10691.2
10691.2
10691.1
10691
10691
10690.9
10690.8
10690.8
10690.7
10690.6
10690.6
10690.5
10690.5
10690.4
10690.3
10690.3
10690.2
10690.2
10690.1
10690.1
10690
10690
10689.9
10689.8
10689.8
10689.8
10689.7
10689.7
10689.6
10689.6
10689.5
10689.5
10689.4
10689.4
10689.4
10689.3
10689.3
10689.3
10689.2
10689.2
10689.2
10689.1
10689.1
10689.1
10689.1
10689
10689
10689
10689
10688.9
10688.9
10688.9
10688.9
10688.9
10688.9
10688.9
10688.9
10688.9
10688.8
10688.8
10688.8
10688.8
10688.8
10688.8
10688.8
10688.9
10688.9
10688.9
10688.9
10688.9
10688.9
10688.9
10688.9
10689
10689
10689
10689
10689.1
10689.1
10689.1
10689.2
10689.2
10689.2
10689.3
10689.3
10689.3
10689.4
10689.4
10689.5
10689.5
10689.6
10689.6
10689.7
10689.7
10689.8
10689.9
10689.9
10690
10690.1
10690.1
10690.2
10690.3
10690.4
10690.4
10690.5
10690.6
10690.7
10690.8
10690.9
10691
10691.1
10691.2
10691.3
10691.4
10691.5
10691.6
10691.7
10691.8
10691.9
10692
10692.1
10692.2
10692.4
10692.5
10692.6
10692.8
10692.9
10693
10693.2
10693.3
10693.4
10693.6
10693.7
10693.9
10694
10694.2
10694.3
10694.5
10694.7
10694.8
10695
10695.2
10695.4
10695.5
10695.7
10695.9
)
;

boundaryField
{
    sides
    {
        type            zeroGradient;
    }
    empty
    {
        type            empty;
    }
}


// ************************************************************************* //
