/*--------------------------------*- C++ -*----------------------------------*\
  =========                 |
  \\      /  F ield         | OpenFOAM: The Open Source CFD Toolbox
   \\    /   O peration     | Website:  https://openfoam.org
    \\  /    A nd           | Version:  13
     \\/     M anipulation  |
\*---------------------------------------------------------------------------*/
FoamFile
{
    format      ascii;
    class       volScalarField;
    location    "0.06";
    object      rho;
}
// * * * * * * * * * * * * * * * * * * * * * * * * * * * * * * * * * * * * * //

dimensions      [1 -3 0 0 0 0 0];

internalField   nonuniform List<scalar> 
1000
(
0.180395
0.180393
0.180389
0.180383
0.180376
0.18037
0.180363
0.180357
0.180351
0.180345
0.180339
0.180333
0.180328
0.180323
0.180317
0.180312
0.180307
0.180303
0.180298
0.180294
0.180289
0.180285
0.180281
0.180278
0.180274
0.18027
0.180267
0.180264
0.180261
0.180258
0.180255
0.180253
0.18025
0.180248
0.180246
0.180244
0.180242
0.18024
0.180238
0.180237
0.180235
0.180234
0.180233
0.180233
0.180232
0.180232
0.180232
0.180232
0.180232
0.180233
0.180233
0.180235
0.180236
0.180237
0.180239
0.180241
0.180243
0.180245
0.180248
0.18025
0.180253
0.180256
0.180259
0.180263
0.180267
0.18027
0.180275
0.180279
0.180283
0.180288
0.180293
0.180298
0.180303
0.180308
0.180314
0.18032
0.180326
0.180332
0.180338
0.180345
0.180351
0.180358
0.180366
0.180373
0.18038
0.180388
0.180396
0.180404
0.180412
0.180421
0.180429
0.180438
0.180447
0.180456
0.180466
0.180475
0.180485
0.180495
0.180505
0.180516
0.180526
0.180537
0.180548
0.180559
0.18057
0.180582
0.180593
0.180605
0.180617
0.18063
0.180642
0.180655
0.180668
0.180681
0.180694
0.180707
0.180721
0.180735
0.180749
0.180763
0.180778
0.180792
0.180807
0.180822
0.180837
0.180853
0.180868
0.180884
0.1809
0.180916
0.180933
0.180949
0.180966
0.180983
0.181
0.181018
0.181035
0.181053
0.181071
0.181089
0.181108
0.181127
0.181146
0.181165
0.181184
0.181204
0.181224
0.181244
0.181264
0.181285
0.181306
0.181327
0.181348
0.18137
0.181392
0.181414
0.181436
0.181459
0.181482
0.181505
0.181529
0.181553
0.181577
0.181601
0.181626
0.181651
0.181676
0.181702
0.181727
0.181754
0.18178
0.181807
0.181834
0.181861
0.181889
0.181917
0.181945
0.181974
0.182003
0.182032
0.182061
0.182091
0.182121
0.182152
0.182183
0.182214
0.182245
0.182276
0.182308
0.182341
0.182373
0.182406
0.182439
0.182472
0.182506
0.18254
0.182574
0.182608
0.182643
0.182678
0.182713
0.182749
0.182785
0.182821
0.182857
0.182894
0.18293
0.182968
0.183005
0.183042
0.18308
0.183118
0.183157
0.183195
0.183234
0.183273
0.183312
0.183352
0.183391
0.183431
0.183472
0.183512
0.183553
0.183594
0.183635
0.183676
0.183718
0.183759
0.183801
0.183844
0.183886
0.183929
0.183972
0.184015
0.184058
0.184102
0.184146
0.18419
0.184234
0.184278
0.184323
0.184368
0.184413
0.184458
0.184504
0.18455
0.184596
0.184642
0.184688
0.184735
0.184782
0.184829
0.184876
0.184923
0.184971
0.185019
0.185067
0.185115
0.185164
0.185213
0.185262
0.185311
0.18536
0.18541
0.185459
0.185509
0.18556
0.18561
0.185661
0.185711
0.185762
0.185814
0.185865
0.185917
0.185968
0.18602
0.186073
0.186125
0.186178
0.18623
0.186283
0.186337
0.18639
0.186443
0.186497
0.186551
0.186605
0.18666
0.186714
0.186769
0.186824
0.186879
0.186934
0.18699
0.187045
0.187101
0.187157
0.187213
0.187269
0.187326
0.187383
0.18744
0.187497
0.187554
0.187611
0.187669
0.187727
0.187784
0.187842
0.187901
0.187959
0.188018
0.188076
0.188135
0.188194
0.188253
0.188313
0.188372
0.188432
0.188491
0.188551
0.188611
0.188672
0.188732
0.188792
0.188853
0.188914
0.188975
0.189036
0.189097
0.189158
0.189219
0.189281
0.189342
0.189404
0.189466
0.189528
0.18959
0.189652
0.189714
0.189777
0.189839
0.189902
0.189965
0.190027
0.19009
0.190153
0.190216
0.190279
0.190343
0.190406
0.190469
0.190533
0.190596
0.19066
0.190723
0.190787
0.190851
0.190915
0.190978
0.191042
0.191106
0.19117
0.191234
0.191298
0.191362
0.191427
0.191491
0.191555
0.191619
0.191683
0.191748
0.191812
0.191876
0.19194
0.192005
0.192069
0.192133
0.192197
0.192262
0.192326
0.19239
0.192454
0.192519
0.192583
0.192647
0.192711
0.192775
0.192839
0.192903
0.192967
0.19303
0.193094
0.193158
0.193222
0.193285
0.193349
0.193412
0.193475
0.193539
0.193602
0.193665
0.193728
0.193791
0.193854
0.193916
0.193979
0.194041
0.194104
0.194166
0.194228
0.19429
0.194352
0.194413
0.194475
0.194536
0.194598
0.194659
0.19472
0.194781
0.194841
0.194902
0.194962
0.195022
0.195082
0.195142
0.195202
0.195261
0.19532
0.19538
0.195438
0.195497
0.195556
0.195614
0.195672
0.19573
0.195787
0.195845
0.195902
0.195959
0.196016
0.196072
0.196129
0.196185
0.19624
0.196296
0.196351
0.196406
0.196461
0.196516
0.19657
0.196624
0.196678
0.196732
0.196785
0.196838
0.196891
0.196943
0.196996
0.197048
0.197099
0.197151
0.197202
0.197253
0.197303
0.197354
0.197404
0.197453
0.197503
0.197552
0.197601
0.197649
0.197697
0.197745
0.197793
0.19784
0.197887
0.197934
0.19798
0.198027
0.198072
0.198118
0.198163
0.198208
0.198252
0.198297
0.198341
0.198384
0.198428
0.198471
0.198513
0.198556
0.198598
0.198639
0.198681
0.198722
0.198763
0.198803
0.198843
0.198883
0.198923
0.198962
0.199001
0.199039
0.199078
0.199116
0.199153
0.199191
0.199227
0.199264
0.199301
0.199337
0.199372
0.199408
0.199443
0.199478
0.199512
0.199546
0.19958
0.199614
0.199647
0.19968
0.199712
0.199745
0.199777
0.199808
0.19984
0.199871
0.199902
0.199932
0.199962
0.199992
0.200022
0.200051
0.20008
0.200109
0.200137
0.200165
0.200193
0.200221
0.200248
0.200275
0.200301
0.200328
0.200354
0.20038
0.200405
0.200431
0.200456
0.20048
0.200505
0.200529
0.200553
0.200577
0.2006
0.200623
0.200646
0.200669
0.200691
0.200713
0.200735
0.200756
0.200778
0.200799
0.20082
0.20084
0.20086
0.20088
0.2009
0.20092
0.200939
0.200958
0.200977
0.200996
0.201014
0.201032
0.20105
0.201068
0.201085
0.201103
0.20112
0.201137
0.201153
0.20117
0.201186
0.201202
0.201217
0.201233
0.201248
0.201263
0.201278
0.201293
0.201307
0.201322
0.201336
0.20135
0.201364
0.201377
0.20139
0.201404
0.201416
0.201429
0.201442
0.201454
0.201466
0.201478
0.20149
0.201502
0.201514
0.201525
0.201536
0.201547
0.201558
0.201568
0.201579
0.201589
0.201599
0.201609
0.201619
0.201629
0.201639
0.201648
0.201657
0.201666
0.201675
0.201684
0.201693
0.201701
0.201709
0.201718
0.201726
0.201734
0.201741
0.201749
0.201757
0.201764
0.201771
0.201778
0.201785
0.201792
0.201799
0.201806
0.201812
0.201818
0.201825
0.201831
0.201837
0.201843
0.201849
0.201854
0.20186
0.201865
0.20187
0.201876
0.201881
0.201886
0.201891
0.201895
0.2019
0.201905
0.201909
0.201914
0.201918
0.201922
0.201926
0.20193
0.201934
0.201938
0.201942
0.201945
0.201949
0.201952
0.201956
0.201959
0.201962
0.201965
0.201968
0.201971
0.201974
0.201977
0.201979
0.201982
0.201984
0.201987
0.201989
0.201992
0.201994
0.201996
0.201998
0.202
0.202002
0.202004
0.202006
0.202007
0.202009
0.202011
0.202012
0.202014
0.202015
0.202016
0.202018
0.202019
0.20202
0.202021
0.202022
0.202023
0.202024
0.202025
0.202026
0.202026
0.202027
0.202028
0.202028
0.202029
0.202029
0.20203
0.20203
0.20203
0.202031
0.202031
0.202031
0.202031
0.202031
0.202031
0.202031
0.202031
0.202031
0.202031
0.202031
0.202031
0.20203
0.20203
0.20203
0.202029
0.202029
0.202029
0.202028
0.202028
0.202027
0.202026
0.202026
0.202025
0.202024
0.202024
0.202023
0.202022
0.202021
0.20202
0.202019
0.202018
0.202017
0.202016
0.202015
0.202014
0.202013
0.202012
0.202011
0.20201
0.202009
0.202007
0.202006
0.202005
0.202003
0.202002
0.202001
0.201999
0.201998
0.201997
0.201995
0.201994
0.201992
0.201991
0.201989
0.201988
0.201986
0.201985
0.201983
0.201981
0.20198
0.201978
0.201976
0.201975
0.201973
0.201971
0.201969
0.201968
0.201966
0.201964
0.201962
0.20196
0.201959
0.201957
0.201955
0.201953
0.201951
0.201949
0.201947
0.201945
0.201944
0.201942
0.20194
0.201938
0.201936
0.201934
0.201932
0.20193
0.201928
0.201926
0.201924
0.201922
0.20192
0.201918
0.201916
0.201913
0.201911
0.201909
0.201907
0.201905
0.201903
0.201901
0.201899
0.201897
0.201895
0.201893
0.201891
0.201889
0.201886
0.201884
0.201882
0.20188
0.201878
0.201876
0.201874
0.201872
0.20187
0.201868
0.201865
0.201863
0.201861
0.201859
0.201857
0.201855
0.201853
0.201851
0.201849
0.201847
0.201845
0.201843
0.201841
0.201838
0.201836
0.201834
0.201832
0.20183
0.201828
0.201826
0.201824
0.201822
0.20182
0.201818
0.201816
0.201814
0.201812
0.20181
0.201809
0.201807
0.201805
0.201803
0.201801
0.201799
0.201797
0.201795
0.201793
0.201792
0.20179
0.201788
0.201786
0.201784
0.201782
0.201781
0.201779
0.201777
0.201775
0.201774
0.201772
0.20177
0.201769
0.201767
0.201765
0.201764
0.201762
0.201761
0.201759
0.201757
0.201756
0.201754
0.201753
0.201751
0.20175
0.201748
0.201747
0.201745
0.201744
0.201743
0.201741
0.20174
0.201738
0.201737
0.201736
0.201735
0.201733
0.201732
0.201731
0.20173
0.201728
0.201727
0.201726
0.201725
0.201724
0.201723
0.201722
0.201721
0.20172
0.201719
0.201718
0.201717
0.201716
0.201715
0.201714
0.201713
0.201712
0.201711
0.201711
0.20171
0.201709
0.201708
0.201708
0.201707
0.201706
0.201706
0.201705
0.201705
0.201704
0.201703
0.201703
0.201703
0.201702
0.201702
0.201701
0.201701
0.201701
0.2017
0.2017
0.2017
0.201699
0.201699
0.201699
0.201699
0.201699
0.201699
0.201699
0.201699
0.201699
0.201699
0.201699
0.201699
0.201699
0.201699
0.201699
0.2017
0.2017
0.2017
0.2017
0.201701
0.201701
0.201701
0.201702
0.201702
0.201703
0.201703
0.201704
0.201705
0.201705
0.201706
0.201707
0.201707
0.201708
0.201709
0.20171
0.201711
0.201711
0.201712
0.201713
0.201714
0.201715
0.201717
0.201718
0.201719
0.20172
0.20172
)
;

boundaryField
{
    sides
    {
        type            calculated;
        value           nonuniform List<scalar> 2(0.20172 0.180395);
    }
    empty
    {
        type            empty;
    }
}


// ************************************************************************* //
