/*--------------------------------*- C++ -*----------------------------------*\
  =========                 |
  \\      /  F ield         | OpenFOAM: The Open Source CFD Toolbox
   \\    /   O peration     | Website:  https://openfoam.org
    \\  /    A nd           | Version:  13
     \\/     M anipulation  |
\*---------------------------------------------------------------------------*/
FoamFile
{
    format      ascii;
    class       volScalarField;
    location    "0.06";
    object      T;
}
// * * * * * * * * * * * * * * * * * * * * * * * * * * * * * * * * * * * * * //

dimensions      [0 0 0 1 0 0 0];

internalField   nonuniform List<scalar> 
1000
(
174.695
174.695
174.694
174.693
174.691
174.69
174.689
174.688
174.687
174.687
174.686
174.685
174.685
174.685
174.685
174.684
174.684
174.685
174.685
174.685
174.686
174.686
174.687
174.688
174.689
174.69
174.691
174.692
174.693
174.695
174.696
174.698
174.699
174.701
174.703
174.705
174.707
174.709
174.711
174.714
174.716
174.719
174.722
174.724
174.727
174.73
174.734
174.737
174.74
174.744
174.748
174.751
174.755
174.759
174.764
174.768
174.772
174.777
174.782
174.786
174.791
174.796
174.801
174.807
174.812
174.817
174.823
174.829
174.834
174.84
174.846
174.853
174.859
174.865
174.872
174.878
174.885
174.892
174.899
174.906
174.913
174.92
174.927
174.935
174.942
174.95
174.958
174.966
174.974
174.982
174.99
174.999
175.007
175.016
175.024
175.033
175.042
175.051
175.06
175.069
175.078
175.088
175.097
175.107
175.117
175.127
175.137
175.147
175.157
175.167
175.177
175.188
175.198
175.209
175.22
175.231
175.242
175.253
175.264
175.275
175.287
175.298
175.31
175.322
175.333
175.345
175.357
175.37
175.382
175.394
175.406
175.419
175.432
175.444
175.457
175.47
175.483
175.496
175.509
175.522
175.536
175.549
175.563
175.576
175.59
175.603
175.617
175.631
175.645
175.659
175.673
175.687
175.701
175.715
175.729
175.743
175.757
175.772
175.786
175.8
175.814
175.829
175.843
175.858
175.872
175.886
175.901
175.915
175.93
175.944
175.959
175.973
175.987
176.002
176.016
176.031
176.045
176.06
176.074
176.088
176.103
176.117
176.132
176.146
176.161
176.175
176.19
176.204
176.219
176.233
176.248
176.262
176.277
176.291
176.306
176.321
176.335
176.35
176.365
176.38
176.394
176.409
176.424
176.439
176.454
176.469
176.484
176.499
176.515
176.53
176.545
176.56
176.576
176.591
176.607
176.623
176.638
176.654
176.67
176.686
176.702
176.718
176.734
176.75
176.766
176.783
176.799
176.816
176.832
176.849
176.866
176.882
176.899
176.916
176.933
176.95
176.968
176.985
177.002
177.02
177.037
177.055
177.072
177.09
177.108
177.126
177.144
177.162
177.18
177.198
177.217
177.235
177.254
177.272
177.291
177.31
177.328
177.347
177.366
177.385
177.404
177.424
177.443
177.462
177.482
177.501
177.521
177.54
177.56
177.58
177.6
177.62
177.64
177.66
177.68
177.7
177.721
177.741
177.762
177.782
177.803
177.824
177.844
177.865
177.886
177.907
177.928
177.95
177.971
177.992
178.013
178.035
178.056
178.078
178.1
178.121
178.143
178.165
178.187
178.209
178.231
178.253
178.275
178.297
178.32
178.342
178.364
178.387
178.409
178.432
178.455
178.477
178.5
178.523
178.546
178.569
178.592
178.615
178.638
178.661
178.684
178.708
178.731
178.754
178.778
178.801
178.825
178.848
178.872
178.896
178.919
178.943
178.967
178.991
179.015
179.038
179.062
179.086
179.11
179.135
179.159
179.183
179.207
179.231
179.255
179.28
179.304
179.328
179.353
179.377
179.402
179.426
179.451
179.475
179.5
179.524
179.549
179.573
179.598
179.622
179.647
179.672
179.696
179.721
179.746
179.77
179.795
179.82
179.845
179.869
179.894
179.919
179.944
179.968
179.993
180.018
180.042
180.067
180.092
180.117
180.141
180.166
180.191
180.215
180.24
180.265
180.289
180.314
180.339
180.363
180.388
180.412
180.437
180.461
180.486
180.51
180.534
180.559
180.583
180.607
180.632
180.656
180.68
180.704
180.728
180.752
180.776
180.8
180.824
180.848
180.872
180.896
180.919
180.943
180.967
180.99
181.014
181.037
181.061
181.084
181.107
181.13
181.154
181.177
181.2
181.223
181.245
181.268
181.291
181.314
181.336
181.359
181.381
181.403
181.426
181.448
181.47
181.492
181.514
181.536
181.558
181.579
181.601
181.622
181.644
181.665
181.686
181.707
181.728
181.749
181.77
181.791
181.812
181.832
181.853
181.873
181.893
181.913
181.934
181.953
181.973
181.993
182.013
182.032
182.052
182.071
182.09
182.109
182.128
182.147
182.166
182.185
182.203
182.222
182.24
182.258
182.276
182.294
182.312
182.33
182.348
182.365
182.383
182.4
182.417
182.434
182.451
182.468
182.485
182.501
182.518
182.534
182.551
182.567
182.583
182.599
182.614
182.63
182.646
182.661
182.676
182.692
182.707
182.722
182.737
182.751
182.766
182.78
182.795
182.809
182.823
182.837
182.851
182.865
182.879
182.892
182.906
182.919
182.932
182.946
182.959
182.972
182.984
182.997
183.01
183.022
183.034
183.047
183.059
183.071
183.083
183.094
183.106
183.118
183.129
183.141
183.152
183.163
183.174
183.185
183.196
183.206
183.217
183.228
183.238
183.248
183.259
183.269
183.279
183.289
183.298
183.308
183.318
183.327
183.337
183.346
183.355
183.364
183.374
183.382
183.391
183.4
183.409
183.417
183.426
183.434
183.443
183.451
183.459
183.467
183.475
183.483
183.491
183.498
183.506
183.514
183.521
183.528
183.536
183.543
183.55
183.557
183.564
183.571
183.578
183.585
183.591
183.598
183.604
183.611
183.617
183.623
183.63
183.636
183.642
183.648
183.654
183.66
183.666
183.671
183.677
183.683
183.688
183.694
183.699
183.704
183.71
183.715
183.72
183.725
183.73
183.735
183.74
183.745
183.75
183.754
183.759
183.764
183.768
183.773
183.777
183.782
183.786
183.79
183.795
183.799
183.803
183.807
183.811
183.815
183.819
183.823
183.827
183.83
183.834
183.838
183.842
183.845
183.849
183.852
183.856
183.859
183.863
183.866
183.869
183.872
183.876
183.879
183.882
183.885
183.888
183.891
183.894
183.897
183.9
183.903
183.906
183.908
183.911
183.914
183.917
183.919
183.922
183.924
183.927
183.929
183.932
183.934
183.937
183.939
183.941
183.944
183.946
183.948
183.951
183.953
183.955
183.957
183.959
183.961
183.963
183.965
183.967
183.969
183.971
183.973
183.975
183.977
183.979
183.981
183.982
183.984
183.986
183.988
183.989
183.991
183.993
183.994
183.996
183.998
183.999
184.001
184.002
184.004
184.005
184.007
184.008
184.01
184.011
184.013
184.014
184.015
184.017
184.018
184.019
184.021
184.022
184.023
184.024
184.026
184.027
184.028
184.029
184.03
184.032
184.033
184.034
184.035
184.036
184.037
184.038
184.039
184.04
184.041
184.042
184.043
184.044
184.045
184.046
184.047
184.048
184.049
184.05
184.051
184.052
184.053
184.054
184.055
184.056
184.056
184.057
184.058
184.059
184.06
184.061
184.061
184.062
184.063
184.064
184.064
184.065
184.066
184.067
184.068
184.068
184.069
184.07
184.07
184.071
184.072
184.073
184.073
184.074
184.075
184.075
184.076
184.077
184.077
184.078
184.079
184.079
184.08
184.081
184.081
184.082
184.082
184.083
184.084
184.084
184.085
184.086
184.086
184.087
184.087
184.088
184.089
184.089
184.09
184.09
184.091
184.091
184.092
184.093
184.093
184.094
184.094
184.095
184.095
184.096
184.097
184.097
184.098
184.098
184.099
184.099
184.1
184.101
184.101
184.102
184.102
184.103
184.103
184.104
184.105
184.105
184.106
184.106
184.107
184.108
184.108
184.109
184.109
184.11
184.11
184.111
184.112
184.112
184.113
184.113
184.114
184.115
184.115
184.116
184.116
184.117
184.118
184.118
184.119
184.12
184.12
184.121
184.121
184.122
184.123
184.123
184.124
184.125
184.125
184.126
184.127
184.127
184.128
184.129
184.13
184.13
184.131
184.132
184.132
184.133
184.134
184.135
184.135
184.136
184.137
184.138
184.138
184.139
184.14
184.141
184.141
184.142
184.143
184.144
184.145
184.145
184.146
184.147
184.148
184.149
184.15
184.15
184.151
184.152
184.153
184.154
184.155
184.156
184.157
184.158
184.159
184.159
184.16
184.161
184.162
184.163
184.164
184.165
184.166
184.167
184.168
184.169
184.17
184.171
184.172
184.173
184.174
184.176
184.177
184.178
184.179
184.18
184.181
184.182
184.183
184.184
184.186
184.187
184.188
184.189
184.19
184.192
184.193
184.194
184.195
184.196
184.198
184.199
184.2
184.201
184.203
184.204
184.205
184.207
184.208
184.209
184.211
184.212
184.213
184.215
184.216
184.218
184.219
184.221
184.222
184.223
184.225
184.226
184.228
184.229
184.231
184.232
184.234
184.235
184.237
184.239
184.24
184.242
184.243
184.245
184.247
184.248
184.25
184.252
184.253
184.255
184.257
184.258
184.26
184.262
184.264
184.265
184.267
184.269
184.271
184.273
184.274
184.276
184.278
184.28
184.282
184.284
184.286
184.288
184.29
184.291
184.293
184.295
184.297
184.299
184.302
)
;

boundaryField
{
    sides
    {
        type            zeroGradient;
    }
    empty
    {
        type            empty;
    }
}


// ************************************************************************* //
