/*--------------------------------*- C++ -*----------------------------------*\
  =========                 |
  \\      /  F ield         | OpenFOAM: The Open Source CFD Toolbox
   \\    /   O peration     | Website:  https://openfoam.org
    \\  /    A nd           | Version:  13
     \\/     M anipulation  |
\*---------------------------------------------------------------------------*/
FoamFile
{
    format      ascii;
    class       volScalarField;
    location    "0.004";
    object      mag(U);
}
// * * * * * * * * * * * * * * * * * * * * * * * * * * * * * * * * * * * * * //

dimensions      [0 1 -1 0 0 0 0];

internalField   nonuniform List<scalar> 
1000
(
1.02111e-13
5.83492e-14
5.83492e-14
1.45873e-14
2.62571e-13
1.45873e-14
3.93857e-13
7.29365e-14
2.77159e-13
5.83492e-14
1.31286e-13
2.18809e-13
1.45873e-13
3.35508e-13
3.35508e-13
5.10555e-13
3.06333e-13
3.35508e-13
1.45873e-13
1.45873e-13
2.91746e-14
8.75238e-14
2.91746e-14
1.16698e-13
8.75238e-14
1.6046e-13
1.45873e-13
1.16698e-13
5.83492e-14
1.75048e-13
4.37619e-14
3.06333e-13
2.91746e-14
1.89635e-13
7.29365e-14
4.37619e-14
1.45873e-14
8.75238e-14
7.29365e-14
2.33397e-13
4.37619e-14
1.16698e-13
1.16698e-13
4.89094e-27
1.45873e-13
1.89635e-13
3.20921e-13
8.75238e-14
1.75048e-13
1.75048e-13
1.16698e-13
1.16698e-13
2.91746e-13
2.33397e-13
1.45873e-14
1.16698e-13
8.75238e-14
2.91746e-13
2.91746e-14
2.91746e-13
1.89635e-13
1.45873e-13
1.02111e-13
5.83492e-14
2.91746e-14
8.75238e-14
2.91746e-14
2.11525e-27
1.45873e-14
1.16698e-13
1.25902e-26
7.15655e-27
2.33397e-13
2.04222e-13
8.75238e-14
2.04222e-13
2.91746e-14
3.06333e-13
1.16698e-13
2.33397e-13
4.37619e-14
1.31286e-13
1.45873e-14
1.75048e-13
1.02111e-13
2.91746e-14
1.45873e-13
1.02111e-13
7.29365e-14
7.29365e-14
1.31286e-13
2.04222e-13
2.91746e-14
4.62272e-27
1.31286e-13
1.02111e-13
2.91746e-14
4.37619e-14
7.29365e-14
1.45873e-14
6.4371e-28
1.6046e-13
5.83492e-14
7.29365e-14
8.2137e-28
1.45873e-14
6.50021e-28
1.16698e-13
7.29365e-14
1.16698e-13
7.29365e-14
3.20921e-13
1.42626e-27
2.62571e-13
8.75238e-14
1.75048e-13
5.83492e-14
1.42311e-27
4.37619e-14
8.75238e-14
4.37619e-14
1.02111e-13
1.31286e-13
1.75048e-13
1.45873e-14
4.37619e-14
8.58281e-27
9.85863e-27
4.37619e-14
1.45873e-14
1.02111e-13
2.91746e-14
1.16698e-13
4.75983e-27
1.16698e-13
2.91746e-14
2.77159e-13
7.29365e-14
7.29365e-14
2.77159e-13
1.16698e-13
4.37619e-14
1.02111e-13
2.47984e-13
7.29365e-14
1.6046e-13
2.18809e-13
2.91746e-13
1.75048e-13
2.47984e-13
8.75238e-14
4.37619e-14
2.91746e-14
1.45873e-14
2.04788e-27
1.6046e-13
4.37619e-14
5.83492e-14
1.31286e-13
4.37619e-14
1.45873e-13
2.91746e-14
1.45873e-13
1.45873e-14
8.75238e-14
2.47984e-13
1.02111e-13
3.20921e-13
1.6046e-13
2.18809e-13
1.45873e-14
1.02111e-13
1.16698e-13
2.04222e-13
2.91746e-14
3.35508e-13
2.33397e-13
2.47984e-13
1.16698e-13
1.02111e-13
1.45873e-13
1.75048e-13
2.91746e-13
3.50095e-13
1.75048e-13
2.04222e-13
1.89635e-13
2.47984e-13
2.04222e-13
3.7927e-13
3.64682e-13
5.10555e-13
5.10555e-13
3.20921e-13
6.41841e-13
5.3973e-13
8.02301e-13
5.98079e-13
6.71016e-13
4.08444e-13
6.56428e-13
7.29365e-13
7.14777e-13
7.43952e-13
6.71016e-13
5.25143e-13
8.75238e-13
5.25143e-13
6.85603e-13
4.81381e-13
7.58539e-13
4.81381e-13
6.41841e-13
4.23032e-13
8.16889e-13
2.62571e-13
6.85603e-13
3.93857e-13
5.10555e-13
6.41841e-13
5.98079e-13
7.29365e-13
7.87714e-13
1.05029e-12
1.00652e-12
1.13781e-12
1.32744e-12
1.0357e-12
1.23992e-12
1.0357e-12
8.46063e-13
8.46063e-13
4.81381e-13
5.10555e-13
3.06333e-13
4.95968e-13
5.83492e-13
4.95968e-13
6.71016e-13
3.7927e-13
6.27254e-13
3.20921e-13
6.27254e-13
5.25143e-13
5.10555e-13
3.20921e-13
5.68905e-13
3.7927e-13
4.66793e-13
5.10555e-13
5.54317e-13
3.20921e-13
4.81381e-13
2.04222e-13
4.52206e-13
4.23032e-13
4.66793e-13
3.20921e-13
6.85603e-13
3.93857e-13
5.25143e-13
5.3973e-13
4.81381e-13
5.10555e-13
6.12666e-13
7.29365e-13
9.62762e-13
1.12322e-12
1.23992e-12
1.29827e-12
1.28368e-12
1.07946e-12
1.16698e-12
1.19616e-12
1.21075e-12
1.22533e-12
1.44414e-12
1.76506e-12
2.71324e-12
4.595e-12
8.37311e-12
1.54188e-11
2.90433e-11
5.5067e-11
1.04576e-10
1.976e-10
3.72472e-10
6.97725e-10
1.30082e-09
2.41001e-09
4.44061e-09
8.13087e-09
1.47997e-08
2.67696e-08
4.81196e-08
8.5949e-08
1.52535e-07
2.68953e-07
4.71113e-07
8.19751e-07
1.41681e-06
2.43209e-06
4.14617e-06
7.01901e-06
1.17985e-05
1.96908e-05
3.26244e-05
5.36564e-05
8.75906e-05
0.000141908
0.000228151
0.000363964
0.00057606
0.000904481
0.00140865
0.00217583
0.00333282
0.00506184
0.0076218
0.0113763
0.0168296
0.0246728
0.0358401
0.0515775
0.0735233
0.103799
0.145111
0.20085
0.275193
0.373186
0.500802
0.664949
0.87342
1.13476
1.458
1.85235
2.32664
2.88873
3.54477
4.29868
5.15178
6.10274
7.14766
8.28038
9.49304
10.7767
12.122
13.5199
14.9618
16.4401
17.9486
19.4819
21.0358
22.6073
24.1937
25.7935
27.4051
29.0277
30.6605
32.3028
33.9544
35.6147
37.2835
38.9604
40.6451
42.3374
44.037
45.7437
47.4572
49.1774
50.9039
52.6365
54.3752
56.1196
57.8696
59.6251
61.3857
63.1515
64.9221
66.6975
68.4775
70.2619
72.0507
73.8436
75.6406
77.4414
79.2461
81.0543
82.8661
84.6813
86.4998
88.3214
90.1461
91.9738
93.8042
95.6374
97.4732
99.3115
101.152
102.995
104.84
106.688
108.537
110.388
112.241
114.095
115.952
117.809
119.668
121.529
123.39
125.253
127.117
128.981
130.847
132.713
134.579
136.446
138.314
140.182
142.05
143.918
145.786
147.654
149.521
151.388
153.255
155.121
156.987
158.851
160.715
162.578
164.439
166.299
168.157
170.014
171.869
173.722
175.573
177.422
179.268
181.112
182.953
184.791
186.626
188.458
190.286
192.11
193.931
195.747
197.559
199.367
201.169
202.967
204.759
206.545
208.326
210.1
211.868
213.63
215.384
217.13
218.869
220.6
222.322
224.035
225.739
227.433
229.117
230.79
232.453
234.104
235.743
237.369
238.982
240.582
242.168
243.739
245.295
246.835
248.359
249.866
251.355
252.826
254.278
255.711
257.123
258.514
259.884
261.232
262.556
263.858
265.134
266.386
267.613
268.813
269.986
271.132
272.249
273.339
274.399
275.429
276.429
277.399
278.338
279.245
280.122
280.966
281.779
282.559
283.308
284.025
284.71
285.363
285.985
286.576
287.136
287.666
288.166
288.637
289.079
289.494
289.882
290.244
290.58
290.892
291.181
291.448
291.693
291.917
292.123
292.31
292.48
292.634
292.773
292.898
293.01
293.109
293.198
293.276
293.345
293.406
293.458
293.504
293.543
293.577
293.606
293.63
293.65
293.667
293.681
293.692
293.7
293.707
293.712
293.716
293.718
293.72
293.72
293.72
293.72
293.719
293.717
293.716
293.714
293.712
293.71
293.709
293.707
293.705
293.704
293.702
293.701
293.701
293.7
293.7
293.701
293.702
293.704
293.707
293.711
293.716
293.723
293.731
293.742
293.755
293.772
293.791
293.814
293.841
293.872
293.908
293.95
293.997
294.05
294.108
294.173
294.244
294.321
294.403
294.49
294.582
294.678
294.777
294.878
294.979
295.081
295.18
295.277
295.369
295.456
295.535
295.605
295.666
295.715
295.752
295.776
295.787
295.784
295.767
295.737
295.693
295.636
295.568
295.49
295.403
295.308
295.208
295.104
294.997
294.889
294.782
294.676
294.574
294.476
294.384
294.297
294.216
294.141
294.073
294.012
293.956
293.908
293.864
293.827
293.794
293.766
293.742
293.722
293.705
293.692
293.68
293.671
293.664
293.658
293.654
293.651
293.649
293.647
293.646
293.646
293.646
293.647
293.647
293.648
293.649
293.65
293.651
293.652
293.653
293.654
293.655
293.655
293.655
293.655
293.654
293.653
293.652
293.649
293.646
293.641
293.636
293.628
293.619
293.608
293.593
293.576
293.555
293.529
293.498
293.46
293.415
293.36
293.294
293.216
293.122
293.01
292.876
292.716
292.526
292.299
292.029
291.707
291.325
290.869
290.327
289.681
288.912
287.995
286.901
285.594
284.032
282.16
279.913
277.21
273.947
269.993
265.181
259.293
252.038
243.022
231.692
217.235
198.399
173.228
139.168
95.5541
50.5056
19.4793
5.89287
1.56825
0.395384
0.0979406
0.0241484
0.00594746
0.0014644
0.000360541
8.87637e-05
2.18527e-05
5.37977e-06
1.32438e-06
3.26024e-07
8.02554e-08
1.9755e-08
4.8622e-09
1.19613e-09
2.93993e-10
7.15946e-11
1.73735e-11
3.35508e-12
6.41842e-13
6.27255e-13
4.95969e-13
1.00652e-12
7.5854e-13
7.73128e-13
6.71017e-13
7.29366e-13
9.04414e-13
9.48176e-13
8.31477e-13
7.29366e-13
8.31477e-13
5.54318e-13
9.04414e-13
3.50096e-13
9.7735e-13
7.29366e-13
8.31477e-13
6.41842e-13
7.29366e-13
6.85604e-13
8.31477e-13
5.9808e-13
1.00652e-12
4.3762e-13
8.46064e-13
4.66794e-13
5.39731e-13
3.7927e-13
4.08445e-13
1.6046e-13
4.81381e-13
2.91746e-14
1.02111e-13
1.02111e-13
1.02111e-13
8.75239e-14
1.6046e-13
4.3762e-14
3.20921e-13
2.91746e-13
7.87715e-13
5.10556e-13
9.48176e-13
3.93858e-13
8.02302e-13
1.89635e-13
8.89826e-13
3.50096e-13
1.06487e-12
6.56429e-13
8.60652e-13
9.04414e-13
8.1689e-13
5.68905e-13
5.25143e-13
3.06334e-13
3.35508e-13
2.1881e-13
4.3762e-14
2.91746e-14
8.75239e-14
2.33397e-13
2.04222e-13
8.75239e-14
2.1881e-13
1.6046e-13
4.3762e-14
1.31286e-13
2.1881e-13
2.04222e-13
1.16699e-13
3.20921e-13
2.33397e-13
5.68905e-13
1.89635e-13
4.3762e-13
5.83493e-14
2.1881e-13
1.89635e-13
1.45873e-14
2.04222e-13
1.02111e-13
1.02111e-13
2.33397e-13
8.75239e-14
4.3762e-14
1.02111e-13
5.83493e-14
1.89635e-13
1.0678e-26
2.33397e-13
7.29366e-14
2.91746e-14
7.29366e-14
1.6046e-13
5.83493e-14
3.7927e-13
7.29366e-14
4.3762e-13
5.83493e-14
5.83493e-14
5.83493e-14
2.77159e-13
1.16699e-13
4.81381e-13
1.16699e-13
5.42736e-27
2.04222e-13
5.83442e-27
1.89635e-13
2.91746e-14
1.45873e-13
7.36481e-27
1.89635e-13
1.31286e-13
1.02111e-13
1.6046e-13
3.06334e-13
1.31286e-13
4.52207e-13
1.6046e-13
7.5854e-13
2.91746e-13
5.68905e-13
3.20921e-13
6.56429e-13
4.23032e-13
5.83493e-13
5.9808e-13
7.29366e-13
5.10556e-13
8.1689e-13
6.27255e-13
4.81381e-13
4.81381e-13
4.3762e-13
5.9808e-13
5.10556e-13
6.12667e-13
6.12667e-13
8.1689e-13
5.68905e-13
5.83493e-13
3.50096e-13
5.68905e-13
3.35508e-13
4.95969e-13
3.35508e-13
4.81381e-13
5.68905e-13
5.68905e-13
7.29366e-13
3.93858e-13
6.27255e-13
2.33397e-13
5.39731e-13
3.35508e-13
6.27255e-13
5.68905e-13
6.85604e-13
5.10556e-13
2.04222e-13
1.31286e-13
1.02111e-13
7.29366e-14
8.75239e-14
5.83493e-14
4.3762e-14
1.6046e-13
1.45873e-14
2.1881e-13
2.04222e-13
1.02111e-13
1.02111e-13
5.83493e-14
1.6046e-13
1.45873e-14
2.91746e-13
2.77159e-13
4.52207e-13
2.62572e-13
2.62572e-13
1.16699e-13
2.04222e-13
2.91746e-13
3.20921e-13
4.52207e-13
4.08445e-13
5.54318e-13
3.35508e-13
5.39731e-13
1.16699e-13
4.3762e-13
2.62572e-13
3.93858e-13
3.64683e-13
1.89635e-13
1.45873e-13
2.91746e-14
1.04287e-26
2.91746e-14
1.6046e-13
2.1881e-13
1.16699e-13
2.04222e-13
1.31286e-13
4.23032e-13
1.89635e-13
3.64683e-13
2.91746e-14
2.91746e-13
2.33397e-13
4.52207e-13
5.83493e-14
2.77159e-13
1.02111e-13
2.91746e-13
3.50096e-13
4.3762e-13
3.7927e-13
4.08445e-13
4.23032e-13
3.35508e-13
3.50096e-13
4.23032e-13
2.91746e-13
4.52207e-13
2.77159e-13
6.71017e-13
6.56429e-13
5.83493e-13
5.25143e-13
4.66794e-13
6.41842e-13
5.39731e-13
4.3762e-13
4.3762e-13
5.9808e-13
6.56429e-13
5.39731e-13
5.39731e-13
4.3762e-13
7.87715e-13
4.81381e-13
7.43953e-13
5.54318e-13
4.95969e-13
4.95969e-13
)
;

boundaryField
{
    sides
    {
        type            calculated;
        value           nonuniform List<scalar> 2(4.95969e-13 1.02111e-13);
    }
    empty
    {
        type            empty;
    }
}


// ************************************************************************* //
