/*--------------------------------*- C++ -*----------------------------------*\
  =========                 |
  \\      /  F ield         | OpenFOAM: The Open Source CFD Toolbox
   \\    /   O peration     | Website:  https://openfoam.org
    \\  /    A nd           | Version:  13
     \\/     M anipulation  |
\*---------------------------------------------------------------------------*/
FoamFile
{
    format      ascii;
    class       volScalarField;
    location    "0.004";
    object      p;
}
// * * * * * * * * * * * * * * * * * * * * * * * * * * * * * * * * * * * * * //

dimensions      [1 -1 -2 0 0 0 0];

internalField   nonuniform List<scalar> 
1000
(
100000
100000
100000
100000
100000
100000
100000
100000
100000
100000
100000
100000
100000
100000
100000
100000
100000
100000
100000
100000
100000
100000
100000
100000
100000
100000
100000
100000
100000
100000
100000
100000
100000
100000
100000
100000
100000
100000
100000
100000
100000
100000
100000
100000
100000
100000
100000
100000
100000
100000
100000
100000
100000
100000
100000
100000
100000
100000
100000
100000
100000
100000
100000
100000
100000
100000
100000
100000
100000
100000
100000
100000
100000
100000
100000
100000
100000
100000
100000
100000
100000
100000
100000
100000
100000
100000
100000
100000
100000
100000
100000
100000
100000
100000
100000
100000
100000
100000
100000
100000
100000
100000
100000
100000
100000
100000
100000
100000
100000
100000
100000
100000
100000
100000
100000
100000
100000
100000
100000
100000
100000
100000
100000
100000
100000
100000
100000
100000
100000
100000
100000
100000
100000
100000
100000
100000
100000
100000
100000
100000
100000
100000
100000
100000
100000
100000
100000
100000
100000
100000
100000
100000
100000
100000
100000
100000
100000
100000
100000
100000
100000
100000
100000
100000
100000
100000
100000
100000
100000
100000
100000
100000
100000
100000
100000
100000
100000
100000
100000
100000
100000
100000
100000
100000
100000
100000
100000
100000
100000
100000
100000
100000
100000
100000
100000
100000
100000
100000
100000
100000
100000
100000
100000
100000
100000
100000
100000
100000
100000
100000
100000
100000
100000
100000
100000
100000
100000
100000
100000
100000
100000
100000
100000
100000
100000
100000
100000
100000
100000
100000
100000
100000
100000
100000
100000
100000
100000
100000
100000
100000
100000
100000
100000
100000
100000
100000
100000
100000
100000
100000
100000
100000
100000
100000
100000
100000
100000
100000
100000
100000
100000
100000
100000
100000
100000
100000
100000
100000
100000
100000
100000
100000
100000
100000
100000
100000
100000
100000
100000
100000
100000
100000
100000
100000
100000
100000
100000
100000
100000
100000
100000
100000
100000
100000
100000
100000
100000
100000
100000
100000
100000
100000
100000
100000
100000
100000
100000
100000
100000
99999.9
99999.9
99999.9
99999.8
99999.7
99999.5
99999.2
99998.8
99998.1
99997.2
99995.8
99993.8
99990.9
99986.8
99981
99972.8
99961.6
99946.3
99925.6
99898.1
99861.7
99814.2
99753.2
99675.7
99578.4
99458.1
99311.2
99134.5
98925
98680.4
98399.5
98081.7
97727.7
97339.3
96918.9
96469.9
95995.9
95500.8
94988.2
94461.6
93924.1
93378.2
92826.3
92269.8
91710.1
91148.3
90585.1
90020.9
89456.3
88891.4
88326.7
87762.1
87198
86634.4
86071.5
85509.3
84948.1
84387.8
83828.6
83270.6
82713.9
82158.5
81604.6
81052.1
80501.3
79952
79404.5
78858.8
78314.8
77772.8
77232.7
76694.5
76158.4
75624.4
75092.5
74562.7
74035.1
73509.8
72986.7
72465.9
71947.4
71431.3
70917.6
70406.3
69897.5
69391.1
68887.2
68385.8
67887
67390.7
66897
66405.9
65917.5
65431.6
64948.4
64467.9
63990.1
63515
63042.6
62572.9
62105.9
61641.7
61180.3
60721.7
60265.8
59812.7
59362.5
58915.1
58470.5
58028.7
57589.8
57153.7
56720.5
56290.2
55862.8
55438.3
55016.6
54597.9
54182.1
53769.2
53359.3
52952.3
52548.2
52147.1
51749
51353.8
50961.7
50572.5
50186.3
49803.1
49423
49045.9
48671.9
48300.9
47932.9
47568.1
47206.3
46847.7
46492.1
46139.7
45790.5
45444.4
45101.5
44761.8
44425.3
44092
43762
43435.3
43111.9
42791.8
42475
42161.6
41851.6
41545.1
41241.9
40942.3
40646.1
40353.5
40064.5
39779.1
39497.3
39219.2
38944.8
38674.1
38407.3
38144.3
37885.1
37629.9
37378.7
37131.4
36888.2
36649.1
36414.2
36183.4
35956.9
35734.7
35516.8
35303.3
35094.3
34889.7
34689.7
34494.2
34303.4
34117.2
33935.8
33759.1
33587.2
33420.1
33257.8
33100.4
32948
32800.4
32657.7
32520
32387.3
32259.4
32136.5
32018.5
31905.3
31797
31693.6
31594.8
31500.8
31411.4
31326.6
31246.3
31170.4
31098.8
31031.4
30968.1
30908.8
30853.3
30801.6
30753.5
30708.9
30667.5
30629.4
30594.3
30562.1
30532.6
30505.8
30481.3
30459.2
30439.1
30421.1
30405
30390.6
30377.7
30366.4
30356.4
30347.6
30339.9
30333.3
30327.5
30322.6
30318.4
30314.9
30312
30309.5
30307.6
30306
30304.7
30303.8
30303.1
30302.7
30302.4
30302.3
30302.3
30302.5
30302.7
30303
30303.3
30303.7
30304.2
30304.6
30305.1
30305.6
30306.1
30306.6
30307.1
30307.6
30308.2
30308.6
30309.1
30309.6
30310.1
30310.6
30311
30311.5
30311.9
30312.3
30312.7
30313.1
30313.5
30313.9
30314.3
30314.7
30315
30315.4
30315.7
30316.1
30316.4
30316.7
30317
30317.3
30317.7
30317.9
30318.2
30318.5
30318.8
30319.1
30319.4
30319.6
30319.9
30320.1
30320.4
30320.6
30320.9
30321.1
30321.4
30321.6
30321.8
30322.1
30322.3
30322.5
30322.7
30323
30323.2
30323.4
30323.6
30323.8
30324.1
30324.3
30324.5
30324.7
30324.9
30325.1
30325.3
30325.5
30325.7
30325.9
30326.1
30326.2
30326.4
30326.6
30326.8
30326.9
30327.1
30327.3
30327.4
30327.6
30327.7
30327.9
30328.1
30328.2
30328.4
30328.6
30328.7
30328.9
30329.1
30329.2
30329.4
30329.6
30329.7
30329.9
30330.1
30330.3
30330.5
30330.7
30330.8
30331
30331.2
30331.4
30331.6
30331.8
30332
30332.2
30332.3
30332.5
30332.7
30332.8
30333
30333.1
30333.2
30333.3
30333.4
30333.4
30333.4
30333.4
30333.3
30333.1
30332.8
30332.5
30332
30331.3
30330.5
30329.5
30328.2
30326.5
30324.6
30322.1
30319.2
30315.6
30311.3
30306.1
30299.9
30292.4
30283.4
30272.6
30259.7
30244.3
30226
30204.1
30178
30146.8
30109.8
30065.6
30012.9
29950.1
29875.2
29785.8
29679
29551.1
29397.9
29213.9
28992.5
28725.2
28401.4
28007.6
27526.1
26933.9
26200
25281.4
24115.9
22610.4
20632
18056.4
15020.6
12313.5
10785.7
10220
10056.4
10014
10003.5
10000.9
10000.2
10000.1
10000
10000
10000
10000
10000
10000
10000
10000
10000
10000
10000
10000
10000
10000
10000
10000
10000
10000
10000
10000
10000
10000
10000
10000
10000
10000
10000
10000
10000
10000
10000
10000
10000
10000
10000
10000
10000
10000
10000
10000
10000
10000
10000
10000
10000
10000
10000
10000
10000
10000
10000
10000
10000
10000
10000
10000
10000
10000
10000
10000
10000
10000
10000
10000
10000
10000
10000
10000
10000
10000
10000
10000
10000
10000
10000
10000
10000
10000
10000
10000
10000
10000
10000
10000
10000
10000
10000
10000
10000
10000
10000
10000
10000
10000
10000
10000
10000
10000
10000
10000
10000
10000
10000
10000
10000
10000
10000
10000
10000
10000
10000
10000
10000
10000
10000
10000
10000
10000
10000
10000
10000
10000
10000
10000
10000
10000
10000
10000
10000
10000
10000
10000
10000
10000
10000
10000
10000
10000
10000
10000
10000
10000
10000
10000
10000
10000
10000
10000
10000
10000
10000
10000
10000
10000
10000
10000
10000
10000
10000
10000
10000
10000
10000
10000
10000
10000
10000
10000
10000
10000
10000
10000
10000
10000
10000
10000
10000
10000
10000
10000
10000
10000
10000
10000
10000
10000
10000
10000
10000
10000
10000
10000
10000
10000
10000
10000
10000
10000
10000
10000
10000
10000
10000
10000
10000
10000
10000
10000
10000
10000
10000
10000
10000
10000
10000
10000
10000
10000
10000
10000
10000
10000
10000
10000
10000
10000
10000
10000
10000
10000
10000
10000
10000
10000
10000
10000
10000
10000
10000
10000
10000
10000
10000
10000
10000
10000
10000
10000
10000
10000
10000
10000
10000
10000
10000
10000
10000
10000
10000
10000
10000
10000
10000
10000
)
;

boundaryField
{
    sides
    {
        type            zeroGradient;
    }
    empty
    {
        type            empty;
    }
}


// ************************************************************************* //
