/*--------------------------------*- C++ -*----------------------------------*\
  =========                 |
  \\      /  F ield         | OpenFOAM: The Open Source CFD Toolbox
   \\    /   O peration     | Website:  https://openfoam.org
    \\  /    A nd           | Version:  13
     \\/     M anipulation  |
\*---------------------------------------------------------------------------*/
FoamFile
{
    format      ascii;
    class       surfaceScalarField;
    location    "0.004";
    object      phi;
}
// * * * * * * * * * * * * * * * * * * * * * * * * * * * * * * * * * * * * * //

dimensions      [1 0 -1 0 0 0 0];

internalField   nonuniform List<scalar> 
999
(
-2.45351e-13
1.34711e-13
-7.94085e-14
-4.72229e-13
-4.20187e-13
-8.2534e-13
-1.02096e-12
-8.48853e-13
-8.34234e-13
-3.89585e-13
6.62443e-14
6.37407e-13
1.10945e-12
1.59726e-12
1.45095e-12
1.71711e-12
1.22287e-12
1.03635e-12
5.49641e-13
2.65919e-13
2.58389e-13
6.09079e-14
2.32802e-13
4.62905e-13
3.22267e-13
8.35222e-13
-1.64392e-13
-1.45895e-13
-3.90829e-13
-5.70467e-13
-5.13624e-13
-6.80717e-13
-3.36714e-13
-2.02952e-13
4.30653e-14
2.66788e-13
1.53101e-13
4.16533e-13
6.93007e-13
5.51005e-13
3.00118e-13
1.9913e-15
-1.87464e-13
2.68152e-13
6.97808e-13
8.02601e-13
9.71767e-13
6.30706e-13
6.01027e-13
5.75441e-13
6.90492e-13
9.24032e-13
7.6812e-13
4.36663e-13
5.19748e-13
-5.14147e-14
4.99177e-13
9.29488e-13
6.86841e-13
1.5381e-13
-7.97296e-14
7.44393e-13
3.8759e-14
-1.09622e-13
-1.39729e-13
-3.62301e-13
-1.11696e-13
-1.30621e-13
-1.35636e-13
-4.46095e-13
-4.86862e-14
6.38892e-13
-1.03015e-13
-3.61859e-13
-1.28815e-13
-3.87445e-13
-4.96331e-13
-6.54033e-13
-9.60841e-13
-4.80789e-13
-4.86862e-14
-3.62087e-13
-3.69831e-13
-1.38151e-13
2.7159e-13
1.5381e-13
-5.41431e-14
1.15678e-13
2.95316e-13
3.30011e-13
6.42543e-13
4.29574e-13
-1.8298e-14
4.06061e-13
5.2455e-13
1.41265e-13
1.26646e-13
-5.41431e-14
2.59967e-13
5.95437e-14
3.04158e-13
4.58812e-13
3.92258e-13
1.91835e-13
-5.27789e-14
1.85765e-14
1.87742e-13
1.27462e-13
6.09079e-14
3.40217e-13
9.8557e-13
5.77956e-13
7.29065e-13
5.22477e-13
5.38353e-13
4.02624e-13
-1.63951e-13
-4.23066e-14
-2.17355e-14
-1.90193e-13
-4.05538e-14
-6.96807e-13
-7.36196e-13
-2.80366e-13
-1.85284e-13
-3.55385e-14
-8.13074e-14
-1.79118e-13
-9.5324e-14
-3.41516e-13
-1.20697e-13
-1.22275e-13
-4.46857e-13
-1.99301e-13
-2.62417e-13
-4.75599e-13
-8.87519e-13
-3.62087e-13
-6.31617e-13
-7.86271e-13
-3.73268e-13
-3.99724e-13
-5.68608e-13
-6.87096e-13
-5.93981e-13
-6.19178e-13
-1.01522e-12
-1.05598e-12
-8.90248e-13
-5.89072e-13
-3.25426e-13
-1.70986e-13
-1.2091e-13
1.3772e-13
-4.55203e-13
-9.10176e-14
-1.77754e-13
-2.12662e-13
-5.69103e-13
-4.00539e-13
-2.39613e-13
-2.79216e-13
-3.86523e-13
-2.22159e-13
5.08674e-13
4.85267e-13
9.4618e-13
9.48254e-13
8.60809e-13
4.39391e-13
1.28826e-13
-7.00995e-15
1.5381e-13
6.66056e-13
7.35338e-13
1.02572e-12
8.13728e-13
9.72971e-13
2.89485e-13
4.42775e-13
8.30969e-13
8.42043e-13
1.24268e-12
1.21415e-12
6.41018e-13
6.85316e-13
9.84045e-13
8.89177e-13
1.4035e-12
1.21709e-12
1.87205e-12
2.00384e-12
1.76747e-12
2.01857e-12
2.45793e-12
2.85584e-12
2.85584e-12
2.55007e-12
1.97193e-12
2.33808e-12
2.94257e-12
2.62846e-12
2.81165e-12
2.98491e-12
2.47468e-12
2.65274e-12
2.64657e-12
2.38794e-12
2.27426e-12
2.77592e-12
2.35107e-12
2.36078e-12
2.09107e-12
2.34834e-12
1.9332e-12
2.33246e-12
1.88312e-12
1.76747e-12
2.33519e-12
2.4378e-12
2.86424e-12
3.00918e-12
3.73091e-12
4.23955e-12
4.29913e-12
4.8662e-12
4.47467e-12
4.81072e-12
4.23955e-12
4.01082e-12
3.30927e-12
2.58275e-12
1.83468e-12
1.67866e-12
1.69317e-12
2.06549e-12
2.2514e-12
2.61243e-12
1.98012e-12
2.09244e-12
1.91983e-12
2.05098e-12
2.35107e-12
1.96151e-12
1.65034e-12
2.0003e-12
2.04803e-12
1.63633e-12
2.12233e-12
2.07793e-12
1.66601e-12
1.47823e-12
1.52057e-12
1.37366e-12
1.63425e-12
1.71472e-12
1.65013e-12
1.85192e-12
2.22833e-12
1.6162e-12
2.27115e-12
2.11033e-12
2.09926e-12
2.186e-12
2.54107e-12
3.28004e-12
4.61035e-12
4.40245e-12
5.16563e-12
5.251e-12
5.05538e-12
4.363e-12
4.55077e-12
4.78088e-12
4.79899e-12
5.30632e-12
5.84557e-12
8.36807e-12
1.39558e-11
2.38257e-11
4.37973e-11
8.19708e-11
1.54758e-10
2.94337e-10
5.57596e-10
1.05341e-09
1.98049e-09
3.70289e-09
6.88461e-09
1.27263e-08
2.33855e-08
4.27133e-08
7.75369e-08
1.39877e-07
2.50754e-07
4.46658e-07
7.90491e-07
1.38989e-06
2.42767e-06
4.21203e-06
7.25854e-06
1.2423e-05
2.11148e-05
3.56362e-05
5.97174e-05
9.93514e-05
0.000164085
0.000268996
0.000437682
0.000706746
0.00113243
0.00180036
0.00283959
0.00444274
0.00689432
0.0106103
0.0161919
0.0244993
0.0367479
0.0546354
0.0805041
0.117544
0.170042
0.24368
0.345876
0.486174
0.676644
0.932301
1.27147
1.71609
2.29185
3.0281
3.95755
5.11547
6.53853
8.26311
10.3231
12.7471
15.5551
18.7566
22.3496
26.3207
30.6456
35.2912
40.2182
45.3836
50.7444
56.2589
61.8898
67.6041
73.3747
79.1793
85.0007
90.8254
96.6437
102.448
108.233
113.995
119.731
125.438
131.114
136.758
142.369
147.945
153.485
158.988
164.453
169.879
175.265
180.611
185.916
191.178
196.398
201.574
206.707
211.795
216.838
221.836
226.788
231.694
236.554
241.366
246.132
250.85
255.52
260.143
264.717
269.244
273.721
278.151
282.531
286.863
291.146
295.38
299.565
303.7
307.787
311.825
315.813
319.752
323.642
327.484
331.276
335.019
338.713
342.358
345.954
349.502
353.001
356.452
359.854
363.208
366.514
369.771
372.981
376.144
379.258
382.325
385.345
388.318
391.244
394.123
396.956
399.742
402.482
405.177
407.825
410.428
412.986
415.499
417.966
420.389
422.768
425.103
427.393
429.64
431.844
434.004
436.121
438.196
440.228
442.218
444.166
446.072
447.937
449.761
451.544
453.287
454.989
456.652
458.274
459.857
461.401
462.907
464.374
465.802
467.193
468.546
469.862
471.141
472.384
473.59
474.76
475.895
476.994
478.059
479.089
480.085
481.047
481.976
482.872
483.735
484.566
485.365
486.133
486.87
487.577
488.253
488.9
489.518
490.107
490.668
491.202
491.708
492.188
492.641
493.07
493.473
493.852
494.207
494.539
494.849
495.137
495.403
495.649
495.875
496.082
496.27
496.44
496.594
496.731
496.852
496.958
497.05
497.128
497.194
497.248
497.29
497.322
497.344
497.357
497.361
497.358
497.348
497.331
497.308
497.28
497.247
497.21
497.17
497.127
497.081
497.032
496.982
496.931
496.878
496.825
496.771
496.717
496.662
496.608
496.554
496.5
496.447
496.394
496.342
496.291
496.24
496.189
496.139
496.089
496.04
495.991
495.943
495.894
495.846
495.798
495.749
495.7
495.651
495.601
495.551
495.5
495.448
495.396
495.342
495.287
495.231
495.174
495.114
495.054
494.991
494.927
494.86
494.791
494.72
494.646
494.569
494.489
494.406
494.318
494.226
494.13
494.027
493.918
493.802
493.676
493.54
493.391
493.227
493.045
492.841
492.61
492.348
492.047
491.701
491.301
490.837
490.299
489.673
488.946
488.104
487.131
486.009
484.722
483.251
481.579
479.689
477.563
475.187
472.547
469.632
466.436
462.952
459.18
455.123
450.788
446.188
441.338
436.259
430.976
425.516
419.912
414.196
408.406
402.579
396.752
390.963
385.249
379.645
374.183
368.895
363.806
358.939
354.315
349.948
345.849
342.026
338.482
335.216
332.226
329.504
327.042
324.828
322.85
321.094
319.543
318.184
316.999
315.974
315.091
314.338
313.699
313.16
312.711
312.338
312.032
311.783
311.583
311.424
311.299
311.203
311.131
311.079
311.042
311.019
311.005
310.999
311
311.005
311.014
311.025
311.039
311.053
311.069
311.084
311.1
311.116
311.131
311.146
311.16
311.174
311.187
311.199
311.21
311.22
311.229
311.237
311.244
311.248
311.252
311.253
311.252
311.248
311.24
311.229
311.214
311.193
311.167
311.132
311.089
311.036
310.971
310.89
310.793
310.675
310.533
310.362
310.156
309.91
309.615
309.262
308.841
308.338
307.737
307.021
306.165
305.143
303.923
302.464
300.717
298.623
296.108
293.081
289.427
285.002
279.621
273.043
264.953
254.927
242.375
226.442
205.815
178.476
141.947
96.0995
49.8438
18.8855
5.6014
1.45791
0.3633
0.0896284
0.0220725
0.00543445
0.00133798
0.000329411
8.10997e-05
1.9966e-05
4.91535e-06
1.21006e-06
2.97885e-07
7.33295e-08
1.80507e-08
4.44304e-09
1.09338e-09
2.68901e-10
6.59461e-11
1.60248e-11
3.69138e-12
7.32689e-13
-1.0917e-13
-3.00408e-13
-3.54518e-13
-4.76619e-13
-3.79307e-13
-3.6907e-13
-3.23293e-13
-4.16964e-13
-4.81989e-13
-4.50431e-13
-4.10699e-13
-3.8244e-13
-3.47579e-13
-3.66827e-13
-3.33697e-13
-3.30565e-13
-4.42985e-13
-3.99446e-13
-3.70293e-13
-3.05604e-13
-3.90772e-13
-3.54177e-13
-3.49139e-13
-3.80194e-13
-3.76887e-13
-3.39904e-13
-2.9867e-13
-2.72262e-13
-2.24368e-13
-2.09941e-13
-1.54105e-13
-1.30721e-13
-1.56347e-13
6.65923e-15
-2.21075e-14
6.31817e-15
-1.50021e-14
-1.24267e-14
-7.60503e-15
7.66689e-14
1.69218e-13
2.61589e-13
3.11156e-13
3.69734e-13
3.48081e-13
2.96434e-13
2.6349e-13
2.44075e-13
3.16872e-13
3.68515e-13
3.8412e-13
3.86744e-13
4.66976e-13
4.40796e-13
3.62458e-13
2.26428e-13
1.92457e-13
1.78417e-13
1.48256e-13
5.76204e-14
-1.4112e-14
4.35874e-16
4.87802e-14
-2.69251e-15
-2.30016e-14
-5.12608e-14
-7.15739e-14
-6.53051e-14
-4.27577e-14
-7.74522e-14
-6.66556e-15
2.36574e-14
7.00965e-14
1.82907e-14
9.81851e-14
8.44779e-14
6.50708e-14
1.17388e-13
4.82392e-14
-3.91165e-15
-6.68693e-14
-2.18199e-14
-6.37329e-14
1.37647e-14
2.95437e-14
3.85544e-14
-5.64637e-15
-2.35012e-14
-4.57195e-14
-5.90937e-14
-6.82669e-14
-3.47996e-14
-7.224e-14
3.50809e-14
-1.03469e-14
3.02258e-14
1.79162e-14
6.38437e-14
1.04067e-13
8.25766e-14
6.9926e-14
1.32531e-14
4.07585e-15
6.23129e-14
1.03215e-13
1.69402e-13
1.07699e-13
-4.82949e-14
-4.84655e-14
-6.87785e-14
-3.3747e-14
-5.6802e-14
-6.02755e-14
-3.7387e-14
-2.75356e-14
-1.31423e-14
4.60049e-14
8.9145e-14
8.72398e-14
1.37319e-13
1.41137e-13
1.71631e-13
2.1807e-13
2.57066e-13
2.43022e-13
2.03689e-13
2.76311e-13
2.38542e-13
2.60195e-13
3.29518e-13
3.18944e-13
2.84981e-13
3.23137e-13
3.48592e-13
3.10099e-13
2.19805e-13
2.34186e-13
2.4823e-13
2.82193e-13
2.94669e-13
2.97968e-13
3.4043e-13
3.69189e-13
2.87385e-13
2.22925e-13
2.17047e-13
2.42174e-13
1.97469e-13
1.99029e-13
2.0059e-13
2.56039e-13
2.9157e-13
3.32643e-13
2.84806e-13
2.77538e-13
1.83599e-13
2.10794e-13
2.26232e-13
2.28133e-13
2.9365e-13
3.2e-13
3.41146e-13
1.46879e-13
5.60562e-14
2.95357e-14
-3.54817e-14
-1.29885e-15
-7.01461e-15
-6.00342e-15
-6.92901e-14
-2.30096e-14
3.56259e-14
1.2627e-13
5.00073e-14
-2.69651e-15
-2.35545e-15
5.05189e-14
4.3243e-14
-7.03467e-14
-1.59151e-13
-1.95576e-13
-1.57412e-13
-1.64521e-13
-8.97618e-14
-6.87785e-14
-1.40069e-13
-1.74597e-13
-1.76831e-13
-2.60772e-13
-2.12761e-13
-2.61999e-13
-2.01284e-13
-1.50307e-13
-1.78399e-13
-1.48239e-13
-1.87073e-13
-1.72691e-13
-1.44428e-13
-8.4046e-14
-4.95221e-14
-9.29035e-15
6.65923e-15
-7.29181e-14
-7.05173e-14
-1.09189e-13
-7.67366e-14
-6.75594e-14
-1.28994e-13
-1.87967e-13
-1.3055e-13
-8.16371e-14
-1.00162e-13
-1.35031e-13
-1.87414e-13
-1.21831e-13
-7.79637e-14
-4.62351e-14
-7.27556e-14
-1.54288e-13
-2.06329e-13
-2.15003e-13
-2.03363e-13
-1.79634e-13
-1.94178e-13
-1.85505e-13
-1.78229e-13
-2.02681e-13
-1.78058e-13
-1.79626e-13
-2.43978e-13
-3.20976e-13
-3.36422e-13
-2.72744e-13
-2.7482e-13
-3.01739e-13
-2.97933e-13
-2.20931e-13
-2.26131e-13
-2.59087e-13
-3.56394e-13
-3.13529e-13
-2.818e-13
-2.56791e-13
-3.31388e-13
-3.14041e-13
-3.34183e-13
-3.29649e-13
-2.9619e-13
-2.26131e-13
)
;

boundaryField
{
    sides
    {
        type            calculated;
        value           nonuniform List<scalar> 2(-2.54659e-13 4.07454e-13);
    }
    empty
    {
        type            empty;
    }
}


// ************************************************************************* //
