/*--------------------------------*- C++ -*----------------------------------*\
  =========                 |
  \\      /  F ield         | OpenFOAM: The Open Source CFD Toolbox
   \\    /   O peration     | Website:  https://openfoam.org
    \\  /    A nd           | Version:  13
     \\/     M anipulation  |
\*---------------------------------------------------------------------------*/
FoamFile
{
    format      ascii;
    class       volScalarField;
    location    "0.004";
    object      rho;
}
// * * * * * * * * * * * * * * * * * * * * * * * * * * * * * * * * * * * * * //

dimensions      [1 -3 0 0 0 0 0];

internalField   nonuniform List<scalar> 
1000
(
0.997575
0.997575
0.997575
0.997575
0.997575
0.997575
0.997575
0.997575
0.997575
0.997575
0.997575
0.997575
0.997575
0.997575
0.997575
0.997575
0.997575
0.997575
0.997575
0.997575
0.997575
0.997575
0.997575
0.997575
0.997575
0.997575
0.997575
0.997575
0.997575
0.997575
0.997575
0.997575
0.997575
0.997575
0.997575
0.997575
0.997575
0.997575
0.997575
0.997575
0.997575
0.997575
0.997575
0.997575
0.997575
0.997575
0.997575
0.997575
0.997575
0.997575
0.997575
0.997575
0.997575
0.997575
0.997575
0.997575
0.997575
0.997575
0.997575
0.997575
0.997575
0.997575
0.997575
0.997575
0.997575
0.997575
0.997575
0.997575
0.997575
0.997575
0.997575
0.997575
0.997575
0.997575
0.997575
0.997575
0.997575
0.997575
0.997575
0.997575
0.997575
0.997575
0.997575
0.997575
0.997575
0.997575
0.997575
0.997575
0.997575
0.997575
0.997575
0.997575
0.997575
0.997575
0.997575
0.997575
0.997575
0.997575
0.997575
0.997575
0.997575
0.997575
0.997575
0.997575
0.997575
0.997575
0.997575
0.997575
0.997575
0.997575
0.997575
0.997575
0.997575
0.997575
0.997575
0.997575
0.997575
0.997575
0.997575
0.997575
0.997575
0.997575
0.997575
0.997575
0.997575
0.997575
0.997575
0.997575
0.997575
0.997575
0.997575
0.997575
0.997575
0.997575
0.997575
0.997575
0.997575
0.997575
0.997575
0.997575
0.997575
0.997575
0.997575
0.997575
0.997575
0.997575
0.997575
0.997575
0.997575
0.997575
0.997575
0.997575
0.997575
0.997575
0.997575
0.997575
0.997575
0.997575
0.997575
0.997575
0.997575
0.997575
0.997575
0.997575
0.997575
0.997575
0.997575
0.997575
0.997575
0.997575
0.997575
0.997575
0.997575
0.997575
0.997575
0.997575
0.997575
0.997575
0.997575
0.997575
0.997575
0.997575
0.997575
0.997575
0.997575
0.997575
0.997575
0.997575
0.997575
0.997575
0.997575
0.997575
0.997575
0.997575
0.997575
0.997575
0.997575
0.997575
0.997575
0.997575
0.997575
0.997575
0.997575
0.997575
0.997575
0.997575
0.997575
0.997575
0.997575
0.997575
0.997575
0.997575
0.997575
0.997575
0.997575
0.997575
0.997575
0.997575
0.997575
0.997575
0.997575
0.997575
0.997575
0.997575
0.997575
0.997575
0.997575
0.997575
0.997575
0.997575
0.997575
0.997575
0.997575
0.997575
0.997575
0.997575
0.997575
0.997575
0.997575
0.997575
0.997575
0.997575
0.997575
0.997575
0.997575
0.997575
0.997575
0.997575
0.997575
0.997575
0.997575
0.997575
0.997575
0.997575
0.997575
0.997575
0.997575
0.997575
0.997575
0.997575
0.997575
0.997575
0.997575
0.997575
0.997575
0.997575
0.997575
0.997575
0.997575
0.997575
0.997575
0.997575
0.997575
0.997575
0.997575
0.997575
0.997575
0.997575
0.997575
0.997575
0.997575
0.997575
0.997575
0.997575
0.997575
0.997575
0.997575
0.997575
0.997575
0.997575
0.997575
0.997575
0.997575
0.997575
0.997575
0.997575
0.997575
0.997575
0.997575
0.997575
0.997575
0.997575
0.997575
0.997575
0.997575
0.997575
0.997574
0.997574
0.997574
0.997574
0.997574
0.997574
0.997573
0.997572
0.997571
0.997569
0.997566
0.997561
0.997555
0.997545
0.99753
0.99751
0.99748
0.997439
0.997381
0.997301
0.997192
0.997045
0.996849
0.996589
0.996252
0.995817
0.995264
0.994571
0.993713
0.992666
0.991405
0.98991
0.988163
0.986155
0.983882
0.981347
0.978563
0.975546
0.972319
0.968908
0.965339
0.961638
0.95783
0.953936
0.949975
0.945962
0.94191
0.937826
0.93372
0.929595
0.925456
0.921306
0.917146
0.912979
0.908806
0.904627
0.900445
0.89626
0.892072
0.887882
0.883692
0.879502
0.875312
0.871124
0.866937
0.862753
0.858572
0.854395
0.850221
0.846052
0.841888
0.83773
0.833577
0.829431
0.825291
0.821158
0.817033
0.812916
0.808807
0.804706
0.800614
0.796531
0.792458
0.788394
0.78434
0.780297
0.776263
0.772241
0.76823
0.76423
0.760241
0.756264
0.752299
0.748346
0.744405
0.740477
0.736562
0.732659
0.72877
0.724894
0.721032
0.717183
0.713348
0.709527
0.70572
0.701928
0.69815
0.694387
0.690639
0.686906
0.683188
0.679485
0.675798
0.672126
0.66847
0.66483
0.661207
0.657599
0.654008
0.650434
0.646876
0.643335
0.639811
0.636305
0.632816
0.629344
0.62589
0.622454
0.619036
0.615636
0.612254
0.608891
0.605547
0.602222
0.598915
0.595629
0.592361
0.589114
0.585886
0.582679
0.579492
0.576326
0.57318
0.570056
0.566953
0.563872
0.560812
0.557775
0.554761
0.551769
0.5488
0.545855
0.542934
0.540037
0.537164
0.534316
0.531494
0.528697
0.525926
0.523182
0.520465
0.517775
0.515113
0.512479
0.509874
0.507298
0.504753
0.502237
0.499753
0.4973
0.494879
0.492491
0.490136
0.487815
0.485528
0.483277
0.481061
0.478882
0.47674
0.474635
0.472569
0.470542
0.468555
0.466607
0.464701
0.462836
0.461014
0.459234
0.457498
0.455805
0.454157
0.452553
0.450995
0.449482
0.448016
0.446596
0.445222
0.443895
0.442615
0.441382
0.440195
0.439055
0.437962
0.436916
0.435915
0.434959
0.434049
0.433183
0.432361
0.431582
0.430845
0.43015
0.429494
0.428878
0.428299
0.427758
0.427252
0.42678
0.42634
0.425932
0.425555
0.425205
0.424883
0.424586
0.424313
0.424062
0.423833
0.423623
0.423432
0.423257
0.423098
0.422953
0.422822
0.422702
0.422592
0.422493
0.422401
0.422318
0.422241
0.42217
0.422104
0.422043
0.421985
0.42193
0.421878
0.421828
0.42178
0.421733
0.421686
0.42164
0.421594
0.421547
0.4215
0.421453
0.421404
0.421354
0.421303
0.42125
0.421196
0.421139
0.42108
0.421018
0.420954
0.420887
0.420816
0.420742
0.420663
0.420579
0.42049
0.420394
0.42029
0.420177
0.420053
0.419916
0.419763
0.419592
0.419398
0.419177
0.418923
0.41863
0.418291
0.417898
0.417442
0.41691
0.416293
0.415578
0.414751
0.413797
0.412702
0.411451
0.410028
0.40842
0.406611
0.404588
0.402341
0.399861
0.397139
0.394174
0.390962
0.387509
0.383818
0.379902
0.375773
0.371449
0.366951
0.362302
0.357531
0.352664
0.347735
0.342773
0.337812
0.332883
0.328017
0.323245
0.318595
0.314092
0.309759
0.305615
0.301678
0.297959
0.294469
0.291213
0.288195
0.285414
0.282868
0.28055
0.278453
0.276568
0.274883
0.273387
0.272067
0.270909
0.269899
0.269025
0.268274
0.267632
0.267087
0.266628
0.266244
0.265926
0.265665
0.265452
0.265281
0.265145
0.265038
0.264956
0.264893
0.264848
0.264816
0.264795
0.264782
0.264776
0.264776
0.264779
0.264786
0.264794
0.264805
0.264816
0.264828
0.26484
0.264852
0.264865
0.264877
0.264888
0.2649
0.264911
0.264921
0.264931
0.26494
0.264948
0.264956
0.264963
0.26497
0.264975
0.26498
0.264984
0.264986
0.264988
0.264988
0.264986
0.264982
0.264977
0.264968
0.264957
0.264942
0.264922
0.264898
0.264868
0.264831
0.264786
0.264731
0.264664
0.264584
0.264488
0.264372
0.264233
0.264067
0.263869
0.263632
0.26335
0.263013
0.26261
0.262129
0.261555
0.260869
0.260047
0.259061
0.257877
0.256451
0.254729
0.252642
0.250102
0.246992
0.243163
0.238407
0.232436
0.224825
0.214916
0.20173
0.184253
0.163159
0.143522
0.131519
0.126671
0.125206
0.124823
0.124728
0.124704
0.124699
0.124697
0.124697
0.124697
0.124697
0.124697
0.124697
0.124697
0.124697
0.124697
0.124697
0.124697
0.124697
0.124697
0.124697
0.124697
0.124697
0.124697
0.124697
0.124697
0.124697
0.124697
0.124697
0.124697
0.124697
0.124697
0.124697
0.124697
0.124697
0.124697
0.124697
0.124697
0.124697
0.124697
0.124697
0.124697
0.124697
0.124697
0.124697
0.124697
0.124697
0.124697
0.124697
0.124697
0.124697
0.124697
0.124697
0.124697
0.124697
0.124697
0.124697
0.124697
0.124697
0.124697
0.124697
0.124697
0.124697
0.124697
0.124697
0.124697
0.124697
0.124697
0.124697
0.124697
0.124697
0.124697
0.124697
0.124697
0.124697
0.124697
0.124697
0.124697
0.124697
0.124697
0.124697
0.124697
0.124697
0.124697
0.124697
0.124697
0.124697
0.124697
0.124697
0.124697
0.124697
0.124697
0.124697
0.124697
0.124697
0.124697
0.124697
0.124697
0.124697
0.124697
0.124697
0.124697
0.124697
0.124697
0.124697
0.124697
0.124697
0.124697
0.124697
0.124697
0.124697
0.124697
0.124697
0.124697
0.124697
0.124697
0.124697
0.124697
0.124697
0.124697
0.124697
0.124697
0.124697
0.124697
0.124697
0.124697
0.124697
0.124697
0.124697
0.124697
0.124697
0.124697
0.124697
0.124697
0.124697
0.124697
0.124697
0.124697
0.124697
0.124697
0.124697
0.124697
0.124697
0.124697
0.124697
0.124697
0.124697
0.124697
0.124697
0.124697
0.124697
0.124697
0.124697
0.124697
0.124697
0.124697
0.124697
0.124697
0.124697
0.124697
0.124697
0.124697
0.124697
0.124697
0.124697
0.124697
0.124697
0.124697
0.124697
0.124697
0.124697
0.124697
0.124697
0.124697
0.124697
0.124697
0.124697
0.124697
0.124697
0.124697
0.124697
0.124697
0.124697
0.124697
0.124697
0.124697
0.124697
0.124697
0.124697
0.124697
0.124697
0.124697
0.124697
0.124697
0.124697
0.124697
0.124697
0.124697
0.124697
0.124697
0.124697
0.124697
0.124697
0.124697
0.124697
0.124697
0.124697
0.124697
0.124697
0.124697
0.124697
0.124697
0.124697
0.124697
0.124697
0.124697
0.124697
0.124697
0.124697
0.124697
0.124697
0.124697
0.124697
0.124697
0.124697
0.124697
0.124697
0.124697
0.124697
0.124697
0.124697
0.124697
0.124697
0.124697
0.124697
0.124697
0.124697
0.124697
0.124697
0.124697
0.124697
0.124697
0.124697
0.124697
0.124697
0.124697
0.124697
0.124697
0.124697
0.124697
0.124697
0.124697
0.124697
0.124697
0.124697
0.124697
0.124697
0.124697
0.124697
0.124697
0.124697
0.124697
0.124697
0.124697
0.124697
0.124697
0.124697
0.124697
0.124697
0.124697
0.124697
0.124697
)
;

boundaryField
{
    sides
    {
        type            calculated;
        value           nonuniform List<scalar> 2(0.124697 0.997575);
    }
    empty
    {
        type            empty;
    }
}


// ************************************************************************* //
