/*--------------------------------*- C++ -*----------------------------------*\
  =========                 |
  \\      /  F ield         | OpenFOAM: The Open Source CFD Toolbox
   \\    /   O peration     | Website:  https://openfoam.org
    \\  /    A nd           | Version:  13
     \\/     M anipulation  |
\*---------------------------------------------------------------------------*/
FoamFile
{
    format      ascii;
    class       volScalarField;
    location    "0.004";
    object      T;
}
// * * * * * * * * * * * * * * * * * * * * * * * * * * * * * * * * * * * * * //

dimensions      [0 0 0 1 0 0 0];

internalField   nonuniform List<scalar> 
1000
(
348.432
348.432
348.432
348.432
348.432
348.432
348.432
348.432
348.432
348.432
348.432
348.432
348.432
348.432
348.432
348.432
348.432
348.432
348.432
348.432
348.432
348.432
348.432
348.432
348.432
348.432
348.432
348.432
348.432
348.432
348.432
348.432
348.432
348.432
348.432
348.432
348.432
348.432
348.432
348.432
348.432
348.432
348.432
348.432
348.432
348.432
348.432
348.432
348.432
348.432
348.432
348.432
348.432
348.432
348.432
348.432
348.432
348.432
348.432
348.432
348.432
348.432
348.432
348.432
348.432
348.432
348.432
348.432
348.432
348.432
348.432
348.432
348.432
348.432
348.432
348.432
348.432
348.432
348.432
348.432
348.432
348.432
348.432
348.432
348.432
348.432
348.432
348.432
348.432
348.432
348.432
348.432
348.432
348.432
348.432
348.432
348.432
348.432
348.432
348.432
348.432
348.432
348.432
348.432
348.432
348.432
348.432
348.432
348.432
348.432
348.432
348.432
348.432
348.432
348.432
348.432
348.432
348.432
348.432
348.432
348.432
348.432
348.432
348.432
348.432
348.432
348.432
348.432
348.432
348.432
348.432
348.432
348.432
348.432
348.432
348.432
348.432
348.432
348.432
348.432
348.432
348.432
348.432
348.432
348.432
348.432
348.432
348.432
348.432
348.432
348.432
348.432
348.432
348.432
348.432
348.432
348.432
348.432
348.432
348.432
348.432
348.432
348.432
348.432
348.432
348.432
348.432
348.432
348.432
348.432
348.432
348.432
348.432
348.432
348.432
348.432
348.432
348.432
348.432
348.432
348.432
348.432
348.432
348.432
348.432
348.432
348.432
348.432
348.432
348.432
348.432
348.432
348.432
348.432
348.432
348.432
348.432
348.432
348.432
348.432
348.432
348.432
348.432
348.432
348.432
348.432
348.432
348.432
348.432
348.432
348.432
348.432
348.432
348.432
348.432
348.432
348.432
348.432
348.432
348.432
348.432
348.432
348.432
348.432
348.432
348.432
348.432
348.432
348.432
348.432
348.432
348.432
348.432
348.432
348.432
348.432
348.432
348.432
348.432
348.432
348.432
348.432
348.432
348.432
348.432
348.432
348.432
348.432
348.432
348.432
348.432
348.432
348.432
348.432
348.432
348.432
348.432
348.432
348.432
348.432
348.432
348.432
348.432
348.432
348.432
348.432
348.432
348.432
348.432
348.432
348.432
348.432
348.432
348.432
348.432
348.432
348.432
348.432
348.432
348.432
348.432
348.432
348.432
348.432
348.432
348.432
348.432
348.432
348.432
348.432
348.432
348.432
348.432
348.432
348.432
348.432
348.432
348.432
348.432
348.432
348.432
348.432
348.432
348.432
348.432
348.432
348.432
348.432
348.432
348.432
348.432
348.432
348.432
348.432
348.431
348.431
348.431
348.43
348.429
348.428
348.426
348.423
348.419
348.413
348.405
348.394
348.378
348.358
348.33
348.294
348.247
348.186
348.108
348.011
347.89
347.743
347.566
347.355
347.109
346.825
346.504
346.145
345.75
345.322
344.863
344.377
343.867
343.338
342.792
342.232
341.662
341.083
340.497
339.906
339.309
338.709
338.105
337.497
336.887
336.275
335.66
335.043
334.423
333.802
333.179
332.553
331.927
331.298
330.668
330.036
329.403
328.769
328.134
327.497
326.859
326.221
325.581
324.94
324.299
323.657
323.014
322.37
321.726
321.081
320.435
319.789
319.143
318.496
317.849
317.202
316.554
315.906
315.258
314.61
313.961
313.313
312.664
312.016
311.367
310.719
310.071
309.423
308.775
308.127
307.48
306.833
306.186
305.539
304.893
304.248
303.603
302.958
302.314
301.67
301.027
300.385
299.743
299.103
298.462
297.823
297.184
296.547
295.91
295.274
294.639
294.005
293.372
292.74
292.109
291.48
290.851
290.224
289.598
288.974
288.35
287.729
287.108
286.49
285.873
285.257
284.643
284.031
283.421
282.812
282.206
281.601
280.998
280.398
279.8
279.204
278.61
278.019
277.43
276.843
276.26
275.679
275.101
274.526
273.953
273.384
272.818
272.256
271.697
271.141
270.589
270.041
269.497
268.957
268.421
267.889
267.362
266.839
266.321
265.808
265.3
264.797
264.3
263.809
263.323
262.843
262.369
261.901
261.44
260.986
260.538
260.098
259.665
259.239
258.822
258.412
258.01
257.616
257.231
256.855
256.487
256.128
255.779
255.439
255.109
254.788
254.477
254.176
253.885
253.605
253.334
253.074
252.824
252.585
252.356
252.137
251.929
251.731
251.543
251.365
251.197
251.039
250.891
250.752
250.623
250.502
250.39
250.287
250.192
250.106
250.026
249.955
249.89
249.832
249.781
249.735
249.696
249.662
249.632
249.608
249.589
249.573
249.562
249.554
249.549
249.548
249.549
249.553
249.56
249.569
249.58
249.593
249.608
249.624
249.642
249.661
249.682
249.704
249.727
249.751
249.776
249.803
249.83
249.859
249.889
249.919
249.951
249.984
250.018
250.053
250.09
250.127
250.167
250.207
250.25
250.294
250.34
250.389
250.44
250.493
250.551
250.612
250.677
250.748
250.826
250.911
251.006
251.112
251.231
251.367
251.522
251.701
251.908
252.148
252.427
252.751
253.129
253.567
254.076
254.664
255.342
256.121
257.012
258.027
259.177
260.475
261.932
263.559
265.368
267.366
269.565
271.97
274.587
277.42
280.47
283.737
287.218
290.905
294.79
298.859
303.098
307.488
312.006
316.629
321.327
326.073
330.835
335.58
340.277
344.893
349.397
353.76
357.956
361.96
365.753
369.318
372.646
375.727
378.558
381.141
383.479
385.579
387.453
389.111
390.568
391.839
392.939
393.884
394.69
395.371
395.943
396.419
396.811
397.131
397.389
397.596
397.758
397.884
397.98
398.051
398.101
398.136
398.157
398.168
398.171
398.169
398.161
398.151
398.138
398.123
398.107
398.091
398.075
398.059
398.043
398.028
398.013
397.998
397.984
397.971
397.958
397.946
397.934
397.923
397.912
397.901
397.89
397.88
397.869
397.859
397.848
397.837
397.825
397.813
397.8
397.785
397.769
397.751
397.731
397.708
397.681
397.651
397.615
397.574
397.525
397.468
397.4
397.321
397.227
397.115
396.983
396.826
396.639
396.415
396.149
395.831
395.449
394.99
394.437
393.768
392.956
391.965
390.748
389.244
387.369
385.005
381.985
378.06
372.839
365.68
355.496
340.628
319.992
298.213
285.053
280.438
279.177
278.854
278.773
278.753
278.748
278.746
278.746
278.746
278.746
278.746
278.746
278.746
278.746
278.746
278.746
278.746
278.746
278.746
278.746
278.746
278.746
278.746
278.746
278.746
278.746
278.746
278.746
278.746
278.746
278.746
278.746
278.746
278.746
278.746
278.746
278.746
278.746
278.746
278.746
278.746
278.746
278.746
278.746
278.746
278.746
278.746
278.746
278.746
278.746
278.746
278.746
278.746
278.746
278.746
278.746
278.746
278.746
278.746
278.746
278.746
278.746
278.746
278.746
278.746
278.746
278.746
278.746
278.746
278.746
278.746
278.746
278.746
278.746
278.746
278.746
278.746
278.746
278.746
278.746
278.746
278.746
278.746
278.746
278.746
278.746
278.746
278.746
278.746
278.746
278.746
278.746
278.746
278.746
278.746
278.746
278.746
278.746
278.746
278.746
278.746
278.746
278.746
278.746
278.746
278.746
278.746
278.746
278.746
278.746
278.746
278.746
278.746
278.746
278.746
278.746
278.746
278.746
278.746
278.746
278.746
278.746
278.746
278.746
278.746
278.746
278.746
278.746
278.746
278.746
278.746
278.746
278.746
278.746
278.746
278.746
278.746
278.746
278.746
278.746
278.746
278.746
278.746
278.746
278.746
278.746
278.746
278.746
278.746
278.746
278.746
278.746
278.746
278.746
278.746
278.746
278.746
278.746
278.746
278.746
278.746
278.746
278.746
278.746
278.746
278.746
278.746
278.746
278.746
278.746
278.746
278.746
278.746
278.746
278.746
278.746
278.746
278.746
278.746
278.746
278.746
278.746
278.746
278.746
278.746
278.746
278.746
278.746
278.746
278.746
278.746
278.746
278.746
278.746
278.746
278.746
278.746
278.746
278.746
278.746
278.746
278.746
278.746
278.746
278.746
278.746
278.746
278.746
278.746
278.746
278.746
278.746
278.746
278.746
278.746
278.746
278.746
278.746
278.746
278.746
278.746
278.746
278.746
278.746
278.746
278.746
278.746
278.746
278.746
278.746
278.746
278.746
278.746
278.746
278.746
278.746
278.746
278.746
278.746
278.746
278.746
278.746
278.746
278.746
278.746
278.746
278.746
278.746
278.746
278.746
278.746
278.746
278.746
278.746
278.746
278.746
278.746
278.746
278.746
278.746
278.746
278.746
278.746
278.746
278.746
278.746
278.746
278.746
278.746
278.746
278.746
)
;

boundaryField
{
    sides
    {
        type            zeroGradient;
    }
    empty
    {
        type            empty;
    }
}


// ************************************************************************* //
