/*--------------------------------*- C++ -*----------------------------------*\
  =========                 |
  \\      /  F ield         | OpenFOAM: The Open Source CFD Toolbox
   \\    /   O peration     | Website:  https://openfoam.org
    \\  /    A nd           | Version:  13
     \\/     M anipulation  |
\*---------------------------------------------------------------------------*/
FoamFile
{
    format      ascii;
    class       surfaceScalarField;
    location    "39.30145";
    object      phi;
}
// * * * * * * * * * * * * * * * * * * * * * * * * * * * * * * * * * * * * * //

dimensions      [0 3 -1 0 0 0 0];

internalField   nonuniform List<scalar> 
34068
(
-1.0028218e-08
5.9069259e-08
-4.9041041e-08
-4.4644492e-08
2.0474887e-07
-1.7013259e-07
-1.1208153e-07
3.9982779e-07
-3.3239076e-07
-2.2273585e-07
6.5679624e-07
-5.4614192e-07
-3.8968344e-07
9.9088586e-07
-8.2393827e-07
-6.2930792e-07
1.4206206e-06
-1.1809961e-06
-9.6206523e-07
1.9684563e-06
-1.635699e-06
-1.4134031e-06
2.6615319e-06
-2.210194e-06
-2.0148398e-06
3.5325465e-06
-2.9311098e-06
-2.8052966e-06
4.6207855e-06
-3.8303287e-06
-3.8326675e-06
5.9733053e-06
-4.9459344e-06
-5.1556752e-06
7.6463106e-06
-6.3233029e-06
-6.8460489e-06
9.7067359e-06
-8.0163623e-06
-8.9910466e-06
1.2234059e-05
-1.0089061e-05
-1.1696363e-05
1.532236e-05
-1.2617043e-05
-1.5089411e-05
1.9082641e-05
-1.5689594e-05
-1.9322984e-05
2.3645393e-05
-1.941182e-05
-2.4579244e-05
2.9163383e-05
-2.3907124e-05
-3.1073942e-05
3.5814559e-05
-2.9319861e-05
-3.9060697e-05
4.3804914e-05
-3.5818159e-05
-4.8835081e-05
5.3370995e-05
-4.359661e-05
-6.0738135e-05
6.4781581e-05
-5.2878527e-05
-7.5158702e-05
7.8337717e-05
-6.391715e-05
-9.2533905e-05
9.4370095e-05
-7.6994892e-05
-0.00011334668
0.00011323224
-9.2419467e-05
-0.00013811909
0.00013528788
-0.00011051546
-0.00016739999
0.00016089097
-0.00013161008
-0.00020174522
0.000190358
-0.00015601277
-0.00024168954
0.00022393544
-0.00018399112
-0.00028771085
0.0002617721
-0.00021575079
-0.00034019205
0.0003039171
-0.0002514359
-0.00039939376
0.00035037614
-0.00029117443
-0.00046545885
0.00040125328
-0.0003351882
-0.00053846674
0.00045695733
-0.00038394943
-0.00061852893
0.00051837334
-0.00043831116
-0.00070588411
0.0005868977
-0.00049954252
-0.00080095249
0.00066436703
-0.00056929865
-0.00090434775
0.00075302479
-0.00064962953
-0.0010168745
0.00085562663
-0.00074309991
-0.0011395382
0.00097569651
-0.00085303274
-0.0012735841
0.0011179218
-0.00098387595
-0.0014205722
0.0012886976
-0.0011417095
-0.0015824982
0.0014968584
-0.0013349323
-0.0017619727
0.0017546586
-0.0015751841
-0.0019624272
0.0020788369
-0.0018783824
-0.0021883069
0.002491603
-0.0022657234
-0.0024453671
0.0030224677
-0.0027654075
-0.002741002
0.0037102408
-0.0034146059
-0.0030845461
0.0046042663
-0.0042607222
-0.0034877405
0.0057654955
-0.0053623012
-0.0039656221
0.0072652229
-0.0067873413
-0.0045380853
0.0091762012
-0.008603738
-0.0052317788
0.011544738
-0.010851045
-0.0060825337
0.014327362
-0.013476607
-0.0071345066
0.017269169
-0.016217196
-0.0084353417
0.019680685
-0.01837985
-0.010021685
0.019992599
-0.018406255
-0.01173652
0.014990947
-0.013276112
-0.012671175
-0.0013518791
0.0022865337
-0.010725802
-0.03619128
0.034245907
-0.0053322803
-0.083997809
0.078604288
0.00076778414
-0.12349642
0.11739636
0.0066027868
-0.13708148
0.13124648
0.018896164
-0.097125117
0.08483174
0.013118815
0.041359564
-0.035582214
-9.6937566e-09
6.8763015e-08
-4.315472e-08
2.3820983e-07
-1.0834281e-07
4.6501588e-07
-2.1531638e-07
7.6376981e-07
-3.767292e-07
1.1522987e-06
-6.0843763e-07
1.652329e-06
-9.3023707e-07
2.2902557e-06
-1.3667524e-06
3.0980472e-06
-1.948512e-06
4.1143061e-06
-2.7132317e-06
5.3855053e-06
-3.7073499e-06
6.9674235e-06
-4.987836e-06
8.9267967e-06
-6.6243268e-06
1.1343227e-05
-8.7016003e-06
1.4311332e-05
-1.1322435e-05
1.7943194e-05
-1.4610857e-05
2.2371063e-05
-1.8715769e-05
2.7750305e-05
-2.3814914e-05
3.4262529e-05
-3.0119123e-05
4.2118767e-05
-3.7876631e-05
5.1562422e-05
-4.7377277e-05
6.2871641e-05
-5.895616e-05
7.6360463e-05
-7.2996255e-05
9.2377813e-05
-8.9929202e-05
0.00011130304
-0.00011023327
0.00013353631
-0.00013442719
0.0001594818
-0.00016305827
0.00018952205
-0.00019668306
0.00022398279
-0.00023583929
0.00026309167
-0.00028100944
0.00030694224
-0.00033258048
0.00035548815
-0.0003908123
0.00040860797
-0.00045583577
0.00046627675
-0.00052770022
0.00052882178
-0.00060646576
0.00059713888
-0.00069230019
0.00067273214
-0.00078553648
0.00075760332
-0.00088668358
0.00085417189
-0.00099641642
0.00096535947
-0.0011155732
0.0010948533
-0.0012451759
0.0012475245
-0.0013864826
0.0014300043
-0.0015410765
0.0016514522
-0.0017110021
0.0019245842
-0.001898923
0.0022667578
-0.0021082571
0.0027009371
-0.0023433929
0.0032576035
-0.0026099236
0.0039767715
-0.0029148561
0.0049091988
-0.0032670283
0.0061176677
-0.0036781024
0.007676297
-0.0041644778
0.0096625766
-0.0047498548
0.012130115
-0.0054688987
0.015046406
-0.0063662241
0.018166495
-0.0074971174
0.020811579
-0.0089230514
0.021418532
-0.010486513
0.016554409
-0.011088084
-0.00075030765
-0.0083086692
-0.038970695
-0.0021360528
-0.090170426
0.0034987
-0.12913118
0.0075541109
-0.14113689
0.01594403
-0.10551504
-0.0068964476
0.035959292
-9.2107476e-09
7.7973762e-08
-4.1006878e-08
2.7000596e-07
-1.0295669e-07
5.2696569e-07
-2.0462654e-07
8.6543965e-07
-3.5805546e-07
1.3057276e-06
-5.7833578e-07
1.8726093e-06
-8.8431578e-07
2.5962357e-06
-1.2994565e-06
3.5131878e-06
-1.8528568e-06
4.6677064e-06
-2.5804933e-06
6.1131417e-06
-3.5266913e-06
7.9136215e-06
-4.7458798e-06
1.0145985e-05
-6.304648e-06
1.2901995e-05
-8.2841594e-06
1.6290844e-05
-1.0782929e-05
2.0441964e-05
-1.3920002e-05
2.5508137e-05
-1.7838528e-05
3.166883e-05
-2.2709693e-05
3.9133694e-05
-2.8736945e-05
4.8146018e-05
-3.6160372e-05
5.898585e-05
-4.5261006e-05
7.1972275e-05
-5.6364685e-05
8.7464143e-05
-6.9844993e-05
0.00010585812
-8.6124487e-05
0.00012758254
-0.00010567329
0.00015308511
-0.00012900365
0.00018281216
-0.00015665891
0.00021717731
-0.00018919497
0.00025651885
-0.00022715273
0.00030104943
-0.00027102126
0.00035081078
-0.00032119545
0.00040566234
-0.00037793915
0.00046535167
-0.00044137447
0.00052971207
-0.00051151928
0.00059896659
-0.00058837388
0.00067399348
-0.00067201962
0.00075637788
-0.00076268136
0.00084826506
-0.00086073828
0.0009522288
-0.00096670592
0.0010713271
-0.0010812182
0.0012093656
-0.001205027
0.0013713333
-0.0013390252
0.0015640024
-0.0014842968
0.0017967239
-0.001642201
0.0020824884
-0.0018144643
0.0024390211
-0.0020032427
0.0028897155
-0.0022112125
0.0034655733
-0.002441651
0.0042072099
-0.0026984544
0.0051660022
-0.0029863525
0.0064055658
-0.0033117783
0.0080017228
-0.0036847394
0.010035538
-0.0041214213
0.012566797
-0.004648243
0.015573228
-0.0052973811
0.018815633
-0.0061142655
0.021628463
-0.0071529055
0.022457172
-0.0082060073
0.017607511
-0.007890187
-0.0010661279
-0.0034836203
-0.043377261
0.0039873624
-0.097641408
0.0090853644
-0.13422918
0.011205581
-0.14325711
0.016175289
-0.11048474
-0.023503547
0.032782389
-8.5779725e-09
8.6551734e-08
-3.8195209e-08
2.996232e-07
-9.5908603e-08
5.8467909e-07
-1.9064173e-07
9.6017278e-07
-3.3363031e-07
1.4487162e-06
-5.3896576e-07
2.0779447e-06
-8.2426039e-07
2.8815304e-06
-1.2114481e-06
3.9003756e-06
-1.7277599e-06
5.1840182e-06
-2.4068889e-06
6.7922707e-06
-3.2903938e-06
8.7971263e-06
-4.4293608e-06
1.1284952e-05
-5.8863766e-06
1.4359011e-05
-7.7378337e-06
1.8142301e-05
-1.0076613e-05
2.2780743e-05
-1.3015162e-05
2.8446686e-05
-1.6688978e-05
3.5342646e-05
-2.1260479e-05
4.3705196e-05
-2.6923204e-05
5.3808744e-05
-3.3906218e-05
6.5968863e-05
-4.2478537e-05
8.0544594e-05
-5.295324e-05
9.7938845e-05
-6.569076e-05
0.00011859564
-8.1100723e-05
0.0001429925
-9.9641271e-05
0.00017162566
-0.00012181467
0.00020498556
-0.00014815742
0.00024352005
-0.00017922295
0.00028758438
-0.00021555506
0.00033738154
-0.00025765116
0.00039290688
-0.00030591775
0.00045392893
-0.00036062763
0.00052006154
-0.00042189829
0.00059098272
-0.0004897161
0.00066678441
-0.00056401418
0.00074829156
-0.00064477236
0.00083713606
-0.00073208602
0.00093557872
-0.00082617881
0.0010463216
-0.0009273765
0.0011725248
-0.0010360719
0.001318061
-0.0011526993
0.0014879606
-0.0012777233
0.0016890265
-0.0014116433
0.0019306438
-0.0015550115
0.0022258566
-0.0017084478
0.0025924574
-0.0018726077
0.0030538754
-0.0020481048
0.0036410704
-0.002235366
0.0043944712
-0.0024343629
0.0053649991
-0.002644455
0.006615658
-0.0028648918
0.0082221596
-0.0030961708
0.010266817
-0.0033415556
0.012812182
-0.0036094883
0.01584116
-0.0039016297
0.019107774
-0.004234365
0.021961199
-0.0046044525
0.02282726
-0.0046770139
0.017680072
-0.0026022052
-0.0031409367
0.0042549954
-0.050234462
0.013369479
-0.10675589
0.017920612
-0.13878031
0.017823316
-0.14315982
0.019736366
-0.11239779
-0.036301354
0.032534173
-7.801443e-09
9.4353177e-08
-3.4742852e-08
3.2656461e-07
-8.7252033e-08
6.3718827e-07
-1.7346203e-07
1.0463828e-06
-3.0361973e-07
1.5788739e-06
-4.9058791e-07
2.2649129e-06
-7.5045409e-07
3.1413965e-06
-1.1032769e-06
4.2531984e-06
-1.5739811e-06
5.6547225e-06
-2.1934505e-06
7.4117401e-06
-2.9998258e-06
9.6035016e-06
-4.0400708e-06
1.2325197e-05
-5.3718145e-06
1.5690755e-05
-7.0655428e-06
1.9836029e-05
-9.2071402e-06
2.4922341e-05
-1.1900844e-05
3.1140389e-05
-1.5272596e-05
3.8714399e-05
-1.9473826e-05
4.7906425e-05
-2.4685591e-05
5.902051e-05
-3.1123008e-05
7.240628e-05
-3.9039777e-05
8.8461363e-05
-4.873255e-05
0.00010763162
-6.0544669e-05
0.00013040776
-7.4868661e-05
0.00015731649
-9.2146517e-05
0.00018890351
-0.00011286651
0.00022570556
-0.00013755486
0.0002682084
-0.00016676011
0.00031678962
-0.00020102803
0.00037164947
-0.00024086544
0.00043274429
-0.00028669389
0.00049975738
-0.00033880035
0.000572168
-0.00039730288
0.00064948525
-0.00046215797
0.0007316395
-0.00053322602
0.0008193596
-0.00061037098
0.00091428102
-0.00069353741
0.0010187452
-0.00078276713
0.0011355513
-0.00087816561
0.0012679233
-0.00097984794
0.0014197433
-0.0010878843
0.001595997
-0.0012022503
0.0018033925
-0.0013227773
0.0020511708
-0.0014490949
0.0023521742
-0.0015805493
0.0027239118
-0.0017160553
0.0031893814
-0.0018538221
0.0037788372
-0.0019909115
0.0045315606
-0.0021225819
0.0054966695
-0.0022416394
0.0067347155
-0.0023384607
0.0083189809
-0.0024014117
0.010329768
-0.00241568
0.01282645
-0.0023579206
0.015783401
-0.0021805331
0.018930387
-0.0018321655
0.021612831
-0.0012027659
0.02219786
0.00019843975
0.016278867
0.0049755665
-0.0079180634
0.014456687
-0.059715582
0.025039367
-0.11733857
0.029552293
-0.14329324
0.027576591
-0.14118411
0.026545618
-0.11136682
-0.045462806
0.03570707
-6.8888791e-09
1.0124206e-07
-3.0684852e-08
3.5036058e-07
-7.707563e-08
6.8357905e-07
-1.5326365e-07
1.1225708e-06
-2.6833312e-07
1.6939434e-06
-4.3369829e-07
2.4302781e-06
-6.6365466e-07
3.3713529e-06
-9.7604652e-07
4.5655902e-06
-1.3930864e-06
6.0717623e-06
-1.9423393e-06
7.9609931e-06
-2.6579145e-06
1.0319077e-05
-3.5818964e-06
1.3249179e-05
-4.7660564e-06
1.6874915e-05
-6.2738747e-06
2.1343847e-05
-8.1829274e-06
2.6831393e-05
-1.0587667e-05
3.3545128e-05
-1.3602629e-05
4.1729361e-05
-1.7366069e-05
5.1669866e-05
-2.2044022e-05
6.3698463e-05
-2.7834715e-05
7.8196973e-05
-3.4973186e-05
9.5599833e-05
-4.3735914e-05
0.00011639435
-5.444503e-05
0.00014111688
-6.7471528e-05
0.00017034299
-8.3236669e-05
0.00020466866
-0.00010221023
0.00024467912
-0.00012490403
0.0002909022
-0.00015185842
0.00034374402
-0.00018361932
0.00040341037
-0.00022070318
0.00046982814
-0.00026354927
0.00054260347
-0.00031246396
0.0006210827
-0.00036757211
0.0007045934
-0.00042880418
0.00079287158
-0.00049594465
0.00088650007
-0.00056872897
0.00098706534
-0.00064692981
0.001096946
-0.00073038081
0.0012190023
-0.00081893669
0.0013564792
-0.00091239901
0.0015132057
-0.0010104298
0.0016940277
-0.0011124575
0.0019054203
-0.0012175674
0.0021562807
-0.0013243594
0.0024589662
-0.0014307527
0.0028303051
-0.0015336951
0.0032923239
-0.0016286685
0.0038738106
-0.0017089073
0.0046117994
-0.0017642676
0.0055520298
-0.0017801136
0.0067505615
-0.0017371435
0.0082760108
-0.001610277
0.010202901
-0.0013573035
0.012573476
-0.00090918616
0.015335284
-0.00015316752
0.018174368
0.0010787509
0.020380912
0.0030372358
0.020239375
0.0066321936
0.012683909
0.014363453
-0.015649323
0.025982431
-0.07133456
0.037105965
-0.12846211
0.042319852
-0.14850713
0.039980778
-0.13884504
0.036508541
-0.10789458
-0.051609769
0.042655503
-5.8534043e-09
1.0709546e-07
-2.6079952e-08
3.7058713e-07
-6.5526271e-08
7.2302537e-07
-1.3033776e-07
1.1873823e-06
-2.2827607e-07
1.7918817e-06
-3.6911044e-07
2.5711125e-06
-5.65096e-07
3.5673385e-06
-8.3156172e-07
4.8320559e-06
-1.1876281e-06
6.4278287e-06
-1.6570813e-06
8.4304462e-06
-2.2694324e-06
1.0931428e-05
-3.0612036e-06
1.404095e-05
-4.0774597e-06
1.7891171e-05
-5.3736617e-06
2.2640049e-05
-7.0178497e-06
2.8475581e-05
-9.093223e-06
3.5620502e-05
-1.1701151e-05
4.4337289e-05
-1.4964638e-05
5.4933352e-05
-1.9032233e-05
6.7766058e-05
-2.4082402e-05
8.3247142e-05
-3.0328227e-05
0.00010184566
-3.8022225e-05
0.00012408835
-4.7461069e-05
0.00015055572
-5.8989602e-05
0.00018187152
-7.3003364e-05
0.00021868242
-8.9948575e-05
0.00026162433
-0.00011031773
0.00031127135
-0.00013463875
0.00036806504
-0.00016345457
0.00043222619
-0.00019729015
0.00050366373
-0.00023660419
0.00058191751
-0.0002817272
0.0006662057
-0.00033279793
0.00075566413
-0.00038972705
0.0008498007
-0.00045222327
0.00094899629
-0.00051988338
0.0010547254
-0.0005922884
0.001169351
-0.00066903757
0.0012957515
-0.00074970496
0.0014371465
-0.00083374443
0.0015972451
-0.0009203686
0.0017806519
-0.0010084064
0.0019934581
-0.0010961264
0.0022440006
-0.0011810008
0.0025438406
-0.0012593858
0.0029086901
-0.0013260688
0.0033590068
-0.0013735237
0.0039212655
-0.0013907651
0.0046290408
-0.0013617187
0.0055229834
-0.0012638833
0.006652726
-0.0010685017
0.0080806292
-0.00072999517
0.0098643947
-0.00016597716
0.012009458
0.0007510085
0.014418298
0.0022100458
0.016715331
0.0044836021
0.018107356
0.0080068298
0.016716148
0.014094302
0.0065964365
0.024794279
-0.026349299
0.038017714
-0.084557995
0.048553618
-0.13899801
0.054159388
-0.1541129
0.053082872
-0.13776852
0.049136971
-0.10394868
-0.055731096
0.053258299
-4.7139031e-09
1.1180936e-07
-2.1011122e-08
3.8688435e-07
-5.2811696e-08
7.5482594e-07
-1.0509544e-07
1.239666e-06
-1.8416654e-07
1.8709528e-06
-2.979782e-07
2.6849241e-06
-4.5653418e-07
3.7258945e-06
-6.7238622e-07
5.047908e-06
-9.612395e-07
6.716682e-06
-1.3427019e-06
8.8119086e-06
-1.8411971e-06
1.1429923e-05
-2.4870736e-06
1.4686827e-05
-3.3179631e-06
1.872206e-05
-4.3804039e-06
2.370249e-05
-5.7318127e-06
2.982699e-05
-7.4428148e-06
3.7331504e-05
-9.6000136e-06
4.6494488e-05
-1.2309236e-05
5.7642575e-05
-1.5699279e-05
7.11561e-05
-1.9926137e-05
8.7474e-05
-2.5177723e-05
0.00010709724
-3.1678901e-05
0.00013058952
-3.9696636e-05
0.00015857345
-4.9544779e-05
0.00019171967
-6.1587905e-05
0.00023072554
-7.6242982e-05
0.00027627941
-9.3977451e-05
0.00032900582
-0.00011530128
0.00038938887
-0.00014074992
0.00045767483
-0.00017085398
0.00053376779
-0.00020609152
0.00061715505
-0.00024682096
0.00070693514
-0.00029320257
0.00080204574
-0.00034513611
0.00090173424
-0.00040225859
0.0010061188
-0.00046402162
0.0011164885
-0.0005297968
0.0012351262
-0.00059892378
0.0013648785
-0.00067066682
0.0015088896
-0.00074410019
0.0016706785
-0.00081795016
0.0018545019
-0.00089040013
0.0020659081
-0.00095884181
0.0023124423
-0.0010195373
0.0026045362
-0.0010671613
0.002956314
-0.0010941776
0.0033860232
-0.001089833
0.0039169209
-0.0010385954
0.0045778031
-0.00091824692
0.005402635
-0.00069846724
0.0064329464
-0.00033751402
0.007719676
0.00024242347
0.0092844572
0.0011690294
0.011082852
0.0026395058
0.012947822
0.0049238281
0.014431008
0.0083326425
0.014698542
0.013515832
0.011532958
0.02226173
-0.0021494616
0.035750726
-0.039838295
0.05008262
-0.09888989
0.059153079
-0.14806847
0.063741297
-0.15870111
0.064442506
-0.13846973
0.063132424
-0.1026386
-0.059656086
0.067057413
-3.4940596e-09
1.1530342e-07
-1.5583342e-08
3.9897363e-07
-3.9193481e-08
7.7843608e-07
-7.8054412e-08
1.278527e-06
-1.3690523e-07
1.9298036e-06
-2.217495e-07
2.7697684e-06
-3.4017499e-07
3.84432e-06
-5.0174628e-07
5.2094793e-06
-7.1849787e-07
6.9334336e-06
-1.0055402e-06
9.0989509e-06
-1.3818123e-06
1.1806195e-05
-1.8710088e-06
1.5176023e-05
-2.5027246e-06
1.9353776e-05
-3.3138404e-06
2.4513606e-05
-4.3502358e-06
3.0863385e-05
-5.6688502e-06
3.8650118e-05
-7.3401718e-06
4.8165809e-05
-9.4511878e-06
5.9753591e-05
-1.2108905e-05
7.3813818e-05
-1.5444413e-05
9.0809508e-05
-1.961751e-05
0.00011127034
-2.4821894e-05
0.00013579391
-3.129066e-05
0.00016504222
-3.9301858e-05
0.00019973086
-4.9183523e-05
0.00024060721
-6.1317249e-05
0.00028841313
-7.6138782e-05
0.00034382736
-9.4133384e-05
0.00040738347
-0.00011582264
0.00047936409
-0.00014173786
0.000559683
-0.00017237413
0.00064779132
-0.0002081197
0.00074268071
-0.00024916385
0.00084308988
-0.00029540657
0.00094797697
-0.00034642157
0.0010571338
-0.00040151338
0.0011715803
-0.00045982987
0.0012934427
-0.0005204276
0.0014254762
-0.00058223344
0.0015706954
-0.00064391253
0.0017323576
-0.00070367255
0.0019142619
-0.00075901329
0.0021212488
-0.0008064014
0.0023598304
-0.0008408215
0.0026389563
-0.0008551711
0.0029706636
-0.00083945843
0.0033703105
-0.000779526
0.0038569884
-0.00065504052
0.0044533177
-0.00043749483
0.0051850893
-8.8151305e-05
0.0060836028
0.00045557949
0.0071759452
0.0013091068
0.00843093
0.0026525568
0.0097394024
0.0047592583
0.01084112
0.0079372674
0.011252999
0.012501666
0.010134143
0.019437889
0.0045967351
0.030991564
-0.013703137
0.047023566
-0.055870296
0.061533062
-0.11339939
0.068508879
-0.15504429
0.070966433
-0.16115867
0.072821456
-0.14032476
0.076144393
-0.10596154
-0.066551723
0.08304003
-2.2240828e-09
1.1752751e-07
-9.9313715e-09
4.0668092e-07
-2.5010032e-08
7.9351474e-07
-4.9884958e-08
1.3034019e-06
-8.7661987e-08
1.9675806e-06
-1.4230895e-07
2.8244153e-06
-2.1888689e-07
3.9208979e-06
-3.2383767e-07
5.3144301e-06
-4.6535284e-07
7.0749488e-06
-6.5382911e-07
9.2874272e-06
-9.0245563e-07
1.2054822e-05
-1.2279329e-06
1.5501501e-05
-1.6513899e-06
1.9777233e-05
-2.1995219e-06
2.5061738e-05
-2.9060061e-06
3.156987e-05
-3.8132577e-06
3.955737e-05
-4.9745795e-06
4.9327131e-05
-6.4568147e-06
6.1235826e-05
-8.3435214e-06
7.5700525e-05
-1.0738799e-05
9.3204786e-05
-1.3771785e-05
0.00011430333
-1.7601819e-05
0.00013962394
-2.2424242e-05
0.00016986464
-2.8476587e-05
0.00020578321
-3.6044779e-05
0.0002481754
-4.5468466e-05
0.00029783682
-5.7144274e-05
0.00035550316
-7.1524679e-05
0.00042176387
-8.9109101e-05
0.00049694851
-0.0001104219
0.00058099581
-0.00013596969
0.00067333911
-0.00016616935
0.00077288036
-0.00020124553
0.00087816607
-0.00024111238
0.00098784382
-0.00028529343
0.0011013148
-0.00033294827
0.0012192351
-0.00038299204
0.0013434865
-0.0004341781
0.0014766622
-0.00048506994
0.0016215873
-0.00053389642
0.0017811841
-0.00057831866
0.0019586841
-0.00061512133
0.0021580515
-0.00063980943
0.0023845185
-0.00064604623
0.0026451931
-0.00062486205
0.0029494794
-0.00056370358
0.0033091521
-0.00044485881
0.0037381437
-0.00024300788
0.0042514667
7.7143364e-05
0.0048649381
0.00056483617
0.00559591
0.0013120871
0.0064286942
0.0024760909
0.0072669262
0.0042990667
0.0079164266
0.0071018044
0.0080383825
0.011158664
0.00719614
0.016915418
0.004377389
0.025923829
-0.0044116753
0.040517075
-0.028296383
0.058405291
-0.073758513
0.071497641
-0.12649174
0.075764353
-0.159311
0.076223824
-0.16161814
0.078388599
-0.14248953
0.085703213
-0.11327615
-0.079156333
0.098307823
-9.3720852e-10
1.1846472e-07
-4.2021587e-09
4.0994587e-07
-1.0629483e-08
7.9994207e-07
-2.1318044e-08
1.3140904e-06
-3.7713285e-08
1.9839759e-06
-6.1713247e-08
2.8484153e-06
-9.580715e-08
3.9549918e-06
-1.432584e-07
5.3618813e-06
-2.0834005e-07
7.1400304e-06
-2.966437e-07
9.3757309e-06
-4.154775e-07
1.2173656e-05
-5.7438991e-07
1.5660413e-05
-7.8583201e-07
1.9988675e-05
-1.0660318e-06
2.5341938e-05
-1.436087e-06
3.1939925e-05
-1.9233849e-06
4.0044667e-05
-2.5634006e-06
4.9967147e-05
-3.4019391e-06
6.2074365e-05
-4.4979562e-06
7.6796542e-05
-5.9270325e-06
9.4633863e-05
-7.7856195e-06
0.00011616191
-1.019607e-05
0.00014203439
-1.3312579e-05
0.00017298115
-1.7327852e-05
0.00020979848
-2.2480237e-05
0.00025332778
-2.906077e-05
0.00030441735
-3.7418921e-05
0.00036386131
-4.7965063e-05
0.00043231002
-6.1166145e-05
0.00051014959
-7.7528975e-05
0.00059735864
-9.7562399e-05
0.00069337253
-0.00012170632
0.00079702428
-0.00015022669
0.00090668643
-0.00018306502
0.0010206821
-0.00021970932
0.0011379591
-0.00025918232
0.0012587081
-0.00030016445
0.0013844686
-0.00034109255
0.0015175903
-0.00038014259
0.0016606373
-0.00041508185
0.0018161233
-0.00044299958
0.0019866019
-0.00045993828
0.0021749902
-0.00046040261
0.0023849828
-0.00043668268
0.0026214731
-0.00037792351
0.0028907202
-0.00026891397
0.0032001425
-8.8129578e-05
0.0035573593
0.00019488415
0.003968453
0.00062302375
0.0044367985
0.0012619446
0.0049569892
0.0022406034
0.0054500354
0.0037642953
0.0057432343
0.0061249242
0.0055557977
0.0096140449
0.0045492617
0.014530414
0.0022797705
0.021762357
-0.0028545533
0.033516843
-0.016166161
0.051176556
-0.045956096
0.069255239
-0.091837196
0.079178047
-0.13641454
0.080602963
-0.16073591
0.079982169
-0.16099735
0.082480597
-0.14498796
0.091319309
-0.12211486
-0.09609054
0.10825352
3.2617676e-10
1.1813854e-07
1.4236837e-09
4.0884836e-07
3.4951788e-09
7.9787057e-07
6.7468452e-09
1.3108388e-06
1.13705e-08
1.9793522e-06
1.750856e-08
2.8422773e-06
2.5208366e-08
3.947292e-06
3.4347048e-08
5.3527426e-06
4.4524604e-08
7.1298529e-06
5.4910719e-08
9.3653447e-06
6.4023153e-08
1.2164543e-05
6.9427597e-08
1.5655009e-05
6.7311541e-08
1.9990791e-05
5.1907875e-08
2.5357341e-05
1.4716731e-08
3.1977116e-05
-5.6543806e-08
4.0115928e-05
-1.7931975e-07
5.0089923e-05
-3.7804945e-07
6.2273095e-05
-6.8653938e-07
7.7105032e-05
-1.150996e-06
9.5098319e-05
-1.8338865e-06
0.0001168448
-2.8187372e-06
0.00014301924
-4.215959e-06
0.00017437837
-6.169785e-06
0.00021175231
-8.8661431e-06
0.00025602414
-1.2541084e-05
0.00030809229
-1.748886e-05
0.00036880909
-2.4067832e-05
0.00043888899
-3.2700971e-05
0.00051878273
-4.3864722e-05
0.00060852239
-5.8056832e-05
0.00070756464
-7.5725195e-05
0.00081469265
-9.7160293e-05
0.00092812153
-0.00012237512
0.001045897
-0.00015082209
0.0011664061
-0.00018139161
0.0012892776
-0.0002125564
0.0014156334
-0.00024243053
0.0015474645
-0.0002687759
0.0016869827
-0.00028887204
0.0018362195
-0.00029921236
0.0019969422
-0.00029507206
0.0021708499
-0.00026992185
0.0023598326
-0.00021462623
0.0025661775
-0.00011637379
0.0027924678
4.2897824e-05
0.0030408709
0.00028884173
0.0033114154
0.0006577006
0.0035995941
0.0012018627
0.0038926364
0.0020142568
0.004144595
0.0032657562
0.004198536
0.0052053178
0.0038036727
0.0081124587
0.0026486569
0.012267482
0.00039423877
0.018286952
-0.0037396999
0.027791801
-0.012359402
0.043036455
-0.031410816
0.062626484
-0.065546125
0.078255978
-0.10746669
0.084128264
-0.14228683
0.083627392
-0.16023504
0.082836455
-0.16020641
0.086149582
-0.14830108
0.095476007
-0.13144129
-0.11343326
0.11281873
1.5246557e-09
1.1661388e-07
6.7631577e-09
4.0360986e-07
1.6905165e-08
7.8772857e-07
3.3401066e-08
1.2943429e-06
5.8000373e-08
1.9547529e-06
9.27936e-08
2.807484e-06
1.4024827e-07
3.8998373e-06
2.0324193e-07
5.289749e-06
2.8507916e-07
7.0480157e-06
3.8948725e-07
9.2609367e-06
5.2058005e-07
1.203345e-05
6.8275737e-07
1.5492831e-05
8.8053856e-07
1.979301e-05
1.1182706e-06
2.5119609e-05
1.3996832e-06
3.1695703e-05
1.727226e-06
3.9788385e-05
2.1011111e-06
4.9716038e-05
2.5179504e-06
6.1856255e-05
2.9689107e-06
7.6654072e-05
3.4371784e-06
9.4630052e-05
3.8946201e-06
0.00011638736
4.297419e-06
0.00014261644
4.5805107e-06
0.00017409528
4.6507202e-06
0.0002116821
4.3784472e-06
0.00025629642
3.5882411e-06
0.0003088825
2.0487966e-06
0.00037034853
-5.3610974e-07
0.0004414739
-4.5326557e-06
0.00052277927
-1.037257e-05
0.0006143623
-1.8528975e-05
0.00071572105
-2.9460884e-05
0.00082562456
-4.3454264e-05
0.00094211491
-6.0581663e-05
0.0010630244
-8.0155483e-05
0.0011859799
-0.00010111421
0.0013102364
-0.0001217677
0.0014362869
-0.0001398631
0.0015655599
-0.00015272373
0.0016998433
-0.00015711342
0.0018406091
-0.00014890363
0.0019887324
-0.00012257163
0.0021445179
-7.051286e-05
0.0023077739
1.7911341e-05
0.0024777533
0.00015769033
0.0026526888
0.00037009968
0.0028284616
0.00068546528
0.0029960498
0.0011476767
0.0031373827
0.0018236057
0.0032167073
0.0028470319
0.0031211689
0.0044279928
0.002617575
0.0068163679
0.0014152975
0.010285462
-0.00082043727
0.015368527
-0.0046888258
0.02335715
-0.011728324
0.036252514
-0.025254766
0.054562435
-0.049720736
0.07310138
-0.08408507
0.083786464
-0.11815177
0.086226616
-0.14472698
0.085292978
-0.1593014
0.085311218
-0.16022465
0.089579475
-0.15256934
0.099390773
-0.14125259
-0.13001863
0.11597614
2.612629e-09
1.1400125e-07
1.16121e-08
3.9461039e-07
2.9087479e-08
7.7025319e-07
5.7622892e-08
1.2658075e-06
1.0039115e-07
1.9119847e-06
1.6125924e-07
2.7466159e-06
2.4490981e-07
3.8161868e-06
3.5696575e-07
5.177693e-06
5.0413084e-07
6.9008506e-06
6.9432366e-07
9.0707438e-06
9.3680776e-07
1.1790966e-05
1.2423002e-06
1.5187339e-05
1.6230397e-06
1.941227e-05
2.0927826e-06
2.4649867e-05
2.6666897e-06
3.1121796e-05
3.361047e-06
3.9094028e-05
4.1927611e-06
4.8884324e-05
5.1785006e-06
6.0870516e-05
6.3334019e-06
7.549917e-05
7.6691549e-06
9.3294299e-05
9.1912847e-06
0.00011486523
1.0895412e-05
0.00014091232
1.2762238e-05
0.00017222846
1.4750985e-05
0.00020969335
1.6791203e-05
0.0002542562
1.8772769e-05
0.00030690093
2.0534615e-05
0.00036858669
2.1853269e-05
0.00044015524
2.2433809e-05
0.00052219873
2.1908859e-05
0.00061488725
1.9858471e-05
0.00071777143
1.5853633e-05
0.00082962939
9.5476458e-06
0.0009484209
1.0586049e-06
0.0010715134
-9.18352e-06
0.001196222
-2.0131097e-05
0.0013211839
-2.9781834e-05
0.0014459376
-3.5518448e-05
0.0015712965
-3.4239525e-05
0.0016985644
-2.2173248e-05
0.0018285429
5.4615278e-06
0.0019610976
5.5034167e-05
0.0020949452
0.00013532046
0.0022274876
0.0002586564
0.0023544174
0.00044256839
0.0024687768
0.00071214842
0.0025588815
0.0011037022
0.002604496
0.0016725992
0.0025684857
0.0025132549
0.0023760516
0.0038052465
0.0018291773
0.0057711065
0.00065171508
0.008674433
-0.001488029
0.013033898
-0.005179902
0.019987094
-0.011642022
0.031205103
-0.022946332
0.047458911
-0.041508574
0.066051566
-0.068313391
0.080085273
-0.098118777
0.086175153
-0.12424165
0.087163845
-0.14571567
0.086315713
-0.15845327
0.087528495
-0.16143743
0.092719839
-0.15776068
0.10280798
-0.15134074
-0.14581008
0.11859944
3.539081e-09
1.1046217e-07
1.57443e-08
3.8240517e-07
3.9475287e-08
7.465222e-07
7.8288579e-08
1.2269942e-06
1.3657711e-07
1.8536961e-06
2.1973868e-07
2.6634544e-06
3.3435956e-07
3.7015659e-06
4.88434e-07
5.0236186e-06
6.916019e-07
6.6976827e-06
9.5541335e-07
8.8069324e-06
1.2936101e-06
1.1452769e-05
1.7224252e-06
1.4758524e-05
2.2608589e-06
1.8873837e-05
2.930957e-06
2.3979768e-05
3.7580061e-06
3.0294747e-05
4.7706422e-06
3.8081392e-05
6.0007677e-06
4.7654198e-05
7.4832559e-06
5.9388028e-05
9.255212e-06
7.3727214e-05
1.1354768e-05
9.1194743e-05
1.3819106e-05
0.00011240089
1.6681521e-05
0.0001380499
1.9967218e-05
0.00016894276
2.3687514e-05
0.00020597306
2.7832129e-05
0.00025011158
3.2359407e-05
0.00030237366
3.7184507e-05
0.00036376159
4.2166358e-05
0.00043517339
4.7095565e-05
0.00051726953
5.1688045e-05
0.00061029477
5.559153e-05
0.00071386795
5.8440866e-05
0.00082678006
5.9993083e-05
0.00094686868
6.034562e-05
0.0010711609
5.9512535e-05
0.0011970551
5.8882806e-05
0.0013218137
6.070418e-05
0.0014441162
6.7820112e-05
0.0015641806
8.3785311e-05
0.0016825992
0.00011294949
0.0017993787
0.00016080824
0.0019132389
0.00023468155
0.0020210719
0.00034471261
0.0021174565
0.00050531306
0.0021938169
0.00073730502
0.0022367848
0.0010709285
0.0022252581
0.0015518006
0.0021236239
0.0022542435
0.0018660428
0.0033198121
0.0013104829
0.0049532132
0.00019577626
0.007419218
-0.0018142897
0.011237541
-0.0053063517
0.017486774
-0.011429135
0.027573866
-0.021729114
0.042051973
-0.03742444
0.059222637
-0.058679237
0.074337293
-0.083428047
0.082998822
-0.10678031
0.086521131
-0.12776396
0.087247144
-0.14644169
0.087348868
-0.158555
0.089598643
-0.16368721
0.095462093
-0.16362413
0.10564234
-0.16152099
-0.16085683
0.12068909
4.2644236e-09
1.0619775e-07
1.8981537e-08
3.6768806e-07
4.7618015e-08
7.1788572e-07
9.4496755e-08
1.1801154e-06
1.6497682e-07
1.7832161e-06
2.6566224e-07
2.5627689e-06
4.0465072e-07
3.5625774e-06
5.9181744e-07
4.8364519e-06
8.3913917e-07
6.4503609e-06
1.1610666e-06
8.485005e-06
1.5749332e-06
1.1038903e-05
2.1014057e-06
1.4232051e-05
2.7649713e-06
1.8210271e-05
3.5944263e-06
2.3150313e-05
4.6233809e-06
2.9265793e-05
5.8907037e-06
3.6814069e-05
7.4408873e-06
4.6104015e-05
9.3242171e-06
5.7504698e-05
1.1596717e-05
7.1454715e-05
1.4319613e-05
8.8471847e-05
1.7558247e-05
0.00010916226
2.1380098e-05
0.00013422805
2.5851664e-05
0.00016447119
3.1033802e-05
0.00020079092
3.6975164e-05
0.00024417022
4.3703335e-05
0.00029564549
5.1213554e-05
0.00035625137
5.9455439e-05
0.00042693151
6.8319318e-05
0.00050840565
7.762627e-05
0.00060098782
8.7131128e-05
0.00070436309
9.6557785e-05
0.0008173534
0.00010562967
0.00093779679
0.00011414272
0.0010626478
0.00012271428
0.0011884836
0.00013279434
0.0013117336
0.00014639844
0.0014305121
0.00016669178
0.0015438872
0.00019774139
0.0016515496
0.00024452174
0.0017525983
0.00031336081
0.0018443998
0.00041273317
0.0019216996
0.00055453831
0.0019756513
0.00075602173
0.0019923335
0.0010427574
0.0019500491
0.0014532176
0.0018147979
0.002049648
0.0015271935
0.0029409645
0.0009747263
0.0043190683
-6.7620896e-05
0.0064515363
-0.0019366917
0.0098743124
-0.0052370658
0.015628852
-0.011060891
0.024931153
-0.020731436
0.038045364
-0.034843325
0.053467229
-0.052846305
0.068025012
-0.07323702
0.07810059
-0.093503625
0.083382647
-0.11206236
0.085988402
-0.13036972
0.08690755
-0.14736084
0.088152631
-0.15980008
0.091378429