/*--------------------------------*- C++ -*----------------------------------*\
  =========                 |
  \\      /  F ield         | OpenFOAM: The Open Source CFD Toolbox
   \\    /   O peration     | Website:  https://openfoam.org
    \\  /    A nd           | Version:  13
     \\/     M anipulation  |
\*---------------------------------------------------------------------------*/
FoamFile
{
    format      ascii;
    class       volScalarField;
    location    "39.30145";
    object      yPlus;
}
// * * * * * * * * * * * * * * * * * * * * * * * * * * * * * * * * * * * * * //

dimensions      [];

internalField   uniform 0;

boundaryField
{
    inlet
    {
        type            calculated;
        value           uniform 0;
    }
    outlet
    {
        type            calculated;
        value           uniform 0;
    }
    cylinder
    {
        type            calculated;
        value           nonuniform List<scalar> 
132
(
1.2212953e-07
1.2137717e-07
1.2020167e-07
1.1858376e-07
1.1652028e-07
1.1401555e-07
1.1108066e-07
1.0773365e-07
1.0399971e-07
9.9911301e-08
9.5508096e-08
9.0836868e-08
8.5950662e-08
8.0908573e-08
7.5775162e-08
7.0618269e-08
6.5509878e-08
6.0522112e-08
5.5723904e-08
5.1174792e-08
4.6915901e-08
4.2956767e-08
3.9258991e-08
3.5723954e-08
3.2197949e-08
2.8506669e-08
2.4517966e-08
2.0226203e-08
1.5801727e-08
1.1562077e-08
7.884289e-09
5.1062212e-09
3.4820791e-09
3.0909183e-09
3.490117e-09
4.2561863e-09
5.2585364e-09
6.4964949e-09
7.9953014e-09
9.789485e-09
1.1945805e-08
1.4545388e-08
1.7362589e-08
2.035739e-08
2.345368e-08
2.6585707e-08
2.9691579e-08
3.2722563e-08
3.5645996e-08
3.8436066e-08
4.1076492e-08
4.3559038e-08
4.5874156e-08
4.8016397e-08
5.0009223e-08
5.1820256e-08
5.3467181e-08
5.4949485e-08
5.627259e-08
5.7430706e-08
5.8415382e-08
5.9240102e-08
5.990398e-08
6.0406637e-08
6.0752458e-08
6.0932751e-08
1.2243093e-07
1.222888e-07
1.2172988e-07
1.2070676e-07
1.1918897e-07
1.1717232e-07
1.1466457e-07
1.1167154e-07
1.0820758e-07
1.0429753e-07
9.9977314e-08
9.5293952e-08
9.0305316e-08
8.5079487e-08
7.9693371e-08
7.4230311e-08
6.877721e-08
6.3419231e-08
5.8233841e-08
5.3282517e-08
4.8596922e-08
4.4169427e-08
3.9942991e-08
3.5814225e-08
3.165239e-08
2.734105e-08
2.2840606e-08
1.8237686e-08
1.3756077e-08
9.7107856e-09
6.4281525e-09
4.1844222e-09
3.1571057e-09
3.2009592e-09
3.7890282e-09
4.6492391e-09
5.7317295e-09
7.0512729e-09
8.6351521e-09
1.05152e-08
1.2751185e-08
1.5419791e-08
1.8282503e-08
2.1300712e-08
2.4400895e-08
2.7515714e-08
3.0588997e-08
3.3579537e-08
3.6454453e-08
3.9194417e-08
4.178128e-08
4.421441e-08
4.6476426e-08
4.855896e-08
5.0514095e-08
5.2270134e-08
5.3874511e-08
5.530955e-08
5.6590879e-08
5.7700606e-08
5.8644086e-08
5.9424413e-08
6.0046829e-08
6.0506821e-08
6.0805228e-08
6.094559e-08
)
;
    }
    frontAndBack
    {
        type            empty;
    }
}


// ************************************************************************* //
