/*--------------------------------*- C++ -*----------------------------------*\
  =========                 |
  \\      /  F ield         | OpenFOAM: The Open Source CFD Toolbox
   \\    /   O peration     | Website:  https://openfoam.org
    \\  /    A nd           | Version:  13
     \\/     M anipulation  |
\*---------------------------------------------------------------------------*/
FoamFile
{
    format      ascii;
    class       volVectorField;
    location    "18.902837";
    object      UMean;
}
// * * * * * * * * * * * * * * * * * * * * * * * * * * * * * * * * * * * * * //

dimensions      [0 1 -1 0 0 0 0];

internalField   nonuniform List<vector> 
17140
(
(-3.2017613e-06 0.00012712732 -2.2542315e-22)
(-4.4083584e-05 0.00039063136 -1.7994182e-23)
(-0.00013308467 0.00067791819 1.1893429e-21)
(-0.00028893619 0.0009901842 -1.3079705e-21)
(-0.00052845488 0.0013286661 1.5297358e-22)
(-0.00087460298 0.0016943193 -5.0077579e-22)
(-0.0013555081 0.0020877426 -8.4350562e-22)
(-0.0020049695 0.0025090504 4.1246117e-22)
(-0.0028634406 0.0029577232 1.3506739e-21)
(-0.0039789439 0.0034324342 3.3163253e-21)
(-0.0054079356 0.003930857 -4.9260348e-21)
(-0.0072160533 0.0044494641 4.3980524e-21)
(-0.0094786667 0.0049833264 6.7396133e-22)
(-0.012281091 0.0055259343 -3.8281813e-21)
(-0.015718308 0.0060690766 4.2626028e-22)
(-0.019894033 0.0066028059 -3.3921171e-21)
(-0.024918958 0.0071155551 1.2756349e-22)
(-0.030908067 0.0075944458 -2.777701e-23)
(-0.037977014 0.0080258486 -2.0370022e-21)
(-0.046237751 0.0083962131 2.6600575e-21)
(-0.05579382 0.0086931583 -1.2864692e-21)
(-0.066735965 0.0089067296 2.4894323e-22)
(-0.079139871 0.0090306502 1.8317513e-21)
(-0.093069297 0.0090633581 -1.8296964e-21)
(-0.10857369 0.0090087358 -2.9205154e-21)
(-0.12568941 0.0088757903 2.3579906e-21)
(-0.14445601 0.0086759646 1.1565035e-20)
(-0.16494047 0.0084221529 1.3518247e-21)
(-0.18721362 0.0081296752 -1.1961755e-20)
(-0.21133421 0.0078094213 -2.7817093e-21)
(-0.23737248 0.0074654099 -9.9367751e-21)
(-0.26539271 0.0070968986 1.3103048e-20)
(-0.29544717 0.0067002825 -3.3976451e-21)
(-0.32756938 0.0062701954 -1.6314018e-21)
(-0.36176517 0.005799897 -1.5929171e-20)
(-0.39799895 0.0052823208 7.0167532e-21)
(-0.43618032 0.0047122185 -1.0502248e-20)
(-0.47614828 0.0040836564 -7.0769051e-21)
(-0.5176464 0.0033889524 -3.2166261e-21)
(-0.56029609 0.0026212486 9.7418997e-21)
(-0.60357559 0.0017781862 1.8217889e-20)
(-0.64679994 0.00086214967 1.638345e-20)
(-0.68909755 -0.00012457247 7.0895146e-21)
(-0.72940801 -0.0011838668 -3.3855128e-20)
(-0.76646288 -0.0023185715 -2.4371279e-20)
(-0.79885729 -0.0035220118 5.9057305e-21)
(-0.82524702 -0.0047958117 -3.9479654e-20)
(-0.84402704 -0.0061336164 -1.3196892e-20)
(-0.85362866 -0.0075094962 1.326446e-20)
(-0.85282806 -0.00887761 3.2108274e-20)
(-0.84060452 -0.010184055 -1.9636898e-20)
(-0.81604659 -0.011396419 -1.2368934e-20)
(-0.77840826 -0.012547404 3.2226548e-20)
(-0.72708191 -0.013617257 1.5301368e-20)
(-0.66149197 -0.014506957 1.1019527e-20)
(-0.58152286 -0.015143738 -8.689662e-21)
(-0.4871582 -0.015413598 2.4061143e-20)
(-0.37880046 -0.015184236 2.0399079e-20)
(-0.25722353 -0.014280469 5.2204134e-21)
(-0.12443865 -0.012549781 -1.3581191e-20)
(0.017135112 -0.0099537144 -1.0840664e-20)
(0.16196496 -0.0067091391 -4.0718661e-20)
(0.30635992 -0.0032077804 -6.037927e-21)
(0.43892261 -5.6730695e-05 5.1048585e-20)
(0.56225816 0.0015575832 -3.9614138e-20)
(-3.4458365e-05 0.0008035438 6.3939995e-23)
(-0.00013944703 0.0024707466 -6.2279772e-21)
(-0.00029763713 0.0042898981 5.5431164e-21)
(-0.00052763094 0.0062692964 -1.5119818e-21)
(-0.00084629026 0.0084165673 -3.1238595e-21)
(-0.0012764143 0.010737737 5.971312e-21)
(-0.0018458117 0.013236661 -6.2292135e-21)
(-0.0025877754 0.015914268 5.4864153e-22)
(-0.0035420264 0.018767642 -1.7143679e-21)
(-0.0047555861 0.02178898 -2.8636189e-23)
(-0.0062836043 0.024964433 -5.7388596e-21)
(-0.008190075 0.028272874 9.1377894e-21)
(-0.010548365 0.031684688 7.5622354e-22)
(-0.013441424 0.035160686 -7.4837682e-21)
(-0.016961527 0.03865136 2.3065732e-21)
(-0.021209398 0.042096709 1.4692024e-21)
(-0.026292555 0.04542698 -9.3452252e-21)
(-0.032322771 0.048564665 3.0564452e-20)
(-0.039412645 0.051428128 -1.9210975e-20)
(-0.047671464 0.053937081 2.309259e-20)
(-0.057200736 0.056019875 -3.4247892e-20)
(-0.068090023 0.057622114 8.4282217e-21)
(-0.080414717 0.058715416 3.4883065e-21)
(-0.094238985 0.05930449 -1.1405617e-20)
(-0.10961453 0.059430497 4.1164838e-20)
(-0.1265794 0.05916586 6.1169182e-21)
(-0.14517369 0.058593158 -3.1964556e-20)
(-0.16546618 0.057789564 3.5829956e-20)
(-0.187528 0.056816863 -4.9930103e-21)
(-0.21141693 0.055720493 -4.8316493e-20)
(-0.23720153 0.05452553 5.0531912e-21)
(-0.26494411 0.053240604 3.8337667e-20)
(-0.2946941 0.051863091 9.031167e-22)
(-0.32648137 0.050381744 -2.857093e-20)
(-0.36030707 0.04877751 3.1908537e-20)
(-0.39613105 0.047024534 -1.4323498e-20)
(-0.43385669 0.045092876 1.6963577e-20)
(-0.47331342 0.042945445 5.3600019e-20)
(-0.51423377 0.04053599 1.1895194e-20)
(-0.55622765 0.037814661 4.6394507e-20)
(-0.59876073 0.034736557 -5.9285304e-20)
(-0.64113121 0.031262567 -5.3901978e-20)
(-0.68244374 0.0273556 -9.0090521e-21)
(-0.72159964 0.022983984 7.2490696e-20)
(-0.75728337 0.018140984 -3.3536812e-20)
(-0.78806467 0.012868194 -1.1419603e-20)
(-0.8124417 0.0072034537 6.1610379e-21)
(-0.82886363 0.0011783817 1.8726387e-20)
(-0.83581888 -0.0050599116 -9.0659306e-21)
(-0.83198584 -0.011338825 1.6209583e-20)
(-0.81632272 -0.017539696 9.7146672e-20)
(-0.78800091 -0.023581348 4.648852e-21)
(-0.74634651 -0.029422881 -2.0956446e-20)
(-0.6908302 -0.035020402 4.6851762e-20)
(-0.62108437 -0.040262192 -4.0373112e-20)
(-0.5370047 -0.045026763 1.1604054e-19)
(-0.43870708 -0.049157148 3.3512723e-20)
(-0.32680487 -0.052405158 -9.6436289e-20)
(-0.20219948 -0.054442588 1.6517661e-20)
(-0.067065818 -0.054849287 1.9333953e-20)
(0.076099753 -0.053194452 3.9563204e-21)
(0.22155853 -0.049425508 -5.3059216e-20)
(0.36585765 -0.04345181 1.0480034e-19)
(0.49805903 -0.036494496 3.1518192e-20)
(0.62069098 -0.029257415 5.2715866e-20)
(-0.00010270463 0.0014661084 3.5212318e-21)
(-0.00034753357 0.0045088606 -1.8742859e-21)
(-0.0006564341 0.0078298755 -4.9850099e-22)
(-0.0010476783 0.011444759 4.7299999e-22)
(-0.001538152 0.015367725 -2.2922187e-21)
(-0.0021502068 0.019610181 -1.7009993e-22)
(-0.0029108452 0.024179679 -2.1798304e-21)
(-0.00385213 0.029078543 -2.3501562e-21)
(-0.0050120372 0.034302216 1.9238353e-20)
(-0.0064352393 0.039837359 -1.7199718e-20)
(-0.0081738527 0.045659742 8.2447415e-21)
(-0.010288083 0.051731979 1.2101094e-20)
(-0.012846713 0.058001278 -2.4057485e-20)
(-0.015927305 0.064397402 -2.9836248e-21)
(-0.019616001 0.0708312 1.1568095e-20)
(-0.024006778 0.077194162 7.9797156e-21)
(-0.02920002 0.083359583 -9.2924409e-21)
(-0.035300309 0.089186023 3.3782405e-20)
(-0.042413437 0.094523731 -2.0073313e-20)
(-0.050642767 0.099224529 9.966307e-21)
(-0.060085305 0.10315516 -3.3803516e-20)
(-0.070828012 0.10621324 -8.8351889e-21)
(-0.082945645 0.10834383 1.8531876e-20)
(-0.09650323 0.1095531 -2.7991761e-20)
(-0.11155724 0.10991497 -1.102371e-20)
(-0.12814881 0.10956271 1.3390417e-20)
(-0.14632052 0.108652 7.5989487e-20)
(-0.16614359 0.10732621 3.4350803e-20)
(-0.18768867 0.10569419 -1.7349796e-20)
(-0.21101301 0.10383797 1.8350387e-20)
(-0.23618038 0.10180563 -1.1718686e-20)
(-0.26324851 0.099615938 -6.562934e-20)
(-0.29226009 0.097267457 2.201333e-20)
(-0.3232364 0.094743001 6.5647029e-20)
(-0.35616755 0.092011488 -2.2189574e-20)
(-0.39100052 0.089028385 -3.0851121e-20)
(-0.42762304 0.085736992 5.3413339e-20)
(-0.46584352 0.082067405 1.6163374e-20)
(-0.50536881 0.077935224 -2.9045086e-20)
(-0.54578065 0.073248251 -1.1688283e-20)
(-0.58651099 0.067916931 5.5582209e-20)
(-0.62681388 0.061856196 -1.5929671e-20)
(-0.66573762 0.054984085 -2.2759511e-20)
(-0.70210926 0.047235089 -5.9913616e-20)
(-0.73453856 0.038597723 1.1332605e-19)
(-0.76153068 0.029149127 -7.2525401e-20)
(-0.78150687 0.018998239 -1.790294e-20)
(-0.79288389 0.00824112 -7.1123371e-20)
(-0.79420212 -0.0028880072 -8.4809126e-20)
(-0.78425729 -0.014078533 -4.2698271e-21)
(-0.76214923 -0.025086147 1.7952737e-20)
(-0.72722174 -0.035785173 -1.3339269e-19)
(-0.67895887 -0.046136702 -5.7235733e-20)
(-0.61698376 -0.056075294 -5.9370785e-20)
(-0.54109473 -0.065457513 -1.963714e-20)
(-0.45139221 -0.074104756 -1.5499136e-19)
(-0.34825375 -0.081793997 6.219304e-20)
(-0.23251793 -0.088192487 -1.9417986e-20)
(-0.10527945 -0.092819457 -1.6179489e-19)
(0.031020786 -0.095002646 -6.54095e-20)
(0.17376432 -0.093945422 7.9480997e-20)
(0.31700493 -0.089376937 2.7789979e-19)
(0.4574792 -0.080769558 -9.0106199e-20)
(0.58456882 -0.069871379 -1.4600231e-19)
(0.69983385 -0.056671467 -6.2771351e-20)
(-0.00020576119 0.0020917361 -1.173403e-20)
(-0.00066171041 0.0064345936 1.3421494e-20)
(-0.0011981586 0.011176607 -4.8543122e-21)
(-0.0018328145 0.016340831 5.2803876e-22)
(-0.0025826165 0.021948329 -1.0440041e-20)
(-0.003469231 0.028016383 1.0810319e-20)
(-0.0045184333 0.034556996 -1.6408079e-20)
(-0.0057604158 0.041574956 7.7308018e-21)
(-0.007230505 0.0490655 2.9418429e-20)
(-0.0089698065 0.057011609 -7.0876003e-21)
(-0.011025827 0.065380977 -2.7033678e-20)
(-0.013453009 0.074122737 8.2747821e-21)
(-0.016313151 0.08316414 5.5694185e-22)
(-0.019675589 0.092407483 -2.1777532e-20)
(-0.023617074 0.10172776 6.841073e-20)
(-0.028221209 0.11097169 -4.2195369e-20)
(-0.033577355 0.11995894 -4.036869e-22)
(-0.039778908 0.12848657 2.3597781e-20)
(-0.046920966 0.13633774 -6.0313469e-20)
(-0.055097461 0.14329547 2.8676844e-20)
(-0.064398051 0.14916155 4.308864e-20)
(-0.074905197 0.15377982 1.7557314e-20)
(-0.086692235 0.15706075 -8.7697609e-20)
(-0.099825184 0.15900269 -4.6151927e-20)
(-0.11436667 0.15970297 3.0179771e-20)
(-0.13036328 0.15934955 -1.7641634e-20)
(-0.14786276 0.15817312 6.6825604e-20)
(-0.16693776 0.15638508 -1.9283809e-20)
(-0.18765876 0.15414355 5.2351563e-20)
(-0.21008381 0.15157002 -2.9812269e-20)
(-0.23426848 0.14873834 1.8421528e-20)
(-0.26026374 0.14567892 -6.8168463e-20)
(-0.28810193 0.14239196 9.8923395e-21)
(-0.31779134 0.13885425 -5.1976085e-20)
(-0.34930571 0.13502219 5.006648e-20)
(-0.38257167 0.1308322 1.5828138e-20)
(-0.41745244 0.12620059 -2.012705e-19)
(-0.45372697 0.1210231 -5.2427738e-20)
(-0.49106669 0.11517662 4.3731957e-20)
(-0.52901207 0.10852641 -4.2991882e-20)
(-0.56694593 0.10093566 1.089722e-20)
(-0.60406247 0.092269649 6.9077751e-20)
(-0.63933822 0.082399246 -3.2634782e-21)
(-0.67151524 0.071227535 -2.2693001e-20)
(-0.69914617 0.058750761 1.1256598e-20)
(-0.72072837 0.045090659 -4.9950055e-21)
(-0.73464756 0.03041593 -1.5416032e-20)
(-0.73936641 0.014932516 2.4136013e-19)
(-0.73357034 -0.00097702848 -2.6744653e-20)
(-0.71626476 -0.016880823 2.4725193e-20)
(-0.68675222 -0.032442174 -2.3217565e-19)
(-0.64456371 -0.047495323 1.2775288e-19)
(-0.58934632 -0.061996893 1.0521351e-19)
(-0.52088934 -0.075877651 1.0131683e-19)
(-0.43919572 -0.088968455 9.863286e-20)
(-0.34465579 -0.10105045 1.5700133e-19)
(-0.23791219 -0.11186537 -3.1765419e-19)
(-0.1200795 -0.12100959 1.9864537e-19)
(0.0075680034 -0.12784959 3.072883e-19)
(0.14224161 -0.1314888 -2.2884478e-19)
(0.28115472 -0.13075504 -7.4666357e-20)
(0.41804303 -0.12522349 -6.6835194e-20)
(0.54995501 -0.11397283 3.403455e-19)
(0.66664682 -0.099014916 2.5210628e-19)
(0.76818509 -0.080096275 -1.1050611e-20)
(-0.00033883919 0.0026573941 8.2079326e-21)
(-0.0010675285 0.0081775645 -1.9538867e-20)
(-0.0018980216 0.014208587 1.5935223e-20)
(-0.0028473507 0.02078108 -6.0248799e-21)
(-0.0039325585 0.027923233 -2.1776103e-21)
(-0.0051744777 0.035658829 1.8754215e-20)
(-0.0065973557 0.044005331 -4.7566847e-21)
(-0.0082290351 0.052971476 -1.0109539e-20)
(-0.010101491 0.062554337 -7.7753707e-22)
(-0.012251295 0.072735908 -6.6129457e-21)
(-0.014720064 0.083479216 9.2803398e-21)
(-0.017554847 0.094724078 -6.4701982e-21)
(-0.020808429 0.1063827 -2.391663e-20)
(-0.024539477 0.11833547 -6.9533448e-22)
(-0.028812472 0.13042755 1.8456166e-20)
(-0.03369736 0.14246699 1.3145997e-20)
(-0.039268836 0.15422552 -1.1382696e-20)
(-0.045605237 0.16544332 1.1089364e-21)
(-0.052787011 0.1758391 2.2563967e-20)
(-0.060894862 0.18512688 2.7718759e-20)
(-0.070007748 0.19303979 -3.1941652e-20)
(-0.080201022 0.19936012 -3.2460979e-20)
(-0.09154509 0.20395234 4.4122094e-20)
(-0.10410655 0.2067929 -5.5089132e-20)
(-0.11795382 0.20798802 -9.6181166e-20)
(-0.13314295 0.20776926 2.2873241e-19)
(-0.14972908 0.20644258 -1.2678986e-19)
(-0.1677831 0.20428842 1.8859412e-19)
(-0.18737901 0.20151999 -2.3673916e-19)
(-0.20857704 0.19830125 2.6495932e-19)
(-0.23142163 0.19473544 -2.7455692e-19)
(-0.25595494 0.1908672 4.6471e-20)
(-0.28219606 0.18669947 1.5997703e-19)
(-0.31013666 0.18220315 -9.0372834e-20)
(-0.33973001 0.17732172 2.8343984e-20)
(-0.37087772 0.17197187 8.4149376e-21)
(-0.4034126 0.16604276 1.0194736e-19)
(-0.43707801 0.15939571 3.3011654e-20)
(-0.4715048 0.1518681 3.298577e-20)
(-0.50618637 0.14328089 3.3067962e-20)
(-0.54045037 0.13344813 -1.6830504e-19)
(-0.57342811 0.12218281 7.365503e-20)
(-0.60402665 0.10930889 1.1238774e-20)
(-0.6309242 0.094708706 -1.3332346e-19)
(-0.65267243 0.078407498 -6.6729976e-20)
(-0.66780019 0.060589295 3.2890371e-20)
(-0.67477613 0.04148009 1.1714622e-19)
(-0.67220298 0.021420677 -5.1072635e-20)
(-0.65894418 0.00093422144 1.4656266e-19)
(-0.63415859 -0.019414053 7.9250787e-20)
(-0.59731368 -0.039206912 1.0951897e-19)
(-0.54809707 -0.058266365 2.9280985e-19)
(-0.48628097 -0.076564707 -2.2782034e-19)
(-0.41181339 -0.094020191 7.385476e-20)
(-0.32493579 -0.11041689 -1.3003642e-19)
(-0.22637302 -0.12548401 -1.2478223e-19)
(-0.11712339 -0.13894289 -4.9118645e-20)
(0.0013093819 -0.15037862 -4.6054238e-19)
(0.12749693 -0.15900465 -1.265377e-19)
(0.25820163 -0.16371075 2.9443375e-19)
(0.39048715 -0.16294757 1.128275e-19)
(0.51775925 -0.15624991 -8.6717112e-20)
(0.63737354 -0.14239122 -1.8128247e-19)
(0.73963908 -0.12332431 -2.8266061e-19)
(0.82376614 -0.099098166 2.181573e-20)
(-0.00049455774 0.0031409644 2.4808828e-20)
(-0.0015426294 0.0096700907 6.2570528e-21)
(-0.0027176315 0.016808793 -5.0710204e-21)
(-0.0040359174 0.024595269 -1.8728989e-20)
(-0.005514726 0.03306508 1.0267385e-20)
(-0.0071740221 0.042249175 -1.4791489e-20)
(-0.009036388 0.052171645 6.4070412e-21)
(-0.011127057 0.062846953 1.5278591e-21)
(-0.013474239 0.074276526 -8.6637838e-21)
(-0.01610936 0.086444742 -1.8711178e-20)
(-0.019067302 0.099314309 -9.3836313e-22)
(-0.022386596 0.11282112 3.094746e-20)
(-0.026109561 0.1268688 -4.2981073e-20)
(-0.030282358 0.1413233 6.975653e-20)
(-0.034954954 0.15600816 -1.8339444e-20)
(-0.040180939 0.17070138 3.9226116e-20)
(-0.046017203 0.18513512 -4.7831443e-20)
(-0.052523465 0.19899985 3.1355522e-20)
(-0.059761658 0.2119548 -5.0131847e-21)
(-0.067795242 0.22364643 -2.0559826e-20)
(-0.076688557 0.23373595 5.058212e-20)
(-0.086506342 0.24193538 -7.2348236e-20)
(-0.097313535 0.24804892 7.972349e-20)
(-0.10917613 0.25201262 1.3802506e-20)
(-0.12216532 0.25392168 -1.3792809e-19)
(-0.13635274 0.25403247 1.4102602e-19)
(-0.1518002 0.2527155 -9.2756762e-20)
(-0.16857423 0.25033093 1.049163e-19)
(-0.18676065 0.24715759 9.8267767e-21)
(-0.20641994 0.24339974 6.1159543e-21)
(-0.2275852 0.23919473 -4.259314e-20)
(-0.25028753 0.23460669 2.6946931e-21)
(-0.27453098 0.22964348 -1.6147702e-19)
(-0.30028835 0.22427101 4.406038e-20)
(-0.32748976 0.21841984 1.3142828e-19)
(-0.35600877 0.21198647 -6.1608094e-20)
(-0.38564519 0.20483273 5.0892417e-20)
(-0.41610489 0.19678624 -5.0919806e-20)
(-0.44697658 0.18764459 -2.8423077e-19)
(-0.47770639 0.17718348 1.5717893e-19)
(-0.50756949 0.16516638 3.8270667e-20)
(-0.53564192 0.15135429 -2.162917e-19)
(-0.56077996 0.13553004 1.2991141e-20)
(-0.58164373 0.11757225 2.6524082e-20)
(-0.59685979 0.097556755 2.8054111e-19)
(-0.60503833 0.075735772 6.4335759e-20)
(-0.60482958 0.052397373 -9.9951492e-20)
(-0.59500235 0.02800739 -1.0123781e-19)
(-0.57452323 0.0032079942 -1.4253266e-19)
(-0.54259622 -0.02130891 -1.7454449e-19)
(-0.49879601 -0.045031643 -1.0609586e-19)
(-0.44295676 -0.067767151 -1.6596862e-19)
(-0.3749967 -0.089504176 5.7160904e-20)
(-0.29505046 -0.11013693 -3.5388299e-19)
(-0.20364348 -0.12938673 -2.3802513e-20)
(-0.10188765 -0.14693386 -2.0894486e-20)
(0.0088255107 -0.16249591 -1.1297345e-20)
(0.12660535 -0.17569591 4.9584781e-19)
(0.2497762 -0.18560781 1.9774333e-19)
(0.37463049 -0.19094416 -3.0983208e-19)
(0.4980661 -0.18980926 -4.5384556e-19)
(0.61338225 -0.18169486 -2.0672534e-19)
(0.71798169 -0.1652477 -6.8348961e-20)
(0.80311864 -0.14218448 4.0102488e-19)
(0.86800424 -0.11335983 -1.0127867e-19)
(-0.00066302999 0.0035227308 -4.6433242e-21)
(-0.0020575215 0.010851509 -1.0508533e-20)
(-0.0036060343 0.018872079 2.5376959e-20)
(-0.0053249736 0.027629952 -9.4528506e-22)
(-0.007231671 0.037168214 -1.2375319e-20)
(-0.009345337 0.047525576 -5.4595885e-21)
(-0.011686947 0.058733925 -4.0363197e-21)
(-0.014279128 0.070815342 7.9676345e-21)
(-0.017146249 0.083778369 -4.1329296e-20)
(-0.020314421 0.097613575 3.1271029e-20)
(-0.023811489 0.11228835 -1.5150067e-21)
(-0.027666984 0.127741 -1.9054245e-20)
(-0.031912043 0.14387429 7.1623039e-20)
(-0.036579321 0.16054884 -7.1786241e-20)
(-0.041702883 0.17757689 9.6354888e-21)
(-0.047318131 0.19471749 6.0039581e-20)
(-0.053461789 0.21167444 -5.6986107e-20)
(-0.060172012 0.22809884 2.0145811e-20)
(-0.067488685 0.2435985 -3.9569905e-20)
(-0.075453965 0.25775651 5.1441347e-20)
(-0.084113173 0.27016075 9.7904614e-20)
(-0.093515964 0.28044461 -9.8311815e-20)
(-0.10371774 0.28833607 -1.4594338e-19)
(-0.11478107 0.29370827 2.8530278e-19)
(-0.12677806 0.2966189 -2.3153421e-19)
(-0.13979262 0.29732192 1.3575291e-19)
(-0.15389864 0.29623071 -3.5373432e-20)
(-0.16916548 0.29380067 8.4022408e-20)
(-0.18568238 0.29038723 -8.6758998e-20)
(-0.20351425 0.28623349 -1.1714599e-19)
(-0.22268953 0.28151651 7.8369321e-20)
(-0.24322259 0.27632759 1.2970804e-19)
(-0.26510273 0.27068367 -1.1570926e-20)
(-0.28828234 0.26454756 -4.8501645e-21)
(-0.31266669 0.25783731 -8.4165416e-20)
(-0.33810049 0.25042961 3.6474769e-20)
(-0.36435058 0.24215977 1.3378037e-19)
(-0.39108587 0.23282217 6.710897e-20)
(-0.41785491 0.22217488 -1.0301897e-19)
(-0.44406072 0.20994822 8.1618342e-20)
(-0.46893383 0.19585549 -6.8859734e-20)
(-0.49151101 0.17960932 2.334168e-20)
(-0.51062828 0.16096455 8.721389e-20)
(-0.52498769 0.13982034 -2.0745916e-19)
(-0.53335314 0.1163174 -1.2268111e-19)
(-0.53449447 0.090766857 -7.8960259e-20)
(-0.52726322 0.063514995 2.4549813e-19)
(-0.51053488 0.035088553 1.5782112e-19)
(-0.48322717 0.0062205323 1.8367683e-19)
(-0.44452851 -0.022237953 3.1845614e-19)
(-0.39415029 -0.049633127 -1.09522e-19)
(-0.33209739 -0.07574425 2.301939e-20)
(-0.25846107 -0.10058595 1.8400434e-19)
(-0.17362043 -0.12402167 5.4399867e-19)
(-0.078457188 -0.14569142 3.6271769e-19)
(0.025487305 -0.16523247 1.4490833e-19)
(0.1365019 -0.18237468 4.2988501e-19)
(0.25236631 -0.19681482 -2.9640923e-19)
(0.37110495 -0.20749621 3.1057214e-20)
(0.48855779 -0.21297454 4.9962296e-19)
(0.60139067 -0.21111604 3.4566048e-19)
(0.70312651 -0.20135125 1.6424347e-20)
(0.79104969 -0.18235489 -5.6856023e-19)
(0.85738397 -0.15563805 6.0051227e-20)
(0.90251483 -0.12306112 -8.661392e-20)
(-0.00083263766 0.0037865328 -1.8155483e-20)
(-0.0025764978 0.011671923 8.6868365e-21)
(-0.0045019234 0.020311504 -1.1740934e-20)
(-0.0066257696 0.029757628 -6.6774001e-21)
(-0.0089655462 0.040060825 1.8651142e-20)
(-0.011539923 0.051267948 1.7429513e-20)
(-0.014368505 0.063419678 -1.791072e-20)
(-0.017471582 0.07654748 2.1577595e-21)
(-0.020869972 0.090669746 5.0091505e-22)
(-0.024584778 0.10578713 3.5701943e-20)
(-0.028637106 0.12187698 -3.9319307e-21)
(-0.033047737 0.13888683 -7.2519863e-20)
(-0.037836791 0.15672718 5.8263017e-20)
(-0.043023389 0.17526362 -2.0219235e-21)
(-0.048625406 0.19430914 -3.9557463e-20)
(-0.054659354 0.21361726 -3.4352374e-21)
(-0.061140532 0.23287756 8.8195385e-21)
(-0.068083555 0.25171564 4.0189414e-20)
(-0.075503421 0.26969992 -7.452745e-20)
(-0.083417231 0.28635834 1.3280283e-19)
(-0.091846632 0.3012077 -2.9082866e-20)
(-0.10082088 0.31379674 2.1654203e-20)
(-0.11038026 0.32376165 -1.8133418e-20)
(-0.12057915 0.33088727 7.2756053e-22)
(-0.13148802 0.33516124 -1.1037009e-19)
(-0.14319449 0.33680128 -1.114771e-19)
(-0.1557944 0.33623275 2.2320928e-19)
(-0.16936608 0.33399094 3.7473845e-20)
(-0.18398624 0.33054104 -1.3187844e-19)
(-0.19973599 0.32618131 -4.7195566e-20)
(-0.21664734 0.32111799 -1.0706437e-19)
(-0.23471488 0.31547947 1.2165366e-19)
(-0.25391177 0.30930077 5.3385247e-20)
(-0.27416889 0.3025443 -1.2460194e-19)
(-0.29536714 0.29511767 5.2618731e-20)
(-0.317323 0.28687933 2.4606341e-20)
(-0.33977147 0.27763914 -7.3955385e-20)
(-0.36234679 0.26715945 -1.9336398e-19)
(-0.38456107 0.25516002 -5.8628848e-20)
(-0.40577967 0.24132673 3.9292801e-20)
(-0.42519901 0.22532586 9.3085905e-20)
(-0.4418354 0.20683012 9.5782925e-20)
(-0.45453798 0.18558391 1.0544257e-19)
(-0.46211108 0.16153197 2.1983086e-19)
(-0.46348399 0.13489645 -6.0085411e-21)
(-0.45763273 0.10601939 9.143169e-20)
(-0.44354689 0.075258888 -4.8968599e-19)
(-0.42007781 0.043127813 -1.3451965e-19)
(-0.38602824 0.010447689 -1.5259188e-19)
(-0.34071603 -0.021708048 -4.2064084e-19)
(-0.28408442 -0.052506388 4.903776e-19)
(-0.21631326 -0.081707505 -1.0957791e-19)
(-0.13766687 -0.10933425 -3.540283e-19)
(-0.048795848 -0.13520089 -4.3908671e-19)
(0.049039567 -0.15886441 -5.6586479e-20)
(0.15391481 -0.17995034 1.4414709e-19)
(0.26384517 -0.1982258 2.359988e-19)
(0.37634369 -0.21346967 -1.0121635e-19)
(0.4892193 -0.22448442 1.8524476e-19)
(0.59793335 -0.22971158 -1.5721491e-19)
(0.698865 -0.22685813 -5.3704076e-20)
(0.78584802 -0.21522927 -1.6062162e-19)
(0.85605728 -0.19362375 7.0905542e-19)
(0.90249822 -0.1636092 2.2942015e-20)
(0.92862073 -0.12839684 2.8495649e-19)
(-0.00099045605 0.0039210784 1.6884101e-20)
(-0.0030598834 0.012096214 3.194759e-21)
(-0.0053370157 0.021065357 -3.5125639e-21)
(-0.0078392912 0.030886962 -1.7274747e-20)
(-0.010584601 0.041618568 2.0733722e-20)
(-0.013591361 0.053315189 -1.7623552e-20)
(-0.016878194 0.066026913 -8.4318789e-21)
(-0.020463555 0.079795975 4.5305083e-22)
(-0.024365343 0.094652975 7.1428516e-21)
(-0.028600418 0.11061223 4.0708866e-20)
(-0.033184044 0.12766606 -6.8538029e-20)
(-0.038129264 0.14577805 8.2621968e-20)
(-0.043446249 0.16487513 -2.4362583e-20)
(-0.049141666 0.18483885 -3.3221386e-20)
(-0.055218146 0.20549608 5.1251833e-20)
(-0.061673975 0.22661004 -1.0172885e-19)
(-0.068503185 0.247873 1.2429757e-19)
(-0.075696255 0.26890256 1.9682631e-21)
(-0.083241648 0.28924448 7.2704242e-20)
(-0.091128475 0.30838531 -2.9218166e-19)
(-0.099350321 0.32577871 7.1719476e-20)
(-0.10791029 0.34088799 3.0089732e-19)
(-0.1168267 0.35324522 -1.4441152e-19)
(-0.12613859 0.36252194 -1.7479082e-19)
(-0.13590941 0.3685992 4.4628338e-20)
(-0.14622703 0.37161585 2.3636848e-19)
(-0.15719761 0.37196714 -3.6272979e-19)
(-0.16892528 0.37022567 4.0652017e-19)
(-0.18148359 0.36697671 -3.2305445e-19)
(-0.19494398 0.36263942 6.235658e-20)
(-0.20935701 0.35744745 -1.0747853e-19)
(-0.22470942 0.35154769 -1.5377458e-19)
(-0.24095554 0.34500684 6.1166023e-20)
(-0.2580055 0.33780088 1.5994091e-20)
(-0.2757146 0.32983106 2.2764042e-19)
(-0.29387156 0.32093908 -4.459761e-20)
(-0.31218122 0.3109107 1.1420678e-19)
(-0.33024568 0.2994778 -9.6719629e-20)
(-0.34754337 0.2863235 5.7756301e-20)
(-0.36340677 0.27109199 3.7440285e-20)
(-0.37700698 0.25340881 3.2006066e-20)
(-0.3873561 0.23291953 3.1733077e-20)
(-0.39334551 0.20937982 -1.9259967e-19)
(-0.393922 0.18280497 -1.5046696e-19)
(-0.38816216 0.1534988 4.2220173e-20)
(-0.37521823 0.12179684 -2.6440036e-20)
(-0.35411234 0.087999751 1.0989966e-19)
(-0.32359452 0.052562789 -2.1582562e-19)
(-0.28256965 0.016437015 -2.4928911e-19)
(-0.23073189 -0.019054186 -7.1956142e-20)
(-0.16829683 -0.052930637 -1.8925263e-19)
(-0.09554939 -0.084916055 6.0804755e-21)
(-0.012876025 -0.11503553 9.2213946e-20)
(0.078797074 -0.14303345 4.5058343e-19)
(0.17786922 -0.16837518 -2.274024e-19)
(0.28211527 -0.19068337 9.2791605e-20)
(0.3893223 -0.20978537 -2.7573415e-19)
(0.49695165 -0.22553339 4.6935758e-19)
(0.60261864 -0.23657411 -2.7302974e-19)
(0.70136619 -0.24110428 9.5253199e-20)
(0.78942615 -0.23689402 -1.394112e-22)
(0.86080968 -0.22325241 7.6981904e-20)
(0.91234163 -0.19915267 2.8702196e-19)
(0.93837819 -0.16677038 -5.4530826e-19)
(0.94757408 -0.13028327 5.56807e-19)
(-0.0011231617 0.0039212656 -3.7363464e-20)
(-0.0034669091 0.012107987 -1.8085753e-20)
(-0.0060408952 0.021104003 2.841066e-20)
(-0.0088632246 0.030972763 -7.4841253e-22)
(-0.01195235 0.041777947 -2.5733458e-20)
(-0.015326752 0.053582239 -1.3471806e-20)
(-0.019004547 0.066445163 2.8441743e-20)
(-0.023003027 0.080420439 -4.6780286e-21)
(-0.027338067 0.095552493 6.613144e-20)
(-0.032023429 0.11187208 -1.2928715e-20)
(-0.037069951 0.12939074 -3.3158378e-22)
(-0.042484631 0.14809411 4.7937793e-20)
(-0.048269649 0.16793373 -1.5448043e-19)
(-0.054421367 0.18881772 7.2464143e-20)
(-0.06092942 0.21060021 1.3086909e-19)
(-0.06777604 0.23307037 -1.4078493e-19)
(-0.074935829 0.25594201 1.7508377e-20)
(-0.082376281 0.27884575 -1.0079025e-19)
(-0.090059417 0.30132638 -7.5938874e-20)
(-0.097944864 0.32284941 2.4263306e-19)
(-0.10599478 0.34282127 -1.8526946e-19)
(-0.11418056 0.36062739 2.4818289e-19)
(-0.12249105 0.3756909 -2.9715469e-20)
(-0.13094095 0.38754948 1.2342e-19)
(-0.13957762 0.39594039 -2.7296333e-19)
(-0.14848303 0.40087309 6.5656516e-20)
(-0.15776723 0.40265776 1.6799302e-19)
(-0.16754975 0.40185461 -4.1117915e-19)
(-0.17793314 0.39912734 1.8074441e-19)
(-0.18897599 0.39504535 1.9604459e-19)
(-0.20071508 0.38995551 -1.6335898e-19)
(-0.21315974 0.3840369 -2.1795359e-20)
(-0.22624785 0.37735859 1.1093536e-19)
(-0.23986595 0.36990796 -6.1737563e-20)
(-0.25384974 0.36159479 9.5116881e-20)
(-0.26796215 0.35225158 -3.3613067e-19)
(-0.28187739 0.34164411 1.7719002e-19)
(-0.29516493 0.32947674 1.0696888e-19)
(-0.30726952 0.31539827 2.1995688e-19)
(-0.3174933 0.29901577 2.8958047e-20)
(-0.32498796 0.27992272 -2.3643296e-19)
(-0.32877303 0.25775403 9.5061191e-20)
(-0.32780192 0.23230075 1.399184e-19)
(-0.3211571 0.20365395 2.1920446e-20)
(-0.30802702 0.17218036 -1.3405391e-19)
(-0.28765732 0.13819049 -1.1698484e-19)
(-0.25903383 0.10187672 3.5300193e-19)
(-0.22096078 0.063666226 1.8560643e-19)
(-0.17281541 0.024655079 4.0064561e-19)
(-0.11478536 -0.013635901 1.4021444e-19)
(-0.047258595 -0.050137108 5.4330472e-20)
(0.029461733 -0.084577943 4.0318439e-19)
(0.11489601 -0.11693086 1.5945297e-19)
(0.20789308 -0.1468178 -5.3886288e-19)
(0.30658742 -0.17359299 4.3567467e-19)
(0.40850047 -0.19689012 -4.0381875e-19)
(0.51138645 -0.21661428 1.9516868e-19)
(0.61288139 -0.2326266 -9.5001969e-19)
(0.7101824 -0.24340458 -4.7799981e-19)
(0.79810141 -0.24716154 1.9401374e-19)
(0.87262016 -0.24161564 3.0468688e-19)
(0.9273762 -0.22593809 5.1039367e-19)
(0.95883153 -0.19962326 8.9190034e-20)
(0.96512046 -0.16570932 7.0702461e-20)
(0.96107342 -0.12935546 -7.435538e-19)
(-0.0012182724 0.0037892749 -6.7185488e-22)
(-0.0037592671 0.011712991 3.3516045e-20)
(-0.0065472233 0.020435872 -3.9535914e-20)
(-0.0096009074 0.030024857 -1.9040997e-20)
(-0.012939435 0.040548398 3.8172134e-20)
(-0.016581628 0.052075742 1.2378631e-20)
(-0.020545578 0.064675109 -6.0120738e-20)
(-0.024848147 0.078411499 6.4812987e-20)
(-0.029504216 0.093343697 1.3702977e-20)
(-0.03452583 0.1095204 5.4657943e-20)
(-0.039921175 0.12697522 -1.456142e-19)
(-0.045693413 0.14572029 -1.7845118e-21)
(-0.051839382 0.16573842 1.3193937e-19)
(-0.058348225 0.18697348 -1.4245908e-19)
(-0.065200022 0.20931918 1.0270144e-19)
(-0.072364596 0.23260644 3.8398393e-20)
(-0.079800746 0.25659026 -8.1003235e-20)
(-0.08745621 0.28093749 7.3926419e-20)
(-0.095268856 0.30521813 9.9652314e-20)
(-0.10316967 0.32890404 -2.1473337e-21)
(-0.11108794 0.35138011 -1.6174572e-19)
(-0.11895917 0.37197353 1.0156494e-19)
(-0.12673537 0.39000636 -5.7488248e-20)
(-0.13439672 0.40487259 -2.8251491e-19)
(-0.14196239 0.41613409 -9.5775682e-20)
(-0.14949678 0.42361744 2.6414567e-19)
(-0.15710614 0.42747979 -2.6723101e-20)
(-0.16492044 0.42820099 3.0579361e-19)
(-0.17306188 0.4264665 -1.8329361e-19)
(-0.18161288 0.42296723 9.7733177e-20)
(-0.19061125 0.41822024 -1.4324085e-19)
(-0.20003769 0.41250018 -3.5193912e-20)
(-0.20982404 0.40590904 1.7904957e-19)
(-0.21986073 0.39844835 -1.8649243e-19)
(-0.2299605 0.39002782 -2.7522214e-19)
(-0.23985969 0.38046937 2.839571e-20)
(-0.24920326 0.36952071 3.0301662e-19)
(-0.25752758 0.35686147 -3.9085932e-19)
(-0.26424292 0.34211343 8.5181628e-20)
(-0.26862175 0.3248536 -1.8272592e-19)
(-0.26980197 0.30465386 2.8211322e-20)
(-0.26681843 0.28115238 -2.8679695e-19)
(-0.25870107 0.25418391 -1.375418e-19)
(-0.24461758 0.22392784 -1.6981263e-19)
(-0.22384325 0.1907913 6.8199922e-19)
(-0.19565759 0.1550415 2.2100385e-19)
(-0.15905788 0.11678995 -2.9335236e-19)
(-0.1132445 0.076472388 2.3746654e-19)
(-0.0582704 0.035313518 1.9780151e-19)
(0.0052983304 -0.0051097629 -2.2284147e-19)
(0.07701589 -0.043766957 -1.1652476e-19)
(0.15658752 -0.080357019 -2.7365742e-19)
(0.24347848 -0.11470249 -1.3322002e-19)
(0.3363911 -0.14627118 4.5661596e-19)
(0.43322068 -0.17430563 2.5799973e-19)
(0.53132069 -0.1984763 4.1647542e-20)
(0.62870984 -0.21881126 -1.890399e-21)
(0.72319301 -0.23508573 2.356382e-19)
(0.81131999 -0.24562857 -3.4064116e-19)
(0.88778397 -0.24828678 -4.427008e-19)
(0.94788504 -0.24093354 -1.2435002e-19)
(0.98414649 -0.22311456 -9.4308973e-19)
(0.99430672 -0.19528746 -7.4892104e-19)
(0.98375431 -0.16147777 -1.9041869e-19)
(0.97122723 -0.12663519 -1.0070815e-19)
(-0.001265559 0.0035354159 2.2685423e-20)
(-0.0039054247 0.010941822 1.4036384e-20)
(-0.0068011816 0.019112288 -2.9208048e-20)
(-0.0099721233 0.028115345 5.0094175e-20)
(-0.013437995 0.03802234 1.2550936e-20)
(-0.017218116 0.048907294 -5.3831437e-20)
(-0.021330939 0.060845509 2.7551947e-22)
(-0.025793554 0.073911945 -3.2305418e-20)
(-0.030620848 0.088178894 9.6581187e-21)
(-0.035824559 0.10371285 -2.177845e-22)