/*--------------------------------*- C++ -*----------------------------------*\
  =========                 |
  \\      /  F ield         | OpenFOAM: The Open Source CFD Toolbox
   \\    /   O peration     | Website:  https://openfoam.org
    \\  /    A nd           | Version:  13
     \\/     M anipulation  |
\*---------------------------------------------------------------------------*/
FoamFile
{
    format      ascii;
    class       volVectorField;
    location    "38.201344";
    object      U;
}
// * * * * * * * * * * * * * * * * * * * * * * * * * * * * * * * * * * * * * //

dimensions      [0 1 -1 0 0 0 0];

internalField   nonuniform List<vector> 
17140
(
(-2.3025632e-06 0.00016284019 2.7659681e-23)
(-8.4871677e-06 0.0005038985 3.0632776e-24)
(-1.7335659e-05 0.00088115743 -2.0216812e-22)
(-2.9621097e-05 0.00129945 2.2216725e-22)
(-4.6254641e-05 0.0017640807 -2.5960001e-23)
(-6.8393608e-05 0.0022808159 8.4920967e-23)
(-9.7480334e-05 0.0028558625 1.4287403e-22)
(-0.00013527976 0.003495827 -6.9674035e-23)
(-0.00018395369 0.004207651 -2.2784586e-22)
(-0.00024613849 0.0049985151 -5.5814542e-22)
(-0.00032503932 0.005875704 8.2625376e-22)
(-0.00042453648 0.0068464261 -7.3486966e-22)
(-0.00054930855 0.0079175757 -1.1223513e-22)
(-0.00070497067 0.0090954301 6.3259553e-22)
(-0.00089822816 0.01038527 -6.9978578e-23)
(-0.0011370433 0.011790911 5.5188136e-22)
(-0.0014308111 0.013314143 -2.0376185e-23)
(-0.0017905377 0.014954065 4.6009776e-24)
(-0.0022290105 0.016706324 3.1988328e-22)
(-0.0027609442 0.018562256 -4.1052595e-22)
(-0.0034030813 0.020507969 1.9549916e-22)
(-0.0041742177 0.022523406 -3.6738538e-23)
(-0.0050951128 0.024581452 -2.6622169e-22)
(-0.0061882357 0.026647224 2.6095804e-22)
(-0.0074772855 0.028677682 4.0661802e-22)
(-0.0089864137 0.030621805 -3.1950857e-22)
(-0.010739073 0.032421658 -1.5357233e-21)
(-0.012756418 0.034014781 -1.7699898e-22)
(-0.015055237 0.035338529 1.515647e-21)
(-0.017645473 0.036337082 3.4646982e-22)
(-0.020527643 0.036971729 1.205135e-21)
(-0.023690803 0.037233656 -1.5413455e-21)
(-0.027112154 0.037155117 3.8965893e-22)
(-0.030759436 0.036810433 1.7923042e-22)
(-0.034596218 0.036299778 1.6827706e-21)
(-0.038588128 0.035721589 -7.0224663e-22)
(-0.042706876 0.035151303 1.0114852e-21)
(-0.046930715 0.034637118 6.5469853e-22)
(-0.051242998 0.034207648 2.8808581e-22)
(-0.055631235 0.033881434 -8.4542028e-22)
(-0.060087648 0.033672991 -1.5617969e-21)
(-0.064611765 0.033594496 -1.3986094e-21)
(-0.069213536 0.033653976 -6.0711592e-22)
(-0.073919799 0.033850769 2.9634219e-21)
(-0.078783117 0.03416304 2.1822605e-21)
(-0.083881357 0.034533632 -5.4040857e-22)
(-0.08932773 0.034862963 3.7263637e-21)
(-0.095280077 0.034984602 1.2814623e-21)
(-0.10193767 0.034629456 -1.322475e-21)
(-0.10954854 0.033377437 -3.2831654e-21)
(-0.1183848 0.030575287 2.0452849e-21)
(-0.12874693 0.025198021 1.3093236e-21)
(-0.14083365 0.01566326 -3.4511278e-21)
(-0.15473497 -0.00041963612 -1.6542164e-21)
(-0.16983223 -0.026404422 -1.1736155e-21)
(-0.18499188 -0.066336942 9.3413305e-22)
(-0.1965303 -0.12337961 -2.4462661e-21)
(-0.2000498 -0.19597948 -1.9615074e-21)
(-0.18614785 -0.27270736 -4.49755e-22)
(-0.15700209 -0.32828887 1.0972213e-21)
(-0.11705176 -0.3315988 8.2503579e-22)
(-0.081943974 -0.22024523 3.1137807e-21)
(0.046214619 0.052373512 4.0617326e-22)
(0.23473669 0.33955783 -2.1898505e-21)
(0.35393467 0.45920117 9.5480588e-22)
(-7.9235701e-06 0.0001915067 -7.897067e-24)
(-2.5951194e-05 0.00059271185 1.0636422e-21)
(-4.7763353e-05 0.0010364291 -9.4625569e-22)
(-7.43887e-05 0.0015280487 2.5785399e-22)
(-0.00010684312 0.0020734769 5.3246097e-22)
(-0.00014644525 0.0026791104 -1.0168787e-21)
(-0.00019480022 0.0033518128 1.0592295e-21)
(-0.00025383841 0.0040988686 -9.3139847e-23)
(-0.00032588371 0.0049279086 2.9047686e-22)
(-0.00041372772 0.0058468027 4.9239521e-24)
(-0.00052071564 0.0068635094 9.6688255e-22)
(-0.0006508438 0.0079858742 -1.5329673e-21)
(-0.00080887121 0.0092213671 -1.2627188e-22)
(-0.0010004441 0.010576747 1.2421486e-21)
(-0.0012322333 0.01205764 -3.7976332e-22)
(-0.0015120818 0.013668027 -2.3990061e-22)
(-0.0018491594 0.01540962 1.5115297e-21)
(-0.0022541171 0.017281129 -4.8817444e-21)
(-0.0027392324 0.019277418 3.0250305e-21)
(-0.0033185296 0.021388555 -3.5806554e-21)
(-0.0040078572 0.023598788 5.2143828e-21)
(-0.0048248928 0.025885488 -1.258197e-21)
(-0.0057890415 0.028218133 -5.0881282e-22)
(-0.0069211806 0.030557463 1.6328566e-21)
(-0.0082431953 0.032854962 -5.7508441e-21)
(-0.0097772399 0.035052924 -8.4108225e-22)
(-0.011544654 0.037085449 4.2590652e-21)
(-0.013564475 0.038880858 -4.6763709e-21)
(-0.015851526 0.040366256 6.292717e-22)
(-0.018414171 0.041475152 6.0285206e-21)
(-0.02125203 0.042159017 -6.0844321e-22)
(-0.024354284 0.04240228 -4.5609212e-21)
(-0.027699504 0.042236407 -1.1389754e-22)
(-0.031257924 0.041743073 3.1846807e-21)
(-0.034996144 0.041037181 -3.40795e-21)
(-0.038882531 0.040235009 1.4681383e-21)
(-0.04289064 0.03942798 -1.6452765e-21)
(-0.046999575 0.03867594 -5.01771e-21)
(-0.051192769 0.038015215 -1.0852627e-21)
(-0.055457313 0.037469824 -4.1195836e-21)
(-0.059784761 0.037059213 5.1601268e-21)
(-0.064173857 0.036801156 4.7040044e-21)
(-0.06863395 0.036710821 8.0326363e-22)
(-0.073191715 0.03679684 -6.438638e-21)
(-0.077899604 0.037047932 3.090235e-21)
(-0.08283709 0.037417717 1.0840121e-21)
(-0.088121791 0.037819356 -5.6720649e-22)
(-0.093919416 0.038099821 -1.8528142e-21)
(-0.10044313 0.038002032 9.1464993e-22)
(-0.10796474 0.037115227 -1.7278721e-21)
(-0.11679652 0.034789258 -1.0391095e-20)
(-0.1273018 0.029986306 -4.7968822e-22)
(-0.13977673 0.021078072 2.2532912e-21)
(-0.15445274 0.0055464761 -5.2834616e-21)
(-0.17087696 -0.020209951 4.4885382e-21)
(-0.18797124 -0.060731915 -1.2848138e-20)
(-0.20158206 -0.11980069 -3.7854802e-21)
(-0.20643264 -0.1967412 9.7092211e-21)
(-0.19239889 -0.27918145 -1.5643389e-21)
(-0.16182963 -0.33886366 -1.5499201e-21)
(-0.12260611 -0.34320221 -2.7398755e-22)
(-0.094162081 -0.24227121 2.9092917e-21)
(-0.0058408014 0.0068552781 -5.7032982e-21)
(0.16066847 0.29048361 -4.2772231e-22)
(0.288216 0.4330603 -1.2142546e-21)
(-1.52241e-05 0.00021952762 -4.362616e-22)
(-4.8487579e-05 0.00067953617 3.2236834e-22)
(-8.7084313e-05 0.0011882318 8.5714283e-23)
(-0.00013218749 0.001751547 -8.1237002e-23)
(-0.00018499359 0.0023759624 3.9353878e-22)
(-0.00024700062 0.0030684776 2.9263433e-23)
(-0.00031999723 0.003836584 3.734719e-22)
(-0.00040609758 0.0046882139 4.020694e-22)
(-0.00050780392 0.0056316584 -3.2821748e-21)
(-0.00062807335 0.0066754486 2.9265847e-21)
(-0.00077039459 0.0078281915 -1.3981529e-21)
(-0.00093887409 0.0090983504 -2.0444983e-21)
(-0.0011383336 0.010493958 4.0433933e-21)
(-0.0013744178 0.012022253 4.9899623e-22)
(-0.0016537119 0.013689219 -1.9182248e-21)
(-0.0019838667 0.015499032 -1.3120451e-21)
(-0.002373727 0.017453375 1.5117589e-21)
(-0.0028334583 0.019550648 -5.430539e-21)
(-0.0033746622 0.02178504 3.1794353e-21)
(-0.0040104676 0.024145495 -1.5555855e-21)
(-0.0047555798 0.026614577 5.1781316e-21)
(-0.0056262637 0.029167299 1.3270432e-21)
(-0.0066402282 0.031769979 -2.7254115e-21)
(-0.0078163714 0.03437925 4.0312317e-21)
(-0.0091743367 0.036941406 1.5597053e-21)
(-0.010733821 0.039392331 -1.836998e-21)
(-0.012513576 0.041658399 -1.0233461e-20)
(-0.014530048 0.043658881 -4.5446335e-21)
(-0.016795667 0.045310685 2.2225146e-21)
(-0.019316872 0.04653653 -2.3347527e-21)
(-0.022092197 0.047277705 1.4263157e-21)
(-0.025110983 0.04751122 7.9013978e-21)
(-0.028353495 0.04726681 -2.5773211e-21)
(-0.031793042 0.046632536 -7.4414366e-21)
(-0.035399918 0.045737427 2.3793652e-21)
(-0.039145747 0.044715579 3.2080394e-21)
(-0.043006166 0.043674741 -5.3363952e-21)
(-0.046961051 0.042686785 -1.5759502e-21)
(-0.050993568 0.041796018 2.6912151e-21)
(-0.055089809 0.041032122 1.0465368e-21)
(-0.059239842 0.040419662 -4.9895072e-21)
(-0.063440494 0.039982293 1.4107327e-21)
(-0.067698967 0.039742754 2.0337369e-21)
(-0.072039691 0.039719571 5.4870051e-21)
(-0.076511973 0.039913027 -1.0590803e-20)
(-0.081192857 0.040289336 6.9993154e-21)
(-0.086198564 0.040776482 1.8222461e-21)
(-0.091694771 0.041237618 7.2823492e-21)
(-0.097897685 0.041432019 8.9138748e-21)
(-0.10508797 0.040964744 4.499246e-22)
(-0.11359813 0.039198203 -2.1326713e-21)
(-0.12382689 0.035094732 1.5083134e-20)
(-0.13613137 0.026998062 6.54653e-21)
(-0.15083776 0.01227837 6.7944226e-21)
(-0.16760904 -0.012927951 2.3854609e-21)
(-0.18537915 -0.053791506 1.7830025e-20)
(-0.1997396 -0.11500737 -7.5931857e-21)
(-0.20473637 -0.19668745 2.3744921e-21)
(-0.18622063 -0.28525602 1.5543005e-20)
(-0.15081079 -0.34920956 5.2729452e-21)
(-0.10955364 -0.35406552 -4.9260319e-21)
(-0.082707324 -0.25957852 -1.5505595e-20)
(-0.020973578 -0.032064031 4.7697553e-21)
(0.11293461 0.24165236 4.0584084e-21)
(0.24582327 0.39970519 9.1964237e-22)
(-2.4132728e-05 0.00024638625 1.465312e-21)
(-7.5988248e-05 0.00076279274 -2.3311914e-21)
(-0.00013505711 0.0013338274 8.42693e-22)
(-0.00020267498 0.0019659314 -9.1573712e-23)
(-0.00028024286 0.0026661247 1.8098578e-21)
(-0.00036945908 0.0034419722 -1.8716349e-21)
(-0.00047231518 0.0043015554 2.8375479e-21)
(-0.00059112593 0.0052534159 -1.3339217e-21)
(-0.00072858519 0.0063064672 -5.0673493e-21)
(-0.00088782372 0.0074698671 1.2169031e-21)
(-0.0010724752 0.0087528409 4.6287074e-21)
(-0.0012867488 0.010164446 -1.4104465e-21)
(-0.0015355106 0.011713267 -9.3943799e-23)
(-0.0018243713 0.013407023 3.6726707e-21)
(-0.0021597813 0.015252078 -1.1449266e-20)
(-0.0025491288 0.017252845 6.9980708e-21)
(-0.0030008392 0.019411057 6.6328607e-23)
(-0.0035244692 0.021724915 -3.8253484e-21)
(-0.0041307882 0.024188086 9.6400493e-21)
(-0.0048318355 0.026788588 -4.5088849e-21)
(-0.0056409386 0.029507552 -6.6559844e-21)
(-0.0065726698 0.032317938 -2.665799e-21)
(-0.0076427158 0.035183252 1.3016847e-20)
(-0.0088676232 0.038056417 6.7141641e-21)
(-0.010264378 0.040878951 -4.2757918e-21)
(-0.011849769 0.04358075 2.4620944e-21)
(-0.013639482 0.046080851 -9.0939271e-21)
(-0.015646898 0.048289788 2.5775422e-21)
(-0.017881598 0.05011444 -6.8477791e-21)
(-0.020347717 0.051466664 3.8154014e-21)
(-0.02304245 0.052277142 -2.3274545e-21)
(-0.025955249 0.052514561 8.3562297e-21)
(-0.029068294 0.052205565 -1.1717128e-21)
(-0.03235846 0.051443088 6.0194707e-21)
(-0.03580037 0.050369205 -5.564853e-21)
(-0.03936945 0.049135556 -1.7232858e-21)
(-0.043043677 0.047866581 2.0559197e-20)
(-0.046803627 0.04664671 5.1792838e-21)
(-0.050631829 0.045528635 -4.1611418e-21)
(-0.054512748 0.044547932 3.9987105e-21)
(-0.058434066 0.043734438 -1.0267948e-21)
(-0.062389453 0.043117871 -6.3184667e-21)
(-0.066382264 0.042728857 2.8934706e-22)
(-0.070432352 0.042596249 2.1639323e-21)
(-0.074582578 0.042732713 -1.0781424e-21)
(-0.078902838 0.043118524 5.8228977e-22)
(-0.083501128 0.043698254 1.6447823e-21)
(-0.088533763 0.044353869 -2.536446e-20)
(-0.094206879 0.044864904 2.9354532e-21)
(-0.1007913 0.044858356 -2.7442999e-21)
(-0.10861373 0.043718218 2.6393887e-20)
(-0.11806928 0.04041969 -1.4670081e-20)
(-0.12952024 0.033297939 -1.2517664e-20)
(-0.14331381 0.019630286 -1.2293909e-20)
(-0.15913426 -0.0047090693 -1.2206493e-20)
(-0.17578592 -0.045525586 -1.9327929e-20)
(-0.18857697 -0.10850685 3.8489383e-20)
(-0.18894851 -0.19562009 -2.2986218e-20)
(-0.16405545 -0.29133585 -3.057434e-20)
(-0.12065479 -0.35911733 1.8205478e-20)
(-0.075835951 -0.36384727 4.7318291e-21)
(-0.049475899 -0.27317609 4.8751919e-21)
(-0.0030678619 -0.063766139 -8.6813646e-21)
(0.10038118 0.19655488 -3.4438919e-21)
(0.23463417 0.36112797 -1.2126727e-22)
(-3.454951e-05 0.00027155695 -1.0350092e-21)
(-0.00010814639 0.00084084885 3.4359058e-21)
(-0.00019114757 0.001470363 -2.8005754e-21)
(-0.00028506724 0.0021670092 1.0581019e-21)
(-0.0003915317 0.0029383016 3.821609e-22)
(-0.00051245772 0.003792325 -3.2872655e-21)
(-0.00065005609 0.0047377036 8.3213352e-22)
(-0.00080685622 0.0057835416 1.7661134e-21)
(-0.00098575415 0.00693933 1.3538092e-22)
(-0.0011900602 0.0082148113 1.1493925e-21)
(-0.0014235527 0.009619794 -1.6079134e-21)
(-0.0016905355 0.011163905 1.116014e-21)
(-0.0019959007 0.012856266 4.1059563e-21)
(-0.0023451947 0.014705085 1.1924632e-22)
(-0.0027446873 0.016717136 -3.123234e-21)
(-0.0032014404 0.018897131 -2.2051423e-21)
(-0.0037233743 0.021246951 1.8901368e-21)
(-0.0043193255 0.023764738 -1.7998682e-22)
(-0.0049990903 0.026443838 -3.6440377e-21)
(-0.005773444 0.029271594 -4.4094958e-21)
(-0.0066541231 0.032228029 4.9905884e-21)
(-0.007653753 0.035284435 4.9720554e-21)
(-0.008785699 0.038401963 -6.6162561e-21)
(-0.010063811 0.041530335 8.0911532e-21)
(-0.011502028 0.044606852 1.3844537e-20)
(-0.013113797 0.047555993 -3.2174389e-20)
(-0.014911276 0.050290006 1.7459576e-20)
(-0.016904298 0.052711155 -2.5500504e-20)
(-0.019099123 0.054716589 3.1377786e-20)
(-0.021497153 0.056207314 -3.447034e-20)
(-0.024093915 0.057102948 3.5013948e-20)
(-0.026878814 0.057362755 -5.7695343e-21)
(-0.029836027 0.0570085 -1.94546e-20)
(-0.03294636 0.056135891 1.0651973e-20)
(-0.036189327 0.054898407 -3.2161949e-21)
(-0.0395447 0.053464663 -8.9428583e-22)
(-0.042993104 0.051976153 -1.0683295e-20)
(-0.046515781 0.050530559 -3.3554197e-21)
(-0.050094255 0.049189499 -3.3047545e-21)
(-0.053710701 0.047994737 -3.1647021e-21)
(-0.057349444 0.046981494 1.5920946e-20)
(-0.060999652 0.046185627 -6.9533474e-21)
(-0.064658979 0.045645787 -1.1198707e-21)
(-0.06834014 0.045401371 1.2943535e-20)
(-0.072075732 0.045477929 6.6539562e-21)
(-0.075923209 0.045870848 -3.2979538e-21)
(-0.079974702 0.046542684 -1.2342567e-20)
(-0.084366156 0.047396285 5.4109116e-21)
(-0.089277742 0.048234602 -1.6350838e-20)
(-0.094947475 0.048711794 -9.115773e-21)
(-0.10166277 0.048240922 -1.2781076e-20)
(-0.10976168 0.045821008 -3.5601872e-20)
(-0.11953428 0.039799221 2.8198645e-20)
(-0.13124706 0.027384189 -9.7129177e-21)
(-0.14446279 0.0041918622 1.6911277e-20)
(-0.15767753 -0.036316238 1.6258017e-20)
(-0.16532891 -0.10133215 7.3609409e-21)
(-0.15674949 -0.19368124 5.7403445e-20)
(-0.11965281 -0.29624141 1.2992622e-20)
(-0.065489248 -0.36749154 -2.3797534e-20)
(-0.016592974 -0.37093881 -5.5729035e-21)
(0.0069496013 -0.2827676 4.0214987e-21)
(0.044373909 -0.086930883 5.648055e-21)
(0.12630148 0.1572542 1.9438561e-21)
(0.26268497 0.31925997 -1.1394929e-22)
(-4.6312944e-05 0.00029449878 -3.1638465e-21)
(-0.00014446548 0.00091203191 -1.116594e-21)
(-0.00025449169 0.0015949197 9.0383724e-22)
(-0.00037809757 0.0023504925 3.3369363e-21)
(-0.00051715174 0.0031867048 -1.8278616e-21)
(-0.00067380393 0.0041121066 2.6299821e-21)
(-0.00085049709 0.0051358092 -1.137495e-21)
(-0.0010499859 0.0062674246 -2.70805e-22)
(-0.0012753764 0.0075169678 1.5318158e-21)
(-0.001530162 0.0088947184 3.2989528e-21)
(-0.001818264 0.010411028 1.6565829e-22)
(-0.0021440727 0.012076063 -5.413155e-21)
(-0.0025124895 0.013899473 7.4797137e-21)
(-0.0029289697 0.015889962 -1.2058803e-20)
(-0.003399563 0.018054753 3.1455666e-21)
(-0.0039309505 0.020398931 -6.669165e-21)
(-0.0045304748 0.022924645 8.0403216e-21)
(-0.0052061585 0.025630151 -5.2047184e-21)
(-0.0059667058 0.028508706 8.1866316e-22)
(-0.0068214802 0.031547292 3.3055581e-21)
(-0.0077804463 0.034725206 -7.991236e-21)
(-0.0088540642 0.038012543 1.1207153e-20)
(-0.010053118 0.041368654 -1.2098987e-20)
(-0.011388457 0.044740688 -2.0660842e-21)
(-0.01287062 0.048062423 2.0079763e-20)
(-0.014509315 0.051253642 -2.0117837e-20)
(-0.016312731 0.054220523 1.2952098e-20)
(-0.018286678 0.056857691 -1.4401297e-20)
(-0.020433606 0.059053025 -1.3705606e-21)
(-0.022751704 0.060696796 -8.4373215e-22)
(-0.025234406 0.061697119 5.5154591e-21)
(-0.027870765 0.062002574 -3.714985e-22)
(-0.030646856 0.061627879 2.0042082e-20)
(-0.0335476 0.060668816 -5.2746883e-21)
(-0.036557853 0.059287999 -1.5341824e-20)
(-0.03966227 0.057670054 6.8946449e-21)
(-0.042844489 0.055973834 -5.4535359e-21)
(-0.046086449 0.054311102 5.3222762e-21)
(-0.049368331 0.052753101 2.8638831e-20)
(-0.052669333 0.051348141 -1.548938e-20)
(-0.055969395 0.050136903 -3.7418195e-21)
(-0.059251739 0.049161331 2.1153898e-20)
(-0.062506299 0.048468051 -1.1876933e-21)
(-0.065735839 0.048106847 -2.5803793e-21)
(-0.068958466 0.048116301 -2.8822788e-20)
(-0.072213256 0.048507609 -6.7535284e-21)
(-0.075567818 0.049262013 1.085997e-20)
(-0.07912497 0.050304392 1.1272742e-20)
(-0.083019935 0.051463155 1.6388292e-20)
(-0.087429947 0.052423251 2.0814732e-20)
(-0.092560692 0.052631085 1.3105839e-20)
(-0.098621974 0.051117504 2.0407183e-20)
(-0.10573071 0.046262725 -7.1169796e-21)
(-0.11392763 0.035231544 4.6736335e-20)
(-0.12240773 0.013398543 3.8494846e-21)
(-0.12897161 -0.026551964 3.1972102e-21)
(-0.12659547 -0.093445619 2.7501279e-21)
(-0.1017916 -0.19126322 -6.4809554e-20)
(-0.043217161 -0.29926467 -2.1864086e-20)
(0.02527168 -0.37141324 2.4860949e-20)
(0.075662653 -0.37187993 2.061194e-20)
(0.090799325 -0.28612076 4.9022801e-21)
(0.11915513 -0.10333056 1.2366661e-21)
(0.18841731 0.12360344 1.4924521e-21)
(0.33196595 0.27623219 -1.0651738e-21)
(-5.9197283e-05 0.00031468227 5.9960128e-22)
(-0.00018425652 0.00097470327 1.9054466e-21)
(-0.00032388797 0.0017046378 -4.5985511e-21)
(-0.00048000587 0.0025121783 1.7089885e-22)
(-0.00065473104 0.0034056586 2.2383492e-21)
(-0.00085045692 0.0043940304 9.8644401e-22)
(-0.0010698675 0.0054868283 7.2821404e-22)
(-0.0013159501 0.0066941084 -1.4345876e-21)
(-0.0015920251 0.0080263498 7.4241726e-21)
(-0.0019017704 0.0094943142 -5.5997495e-21)
(-0.002249248 0.01110885 2.7082711e-22)
(-0.0026389267 0.012880633 3.3851705e-21)
(-0.0030757037 0.014819824 -1.2654159e-20)
(-0.0035649216 0.016935636 1.259953e-20)
(-0.0041123795 0.019235784 -1.6758935e-21)
(-0.0047243361 0.021725813 -1.0355939e-20)
(-0.0054075011 0.024408274 9.7187877e-21)
(-0.0061690122 0.027281736 -3.3874705e-21)
(-0.0070163913 0.030339636 6.5624883e-21)
(-0.0079574769 0.033568945 -8.3910124e-21)
(-0.0090003216 0.036948681 -1.5682543e-20)
(-0.010153049 0.040448286 1.5437453e-20)
(-0.011423652 0.044025952 2.2469219e-20)
(-0.012819727 0.047627002 -4.3001006e-20)
(-0.014348115 0.051182508 3.4173717e-20)
(-0.016014433 0.054608439 -1.9642208e-20)
(-0.017822497 0.057805781 5.0057668e-21)
(-0.019773634 0.060662343 -1.1703853e-20)
(-0.021865986 0.063057363 1.1828371e-20)
(-0.024093997 0.064870648 1.5767449e-20)
(-0.026448479 0.065998439 -1.0325449e-20)
(-0.028917651 0.066377302 -1.6876305e-20)
(-0.031489157 0.066012414 1.4413242e-21)
(-0.034151979 0.064996345 5.7464083e-22)
(-0.036896601 0.06349788 1.0048355e-20)
(-0.039713069 0.061716175 -4.227439e-21)
(-0.042588467 0.059827594 -1.48724e-20)
(-0.04550555 0.057958926 -7.2401347e-21)
(-0.04844287 0.056191901 1.0768559e-20)
(-0.051375974 0.054581812 -8.2892138e-21)
(-0.054279337 0.05317484 6.9816832e-21)
(-0.05712871 0.052018805 -2.2486735e-21)
(-0.059904141 0.051168002 -8.8362207e-21)
(-0.062595255 0.050682211 2.1508081e-20)
(-0.065201213 0.050612553 1.2888193e-20)
(-0.067736081 0.050986188 8.618665e-21)
(-0.070233115 0.051802927 -2.7767973e-20)
(-0.072747285 0.05300964 -1.8400655e-20)
(-0.075346453 0.054460573 -2.2033861e-20)
(-0.078113476 0.055872718 -3.9345847e-20)
(-0.081118876 0.056725748 1.4233828e-20)
(-0.084352641 0.056084831 -2.9781179e-21)
(-0.087636471 0.052377687 -2.4780816e-20)
(-0.090587272 0.042743883 -7.5477301e-20)
(-0.091657929 0.022317133 -5.2120765e-20)
(-0.087314498 -0.017080623 -2.1737037e-20)
(-0.06778086 -0.086108923 -6.3941406e-20)
(-0.015367886 -0.18901567 4.2209275e-20)
(0.078038437 -0.29909231 -4.3421578e-21)
(0.1667727 -0.36782584 -4.0705161e-20)
(0.21164614 -0.36172565 -1.6182592e-20)
(0.209599 -0.27848806 -1.1516773e-21)
(0.2219188 -0.11102472 -4.4326726e-21)
(0.28109814 0.095230296 2.2240134e-21)
(0.43425155 0.23426684 -1.1833162e-21)
(-7.2913116e-05 0.00033161194 2.3757123e-21)
(-0.00022664335 0.0010273225 -1.602473e-21)
(-0.00039780405 0.0017968269 2.1644362e-21)
(-0.00058854807 0.0026481104 1.2300401e-21)
(-0.0008012464 0.0035898177 -3.4319552e-21)
(-0.0010385428 0.0046312314 -3.2032028e-21)
(-0.0013033671 0.0057822374 3.2861184e-21)
(-0.0015989423 0.007053265 -3.9541721e-22)
(-0.0019288044 0.0084551894 -9.1521243e-23)
(-0.0022968156 0.0099991928 -6.5018994e-21)
(-0.0027071749 0.011696569 7.1241532e-22)
(-0.0031644236 0.013558465 1.309608e-20)
(-0.003673445 0.015595538 -1.0463187e-20)
(-0.0042394546 0.017817518 3.6015024e-22)
(-0.004867982 0.020232661 6.9985874e-21)
(-0.0055648374 0.022847061 6.0118952e-22)
(-0.0063360646 0.025663816 -1.5268476e-21)
(-0.0071878728 0.028682023 -6.8657089e-21)
(-0.008126547 0.031895595 1.2546233e-20)
(-0.0091583297 0.035291877 -2.1990553e-20)
(-0.010289272 0.038850097 4.7234947e-21)
(-0.011525045 0.042539649 -3.4554198e-21)
(-0.012870706 0.046318289 2.8222165e-21)
(-0.014330413 0.050130352 -1.2096761e-22)
(-0.015907075 0.05390515 1.6542385e-20)
(-0.01760193 0.057555857 1.6370605e-20)
(-0.019414064 0.060979326 -3.2181198e-20)
(-0.021339898 0.064057553 -5.3186365e-21)
(-0.023372759 0.066661973 1.8349787e-20)
(-0.025502769 0.068662392 6.4472991e-21)
(-0.027717473 0.069942955 1.4522744e-20)
(-0.030003585 0.070426906 -1.6147296e-20)
(-0.032349716 0.070107188 -6.9571665e-21)
(-0.034748546 0.069069339 1.5766002e-20)
(-0.037196236 0.067484591 -6.4255996e-21)
(-0.039688661 0.065564489 -3.0507488e-21)
(-0.042216854 0.063502764 8.392043e-21)
(-0.044764618 0.06144224 2.1380735e-20)
(-0.04730868 0.059476164 6.3701243e-21)
(-0.049820289 0.057667355 -4.1331238e-21)
(-0.052267359 0.056067509 -9.6704765e-21)
(-0.05461656 0.054729951 -9.9997644e-21)
(-0.05683583 0.053716019 -1.1119352e-20)
(-0.058897985 0.053094682 -2.3517925e-20)
(-0.060778459 0.052928642 6.7306545e-22)
(-0.062459179 0.053260372 -1.0151474e-20)
(-0.06392774 0.054107012 5.7241265e-20)
(-0.065174359 0.055435872 1.6162638e-20)
(-0.066173074 0.057125187 1.8862351e-20)
(-0.066871828 0.058921752 5.365409e-20)
(-0.067139306 0.060329423 -6.4725251e-20)
(-0.06663614 0.060449673 1.4942629e-20)
(-0.064749401 0.057770321 4.9607389e-20)
(-0.060405398 0.04937174 6.2965537e-20)
(-0.050790328 0.030123489 7.8893707e-21)
(-0.030129962 -0.0091693414 -2.3655486e-20)
(0.01628021 -0.081104745 -3.8903373e-20)
(0.11153205 -0.18893049 1.6355698e-20)
(0.25007574 -0.29695207 -2.2603997e-20)
(0.36294203 -0.34988837 1.1680287e-20)
(0.4005122 -0.33058734 1.3601373e-21)
(0.37217652 -0.25143304 -1.2270689e-21)
(0.35724215 -0.10475172 6.777428e-21)
(0.40101813 0.074407696 1.4763316e-21)
(0.558993 0.19573408 9.1915855e-22)
(-8.7123332e-05 0.00034484381 -2.2392661e-21)
(-0.00027056685 0.0010685147 -5.9982469e-22)
(-0.00047440618 0.0018690806 6.5894984e-22)
(-0.00070103471 0.0027547473 3.2380832e-21)
(-0.00095307497 0.0037343946 -3.8823137e-21)
(-0.0012334216 0.0048175573 3.2954295e-21)
(-0.0015452498 0.0060143936 1.574277e-21)
(-0.0018920174 0.0073356275 -8.4351944e-23)
(-0.0022774743 0.008792456 -1.3271933e-21)
(-0.0027056639 0.010396413 -7.5407992e-21)
(-0.0031809195 0.012159179 1.2646444e-20)
(-0.0037078507 0.014092328 -1.5172948e-20)
(-0.004291322 0.016206993 4.4476419e-21)
(-0.0049364173 0.018513429 6.0236736e-21)
(-0.0056483899 0.021020474 -9.2146739e-21)
(-0.0064325955 0.023734861 1.810923e-20)
(-0.0072944031 0.026660388 -2.1872641e-20)
(-0.0082390831 0.029796899 -3.4361624e-22)
(-0.0092716679 0.033139088 -1.2432954e-20)
(-0.010396783 0.036675083 4.9110541e-20)
(-0.011618445 0.040384841 -1.1830788e-20)
(-0.012939824 0.044238355 -4.8696645e-20)
(-0.014362969 0.048193727 2.2886457e-20)
(-0.015888492 0.052195219 2.7151081e-20)
(-0.017515218 0.056171432 -6.7834961e-21)
(-0.019239792 0.060033902 -3.5322741e-20)
(-0.021056282 0.063676563 5.3176371e-20)
(-0.022955819 0.066976807 -5.8624549e-20)
(-0.024926422 0.069799327 4.5847548e-20)
(-0.026953277 0.072004628 -8.7117477e-21)
(-0.029019906 0.073464771 1.4839275e-20)
(-0.031110637 0.074088522 2.0911536e-20)
(-0.033214149 0.073853838 -8.0556791e-21)
(-0.035326077 0.07283496 -2.0035963e-21)
(-0.037447982 0.071201076 -2.8695301e-20)
(-0.039581901 0.069173175 5.3350664e-21)
(-0.041723353 0.066961723 -1.3472281e-20)
(-0.043857558 0.064726578 1.1191021e-20)
(-0.045959351 0.06257369 -6.2964149e-21)
(-0.047995094 0.060574082 -4.1189846e-21)
(-0.049925036 0.058784966 -3.5376265e-21)
(-0.0517051 0.057264651 -3.4263929e-21)
(-0.053288638 0.056080522 2.1070749e-20)
(-0.05462792 0.055309359 1.6918321e-20)
(-0.055669269 0.055024141 -4.7969428e-21)
(-0.056354632 0.05528087 3.2060674e-21)
(-0.05661309 0.056111395 -1.3079712e-20)
(-0.056350658 0.057500017 2.7139964e-20)
(-0.055416357 0.059344319 3.2484969e-20)
(-0.053575396 0.061413887 9.8115312e-21)
(-0.05041335 0.063227221 2.5646535e-20)
(-0.045120275 0.063908403 -8.087726e-22)
(-0.036503057 0.061978879 -1.2848202e-20)
(-0.02253893 0.054431893 -6.8400323e-20)
(0.0015738973 0.035776883 3.5406813e-20)
(0.04502674 -0.0046508857 -1.6575284e-20)
(0.13073812 -0.081113346 4.4021394e-20)
(0.28081531 -0.19270666 -7.0263406e-20)
(0.46070476 -0.29313903 3.2848783e-20)
(0.58470862 -0.32734922 -6.2062151e-21)
(0.61822945 -0.28341885 3.2364226e-22)
(0.5754937 -0.19876119 -2.3617828e-22)
(0.52902173 -0.07613259 5.8594491e-21)
(0.55120132 0.067115039 -8.4946682e-21)
(0.70388114 0.16486618 3.7172473e-21)
(-0.00010144046 0.00035401833 5.0205555e-21)
(-0.00031483185 0.0010971633 3.454082e-21)
(-0.00055161385 0.0019194437 -5.4219411e-21)
(-0.00081441638 0.0028292081 1.4270869e-22)
(-0.0011061092 0.0038354894 4.9009855e-21)
(-0.0014298327 0.0049479907 2.5622519e-21)
(-0.0017890021 0.0061770572 -5.3995411e-21)
(-0.0021873047 0.0075336233 8.8639735e-22)
(-0.0026286991 0.0090291254 -1.2495436e-20)
(-0.0031174056 0.010675373 2.4347094e-21)
(-0.003657888 0.012484369 6.2489981e-23)
(-0.0042548232 0.014468065 -8.9493389e-21)
(-0.004913058 0.016638034 2.8665913e-20)
(-0.0056375488 0.019005059 -1.335076e-20)
(-0.0064332822 0.021578592 -2.3905896e-20)
(-0.0073051722 0.02436609 2.5457644e-20)
(-0.0082579328 0.027372191 -3.1330348e-21)
(-0.0092959199 0.030597704 1.7769225e-20)
(-0.010422943 0.034038404 1.318231e-20)
(-0.011642043 0.037683612 -4.1409148e-20)
(-0.012955233 0.041514542 3.1035851e-20)
(-0.014363208 0.045502448 -4.0777286e-20)
(-0.015865017 0.049606596 4.7784971e-21)
(-0.017457712 0.053772143 -1.948277e-20)
(-0.019135972 0.057928105 4.2220843e-20)
(-0.020891727 0.061985643 -9.9751291e-21)
(-0.022713818 0.065837142 -2.5093931e-20)
(-0.024587766 0.069356782 6.0388489e-20)
(-0.026495821 0.072403818 -2.6103574e-20)
(-0.028417588 0.07483045 -2.7977958e-20)
(-0.03033172 0.076496984 2.296226e-20)
(-0.032219085 0.077296855 3.0617742e-21)
(-0.034067246 0.077190441 -1.5092867e-20)
(-0.035873591 0.076236139 8.2060874e-21)
(-0.037644302 0.074595971 -1.2336752e-20)
(-0.039387726 0.072496421 4.2285312e-20)
(-0.041104433 0.070163254 -2.1665824e-20)
(-0.042781566 0.067774229 -1.2699923e-20)
(-0.044392176 0.065449311 -2.5562523e-20)
(-0.045897245 0.063268573 -3.4736165e-21)
(-0.047248274 0.061294756 2.6411499e-20)
(-0.048388691 0.059590454 -1.0626745e-20)
(-0.049254571 0.058227769 -1.5695538e-20)
(-0.049773638 0.057289434 -2.3504091e-21)
(-0.049857307 0.05685661 1.5934426e-20)
(-0.049398614 0.056995999 1.4306634e-20)
(-0.04825351 0.057749914 -4.4388921e-20)
(-0.046221237 0.059113977 -2.4006677e-20)
(-0.042988615 0.060996639 -5.3368589e-20)
(-0.038075643 0.063180824 -1.9180614e-20)
(-0.030693547 0.065154386 -7.7056977e-21)
(-0.019423366 0.066095156 -5.9244805e-20)
(-0.0024493994 0.064539525 -2.4159161e-20)
(0.023874224 0.057198105 8.3606458e-20)
(0.066775703 0.038016376 -7.0934025e-20)
(0.14116946 -0.0057614465 6.6840194e-20)
(0.27843777 -0.087906006 -3.2751551e-20)
(0.48314945 -0.19927512 1.4249045e-19)
(0.67797016 -0.28992076 5.4776571e-20)
(0.78103583 -0.30376409 -1.1907596e-20)
(0.79706266 -0.24126725 -6.8035652e-21)
(0.76548578 -0.14006557 1.1471801e-21)
(0.72062482 -0.026773181 7.1146174e-22)
(0.73443487 0.081084936 1.4031953e-21)
(0.87163712 0.1483721 -5.2911648e-21)
(-0.00011544287 0.00035887291 9.1359979e-23)
(-0.00035813762 0.0011124497 -6.5036221e-21)
(-0.00062716279 0.001946479 7.6658385e-21)
(-0.00092537494 0.0028693703 3.6883076e-21)
(-0.0012558807 0.0038902237 -7.3856359e-21)
(-0.0016220559 0.0050188223 -2.3914818e-21)
(-0.0020275454 0.0062656078 1.1594275e-20)
(-0.002476256 0.0076416348 -1.2471331e-20)
(-0.002972347 0.0091584913 -2.6293993e-21)
(-0.0035202095 0.01082818 -1.0452539e-20)
(-0.0041244353 0.012662953 2.7733484e-20)
(-0.0047897703 0.014675076 3.3710207e-22)
(-0.0055210513 0.016876528 -2.4849297e-20)
(-0.0063231228 0.019278601 2.6634682e-20)
(-0.0072007288 0.021891385 -1.9032732e-20)
(-0.0081583777 0.024723128 -7.04277e-21)
(-0.009200176 0.027779432 1.4679489e-20)
(-0.010329627 0.031062266 -1.3210493e-20)
(-0.011549393 0.034568773 -1.7538667e-20)
(-0.012861019 0.038289851 3.711472e-22)
(-0.014264612 0.042208488 2.7467451e-20)
(-0.015758495 0.046297854 -1.6924634e-20)
(-0.017338818 0.050519186 9.3980617e-21)
(-0.018999149 0.054819532 4.5238076e-20)
(-0.020730068 0.059129486 1.5077881e-20)
(-0.02251877 0.063361178 -4.0777272e-20)
(-0.024348761 0.067406932 4.0633406e-21)
(-0.026199711 0.071139297 -4.5743935e-20)
(-0.028047686 0.074413644 2.6992311e-20)
(-0.029866073 0.077075192 -1.42411e-20)
(-0.031627735 0.078973249 2.0596162e-20)
(-0.033308781 0.079985547 5.0177909e-21)
(-0.034894283 0.080052731 -2.4977175e-20)
(-0.036381455 0.07921242 2.5489624e-20)
(-0.037779728 0.077613709 3.6975165e-20)
(-0.039104039 0.075484121 -3.4359318e-21)
(-0.040360306 0.073061993 -3.8281429e-20)
(-0.041538161 0.070543581 4.795149e-20)
(-0.042609205 0.068064195 -1.0120117e-20)
(-0.043528664 0.065713993 2.1422002e-20)
(-0.044238242 0.063561291 -3.3288037e-21)
(-0.044667025 0.06167211 3.3244914e-20)
(-0.044730912 0.06012156 1.6029748e-20)
(-0.044328574 0.058995979 2.0435878e-20)
(-0.043330158 0.05838177 -8.3970699e-20)
(-0.041569465 0.058352244 -2.8186827e-20)
(-0.038812286 0.058954022 3.8213683e-20)
(-0.034724874 0.060185175 -3.1987302e-20)
(-0.02878702 0.061952258 -2.7544673e-20)
(-0.020214165 0.064034535 3.1788751e-20)
(-0.0077442339 0.065881466 1.7034265e-20)
(0.010673147 0.06667333 4.1068046e-20)
(0.038145316 0.064892532 2.0904513e-20)
(0.080016839 0.056924869 -7.2612974e-20)