/*--------------------------------*- C++ -*----------------------------------*\
  =========                 |
  \\      /  F ield         | OpenFOAM: The Open Source CFD Toolbox
   \\    /   O peration     | Website:  https://openfoam.org
    \\  /    A nd           | Version:  13
     \\/     M anipulation  |
\*---------------------------------------------------------------------------*/
FoamFile
{
    format      ascii;
    class       volScalarField;
    location    "7.09675";
    object      pPrime2Mean;
}
// * * * * * * * * * * * * * * * * * * * * * * * * * * * * * * * * * * * * * //

dimensions      [0 4 -4 0 0 0 0];

internalField   nonuniform List<scalar> 
17140
(
43845.436
43845.438
43845.439
43845.439
43845.438
43845.434
43845.429
43845.42
43845.409
43845.393
43845.372
43845.344
43845.308
43845.262
43845.204
43845.13
43845.037
43844.919
43844.771
43844.584
43844.351
43844.057
43843.688
43843.225
43842.641
43841.905
43840.976
43839.802
43838.319
43836.451
43834.1
43831.146
43827.444
43822.818
43817.055
43809.901
43801.057
43790.168
43776.822
43760.543
43740.783
43716.921
43688.251
43653.978
43613.214
43564.973
43508.174
43441.645
43364.118
43274.229
43170.529
43051.456
42915.328
42760.344
42584.55
42385.843
42161.951
41910.409
41628.472
41313.113
40960.993
40568.516
40131.791
39646.652
39108.803
43846.533
43846.535
43846.536
43846.536
43846.535
43846.531
43846.525
43846.517
43846.505
43846.489
43846.467
43846.44
43846.404
43846.357
43846.299
43846.224
43846.131
43846.012
43845.864
43845.678
43845.444
43845.15
43844.782
43844.319
43843.736
43843.002
43842.075
43840.904
43839.425
43837.561
43835.215
43832.267
43828.571
43823.95
43818.193
43811.046
43802.207
43791.324
43777.985
43761.714
43741.965
43718.115
43689.461
43655.206
43614.463
43566.247
43509.479
43442.983
43365.492
43275.645
43171.99
43052.97
42916.905
42761.992
42586.279
42387.661
42163.866
41912.434
41630.621
41315.402
40963.44
40571.142
40134.619
39649.71
39112.09
43849.246
43849.248
43849.249
43849.249
43849.247
43849.243
43849.237
43849.229
43849.217
43849.201
43849.179
43849.151
43849.115
43849.07
43849.011
43848.937
43848.844
43848.726
43848.578
43848.393
43848.16
43847.868
43847.502
43847.041
43846.461
43845.731
43844.809
43843.644
43842.173
43840.317
43837.981
43835.043
43831.358
43826.749
43821.004
43813.869
43805.042
43794.173
43780.85
43764.598
43744.873
43721.054
43692.436
43658.226
43617.536
43569.383
43512.686
43446.271
43368.871
43279.127
43175.588
43056.699
42920.787
42766.05
42590.534
42392.135
42168.582
41917.423
41635.915
41321.041
40969.467
40577.603
40141.567
39657.212
39120.15
43853.661
43853.663
43853.664
43853.663
43853.661
43853.657
43853.651
43853.643
43853.631
43853.614
43853.593
43853.565
43853.53
43853.484
43853.426
43853.353
43853.26
43853.143
43852.997
43852.813
43852.583
43852.294
43851.931
43851.474
43850.899
43850.175
43849.261
43848.104
43846.644
43844.8
43842.477
43839.554
43835.885
43831.293
43825.565
43818.447
43809.64
43798.792
43785.494
43769.275
43749.59
43725.82
43697.261
43663.123
43622.519
43574.466
43517.886
43451.602
43374.35
43284.771
43181.42
43062.747
42927.085
42772.634
42597.44
42399.398
42176.242
41925.527
41644.519
41330.206
40979.26
40588.099
40152.854
39669.397
39133.233
43859.862
43859.864
43859.864
43859.864
43859.861
43859.857
43859.851
43859.842
43859.83
43859.814
43859.792
43859.765
43859.729
43859.684
43859.626
43859.553
43859.461
43859.346
43859.201
43859.02
43858.792
43858.506
43858.146
43857.695
43857.126
43856.409
43855.504
43854.359
43852.911
43851.083
43848.777
43845.873
43842.224
43837.653
43831.947
43824.852
43816.072
43805.255
43791.995
43775.821
43756.193
43732.492
43704.017
43669.979
43629.495
43581.582
43525.162
43459.062
43382.015
43292.669
43189.583
43071.214
42935.902
42781.852
42607.112
42409.575
42186.981
41936.894
41656.591
41343.068
40993.005
40602.834
40168.699
39686.506
39151.604
43867.918
43867.919
43867.919
43867.918
43867.916
43867.911
43867.905
43867.896
43867.883
43867.867
43867.845
43867.817
43867.782
43867.737
43867.68
43867.607
43867.517
43867.403
43867.259
43867.08
43866.855
43866.572
43866.218
43865.772
43865.21
43864.502
43863.608
43862.477
43861.046
43859.236
43856.951
43854.069
43850.445
43845.9
43840.221
43833.158
43824.412
43813.637
43800.427
43784.314
43764.76
43741.149
43712.783
43678.875
43638.544
43590.812
43534.599
43468.735
43391.955
43302.912
43200.171
43082.2
42947.345
42793.818
42619.669
42422.793
42200.935
41951.673
41672.293
41359.803
41010.893
40622.012
40189.326
39708.782
39175.534
43877.9
43877.901
43877.901
43877.9
43877.897
43877.892
43877.885
43877.876
43877.863
43877.846
43877.824
43877.796
43877.761
43877.716
43877.659
43877.588
43877.498
43877.385
43877.244
43877.067
43876.845
43876.567
43876.218
43875.779
43875.226
43874.528
43873.647
43872.533
43871.121
43869.333
43867.072
43864.217
43860.621
43856.108
43850.464
43843.439
43834.737
43824.014
43810.868
43794.831
43775.37
43751.87
43723.638
43689.89
43649.749
43602.237
43546.28
43480.708
43404.26
43315.594
43213.285
43095.807
42961.52
42808.643
42635.23
42439.18
42218.246
41970.015
41691.79
41380.589
41033.116
40645.845
40214.966
39736.478
39205.3
43889.888
43889.889
43889.888
43889.886
43889.883
43889.878
43889.87
43889.861
43889.847
43889.83
43889.809
43889.781
43889.745
43889.701
43889.644
43889.574
43889.485
43889.374
43889.235
43889.062
43888.844
43888.571
43888.228
43887.798
43887.255
43886.57
43885.704
43884.607
43883.217
43881.454
43879.22
43876.395
43872.832
43868.355
43862.751
43855.772
43847.125
43836.466
43823.395
43807.45
43788.099
43764.732
43736.66
43703.103
43663.187
43615.939
43560.287
43495.066
43419.02
43330.811
43229.024
43112.144
42978.543
42826.449
42653.923
42458.871
42239.055
41992.077
41715.25
41405.609
41059.876
40674.55
40245.855
39769.85
39241.185
43903.975
43903.975
43903.974
43903.972
43903.968
43903.962
43903.955
43903.944
43903.931
43903.914
43903.892
43903.864
43903.829
43903.784
43903.729
43903.659
43903.572
43903.463
43903.327
43903.157
43902.944
43902.677
43902.342
43901.92
43901.388
43900.717
43899.867
43898.79
43897.422
43895.685
43893.481
43890.688
43887.161
43882.723
43877.165
43870.239
43861.654
43851.069
43838.087
43822.249
43803.026
43779.813
43751.926
43718.591
43678.937
43631.995
43576.701
43511.894
43436.322
43348.657
43247.49
43131.319
42998.528
42847.357
42675.879
42482.007
42263.517
42018.022
41742.847
41435.053
41091.376
40708.35
40282.235
39809.162
39283.475
43920.261
43920.26
43920.259
43920.256
43920.252
43920.246
43920.238
43920.227
43920.214
43920.196
43920.174
43920.146
43920.111
43920.068
43920.013
43919.944
43919.859
43919.752
43919.619
43919.453
43919.245
43918.984
43918.657
43918.244
43917.724
43917.067
43916.234
43915.175
43913.83
43912.118
43909.943
43907.183
43903.693
43899.298
43893.79
43886.923
43878.408
43867.906
43855.024
43839.306
43820.228
43797.19
43769.515
43736.431
43697.075
43650.484
43595.601
43531.271
43456.252
43369.22
43268.777
43153.433
43021.584
42871.485
42701.222
42508.722
42291.774
42048.004
41774.761
41469.112
41127.827
40747.472
40324.351
39854.68
39332.458
43938.851
43938.85
43938.848
43938.845
43938.841
43938.834
43938.826
43938.815
43938.801
43938.784
43938.762
43938.734
43938.699
43938.656
43938.602
43938.535
43938.451
43938.347
43938.216
43938.054
43937.851
43937.596
43937.275
43936.872
43936.363
43935.718
43934.899
43933.858
43932.533
43930.845
43928.696
43925.968
43922.516
43918.165
43912.71
43905.906
43897.467
43887.057
43874.286
43858.701
43839.784
43816.942
43789.502
43756.7
43717.678
43671.482
43617.062
43553.277
43478.889
43392.586
43292.978
43178.589
43047.827
42898.962
42730.091
42539.162
42323.986
42082.201
41811.178
41507.985
41169.441
40792.147
40372.453
39906.673
39388.426
43959.845
43959.844
43959.842
43959.838
43959.834
43959.827
43959.819
43959.807
43959.793
43959.776
43959.754
43959.726
43959.691
43959.648
43959.595
43959.529
43959.447
43959.344
43959.216
43959.057
43958.857
43958.607
43958.293
43957.897
43957.396
43956.762
43955.956
43954.929
43953.621
43951.953
43949.83
43947.132
43943.716
43939.411
43934.011
43927.274
43918.916
43908.605
43895.953
43880.514
43861.775
43839.149
43811.969
43779.478
43740.826
43695.068
43641.168
43577.992
43504.318
43418.845
43320.196
43206.903
43077.384
42929.923
42762.635
42573.493
42360.332
42120.796
41852.281
41551.875
41216.437
40842.608
40426.793
39965.415
39451.67
43983.329
43983.328
43983.325
43983.322
43983.317
43983.31
43983.301
43983.29
43983.276
43983.258
43983.236
43983.208
43983.174
43983.132
43983.079
43983.014
43982.932
43982.831
43982.705
43982.548
43982.352
43982.106
43981.796
43981.405
43980.911
43980.284
43979.487
43978.472
43977.178
43975.528
43973.427
43970.758
43967.379
43963.119
43957.776
43951.109
43942.838
43932.632
43920.109
43904.828
43886.283
43863.892
43836.997
43804.847
43766.603
43721.331
43668.007
43605.512
43532.642
43448.109
43350.548
43238.494
43110.379
42964.5
42798.994
42611.864
42400.967
42163.962
41898.261
41600.986
41269.034
40899.091
40487.623
40031.178
39522.484
44009.381
44009.379
44009.377
44009.373
44009.368
44009.361
44009.352
44009.341
44009.327
44009.309
44009.287
44009.259
44009.225
44009.183
44009.131
44009.066
44008.986
44008.886
44008.761
44008.606
44008.412
44008.168
44007.861
44007.474
44006.984
44006.363
44005.573
44004.567
44003.285
44001.65
43999.57
43996.929
43993.587
43989.374
43984.09
43977.498
43969.317
43959.223
43946.839
43931.73
43913.395
43891.261
43864.677
43832.901
43795.105
43750.369
43697.683
43635.949
43563.98
43480.501
43384.156
43273.49
43146.945
43002.832
42839.317
42654.433
42446.063
42211.884
41949.315
41655.525
41327.452
40961.833
40555.199
40104.239
39601.159
44038.075
44038.074
44038.071
44038.068
44038.063
44038.056
44038.047
44038.036
44038.022
44038.004
44037.982
44037.955
44037.921
44037.88
44037.828
44037.764
44037.684
44037.585
44037.461
44037.307
44037.114
44036.872
44036.567
44036.183
44035.696
44035.079
44034.294
44033.295
44032.022
44030.403
44028.343
44025.73
44022.425
44018.262
44013.04
44006.525
43998.441
43988.468
43976.234
43961.31
43943.204
43921.35
43895.104
43863.737
43826.435
43782.291
43730.315
43669.429
43598.46
43516.152
43421.156
43312.029
43187.224
43045.07
42883.763
42701.372
42495.802
42264.742
42005.637
41715.7
41391.914
41031.07
40629.774
40184.87
39687.987
44069.5
44069.498
44069.496
44069.492
44069.487
44069.48
44069.472
44069.461
44069.447
44069.43
44069.408
44069.381
44069.348
44069.306
44069.255
44069.192
44069.113
44069.014
44068.892
44068.739
44068.547
44068.306
44068.003
44067.62
44067.135
44066.52
44065.739
44064.747
44063.484
44061.879
44059.84
44057.255
44053.989
44049.875
44044.718
44038.286
44030.306
44020.462
44008.389
43993.666
43975.808
43954.258
43928.383
43897.466
43860.707
43817.219
43766.031
43706.081
43636.218
43555.199
43461.688
43354.253
43231.361
43091.363
42932.491
42752.848
42550.356
42322.725
42067.424
41781.718
41462.641
41107.041
40711.602
40273.343
39783.254
44103.757
44103.756
44103.754
44103.75
44103.746
44103.739
44103.731
44103.72
44103.706
44103.689
44103.668
44103.641
44103.608
44103.568
44103.517
44103.454
44103.375
44103.277
44103.155
44103.003
44102.812
44102.571
44102.269
44101.887
44101.403
44100.791
44100.013
44099.026
44097.772
44096.18
44094.161
44091.606
44088.378
44084.316
44079.227
44072.88
44065.008
44055.303
44043.404
44028.899
44011.311
43990.093
43964.625
43934.203
43898.044
43855.282
43804.962
43746.044
43677.393
43597.784
43505.894
43400.305
43279.502
43141.867
42985.666
42809.03
42609.903
42386.014
42134.87
41853.788
41539.855
41189.982
40800.935
40369.929
39887.244
44140.962
44140.96
44140.958
44140.955
44140.951
44140.944
44140.936
44140.926
44140.912
44140.896
44140.875
44140.848
44140.816
44140.775
44140.725
44140.662
44140.583
44140.486
44140.364
44140.211
44140.02
44139.78
44139.477
44139.095
44138.612
44138.001
44137.226
44136.244
44134.997
44133.417
44131.417
44128.887
44125.697
44121.687
44116.666
44110.409
44102.654
44093.097
44081.387
44067.119
44049.825
44028.97
44003.947
43974.069
43938.572
43896.607
43847.241
43789.451
43722.122
43644.044
43553.913
43450.328
43331.796
43196.738
43043.452
42870.088
42674.617
42454.795
42208.169
41932.114
41623.775
41280.125
40898.023
40474.89
40000.233
44181.228
44181.227
44181.225
44181.222
44181.218
44181.212
44181.204
44181.193
44181.18
44181.163
44181.143
44181.116
44181.084
44181.043
44180.992
44180.929
44180.85
44180.752
44180.629
44180.476
44180.283
44180.042
44179.739
44179.356
44178.873
44178.263
44177.49
44176.511
44175.272
44173.703
44171.719
44169.215
44166.06
44162.1
44157.148
44150.984
44143.352
44133.955
44122.449
44108.437
44091.463
44071.005
44046.47
44017.19
43982.418
43941.326
43893.001
43836.438
43770.542
43694.119
43605.885
43504.463
43388.394
43256.135
43106.005
42936.191
42744.67
42529.248
42287.514
42016.901
41714.616
41377.702
41003.109
40588.488
40122.494
44224.646
44224.645
44224.643
44224.64
44224.636
44224.63
44224.623
44224.612
44224.599
44224.583
44224.562
44224.535
44224.503
44224.462
44224.41
44224.347
44224.267
44224.168
44224.044
44223.89
44223.696
44223.453
44223.149
44222.766
44222.283
44221.673
44220.903
44219.93
44218.698
44217.142
44215.176
44212.698
44209.58
44205.671
44200.79
44194.723
44187.221
44177.993
44166.706
44152.971
44136.344
44116.318
44092.316
44063.688
44029.709
43989.569
43942.373
43887.137
43822.782
43748.137
43661.94
43562.847
43449.441
43320.205
43173.489
43007.491
42820.232
42609.552
42373.093
42108.351
41812.593
41482.936
41116.433
40710.974
40254.29
44271.283
44271.282
44271.281
44271.278
44271.274
44271.268
44271.261
44271.251
44271.238
44271.221
44271.2
44271.174
44271.141
44271.099
44271.048
44270.984
44270.904
44270.804
44270.679
44270.524
44270.33
44270.087
44269.782
44269.399
44268.918
44268.312
44267.547
44266.582
44265.363
44263.823
44261.881
44259.434
44256.359
44252.508
44247.705
44241.742
44234.378
44225.332
44214.278
44200.841
44184.59
44165.033
44141.61
44113.694
44080.575
44041.464
43995.485
43941.67
43878.963
43806.216
43722.2
43625.614
43515.076
43389.094
43246.047
43084.149
42901.465
42695.881
42465.094
42206.66
41917.915
41596.049
41238.226
40842.596
40395.874
44321.177
44321.176
44321.175
44321.172
44321.169
44321.163
44321.156
44321.146
44321.133
44321.117
44321.096
44321.07
44321.037
44320.996
44320.945
44320.881
44320.802
44320.703
44320.579
44320.425
44320.232
44319.991
44319.69
44319.311
44318.836
44318.238
44317.484
44316.533
44315.333
44313.818
44311.908
44309.504
44306.484
44302.704
44297.992
44292.149
44284.939
44276.091
44265.29
44252.175
44236.33
44217.279
44194.485
44167.337
44135.145
44097.137
44052.456
44000.155
43939.198
43868.473
43786.792
43692.9
43585.437
43462.949
43323.822
43166.317
42988.532
42788.409
42563.698
42312.024
42030.785
41717.256
41368.713
40983.589
40547.488
44374.356
44374.356
44374.355
44374.353
44374.349
44374.344
44374.337
44374.327
44374.315
44374.3
44374.28
44374.255
44374.223
44374.184
44374.135
44374.073
44373.995
44373.899
44373.779
44373.629
44373.442
44373.208
44372.914
44372.545
44372.081
44371.498
44370.762
44369.834
44368.662
44367.183
44365.318
44362.969
44360.02
44356.33
44351.733
44346.032
44339.001
44330.377
44319.858
44307.095
44291.69
44273.189
44251.071
44224.744
44193.539
44156.703
44113.395
44062.691
44003.59
43935.022
43855.844
43764.836
43660.662
43541.896
43406.954
43254.138
43081.589
42887.3
42669.084
42424.629
42151.404
41846.764
41508.112
41134.184
40709.358
44430.862
44430.862
44430.861
44430.859
44430.856
44430.852
44430.845
44430.836
44430.825
44430.811
44430.792
44430.769
44430.74
44430.703
44430.657
44430.599
44430.527
44430.436
44430.323
44430.181
44430.003
44429.78
44429.499
44429.146
44428.701
44428.139
44427.43
44426.533
44425.4
44423.968
44422.161
44419.885
44417.026
44413.447
44408.987
44403.457
44396.637
44388.272
44378.07
44365.7
44350.779
44332.87
44311.474
44286.021
44255.859
44220.251
44178.382
44129.363
44072.237
44005.973
43929.474
43841.532
43740.866
43626.056
43495.571
43347.752
43180.785
42992.717
42781.422
42544.658
42279.964
41984.775
41656.631
41294.6
40881.702
44490.765
44490.765
44490.764
44490.763
44490.76
44490.756
44490.75
44490.743
44490.733
44490.72
44490.704
44490.683
44490.656
44490.623
44490.581
44490.529
44490.463
44490.38
44490.275
44490.144
44489.979
44489.771
44489.508
44489.176
44488.755
44488.223
44487.547
44486.69
44485.604
44484.229
44482.492
44480.301
44477.547
44474.099
44469.802
44464.471
44457.895
44449.827
44439.986
44428.052
44413.657
44396.388
44375.762
44351.227
44322.153
44287.833
44247.487
44200.261
44145.239
44081.434
44007.774
43923.099
43826.148
43715.545
43589.798
43447.293
43286.263
43104.814
42900.878
42672.287
42416.651
42131.484
41814.466
41465.051
41064.723
44554.165
44554.165
44554.165
44554.164
44554.161
44554.158
44554.153
44554.147
44554.138
44554.127
44554.113
44554.095
44554.071
44554.042
44554.005
44553.958
44553.899
44553.824
44553.73
44553.61
44553.459
44553.267
44553.024
44552.714
44552.321
44551.819
44551.18
44550.367
44549.334
44548.024
44546.365
44544.271
44541.638
44538.34
44534.225
44529.12
44522.817
44515.08
44505.637
44494.179
44480.358
44463.77
44443.956
44420.388
44392.467
44359.516
44320.783
44275.467
44222.682
44161.487
44090.838
44009.623
43916.609
43810.467
43689.748
43552.883
43398.159
43223.737
43027.611
42807.686
42561.644
42287.077
41981.809
41645.737
41258.622
44621.173
44621.173
44621.173
44621.172
44621.17
44621.167
44621.163
44621.157
44621.15
44621.14
44621.127
44621.111
44621.091
44621.064
44621.031
44620.989
44620.935
44620.868
44620.782
44620.673
44620.534
44620.357
44620.132
44619.844
44619.475
44619.004
44618.403
44617.635
44616.658
44615.416
44613.843
44611.855
44609.353
44606.218
44602.305
44597.444
44591.439
44584.06
44575.045
44564.099
44550.887
44535.026
44516.08
44493.545
44466.849
44435.345
44398.335
44355.048
44304.636
44246.197
44178.744
44101.183
44012.336
43910.919
43795.526
43664.641
43516.601
43349.627
43161.774
42951.017
42715.116
42451.734
42158.841
41836.853
41463.599
44691.872
44691.872
44691.872
44691.871
44691.869
44691.867
44691.863
44691.858
44691.851
44691.842
44691.83
44691.815
44691.796
44691.771
44691.74
44691.701
44691.651
44691.588
44691.508
44691.406
44691.276
44691.111
44690.899
44690.629
44690.282
44689.839
44689.272
44688.549
44687.627
44686.455
44684.97
44683.095
44680.733
44677.77
44674.07
44669.469
44663.778
44656.778
44648.218
44637.818
44625.257
44610.173
44592.15
44570.715
44545.323
44515.367
44480.19
44439.047
44391.148
44335.632
44271.545
44197.848
44113.407
44016.986
43907.229
43782.673
43641.708
43482.615
43303.511
43102.441
42877.234
42625.629
42345.743
42038.578
41679.867
44766.291
44766.292
44766.291
44766.29
44766.289
44766.286
44766.282
44766.277
44766.27
44766.261
44766.249
44766.234
44766.215
44766.191
44766.161
44766.123
44766.074
44766.013
44765.936
44765.838
44765.713
44765.555
44765.353
44765.096
44764.768
44764.348
44763.813
44763.131
44762.264
44761.164
44759.77
44758.01
44755.793
44753.011
44749.533
44745.204
44739.842
44733.24
44725.162
44715.339
44703.47
44689.215
44672.181
44651.919
44627.917
44599.609
44566.369
44527.5
44482.26
44429.827
44369.295
44299.675
44219.884
44128.74
44024.94
43907.073
43773.587
43622.826
43452.963
43262.109
43048.166
42808.938
42542.697
42251.1
41907.653
44844.407
44844.407
44844.407
44844.406
44844.404
44844.401
44844.397
44844.392
44844.384
44844.375
44844.363
44844.348
44844.329
44844.305
44844.275
44844.237
44844.189
44844.128
44844.052
44843.956
44843.835
44843.682
44843.488
44843.242
44842.929
44842.532
44842.028
44841.387
44840.575
44839.547
44838.248
44836.608
44834.542
44831.948
44828.701
44824.655
44819.637
44813.453
44805.88
44796.667
44785.535
44772.16
44756.178
44737.163
44714.64
44688.081
44656.89
44620.429
44577.993
44528.809
44472.025
44406.705
44331.819
44246.242
44148.728
44037.923
43912.336
43770.372
43610.26
43430.174
43228.078
43001.841
42749.906
42474.653
42147.189
44926.167
44926.167
44926.167
44926.166
44926.164
44926.161
44926.156
44926.151
44926.144
44926.134
44926.122
44926.107
44926.088
44926.064
44926.034
44925.996
44925.949
44925.89
44925.816
44925.723
44925.606
44925.459
44925.274
44925.04
44924.745
44924.372
44923.901
44923.305
44922.552
44921.601
44920.401
44918.887
44916.98
44914.582
44911.575
44907.823
44903.164
44897.415
44890.372
44881.803
44871.448
44859.007
44844.139
44826.449
44805.494
44780.779
44751.757
44717.834
44678.351
44632.591
44579.755
44518.963
44449.244
44369.533
44278.646
44175.291
44058.039
43925.356
43775.529
43606.785
43417.145
43204.531
42967.586
42709.52
42398.745
45011.52
45011.52
45011.519
45011.518
45011.516
45011.513
45011.509
45011.503
45011.496
45011.487
45011.476
45011.461
45011.443
45011.42
45011.391
45011.355
45011.311
45011.254
45011.184
45011.097
45010.987
45010.849
45010.677
45010.46
45010.187
45009.844
45009.411
45008.866
45008.179
45007.313
45006.22
45004.839
45003.097
45000.902
44998.145
44994.696
44990.408
44985.113
44978.624
44970.732
44961.197
44949.742
44936.051
44919.758
44900.456
44877.687
44850.951
44819.698
44783.324
44741.166
44692.483
44636.455
44572.174
44498.637
44414.729
44319.226
44210.761
44087.867
43948.885
43792.096
43615.56
43417.226
43195.908
42955.742
42662.973
45100.415
45100.415
45100.414
45100.413
45100.411
45100.409
45100.405
45100.4
45100.394
45100.386
45100.375
45100.362
45100.346
45100.325
45100.299
45100.267
45100.227
45100.177
45100.114
45100.035
45099.937
45099.814
45099.66
45099.466
45099.223
45098.916
45098.53
45098.044
45097.431
45096.656
45095.676
45094.436
45092.865
45090.879
45088.376
45085.239
45081.335
45076.513
45070.607
45063.426
45054.752
45044.334
45031.879
45017.056
44999.491
44978.769
44954.434
44925.987
44892.88
44854.507
44810.187
44759.166
44700.599
44633.554
44556.989
44469.754
44370.552
44257.979
44130.437
43986.259
43823.538
43640.164
43434.964
43213.952
42940.055
45192.826
45192.826
45192.825
45192.824
45192.823
45192.82
45192.817
45192.813
45192.808
45192.801
45192.792
45192.781
45192.768
45192.751
45192.729
45192.702
45192.669
45192.627
45192.574
45192.508
45192.425
45192.321
45192.19
45192.025
45191.816
45191.553
45191.22
45190.799
45190.264
45189.587
45188.725
45187.627
45186.23
45184.455
45182.212
45179.396
45175.891
45171.564
45166.268
45159.832
45152.062
45142.728
45131.569
45118.286
45102.542
45083.964
45062.147
45036.645
45006.966
44972.564
44932.822
44887.054
44834.486
44774.26
44705.413
44626.878
44537.436
44435.752
44320.288
44189.431
44041.265
43873.483
43685.176
43484.433
43230.291
45288.716
45288.715
45288.715
45288.714
45288.712
45288.711
45288.708
45288.705
45288.701
45288.696
45288.689
45288.681
45288.671
45288.658
45288.642
45288.622
45288.597
45288.565
45288.525
45288.474
45288.41
45288.328
45288.224
45288.091
45287.922
45287.705
45287.428
45287.074
45286.621
45286.04
45285.295
45284.338
45283.113
45281.55
45279.572
45277.089
45273.999
45270.19
45265.533
45259.878
45253.05
45244.849
45235.043
45223.368
45209.526
45193.191
45174.009
45151.591
45125.504
45095.262
45060.316
45020.051
44973.77
44920.699
44859.959
44790.575
44711.415
44621.225
44518.529
44401.747
44268.918
44117.737
43946.827
43767.477
43534.591
45388.053
45388.052
45388.052
45388.051
45388.05
45388.048
45388.047
45388.044
45388.042
45388.038
45388.034
45388.029
45388.022
45388.014
45388.003
45387.99
45387.973
45387.952
45387.924
45387.889
45387.843
45387.784
45387.706
45387.605
45387.474
45387.302
45387.079
45386.789
45386.412
45385.922
45385.288
45384.468
45383.413
45382.065
45380.359
45378.221
45375.566
45372.298
45368.307
45363.464
45357.616
45350.595
45342.197
45332.195
45320.334
45306.341
45289.914
45270.721
45248.39
45222.498
45192.567
45158.057
45118.358
45072.784
45020.551
44960.786
44892.458
44814.402
44725.205
44623.311
44506.883
44373.246
44220.539
44063.601
43853.892
45490.764
45490.764
45490.763
45490.762
45490.761
45490.76
45490.759
45490.758
45490.756
45490.754
45490.752
45490.749
45490.745
45490.74
45490.734
45490.727
45490.718
45490.705
45490.689
45490.667
45490.637
45490.597
45490.543
45490.47
45490.371
45490.238
45490.061
45489.826
45489.516
45489.11
45488.58
45487.893
45487.008
45485.879
45484.453
45482.673
45480.469
45477.763
45474.462
45470.459
45465.631
45459.832
45452.894
45444.629
45434.832
45423.28
45409.728
45393.901
45375.489
45354.137
45329.44
45300.941
45268.12
45230.391
45187.077
45137.412
45080.48
45015.206
44940.318
44854.33
44755.37
44640.611
44507.465
44373.854
44188.941
45596.741
45596.74
45596.739
45596.739
45596.738
45596.737
45596.736
45596.735
45596.734
45596.732
45596.731
45596.729
45596.727
45596.724
45596.721
45596.717
45596.712
45596.705
45596.695
45596.681
45596.661
45596.634
45596.594
45596.539
45596.463
45596.358
45596.217
45596.027
45595.774
45595.443
45595.011
45594.452
45593.736
45592.829
45591.692
45590.28
45588.542
45586.415
45583.826
45580.693
45576.916
45572.38
45566.955
45560.494
45552.844
45543.836
45533.28
45520.96
45506.629
45490.003
45470.759
45448.527
45422.883
45393.35
45359.365
45320.269
45275.31
45223.56
45163.863
45094.837
45014.711
44920.546
44809.244
44699.867
44539.731
45705.781
45705.78
45705.78
45705.779
45705.778
45705.776
45705.775
45705.774
45705.773
45705.771
45705.77
45705.768
45705.767
45705.764
45705.762
45705.758
45705.754
45705.748
45705.74
45705.73
45705.714
45705.692
45705.66
45705.615
45705.553
45705.467
45705.351
45705.197
45704.995
45704.732
45704.395
45703.966
45703.423
45702.745
45701.903
45700.871
45699.611
45698.078
45696.222
45693.983
45691.288
45688.055
45684.194
45679.606
45674.187
45667.823
45660.38
45651.701
45641.608
45629.892
45616.31
45600.584
45582.41
45561.422
45537.184
45509.181
45476.793
45439.274
45395.699
45344.891
45285.232
45213.858
45127.636
45042.04
44908.566
45817.653
45817.652
45817.651
45817.649
45817.648
45817.647
45817.645
45817.643
45817.641
45817.639
45817.636
45817.634
45817.631
45817.627
45817.624
45817.619
45817.613
45817.606
45817.597
45817.585
45817.568
45817.546
45817.515
45817.473
45817.416
45817.341
45817.243
45817.118
45816.959
45816.761
45816.516
45816.218
45815.854
45815.408
45814.869
45814.223
45813.449
45812.526
45811.423
45810.103
45808.523
45806.635
45804.393
45801.745
45798.639
45795.015
45790.797
45785.89
45780.188
45773.562
45765.857
45756.901
45746.496
45734.409
45720.339
45703.92
45684.723
45662.188
45635.631
45604.237
45566.724
45520.854
45463.956
45405.782
45305.354
45937.106
45937.105
45937.103
45937.102
45937.1
45937.097
45937.095
45937.092
45937.089
45937.085
45937.081
45937.077
45937.071
45937.065
45937.058
45937.049
45937.039
45937.027
45937.012
45936.993
45936.97
45936.941
45936.904
45936.858
45936.8
45936.729
45936.644
45936.543
45936.424
45936.289
45936.138
45935.972
45935.79
45935.594
45935.384
45935.162
45934.925
45934.67
45934.389
45934.072
45933.711
45933.296
45932.828
45932.305
45931.724
45931.085
45930.371
45929.559
45928.616
45927.504
45926.172
45924.562
45922.6
45920.193
45917.193
45913.419
45908.619
45902.502
45894.649
45884.643
45871.76
45854.783
45833.646
45814.397
45777.467
46062.731
46062.729
46062.727
46062.725
46062.722
46062.72
46062.717
46062.713
46062.709
46062.704
46062.698
46062.692
46062.685
46062.676
46062.665
46062.653
46062.639
46062.621
46062.6
46062.575
46062.545
46062.508
46062.465
46062.415
46062.357
46062.292
46062.222
46062.15
46062.08
46062.021
46061.979
46061.964
46061.989
46062.066
46062.212
46062.446
46062.789
46063.253
46063.85
46064.605
46065.546
46066.706
46068.133
46069.879
46071.996
46074.541
46077.562
46081.11
46085.239
46090.008
46095.479
46101.717
46108.78
46116.72
46125.565
46135.331
46145.987
46157.515
46169.82
46182.912
46196.695
46211.071
46227.312
46248.36
46264.129
46188.064
46188.062
46188.06
46188.058
46188.055
46188.052
46188.049
46188.045
46188.041
46188.036
46188.03
46188.024
46188.016
46188.007
46187.997
46187.985
46187.97
46187.953
46187.932
46187.908
46187.879
46187.845
46187.807
46187.764
46187.718
46187.671
46187.629
46187.599
46187.59
46187.615
46187.69
46187.83
46188.059
46188.403
46188.892
46189.561
46190.449
46191.599
46193.054
46194.868
46197.103
46199.837
46203.163
46207.18
46211.997
46217.727
46224.488
46232.405
46241.623
46252.302
46264.616
46278.756
46294.913
46313.29
46334.086
46357.523
46383.805
46413.188
46445.919
46482.399
46523.018
46568.494
46620.33
46680.326
46747.286
46312.566
46312.564
46312.562
46312.56
46312.558
46312.555
46312.552
46312.549
46312.545
46312.541
46312.536
46312.531
46312.525
46312.518
46312.51
46312.5
46312.488
46312.475
46312.459
46312.44
46312.419
46312.394
46312.367
46312.338
46312.312
46312.292
46312.286
46312.304
46312.359
46312.47
46312.659
46312.952
46313.384
46313.991
46314.816
46315.914
46317.346
46319.176
46321.477
46324.338
46327.857
46332.155
46337.369
46343.647
46351.149
46360.048
46370.53
46382.802
46397.097
46413.678
46432.833
46454.876
46480.134
46508.96
46541.728
46578.863
46620.806
46668.082
46721.258
46781.092
46848.4
46924.451
47011.03
47110.412
47225.617
46435.652
46435.65
46435.648
46435.646
46435.644
46435.642
46435.639
46435.637
46435.635
46435.632
46435.629
46435.626
46435.623
46435.619
46435.615
46435.611
46435.605
46435.599
46435.592
46435.584
46435.576
46435.566
46435.558
46435.553
46435.555
46435.57
46435.609
46435.684
46435.815
46436.023
46436.339
46436.797
46437.439
46438.313
46439.479
46441.009
46442.983
46445.49
46448.633
46452.532
46457.327
46463.177
46470.264
46478.782
46488.944
46500.982
46515.153
46531.746
46551.087
46573.538
46599.497
46629.398
46663.708
46702.932
46747.62
46798.392
46855.923
46920.993
46994.473
47077.46
47171.189
47277.388
47398.274
47536.812
47697.221
46556.852
46556.851
46556.849
46556.848
46556.846
46556.845
46556.844
46556.842
46556.842
46556.841
46556.841
46556.841
46556.841
46556.842
46556.843
46556.845
46556.847
46556.85
46556.854
46556.859
46556.865
46556.875
46556.889
46556.911
46556.947
46557.005
46557.097
46557.24
46557.457
46557.775
46558.23
46558.864
46559.725
46560.875
46562.388
46564.352
46566.867
46570.048
46574.027