/*--------------------------------*- C++ -*----------------------------------*\
  =========                 |
  \\      /  F ield         | OpenFOAM: The Open Source CFD Toolbox
   \\    /   O peration     | Website:  https://openfoam.org
    \\  /    A nd           | Version:  13
     \\/     M anipulation  |
\*---------------------------------------------------------------------------*/
FoamFile
{
    format      ascii;
    class       volScalarField;
    location    "48.496311";
    object      omega;
}
// * * * * * * * * * * * * * * * * * * * * * * * * * * * * * * * * * * * * * //

dimensions      [0 0 -1 0 0 0 0];

internalField   nonuniform List<scalar> 
17140
(
4528389.9
731657.66
224626.36
95289.479
48487.712
27617.623
16960.86
10985.493
7400.0075
5136.0607
3649.059
2641.3917
1941.1288
1444.3487
1085.8398
823.37623
628.87814
483.24261
373.21637
289.44671
225.23494
175.72059
137.33667
107.43925
84.051549
65.684772
51.211087
39.772878
30.717424
23.549475
17.896033
13.477687
10.081641
7.5344884
5.6790087
4.3642937
3.4515451
2.8251646
2.3981453
2.1098475
1.9199248
1.8040362
1.746627
1.7291992
1.7453207
1.7937818
1.8708
1.9738638
2.1014438
2.2525937
2.4252983
2.61361
2.813193
3.0270655
3.2521016
3.466602
3.6308272
3.7170906
3.7573057
3.8423239
3.8647504
3.5129823
2.7588328
2.8232648
2.8656998
4528420.9
731663.27
224628.42
95290.54
48488.349
27618.045
16961.159
10985.716
7400.1794
5136.1975
3649.1705
2641.4845
1941.2076
1444.4168
1085.8998
823.43004
628.92722
483.2881
373.25908
289.48718
225.27345
175.75714
137.371
107.4708
84.079539
65.708226
51.228958
39.784226
30.72167
23.546737
17.887165
13.464205
10.065629
7.5181528
5.6641065
4.3518037
3.441709
2.8177966
2.3929867
2.1067244
1.9186786
1.8047665
1.7495268
1.7334352
1.7513425
1.8017269
1.8809219
1.986613
2.1176165
2.2735541
2.4530217
2.6509144
2.8657939
3.1044822
3.3657951
3.6258164
3.8232699
3.9204345
3.9411855
3.9352017
3.8491141
3.4203463
2.9050294
2.9165321
2.8959986
4528451.2
731668.24
224629.96
95291.197
48488.689
27618.242
16961.284
10985.802
7400.2422
5136.2469
3649.212
2641.5217
1941.2429
1444.4518
1085.9357
823.46781
628.96745
483.33121
373.30531
289.53654
225.32573
175.81189
137.42748
107.52802
84.136236
65.762896
51.279958
39.829895
30.760511
23.577607
17.90959
13.478611
10.073282
7.5208668
5.6637898
4.3500016
3.4394308
2.8156886
2.3914702
2.1060525
1.9190509
1.8065447
1.7530336
1.7380969
1.7577138
1.8100764
1.8916643
2.0004201
2.1356138
2.2975819
2.485572
2.6954938
2.9298949
3.2010204
3.5118971
3.8373208
4.0773988
4.1905497
4.1918916
4.1492455
3.8858951
3.411696
3.0345692
2.9726428
2.9515552
4528483
731673.42
224631.57
95291.885
48489.043
27618.449
16961.418
10985.895
7400.3126
5136.3041
3649.262
2641.5683
1941.2885
1444.4984
1085.9846
823.52002
629.02378
483.39223
373.37136
289.60777
225.40201
175.89282
137.51237
107.61581
84.225535
65.851994
51.366869
39.912463
30.836553
23.645116
17.966973
13.524944
10.108518
7.5459265
5.6804049
4.3603214
3.4455497
2.8193054
2.3938261
2.1080078
1.9212068
1.8094601
1.7572032
1.7432698
1.764572
1.8190391
1.9033335
2.0157207
2.1560336
2.3254391
2.5237524
2.7482322
3.0070281
3.320062
3.6978875
4.1156116
4.415963
4.5557638
4.5129113
4.4143949
4.0533362
3.4813804
3.1260818
3.0203968
3.03733
4528516.9
731678.92
224633.27
95292.605
48489.413
27618.668
16961.561
10985.997
7400.3919
5136.3707
3649.3221
2641.6259
1941.3465
1444.5587
1086.0487
823.58911
629.09872
483.4737
373.4598
289.70339
225.50476
176.00235
137.62795
107.73638
84.349586
65.977628
51.491794
40.03406
30.951976
23.751441
18.061418
13.605195
10.173177
7.594987
5.7154358
4.3840595
3.4610836
2.8293812
2.4005629
2.1129295
1.9254005
1.8137781
1.7621634
1.7491589
1.7721901
1.8289784
1.9164167
2.033167
2.1797407
2.3581998
2.5687176
2.8106491
3.1000045
3.4674384
3.9359247
4.4830711
4.8799369
5.056404
4.9227178
4.7323618
4.3217065
3.6756821
3.240607
3.1194016
3.1836511
4528552.1
731684.59
224635.01
95293.351
48489.801
27618.898
16961.713
10986.108
7400.48
5136.4466
3649.3924
2641.6948
1941.417
1444.6328
1086.1282
823.67522
629.19246
483.57584
373.57091
289.82375
225.6344
176.14094
137.77483
107.89042
84.509225
66.140792
51.65591
40.196064
31.108363
23.898358
18.19486
13.721395
10.269288
7.6699512
5.7705255
4.4225212
3.4870151
2.846636
2.4122119
2.1212213
1.9319507
1.8197683
1.7682609
1.7560908
1.7809639
1.8404033
1.9315835
2.0536507
2.2079238
2.3973406
2.6221413
2.8852741
3.213567
3.6532428
4.2500044
4.9947189
5.5327785
5.7355447
5.4519696
5.129388
4.6447896
3.9832079
3.430414
3.3465542
3.4032382
4528588.7
731690.45
224636.8
95294.121
48490.205
27619.14
16961.874
10986.227
7400.5766
5136.5316
3649.4725
2641.7746
1941.4995
1444.7204
1086.2225
823.77775
629.30435
483.69798
373.70396
289.96812
225.79019
176.30794
137.95239
108.07746
84.704138
66.341386
51.859378
40.398946
31.306531
24.08705
18.368841
13.875395
10.398894
7.7728733
5.847547
4.4772686
3.5245651
2.8719926
2.4294686
2.1334197
1.9412825
1.8277735
1.7759129
1.7645183
1.7914438
1.8540141
1.9497527
2.0784063
2.2422579
2.444942
2.6865643
2.9762354
3.3551565
3.8924987
4.6710772
5.6947835
6.4474095
6.5830223
6.119188
5.6293061
5.0152068
4.3554452
3.8130115
3.7199896
3.6596462
4528626.6
731696.51
224638.65
95294.921
48490.626
27619.393
16962.045
10986.355
7400.6814
5136.6251
3649.562
2641.8645
1941.5931
1444.8202
1086.3305
823.89544
629.433
483.83861
373.85735
290.13481
225.97041
176.50157
138.15891
108.29585
84.932809
66.578114
52.101203
40.64209
31.546323
24.317888
18.584299
14.06868
10.563921
7.9059047
5.9486105
4.5501549
3.5752355
2.9066164
2.4532323
2.1502368
1.9539898
1.8383162
1.7856102
1.7750536
1.8043852
1.8707724
1.9721956
2.1091744
2.2851489
2.5039754
2.765955
3.0901102
3.5362921
4.2069246
5.2363296
6.572044
7.2633676
7.0024124
6.5205041
6.0783323
5.4409162
4.7361491
4.2368509
4.1082833
3.8694984
4528664.7
731702.76
224640.58
95295.751
48491.06
27619.656
16962.224
10986.49
7400.7936
5136.7263
3649.6594
2641.9632
1941.6964
1444.9308
1086.4504
824.02629
629.57621
483.99534
374.02852
290.32109
226.17219
176.71888
138.39138
108.5426
85.192376
66.848316
52.379034
40.923578
31.826377
24.590186
18.841321
14.30215
10.766004
8.0711853
6.0760203
4.6433293
3.6408395
2.9519553
2.4846463
2.1726035
1.9708883
1.8521476
1.7978607
1.7885399
1.8208302
1.8920108
2.0006975
2.1484554
2.340095
2.5787312
2.8665789
3.2373326
3.7746302
4.6279855
5.9792294
7.4381994
7.5170377
7.0341807
6.4874833
6.2182295
5.7167486
5.0997015
4.6198113
4.4348552
3.9530843
4528704.9
731709.27
224642.59
95296.614
48491.512
27619.93
16962.412
10986.632
7400.9122
5136.8338
3649.7635
2642.0689
1941.8075
1445.0499
1086.5797
824.16755
629.73096
484.16487
374.21389
290.52314
226.39147
176.95565
138.64545
108.81333
85.478484
67.147797
52.688971
41.239956
32.143862
24.901917
19.138853
14.575836
11.006236
8.2706582
6.232171
4.7592057
3.7235172
3.0097763
2.5251404
2.2017097
1.9930601
1.8705575
1.814234
1.8062577
1.8422376
1.9196073
2.0378166
2.1999146
2.4121819
2.6754943
2.998456
3.4345455
4.0976409
5.2077963
6.9135852
7.8134413
7.5422251
6.3175038
5.1805859
5.4831834
5.6357168
5.2938714
4.9095987
4.6118503
3.6647433
4528746.8
731716.01
224644.67
95297.509
48491.982
27620.215
16962.606
10986.78
7401.0359
5136.9461
3649.8723
2642.1796
1941.9238
1445.1746
1086.7152
824.31568
629.89336
484.34294
374.40885
290.73599
226.62298
177.20629
138.91534
109.10208
85.785144
67.47065
53.02535
41.585992
32.494194
25.249391
19.474345
14.888529
11.284826
8.5057861
6.4193591
4.9003754
3.8257233
3.0821936
2.5764726
2.2390295
2.0217556
1.8944766
1.8363967
1.8298719
1.870652
1.9562702
2.0873132
2.2690004
2.5086339
2.8037001
3.1780164
3.7093201
4.5547105
6.0474021
7.8935309
7.9608868
7.2122949
4.9322422
3.1511101
3.1699088
4.3098503
4.8150712
4.6872081
4.2616073
2.6687084
4528789.6
731722.96
224646.82
95298.434
48492.469
27620.51
16962.807
10986.932
7401.1628
5137.061
3649.9835
2642.2925
1942.0423
1445.3017
1086.8531
824.4665
630.05876
484.52446
374.60785
290.95365
226.86029
177.46398
139.19384
109.40139
86.104705
67.809176
53.380591
41.954441
32.870725
25.626862
19.843299
15.237294
11.600604
8.7771222
6.6394708
5.0694289
3.9501626
3.1716806
2.6407915
2.2864498
2.0587475
1.9257388
1.8657349
1.8616267
1.9090192
2.006028
2.1548942
2.3640206
2.6392978
2.9790532
3.4337298
4.1120179
5.2537355
7.2698145
8.4477779
8.00007
6.2673197
3.6671127
2.2094096
1.6715341
1.8784504
2.7904139
3.0507635
2.4766841
1.046224
4528834.7
731730.24
224649.06
95299.396
48492.973
27620.814
16963.014
10987.088
7401.2914
5137.1766
3650.0945
2642.4046
1942.1595
1445.427
1086.989
824.61498
630.22164
484.70336
374.80425
291.16891
227.09564
177.72044
139.47219
109.70207
86.427664
68.153686
53.744992
42.335809
33.264446
26.026145
20.238757
15.616887
11.950451
9.083773
6.8935275
5.2686474
4.0996354
3.281031
2.7206691
2.3463354
2.106343
1.9667765
1.9049156
1.9048898
1.9617415
2.0751503
2.2497179
2.4981985
2.8204368
3.2317801
3.8197002
4.7465883
6.433747
8.6373959
8.6756527
7.7339004
4.7892615
2.649806
1.6566016
1.1010463
0.95825781
1.0812862
1.1026151
0.85928603
0.43318145
4528880.1
731737.66
224651.36
95300.386
48493.493
27621.127
16963.224
10987.244
7401.4195
5137.2903
3650.2026
2642.5128
1942.272
1445.5468
1087.1185
824.75623
630.37654
484.87359
374.99142
291.37453
227.32114
177.96715
139.74127
109.99443
86.74384
68.493624
54.107796
42.719371
33.664973
26.437591
20.652241
16.020383
12.329377
9.423059
7.1811994
5.4995634
4.2767512
3.4132353
2.8190956
2.4215959
2.1674718
2.0207812
1.9580851
1.964936
2.035546
2.173845
2.3872517
2.6944837
3.0913222
3.6302682
4.440277
5.8599893
8.3118486
9.3373347
8.7496331
6.5676162
3.4143627
1.882317
1.1739021
0.81952607
0.61578817
0.54830837
0.4877836
0.3779543
0.24446492
4528926.9
731745.32
224653.73
95301.412
48494.029
27621.447
16963.437
10987.401
7401.5449
5137.3996
3650.3048
2642.6138
1942.3758
1445.6565
1087.2366
824.88477
630.51735
485.0284
375.16188
291.56228
227.52779
178.19431
139.99048
110.2671
87.041122
68.816228
54.455721
43.091518
34.058639
26.847835
21.071202
16.436792
12.728719
9.7891859
7.4997485
5.7621478
4.4833903
3.5712041
2.9394175
2.5157809
2.2458856
2.0923833
2.0315775
2.0494099
2.1420649
2.3197287
2.5953986
3.0010766
3.5281963
4.2810536
5.5399175
7.9382649
9.8577541
9.564061
8.225314
4.5583858
2.3089107
1.2891714
0.82088957
0.60751714
0.46903307
0.37911738
0.30185565
0.24381699
0.18668696
4528977.9
731753.52
224656.23
95302.477
48494.58
27621.773
16963.652
10987.555
7401.6659
5137.5023
3650.3983
2642.7041
1942.4671
1445.7518
1087.3382
824.99482
630.63761
485.16057
375.30765
291.72335
227.70593
178.39136
140.20833
110.50764
87.306127
69.10722
54.773678
43.436506
34.42929
27.240676
21.47989
16.851434
13.13569
10.172227
7.8428396
6.053736
4.7198895
3.7572957
3.0852211
2.6333681
2.3471528
2.1886644
2.1348274
2.1710817
2.3014047
2.5445917
2.9316721
3.4990658
4.2450232
5.4351514
7.6970019
10.287376
10.382676
9.3928333
6.1190572
2.9843574
1.5472893
0.93080506
0.62649758
0.46959811
0.37708664
0.30728342
0.23993156
0.20068517
0.16274726
4529031.7
731762.03
224658.82
95303.582
48495.15
27622.107
16963.867
10987.706
7401.7801
5137.5957
3650.4803
2642.7806
1942.5422
1445.8285
1087.4188
825.08124
630.73155
485.26367
375.42153
291.84975
227.84669
178.54848
140.38399
110.70416
87.525894
69.352542
55.046551
43.738254
34.760053
27.598735
21.860846
17.247384
13.534732
10.558906
8.2004331
6.3682331
4.9841108
3.9726443
3.2601025
2.7800021
2.4791805
2.3206371
2.2837371
2.352549
2.5508555
2.9125051
3.5044583
4.310969
5.5128866
7.7157285
10.674286
11.157455
10.422703
7.828718
3.7703951
1.83198
1.0519905
0.69569413
0.52348028
0.40438953
0.31430725
0.25229287
0.20063434
0.16837382
0.13717358
4529085.9
731770.72
224661.5
95304.721
48495.733
27622.444
16964.08
10987.851
7401.8858
5137.6778
3650.5482
2642.8404
1942.5978
1445.8828
1087.4741
825.13917
630.79372
485.33156
375.49669
291.93382
227.94153
178.65618
140.50693
110.84501
87.687564
69.538078
55.258936
43.980084
35.033055
27.903107
22.194424
17.604724
13.906377
10.931393
8.5577411
6.6951189
5.2704348
4.2164079
3.4674886
2.9631579
2.654099
2.5068821
2.5057964
2.6367235
2.964224
3.5537226
4.4552381
5.735799
7.968034
11.185039
11.898073
11.320866
9.2780612
4.6153726
2.2657117
1.2659152
0.81385163
0.58289465
0.43751593
0.34355196
0.26800769
0.20925867
0.16655584
0.14467004
0.12352065
4529139.6
731779.59
224664.23
95305.881
48496.326
27622.784
16964.291
10987.989
7401.9814
5137.7466
3650.5998
2642.8808
1942.631
1445.9115
1087.5002
825.1643
630.8192
485.35869
375.52681
291.96845
227.98244
178.70549
140.56714
110.91907
87.778788
69.650132
55.3957
44.145374
35.23018
28.134235
22.459791
17.901709
14.228627
11.268434
8.8957329
7.0193518
5.5693435
4.4854813
3.7110748
3.1939627
2.8924134
2.7825034
2.8473497
3.1129533
3.6958832
4.681755
6.0928202
8.41687
11.824738
12.709695
12.197068
10.354724
5.6804071
2.8789413
1.539831
0.92337383
0.62398693
0.45824465
0.3544629
0.27854194
0.22392171
0.18360321
0.15002855
0.13115155
0.11260524
4529196.7
731788.86
224667.08
95307.086
48496.937
27623.129
16964.499
10988.121
7402.066
5137.801
3650.6337
2642.9002
1942.6397
1445.912
1087.4943
825.15333
630.80425
485.34078
375.50701
291.94798
227.9628
178.68855
140.55527
110.91522
87.786707
69.674267
55.441073
44.217324
35.33382
28.273384
22.63692
18.11709
14.479341
11.547767
9.193404
7.3232416
5.8689275
4.7761191
3.9974868
3.4921966
3.2318695
3.2110707
3.4120863
3.9644571
5.0293706
6.5858477
9.0346713
12.587422
13.590962
13.111718
11.390215
6.8853963
3.4868869
1.7672545
1.0213708
0.68404169
0.50700106
0.39888582
0.31575835
0.24745162
0.19420511
0.15833998
0.13054327
0.11685969
0.10355267
4529258.1
731798.63
224670.06
95308.337
48497.566
27623.479
16964.706
10988.245
7402.1388
5137.8398
3650.6486
2642.8971
1942.6222
1445.8825
1087.4544
825.10414
630.74661
485.27545
375.43485
291.87001
227.88036
178.60337
140.46959
110.83188
87.709128
69.606564
55.388087
44.184629
35.32782
28.301812
22.706473
18.231891
14.639246
11.749995
9.432314
7.5914815
6.1603399
5.0902403
4.3447815
3.899746
3.7516814
3.8968614
4.4150628
5.5351762
7.2790388
9.8139595
13.453897
14.545931
14.076754
12.411015
8.0241926
4.0340104
2.0452841
1.1770846
0.78405166
0.57227626
0.43596519
0.33644612
0.26613415
0.21478305
0.1736866
0.14282243
0.12092161
0.10987481
0.098763435
4529319.5
731808.56
224673.1
95309.62
48498.208
27623.832
16964.908
10988.36
7402.1992
5137.8627
3650.6439
2642.8708
1942.5779
1445.8224
1087.3798
825.01585
630.64526
485.16156
375.309
291.73301
227.73334
178.44795
140.30799
110.66701
87.544734
69.447251
55.239329
44.05267
35.219421
28.223652
22.665759
18.236577
14.698146
11.866019
9.605361
7.82153
6.4501919
5.450701
4.8025451
4.5091755
4.5900343
5.0861387
6.2542944
8.1714849
10.811288
14.425767
15.575944
15.101943
13.446345
9.1213183
4.6399441
2.3859202
1.371189
0.89488844
0.62422561
0.46174104
0.36293342
0.29481599
0.23627828
0.18969973
0.15573794
0.13150525
0.11297605
0.10361512
0.09341399
4529381.2
731818.68
224676.22
95310.934
48498.862
27624.188
16965.107
10988.468
7402.2478
5137.8702
3650.6204
2642.8222
1942.5077
1445.7327
1087.2717
824.89001
630.50204
485.00127
375.13199
291.53989
227.52507
178.22604
140.0746
110.42515
87.298343
69.201342
55.000021
43.827167
35.015883
28.050966
22.533276
18.153625
14.673649
11.911805
9.7318614
8.0414104
6.7828167
5.9298914
5.4892959
5.5064204
5.9900014
7.2104141
9.2765267
11.991087
15.484335
16.69278
16.201881
14.519355
10.195182
5.3232629
2.7895422
1.5938195
1.0067626
0.68343543
0.50742276
0.4072714
0.32702969
0.25832073
0.20696629
0.16810115
0.13917447
0.11903547
0.10501686
0.097343133
0.090076548
4529447.3
731829.37
224679.48
95312.298
48499.538
27624.551
16965.306
10988.57
7402.2871
5137.865
3650.5811
2642.7548
1942.4157
1445.6181
1087.1355
824.73275
630.32396
484.80252
374.91282
291.30081
227.26699
177.95043
139.78368
110.12206
86.987318
68.887858
54.690921
43.530727
34.741809
27.810322
22.338377
18.01795
14.61181
11.939773
9.8755582
8.3339245
7.2717632
6.6895806
6.6395053
7.1300459
8.4064019
10.58345
13.343883
16.669373
17.904484
17.385246
15.645492
11.25787
6.0841265
3.2461303
1.8315688
1.1253328
0.76070403
0.5688406
0.44803517
0.34956055
0.27659514
0.22575463
0.18665419
0.15561364
0.13119956
0.11361369
0.10140202
0.094480994
0.086945492
4529517.1
731840.53
224682.9
95313.724
48500.242
27624.928
16965.51
10988.671
7402.3224
5137.8531
3650.5329
2642.6765
1942.3108
1445.4887
1086.9827
824.55703
630.1256
484.58171
374.66986
291.03627
226.98188
177.64639
139.46316
109.78852
86.645466
68.543839
54.352534
43.207611
34.445601
27.554806
22.139686
17.894948
14.586361
12.047723
10.161959
8.8608335
8.1283199
8.006374
8.5075244
9.838027
12.086383
14.883091
18.00141
19.226733
18.665991
16.83749
12.336708
6.9131617
3.7410198
2.0856026
1.2630287
0.86027048
0.63931659
0.48812648
0.37748159
0.30524137
0.25251441
0.20674083
0.16863602
0.14047729
0.12045566
0.1067317
0.096217975
0.090540589
0.084837467
4529588.1
731851.96
224686.4
95315.2
48500.97
27625.318
16965.721
10988.778
7402.3602
5137.8424
3650.485
2642.598
1942.2057
1445.3591
1086.83
824.38191
629.9286
484.36329
374.43064
290.77714
226.70425
177.35235
139.15568
109.47169
86.32477
68.226423
54.047542
42.926544
34.20272
27.367486
22.028401
17.890019
14.733716
12.401436
10.794392
9.8723697
9.6562814
10.147325
11.501706
13.801124
16.618011
19.514484
20.669818
20.05422
18.103174
13.444282
7.8129965
4.2899809
2.375935
1.4338563
0.97961157
0.71562028
0.53290161
0.41439509
0.33741522
0.27585169
0.22199004
0.18169753
0.15274915
0.13043579
0.11337175
0.10131259
0.092972241
0.087761138
0.082729776
4529661.3
731863.83
224690.03
95316.729
48501.73
27625.728
16965.949
10988.899
7402.413
5137.8476
3650.4546
2642.5391
1942.1226
1445.2545
1086.7057
824.23923
629.76852
484.18682
374.23893
290.57173
226.4872
177.12644
138.92468
109.24058
86.100071
68.016532
53.863038
42.781173
34.115056
27.363416
22.147316
18.179715
15.253511
13.231352
12.041166
11.67457
12.112711
13.435744
15.741014
18.566135
21.247377
22.244904
21.554457
19.452149
14.591002
8.7888683
4.8966384
2.7057905
1.6268811
1.1058136
0.79331244
0.58703943
0.45971638
0.3715811
0.2986827
0.24178667
0.20131858
0.16994094
0.14350177
0.12352759
0.10877413
0.09827678
0.090648194
0.086106457
0.081350456
4529737.4
731876.13
224693.82
95318.32
48502.527
27626.169
16966.204
10989.047
7402.494
5137.8841
3650.4593
2642.5199
1942.0846
1445.2011
1086.6395
824.16219
629.68242
484.09346
374.14031
290.47024
226.38579
177.02887
138.83581
109.16681
86.049883
68.00143
53.899069
42.890048
34.325457
27.713652
22.685014
18.96872
16.377829
14.799297
14.186749
14.493744
15.710886
17.956113
20.745413
23.23543
23.985398
23.177023
20.895592
15.786167
9.8382681
5.5641061
3.0742088
1.8418982
1.2435388
0.88670369
0.65896751
0.51621196
0.40846581
0.32583359
0.26689114
0.22322381
0.1854387
0.15444322
0.13114321
0.11455209
0.10232263
0.093706463
0.087610715
0.083521968
0.079969899
4529816
731888.84
224697.73
95319.978
48503.367
27626.643
16966.49
10989.228
7402.6114
5137.961
3650.5099
2642.5529
1942.1061
1445.2156
1086.6504
824.17254
629.69523
484.11181
374.16768
290.51067
226.4442
177.11138
138.95013
109.32281
86.260291
68.282834
54.273128
43.38563
34.980984
28.578893
23.824964
20.467234
18.339526
17.347419
17.43948
18.415064
20.488507
23.214953
25.527951
25.920448
24.94979
22.399514
17.039528
10.956234
6.2927483
3.4846346
2.0823327
1.4000731
0.99705241
0.74291005
0.57407967
0.44635778
0.35594316
0.29454635
0.24408447
0.20102069
0.16746573
0.14356799
0.12540029
0.11066871
0.0995581
0.091816968
0.086023184
0.082408252
0.079036348
4529897.8
731902.1
224701.79
95321.709
48504.253
27627.155
16966.814
10989.447
7402.7709
5138.0855
3650.6144
2642.6477
1942.1982
1445.3107
1086.7533
824.28772
629.82722
484.26547
374.34845
290.72488
226.6994
177.41673
139.31699
109.76547
86.797041
68.937458
55.076255
44.376667
36.210496
30.111424
25.741432
22.86542
21.329414
21.03721
21.720861
23.444775
25.899472
28.098974
28.056128
26.875688
23.935743
18.366634
12.131639
7.0798546
3.937922
2.3524027
1.5761068
1.1227316
0.83419523
0.63832959
0.49373496
0.39731291
0.32682392
0.26836153
0.22056062
0.18564438
0.1581542
0.1354919
0.11744614
0.10507198
0.09570565
0.089102455
0.084226267
0.081064529
0.078126537
4529983.7
731915.9
224706.03
95323.519
48505.189
27627.706
16967.174
10989.705
7402.9725
5138.2576
3650.7737
2642.8052
1942.3625
1445.4887
1086.9514
824.51214
630.08444
484.56261
374.69362
291.12753
227.17079
177.97051
139.96992
110.53855
87.716427
70.035887
56.394908
45.966935
38.13594
32.44876
28.578492
26.295666
25.431129
25.73933
26.928259
28.944196
30.737193
30.383412
28.922929
25.516126
19.761527
13.335333
7.9130757
4.435973
2.6564235
1.7754712
1.2635018
0.93764879
0.71382168
0.55401946
0.44375963
0.35958062
0.2920834
0.24295214
0.20443646
0.17212397
0.14549859
0.1266739
0.11199719
0.10091329
0.092731963
0.086981438
0.082633628
0.079793734
0.077361169
4530071.7
731930.11
224710.42
95325.4
48506.171
27628.295
16967.57
10990
7403.2163
5138.4777
3650.9879
2643.0264
1942.6006
1445.7524
1087.2489
824.85177
630.47522
485.01465
375.2185
291.73888
227.88485
178.80685
140.95239
111.69615
89.084767
71.658342
58.324079
48.265566
40.876119
35.707636
32.427507
30.777525
30.532151
31.135491
32.378044
33.55478
32.919432
31.087618
27.179721
21.217183
14.563652
8.7840928
4.9877311
3.0051136
2.001517
1.4211789
1.0537869
0.80231435
0.6221478
0.49460703
0.39533373
0.32310586
0.26997046
0.22653715
0.18827674
0.15982661
0.13805639
0.12085596
0.10776822
0.09832746
0.090879713
0.085706432
0.0817699
0.079147602
0.076843514
4530163.2
731944.95
224714.98
95327.363
48507.207
27628.93
16968.012
10990.346
7403.5161
5138.7615
3651.2755
2643.3322
1942.9365
1446.129
1087.6766
825.34156
631.03911
485.66626
375.97363
292.61614
228.9064
179.99926
142.3476
113.3325
91.007921
73.921792
60.986195
51.391966
44.530407
39.937346
37.239184
36.099002
36.140488
36.742751
36.652518
35.57014
33.255947
28.928165
22.699654
15.781902
9.6923777
5.6071917
3.4061739
2.2551083
1.5946086
1.1845171
0.90347623
0.70075481
0.55262355
0.44129843
0.36049711
0.29983576
0.24814393
0.20764043
0.17580836
0.15073937
0.13016705
0.11534879
0.10336934
0.09454897
0.088077325
0.083679462
0.080250713
0.078080222
0.076178286
4530257.7
731960.25
224719.71
95329.425
48508.316
27629.63
16968.519
10990.761
7403.8935
5139.134
3651.6651
2643.7555
1943.4074
1446.6605
1088.282
826.03496
631.83615
486.58484
377.03465
293.84427
230.33101
181.6555
144.27743
115.58579
93.637758
76.973559
64.503969
55.426236
49.105829
45.027627
42.727107
41.754248
41.342968
40.298344
38.287368
35.507568
30.706705
24.157879
16.984214
10.665423
6.3182539
3.8676355
2.5384572
1.787871
1.3329284
1.0202195
0.79052385
0.62130498
0.49474277
0.40297678
0.33006121
0.27363117
0.22995446
0.19518884
0.16463964
0.14185036
0.12382829
0.11035143
0.099984115
0.092790321
0.086924562
0.08284782
0.079598371
0.077646031
0.075879829
4530355.2
731976.06
224724.62
95331.584
48509.503
27630.403
16969.104
10991.263
7404.3709
5139.6214
3652.1868
2644.3306
1944.0524
1447.3915
1089.1151
826.98809
632.92921
487.84077
378.48032
295.51148
232.25752
183.88466
146.85669
118.56157
97.053579
80.863133
68.884846
60.286107
54.385812
50.592394
48.240243
46.413841
44.180333
41.443512
37.908103
32.532391
25.639011
18.257625
11.757429
7.1381362
4.3889103
2.8530189
2.0049192
1.5013451
1.15176
0.89282763
0.70056128
0.55764475
0.45064468
0.36778528
0.30445323
0.25685934
0.21553041
0.18227594
0.15519565
0.13494189
0.11865308
0.10699346
0.097397568
0.090513245
0.085221238
0.081629399
0.078805963
0.076974571
0.075310548
4530457.6
731992.62
224729.78
95333.869
48510.782
27631.263
16969.779
10991.867
7404.9638
5140.2415
3652.8611
2645.0806
1944.8976
1448.3509
1090.2086
828.23722
634.35828
489.4773
380.35546
297.65994
234.7167
186.69469
150.0588
122.19613
101.15431
85.453459
73.932547
65.657993
59.817613
55.579702
52.032764
48.544336
44.950944
40.521076
34.515481
27.262516
19.680169
12.976267
8.0473265
4.9645856
3.2091954
2.2565788
1.6940857
1.3006558
1.0098696
0.79404256
0.63092702
0.5074423
0.41197487
0.34091099
0.28375573
0.23840068
0.20123008
0.17197394
0.14706071
0.12889432
0.1139149
0.10302644
0.094350419
0.088456399
0.083732475
0.080651074
0.078012576
0.07649226
0.074996602
4530563.2
732009.78
224735.15
95336.275
48512.154
27632.214
16970.554
10992.581
7405.6827
5141.006
3653.7006
2646.0193
1945.9576
1449.5537
1091.5764
829.79381
636.12929
491.49066
382.64092
300.24844
237.6387
189.97606
153.71499
126.22348
105.51911
90.082608
78.685122
70.240288
63.769917
58.434862
53.63971
48.962463
43.500943
36.781836
29.106747
21.271107
14.318502
9.0553046
5.632153
3.6433617
2.5582634
1.9125861
1.4666193
1.1430846
0.9016913
0.71610034
0.57321837
0.46458155
0.38166579
0.31656006
0.26483013
0.22529239
0.190752
0.16321051
0.1400898
0.12342965
0.10988023
0.10047258
0.092869204
0.087351053
0.082916972
0.079984008
0.077600019
0.076141657
0.074723675
4530672.5
732027.54
224740.72
95338.798
48513.62
27633.256
16971.427
10993.406
7406.5268
5141.9125
3654.701
2647.1392
1947.2202
1450.9814
1093.1922
831.62147
638.19375
493.81728
385.2544
303.1701
240.88215
193.5405
157.57533
130.31678
109.72647
94.2048
82.453235
73.363754
66.018762
59.648493
53.600371
46.935199
39.39327
31.217623
23.070798
15.834178
10.223706
6.441743
4.1739029
2.9048092
2.1509946
1.6510944
1.296748
1.0272571
0.81573222
0.65223803
0.52679925
0.43074922
0.35482253
0.29691
0.24969301
0.2121218
0.17995312
0.15490804
0.13392014
0.11914918
0.10669532
0.09788508
0.090365197
0.085597815
0.081635234
0.079112019
0.076914641
0.075729524
0.074401954
4530784.7
732045.88
224746.49
95341.426
48515.161
27634.363
16972.361
10994.296
7407.4426
5142.8994
3655.7918
2648.361
1948.5971
1452.5365
1094.9485
833.6014
640.41883
496.30636
388.02126
306.21936
244.20323
197.09936
161.30423
134.10325
113.4041
97.550493
85.197711
75.234235
66.796718
58.967264
50.942796
42.476002
33.71867
25.191491
17.615313
11.613903
7.4198939
4.8072108
3.3042903
2.4257169
1.8692671
1.4775497
1.1724417
0.93086078
0.74437749
0.60011467
0.48754301
0.40049457
0.33269054
0.27919563
0.23560094
0.20178748
0.17190731
0.14867876
0.12884783
0.11507236
0.10337395
0.095486236
0.089171973
0.084848196
0.081093079
0.078745553
0.076652018
0.075409657
0.074247836
4530901
732061.45
224749.6
95341.934
48515.13
27634.282
16972.38
10994.466
7407.7851
5143.4271
3656.5143
2649.2882
1949.74
1453.9071
1096.5589
835.46297
642.54
498.68979
390.65944
309.08889
247.25769
200.26112
164.45654
137.08505
116.01168
99.549952
86.36969
75.343183
65.381838
55.790557
46.245077
36.776825
27.752672
19.741953
13.274893
8.6018954
5.5795957
3.794059
2.7607638
2.1251439
1.6802758
1.3344859
1.0637472
0.85327891
0.6874737
0.55683891
0.45505287
0.37639795
0.31336758
0.26449083
0.22404154
0.19206414
0.16385444
0.14222564
0.12409588
0.11173339
0.10111585
0.094000729
0.087558103
0.083399951
0.080034838
0.078009504
0.076196604
0.075183537
0.074070334
4531685.4
732195.54
224794.74
95363.329
48527.279
27642.073
16977.85
10998.599
7411.1113
5146.257
3659.0437
2651.6476
1952.0206
1456.1748
1098.8619
837.83495
645.00086
501.24422
393.29357
311.76546
249.91045
202.78972
166.72417
138.9216
117.23291
99.939848
85.598026
73.070207
61.583987
50.696289
40.305329
30.624528
22.076574
15.096262
9.921271
6.4636645
4.3616954
3.1395664
2.4007252
1.896597
1.5149975
1.2173143
0.9796443
0.7878164
0.63660076
0.51846873
0.42563623
0.35316092
0.29574834
0.25043738
0.21284685
0.18361434
0.15726901
0.13735296
0.12009618
0.10870087
0.098485741
0.091748208
0.086214803
0.082720994
0.079571533
0.077540238
0.075816164
0.074852654
0.073930408
4531684.6
732191.84
224791.76
95361.142
48525.787
27641.081
16977.23
10998.274
7411.0349
5146.4017
3659.3931
2652.1925
1952.7554
1457.0954
1099.9621
839.10418
646.41987
502.78072
394.897
313.36164
251.39704
204.03483
167.57338
139.17865
116.62779
98.186009
82.537785
68.731126
56.16542
44.586465
34.050602
24.828808
17.250256
11.513313
7.5583289
5.071618
3.6005203
2.7232886
2.1485991
1.7266713
1.394146
1.1225802
0.90292911
0.72986325
0.59366851
0.48540572
0.40017796
0.33392609
0.28032349
0.23847559
0.20322945
0.17574731
0.15090186
0.13228131
0.11630444
0.10576281
0.096554989
0.090737915
0.0853427
0.08194615
0.078978165
0.077247514
0.075643925
0.074709747
0.07382545
4531684.8
732191.95
224791.86
95361.283
48525.972
27641.313
16977.514
10998.617
7411.4429
5146.8805
3659.9485
2652.8288
1953.475
1457.8967
1100.838
840.0389
647.38595
503.73525
395.77822
314.08707
251.85595
204.08106
167.0077
137.7934
114.26501
94.771448
78.100879
63.438024
50.334697
38.663756
28.531942
20.145722
13.658559
9.0367273
6.0200951
4.1938155
3.1178877
2.4446374
1.9681145
1.5941816
1.2887928
1.0420729
0.84430528
0.68485856
0.55788344
0.45752385
0.37828353
0.31627068
0.26646259
0.22741464
0.19451793
0.16912694
0.14563403
0.12834838
0.11323
0.10365277
0.094712836
0.08898482
0.084028791
0.081033935
0.078337812
0.076768201
0.075311505
0.074463094
0.073714868
4531684.9
732192.02
224791.91
95361.339
48526.044
27641.406
16977.632
10998.763
7411.6201
5147.092
3660.1961
2653.1126
1953.7917
1458.2385
1101.19
840.37658
647.67191
503.9151
395.77547
313.7957
251.14733
202.81357
165.05302
135.04676
110.67064
90.353737
72.992213
57.890501
44.702338
33.348634
23.902829
16.4538
10.985013
7.2868035
4.9854975
3.6284121
2.8084132
2.2546661
1.8324154
1.4905786
1.2107702
0.98099707
0.79383596
0.64482878
0.52728996
0.4335332
0.35943827
0.30182724
0.25494464
0.2184664
0.18720299
0.16338518
0.14114581
0.12489368
0.11044147
0.10139491
0.0931239
0.088227548
0.083529655
0.080649458
0.078043797
0.07647474
0.075124764
0.074363799
0.073647596
4531686.1
732192.11
224791.9
95361.305
48526.001
27641.357
16977.578
10998.704
7411.5583
5147.0269
3660.1258
2653.0325
1953.6935
1458.1074
1101.0034
840.10084
647.25983
503.30389
394.8866
312.53913
249.42405
200.52574
162.11963
131.42472
106.37881
85.494216
67.76056
52.565907
39.612363
28.812156
20.165332
13.636654
9.0586239
6.1025833
4.3213531
3.2642747
2.5915635
2.1068158
1.7221383
1.4043001
1.1404899
0.92519299