/*--------------------------------*- C++ -*----------------------------------*\
  =========                 |
  \\      /  F ield         | OpenFOAM: The Open Source CFD Toolbox
   \\    /   O peration     | Website:  https://openfoam.org
    \\  /    A nd           | Version:  13
     \\/     M anipulation  |
\*---------------------------------------------------------------------------*/
FoamFile
{
    format      ascii;
    class       volScalarField;
    location    "41.596514";
    object      omega;
}
// * * * * * * * * * * * * * * * * * * * * * * * * * * * * * * * * * * * * * //

dimensions      [0 0 -1 0 0 0 0];

internalField   nonuniform List<scalar> 
17140
(
4528389.9
731657.66
224626.36
95289.492
48487.731
27617.648
16960.891
10985.531
7400.0527
5136.1136
3649.1203
2641.462
1941.2088
1444.4391
1085.9414
823.48995
629.00476
483.383
373.37139
289.61723
225.42176
175.92442
137.55804
107.67833
84.30803
65.957528
51.497825
40.069611
31.017782
23.843936
18.171216
13.716686
10.266668
7.6520141
5.724946
4.344912
3.3791205
2.7123356
2.2545348
1.9412051
1.7286071
1.5878913
1.5014617
1.4578017
1.4439787
1.4537174
1.4860591
1.5377794
1.6067973
1.692193
1.7941895
1.9137441
2.0508462
2.2054574
2.3839756
2.5987301
2.861613
3.1731576
3.4707415
3.6399849
3.6193072
3.4778876
3.3032881
3.1241545
2.4586372
4528420.9
731663.27
224628.42
95290.548
48488.36
27618.06
16961.178
10985.739
7400.2065
5136.229
3649.2066
2641.5256
1941.254
1444.4688
1085.9578
823.49447
628.99862
483.36712
373.34653
289.58406
225.38094
175.87666
137.50411
107.61915
84.244671
65.891248
51.430084
40.002061
30.952227
23.782255
18.115234
13.667982
10.226326
7.6203748
5.7015022
4.328466
3.3681404
2.7053225
2.2502471
1.9387106
1.7272303
1.5871476
1.501019
1.4574162
1.4435037
1.4528859
1.4847223
1.5357275
1.6037396
1.6876776
1.7875946
1.9042285
2.0375128
2.186909
2.3566926
2.5558248
2.7903248
3.0505565
3.2783143
3.4067691
3.3898551
3.2954214
3.3347761
3.1874193
2.4541393
4528451.2
731668.24
224629.96
95291.2
48488.692
27618.247
16961.29
10985.808
7400.25
5136.2555
3649.2214
2641.5317
1941.2533
1444.4626
1085.9468
823.47918
628.97934
483.34404
373.31981
289.55383
225.34738
175.84002
137.46475
107.57757
84.201543
65.847425
51.386593
39.96007
30.912983
23.746963
18.084905
13.643256
10.207338
7.6067047
5.6923297
4.3227897
3.3649955
2.7039058
2.2499483
1.9390753
1.7279491
1.588057
1.5019432
1.4582426
1.4442232
1.4533228
1.4848322
1.5354315
1.602898
1.6860914
1.7849571
1.9001325
2.0314788
2.1780466
2.3424789
2.5303781
2.7439584
2.9716166
3.157706
3.2520924
3.2374035
3.2724308
3.4487574
3.2525375
2.4435638
4528483
731673.41
224631.57
95291.881
48489.037
27618.443
16961.409
10985.884
7400.2992
5136.2878
3649.2422
2641.5446
1941.2603
1444.465
1085.9456
823.47488
628.97238
483.33471
373.30834
289.54044
225.33231
175.82355
137.44725
107.55951
84.18349
65.830074
51.370732
39.946528
30.902526
23.740152
18.081917
13.643748
10.210462
7.6113937
5.6975718
4.3278929
3.3696448
2.7080365
2.2536062
1.9423835
1.7309916
1.5907758
1.5043934
1.4605129
1.4463999
1.4553831
1.4868699
1.5374943
1.6050034
1.68822
1.7870556
1.902134
2.0332992
2.179353
2.3420043
2.5249983
2.7276505
2.9375376
3.1063059
3.195081
3.2223704
3.3729597
3.5519211
3.3146093
2.4047389
4528516.9
731678.91
224633.26
95292.595
48489.399
27618.649
16961.537
10985.968
7400.3563
5136.3281
3649.2717
2641.5666
1941.2773
1444.4784
1085.9564
823.48393
628.98012
483.34153
373.31455
289.54631
225.33811
175.82956
137.45379
107.56694
84.192251
65.840638
51.383588
39.962108
30.921103
23.761688
18.105912
13.669136
10.235688
7.6347292
5.7176982
4.3443022
3.382588
2.7182781
2.2618721
1.9491322
1.7365586
1.5955112
1.50861
1.4645232
1.4503696
1.4594926
1.4913896
1.5426824
1.6111308
1.6955946
1.7960725
1.9132988
2.0470772
2.1959814
2.3613469
2.5459159
2.7476824
2.9558502
3.1272919
3.2217407
3.3003612
3.6127131
3.6532893
3.3654951
2.2996564
4528552.1
731684.59
224635
95293.334
48489.777
27618.867
16961.673
10986.059
7400.4211
5136.3766
3649.3098
2641.5982
1941.3047
1444.5034
1085.9801
823.50708
629.00336
483.36534
373.33929
289.5723
225.36562
175.85887
137.48518
107.6007
84.228667
65.88001
51.426157
40.007984
30.970133
23.813283
18.158855
13.721491
10.284965
7.6784478
5.75417
4.3733106
3.405144
2.7356013
2.2751743
1.9595238
1.7449442
1.6025623
1.5149263
1.4706841
1.4566048
1.466258
1.4991885
1.5520565
1.6227106
1.7101642
1.8146663
1.9372004
2.0773945
2.2335967
2.4074854
2.6014178
2.8137786
3.0354359
3.220216
3.3245856
3.4695879
3.8130019
3.7634886
3.3944804
2.1053138
4528588.7
731690.44
224636.79
95294.097
48490.171
27619.095
16961.817
10986.157
7400.4928
5136.4322
3649.3559
2641.6386
1941.3421
1444.5396
1086.0163
823.54416
629.04205
483.40616
373.38268
289.61862
225.41517
175.91192
137.54196
107.66143
84.293529
65.949109
51.499485
40.085317
31.050877
23.896271
18.242139
13.802258
10.359797
7.744083
5.808676
4.416465
3.438086
2.7603392
2.2938619
1.9739822
1.7565504
1.6123415
1.5237995
1.479546
1.4657538
1.4765241
1.5113883
1.5671344
1.6418329
1.7348405
1.8468939
1.9793197
2.1311591
2.300715
2.4908892
2.7043609
2.943096
3.191117
3.3860087
3.4963221
3.7189312
3.988566
3.8694059
3.3706561
1.7940948
4528626.6
731696.5
224638.63
95294.889
48490.581
27619.334
16961.97
10986.263
7400.572
5136.4957
3649.4102
2641.688
1941.3893
1444.5866
1086.0644
823.59458
629.09553
483.46334
373.44408
289.68468
225.48624
175.98828
137.62384
107.74898
84.38681
66.048073
51.603888
40.194608
31.164025
24.011533
18.356828
13.912669
10.461548
7.8330938
5.8823059
4.4742978
3.4819013
2.7930964
2.3185445
1.9930584
1.7719105
1.6254184
1.5358792
1.491805
1.4786921
1.491457
1.52956
1.5900804
1.6715433
1.7739725
1.8989147
2.047844
2.2184848
2.4101253
2.6278609
2.8753181
3.148313
3.4067207
3.5876301
3.699059
3.9823697
4.2034176
3.9800628
3.0709851
1.4586606
4528664.7
731702.74
224640.56
95295.712
48491.005
27619.583
16962.132
10986.377
7400.6582
5136.5663
3649.4722
2641.7458
1941.4458
1444.6438
1086.1241
823.65774
629.16311
483.53609
373.52262
289.76948
225.57773
176.08677
137.72953
107.86199
84.507136
66.175518
51.738009
40.334582
31.308454
24.158187
18.502387
14.052611
10.590494
7.9458436
5.975455
4.5474773
3.5374626
2.8347275
2.3499811
2.0174474
1.7917088
1.6425655
1.552268
1.5081725
1.4966053
1.5126688
1.5559084
1.6239897
1.7163026
1.8341067
1.9800028
2.1545325
2.3541832
2.5820302
2.8457255
3.1469751
3.4536821
3.7118828
3.8751971
4.014116
4.3734349
4.4921229
4.061567
2.4970269
1.0656753
4528704.9
731709.25
224642.57
95296.567
48491.445
27619.843
16962.301
10986.497
7400.7511
5136.6436
3649.5411
2641.8111
1941.5106
1444.7104
1086.194
823.73228
629.24332
483.62282
373.61655
289.87119
225.68766
176.20524
137.85677
107.99807
84.651947
66.32874
51.899014
40.502298
31.481164
24.333261
18.675997
14.219615
10.744777
8.0814475
6.0883324
4.6368736
3.6058109
2.8862318
2.3890893
2.0480046
1.8167706
1.6645471
1.5735516
1.5304897
1.5212094
1.5424104
1.5935552
1.673335
1.7827291
1.9251993
2.1035862
2.3157901
2.5616688
2.851914
3.1946038
3.5804461
3.9410352
4.2232194
4.3889399
4.5962913
4.9555641
4.7336541
3.82792
1.6572696
0.68340068
4528746.8
731716
224644.64
95297.456
48491.905
27620.114
16962.479
10986.624
7400.8499
5136.7268
3649.6162
2641.8829
1941.5826
1444.7848
1086.2726
823.81654
629.33435
483.72154
373.72374
289.98748
225.81356
176.34113
138.00286
108.15443
84.818412
66.504907
52.08412
40.69509
31.679691
24.534594
18.875934
14.412522
10.923909
8.2400759
6.2216158
4.7434871
3.6880856
2.9487536
2.4369644
2.0857928
1.8481848
1.6925837
1.6013217
1.5604141
1.5548135
1.5838623
1.6469994
1.7447003
1.880816
2.0621367
2.2875898
2.556642
2.883254
3.288318
3.7781544
4.3216942
4.8093113
5.1652949
5.3819
5.6226592
5.4542258
4.7805627
2.6014074
0.99595731
0.46124871
4528789.6
731722.94
224646.79
95298.374
48492.382
27620.396
16962.664
10986.757
7400.9538
5136.8148
3649.6962
2641.9599
1941.66
1444.8652
1086.358
823.90831
629.43374
483.82958
373.84128
290.11525
225.95212
176.49092
138.16414
108.32725
85.00264
66.700085
52.28942
40.909159
31.900444
24.758926
19.09941
14.629184
11.12652
8.4212033
6.3755537
4.8681388
3.7854277
3.0235527
2.49489
2.1321186
1.8873508
1.7283352
1.6375966
1.6002836
1.6007265
1.6416386
1.7228996
1.8480408
2.0259044
2.2649602
2.5571729
2.9233319
3.4012966
4.0255037
4.797197
5.6305941
6.3619895
6.752696
6.6298152
6.3323348
5.5252817
3.2589922
1.2787632
0.57227574
0.3328669
4528834.7
731730.21
224649.03
95299.328
48492.877
27620.689
16962.856
10986.896
7401.0621
5136.9065
3649.7796
2642.0404
1941.7412
1444.9497
1086.4477
824.00497
629.53862
483.94377
373.96573
290.25075
226.09932
176.65031
138.33606
108.51182
85.199723
66.909264
52.509872
41.139525
32.138617
25.00177
19.342427
14.86628
11.350168
8.623404
6.5497427
5.0112769
3.8988529
3.1119492
2.5643379
2.1885701
1.9360064
1.7741778
1.6853966
1.6529638
1.6639574
1.722665
1.831479
1.9989793
2.2414876
2.5594367
2.959673
3.5075697
4.2712543
5.2940428
6.5260014
7.6878152
7.9131117
7.6430462
6.9888251
5.7982265
3.2875473
1.4530619
0.67327817
0.38538978
0.2638094
4528880.1
731737.63
224651.32
95300.311
48493.388
27620.991
16963.054
10987.038
7401.1732
5137.0005
3649.8649
2642.1225
1941.8239
1445.0357
1086.5391
824.10347
629.64558
484.06038
374.093
290.38955
226.25038
176.8142
138.51319
108.70239
85.403707
67.126315
52.739253
41.379968
32.388117
25.257308
19.599631
15.119148
11.591123
8.8441001
6.7428568
5.1727313
4.0290763
3.2152357
2.6469683
2.2571055
1.9964669
1.8331076
1.7484435
1.7238405
1.7517315
1.8377309
1.9891629
2.2231846
2.5618209
2.9932728
3.5937899
4.4820341
5.7503803
7.3751717
8.6691909
8.7549445
8.3518239
7.2296407
5.2283418
2.7215255
1.3755952
0.71948763
0.41787261
0.29888248
0.22828231
4528926.9
731745.28
224653.68
95301.33
48493.917
27621.303
16963.258
10987.183
7401.2859
5137.0951
3649.9502
2642.2042
1941.9057
1445.1206
1086.6292
824.20044
629.75089
484.17527
374.21854
290.52667
226.39989
176.97677
138.68931
108.89239
85.607678
67.344057
52.970195
41.623035
32.641537
25.518339
19.864224
15.381635
11.844164
9.079298
6.9523457
5.3514202
4.1762861
3.3345624
2.744649
2.340236
2.0720163
1.9092394
1.8323111
1.8209405
1.8756434
2.0045028
2.2237218
2.5647399
3.0393103
3.671671
4.6494616
6.131026
8.1299736
9.4334364
9.4505262
8.8829595
7.2097487
4.3812814
2.3144791
1.2467427
0.70552959
0.44303908
0.31025022
0.25140242
0.20355432
4528977.9
731753.47
224656.18
95302.391
48494.463
27621.624
16963.467
10987.331
7401.3994
5137.1891
3650.0338
2642.2832
1941.9842
1445.2014
1086.7146
824.29215
629.85039
484.28383
374.33727
290.65657
226.54183
177.13149
138.85744
109.07438
85.803782
67.554283
53.194215
41.860067
32.890166
25.77626
20.127912
15.646006
12.10243
9.3233657
7.1741465
5.5450387
4.3398795
3.4707885
2.8594631
2.4412066
2.1673421
2.0090745
1.9450072
1.957275
2.0550699
2.2533489
2.5842277
3.0942171
3.7783947
4.8038396
6.4461552
8.7631591
10.102216
10.063193
9.3706494
7.3117265
3.9615418
2.0843807
1.1578042
0.69086287
0.45000554
0.32760976
0.25918821
0.22184133
0.17782583
4529031.7
731761.98
224658.76
95303.493
48495.031
27621.955
16963.68
10987.48
7401.5118
5137.2805
3650.1136
2642.3573
1942.0567
1445.2752
1086.792
824.37481
629.93983
484.38132
374.44394
290.77345
226.66984
177.27147
139.01012
109.24036
85.983521
67.748036
53.401967
42.081422
33.124188
26.021233
20.381027
15.903015
12.357417
9.5689522
7.4025119
5.7498225
4.5182391
3.6243707
2.9937825
2.5642293
2.2895249
2.1426623
2.0998395
2.1547196
2.3239118
2.6386928
3.1581673
3.9132744
4.9951668
6.7439054
9.3169607
10.75299
10.677682
9.9019972
7.5791762
3.923456
2.0466254
1.1424981
0.69651518
0.466378
0.33978676
0.27280468
0.22638324
0.19356462
0.15915554
4529085.9
731770.67
224661.43
95304.632
48495.615
27622.295
16963.896
10987.629
7401.6216
5137.3675
3650.1873
2642.4239
1942.1203
1445.3388
1086.8576
824.4443
630.01462
484.46265
374.53294
290.87114
226.77719
177.38937
139.13941
109.38182
86.137819
67.915719
53.583392
42.276663
33.332893
26.242414
20.61277
16.14214
12.599194
9.8071438
7.6300852
5.9605482
4.7087301
3.7955
3.1507569
2.7157212
2.4489863
2.3252123
2.3221602
2.4515582
2.7439553
3.2604869
4.0763826
5.2314215
7.0688402
9.8377402
11.414972
11.329335
10.526949
8.0497745
4.1435181
2.1430339
1.1921259
0.72996637
0.4929804
0.36302584
0.28563269
0.23214779
0.19443964
0.17216259
0.14467603
4529139.6
731779.55
224664.17
95305.795
48496.212
27622.64
16964.113
10987.775
7401.7274
5137.4485
3650.2531
2642.4808
1942.1724
1445.389
1086.9081
824.49679
630.07044
484.523
374.5989
290.94372
226.85734
177.47806
139.23757
109.49038
86.257698
68.047783
53.72842
42.435272
33.505412
26.428705
20.811966
16.35233
12.817131
10.02815
7.8485162
6.1710867
4.9082762
3.9848985
3.3356835
2.906906
2.6639978
2.5822167
2.6571542
2.9190906
3.4300716
4.2908361
5.5321082
7.442161
10.358811
12.110503
12.031158
11.226783
8.7002301
4.5298943
2.3334772
1.2916217
0.78851717
0.53462419
0.39372815
0.30321846
0.23935563
0.1994438
0.17196018
0.15472469
0.13111475
4529196.7
731788.81
224667.02
95307.005
48496.83
27622.995
16964.333
10987.921
7401.8282
5137.5219
3650.3092
2642.5258
1942.2105
1445.4231
1086.9402
824.52855
630.10313
484.55773
374.63667
290.98547
226.90405
177.53069
139.29715
109.558
86.334519
68.135026
53.827338
42.547094
33.631241
26.569364
20.967783
16.522852
13.00083
10.222316
8.0497365
6.3759196
5.1150509
4.1957666
3.5582894
3.1571793
2.9647042
2.9670235
3.1871108
3.6901261
4.585432
5.9328858
7.8990905
10.916325
12.847787
12.795229
12.003233
9.4808604
5.031054
2.6111838
1.4417791
0.87493293
0.58914055
0.42863033
0.32357739
0.25189013
0.20689115
0.17780161
0.15487673
0.13891341
0.12078457
4529258.1
731798.59
224670.01
95308.264
48497.469
27623.357
16964.555
10988.063
7401.9225
5137.586
3650.3534
2642.5566
1942.232
1445.438
1086.9506
824.53578
630.10845
484.56212
374.64102
290.99066
226.91099
177.54038
139.3107
109.57669
86.359798
68.168565
53.870996
42.602864
33.701083
26.655147
21.071168
16.645065
13.142487
10.383336
8.2293271
6.5736328
5.3324471
4.438907
3.8406661
3.5029091
3.4105508
3.5764447
4.0645686
4.9963412
6.4606814
8.5054556
11.521483
13.641706
13.618603
12.839287
10.340603
5.6272637
2.9536781
1.6218754
0.9702288
0.64396158
0.46261788
0.34631266
0.26958625
0.22047141
0.18497454
0.1593584
0.14102147
0.12862597
0.1116483
4529319.5
731808.53
224673.06
95309.557
48498.124
27623.725
16964.776
10988.2
7402.0096
5137.6401
3650.3851
2642.5723
1942.2358
1445.4327
1086.938
824.51734
630.08518
484.5349
374.61067
290.95799
226.87687
177.50582
139.27686
109.54496
86.331808
68.14624
53.856608
42.599108
33.711256
26.682891
21.120047
16.717977
13.242283
10.512755
8.3913793
6.7726969
5.5761999
4.7414428
4.2272118
4.0157803
4.1166203
4.5812091
5.5525101
7.1316344
9.2725486
12.260104
14.502567
14.508423
13.73763
11.265223
6.3171604
3.3579433
1.8295849
1.0744574
0.70444269
0.50335604
0.37851108
0.29623858
0.24004343
0.19583813
0.16614159
0.14581462
0.12903224
0.11854855
0.10593437
4529381.2
731818.65
224676.19
95310.884
48498.794
27624.099
16964.997
10988.334
7402.0894
5137.6842
3650.4042
2642.5728
1942.2219
1445.407
1086.9024
824.47309
630.03324
484.47609
374.54573
290.88775
226.80226
177.42795
139.19713
109.46506
86.25381
68.07264
53.790355
42.543611
33.670328
26.660898
21.122142
16.750439
13.31112
10.625012
8.5558299
7.001347
5.8871869
5.1639798
4.8094767
4.8351164
5.2705732
6.2767975
7.959986
10.211683
13.158658
15.42585
15.483496
14.708632
12.238335
7.0871417
3.8182917
2.0674347
1.1986318
0.78524162
0.5632616
0.42405302
0.3297465
0.26112317
0.20890144
0.17514354
0.15068531
0.13402531
0.12137575
0.11090837
0.099331481
4529447.3
731829.35
224679.47
95312.262
48499.487
27624.484
16965.221
10988.466
7402.1636
5137.7199
3650.4123
2642.56
1942.1925
1445.3636
1086.8467
824.40643
629.95651
484.39008
374.45123
290.78561
226.69352
177.31393
139.07947
109.34585
86.13565
67.958702
53.68447
42.45032
33.594939
26.609538
21.101825
16.769142
13.380135
10.758021
8.7705213
7.3222352
6.3504173
5.8252253
5.7558184
6.1633628
7.192118
8.968026
11.345008
14.238258
16.460222
16.541163
15.747605
13.244871
7.9281586
4.3360438
2.3402323
1.3456466
0.87944423
0.62662458
0.46451353
0.35589845
0.27893519
0.22381914
0.18749596
0.15955582
0.1405302
0.12507621
0.1131216
0.10522951
0.09534911
4529517.1
731840.53
224682.88
95313.7
48500.207
27624.881
16965.45
10988.599
7402.2356
5137.751
3650.4141
2642.5393
1942.1535
1445.3092
1086.7787
824.32607
629.86481
484.28789
374.33945
290.66525
226.56584
177.18052
138.94238
109.20766
85.999593
67.828775
53.565532
42.348214
33.516619
26.563186
21.097537
16.821635
13.507223
10.983018
9.1248388
7.8501565
7.1164327
6.9246025
7.290498
8.3293994
10.167941
12.66125
15.528618
17.648805
17.686426
16.858977
14.283789
8.8412752
4.9161209
2.6533855
1.5156649
0.98566137
0.69578246
0.51112817
0.39135124
0.30851066
0.24908658
0.20637999
0.17257051
0.14829265
0.12992097
0.1174899
0.10728023
0.10021565
0.092228651
4529588.1
731851.96
224686.39
95315.186
48500.95
27625.291
16965.687
10988.736
7402.3108
5137.7842
3650.417
2642.5193
1942.115
1445.2551
1086.7111
824.24634
629.77415
484.18739
374.23024
290.54867
226.44352
177.05452
138.81531
109.0828
85.88106
67.721636
53.475967
42.283621
33.486553
26.580664
21.180103
16.990232
13.789954
11.417673
9.763629
8.7659904
8.4113026
8.7059127
9.7165945
11.592927
14.161604
16.996855
19.022722
18.947507
18.047503
15.358119
9.8168326
5.5564013
3.0050754
1.7076294
1.1032259
0.77399637
0.56612968
0.43398441
0.34207227
0.27533277
0.2245834
0.1849177
0.15655648
0.13640891
0.12239475
0.11138853
0.10308387
0.096214696
0.088840519
4529661.3
731863.83
224690.03
95316.724
48501.723
27625.719
16965.938
10988.884
7402.3955
5137.8267
3650.4297
2642.5098
1942.0881
1445.2141
1086.6584
824.18364
629.70302
484.10933
374.14685
290.4618
226.35543
176.96797
138.73371
109.01039
85.823204
67.685171
53.469798
42.319737
33.580029
26.75028
21.449767
17.392505
14.367662
12.229341
10.888899
10.311529
10.490071
11.419475
13.283115
15.890401
18.663848
20.574366
20.361516
19.333206
16.454151
10.840665
6.256035
3.3998604
1.9252249
1.23704
0.86387334
0.63149973
0.48248322
0.37809915
0.30131858
0.24291236
0.1991086
0.16834516
0.14609055
0.12923669
0.11623011
0.10623395
0.09800798
0.092537611
0.086838589
4529737.4
731876.13
224693.82
95318.321
48502.529
27626.172
16966.207
10989.05
7402.4979
5137.888
3650.4632
2642.5234
1942.0873
1445.2026
1086.639
824.15868
629.67458
484.07948
374.11788
290.43633
226.33661
176.95971
138.74097
109.03949
85.882108
67.783964
53.621198
42.539747
33.889573
27.177094
22.030505
18.174529
15.414312
13.624014
12.738917
12.746646
13.526008
15.301599
17.854632
20.62106
22.354421
21.968272
20.745436
17.592155
11.903619
7.0224228
3.8404901
2.1699803
1.3862198
0.96600281
0.70523667
0.53647742
0.41655703
0.33094903
0.26751937
0.22124339
0.18649456
0.15897281
0.13755023
0.12168017
0.11015223
0.10181954
0.09558915
0.090557654
0.085134884
4529816
731888.84
224697.73
95319.983
48503.374
27626.653
16966.502
10989.242
7402.6274
5137.9789
3650.5295
2642.5741
1942.1285
1445.2387
1086.6735
824.19472
629.71503
484.12739
374.17657
290.50968
226.42923
177.07722
138.89027
109.2292
86.123127
68.090186
54.010568
43.035776
34.523074
27.98783
23.069889
19.509246
17.129189
15.82287
15.545902
16.153052
17.727406
20.134268
22.805113
24.32891
23.842388
22.321812
18.761579
13.005171
7.8391967
4.3188713
2.4395641
1.5536711
1.0815314
0.78881822
0.59658862
0.46166792
0.36590865
0.29688295
0.24409699
0.20247082
0.16903305
0.14508712
0.12782208
0.1155542
0.10624035
0.09854798
0.092207713
0.087502806
0.083352205
4529897.8
731902.1
224701.79
95321.714
48504.26
27627.164
16966.824
10989.459
7402.7838
5138.0995
3650.6293
2642.663
1942.2134
1445.325
1086.7657
824.29689
629.83142
484.26242
374.33522
290.69771
226.65345
177.34589
139.21351
109.6196
86.596517
68.666855
54.71651
43.904138
35.596103
29.319432
24.728189
21.578635
19.709791
19.024634
19.373395
20.639258
22.792077
25.255804
26.480449
25.79306
24.009637
20.019426
14.175577
8.7192079
4.8471073
2.7464605
1.7458609
1.2130768
0.88257711
0.66619062
0.51413469
0.40679672
0.32804331
0.26867861
0.22098739
0.18491045
0.15851671
0.13897785
0.12337883
0.11128187
0.10180173
0.095060585
0.08993147
0.08616413
0.082412939
4529983.7
731915.9
224706.03
95323.519
48505.188
27627.705
16967.172
10989.701
7402.9674
5138.2503
3650.7634
2642.7912
1942.3438
1445.4641
1086.9192
824.47044
630.0308
484.49401
374.60625
291.01663
227.03033
177.79289
139.74553
110.25512
87.358559
69.584057
55.824735
45.248167
37.231508
31.314304
27.163255
24.543855
23.293455
23.289548
24.107996
25.914311
27.987381
28.808744
27.934984
25.818576
21.383563
15.385106
9.6262717
5.406305
3.0819916
1.9571658
1.3566536
0.98735323
0.74516198
0.57458646
0.45209543
0.36317826
0.29577595
0.24410151
0.20395548
0.17354136
0.14919472
0.13038103
0.11624191
0.10623756
0.098691938
0.0930574
0.08817235
0.08459595
0.08132502
4530071.7
731930.11
224710.41
95325.393
48506.161
27628.281
16967.551
10989.977
7403.1878
5138.4426
3650.945
2642.9743
1942.5376
1445.6765
1087.1576
824.74226
630.34388
484.85715
375.02957
291.51203
227.61203
178.47818
140.55537
111.21513
88.500199
70.945945
57.453979
47.201654
39.576243
34.125509
30.517932
28.506611
27.893329
28.306819
29.496114
31.150709
31.26247
30.181064
27.616654
22.78039
16.582639
10.540592
6.0096614
3.4673727
2.2033119
1.5225088
1.1084199
0.83638825
0.64308823
0.50447246
0.40303818
0.32781425
0.26998588
0.22595507
0.18947668
0.16100675
0.13916538
0.12380409
0.11217257
0.1032224
0.096050723
0.090347944
0.086084555
0.083110269
0.08043892
4530163.2
731944.94
224714.97
95327.348
48507.185
27628.901
16967.975
10990.3
7403.4594
5138.6931
3651.1936
2643.2346
1942.8207
1445.9921
1087.5151
825.15138
630.81525
485.40274
375.66325
292.25012
228.47398
179.48725
141.73973
112.60874
90.14385
72.888048
59.750806
49.916172
42.774679
37.867206
34.83673
33.380295
33.213965
33.723595
34.470809
33.906017
32.437228
29.363304
24.196761
17.78398
11.487169
6.6869931
3.9156428
2.4817
1.703173
1.2396394
0.93651617
0.72054617
0.56453841
0.45017732
0.36428734
0.2999375
0.24929896
0.20855854
0.17572889
0.15239456
0.13397097
0.11976989
0.1083444
0.099881021
0.093260025
0.088793652
0.085141402
0.082383801
0.079899731
4530257.7
731960.24
224719.69
95329.395
48508.277
27629.58
16968.457
10990.686
7403.8023
5139.0249
3651.5355
2643.6026
1943.2277
1446.4502
1088.0362
825.74811
631.50165
486.19475
376.57938
293.31217
229.7079
180.92405
143.4165
114.56971
92.440185
75.569342
62.859881
53.510735
46.895744
42.519621
39.956823
38.775545
38.548032
38.158877
36.895598
34.728192
31.176136
25.673509
19.003479
12.473036
7.4368452
4.4146045
2.7842753
1.8994832
1.3870411
1.0525687
0.81153348
0.63528817
0.50443584
0.40661333
0.33265267
0.27595735
0.23007847
0.19501321
0.16661938
0.14422912
0.12620104
0.11378763
0.10398496
0.097094936
0.091589106
0.087298123
0.083630819
0.081191317
0.079074439
4530355.2
731976.04
224724.59
95331.541
48509.447
27630.331
16969.014
10991.155
7404.2399
5139.4655
3652.0027
2644.1143
1943.7995
1447.0967
1088.7725
826.59029
632.46763
487.30511
377.85814
294.78771
231.41401
182.90073
145.70887
117.22496
95.500895
79.070318
66.833211
57.972507
51.821175
47.811286
45.444124
43.974815
42.339194
40.046862
37.285689
33.109828
27.180814
20.232399
13.507182
8.2617179
4.9718217
3.1279327
2.1286393
1.5599672
1.1870538
0.91542039
0.7154421
0.56641722
0.45497326
0.37125266
0.30645903
0.25634501
0.21605473
0.18333016
0.15593082
0.13698821
0.12240031
0.11114024
0.10194755
0.095191397
0.08944639
0.085658866
0.082592537
0.080685803
0.078719791
4530457.6
731992.59
224729.73
95333.811
48510.706
27631.166
16969.659
10991.721
7404.7884
5140.0334
3652.616
2644.7937
1944.5633
1447.9625
1089.7586
827.71662
633.75645
488.78186
379.55197
296.73176
233.64505
185.45808
148.63432
120.5609
99.287767
83.339754
71.575599
63.096675
57.170827
53.060863
49.911252
46.903217
43.721665
40.15771
35.209131
28.783395
21.560292
14.662366
9.1982935
5.614005
3.5315331
2.3959237
1.7539375
1.3334292
1.0294055
0.80569948
0.63833157
0.51230728
0.41644216
0.34245495
0.2848143
0.23967871
0.20173449
0.17252592
0.14945217
0.13198694
0.11688433
0.10664043
0.098443597
0.092627342
0.088197939
0.084856126
0.081874674
0.079995471
0.07812303
4530563.2
732009.74
224735.1
95336.2
48512.056
27632.09
16970.4
10992.396
7405.4605
5140.743
3653.3916
2645.6585
1945.5382
1449.0679
1091.0155
829.14749
635.38578
490.63642
381.66083
299.12595
236.35642
188.51709
152.06521
124.37518
103.47597
87.864857
76.336605
67.875669
61.574111
56.529217
52.078511
47.865481
43.283431
37.499513
30.553364
23.04717
15.956738
10.241843
6.3371688
3.9927241
2.6972919
1.9669695
1.4962769
1.161549
0.9142837
0.7253276
0.58064033
0.46933337
0.3837336
0.31811582
0.26631946
0.22513925
0.1914698
0.16465043
0.14174369
0.12586578
0.11356268
0.10467527
0.096933397
0.091501706
0.086683978
0.083537677
0.080943345
0.079399562
0.07776681
4530672.5
732027.49
224740.65
95338.706
48513.499
27633.103
16971.238
10993.178
7406.2547
5141.5918
3654.3258
2646.7031
1946.7158
1450.4003
1092.5248
830.85687
637.31961
492.82013
384.11997
301.88417
239.43208
191.91769
155.77902
128.35934
107.64044
92.051692
80.335906
71.38373
64.242272
58.198864
52.667973
46.85825
40.158709
32.629993
24.781654
17.44047
11.433302
7.1854005
4.5507692
3.061594
2.2195862
1.6889569
1.3177195
1.0397179
0.82366754
0.65676263
0.52926657
0.43185512
0.35690723
0.29783365
0.25061639
0.21310315
0.18094455
0.15606706
0.13656527
0.12258803
0.10998282
0.10121819
0.094232461
0.089480561
0.085494245
0.082972733
0.080529964
0.079009504
0.077351085
4530784.7
732045.82
224746.41
95341.321
48515.023
27634.189
16972.148
10994.038
7407.1349
5142.5368
3655.3681
2647.8692
1948.0294
1451.884
1094.2013
832.74866
639.44904
495.20773
386.78255
304.83144
242.66138
195.40656
159.47546
132.17032
111.42042
95.593739
83.367858
73.652617
65.557228
58.327214
51.052385
43.299911
35.085836
26.811495
19.153107
12.811637
8.1910612
5.2224747
3.4912099
2.5060581
1.901968
1.4883759
1.1774589
0.93481735
0.74765675
0.60329073
0.49162434
0.40385971
0.33469138
0.28056156
0.23724907
0.20219238
0.1730785
0.15059005
0.13121089
0.11776991
0.1069265
0.099678156
0.093084474
0.088633501
0.084706559
0.082003472
0.079752072
0.078595369
0.077180368
4530901
732061.39
224749.52
95341.823
48514.985
27634.099
16972.156
10994.195
7407.4631
5143.0474
3656.0704
2648.7726
1949.1445
1453.2227
1095.776
834.57166
641.53058
497.55373
389.39076
307.68626
245.7272
198.61982
162.73622
135.33545
114.30159
97.965307
84.987002
74.319178
64.937966
55.987368
47.047739
38.047
29.256558
21.204837
14.467474
9.4187484
6.0515661
4.0177827
2.8509268
2.1543969
1.6898264
1.3426746
1.0710889
0.85868106
0.69145729
0.55952226
0.45667758
0.37678691
0.31490979
0.26558804
0.22542652
0.19318017
0.16533358
0.14385372
0.12689238
0.11534565
0.10456624
0.0972673
0.091026646
0.087065762
0.083568195
0.081464036
0.079428286
0.078121183
0.076876057
4531685.4
732195.47
224794.66
95363.219
48527.135
27641.891
16977.626
10998.33
7410.7909
5145.8797
3658.6031
2651.1365
1951.4313
1455.4991
1098.0914
836.96177
644.01828
500.14814
392.08428
310.45005
248.50562
201.32473
165.24318
137.48431
115.90634
98.84297
84.893169
72.851726
61.893763
51.509386
41.513547
32.041282
23.474622
16.273349
10.761537
6.9689507
4.605819
3.2347888
2.4300676
1.906182
1.520015
1.2178652
0.97801135
0.78678377
0.6364429
0.51943901
0.428638
0.35636668
0.29845132
0.25231772
0.21504473
0.18457718
0.15893449
0.13972699
0.12299619
0.11147201
0.10189223
0.095720562
0.090153508
0.08638804
0.083060727
0.080857062
0.078962854
0.077879262
0.076711177
4531684.6
732191.78
224791.69
95361.042
48525.656
27640.916
16977.026
10998.027
7410.7403
5146.0536
3658.9855
2651.7187
1952.2084
1456.4681
1099.248
838.29791
645.5185
501.78528
393.81452
312.20748
250.19738
202.82814
166.40882
138.13956
115.82677
97.710809
82.459631
69.087648
56.940472
45.69583
35.345049
26.12261
18.369621
12.346801
8.0876088
5.3449953
3.7184123
2.7646579
2.1593469
1.7260287
1.3901533
1.1211115
0.90461209
0.73293022
0.59710922
0.48873726
0.40297207
0.33524353
0.28254748
0.24026765
0.2053802
0.17724188
0.15279664
0.13414673
0.11918878
0.10952972
0.10006001
0.094001744
0.088455161
0.085108823
0.082061426
0.080266777
0.078493752
0.077549096
0.076563629
4531684.8
732191.9
224791.8
95361.198
48525.86
27641.171
16977.339
10998.404
7411.1867
5146.5763
3659.5904
2652.4108
1952.9911
1457.3411
1100.2061
839.32807
646.597
502.87391
394.85686
313.12625
250.89248
203.16786
166.21859
137.19855
113.93564
94.768614
78.459512
64.15027
51.338337
39.843059
29.736642
21.227158
14.509112
9.6152468
6.3457687
4.3448018
3.1688948
2.4503691
1.9600497
1.5866735
1.2854971
1.0402576
0.8425543
0.68403036
0.55797696
0.45881702
0.38166995
0.31993736
0.27024215
0.23017509
0.19751427
0.17073026
0.14780856
0.13109963
0.11634901
0.10649082
0.097958917
0.09269614
0.087686105
0.084626612
0.081678874
0.079957934
0.078307425
0.077305685
0.076409746
4531684.9
732191.98
224791.86
95361.27
48525.953
27641.291
16977.488
10998.586
7411.4055
5146.8351
3659.8916
2652.755
1953.376
1457.7605
1100.6472
839.76945
647.00532
503.20043
395.03298
313.05755
250.45323
202.21381
164.60558
134.81178
110.70112
90.683141
73.621334
58.777539
45.76132
34.460392
24.938797
17.308096
11.601307
7.6569565
5.1671534
3.6927648
2.817633
2.2474202
1.8241511
1.4839159
1.2053921
0.97839788
0.79473847
0.64819211
0.53176037
0.43845427
0.36427256
0.30498542
0.25865169
0.22135337
0.19036942
0.16540646
0.14348024
0.12704424
0.11354853
0.10513912
0.096624916
0.091355766
0.086621784
0.083654074
0.080989437
0.079393055
0.077957417
0.077082503
0.076291362
4531686.1
732192.08
224791.87
95361.257
48525.935
27641.272
16977.47
10998.57
7411.3926
5146.8255
3659.8842
2652.7461
1953.3585
1457.7213
1100.566
839.61547
646.73461
502.75345
394.33344
312.01459
248.9683
200.18601
161.94607
131.46351
106.66283
86.032489
68.529351
53.504993
40.630038
29.800415
21.022487
14.292184
9.4894261
6.339746
4.4226477
3.290692
2.5869329
2.0933788
1.7089357
1.3952394
1.1366076
0.92442715
0.75241416
0.61412103