/*--------------------------------*- C++ -*----------------------------------*\
  =========                 |
  \\      /  F ield         | OpenFOAM: The Open Source CFD Toolbox
   \\    /   O peration     | Website:  https://openfoam.org
    \\  /    A nd           | Version:  13
     \\/     M anipulation  |
\*---------------------------------------------------------------------------*/
FoamFile
{
    format      ascii;
    class       surfaceScalarField;
    location    "3500";
    object      phi;
}
// * * * * * * * * * * * * * * * * * * * * * * * * * * * * * * * * * * * * * //

dimensions      [0 3 -1 0 0 0 0];

internalField   nonuniform List<scalar> 
18914
(
2.05292e-09
-1.3549626e-09
-6.9797035e-10
9.445034e-09
-4.8800921e-09
-2.5120385e-09
2.4527698e-08
-9.9602299e-09
-5.1224547e-09
5.0494404e-08
-1.7154553e-08
-8.8121796e-09
9.1663879e-08
-2.7211583e-08
-1.3957923e-08
1.5385453e-07
-4.1130567e-08
-2.1060121e-08
2.4488025e-07
-6.0243372e-08
-3.0782377e-08
3.7520597e-07
-8.6322513e-08
-4.4003231e-08
5.5881359e-07
-1.2172365e-07
-6.188399e-08
8.1434433e-07
-1.6957326e-07
-8.5957465e-08
1.1666036e-06
-2.3401531e-07
-1.1824391e-07
1.6485411e-06
-3.2053523e-07
-1.6140222e-07
2.3038519e-06
-4.3638402e-07
-2.1892664e-07
3.1903874e-06
-5.9113324e-07
-2.9540221e-07
4.3846211e-06
-7.9739807e-07
-3.9683563e-07
5.9874811e-06
-1.0717781e-06
-5.3108236e-07
8.1319525e-06
-1.4360758e-06
-7.0839639e-07
1.0992957e-05
-1.9188708e-06
-9.4213489e-07
1.4800154e-05
-2.5575418e-06
-1.2496575e-06
1.9854473e-05
-3.4008531e-06
-1.6534687e-06
2.6549373e-05
-4.5122426e-06
-2.1826591e-06
3.5398059e-05
-5.9739732e-06
-2.8747147e-06
4.7068162e-05
-7.8923359e-06
-3.7777679e-06
6.242565e-05
-1.0404114e-05
-4.953377e-06
8.2590106e-05
-1.3684533e-05
-6.4799266e-06
0.00010900379
-1.7956948e-05
-8.4567418e-06
0.00014351727
-2.3504484e-05
-1.1009014e-05
0.00018849476
-3.0683882e-05
-1.4293626e-05
0.00024694243
-3.994173e-05
-1.8505956e-05
0.0003226634
-5.1833254e-05
-2.3887729e-05
0.00042044318
-6.7043808e-05
-3.0735976e-05
0.00054626946
-8.6413158e-05
-3.9413135e-05
0.00070759055
-0.00011096271
-5.0358396e-05
0.0009136167
-0.00014192583
-6.4100357e-05
0.0011756695
-0.00018078162
-8.12712e-05
0.0015075846
-0.00022929256
-0.00010262264
0.0019261753
-0.0002895466
-0.00012904409
0.0024517633
-0.00036400468
-0.00016158334
0.0031087887
-0.00045555431
-0.00020147121
0.0039265069
-0.00056757072
-0.00025014755
0.0049397901
-0.00070398496
-0.00030929834
0.0061900324
-0.00086936731
-0.0003808751
0.0077262108
-0.0010690113
-0.00046716716
0.0096060186
-0.0013090397
-0.00057076823
0.01189732
-0.0015965848
-0.00069471708
0.014679396
-0.0019395339
-0.00084254175
0.018044968
-0.0023474428
-0.0010181286
0.022101872
-0.0028305591
-0.0012263455
0.026973497
-0.0033999947
-0.0014716296
0.032811624
-0.0040761118
-0.0017620151
0.039759536
-0.0048496064
-0.0020983047
-0.0058335385
0.048098796
-0.0025057199
2.1036736e-09
-3.458653e-09
9.6780832e-09
-1.2454523e-08
2.5131761e-08
-2.541393e-08
5.1736763e-08
-4.3759583e-08
9.3918174e-08
-6.9393024e-08
1.5763781e-07
-1.0485023e-07
2.5090227e-07
-1.5350786e-07
3.8443486e-07
-2.1985512e-07
5.7256287e-07
-3.0985165e-07
8.343883e-07
-4.3139865e-07
1.19533e-06
-5.94957e-07
1.6891529e-06
-8.1435805e-07
2.3606331e-06
-1.1078641e-06
3.2690528e-06
-1.499553e-06
4.4927761e-06
-2.0211216e-06
6.1352239e-06
-2.7142265e-06
8.3326612e-06
-3.6335143e-06
1.1264317e-05
-4.8505283e-06
1.5165495e-05
-6.4587216e-06
2.03445e-05
-8.5798604e-06
2.7204409e-05
-1.1372154e-05
3.6270938e-05
-1.5040504e-05
4.822794e-05
-1.9849341e-05
6.3962364e-05
-2.6138542e-05
8.4620827e-05
-3.4343006e-05
0.00011168031
-4.5016448e-05
0.00014703581
-5.8860007e-05
0.00019310812
-7.6756213e-05
0.00025297517
-9.980879e-05
0.00033053062
-0.00012938873
0.0004306737
-0.0001671869
0.0005595341
-0.0002152736
0.00072473656
-0.00027616523
0.00093570931
-0.00035289867
0.0012040418
-0.00044911422
0.0015438973
-0.00056914813
0.0019724872
-0.00071813665
0.0025106158
-0.00090213341
0.0031833046
-0.0011282433
0.0040205073
-0.0014047738
0.0050579311
-0.0017414092
0.0063379677
-0.0021494043
0.007910775
-0.0026418191
0.0098354603
-0.0032337253
0.012181542
-0.0039426669
0.015030295
-0.0047882858
0.018476696
-0.0057938433
0.022631433
-0.006985294
0.02762081
-0.0083893683
0.033600882
-0.010056179
0.040718213
-0.011966931
-0.014377029
0.049261714
2.1645772e-09
-5.6232464e-09
9.9581495e-09
-2.0248115e-08
2.5858669e-08
-4.131447e-08
5.3232393e-08
-7.1133333e-08
9.6631445e-08
-1.127921e-07
1.6218845e-07
-1.7040727e-07
2.5813883e-07
-2.4945827e-07
3.9551136e-07
-3.5722767e-07
5.8904047e-07
-5.0338077e-07
8.5836929e-07
-7.0072745e-07
1.2296344e-06
-9.6622207e-07
1.7375508e-06
-1.3222744e-06
2.4281499e-06
-1.7984632e-06
3.3623705e-06
-2.4337736e-06
4.6207563e-06
-3.2795076e-06
6.3095934e-06
-4.4030642e-06
8.5689045e-06
-5.8928264e-06
1.1582836e-05
-7.864461e-06
1.5593112e-05
-1.0469e-05
2.0916406e-05
-1.3903156e-05
2.7966665e-05
-1.8422415e-05
3.7283695e-05
-2.4357537e-05
4.9569556e-05
-3.2135205e-05
6.5734646e-05
-4.2303639e-05
8.6955693e-05
-5.5564062e-05
0.00011474819
-7.2808957e-05
0.00015105621
-9.5168042e-05
0.00019836282
-0.00012406284
0.00025982466
-0.00016127064
0.00033943442
-0.00020899849
0.00044221526
-0.00026996776
0.0005744514
-0.00034750978
0.00074395917
-0.00044567303
0.00096040329
-0.00056934283
0.0012356637
-0.00072437473
0.0015842592
-0.00091774362
0.002023834
-0.0011577116
0.002575718
-0.0014540175
0.0032655683
-0.0018180937
0.0041241054
-0.0022633109
0.0051879577
-0.0028052616
0.0065006251
-0.0034620718
0.0081135865
-0.0042547806
0.010087544
-0.0052076828
0.012493903
-0.0063490258
0.015416226
-0.0077106088
0.018952137
-0.0093297544
0.023215631
-0.011248787
0.028336626
-0.013510362
0.034475952
-0.016195505
0.041785124
-0.019276101
-0.023151363
0.050559459
2.2364728e-09
-7.8597355e-09
1.0288734e-08
-2.8300396e-08
2.6716608e-08
-5.7742365e-08
5.4997078e-08
-9.941383e-08
9.9831491e-08
-1.5762655e-07
1.6755256e-07
-2.3812837e-07
2.6666319e-07
-3.4856893e-07
4.0854892e-07
-4.9911341e-07
6.0841817e-07
-7.0325003e-07
8.8654247e-07
-9.7885174e-07
1.2698903e-06
-1.3495699e-06
1.7942745e-06
-1.8466586e-06
2.507174e-06
-2.5113627e-06
3.4714299e-06
-3.3980295e-06
4.7700849e-06
-4.5781629e-06
6.5126982e-06
-6.1456781e-06
8.8435721e-06
-8.2237012e-06
1.1952437e-05
-1.0973328e-05
1.608829e-05
-1.4604855e-05
2.1577245e-05
-1.9392113e-05
2.8845483e-05
-2.5690655e-05
3.8448612e-05
-3.3960669e-05
5.1109046e-05
-4.4795643e-05
6.7763316e-05
-5.8957914e-05
8.9621577e-05
-7.7422331e-05
0.00011824194
-0.00010142933
0.00015562261
-0.00013254872
0.00020431509
-0.00017275534
0.00026756225
-0.00022451782
0.00034946493
-0.00029090119
0.00045518137
-0.00037568423
0.00059116374
-0.00048349218
0.00076543631
-0.00061994564
0.00098792024
-0.00079182681
0.0012708105
-0.001007265
0.0016290112
-0.0012759444
0.002080637
-0.0016093375
0.0026475898
-0.0020209703
0.0033562207
-0.0025267247
0.0042380908
-0.0031451812
0.0053308442
-0.0038980151
0.0066792083
-0.004810436
0.0083361349
-0.0059117073
0.010364117
-0.0072356651
0.012836703
-0.008821611
0.015840061
-0.010713967
0.019474895
-0.012964588
0.023858985
-0.015632877
0.029126662
-0.018778038
0.035443999
-0.022512841
0.042969339
-0.02680144
-0.032185374
0.052003352
2.3198163e-09
-1.0179569e-08
1.0671836e-08
-3.6652437e-08
2.771056e-08
-7.4781111e-08
5.7040991e-08
-1.2874429e-07
1.0353677e-07
-2.0412236e-07
1.7376164e-07
-3.0835327e-07
2.7652701e-07
-4.5133435e-07
4.2362902e-07
-6.4621545e-07
6.3082124e-07
-9.1044228e-07
9.1909735e-07
-1.2671279e-06
1.3163794e-06
-1.7468519e-06
1.8597376e-06
-2.3900168e-06
2.5983043e-06
-3.2499294e-06
3.5970919e-06
-4.3968172e-06
4.9419861e-06
-5.9230573e-06
6.7462631e-06
-7.9499557e-06
9.1590739e-06
-1.0636513e-05
1.2376459e-05
-1.4190714e-05
1.6655606e-05
-1.8884004e-05
2.2333239e-05
-2.5069749e-05
2.9849245e-05
-3.3206665e-05
3.9776883e-05
-4.388831e-05
5.2861229e-05
-5.7879992e-05
7.0067817e-05
-7.6164507e-05
9.26438e-05
-9.9998321e-05
0.00012219429
-0.00013097984
0.00016077701
-0.00017113145
0.0002110185
-0.00022299686
0.00027625588
-0.00028975523
0.00036070788
-0.00037535322
0.00046967962
-0.000484656
0.00060980553
-0.00062361812
0.00078933521
-0.00079947537
0.0010184675
-0.0010209591
0.0013097381
-0.0012985357
0.0016784687
-0.001644675
0.0021432838
-0.0020741527
0.0027267068
-0.0026043933
0.0034558452
-0.0032558633
0.0043631799
-0.004052516
0.0054874702
-0.0050223055
0.0068747993
-0.0061977651
0.0085797543
-0.0076166624
0.01066683
-0.0093227404
0.013211989
-0.01136677
0.016304349
-0.013806327
0.020048155
-0.016708393
0.02456549
-0.020150211
0.029995932
-0.024208479
0.03651133
-0.029028238
0.044278732
-0.034568841
-0.041509895
0.053603255
2.4154289e-09
-1.2595015e-08
1.1111258e-08
-4.5348287e-08
2.8850423e-08
-9.2520298e-08
5.9384485e-08
-1.5927838e-07
1.0778421e-07
-2.5252212e-07
1.808773e-07
-3.8144639e-07
2.8782731e-07
-5.5828439e-07
4.4089889e-07
-7.9928706e-07
6.5646678e-07
-1.1260102e-06
9.5634636e-07
-1.5670074e-06
1.3695435e-06
-2.160049e-06
1.9345557e-06
-2.955029e-06
2.7023892e-06
-4.0177628e-06
3.7405127e-06
-5.4349408e-06
5.1380238e-06
-7.3205686e-06
7.0123892e-06
-9.8243215e-06
9.5182138e-06
-1.3142339e-05
1.2858623e-05
-1.7531125e-05
1.7299982e-05
-2.3325365e-05
2.3190872e-05
-3.0960642e-05
3.0986453e-05
-4.1002249e-05
4.1279609e-05
-5.4181469e-05
5.4840542e-05
-7.144093e-05
7.2666859e-05
-9.3990829e-05
9.6046491e-05
-0.00012337796
0.00012663624
-0.0001615696
0.00016655903
-0.00021105426
0.00021852345
-0.0002749613
0.00028596934
-0.00035720114
0.00037324361
-0.00046262751
0.0004858107
-0.00059722312
0.0006305024
-0.00076830986
0.00081581195
-0.00098478495
0.001052238
-0.0012573852
0.0013526845
-0.0015989823
0.001732924
-0.0020249146
0.0022121326
-0.0025533614
0.0028135072
-0.003205768
0.0035649773
-0.0040073335
0.0045000263
-0.004987565
0.0056586349
-0.0061809142
0.0070883768
-0.0076275071
0.0088456448
-0.0093739304
0.010997157
-0.011474252
0.013621581
-0.013991195
0.016811343
-0.016996089
0.020674711
-0.020571761
0.025338624
-0.024814125
0.030948764
-0.029818618
0.037683342
-0.035762816
0.045719942
-0.04260544
-0.051157288
0.055367337
2.5239191e-09
-1.5118951e-08
1.1609806e-08
-5.4434195e-08
3.0143486e-08
-1.11054e-07
6.2042567e-08
-1.9117749e-07
1.1260097e-07
-3.0308056e-07
1.8894502e-07
-4.5779049e-07
3.0063664e-07
-6.6997605e-07
4.6046964e-07
-9.591201e-07
6.8552021e-07
-1.3510608e-06
9.9853006e-07
-1.8800173e-06
1.4297271e-06
-2.591246e-06
2.0192145e-06
-3.5445164e-06
2.820106e-06
-4.8186542e-06
3.9026278e-06
-6.5174627e-06
5.3594791e-06
-8.7774201e-06
7.3128174e-06
-1.1777661e-05
9.9233472e-06
-1.5752869e-05
1.3402096e-05
-2.1009876e-05
1.8025649e-05
-2.794892e-05
2.4155765e-05
-3.7090761e-05
3.2264544e-05
-4.9111031e-05
4.2966575e-05
-6.4883504e-05
5.7059795e-05
-8.5534154e-05
7.5577104e-05
-0.00011250814
9.9851213e-05
-0.00014765208
0.0001315955
-0.0001933139
0.00017300413
-0.0002524629
0.00022687502
-0.00032883222
0.00029675961
-0.00042708577
0.00038714373
-0.00055301167
0.00050366414
-0.00071374357
0.00065336567
-0.00091801143
0.00084500418
-0.0011764235
0.0010894013
-0.0015017824
0.0013998574
-0.0019094385
0.0017926309
-0.0024176881
0.0022874923
-0.0030482229
0.0029083662
-0.0038266419
0.0036840719
-0.0047830393
0.0046491815
-0.0059526747
0.0058450066
-0.0073767394
0.0073207523
-0.0091032528
0.0091347917
-0.01118797
0.011356297
-0.013695757
0.014066943
-0.01670184
0.017362832
-0.020291978
0.021356759
-0.024565687
0.026181089
-0.029638454
0.031988462
-0.035625991
0.038964094
-0.042738447
0.047297826
-0.050939171
-0.061160832
0.057301372
2.6459461e-09
-1.7764915e-08
1.2170494e-08
-6.3958764e-08
3.1597567e-08
-1.304811e-07
6.5031224e-08
-2.2461118e-07
1.1801594e-07
-3.5606531e-07
1.9801315e-07
-5.3778773e-07
3.1503131e-07
-7.8699426e-07
4.8245727e-07
-1.1265461e-06
7.181524e-07
-1.5867559e-06
1.0458955e-06
-2.2077604e-06
1.4972796e-06
-3.0426301e-06
2.1142018e-06
-4.1614386e-06
2.9521268e-06
-5.6565792e-06
4.0843541e-06
-7.6496901e-06
5.6075914e-06
-1.0300658e-05
7.6492129e-06
-1.3819283e-05
1.0376691e-05
-1.8480348e-05
1.4009815e-05
-2.4643002e-05
1.8836481e-05
-3.2775588e-05
2.5232999e-05
-4.3487283e-05
3.3690149e-05
-5.7568185e-05
4.4846408e-05
-7.6039767e-05
5.9530151e-05
-0.0001002179
7.8812951e-05
-0.00013179095
0.00010407645
-0.00017291559
0.0001370957
-0.00022633316
0.00018014233
-0.00029550956
0.00023611117
-0.00038480108
0.00030867442
-0.00049964905
0.00040246792
-0.0006468052
0.00052331409
-0.00083458979
0.00067848691
-0.0010731843
0.00087702438
-0.001374961
0.0011300948
-0.0017548528
0.0014514237
-0.0022307675
0.0018577908
-0.0028240553
0.0023696052
-0.0035600374
0.0030115741
-0.0044686108
0.0038134759
-0.0055849412
0.0048110591
-0.0069502579
0.0060470786
-0.0086127589
0.0075725138
-0.010628688
0.0094478946
-0.01306335
0.011745083
-0.015992946
0.014549067
-0.019505824
0.017960002
-0.023702913
0.022095707
-0.028701391
0.02709456
-0.034637307
0.033117
-0.04164843
0.040355904
-0.049977349
0.04901495
-0.059598216
-0.071553953
0.059408071
2.7819667e-09
-2.0546899e-08
1.2795423e-08
-7.3972242e-08
3.3218172e-08
-1.5090387e-07
6.8361844e-08
-2.5975488e-07
1.2404972e-07
-4.1175322e-07
2.0811613e-07
-6.2185419e-07
3.31066e-07
-9.0994417e-07
5.0694537e-07
-1.3024255e-06
7.5448749e-07
-1.8342981e-06
1.0986219e-06
-2.5518949e-06
1.5724563e-06
-3.5164644e-06
2.2198756e-06
-4.8088579e-06
3.0989471e-06
-6.5356507e-06
4.2863709e-06
-8.837114e-06
5.8832855e-06
-1.1897572e-05
8.0228219e-06
-1.595882e-05
1.0879915e-05
-2.1337443e-05
1.4684005e-05
-2.8447093e-05
1.9735418e-05
-3.7827004e-05
2.6426451e-05
-5.0178319e-05
3.5268346e-05
-6.6410086e-05
4.6925713e-05
-8.7697138e-05
6.2260171e-05
-0.00011555237
8.2385425e-05
-0.00015191621
0.00010873631
-0.00019926648
0.00014315479
-0.00026075166
0.00018799634
-0.00034035113
0.0002462604
-0.00044306517
0.00032174931
-0.000575138
0.00041926015
-0.00074431608
0.00054481454
-0.00096014423
0.00070593192
-0.0012343017
0.00091195204
-0.0015809812
0.0011744136
-0.0020173144
0.0015074965
-0.0025638505
0.001928537
-0.0032450959
0.0024586271
-0.0040901277
0.0031233113
-0.0051332951
0.0039533966
-0.0064150266
0.0049858958
-0.0079827571
0.0062651186
-0.0098919817
0.0078439627
-0.012207532
0.009785287
-0.015004675
0.01216388
-0.018371538
0.015068344
-0.022410288
0.018603262
-0.027237831
0.022891965
-0.032990094
0.028079421
-0.039824762
0.034334665
-0.047903673
0.041858908
-0.057501591
0.050871037
-0.068610344
-0.082369292
0.061686378
2.9323397e-09
-2.3479257e-08
1.3486293e-08
-8.4526217e-08
3.5009471e-08
-1.7242708e-07
7.2042963e-08
-2.9678841e-07
1.3071789e-07
-4.7042819e-07
2.1927983e-07
-7.1041617e-07
3.4878165e-07
-1.039446e-06
5.3399559e-07
-1.4876395e-06
7.946163e-07
-2.0949189e-06
1.1568406e-06
-2.9141193e-06
1.6554427e-06
-4.0150665e-06
2.3364938e-06
-5.489909e-06
3.2609228e-06
-7.4600798e-06
4.5091628e-06
-1.0085354e-05
6.1872117e-06
-1.3575622e-05
8.434513e-06
-1.8206121e-05
1.1434172e-05
-2.4337104e-05
1.542618e-05
-3.2439102e-05
2.0724446e-05
-4.3125273e-05
2.7738694e-05
-5.719257e-05
3.7002459e-05
-7.5673855e-05
4.9208761e-05
-9.9903446e-05
6.5255302e-05
-0.00013159891
8.6301426e-05
-0.00017296234
0.00011383948
-0.00022680455
0.00014978364
-0.00029669584
0.0001965796
-0.00038714711
0.00025733923
-0.00050382483
0.00033600432
-0.00065380314
0.00043754443
-0.00084585624
0.00056819388
-0.0010907937
0.00073573369
-0.0014018416
0.00094982478
-0.0017950724
0.0012223997
-0.0022898894
0.001568121
-0.0029095719
0.0020049167
-0.0036818916
0.0025546045
-0.0046398156
0.0032436199
-0.0058223105
0.004103866
-0.0072752727
0.0051737051
-0.0090525961
0.006499112
-0.011217389
0.0081350421
-0.013843462
0.010146846
-0.017016478
0.012612467
-0.020837159
0.015624419
-0.025422239
0.019292062
-0.030905474
0.023744705
-0.037442736
0.029134454
-0.045214511
0.035639675
-0.054408893
0.043470569
-0.065332485
0.052862379
-0.078002154
-0.093637636
0.064130724
3.0972111e-09
-2.6576486e-08
1.4243634e-08
-9.5672662e-08
3.6973184e-08
-1.9515665e-07
7.6077973e-08
-3.3589323e-07
1.3802628e-07
-5.3237654e-07
2.3151416e-07
-8.039041e-07
3.6819352e-07
-1.1761255e-06
5.6363155e-07
-1.6830776e-06
8.3857352e-07
-2.3698609e-06
1.2206008e-06
-3.2961466e-06
1.7463074e-06
-4.5407732e-06
2.4641518e-06
-6.2077534e-06
3.438182e-06
-8.43411e-06
4.7529006e-06
-1.1400073e-05
6.5195996e-06
-1.5342321e-05
8.8845877e-06
-2.057111e-05
1.2039854e-05
-2.7492371e-05
1.6236844e-05
-3.6636094e-05
2.18042e-05
-4.8692632e-05
2.9170524e-05
-6.4558898e-05
3.8893472e-05
-8.5396807e-05
5.1696751e-05
-0.00011270673
6.8516968e-05
-0.00014841914
9.0562605e-05
-0.00019500799
0.00011938782
-0.00025562977
0.00015698419
-0.00033429222
0.00020589402
-0.00043605697
0.00026934921
-0.00056728006
0.00035144021
-0.00073589418
0.00045732003
-0.00095173611
0.00059344875
-0.0012269225
0.00076788461
-0.0015762775
0.00099062842
-0.0020178162
0.001274029
-0.0025732901
0.0016332589
-0.0032688018
0.0020868709
-0.0041355037
0.0026574493
-0.005210394
0.0033723713
-0.0065372325
0.0042647001
-0.0081676015
0.005374228
-0.010162124
0.0067486984
-0.012591859
0.008445257
-0.015540021
0.010531889
-0.01910311
0.013089914
-0.023395184
0.016216027
-0.028548352
0.02002469
-0.034714136
0.024651599
-0.042069645
0.030256508
-0.05081942
0.037027749
-0.061180132
0.045185147
-0.073489883
0.054981219
-0.087798225
-0.10538675
0.06673033
3.2764614e-09
-2.9852965e-08
1.5067049e-08
-1.0746327e-07
3.9107951e-08
-2.1919758e-07
8.0464262e-08
-3.7724957e-07
1.4597028e-07
-5.978826e-07
2.4481105e-07
-9.0274491e-07
3.8928884e-07
-1.3206033e-06
5.9583322e-07
-1.889622e-06
8.8632864e-07
-2.6603564e-06
1.2898574e-06
-3.6996753e-06
1.8449866e-06
-5.0959024e-06
2.6027573e-06
-6.9655242e-06
3.6305938e-06
-9.4619465e-06
5.0174012e-06
-1.278688e-05
6.8801902e-06
-1.720511e-05
9.3726837e-06
-2.3063604e-05
1.2696455e-05
-3.0816143e-05
1.7115298e-05
-4.1054938e-05
2.2973716e-05
-5.4551053e-05
3.072062e-05
-7.2305806e-05
4.0939562e-05
-9.5615754e-05
5.4387166e-05
-0.00012615434
7.2041716e-05
-0.00016607369
9.5164229e-05
-0.00021813051
0.00012537483
-0.00028584038
0.00016474757
-0.00037366498
0.00021592746
-0.00048723689
0.00028227377
-0.00063362641
0.00036803436
-0.00082165482
0.0004785561
-0.0010622579
0.00062053718
-0.0013689036
0.00080232775
-0.0017580681
0.0010342859
-0.0022497745
0.0013291976
-0.0028682019
0.0017027703
-0.0036423746
0.0021742121
-0.0046069455
0.0027669108
-0.0058030927
0.0035092316
-0.0072795534
0.0044354553
-0.0090938252
0.0055868763
-0.011313545
0.0070131025
-0.014018085
0.008773586
-0.017300504
0.010939068
-0.021268592
0.013594442
-0.026050557
0.016840823
-0.031794733
0.020798045
-0.038671358
0.025608545
-0.046880144
0.031440142
-0.056651017
0.03849165
-0.068231639
0.046993125
-0.081991358
0.057215145
-0.098020244
-0.1176404
0.069468801
3.4697051e-09
-3.3322688e-08
1.5954681e-08
-1.1994827e-07
4.1409195e-08
-2.4465212e-07
8.5192286e-08
-4.210327e-07
1.545326e-07
-6.6722295e-07
2.5914151e-07
-1.0073539e-06
4.1202149e-07
-1.4734833e-06
6.3053015e-07
-2.1081307e-06
9.3777692e-07
-2.9676032e-06
1.3644582e-06
-4.1263567e-06
1.9512592e-06
-5.6827035e-06
2.7519976e-06
-7.7662625e-06
3.8377222e-06
-1.0547671e-05
5.302057e-06
-1.4251215e-05
7.2681463e-06
-1.9171199e-05
9.8976564e-06
-2.5693115e-05
1.3402417e-05
-3.4320905e-05
1.8059429e-05
-4.5711952e-05
2.423014e-05
-6.0721767e-05
3.2385126e-05
-8.0460796e-05
4.3135551e-05
-0.00010636618
5.7273085e-05
-0.00014029188
7.5820294e-05
-0.00018462091
0.00010009396
-0.00024240418
0.00013178408
-0.00031753051
0.00017305195
-0.00041493287
0.00022665096
-0.00054083593
0.00029607458
-0.00070305007
0.00038573611
-0.0009113164
0.00050118579
-0.0011777076
0.00064937115
-0.0015170891
0.00083894731
-0.0019476444
0.0010806452
-0.0024914724
0.0013877061
-0.0031752629
0.0017763944
-0.004031063
0.0022665994
-0.0050971506
0.0028825447
-0.006419038
0.0036536223
-0.008050631
0.0046153794
-0.010055582
0.0058106732
-0.012508839
0.0072910599
-0.015498472
0.0091183874
-0.019127831
0.011366241
-0.023516446
0.014123273
-0.028807589
0.017495185
-0.035166644
0.021607406
-0.042783579
0.026609357
-0.051882094
0.03267724
-0.0627189
0.040020696
-0.075575095
0.048880615
-0.090851276
0.059546729
-0.10868636
-0.13042964
0.072335968
3.6762152e-09
-3.6998922e-08
1.6903162e-08
-1.3317523e-07
4.3867913e-08
-2.7161689e-07
9.0243441e-08
-4.6740826e-07
1.6367938e-07
-7.4065893e-07
2.7444901e-07
-1.1181235e-06
4.363019e-07
-1.6353363e-06
6.675845e-07
-2.3394134e-06
9.9271314e-07
-3.2927319e-06
1.4441048e-06
-4.5777484e-06
2.0647014e-06
-6.3033001e-06
2.911275e-06
-8.6128361e-06
4.0587324e-06
-1.1695128e-05
5.6057196e-06
-1.5798202e-05
7.6818975e-06
-2.1247378e-05
1.045737e-05
-2.8468587e-05
1.4154852e-05
-3.8018388e-05
1.9065346e-05
-5.0622447e-05
2.5568255e-05
-6.7224678e-05
3.4157089e-05
-8.9049634e-05
4.5472192e-05
-0.00011768129
6.0342221e-05
-0.00015516191
7.9836442e-05
-0.00020411514
0.00010533031
-0.00026789807
0.00013858729
-0.0003507875
0.00018186012
-0.00045820572
0.00023801571
-0.00059699154
0.00031068767
-0.00077572205
0.00040446179
-0.0010050906
0.00052509989
-0.0012983458
0.00067980828
-0.0016717975
0.00087755815
-0.0021453943
0.0011294659
-0.0027433802
0.0014492431
-0.0034950403
0.0018537283
-0.0044355482
0.0023635128
-0.0056069351
0.0030036804
-0.0070592056
0.0038046794
-0.0088516301
0.0048033601
-0.011054263
0.0060441867
-0.013749665
0.0075807395
-0.017035024
0.0094772959
-0.021024387
0.011810342
-0.025849492
0.014672478
-0.031669724
0.018174022
-0.038668188
0.022446179
-0.047055736
0.027645462
-0.057081377
0.033956613
-0.069030051
0.041600215
-0.083218697
0.050828381
-0.10007944
0.061951498
-0.11980947
-0.14377616
0.075298018
3.8948476e-09
-4.0893787e-08
1.7907251e-08
-1.4718766e-07
4.6470799e-08
-3.0018047e-07
9.5590675e-08
-5.1652816e-07
1.7336153e-07
-8.1842982e-07
2.9065102e-07
-1.2354131e-06
4.6199823e-07
-1.8066835e-06
7.0679568e-07
-2.5842109e-06
1.0508402e-06
-3.6367764e-06
1.5283631e-06
-5.0552714e-06
2.1846915e-06
-6.9596286e-06
3.079714e-06
-9.5078586e-06
4.2924046e-06
-1.2907819e-05
5.9267009e-06
-1.7432498e-05
8.1191284e-06
-2.3439805e-05
1.1048669e-05
-3.1398128e-05
1.4949487e-05
-4.1919207e-05
2.0127299e-05
-5.580026e-05
2.6980351e-05
-7.4077732e-05
3.6026198e-05
-9.8095483e-05
4.793575e-05
-0.00012959085
6.3576356e-05
-0.00017080253
8.4066058e-05
-0.00022460485
0.00011084152
-0.00029467353
0.00014574263
-0.00038568862
0.00019111724
-0.00050358035
0.00024994992
-0.00065582424
0.00032601934
-0.00085179152
0.00042408944
-0.0011031607
0.00055013997
-0.0014243964
0.0007116433
-0.0018333009
0.00091789475
-0.0023516458
0.0011804053
-0.0030058908
0.0015133672
-0.0038280022
0.0019342045
-0.0048563855
0.0024642239
-0.0061369546
0.0031293845
-0.0077243662
0.0039612085
-0.0096834542
0.0049978689
-0.012090923
0.006285462
-0.015037258
0.0078796688
-0.018629231
0.0098471198
-0.022991838
0.012267223
-0.028269595
0.015236835
-0.034639337
0.018870564
-0.042301917
0.023305648
-0.05149082
0.028705587
-0.062481315
0.035263608
-0.075588072
0.043210989
-0.091166077
0.052810636
-0.10967909
0.064391217
-0.13139005
-0.15766517
0.078280224
4.1239409e-09
-4.5017746e-08
1.8959445e-08
-1.6202318e-07
4.9198143e-08
-3.3041919e-07
1.0119303e-07
-5.6852308e-07
1.835052e-07
-9.0074203e-07
3.0762378e-07
-1.3595317e-06
4.8891448e-07
-1.9879743e-06
7.4786346e-07
-2.8431599e-06
1.1117107e-06
-4.0006237e-06
1.6165868e-06
-5.5601476e-06
2.3103078e-06
-7.6533495e-06
3.2560181e-06
-1.0453569e-05
4.5369384e-06
-1.4188739e-05
6.2625244e-06
-1.9158084e-05
8.5764608e-06
-2.5753742e-05
1.1666979e-05
-3.4488646e-05
1.578016e-05
-4.6032388e-05
2.1237026e-05
-6.1257128e-05
2.8455405e-05
-8.1296113e-05
3.797781e-05
-0.00010761789
5.0506839e-05
-0.00014211988
6.6949908e-05
-0.0001872456
8.8475472e-05
-0.00024613042
0.00011658337
-0.00032278144
0.00015319227
-0.00042229753
0.00020074774
-0.00055113584
0.00026235513
-0.00071743164
0.00034194161
-0.00093137803
0.00044445298
-0.0012056721
0.00057609107
-0.0015560345
0.00074459857
-0.0020018085
0.00095959933
-0.0025666466
0.0012330034
-0.003279295
0.001579488
-0.0041744868
0.0020170671
-0.0052939646
0.0025677666
-0.0066876542
0.0032584245
-0.0084150241
0.004121639
-0.010546669
0.0051969005
-0.013166185
0.0065319302
-0.016372288
0.0081845948
-0.020281896
0.010223552
-0.025030795
0.012731715
-0.030777758
0.015809729
-0.037717351
0.01957615
-0.046068337
0.02417472
-0.05608939
0.029775457
-0.068082051
0.036579772
-0.082392388
0.044829028
-0.099415333
0.054795987
-0.11964605
0.06682451
-0.14341858
-0.1720741
0.081233443
4.3614886e-09
-4.9379252e-08
2.0050348e-08
-1.7771206e-07
5.2025768e-08
-3.6239464e-07
1.0700095e-07
-6.234983e-07
1.9401996e-07
-9.8776108e-07
3.2521611e-07
-1.4907279e-06
5.1681014e-07
-2.1795684e-06
7.904204e-07
-3.1167702e-06
1.1747797e-06
-4.384983e-06
1.7079821e-06
-6.09335e-06
2.4404153e-06
-8.3857829e-06
3.438588e-06
-1.1451742e-05
4.7901013e-06
-1.5540253e-05
6.6101087e-06
-2.0978092e-05
9.0496708e-06
-2.8193304e-05
1.2306549e-05
-3.7745525e-05
1.6639092e-05
-5.0364931e-05
2.2384056e-05
-6.7002093e-05
2.9979382e-05
-8.8891441e-05
3.9993192e-05
-0.0001176317
5.316056e-05
-0.00015528726
7.0429883e-05
-0.00020451493
9.3021134e-05
-0.00026872167
0.00012249857
-0.00035225888
0.00016086102
-0.00046065999
0.00021065336
-0.00060092819
0.00027510326
-0.00078188156
0.00035828798
-0.0010145628
0.0004653367
-0.0013127209
0.0006026744
-0.0016933723
0.00077831471
-0.0021774488
0.0010022098
-0.0027905418
0.0012866674
-0.0035637527
0.0016468467
-0.0045346661
0.0021013465
-0.0057484645
0.0026729047
-0.0072592124
0.0033892267
-0.0091313461
0.0042839686
-0.011441411
0.0053978938
-0.01428011
0.0067802466
-0.017754641
0.0084911312
-0.02199278
0.010601227
-0.02714089
0.013197353
-0.033373883
0.016382292
-0.040902289
0.020279885
-0.04996593
0.025039666
-0.06084917
0.030837512
-0.073879897
0.037882525
-0.0894374
0.046425252
-0.10795806
0.056747184
-0.12996798
0.069204947
-0.15587634
-0.18697911
0.084109961
4.6045713e-09
-5.3983841e-08
2.1166621e-08
-1.9427413e-07
5.4918921e-08
-3.9614696e-07
1.1294345e-07
-6.8152286e-07
2.0477763e-07
-1.0795953e-06
3.4321318e-07
-1.6291635e-06
5.4534482e-07
-2.3817001e-06
8.3394725e-07
-3.4053727e-06
1.2392769e-06
-4.7903127e-06
1.8014316e-06
-6.6555048e-06
2.5734246e-06
-9.1577758e-06
3.6251923e-06
-1.2503509e-05
5.0488034e-06
-1.6963864e-05
6.96521e-06
-2.2894498e-05
9.5329822e-06
-3.0761076e-05
1.295957e-05
-4.1172112e-05
1.7515785e-05
-5.4921147e-05
2.3554357e-05
-7.3040666e-05
3.1533617e-05
-9.6870703e-05
4.2047622e-05
-0.00012814571
5.5864272e-05
-0.00016910391
7.3973351e-05
-0.00022262401
9.7646733e-05
-0.00029239506
0.00012851346
-0.00038312562
0.00016865281
-0.00050079934
0.00022070903
-0.00065298442
0.0002880319
-0.00084920446
0.00037484811
-0.001101379
0.0004864687
-0.0014243415
0.00062953937
-0.001836443
0.00081234071
-0.0023602502
0.0010451474
-0.0030233485
0.0013406563
-0.0038592616
0.0017144967
-0.0049085065
0.0021858369
-0.0062198047
0.0027781064
-0.007851482
0.0035198569
-0.0098730965
0.0044457912
-0.012367345
0.0055979922
-0.015432311
0.0070275851
-0.019184233
0.0087953713
-0.023760566
0.010973381
-0.0293189
0.013653362
-0.036053864
0.016942618
-0.044191545
0.020969006
-0.053992316
0.025884029
-0.065764194
0.031870674
-0.079866541
0.039144861
-0.096711588
0.047965068
-0.11677827
0.058620107
-0.14062302
0.071476948
-0.16873318
-0.20234224
0.086840083
4.8501432e-09
-5.8834001e-08
2.2294213e-08
-2.1171821e-07
5.7841265e-08
-4.3169404e-07
1.1894508e-07
-7.426267e-07
2.1564118e-07
-1.1762914e-06
3.61385e-07
-1.7749074e-06
5.7415266e-07
-2.5944678e-06
8.7788348e-07
-3.7091036e-06
1.3043695e-06
-5.2167988e-06
1.8957236e-06
-7.2468589e-06
2.7076002e-06
-9.9696524e-06
3.8133821e-06
-1.3609291e-05
5.309624e-06
-1.8460105e-05
7.3230971e-06
-2.4907971e-05
1.0019901e-05
-3.345788e-05
1.3617192e-05
-4.4769403e-05
1.8398251e-05
-5.9702206e-05
2.473177e-05
-7.9374185e-05
3.3096428e-05
-0.00010523536
4.4112125e-05
-0.00013916141
5.8579418e-05
-0.0001835712
7.7529187e-05
-0.00024157378
0.00010228474
-0.00031715062
0.00013453917
-0.00041538005
0.00017645108
-0.00054271127
0.00023076244
-0.00070729579
0.00030094276
-0.0009193848
0.00039136462
-0.0011918009
0.00050751608
-0.001540493
0.00065625672
-0.0019851837
0.00084612471
-0.0025501182
0.0010877044
-0.0032649282
0.0013940647
-0.0041656219
0.0017812821
-0.005295724
0.0022690638
-0.0067075864
0.0028814898
-0.008463908
0.0036478989
-0.010639506
0.0046039458
-0.013323392
0.005792849
-0.016621214
0.0072668142
-0.020658198
0.0090880768
-0.025581828
0.011333747
-0.03156457
0.014096319
-0.038816435
0.017483822
-0.047579048
0.021629004
-0.058137498
0.026688521
-0.070823711
0.032850128
-0.086028148
0.040335101
-0.10419656
0.04940808
-0.12585125
0.060363399
-0.15157834
0.0735755
-0.18194528
-0.21810752
0.089340776
5.0935818e-09
-6.39276e-08
2.3412015e-08
-2.3003666e-07
6.0737983e-08
-4.6902003e-07
1.2489377e-07
-8.0678251e-07
2.2640817e-07
-1.2778059e-06
3.7939379e-07
-1.927893e-06
6.0269806e-07
-2.8177721e-06
9.2141301e-07
-4.0278186e-06
1.3688482e-06
-5.664234e-06
1.9891098e-06
-7.8671206e-06
2.8404585e-06
-1.0821001e-05
3.9996795e-06
-1.4768512e-05
5.56775e-06
-2.0028176e-05
7.6771821e-06
-2.7017403e-05
1.0501483e-05
-3.6282181e-05
1.4267358e-05
-4.8535278e-05
1.927034e-05
-6.4705188e-05
2.5894774e-05
-8.599862e-05
3.4639286e-05
-0.00011397987
4.6149036e-05
-0.00015067116
6.1256476e-05
-0.00019867865
8.1032486e-05
-0.0002613498
0.00010685035
-0.00034296848
0.00014046517
-0.00044899488
0.00018411216
-0.00058635826
0.00024062724
-0.00076381088
0.0003135946
-0.00099235218
0.00040752596
-0.0012857323
0.00052807732
-0.0016610444
0.0006823101
-0.0021394165
0.00087900426
-0.0027468124
0.001129033
-0.0035149569
0.0014458103
-0.0044823993
0.0018458246
-0.0056957384
0.0023492759
-0.0072110376
0.0029808348
-0.0090954669
0.0037705479
-0.011429219
0.0047549138
-0.014307758
0.0059781503
-0.017844451
0.0074936394
-0.022173687
0.0093658166
-0.027454005
0.011673653
-0.033872406
0.014510287
-0.041653069
0.017987728
-0.051056489
0.022240877
-0.062390647
0.027430157
-0.076012991
0.033747017
-0.092345007