/*--------------------------------*- C++ -*----------------------------------*\
  =========                 |
  \\      /  F ield         | OpenFOAM: The Open Source CFD Toolbox
   \\    /   O peration     | Website:  https://openfoam.org
    \\  /    A nd           | Version:  13
     \\/     M anipulation  |
\*---------------------------------------------------------------------------*/
FoamFile
{
    format      ascii;
    class       volVectorField;
    location    "3500";
    object      U;
}
// * * * * * * * * * * * * * * * * * * * * * * * * * * * * * * * * * * * * * //

dimensions      [0 1 -1 0 0 0 0];

internalField   nonuniform List<vector> 
9536
(
(1.920379e-08 -7.3988933e-07 5.3543301e-25)
(3.0427886e-07 -2.325331e-06 -3.4839745e-25)
(9.6164771e-07 -4.1423839e-06 -1.2413848e-25)
(2.1703384e-06 -6.2263786e-06 -1.4277865e-24)
(4.1315518e-06 -8.6198212e-06 3.1983874e-24)
(7.1378144e-06 -1.1370998e-05 -2.9792783e-25)
(1.1576629e-05 -1.4535041e-05 -8.4586978e-26)
(1.7964221e-05 -1.8174606e-05 -1.0540607e-24)
(2.698646e-05 -2.2360606e-05 -9.832927e-25)
(3.9551643e-05 -2.7172922e-05 -5.3440296e-25)
(5.6858953e-05 -3.270103e-05 2.0078877e-24)
(8.0486857e-05 -3.9044498e-05 -3.2878064e-24)
(0.0001125067 -4.6313247e-05 4.2033608e-24)
(0.00015562794 -5.4627479e-05 2.5711082e-24)
(0.00021338288 -6.411707e-05 -4.3637774e-24)
(0.0002903598 -7.4920293e-05 -2.4916315e-24)
(0.00039249535 -8.7181543e-05 2.9721692e-24)
(0.00052743745 -0.00010104783 -3.2753556e-24)
(0.0007049915 -0.00011666357 -5.756933e-24)
(0.00093766169 -0.00013416339 -2.8235953e-24)
(0.0012412984 -0.00015366233 1.0136084e-23)
(0.0016358584 -0.00017524307 7.2957081e-24)
(0.0021462775 -0.00019893979 -1.2364529e-23)
(0.0028034469 -0.00022471828 -1.148248e-23)
(0.003645264 -0.00025245227 1.8999565e-23)
(0.0047177148 -0.00028189635 -5.702273e-24)
(0.0060759103 -0.0003126563 -1.8865668e-23)
(0.0077849773 -0.0003441584 1.0892216e-23)
(0.0099206654 -0.00037562006 -2.0829848e-24)
(0.012569512 -0.00040602519 2.2599965e-23)
(0.015828385 -0.00043410809 -1.5119593e-23)
(0.01980324 -0.00045835051 2.7315487e-23)
(0.024606939 -0.00047699594 8.9775493e-23)
(0.030356086 -0.00048808441 -6.6311306e-23)
(0.037166891 -0.00048950927 1.3779342e-22)
(0.045150243 -0.00047909421 8.1602122e-23)
(0.05440626 -0.00045468665 1.621977e-23)
(0.065018839 -0.00041425903 -1.6804509e-22)
(0.077050314 -0.00035601011 -1.5041804e-22)
(0.090537801 -0.00027845949 -3.9008612e-22)
(0.10548863 -0.00018051435 2.6614679e-22)
(0.1218828 -6.1561735e-05 2.7028637e-22)
(0.13966373 7.8522561e-05 -6.4101499e-22)
(0.1587616 0.00023943433 -1.4452624e-22)
(0.17904741 0.00041979155 -7.626772e-22)
(0.20044357 0.00062005346 -1.162031e-22)
(0.22269988 0.00083586819 -1.2974024e-22)
(0.24586736 0.0010706026 1.232443e-21)
(0.26937023 0.0013152287 -1.1562571e-21)
(0.29378223 0.0015735226 1.6478857e-22)
(0.3176652 0.0018483462 -3.7439495e-22)
(0.34278197 0.0020755722 2.4138963e-22)
(2.8487751e-07 -5.4125014e-06 1.6094139e-24)
(1.1399356e-06 -1.7009764e-05 -5.1845352e-25)
(2.4511784e-06 -3.0292781e-05 -9.7494988e-25)
(4.4107536e-06 -4.5519083e-05 -4.2134469e-24)
(7.235135e-06 -6.2987122e-05 2.8701192e-24)
(1.1234454e-05 -8.3037494e-05 3.1377591e-24)
(1.6816516e-05 -0.0001060595 2.5218067e-24)
(2.4520943e-05 -0.00013249693 -4.9685938e-24)
(3.506054e-05 -0.00016285442 2.3794614e-24)
(4.9374593e-05 -0.00019770412 8.1440722e-24)
(6.869789e-05 -0.00023769254 -1.1721459e-23)
(9.4649753e-05 -0.0002835474 7.8534812e-24)
(0.00012934833 -0.00033608412 1.197807e-24)
(0.00017555659 -0.00039621149 -1.3250391e-23)
(0.00023686785 -0.00046493607 9.7318668e-24)
(0.00031793977 -0.0005433643 -1.4059528e-23)
(0.0004247875 -0.0006327015 1.7605768e-23)
(0.00056514745 -0.00073424636 -3.7249187e-23)
(0.00074892403 -0.00084937936 3.6679137e-23)
(0.00098873152 -0.00097954324 -1.2844931e-23)
(0.0013005414 -0.0011262133 5.0222292e-23)
(0.0017044422 -0.0012908553 -8.3383408e-23)
(0.0022255115 -0.0014748687 8.9328762e-23)
(0.0028947895 -0.0016795126 -3.9165991e-23)
(0.0037503286 -0.0019058142 4.6149695e-23)
(0.0048382705 -0.0021544583 -5.1762819e-23)
(0.0062138782 -0.0024256613 6.1687951e-23)
(0.00794242 -0.0027190323 -5.329779e-23)
(0.01009977 -0.0030334319 3.6959754e-23)
(0.012772562 -0.0033668382 7.0716059e-23)
(0.016057731 -0.003716236 -1.7640798e-22)
(0.020061253 -0.0040775473 5.2756694e-23)
(0.024895968 -0.0044456217 1.3743182e-23)
(0.030678409 -0.0048143011 1.9341181e-22)
(0.037524665 -0.0051765707 -4.8010968e-22)
(0.045545469 -0.0055247937 -2.0651678e-22)
(0.054840748 -0.0058510225 -8.5554096e-23)
(0.0654942 -0.0061473506 1.1070326e-22)
(0.077567962 -0.006406301 3.3079203e-22)
(0.091098978 -0.0066211403 7.2943239e-22)
(0.10609445 -0.0067862634 -3.579408e-22)
(0.12253429 -0.0068972039 3.8016193e-23)
(0.14036195 -0.0069512788 1.2727553e-21)
(0.15950759 -0.0069463045 -4.5118553e-22)
(0.17984264 -0.0068839015 1.4657584e-21)
(0.20128956 -0.0067606431 9.3182272e-22)
(0.2235986 -0.0065856094 -1.1392755e-21)
(0.24682187 -0.006349078 -7.8527939e-22)
(0.27038091 -0.0060689973 3.1454852e-23)
(0.29486063 -0.0057465167 -4.0354505e-21)
(0.31879275 -0.0053352597 -2.7793042e-21)
(0.34402179 -0.0051164071 -3.8525616e-22)
(8.9001221e-07 -1.0185768e-05 3.117825e-24)
(3.0436522e-06 -3.2010285e-05 -9.0776288e-25)
(5.845047e-06 -5.7005538e-05 -3.8298269e-24)
(9.5165199e-06 -8.5656151e-05 4.2600559e-24)
(1.4309494e-05 -0.00011852181 1.4938885e-25)
(2.0574439e-05 -0.00015624143 -6.9542168e-24)
(2.8765702e-05 -0.00019954533 6.3855496e-24)
(3.9476557e-05 -0.00024926618 7.0214839e-24)
(5.3481602e-05 -0.00030635112 -5.7627626e-24)
(7.179121e-05 -0.00037187437 1.8021439e-25)
(9.5721851e-05 -0.00044705053 -1.7538402e-23)
(0.00012698655 -0.00053324772 1.3641468e-23)
(0.00016781078 -0.00063200039 -6.8862397e-24)
(0.00022108015 -0.00074502079 1.0990981e-23)
(0.00029052772 -0.00087420823 -8.1383083e-24)
(0.00038096995 -0.0010216546 -1.029637e-23)
(0.00049860172 -0.0011896443 -3.7848801e-24)
(0.00065136183 -0.0013806467 8.0355095e-23)
(0.00084938141 -0.0015972976 -4.2226142e-23)
(0.0011055268 -0.0018423669 -8.0669572e-24)
(0.0014360472 -0.0021187084 1.1470707e-23)
(0.0018613343 -0.0024291875 -7.1823311e-23)
(0.0024067918 -0.0027765828 6.661042e-23)
(0.0031038055 -0.0031634568 -1.0168645e-23)
(0.0039907864 -0.0035919949 -5.5348839e-23)
(0.0051142394 -0.0040638105 -1.2927244e-22)
(0.006529784 -0.0045797197 7.2755422e-23)
(0.0083030233 -0.0051394946 -5.6884424e-24)
(0.010510127 -0.005741607 -2.9848604e-23)
(0.013237972 -0.0063829839 1.3722956e-23)
(0.016583656 -0.0070588021 2.5036077e-22)
(0.02065323 -0.0077623517 -2.1681588e-22)
(0.025559506 -0.0084850027 -1.0161744e-22)
(0.031418879 -0.0092163031 1.5269344e-22)
(0.038347196 -0.0099442251 5.5128021e-22)
(0.046454859 -0.010655563 6.3015916e-22)
(0.0558414 -0.011336463 -2.7525302e-22)
(0.066590096 -0.011973035 2.2896745e-22)
(0.078762675 -0.012552025 1.0238378e-23)
(0.092395734 -0.013061361 -6.177822e-22)
(0.10749623 -0.013490842 9.9757018e-23)
(0.12404398 -0.013832107 -6.0004388e-22)
(0.14198251 -0.014079816 -1.1079189e-21)
(0.16124212 -0.014229375 4.0701132e-22)
(0.18169509 -0.014282472 -8.8836785e-22)
(0.20326429 -0.014232917 -1.1852579e-21)
(0.2257008 -0.014094116 -2.0673394e-21)
(0.24905965 -0.01385052 -9.2571966e-22)
(0.27275607 -0.013528309 -1.6098091e-21)
(0.2974004 -0.013133719 5.1459138e-21)
(0.32145764 -0.012578763 4.4885441e-21)
(0.34695148 -0.012352684 -2.5484783e-21)
(1.8606427e-06 -1.5064868e-05 -7.0016749e-25)
(6.0972408e-06 -4.7342927e-05 -3.9609977e-24)
(1.1288897e-05 -8.4308783e-05 1.4179027e-23)
(1.7706308e-05 -0.0001266784 -9.4661819e-24)
(2.5656898e-05 -0.00017527773 4.0934149e-26)
(3.5555773e-05 -0.00023104968 -7.7075908e-24)
(4.7931852e-05 -0.00029507187 1.9052065e-23)
(6.3464374e-05 -0.00036857299 -9.4391932e-24)
(8.3026929e-05 -0.00045295047 -1.0966349e-23)
(0.00010774377 -0.0005497894 6.628601e-25)
(0.00013906219 -0.00066088201 7.6991396e-24)
(0.00017884529 -0.00078824734 8.6466347e-26)
(0.00022949031 -0.00093415024 1.309015e-23)
(0.00029407914 -0.0011011186 1.5333568e-23)
(0.0003765684 -0.0012919575 -4.5971552e-23)
(0.00048202846 -0.0015097575 1.1278461e-23)
(0.00061694132 -0.0017578961 -6.2512928e-24)
(0.00078956907 -0.0020400267 1.2248751e-23)
(0.0010104046 -0.0023600531 1.7174346e-23)
(0.0012927163 -0.002722084 1.8186007e-23)
(0.0016531965 -0.0031303605 -3.329454e-23)
(0.0021127196 -0.0035891536 7.9199437e-23)
(0.0026972093 -0.0041026218 -1.5054912e-22)
(0.003438602 -0.0046746264 8.4510109e-23)
(0.0043758806 -0.0053084992 -3.5706512e-24)
(0.0055561294 -0.0060067613 -7.5120682e-23)
(0.0070355364 -0.0067707987 -3.7511348e-23)
(0.0088802397 -0.0076005051 7.3895929e-23)
(0.011166885 -0.0084939109 -3.8089871e-22)
(0.013982732 -0.0094468281 3.9921566e-22)
(0.017425149 -0.01045255 -1.8884023e-22)
(0.02160031 -0.011501649 1.8398105e-22)
(0.026620986 -0.012581923 -1.9890766e-22)
(0.032603359 -0.013678527 -3.1598451e-22)
(0.039662903 -0.01477432 -7.8939727e-23)
(0.0479095 -0.015850428 -6.31542e-22)
(0.057442067 -0.016886998 6.1581386e-22)
(0.068343222 -0.01786407 8.2627706e-22)
(0.080674063 -0.018762538 -4.2569339e-22)
(0.094470651 -0.019564933 8.6358255e-22)
(0.10973959 -0.020256394 6.9591751e-22)
(0.12646053 -0.020824646 6.5107173e-22)
(0.14457721 -0.021261609 1.6860143e-21)
(0.16402017 -0.021560366 4.1326074e-22)
(0.18466298 -0.021722527 -2.3249936e-21)
(0.20642934 -0.021739266 1.397111e-21)
(0.22907148 -0.021628075 2.0671368e-21)
(0.25264932 -0.021367577 4.1483713e-21)
(0.27656795 -0.02099272 1.8662652e-21)
(0.30147768 -0.020511667 -7.5942172e-21)
(0.32573936 -0.019804512 2.4523877e-21)
(0.35165479 -0.019541903 4.6689719e-21)
(3.2260918e-06 -2.0050605e-05 -1.7699138e-24)
(1.0392761e-05 -6.3009946e-05 1.3736032e-23)
(1.8946515e-05 -0.000112206 -1.5343539e-23)
(2.9225912e-05 -0.00016859023 9.2655719e-24)
(4.1616929e-05 -0.00023325967 2.3032222e-24)
(5.6625312e-05 -0.00030746647 6.257951e-26)
(7.4884526e-05 -0.00039264148 -1.576037e-23)
(9.7194279e-05 -0.00049041581 1.2107825e-23)
(0.00012456687 -0.00060264434 -1.387733e-23)
(0.00015828604 -0.00073143067 -3.8329564e-24)
(0.00019998226 -0.00087915293 7.6243932e-24)
(0.00025172867 -0.0010484898 1.6405933e-23)
(0.00031616289 -0.0012424458 -1.1323877e-23)
(0.00039664126 -0.0014643739 -2.0829511e-23)
(0.00049743293 -0.001717994 4.4521856e-23)
(0.00062396295 -0.002007405 -6.8653658e-24)
(0.00078311427 -0.0023370854 1.024352e-23)
(0.00098359998 -0.0027118797 2.5907382e-23)
(0.0012364173 -0.0031369651 -1.2128111e-22)
(0.0015553946 -0.0036177906 2.4217074e-22)
(0.0019578405 -0.0041599834 -8.4345419e-23)
(0.002465301 -0.0047692127 7.111462e-24)
(0.0031044212 -0.0054510038 -1.3799318e-22)
(0.0039079013 -0.0062104958 2.2002202e-22)
(0.0049155164 -0.0070521363 -3.3138297e-22)
(0.0061751525 -0.0079793139 2.6572521e-22)
(0.0077437835 -0.0089939329 -1.3613708e-22)
(0.009688286 -0.010095945 2.5551236e-23)
(0.01208596 -0.011282866 1.3714352e-22)
(0.015024596 -0.012549307 1.3454764e-22)
(0.018601927 -0.013886585 3.1394656e-23)
(0.022924292 -0.015282457 1.3738789e-22)
(0.028104402 -0.016721045 1.9869879e-22)
(0.034258142 -0.018183012 3.608717e-23)
(0.041500459 -0.019646008 5.4988562e-22)
(0.049940515 -0.021085404 6.6581211e-22)
(0.059676375 -0.022475275 -5.0736703e-22)
(0.070789746 -0.023789528 -1.4100159e-21)
(0.08334086 -0.025003159 -7.792239e-22)
(0.097365046 -0.026093267 -9.9425093e-22)
(0.11286842 -0.027040302 -7.1213931e-22)
(0.12983045 -0.027828073 5.267309e-23)
(0.14819512 -0.028445683 -6.0126287e-22)
(0.16789342 -0.028884014 -1.3466581e-21)
(0.1888006 -0.029144465 -3.5091161e-21)
(0.21084164 -0.029215623 1.1960048e-21)
(0.23377023 -0.029118991 8.3243941e-22)
(0.25765313 -0.028826836 -3.6387032e-21)
(0.2818815 -0.028384618 -2.4695051e-21)
(0.30715984 -0.02779593 1.4821361e-20)
(0.33170789 -0.026926399 -6.2322087e-21)
(0.35820297 -0.026582529 2.9625353e-21)
(5.0195461e-06 -2.5143237e-05 2.1558174e-24)
(1.6034403e-05 -7.9011757e-05 7.2965234e-24)
(2.900327e-05 -0.00014069717 -2.5957935e-23)
(4.4353502e-05 -0.00021139038 5.3941262e-25)
(6.2573868e-05 -0.00029246383 7.3626278e-24)
(8.428865e-05 -0.00038548374 8.8622059e-24)
(0.00011026797 -0.00049223937 1.5061844e-23)
(0.00014146895 -0.0006147699 -2.1208299e-23)
(0.000179085 -0.00075539364 -7.2054626e-24)
(0.00022460807 -0.00091673904 -1.5546639e-23)
(0.00027990758 -0.0011017767 4.8881315e-24)
(0.00034733045 -0.0013138516 7.3498112e-24)
(0.00042982749 -0.0015567144 2.1487658e-23)
(0.00053111235 -0.0018345492 -3.7258828e-23)
(0.00065586077 -0.0021519965 9.2179712e-23)
(0.00080995886 -0.0025141672 -2.6287237e-23)
(0.0010008103 -0.0029266434 9.3300094e-23)
(0.0012377133 -0.0033954605 -4.5665845e-23)
(0.0015323188 -0.0039270652 -8.8771334e-23)
(0.0018991803 -0.0045282391 -3.4648491e-23)
(0.0023564035 -0.005205981 -4.3687097e-23)
(0.0029264012 -0.0059673376 4.7445189e-23)
(0.0036367495 -0.006819172 1.0863806e-22)
(0.0045211318 -0.0077678617 -1.0002127e-23)
(0.0056203418 -0.00881892 9.867505e-24)
(0.006983294 -0.009976541 -7.4563567e-23)
(0.0086679682 -0.011243073 -1.8120559e-22)
(0.010742184 -0.012618439 2.5102197e-22)
(0.013284073 -0.014099542 4.9522955e-23)
(0.016382098 -0.015679688 8.9925218e-23)
(0.020134446 -0.017348106 -3.774088e-22)
(0.024647656 -0.019089623 2.1226252e-22)
(0.030034343 -0.02088458 1.029697e-22)
(0.036409993 -0.022709043 -7.2477306e-22)
(0.04388886 -0.024535368 -1.3995213e-21)
(0.05257917 -0.026333098 -1.2094146e-21)
(0.062577879 -0.028070181 -6.4046583e-22)
(0.073965515 -0.029714364 1.4949377e-21)
(0.086801191 -0.031234724 2.569447e-21)
(0.1011193 -0.032602931 1.8007001e-22)
(0.11692533 -0.03379474 -1.0596764e-22)
(0.13419853 -0.034790069 -3.0973767e-21)
(0.15288319 -0.035575141 1.6701918e-21)
(0.17291088 -0.036138791 -2.6474383e-21)
(0.19415899 -0.03648209 2.9701328e-21)
(0.21655421 -0.036591018 -5.970235e-21)
(0.23985197 -0.036491152 -5.0855495e-22)
(0.26412771 -0.036147398 -4.1587678e-21)
(0.28875516 -0.035618571 -3.3599439e-21)
(0.31450614 -0.034894076 -8.2798795e-21)
(0.33942433 -0.033849885 9.3605012e-21)
(0.36665504 -0.033364711 -8.5877111e-21)
(7.277954e-06 -3.0339329e-05 2.4436653e-24)
(2.313812e-05 -9.5337295e-05 -1.6436211e-23)
(4.1665371e-05 -0.00016976205 6.5770459e-24)
(6.3398368e-05 -0.00025504743 1.6994263e-23)
(8.8954736e-05 -0.00035284514 7.9884845e-24)
(0.00011910723 -0.00046503955 -1.7550954e-23)
(0.00015479705 -0.00059378274 8.1617531e-25)
(0.00019717826 -0.00074152653 -7.3121235e-24)
(0.00024767074 -0.00091105741 -1.0251991e-23)
(0.00030802654 -0.0011055334 4.7967182e-24)
(0.00038041341 -0.0013285222 2.4435721e-23)
(0.00046751987 -0.0015840393 3.2560102e-23)
(0.00057268706 -0.001876585 -2.1632726e-23)
(0.00070007363 -0.0022111771 -4.5965605e-23)
(0.00085486116 -0.0025933775 1.1181384e-22)
(0.0010435088 -0.003029308 -9.7797626e-23)
(0.0012740666 -0.0035256497 6.2850401e-23)
(0.0015565586 -0.0040896209 -3.975126e-23)
(0.0019034453 -0.0047289243 9.525296e-23)
(0.0023301767 -0.0054516546 -1.5517719e-22)
(0.002855843 -0.0062661552 -1.0026435e-22)
(0.0035039258 -0.0071808141 -2.4957158e-23)
(0.0043031465 -0.0082037849 2.097882e-22)
(0.0052883965 -0.0093426245 -7.8628879e-23)
(0.0065017173 -0.010603841 -9.5073323e-23)
(0.0079932805 -0.011992347 1.8373924e-22)
(0.009822292 -0.013510837 1.9336997e-22)
(0.012057716 -0.015159095 -2.0689502e-22)
(0.014778688 -0.01693329 1.6224669e-22)
(0.018074473 -0.018825294 -6.4438114e-22)
(0.022043795 -0.020822118 4.3547954e-23)
(0.026793409 -0.022905536 3.8216262e-25)
(0.032435785 -0.025051988 4.6864545e-22)
(0.03908589 -0.027232849 6.8341974e-22)
(0.046857103 -0.029415097 1.7754563e-21)
(0.055856473 -0.031562398 9.8460029e-22)
(0.066179573 -0.033636546 2.1502618e-21)
(0.077905468 -0.035599121 2.9734355e-22)
(0.091091883 -0.037413308 -3.214354e-21)
(0.10577206 -0.039045378 1.4938173e-21)
(0.12195069 -0.040466427 2.1658671e-21)
(0.13960681 -0.04165253 2.5867976e-21)
(0.15868498 -0.042586972 -3.5434239e-21)
(0.17911752 -0.043256751 1.6008915e-21)
(0.20078443 -0.043662503 2.5786599e-21)
(0.22361446 -0.043787507 2.3633321e-21)
(0.24736512 -0.043661624 -1.03384e-22)
(0.27212205 -0.043240954 -2.8760001e-21)
(0.2972386 -0.04260149 1.3238485e-20)
(0.32356529 -0.04170596 -6.524122e-21)
(0.34893811 -0.040472346 -8.6116862e-21)
(0.37705455 -0.039770639 4.2333131e-22)
(1.004238e-05 -3.5632469e-05 -6.2285076e-25)
(3.1832749e-05 -0.00011196609 -1.1596582e-23)
(5.7161871e-05 -0.00019936354 1.3826261e-23)
(8.6703939e-05 -0.00029950451 4.6206432e-24)
(0.00012123347 -0.00041432305 -1.7366276e-23)
(0.00016170385 -0.00054602491 2.1019619e-24)
(0.00020926428 -0.00069712824 1.6763781e-23)
(0.00026530805 -0.00087050077 -1.7126443e-23)
(0.00033152997 -0.0010694002 9.2966447e-25)
(0.00040999755 -0.001297517 -1.381783e-23)
(0.00050324005 -0.0015590181 1.8101931e-23)
(0.00061435952 -0.0018585908 3.9304396e-23)
(0.00074716916 -0.0022014851 1.8729015e-23)
(0.00090636518 -0.0025935506 -7.9527166e-23)
(0.0010977395 -0.0030412663 7.271004e-24)
(0.0013284417 -0.0035517574 9.3423071e-24)
(0.0016072999 -0.0041327923 2.5718236e-23)
(0.00194521 -0.004792755 -6.7281952e-23)
(0.0023556039 -0.0055405807 1.1157915e-22)
(0.0028550055 -0.0063856449 8.45497e-23)
(0.0034636818 -0.0073375943 2.5519618e-23)
(0.0042063899 -0.0084061051 6.4232823e-23)
(0.0051132151 -0.0096005558 1.8139124e-22)
(0.0062204831 -0.010929603 -3.5092809e-22)
(0.0075717137 -0.012400655 3.1564986e-22)
(0.0092185633 -0.014019234 -2.5858774e-22)
(0.01122168 -0.015788254 9.5884411e-23)
(0.013651366 -0.017707226 4.8443276e-22)
(0.016587926 -0.019771436 -2.8882137e-23)
(0.020121544 -0.021971177 -6.2109601e-22)
(0.024351548 -0.024291093 2.0756783e-22)
(0.029384906 -0.026709766 1.4864177e-22)
(0.035333876 -0.029199616 -4.5341911e-22)
(0.042312763 -0.031727229 -9.4566033e-23)
(0.050433866 -0.034254142 9.6555661e-22)
(0.059802797 -0.036738109 -2.0795305e-21)
(0.070513451 -0.039134773 -2.5832066e-21)
(0.082643128 -0.041399587 -1.3237176e-21)
(0.096247882 -0.043489896 -1.6009685e-21)
(0.11135957 -0.045366649 2.122118e-21)
(0.12798193 -0.046996358 -3.4952295e-21)
(0.14609374 -0.048351333 -1.2478078e-23)
(0.16563976 -0.049411858 5.0638116e-21)
(0.18655327 -0.050163389 2.4600124e-21)
(0.2087173 -0.050606025 -3.5072455e-21)
(0.23206294 -0.050720184 -1.6715998e-21)
(0.25635013 -0.050540338 6.9275718e-22)
(0.2816759 -0.050011991 1.3903214e-20)
(0.30737091 -0.049232937 1.0053889e-21)
(0.33437338 -0.048124252 -1.9628565e-21)
(0.36028481 -0.046683638 -3.4958407e-21)
(0.38942707 -0.045675485 1.304565e-20)
(1.3357815e-05 -4.1011327e-05 3.9644085e-24)
(4.2259399e-05 -0.00012886227 8.9640401e-24)
(7.5743565e-05 -0.00022943719 -7.1701905e-24)
(0.0001146461 -0.00034466379 2.952151e-23)
(0.00015992858 -0.00047676058 -2.4395687e-23)
(0.00021275952 -0.00062825672 -2.1494794e-23)
(0.00027453566 -0.00080203834 2.0905543e-23)
(0.00034693483 -0.0010013907 -1.1553565e-23)
(0.00043197843 -0.0012300438 -4.66437e-23)
(0.00053210841 -0.0014922208 1.0006193e-22)
(0.00065028269 -0.0017926872 -5.6222246e-23)
(0.00079009307 -0.0021368001 -9.9973835e-23)
(0.00095591116 -0.0025305549 9.2278689e-23)
(0.0011530682 -0.0029806266 2.1887869e-23)
(0.0013880762 -0.003494401 4.6718071e-23)
(0.0016688982 -0.0040799919 -5.57395e-23)
(0.0020052771 -0.0047462354 7.6171194e-24)
(0.0024091326 -0.0055026541 7.8525676e-23)
(0.0028950349 -0.0063593801 3.4395197e-24)
(0.003480764 -0.007327025 -2.6072044e-22)
(0.0041879603 -0.0084164815 3.9705263e-22)
(0.0050428658 -0.0096386436 -5.3072175e-22)
(0.0060771495 -0.011004029 5.0095752e-22)
(0.0073287984 -0.012522293 -1.4853821e-22)
(0.0088430385 -0.014201623 6.9971866e-23)
(0.010673233 -0.016048017 -1.8676007e-22)
(0.012881679 -0.01806446 3.0147698e-22)
(0.015540204 -0.020250024 -7.5724673e-22)
(0.018730428 -0.022598947 1.1374352e-22)
(0.022543557 -0.025099767 8.249059e-22)
(0.027079563 -0.0277346 -2.8981314e-22)
(0.032445609 -0.030478688 -2.5501626e-22)
(0.038753644 -0.033300308 -6.7782975e-22)
(0.046117149 -0.036161165 -7.5643855e-22)
(0.054647109 -0.039017307 1.6921252e-21)
(0.064447415 -0.041820569 1.2267667e-21)
(0.075609974 -0.044520482 -1.4441132e-21)
(0.088209994 -0.04706644 5.8393508e-22)
(0.10230156 -0.049410059 2.4419913e-21)
(0.1179149 -0.051507083 -3.9126639e-21)
(0.1350526 -0.053319563 1.1915879e-21)
(0.15369319 -0.054816141 -7.6878947e-21)
(0.17378145 -0.055974038 2.9735092e-21)
(0.19525177 -0.056777577 8.4749757e-22)
(0.21799071 -0.057226211 -1.7225073e-22)
(0.24193183 -0.057297277 -4.0648115e-21)
(0.2668379 -0.057030299 6.3640708e-21)
(0.29281795 -0.056358133 -5.7231679e-22)
(0.31917865 -0.055405602 -3.036356e-21)
(0.34695185 -0.054035158 1.9184988e-20)
(0.37348384 -0.052366892 1.9293924e-20)
(0.4037778 -0.050948592 -4.4131993e-21)
(1.7273148e-05 -4.6459092e-05 -4.4182782e-24)
(5.4571373e-05 -0.00014597274 -1.0445221e-23)
(9.7682835e-05 -0.00025988791 2.000007e-23)
(0.00014763294 -0.00039038142 -4.0031797e-23)
(0.00020560273 -0.00053995709 2.7473857e-23)
(0.00027301287 -0.00071146807 2.3891283e-23)
(0.00035154999 -0.00090816857 1.2018471e-23)
(0.00044322477 -0.0011337608 -4.1014551e-23)
(0.00055044033 -0.0013924458 -2.6042388e-23)
(0.00067607581 -0.001688977 1.2402282e-22)
(0.00082358893 -0.0020287141 -4.6242249e-23)
(0.00099714189 -0.0024176779 -1.325164e-22)
(0.0012017558 -0.0028626003 3.1859815e-23)
(0.0014434993 -0.0033709689 1.3224357e-22)
(0.0017297192 -0.0039510598 -2.0452721e-22)
(0.0020693202 -0.004611953 1.4426876e-22)
(0.0024731022 -0.0053635227 -1.3929241e-22)
(0.0029541651 -0.0062163927 2.6368293e-22)
(0.0035283889 -0.0071818445 -1.2906045e-22)
(0.0042149955 -0.0082716656 1.749245e-22)
(0.0050371976 -0.0094979215 -2.6091672e-22)
(0.0060229328 -0.010872635 3.1155474e-22)
(0.0072056732 -0.012407356 -3.8870057e-22)
(0.0086252904 -0.014112614 1.4748714e-22)
(0.010328939 -0.015997234 1.7428722e-22)
(0.012371901 -0.018067527 -6.6132874e-23)
(0.014818321 -0.020326374 -2.148852e-23)
(0.017741717 -0.022772218 3.8807656e-22)
(0.021225152 -0.025398057 -1.1337648e-22)
(0.025360936 -0.028190483 -2.7727537e-22)
(0.030249702 -0.031128906 -7.8229839e-22)
(0.035998758 -0.034185071 1.7985816e-21)
(0.042719622 -0.03732299 -1.5952622e-21)
(0.050524754 -0.040499408 1.9244459e-21)
(0.05952357 -0.043664854 -1.481071e-22)
(0.069817934 -0.046765267 -1.0452075e-21)
(0.081497422 -0.049744137 -5.9715555e-22)
(0.094634815 -0.052544924 3.7385513e-22)
(0.10928191 -0.055113669 1.4409238e-21)
(0.12546705 -0.057401072 -1.4742251e-21)
(0.14319144 -0.059364911 7.8084447e-22)
(0.16243339 -0.060970275 4.3598408e-21)
(0.18313735 -0.062191252 -7.1317527e-21)
(0.20523909 -0.06301159 4.5248626e-22)
(0.22862909 -0.063429977 4.2182784e-21)
(0.2532434 -0.063420393 9.4603398e-21)
(0.27884804 -0.063027951 -3.172744e-22)
(0.30556402 -0.062170682 -1.6194286e-21)
(0.3326738 -0.061006013 5.2290733e-21)
(0.36130524 -0.059319436 -1.1282674e-20)
(0.38853616 -0.057399669 -1.5959228e-21)
(0.42008936 -0.055455008 -9.5640755e-21)
(2.1840695e-05 -5.1951826e-05 -7.3830903e-24)
(6.8932673e-05 -0.00016322206 2.2008885e-24)
(0.00012327099 -0.00029058086 -1.0845833e-23)
(0.00018610074 -0.00043645397 -9.4095151e-24)
(0.00025885724 -0.00060362977 3.3849447e-23)
(0.0003432529 -0.00079528407 2.3176457e-23)
(0.00044130948 -0.0010150371 -8.8192343e-23)
(0.00055542205 -0.0012670051 1.1012167e-23)
(0.00068843409 -0.0015558557 8.1464231e-23)
(0.00084372844 -0.0018868662 -4.1769963e-23)
(0.001025338 -0.0022659828 -2.1349386e-23)
(0.0012380803 -0.0026998786 -3.4223887e-23)
(0.0014877217 -0.0031960076 7.0202144e-23)
(0.0017811755 -0.0037626511 -1.3814884e-22)
(0.0021267433 -0.0044089509 -1.3497046e-23)
(0.0025344039 -0.0051449219 1.2220787e-22)
(0.0030161612 -0.0059814372 -8.688052e-23)
(0.0035864562 -0.0069301719 -6.3988413e-23)
(0.0042626534 -0.0080034957 2.9823156e-22)
(0.0050656045 -0.0092142972 4.7807086e-23)
(0.0060202947 -0.010575723 3.0230565e-23)
(0.0071565669 -0.012100817 -1.9878258e-23)
(0.0085099118 -0.013802035 -4.7424779e-22)
(0.010122303 -0.01569063 3.9785157e-22)
(0.012043034 -0.017775898 -4.1102808e-23)
(0.01432951 -0.020064277 1.8812662e-22)
(0.017047898 -0.02255834 -4.7832474e-22)
(0.020273553 -0.025255693 2.2699545e-22)
(0.024091086 -0.028147874 9.7201033e-22)
(0.02859396 -0.031219323 -7.2447219e-22)
(0.033883458 -0.034446553 1.0000335e-21)
(0.040066947 -0.037797651 -8.2852646e-22)
(0.047255359 -0.041232246 1.1126642e-21)
(0.055559911 -0.044702061 -1.1559072e-21)
(0.06508816 -0.048152096 -4.3870007e-22)
(0.075939606 -0.051522454 6.2470814e-23)
(0.088201139 -0.054750704 4.076304e-21)
(0.10194275 -0.057774538 1.8190184e-21)
(0.1172136 -0.060534634 -1.7884091e-21)
(0.1340399 -0.062976866 2.3782858e-21)
(0.15242121 -0.065054993 -5.9914875e-21)
(0.1723357 -0.066730673 -6.44179e-22)
(0.19372687 -0.067974792 4.104963e-21)
(0.21653225 -0.068771259 -3.5592357e-21)
(0.24064666 -0.069117873 3.1608232e-21)
(0.26600834 -0.068984924 -3.9582406e-21)
(0.29238704 -0.068423741 -1.9008687e-20)
(0.31991507 -0.067335373 3.7683728e-21)
(0.34785161 -0.065915511 -8.7557744e-21)
(0.37741902 -0.063853719 1.1945466e-21)
(0.40542195 -0.061655545 -1.5430158e-20)
(0.43831971 -0.059057072 1.1007289e-20)
(2.7115681e-05 -5.7457366e-05 7.3676125e-24)
(8.5516381e-05 -0.00018050896 -1.1988836e-23)
(0.00015281537 -0.00032133531 5.3360861e-24)
(0.00023050966 -0.00048260921 2.0293036e-23)
(0.00032032603 -0.00066740078 2.3864426e-23)
(0.00042431093 -0.00087920498 -3.1259146e-23)
(0.00054486947 -0.0011220033 -5.8951958e-23)
(0.00068483589 -0.0014003197 4.0073859e-23)
(0.00084755623 -0.0017192804 2.806833e-23)
(0.0010369874 -0.0020846767 -5.1218086e-23)
(0.0012578168 -0.0025030277 1.1709748e-22)
(0.001515607 -0.0029816424 -3.6192738e-23)
(0.0018169695 -0.0035286757 4.9520386e-23)
(0.0021697743 -0.0041531762 -7.9376568e-23)
(0.0025834018 -0.0048651182 -1.2698293e-22)
(0.0030690427 -0.0056754106 1.2051521e-22)
(0.0036400552 -0.0065958742 -4.6119871e-23)
(0.0043123858 -0.0076391732 5.9677899e-23)
(0.0051050602 -0.0088186898 -1.1009762e-22)
(0.0060407491 -0.010148322 4.4434808e-23)
(0.0071464092 -0.01164219 4.2660202e-23)
(0.0084539944 -0.013314227 -1.7587751e-22)
(0.010001224 -0.015177646 2.641141e-22)
(0.01183238 -0.017244256 -1.4536435e-22)
(0.013999096 -0.019523627 -3.403779e-22)
(0.016561078 -0.022022117 1.333117e-24)
(0.019586673 -0.024741762 -8.5165727e-23)
(0.023153193 -0.027679097 7.6068623e-22)
(0.027346872 -0.030823967 -1.0641429e-21)
(0.032262336 -0.034158437 1.2053408e-21)
(0.03800147 -0.037655922 -2.6601158e-22)
(0.044671581 -0.041280694 -4.2793174e-22)
(0.052382823 -0.04498789 -1.5729241e-21)
(0.061244906 -0.048724162 -3.5345082e-22)
(0.071363209 -0.05242901 -1.9445611e-21)
(0.082834509 -0.056036798 -6.2139462e-22)
(0.095742622 -0.059479337 1.1149615e-21)
(0.11015436 -0.062688778 1.6731848e-21)
(0.12611594 -0.065600711 -3.1637967e-21)
(0.14365109 -0.068156449 3.7156673e-21)
(0.16275749 -0.070306092 1.7064182e-21)
(0.18341329 -0.072007941 7.3202019e-21)
(0.20555997 -0.073229679 2.788942e-21)
(0.22913773 -0.073956265 -6.3139253e-21)
(0.25404567 -0.074184526 -5.0051509e-22)
(0.28022394 -0.073880648 -4.4347168e-21)
(0.30744637 -0.0731029 1.8485366e-20)
(0.33585519 -0.071733374 -4.9726452e-21)
(0.36468842 -0.070011502 1.5293698e-20)
(0.39525727 -0.067512194 6.180153e-21)
(0.42409826 -0.065005915 -1.4589089e-20)
(0.45839946 -0.061613544 -2.1044883e-20)
(3.3155209e-05 -6.2933562e-05 -1.4588106e-23)
(0.00010450143 -0.00019770091 3.3100734e-23)
(0.00018663362 -0.00035191496 -4.6638518e-24)
(0.00028133512 -0.00052849162 7.4729859e-24)
(0.00039066381 -0.00073077757 -4.4817067e-23)
(0.00051704519 -0.0009625804 7.4551319e-24)
(0.00066331884 -0.0012282349 2.8815696e-23)
(0.0008328163 -0.0015326628 -1.0020711e-23)
(0.0010294518 -0.0018814367 3.2351201e-23)
(0.0012578305 -0.0022808465 2.0634488e-23)
(0.0015233778 -0.0027379655 -5.1350797e-23)
(0.0018324947 -0.0032607153 -4.3208409e-23)
(0.0021927423 -0.0038579232 -4.5394616e-23)
(0.0026130638 -0.0045393702 2.6390136e-23)
(0.0031040465 -0.00531582 8.5066721e-23)
(0.0036782342 -0.0061990234 -6.4580772e-23)
(0.0043504932 -0.0072016856 2.0746203e-22)
(0.0051384416 -0.008337384 4.4275605e-23)
(0.0060629445 -0.0096204212 -1.9519271e-22)
(0.0071486795 -0.011065597 4.1551361e-23)
(0.0084247703 -0.012687874 -1.5948362e-23)
(0.0099254823 -0.014501931 -4.3745591e-22)
(0.011690962 -0.016521564 5.6102403e-22)
(0.013767995 -0.018758942 1.5750582e-23)
(0.016210736 -0.021223698 4.4297623e-24)
(0.019081349 -0.023921872 -2.4837047e-22)
(0.02245049 -0.026854718 7.6200858e-22)
(0.026397514 -0.030017444 -8.5517718e-22)
(0.03101031 -0.033397953 -1.9976075e-22)
(0.036384648 -0.036975701 -1.3789474e-22)
(0.04262292 -0.040720806 -5.5148964e-22)
(0.049832209 -0.044593569 6.6991405e-22)
(0.058121655 -0.048544544 1.1523711e-21)
(0.067599164 -0.052515292 -1.7364156e-21)
(0.078367581 -0.056439875 1.6780142e-21)
(0.090520573 -0.06024706 -3.4098045e-21)
(0.10413847 -0.063863119 -5.0424111e-21)
(0.11928452 -0.06721495 -2.8593536e-21)
(0.1360016 -0.070233389 -5.3277397e-22)
(0.15431066 -0.072855529 -3.4202943e-21)
(0.17420722 -0.07502827 3.3469338e-21)
(0.19566968 -0.076706496 -4.2930016e-21)
(0.21863552 -0.077854996 -3.1930184e-21)
(0.24304975 -0.078460608 2.5101702e-21)
(0.26881468 -0.07851928 -1.1464054e-20)
(0.2958722 -0.077992555 1.7269103e-20)
(0.32400047 -0.076946468 6.7183141e-21)
(0.35334946 -0.07524255 1.6608335e-21)
(0.38313939 -0.073169038 -2.5275508e-20)
(0.41476056 -0.070168776 -5.793655e-22)
(0.44449826 -0.067322952 9.9619675e-21)
(0.4802392 -0.062997121 2.8082748e-20)
(4.001718e-05 -6.832715e-05 4.5256348e-24)
(0.00012606918 -0.00021463046 -1.9052248e-23)
(0.00022504756 -0.00038202143 4.7692533e-23)
(0.00033905853 -0.00057365269 -4.0575635e-23)
(0.00047053317 -0.00079313918 -2.382994e-23)
(0.00062232366 -0.0010445913 2.5512129e-23)
(0.00079775812 -0.0013326853 1.1760168e-23)
(0.0010007265 -0.0016627263 2.5401332e-23)
(0.0012357804 -0.0020407157 -5.3724915e-23)
(0.0015082508 -0.0024734209 -3.2404293e-23)
(0.0018243885 -0.002968444 8.7388753e-23)
(0.0021915301 -0.0035342883 6.36594e-23)
(0.0026182951 -0.0041804166 -1.0886937e-22)
(0.0031148191 -0.0049172972 1.0979639e-22)