/*--------------------------------*- C++ -*----------------------------------*\
  =========                 |
  \\      /  F ield         | OpenFOAM: The Open Source CFD Toolbox
   \\    /   O peration     | Website:  https://openfoam.org
    \\  /    A nd           | Version:  13
     \\/     M anipulation  |
\*---------------------------------------------------------------------------*/
FoamFile
{
    format      ascii;
    class       volScalarField;
    location    "3600";
    object      nut;
}
// * * * * * * * * * * * * * * * * * * * * * * * * * * * * * * * * * * * * * //

dimensions      [0 2 -1 0 0 0 0];

internalField   nonuniform List<scalar> 
25000
(
4.85148e-08
4.85605e-08
4.86207e-08
4.868e-08
4.87288e-08
4.87634e-08
4.87855e-08
4.87962e-08
4.87974e-08
4.87905e-08
4.87767e-08
4.87564e-08
4.87305e-08
4.86992e-08
4.86634e-08
4.86234e-08
4.85804e-08
4.85346e-08
4.84871e-08
4.84384e-08
4.83896e-08
4.83412e-08
4.82943e-08
4.82494e-08
4.82074e-08
4.81687e-08
4.81341e-08
4.81038e-08
4.80783e-08
4.80578e-08
4.80429e-08
4.8034e-08
4.80308e-08
4.80332e-08
4.80415e-08
4.80552e-08
4.80745e-08
4.80989e-08
4.81281e-08
4.81614e-08
4.81987e-08
4.82389e-08
4.82812e-08
4.83243e-08
4.83666e-08
4.84054e-08
4.8438e-08
4.84613e-08
4.8476e-08
4.84897e-08
1.08041e-07
1.08094e-07
1.08094e-07
1.08069e-07
1.08037e-07
1.08005e-07
1.07974e-07
1.07932e-07
1.07879e-07
1.07814e-07
1.07739e-07
1.07654e-07
1.07561e-07
1.07459e-07
1.07353e-07
1.07241e-07
1.07128e-07
1.07014e-07
1.06904e-07
1.06796e-07
1.06696e-07
1.06603e-07
1.06521e-07
1.06451e-07
1.06394e-07
1.06352e-07
1.06323e-07
1.06309e-07
1.06309e-07
1.06321e-07
1.06349e-07
1.06393e-07
1.06448e-07
1.06512e-07
1.06586e-07
1.06668e-07
1.06758e-07
1.06853e-07
1.06952e-07
1.07053e-07
1.07157e-07
1.07258e-07
1.07357e-07
1.07451e-07
1.07542e-07
1.07628e-07
1.07715e-07
1.07804e-07
1.07899e-07
1.07982e-07
4.05365e-07
4.05451e-07
4.05221e-07
4.04867e-07
4.04524e-07
4.0423e-07
4.03989e-07
4.03738e-07
4.03468e-07
4.0317e-07
4.0285e-07
4.025e-07
4.02135e-07
4.01744e-07
4.01348e-07
4.00941e-07
4.00541e-07
4.00146e-07
3.99772e-07
3.9942e-07
3.99103e-07
3.98823e-07
3.9859e-07
3.9841e-07
3.98286e-07
3.98219e-07
3.98209e-07
3.98256e-07
3.98352e-07
3.98492e-07
3.98689e-07
3.98942e-07
3.99231e-07
3.99543e-07
3.99885e-07
4.00244e-07
4.00621e-07
4.01003e-07
4.01391e-07
4.01771e-07
4.02146e-07
4.02499e-07
4.02835e-07
4.03141e-07
4.03434e-07
4.03715e-07
4.04025e-07
4.04383e-07
4.04802e-07
4.05168e-07
1.08126e-06
1.08132e-06
1.08053e-06
1.07942e-06
1.07838e-06
1.07751e-06
1.07681e-06
1.07613e-06
1.07543e-06
1.07469e-06
1.07391e-06
1.07307e-06
1.07222e-06
1.07132e-06
1.07042e-06
1.06951e-06
1.06862e-06
1.06776e-06
1.06696e-06
1.06622e-06
1.06556e-06
1.06501e-06
1.06457e-06
1.06426e-06
1.06408e-06
1.06404e-06
1.06413e-06
1.06435e-06
1.06469e-06
1.06512e-06
1.06568e-06
1.06636e-06
1.06711e-06
1.06791e-06
1.06876e-06
1.06964e-06
1.07054e-06
1.07144e-06
1.07234e-06
1.07321e-06
1.07405e-06
1.07482e-06
1.07554e-06
1.07619e-06
1.0768e-06
1.07739e-06
1.07807e-06
1.07892e-06
1.07994e-06
1.08083e-06
2.19111e-06
2.1911e-06
2.18944e-06
2.1872e-06
2.18511e-06
2.18338e-06
2.182e-06
2.18068e-06
2.17935e-06
2.17796e-06
2.17653e-06
2.17501e-06
2.17347e-06
2.17185e-06
2.17025e-06
2.16864e-06
2.1671e-06
2.16561e-06
2.16423e-06
2.16297e-06
2.16189e-06
2.16098e-06
2.1603e-06
2.15985e-06
2.15964e-06
2.15968e-06
2.15995e-06
2.16046e-06
2.16116e-06
2.16203e-06
2.16313e-06
2.16443e-06
2.16585e-06
2.16734e-06
2.16892e-06
2.17054e-06
2.17219e-06
2.17381e-06
2.17543e-06
2.17696e-06
2.17844e-06
2.17978e-06
2.18102e-06
2.18211e-06
2.18315e-06
2.18416e-06
2.18536e-06
2.18687e-06
2.18875e-06
2.19037e-06
3.75853e-06
3.75842e-06
3.75572e-06
3.75215e-06
3.74879e-06
3.74601e-06
3.7438e-06
3.74168e-06
3.73957e-06
3.73738e-06
3.73513e-06
3.73276e-06
3.73036e-06
3.72787e-06
3.72541e-06
3.72294e-06
3.72058e-06
3.71832e-06
3.71624e-06
3.71436e-06
3.71276e-06
3.71143e-06
3.71046e-06
3.70984e-06
3.7096e-06
3.70974e-06
3.71023e-06
3.71109e-06
3.71225e-06
3.71366e-06
3.71542e-06
3.71748e-06
3.71972e-06
3.72206e-06
3.72452e-06
3.72703e-06
3.72959e-06
3.73211e-06
3.7346e-06
3.73696e-06
3.73921e-06
3.74126e-06
3.74314e-06
3.74479e-06
3.74634e-06
3.74786e-06
3.7497e-06
3.75202e-06
3.75491e-06
3.7574e-06
5.7256e-06
5.72543e-06
5.72179e-06
5.71697e-06
5.71241e-06
5.70864e-06
5.70559e-06
5.70268e-06
5.69978e-06
5.69677e-06
5.69369e-06
5.69045e-06
5.68718e-06
5.68379e-06
5.68044e-06
5.67709e-06
5.67389e-06
5.67084e-06
5.66804e-06
5.66552e-06
5.66337e-06
5.66161e-06
5.66033e-06
5.65953e-06
5.65923e-06
5.65945e-06
5.66015e-06
5.66133e-06
5.66292e-06
5.66487e-06
5.66726e-06
5.67006e-06
5.6731e-06
5.67628e-06
5.67964e-06
5.68304e-06
5.68652e-06
5.68994e-06
5.69331e-06
5.69652e-06
5.69957e-06
5.70234e-06
5.70489e-06
5.70713e-06
5.70924e-06
5.7113e-06
5.71378e-06
5.71689e-06
5.72077e-06
5.72407e-06
7.97177e-06
7.97161e-06
7.96729e-06
7.96153e-06
7.95603e-06
7.95145e-06
7.94771e-06
7.9441e-06
7.9405e-06
7.93677e-06
7.93294e-06
7.92892e-06
7.92485e-06
7.92063e-06
7.91647e-06
7.91232e-06
7.90835e-06
7.90456e-06
7.90109e-06
7.89797e-06
7.8953e-06
7.89313e-06
7.89153e-06
7.89052e-06
7.89014e-06
7.89038e-06
7.89122e-06
7.89265e-06
7.89458e-06
7.89696e-06
7.89989e-06
7.9033e-06
7.90703e-06
7.91094e-06
7.91506e-06
7.91926e-06
7.92355e-06
7.92777e-06
7.93195e-06
7.93592e-06
7.93972e-06
7.94316e-06
7.94635e-06
7.94914e-06
7.95179e-06
7.95437e-06
7.95744e-06
7.96124e-06
7.96592e-06
7.96989e-06
1.03864e-05
1.03863e-05
1.03815e-05
1.03752e-05
1.0369e-05
1.03638e-05
1.03595e-05
1.03553e-05
1.03511e-05
1.03468e-05
1.03423e-05
1.03376e-05
1.03328e-05
1.03279e-05
1.0323e-05
1.03181e-05
1.03135e-05
1.0309e-05
1.03049e-05
1.03012e-05
1.02981e-05
1.02955e-05
1.02936e-05
1.02924e-05
1.02919e-05
1.02921e-05
1.0293e-05
1.02946e-05
1.02967e-05
1.02994e-05
1.03028e-05
1.03067e-05
1.0311e-05
1.03155e-05
1.03202e-05
1.03251e-05
1.03301e-05
1.0335e-05
1.03399e-05
1.03446e-05
1.0349e-05
1.03531e-05
1.03569e-05
1.03602e-05
1.03634e-05
1.03664e-05
1.037e-05
1.03744e-05
1.03797e-05
1.03842e-05
1.28978e-05
1.28978e-05
1.28929e-05
1.28861e-05
1.28795e-05
1.28738e-05
1.28691e-05
1.28644e-05
1.28597e-05
1.28548e-05
1.28498e-05
1.28445e-05
1.2839e-05
1.28335e-05
1.28279e-05
1.28224e-05
1.28171e-05
1.2812e-05
1.28074e-05
1.28032e-05
1.27995e-05
1.27966e-05
1.27943e-05
1.27929e-05
1.27922e-05
1.27923e-05
1.27932e-05
1.27949e-05
1.27973e-05
1.28002e-05
1.28039e-05
1.28082e-05
1.28129e-05
1.28179e-05
1.28232e-05
1.28287e-05
1.28343e-05
1.28398e-05
1.28454e-05
1.28506e-05
1.28557e-05
1.28604e-05
1.28647e-05
1.28685e-05
1.28722e-05
1.28757e-05
1.28798e-05
1.28846e-05
1.28905e-05
1.28953e-05
1.5467e-05
1.54673e-05
1.54623e-05
1.54553e-05
1.54483e-05
1.54423e-05
1.54372e-05
1.54321e-05
1.54269e-05
1.54216e-05
1.5416e-05
1.54101e-05
1.54041e-05
1.53979e-05
1.53917e-05
1.53856e-05
1.53797e-05
1.5374e-05
1.53688e-05
1.53641e-05
1.536e-05
1.53567e-05
1.53541e-05
1.53524e-05
1.53515e-05
1.53515e-05
1.53524e-05
1.53541e-05
1.53566e-05
1.53597e-05
1.53636e-05
1.53683e-05
1.53734e-05
1.53789e-05
1.53847e-05
1.53906e-05
1.53968e-05
1.54029e-05
1.5409e-05
1.54149e-05
1.54205e-05
1.54257e-05
1.54306e-05
1.54349e-05
1.54391e-05
1.54431e-05
1.54476e-05
1.54529e-05
1.54591e-05
1.54643e-05
1.80746e-05
1.8075e-05
1.80701e-05
1.8063e-05
1.80558e-05
1.80496e-05
1.80441e-05
1.80387e-05
1.80331e-05
1.80272e-05
1.80212e-05
1.80148e-05
1.80082e-05
1.80014e-05
1.79947e-05
1.79879e-05
1.79814e-05
1.79752e-05
1.79695e-05
1.79642e-05
1.79597e-05
1.79559e-05
1.7953e-05
1.7951e-05
1.79499e-05
1.79498e-05
1.79506e-05
1.79523e-05
1.79548e-05
1.79581e-05
1.79623e-05
1.79672e-05
1.79727e-05
1.79785e-05
1.79848e-05
1.79912e-05
1.79979e-05
1.80046e-05
1.80112e-05
1.80176e-05
1.80239e-05
1.80296e-05
1.8035e-05
1.80399e-05
1.80445e-05
1.8049e-05
1.80539e-05
1.80596e-05
1.80662e-05
1.80716e-05
2.07114e-05
2.07121e-05
2.07073e-05
2.07003e-05
2.0693e-05
2.06865e-05
2.06807e-05
2.06749e-05
2.06689e-05
2.06627e-05
2.06561e-05
2.06492e-05
2.06421e-05
2.06348e-05
2.06274e-05
2.06201e-05
2.0613e-05
2.06063e-05
2.06e-05
2.05942e-05
2.05892e-05
2.0585e-05
2.05818e-05
2.05794e-05
2.05781e-05
2.05778e-05
2.05785e-05
2.05802e-05
2.05828e-05
2.05862e-05
2.05906e-05
2.05957e-05
2.06015e-05
2.06077e-05
2.06144e-05
2.06213e-05
2.06285e-05
2.06357e-05
2.06429e-05
2.06498e-05
2.06566e-05
2.06629e-05
2.06689e-05
2.06742e-05
2.06794e-05
2.06843e-05
2.06897e-05
2.06957e-05
2.07026e-05
2.07082e-05
2.33739e-05
2.33749e-05
2.33703e-05
2.33633e-05
2.33559e-05
2.33492e-05
2.33432e-05
2.33371e-05
2.33307e-05
2.3324e-05
2.3317e-05
2.33096e-05
2.3302e-05
2.32941e-05
2.32862e-05
2.32783e-05
2.32707e-05
2.32633e-05
2.32565e-05
2.32502e-05
2.32448e-05
2.32402e-05
2.32365e-05
2.32339e-05
2.32323e-05
2.32318e-05
2.32324e-05
2.3234e-05
2.32366e-05
2.32401e-05
2.32446e-05
2.325e-05
2.32561e-05
2.32627e-05
2.32697e-05
2.32771e-05
2.32847e-05
2.32924e-05
2.33002e-05
2.33077e-05
2.3315e-05
2.33219e-05
2.33284e-05
2.33342e-05
2.33399e-05
2.33453e-05
2.33511e-05
2.33575e-05
2.33646e-05
2.33704e-05
2.60609e-05
2.60622e-05
2.60579e-05
2.6051e-05
2.60436e-05
2.60368e-05
2.60305e-05
2.60241e-05
2.60174e-05
2.60102e-05
2.60028e-05
2.59949e-05
2.59867e-05
2.59783e-05
2.59698e-05
2.59613e-05
2.59531e-05
2.59452e-05
2.59379e-05
2.59311e-05
2.59252e-05
2.59201e-05
2.59161e-05
2.59131e-05
2.59113e-05
2.59106e-05
2.5911e-05
2.59126e-05
2.59152e-05
2.59188e-05
2.59234e-05
2.5929e-05
2.59354e-05
2.59423e-05
2.59497e-05
2.59575e-05
2.59656e-05
2.59738e-05
2.59821e-05
2.59902e-05
2.5998e-05
2.60054e-05
2.60125e-05
2.60189e-05
2.6025e-05
2.60309e-05
2.60371e-05
2.60439e-05
2.60513e-05
2.60571e-05
2.87726e-05
2.87742e-05
2.87703e-05
2.87636e-05
2.87562e-05
2.87492e-05
2.87428e-05
2.8736e-05
2.87289e-05
2.87214e-05
2.87135e-05
2.87051e-05
2.86964e-05
2.86875e-05
2.86784e-05
2.86694e-05
2.86606e-05
2.86522e-05
2.86443e-05
2.8637e-05
2.86306e-05
2.86251e-05
2.86207e-05
2.86173e-05
2.86152e-05
2.86143e-05
2.86146e-05
2.86161e-05
2.86187e-05
2.86223e-05
2.86271e-05
2.86329e-05
2.86395e-05
2.86467e-05
2.86545e-05
2.86627e-05
2.86713e-05
2.868e-05
2.86888e-05
2.86974e-05
2.87058e-05
2.87138e-05
2.87214e-05
2.87283e-05
2.8735e-05
2.87413e-05
2.8748e-05
2.87551e-05
2.87627e-05
2.87686e-05
3.15099e-05
3.15118e-05
3.15082e-05
3.15018e-05
3.14945e-05
3.14874e-05
3.14807e-05
3.14736e-05
3.14662e-05
3.14583e-05
3.14499e-05
3.14411e-05
3.14319e-05
3.14224e-05
3.14128e-05
3.14032e-05
3.13939e-05
3.13848e-05
3.13764e-05
3.13686e-05
3.13617e-05
3.13558e-05
3.13509e-05
3.13473e-05
3.13448e-05
3.13437e-05
3.13438e-05
3.13452e-05
3.13478e-05
3.13515e-05
3.13563e-05
3.13623e-05
3.13692e-05
3.13767e-05
3.13849e-05
3.13935e-05
3.14025e-05
3.14117e-05
3.1421e-05
3.14302e-05
3.14392e-05
3.14477e-05
3.14558e-05
3.14633e-05
3.14704e-05
3.14773e-05
3.14844e-05
3.14918e-05
3.14996e-05
3.15057e-05
3.42735e-05
3.42758e-05
3.42726e-05
3.42665e-05
3.42592e-05
3.42521e-05
3.42451e-05
3.42378e-05
3.423e-05
3.42217e-05
3.42129e-05
3.42036e-05
3.41939e-05
3.41839e-05
3.41738e-05
3.41636e-05
3.41537e-05
3.41441e-05
3.41351e-05
3.41268e-05
3.41194e-05
3.4113e-05
3.41078e-05
3.41038e-05
3.41011e-05
3.40997e-05
3.40996e-05
3.41009e-05
3.41034e-05
3.41071e-05
3.41121e-05
3.41183e-05
3.41253e-05
3.41331e-05
3.41417e-05
3.41507e-05
3.41602e-05
3.41699e-05
3.41797e-05
3.41894e-05
3.41989e-05
3.4208e-05
3.42166e-05
3.42247e-05
3.42324e-05
3.42397e-05
3.42473e-05
3.4255e-05
3.42629e-05
3.42691e-05
3.70644e-05
3.70671e-05
3.70644e-05
3.70586e-05
3.70513e-05
3.70441e-05
3.7037e-05
3.70294e-05
3.70213e-05
3.70125e-05
3.70033e-05
3.69935e-05
3.69834e-05
3.69728e-05
3.69622e-05
3.69515e-05
3.6941e-05
3.69309e-05
3.69213e-05
3.69125e-05
3.69046e-05
3.68978e-05
3.68921e-05
3.68877e-05
3.68847e-05
3.68831e-05
3.68828e-05
3.6884e-05
3.68865e-05
3.68902e-05
3.68953e-05
3.69016e-05
3.69089e-05
3.6917e-05
3.69258e-05
3.69353e-05
3.69452e-05
3.69553e-05
3.69657e-05
3.69759e-05
3.6986e-05
3.69956e-05
3.70048e-05
3.70134e-05
3.70216e-05
3.70294e-05
3.70374e-05
3.70454e-05
3.70535e-05
3.70598e-05
3.98833e-05
3.98863e-05
3.98841e-05
3.98787e-05
3.98715e-05
3.98642e-05
3.98569e-05
3.9849e-05
3.98406e-05
3.98315e-05
3.98219e-05
3.98116e-05
3.9801e-05
3.97899e-05
3.97787e-05
3.97675e-05
3.97565e-05
3.97458e-05
3.97357e-05
3.97264e-05
3.9718e-05
3.97107e-05
3.97046e-05
3.96999e-05
3.96965e-05
3.96946e-05
3.96942e-05
3.96952e-05
3.96977e-05
3.97014e-05
3.97066e-05
3.9713e-05
3.97205e-05
3.97289e-05
3.97381e-05
3.97479e-05
3.97582e-05
3.97689e-05
3.97797e-05
3.97905e-05
3.98011e-05
3.98112e-05
3.9821e-05
3.98301e-05
3.98388e-05
3.98471e-05
3.98556e-05
3.98639e-05
3.98721e-05
3.98784e-05
4.27307e-05
4.27341e-05
4.27324e-05
4.27273e-05
4.27203e-05
4.2713e-05
4.27055e-05
4.26973e-05
4.26885e-05
4.26791e-05
4.2669e-05
4.26583e-05
4.26472e-05
4.26357e-05
4.26239e-05
4.26122e-05
4.26006e-05
4.25894e-05
4.25788e-05
4.2569e-05
4.25601e-05
4.25524e-05
4.25459e-05
4.25408e-05
4.25371e-05
4.25349e-05
4.25343e-05
4.25352e-05
4.25376e-05
4.25413e-05
4.25465e-05
4.25531e-05
4.25608e-05
4.25695e-05
4.2579e-05
4.25891e-05
4.25999e-05
4.2611e-05
4.26223e-05
4.26336e-05
4.26447e-05
4.26554e-05
4.26657e-05
4.26754e-05
4.26847e-05
4.26934e-05
4.27023e-05
4.27109e-05
4.27193e-05
4.27256e-05
4.56069e-05
4.56107e-05
4.56095e-05
4.56049e-05
4.5598e-05
4.55906e-05
4.55829e-05
4.55745e-05
4.55654e-05
4.55556e-05
4.55452e-05
4.5534e-05
4.55225e-05
4.55104e-05
4.54982e-05
4.54859e-05
4.54738e-05
4.54621e-05
4.5451e-05
4.54406e-05
4.54313e-05
4.54231e-05
4.54162e-05
4.54107e-05
4.54067e-05
4.54043e-05
4.54035e-05
4.54042e-05
4.54065e-05
4.54103e-05
4.54156e-05
4.54222e-05
4.54302e-05
4.5439e-05
4.54489e-05
4.54594e-05
4.54706e-05
4.54821e-05
4.54939e-05
4.55057e-05
4.55173e-05
4.55286e-05
4.55394e-05
4.55496e-05
4.55594e-05
4.55687e-05
4.55779e-05
4.55868e-05
4.55953e-05
4.56016e-05
4.85122e-05
4.85163e-05
4.85157e-05
4.85114e-05
4.85048e-05
4.84973e-05
4.84894e-05
4.84807e-05
4.84713e-05
4.84612e-05
4.84504e-05
4.84388e-05
4.84268e-05
4.84143e-05
4.84016e-05
4.83888e-05
4.83762e-05
4.8364e-05
4.83524e-05
4.83415e-05
4.83317e-05
4.83231e-05
4.83158e-05
4.83099e-05
4.83056e-05
4.83029e-05
4.83019e-05
4.83025e-05
4.83047e-05
4.83084e-05
4.83138e-05
4.83206e-05
4.83287e-05
4.83378e-05
4.83479e-05
4.83588e-05
4.83704e-05
4.83823e-05
4.83946e-05
4.84069e-05
4.8419e-05
4.84308e-05
4.84421e-05
4.84528e-05
4.84631e-05
4.84729e-05
4.84826e-05
4.84918e-05
4.85003e-05
4.85067e-05
5.14463e-05
5.14509e-05
5.14508e-05
5.1447e-05
5.14405e-05
5.1433e-05
5.14249e-05
5.1416e-05
5.14063e-05
5.13958e-05
5.13846e-05
5.13726e-05
5.13602e-05
5.13472e-05
5.13341e-05
5.13208e-05
5.13077e-05
5.1295e-05
5.12829e-05
5.12716e-05
5.12613e-05
5.12522e-05
5.12445e-05
5.12383e-05
5.12337e-05
5.12308e-05
5.12295e-05
5.123e-05
5.12321e-05
5.12358e-05
5.12412e-05
5.12481e-05
5.12564e-05
5.12657e-05
5.12761e-05
5.12873e-05
5.12993e-05
5.13117e-05
5.13244e-05
5.13371e-05
5.13498e-05
5.1362e-05
5.13739e-05
5.13851e-05
5.13959e-05
5.14061e-05
5.14162e-05
5.14257e-05
5.14343e-05
5.14406e-05
5.44092e-05
5.44141e-05
5.44146e-05
5.44112e-05
5.44049e-05
5.43973e-05
5.43891e-05
5.43799e-05
5.43699e-05
5.43591e-05
5.43476e-05
5.43352e-05
5.43224e-05
5.4309e-05
5.42954e-05
5.42816e-05
5.42681e-05
5.42549e-05
5.42423e-05
5.42305e-05
5.42199e-05
5.42104e-05
5.42023e-05
5.41957e-05
5.41908e-05
5.41876e-05
5.41861e-05
5.41865e-05
5.41885e-05
5.41922e-05
5.41976e-05
5.42046e-05
5.4213e-05
5.42226e-05
5.42332e-05
5.42448e-05
5.42571e-05
5.42699e-05
5.4283e-05
5.42962e-05
5.43093e-05
5.4322e-05
5.43344e-05
5.43461e-05
5.43574e-05
5.43681e-05
5.43786e-05
5.43883e-05
5.4397e-05
5.44033e-05
5.74003e-05
5.74056e-05
5.74067e-05
5.74037e-05
5.73976e-05
5.739e-05
5.73816e-05
5.73722e-05
5.73619e-05
5.73508e-05
5.73389e-05
5.73262e-05
5.7313e-05
5.72991e-05
5.72851e-05
5.72709e-05
5.72569e-05
5.72433e-05
5.72303e-05
5.72181e-05
5.7207e-05
5.71971e-05
5.71886e-05
5.71817e-05
5.71765e-05
5.7173e-05
5.71714e-05
5.71716e-05
5.71735e-05
5.71771e-05
5.71826e-05
5.71897e-05
5.71983e-05
5.7208e-05
5.72189e-05
5.72307e-05
5.72434e-05
5.72565e-05
5.72701e-05
5.72837e-05
5.72973e-05
5.73105e-05
5.73234e-05
5.73355e-05
5.73473e-05
5.73584e-05
5.73693e-05
5.73792e-05
5.7388e-05
5.73943e-05
6.04193e-05
6.04249e-05
6.04266e-05
6.0424e-05
6.0418e-05
6.04104e-05
6.04019e-05
6.03922e-05
6.03817e-05
6.03702e-05
6.0358e-05
6.0345e-05
6.03314e-05
6.03172e-05
6.03027e-05
6.02882e-05
6.02738e-05
6.02597e-05
6.02463e-05
6.02336e-05
6.02221e-05
6.02118e-05
6.0203e-05
6.01958e-05
6.01903e-05
6.01866e-05
6.01848e-05
6.01848e-05
6.01866e-05
6.01902e-05
6.01957e-05
6.02029e-05
6.02116e-05
6.02215e-05
6.02326e-05
6.02448e-05
6.02577e-05
6.02712e-05
6.02852e-05
6.02992e-05
6.03132e-05
6.03269e-05
6.03402e-05
6.03528e-05
6.0365e-05
6.03766e-05
6.03878e-05
6.0398e-05
6.04068e-05
6.0413e-05
6.34653e-05
6.34712e-05
6.34735e-05
6.34713e-05
6.34656e-05
6.34579e-05
6.34492e-05
6.34393e-05
6.34285e-05
6.34168e-05
6.34043e-05
6.33909e-05
6.3377e-05
6.33624e-05
6.33476e-05
6.33326e-05
6.33179e-05
6.33034e-05
6.32896e-05
6.32766e-05
6.32647e-05
6.3254e-05
6.32449e-05
6.32374e-05
6.32316e-05
6.32277e-05
6.32256e-05
6.32255e-05
6.32272e-05
6.32308e-05
6.32363e-05
6.32436e-05
6.32523e-05
6.32624e-05
6.32738e-05
6.32862e-05
6.32994e-05
6.33133e-05
6.33276e-05
6.3342e-05
6.33564e-05
6.33705e-05
6.33842e-05
6.33973e-05
6.34099e-05
6.34219e-05
6.34335e-05
6.34438e-05
6.34527e-05
6.34589e-05
6.65376e-05
6.65439e-05
6.65467e-05
6.6545e-05
6.65394e-05
6.65317e-05
6.65228e-05
6.65127e-05
6.65016e-05
6.64896e-05
6.64768e-05
6.64632e-05
6.64489e-05
6.64341e-05
6.64189e-05
6.64036e-05
6.63885e-05
6.63736e-05
6.63594e-05
6.63461e-05
6.63338e-05
6.63229e-05
6.63134e-05
6.63056e-05
6.62996e-05
6.62954e-05
6.62932e-05
6.62929e-05
6.62946e-05
6.62981e-05
6.63036e-05
6.63109e-05
6.63198e-05
6.633e-05
6.63416e-05
6.63542e-05
6.63677e-05
6.63819e-05
6.63965e-05
6.64113e-05
6.64261e-05
6.64405e-05
6.64547e-05
6.64681e-05
6.64812e-05
6.64936e-05
6.65055e-05
6.65161e-05
6.65249e-05
6.65311e-05
6.96354e-05
6.9642e-05
6.96453e-05
6.9644e-05
6.96386e-05
6.96308e-05
6.96218e-05
6.96114e-05
6.96001e-05
6.95879e-05
6.95749e-05
6.9561e-05
6.95464e-05
6.95313e-05
6.95158e-05
6.95002e-05
6.94847e-05
6.94695e-05
6.9455e-05
6.94413e-05
6.94288e-05
6.94175e-05
6.94078e-05
6.93997e-05
6.93934e-05
6.9389e-05
6.93866e-05
6.93863e-05
6.93878e-05
6.93913e-05
6.93968e-05
6.94041e-05
6.94131e-05
6.94235e-05
6.94352e-05
6.9448e-05
6.94618e-05
6.94762e-05
6.94912e-05
6.95063e-05
6.95214e-05
6.95362e-05
6.95507e-05
6.95646e-05
6.9578e-05
6.95908e-05
6.9603e-05
6.96138e-05
6.96226e-05
6.96287e-05
7.27576e-05
7.27646e-05
7.27684e-05
7.27675e-05
7.27622e-05
7.27544e-05
7.27452e-05
7.27347e-05
7.27231e-05
7.27107e-05
7.26974e-05
7.26832e-05
7.26684e-05
7.2653e-05
7.26373e-05
7.26214e-05
7.26056e-05
7.25902e-05
7.25754e-05
7.25614e-05
7.25485e-05
7.2537e-05
7.2527e-05
7.25187e-05
7.25122e-05
7.25076e-05
7.25051e-05
7.25045e-05
7.2506e-05
7.25095e-05
7.2515e-05
7.25223e-05
7.25314e-05
7.25419e-05
7.25537e-05
7.25667e-05
7.25808e-05
7.25954e-05
7.26107e-05
7.2626e-05
7.26415e-05
7.26566e-05
7.26715e-05
7.26857e-05
7.26995e-05
7.27126e-05
7.27251e-05
7.2736e-05
7.27448e-05
7.27509e-05
7.59035e-05
7.59107e-05
7.5915e-05
7.59144e-05
7.59093e-05
7.59015e-05
7.5892e-05
7.58813e-05
7.58696e-05
7.58569e-05
7.58434e-05
7.58291e-05
7.5814e-05
7.57984e-05
7.57824e-05
7.57663e-05
7.57503e-05
7.57346e-05
7.57195e-05
7.57053e-05
7.56922e-05
7.56804e-05
7.56701e-05
7.56616e-05
7.56549e-05
7.56502e-05
7.56475e-05
7.56468e-05
7.56482e-05
7.56516e-05
7.56571e-05
7.56645e-05
7.56736e-05
7.56842e-05
7.56962e-05
7.57094e-05
7.57236e-05
7.57385e-05
7.57539e-05
7.57696e-05
7.57853e-05
7.58007e-05
7.58159e-05
7.58304e-05
7.58445e-05
7.58579e-05
7.58707e-05
7.58818e-05
7.58905e-05
7.58966e-05
7.90717e-05
7.90792e-05
7.9084e-05
7.90838e-05
7.90787e-05
7.90708e-05
7.90613e-05
7.90503e-05
7.90384e-05
7.90255e-05
7.90119e-05
7.89973e-05
7.89821e-05
7.89663e-05
7.89501e-05
7.89338e-05
7.89176e-05
7.89017e-05
7.88864e-05
7.88719e-05
7.88586e-05
7.88466e-05
7.88361e-05
7.88274e-05
7.88205e-05
7.88157e-05
7.88128e-05
7.88121e-05
7.88134e-05
7.88167e-05
7.88222e-05
7.88296e-05
7.88388e-05
7.88494e-05
7.88616e-05
7.88749e-05
7.88892e-05
7.89043e-05
7.892e-05
7.89359e-05
7.89518e-05
7.89675e-05
7.89829e-05
7.89977e-05
7.90121e-05
7.90258e-05
7.90389e-05
7.905e-05
7.90588e-05
7.90648e-05
8.22614e-05
8.22691e-05
8.22743e-05
8.22744e-05
8.22695e-05
8.22615e-05
8.22518e-05
8.22407e-05
8.22286e-05
8.22155e-05
8.22017e-05
8.2187e-05
8.21716e-05
8.21557e-05
8.21394e-05
8.21228e-05
8.21065e-05
8.20904e-05
8.20749e-05
8.20603e-05
8.20468e-05
8.20346e-05
8.2024e-05
8.20151e-05
8.20081e-05
8.2003e-05
8.20001e-05
8.19993e-05
8.20005e-05
8.20038e-05
8.20093e-05
8.20167e-05
8.20259e-05
8.20366e-05
8.20488e-05
8.20622e-05
8.20767e-05
8.20919e-05
8.21078e-05
8.21238e-05
8.214e-05
8.21559e-05
8.21715e-05
8.21866e-05
8.22013e-05
8.22152e-05
8.22285e-05
8.22398e-05
8.22485e-05
8.22544e-05
8.54714e-05
8.54793e-05
8.5485e-05
8.54853e-05
8.54805e-05
8.54724e-05
8.54625e-05
8.54512e-05
8.54389e-05
8.54257e-05
8.54118e-05
8.5397e-05
8.53815e-05
8.53654e-05
8.5349e-05
8.53323e-05
8.53158e-05
8.52996e-05
8.5284e-05
8.52693e-05
8.52556e-05
8.52433e-05
8.52325e-05
8.52235e-05
8.52164e-05
8.52112e-05
8.52082e-05
8.52073e-05
8.52084e-05
8.52117e-05
8.52172e-05
8.52246e-05
8.52338e-05
8.52445e-05
8.52568e-05
8.52703e-05
8.52849e-05
8.53003e-05
8.53162e-05
8.53324e-05
8.53488e-05
8.53648e-05
8.53806e-05
8.53959e-05
8.54108e-05
8.5425e-05
8.54384e-05
8.54498e-05
8.54585e-05
8.54643e-05
8.87007e-05
8.87087e-05
8.87147e-05
8.87154e-05
8.87106e-05
8.87024e-05
8.86923e-05
8.86809e-05
8.86684e-05
8.86551e-05
8.8641e-05
8.86261e-05
8.86106e-05
8.85944e-05
8.85779e-05
8.85612e-05
8.85446e-05
8.85283e-05
8.85127e-05
8.84978e-05
8.84841e-05
8.84716e-05
8.84608e-05
8.84516e-05
8.84444e-05
8.84392e-05
8.84361e-05
8.84351e-05
8.84362e-05
8.84394e-05
8.84448e-05
8.84522e-05
8.84614e-05
8.84722e-05
8.84845e-05
8.84981e-05
8.85127e-05
8.85282e-05
8.85443e-05
8.85606e-05
8.8577e-05
8.85932e-05
8.86092e-05
8.86246e-05
8.86397e-05
8.86541e-05
8.86677e-05
8.86792e-05
8.86878e-05
8.86935e-05
9.19481e-05
9.19563e-05
9.19626e-05
9.19635e-05
9.19587e-05
9.19504e-05
9.19402e-05
9.19285e-05
9.1916e-05
9.19025e-05
9.18884e-05
9.18734e-05
9.18578e-05
9.18416e-05
9.18251e-05
9.18084e-05
9.17918e-05
9.17754e-05
9.17597e-05
9.17448e-05
9.1731e-05
9.17185e-05
9.17076e-05
9.16984e-05
9.16911e-05
9.16858e-05
9.16826e-05
9.16816e-05
9.16826e-05
9.16858e-05
9.16912e-05
9.16986e-05
9.17078e-05
9.17186e-05
9.17309e-05
9.17445e-05
9.17592e-05
9.17747e-05
9.17908e-05
9.18072e-05
9.18237e-05
9.184e-05
9.18561e-05
9.18716e-05
9.18869e-05
9.19014e-05
9.19152e-05
9.19267e-05
9.19352e-05
9.19409e-05
9.52127e-05
9.52209e-05
9.52275e-05
9.52286e-05
9.52238e-05
9.52154e-05
9.5205e-05
9.51932e-05
9.51805e-05
9.5167e-05
9.51528e-05
9.51378e-05
9.51222e-05
9.5106e-05
9.50895e-05
9.50728e-05
9.50562e-05
9.50398e-05
9.50241e-05
9.50092e-05
9.49954e-05
9.49829e-05
9.4972e-05
9.49627e-05
9.49554e-05
9.49501e-05
9.49468e-05
9.49457e-05
9.49468e-05
9.49499e-05
9.49553e-05
9.49626e-05
9.49718e-05
9.49826e-05
9.49949e-05
9.50085e-05
9.50232e-05
9.50387e-05
9.50549e-05
9.50713e-05
9.50879e-05
9.51042e-05
9.51203e-05
9.51359e-05
9.51513e-05
9.51659e-05
9.51798e-05
9.51914e-05
9.51998e-05
9.52054e-05
9.84933e-05
9.85017e-05
9.85085e-05
9.85097e-05
9.85049e-05
9.84963e-05
9.84857e-05
9.84738e-05
9.8461e-05
9.84474e-05
9.84332e-05
9.84182e-05
9.84026e-05
9.83865e-05
9.837e-05
9.83534e-05
9.83368e-05
9.83206e-05
9.83049e-05
9.829e-05
9.82763e-05
9.82638e-05
9.82529e-05
9.82436e-05
9.82363e-05
9.82309e-05
9.82277e-05
9.82266e-05
9.82276e-05
9.82307e-05
9.8236e-05
9.82433e-05
9.82525e-05
9.82632e-05
9.82755e-05
9.82891e-05
9.83038e-05
9.83193e-05
9.83354e-05
9.83518e-05
9.83683e-05
9.83847e-05
9.84008e-05
9.84165e-05
9.84319e-05
9.84466e-05
9.84606e-05
9.84722e-05
9.84806e-05
9.8486e-05
0.000101789
0.000101797
0.000101805
0.000101806
0.000101801
0.000101792
0.000101781
0.000101769
0.000101756
0.000101743
0.000101729
0.000101714
0.000101698
0.000101682
0.000101666
0.000101649
0.000101633
0.000101617
0.000101601
0.000101586
0.000101573
0.00010156
0.000101549
0.00010154
0.000101533
0.000101527
0.000101524
0.000101523
0.000101524
0.000101527
0.000101532
0.00010154
0.000101549
0.000101559
0.000101572
0.000101585
0.0001016
0.000101615
0.000101631
0.000101648
0.000101664
0.000101681
0.000101697
0.000101712
0.000101728
0.000101742
0.000101756
0.000101768
0.000101776
0.000101782
0.000105099
0.000105107
0.000105115
0.000105116
0.000105111
0.000105102
0.000105091
0.000105079
0.000105066
0.000105052
0.000105038
0.000105023
0.000105008
0.000104992
0.000104976
0.000104959
0.000104943
0.000104927
0.000104912
0.000104897
0.000104883
0.000104871
0.00010486
0.000104851
0.000104844
0.000104839
0.000104835
0.000104834
0.000104835
0.000104838
0.000104844
0.000104851
0.00010486
0.000104871
0.000104883
0.000104896
0.000104911
0.000104926
0.000104942
0.000104958
0.000104975
0.000104991
0.000105007
0.000105022
0.000105038
0.000105053
0.000105067
0.000105078
0.000105087
0.000105092
0.000108422
0.000108431
0.000108438
0.000108439
0.000108434
0.000108425
0.000108414
0.000108402
0.000108389
0.000108375
0.000108361
0.000108346
0.000108331
0.000108315
0.000108299
0.000108283
0.000108267
0.000108251
0.000108236
0.000108221
0.000108208
0.000108196
0.000108185
0.000108176
0.000108169
0.000108164
0.000108161
0.000108159
0.00010816
0.000108163
0.000108169
0.000108176
0.000108185
0.000108195
0.000108207
0.000108221
0.000108235
0.00010825
0.000108266
0.000108282
0.000108299
0.000108315
0.000108331
0.000108346
0.000108361
0.000108376
0.00010839
0.000108402
0.00010841
0.000108415
0.000111758
0.000111767
0.000111774
0.000111775
0.00011177
0.000111761
0.000111749
0.000111737
0.000111724
0.00011171
0.000111696
0.000111681
0.000111666
0.000111651
0.000111635
0.000111619
0.000111603
0.000111588
0.000111573
0.000111558
0.000111545
0.000111533
0.000111523
0.000111514
0.000111507
0.000111502
0.000111499
0.000111498
0.000111499
0.000111502
0.000111507
0.000111514
0.000111523
0.000111533
0.000111545
0.000111558
0.000111573
0.000111588
0.000111603
0.000111619
0.000111635
0.000111651
0.000111667
0.000111682
0.000111698
0.000111712
0.000111726
0.000111738
0.000111746
0.000111751
0.000115106
0.000115114
0.000115121
0.000115123
0.000115117
0.000115108
0.000115096
0.000115084
0.00011507
0.000115057
0.000115043
0.000115028
0.000115014
0.000114998
0.000114983
0.000114967
0.000114952
0.000114936
0.000114922
0.000114908
0.000114895
0.000114883
0.000114873
0.000114864
0.000114857
0.000114852
0.000114849
0.000114848
0.000114849
0.000114852
0.000114857
0.000114864
0.000114873
0.000114884
0.000114895
0.000114908
0.000114922
0.000114937
0.000114953
0.000114968
0.000114984
0.000115
0.000115016
0.000115031
0.000115046
0.00011506
0.000115074
0.000115086
0.000115094
0.000115099
0.000118465
0.000118473
0.00011848
0.000118481
0.000118475
0.000118466
0.000118454
0.000118441
0.000118428
0.000118415
0.000118401
0.000118387
0.000118372
0.000118357
0.000118342
0.000118326
0.000118311
0.000118296
0.000118282
0.000118268
0.000118256
0.000118244
0.000118234
0.000118226
0.000118219
0.000118214
0.000118211
0.00011821
0.000118211
0.000118214
0.00011822
0.000118226
0.000118235
0.000118245
0.000118257
0.00011827
0.000118284
0.000118298
0.000118314
0.000118329
0.000118345
0.00011836
0.000118375
0.00011839
0.000118405
0.00011842
0.000118434
0.000118445
0.000118453
0.000118458
0.000121834
0.000121842
0.000121849
0.00012185
0.000121844
0.000121834
0.000121822
0.00012181
0.000121796
0.000121783
0.000121769
0.000121755
0.000121741
0.000121726
0.000121711
0.000121696
0.000121681
0.000121667
0.000121653
0.00012164
0.000121627
0.000121616
0.000121606
0.000121598
0.000121592
0.000121587
0.000121584
0.000121583
0.000121585
0.000121588
0.000121593
0.0001216
0.000121608
0.000121618
0.00012163
0.000121642
0.000121656
0.00012167
0.000121685
0.000121701
0.000121716
0.000121731
0.000121746
0.000121761
0.000121775
0.00012179
0.000121803
0.000121815
0.000121822
0.000121827
0.000125214
0.000125221
0.000125228
0.000125229
0.000125223
0.000125213
0.0001252
0.000125188
0.000125174
0.000125161
0.000125148
0.000125134
0.00012512
0.000125105
0.000125091
0.000125076
0.000125062
0.000125048
0.000125034
0.000125021
0.000125009
0.000124999
0.000124989
0.000124981
0.000124975
0.000124971
0.000124968
0.000124967
0.000124968
0.000124971
0.000124977
0.000124983
0.000124992
0.000125002
0.000125013
0.000125025
0.000125039
0.000125053
0.000125068
0.000125082
0.000125097
0.000125112
0.000125127
0.000125141
0.000125155
0.00012517
0.000125183
0.000125194
0.000125202
0.000125207
0.000128603
0.00012861
0.000128617
0.000128617
0.000128611
0.0001286
0.000128588
0.000128575
0.000128562
0.000128549
0.000128535
0.000128522
0.000128508
0.000128494
0.00012848
0.000128466
0.000128452
0.000128438
0.000128425
0.000128413
0.000128401
0.000128391
0.000128382
0.000128374
0.000128368
0.000128364
0.000128362
0.000128361
0.000128362
0.000128365
0.00012837
0.000128377
0.000128386
0.000128395
0.000128406
0.000128418
0.000128432
0.000128445
0.00012846
0.000128474
0.000128489
0.000128503
0.000128517
0.000128531
0.000128545
0.000128559
0.000128573
0.000128584
0.000128591
0.000128596
0.000132002
0.000132009
0.000132015
0.000132015
0.000132008
0.000131998
0.000131985
0.000131972
0.000131959
0.000131946
0.000131932
0.000131919
0.000131906
0.000131892
0.000131879
0.000131865
0.000131852
0.000131839
0.000131826
0.000131814
0.000131803
0.000131793
0.000131784
0.000131777
0.000131771
0.000131767
0.000131765
0.000131765
0.000131766
0.000131769
0.000131774
0.000131781
0.000131789
0.000131799
0.000131809
0.000131821
0.000131834
0.000131848
0.000131861
0.000131876
0.00013189
0.000131904
0.000131917
0.000131931
0.000131945
0.000131958
0.000131972
0.000131983
0.00013199
0.000131995
0.000135409
0.000135416
0.000135422
0.000135422
0.000135415
0.000135404
0.000135391
0.000135378
0.000135364
0.000135351
0.000135339
0.000135326
0.000135313