/*--------------------------------*- C++ -*----------------------------------*\
  =========                 |
  \\      /  F ield         | OpenFOAM: The Open Source CFD Toolbox
   \\    /   O peration     | Website:  https://openfoam.org
    \\  /    A nd           | Version:  13
     \\/     M anipulation  |
\*---------------------------------------------------------------------------*/
FoamFile
{
    format      ascii;
    class       volVectorField;
    location    "3600";
    object      wallShearStress;
}
// * * * * * * * * * * * * * * * * * * * * * * * * * * * * * * * * * * * * * //

dimensions      [0 2 -2 0 0 0 0];

internalField   uniform (0 0 0);

boundaryField
{
    movingWall
    {
        type            calculated;
        value           nonuniform List<vector> 
50
(
(0.119702 -1.78933e-07 0)
(0.119642 -1.01248e-07 0)
(0.119601 -3.29898e-09 0)
(0.119589 1.00165e-07 0)
(0.119599 1.81344e-07 0)
(0.119635 3.02229e-07 0)
(0.119701 3.88507e-07 0)
(0.119788 4.61107e-07 0)
(0.119895 5.26275e-07 0)
(0.120021 5.78344e-07 0)
(0.120163 6.14855e-07 0)
(0.120316 6.33457e-07 0)
(0.120475 6.38312e-07 0)
(0.120639 6.30451e-07 0)
(0.120803 6.11129e-07 0)
(0.120964 5.81745e-07 0)
(0.121121 5.43597e-07 0)
(0.121269 5.00019e-07 0)
(0.121408 4.50553e-07 0)
(0.121537 4.00691e-07 0)
(0.121653 3.45167e-07 0)
(0.121757 2.95883e-07 0)
(0.121847 2.352e-07 0)
(0.121925 1.91168e-07 0)
(0.121989 1.16481e-07 0)
(0.122033 5.56792e-08 0)
(0.122063 1.65813e-08 0)
(0.122082 -4.6556e-08 0)
(0.122081 -9.53384e-08 0)
(0.122071 -1.35238e-07 0)
(0.122045 -2.03383e-07 0)
(0.122002 -2.52054e-07 0)
(0.121947 -2.92265e-07 0)
(0.12188 -3.39921e-07 0)
(0.121798 -3.87775e-07 0)
(0.121703 -4.33037e-07 0)
(0.121595 -4.71471e-07 0)
(0.121475 -5.06687e-07 0)
(0.121345 -5.35309e-07 0)
(0.121206 -5.60401e-07 0)
(0.12106 -5.76594e-07 0)
(0.120907 -5.87645e-07 0)
(0.120751 -5.86739e-07 0)
(0.120593 -5.78866e-07 0)
(0.120437 -5.55407e-07 0)
(0.120285 -5.25605e-07 0)
(0.12014 -4.7559e-07 0)
(0.120007 -4.24615e-07 0)
(0.119886 -3.47891e-07 0)
(0.119784 -2.68906e-07 0)
)
;
    }
    bottomWall
    {
        type            calculated;
        value           nonuniform List<vector> 
50
(
(-0.000412899 -9.05095e-08 0)
(-0.000412725 2.438e-10 0)
(-0.000412511 2.10533e-10 0)
(-0.000412312 1.36798e-10 0)
(-0.000412148 9.74177e-11 0)
(-0.000412033 3.25919e-11 0)
(-0.000411958 -2.04386e-11 0)
(-0.000411925 -9.58272e-11 0)
(-0.000411928 -1.46667e-10 0)
(-0.000411961 -2.11257e-10 0)
(-0.000412022 -2.52963e-10 0)
(-0.000412109 -3.06659e-10 0)
(-0.000412216 -3.39763e-10 0)
(-0.000412346 -3.80655e-10 0)
(-0.000412494 -4.03246e-10 0)
(-0.000412659 -4.2757e-10 0)
(-0.000412836 -4.38117e-10 0)
(-0.000413025 -4.44884e-10 0)
(-0.00041322 -4.42162e-10 0)
(-0.00041342 -4.30815e-10 0)
(-0.000413621 -4.13676e-10 0)
(-0.000413819 -3.8616e-10 0)
(-0.000414012 -3.53246e-10 0)
(-0.000414194 -3.13028e-10 0)
(-0.000414362 -2.7167e-10 0)
(-0.000414514 -2.24507e-10 0)
(-0.000414649 -1.75718e-10 0)
(-0.000414763 -1.26254e-10 0)
(-0.000414857 -7.55058e-11 0)
(-0.00041493 -2.26657e-11 0)
(-0.000414978 3.26686e-11 0)
(-0.000414999 8.72589e-11 0)
(-0.000414997 1.35116e-10 0)
(-0.000414974 1.80592e-10 0)
(-0.000414927 2.24543e-10 0)
(-0.000414858 2.65126e-10 0)
(-0.000414768 3.0134e-10 0)
(-0.000414659 3.33311e-10 0)
(-0.000414531 3.58999e-10 0)
(-0.000414389 3.81847e-10 0)
(-0.000414233 3.93552e-10 0)
(-0.000414067 4.00179e-10 0)
(-0.000413894 3.97165e-10 0)
(-0.00041372 3.87691e-10 0)
(-0.00041355 3.68736e-10 0)
(-0.000413393 3.45897e-10 0)
(-0.000413257 3.18407e-10 0)
(-0.000413151 2.93452e-10 0)
(-0.000413073 2.72619e-10 0)
(-0.000412997 2.38768e-10 0)
)
;
    }
    cyc_half0
    {
        type            cyclic;
    }
    cyc_half1
    {
        type            cyclic;
    }
    frontAndBack
    {
        type            empty;
    }
}


// ************************************************************************* //
