/*--------------------------------*- C++ -*----------------------------------*\
  =========                 |
  \\      /  F ield         | OpenFOAM: The Open Source CFD Toolbox
   \\    /   O peration     | Website:  https://openfoam.org
    \\  /    A nd           | Version:  13
     \\/     M anipulation  |
\*---------------------------------------------------------------------------*/
FoamFile
{
    format      ascii;
    class       volSymmTensorField;
    location    "47.601929";
    object      UPrime2Mean;
}
// * * * * * * * * * * * * * * * * * * * * * * * * * * * * * * * * * * * * * //

dimensions      [0 2 -2 0 0 0 0];

internalField   nonuniform List<symmTensor> 
17140
(
(5.6004431e-12 -3.1674162e-10 -9.9321765e-28 1.9518385e-08 1.2146123e-26 6.309771e-41)
(5.670804e-10 -6.7681408e-09 -4.0089916e-28 1.8597678e-07 2.3409147e-27 5.4108094e-43)
(4.9866061e-09 -3.1108258e-08 6.357197e-26 5.6483287e-07 -2.3163718e-25 2.3578697e-39)
(2.3268484e-08 -9.2519015e-08 -1.3324928e-25 1.21624e-06 3.4425417e-25 2.8482062e-39)
(7.7459452e-08 -2.1857111e-07 2.6352569e-26 2.2123154e-06 -5.1958156e-26 3.890152e-41)
(2.1151417e-07 -4.4949751e-07 -1.3578684e-25 3.6385085e-06 2.138552e-25 4.1637148e-40)
(5.0683093e-07 -8.4199317e-07 -3.4366762e-25 5.5948435e-06 4.4337975e-25 1.1790617e-39)
(1.106401e-06 -1.4737927e-06 2.4390338e-25 8.1968267e-06 -2.6181659e-25 2.8070261e-40)
(2.2517383e-06 -2.4489664e-06 1.1336823e-24 1.1575773e-05 -1.0239102e-24 3.003128e-39)
(4.3378807e-06 -3.9035109e-06 3.8721505e-24 1.587828e-05 -2.9664413e-24 1.803589e-38)
(7.9933227e-06 -6.0106352e-06 -7.8706843e-24 2.1264509e-05 5.1468588e-24 3.957515e-38)
(1.419326e-05 -8.9847955e-06 9.4959927e-24 2.7904886e-05 -5.3273782e-24 3.1350023e-38)
(2.4415715e-05 -1.3083092e-05 1.9488043e-24 3.5974869e-05 -9.4180341e-25 7.3215452e-40)
(4.0850227e-05 -1.8602161e-05 -1.4609836e-23 4.5647447e-05 6.1017637e-24 2.3330456e-38)
(6.6667156e-05 -2.5868396e-05 2.1364881e-24 5.7083238e-05 -7.7314761e-25 2.8628589e-40)
(0.00010635102 -3.5219318e-05 -2.2104685e-23 7.0418228e-05 6.9465039e-24 1.7865099e-38)
(0.00016609279 -4.6974691e-05 1.0624342e-24 8.5749567e-05 -2.9028494e-25 2.4583212e-41)
(0.00025422355 -6.1397734e-05 -3.1415308e-25 0.00010312009 7.4863534e-26 1.2215926e-42)
(0.00038165633 -7.8650015e-05 -2.7899564e-23 0.00012250256 5.78785e-24 6.0905586e-39)
(0.00056229004 -9.8747894e-05 4.5779782e-23 0.00014378446 -8.2839452e-24 1.0109943e-38)
(0.00081332437 -0.00012153284 -2.7696441e-23 0.00016675421 4.3736785e-24 2.3084748e-39)
(0.0011554482 -0.00014666964 6.5246583e-24 0.00019108918 -9.0025376e-25 8.2521947e-41)
(0.0016129624 -0.00017368704 5.9300921e-23 0.00021634629 -7.1372701e-24 4.3823644e-39)
(0.0022141091 -0.00020206845 -7.1876828e-23 0.00024195818 7.5537789e-24 4.2491152e-39)
(0.0029908873 -0.00023131669 -1.3733576e-22 0.00026724286 1.2591655e-23 1.04801e-38)
(0.003979252 -0.00026092899 1.3076637e-22 0.00029143086 -1.0458371e-23 6.5798874e-39)
(0.005221787 -0.00029066611 7.5557576e-22 0.00031368897 -5.2618232e-23 1.5431471e-37)
(0.0067695262 -0.00032027141 1.041134e-22 0.0003331792 -6.297486e-24 2.0846796e-39)
(0.0086815691 -0.00034922389 -1.0513974e-21 0.0003491483 5.5157261e-23 1.5679019e-37)
(0.011027078 -0.00037723654 -2.8314455e-22 0.00036105522 1.2828158e-23 8.3916802e-39)
(0.013888262 -0.00040397925 -1.153235e-21 0.00036872607 4.4958023e-23 1.0501519e-37)
(0.017360963 -0.00042886109 1.7240483e-21 0.00037249186 -5.7571595e-23 1.7948339e-37)
(0.021555394 -0.00045113487 -5.0992893e-22 0.00037319169 1.4496437e-23 1.2062509e-38)
(0.026595902 -0.00046984482 -2.7397149e-22 0.00037195286 6.5949746e-24 2.7356965e-39)
(0.032619407 -0.00048375103 -3.0355588e-21 0.00036985819 6.1181871e-23 2.634026e-37)
(0.039772106 -0.00049123115 1.4864999e-21 0.00036773484 -2.4867976e-23 5.0682783e-38)
(0.048203604 -0.00049018554 -2.5017691e-21 0.00036615377 3.4200455e-23 1.1519098e-37)
(0.058057111 -0.00047795643 -1.878638e-21 0.00036555851 2.0595184e-23 5.2862275e-38)
(0.069453935 -0.00045124818 -9.5047273e-22 0.00036643136 8.132741e-24 1.1105665e-38)
(0.082470894 -0.00040610892 3.1519168e-21 0.00036943025 -2.0274734e-23 1.0215106e-37)
(0.097110444 -0.00033810435 6.4930011e-21 0.00037548593 -2.9481452e-23 3.6379648e-37)
(0.11326368 -0.00024265064 6.3845987e-21 0.00038584241 -1.8247689e-23 2.9895189e-37)
(0.13067084 -0.0001157666 2.9981248e-21 0.00040205667 -4.0580141e-24 5.6746251e-38)
(0.14889892 4.5244439e-05 -1.5656447e-20 0.00042604653 7.2649891e-26 1.3354697e-36)
(0.16732181 0.00024009811 -1.216894e-20 0.00046020372 -1.480182e-23 7.0782834e-37)
(0.18516054 0.00046202746 3.1517514e-21 0.00050762998 7.3315283e-24 4.2280042e-38)
(0.20162957 0.00070405001 -2.2439284e-20 0.00057259024 -7.5054606e-23 1.9284846e-36)
(0.21583015 0.0009580011 -7.918165e-21 0.00066097334 -3.3911259e-23 2.1913827e-37)
(0.22695396 0.0012146871 8.3132172e-21 0.0007808916 4.2853449e-23 2.2377611e-37)
(0.23448106 0.0014640416 2.0807107e-20 0.00094387237 1.2397012e-22 1.3175982e-36)
(0.23806593 0.001698226 -1.2993145e-20 0.0011666362 -8.6847161e-23 4.9060221e-37)
(0.23751145 0.0019182703 -8.2530703e-21 0.0014739214 -6.0372957e-23 1.9189507e-37)
(0.23291373 0.0021449541 2.1507788e-20 0.0018995651 1.6968532e-22 1.2804731e-36)
(0.22470953 0.0023797382 1.0082758e-20 0.0024907525 8.3959807e-23 2.8069667e-37)
(0.21375933 0.0025950543 7.0733961e-21 0.003313215 6.047769e-23 1.4000087e-37)
(0.20137572 0.002756762 -5.4566208e-21 0.0044715669 -4.6449879e-23 8.4934379e-38)
(0.18908703 0.0028088982 1.4262819e-20 0.0061324515 1.1306345e-22 6.0808542e-37)
(0.17813734 0.0026752656 1.1516914e-20 0.0086210462 7.9715331e-23 4.1785785e-37)
(0.16942392 0.0023631458 2.7605487e-21 0.012506748 1.5299663e-23 2.5870874e-38)
(0.16279813 0.0020916476 -6.7719493e-21 0.018380636 -3.5737338e-23 1.6996189e-37)
(0.15729416 0.0017654226 -4.9426975e-21 0.025214558 -3.8238808e-23 1.0322765e-37)
(0.15202089 0.00060665552 -1.6833064e-20 0.031202527 -2.2288125e-22 1.4041652e-36)
(0.14381628 -0.00074051321 -2.2145376e-21 0.035512235 -4.5125819e-23 3.0080602e-38)
(0.13464268 -0.0015324455 1.6532486e-20 0.037905608 4.566001e-22 2.1237797e-36)
(0.11769145 -0.0016803796 -1.0892378e-20 0.039942917 -3.6496787e-22 1.2689228e-36)
(3.5452046e-10 -8.2969451e-09 1.1469766e-27 1.9421345e-07 -2.1558741e-26 5.1098703e-42)
(5.6254563e-09 -1.0130661e-07 -3.44891e-25 1.8346439e-06 5.1659922e-24 6.4925355e-38)
(2.5205531e-08 -3.7085231e-07 5.740017e-25 5.5276768e-06 -6.9505151e-24 5.1393278e-38)
(7.8363785e-08 -9.5152267e-07 -2.5572004e-25 1.1798088e-05 2.5623464e-24 3.817656e-39)
(2.0008255e-07 -2.0326289e-06 -8.0741903e-25 2.1248355e-05 6.8309195e-24 1.6281561e-38)
(4.5258286e-07 -3.884424e-06 2.2619935e-24 3.4555051e-05 -1.6404105e-23 5.9401381e-38)
(9.4217326e-07 -6.8821223e-06 -3.3583926e-24 5.2458966e-05 2.1065454e-23 6.448691e-38)
(1.8447877e-06 -1.1534626e-05 4.1212918e-25 7.5745439e-05 -2.2486032e-24 4.9891072e-40)
(3.4443136e-06 -1.8518241e-05 -1.7646772e-24 0.00010521202 8.4077841e-24 4.8558643e-39)
(6.1886548e-06 -2.8712764e-05 -4.0854214e-26 0.00014162037 1.7067055e-25 1.3848286e-42)
(1.0769993e-05 -4.3236683e-05 -1.0676267e-23 0.00018562976 3.9106191e-23 5.3910142e-38)
(1.8237104e-05 -6.3476136e-05 2.2503297e-23 0.00023771076 -7.24924e-23 1.3572926e-37)
(3.0148593e-05 -9.1099677e-05 2.4474496e-24 0.0002980409 -6.9445241e-24 9.2262307e-40)
(4.8775963e-05 -0.00012804787 -3.1580933e-23 0.00036638794 7.9020048e-23 8.9467448e-38)
(7.7363774e-05 -0.00017648465 1.2593262e-23 0.00044199299 -2.7809183e-23 8.3889975e-39)
(0.00012044983 -0.00023869687 1.0325242e-23 0.00052347335 -2.0134066e-23 3.3571322e-39)
(0.00018424043 -0.00031693216 -8.4061581e-23 0.00060877293 1.4477937e-22 1.3377667e-37)
(0.00027702413 -0.00041317464 3.4882274e-22 0.00069519395 -5.306616e-22 1.402509e-36)
(0.00040959349 -0.00052887641 -2.7622169e-22 0.00077954197 3.7113467e-22 5.4166478e-37)
(0.0005956323 -0.00066468874 4.1538942e-22 0.00085840319 -4.9283732e-22 7.6375323e-37)
(0.0008520224 -0.00082026591 -7.6322741e-22 0.00092854361 7.9947538e-22 1.6327189e-36)
(0.0011990367 -0.00099423389 2.305473e-22 0.00098737488 -2.1318542e-22 9.5876876e-38)
(0.0016604746 -0.0011844264 1.15811e-22 0.0010333829 -9.4529105e-23 1.5866782e-38)
(0.0022640059 -0.0013884625 -4.5796336e-22 0.0010663883 3.2982028e-22 1.6497148e-37)
(0.0030411088 -0.0016043278 1.967357e-21 0.0010875407 -1.2504074e-21 2.0745862e-36)
(0.0040270947 -0.0018308098 3.4859586e-22 0.0010989073 -1.953372e-22 4.4890509e-38)
(0.005263779 -0.0020680203 -2.1098362e-21 0.0011024876 1.0434317e-21 1.1736338e-36)
(0.0068015368 -0.0023170989 2.7535194e-21 0.0010999409 -1.1996821e-21 1.4390563e-36)
(0.0086985288 -0.0025791714 -4.3451891e-22 0.0010927073 1.6680796e-22 2.6638665e-38)
(0.011022759 -0.0028557833 -4.9175957e-21 0.0010817155 1.6550522e-21 2.5041835e-36)
(0.013855009 -0.0031484049 5.8013279e-22 0.0010674564 -1.7120846e-22 2.6541878e-38)
(0.017289356 -0.0034576166 5.0835157e-21 0.0010503163 -1.309806e-21 1.5400359e-36)
(0.021433805 -0.0037828487 1.5007456e-22 0.0010307661 -3.3490918e-23 9.6808486e-40)
(0.026409962 -0.0041219987 -4.8489541e-21 0.0010093147 9.4888303e-22 8.4652802e-37)
(0.03235133 -0.0044710563 6.0796988e-21 0.00098631695 -1.0343833e-21 1.0531973e-36)
(0.039399857 -0.0048236206 -3.069298e-21 0.00096184816 4.5316957e-22 2.1389697e-37)
(0.047699825 -0.0051701741 4.0111269e-21 0.00093573084 -5.1346025e-22 2.9734404e-37)
(0.057387752 -0.0054970866 1.4187609e-20 0.00090767915 -1.5699632e-21 3.020866e-36)
(0.06857666 -0.0057854892 3.5198422e-21 0.00087752347 -3.3583867e-22 1.522985e-37)
(0.08133319 -0.0060104008 1.5093145e-20 0.00084550087 -1.238046e-21 2.3376539e-36)
(0.095647418 -0.0061406205 -2.1070315e-20 0.00081261861 1.4793238e-21 3.8479046e-36)
(0.11139586 -0.0061401541 -2.1092233e-20 0.00078109249 1.2598711e-21 3.2642118e-36)
(0.12830235 -0.0059719315 -3.9201944e-21 0.00075482379 1.9776305e-22 9.5555554e-38)
(0.14591266 -0.0056041937 3.3283424e-20 0.00073982005 -1.3995228e-21 6.0932562e-36)
(0.16357664 -0.0050202149 -1.6824337e-20 0.00074440022 5.8187861e-22 1.3564511e-36)
(0.18050873 -0.0042314841 -6.1689788e-21 0.00077865048 1.7214772e-22 1.6173633e-37)
(0.19585221 -0.0032676683 3.4305158e-21 0.00085197909 -7.502423e-23 4.5992961e-38)
(0.20875952 -0.0021707135 1.118397e-20 0.00097022804 -1.8346279e-22 4.4226712e-37)
(0.21849692 -0.0010120271 -5.6373254e-21 0.0011370496 6.5235082e-23 1.044289e-37)
(0.22452025 0.00014317423 1.0466856e-20 0.0013577732 -7.4813183e-23 3.3811501e-37)
(0.22652779 0.0012534804 6.3896125e-20 0.0016442318 -2.0520547e-22 1.2065652e-35)
(0.22444579 0.0022823882 3.0672406e-21 0.0020209631 1.2152453e-24 2.7101756e-38)
(0.21850106 0.0031892387 -1.3816195e-20 0.002525186 -4.7765445e-23 5.4116048e-37)
(0.20927754 0.0039172538 3.0482029e-20 0.0032075278 1.9113554e-22 2.6345686e-36)
(0.1978469 0.0043944438 -2.5619472e-20 0.0041340954 -2.233365e-22 1.888696e-36)
(0.1855767 0.0045678504 7.1051175e-20 0.0054032592 7.6097938e-22 1.4951201e-35)
(0.17407636 0.0044144962 1.9689803e-20 0.0071672668 2.4524531e-22 1.1966784e-36)
(0.16462254 0.0039169511 -5.3382131e-20 0.0097154362 -7.314598e-22 9.3423909e-36)
(0.15796828 0.003164001 8.6878229e-21 0.013548325 1.385957e-22 2.6569201e-37)
(0.15375215 0.0022918718 9.35675e-21 0.019181536 1.793172e-22 3.4209605e-37)
(0.15082855 0.0011330936 1.7442432e-21 0.025872954 4.6555713e-23 1.3656526e-38)
(0.14817964 -0.00082723009 -2.1255206e-20 0.031678074 -8.211394e-22 2.3984363e-36)
(0.14174851 -0.0028665569 3.6943125e-20 0.035464089 1.9204975e-21 9.0877088e-36)
(0.13377592 -0.0041049523 9.7571335e-21 0.037411465 6.4540765e-22 8.1417763e-37)
(0.11682564 -0.0044782327 1.3719825e-20 0.039112439 1.0905299e-21 2.2482189e-36)
(2.9868879e-09 -4.2655145e-08 1.6535929e-25 6.0915619e-07 -2.1828236e-24 1.553139e-38)
(3.3982121e-08 -4.420928e-07 -2.3824845e-25 5.7530244e-06 2.8760048e-24 5.9310822e-39)
(1.2063492e-07 -1.4452874e-06 -1.0556734e-25 1.7329355e-05 1.1571277e-24 4.1934949e-40)
(3.0588697e-07 -3.3605741e-06 1.4885965e-25 3.6978423e-05 -1.4837337e-24 3.7684784e-40)
(6.5651155e-07 -6.6029788e-06 -1.0211262e-24 6.6579838e-05 9.2799172e-24 8.8443718e-39)
(1.2777703e-06 -1.1738624e-05 -1.0467631e-25 0.00010823948 8.693617e-25 4.8859889e-41)
(2.3327146e-06 -1.9525682e-05 -1.8001292e-24 0.00016425584 1.3658322e-23 7.9708685e-39)
(4.0701076e-06 -3.0962033e-05 -2.5783981e-24 0.00023705533 1.7857284e-23 9.2427797e-39)
(6.8651197e-06 -4.7341185e-05 2.7689663e-23 0.00032908543 -1.7476291e-22 6.1655685e-37)
(1.1276597e-05 -7.0309839e-05 -3.2226286e-23 0.0004426568 1.8504261e-22 4.9065656e-37)
(1.8126812e-05 -0.0001019228 1.9968496e-23 0.00057972505 -1.0413075e-22 1.1211996e-37)
(2.8610412e-05 -0.00014468598 3.7692035e-23 0.00074160826 -1.7820749e-22 2.4004442e-37)
(4.4439918e-05 -0.00020157371 -9.5819162e-23 0.00092864503 4.1005378e-22 9.4065439e-37)
(6.803505e-05 -0.00027600209 -1.5156777e-23 0.0011398112 5.8615495e-23 1.4348813e-38)
(0.00010276176 -0.0003717371 7.4392494e-23 0.0013723334 -2.5954603e-22 2.1271945e-37)
(0.00015322298 -0.00049271545 6.481445e-23 0.0016213673 -2.036715e-22 9.9811521e-38)
(0.00022559658 -0.00064276235 -9.4825783e-23 0.0018798309 2.6793263e-22 1.3302374e-37)
(0.00032800652 -0.00082520716 4.3110685e-22 0.0021385097 -1.0934394e-21 1.7239492e-36)
(0.00047090199 -0.001042428 -3.1810252e-22 0.0023865454 7.2305477e-22 5.9425016e-37)
(0.00066741033 -0.0012954011 1.9533629e-22 0.0026123821 -3.9725543e-22 1.4301365e-37)
(0.00093362777 -0.001583381 -8.1111619e-22 0.002805151 1.4737444e-21 1.5965469e-36)
(0.0012888232 -0.00190387 -2.5784693e-22 0.0029563214 4.1794856e-22 1.0577413e-37)
(0.0017555999 -0.002253048 6.5136243e-22 0.0030612748 -9.4073926e-22 4.4989451e-37)
(0.0023602624 -0.0026268015 -1.1770232e-21 0.0031203369 1.5125831e-21 9.9403605e-37)
(0.0031330245 -0.0030218933 -5.522391e-22 0.0031388598 6.3049484e-22 1.501928e-37)
(0.0041076212 -0.0034366198 7.7821488e-22 0.0031258933 -7.892916e-22 2.1134414e-37)
(0.0053240723 -0.0038717193 5.1728707e-21 0.0030908681 -4.6490916e-21 6.6490569e-36)
(0.0068310489 -0.0043300332 2.7186825e-21 0.0030418612 -2.1617089e-21 1.330777e-36)
(0.0086843343 -0.0048144145 -1.5554067e-21 0.0029853465 1.0935635e-21 3.251987e-37)
(0.010949185 -0.0053283128 1.9216569e-21 0.0029257926 -1.1887339e-21 3.6632607e-37)
(0.013702776 -0.0058750195 -1.3569304e-21 0.0028654309 7.3957237e-22 1.4166159e-37)
(0.017034837 -0.0064562641 -8.7899682e-21 0.002804863 4.1968302e-21 4.5037303e-36)
(0.021047907 -0.0070715751 3.3319504e-21 0.002743684 -1.3929938e-21 5.0293056e-37)
(0.025856816 -0.0077175865 1.1237864e-20 0.0026808516 -4.1063314e-21 4.4804234e-36)
(0.031586674 -0.0083873715 -4.1916988e-21 0.002614831 1.3385267e-21 5.0066957e-37)
(0.038369016 -0.0090695728 -6.6029538e-21 0.0025436575 1.8372864e-21 9.8741079e-37)
(0.046335214 -0.0097470529 1.2776091e-20 0.0024649989 -3.0955107e-21 2.9894476e-36)
(0.055605739 -0.010395034 4.3506806e-21 0.002376311 -9.1617821e-22 2.8121108e-37)
(0.066273777 -0.010978969 -8.5186005e-21 0.0022751881 1.5579123e-21 9.0011397e-37)
(0.078381838 -0.011452821 -3.7520345e-21 0.0021600457 5.9430094e-22 1.4642835e-37)
(0.091891018 -0.011758764 1.9824564e-20 0.0020312319 -2.7092091e-21 3.4202915e-36)
(0.10664404 -0.01182974 -6.070989e-21 0.0018926509 7.1204448e-22 2.7764925e-37)
(0.12232733 -0.011596222 -9.5554759e-21 0.0017536206 9.5789323e-22 5.8717007e-37)
(0.13844463 -0.010998832 -2.7541584e-20 0.0016305081 2.3381283e-21 4.2169208e-36)
(0.15431147 -0.010008051 5.5898018e-20 0.0015472666 -3.9707856e-21 1.5343608e-35)
(0.16912731 -0.0086477646 -3.842493e-20 0.0015322356 2.2520068e-21 6.4547817e-36)
(0.18204638 -0.0069865694 -1.0254892e-20 0.0016074523 4.881893e-22 4.1128123e-37)
(0.19227891 -0.0051160743 -4.2164338e-20 0.00177899 1.5818268e-21 6.4468736e-36)
(0.19919575 -0.0031626377 -5.2300039e-20 0.0020414182 1.4972884e-21 9.2489157e-36)
(0.20241758 -0.0012509026 -2.7344013e-21 0.0023838706 5.8317301e-23 2.3727866e-38)
(0.20183658 0.00052866735 1.1773109e-20 0.0028053846 -1.5832036e-22 4.2304781e-37)
(0.19758834 0.0021076938 -8.7035304e-20 0.0033296412 5.7697371e-22 2.2709304e-35)
(0.190101 0.0034097997 -3.7071004e-20 0.0040013953 3.0980634e-23 4.0853033e-36)
(0.18015297 0.0043279999 -3.7752343e-20 0.0048765314 -1.6503074e-22 4.2618702e-36)
(0.16897106 0.0047585585 -1.2204723e-20 0.0060144408 -1.1460605e-22 4.5385267e-37)
(0.15801155 0.0046492298 -9.1981638e-20 0.0074922753 -1.2151005e-21 2.6742213e-35)
(0.14885621 0.0040416045 3.5439146e-20 0.0094269793 6.2222529e-22 4.1588409e-36)
(0.14257187 0.0030394035 -1.0336096e-20 0.012046739 -2.1826346e-22 3.799198e-37)
(0.13948112 0.0018410788 -8.1014963e-20 0.015770449 -2.1566336e-21 2.5278166e-35)
(0.13882205 0.00049074789 -3.0328282e-20 0.021025782 -1.0715917e-21 3.9599008e-36)
(0.13916762 -0.0012888419 3.3328286e-20 0.027281018 1.6197392e-21 5.5853535e-36)
(0.13921494 -0.0036112755 1.0420729e-19 0.032365185 6.9789941e-21 6.591184e-35)
(0.13410584 -0.0058018391 -2.9367193e-20 0.035185441 -2.5835721e-21 6.7206591e-36)
(0.12705546 -0.0070525464 -4.1323446e-20 0.036332328 -4.5535426e-21 1.745796e-35)
(0.10981874 -0.0072791632 -1.4758984e-20 0.037281927 -1.9803201e-21 3.2021214e-36)
(1.1786208e-08 -1.1982889e-07 -1.0868554e-24 1.2182878e-06 1.0627013e-23 1.7418456e-37)
(1.2146599e-07 -1.1824235e-06 3.2299185e-24 1.1510829e-05 -3.0213278e-23 3.0833055e-37)
(3.9711486e-07 -3.7112119e-06 -1.856615e-24 3.4686681e-05 1.6515321e-23 4.0297621e-38)
(9.2651273e-07 -8.2820075e-06 2.8720034e-25 7.4049246e-05 -2.4266028e-24 4.760474e-40)
(1.8340666e-06 -1.5638089e-05 -7.7175198e-24 0.00013339166 6.189719e-23 1.859624e-37)
(3.2990657e-06 -2.6746248e-05 1.0579362e-23 0.0002169757 -8.0472372e-23 1.9896474e-37)
(5.5779438e-06 -4.2849231e-05 -2.0900568e-23 0.00032946896 1.5049304e-22 4.5748708e-37)
(9.0348157e-06 -6.5524273e-05 1.2637788e-23 0.00047581989 -8.5908922e-23 1.0118379e-37)
(1.4184089e-05 -9.6748901e-05 6.1213248e-23 0.00066104908 -3.9168448e-22 1.4609729e-36)
(2.1748152e-05 -0.00013896652 -1.8609698e-23 0.0008899374 1.1172753e-22 8.4353272e-38)
(3.2734286e-05 -0.00019514316 -8.9231087e-23 0.0011665932 5.0106091e-22 1.2214569e-36)
(4.8536905e-05 -0.00026880649 3.4146993e-23 0.0014938822 -1.787581e-22 1.1359422e-37)
(7.1069808e-05 -0.00036404689 2.8438852e-24 0.001872729 -1.3832551e-23 5.0613824e-40)
(0.00010293347 -0.00048545804 -1.3939008e-22 0.0023013229 6.2814521e-22 7.7287687e-37)
(0.00014762217 -0.00063799366 5.4271808e-22 0.0027743009 -2.2582115e-21 7.5303883e-36)
(0.00020977191 -0.00082671447 -4.137491e-22 0.0032820403 1.584508e-21 2.8218617e-36)
(0.00029544453 -0.0010564063 -4.8868974e-24 0.0038102449 1.7169511e-23 2.5433509e-40)
(0.00041243892 -0.0013310776 3.5011918e-22 0.0043400651 -1.1249227e-21 8.4954539e-37)
(0.00057061089 -0.0016533788 -1.0939373e-21 0.0048490016 3.2040863e-21 5.4204687e-36)
(0.00078217919 -0.0020240459 6.3218656e-22 0.0053127743 -1.6827702e-21 1.1924326e-36)
(0.0010619953 -0.0024415324 1.1483798e-21 0.0057081584 -2.7697323e-21 2.614401e-36)
(0.0014277641 -0.0029020355 5.6329467e-22 0.0060164819 -1.2274312e-21 4.2181727e-37)
(0.0019002453 -0.0034001271 -3.344797e-21 0.0062271033 6.5679499e-21 1.0145265e-35)
(0.0025036484 -0.00393017 -2.0857496e-21 0.0063398807 3.680727e-21 2.7210354e-36)
(0.0032661826 -0.0044881464 1.5912656e-21 0.0063656598 -2.5183017e-21 1.116096e-36)
(0.0042192349 -0.0050722852 -1.0931365e-21 0.0063239458 1.5466048e-21 3.7315551e-37)
(0.0054001333 -0.0056844988 4.7630058e-21 0.0062364387 -6.0153671e-21 5.1557612e-36)
(0.0068547159 -0.0063296899 -1.5852551e-21 0.0061215764 1.7819e-21 4.1946935e-37)
(0.0086351782 -0.0070126309 4.9154466e-21 0.0059937674 -4.9060409e-21 3.0136169e-36)
(0.010802568 -0.0077388203 -3.1780394e-21 0.0058634037 2.8090106e-21 9.5503728e-37)
(0.013428426 -0.0085133243 2.248115e-21 0.0057358273 -1.7537313e-21 3.6371521e-37)
(0.016595779 -0.0093389562 -9.3437962e-21 0.0056121896 6.4243327e-21 4.8876499e-36)
(0.020398733 -0.01021518 1.5138798e-21 0.0054907908 -9.1560449e-22 1.0106282e-37)
(0.024941729 -0.011137145 -9.0394474e-21 0.0053680976 4.7952814e-21 2.8259993e-36)
(0.030337086 -0.012094739 9.7128316e-21 0.0052394622 -4.5166447e-21 2.6117222e-36)
(0.036700596 -0.013071376 3.5045202e-21 0.0050994995 -1.4252856e-21 2.700478e-37)
(0.044144338 -0.014042065 -4.8386744e-20 0.004942211 1.7218233e-20 4.2594712e-35)
(0.052765201 -0.014970712 -1.4048483e-20 0.0047611458 4.3636897e-21 2.9406329e-36)
(0.062627768 -0.015807131 1.2847458e-20 0.0045499704 -3.4783581e-21 2.0514426e-36)
(0.073740515 -0.01648466 -1.3887752e-20 0.0043037903 3.2697101e-21 2.0100799e-36)
(0.086025352 -0.016919917 3.9347666e-21 0.0040215344 -8.0255931e-22 1.3494684e-37)
(0.099282085 -0.017016794 2.666572e-20 0.0037095767 -4.7009321e-21 5.3670576e-36)
(0.11315375 -0.016677006 -1.3289186e-21 0.0033860814 2.0159903e-22 1.1732449e-38)
(0.12710404 -0.015820249 -1.0472775e-20 0.0030849173 1.3509039e-21 6.1862052e-37)
(0.14043848 -0.014417282 5.3909362e-21 0.002856739 -5.8115322e-22 1.4849462e-37)
(0.15239924 -0.012520316 -2.9921231e-21 0.0027592427 2.7118563e-22 3.7348429e-38)
(0.16221373 -0.010245172 -8.8247464e-21 0.0028329388 6.5446621e-22 3.1328843e-37)
(0.16923368 -0.0077497176 1.4059024e-19 0.0030831332 -8.383965e-21 7.4678209e-35)
(0.17304042 -0.0052258921 -1.6273229e-20 0.0034849273 7.4456147e-22 9.3549532e-37)
(0.17348734 -0.0028396307 1.5385088e-20 0.0039978821 -5.3184838e-22 7.9669213e-37)
(0.17067426 -0.00070295619 -1.4668658e-19 0.0046009686 3.521614e-21 6.9979397e-35)
(0.16491673 0.0010969798 8.0694813e-20 0.0053188383 -1.1813572e-21 2.0812421e-35)
(0.15680186 0.002452389 6.6160465e-20 0.0062098186 -3.8007922e-22 1.3918595e-35)
(0.14725216 0.003223557 6.2291157e-20 0.0073370637 1.256618e-22 1.2495111e-35)
(0.13757556 0.0033008671 5.869652e-20 0.0087476225 5.3291528e-22 1.1394495e-35)
(0.12920831 0.0026741188 8.9437997e-20 0.010482617 1.3970955e-21 2.7576956e-35)
(0.12348365 0.0014990695 -1.7244521e-19 0.012598928 -3.8670765e-21 1.0831168e-34)
(0.12104987 2.1130372e-05 1.0152028e-19 0.015251024 3.0104045e-21 4.0385985e-35)
(0.12154358 -0.0014324241 1.4565215e-19 0.01876155 5.647392e-21 9.1712206e-35)
(0.12389019 -0.0030155385 -9.961335e-20 0.023483076 -5.3232462e-21 4.8881831e-35)
(0.12621185 -0.005079658 -2.900723e-20 0.028958517 -2.1279245e-21 4.9459362e-36)
(0.12722736 -0.0072878575 -2.2680639e-20 0.032896034 -2.2358354e-21 3.7499773e-36)
(0.12157228 -0.0091535952 1.0001853e-19 0.034404866 1.3132882e-20 9.7113982e-35)
(0.1137621 -0.010098758 6.314257e-20 0.034533069 1.0326247e-20 5.2395723e-35)
(0.09553065 -0.0098911517 -2.2373244e-21 0.034523947 -4.2726508e-22 1.0169086e-37)
(3.1600872e-08 -2.4784576e-07 1.2748741e-24 1.9438564e-06 -9.7748797e-24 8.6362996e-38)
(3.1276339e-07 -2.3975963e-06 -7.7705282e-24 1.8379754e-05 5.8097572e-23 6.6561679e-37)
(9.8643001e-07 -7.3938622e-06 9.8496377e-24 5.5422677e-05 -7.1527074e-23 4.4230323e-37)
(2.2145025e-06 -1.6192394e-05 -5.181556e-24 0.00011840506 3.6505958e-23 6.3151348e-38)
(4.2130613e-06 -2.9987998e-05 -2.4902803e-24 0.00021347212 1.7005115e-23 8.2397506e-39)
(7.2735295e-06 -5.0275027e-05 2.781636e-23 0.00034756079 -1.8388911e-22 6.0991707e-37)
(1.1787478e-05 -7.890464e-05 -8.9871483e-24 0.00052831384 5.7408489e-23 3.9110675e-38)
(1.8278832e-05 -0.00011814468 -2.4050948e-23 0.00076389695 1.4809394e-22 1.7624728e-37)
(2.7446626e-05 -0.00017074171 -2.3014816e-24 0.0010626852 1.3621528e-23 1.0369414e-39)
(4.0220373e-05 -0.00023997676 -2.4252927e-23 0.0014327825 1.3756702e-22 7.4774207e-38)
(5.7830876e-05 -0.00032970423 4.1900785e-23 0.0018813406 -2.2704471e-22 1.4647662e-37)
(8.1900297e-05 -0.00044436135 -3.5793277e-23 0.0024136509 1.846651e-22 7.0668381e-38)
(0.00011455497 -0.00058892939 -1.6177883e-22 0.0030320138 7.9199575e-22 9.578979e-37)
(0.0001585629 -0.00076882026 -5.7679792e-24 0.0037344257 2.6701828e-23 8.0691936e-40)
(0.00021750019 -0.0009896681 1.8492698e-22 0.0045131834 -8.0640644e-22 5.5679073e-37)
(0.00029594532 -0.0012569998 1.598715e-22 0.0053536101 -6.5429427e-22 2.782879e-37)
(0.00039969931 -0.0015757738 -1.6764059e-22 0.0062331995 6.4142297e-22 2.0504933e-37)
(0.00053602678 -0.0019498047 1.945622e-23 0.0071215737 -6.9312136e-23 1.8769995e-39)
(0.00071390863 -0.0023811302 4.813383e-22 0.0079816945 -1.5904467e-21 7.6859571e-37)
(0.00094429635 -0.0028694421 7.08608e-22 0.0087726921 -2.1626259e-21 1.1301028e-36)
(0.0012403611 -0.0034117705 -9.721008e-22 0.0094544094 2.7291649e-21 1.4552703e-36)
(0.0016177388 -0.0040026527 -1.1690017e-21 0.0099932714 3.007039e-21 1.4534857e-36)
(0.0020947877 -0.0046349984 1.867853e-21 0.010368434 -4.3850707e-21 2.59149e-36)
(0.0026930155 -0.0053018318 -2.7270321e-21 0.010576556 5.8206221e-21 3.9021773e-36)
(0.0034379149 -0.0059987508 -5.536368e-21 0.010633378 1.0703659e-20 1.1508409e-35)
(0.0043580928 -0.0067246356 1.5153135e-20 0.010570904 -2.6447629e-20 6.2750148e-35)
(0.0054874213 -0.0074833197 -9.6231202e-21 0.010427958 1.5112032e-20 1.8669997e-35)
(0.0068676254 -0.0082819536 1.63541e-20 0.010237067 -2.3030438e-20 4.0268706e-35)
(0.0085466655 -0.0091278399 -2.3291298e-20 0.010023707 2.9319579e-20 6.1882722e-35)
(0.010580132 -0.010028738 2.9506012e-20 0.0098069189 -3.3090627e-20 7.6091562e-35)
(0.01303221 -0.010991374 -3.4468868e-20 0.0095969316 3.4336019e-20 8.0505154e-35)
(0.01597726 -0.012019579 6.5186335e-21 0.0093960932 -5.7536032e-21 2.2643273e-36)
(0.01949854 -0.013112544 2.5324462e-20 0.0092011645 -1.974657e-20 2.690083e-35)
(0.023687181 -0.014263671 -1.5979372e-20 0.0090052419 1.0988618e-20 8.5528426e-36)
(0.028639303 -0.015459393 5.5698487e-21 0.0087993038 -3.3723067e-21 8.3867965e-37)
(0.034451111 -0.016677654 1.7951454e-21 0.0085730697 -9.5624357e-22 7.1859581e-38)
(0.041211026 -0.017885471 2.4749936e-20 0.008315249 -1.1565195e-20 1.1009623e-35)
(0.048987701 -0.019035552 8.9392739e-21 0.0080137359 -3.6623349e-21 1.1807142e-36)
(0.057812692 -0.020062657 9.9542983e-21 0.0076564901 -3.5675585e-21 1.2144083e-36)
(0.067656987 -0.020880855 1.0717416e-20 0.0072337661 -3.3557822e-21 1.2022057e-36)
(0.078401992 -0.021383733 -5.952566e-20 0.0067423302 1.6222433e-20 3.160479e-35)
(0.089807651 -0.021450452 2.8328425e-20 0.0061920436 -6.6922824e-21 6.1581068e-36)
(0.10148416 -0.020961297 4.9398927e-21 0.005613998 -1.0089689e-21 1.5744981e-37)
(0.1128822 -0.019828214 -6.0138378e-20 0.0050681852 1.0482918e-20 2.1146563e-35)
(0.1233497 -0.018042646 -3.2474698e-20 0.0046441744 4.8067785e-21 5.4643586e-36)
(0.1322286 -0.015704355 1.6770476e-20 0.0044388657 -2.0892879e-21 1.3256923e-36)
(0.13891304 -0.012986306 6.403021e-20 0.0045111043 -6.5632319e-21 1.7532092e-35)
(0.14297019 -0.010111516 -2.8794741e-20 0.0048592304 2.4125259e-21 3.3142116e-36)
(0.1442066 -0.0073141879 8.6776994e-20 0.0054252876 -5.6520324e-21 2.819281e-35)
(0.14265525 -0.0047755861 4.8088995e-20 0.0061266338 -2.383297e-21 8.2851169e-36)
(0.13855631 -0.0026061966 6.7000069e-20 0.0069189945 -2.41528e-21 1.5649058e-35)
(0.13233638 -0.00089819557 1.803644e-19 0.0078353571 -4.0764899e-21 1.1175411e-34)
(0.12467922 0.00021575211 -1.3832003e-19 0.0089564921 1.5380067e-21 6.5985279e-35)
(0.1165924 0.0005723387 4.4479295e-20 0.010353336 4.7545077e-23 6.9205372e-36)
(0.10938457 8.239191e-05 -7.4396207e-20 0.012051252 -6.9523705e-22 2.0111254e-35)
(0.10433746 -0.001177629 -6.8392666e-20 0.014038401 -1.314413e-21 1.7844096e-35)
(0.1023623 -0.0028940679 -2.5641213e-20 0.016298008 -7.6097233e-22 2.6841822e-36)
(0.10351337 -0.0046498621 -2.2184019e-19 0.018883434 -8.6139401e-21 2.189133e-34)
(0.10665784 -0.0060812578 -5.5901398e-20 0.022023994 -2.9391776e-21 1.5611186e-35)
(0.11064449 -0.0076380345 1.1762817e-19 0.026049532 8.6837931e-21 8.0755293e-35)
(0.11304174 -0.0096355679 3.9854588e-20 0.030419753 4.1313882e-21 1.1469427e-35)
(0.11289587 -0.011277438 -2.6222969e-20 0.03283477 -3.6312776e-21 6.388474e-36)
(0.10517494 -0.012463371 -4.6058168e-20 0.0329046 -8.4185132e-21 2.7302977e-35)
(0.095285891 -0.012815006 -6.0252294e-20 0.031981005 -1.3952177e-20 6.6187056e-35)
(0.076473973 -0.012003808 3.648e-21 0.030988774 1.007379e-21 3.8486872e-37)
(6.6577245e-08 -4.2285091e-07 5.8349924e-24 2.6856465e-06 -3.6514588e-23 8.01771e-37)
(6.4604166e-07 -4.0523586e-06 3.7471727e-24 2.5418889e-05 -2.3094491e-23 6.9833152e-38)
(2.0008689e-06 -1.2389599e-05 -4.654992e-24 7.6718511e-05 2.8178761e-23 4.5778079e-38)
(4.4028756e-06 -2.6876592e-05 -2.3622598e-23 0.00016406712 1.4035251e-22 6.2402573e-37)
(8.2002903e-06 -4.9277323e-05 1.7003886e-23 0.0002961301 -9.9083374e-23 1.8728232e-37)
(1.3840009e-05 -8.173634e-05 -3.1387544e-23 0.00048275064 1.7920675e-22 3.8787679e-37)
(2.1893762e-05 -0.00012683529 1.7121834e-23 0.00073485895 -9.56416e-23 7.2592917e-38)
(3.308982e-05 -0.00018764516 5.0757177e-24 0.0010642525 -2.7686153e-23 4.1164119e-39)
(4.8352983e-05 -0.00026777272 -3.5402328e-23 0.0014831999 1.8814518e-22 1.3181766e-37)
(6.8853437e-05 -0.0003713898 -9.3351405e-23 0.0020038138 4.8217682e-22 6.1191119e-37)
(9.6066388e-05 -0.0005032346 -5.7191022e-24 0.0026371406 2.8637125e-23 1.5406974e-39)
(0.00013184387 -0.00066856859 2.2650264e-22 0.0033919219 -1.0960687e-21 1.6516005e-36)
(0.00017850051 -0.00087307029 -3.7901156e-22 0.0042730098 1.7672826e-21 3.1580152e-36)
(0.00023891449 -0.0011226442 7.3868117e-22 0.005279475 -3.3080796e-21 8.2246498e-36)
(0.00031664486 -0.0014231242 -2.3268656e-22 0.0064025296 9.9734429e-22 5.609182e-37)
(0.00041606575 -0.0017798575 5.9524358e-22 0.0076235118 -2.4328617e-21 2.527205e-36)
(0.00054251772 -0.0021971714 -8.6489839e-22 0.0089123385 3.3575007e-21 3.6850126e-36)
(0.00070247605 -0.0026777545 6.7401409e-22 0.01022699 -2.4748117e-21 1.549168e-36)
(0.00090373712 -0.0032220327 -1.2739846e-22 0.011514702 4.4050678e-22 3.8512962e-38)
(0.0011556256 -0.0038276774 -6.1689905e-22 0.012715495 1.9996902e-21 6.301474e-37)
(0.00146923 -0.0044894493 1.7832284e-21 0.013768353 -5.3937738e-21 3.698421e-36)
(0.0018576823 -0.0051996161 -2.9783029e-21 0.014619725 8.3664671e-21 7.3102687e-36)
(0.0023364966 -0.0059491394 3.8120001e-21 0.015233014 -9.8984043e-21 8.5659274e-36)