/*--------------------------------*- C++ -*----------------------------------*\
  =========                 |
  \\      /  F ield         | OpenFOAM: The Open Source CFD Toolbox
   \\    /   O peration     | Website:  https://openfoam.org
    \\  /    A nd           | Version:  13
     \\/     M anipulation  |
\*---------------------------------------------------------------------------*/
FoamFile
{
    format      ascii;
    class       volScalarField;
    location    "47.601929";
    object      yPlus;
}
// * * * * * * * * * * * * * * * * * * * * * * * * * * * * * * * * * * * * * //

dimensions      [];

internalField   uniform 0;

boundaryField
{
    inlet
    {
        type            calculated;
        value           uniform 0;
    }
    outlet
    {
        type            calculated;
        value           uniform 0;
    }
    cylinder
    {
        type            calculated;
        value           nonuniform List<scalar> 
132
(
1.7590904e-07
1.7648349e-07
1.7643538e-07
1.757148e-07
1.7425008e-07
1.7198954e-07
1.6893641e-07
1.6509136e-07
1.6046432e-07
1.5508068e-07
1.489849e-07
1.4224141e-07
1.349346e-07
1.2716837e-07
1.1906433e-07
1.1075903e-07
1.0239972e-07
9.4138342e-08
8.6122172e-08
7.8486739e-08
7.1339596e-08
6.4739472e-08
5.8676244e-08
5.3052947e-08
4.7679807e-08
4.2299383e-08
3.6660064e-08
3.0635266e-08
2.4330316e-08
1.8106275e-08
1.2501759e-08
8.0706035e-09
5.2638528e-09
4.323247e-09
4.7477547e-09
5.789247e-09
7.1946595e-09
8.954942e-09
1.1104209e-08
1.3694774e-08
1.6838388e-08
2.0634037e-08
2.4753195e-08
2.9129146e-08
3.3636579e-08
3.8170721e-08
4.2640932e-08
4.6976005e-08
5.1132454e-08
5.5078133e-08
5.879386e-08
6.2272198e-08
6.5501142e-08
6.8470938e-08
7.1232928e-08
7.3744431e-08
7.6009437e-08
7.8053252e-08
7.9869951e-08
8.1466389e-08
8.2829263e-08
8.3964692e-08
8.4872826e-08
8.5566558e-08
8.6045286e-08
8.6298829e-08
1.7467484e-07
1.7278009e-07
1.7026906e-07
1.671281e-07
1.6336735e-07
1.5900806e-07
1.5408139e-07
1.48628e-07
1.4269803e-07
1.3635027e-07
1.2965189e-07
1.2267691e-07
1.1550474e-07
1.0822118e-07
1.0091677e-07
9.3685742e-08
8.6621824e-08
7.9816531e-08
7.3356541e-08
6.731806e-08
6.1756647e-08
5.6688886e-08
5.2066386e-08
4.7748313e-08
4.3493661e-08
3.9000815e-08
3.4000232e-08
2.8403729e-08
2.2412059e-08
1.6492011e-08
1.1242492e-08
7.2256406e-09
4.8691467e-09
4.3351286e-09
4.9402218e-09
6.0740452e-09
7.5641765e-09
9.4201279e-09
1.1678645e-08
1.4390946e-08
1.7663307e-08
2.158774e-08
2.5811302e-08
3.0263224e-08
3.4820277e-08
3.9376892e-08
4.3843961e-08
4.8160142e-08
5.2281597e-08
5.618302e-08
5.9844348e-08
6.3266423e-08
6.6432821e-08
6.9337249e-08
7.2046259e-08
7.4480494e-08
7.6686049e-08
7.865526e-08
8.0408602e-08
8.1934942e-08
8.3220104e-08
8.4287065e-08
8.5124076e-08
8.5746221e-08
8.614592e-08
8.6329259e-08
)
;
    }
    frontAndBack
    {
        type            empty;
    }
}


// ************************************************************************* //
