/*--------------------------------*- C++ -*----------------------------------*\
  =========                 |
  \\      /  F ield         | OpenFOAM: The Open Source CFD Toolbox
   \\    /   O peration     | Website:  https://openfoam.org
    \\  /    A nd           | Version:  13
     \\/     M anipulation  |
\*---------------------------------------------------------------------------*/
FoamFile
{
    format      ascii;
    class       volScalarField;
    location    "46.699565";
    object      pPrime2Mean;
}
// * * * * * * * * * * * * * * * * * * * * * * * * * * * * * * * * * * * * * //

dimensions      [0 4 -4 0 0 0 0];

internalField   nonuniform List<scalar> 
17140
(
6669.2308
6669.2308
6669.2308
6669.2305
6669.2299
6669.2291
6669.2279
6669.2262
6669.224
6669.2211
6669.2174
6669.2127
6669.2067
6669.1992
6669.1897
6669.1779
6669.163
6669.1443
6669.1209
6669.0917
6669.055
6669.009
6668.9512
6668.8785
6668.7869
6668.6715
6668.5259
6668.3422
6668.1105
6667.8186
6667.4515
6666.9907
6666.4138
6665.6936
6664.7976
6663.6869
6662.3156
6660.6296
6658.5665
6656.0541
6653.0103
6649.3419
6644.9442
6639.7
6633.4786
6626.1354
6617.5113
6607.4323
6595.708
6582.1311
6566.4763
6548.4997
6527.9371
6504.5043
6477.8943
6447.7763
6413.7916
6375.554
6332.6401
6284.6008
6230.9324
6171.1207
6104.5652
6030.6836
5948.7738
6669.3931
6669.3931
6669.3931
6669.3927
6669.3922
6669.3913
6669.3901
6669.3884
6669.3862
6669.3833
6669.3796
6669.3748
6669.3688
6669.3613
6669.3518
6669.3398
6669.3249
6669.3062
6669.2828
6669.2536
6669.2169
6669.1709
6669.1132
6669.0407
6668.9493
6668.8342
6668.689
6668.5058
6668.2747
6667.9835
6667.6172
6667.1573
6666.5813
6665.862
6664.967
6663.8572
6662.4867
6660.8016
6658.7394
6656.2282
6653.1857
6649.5191
6645.1235
6639.8817
6633.6633
6626.3238
6617.704
6607.6298
6595.9111
6582.3406
6566.6931
6548.7247
6528.1716
6504.7497
6478.1521
6448.0483
6414.0796
6375.8604
6332.967
6284.95
6231.3062
6171.5212
6104.9956
6031.1487
5949.2734
6669.7944
6669.7945
6669.7944
6669.7941
6669.7935
6669.7926
6669.7914
6669.7897
6669.7875
6669.7847
6669.781
6669.7763
6669.7703
6669.7628
6669.7533
6669.7415
6669.7267
6669.7081
6669.6849
6669.6558
6669.6194
6669.5737
6669.5164
6669.4443
6669.3535
6669.2391
6669.0948
6668.9126
6668.6827
6668.3929
6668.0282
6667.57
6666.9958
6666.2785
6665.3853
6664.2773
6662.9086
6661.2255
6659.1656
6656.657
6653.6179
6649.9553
6645.5648
6640.3291
6634.1181
6626.7874
6618.1781
6608.1161
6596.4112
6582.8563
6567.2267
6549.2788
6528.7493
6505.3543
6478.7873
6448.7182
6414.7887
6376.6138
6333.7696
6285.8069
6232.2226
6172.5037
6106.0519
6032.2894
5950.4984
6670.4483
6670.4483
6670.4482
6670.4479
6670.4473
6670.4465
6670.4453
6670.4436
6670.4414
6670.4386
6670.4349
6670.4303
6670.4244
6670.417
6670.4077
6670.396
6670.3814
6670.363
6670.3401
6670.3114
6670.2754
6670.2303
6670.1736
6670.1022
6670.0124
6669.8991
6669.756
6669.5753
6669.3472
6669.0595
6668.697
6668.2412
6667.6696
6666.9549
6666.0643
6664.9591
6663.5933
6661.9133
6659.857
6657.3529
6654.3193
6650.6635
6646.2811
6641.0555
6634.8565
6627.5401
6618.9478
6608.9054
6597.2228
6583.6934
6568.093
6550.1785
6529.6874
6506.3363
6479.8191
6449.8064
6415.9406
6377.8373
6335.0725
6287.1973
6233.7098
6174.0982
6107.7669
6034.1418
5952.4874
6671.368
6671.3681
6671.368
6671.3677
6671.3671
6671.3662
6671.365
6671.3634
6671.3612
6671.3584
6671.3548
6671.3502
6671.3444
6671.3371
6671.328
6671.3164
6671.302
6671.2839
6671.2613
6671.233
6671.1976
6671.1531
6671.0971
6671.0267
6670.938
6670.826
6670.6845
6670.5058
6670.2799
6669.9947
6669.6351
6669.1824
6668.614
6667.9027
6667.0156
6665.914
6664.5522
6662.8767
6660.8258
6658.3282
6655.3025
6651.6563
6647.2855
6642.0739
6635.8918
6628.5956
6620.0269
6610.0118
6598.3605
6584.867
6569.3076
6551.4403
6531.0033
6507.7139
6481.2667
6451.3332
6417.5566
6379.553
6336.8993
6289.1464
6235.7949
6176.3349
6110.1738
6036.7422
5955.2806
6672.5651
6672.5651
6672.565
6672.5647
6672.5641
6672.5633
6672.5621
6672.5605
6672.5583
6672.5555
6672.552
6672.5475
6672.5418
6672.5346
6672.5255
6672.5142
6672.5
6672.4823
6672.46
6672.4322
6672.3973
6672.3535
6672.2984
6672.2291
6672.1417
6672.0313
6671.8918
6671.7154
6671.4923
6671.2102
6670.854
6670.405
6669.8406
6669.1334
6668.2508
6667.1539
6665.7974
6664.1281
6662.0844
6659.5955
6656.5803
6652.9467
6648.5912
6643.398
6637.2379
6629.9678
6621.4296
6611.4499
6599.8393
6586.3924
6570.8867
6553.0811
6532.7146
6509.5056
6483.1497
6453.3192
6419.6584
6381.7842
6339.2743
6291.6806
6238.5066
6179.2447
6113.3067
6040.128
5958.9193
6674.0519
6674.0519
6674.0518
6674.0514
6674.0509
6674.05
6674.0488
6674.0472
6674.0451
6674.0423
6674.0388
6674.0344
6674.0288
6674.0217
6674.0128
6674.0017
6673.9877
6673.9703
6673.9485
6673.9212
6673.8869
6673.844
6673.7899
6673.7219
6673.636
6673.5276
6673.3904
6673.2166
6672.9967
6672.7182
6672.366
6671.9214
6671.3617
6670.6595
6669.7822
6668.6913
6667.3415
6665.68
6663.6456
6661.1678
6658.1657
6654.548
6650.2116
6645.0413
6638.9086
6631.6708
6623.1705
6613.2345
6601.6745
6588.2858
6572.8469
6555.1181
6534.8395
6511.7304
6485.4878
6455.7852
6422.2681
6384.5543
6342.2226
6294.8271
6241.8743
6182.8599
6117.2005
6044.3374
5963.4457
6675.8419
6675.8419
6675.8417
6675.8414
6675.8408
6675.8399
6675.8387
6675.8371
6675.835
6675.8323
6675.8289
6675.8245
6675.819
6675.8121
6675.8034
6675.7925
6675.7788
6675.7618
6675.7404
6675.7138
6675.6803
6675.6383
6675.5854
6675.5189
6675.4348
6675.3285
6675.1939
6675.0232
6674.8068
6674.5323
6674.1845
6673.7448
6673.1904
6672.494
6671.6231
6670.5393
6669.1977
6667.5458
6665.5227
6663.0582
6660.0722
6656.4737
6652.1603
6647.0177
6640.9179
6633.719
6625.264
6615.3807
6603.8816
6590.5631
6575.2051
6557.5691
6537.3964
6514.4078
6488.3015
6458.7527
6425.4083
6387.8872
6345.7701
6298.6136
6245.9284
6187.2137
6121.8913
6049.409
5968.9022
6677.951
6677.951
6677.9508
6677.9504
6677.9498
6677.949
6677.9478
6677.9462
6677.9441
6677.9415
6677.9381
6677.9338
6677.9284
6677.9216
6677.9131
6677.9025
6677.8892
6677.8726
6677.8518
6677.8257
6677.7931
6677.7522
6677.7006
6677.6356
6677.5535
6677.4495
6677.3176
6677.1502
6676.9374
6676.6671
6676.324
6675.8895
6675.3408
6674.6508
6673.787
6672.7115
6671.3795
6669.7388
6667.729
6665.2803
6662.3132
6658.7373
6654.4512
6649.3411
6643.28
6636.1266
6627.7249
6617.9037
6606.4764
6593.2409
6577.9785
6560.4519
6540.4041
6517.5574
6491.6116
6462.2438
6429.1024
6391.8078
6349.9432
6303.0688
6250.6999
6192.3394
6127.4149
6055.3824
5975.3323
6680.3961
6680.3961
6680.3959
6680.3955
6680.3949
6680.3941
6680.3929
6680.3913
6680.3893
6680.3867
6680.3834
6680.3792
6680.3739
6680.3673
6680.359
6680.3486
6680.3357
6680.3195
6680.2993
6680.274
6680.2423
6680.2024
6680.1522
6680.0888
6680.0086
6679.9069
6679.7777
6679.6134
6679.4042
6679.138
6678.7996
6678.3703
6677.8275
6677.1442
6676.2884
6675.222
6673.9008
6672.2729
6670.2783
6667.8478
6664.9024
6661.3527
6657.0981
6652.0257
6646.0092
6638.9084
6630.5681
6620.8186
6609.4746
6596.3355
6581.1839
6563.7844
6543.8813
6521.1989
6495.4389
6466.2803
6433.3735
6396.3407
6354.7687
6308.2219
6256.2211
6198.2722
6133.81
6062.2992
5982.7804
6683.1949
6683.1948
6683.1946
6683.1942
6683.1936
6683.1928
6683.1916
6683.19
6683.188
6683.1855
6683.1822
6683.1781
6683.173
6683.1665
6683.1585
6683.1484
6683.1358
6683.1201
6683.1004
6683.0758
6683.0448
6683.006
6682.957
6682.895
6682.8166
6682.7169
6682.5902
6682.4287
6682.2228
6681.9603
6681.6262
6681.2019
6680.6651
6679.9889
6679.1414
6678.085
6676.7757
6675.162
6673.1845
6670.7745
6667.8538
6664.334
6660.1153
6655.0856
6649.1199
6642.0787
6633.8085
6624.1409
6612.8922
6599.8633
6584.8386
6567.5844
6547.8469
6525.3523
6499.8047
6470.885
6438.2456
6401.512
6360.2752
6314.1047
6262.526
6205.0491
6141.1151
6070.2001
5991.2912
6686.3635
6686.3634
6686.3632
6686.3628
6686.3622
6686.3613
6686.3601
6686.3586
6686.3566
6686.3541
6686.3509
6686.3469
6686.3419
6686.3355
6686.3277
6686.3178
6686.3055
6686.2902
6686.2709
6686.2469
6686.2166
6686.1786
6686.1306
6686.0699
6685.9929
6685.8949
6685.7702
6685.611
6685.4079
6685.1487
6684.8185
6684.3991
6683.8681
6683.199
6682.3603
6681.3145
6680.0181
6678.4201
6676.4614
6674.0742
6671.1814
6667.6952
6663.5169
6658.5354
6652.6266
6645.6526
6637.4614
6627.8861
6616.7451
6603.8411
6588.9603
6571.8707
6552.3207
6530.0385
6504.7308
6476.0807
6443.7438
6407.349
6366.4925
6320.7487
6269.6481
6212.7046
6149.3683
6079.127
6000.9096
6689.9156
6689.9155
6689.9153
6689.9149
6689.9143
6689.9134
6689.9123
6689.9108
6689.9088
6689.9063
6689.9032
6689.8992
6689.8943
6689.8881
6689.8804
6689.8708
6689.8587
6689.8437
6689.8248
6689.8012
6689.7715
6689.7341
6689.6869
6689.6271
6689.5511
6689.4545
6689.3313
6689.174
6688.9732
6688.7168
6688.3903
6687.9754
6687.4502
6686.7885
6685.9589
6684.9245
6683.642
6682.0609
6680.123
6677.7612
6674.8993
6671.4506
6667.3173
6662.3895
6656.5443
6649.6453
6641.5423
6632.0705
6621.0503
6608.2865
6593.5671
6576.6622
6557.3224
6535.2783
6510.2392
6481.8913
6449.8936
6413.8792
6373.4498
6328.1849
6277.621
6221.2761
6158.6088
6089.1226
6011.6801
6693.8634
6693.8633
6693.8631
6693.8627
6693.862
6693.8612
6693.86
6693.8585
6693.8566
6693.8542
6693.8511
6693.8472
6693.8423
6693.8362
6693.8286
6693.8191
6693.8073
6693.7924
6693.7739
6693.7506
6693.7213
6693.6844
6693.6377
6693.5786
6693.5035
6693.4078
6693.2858
6693.1301
6692.9312
6692.6775
6692.3544
6691.9441
6691.4249
6690.7708
6689.9509
6688.9286
6687.661
6686.0984
6684.1832
6681.8495
6679.0219
6675.6147
6671.5314
6666.663
6660.8883
6654.0727
6646.0677
6636.7111
6625.8255
6613.2178
6598.6781
6581.9787
6562.8726
6541.0932
6516.3529
6488.3413
6456.7212
6421.1305
6381.1773
6336.4463
6286.4796
6230.7994
6168.8757
6100.2287
6023.6467
6698.2178
6698.2178
6698.2175
6698.2171
6698.2165
6698.2157
6698.2145
6698.2131
6698.2112
6698.2087
6698.2057
6698.2019
6698.1971
6698.1911
6698.1836
6698.1742
6698.1625
6698.1479
6698.1295
6698.1065
6698.0775
6698.0409
6697.9947
6697.9361
6697.8616
6697.7668
6697.6458
6697.4915
6697.2945
6697.0434
6696.7238
6696.3182
6695.8053
6695.1595
6694.3499
6693.3405
6692.0891
6690.5465
6688.6563
6686.3534
6683.5635
6680.2022
6676.1738
6671.3711
6665.6743
6658.9508
6651.0546
6641.8256
6631.0889
6618.6538
6604.3128
6587.8404
6568.9925
6547.5057
6523.0957
6495.4555
6464.2529
6429.1317
6389.7058
6345.5652
6296.2578
6241.3119
6180.2081
6112.487
6036.8537
6702.9914
6702.9913
6702.9911
6702.9907
6702.9901
6702.9893
6702.9881
6702.9867
6702.9848
6702.9824
6702.9794
6702.9756
6702.9709
6702.965
6702.9576
6702.9483
6702.9367
6702.9222
6702.9041
6702.8813
6702.8525
6702.8163
6702.7704
6702.7122
6702.6383
6702.5442
6702.4243
6702.2713
6702.0763
6701.8279
6701.5121
6701.1117
6700.6055
6699.9681
6699.1696
6698.1743
6696.9403
6695.4197
6693.5567
6691.2875
6688.539
6685.228
6681.2601
6676.5295
6670.9185
6664.2966
6656.5201
6647.4317
6636.8589
6624.6135
6610.4907
6594.2678
6575.7036
6554.5383
6530.4908
6503.2587
6472.5161
6437.9121
6399.066
6355.574
6306.9906
6252.8498
6192.6445
6125.9386
6051.3443
6708.1988
6708.1987
6708.1985
6708.1981
6708.1975
6708.1967
6708.1956
6708.1941
6708.1923
6708.1899
6708.1869
6708.1832
6708.1785
6708.1726
6708.1652
6708.156
6708.1445
6708.1301
6708.1121
6708.0894
6708.0608
6708.0247
6707.9791
6707.9213
6707.8479
6707.7545
6707.6355
6707.484
6707.2911
6707.0456
6706.7338
6706.3387
6705.8395
6705.2115
6704.4248
6703.4443
6702.2293
6700.7325
6698.8993
6696.6669
6693.9636
6690.7074
6686.8056
6682.1542
6676.6373
6670.1269
6662.4818
6653.5474
6643.154
6631.1162
6617.2319
6601.2817
6583.0277
6562.2133
6538.5619
6511.7771
6481.5383
6447.5002
6409.2885
6366.5052
6318.7118
6265.449
6206.2232
6140.6243
6067.1615
6713.856
6713.856
6713.8557
6713.8554
6713.8548
6713.854
6713.8529
6713.8514
6713.8496
6713.8472
6713.8443
6713.8405
6713.8358
6713.83
6713.8226
6713.8134
6713.8019
6713.7875
6713.7694
6713.7468
6713.7182
6713.6822
6713.6367
6713.5791
6713.506
6713.4132
6713.2952
6713.1451
6712.9542
6712.7116
6712.4039
6712.0144
6711.5226
6710.9042
6710.13
6709.1656
6707.9711
6706.5001
6704.6992
6702.5069
6699.8527
6696.6562
6692.8264
6688.2613
6682.8473
6676.4587
6668.9571
6660.1907
6649.9927
6638.1809
6624.5564
6608.9029
6590.9859
6570.5532
6547.3339
6521.0367
6491.3464
6457.9251
6420.4038
6378.3903
6331.4549
6279.1449
6220.9817
6156.5842
6084.3473
6719.9797
6719.9796
6719.9794
6719.979
6719.9785
6719.9776
6719.9765
6719.9751
6719.9732
6719.9709
6719.9679
6719.9641
6719.9593
6719.9534
6719.9459
6719.9366
6719.925
6719.9105
6719.8923
6719.8694
6719.8407
6719.8046
6719.759
6719.7014
6719.6285
6719.5362
6719.4189
6719.2701
6719.0812
6718.8416
6718.538
6718.1541
6717.67
6717.0617
6716.3007
6715.3535
6714.181
6712.7379
6710.972
6708.823
6706.222
6703.0902
6699.3386
6694.8673
6689.565
6683.3089
6675.9633
6667.3793
6657.3935
6645.8268
6632.4837
6617.1515
6599.5996
6579.5813
6556.8309
6531.0623
6501.968
6469.2155
6432.441
6391.261
6345.2525
6293.9723
6236.9572
6173.8577
6102.9432
6726.5826
6726.5825
6726.5823
6726.5819
6726.5814
6726.5806
6726.5795
6726.578
6726.5761
6726.5737
6726.5707
6726.5668
6726.562
6726.556
6726.5484
6726.539
6726.5272
6726.5124
6726.494
6726.4709
6726.4419
6726.4056
6726.3598
6726.3022
6726.2294
6726.1374
6726.021
6725.8735
6725.6867
6725.45
6725.1507
6724.7726
6724.2965
6723.6989
6722.9521
6722.0233
6720.8745
6719.4615
6717.7333
6715.631
6713.0873
6710.0253
6706.3582
6701.9883
6696.8072
6690.6945
6683.5177
6675.1311
6665.3745
6654.0725
6641.033
6626.0474
6608.8902
6589.3199
6567.0759
6541.8798
6513.4299
6481.3984
6445.4302
6405.1471
6360.1368
6309.9654
6254.186
6192.4833
6122.9893
6733.6745
6733.6744
6733.6743
6733.6739
6733.6733
6733.6725
6733.6714
6733.6699
6733.668
6733.6656
6733.6625
6733.6586
6733.6537
6733.6476
6733.6399
6733.6304
6733.6184
6733.6035
6733.5849
6733.5616
6733.5325
6733.496
6733.4502
6733.3926
6733.3201
6733.2287
6733.1133
6732.9674
6732.7829
6732.5497
6732.2551
6731.8836
6731.4163
6730.8303
6730.0988
6729.1899
6728.0667
6726.6861
6724.9984
6722.9464
6720.4643
6717.4774
6713.9012
6709.6407
6704.5901
6698.6322
6691.6374
6683.4633
6673.9535
6662.9359
6650.2228
6635.6102
6618.8782
6599.79
6578.0927
6553.5142
6525.7569
6494.5015
6459.3984
6420.0787
6376.1397
6327.1577
6272.7032
6212.4984
6144.524
6741.261
6741.261
6741.2608
6741.2604
6741.2599
6741.2591
6741.258
6741.2565
6741.2546
6741.2522
6741.2491
6741.2452
6741.2404
6741.2342
6741.2266
6741.217
6741.2051
6741.1902
6741.1716
6741.1485
6741.1195
6741.0832
6741.0378
6740.9808
6740.9091
6740.8189
6740.7051
6740.5616
6740.3803
6740.1514
6739.8626
6739.4988
6739.0415
6738.4688
6737.7543
6736.8674
6735.7721
6734.4266
6732.7825
6730.7844
6728.3684
6725.4621
6721.9835
6717.8406
6712.9302
6707.1384
6700.3389
6692.3928
6683.1473
6672.4344
6660.0711
6645.859
6629.5827
6611.0132
6589.9043
6565.9886
6538.9745
6508.5501
6474.3736
6436.085
6393.292
6345.5816
6292.5432
6233.9391
6167.584
6749.3465
6749.3465
6749.3463
6749.346
6749.3455
6749.3447
6749.3436
6749.3422
6749.3404
6749.3381
6749.3351
6749.3313
6749.3266
6749.3206
6749.3132
6749.3039
6749.2923
6749.2778
6749.2597
6749.2371
6749.2088
6749.1735
6749.1291
6749.0735
6749.0036
6748.9155
6748.8045
6748.6644
6748.4875
6748.2643
6747.9827
6747.6281
6747.1827
6746.6253
6745.9304
6745.0681
6744.0035
6742.6962
6741.0995
6739.1593
6736.8144
6733.9945
6730.6206
6726.6034
6721.8432
6716.229
6709.6382
6701.9356
6692.972
6682.5842
6670.5952
6656.8107
6641.0233
6623.011
6602.5326
6579.3251
6553.1066
6523.5695
6490.3824
6453.1945
6411.624
6365.269
6313.7391
6256.8403
6192.2042
6757.9374
6757.9373
6757.9372
6757.9369
6757.9364
6757.9357
6757.9347
6757.9334
6757.9317
6757.9295
6757.9267
6757.9232
6757.9188
6757.9132
6757.9062
6757.8974
6757.8865
6757.8728
6757.8557
6757.8342
6757.8073
6757.7736
6757.7312
6757.6779
6757.6107
6757.5259
6757.4188
6757.2835
6757.1125
6756.8965
6756.6239
6756.2807
6755.8496
6755.3098
6754.637
6753.8023
6752.7719
6751.5067
6749.9614
6748.084
6745.8155
6743.0884
6739.8265
6735.9436
6731.3435
6725.9186
6719.5497
6712.1056
6703.4413
6693.4005
6681.8099
6668.4828
6653.2195
6635.803
6615.9965
6593.5464
6568.1747
6539.5837
6507.4506
6471.4348
6431.1649
6386.2505
6336.3224
6281.2355
6218.4172
6767.0441
6767.0441
6767.0439
6767.0437
6767.0433
6767.0426
6767.0418
6767.0406
6767.0391
6767.0371
6767.0346
6767.0314
6767.0274
6767.0223
6767.0159
6767.008
6766.9979
6766.9854
6766.9696
6766.9497
6766.9247
6766.8932
6766.8535
6766.8033
6766.7398
6766.6593
6766.5573
6766.428
6766.2642
6766.0569
6765.795
6765.4648
6765.0498
6764.5302
6763.8825
6763.0786
6762.0861
6760.8672
6759.378
6757.5688
6755.3828
6752.7553
6749.613
6745.8734
6741.4434
6736.219
6730.0848
6722.914
6714.569
6704.8966
6693.7308
6680.8933
6666.1887
6649.4058
6630.316
6608.6707
6584.2006
6556.6159
6525.6033
6490.8324
6451.9431
6408.5555
6360.3232
6307.1571
6246.2544
6776.6814
6776.6815
6776.6814
6776.6811
6776.6808
6776.6802
6776.6795
6776.6785
6776.6771
6776.6754
6776.6732
6776.6704
6776.6668
6776.6623
6776.6566
6776.6495
6776.6405
6776.6291
6776.6148
6776.5967
6776.5738
6776.5448
6776.5081
6776.4613
6776.4018
6776.3261
6776.2297
6776.1071
6775.9513
6775.7537
6775.5037
6775.1882
6774.7915
6774.2943
6773.6743
6772.9044
6771.9534
6770.7849
6769.3568
6767.6213
6765.5241
6763.0034
6759.989
6756.4016
6752.1514
6747.1386
6741.2527
6734.3734
6726.3664
6717.0858
6706.374
6694.0562
6679.9454
6663.8362
6645.5072
6624.7173
6601.2046
6574.6884
6544.8645
6511.4132
6473.9855
6432.2126
6385.7704
6334.6358
6275.7462
6786.8653
6786.8654
6786.8653
6786.8651
6786.8648
6786.8644
6786.8637
6786.8628
6786.8617
6786.8601
6786.8582
6786.8557
6786.8525
6786.8485
6786.8434
6786.837
6786.8288
6786.8185
6786.8055
6786.789
6786.768
6786.7412
6786.7072
6786.6637
6786.6081
6786.537
6786.4463
6786.3305
6786.1831
6785.9958
6785.7586
6785.4589
6785.0818
6784.609
6784.0189
6783.2859
6782.3798
6781.2657
6779.9034
6778.2472
6776.2453
6773.8386
6770.9599
6767.5333
6763.4736
6758.6851
6753.0635
6746.4927
6738.8443
6729.9816
6719.7503
6707.9843
6694.5027
6679.1085
6661.5864
6641.7034
6619.206
6593.8221
6565.2572
6533.2018
6497.3185
6457.2489
6412.6919
6363.701
6306.9232
6797.6082
6797.6082
6797.6082
6797.608
6797.6078
6797.6074
6797.6068
6797.606
6797.6049
6797.6035
6797.6017
6797.5994
6797.5964
6797.5927
6797.588
6797.582
6797.5745
6797.5649
6797.5528
6797.5374
6797.5177
6797.4927
6797.4607
6797.4199
6797.3675
6797.3006
6797.2151
6797.1059
6796.9668
6796.7901
6796.5662
6796.2833
6795.9271
6795.4804
6794.9225
6794.2288
6793.3706
6792.3145
6791.0224
6789.4507
6787.5499
6785.264
6782.5291
6779.2733
6775.4154
6770.8656
6765.5243
6759.2798
6752.0133
6743.5921
6733.8694
6722.6879
6709.8731
6695.2354
6678.5677
6659.645
6638.2225
6614.037
6586.8034
6556.2222
6521.9676
6483.691
6441.1149
6394.3803
6339.8178
6808.9151
6808.9152
6808.9151
6808.915
6808.9147
6808.9143
6808.9138
6808.913
6808.9119
6808.9106
6808.9088
6808.9066
6808.9037
6808.9001
6808.8955
6808.8897
6808.8824
6808.8732
6808.8615
6808.8467
6808.828
6808.8041
6808.7736
6808.7348
6808.6852
6808.6219
6808.5412
6808.4384
6808.3076
6808.1416
6807.9315
6807.6662
6807.3321
6806.9129
6806.3889
6805.7367
6804.9291
6803.9344
6802.7163
6801.2337
6799.44
6797.282
6794.6997
6791.625
6787.9817
6783.6853
6778.6395
6772.7416
6765.8788
6757.924
6748.7403
6738.1761
6726.0657
6712.2279
6696.4636
6678.5564
6658.2704
6635.3517
6609.524
6580.4978
6547.9579
6511.5656
6471.0674
6426.7019
6374.4645
6820.7835
6820.7835
6820.7835
6820.7833
6820.7831
6820.7827
6820.7821
6820.7813
6820.7802
6820.7789
6820.7771
6820.7749
6820.772
6820.7684
6820.7639
6820.7581
6820.7509
6820.7419
6820.7304
6820.716
6820.6978
6820.6748
6820.6455
6820.6085
6820.5614
6820.5016
6820.4256
6820.3291
6820.2069
6820.0522
6819.8566
6819.6097
6819.2989
6818.9086
6818.4202
6817.8116
6817.0569
6816.1264
6814.9861
6813.5974
6811.9165
6809.8939
6807.4732
6804.5906
6801.1753
6797.1455
6792.4128
6786.882
6780.4447
6772.9831
6764.3676
6754.4551
6743.0883
6730.0949
6715.2846
6698.45
6679.3644
6657.7833
6633.4391
6606.0513
6575.3149
6540.9001
6502.58
6460.7018
6410.8985
6833.206
6833.206
6833.206
6833.2058
6833.2056
6833.2051
6833.2045
6833.2037
6833.2027
6833.2013
6833.1996
6833.1973
6833.1945
6833.1909
6833.1864
6833.1808
6833.1738
6833.1649
6833.1538
6833.1399
6833.1223
6833.1003
6833.0725
6833.0375
6832.9932
6832.9372
6832.8664
6832.777
6832.664
6832.5212
6832.341
6832.1137
6831.8274
6831.4674
6831.0162
6830.453
6829.7536
6828.8902
6827.8314
6826.5412
6824.9792
6823.0995
6820.8496
6818.1708
6814.9948
6811.2467
6806.846
6801.7014
6795.7127
6788.7708
6780.7544
6771.5288
6760.946
6748.8427
6735.0387
6719.3358
6701.517
6681.3472
6658.5676
6632.9057
6604.0653
6571.7236
6535.6856
6496.4227
6449.1613
6846.1746
6846.1746
6846.1745
6846.1744
6846.1741
6846.1737
6846.1731
6846.1723
6846.1713
6846.17
6846.1683
6846.1662
6846.1635
6846.1601
6846.1558
6846.1505
6846.1438
6846.1354
6846.125
6846.1119
6846.0955
6846.075
6846.0492
6846.0167
6845.976
6845.9246
6845.8599
6845.7784
6845.6756
6845.5459
6845.3823
6845.1758
6844.9152
6844.5869
6844.1744
6843.6584
6843.0164
6842.223
6841.2493
6840.0626
6838.6258
6836.8966
6834.8274
6832.362
6829.4381
6825.9881
6821.9359
6817.1974
6811.6813
6805.2866
6797.9007
6789.3984
6779.6409
6768.4751
6755.731
6741.2211
6724.7382
6706.0568
6684.9271
6661.084
6634.238
6604.0694
6570.4103
6533.871
6489.3514
6859.6813
6859.6813
6859.6813
6859.6811
6859.6809
6859.6805
6859.68
6859.6793
6859.6784
6859.6772
6859.6757
6859.6738
6859.6714
6859.6683
6859.6645
6859.6598
6859.6538
6859.6463
6859.637
6859.6254
6859.6108
6859.5925
6859.5695
6859.5407
6859.5044
6859.4587
6859.4013
6859.3288
6859.2375
6859.1222
6858.9763
6858.7916
6858.5578
6858.2622
6857.8896
6857.4223
6856.84
6856.1195
6855.2348
6854.1567
6852.8514
6851.2809
6849.4006
6847.1592
6844.5012
6841.3636
6837.6769
6833.3655
6828.3462
6822.5266
6815.8034
6808.0613
6799.1716
6788.9919
6777.3634
6764.11
6749.0353
6731.9235
6712.5341
6690.6095
6665.8657
6637.9736
6606.7682
6573.1427
6531.497
6873.7216
6873.7216
6873.7216
6873.7215
6873.7212
6873.7209
6873.7205
6873.7199
6873.7192
6873.7182
6873.717
6873.7154
6873.7134
6873.711
6873.7078
6873.7039
6873.699
6873.6928
6873.6851
6873.6753
6873.6631
6873.6477
6873.6283
6873.6039
6873.573
6873.534
6873.4847
6873.4224
6873.3434
6873.2432
6873.1158
6872.9537
6872.7472
6872.485
6872.1533
6871.7362
6871.2157
6870.5713
6869.78
6868.8157
6867.6486
6866.244
6864.561
6862.5549
6860.1749
6857.364
6854.0607
6850.1973
6845.6993
6840.4833
6834.4557
6827.5115
6819.5331
6810.3894
6799.9338
6788.0029
6774.412
6758.9561
6741.4039
6721.5057
6698.9769
6673.4571
6644.8232
6614.2809
6575.6433
6888.2901
6888.2901
6888.29
6888.2899
6888.2898
6888.2895
6888.2892
6888.2888
6888.2883
6888.2876
6888.2867
6888.2855
6888.2841
6888.2823
6888.28
6888.2771
6888.2734
6888.2688
6888.263
6888.2556
6888.2463
6888.2343
6888.2191
6888.1996
6888.1748
6888.1431
6888.1025
6888.0507
6887.9844
6887.8995
6887.7907
6887.651
6887.472
6887.2436
6886.9536
6886.5884
6886.1321
6885.5673
6884.8738
6884.0287
6883.006
6881.7738
6880.2974
6878.5368
6876.4465
6873.9773
6871.0752
6867.6811
6863.7293
6859.1456
6853.8467
6847.7387
6840.7157
6832.6592
6823.4357
6812.8958
6800.8685
6787.1604
6771.5505
6753.7933
6733.5983
6710.604
6684.6183
6657.3302
6621.9285
6903.3821
6903.3821
6903.3821
6903.382
6903.3819
6903.3818
6903.3816
6903.3813
6903.381
6903.3805
6903.38
6903.3793
6903.3784
6903.3773
6903.3758
6903.374
6903.3717
6903.3687
6903.3648
6903.3598
6903.3532
6903.3447
6903.3336
6903.3191
6903.3002
6903.2755
6903.2434
6903.2016
6903.1475
6903.0773
6902.9864
6902.8688
6902.7173
6902.523
6902.2758
6901.9642
6901.575
6901.0931
6900.5016
6899.7811
6898.9078
6897.8554
6896.5939
6895.0882
6893.3
6891.1873
6888.7045
6885.801
6882.4202
6878.4979
6873.9612
6868.7278
6862.7051
6855.788
6847.8578
6838.7801
6828.3999
6816.5371
6802.9804
6787.488
6769.7884
6749.4632
6726.2478
6702.3689
6670.4951
6918.9872
6918.9872
6918.9871
6918.9871
6918.987
6918.9869
6918.9868
6918.9867
6918.9865
6918.9863
6918.986
6918.9857
6918.9853
6918.9847
6918.984
6918.9831
6918.9819
6918.9803
6918.9781
6918.9751
6918.9711
6918.9656
6918.958
6918.9478
6918.934
6918.9155
6918.8909
6918.8582
6918.8151
6918.7587
6918.6849
6918.589
6918.4648
6918.3052
6918.102
6917.8459
6917.5261
6917.1303
6916.6448
6916.0525
6915.3342
6914.4685
6913.4296
6912.1888
6910.7148
6908.9737
6906.9283
6904.5368
6901.7519
6898.5197
6894.7786
6890.4589
6885.4816
6879.757
6873.1826
6865.6406
6856.9933
6847.0744
6835.6942
6822.6212
6807.579
6790.1255
6769.887
6749.5563
6721.4566
6935.0892
6935.0891
6935.0891
6935.089
6935.0889
6935.0889
6935.0888
6935.0887
6935.0886
6935.0885
6935.0884
6935.0883
6935.0881
6935.0878
6935.0875
6935.0871
6935.0866
6935.0858
6935.0846
6935.0829
6935.0804
6935.0769
6935.0718
6935.0646
6935.0545
6935.0407
6935.022
6934.9969
6934.9637
6934.9199
6934.8624
6934.7877
6934.6908
6934.5663
6934.4079
6934.2087
6933.9603
6933.6535
6933.2768
6932.8168
6932.2592
6931.5862
6930.7777
6929.8117
6928.6646
6927.3107
6925.721
6923.8627
6921.6983
6919.1846
6916.2724
6912.9053
6909.019
6904.5403
6899.3842
6893.4492
6886.6225
6878.7604
6869.6908
6859.1977
6847.0207
6832.7
6815.7849
6799.1408
6774.8107
6951.6586
6951.6586
6951.6585
6951.6584
6951.6583
6951.6582
6951.6581
6951.658
6951.6579
6951.6578
6951.6576
6951.6575
6951.6574
6951.6572
6951.657
6951.6567
6951.6563
6951.6557
6951.6549
6951.6537
6951.6519
6951.6493
6951.6456
6951.6402
6951.6327
6951.6224
6951.6085
6951.5899
6951.5654
6951.5335
6951.4919
6951.4382
6951.3689
6951.2802
6951.1677
6951.0268
6950.852
6950.6361
6950.3708
6950.0474
6949.6548
6949.1804
6948.6102
6947.9292
6947.1215
6946.1697
6945.0535
6943.7489
6942.2288
6940.4615
6938.41
6936.032
6933.2811
6930.1015
6926.4274
6922.1791
6917.2642
6911.5662
6904.9486
6897.2264
6888.1629
6877.3087
6864.209
6851.1821
6830.9092
6968.661
6968.6608
6968.6607
6968.6606
6968.6605
6968.6603
6968.6601
6968.6599
6968.6597
6968.6594
6968.6592
6968.6589
6968.6585
6968.6582
6968.6577
6968.6572
6968.6566
6968.6559
6968.6549
6968.6535
6968.6518
6968.6493
6968.646
6968.6414
6968.6353
6968.6274
6968.6171
6968.604
6968.5874
6968.5667
6968.5407
6968.5082
6968.4672
6968.4148
6968.3489
6968.2675
6968.1671
6968.0437
6967.8931
6967.7099
6967.4871
6967.2174
6966.8935
6966.5077
6966.0519
6965.5168
6964.8909
6964.1598
6963.3072
6962.3137
6961.1556
6959.8067
6958.237
6956.4105
6954.2824
6951.7956
6948.8866
6945.4674
6941.438
6936.6687
6930.9735
6923.9986
6915.3587
6906.5045
6891.2567
6986.8201
6986.8199
6986.8197
6986.8195
6986.8192
6986.819
6986.8186
6986.8183
6986.8178
6986.8174
6986.8168
6986.8162
6986.8155
6986.8147
6986.8138
6986.8127
6986.8115
6986.81
6986.8082
6986.806
6986.8034
6986.8002
6986.7964
6986.7918
6986.7862
6986.7798
6986.7724
6986.7641
6986.755
6986.7451
6986.7345
6986.723
6986.7105
6986.6966
6986.6813
6986.6644
6986.6452
6986.6237
6986.5984
6986.5678
6986.5304
6986.4848
6986.4308
6986.3681
6986.2961
6986.2148
6986.1217
6986.0129
6985.8839
6985.7285
6985.5392
6985.3071
6985.021
6984.6662
6984.2213
6983.6572
6982.9375
6982.0151
6980.8305
6979.314
6977.3648
6974.7848
6971.5829
6968.652
6963.054
7005.9242
7005.924
7005.9237
7005.9234
7005.9231
7005.9227
7005.9223
7005.9218
7005.9212
7005.9205
7005.9197
7005.9188
7005.9178
7005.9166
7005.9152
7005.9136
7005.9117
7005.9094
7005.9069
7005.9039
7005.9004
7005.8965
7005.8922
7005.8875
7005.8827
7005.878
7005.8739
7005.871
7005.8704
7005.8728
7005.8793
7005.8914
7005.9106
7005.9382
7005.9765
7006.0286
7006.0978
7006.1858
7006.2941
7006.4265
7006.5869
7006.7807
7007.0147
7007.2967
7007.6348
7008.0373
7008.5118
7009.0658
7009.7076
7010.4461
7011.2909
7012.2518
7013.3377
7014.5563
7015.9122
7017.4071
7019.0377
7020.7987
7022.6798
7024.6764
7026.7826
7028.9713
7031.4533
7034.6527
7037.0656
7024.9907
7024.9905
7024.9902
7024.9899
7024.9895
7024.9891
7024.9886
7024.988
7024.9874
7024.9867
7024.9859
7024.985
7024.9839
7024.9827
7024.9813
7024.9797
7024.9778
7024.9757
7024.9733
7024.9707
7024.9677
7024.9646
7024.9614
7024.9584
7024.9559
7024.9548
7024.9557
7024.96
7024.969
7024.9847
7025.0093
7025.045
7025.0945
7025.1621
7025.2526
7025.3709
7025.5229
7025.7147
7025.9531
7026.2461
7026.6031
7027.0358
7027.558
7028.1851
7028.9333
7029.8197
7030.8623
7032.0804
7033.4956
7035.1323
7037.0173
7039.1794
7041.648
7044.4532
7047.6263
7051.2
7055.2067
7059.6833
7064.6704
7070.2243
7076.4115
7083.331
7091.2254
7100.3502
7110.5456
7043.9382
7043.938
7043.9377
7043.9373
7043.937
7043.9366
7043.9361
7043.9356
7043.9351
7043.9345
7043.9338
7043.933
7043.9322
7043.9313
7043.9302
7043.929
7043.9277
7043.9263
7043.9247
7043.9231
7043.9215
7043.92
7043.9188
7043.9184
7043.9195
7043.9228
7043.9296
7043.9414
7043.9603
7043.989
7044.0306
7044.0888
7044.1686
7044.2762
7044.4175
7044.6004
7044.8344
7045.1291
7045.4957
7045.9472
7046.4989
7047.1688
7047.9775
7048.9477
7050.1036
7051.4714
7053.0793
7054.9589
7057.1457
7059.6796
7062.6044
7065.9678
7069.8198
7074.2137
7079.2072
7084.8638
7091.252
7098.4498
7106.5459
7115.652
7125.8977
7137.4679
7150.6453
7165.7616
7183.2925
7062.6767
7062.6764
7062.6761
7062.6758
7062.6754
7062.6751
7062.6748
7062.6744
7062.674
7062.6736
7062.6732
7062.6728
7062.6724
7062.672
7062.6716
7062.6712
7062.6709
7062.6707
7062.6706
7062.6707
7062.6712
7062.6723
7062.6742
7062.6776
7062.6831
7062.692
7062.7057
7062.7262
7062.7563
7062.7995
7062.8598
7062.9425
7063.0541
7063.2014
7063.3935
7063.6413
7063.9568
7064.3537
7064.8474
7065.4562
7066.201
7067.1061
7068.1989
7069.509
7071.0685
7072.9129
7075.0812
7077.6173
7080.5708
7083.9967
7087.9556
7092.5135
7097.7415
7103.7165
7110.5222
7118.2527
7127.0111
7136.915
7148.0988
7160.7263
7174.9897
7191.1458
7209.54
7230.6125
7255.0168
7081.134
7081.1337
7081.1334
7081.1332
7081.133
7081.1327
7081.1325
7081.1323
7081.1322
7081.1321
7081.1321
7081.1321
7081.1323
7081.1325
7081.133
7081.1336
7081.1344
7081.1356
7081.1372
7081.1394
7081.1424
7081.1463
7081.1518
7081.1595
7081.1702
7081.1854
7081.207
7081.2376
7081.2803
7081.3396
7081.4203
7081.529
7081.6729
7081.8611
7082.1049
7082.4177
7082.8147
7083.3132
7083.933
7084.6976
7085.6337