/*--------------------------------*- C++ -*----------------------------------*\
  =========                 |
  \\      /  F ield         | OpenFOAM: The Open Source CFD Toolbox
   \\    /   O peration     | Website:  https://openfoam.org
    \\  /    A nd           | Version:  13
     \\/     M anipulation  |
\*---------------------------------------------------------------------------*/
FoamFile
{
    format      ascii;
    class       surfaceScalarField;
    location    "8.597062";
    object      phi;
}
// * * * * * * * * * * * * * * * * * * * * * * * * * * * * * * * * * * * * * //

dimensions      [0 3 -1 0 0 0 0];

internalField   nonuniform List<scalar> 
34068
(
-2.9124445e-07
2.290182e-07
6.2226249e-08
-1.2893957e-06
7.8478479e-07
2.1336642e-07
-3.2208502e-06
1.518541e-06
4.1291352e-07
-6.3663438e-06
2.4731905e-06
6.723031e-07
-1.107174e-05
3.700246e-06
1.0051503e-06
-1.7760255e-05
5.2609895e-06
1.4275256e-06
-2.6946165e-05
7.2276924e-06
1.958217e-06
-3.9249834e-05
9.6847162e-06
2.618953e-06
-5.541375e-05
1.2729376e-05
3.4345404e-06
-7.6319005e-05
1.6472379e-05
4.4328756e-06
-0.00010300133
2.1037568e-05
5.6447578e-06
-0.00013666547
2.6560707e-05
7.1034352e-06
-0.00017869618
3.3186918e-05
8.8437913e-06
-0.00023066377
4.1066476e-05
1.0901111e-05
-0.00029432177
5.0348658e-05
1.3309346e-05
-0.00037159433
6.1173622e-05
1.6098935e-05
-0.00046455124
7.3662659e-05
1.929425e-05
-0.00057537013
8.7907868e-05
2.2911024e-05
-0.00070628758
0.00010396319
2.6954252e-05
-0.00085954506
0.00012184005
3.1417437e-05
-0.0010373409
0.00014151166
3.6284189e-05
-0.001241805
0.00016293079
4.1533276e-05
-0.0014750166
0.00018606384
4.7147768e-05
-0.0017390856
0.00021094103
5.3127962e-05
-0.0020363076
0.00023771569
5.9506354e-05
-0.0023693691
0.00026670452
6.6356944e-05
-0.0027415302
0.00029837287
7.3788283e-05
-0.0031566061
0.00033317476
8.1901135e-05
-0.0036191547
0.00037169884
9.0849785e-05
-0.0041345677
0.00041458654
0.0001008264
-0.0047091138
0.00046248631
0.00011205981
-0.0053499882
0.00051604656
0.00012482778
-0.0060653858
0.00057592692
0.0001394707
-0.0068645935
0.00064280795
0.0001563998
-0.0077580837
0.00071739573
0.00017609443
-0.0087575819
0.00080041603
0.00019908217
-0.0098760768
0.00089259443
0.00022590049
-0.01112774
0.00099461302
0.00025705006
-0.012527723
0.0011070264
0.00029295683
-0.014091809
0.0012301216
0.00033396459
-0.015835893
0.0013637135
0.0003803699
-0.017775179
0.0015068192
0.00043246751
-0.019922905
0.0016571724
0.00049055367
-0.022289119
0.0018112284
0.00055498504
-0.024878748
0.0019636359
0.00062599273
-0.027689082
0.0021069469
0.00070338745
-0.030704881
0.0022298398
0.00078595909
-0.033886061
0.0023124446
0.00086873521
-0.037152529
0.0023234871
0.00094298127
-0.040404677
0.0022468174
0.0010053306
-0.043510887
0.0020610917
0.0010451181
-0.046114053
0.0016285805
0.00097458633
-0.047908295
0.00095774278
0.00083649908
-0.048677537
0.00011644948
0.00065279254
-0.047970816
-0.0010203525
0.00031363106
-0.045309662
-0.0024914087
-0.00016974536
-0.040056337
-0.0043695009
-0.00088382375
-0.03170042
-0.0065638173
-0.0017921001
-0.02018161
-0.0087547125
-0.002764097
-0.0059170639
-0.010562722
-0.0037018245
0.0099848577
-0.011508211
-0.0043937104
0.026443632
-0.011686382
-0.0047723925
0.042884599
-0.011486216
-0.004954751
0.059186356
-0.011250107
-0.0050516493
-0.011333328
0.075594908
-0.0050752243
-2.9007634e-07
5.1909455e-07
-1.2843159e-06
1.7790243e-06
-3.2083714e-06
3.4425965e-06
-6.3422677e-06
5.6070868e-06
-1.103115e-05
8.3891286e-06
-1.7697585e-05
1.1927424e-05
-2.6855372e-05
1.6385479e-05
-3.9124734e-05
2.1954078e-05
-5.5248594e-05
2.8853236e-05
-7.6109377e-05
3.7333161e-05
-0.00010274551
4.7673699e-05
-0.00013636633
6.0181525e-05
-0.00017836385
7.518444e-05
-0.00023031913
9.3021757e-05
-0.00029400092
0.00011403045
-0.00037135403
0.00013852673
-0.00046447515
0.00016678378
-0.00057557553
0.00019900824
-0.00070693183
0.00023531949
-0.00086083087
0.00027573909
-0.001039519
0.00032019978
-0.0012451728
0.00036858461
-0.0014799125
0.00042080349
-0.0017458779
0.0004769065
-0.0020453811
0.00053721883
-0.0023811124
0.00060243583
-0.0027563299
0.00067359036
-0.0031748497
0.00075169457
-0.0036412352
0.00083808438
-0.0041608875
0.0009342388
-0.0047400868
0.0010416856
-0.0053860372
0.001161997
-0.0061069326
0.0012968223
-0.0069120405
0.0014479158
-0.0078117862
0.0016171414
-0.0088178089
0.0018064388
-0.0099429541
0.0020177396
-0.011201168
0.0022528266
-0.012607259
0.0025131177
-0.014176505
0.0027993676
-0.015924074
0.0031112826
-0.017864148
0.0034468927
-0.020008542
0.0038015672
-0.022365478
0.0041681644
-0.024937566
0.0045357232
-0.027719952
0.0048893328
-0.030691738
0.0052016257
-0.033807329
0.005428036
-0.036987723
0.0055038809
-0.040112162
0.0053712569
-0.042960842
0.0049097716
-0.045285838
0.0039535758
-0.046820986
0.0024928911
-0.047176024
0.00047148766
-0.045970792
-0.0022255841
-0.042708001
-0.0057541998
-0.036743392
-0.01033411
-0.027547456
-0.015759753
-0.015112944
-0.021189225
8.2667888e-06
-0.025683932
0.016791083
-0.028291028
0.034073283
-0.028968582
0.05131324
-0.028726173
0.068358267
-0.028295134
-0.028225202
0.085250141
-2.7989907e-07
7.9899362e-07
-1.2396582e-06
2.7387834e-06
-3.0977064e-06
5.3006448e-06
-6.125388e-06
8.6347684e-06
-1.0657537e-05
1.2921278e-05
-1.7104645e-05
1.8374532e-05
-2.5966578e-05
2.5247412e-05
-3.7847813e-05
3.3835313e-05
-5.3473838e-05
4.4479261e-05
-7.3708362e-05
5.7567685e-05
-9.9570426e-05
7.3535763e-05
-0.00013225039
9.2861486e-05
-0.00017312304
0.00011605709
-0.00022375598
0.00014365469
-0.00028591048
0.00017618495
-0.00036153252
0.00021414877
-0.00045273125
0.00025798251
-0.00056174366
0.00030802065
-0.00069088622
0.00036446205
-0.00084249807
0.00042735095
-0.0010188857
0.00049658744
-0.0012222854
0.00057198429
-0.0014548645
0.00065338261
-0.0017187846
0.00074082658
-0.0020163425
0.00083477676
-0.0023501758
0.00093626913
-0.0027234591
0.0010468737
-0.0031399233
0.0011681587
-0.0036040401
0.0013022012
-0.0041211065
0.0014513053
-0.0046972816
0.0016178606
-0.0053396221
0.0018043375
-0.0060561307
0.002013331
-0.0068558166
0.0022476016
-0.0077487521
0.002510077
-0.0087460965
0.0028037832
-0.009860047
0.0031316901
-0.011103679
0.0034964589
-0.012490645
0.0039000834
-0.014034696
0.0043434189
-0.015749
0.0048255865
-0.017645135
0.0053430274
-0.019731648
0.0058880799
-0.022012555
0.0064490719
-0.024485723
0.0070088912
-0.027140954
0.0075445633
-0.029948104
0.0080087759
-0.032853043
0.0083329749
-0.035768439
0.0084192768
-0.038553958
0.0081567763
-0.041004891
0.0073607042
-0.042868455
0.0058171405
-0.043818154
0.0034425894
-0.043486539
0.00013987287
-0.041510747
-0.004201376
-0.037392718
-0.0098722287
-0.030489942
-0.017236886
-0.020252327
-0.025997368
-0.0067652278
-0.034676324
0.0093011327
-0.041750293
0.026742507
-0.045732402
0.044567042
-0.046793117
0.062116943
-0.046276074
0.079179934
-0.045358125
-0.044795541
0.095750273
-2.6040905e-07
1.0594027e-06
-1.1539891e-06
3.6323635e-06
-2.8850938e-06
7.0317495e-06
-5.7080223e-06
1.1457697e-05
-9.9372036e-06
1.7150459e-05
-1.5958977e-05
2.4396306e-05
-2.4245052e-05
3.3533487e-05
-3.5367512e-05
4.4957773e-05
-5.0015334e-05
5.9127083e-05
-6.9011897e-05
7.6564249e-05
-9.3332983e-05
9.7856848e-05
-0.00012412409
0.0001236526
-0.0001627158
0.0001546488
-0.00021063493
0.00019157383
-0.00026960936
0.00023515939
-0.00034156335
0.00028610276
-0.00042860069
0.00034501985
-0.00053297338
0.00041239334
-0.0006570355
0.00048852417
-0.00080318509
0.00057350054
-0.00097380255
0.0006672049
-0.0011712001
0.00076938184
-0.001397604
0.00087978648
-0.0016551942
0.00099841678
-0.0019462232
0.0011258058
-0.0022732161
0.0012632621
-0.0026391784
0.0014128359
-0.0030477034
0.0015766837
-0.0035030549
0.0017575527
-0.0040102959
0.0019585463
-0.0045753249
0.0021828897
-0.0052048945
0.0024339071
-0.005906629
0.0027150655
-0.0066890479
0.0030300205
-0.0075615798
0.0033826089
-0.0085345355
0.0037767389
-0.0096190011
0.0042161557
-0.010826608
0.0047040662
-0.012169151
0.0052426258
-0.013658017
0.005832285
-0.015303394
0.0064709641
-0.017113198
0.0071528307
-0.019091776
0.0078666581
-0.021238136
0.0085954322
-0.023544893
0.0093156476
-0.02599496
0.0099946309
-0.02855218
0.010565995
-0.031157742
0.010938537
-0.033719986
0.010981521
-0.036091732
0.010528522
-0.038061787
0.0093307589
-0.039358745
0.0071140985
-0.039637313
0.0037211576
-0.038543707
-0.0009537327
-0.035724981
-0.0070201025
-0.030725317
-0.014871893
-0.022913301
-0.025048902
-0.011735414
-0.037175255
0.0025315707
-0.048943309
0.019052862
-0.058271585
0.036602142
-0.063281682
0.054130602
-0.064321577
0.070992721
-0.063138193
0.086987876
-0.06135328
-0.060071498
0.10226383
-2.3169227e-07
1.2910949e-06
-1.0276492e-06
4.4283204e-06
-2.5712648e-06
8.5753651e-06
-5.0913727e-06
1.3977805e-05
-8.8717786e-06
2.0930865e-05
-1.4262433e-05
2.978696e-05
-2.1692276e-05
4.0963329e-05
-3.1683918e-05
5.4949416e-05
-4.4869926e-05
7.2313091e-05
-6.201073e-05
9.3705053e-05
-8.40134e-05
0.00011985952
-0.00011195079
0.00015158998
-0.00014707945
0.00018977746
-0.00019085494
0.00023534932
-0.00024494169
0.00028924614
-0.00031121474
0.0003523758
-0.0003917497
0.00042555481
-0.000488798
0.00050944165
-0.00060474515
0.00060447132
-0.00074205269
0.00071080807
-0.0009031893
0.00082834151
-0.0010905639
0.00095675647
-0.0013064813
0.0010957038
-0.0015531469
0.0012450824
-0.0018327464
0.0014054053
-0.0021476245
0.0015781401
-0.0025005296
0.001765741
-0.0028949379
0.0019710921
-0.0033347746
0.0021973894
-0.0038247082
0.0024484798
-0.0043702295
0.002728411
-0.0049776354
0.003041313
-0.005653998
0.0033914281
-0.0064071405
0.003783163
-0.0072455953
0.0042210637
-0.0081785164
0.00470966
-0.0092155069
0.0052531461
-0.010366318
0.0058548774
-0.011640384
0.0065166921
-0.013046183
0.0072380837
-0.014590418
0.0080151988
-0.01627696
0.0088393728
-0.018105771
0.0096954688
-0.02007116
0.010560821
-0.022161738
0.011406226
-0.024354932
0.012187825
-0.026611682
0.012822746
-0.028871328
0.013198183
-0.031039019
0.013149212
-0.032962951
0.012452453
-0.034422284
0.010790092
-0.035117181
0.0078089952
-0.03467628
0.0032802568
-0.032748963
-0.0028810494
-0.029021699
-0.010747367
-0.023115066
-0.020778525
-0.01442625
-0.033737719
-0.0024503791
-0.049151126
0.012267682
-0.063661369
0.028751666
-0.074755569
0.045728931
-0.080258946
0.062160506
-0.080753152
0.07754993
-0.078527618
0.091865021
-0.075668371
-0.07373613
0.10552965
-1.9423312e-07
1.4853281e-06
-8.6269678e-07
5.0967841e-06
-2.1612006e-06
9.873869e-06
-4.2849482e-06
1.6101552e-05
-7.4771799e-06
2.4123096e-05
-1.203939e-05
3.4349171e-05
-1.8343353e-05
4.7267293e-05
-2.6845017e-05
6.3451079e-05
-3.8100501e-05
8.3568575e-05
-5.278398e-05
0.00010838853
-7.1707341e-05
0.00013878288
-9.5841086e-05
0.00017572373
-0.00012633554
0.00022027191
-0.00016454072
0.0002735545
-0.00021202281
0.00033672823
-0.00027057408
0.00041092708
-0.00034221239
0.00049719312
-0.00042916586
0.00059639511
-0.00053383865
0.00070914411
-0.00065875571
0.00083572514
-0.0008064878
0.0009760736
-0.00097956632
0.001129835
-0.0011804064
0.0012965439
-0.0014112669
0.0014759429
-0.0016742766
0.001668415
-0.0019715657
0.0018754292
-0.0023055679
0.0020997432
-0.0026795042
0.0023450284
-0.0030969234
0.0026148086
-0.0035619612
0.0029135177
-0.0040795615
0.0032460112
-0.0046554185
0.00361717
-0.0052958968
0.0040319064
-0.0060079497
0.0044952159
-0.0067990159
0.0050121299
-0.0076768695
0.0055875136
-0.0086493781
0.0062256547
-0.0097241326
0.006929632
-0.010907906
0.0077004652
-0.012206038
0.0085362162
-0.013621713
0.0094308739
-0.015154838
0.010372497
-0.016801164
0.011341795
-0.018551364
0.012311021
-0.020391272
0.013246134
-0.022294549
0.014091102
-0.024221128
0.014749325
-0.026109756
0.015086811
-0.02786302
0.014902476
-0.02932331
0.013912743
-0.030254566
0.011721348
-0.030326085
0.0078805141
-0.02913388
0.0020880519
-0.026313938
-0.005700991
-0.021617558
-0.015443748
-0.014782589
-0.027613493
-0.0052542752
-0.043266033
0.0073097865
-0.061715188
0.02211341
-0.078464993
0.038064875
-0.090707034
0.053829068
-0.096023139
0.068553993
-0.095478077
0.082059109
-0.092032734
0.094623626
-0.088232888
-0.086049408
0.1069369
-1.4899589e-07
1.634324e-06
-6.6329713e-07
5.6110853e-06
-1.6650653e-06
1.0875637e-05
-3.3083765e-06
1.7744863e-05
-5.7866534e-06
2.6601373e-05
-9.3416599e-06
3.7904177e-05
-1.427427e-05
5.2199903e-05
-2.0957328e-05
7.0134137e-05
-2.985081e-05
9.2462057e-05
-4.1519483e-05
0.00012005721
-5.6653096e-05
0.00015391649
-7.608903e-05
0.00019515966
-0.00010083659
0.00024501947
-0.00013210235
0.00030482026
-0.00017131406
0.00037593993
-0.00022014056
0.00045975358
-0.00028050343
0.00055755599
-0.00035457469
0.00067046637
-0.0004447544
0.00079932382
-0.00055362264
0.00094459338
-0.00068386257
0.0011063135
-0.00083815792
0.0012841303
-0.0010190806
0.0014774666
-0.0012289972
0.0016858594
-0.0014700343
0.0019094522
-0.0017441614
0.0021495562
-0.0020534501
0.002409032
-0.0024004708
0.0026920491
-0.0027885021
0.0030028399
-0.0032211006
0.0033461161
-0.0037025119
0.0037274226
-0.0042376816
0.0041523397
-0.0048321346
0.0046263593
-0.0054918185
0.0051548999
-0.0062229411
0.0057432525
-0.0070317554
0.0063963279
-0.0079242508
0.00711815
-0.0089056992
0.0079110804
-0.0099801383
0.0087749042
-0.011149854
0.0097059315
-0.012414617
0.010695638
-0.013770663
0.011728543
-0.015209946
0.012781078
-0.016720283
0.013821358
-0.018285019
0.01481087
-0.019875315
0.015681397
-0.021450324
0.016324334
-0.022947608
0.016584095
-0.024266638
0.016221506
-0.025243229
0.014889334
-0.025624691
0.01210281
-0.025046734
0.0073025579
-0.023074637
0.00011595426
-0.019329818
-0.0094458098
-0.013660148
-0.021113417
-0.0059211322
-0.035352509
0.0043376068
-0.053524772
0.017251662
-0.074629243
0.031761358
-0.092974689
0.046650574
-0.10559625
0.060679138
-0.1100517
0.073366817
-0.10816576
0.084972089
-0.10363801
0.096122587
-0.099383386
-0.097561056
0.10763424
-9.7483893e-08
1.7318078e-06
-4.359884e-07
5.9495898e-06
-1.098951e-06
1.15386e-05
-2.1929384e-06
1.8838851e-05
-3.8536045e-06
2.8262039e-05
-6.2530737e-06
4.0303646e-05
-9.6091111e-06
5.555594e-05
-1.4196478e-05
7.4721503e-05
-2.0360761e-05
9.8626341e-05
-2.8535279e-05
0.00012823172
-3.9261293e-05
0.00016464251
-5.32118e-05
0.00020911017
-7.121905e-05
0.00026302672
-9.4304896e-05
0.0003279061
-0.00012371311
0.00040534815
-0.00016094055
0.00049698102
-0.00020776332
0.00060437876
-0.00026625163
0.00072895467
-0.00033876482
0.00087183701
-0.00042791701
0.0010337456
-0.0005365051
0.0012149016
-0.00066739525
0.0014150205
-0.00082337596
0.0016334473
-0.0010070036
0.0018694871
-0.0012204894
0.002122938
-0.0014656776
0.0023947443
-0.0017441953
0.0026875497
-0.0020578975
0.0030057513
-0.0024096283
0.0033545707
-0.0028024957
0.0037389836
-0.0032398365
0.0041647634
-0.0037256867
0.0046381899
-0.0042646095
0.0051652821
-0.0048614596
0.00575175
-0.0055211378
0.0064029307
-0.006248307
0.0071234971
-0.0070470085
0.0079168515
-0.0079201724
0.0087842443
-0.0088692091
0.009723941
-0.0098934674
0.01073019
-0.010989394
0.011791564
-0.01214989
0.012889039
-0.013363525
0.013994713
-0.014615487
0.01507332
-0.01588565
0.016081033
-0.017142778
0.016938525
-0.018343753
0.017525309
-0.019422635
0.017662977
-0.020273268
0.01707214
-0.020722707
0.015338773
-0.020502512
0.011882614
-0.019222965
0.0060230107
-0.016429636
-0.0026773748
-0.011769516
-0.014105929
-0.0052265863
-0.027656347
0.0033053602
-0.043884456
0.014130729
-0.064350141
0.027113714
-0.087612229
0.040869788
-0.10673076
0.054237498
-0.11896396
0.066188871
-0.12200308
0.076813298
-0.11879018
0.086827447
-0.11365216
0.097094847
-0.10965078
-0.108814
0.10834779
-4.1690695e-08
1.7734985e-06
-1.8950271e-07
6.0974018e-06
-4.8441604e-07
1.1833513e-05
-9.8070687e-07
1.9335142e-05
-1.7501183e-06
2.9031451e-05
-2.8873244e-06
4.1440852e-05
-4.517092e-06
5.7185708e-05
-6.8035144e-06
7.7007925e-05
-9.9620304e-06
0.00010178486
-1.4274742e-05
0.00013254443
-2.0109866e-05
0.00017047763
-2.7945972e-05
0.00021694628
-3.8401657e-05
0.00027348241
-5.2270574e-05
0.00034177502
-7.0561765e-05
0.00042363934
-9.4542963e-05
0.00052096222
-0.00012578337
0.00063561917
-0.00016618899
0.00076936029
-0.00021802145
0.00092366947
-0.00028388624
0.0010996104
-0.00036667599
0.0012976914
-0.0004694569
0.0015178014
-0.0005952943
0.0017592847
-0.00074703597
0.0020212288
-0.00092710008
0.0023030021
-0.0011373438
0.0026049881
-0.001379103
0.0029293089
-0.0016535032
0.0032801515
-0.0019622462
0.0036633136
-0.0023080892
0.0040848266
-0.0026938284
0.0045505026
-0.0031224042
0.0050667657
-0.0035971754
0.0056400533
-0.0041217803
0.0062763549
-0.0046997769
0.0069809273
-0.0053342264
0.0077579466
-0.0060272299
0.008609855
-0.0067794794
0.0095364938
-0.0075898717
0.010534333
-0.0084548729
0.011595191
-0.0093677272
0.012704419
-0.010318068
0.013839379
-0.011291222
0.014967867
-0.012269273
0.016051371
-0.013227149
0.017038909
-0.014129445
0.017840821
-0.014927491
0.018323355
-0.01554764
0.018283126
-0.015873595
0.017398095
-0.015720998
0.015186176
-0.014810772
0.010972389
-0.01275085
0.0039630882
-0.0091016583
-0.0063265664
-0.0036158891
-0.019591698
0.003599167
-0.034871404
0.012708737
-0.052994026
0.023867935
-0.075509338
0.036601927
-0.10034622
0.049193313
-0.11932215
0.060661706
-0.13043235
0.070399939
-0.13174131
0.079212998
-0.12760324
0.088129926
-0.12256908
0.098028685
-0.11954954
-0.12016496
0.10937965
1.5915844e-08
1.7575827e-06
6.5355961e-08
6.0479617e-06
1.5181409e-07
1.1747055e-05
2.7605108e-07
1.9210905e-05
4.3393468e-07
2.8873567e-05
6.132448e-07
4.1261542e-05
7.8898777e-07
5.7009965e-05
9.1676258e-07
7.6880151e-05
9.2334743e-07
0.00010177827
6.9383677e-07
0.00013277395
5.3967704e-08
0.0001711175
-1.25312e-06
0.00021825336
-3.5973605e-06
0.00027582665
-7.5002234e-06
0.00034567788
-1.3681737e-05
0.00042982085
-2.3115422e-05
0.0005303959
-3.7088231e-05
0.00064959198
-5.7259998e-05
0.00078953206
-8.5711246e-05
0.00095212072
-0.00012496444
0.0011388635
-0.0001779575
0.0013506844
-0.00024794698
0.0015877909
-0.00033832332
0.001849661
-0.00045234173
0.0021352472
-0.00059280858
0.002443469
-0.00076180461
0.0027739841
-0.00096057634
0.0031280806
-0.0011897388
0.003509314
-0.0014498175
0.0039233923
-0.0017421454
0.0043771545
-0.0020690078
0.0048773651
-0.002432749
0.0054305068
-0.002835513
0.0060428173
-0.003279563
0.0067204049
-0.0037670317
0.007468396
-0.0042993508
0.0082902656
-0.004876727
0.0091872313
-0.0054977312
0.010157498
-0.0061588253
0.011195427
-0.0068536566
0.012290022
-0.0075723665
0.013423129
-0.0083010318
0.014568045
-0.009021461
0.015688297
-0.0097111933
0.016741103
-0.010338548
0.017666264
-0.010861134
0.018363407
-0.01122053
0.01868275
-0.011330571
0.018393168
-0.011060597
0.017128121
-0.010215139
0.014340719
-0.0085165676
0.0092738169
-0.0056112102
0.0010577308
-0.0011087663
-0.01082901
0.0049993949
-0.025699859
0.012651431
-0.04252344
0.022113157
-0.062455751
0.033355836
-0.086752018
0.045413979
-0.11240436
0.056543658
-0.13045183
0.065790189
-0.13967888
0.073484627
-0.13943575
0.080930383
-0.135049
0.089268562
-0.13090726
0.099154974
-0.12943596
-0.13173749
0.11072751
7.2388653e-08
1.685194e-06
3.1564367e-07
5.8047067e-06
7.7761773e-07
1.1285081e-05
1.5142823e-06
1.847424e-05
2.5897704e-06
2.7798079e-05
4.0757203e-06
3.9775593e-05
6.0494958e-06
5.5036189e-05
8.5906706e-06
7.4338976e-05
1.1775067e-05
9.8593876e-05
1.5665244e-05
0.00012888377
2.0296196e-05
0.00016648655
2.5654479e-05
0.00021289508
3.1649196e-05
0.00026983193
3.8072417e-05
0.00033925466
4.4547914e-05
0.00042334536
5.0466707e-05
0.00052447711
5.4910712e-05
0.00064514797
5.656906e-05
0.00078787371
5.3656081e-05
0.0009550337
4.3848065e-05
0.0011486716
2.4263599e-05
0.0013702689
-8.4799569e-06
0.0016205344
-5.8103901e-05
0.001899285
-0.00012837479
0.0022055181
-0.0002226975
0.0025377917
-0.00034367779
0.0028949644
-0.0004927989
0.0032772017
-0.00067040298
0.003686918
-0.00087617796
0.0041291673
-0.0011099742
0.0046109507
-0.0013724356
0.0051398264
-0.001664714
0.0057227853
-0.0019882793
0.0063663825
-0.0023444017
0.0070765273
-0.0027337464
0.0078577407
-0.0031560628
0.008712582
-0.0036097143
0.0096408828
-0.0040911967
0.01063898
-0.0045945667
0.011698797
-0.0051107223
0.012806178
-0.005626658
0.013939064
-0.0061246203
0.015066007
-0.0065820682
0.016145745
-0.0069699656
0.017129001
-0.0072487802
0.017945078
-0.00736646
0.018481087
-0.0072514984
0.018567789
-0.0068023236
0.017943993
-0.0058725414
0.016198338
-0.0042599455
0.012728123
-0.001710758
0.0067246294
0.0020644997
-0.0027175269
0.0072733946
-0.016037905
0.013807551
-0.032234016
0.021682349
-0.050398237
0.03130178
-0.072075182
0.042378634
-0.097828872
0.053238615
-0.12326434
0.062597098
-0.13981031
0.069634612
-0.1467164
0.075706803
-0.14550794
0.082307257
-0.14164945
0.090472126
-0.13907213
0.1004985
-0.13946233
-0.14348385
0.11224486
1.2444339e-07
1.5607507e-06
5.4687115e-07
5.3822789e-06
1.3569359e-06
1.0475016e-05
2.6629735e-06
1.7168202e-05
4.5944006e-06
2.5866652e-05
7.3037438e-06
3.7066249e-05
1.0968091e-05
5.1371842e-05
1.5789244e-05
6.9517822e-05
2.1991889e-05
9.2391231e-05
2.9818629e-05
0.00012105703
3.9520346e-05
0.00015678483
5.1340086e-05
0.00020107534
6.54878e-05
0.00025568422
8.2103273e-05
0.00032263919
0.00010120414
0.00040424449
0.00012261619
0.00050306506
0.00014588466
0.0006218795
0.00017016785
0.00076359051
0.00019411996
0.00093108159
0.0002157784
0.0011270131
0.00023248189
0.0013535654
0.00024085893
0.0016121574
0.00023693614
0.0019032078
0.00021640932
0.0022260449
0.00017509738
0.0025791036
0.00010953369
0.0029605281
1.7547156e-05
0.0033691883
-0.00010143102
0.0038058962
-0.00024656788
0.0042743042
-0.0004164117
0.0047807946
-0.00060980359
0.0053332183
-0.00082634127
0.0059393229
-0.0010660431
0.0066060843
-0.0013288638
0.0073393481
-0.0016141864
0.0081430633
-0.0019203224
0.009018718
-0.0022439524
0.0099645128
-0.0025795898
0.010974618
-0.0029189107
0.012038118
-0.0032499727
0.01313724
-0.0035563913
0.014245483
-0.0038164071
0.015326023
-0.0040021972
0.016331535
-0.0040770722
0.017203876
-0.0039925094
0.017860515
-0.003684934
0.018173512
-0.0030684295
0.017951284
-0.0020266148
0.016902179
-0.00040171958
0.014573443
0.0020000925
0.010326311
0.0053898533
0.0033348686
0.0099657831
-0.0072934567
0.015723146
-0.021795268
0.022463505
-0.038974375
0.030409523
-0.058344255
0.040062629
-0.081728288
0.050703414
-0.10846966
0.060085666
-0.1326466
0.067302418
-0.14702706
0.072408679
-0.15182266
0.077351557
-0.15045082
0.083590078
-0.14788797
0.091808953
-0.14729101
0.10196441
-0.14961778
-0.15528179
0.11376234
1.6848391e-07
1.3922667e-06
7.4310941e-07
4.8076534e-06
1.8499526e-06
9.368173e-06
3.643427e-06
1.5374728e-05
6.3109315e-06
2.3199148e-05
1.0077733e-05
3.3299448e-05
1.5211708e-05
4.6237867e-05
2.2027566e-05
6.2701964e-05
3.0889738e-05
8.3529059e-05
4.2212912e-05
0.00010973385
5.6458721e-05
0.00014253902
7.4126292e-05
0.00018340777
9.5734142e-05
0.00023407637
0.00012178954
0.00029658379
0.00015274128
0.00037329275
0.00018891113
0.00046689522
0.0002303997
0.00058039093
0.00027696429
0.00071702593
0.00032787123
0.00088017465
0.0003817326
0.0010731517
0.00043635143
0.0012989466
0.00048861625
0.0015598926
0.00053450558
0.0018573184
0.00056927468
0.0021912758
0.00058788476
0.0025604935
0.00058568305
0.0029627298
0.00055922893
0.0033956424
0.00050702249
0.0038581027
0.00042978301
0.0043515437
0.000329934
0.0048806436
0.00021031864
0.0054528337
7.348062e-05
0.006076161
-7.8719664e-05
0.0067582846
-0.00024468392
0.0075053124
-0.00042225531
0.0083206347
-0.00060827608
0.0092047387
-0.00079781828
0.010154055
-0.00098346995
0.011160269
-0.0011545489
0.012209197
-0.0012962508
0.013278942
-0.0013886756
0.014337908
-0.0014057999
0.015343147
-0.0013138739
0.016239609
-0.0010683519
0.016958354
-0.00061103472
0.017403198
0.00013359266
0.017428884
0.001262788
0.016822089
0.0029048304
0.015260136
0.005217396
0.012260878
0.0083711941
0.0071725125
0.012516151
-0.00081008813
0.017745475
-0.012522781
0.023851705
-0.027901498
0.030631321
-0.045753992
0.038630183
-0.066343116
0.048243527
-0.091341632
0.05801496
-0.11824109
0.065619916
-0.14025155
0.070698596
-0.15210574
0.074362886
-0.15548695
0.078694707
-0.15478264
0.08490027
-0.15409354
0.093230793
-0.15562153
0.10341934
-0.15980632
-0.16701616
0.11515371
2.0114269e-07
1.1911241e-06
8.8938693e-07
4.1194092e-06
2.2191122e-06
8.0384478e-06
4.3810008e-06
1.3212839e-05
7.6088021e-06
1.9971346e-05
1.2186814e-05
2.8721436e-05
1.8457974e-05
3.9966707e-05
2.6832104e-05
5.4327835e-05
3.779392e-05
7.2567242e-05
5.1909719e-05
9.5618055e-05
6.9831467e-05
0.00012461727
9.2296224e-05
0.00016094301
0.00012011802
0.00020625457
0.00015416823
0.00026253358
0.00019533933
0.00033212165
0.00024448576
0.00041774879
0.00030233497
0.00052254172
0.00036936166
0.00064999924
0.00044562163
0.00080391469
0.0005305475
0.00098822587
0.00062272173
0.0012067724
0.00071966235
0.001462952
0.0008176842
0.0017592966
0.00091192628
0.0020970337
0.00099665163
0.0024757682
0.0010658973
0.0028934842
0.00111446
0.0033470796
0.001139021
0.0038335417
0.0011389895
0.0043515752
0.0011166668
0.0049029663
0.0010750323
0.0054944681
0.0010220223
0.006129171
0.00096031311
0.0068199939
0.00089375149
0.007571874
0.00082620112
0.0083881851
0.00076243246
0.0092685074
0.00070916174
0.010207326
0.00067567597
0.011193755
0.00067496219
0.012209911
0.00072464582
0.013229258
0.00084810209
0.014214451
0.0010757883
0.015115461
0.0014474517
0.015867945
0.0020152183
0.016390587
0.0028461602
0.016572256
0.0040250626
0.016249982
0.0056590036
0.015188148
0.0078777244
0.013041416
0.010826156
0.0093124464
0.014637793
0.0033608751
0.019417016
-0.0055893108
0.025123816
-0.018229582
0.031354478
-0.03413216
0.038101258
-0.052500772
0.046253105
-0.074494964
0.05566996
-0.10075849
0.06414547
-0.1267166
0.069716049
-0.14582213
0.072952242
-0.15534194
0.075729471
-0.15826418
0.079912006
-0.15896517
0.08624404
-0.16042557
0.09463264
-0.16401013
0.10474906
-0.16992275
-0.17861778
0.11635067
2.1968764e-07
9.7143641e-07
9.7338413e-07
3.3657127e-06
2.433187e-06
6.5786449e-06
4.8130943e-06
1.0832932e-05
8.3774683e-06
1.6406972e-05
1.3450802e-05
2.3648103e-05
2.0428634e-05
3.2988875e-05
2.9789672e-05
4.4966797e-05
4.210862e-05
6.0248294e-05
5.8069199e-05
7.9657476e-05
7.8476235e-05
0.00010421024
0.00010426522
0.00013515403
0.00013650647
0.00017401332
0.00017640053
0.00022263952
0.00022525904
0.00028326314
0.00028446417
0.00035854366
0.00035539726
0.00045160863
0.0004393267
0.0005660698
0.00053724347
0.00070599792
0.00064963837
0.00087583097
0.00077622224
0.0010801885
0.00091561017
0.001323564
0.0010650213
0.0016098855
0.0012200864
0.0019419685
0.0013748988
0.0023209558
0.0015224601
0.0027459229
0.001655627
0.0032139127
0.001768509
0.0037206597
0.0018579943
0.0042620898
0.0019245932
0.0048363674
0.0019723164
0.005446745
0.0020067462
0.0060947412
0.0020358633
0.0067908767
0.0020692487
0.0075384886
0.0021120783
0.0083453554
0.002171141
0.0092094447
0.0022543994
0.010124067
0.0023729204
0.011075234
0.0025421321
0.012040699
0.0027824595
0.012988931
0.0031206725
0.013876238
0.0035915301
0.014644603
0.00424011
0.015219365
0.0051250108
0.015505686
0.0063204927
0.015376774
0.0079177675
0.014652707
0.010026718
0.013079197
0.012772687
0.010295447
0.016277664
0.0058074692
0.020639821
-0.0010012821
0.025919523
-0.010869012
0.031871027
-0.024181086
0.038013503
-0.040274636
0.044835919
-0.059323188
0.05327073
-0.082929774
0.062146952
-0.10963471
0.068843124
-0.13341277
0.072410587
-0.14938959
0.074347768
-0.15727912
0.076781419
-0.16069783
0.081088011
-0.16327176
0.08755154
-0.1668891
0.09590631
-0.1723649
0.10588166
-0.1798981
-0.19006309
0.11732698
2.2254863e-07
7.4888778e-07
9.8794651e-07
2.6003148e-06
2.4738029e-06
5.0927885e-06
4.9022716e-06
8.4044635e-06
8.5496797e-06
1.2759564e-05
1.3757817e-05
1.8439966e-05
2.0947121e-05
2.5799571e-05
3.0631771e-05
3.5282146e-05
4.3436675e-05
4.7443391e-05
6.011615e-05
6.2978001e-05
8.1573622e-05
8.2752767e-05
0.00010888126
0.00010784639
0.00014329763
0.00013959695
0.00018628016
0.00017965699
0.00023948771
0.00023005559
0.00030476624
0.00029326512
0.00038410777
0.0003722671
0.00047956952
0.00047060805
0.00059313823
0.00059242921
0.00072652199
0.0007424472
0.00088085773
0.00092585275
0.0010563325
0.0011480892
0.0012517451
0.0014144729
0.0014640771
0.0017296366
0.0016882062
0.0020968267
0.0019169564
0.0025171726
0.0021417037
0.0029891655
0.0023536771
0.0035086863
0.0025458668
0.0040699001
0.0027152193
0.0046670149
0.0028662508
0.0052957135
0.0030016697
0.0059593223
0.0031312042
0.0066613422
0.0032638139
0.0074058789
0.0034142192
0.0081949501
0.0035931423
0.0090305216
0.003810175
0.0099070347
0.0040783573
0.010807052
0.0044147165
0.01170434
0.0048421642
0.012561483
0.0053906868
0.013327716
0.0060989507
0.013936339
0.0070165452
0.014301771
0.0082069322
0.014315299
0.0097490801
0.013834627
0.011736891
0.012664896
0.014278
0.010538088
0.017485314
0.0070881331
0.02145596
0.0018368238
0.026266507
-0.0058118297
0.03186249
-0.016464995
0.037757713
-0.030076309
0.043761484
-0.046278407
0.050969247
-0.066530951
0.059618773
-0.0915793
0.067375119
-0.11739105
0.071989642
-0.1380273
0.073920388
-0.15132034
0.075172954
-0.15853168
0.077674541
-0.16319941
0.082205848
-0.16780307
0.088728964
-0.17341222
0.096975056
-0.18061099
0.10678342
-0.18970646
-0.20135251
0.11807284
2.1035552e-07
5.3853226e-07
9.3551976e-07
1.8751506e-06
2.346356e-06
3.6819522e-06
4.6577729e-06
6.0930467e-06
8.1387572e-06
9.2785796e-06
1.3124422e-05
1.3454301e-05
2.0030344e-05
1.8893648e-05
2.9369515e-05
2.5942976e-05
4.1772174e-05
3.5040732e-05
5.8008608e-05
4.6741567e-05
7.901496e-05
6.1746414e-05
0.00010592153
8.0939819e-05
0.00014008267
0.00010543581
0.00018310614
0.00013663353
0.00023687852
0.0001762832
0.00030358113
0.00022656251
0.00038568741
0.00029016082
0.00048592934
0.00037036612
0.00060721471
0.00047114385
0.00075247307
0.00059718884
0.00092440428
0.00075392154
0.0011251066
0.00094738689
0.0013555764
0.0011840031
0.001615105
0.001470108
0.0019006643
0.0018112675
0.0022064601
0.0022113768
0.0025239324
0.0026716931
0.0028425207
0.003190098
0.0031514106