/*--------------------------------*- C++ -*----------------------------------*\
  =========                 |
  \\      /  F ield         | OpenFOAM: The Open Source CFD Toolbox
   \\    /   O peration     | Website:  https://openfoam.org
    \\  /    A nd           | Version:  13
     \\/     M anipulation  |
\*---------------------------------------------------------------------------*/
FoamFile
{
    format      ascii;
    class       volScalarField;
    location    "5.898388";
    object      pMean;
}
// * * * * * * * * * * * * * * * * * * * * * * * * * * * * * * * * * * * * * //

dimensions      [0 2 -2 0 0 0 0];

internalField   nonuniform List<scalar> 
17140
(
8.096953
8.0967819
8.0965752
8.0963658
8.0961396
8.0958937
8.0956278
8.0953414
8.095034
8.0947052
8.0943547
8.0939823
8.0935876
8.0931699
8.0927273
8.0922562
8.0917505
8.0911999
8.0905882
8.0898914
8.0890755
8.0880937
8.086884
8.0853659
8.0834368
8.0809937
8.0779689
8.074273
8.0697265
8.0641323
8.0573011
8.0490165
8.0390452
8.027141
8.0130518
7.9965326
7.9773683
7.9554105
7.9306316
7.9032049
7.873611
7.8427614
7.8121635
7.7840489
7.7612801
7.7472661
7.7454786
7.7584122
7.7875277
7.8318038
7.8881472
7.9521279
8.0180996
8.0811364
8.1360018
8.1767448
8.1965532
8.192467
8.1662067
8.1236585
8.0718777
8.0149846
7.9562586
7.893987
7.8301108
8.0939505
8.0937832
8.0935814
8.0933764
8.0931551
8.0929144
8.0926541
8.0923737
8.0920727
8.0917507
8.0914074
8.0910428
8.0906565
8.0902477
8.0898147
8.0893542
8.0888601
8.0883224
8.0877251
8.0870445
8.086247
8.0852858
8.0840995
8.0826078
8.0807085
8.0782958
8.0753004
8.0716355
8.0671221
8.0615607
8.0547614
8.0465063
8.0365607
8.0246766
8.0105993
7.9940809
7.9749026
7.9529117
7.9280757
7.9005629
7.8708498
7.8398472
7.8090645
7.7807372
7.7577632
7.7435444
7.7415426
7.7544576
7.7836205
7.8280492
7.8845888
7.94859
8.0146043
8.0776895
8.1327264
8.1738154
8.1940637
8.1904495
8.1646447
8.1225084
8.0711042
8.0145382
7.9560802
7.8940199
7.8303226
8.0866463
8.0864882
8.0862979
8.0861039
8.0858942
8.0856661
8.0854192
8.0851532
8.0848676
8.0845619
8.0842361
8.08389
8.0835235
8.083136
8.082726
8.0822905
8.0818238
8.0813164
8.080753
8.0801107
8.0793563
8.078444
8.0773127
8.0758833
8.074054
8.0717143
8.0687895
8.0651974
8.0607624
8.0552798
8.0485569
8.0403732
8.0304901
8.0186548
8.0046067
7.9880905
7.9688788
7.9468081
7.9218346
7.8941152
7.8641166
7.8327479
7.8015279
7.7727103
7.7492467
7.7346084
7.7322928
7.7450579
7.7742649
7.8189217
7.8757922
7.9400207
8.0061567
8.0694058
8.1248859
8.1668103
8.1880937
8.1855708
8.1608229
8.1196618
8.0691767
8.0133932
7.9556018
7.8940009
7.8307109
8.0751917
8.0750482
8.0748759
8.0746991
8.0745079
8.0742996
8.074074
8.0738307
8.0735692
8.0732893
8.0729909
8.0726741
8.0723387
8.0719845
8.0716104
8.0712138
8.0707896
8.0703291
8.0698179
8.0692341
8.0685457
8.0677079
8.0666608
8.0653262
8.0636041
8.0613773
8.0585621
8.0550813
8.0507666
8.0454065
8.038803
8.0307315
8.0209473
8.0091903
7.9951905
7.9786814
7.9594216
7.9372319
7.9120505
7.8840166
7.8535829
7.8216562
7.7897691
7.7602083
7.7360009
7.7207121
7.7179333
7.7305183
7.7598335
7.8048723
7.8622265
7.9268098
7.9931663
8.0566901
8.1128542
8.1560222
8.1788548
8.1779656
8.1548437
8.1152449
8.066246
8.0117408
7.954997
7.8941461
7.8313976
8.0599774
8.0598533
8.0597052
8.0595515
8.0593848
8.0592032
8.0590062
8.0587934
8.0585644
8.0583191
8.0580575
8.0577797
8.0574859
8.057176
8.0568494
8.056504
8.0561354
8.055736
8.0552925
8.0547842
8.0541807
8.0534386
8.0524995
8.0512866
8.049702
8.0476257
8.0449579
8.0416187
8.0374574
8.0322596
8.0258138
8.0178915
8.0082401
7.9965897
7.9826584
7.9661646
7.9468493
7.9245122
7.8990688
7.8706352
7.8396464
7.8070061
7.7742671
7.7437657
7.7186279
7.7025363
7.6991925
7.7115613
7.741068
7.7866764
7.8447621
7.9099376
7.976675
8.040613
8.0976538
8.1423427
8.1670563
8.1681841
8.1471163
8.1095731
8.0625521
8.0097148
7.9543197
7.8943918
7.8324368
8.0416402
8.0415397
8.0414208
8.0412954
8.0411589
8.0410099
8.0408479
8.0406726
8.0404835
8.0402807
8.0400642
8.0398342
8.0395911
8.0393351
8.0390659
8.0387819
8.0384797
8.0381525
8.0377884
8.0373682
8.0368632
8.0362319
8.0354175
8.0343452
8.0329194
8.0310215
8.0285311
8.0253569
8.0213719
8.0163662
8.0101079
8.0023648
7.9928747
7.9813563
7.9675137
7.9510479
7.9316789
7.909182
7.8834453
7.8545579
7.8229339
7.7894742
7.7557563
7.7241841
7.698
7.6810243
7.677087
7.6892754
7.7191025
7.7654958
7.8245692
7.8905785
7.9578741
8.0223485
8.0803704
8.1266707
8.1534379
8.1568226
8.1381325
8.1030527
8.0584086
8.0075592
7.953758
7.8949338
7.8338724
8.0210399
8.0209661
8.0208788
8.0207857
8.0206841
8.0205726
8.0204508
8.0203185
8.0201754
8.0200215
8.0198568
8.0196817
8.0194967
8.019302
8.0190977
8.0188828
8.0186544
8.0184067
8.018129
8.0178039
8.0174044
8.0168911
8.0162094
8.0152865
8.0140292
8.0123217
8.0100298
8.0070407
8.0032418
7.9984393
7.9923884
7.9848444
7.9755366
7.9641712
7.9504371
7.9340167
7.9146074
7.8919577
7.8659257
7.8365709
7.8042849
7.7699668
7.735225
7.7025436
7.6752907
7.6574265
7.6529071
7.6649469
7.6951801
7.7425222
7.8028222
7.8699382
7.9380135
8.0031586
8.0622073
8.1100501
8.1388793
8.1445776
8.1284458
8.0960939
8.0540937
8.0054301
7.9533755
7.8957411
7.8357254
7.9992066
7.9991616
7.9991079
7.99905
7.9989862
7.9989156
7.9988378
7.9987526
7.9986598
7.9985593
7.9984514
7.9983363
7.9982145
7.9980864
7.9979521
7.9978109
7.9976603
7.9974954
7.9973065
7.9970777
7.9967837
7.9963874
7.9958364
7.9950603
7.9939682
7.9924474
7.9903632
7.9875744
7.983956
7.9793484
7.9735117
7.9661753
7.9570619
7.9458658
7.9322605
7.91591
7.8964888
7.8737182
7.8474263
7.8176421
7.7847354
7.7496045
7.7138941
7.6801709
7.6519232
7.6332364
7.6281563
7.6400122
7.6706243
7.7189617
7.7806316
7.8490183
7.9180245
7.9839978
8.0441278
8.0934772
8.124138
8.1320553
8.1185641
8.0890748
8.0498557
8.0034795
7.953267
7.8969164
7.8380491
7.9772721
7.9772566
7.9772375
7.977216
7.9771913
7.9771631
7.977131
7.9770949
7.9770546
7.9770101
7.9769615
7.9769091
7.9768533
7.9767944
7.9767324
7.9766666
7.9765948
7.9765124
7.9764105
7.9762742
7.9760799
7.9757925
7.9753619
7.9747201
7.9737789
7.9724278
7.9705345
7.9679485
7.9645163
7.9600805
7.9544361
7.9473085
7.938395
7.9273802
7.9139261
7.89768
7.8782957
7.8554691
7.829
7.7988901
7.7654893
7.7296974
7.6931954
7.6586241
7.6295702
7.6101929
7.6045734
7.6161642
7.6470345
7.6962489
7.7591774
7.8287801
7.8988179
7.9657296
8.0269071
8.0774765
8.109709
8.1199404
8.1088896
8.0822898
8.0458715
8.0017954
7.9534724
7.8984557
7.8408477
7.9563809
7.9563942
7.9564088
7.9564229
7.9564367
7.9564502
7.9564633
7.9564759
7.9564878
7.956499
7.9565098
7.9565202
7.9565304
7.9565405
7.9565503
7.9565589
7.956564
7.9565608
7.9565409
7.95649
7.9563858
7.9561945
7.9558681
7.955341
7.9545275
7.9533199
7.951588
7.9491809
7.9459325
7.9416656
7.9361815
7.9292344
7.9205204
7.9097036
7.8964337
7.8803448
7.861074
7.8382976
7.8117934
7.7815412
7.747877
7.7117042
7.6747326
7.6396571
7.6101198
7.5902949
7.5842463
7.5955609
7.6265153
7.6762732
7.7401247
7.8108129
7.881894
7.9497414
8.0119171
8.0634044
8.0969795
8.1085837
8.099799
8.0759724
8.0422804
8.0004646
7.9540585
7.9004376
7.8441989
7.9375736
7.9376132
7.9376587
7.9377055
7.9377549
7.9378072
7.9378625
7.9379206
7.9379817
7.9380457
7.9381128
7.9381831
7.9382564
7.9383327
7.9384113
7.938491
7.9385689
7.9386402
7.9386962
7.9387227
7.9386981
7.9385898
7.9383512
7.9379188
7.9372092
7.9361172
7.9345148
7.9322523
7.9291605
7.9250548
7.9197304
7.9129479
7.9044194
7.8938129
7.8807695
7.864913
7.8458693
7.8233018
7.7969758
7.7668584
7.73328
7.697148
7.6601908
7.6251281
7.5956046
7.5757351
7.5695465
7.5806829
7.6115154
7.6613911
7.7256349
7.7966876
7.8682194
7.9367585
7.9997273
8.0517735
8.085935
8.0980294
8.0915727
8.0702798
8.0391827
7.9995551
7.9550779
7.9028946
7.8481264
7.9216951
7.9217568
7.9218286
7.9219032
7.921983
7.9220687
7.9221604
7.9222583
7.9223626
7.9224734
7.9225908
7.9227147
7.9228452
7.9229816
7.9231232
7.9232681
7.9234132
7.9235529
7.9236782
7.9237749
7.9238214
7.9237858
7.9236227
7.9232702
7.9226467
7.9216491
7.9201522
7.9180085
7.9150488
7.911087
7.9059199
7.8993112
7.8909856
7.8806218
7.8678639
7.8523382
7.8336732
7.8115296
7.7856689
7.7560586
7.7230316
7.6874986
7.6511863
7.61679
7.5878934
7.5685082
7.5625808
7.5736966
7.6042837
7.6535872
7.7168114
7.7870136
7.8581464
7.9268193
7.9900144
8.0417615
8.0761364
8.0888748
8.0843422
8.0653344
8.0366695
7.9991462
7.9566065
7.9059043
7.8527183
7.9092922
7.9093704
7.9094618
7.9095575
7.9096605
7.9097719
7.9098921
7.9100214
7.9101601
7.9103086
7.9104671
7.9106356
7.910814
7.9110018
7.9111978
7.9114001
7.9116051
7.911807
7.9119965
7.9121591
7.9122734
7.9123081
7.9122187
7.9119444
7.9114054
7.9105005
7.9091056
7.9070759
7.9042463
7.9004308
7.8954166
7.8889949
7.8809082
7.8708524
7.8584882
7.8434424
7.8253525
7.8038924
7.7788475
7.7501903
7.7182625
7.6839702
7.6490064
7.6159939
7.5883839
7.5700284
7.5647318
7.5760252
7.6058428
7.6533561
7.7142835
7.7825744
7.8525851
7.9208074
7.9835084
8.0342855
8.0682155
8.0812585
8.0781916
8.0612306
8.0348229
7.9993161
7.9587141
7.9095205
7.8580081
7.9005699
7.9006579
7.9007612
7.9008698
7.9009874
7.9011153
7.9012541
7.9014042
7.9015663
7.901741
7.9019286
7.9021294
7.9023435
7.9025705
7.9028094
7.9030582
7.9033134
7.9035693
7.9038169
7.9040421
7.9042239
7.9043322
7.9043241
7.9041406
7.9037034
7.9029123
7.901645
7.8997581
7.8970902
7.8934628
7.8886924
7.8825167
7.8747353
7.8650674
7.85319
7.8387799
7.821515
7.801069
7.7772354
7.7500192
7.7197736
7.6873832
7.6544763
7.6235422
7.5978087
7.5808972
7.5765476
7.5876494
7.6159109
7.6606695
7.7184455
7.7838492
7.8519885
7.9190354
7.9803938
8.0295231
8.0619361
8.0750674
8.0731889
8.058045
8.0337277
8.0001492
7.9614839
7.9138175
7.8640788
7.8953648
7.8954556
7.8955627
7.8956757
7.8957985
7.8959328
7.8960792
7.8962385
7.8964115
7.8965992
7.8968021
7.897021
7.8972562
7.8975076
7.8977749
7.8980564
7.8983493
7.8986487
7.8989465
7.8992303
7.8994808
7.8996701
7.8997585
7.8996905
7.8993915
7.8987656
7.8976937
7.8960341
7.8936255
7.8902853
7.8858208
7.8800583
7.8727235
7.8635323
7.8523407
7.8388061
7.8225828
7.8034352
7.7812101
7.7559237
7.7279196
7.6980423
7.6678132
7.639493
7.6160288
7.6009107
7.5972082
7.6075837
7.6336783
7.6749636
7.7286907
7.7905718
7.8562021
7.9212612
7.9803332
8.026899
8.057426
8.070352
8.0694005
8.0558508
8.0334672
8.0017243
7.9649898
7.9188544
7.8709648
7.8932303
7.8933175
7.8934216
7.8935307
7.8936498
7.8937807
7.8939241
7.894081
7.8942526
7.8944397
7.8946436
7.8948653
7.8951055
7.8953648
7.8956434
7.8959407
7.896255
7.8965828
7.896918
7.8972505
7.8975647
7.8978365
7.8980317
7.8981013
7.8979771
7.8975687
7.8967623
7.8954166
7.893368
7.8904376
7.8864382
7.8811937
7.8744489
7.8660788
7.8557913
7.843276
7.8283854
7.8109353
7.7907449
7.7678411
7.7425661
7.7156952
7.6885669
7.6631786
7.6422962
7.6287
7.6252386
7.6344673
7.657726
7.69499
7.7442906
7.8022997
7.8649143
7.9271605
7.9829319
8.0262747
8.0545899
8.0670984
8.0668705
8.0547151
8.0341216
8.0041222
7.9693048
7.9247046
7.8787416
7.8934619
7.8935406
7.8936352
7.893734
7.8938422
7.8939616
7.8940932
7.894238
7.8943971
7.894572
7.8947639
7.8949741
7.895204
7.8954548
7.8957274
7.8960221
7.8963388
7.8966757
7.8970293
7.8973929
7.8977554
7.8980986
7.8983951
7.8986051
7.8986723
7.8985185
7.8980382
7.8971017
7.8955538
7.8932156
7.8898963
7.8853957
7.8795417
7.8721282
7.8629181
7.8518549
7.8387274
7.8232994
7.8054734
7.7853189
7.7631337
7.739565
7.715743
7.6934929
7.6749051
7.6624869
7.6589608
7.6663954
7.6864535
7.7194431
7.7642964
7.8184113
7.8775187
7.9360046
7.987598
8.0273502
8.0534236
8.0653097
8.0656405
8.0546998
8.0357641
8.0074191
7.9744958
7.9314247
7.8874499
7.8953487
7.8954154
7.8954963
7.8955802
7.8956726
7.895775
7.8958884
7.8960138
7.8961525
7.896306
7.8964757
7.8966631
7.8968699
7.8970979
7.8973486
7.8976235
7.8979237
7.8982494
7.8985997
7.8989716
7.8993592
7.8997515
7.9001303
7.9004675
7.9007215
7.9008315
7.9007146
7.9002601
7.8993261
7.8977446
7.8953263
7.8918677
7.8871811
7.8811016
7.8734758
7.8641418
7.8529717
7.8398511
7.8246885
7.8075459
7.7886442
7.7684848
7.74806
7.7286326
7.7119953
7.700481
7.6962417
7.7015574
7.7182228
7.7471269
7.7879019
7.8381651
7.8931917
7.9469812
7.9940755
8.0298572
8.0537728
8.0649857
8.0657344
8.0558527
8.038457
8.0116827
7.9806318
7.9390774
7.8971609
7.8981558
7.8982091
7.898274
7.8983412
7.8984155
7.8984983
7.8985904
7.8986928
7.8988068
7.8989338
7.8990752
7.8992326
7.899408
7.8996033
7.8998205
7.9000619
7.9003295
7.9006252
7.9009504
7.9013053
7.9016886
7.902096
7.902519
7.9029417
7.9033389
7.9036722
7.9038837
7.903892
7.9035895
7.9028374
7.901469
7.8992968
7.8961275
7.891774
7.8860649
7.8788603
7.870076
7.859588
7.8473586
7.8334048
7.817853
7.8011178
7.7837653
7.7667904
7.75178
7.740493
7.7351701
7.7380867
7.7514903
7.7768838
7.8141349
7.8605269
7.910801
7.9595983
8.0016349
8.0339046
8.0556028
8.066124
8.0671787
8.0582176
8.0422533
8.0169678
7.9877699
7.9477168
7.9079205
7.9013489
7.9013893
7.9014384
7.9014894
7.9015459
7.9016092
7.90168
7.9017592
7.9018478
7.9019471
7.9020584
7.9021834
7.9023238
7.9024817
7.9026592
7.9028589
7.9030834
7.9033357
7.9036185
7.9039346
7.9042861
7.9046741
7.9050975
7.9055517
7.9060268
7.9065045
7.9069555
7.9073337
7.9075724
7.9075792
7.9072335
7.9063858
7.9048649
7.9024875
7.8990756
7.8944557
7.8884778
7.8810376
7.872048
7.8614476
7.8493089
7.8357371
7.8211001
7.8061937
7.7920968
7.7805699
7.7737926
7.7744732
7.7852758
7.8079687
7.8422454
7.884488
7.9297303
7.9730855
8.0103921
8.0392061
8.0589256
8.0687212
8.0699881
8.061829
8.0472004
8.0233272
7.9959618
7.9573982
7.9197927
7.9045295
7.9045582
7.9045924
7.9046291
7.9046699
7.9047158
7.9047673
7.9048251
7.9048902
7.9049636
7.9050465
7.9051402
7.9052463
7.9053668
7.9055039
7.9056599
7.9058378
7.9060407
7.9062723
7.9065366
7.9068379
7.9071804
7.9075681
7.9080045
7.9084931
7.9090334
7.9096188
7.9102353
7.910858
7.9114481
7.9119469
7.9122671
7.912295
7.9118862
7.91087
7.9090527
7.9062274
7.90219
7.8967405
7.8897146
7.8809179
7.8702884
7.8580341
7.8445266
7.8308335
7.8186991
7.8106121
7.8097963
7.8191161
7.840115
7.8717199
7.9095607
7.9495313
7.9870663
8.0201771
8.0457895
8.0636852
8.0727483
8.0741643
8.0667106
8.0533376
8.0308075
8.0052572
7.968169
7.9328195
7.9075506
7.9075695
7.9075923
7.9076168
7.9076441
7.907675
7.9077098
7.907749
7.9077938
7.9078453
7.9079045
7.9079721
7.9080487
7.9081355
7.908234
7.908346
7.9084748
7.9086246
7.9087992
7.9090031
7.9092416
7.9095213
7.9098503
7.9102376
7.9106932
7.9112282
7.911854
7.912581
7.9134202
7.9143815
7.915462
7.9166431
7.917888
7.9191287
7.9202457
7.9210579
7.9213191
7.9207244
7.918901
7.9154212
7.9098844
7.9020233
7.8916527
7.8791507
7.8656761
7.8532024
7.8446948
7.8435982
7.8526537
7.8725676
7.9011093
7.9345026
7.9690127
8.0017114
8.0307585
8.0535932
8.0698281
8.0781782
8.0797035
8.0728786
8.0606957
8.0394481
8.0157021
7.9800784
7.9470539
7.9103596
7.9103696
7.9103818
7.9103948
7.9104096
7.9104264
7.9104457
7.9104698
7.9104996
7.9105306
7.9105583
7.9105853
7.9106181
7.9106641
7.9107295
7.910814
7.9109129
7.9110254
7.9111529
7.9112987
7.9114723
7.9116845
7.911946
7.9122701
7.9126712
7.9131659
7.9137772
7.9145357
7.9154749
7.9166317
7.918048
7.9197613
7.9218049
7.9241889
7.9268668
7.9297147
7.9324967
7.9348154
7.9361472
7.9358602
7.9332589
7.9277343
7.9190873
7.907771
7.8950125
7.8832405
7.8758061
7.8759568
7.8854175
7.9039938
7.9291073
7.9584334
7.9878852
8.0166199
8.0421901
8.0625658
8.0772971
8.0849763
8.0865936
8.0803417
8.0692979
8.0492835
8.0273374
7.9931656
7.9625198
7.9130201
7.913021
7.9130223
7.9130238
7.9130257
7.9130291
7.9130347
7.9130428
7.9130528
7.9130642
7.9130772
7.9130929
7.9131131
7.9131392
7.9131693
7.9131998
7.9132349
7.913289
7.9133682
7.9134667
7.913585
7.9137376
7.9139445
7.914223
7.9145806
7.9150301
7.9156063
7.9163527
7.9173163
7.9185522
7.920119
7.9220903
7.9245551
7.9275811
7.9311806
7.9352768
7.9396561
7.9439377
7.9475183
7.9495688
7.9492664
7.9459086
7.9391352
7.9295428
7.9187883
7.9095698
7.904782
7.9067282
7.9166321
7.9335556
7.9558158
7.980778
8.0067067
8.0317915
8.0543886
8.0726289
8.0860336
8.0931055
8.0948186
8.0891031
8.0791628
8.0603423
8.0401963
8.0074631
7.9792541
7.9153752
7.915366
7.9153552
7.9153437
7.9153311
7.9153177
7.9153039
7.9152902
7.9152769
7.9152643
7.9152528
7.9152431
7.9152359
7.9152318
7.9152316
7.9152367
7.9152502
7.9152762
7.915319
7.9153788
7.9154589
7.9155735
7.9157395
7.9159715
7.9162843
7.9166975
7.9172437
7.9179746
7.9189499
7.9202274
7.9218693
7.9239579
7.926599
7.9298784
7.9338337
7.9384453
7.9435323
7.948741
7.95352
7.9571211
7.9586457
7.9572641
7.953017
7.9465589
7.9393502
7.9334335
7.9315005
7.9352974
7.9455194
7.9606971
7.9805826
8.0022123
8.0249964
8.0471668
8.0673177
8.083727
8.0959851
8.1025283
8.104358
8.0991612
8.0903021
8.0726481
8.0543055
8.0229997
7.9973072
7.9170593
7.9170419
7.9170215
7.9170002
7.9169775
7.916953
7.9169268
7.9168991
7.9168698
7.9168394
7.916808
7.9167764
7.9167454
7.9167161
7.9166901
7.9166693
7.9166567
7.9166565
7.9166739
7.9167155
7.9167888
7.9169011
7.917061
7.917281
7.9175809
7.9179859
7.9185242
7.9192389
7.9201914
7.9214405
7.9230457
7.9250871
7.927667
7.9308767
7.934767
7.939341
7.9445279
7.9500735
7.955533
7.9602482
7.963479
7.9647134
7.9636255
7.9605787
7.956887
7.9546645
7.9556697
7.9611988
7.971379
7.985999
8.0032209
8.0226807
8.0430397
8.0628291
8.0809443
8.095808
8.1071019
8.1132075
8.1151896
8.1105107
8.1027224
8.0862206
8.0696842
8.0398119
8.0167193
7.9173498
7.9173306
7.917308
7.9172845
7.9172592
7.917232
7.917203
7.9171723
7.9171399
7.9171062
7.9170715
7.9170365
7.9170018
7.9169686
7.9169383
7.9169127
7.9168943
7.9168863
7.9168929
7.9169195
7.9169731
7.917063
7.9172013
7.9174041
7.917693
7.9180903
7.9186184
7.9193095
7.920204
7.9213631
7.9228788
7.9248145
7.9272108
7.9301721
7.933834
7.938252
7.9434049
7.9491828
7.955285
7.9612066
7.9662812
7.9699029
7.971748
7.9722732
7.972449
7.9738316
7.9773447
7.9844259
7.9951771
8.0087752
8.0247915
8.0424743
8.0608792
8.0787705
8.0952407
8.108831
8.119341
8.125108
8.1272896
8.123143
8.1164239
8.1010695
8.0863429
8.0579022
8.037512
7.9161412
7.916127
7.9161104
7.9160931
7.9160745
7.9160546
7.9160334
7.916011
7.9159876
7.9159634
7.9159389
7.9159144
7.9158908
7.9158689
7.9158503
7.9158365
7.9158298
7.9158333
7.9158507
7.915887
7.9159487
7.9160431
7.9161797
7.9163708
7.9166334
7.9169872
7.9174613
7.9181008
7.9189427
7.9200211
7.9214036
7.9231873
7.9254707
7.9283432
7.9319015
7.9362695
7.9415526
7.9477194
7.9545666
7.9616513
7.9684572
7.9743846
7.9792592
7.9830156
7.9867154
7.9910579
7.9970103
8.0057347
8.0169018
8.0301111
8.0452467
8.0616628
8.0786242
8.0950355
8.1101988
8.122765
8.1326654
8.1381974
8.140638
8.1370494
8.1313994
8.1172085
8.104304
8.0773542
8.0597202
7.913609
7.9136035
7.9135973
7.9135908
7.913584
7.9135769
7.9135696
7.9135623
7.9135552
7.9135485
7.9135426
7.9135381
7.9135355
7.913536
7.9135406
7.913551
7.9135692
7.913598
7.9136409
7.9137022
7.9137873
7.9139036
7.9140627
7.9142779
7.9145696
7.9149574
7.9154598
7.9161078
7.9169506
7.9180525
7.919472
7.921275
7.9235677
7.9264845
7.9301776
7.9347854
7.9404143
7.947105
7.9547294
7.9629594
7.97137
7.9793707
7.9866787
7.9933866
8.0000306
8.0069863
8.0152937
8.0254572
8.0370005
8.05026
8.0649347
8.0804876
8.0963773
8.1116592
8.1258166
8.1375878
8.147045
8.152449
8.1552109
8.1522128
8.1476513
8.1346437
8.1235744
8.0981598
8.0832845
7.910421
7.9104233
7.9104261
7.9104293
7.9104331
7.9104377
7.9104432
7.9104499
7.9104581
7.9104682
7.9104807
7.9104961
7.9105154
7.9105395
7.9105699
7.9106084
7.9106571
7.9107188
7.910797
7.9108977
7.911028
7.9111965
7.911414
7.9116932
7.9120499
7.9125079
7.9131083
7.9138848
7.9148592
7.9160848
7.9176439
7.9196252
7.9221343
7.925312
7.9293169
7.9343124
7.9404384
7.9477895
7.9562946
7.9656768
7.9754838
7.9853121
7.9947258
8.0038794
8.0129134
8.0222142
8.0326132
8.0437608
8.0561306
8.0696231
8.0840819
8.0990853
8.1142318
8.1286888
8.1421029
8.1532858
8.1624562
8.1678348
8.1709895
8.1686318
8.1651792
8.1533798
8.1441504
8.1203172
8.1082542
7.9068117
7.9068187
7.9068272
7.9068365
7.906847
7.9068593
7.9068734
7.9068897
7.9069088
7.9069312
7.9069575
7.9069887
7.9070258
7.9070703
7.9071238
7.9071886
7.9072677
7.9073647
7.9074845
7.9076334
7.9078199
7.9080535
7.9083462
7.9087157
7.9091836
7.909774
7.9105164
7.91145
7.9126225
7.9140868
7.9159125
7.9181933
7.9210582
7.9246566
7.9291473
7.9347295
7.9415906
7.9498195
7.959304
7.9698118
7.9809418
7.9922732
8.0035038
8.014678
8.0257545
8.0371748
8.0490075
8.061427
8.0745827
8.088442
8.1029139
8.1176241
8.1322905
8.1461755
8.1590737
8.1698528
8.1788822
8.1843344
8.1879651
8.1862677
8.1839568
8.1733848
8.1660563
8.1437492
8.1347982
7.9026816
7.9026916
7.9027038
7.9027172
7.9027325
7.9027501
7.9027705
7.9027941
7.9028216
7.9028537
7.9028914
7.9029358
7.9029884
7.903051
7.9031258
7.9032158
7.9033246
7.9034567
7.9036179
7.9038158
7.9040598
7.9043619
7.9047381
7.905207
7.9057905
7.9065179
7.9074252
7.9085547
7.9099576
7.9116939
7.9138499
7.9165433
7.9199079
7.9240877
7.9292909
7.9357557
7.9436239
7.9529264
7.9635407
7.9752024
7.9875713
8.0002517
8.0130811
8.025952
8.0388475
8.0519109
8.0651363
8.0786872
8.0926594
8.1069978
8.1216354
8.1362471
8.150648
8.1641731
8.1767503
8.1872887
8.196309
8.2019278
8.206105
8.2050991
8.2039955
8.1946326
8.1892964
8.1684607
8.1627284
7.8976372
7.8976509
7.8976676
7.8976859
7.8977067
7.8977307
7.8977584
7.8977904
7.8978276
7.8978708
7.8979214
7.8979808
7.8980508
7.8981336
7.898232
7.8983495
7.8984904
7.8986601
7.8988656
7.8991156
7.8994209
7.8997954
7.9002565
7.9008256
7.9015297
7.902402
7.903483
7.9048198
7.9064788
7.9085482
7.9111391
7.9143594
7.9183481
7.9233443
7.9295754
7.9371915
7.9462942
7.956858
7.9687
7.9815858
7.9951101
8.0091499
8.023462
8.0378402
8.0522892
8.0667023
8.0812119
8.095843
8.1106325
8.1255088
8.1404278
8.1550929
8.1693989
8.1827374
8.1951584
8.205598
8.2147279
8.2205999
8.2253957
8.2251196
8.2252927
8.2170972
8.213873
8.1944629
8.1920125
7.8913099
7.8913292
7.8913528
7.8913784
7.8914075
7.8914408
7.8914789
7.8915228
7.8915734
7.8916319
7.8916998
7.8917788
7.8918712
7.8919795
7.892107
7.8922579
7.892437
7.8926507
7.8929067
7.893215
7.893588
7.8940413
7.8945948
7.8952732
7.8961067
7.8971345
7.8984095
7.900003
7.9019954
7.9044746
7.9075575
7.9114364
7.9163325
7.9224326
7.9299253
7.9389392
7.9494858
7.9614562
7.9746135
7.9887191
8.0035262
8.0189492
8.0346116
8.050353
8.0660776
8.0817996
8.0974945
8.1131351
8.1287283
8.14418
8.1594585
8.1742882
8.1886322
8.2019239
8.214325
8.2247873
8.23413
8.2403352
8.2458112
8.2463108
8.2477998
8.2408304
8.2397209
8.2217831
8.2226448
7.8834387
7.883466
7.883499
7.8835348
7.8835751
7.883621
7.8836733
7.8837329
7.8838011
7.8838794
7.8839694
7.8840733
7.8841936
7.8843332
7.8844961
7.8846867
7.8849107
7.8851754
7.8854893
7.8858637
7.8863121
7.8868525
7.8875086
7.8883089
7.8892976
7.8905247
7.8920425
7.8939284
7.8962947
7.8992927
7.9030982
7.9079084
7.9139358
7.9213855
7.9303988
7.9410134
7.9531503
7.9666318
7.9812158
7.9966323
8.0129032
8.0295913
8.0464922
8.0634617
8.0804638
8.0973881
8.1141805
8.1307765
8.1471505
8.1631906
8.1788774
8.1939506
8.2084326
8.2217871
8.234277
8.2448636
8.2545081
8.2611186
8.2673309
8.2686401
8.2715062
8.2657384
8.2668241
8.2503577
8.2545319
7.873808
7.8738452
7.8738902
7.8739386
7.8739928
7.8740543
7.8741239
7.8742027
7.8742923
7.8743943
7.8745108
7.8746441
7.8747973
7.8749737
7.8751776
7.8754141
7.8756895
7.8760122
7.8763927
7.8768405
7.8773739
7.878021
7.8788055
7.8797578
7.8809211
7.8823628
7.8841797
7.8864817
7.8894089
7.8931388
7.8978828
7.9038713
7.9113199
7.9203878
7.9311358
7.9435049
7.9573377
7.9724016
7.9884487
8.0054091
8.0230449
8.0409718
8.0591181
8.0773645
8.095576
8.1136378
8.1314647
8.1489608
8.1660823
8.182706
8.1988251
8.2141923
8.2288818
8.2423809
8.2550435
8.2658356
8.2758531
8.2829292
8.2899238
8.2921135
8.2963263
8.291854
8.2950776
8.2801738
8.2875793
7.862419
7.8624681
7.8625272
7.8625904
7.862661
7.8627405
7.8628301
7.862931
7.863045
7.8631741
7.8633206
7.8634873
7.8636777
7.8638959
7.8641446
7.8644234
7.864747
7.8651388
7.8656005
7.8661338
7.8667602
7.8675126
7.8684325
7.8695654
7.8709718
7.8727374
7.8749758
7.8778351
7.8815021
7.886198
7.892164
7.899632
7.9087827
7.9197038
7.9323561
7.9465856
7.9621863
7.9788807
7.9965725
8.0150553
8.0339855
8.0532426
8.0727091
8.0921993
8.1115819
8.1307243
8.1495211
8.1678593
8.1856854
8.202871
8.2194248
8.2351116
8.2500513
8.2637513
8.2766459
8.2877026
8.2981469
8.3057557
8.3135746
8.3166771
8.3222775
8.3191446
8.324469
8.3110867
8.3218287
7.8493138
7.8493761
7.8494508
7.8495305
7.8496198
7.8497207
7.8498339
7.8499601
7.8500999
7.8502515
7.8504166
7.8506126
7.8508533
7.8511233
7.8514141
7.8517431
7.8521272
7.8525785
7.8531118
7.8537454
7.8545005
7.8554085
7.8565184
7.8578958
7.8596275
7.8618301
7.8646557
7.8682952
7.8729768
7.8789522
7.88647
7.8957317
7.9068541
7.9198228
7.9344885
7.9506479
7.9680266
7.986486
8.0058546
8.0257655
8.0461078
8.0667466
8.0874935
8.1081911
8.1286901
8.1488448
8.1685383
8.1876486
8.2061211
8.2238289
8.2407959
8.2568
8.2720035
8.2859352
8.2990977
8.310472
8.3213823
8.3295594
8.3382298
8.3423093
8.3493159
8.3476246
8.3549071
8.3435713
8.3565801
7.8352096
7.8352849
7.8353752
7.8354711
7.8355789
7.835706
7.835849
7.8359943
7.8361442
7.8363139
7.8365112
7.8367392
7.8370016
7.837304
7.8376537
7.8380588
7.8385264
7.8390644
7.8396905
7.8404343
7.8413322
7.8424318
7.8437982
7.8455195
7.8477136
7.8505342
7.8541747
7.8588667
7.864868
7.8724368
7.8817958
7.8930789
7.9063106
7.921367
7.9380548
7.956133
7.9753951
7.9956597
8.0165638
8.0379744
8.0597677
8.0817458
8.1037462
8.1255987
8.1471435
8.1682275
8.1887298
8.2085277
8.2275727
8.245745
8.263084
8.2793867
8.2948437
8.3090146
8.3224582
8.33417
8.3455647
8.354352
8.3638737
8.3689664
8.3773428
8.3771748
8.3864028
8.3767597
8.392631
7.820615
7.8207077
7.8208112
7.820918
7.8210383
7.8211745
7.8213277
7.8215
7.8216932
7.8219093
7.8221502
7.8224195
7.822723
7.8230671
7.8234595
7.8239103
7.8244331
7.8250461
7.8257743
7.8266517
7.827725
7.8290582
7.8307383
7.8328817
7.8356411
7.8392101
7.8438237
7.8497488
7.8572625
7.866616
7.8779905
7.8914307
7.9068785
7.9241943
7.9430293
7.963187
7.9844327
8.006391
8.0289004
8.0518547
8.0750603
8.0983505
8.1215519
8.1444884
8.1669952
8.1889175
8.2101357
8.2305338
8.2500708
8.2686388
8.2862951
8.3028521
8.3185328
8.3329305
8.3466474
8.3587124
8.3705927
8.3800121
8.3903949
8.3965751
8.4062927
8.4079856
8.4188515
8.4125956
8.430543
7.8065774
7.8066765
7.8067938
7.8069198
7.8070586
7.8072127
7.8073838
7.8075738
7.8077853
7.8080214
7.8082858
7.8085833
7.8089198
7.8093032
7.8097439
7.8102555
7.8108568
7.811573
7.8124389
7.8135019
7.814827
7.8165018
7.8186427
7.8214021
7.8249727
7.829588
7.8355165
7.843043
7.8524358
7.8639063
7.8775516
7.8933292
7.9111601
7.930681
7.9516608
7.9737731
7.9967183
8.0202984
8.0443983
8.0688158
8.0933833
8.1179239
8.1422513
8.166186
8.1895562
8.212213
8.2340438
8.2549434
8.2748806
8.2937691
8.3116643
8.3284228
8.3442809
8.3588819
8.3728615
8.3852888
8.3976752
8.4077716
8.4190476
8.4263944
8.4374738
8.4412441
8.4535984
8.4526257
8.4680224
7.7963446
7.7964509
7.7965806
7.7967142
7.796861
7.7970241
7.7972049
7.7974059
7.7976298
7.7978804
7.7981623
7.7984814
7.7988457
7.7992656
7.7997552
7.8003339
7.8010277
7.8018725
7.802917
7.8042271
7.8058915
7.8080271
7.8107856
7.8143577
7.8189744
7.824902
7.8324256
7.8418213
7.8533171
7.8670479
7.883007
7.9011557
7.9211846
7.9426841
7.9654405
7.9891575
8.013639
8.0387421
8.0642471
8.0899808
8.1157535
8.1413683
8.1666399
8.1913785
8.2154174
8.238615
8.2608709
8.2820953
8.3022681
8.3213215
8.3393244
8.3561703
8.3721063
8.3868509
8.4010204
8.4138078
8.4266347
8.4374684
8.4495508
8.4582163
8.4705421
8.4764943
8.4904496
8.493255
8.5095005
7.7917782
7.7918875
7.7920205
7.7921574
7.7923077
7.7924745
7.7926595
7.7928655
7.7930957
7.7933545
7.7936478
7.7939832
7.7943711
7.7948253
7.795365
7.7960161
7.7968142
7.7978071
7.7990599
7.800659
7.8027183
7.8053846
7.8088424
7.8133158
7.8190649
7.8263733
7.8355242
7.8467661
7.860271
7.876088
7.8941672
7.9143484
7.9361368
7.9593051
7.9835752
8.0087991
8.0347109
8.0611004
8.0877872
8.1145815
8.1412885
8.1677068
8.1936425
8.2189118
8.2433554
8.2668459
8.2892966
8.3106351
8.3308492
8.3498944
8.367845
8.3846481
8.400548
8.4153526
8.4296321
8.4427363
8.4559331
8.467502
8.4803009
8.490345
8.503721
8.5120536
8.5272126
8.5341064
8.5511325
7.7960531
7.7961604
7.7962905
7.7964248
7.7965721
7.7967356
7.7969174
7.7971204
7.7973487
7.7976076
7.7979042
7.7982482
7.798653
7.7991366
7.7997237
7.800448
7.8013553
7.8025069
7.8039844
7.805895
7.8083768
7.8116035
7.8157868
7.8211748
7.8280428
7.8366751
7.8473341
7.860224
7.8754499
7.8929922
7.9127333
7.9343205
7.9574404
7.9819175
8.0075139
8.0338722
8.0608037
8.0881197
8.1156256
8.1431248
8.1704142
8.1972878
8.2235513
8.2490296
8.2735755
8.2970781
8.3194643
8.3406775
8.3607116
8.3795459
8.3972661
8.4138745
8.4296095
8.4443719
8.4586652
8.4720127
8.4854972
8.4977499
8.5111902
8.5225618
8.5369457
8.5475398
8.5639589
8.5743045
8.5928836
7.8101218
7.8102229
7.810344
7.8104706
7.8106095
7.8107641
7.8109366
7.8111305
7.8113505
7.8116031
7.811897
7.8122444
7.8126617
7.8131718
7.8138055
7.8146047
7.8156258
7.8169436
7.818656
7.8208896
7.8238036
7.8275937
7.8324911
7.8387574
7.8466699
7.8564982
7.8684725
7.8827445
7.8993549
7.9182213
7.939137
7.9618006
7.9859954
8.0114084
8.0377263
8.0647466
8.0922639
8.1200786
8.1479888
8.1757865
8.2032609
8.2302043
8.2564265
8.2817653
8.3060887
8.3293018
8.3513461
8.3721766
8.3917943
8.4102056
8.4275091
8.4437628
8.4591999
8.4738042
8.488014
8.5015145
8.5152129
8.5280806
8.542108
8.5547427
8.5701047
8.5828575
8.6005623
8.6142543
8.6345358
7.8355024
7.8355937
7.8357017
7.8358164
7.8359426
7.8360833
7.8362414
7.8364207
7.8366268
7.8368673
7.8371527
7.8374974
7.8379216
7.8384524
7.8391269
7.839995
7.841123
7.8425979
7.8445323
7.8470687
7.8503831
7.8546862
7.8602203
7.8672496
7.8760423
7.8868447
7.8998462
7.9151474
7.9327345
7.9524756
7.9741402
7.9974502
8.0221096
8.0478518
8.0744403
8.1016588
8.1293023
8.1571642
8.1850317
8.2126882
8.2399189