/*--------------------------------*- C++ -*----------------------------------*\
  =========                 |
  \\      /  F ield         | OpenFOAM: The Open Source CFD Toolbox
   \\    /   O peration     | Website:  https://openfoam.org
    \\  /    A nd           | Version:  13
     \\/     M anipulation  |
\*---------------------------------------------------------------------------*/
FoamFile
{
    format      ascii;
    class       volScalarField;
    location    "5.898388";
    object      yPlus;
}
// * * * * * * * * * * * * * * * * * * * * * * * * * * * * * * * * * * * * * //

dimensions      [];

internalField   uniform 0;

boundaryField
{
    inlet
    {
        type            calculated;
        value           uniform 0;
    }
    outlet
    {
        type            calculated;
        value           uniform 0;
    }
    cylinder
    {
        type            calculated;
        value           nonuniform List<scalar> 
132
(
3.0142658e-07
2.9968315e-07
2.9545537e-07
2.8865896e-07
2.7924408e-07
2.6732074e-07
2.5307704e-07
2.3672716e-07
2.1857102e-07
1.9899728e-07
1.7845127e-07
1.5742482e-07
1.3645151e-07
1.1607974e-07
9.6833847e-08
7.9186399e-08
6.3497586e-08
4.9981761e-08
3.8697854e-08
2.955276e-08
2.234463e-08
1.6861625e-08
1.2962566e-08
1.0640033e-08
9.7528143e-09
9.7388103e-09
9.7016428e-09
8.9140941e-09
7.3899788e-09
5.6023011e-09
4.0487932e-09
3.0925583e-09
2.9177214e-09
3.3016123e-09
4.0271399e-09
4.9917977e-09
6.2044823e-09
7.7007924e-09
9.5126838e-09
1.1679575e-08
1.4279134e-08
1.7397595e-08
2.0755849e-08
2.4303747e-08
2.7950304e-08
3.1612285e-08
3.5220571e-08
3.8725301e-08
4.2087586e-08
4.5284558e-08
4.8298651e-08
5.1128834e-08
5.3763225e-08
5.6194564e-08
5.8452775e-08
6.049463e-08
6.2367273e-08
6.4034384e-08
6.5529193e-08
6.6814237e-08
6.7934417e-08
6.8862996e-08
6.9612791e-08
7.0178434e-08
7.0568103e-08
7.0772094e-08
3.0069105e-07
2.9746708e-07
2.9177506e-07
2.8352618e-07
2.727662e-07
2.5966905e-07
2.4440558e-07
2.2722059e-07
2.0846315e-07
1.8853853e-07
1.6790032e-07
1.4704681e-07
1.2650466e-07
1.0679759e-07
8.8420681e-08
7.1784361e-08
5.7180922e-08
4.4754227e-08
3.449724e-08
2.6265423e-08
1.9850057e-08
1.506088e-08
1.1813699e-08
1.0099939e-08
9.6471807e-09
9.736224e-09
9.4691632e-09
8.4110662e-09
6.7606414e-09
5.0230247e-09
3.6482979e-09
2.9509028e-09
2.9905824e-09
3.4967454e-09
4.2981568e-09
5.3283577e-09
6.6158146e-09
8.1922698e-09
1.0090886e-08
1.2347509e-08
1.5033287e-08
1.8229822e-08
2.1644506e-08
2.5228311e-08
2.8886474e-08
3.2540317e-08
3.6127169e-08
3.9598318e-08
4.2920607e-08
4.6073311e-08
4.9040402e-08
5.1825085e-08
5.4412142e-08
5.6787254e-08
5.9001068e-08
6.0995826e-08
6.2818949e-08
6.4438272e-08
6.5881128e-08
6.7120518e-08
6.8193219e-08
6.9074047e-08
6.9776146e-08
7.0294312e-08
7.0632298e-08
7.0790041e-08
)
;
    }
    frontAndBack
    {
        type            empty;
    }
}


// ************************************************************************* //
