/*--------------------------------*- C++ -*----------------------------------*\
  =========                 |
  \\      /  F ield         | OpenFOAM: The Open Source CFD Toolbox
   \\    /   O peration     | Website:  https://openfoam.org
    \\  /    A nd           | Version:  13
     \\/     M anipulation  |
\*---------------------------------------------------------------------------*/
FoamFile
{
    format      ascii;
    class       volScalarField;
    location    "29.298266";
    object      pMean;
}
// * * * * * * * * * * * * * * * * * * * * * * * * * * * * * * * * * * * * * //

dimensions      [0 2 -2 0 0 0 0];

internalField   nonuniform List<scalar> 
17140
(
1.4863557
1.4862523
1.4861275
1.4860001
1.4858621
1.4857116
1.4855482
1.4853715
1.4851813
1.4849769
1.4847582
1.4845249
1.4842768
1.4840134
1.4837336
1.4834358
1.4831169
1.4827718
1.4823925
1.4819669
1.4814772
1.4808987
1.4801971
1.4793265
1.4782254
1.4768182
1.4750293
1.4727924
1.4700438
1.4667109
1.4626943
1.4578748
1.4521227
1.4452947
1.4372372
1.42779
1.4167938
1.4041011
1.3895932
1.373204
1.3549524
1.3349782
1.313591
1.291317
1.2689181
1.2474388
1.2281133
1.2120384
1.2003259
1.1939424
1.1935908
1.1997523
1.2127902
1.2326958
1.2592131
1.2914308
1.3284725
1.3680493
1.4098486
1.4496158
1.4893644
1.5197369
1.550709
1.5620254
1.5817022
1.4847892
1.484688
1.4845658
1.484441
1.4843058
1.4841583
1.4839982
1.4838252
1.4836386
1.4834383
1.483224
1.4829954
1.4827522
1.4824941
1.4822201
1.4819285
1.4816164
1.4812788
1.4809079
1.4804915
1.4800123
1.4794456
1.4787575
1.4779023
1.4768189
1.4754316
1.4736644
1.4714507
1.4687267
1.4654184
1.4614259
1.4566295
1.4508994
1.4440918
1.4360524
1.4266203
1.4156352
1.4029486
1.3884407
1.3720443
1.3537769
1.3337775
1.312355
1.2900355
1.2675894
1.2460593
1.2266612
1.210548
1.1988156
1.1923982
1.1920106
1.1981365
1.211118
1.2309517
1.2573889
1.2894847
1.3263756
1.3657885
1.4074368
1.4470788
1.4867692
1.517238
1.5485097
1.5601917
1.5805872
1.4810979
1.4810018
1.4808859
1.4807673
1.4806388
1.4804984
1.480346
1.4801812
1.4800035
1.4798127
1.4796084
1.4793905
1.4791589
1.4789131
1.4786523
1.4783752
1.4780788
1.4777584
1.4774066
1.4770117
1.4765566
1.4760172
1.47536
1.4745402
1.4734975
1.4721562
1.4704387
1.468277
1.4656066
1.4623528
1.458415
1.4536724
1.4479944
1.4412357
1.4332404
1.4238454
1.4128881
1.4002172
1.3857103
1.3692973
1.3509927
1.3309341
1.3094311
1.2870131
1.2644656
1.2428452
1.2233423
1.207134
1.1953368
1.1888713
1.1884257
1.1944653
1.2073314
1.2270255
1.2533016
1.2851926
1.3218422
1.3609795
1.4023643
1.4417874
1.4813858
1.5120294
1.5437955
1.5561451
1.5775466
1.4753511
1.475263
1.4751572
1.4750483
1.4749301
1.474801
1.4746607
1.4745088
1.474345
1.4741689
1.4739805
1.4737794
1.4735658
1.4733392
1.4730992
1.4728443
1.4725722
1.4722785
1.4719562
1.4715942
1.4711761
1.4706785
1.4700689
1.4693032
1.4683227
1.467052
1.4654112
1.4633295
1.4607409
1.4575706
1.4537178
1.4490597
1.4434641
1.4367839
1.42886
1.4195263
1.4086165
1.3959753
1.3814758
1.3650435
1.3466886
1.3265473
1.304931
1.2823762
1.2596902
1.237944
1.2183068
1.20199
1.1901142
1.1835879
1.1830743
1.1890092
1.2017207
1.221214
1.2472467
1.278816
1.3150734
1.3537713
1.3947533
1.4338935
1.4734329
1.5043976
1.5368669
1.5502424
1.5728922
1.4677321
1.4676549
1.4675625
1.4674666
1.4673623
1.4672483
1.4671242
1.4669898
1.4668446
1.4666884
1.4665212
1.4663428
1.4661532
1.4659523
1.4657398
1.4655146
1.4652746
1.465016
1.4647323
1.4644133
1.4640434
1.4636001
1.4630521
1.4623566
1.4614569
1.4602788
1.4587399
1.4567634
1.4542823
1.4512225
1.4474827
1.4429384
1.4374547
1.4308819
1.4230576
1.4138114
1.4029723
1.3903799
1.3759016
1.3594569
1.3410513
1.3208197
1.2990769
1.2763719
1.2535394
1.2316538
1.2118811
1.1954673
1.1835306
1.1769665
1.1763974
1.182227
1.194771
1.2140331
1.2397689
1.2709519
1.306743
1.3449144
1.385418
1.4242463
1.4637416
1.4951289
1.5284685
1.5431469
1.5670571
1.4585414
1.4584775
1.4584015
1.4583215
1.4582344
1.4581389
1.4580348
1.4579218
1.4577995
1.4576679
1.4575267
1.4573761
1.4572161
1.4570467
1.4568677
1.4566784
1.4564771
1.4562606
1.4560229
1.4557547
1.4554416
1.4550622
1.4545864
1.4539733
1.4531681
1.4520996
1.4506825
1.4488336
1.4464824
1.4435554
1.4399522
1.4355477
1.4302028
1.4237652
1.4160684
1.4069372
1.3961954
1.3836765
1.3692412
1.3528022
1.33436
1.3140487
1.2921882
1.2693439
1.2463809
1.2243655
1.2044884
1.1880125
1.1760503
1.169484
1.1688938
1.1746454
1.1870389
1.206067
1.2314768
1.2622114
1.2974726
1.3350792
1.3750743
1.4136031
1.4530955
1.4851094
1.5194406
1.5354661
1.5606459
1.4481856
1.4481368
1.4480789
1.4480173
1.4479499
1.4478759
1.4477949
1.4477067
1.4476111
1.4475078
1.4473969
1.4472784
1.4471524
1.4470192
1.4468786
1.4467301
1.4465726
1.446403
1.4462165
1.4460044
1.4457535
1.4454436
1.4450464
1.4445226
1.4438199
1.4428704
1.4415889
1.4398856
1.4376818
1.4349032
1.4314545
1.4272106
1.4220272
1.4157492
1.4082061
1.399218
1.3886028
1.3761875
1.3618256
1.3454228
1.3269746
1.3066149
1.2846705
1.2617261
1.2386701
1.2165671
1.1966352
1.1801351
1.1681838
1.1616481
1.1610697
1.1667775
1.1790558
1.1978882
1.2230104
1.2533207
1.2880551
1.3251455
1.3646959
1.4030332
1.4426421
1.4753881
1.5106513
1.5279078
1.5540737
1.4371561
1.4371237
1.437085
1.4370436
1.436998
1.4369475
1.436892
1.4368311
1.4367648
1.4366928
1.4366153
1.4365322
1.4364437
1.4363501
1.4362514
1.4361472
1.4360365
1.4359171
1.4357843
1.4356306
1.4354436
1.4352048
1.4348873
1.4344541
1.4338552
1.4330261
1.4318853
1.4303381
1.4282931
1.425673
1.4223892
1.4183184
1.4133136
1.4072153
1.3998495
1.3910317
1.3805743
1.3682976
1.3540479
1.3377242
1.3193178
1.2989628
1.2769946
1.2540176
1.2309275
1.2087998
1.1888663
1.1723713
1.16045
1.1539625
1.1534206
1.1591117
1.1713101
1.1899968
1.214883
1.2448657
1.2791614
1.3158142
1.3550118
1.3932674
1.4330758
1.4666286
1.502755
1.5212193
1.5481076
1.4259981
1.4259827
1.4259641
1.4259438
1.4259209
1.4258952
1.4258665
1.4258345
1.4257991
1.4257603
1.425718
1.4256723
1.4256235
1.4255715
1.4255167
1.4254585
1.4253963
1.4253278
1.4252491
1.4251532
1.4250288
1.4248585
1.4246173
1.4242702
1.4237698
1.4230548
1.4220479
1.4206565
1.4187793
1.4163234
1.4132041
1.4093111
1.4044951
1.3985904
1.3914214
1.3827996
1.3725322
1.3604337
1.346344
1.3301565
1.3118589
1.2915862
1.2696814
1.2467654
1.2237258
1.2016536
1.1817754
1.1653149
1.1534365
1.1470015
1.146494
1.1521789
1.1643404
1.1829377
1.2076521
1.2373771
1.2713142
1.3076335
1.3466472
1.3851272
1.4255145
1.4600356
1.4968226
1.5159296
1.5427568
1.4152727
1.4152743
1.4152757
1.4152764
1.4152764
1.4152756
1.4152738
1.4152709
1.4152669
1.4152616
1.4152551
1.4152475
1.4152388
1.4152292
1.4152185
1.4152066
1.4151925
1.4151741
1.4151478
1.4151069
1.4150409
1.4149337
1.4147615
1.4144914
1.4140787
1.4134652
1.4125777
1.4113275
1.4096132
1.407329
1.4043749
1.4006499
1.3960223
1.3903234
1.3833687
1.3749671
1.3649233
1.3530477
1.3391759
1.3231972
1.3050965
1.2850099
1.2632856
1.2405513
1.2176817
1.1957736
1.1760286
1.159659
1.1478489
1.1414632
1.1409938
1.1467136
1.1588852
1.1774299
1.2020388
1.2315839
1.2653118
1.3015752
1.3407526
1.3796729
1.4205366
1.4557029
1.492415
1.5116569
1.5380706
1.4055077
1.4055253
1.4055456
1.4055664
1.4055881
1.405611
1.4056351
1.4056602
1.4056863
1.4057136
1.4057419
1.4057713
1.4058018
1.4058334
1.4058659
1.4058988
1.4059311
1.4059606
1.4059836
1.4059938
1.4059809
1.4059296
1.4058177
1.4056135
1.4052749
1.4047468
1.4039598
1.4028295
1.4012574
1.399136
1.396355
1.3928019
1.3883513
1.3828522
1.3761237
1.3679684
1.3581872
1.3465888
1.3330064
1.3173271
1.2995352
1.2797673
1.2583753
1.2359749
1.2134341
1.1918378
1.1723501
1.1561698
1.1444787
1.1381684
1.1377498
1.1434664
1.1555959
1.174086
1.1986034
1.2280352
1.2616713
1.2979915
1.3373551
1.3766786
1.4179057
1.4532987
1.4896083
1.508778
1.5343911
1.3971534
1.3971852
1.3972222
1.3972608
1.3973019
1.3973462
1.3973936
1.3974441
1.3974979
1.3975549
1.3976153
1.397679
1.397746
1.3978161
1.397889
1.397964
1.3980397
1.3981139
1.3981824
1.398239
1.3982738
1.3982718
1.3982114
1.3980628
1.3977855
1.397327
1.3966217
1.3955894
1.3941358
1.3921546
1.3895337
1.386155
1.3818924
1.3765988
1.3701036
1.362216
1.3527385
1.3414791
1.3282706
1.3130004
1.2956526
1.2763635
1.2554826
1.2336048
1.2115836
1.1904724
1.1713989
1.1555362
1.1440577
1.1378279
1.1373357
1.142932
1.1549268
1.1732926
1.1976596
1.2269473
1.2605246
1.2969905
1.3366796
1.3765259
1.4179932
1.4532665
1.4883988
1.5070623
1.5312968
1.3905328
1.390576
1.3906267
1.3906798
1.390737
1.3907989
1.3908658
1.3909377
1.3910148
1.3910973
1.3911853
1.3912788
1.3913778
1.3914819
1.3915909
1.3917038
1.3918189
1.3919338
1.3920442
1.3921436
1.392222
1.3922649
1.3922514
1.3921522
1.3919286
1.3915303
1.3908943
1.3899446
1.3885918
1.3867332
1.3842561
1.381043
1.3769703
1.371897
1.365661
1.3580768
1.3489526
1.3381012
1.3253622
1.3106246
1.2938733
1.2752402
1.2550623
1.2339161
1.2126222
1.1921759
1.1736701
1.1582661
1.1470195
1.1407793
1.140123
1.145526
1.157325
1.1754879
1.1996428
1.2287774
1.2624309
1.2992293
1.3393443
1.3794359
1.4204233
1.4545847
1.488328
1.5062009
1.5289156
1.3858131
1.3858645
1.3859247
1.3859883
1.386057
1.3861319
1.3862132
1.3863011
1.3863959
1.386498
1.3866075
1.3867246
1.3868492
1.3869812
1.3871201
1.3872649
1.3874139
1.3875646
1.3877125
1.3878512
1.3879708
1.3880569
1.3880892
1.3880395
1.3878702
1.3875323
1.386965
1.3860951
1.3848378
1.3830968
1.3807697
1.3777122
1.3738372
1.3690019
1.3630511
1.3558089
1.3471038
1.3367505
1.3245919
1.3105232
1.2945306
1.276738
1.2574627
1.23725
1.2168677
1.197246
1.1794555
1.1645303
1.1534745
1.1471717
1.146323
1.1514587
1.1629865
1.180876
1.2047428
1.2337621
1.2674797
1.3045909
1.3448476
1.3845839
1.424374
1.4573076
1.4890749
1.5058758
1.5271941
1.3829803
1.3830358
1.3831013
1.3831706
1.3832458
1.3833282
1.3834179
1.3835155
1.3836214
1.3837359
1.3838595
1.3839924
1.3841349
1.3842867
1.3844476
1.3846168
1.3847927
1.3849729
1.3851532
1.3853275
1.3854862
1.3856159
1.385697
1.3857027
1.3855967
1.385332
1.3848497
1.3840787
1.3829365
1.381328
1.3791543
1.3763378
1.372694
1.3680725
1.3624492
1.3556178
1.3473949
1.3376204
1.3261542
1.3128944
1.2978229
1.2810504
1.2628652
1.2437584
1.2244307
1.2057768
1.1887194
1.1742406
1.1633525
1.1569572
1.1558547
1.1606887
1.1718888
1.1894134
1.2129451
1.2418033
1.2756601
1.3128621
1.3527238
1.3914697
1.4296788
1.4605563
1.4901749
1.5059485
1.5258901
1.3818668
1.3819227
1.3819891
1.3820593
1.3821358
1.3822199
1.3823119
1.3824125
1.3825221
1.3826414
1.3827708
1.3829109
1.3830621
1.3832244
1.383398
1.3835822
1.383776
1.3839773
1.3841827
1.3843869
1.3845814
1.384754
1.3848872
1.3849561
1.3849269
1.3847549
1.3843835
1.383743
1.3827522
1.3813198
1.3793487
1.3767389
1.373346
1.369141
1.3638897
1.3574606
1.3498107
1.340741
1.3301029
1.3177974
1.3038048
1.288216
1.2712733
1.253404
1.2352596
1.2175827
1.2012382
1.1871873
1.1764049
1.1698924
1.1685294
1.1730307
1.1838477
1.2009085
1.2240929
1.2528846
1.2866393
1.3233772
1.3623945
1.3995747
1.4354206
1.4641081
1.4916718
1.506317
1.5250785
1.382155
1.3822081
1.3822715
1.3823382
1.3824112
1.3824917
1.3825802
1.3826773
1.3827838
1.3829002
1.3830274
1.383166
1.3833165
1.3834796
1.3836554
1.3838441
1.384045
1.3842569
1.3844773
1.3847023
1.3849251
1.3851357
1.3853191
1.385454
1.3855105
1.3854483
1.3852142
1.3847422
1.3839535
1.3827574
1.3810563
1.3787439
1.3757394
1.3719116
1.3671137
1.3613586
1.3543813
1.3460791
1.3363774
1.3251607
1.3123896
1.2981182
1.282534
1.2660153
1.2490616
1.2323487
1.2167018
1.2029994
1.192295
1.1856494
1.1840236
1.1881692
1.1984608
1.2151058
1.2379857
1.2665854
1.2997341
1.3358799
1.3732241
1.4080965
1.441461
1.4678266
1.4934395
1.5070663
1.5248062
1.383477
1.3835243
1.3835814
1.3836411
1.3837067
1.3837792
1.3838594
1.3839478
1.3840451
1.3841522
1.3842698
1.3843989
1.3845402
1.3846945
1.3848625
1.3850448
1.3852414
1.3854521
1.3856756
1.3859093
1.386149
1.3863874
1.3866134
1.3868102
1.386954
1.3870109
1.3869356
1.3866691
1.3861373
1.3852528
1.3839183
1.3820276
1.3794835
1.3761795
1.3720388
1.3669057
1.3607178
1.3534219
1.3447975
1.3347931
1.3233622
1.3105117
1.2963848
1.2812281
1.2654592
1.2497003
1.2346587
1.2212678
1.2106181
1.2038357
1.2019148
1.2055689
1.2154295
1.2316434
1.2542063
1.2822375
1.3149555
1.3494288
1.3844335
1.4168683
1.4474443
1.4717893
1.4956108
1.5082776
1.525099
1.3854289
1.3854688
1.3855172
1.3855676
1.3856231
1.3856849
1.3857534
1.3858292
1.3859132
1.3860061
1.3861088
1.3862223
1.3863474
1.3864853
1.3866368
1.386803
1.3869846
1.3871821
1.3873955
1.3876239
1.3878651
1.3881152
1.388367
1.3886095
1.3888256
1.3889907
1.3890698
1.3890149
1.388764
1.3882392
1.387349
1.3859902
1.3840584
1.3814419
1.3780565
1.3738072
1.3686292
1.3623668
1.3549781
1.3463539
1.3363801
1.325049
1.3124032
1.2986091
1.2840171
1.2691124
1.2546294
1.241486
1.2308549
1.2238651
1.2215582
1.2247536
1.2341481
1.2500055
1.2721459
1.2998265
1.3311711
1.3632267
1.3959538
1.4253142
1.4536085
1.4760084
1.4982105
1.5099554
1.5259629
1.3876695
1.3877012
1.3877399
1.38778
1.3878244
1.3878741
1.3879293
1.3879907
1.3880591
1.3881352
1.3882198
1.3883139
1.3884185
1.3885347
1.3886637
1.3888066
1.3889647
1.389139
1.3893305
1.3895398
1.3897665
1.3900094
1.3902655
1.3905288
1.3907898
1.3910333
1.3912367
1.3913673
1.3913802
1.3912155
1.3907981
1.3900379
1.3888348
1.387081
1.3846776
1.3815133
1.3774905
1.3725412
1.3665625
1.3594161
1.3510091
1.3412419
1.3300907
1.31765
1.3041289
1.2899998
1.2759666
1.2630273
1.2523027
1.2450404
1.2423088
1.2450698
1.2542357
1.2698535
1.2917506
1.3184146
1.3473923
1.3773497
1.406829
1.4338507
1.4599093
1.4805436
1.5012695
1.5121268
1.5274051
1.3899264
1.3899501
1.3899787
1.3900089
1.3900424
1.39008
1.390122
1.3901689
1.3902213
1.39028
1.3903457
1.3904192
1.3905016
1.3905938
1.3906971
1.3908127
1.3909422
1.3910868
1.3912481
1.3914275
1.3916262
1.3918449
1.3920835
1.3923406
1.3926131
1.3928949
1.393175
1.3934363
1.3936535
1.3937907
1.3937988
1.3936131
1.3931537
1.3923254
1.3910247
1.3891378
1.3865521
1.3831388
1.3787614
1.373298
1.366574
1.3584342
1.3487891
1.3376061
1.3250629
1.3115779
1.2978907
1.2850093
1.2741433
1.2665862
1.2635398
1.2662708
1.2754308
1.2910381
1.3123524
1.3369542
1.363936
1.3907733
1.4177535
1.4423863
1.4664288
1.4854248
1.5047953
1.514798
1.5294273
1.3920402
1.3920566
1.3920763
1.3920975
1.3921211
1.3921476
1.3921773
1.3922108
1.3922484
1.3922908
1.3923388
1.3923928
1.3924536
1.3925221
1.3925993
1.3926862
1.3927844
1.3928956
1.3930216
1.3931641
1.393325
1.3935066
1.3937107
1.3939392
1.3941935
1.3944739
1.3947794
1.3951063
1.3954479
1.3957926
1.3961202
1.3964003
1.3965887
1.3966212
1.3964123
1.3958506
1.3948005
1.3930997
1.3905594
1.3869612
1.3820683
1.3756471
1.3674832
1.3574984
1.3458264
1.3328583
1.3193961
1.3064996
1.2954025
1.2877288
1.2849306
1.2880073
1.297604
1.3130545
1.3328849
1.3552554
1.3798042
1.4039124
1.4284549
1.4510039
1.4731979
1.4906672
1.508795
1.5179788
1.5320304
1.3939414
1.3939515
1.3939635
1.3939766
1.3939913
1.3940079
1.3940266
1.3940482
1.394073
1.3941004
1.39413
1.3941626
1.3942
1.3942441
1.3942969
1.3943587
1.3944295
1.3945098
1.3946008
1.394704
1.3948224
1.3949593
1.3951182
1.3953032
1.3955188
1.3957695
1.3960611
1.3964008
1.3967952
1.3972511
1.3977749
1.3983703
1.3990312
1.3997383
1.4004455
1.4010697
1.401478
1.4014735
1.4008017
1.3991527
1.3961696
1.3914988
1.384829
1.3760225
1.3651389
1.3525965
1.3392483
1.3262137
1.3153057
1.3083163
1.3063059
1.3103197
1.3202209
1.3347677
1.3524761
1.373187
1.394686
1.4166628
1.439112
1.4597302
1.4802306
1.4962832
1.5132734
1.5216638
1.5352031
1.39564
1.3956441
1.395649
1.3956544
1.3956603
1.3956672
1.3956755
1.3956855
1.3956972
1.3957108
1.3957266
1.395745
1.3957664
1.3957913
1.3958198
1.3958519
1.3958892
1.3959348
1.3959904
1.3960552
1.3961309
1.3962222
1.3963354
1.396476
1.3966475
1.3968554
1.3971108
1.3974278
1.3978224
1.3983141
1.3989256
1.3996906
1.4006383
1.401782
1.4031223
1.4046213
1.4061716
1.4075816
1.4085558
1.4086879
1.4075115
1.4045289
1.3993222
1.3916341
1.3814682
1.3693044
1.3562628
1.3438838
1.3343325
1.3286017
1.3279768
1.3327315
1.3423443
1.3551539
1.3715441
1.3895499
1.4092372
1.4292138
1.4497163
1.4685813
1.4875326
1.5022714
1.5182244
1.5258578
1.5389436
1.3971322
1.3971301
1.3971276
1.397125
1.3971223
1.3971196
1.3971169
1.3971148
1.3971139
1.3971145
1.3971152
1.3971147
1.397113
1.3971116
1.3971124
1.3971177
1.3971299
1.3971509
1.3971815
1.3972188
1.3972622
1.3973167
1.3973886
1.3974838
1.3976089
1.3977726
1.3979873
1.3982712
1.3986472
1.3991416
1.3997868
1.4006257
1.4017041
1.4030638
1.4047448
1.4067472
1.4090001
1.4113367
1.4134763
1.4149734
1.4152759
1.4137549
1.4098715
1.4031883
1.3938425
1.3826086
1.3709426
1.3604454
1.3526017
1.3486901
1.3492157
1.3540633
1.3627783
1.3747177
1.3891336
1.4055243
1.4233429
1.441516
1.4603073
1.4775729
1.4951119
1.5086368
1.5236393
1.5305534
1.5432413
1.3983641
1.3983555
1.3983453
1.3983347
1.3983231
1.3983104
1.3982969
1.3982828
1.3982683
1.3982532
1.3982373
1.3982204
1.3982032
1.3981872
1.3981733
1.3981618
1.398152
1.3981434
1.3981382
1.3981406
1.3981541
1.3981823
1.3982279
1.3982939
1.3983891
1.3985257
1.3987157
1.3989748
1.3993261
1.3997969
1.4004266
1.40126
1.402346
1.4037508
1.405534
1.4077245
1.4102911
1.4131017
1.4159052
1.4182675
1.419576
1.4191115
1.4162273
1.4107041
1.4028786
1.3935673
1.384106
1.3758351
1.3702142
1.3678844
1.3688149
1.3739416
1.3818809
1.3929277
1.4059684
1.4207915
1.4370648
1.4536607
1.4709019
1.4867148
1.5029706
1.5153759
1.5295141
1.5357468
1.548089
1.3990787
1.3990648
1.3990484
1.3990311
1.3990123
1.398992
1.3989699
1.3989461
1.3989206
1.3988934
1.3988645
1.3988342
1.3988029
1.3987712
1.3987397
1.3987095
1.398682
1.3986583
1.3986396
1.3986272
1.3986233
1.3986313
1.3986543
1.3986963
1.3987657
1.3988774
1.3990467
1.3992861
1.3996137
1.4000588
1.4006623
1.4014691
1.4025269
1.4039056
1.4056617
1.4078224
1.4103998
1.4133245
1.4163436
1.4190504
1.4208619
1.4212127
1.4195863
1.4157551
1.4099451
1.4030616
1.396102
1.390232
1.3867209
1.3852125
1.3872468
1.3922964
1.4000746
1.4099714
1.4219754
1.435564
1.450473
1.465654
1.4815176
1.4960175
1.5111102
1.5224865
1.5358373
1.5414258
1.553478
1.3990448
1.3990283
1.3990091
1.3989887
1.3989667
1.3989428
1.3989169
1.398889
1.3988591
1.3988273
1.3987936
1.3987582
1.3987215
1.3986837
1.3986456
1.3986079
1.3985715
1.3985379
1.3985088
1.3984862
1.3984731
1.3984739
1.3984955
1.3985421
1.3986149
1.3987196
1.3988718
1.3990905
1.3993876
1.3997839
1.4003329
1.401082
1.4020538
1.4032903
1.4048681
1.4068693
1.4093036
1.4121234
1.4151504
1.418056
1.4204235
1.421709
1.4214347
1.4193895
1.4158286
1.4114447
1.4068358
1.403492
1.4014328
1.4015271
1.40455
1.4095194
1.4168033
1.426172
1.4373523
1.4498601
1.4635959
1.4775376
1.4921742
1.5054896
1.5195298
1.5299649
1.5426026
1.547596
1.5594001
1.397994
1.3979795
1.3979623
1.3979443
1.3979248
1.3979035
1.3978805
1.3978558
1.3978294
1.3978011
1.3977714
1.3977402
1.3977078
1.3976747
1.3976415
1.3976088
1.3975777
1.3975493
1.3975253
1.3975077
1.3974987
1.3975016
1.3975207
1.3975611
1.3976299
1.3977335
1.3978795
1.3980817
1.3983673
1.3987531
1.3992538
1.3999124
1.4007789
1.4019173
1.4033951
1.4052609
1.4075481
1.4102622
1.4133163
1.4164742
1.4193752
1.4215752
1.4226567
1.4224165
1.4210696
1.4188411
1.416804
1.4156035
1.4152509
1.4168678
1.4202351
1.4255062
1.432747
1.441651
1.4521433
1.4637636
1.47649
1.4893386
1.5028877
1.5151382
1.5282304
1.5378074
1.5498
1.5542435
1.5658307
1.3960996
1.3960897
1.396078
1.3960657
1.3960524
1.396038
1.3960225
1.3960059
1.3959882
1.3959696
1.39595
1.3959299
1.3959094
1.395889
1.3958692
1.3958507
1.3958345
1.395822
1.3958146
1.3958143
1.3958236
1.3958458
1.3958846
1.395944
1.396029
1.3961461
1.3963075
1.396527
1.396807
1.3971705
1.3976692
1.3983386
1.3991941
1.4002819
1.4016931
1.403508
1.4057719
1.4085076
1.4116766
1.4151242
1.4185794
1.4216862
1.42402
1.4254942
1.4259144
1.4259729
1.4264075
1.426819
1.4281532
1.430865
1.4350338
1.4406739
1.4478792
1.4564895
1.4664568
1.4773331
1.489195
1.501088
1.5136762
1.5249736
1.5372131
1.5460098
1.5574189
1.5613567
1.5727668
1.3935216
1.3935167
1.3935111
1.3935052
1.3934989
1.3934923
1.3934853
1.393478
1.3934707
1.3934633
1.3934561
1.3934494
1.3934437
1.3934393
1.3934371
1.3934378
1.3934424
1.3934524
1.3934696
1.3934965
1.393536
1.3935906
1.3936647
1.393761
1.393883
1.3940428
1.3942501
1.3945257
1.394894
1.3953517
1.3959101
1.3966193
1.3975321
1.398701
1.4001888
1.4020678
1.4044076
1.407265
1.4106417
1.4144619
1.4185086
1.4224599
1.426011
1.4288045
1.4310382
1.4333776
1.4353153
1.4373719
1.4403387
1.4441517
1.4490346
1.4550821
1.462397
1.4708214
1.4803732
1.4906349
1.5017598
1.5128161
1.5245592
1.5349987
1.5464744
1.5545616
1.5654546
1.5689088
1.5802305
1.3904547
1.3904538
1.3904528
1.390452
1.3904513
1.3904509
1.3904509
1.3904515
1.3904529
1.3904553
1.3904591
1.3904648
1.3904729
1.3904841
1.3904994
1.39052
1.3905472
1.390583
1.3906296
1.3906899
1.3907672
1.3908645
1.3909864
1.3911379
1.3913312
1.3915848
1.3919012
1.392277
1.3927334
1.3932992
1.3939969
1.3948583
1.3959233
1.3972387
1.3988733
1.4009159
1.4034539
1.406571
1.4103101
1.4146159
1.419296
1.424105
1.4286231
1.4326774
1.4368049
1.4405307
1.4439459
1.4478009
1.4520063
1.4568223
1.4624508
1.4689475
1.4764177
1.4847397
1.4939774
1.503731
1.5142276
1.5245529
1.5355516
1.5452208
1.5560191
1.5634545
1.5738996
1.57689
1.5881726
1.3868069
1.3868087
1.3868111
1.3868139
1.3868173
1.3868217
1.3868271
1.386834
1.3868425
1.3868532
1.3868664
1.3868831
1.3869039
1.3869299
1.3869624
1.387003
1.3870536
1.3871166
1.3871951
1.3872927
1.3874131
1.387563
1.3877494
1.3879792
1.3882616
1.3886041
1.3890182
1.3895189
1.3901226
1.3908493
1.3917235
1.3927729
1.3940349
1.3955742
1.3974704
1.3998151
1.4027216
1.4062961
1.4105775
1.4154994
1.4208971
1.4264847
1.4318513
1.4373616
1.4427298
1.4477487
1.4528455
1.4579631
1.4633363
1.4691161
1.4754501
1.4823971
1.4900693
1.4983521
1.5073508
1.5166837
1.5266441
1.5363291
1.5466723
1.5556505
1.5658502
1.572681
1.582747
1.5852928
1.5965743
1.3823148
1.3823194
1.3823251
1.3823318
1.3823396
1.382349
1.3823602
1.3823736
1.3823899
1.3824095
1.3824332
1.3824619
1.3824968
1.3825393
1.382591
1.3826541
1.3827312
1.3828251
1.3829399
1.3830798
1.3832503
1.3834587
1.3837117
1.3840172
1.3843862
1.3848304
1.3853637
1.3860026
1.386764
1.3876668
1.3887361
1.3900139
1.3915555
1.3934258
1.3957189
1.3985531
1.4020495
1.4063003
1.4112909
1.4169656
1.4231298
1.4293677
1.4359226
1.4426085
1.4491225
1.4555063
1.461796
1.4681031
1.4745323
1.4811829
1.4881859
1.4955777
1.5034692
1.5117535
1.5205713
1.5295529
1.5390525
1.5481745
1.5579378
1.5662967
1.5759618
1.5822504
1.5919772
1.5941129
1.6054239
1.3765897
1.3765987
1.3766097
1.376622
1.3766363
1.376653
1.3766725
1.3766955
1.3767225
1.3767544
1.3767922
1.3768371
1.3768906
1.3769543
1.3770305
1.3771218
1.3772312
1.3773626
1.3775203
1.3777096
1.3779369
1.3782096
1.3785365
1.3789275
1.3793955
1.379954
1.380616
1.3813993
1.3823277
1.3834322
1.3847513
1.3863346
1.388251
1.3905939
1.3934784
1.3970273
1.4013418
1.4064576
1.4123243
1.4188762
1.425731
1.4330216
1.440755
1.4484424
1.4560609
1.4635519
1.4709766
1.4783448
1.4857239
1.4931761
1.5007995
1.5086125
1.5167273
1.5250375
1.5337139
1.5423967
1.5514955
1.5601189
1.5693657
1.5771659
1.5863569
1.5921446
1.6015813
1.6033326
1.6146916
1.3692725
1.369288
1.3693069
1.3693277
1.3693515
1.3693789
1.3694104
1.3694469
1.3694892
1.3695383
1.3695955
1.3696624
1.3697406
1.3698325
1.3699405
1.3700677
1.3702178
1.3703953
1.3706053
1.3708534
1.371147
1.3714961
1.3719095
1.3723976
1.372973
1.3736529
1.3744597
1.3754178
1.3765582
1.3779225
1.3795669
1.3815665
1.3840175
1.3870358
1.390743
1.3952411
1.4005787
1.4067315
1.4136399
1.4210313
1.4289439
1.4374996
1.4461625
1.4548427
1.463472
1.4720323
1.4804825
1.4888129
1.4970543
1.5052313
1.5134204
1.5216221
1.5299484
1.538292
1.5468505
1.5552711
1.5640141
1.5721896
1.5809712
1.5882726
1.5970233
1.6023713
1.611533
1.6129452
1.6243385
1.3600805
1.360105
1.3601347
1.360167
1.3602036
1.3602453
1.3602928
1.3603472
1.3604095
1.360481
1.3605632
1.3606581
1.3607677
1.3608948
1.3610419
1.3612113
1.3614087
1.361642
1.361915
1.3622317
1.3626007
1.3630329
1.363541
1.3641386
1.3648419
1.3656724
1.3666571
1.3678322
1.3692456
1.3709609
1.3730615
1.3756518
1.3788528
1.3827904
1.3875656
1.3932326
1.3997809
1.4071466
1.4151342
1.423644
1.4329313
1.4424825
1.4520994
1.4617763
1.471445
1.4810075
1.4904126
1.4996238
1.508644
1.5174725
1.5261677
1.5347157
1.5432293
1.5516001
1.5600486
1.5682286
1.5766459
1.5844157
1.5927726
1.5996194
1.6079698
1.6129259
1.6218243
1.6229093
1.6343953
1.3487404
1.3487761
1.3488192
1.348866
1.3489186
1.3489783
1.3490459
1.3491224
1.349209
1.3493064
1.3494141
1.3495376
1.3496869
1.3498605
1.3500536
1.3502725
1.3505256
1.3508188
1.3511589
1.3515535
1.3520111
1.3525427
1.3531631
1.3538904
1.3547482
1.3557671
1.3569881
1.3584661
1.3602738
1.362505
1.3652747
1.3687125
1.3729496
1.3780913
1.3841857
1.3912388
1.3991643
1.4078009
1.4170215
1.4270274
1.4374346
1.447961
1.4586545
1.4694022
1.4800793
1.4905987
1.5008919
1.5109044
1.5206216
1.530024
1.5391578
1.5479987
1.5566616
1.5650388
1.5733709
1.5813201
1.5894289
1.5968193
1.60478
1.6112161
1.6191951
1.6238236
1.6324435
1.6334074
1.6446891
1.3352616
1.3353117
1.3353702
1.3354294
1.335493
1.3355705
1.3356672
1.3357753
1.3358885
1.3360133
1.336156
1.3363193
1.3365057
1.3367184
1.3369606
1.3372364
1.3375538
1.3379197
1.3383376
1.338817
1.3393724
1.3400194
1.3407778
1.3416741
1.3427435
1.3440332
1.3456061
1.3475446
1.3499528
1.3529551
1.3566892
1.3612882
1.3668609
1.3734567
1.3810761
1.3896619
1.3989806
1.4089683
1.4197704
1.4310502
1.4425353
1.4542485
1.4660719
1.4778644
1.489523
1.5009476
1.5120593
1.5227921
1.5331205
1.5430137
1.5525104
1.5615809
1.5703425
1.5786916
1.5868859
1.5945972
1.6024
1.6094288
1.6170067
1.6230617
1.6306762
1.6350183
1.6433411
1.6440586
1.6551895
1.3197277
1.3197955
1.3198641
1.3199322
1.3200127
1.3201067
1.3202147
1.3203387
1.3204813
1.3206462
1.3208369
1.3210547
1.3212973
1.3215633
1.3218576
1.3221897
1.3225678
1.3229994
1.3234941
1.3240642
1.3247258
1.3254998
1.3264141
1.3275065
1.3288279
1.3304466
1.3324523
1.3349592
1.3381051
1.3420445
1.346933
1.3528968
1.3600152
1.3682959
1.3776585
1.3878867
1.3989303
1.4107653
1.4231188
1.4356864
1.4485048
1.4614572
1.4744072
1.4872424
1.4998502
1.512126
1.5239859
1.5353586
1.5462129
1.5565126
1.5662939
1.5755249
1.5843279
1.5926063
1.6006323
1.6080916
1.6155805
1.6222541
1.6294581
1.6351646
1.6424254
1.6466079
1.6546314
1.6557912
1.6673449
1.3019762
1.3020545
1.3021486
1.30225
1.3023619
1.3024865
1.3026253
1.3027801
1.3029528
1.3031456
1.3033612
1.3036027
1.3038736
1.3041783
1.3045221
1.3049118
1.3053553
1.3058634
1.3064494
1.3071314
1.3079332
1.3088866
1.3100346
1.3114349
1.3131637
1.31532
1.3180276
1.3214343
1.3257049
1.331005
1.3374744
1.3451993
1.3542028
1.3643818
1.375591
1.3877442
1.4007411
1.4142654
1.4280058
1.4420236
1.4561959
1.4703833
1.4844707
1.4983345
1.511857
1.5249314
1.5374712
1.5494039
1.5606965
1.571314
1.5812889
1.5905972
1.599364
1.6075062
1.6153074
1.6224721
1.6296119
1.6359103
1.6427173
1.6480734
1.6549451
1.6590087
1.6664892
1.6687345
1.6773684
1.2837523
1.2838446
1.2839574
1.284074
1.2842026
1.2843457
1.2845048
1.2846817
1.2848785
1.2850977
1.2853425
1.2856165
1.2859241
1.2862708
1.2866636
1.2871117
1.2876266
1.2882239
1.2889242
1.2897552
1.290754
1.2919705
1.2934706
1.2953407
1.2976909
1.300657
1.304398
1.3090879
1.3148991
1.3219769
1.3304091
1.3402195
1.3513056
1.3635294
1.376826
1.3908407
1.4053801
1.4202421
1.4354493
1.4508557
1.4663091
1.4816799
1.4968336
1.5116379
1.5259714
1.5397254
1.5528148
1.5651698
1.5767598
1.5875541
1.597589
1.6068504
1.615468
1.6233805
1.6308713
1.6376838
1.644413
1.6503137
1.6566781
1.6616921
1.6681494
1.6720569
1.6791593
1.6815507
1.6896851
1.2672843
1.2673865
1.2675112
1.2676399
1.2677812
1.2679383
1.2681125
1.2683056
1.2685202
1.2687591
1.269026
1.2693253
1.2696627
1.2700454
1.2704831
1.2709883
1.2715779
1.2722745
1.2731085
1.2741205
1.2753648
1.2769128
1.2788574
1.2813155
1.2844306
1.2883702
1.2933178
1.299457
1.3069474
1.3158944
1.3263297
1.3381844
1.3513303
1.3656788
1.3806673
1.3961789
1.4122249
1.4286531
1.4452905
1.4619918
1.4786214
1.4950363
1.511098
1.5266726
1.5416387
1.5558913
1.5693498
1.5819507
1.593668
1.6044801
1.6144276
1.6235137
1.6318698
1.639463
1.646568
1.6529779
1.659251
1.6647411
1.670631
1.6753325
1.6813188
1.6851826
1.6917357
1.6947859
1.701882
1.2554639
1.2555709
1.2557012
1.2558354
1.2559827
1.2561459
1.2563268
1.2565274
1.2567504
1.2569993
1.2572785
1.2575935
1.2579518
1.2583632
1.2588407
1.2594019
1.2600705
1.2608782
1.2618675
1.2630947
1.2646339
1.2665802
1.2690535
1.2722
1.2761907
1.2812144
1.2874631
1.2951098
1.3042806
1.3150267
1.3273066
1.3410023
1.3559784
1.3717097
1.3880659
1.4052126
1.4227242
1.4404575
1.4582831
1.4760554
1.493629
1.5108567
1.5275956
1.5437114
1.5590852
1.5736173
1.587233
1.5998778
1.611531
1.6221835
1.6318819
1.6406494
1.6486199
1.6557916
1.662424
1.6683696
1.6741304
1.6791832
1.6845652
1.6889476
1.6944499
1.6982279
1.7042987
1.7075364
1.7141817
1.2499162
1.250023
1.2501526
1.2502862
1.2504326
1.2505949
1.2507748
1.2509746
1.2511975
1.2514478
1.2517307
1.2520535
1.2524259
1.2528608
1.2533757
1.2539944
1.2547485
1.2556804
1.2568465
1.2583199
1.2601949
1.26259
1.2656493
1.2695427
1.2744591
1.280595
1.288135
1.297225
1.3079444
1.3202835
1.3341424
1.3493611
1.3655845
1.3826013
1.4004957
1.4187941
1.4373799
1.4561075
1.474823
1.4933741
1.5116059
1.5293648
1.5465055
1.5628957
1.5784204
1.5929866
1.606527
1.618994
1.6303785
1.6406814
1.6499622
1.6582635
1.6657207
1.6723653
1.6784359
1.6838479
1.6890399
1.6936197
1.6984628
1.7025146
1.7075254
1.7112297
1.7168308
1.7204286
1.7266312
1.2527594
1.252861
1.2529827
1.2531099
1.2532491
1.2534036
1.2535751
1.2537664
1.2539812
1.2542246
1.2545032
1.254826
1.2552054
1.2556579
1.2562061
1.2568804
1.2577211
1.258782
1.2601328
1.2618634
1.2640867
1.2669407
1.2705891
1.2752163
1.2810189
1.2881885
1.2968889
1.3072291
1.3192384
1.3328533
1.3479231
1.364227
1.3815169
1.3996646
1.4183461
1.4374148
1.4567019
1.4760467
1.4952885
1.514264