/*--------------------------------*- C++ -*----------------------------------*\
  =========                 |
  \\      /  F ield         | OpenFOAM: The Open Source CFD Toolbox
   \\    /   O peration     | Website:  https://openfoam.org
    \\  /    A nd           | Version:  13
     \\/     M anipulation  |
\*---------------------------------------------------------------------------*/
FoamFile
{
    format      ascii;
    class       volScalarField;
    location    "2.902578";
    object      k;
}
// * * * * * * * * * * * * * * * * * * * * * * * * * * * * * * * * * * * * * //

dimensions      [0 2 -2 0 0 0 0];

internalField   nonuniform List<scalar> 
17140
(
4.5460016e-11
1.4285142e-09
1.168156e-08
5.0240285e-08
1.546188e-07
3.9022492e-07
8.6543646e-07
1.7540517e-06
3.3282028e-06
6.0059793e-06
1.0419372e-05
1.7509541e-05
2.8657374e-05
4.5856688e-05
7.193313e-05
0.00011079969
0.00016771335
0.00024944763
0.00036421411
0.0005210543
0.00072831642
0.00099083233
0.0013057109
0.0016574836
0.0020146834
0.0023316275
0.0025637362
0.0026991631
0.0027599626
0.002779457
0.0027817693
0.0027699516
0.0027497226
0.0027247454
0.002695988
0.0026649732
0.0026338904
0.0026050852
0.0025799214
0.0025622296
0.0025521642
0.0025451412
0.0025418536
0.0025635165
0.0026768572
0.0028408329
0.0030736888
0.0033488307
0.0035884564
0.0037303251
0.0038311903
0.0037086512
0.0032711529
0.0025561285
0.0017872544
0.0011744811
0.00076994983
0.00053063822
0.00039359287
0.00031362976
0.00026013941
0.00021923938
0.00018403313
0.000154015
0.00013232897
4.4839769e-11
1.409024e-09
1.1522214e-08
4.9555247e-08
1.5251181e-07
3.8491149e-07
8.5366426e-07
1.7302229e-06
3.2830648e-06
5.9247008e-06
1.0278765e-05
1.727413e-05
2.8273963e-05
4.5247125e-05
7.0985119e-05
0.00010935605
0.0001655612
0.00024631093
0.00035975632
0.00051490167
0.00072011592
0.00098035617
0.0012930077
0.0016430499
0.0019995934
0.0023174556
0.0025510556
0.0026883213
0.0027502292
0.0027701548
0.0027710109
0.0027566547
0.002733535
0.0027045678
0.0026703342
0.0026318601
0.0025906615
0.0025482285
0.0025052725
0.0024616341
0.0024167241
0.0023668988
0.0023135516
0.002281603
0.0022753629
0.002319349
0.0023893257
0.0024755277
0.0025778574
0.0026453421
0.0026703211
0.002670339
0.002493745
0.0021111233
0.0016028451
0.001122026
0.00076381164
0.00053305239
0.00039262934
0.00030816626
0.00025288552
0.00021300057
0.00018013611
0.00015223905
0.00013182359
4.3383684e-11
1.3632687e-09
1.1148059e-08
4.7946139e-08
1.4756009e-07
3.7241659e-07
8.2596162e-07
1.6741036e-06
3.1766649e-06
5.7329218e-06
9.9466432e-06
1.6717424e-05
2.7366125e-05
4.3801856e-05
6.8734135e-05
0.00010592285
0.00016043416
0.00023882387
0.000349092
0.00050014377
0.00070038281
0.0009550473
0.0012621651
0.0016077747
0.0019623684
0.0022819515
0.0025186082
0.0026593302
0.0027239156
0.0027429502
0.0027417797
0.0027217728
0.0026911436
0.0026516555
0.0026028591
0.002544403
0.0024759787
0.0023968612
0.0023055699
0.0022003104
0.0020790955
0.0019380096
0.0017733007
0.0016096333
0.0014808179
0.0013754038
0.0012803049
0.0011910057
0.0011166441
0.0010895149
0.0010985528
0.0012026268
0.0013380549
0.0013777271
0.0012446647
0.00097974724
0.00070897565
0.00050771668
0.00037559697
0.00029283412
0.00023881446
0.00020185895
0.00017302816
0.00014875004
0.00013060962
4.1077762e-11
1.2908087e-09
1.0555529e-08
4.5397848e-08
1.3971807e-07
3.5262772e-07
7.8208487e-07
1.5852115e-06
3.0081079e-06
5.4290538e-06
9.4202731e-06
1.583481e-05
2.5926127e-05
4.1507895e-05
6.5158161e-05
0.00010046224
0.00015226629
0.00022687024
0.00033201545
0.00047641772
0.00066848489
0.00091382737
0.0012113954
0.0015487914
0.0018985758
0.002218806
0.0024623481
0.0026075413
0.0026730287
0.0026906788
0.0026834963
0.0026527791
0.0026074776
0.0025482367
0.0024733653
0.0023811506
0.0022700589
0.0021386422
0.0019855952
0.0018104406
0.0016138392
0.0013979017
0.001168313
0.00096237154
0.00079668116
0.00065448431
0.00054430897
0.0004594734
0.0004167881
0.00040420638
0.00041313633
0.00047036614
0.00062210113
0.00082005184
0.00085822997
0.00081162283
0.00063773965
0.00046407868
0.00034522273
0.00027055621
0.00022203853
0.00018965281
0.00016511164
0.0001445157
0.00012885263
3.7990484e-11
1.1937958e-09
9.7622204e-09
4.1986052e-08
1.2921857e-07
3.2613222e-07
7.233354e-07
1.4661801e-06
2.7823785e-06
5.0220581e-06
8.7151142e-06
1.4652053e-05
2.3995649e-05
3.8430842e-05
6.0357742e-05
9.3124194e-05
0.00014127473
0.00021075394
0.00030893506
0.00044424563
0.00062504976
0.0008573964
0.0011414174
0.001466794
0.0018089196
0.0021288111
0.0023809442
0.0025330474
0.0026010367
0.0026175839
0.0026023018
0.0025584913
0.0024952242
0.0024125978
0.0023081382
0.0021795352
0.0020253313
0.0018451594
0.0016403557
0.001414861
0.0011759769
0.00093480147
0.00070624839
0.00052746969
0.00039369408
0.00029870078
0.0002396811
0.00020930729
0.00019559372
0.00019178391
0.00019978641
0.00023205366
0.00031880813
0.00054991262
0.00064233683
0.00064300331
0.00058899199
0.00044051174
0.00032443567
0.00025208079
0.00020695193
0.00017830982
0.00015741352
0.00014005889
0.0001267207
3.4263415e-11
1.0766784e-09
8.8045099e-09
3.7867188e-08
1.1654299e-07
2.9414476e-07
6.524061e-07
1.3224636e-06
2.5098131e-06
4.5305526e-06
7.8633718e-06
1.3223041e-05
2.1662327e-05
3.4709661e-05
5.4548089e-05
8.4234339e-05
0.00012794041
0.00019116668
0.00028081607
0.00040492737
0.00057175516
0.00078781284
0.0010546097
0.0013643433
0.0016959254
0.0020141396
0.0022755247
0.0024372337
0.0025101798
0.0025267001
0.0025037835
0.0024469154
0.0023655825
0.0022600841
0.0021278438
0.001966816
0.0017767661
0.0015600407
0.0013223547
0.0010736626
0.0008281165
0.00060247313
0.00041282754
0.00028651148
0.00020492472
0.00016250624
0.00014280168
0.00013494079
0.00013233586
0.00013104286
0.00013585945
0.00015521643
0.00020699661
0.00037071209
0.00052243315
0.00053735838
0.000520332
0.00042872055
0.00031559234
0.00024197199
0.00019632533
0.00016900632
0.0001504717
0.00013569638
0.00012439971
3.0063143e-11
9.4469131e-10
7.7252015e-09
3.3225327e-08
1.0225769e-07
2.5809403e-07
5.7246294e-07
1.1604704e-06
2.2025475e-06
3.9763711e-06
6.9027564e-06
1.161074e-05
1.902828e-05
3.0505661e-05
4.7977697e-05
7.4165884e-05
0.00011280871
0.00016888087
0.00024871138
0.00035982929
0.00051025858
0.00070689521
0.00095264844
0.0012424348
0.0015590932
0.001871703
0.0021396632
0.0023186503
0.0024019329
0.0024213202
0.0023938604
0.0023263909
0.0022296034
0.0021047679
0.0019498833
0.0017638687
0.0015484964
0.0013095735
0.0010577443
0.00080831265
0.00057903793
0.00038650432
0.00024565027
0.00017029047
0.00013184058
0.00011628142
0.00011236422
0.00011408164
0.00011583224
0.00011455068
0.00011669634
0.00012943757
0.00016572847
0.00028121009
0.00043665479
0.00047166161
0.00046331402
0.00040681937
0.00030723545
0.00023543179
0.00018898149
0.00016174741
0.00014451816
0.00013167177
0.00012206888
2.559404e-11
8.0425646e-10
6.5768083e-09
2.8286308e-08
8.705762e-08
2.1973355e-07
4.8739316e-07
9.8807338e-07
1.8755022e-06
3.3863909e-06
5.8797701e-06
9.8929865e-06
1.622017e-05
2.6019872e-05
4.0958309e-05
6.3391406e-05
9.657938e-05
0.00014490629
0.00021403583
0.00031086515
0.00044303951
0.00061768954
0.00083904125
0.0011048194
0.0014021665
0.0017051516
0.0019770791
0.0021767424
0.0022776177
0.0023044661
0.0022777613
0.0022042529
0.002096477
0.0019577126
0.0017872464
0.0015852711
0.0013556989
0.0011076485
0.00085553643
0.00061741157
0.00041180091
0.00025251055
0.00016334101
0.0001199299
0.00010187674
9.6961506e-05
9.89162e-05
0.00010872391
0.00011266623
0.00011033966
0.00011103593
0.0001200014
0.00014844464
0.00024030629
0.00038271544
0.00042814686
0.00042352253
0.00038056108
0.00029395213
0.00022747239
0.00018240123
0.00015573277
0.00013948032
0.00012809819
0.00011986041
2.1082012e-11
6.6247254e-10
5.4173771e-09
2.3299776e-08
7.1711052e-08
1.81002e-07
4.0149531e-07
8.139811e-07
1.5451902e-06
2.7903782e-06
4.8459667e-06
8.156199e-06
1.3378916e-05
2.1476594e-05
3.3839106e-05
5.2442999e-05
8.0045784e-05
0.00012039843
0.00017842789
0.00026028516
0.00037306788
0.0005239212
0.00071815961
0.00095618793
0.0012295836
0.001517899
0.0017891015
0.0020064715
0.0021344299
0.0021773495
0.0021583065
0.0020849558
0.0019726804
0.0018268438
0.0016480607
0.00143803
0.0012026402
0.00095318056
0.00070655634
0.00048343818
0.00030161418
0.00018216179
0.00012209382
9.5240418e-05
8.5481741e-05
8.3526194e-05
9.09633e-05
0.00010674354
0.00011522568
0.00011067428
0.00010950242
0.00011712643
0.00014143775
0.00022208982
0.00034712676
0.00039223722
0.00038944671
0.00035178129
0.00027599061
0.00021672768
0.00017529668
0.00015033476
0.0001352081
0.00012500621
0.00011783698
1.6750253e-11
5.2635299e-10
4.3042556e-09
1.8512327e-08
5.6976917e-08
1.4381496e-07
3.1901802e-07
6.4680467e-07
1.2279489e-06
2.2178088e-06
3.8524585e-06
6.4862036e-06
1.0644807e-05
1.7099846e-05
2.6970381e-05
4.1857649e-05
6.4014977e-05
9.6545156e-05
0.00014359543
0.00021047783
0.00030357166
0.00042976618
0.00059510844
0.00080234084
0.0010473658
0.001315614
0.001580719
0.0018086256
0.0019648331
0.0020343958
0.0020365532
0.0019735585
0.0018626924
0.0017151413
0.0015349597
0.0013247975
0.0010910185
0.00084682664
0.00061113608
0.00040327305
0.00024066505
0.00014660115
0.00010058349
8.0391597e-05
7.277553e-05
7.0882884e-05
7.8115454e-05
9.8553283e-05
0.00011739861
0.00011616901
0.00011235196
0.00011775
0.00013915293
0.00021531577
0.00032860304
0.00036565416
0.00036107249
0.00032055991
0.00025474371
0.00020394576
0.00016767777
0.00014536379
0.0001315756
0.00012235545
0.00011603205
1.2795031e-11
4.0206562e-10
3.2878919e-09
1.4141008e-08
4.3523242e-08
1.098584e-07
2.4370091e-07
4.9412559e-07
9.3817035e-07
1.6946708e-06
2.9443719e-06
4.9589257e-06
8.1422973e-06
1.3089158e-05
2.0665837e-05
3.2119787e-05
4.922216e-05
7.4442489e-05
0.00011114058
0.00016373143
0.00023772585
0.00033946565
0.00047526901
0.00064964007
0.00086233696
0.0011047046
0.0013569288
0.0015891748
0.0017689224
0.0018719773
0.0018993199
0.0018588938
0.0017632805
0.0016255018
0.0014512497
0.0012456626
0.0010176653
0.00077975975
0.00055012981
0.00035233385
0.00020572273
0.00012558753
8.6967757e-05
6.9904794e-05
6.2576965e-05
5.9856663e-05
6.6534177e-05
9.0289111e-05
0.00011901502
0.00012201266
0.0001177112
0.00012248972
0.00014179006
0.00021419809
0.0003156451
0.00034160791
0.00033365195
0.00028921407
0.00023339201
0.00019098489
0.00016019367
0.00014086984
0.00012845603
0.00012008737
0.00011445021
9.3652511e-12
2.9428957e-10
2.4065503e-09
1.0350406e-08
3.1856659e-08
8.0411376e-08
1.7838226e-07
3.6170166e-07
6.867947e-07
1.2407475e-06
2.1561294e-06
3.6324534e-06
5.9670082e-06
9.5987362e-06
1.5169871e-05
2.3610927e-05
3.6254686e-05
5.4982496e-05
8.239875e-05
0.00012201158
0.00017836199
0.00025698078
0.00036395914
0.00050481893
0.00068235473
0.00089340579
0.0011253935
0.0013549075
0.0015514569
0.0016872909
0.0017493766
0.0017391293
0.001667089
0.001546966
0.0013880133
0.0011961725
0.00097945081
0.00075436043
0.0005387243
0.00034911044
0.00020542539
0.00012493885
8.4947693e-05
6.5786591e-05
5.6987284e-05
5.5526723e-05
6.2728801e-05
8.8168729e-05
0.00012813449
0.000132453
0.00012293196
0.00012595144
0.00014636674
0.00022440665
0.00030625606
0.00031833417
0.00030468312
0.00025829609
0.00021355032
0.00017901529
0.00015332661
0.00013685559
0.00012573782
0.00011812837
0.00011309656
6.547437e-12
2.0574373e-10
1.6824652e-09
7.2361535e-09
2.2271599e-08
5.6217521e-08
1.2471327e-07
2.5288605e-07
4.8020379e-07
8.6760823e-07
1.5079379e-06
2.5410747e-06
4.1758262e-06
6.7213248e-06
1.0631669e-05
1.6568578e-05
2.5487624e-05
3.8753402e-05
5.8285997e-05
8.6732096e-05
0.0001276332
0.00018552234
0.00026581008
0.00037422143
0.00051545298
0.00069075972
0.00089461193
0.0011116631
0.0013167586
0.0014807842
0.0015812042
0.0016087093
0.001573682
0.00147891
0.0013412831
0.0011696249
0.00097425881
0.0007594343
0.00054928402
0.00036329968
0.00021910402
0.00013339142
8.9410762e-05
6.809795e-05
5.8539835e-05
5.8882331e-05
6.9797457e-05
0.000109478
0.00015249233
0.00014743051
0.00012648027
0.00012895848
0.00015269476
0.0002384961
0.00029354372
0.000296019
0.00027382142
0.0002317066
0.00019630348
0.00016843035
0.00014717325
0.00013322581
0.00012331283
0.00011641805
0.00011193049
4.3599236e-12
1.3700422e-10
1.1203472e-09
4.8185143e-09
1.483051e-08
3.7434911e-08
8.3046316e-08
1.6839896e-07
3.1978231e-07
5.7780244e-07
1.0043526e-06
1.6927732e-06
2.7825976e-06
4.4808579e-06
7.0926901e-06
1.1064938e-05
1.7047511e-05
2.5978046e-05
3.9195132e-05
5.858206e-05
8.6733211e-05
0.0001271126
0.00018412977
0.00026298328
0.00036901953
0.00050627089
0.00067492039
0.00086797914
0.001068701
0.0012516471
0.0013895555
0.001462942
0.001465524
0.0014187284
0.001308413
0.0011618207
0.00098498391
0.00079116428
0.00059015006
0.00040728148
0.00025795122
0.00015966318
0.00010639906
7.9436363e-05
6.8903186e-05
7.3265095e-05
9.3553116e-05
0.00015911952
0.00018809173
0.0001547145
0.00012770597
0.00013324858
0.00016403839
0.00024812331
0.00027751757
0.00027156868
0.00024139193
0.00020919924
0.0001815757
0.00015922867
0.00014167569
0.00012988585
0.00012110076
0.00011487936
0.00011092296
2.7595687e-12
8.6715359e-11
7.0911035e-10
3.0498098e-09
9.3867136e-09
2.3693653e-08
5.2562224e-08
1.0658411e-07
2.0240011e-07
3.6571754e-07
6.3573328e-07
1.0715939e-06
1.7618039e-06
2.8378898e-06
4.4941855e-06
7.0163585e-06
1.0822259e-05
1.651976e-05
2.4987144e-05
3.74814e-05
5.5776628e-05
8.2325045e-05
0.00012041038
0.00017421871
0.0002486763
0.00034880131
0.00047823711
0.00063673583
0.00081693873
0.0010020607
0.0011673174
0.0012867069
0.001341591
0.0013334253
0.0012778553
0.0011606523
0.0010133379
0.00084590178
0.00066374746
0.00048701629
0.00033483971
0.00022123291
0.00015061696
0.00011260144
0.00010511923
0.00011795234
0.00016393691
0.00023218603
0.00021312994
0.00015156257
0.00012981281
0.00013974249
0.000187121
0.0002505303
0.0002583485
0.00024239744
0.00021402625
0.00019053746
0.00016900746
0.00015111622
0.00013669034
0.00012676606
0.0001190271
0.00011347332
0.00011004974
1.6586199e-12
5.211965e-11
4.2620492e-10
1.8330555e-09
5.6417417e-09
1.424056e-08
3.1590973e-08
6.4058231e-08
1.2164271e-07
2.1979366e-07
3.8206947e-07
6.4402762e-07
1.0589011e-06
1.7058709e-06
2.7021085e-06
4.2202846e-06
6.5139591e-06
9.9542136e-06
1.5081992e-05
2.2681605e-05
3.3880967e-05
5.0281574e-05
7.4112627e-05
0.00010838264
0.00015695861
0.00022443306
0.00031553923
0.00043379703
0.00057916236
0.00074498739
0.00091576163
0.0010682069
0.0011772897
0.0012248817
0.0012146609
0.0011532001
0.001048313
0.00091382022
0.00075716381
0.00059554023
0.00044773339
0.00032977757
0.00025061119
0.00019701901
0.00020024161
0.00022389116
0.00029765399
0.0002880338
0.00021845482
0.00014444193
0.0001317727
0.00014767037
0.0002076061
0.00024086454
0.00023545768
0.00021063791
0.00019150979
0.00017491167
0.00015826931
0.00014386119
0.00013210067
0.00012380625
0.00011706167
0.00011217608
0.00010929874
9.4689435e-13
2.9754731e-11
2.4331688e-10
1.0464716e-09
3.22078e-09
8.1295939e-09
1.8034172e-08
3.6567602e-08
6.9437222e-08
1.2545915e-07
2.1807563e-07
3.6757425e-07
6.0432887e-07
9.7352983e-07
1.5420901e-06
2.4087356e-06
3.7187569e-06
5.6855633e-06
8.6220787e-06
1.2986113e-05
1.9444906e-05
2.8964382e-05
4.2926704e-05
6.3272635e-05
9.2648345e-05
0.00013449996
0.00019299522
0.00027255244
0.00037669657
0.00050601433
0.00065541473
0.00081187047
0.00095482605
0.0010609783
0.00111319
0.0011074193
0.0010535853
0.00096666721
0.00085228544
0.00072005157
0.00059055921
0.00048033666
0.00040697329
0.00035778195
0.00036388311
0.0004019767
0.00038416439
0.00031018386
0.00017586964
0.00013502067
0.00013480635
0.00016319074
0.00021653092
0.0002257044
0.0002109368
0.00019202757
0.00017600115
0.00016190389
0.00014903153
0.00013732308
0.00012783349
0.00012099513
0.00011518821
0.00011099417
0.00010864125
5.141176e-13
1.6155366e-11
1.3210893e-10
5.681794e-10
1.7486987e-09
4.4138356e-09
9.7911501e-09
1.9852709e-08
3.7696028e-08
6.8104886e-08
1.1837146e-07
1.9949819e-07
3.2795239e-07
5.2822706e-07
8.3658215e-07
1.3065208e-06
2.016826e-06
3.0833842e-06
4.6766092e-06
7.0470906e-06
1.0563131e-05
1.5764929e-05
2.3440758e-05
3.4729246e-05
5.1246038e-05
7.5218083e-05
0.00010958019
0.00015794388
0.00022427838
0.00031202782
0.00042247332
0.00055243894
0.00069218857
0.00082518516
0.0009315934
0.0010004841
0.0010039165
0.00096653714
0.00089534281
0.00081279507
0.00071946845
0.00063836444
0.00057624338
0.00054263712
0.00053338435
0.00049920979
0.00041228966
0.00022289334
0.00014821016
0.00013097822
0.00014236152
0.00018651601
0.00021560958
0.00021003905
0.0001912559
0.00017575683
0.00016342271
0.00015154928
0.00014120295
0.00013200295
0.00012437959
0.00011847557
0.00011344684
0.00010992514
0.00010802394
2.6589209e-13
8.3552505e-12
6.8324094e-11
2.9384988e-10
9.043805e-10
2.2826853e-09
5.0635369e-09
1.0266574e-08
1.9493058e-08
3.5215369e-08
6.1201048e-08
1.0313216e-07
1.6950851e-07
2.7296444e-07
4.3219076e-07
6.7474632e-07
1.0411857e-06
1.5911449e-06
2.4123549e-06
3.6340389e-06
5.4468466e-06
8.1324046e-06
1.2106609e-05
1.7981533e-05
2.6650199e-05
3.9394324e-05
5.8003218e-05
8.4866197e-05
0.00012296133
0.00017562566
0.00024593927
0.00033556091
0.0004429725
0.00056168226
0.00068021063
0.00078258105
0.00086804363
0.00089741469
0.00087000513
0.00082537328
0.00076798144
0.00072067605
0.00068233886
0.00064791962
0.00059546054
0.0004973184
0.0002694173
0.00016204047
0.00013182008
0.00013282725
0.00015783345
0.00019635407
0.0002008931
0.00018901012
0.00017401818
0.00016400896
0.00015319184
0.0001443281
0.00013567176
0.00012780102
0.0001214733
0.00011630587
0.0001118597
0.0001089581
0.00010735854
1.3116204e-13
4.1215636e-12
3.3703543e-11
1.4495241e-10
4.4611559e-10
1.1259941e-09
2.4976666e-09
5.0639716e-09
9.6144338e-09
1.7367772e-08
3.018046e-08
5.0850995e-08
8.3562971e-08
1.3452996e-07
2.1293483e-07
3.3230112e-07
5.1250231e-07
7.8272049e-07
1.1858285e-06
1.7849205e-06
2.6730967e-06
3.9881643e-06
5.9346832e-06
8.8167089e-06
1.3085452e-05
1.9406021e-05
2.8744258e-05
4.2466656e-05
6.2424385e-05
9.0962461e-05
0.00013072995
0.00018422426
0.00025293683
0.00033624611
0.00043046458
0.00052692583
0.00061836879
0.00070266645
0.00076433949
0.00076059772
0.00073532097
0.00070647658
0.00067092103
0.00061171955
0.00049754395
0.00026891891
0.0001627347
0.00013276471
0.00012746775
0.0001402632
0.00017723572
0.0001967245
0.00019000183
0.00017296509
0.00016210377
0.0001543093
0.00014615889
0.00013877505
0.00013122101
0.00012456713
0.00011908461
0.00011445293
0.00011050846
0.00010801251
0.00010661503
6.2149387e-14
1.9529473e-12
1.5969935e-11
6.8683253e-11
2.1138228e-10
5.3351995e-10
1.1834213e-09
2.3992869e-09
4.5550669e-09
8.2278708e-09
1.4296556e-08
2.4085356e-08
3.9572778e-08
6.3695068e-08
1.0078722e-07
1.5722485e-07
2.4236131e-07
3.6990153e-07
5.5993631e-07
8.4197121e-07
1.2594584e-06
1.876641e-06
2.788926e-06
4.1385945e-06
6.1383736e-06
9.1060469e-06
1.3513317e-05
2.0050328e-05
2.9701174e-05
4.3814037e-05
6.412341e-05
9.2624179e-05
0.00013122431
0.000181031
0.00024172902
0.00031030448
0.00038205257
0.00045169086
0.00051848065
0.00056280581
0.00058161477
0.00056612671
0.00051829635
0.00039833525
0.00023149575
0.00015328612
0.00012917032
0.00012498005
0.00013391584
0.00016453574
0.00018366968
0.00018174519
0.00017127152
0.00016294633
0.00015585663
0.00014842434
0.00014062771
0.00013420803
0.00012735397
0.00012183955
0.0001169242
0.00011287842
0.00010932745
0.00010700518
0.00010590947
2.9316107e-14
9.2121221e-13
7.5330498e-12
3.2397734e-11
9.9706673e-11
2.5164756e-10
5.5816261e-10
1.1315496e-09
2.1480483e-09
3.8795277e-09
6.7397625e-09
1.1351826e-08
1.8645916e-08
3.0001245e-08
4.7451907e-08
7.3985363e-08
1.1397816e-07
1.7383412e-07
2.6291679e-07
3.9492533e-07
5.8994967e-07
8.775413e-07
1.3013237e-06
1.9261569e-06
2.849032e-06
4.2152748e-06
6.242616e-06
9.2552955e-06
1.3728033e-05
2.033797e-05
3.0012004e-05
4.3936328e-05
6.3484835e-05
8.9960998e-05
0.00012414719
0.00016554282
0.00021183593
0.00025955229
0.00030322966
0.00034086374
0.00034369743
0.00032494138
0.00025271191
0.00017277225
0.00013282481
0.0001196628
0.00012019765
0.00012847866
0.00015701429
0.00017455996
0.00017807353
0.0001735294
0.00016356818
0.00015587452
0.00014893335
0.00014301786
0.00013649148
0.00013074083
0.00012438834
0.00011972492
0.00011498828
0.00011157634
0.00010826812
0.00010598152
0.00010520165
1.5632088e-14
4.912135e-13
4.0168046e-12
1.7275122e-11
5.3164496e-11
1.3417588e-10
2.9759061e-10
6.032538e-10
1.1450581e-09
2.0677815e-09
3.5916354e-09
6.0478879e-09
9.9303687e-09
1.5969723e-08
2.5240243e-08
3.9314197e-08
6.0483417e-08
9.2079207e-08
1.3893558e-07
2.080641e-07
3.0964614e-07
4.5851112e-07
6.7637593e-07
9.9504116e-07
1.4611139e-06
2.1430579e-06
3.142964e-06
4.6122045e-06
6.7739875e-06
9.9531595e-06
1.460378e-05
2.1351817e-05
3.0971157e-05
4.4319516e-05
6.2143773e-05
8.4738519e-05
0.00011136625
0.00013995471
0.00016660414
0.00018236463
0.00017569604
0.00014552378
0.00011802259
0.00010480542
0.00010689612
0.00011119531
0.0001222362
0.00015277401
0.00017005464
0.00017646778
0.00017447197
0.00016586746
0.00015750448
0.00015136712
0.00014535555
0.0001389009
0.00013249108
0.00012723044
0.00012163658
0.00011778527
0.00011322501
0.00011046812
0.00010733838
0.00010500372
0.00010447811
1.1472007e-14
3.6048996e-13
2.9478483e-12
1.2677864e-11
3.9016033e-11
9.8466394e-11
2.1838452e-10
4.4267973e-10
8.4023826e-10
1.5172695e-09
2.6352919e-09
4.4371972e-09
7.2848395e-09
1.1713005e-08
1.8506559e-08
2.881025e-08
4.4284293e-08
6.7323824e-08
1.0136708e-07
1.5132639e-07
2.2418899e-07
3.2985362e-07
4.8229861e-07
7.012301e-07
1.0144788e-06
1.4616523e-06
2.098188e-06
3.0029253e-06
4.2887583e-06
6.1177745e-06
8.7207695e-06
1.2418164e-05
1.7626583e-05
2.4833783e-05
3.4497094e-05
4.6768134e-05
6.1038231e-05
7.5328356e-05
8.6083951e-05
8.6182582e-05
7.9820542e-05
7.8589774e-05
8.3307466e-05
8.9898517e-05
0.00010203241
0.00012117777
0.00014964513
0.00016654596
0.00017303342
0.00017234858
0.00016683428
0.00015726246
0.00015090442
0.00014539206
0.00014014099
0.0001351337
0.00012975481
0.00012484734
0.00011967771
0.00011611507
0.00011176905
0.00010945833
0.00010658787
0.00010418387
0.00010350817
1.1695346e-14
3.6750875e-13
3.0052663e-12
1.2924961e-11
3.9777025e-11
1.0038867e-10
2.2265348e-10
4.5135044e-10
8.5674386e-10
1.5471935e-09
2.6875291e-09
4.5256704e-09
7.4309831e-09
1.1949227e-08
1.8880789e-08
2.9391278e-08
4.5166533e-08
6.8627649e-08
1.0322544e-07
1.5383727e-07
2.2729088e-07
3.3303419e-07
4.8397025e-07
6.9746086e-07
9.965081e-07
1.4111277e-06
1.9800099e-06
2.7527385e-06
3.7939649e-06
5.1898777e-06
7.0551571e-06
9.5390216e-06
1.2822791e-05
1.70889e-05
2.241417e-05
2.858931e-05
3.5232617e-05
4.0994756e-05
4.4793633e-05
4.853988e-05
5.4226878e-05
6.4108709e-05
7.6870344e-05
9.4039303e-05
0.00011970744
0.00014677063
0.00016356512
0.00017079388
0.00017177624
0.00016897358
0.00015996611
0.00015327667
0.00014789971
0.0001427176
0.00013718272
0.00013164748
0.00012645492
0.00012204648
0.00011765471
0.00011445227
0.00011056562
0.00010851352
0.00010596426
0.0001035753
0.00010285287
1.286424e-14
4.0424015e-13
3.3056571e-12
1.4217082e-11
4.3754561e-11
1.1043069e-10
2.449367e-10
4.9655111e-10
9.4261416e-10
1.7024243e-09
2.9574874e-09
4.9808438e-09
8.1792796e-09
1.3153671e-08
2.0784576e-08
3.2352477e-08
4.9704658e-08
7.5483154e-08
1.1342956e-07
1.6878105e-07
2.4876443e-07
3.6318148e-07
5.250554e-07
7.5126293e-07
1.0629788e-06
1.4857959e-06
2.0493006e-06
2.785704e-06
3.7271385e-06
4.9022033e-06
6.3410166e-06
8.0858154e-06
1.0179065e-05
1.2647485e-05
1.5511292e-05
1.8706255e-05
2.2229991e-05
2.6097381e-05
3.1475888e-05
3.9673539e-05
5.1115666e-05
6.5401333e-05
8.5545008e-05
0.00011590748
0.0001427517
0.00016072473
0.00016965303
0.00017178856
0.00016981185
0.00016252635
0.00015426429
0.00014839432
0.00014365281
0.00013898132
0.0001340069
0.00012919945
0.00012457913
0.00012032152
0.00011619359
0.0001130761
0.00010955381
0.00010772126
0.00010528011
0.00010313942
0.00010259293
1.2272276e-14
3.856386e-13
3.1535482e-12
1.3562921e-11
4.1741436e-11
1.0535019e-10
2.3366895e-10
4.7371017e-10
8.9925731e-10
1.6241196e-09
2.8214405e-09
4.751648e-09
7.802647e-09
1.2547197e-08
1.9824109e-08
3.0851917e-08
4.7385752e-08
7.1929795e-08
1.0801747e-07
1.605673e-07
2.3630989e-07
3.4425496e-07
4.9610437e-07
7.0644122e-07
9.9248412e-07
1.3730565e-06
1.8665723e-06
2.4882944e-06
3.2481117e-06
4.1515595e-06
5.203142e-06
6.415657e-06
7.8198599e-06
9.4887261e-06
1.1475691e-05
1.3889014e-05
1.712342e-05
2.2403247e-05
2.9618163e-05
4.0706753e-05
5.6857525e-05
7.8491185e-05
0.00011015923
0.00013935497
0.00015872582
0.000169783
0.00017206815
0.00017077474
0.00016547535
0.00015542381
0.00014951173
0.00014476932
0.00014007411
0.00013543946
0.00013085766
0.00012628616
0.00012198539
0.00011817028
0.00011462305
0.00011178895
0.00010863157
0.00010699365
0.00010467928
0.00010287632
0.00010251639
9.3652855e-15
2.9429025e-13
2.4065349e-12
1.0349977e-11
3.185237e-11
8.0387977e-11
1.7829112e-10
3.6141309e-10
6.8600081e-10
1.2387743e-09
2.1515878e-09
3.622619e-09
5.9467776e-09
9.5590092e-09
1.5095384e-08
2.3478274e-08
3.6033316e-08
5.4646716e-08
8.1970772e-08
1.2168124e-07
1.7877908e-07
2.5990695e-07
3.7361233e-07
5.304336e-07
7.4262652e-07
1.0233219e-06
1.3849987e-06
1.8375273e-06
2.3868928e-06
3.0365718e-06
3.7936632e-06
4.6829606e-06
5.7616547e-06
7.133352e-06
9.0043544e-06
1.1744596e-05
1.6120642e-05
2.3145716e-05
3.4385881e-05
5.1060868e-05
7.2840041e-05
0.00010396219
0.00013482455
0.00015750226
0.00017019209
0.00017312583
0.00017237593
0.00016815404
0.0001573045
0.00015134699
0.00014640241
0.00014186376
0.00013780383
0.00013316427
0.00012841166
0.00012423477
0.00012035586
0.00011673138
0.00011341025
0.00011067732
0.00010783771
0.00010626194
0.00010432919
0.00010277843
0.00010273632
6.0789481e-15
1.9102158e-13
1.5620484e-12
6.7178618e-12
2.0673504e-11
5.2171488e-11
1.1569873e-10
2.3450065e-10
4.4502845e-10
8.0344604e-10
1.395082e-09
2.3480651e-09
3.8528538e-09
6.189982e-09
9.7691086e-09
1.5183333e-08
2.3283611e-08
3.5278697e-08
5.2865711e-08
7.8394316e-08
1.1506103e-07
1.6711892e-07
2.4006871e-07
3.4077002e-07
4.773907e-07
6.5913075e-07
8.9578078e-07
1.1973238e-06
1.5749574e-06
2.0447848e-06
2.637218e-06
3.4155139e-06
4.5060227e-06
6.1464885e-06
8.7021072e-06
1.2819767e-05
1.9775684e-05
3.0886514e-05
4.7009432e-05
6.8128154e-05
9.7994459e-05
0.00012983201
0.00015549775
0.00017100392
0.00017467376
0.00017403445
0.00017040652
0.00015968312
0.0001532556
0.00014776743
0.00014288446
0.0001385275
0.0001342568
0.0001302144
0.00012619768
0.00012219071
0.00011844096
0.00011514033
0.00011217806
0.00010963326
0.00010714229
0.00010563509
0.00010406179
0.00010299054
0.0001037056
3.9259263e-15
1.2336592e-13
1.0087939e-12
4.338369e-12
1.3350142e-11
3.3687464e-11
7.4698584e-11
1.5137723e-10
2.8722333e-10
5.1842442e-10
8.9992365e-10
1.5141654e-09
2.4836128e-09
3.9885307e-09
6.2920355e-09
9.7750326e-09
1.4984362e-08
2.2698161e-08
3.401295e-08
5.0456957e-08
7.4133372e-08
1.0789557e-07
1.5555462e-07
2.2212359e-07
3.1411275e-07
4.3997953e-07
6.1096375e-07
8.4289434e-07
1.1600251e-06
1.6019925e-06
2.2419834e-06
3.2206927e-06
4.7865361e-06
7.342062e-06
1.1464595e-05
1.8190102e-05
2.8815187e-05
4.4209951e-05
6.4371371e-05
9.2917705e-05
0.00012509676
0.00015313021
0.00017170763
0.00017669295
0.00017601771
0.00017298215
0.0001631859
0.00015562718
0.00014944215
0.00014436178
0.00014004617
0.00013621421
0.0001323238
0.00012791662
0.00012386722
0.00012031724
0.00011695915
0.00011389209
0.00011112208
0.00010872456
0.0001065587
0.00010510943
0.00010381886
0.00010318704
0.00010425968
3.3178545e-15
1.0425818e-13
8.5254177e-13
3.6663476e-12
1.1281853e-11
2.8467123e-11
6.3119442e-11
1.2790402e-10
2.4267052e-10
4.379879e-10
7.6028078e-10
1.2792488e-09
2.0985232e-09
3.3708888e-09
5.3199069e-09
8.2704592e-09
1.2691649e-08
1.9256736e-08
2.8926469e-08
4.3064646e-08
6.3598573e-08
9.3243871e-08
1.358258e-07
1.9675596e-07
2.8377982e-07
4.0823114e-07
5.8728901e-07
8.4830289e-07
1.2377751e-06
1.8415155e-06
2.8009443e-06
4.3541285e-06
6.9023055e-06
1.1013195e-05
1.7485129e-05
2.7594627e-05
4.2217571e-05
6.163967e-05
8.8841409e-05
0.00012072609
0.00015044785
0.00017201603
0.00017885739
0.00017849952
0.0001759234
0.00016713809
0.00015792867
0.00015122269
0.00014601484
0.00014158307
0.00013757475
0.00013370257
0.00012981048
0.00012594875
0.00012224768
0.00011872565
0.00011549288
0.00011266016
0.00011013116
0.00010792924
0.00010604069
0.00010462004
0.0001037014
0.00010322231
0.00010432859
3.9270523e-15
1.2340124e-13
1.0090785e-12
4.3395213e-12
1.3353214e-11
3.3693427e-11
7.4707121e-11
1.5138545e-10
2.8722744e-10
5.1843365e-10
9.0001081e-10
1.5146134e-09
2.4852936e-09
3.9938182e-09
6.3069093e-09
9.8137571e-09
1.5079622e-08
2.2922538e-08
3.4523542e-08
5.158649e-08
7.6573148e-08
1.1307796e-07
1.6639933e-07
2.444749e-07
3.5947292e-07
5.3058391e-07
7.8901073e-07
1.1867355e-06
1.808002e-06
2.7887259e-06
4.3581701e-06
6.8868603e-06
1.0927234e-05
1.7218157e-05
2.6910558e-05
4.0797981e-05
5.9686039e-05
8.5606146e-05
0.00011676601
0.00014749259
0.00017152685
0.00018067721
0.00018129863
0.00017902624
0.00017107243
0.0001603574
0.00015353132
0.00014818352
0.00014344583
0.0001391506
0.00013517045
0.00013145294
0.00012767642
0.00012381612
0.00012036384
0.00011717476
0.00011421447
0.00011159972
0.00010926108
0.00010724394
0.00010552185
0.00010424822
0.0001035512
0.00010323326
0.00010406512
5.6820622e-15
1.7854961e-13
1.4600402e-12
6.2788833e-12
1.9320906e-11
4.8751635e-11
1.0809638e-10
2.190502e-10
4.1562755e-10
7.5024549e-10
1.302593e-09
2.1925062e-09
3.5985964e-09
5.7851407e-09
9.1408591e-09
1.4234872e-08
2.1898546e-08
3.3346275e-08
5.0352841e-08
7.5521416e-08
1.1269554e-07
1.6758678e-07
2.4879789e-07
3.6949678e-07
5.5020579e-07
8.2339058e-07
1.2408883e-06
1.8862965e-06
2.8969603e-06
4.4932204e-06
7.0194736e-06
1.1000984e-05
1.7202035e-05
2.6526669e-05
3.9843402e-05
5.822487e-05
8.3002087e-05
0.00011317868
0.00014432443
0.00017029002
0.00018220562
0.00018393899
0.00018204767
0.00017516637
0.00016340725
0.00015655756
0.00015077451
0.0001454196
0.00014068208
0.0001365626