/*--------------------------------*- C++ -*----------------------------------*\
  =========                 |
  \\      /  F ield         | OpenFOAM: The Open Source CFD Toolbox
   \\    /   O peration     | Website:  https://openfoam.org
    \\  /    A nd           | Version:  13
     \\/     M anipulation  |
\*---------------------------------------------------------------------------*/
FoamFile
{
    format      ascii;
    class       volVectorField;
    location    "28.596857";
    object      U;
}
// * * * * * * * * * * * * * * * * * * * * * * * * * * * * * * * * * * * * * //

dimensions      [0 1 -1 0 0 0 0];

internalField   nonuniform List<vector> 
17140
(
(1.9164321e-07 -2.0426924e-05 2.4572656e-23)
(-1.0983557e-06 -6.2038985e-05 2.7221226e-24)
(-4.8294559e-06 -0.00010768929 -1.7962145e-22)
(-1.1897005e-05 -0.00015917839 1.973973e-22)
(-2.321889e-05 -0.00021855026 -2.3066988e-23)
(-4.0036489e-05 -0.0002880955 7.5461306e-23)
(-6.3904802e-05 -0.0003703489 1.2697115e-22)
(-9.6748576e-05 -0.00046807606 -6.1922417e-23)
(-0.00014094393 -0.00058424767 -2.0252681e-22)
(-0.00019941399 -0.00072199697 -4.9619784e-22)
(-0.00027573767 -0.00088455629 7.3466844e-22)
(-0.00037427593 -0.0010751677 -6.5357642e-22)
(-0.00050031572 -0.0012969624 -9.9880974e-23)
(-0.00066023188 -0.0015528038 5.6295144e-22)
(-0.00086166542 -0.0018450881 -6.2333709e-23)
(-0.0011137152 -0.0021754977 4.9157655e-22)
(-0.001427137 -0.0025447053 -1.8175691e-23)
(-0.00181454 -0.0029520282 4.0850657e-24)
(-0.0022905669 -0.0033950368 2.855111e-22)
(-0.0028720354 -0.0038691319 -3.6672172e-22)
(-0.0035780121 -0.0043671112 1.7475656e-22)
(-0.0044297795 -0.0048787629 -3.2804067e-23)
(-0.0054506442 -0.0053905412 -2.3891144e-22)
(-0.0066655228 -0.0058853988 2.3390422e-22)
(-0.008100226 -0.0063428824 3.6551442e-22)
(-0.0097803548 -0.0067396268 -2.8752182e-22)
(-0.011729721 -0.0070504327 -1.3807635e-21)
(-0.013968231 -0.0072501637 -1.5912399e-22)
(-0.016509271 -0.007316742 1.3601649e-21)
(-0.019356835 -0.0072354119 3.094911e-22)
(-0.022503015 -0.0070038736 1.0696535e-21)
(-0.025926994 -0.0066364446 -1.3560163e-21)
(-0.029596862 -0.0061636893 3.3841415e-22)
(-0.03347478 -0.0056248129 1.5319822e-22)
(-0.037523608 -0.0050556416 1.4372043e-21)
(-0.041711487 -0.0044797053 -5.9624324e-22)
(-0.046012503 -0.0039065762 8.5339115e-22)
(-0.050405163 -0.0033350045 5.5159753e-22)
(-0.054870486 -0.0027562111 2.4367525e-22)
(-0.05939134 -0.0021558933 -7.1623976e-22)
(-0.063953313 -0.0015139466 -1.3254824e-21)
(-0.068546253 -0.00080272394 -1.1892839e-21)
(-0.0731669 1.5975693e-05 -5.1737588e-22)
(-0.077821518 0.00099504494 2.5254427e-21)
(-0.082528823 0.0022074867 1.8602859e-21)
(-0.087325882 0.0037526441 -4.6266596e-22)
(-0.092262393 0.0057604136 3.1748197e-21)
(-0.097397516 0.0083968126 1.0910315e-21)
(-0.10279484 0.011873844 -1.1239163e-21)
(-0.10851401 0.016456998 -2.7754557e-21)
(-0.11457435 0.022468488 1.7232064e-21)
(-0.12096072 0.030287269 1.0925265e-21)
(-0.12751269 0.040314726 -2.8592222e-21)
(-0.13403404 0.052902993 -1.3500225e-21)
(-0.13994887 0.068085312 -9.5942294e-22)
(-0.14483802 0.08525111 7.5165877e-22)
(-0.14747836 0.1024299 -1.9932703e-21)
(-0.14776118 0.11555484 -1.6516703e-21)
(-0.14270141 0.11917484 -4.0457886e-22)
(-0.13583358 0.10264898 1.0597944e-21)
(-0.11912098 0.055691833 7.7285969e-22)
(-0.092117467 -0.028188762 2.7918935e-21)
(-0.027156362 -0.13661075 3.1751929e-22)
(0.046145305 -0.22467273 -2.0256217e-21)
(0.12504558 -0.25760687 9.2728127e-22)
(-6.4286071e-07 1.3587061e-05 -6.9858552e-24)
(-3.6828413e-06 4.3293823e-05 9.4080411e-22)
(-9.3115087e-06 7.6393094e-05 -8.3700665e-22)
(-1.838444e-05 0.00011174923 2.2808892e-22)
(-3.1775518e-05 0.00014803342 4.7102771e-22)
(-5.0671521e-05 0.00018370288 -8.9962754e-22)
(-7.6562372e-05 0.00021699863 9.3715938e-22)
(-0.00011129686 0.00024595029 -8.2416569e-23)
(-0.00015716357 0.00026838911 2.570668e-22)
(-0.00021698612 0.00028197364 4.3588392e-24)
(-0.00029423192 0.00028423123 8.559677e-22)
(-0.00039313879 0.00027261896 -1.3573396e-21)
(-0.00051885997 0.00024460843 -1.1186872e-22)
(-0.00067762771 0.00019779835 1.1005996e-21)
(-0.00087693425 0.00013005957 -3.3659075e-22)
(-0.0011257273 3.9715476e-05 -2.1262426e-22)
(-0.0014346139 -7.4240138e-05 1.3413369e-21)
(-0.0018160639 -0.00021188867 -4.3357416e-21)
(-0.002284597 -0.00037210113 2.6891881e-21)
(-0.0028569341 -0.00055223383 -3.1863112e-21)
(-0.0035520805 -0.00074782638 4.646208e-21)
(-0.0043913042 -0.0009523367 -1.1219032e-21)
(-0.0053979532 -0.0011569625 -4.549076e-22)
(-0.0065970493 -0.0013506187 1.4609463e-21)
(-0.0080145765 -0.0015201614 -5.154978e-21)
(-0.0096763746 -0.0016509684 -7.5434105e-22)
(-0.011606547 -0.0017280078 3.8269384e-21)
(-0.013825319 -0.0017375241 -4.199135e-21)
(-0.016346384 -0.0016694155 5.6219532e-22)
(-0.019173959 -0.0015201606 5.3827552e-21)
(-0.022300208 -0.0012955984 -5.4201581e-22)
(-0.025704145 -0.0010119421 -4.0132301e-21)
(-0.02935341 -0.00069292738 -9.8609918e-23)
(-0.033209431 -0.00036277106 2.7405552e-21)
(-0.037234169 -3.8492269e-05 -2.9045184e-21)
(-0.041394844 0.00027363473 1.2424276e-21)
(-0.04566476 0.00057674199 -1.3872534e-21)
(-0.050021348 0.00088025484 -4.2307953e-21)
(-0.054444487 0.0011980971 -9.154644e-22)
(-0.058915871 0.0015482202 -3.4787039e-21)
(-0.063419318 0.001953984 4.3798669e-21)
(-0.067942252 0.0024465165 3.9920045e-21)
(-0.072478017 0.0030679632 6.8335312e-22)
(-0.077028171 0.0038755959 -5.4687131e-21)
(-0.081604926 0.0049473887 2.5987908e-21)
(-0.086236163 0.006386688 9.1121019e-22)
(-0.090959503 0.0083239703 -5.0823712e-22)
(-0.095818458 0.010923095 -1.5659916e-21)
(-0.10085628 0.014390815 7.7775637e-22)
(-0.10610759 0.018980511 -1.3989038e-21)
(-0.11156129 0.024994517 -8.5776451e-21)
(-0.11717022 0.032782784 -4.2215908e-22)
(-0.1227416 0.042710316 1.8806642e-21)
(-0.12807012 0.055084814 -4.1238613e-21)
(-0.13260554 0.069899001 3.5297727e-21)
(-0.1360663 0.086503959 -9.958566e-21)
(-0.13736047 0.10294123 -2.819058e-21)
(-0.13656487 0.11505428 7.9261645e-21)
(-0.13117025 0.11765974 -1.3555864e-21)
(-0.12360566 0.099646065 -1.5001943e-21)
(-0.10572486 0.049627826 -2.9538828e-22)
(-0.07499461 -0.041428242 4.3081716e-21)
(0.00023473406 -0.15707974 -6.0511332e-21)
(0.081714671 -0.24612316 -1.4316652e-21)
(0.1603628 -0.27444709 -1.2433707e-21)
(-3.3283307e-06 4.7212651e-05 -3.8417412e-22)
(-1.2040308e-05 0.00014741094 2.8389481e-22)
(-2.3817746e-05 0.00025835142 7.548946e-23)
(-3.9570335e-05 0.00037957061 -7.154876e-23)
(-6.0134226e-05 0.0005104631 3.4661993e-22)
(-8.6666152e-05 0.00065024314 2.5786487e-23)
(-0.0001206168 0.00079793911 3.290004e-22)
(-0.00016377887 0.00095239061 3.5424065e-22)
(-0.00021836924 0.0011122487 -2.8919019e-21)
(-0.00028712078 0.0012759854 2.5789863e-21)
(-0.0003733896 0.0014419135 -1.2323198e-21)
(-0.00048127895 0.0016082193 -1.8024159e-21)
(-0.00061578228 0.001773012 3.5657336e-21)
(-0.00078294488 0.001934392 4.4029299e-22)
(-0.00099004347 0.0020905415 -1.6928157e-21)
(-0.0012457808 0.0022398387 -1.158478e-21)
(-0.0015604901 0.0023809969 1.3358486e-21)
(-0.0019463391 0.002513227 -4.8023793e-21)
(-0.002417521 0.0026364159 2.8144619e-21)
(-0.0029904094 0.0027513107 -1.3786133e-21)
(-0.0036836491 0.0028596871 4.595012e-21)
(-0.0045181419 0.0029644707 1.1806064e-21)
(-0.005516875 0.0030697654 -2.4258591e-21)
(-0.0067045259 0.0031807283 3.5946436e-21)
(-0.0081067626 0.0033032128 1.3922155e-21)
(-0.0097491495 0.0034430949 -1.6405813e-21)
(-0.011655565 0.0036052056 -9.155349e-21)
(-0.013846071 0.0037918431 -4.065565e-21)
(-0.016334265 0.0040009879 1.9835607e-21)
(-0.019124353 0.0042246736 -2.0819429e-21)
(-0.022208579 0.0044485114 1.2606347e-21)
(-0.025566137 0.0046538122 6.9449784e-21)
(-0.029164883 0.0048230253 -2.2356849e-21)
(-0.032966363 0.0049464631 -6.4065486e-21)
(-0.036932398 0.0050258432 2.0313605e-21)
(-0.041029744 0.0050724118 2.7146238e-21)
(-0.045230902 0.0051024075 -4.4876004e-21)
(-0.049512322 0.0051338705 -1.3122646e-21)
(-0.053852559 0.0051858775 2.2672836e-21)
(-0.05823149 0.0052800432 8.9329286e-22)
(-0.062630582 0.0054428196 -4.2098961e-21)
(-0.067034061 0.0057085067 1.1749321e-21)
(-0.071430878 0.0061227644 1.7218816e-21)
(-0.075816532 0.0067466791 4.6370444e-21)
(-0.080195023 0.0076623342 -8.9252177e-21)
(-0.084582802 0.0089763314 5.8537646e-21)
(-0.089002143 0.010818912 1.4881153e-21)
(-0.093476944 0.013350817 6.0388245e-21)
(-0.098024969 0.016772434 7.3565453e-21)
(-0.10264869 0.02132412 3.8524533e-22)
(-0.10729673 0.027288106 -1.5602298e-21)
(-0.11187653 0.034986637 1.1992831e-20)
(-0.1161429 0.044753899 5.1461375e-21)
(-0.1198537 0.056866984 5.3203601e-21)
(-0.12244276 0.071306621 1.724107e-21)
(-0.12371445 0.087412205 1.343218e-20)
(-0.12262747 0.10324918 -5.3103807e-21)
(-0.11928322 0.11459365 1.6769937e-21)
(-0.11150348 0.11643472 1.3580247e-20)
(-0.10072476 0.09711615 5.6041973e-21)
(-0.078142899 0.043950454 -6.8256274e-21)
(-0.038979591 -0.055155237 -2.271755e-20)
(0.051969587 -0.1782672 5.3080594e-21)
(0.14330636 -0.26639197 6.4646668e-21)
(0.22076025 -0.287854 1.4495968e-21)
(-7.8677768e-06 7.9875973e-05 1.2848506e-21)
(-2.6055193e-05 0.00024854916 -2.0442017e-21)
(-4.8206593e-05 0.00043511298 7.3897868e-22)
(-7.5240435e-05 0.00063977847 -8.031012e-23)
(-0.0001080074 0.0008626602 1.5872694e-21)
(-0.0001476619 0.0011037293 -1.6415327e-21)
(-0.00019563801 0.0013628048 2.4889338e-21)
(-0.00025369496 0.0016395424 -1.1701066e-21)
(-0.00032399556 0.0019334239 -4.4457132e-21)
(-0.00040919381 0.0022437508 1.0677741e-21)
(-0.00051253772 0.0025696432 4.0622296e-21)
(-0.00063798829 0.0029100462 -1.2380477e-21)
(-0.00079035724 0.0032637445 -8.247088e-23)
(-0.00097546317 0.0036293879 3.2261627e-21)
(-0.0012003055 0.0040055286 -1.0061059e-20)
(-0.0014732536 0.0043906705 6.1528719e-21)
(-0.0018042464 0.0047833315 5.8503483e-23)
(-0.0022049924 0.0051821136 -3.3684278e-21)
(-0.0026891584 0.0055857757 8.4963656e-21)
(-0.0032725238 0.0059932974 -3.9778519e-21)
(-0.0039730742 0.0064039132 -5.8807748e-21)
(-0.004810993 0.0068170878 -2.3579668e-21)
(-0.0058085002 0.0072323928 1.1533554e-20)
(-0.0069894718 0.0076492274 5.9582584e-21)
(-0.0083787603 0.0080663228 -3.8016348e-21)
(-0.010001126 0.0084809655 2.1912397e-21)
(-0.011879687 0.0088879123 -8.0964902e-21)
(-0.014033834 0.0092780701 2.2938994e-21)
(-0.016476641 0.0096372487 -6.0900116e-21)
(-0.019212022 0.0099457381 3.3783403e-21)
(-0.022232271 0.010180021 -2.0465019e-21)
(-0.025517053 0.01031797 7.3163861e-21)
(-0.029035072 0.010347019 -1.0143249e-21)
(-0.032748825 0.010270999 5.1592235e-21)
(-0.036620781 0.010109962 -4.7274867e-21)
(-0.040617762 0.0098929156 -1.4536979e-21)
(-0.044711699 0.0096497212 1.7280877e-20)
(-0.048877956 0.0094073531 4.3490936e-21)
(-0.053093477 0.0091904891 -3.4909425e-21)
(-0.057335914 0.0090244116 3.3566512e-21)
(-0.061583773 0.0089384923 -8.4475596e-22)
(-0.065817292 0.0089698636 -5.3309788e-21)
(-0.070020021 0.0091672002 2.5234369e-22)
(-0.074180062 0.0095947501 1.8044549e-21)
(-0.078291592 0.010337832 -8.8182315e-22)
(-0.08235712 0.011505505 4.3076035e-22)
(-0.086380571 0.013226673 1.3098153e-21)
(-0.090362145 0.015658069 -2.087609e-20)
(-0.094288715 0.018992406 2.3517647e-21)
(-0.09812311 0.023455754 -2.2197982e-21)
(-0.10176317 0.029309548 2.1063474e-20)
(-0.10505615 0.036848646 -1.165907e-20)
(-0.10768144 0.046380657 -9.5574832e-21)
(-0.10932683 0.058164014 -9.1100272e-21)
(-0.10936051 0.072195313 -8.7366059e-21)
(-0.10760508 0.087825586 -1.3725941e-20)
(-0.10295409 0.10313943 2.747498e-20)
(-0.095306184 0.1139301 -1.7151623e-20)
(-0.082559344 0.11522619 -2.6474662e-20)
(-0.065304368 0.094715635 2.106927e-20)
(-0.033041907 0.03833683 6.5357118e-21)
(0.02235839 -0.069658968 4.5890395e-21)
(0.135569 -0.19933187 -2.3747121e-20)
(0.23836323 -0.283714 -1.1457356e-20)
(0.31098094 -0.29457625 -2.3320943e-22)
(-1.4157165e-05 0.00011098151 -9.0377752e-22)
(-4.5461367e-05 0.00034487765 3.0004165e-21)
(-8.1989221e-05 0.00060349404 -2.4456928e-21)
(-0.00012468618 0.00088770307 9.2406338e-22)
(-0.00017444866 0.001198327 3.3377581e-22)
(-0.00023245611 0.0015360847 -2.8712004e-21)
(-0.00030015186 0.0019015794 7.268385e-22)
(-0.00037928524 0.0022952812 1.5428132e-21)
(-0.00047198481 0.0027175059 1.1829819e-22)
(-0.00058084004 0.0031683942 1.0044383e-21)
(-0.00070899761 0.0036478921 -1.4052618e-21)
(-0.00086027288 0.0041557316 9.7563939e-22)
(-0.0010392794 0.0046914135 3.5902354e-21)
(-0.0012515761 0.0052541921 1.0458432e-22)
(-0.0015038311 0.0058430617 -2.7329127e-21)
(-0.0018040015 0.0064567444 -1.9305214e-21)
(-0.0021615223 0.007093677 1.6557583e-21)
(-0.0025874976 0.0077519927 -1.580496e-22)
(-0.003094881 0.0084294908 -3.1981482e-21)
(-0.0036986247 0.009123581 -3.8732948e-21)
(-0.0044157706 0.009831185 4.3878279e-21)
(-0.0052654448 0.010548566 4.3793913e-21)
(-0.0062687055 0.011271051 -5.8376097e-21)
(-0.0074481788 0.011992593 7.1484053e-21)
(-0.0088274061 0.012705128 1.2247195e-20)
(-0.010429812 0.01339768 -2.8504775e-20)
(-0.01227721 0.014055233 1.548382e-20)
(-0.01438779 0.014657531 -2.2609448e-20)
(-0.016773634 0.015178285 2.7788961e-20)
(-0.01943803 0.015585812 -3.0439314e-20)
(-0.022373203 0.015846749 3.0766154e-20)
(-0.025559481 0.015934195 -5.0286646e-21)
(-0.028966952 0.015838794 -1.6817809e-20)
(-0.032559848 0.015576267 9.1070292e-21)
(-0.036302089 0.015184193 -2.7175534e-21)
(-0.040161162 0.01470946 -7.5909319e-22)
(-0.04410873 0.014196177 -8.9784559e-21)
(-0.048119048 0.013680905 -2.8292466e-21)
(-0.052167203 0.013194283 -2.7425375e-21)
(-0.056228211 0.012765373 -2.6636736e-21)
(-0.060277022 0.012426329 1.3350392e-20)
(-0.064289112 0.012216766 -5.821244e-21)
(-0.068241619 0.012187834 -9.2642788e-22)
(-0.07211392 0.012406249 1.076739e-20)
(-0.075888799 0.012959634 5.5243736e-21)
(-0.079552387 0.013958244 -2.7737066e-21)
(-0.083086865 0.015528989 -1.0132348e-20)
(-0.086464982 0.017823345 4.51187e-21)
(-0.089636845 0.02102474 -1.320165e-20)
(-0.092517754 0.025343347 -7.237055e-21)
(-0.094943496 0.031018459 -1.0102646e-20)
(-0.096684978 0.038316466 -2.7072246e-20)
(-0.097320387 0.047520395 2.0986131e-20)
(-0.096429979 0.058878862 -6.7773192e-21)
(-0.093265161 0.072427577 1.1693831e-20)
(-0.087593678 0.087536074 1.1155035e-20)
(-0.078026104 0.10229807 4.3887917e-21)
(-0.064020492 0.11261357 4.0844295e-20)
(-0.04324646 0.11353948 1.1205917e-20)
(-0.015216168 0.091826312 -2.7216571e-20)
(0.033461699 0.031671989 -1.1296484e-20)
(0.11678566 -0.085139809 7.0945238e-21)
(0.2597091 -0.21904116 1.1745597e-20)
(0.37459712 -0.29422618 1.322635e-20)
(0.43492856 -0.29155959 1.0726114e-22)
(-2.2039295e-05 0.00013994855 -2.7516549e-21)
(-6.9782507e-05 0.00043459728 -9.7120091e-22)
(-0.00012433591 0.00076035415 7.8612991e-22)
(-0.0001866956 0.0011187308 2.902564e-21)
(-0.00025783307 0.0015112348 -1.5900186e-21)
(-0.00033898003 0.0019393131 2.2878894e-21)
(-0.00043161545 0.0024043375 -9.8962211e-22)
(-0.00053750344 0.0029075808 -2.3564135e-22)
(-0.00065876 0.0034501872 1.3329778e-21)
(-0.00079792728 0.0040331394 2.8712666e-21)
(-0.00095806135 0.0046572218 1.4429781e-22)
(-0.001142834 0.0053229789 -4.712978e-21)
(-0.0013566513 0.0060306687 6.5141196e-21)
(-0.0016047879 0.0067802103 -1.0505636e-20)
(-0.0018935382 0.0075711235 2.741403e-21)
(-0.0022303808 0.0084024588 -5.8153749e-21)
(-0.002624153 0.0092727139 7.01518e-21)
(-0.0030852275 0.010179731 -4.5450517e-21)
(-0.0036256789 0.01112057 7.1514625e-22)
(-0.0042594219 0.012091332 2.8923221e-21)
(-0.0050022951 0.013086938 -7.0019796e-21)
(-0.0058720543 0.01410081 9.8314592e-21)
(-0.0068882265 0.015124438 -1.0631801e-20)
(-0.0080717633 0.016146781 -1.8167968e-21)
(-0.0094444179 0.017153467 1.7689357e-20)
(-0.011027761 0.018125762 -1.7743533e-20)
(-0.012841755 0.019039364 1.1435907e-20)
(-0.014902841 0.019863266 -1.271348e-20)
(-0.017221606 0.020559301 -1.2021183e-21)
(-0.019800302 0.02108366 -7.431099e-22)
(-0.022630851 0.021392341 4.8225088e-21)
(-0.025694288 0.021452025 -3.2237057e-22)
(-0.02896247 0.021254228 1.7283476e-20)
(-0.032402051 0.020824272 -4.5036962e-21)
(-0.035979204 0.020215931 -1.2972864e-20)
(-0.039662742 0.019493903 5.7978838e-21)
(-0.043424442 0.018717242 -4.5689437e-21)
(-0.047237521 0.017932903 4.4219556e-21)
(-0.051075022 0.017178016 2.3946316e-20)
(-0.05490894 0.016485618 -1.2944332e-20)
(-0.058710104 0.015890535 -3.1372784e-21)
(-0.062448462 0.015434504 1.7633212e-20)
(-0.066093739 0.015170572 -1.0109391e-21)
(-0.069615293 0.015167179 -2.165963e-21)
(-0.072982661 0.015513214 -2.3720818e-20)
(-0.076163693 0.016318695 -5.5648685e-21)
(-0.079115198 0.017707809 8.8457061e-21)
(-0.081778255 0.019825367 9.1486267e-21)
(-0.08406029 0.022843617 1.3124011e-20)
(-0.085820604 0.026954757 1.6280346e-20)
(-0.086820972 0.03237381 9.9465075e-21)
(-0.086738868 0.039335803 1.5686643e-20)
(-0.085024033 0.04809874 -5.3297515e-21)
(-0.081114838 0.058908986 3.2831734e-20)
(-0.074124039 0.071866846 2.1435427e-21)
(-0.063731243 0.086336458 1.8575521e-21)
(-0.047791178 0.10041608 1.0492796e-21)
(-0.0249681 0.11014545 -4.492576e-20)
(0.0073660928 0.11062085 -1.8623139e-20)
(0.051381724 0.087429252 3.10754e-20)
(0.12540992 0.022299507 4.7409916e-20)
(0.24928755 -0.10270476 2.0932968e-20)
(0.42514414 -0.23631167 4.9240456e-21)
(0.54739258 -0.29625603 -1.7937832e-20)
(0.59080098 -0.27253789 8.9128815e-22)
(-3.1295098e-05 0.00016621976 5.194946e-22)
(-9.8342629e-05 0.00051598507 1.6509822e-21)
(-0.00017407179 0.00090268637 -3.9845557e-21)
(-0.00025955129 0.0013284429 1.4806306e-22)
(-0.00035585549 0.0017954146 1.9396563e-21)
(-0.00046429486 0.0023057469 8.5484131e-22)
(-0.00058641021 0.0028615531 6.3112548e-22)
(-0.00072400572 0.0034648869 -1.2434408e-21)
(-0.00087920817 0.0041177059 6.4357703e-21)
(-0.0010545324 0.0048218285 -4.8548524e-21)
(-0.0012529591 0.005578883 2.3484777e-22)
(-0.0014780249 0.0063902467 2.9362202e-21)
(-0.0017339272 0.0072569742 -1.097832e-20)
(-0.0020256434 0.0081797117 1.0934457e-20)
(-0.0023590649 0.0091585951 -1.4550555e-21)
(-0.0027411435 0.010193127 -8.9953776e-21)
(-0.0031800459 0.011282032 8.4472867e-21)
(-0.0036853111 0.012423071 -2.9471359e-21)
(-0.0042679975 0.013612826 5.7137629e-21)
(-0.0049408044 0.014846414 -7.3125034e-21)
(-0.0057181434 0.016117142 -1.3684588e-20)
(-0.0066161246 0.017416042 1.3487891e-20)
(-0.0076524137 0.018731293 1.9658948e-20)
(-0.0088459007 0.020047448 -3.7679608e-20)
(-0.010216108 0.02134447 2.9986977e-20)
(-0.011782258 0.02259655 -1.7253914e-20)
(-0.013561929 0.023770782 4.4026449e-21)
(-0.015569265 0.024826018 -1.0299129e-20)
(-0.01781281 0.025712625 1.0403093e-20)
(-0.020293289 0.02637464 1.3827825e-20)
(-0.023001958 0.02675663 -9.0214989e-21)
(-0.0259204 0.026817004 -1.463064e-20)
(-0.029022415 0.026545304 1.2430996e-21)
(-0.032277603 0.025973452 5.0084906e-22)
(-0.035655144 0.025169453 8.5017134e-21)
(-0.039125909 0.024215432 -3.5298618e-21)
(-0.042662274 0.023186092 -1.2445324e-20)
(-0.046236592 0.022139753 -6.0624704e-21)
(-0.049819751 0.021120742 8.9568663e-21)
(-0.053380386 0.02016638 -6.8950453e-21)
(-0.056884662 0.019314104 5.8043583e-21)
(-0.060296262 0.018607406 -1.9061649e-21)
(-0.063576496 0.018100606 -7.3428584e-21)
(-0.066683396 0.01786303 1.7693692e-20)
(-0.069571508 0.017983798 1.0639251e-20)
(-0.072188006 0.018571278 7.001321e-21)
(-0.074461339 0.019745462 -2.2333555e-20)
(-0.076296037 0.021643392 -1.4643924e-20)
(-0.077550575 0.02442381 -1.733105e-20)
(-0.078019026 0.028258408 -3.0430495e-20)
(-0.077376441 0.033335137 1.0463359e-20)
(-0.075188807 0.039852971 -2.2576228e-21)
(-0.070748932 0.048043419 -1.7560262e-20)
(-0.063328034 0.058161152 -5.1273443e-20)
(-0.051950127 0.070388482 -3.3630719e-20)
(-0.035921202 0.083956737 -1.3325625e-20)
(-0.011248577 0.097064517 -3.9552209e-20)
(0.023194556 0.10602342 2.748028e-20)
(0.070100277 0.10565742 -3.2471761e-21)
(0.13558404 0.079985877 -5.1165249e-20)
(0.24467218 0.0084071881 -3.6472597e-20)
(0.41508483 -0.12281872 -1.4430337e-21)
(0.61216613 -0.25154043 4.3356637e-20)
(0.72438425 -0.29070716 -3.0506606e-21)
(0.75109693 -0.24037669 5.6701956e-23)
(-4.1644659e-05 0.00018928614 2.0509102e-21)
(-0.00013027992 0.00058746647 -1.3834591e-21)
(-0.00022969822 0.0010277413 1.8686871e-21)
(-0.00034106156 0.0015127963 1.0620345e-21)
(-0.00046557235 0.0020454005 -2.9632595e-21)
(-0.00060464479 0.0026283571 -2.7659651e-21)
(-0.00075990688 0.0032644833 2.8377096e-21)
(-0.00093322821 0.0039565812 -3.4147676e-22)
(-0.0011267709 0.0047073957 -7.9093641e-23)
(-0.0013430453 0.0055195646 -5.6168246e-21)
(-0.0015849764 0.0063955562 6.153942e-22)
(-0.0018559808 0.0073375937 1.1317501e-20)
(-0.0021600557 0.0083475619 -9.044569e-21)
(-0.002501881 0.0094268945 3.1121995e-22)
(-0.0028869329 0.010576436 6.0538405e-21)
(-0.0033216079 0.011796274 5.2043978e-22)
(-0.0038133551 0.013085537 -1.3224156e-21)
(-0.0043708077 0.014442141 -5.9510131e-21)
(-0.0050039067 0.015862487 1.0882428e-20)
(-0.0057239996 0.017341079 -1.9092902e-20)
(-0.0065438927 0.018870058 4.1052895e-21)
(-0.0074778254 0.020438606 -3.0083506e-21)
(-0.0085413248 0.022032212 2.4599845e-21)
(-0.0097508842 0.023631738 -1.0585163e-22)
(-0.011123402 0.02521228 1.4457281e-20)
(-0.012675301 0.026741806 1.4331657e-20)
(-0.014421272 0.02817969 -2.8186515e-20)
(-0.016372609 0.029475469 -4.663195e-21)
(-0.018535247 0.030568667 1.6068708e-20)
(-0.020907813 0.031391344 5.6434887e-21)
(-0.023480372 0.031875958 1.2627445e-20)
(-0.02623468 0.031970694 -1.3948795e-20)
(-0.029146364 0.031659879 -5.9655079e-21)
(-0.032188262 0.03097832 1.3424629e-20)
(-0.035333206 0.030005523 -5.4471233e-21)
(-0.038554896 0.028840174 -2.5403145e-21)
(-0.041826916 0.027573248 6.9986029e-21)
(-0.045121058 0.026275545 1.7802155e-20)
(-0.048406036 0.02499949 5.2848361e-21)
(-0.051646846 0.023787139 -3.4150834e-21)
(-0.054804482 0.022678548 -8.0419547e-21)
(-0.057835636 0.021718612 -8.284718e-21)
(-0.060692193 0.020962271 -9.1694981e-21)
(-0.06331958 0.020478831 -1.9323147e-20)
(-0.065655598 0.020356479 5.7061854e-22)
(-0.06762397 0.020700459 -8.2965155e-21)
(-0.069121883 0.021624947 4.5806543e-20)
(-0.070012035 0.023257684 1.2831255e-20)
(-0.070096813 0.025741378 1.4789876e-20)
(-0.069094466 0.029224369 4.120939e-20)
(-0.066578972 0.033864267 -4.8251418e-20)
(-0.061983893 0.039817806 1.0742662e-20)
(-0.054413658 0.047288652 3.4459104e-20)
(-0.042972491 0.056592738 4.2191822e-20)
(-0.026604378 0.067851426 5.3710779e-21)
(-0.0027890655 0.080086638 -1.3532334e-20)
(0.033693118 0.09190391 -2.2062727e-20)
(0.081458367 0.099804485 9.5420039e-21)
(0.1451383 0.098013441 -1.8498505e-20)
(0.23759924 0.067999917 1.6554881e-20)
(0.3889557 -0.010681299 5.962917e-21)
(0.60048255 -0.14305894 1.6245522e-20)
(0.79277982 -0.25954053 -5.4268951e-20)
(0.86803395 -0.2824714 1.0667915e-22)
(0.86394556 -0.21067855 -1.525589e-21)
(-5.2755503e-05 0.00020871025 -1.9266046e-21)
(-0.00016457048 0.00064768715 -5.161088e-22)
(-0.00028943425 0.001133152 5.6698127e-22)
(-0.00042862075 0.0016683067 2.7863244e-21)
(-0.00058348214 0.0022564756 -3.3408234e-21)
(-0.00075555891 0.0029010685 2.8359805e-21)
(-0.00094658999 0.003605558 1.3548975e-21)
(-0.0011585351 0.0043734502 -7.25457e-23)
(-0.0013936168 0.0052082396 -1.142423e-21)
(-0.0016543662 0.0061133554 -6.4921671e-21)
(-0.0019436766 0.0070920911 1.0889697e-20)
(-0.0022648668 0.0081475181 -1.3067968e-20)
(-0.0026217527 0.0092823762 3.831553e-21)
(-0.0030187299 0.01049894 5.1909688e-21)
(-0.0034608651 0.011798851 -7.9442188e-21)
(-0.0039539957 0.013182914 1.5619931e-20)
(-0.0045048342 0.014650846 -1.8876563e-20)
(-0.005121072 0.016200964 -2.9684241e-22)
(-0.0058114733 0.017829811 -1.0747117e-20)
(-0.006585946 0.01953168 4.2492542e-20)
(-0.0074555688 0.021298043 -1.0247358e-20)
(-0.0084325467 0.023116832 -4.2233419e-20)
(-0.0095300553 0.024971556 1.9876319e-20)
(-0.010761925 0.026840211 2.3613972e-20)
(-0.0121421 0.028693951 -5.9082369e-21)
(-0.013683813 0.030495544 -3.0795125e-20)
(-0.015398406 0.032197714 4.6413315e-20)
(-0.017293799 0.033741736 -5.1176977e-20)
(-0.019372724 0.035057172 3.9997504e-20)
(-0.021631073 0.036064538 -7.5833911e-21)
(-0.024057046 0.036683729 1.2878507e-20)
(-0.026631937 0.036850851 1.8056537e-20)
(-0.029332758 0.036541531 -6.9088448e-21)
(-0.032135539 0.035789087 -1.7134103e-21)
(-0.035017223 0.034680912 -2.4238978e-20)
(-0.037955102 0.033330707 4.5028096e-21)
(-0.040924702 0.031846103 -1.1246348e-20)
(-0.043897706 0.030311598 9.2757708e-21)
(-0.046840764 0.028788825 -5.2509671e-21)
(-0.049715029 0.027325195 -3.4054947e-21)
(-0.052475849 0.025963495 -2.8975355e-21)
(-0.055072201 0.024749704 -2.8248262e-21)
(-0.057445502 0.023738712 1.7320024e-20)
(-0.059527279 0.022998848 1.3774862e-20)
(-0.061236649 0.02261605 -3.8594054e-21)
(-0.062470918 0.022690848 2.526789e-21)
(-0.063092512 0.023329929 -1.054784e-20)
(-0.062916512 0.024649703 2.1200505e-20)
(-0.061680332 0.026774027 2.4858903e-20)
(-0.059013066 0.029824972 7.2109052e-21)
(-0.054369194 0.033926495 1.9116535e-20)
(-0.047020809 0.039185445 -6.1333467e-22)
(-0.035831621 0.045802787 -9.2719853e-21)
(-0.019832942 0.054085065 -4.4040281e-20)
(0.0030835112 0.063991113 2.2120108e-20)
(0.037782171 0.07436297 -8.7499457e-21)
(0.087260585 0.084689283 2.6109495e-20)
(0.1488672 0.091516503 -4.4832582e-20)
(0.23290981 0.086934785 2.698306e-20)
(0.35872189 0.051022067 -1.0371639e-20)
(0.55536102 -0.033897348 3.6313518e-23)
(0.79238615 -0.15899964 -8.3143437e-21)
(0.94924897 -0.25959665 -2.1046191e-20)
(0.96696478 -0.26499036 2.2877853e-20)
(0.92199233 -0.18958202 -5.9519723e-21)
(-6.4254196e-05 0.00022414807 4.3061006e-21)
(-0.0002000647 0.00069558144 2.9627271e-21)
(-0.0003512796 0.0012170543 -4.6507334e-21)
(-0.00051930155 0.0017922246 1.2242868e-22)
(-0.00070564928 0.0024249103 4.2043146e-21)
(-0.00091200932 0.003119066 2.1982082e-21)
(-0.0011402527 0.0038787608 -4.6325157e-21)
(-0.0013924527 0.0047081486 7.606193e-22)
(-0.0016709177 0.0056114241 -1.0722629e-20)
(-0.0019782258 0.0065927671 2.0895585e-21)
(-0.0023172674 0.0076562684 5.3558762e-23)
(-0.002691292 0.0088058363 -7.68358e-21)
(-0.0031039632 0.010045078 2.4617982e-20)
(-0.00355942 0.011377148 -1.1468888e-20)
(-0.0040623447 0.012804564 -2.0544779e-20)
(-0.0046180357 0.014328971 2.1888464e-20)
(-0.0052324822 0.015950853 -2.6945102e-21)
(-0.0059124357 0.017669177 1.5297548e-20)
(-0.0066654711 0.019480948 1.135891e-20)
(-0.0075000236 0.021380668 -3.5711458e-20)
(-0.008425385 0.023359665 2.6796529e-20)
(-0.0094516324 0.025405261 -3.5247687e-20)
(-0.010589455 0.027499757 4.1363235e-21)
(-0.011849833 0.02961918 -1.688746e-20)
(-0.013243512 0.031731785 3.6646302e-20)
(-0.014780215 0.033796302 -8.6656684e-21)
(-0.016467538 0.035760058 -2.1822837e-20)
(-0.018309544 0.03755734 5.2543466e-20)
(-0.020305177 0.039108903 -2.270664e-20)
(-0.022446894 0.04032448 -2.4296871e-20)
(-0.024720223 0.041111308 1.9877001e-20)
(-0.027105097 0.04139183 2.6259049e-21)
(-0.029579093 0.041129494 -1.2935016e-20)
(-0.032120979 0.040351236 6.9723088e-21)
(-0.034711953 0.039147764 -1.0427051e-20)
(-0.037333575 0.037645348 3.545319e-20)
(-0.039964152 0.035968215 -1.8048427e-20)
(-0.042575888 0.034215776 -1.0572827e-20)
(-0.045133629 0.032460185 -2.1190533e-20)
(-0.047594573 0.030755031 -2.8492232e-21)
(-0.049907983 0.029146077 2.1864818e-20)
(-0.05201437 0.027680116 -8.7286377e-21)
(-0.053843575 0.026411338 -1.2881967e-20)
(-0.05531176 0.025406101 -1.968915e-21)
(-0.056317018 0.0247466 1.2845918e-20)
(-0.056727088 0.024526961 1.140299e-20)
(-0.056364916 0.024844638 -3.510332e-20)
(-0.054990852 0.025802145 -1.8791655e-20)
(-0.052265254 0.027501293 -4.1147446e-20)
(-0.047709021 0.030035107 -1.4549429e-20)
(-0.04062939 0.03349007 -5.6522861e-21)
(-0.030080036 0.037918301 -4.1475246e-20)
(-0.014670891 0.04354927 -1.6052078e-20)
(0.0068953717 0.050500676 5.3989069e-20)
(0.039173998 0.058464856 -4.2852413e-20)
(0.086336555 0.066724557 3.9130343e-20)
(0.14781999 0.075503919 -1.8389813e-20)
(0.22608181 0.080748376 9.1315587e-20)
(0.33650325 0.072190547 4.83068e-20)
(0.50376629 0.029709029 -2.0774928e-20)
(0.74177429 -0.056795633 -3.2803725e-20)
(0.97240353 -0.16733058 -5.0115559e-20)
(1.0660147 -0.24251512 -4.4382813e-21)
(1.025024 -0.24024183 -3.3618928e-21)
(0.9529379 -0.17021927 8.3873481e-21)
(-7.5738362e-05 0.00023537461 7.8141648e-23)
(-0.00023554263 0.00073044174 -5.5625224e-21)
(-0.00041310166 0.0012782085 6.5567615e-21)
(-0.00060998342 0.0018827141 3.1548476e-21)
(-0.00082787684 0.0025482021 -6.31762e-21)
(-0.0010686307 0.0032791013 -2.0457916e-21)
(-0.0013342669 0.004080007 9.9189891e-21)
(-0.0016269931 0.0049556541 -1.067022e-20)
(-0.0019492278 0.0059108753 -2.2499467e-21)
(-0.0023036245 0.0069505463 -8.945342e-21)
(-0.0026931013 0.0080795122 2.3737933e-20)
(-0.0031208739 0.0093024915 2.8887068e-22)
(-0.0035904918 0.010623953 -2.127924e-20)
(-0.0041058793 0.012047955 2.2815131e-20)
(-0.0046713784 0.013577951 -1.6309684e-20)
(-0.0052917943 0.015216529 -6.0380951e-21)
(-0.0059724377 0.016965104 1.2592122e-20)
(-0.0067191632 0.01882352 -1.1340361e-20)
(-0.0075383922 0.020789562 -1.5067212e-20)
(-0.0084371128 0.02285835 3.1828621e-22)
(-0.0094228384 0.025021593 2.364379e-20)
(-0.010503502 0.027266655 -1.4585799e-20)
(-0.011687258 0.029575425 8.1066049e-21)
(-0.012982141 0.031922917 3.9092761e-20)
(-0.014395544 0.034275598 1.3044336e-20)
(-0.015933457 0.036589428 -3.5319977e-20)
(-0.017599416 0.038807745 3.5227449e-21)
(-0.019393203 0.040859331 -3.9685726e-20)
(-0.021309419 0.042657572 2.341097e-20)
(-0.023336363 0.044102549 -1.2337442e-20)
(-0.025455959 0.045089215 1.7782251e-20)
(-0.027645651 0.045525271 4.3100697e-21)
(-0.02988236 0.045358789 -2.1377908e-20)
(-0.032146633 0.044605163 2.1644261e-20)
(-0.034423637 0.043352914 3.1151289e-20)
(-0.036699666 0.041737298 -2.8910025e-21)
(-0.038956695 0.039898379 -3.1904825e-20)
(-0.041168263 0.037951539 3.9839649e-20)
(-0.043297857 0.035980931 -8.3861918e-21)
(-0.045298713 0.034047371 1.7735122e-20)
(-0.047113587 0.032199994 -2.7470957e-21)
(-0.048673691 0.030486233 2.7370208e-20)
(-0.049896025 0.028958946 1.3140974e-20)
(-0.050679544 0.027681487 1.6545966e-20)
(-0.050898329 0.026730748 -6.7493642e-20)
(-0.05038665 0.026192657 -2.2376615e-20)