/*--------------------------------*- C++ -*----------------------------------*\
  =========                 |
  \\      /  F ield         | OpenFOAM: The Open Source CFD Toolbox
   \\    /   O peration     | Website:  https://openfoam.org
    \\  /    A nd           | Version:  13
     \\/     M anipulation  |
\*---------------------------------------------------------------------------*/
FoamFile
{
    format      ascii;
    class       volVectorField;
    location    "49.298614";
    object      wallShearStress;
}
// * * * * * * * * * * * * * * * * * * * * * * * * * * * * * * * * * * * * * //

dimensions      [0 2 -2 0 0 0 0];

internalField   uniform (0 0 0);

boundaryField
{
    inlet
    {
        type            calculated;
        value           uniform (0 0 0);
    }
    outlet
    {
        type            calculated;
        value           uniform (0 0 0);
    }
    cylinder
    {
        type            calculated;
        value           nonuniform List<vector> 
132
(
(5.384785e-05 -0.003684477 -3.1923322e-22)
(0.00016595573 -0.0039653306 9.1042942e-23)
(0.00029453277 -0.0042223886 5.0311132e-21)
(0.00043730775 -0.0044496262 -1.6889369e-20)
(0.00059173436 -0.0046415218 1.1921957e-20)
(0.00075454427 -0.0047927906 3.6415744e-20)
(0.00092198598 -0.0048989642 -6.8952262e-21)
(0.0010898157 -0.0049563577 -2.7291455e-20)
(0.00125344 -0.0049626142 2.5693516e-20)
(0.0014080819 -0.0049166204 -5.7529959e-20)
(0.0015491168 -0.0048191088 -1.0453538e-21)
(0.0016722063 -0.0046722762 3.5630048e-20)
(0.0017737479 -0.0044803654 5.8011347e-20)
(0.0018510575 -0.0042492493 -4.7041546e-20)
(0.0019027333 -0.0039865073 4.9450598e-20)
(0.0019290374 -0.003701402 7.9462951e-20)
(0.0019318807 -0.0034040422 -5.1990179e-20)
(0.0019153473 -0.0031056705 8.3278811e-20)
(0.0018854749 -0.0028175883 1.0996832e-19)
(0.0018508243 -0.0025514889 -7.1252017e-20)
(0.001822145 -0.0023183668 -9.0729106e-20)
(0.0018131834 -0.002129077 3.1921107e-23)
(0.0018397218 -0.0019925911 1.31453e-20)
(0.0019200549 -0.0019162565 -1.5735027e-20)
(0.0020714223 -0.0019021255 -2.6770557e-20)
(0.0023069144 -0.0019452164 5.7275519e-21)
(0.0026309002 -0.0020317969 -5.1746744e-20)
(0.0030316163 -0.0021371021 1.3837565e-20)
(0.0034784607 -0.0022285143 1.0877457e-20)
(0.0039259427 -0.0022729455 -7.500052e-20)
(0.0043309458 -0.0022494379 9.797795e-20)
(0.004656978 -0.0021496952 2.9688047e-21)
(0.0048598155 -0.0019699086 2.1428254e-20)
(0.0048536747 -0.0017006802 -2.5429546e-20)
(0.0045125861 -0.0013383972 8.0929226e-20)
(0.0036639544 -0.00089427329 -5.1262465e-21)
(0.0021148095 -0.000411847 2.0701649e-20)
(-0.00036755861 2.9052083e-05 -2.8434477e-21)
(-0.0039831624 0.00029760399 4.0747468e-21)
(-0.0088322262 0.0002007816 -2.5346779e-21)
(-0.015306195 -0.00050552677 4.7096434e-21)
(-0.023228595 -0.0021547463 -1.4417712e-22)
(-0.031836847 -0.0048938223 5.2409291e-20)
(-0.040668122 -0.00878051 -2.0014797e-20)
(-0.049118299 -0.013744462 1.7908961e-20)
(-0.056711713 -0.019622406 -1.1422859e-19)
(-0.063030471 -0.026158159 -1.8329252e-20)
(-0.067833998 -0.033072804 1.6052736e-19)
(-0.070948809 -0.040052548 -1.3701813e-19)
(-0.072356881 -0.046811468 -2.6294166e-21)
(-0.072073041 -0.05305274 4.2419777e-20)
(-0.070253049 -0.058559434 -3.9497157e-20)
(-0.067000351 -0.063070126 -8.0781228e-21)
(-0.06255303 -0.066440295 -5.6341935e-21)
(-0.057161715 -0.068565667 -1.1719664e-20)
(-0.051009963 -0.069287602 1.6340784e-21)
(-0.044385819 -0.068598217 3.9077022e-22)
(-0.037526489 -0.066466219 4.0418617e-20)
(-0.030681911 -0.062923781 -6.7023616e-20)
(-0.024086377 -0.058033214 -7.4489416e-20)
(-0.017958552 -0.051892426 -3.0971465e-20)
(-0.012496143 -0.044631034 -7.2123971e-20)
(-0.0078719154 -0.036408204 1.6267994e-20)
(-0.004226598 -0.027404311 2.3859754e-20)
(-0.0016762265 -0.017844962 -3.730437e-20)
(-0.00027983052 -0.0078822439 -5.0063105e-21)
(-4.2008907e-05 -0.0033828371 -1.465565e-21)
(-0.00012146685 -0.0030602016 -8.7081556e-23)
(-0.00018346876 -0.002718531 -4.9840797e-21)
(-0.00022645735 -0.0023626624 1.6655434e-20)
(-0.0002494351 -0.0019985204 -1.1713594e-20)
(-0.00025186496 -0.0016312758 -3.5657682e-20)
(-0.00023406768 -0.0012679676 6.7311195e-21)
(-0.00019682799 -0.00091422392 2.6572158e-20)
(-0.00014165403 -0.00057602932 -2.4962985e-20)
(-7.0510432e-05 -0.00025878067 5.5804795e-20)
(1.3919001e-05 3.2941286e-05 1.0129355e-21)
(0.00010876653 0.00029554317 -3.4510166e-20)
(0.00021129469 0.00052644581 -5.6194106e-20)
(0.00031834968 0.00072451503 4.5597915e-20)
(0.00042738122 0.00088995345 -4.79883e-20)
(0.00053644637 0.0010244745 -7.7234946e-20)
(0.00064442999 0.0011311351 5.0629825e-20)
(0.00075154319 0.0012145863 -8.127628e-20)
(0.00085932652 0.001280405 -1.0757426e-19)
(0.00097142488 0.0013356544 6.9866693e-20)
(0.0010930224 0.0013873831 8.9173285e-20)
(0.0012316957 0.001443254 7.9970612e-20)
(0.0013961791 0.0015095607 6.578625e-20)
(0.0015953952 0.0015901571 1.5557473e-20)
(0.001837077 0.0016855321 2.6506031e-20)
(0.0021239804 0.0017902878 -5.6769163e-21)
(0.0024528176 0.0018942114 5.1321567e-20)
(0.0028134081 0.0019836173 -1.3726304e-20)
(0.0031878454 0.002042785 -1.0787007e-20)
(0.0035539598 0.0020579418 7.4330963e-20)
(0.0038914144 0.0020213633 -9.7024345e-20)
(0.0041648923 0.0019227485 -2.9202397e-21)
(0.0043148447 0.0017493979 4.819274e-20)
(0.0042414764 0.0014869496 2.511623e-20)
(0.0038105203 0.0011316212 -7.9848792e-20)
(0.0028459559 0.00069743041 5.0513129e-21)
(0.0011591712 0.00023294654 1.4852029e-20)
(-0.001474328 -0.0001772538 2.7913096e-21)
(-0.0052531789 -0.0003996905 -3.9888394e-21)
(-0.010222514 -0.00023928034 2.472572e-21)
(-0.016779424 0.00055038496 -4.5737148e-21)
(-0.024697267 0.0022880529 3.6715181e-20)
(-0.033200312 0.0051006925 -5.0283332e-20)
(-0.041837444 0.0090303499 1.9063594e-20)
(-0.049980619 0.013983765 -1.6920233e-20)
(-0.057212162 0.019793713 1.0697583e-19)
(-0.063134634 0.026198503 1.6990983e-20)
(-0.067527837 0.032920688 -1.4708407e-19)
(-0.070244257 0.039651956 1.2376201e-19)
(-0.071289268 0.046117867 2.3328903e-21)
(-0.070663908 0.052012464 -3.6717982e-20)
(-0.068588162 0.057168588 3.3014241e-20)
(-0.065088608 0.061266689 -5.1186387e-20)
(-0.060456591 0.064209906 3.9296602e-21)
(-0.054986815 0.065952541 -7.3926604e-21)
(-0.048772462 0.066243162 3.8720774e-21)
(-0.042159584 0.065151445 -6.7580831e-22)
(-0.035363573 0.062627719 -5.2897151e-20)
(-0.028635578 0.058717472 7.9497219e-20)
(-0.022205911 0.053489808 8.3902682e-20)
(-0.016287671 0.047046828 3.3764108e-20)
(-0.011073925 0.039525711 7.6827288e-20)
(-0.0067304645 0.031087236 -1.7022518e-20)
(-0.0033917382 0.021919631 4.8789926e-20)
(-0.0011658319 0.012230043 3.7970564e-20)
(-0.00011388335 0.0022518812 5.0386157e-21)
)
;
    }
    frontAndBack
    {
        type            empty;
    }
}


// ************************************************************************* //
