/*--------------------------------*- C++ -*----------------------------------*\
  =========                 |
  \\      /  F ield         | OpenFOAM: The Open Source CFD Toolbox
   \\    /   O peration     | Website:  https://openfoam.org
    \\  /    A nd           | Version:  13
     \\/     M anipulation  |
\*---------------------------------------------------------------------------*/
FoamFile
{
    format      ascii;
    class       volScalarField;
    location    "4.10305";
    object      k;
}
// * * * * * * * * * * * * * * * * * * * * * * * * * * * * * * * * * * * * * //

dimensions      [0 2 -2 0 0 0 0];

internalField   nonuniform List<scalar> 
17140
(
4.4803546e-11
1.4078804e-09
1.1512585e-08
4.9510095e-08
1.5234933e-07
3.8440868e-07
8.5227223e-07
1.7267115e-06
3.2748873e-06
5.9069315e-06
1.0242433e-05
1.7203815e-05
2.8144736e-05
4.5021591e-05
7.0612914e-05
0.00010878159
0.000164752
0.00024533001
0.0003589173
0.00051505936
0.00072313738
0.00098974849
0.0013144919
0.0016845559
0.002069838
0.002421987
0.0026698944
0.0027778406
0.0028028759
0.0027480157
0.0026437918
0.0025276241
0.0024163168
0.0023134317
0.002218623
0.0021314622
0.0020517632
0.0019795477
0.0019151097
0.0018590987
0.0018124781
0.0017761754
0.0017519451
0.0017356747
0.0017251525
0.0017567112
0.0018220111
0.0019162208
0.0020321171
0.002162817
0.0022994311
0.0024426146
0.002557762
0.0026519163
0.0027280844
0.0026100377
0.002288803
0.0018471491
0.0013856907
0.00097112766
0.00065336815
0.00044208607
0.00031797157
0.00025053243
0.0002108744
4.4216407e-11
1.3894307e-09
1.1361747e-08
4.886167e-08
1.5035514e-07
3.793804e-07
8.4113366e-07
1.7041695e-06
3.2321946e-06
5.8300683e-06
1.0109479e-05
1.6981217e-05
2.7782148e-05
4.4444937e-05
6.9715508e-05
0.00010741353
0.00016270903
0.0002423448
0.000354659
0.00050915152
0.0007152082
0.00097952804
0.0013019622
0.0016701338
0.0020545316
0.0024074269
0.0026584294
0.0027686276
0.002795238
0.0027409988
0.0026362319
0.0025186875
0.0024053377
0.0022997423
0.0022014227
0.0021097612
0.0020243749
0.0019450923
0.0018718399
0.0018048422
0.0017444283
0.001690705
0.0016422946
0.0015940604
0.0015595327
0.0015441137
0.0015372533
0.0015410177
0.0015470533
0.0015467652
0.0015320218
0.0015094663
0.0014731149
0.0014425104
0.0014230983
0.0014065567
0.0013541292
0.0012012071
0.0010118948
0.00079554643
0.00058793146
0.00042440213
0.00031394189
0.00024639761
0.00020452644
4.2824283e-11
1.3456854e-09
1.1004035e-08
4.7323374e-08
1.4562199e-07
3.6743958e-07
8.1466703e-07
1.650572e-06
3.130613e-06
5.6470401e-06
9.792614e-06
1.6450214e-05
2.6916306e-05
4.3066346e-05
6.7567376e-05
0.00010413412
0.00015780383
0.00023516382
0.00034439319
0.00049487211
0.00069598334
0.00095465378
0.0012713253
0.0016346662
0.0020166217
0.0023710601
0.0026297633
0.0027460231
0.0027764021
0.002724564
0.0026186014
0.0024971552
0.0023780353
0.0022650215
0.0021573167
0.0020536537
0.0019528519
0.0018545603
0.0017577618
0.0016618685
0.0015663816
0.0014709743
0.0013747852
0.0012758329
0.0011765636
0.0010951931
0.0010195835
0.00094890371
0.00087771522
0.00080345791
0.00072669016
0.0006660531
0.00062154886
0.0005971557
0.00058414438
0.00059057321
0.00063314688
0.00064658826
0.00061014729
0.00055485735
0.00047149915
0.00037171652
0.00028789969
0.00022997862
0.00019123519
4.0641626e-11
1.277099e-09
1.0443192e-08
4.491153e-08
1.3820096e-07
3.4871744e-07
7.7316839e-07
1.5665293e-06
2.9713185e-06
5.3599978e-06
9.2956081e-06
1.5617166e-05
2.5557591e-05
4.0902192e-05
6.4193439e-05
9.8979722e-05
0.00015008671
0.00022385164
0.00032819297
0.00047228438
0.00066547438
0.00091500499
0.00122219
0.0015772731
0.0019544101
0.0023098741
0.0025798302
0.0027088633
0.0027433862
0.0026946518
0.0025862157
0.0024567591
0.0023258026
0.0021979482
0.0020723405
0.0019477008
0.0018230831
0.0016971091
0.001569366
0.0014399772
0.0013098585
0.0011805277
0.0010530779
0.00092636472
0.00080670279
0.00071084771
0.00062297878
0.00055227498
0.00049163102
0.00044205748
0.00040185637
0.00036782809
0.0003420686
0.00032961114
0.00032645867
0.00033678281
0.00038231563
0.00044853762
0.00044675154
0.00043058438
0.00039930591
0.00033473043
0.00026323833
0.00021136383
0.00017700643
3.7714837e-11
1.1851295e-09
9.6911405e-09
4.1677393e-08
1.2824966e-07
3.2361114e-07
7.1751645e-07
1.4538157e-06
2.7576585e-06
4.9749306e-06
8.6287236e-06
1.449902e-05
2.3733047e-05
3.7994235e-05
5.9655964e-05
9.2039533e-05
0.00013967911
0.00020856214
0.00030623204
0.00044154263
0.00062372916
0.00086036048
0.0011538003
0.0014962817
0.0018648316
0.002218926
0.0025022218
0.0026522782
0.0026929678
0.0026474459
0.0025356261
0.0023966918
0.0022519512
0.0021072464
0.0019620819
0.0018152399
0.0016659508
0.0015139757
0.0013602745
0.0012067133
0.0010562326
0.00091235344
0.00077758701
0.00065239547
0.0005473018
0.00046925522
0.00040870508
0.00037266139
0.00035074775
0.00033135875
0.00031120347
0.00028440347
0.00026152548
0.00024722579
0.0002469422
0.00025590191
0.00029021712
0.00036350975
0.00037637165
0.0003705798
0.00035854718
0.00032061681
0.00025403222
0.00020200025
0.00016727154
3.4173534e-11
1.0738499e-09
8.7811854e-09
3.7764179e-08
1.1620869e-07
2.9323202e-07
6.5017376e-07
1.3174156e-06
2.4990734e-06
4.5088307e-06
7.8213338e-06
1.3144891e-05
2.1522518e-05
3.4469064e-05
5.4151054e-05
8.3610561e-05
0.00012702057
0.00018992991
0.0002794015
0.0004038592
0.00057233893
0.00079272836
0.001068595
0.0013945763
0.0017513087
0.002102482
0.0023979411
0.0025708667
0.0026245008
0.0025874973
0.0024748503
0.0023269214
0.0021679107
0.0020059011
0.00184141
0.0016738737
0.0015035377
0.0013317485
0.0011612267
0.00099579271
0.00084001306
0.00069858112
0.00057437568
0.00046823094
0.00039220788
0.00034794004
0.00032673795
0.00032037996
0.00032077702
0.00032245735
0.00030842505
0.00027116228
0.000240183
0.00021940165
0.00021738146
0.00022357125
0.00025064165
0.00031914134
0.0003426881
0.00034057683
0.00033295926
0.00030787874
0.00024888861
0.00019754583
0.00016125178
3.0192023e-11
9.4873743e-10
7.7581148e-09
3.3364493e-08
1.0267068e-07
2.5907514e-07
5.7445391e-07
1.1640385e-06
2.208275e-06
3.9845886e-06
6.9130292e-06
1.1621027e-05
1.903378e-05
3.04977e-05
4.7943897e-05
7.4094841e-05
0.00011270657
0.00016881475
0.00024890704
0.00036086646
0.00051341904
0.00071469985
0.00096951871
0.0012751643
0.0016164201
0.001961979
0.0022659625
0.002465468
0.0025387011
0.0025167868
0.0024080737
0.0022537478
0.0020818777
0.0019039871
0.0017224291
0.001537815
0.0013517822
0.0011673647
0.0009888919
0.00082162848
0.00067101245
0.00054170143
0.00043599727
0.00035906234
0.00031933298
0.00030297929
0.0002999891
0.00031758846
0.00034073482
0.00035301717
0.0003518034
0.00029683002
0.0002407024
0.00020948565
0.00020069519
0.00020562751
0.00023121478
0.00029710144
0.00032222719
0.00032209493
0.00031678924
0.0002933795
0.00023966305
0.00019161752
0.00015593704
2.5959075e-11
8.1572388e-10
6.670432e-09
2.8686915e-08
8.8277388e-08
2.227594e-07
4.9394453e-07
1.0009474e-06
1.8990226e-06
3.4269775e-06
5.9466501e-06
9.9990978e-06
1.6383403e-05
2.6265075e-05
4.1321146e-05
6.3926717e-05
9.737985e-05
0.00014614326
0.00021604421
0.00031430864
0.00044920529
0.00062895436
0.00085947925
0.0011407179
0.0014618411
0.0017970679
0.0021054343
0.0023319254
0.0024347757
0.0024361295
0.0023387682
0.0021831993
0.0020017305
0.0018106677
0.0016153123
0.0014178209
0.0012211736
0.0010298936
0.00084969242
0.00068668859
0.00054647049
0.00043300851
0.00034953616
0.0003045224
0.00028557023
0.00028111837
0.00029256124
0.00032469187
0.00035899261
0.0003745503
0.0003753066
0.00032933867
0.000255324
0.00020325107
0.0001887261
0.00019541687
0.0002221389
0.00028676556
0.00030985557
0.0003100072
0.00030344374
0.00027458008
0.00022538718
0.0001826819
0.00015010027
2.1671499e-11
6.8099353e-10
5.5687052e-09
2.3948905e-08
7.3697896e-08
1.8597267e-07
4.1238645e-07
8.3571698e-07
1.5856698e-06
2.8618527e-06
4.9669412e-06
8.3540456e-06
1.3693489e-05
2.1965363e-05
3.4584838e-05
5.3566096e-05
8.1725701e-05
0.00012291297
0.00018222688
0.00026612661
0.00038225734
0.00053869652
0.00074221969
0.00099521406
0.0012912822
0.0016106716
0.0019183622
0.0021687177
0.0023097065
0.0023424145
0.0022676738
0.002118339
0.0019323783
0.0017319525
0.0015261224
0.0013191505
0.0011156386
0.00092147899
0.00074324169
0.00058725437
0.00045855266
0.00035986514
0.00030158431
0.0002739191
0.0002646926
0.0002642037
0.00028152812
0.00031231083
0.00034827504
0.0003751811
0.00037927609
0.00033741671
0.00026538064
0.00019913738
0.00018084923
0.00018840722
0.00021949687
0.00028187314
0.00029995011
0.00029906311
0.00028800711
0.00025211461
0.00020887891
0.00017243309
0.00014415663
1.7528393e-11
5.508027e-10
4.5040913e-09
1.9370427e-08
5.9609068e-08
1.5042293e-07
3.3356661e-07
6.7601957e-07
1.2827664e-06
2.3154532e-06
4.0193844e-06
6.7622193e-06
1.1088819e-05
1.7797864e-05
2.8046808e-05
4.3491627e-05
6.6465106e-05
0.00010018887
0.00014899467
0.00021849135
0.0003155452
0.00044783832
0.00062264992
0.00084445027
0.0011111044
0.0014092639
0.0017110604
0.001975826
0.0021552938
0.0022250134
0.0021900457
0.0020623497
0.0018793981
0.001673157
0.0014598429
0.0012466909
0.0010391473
0.00084371707
0.00066767938
0.00051754343
0.00039786055
0.00031472627
0.00027109794
0.00025150013
0.00024495532
0.00024412012
0.00025383475
0.00026507327
0.00027882923
0.00033504419
0.00035439131
0.00033122519
0.00026849233
0.00019359591
0.0001758469
0.0001847779
0.00022416271
0.00027846537
0.00028998989
0.0002863917
0.00026657721
0.00022933413
0.00019297017
0.00016263284
0.00013869299
1.3704931e-11
4.3065623e-10
3.5216131e-09
1.5145164e-08
4.6606921e-08
1.1761406e-07
2.6081953e-07
5.2861234e-07
1.0031329e-06
1.8109157e-06
3.1441286e-06
5.2911251e-06
8.6799779e-06
1.3939771e-05
2.1985533e-05
3.4133293e-05
5.2250827e-05
7.894495e-05
0.00011777383
0.00017344592
0.0002519163
0.00036020704
0.00050566219
0.00069424136
0.00092749015
0.0011982722
0.0014865239
0.0017580613
0.001970126
0.0020841713
0.0020927534
0.0020006691
0.0018372479
0.0016357155
0.0014194621
0.0012011075
0.00098953095
0.00079295201
0.00061883911
0.00047343404
0.00036097036
0.00028805054
0.00025023685
0.00023221413
0.00022366361
0.00021843831
0.00021441581
0.00020826982
0.0002178908
0.00028791583
0.00033511734
0.00031896064
0.00026477773
0.00018630975
0.00017184809
0.00018422037
0.00023489075
0.00027456168
0.00027829491
0.00026966213
0.00024096337
0.0002085374
0.00017860376
0.00015385889
0.00013382232
1.0335616e-11
3.2478064e-10
2.6558328e-09
1.1421764e-08
3.5148942e-08
8.8700683e-08
1.9670635e-07
3.9868811e-07
7.5662933e-07
1.3660556e-06
2.3721422e-06
3.9929635e-06
6.5527845e-06
1.0529283e-05
1.6619702e-05
2.5831928e-05
3.9606765e-05
5.9975827e-05
8.97528e-05
0.00013273944
0.00019389361
0.00027934456
0.00039604283
0.00055070941
0.00074767179
0.00098533076
0.0012517259
0.0015212077
0.0017559629
0.0019157953
0.0019751035
0.0019298566
0.001796584
0.0016111428
0.0014008723
0.0011843165
0.00097162689
0.00077280969
0.0005968327
0.00045086395
0.0003396096
0.00026871545
0.00023265737
0.00021470275
0.00020403708
0.00019422388
0.00018191693
0.00017554238
0.00019541784
0.00027098585
0.00032951953
0.00031540817
0.00025043892
0.00017799455
0.00016987452
0.00018695037
0.00024364327
0.00026614414
0.00026406475
0.00024549153
0.00021702856
0.00019061138
0.00016628347
0.0001461991
0.00012945421
7.5038792e-12
2.3579765e-10
1.9281894e-09
8.292435e-09
2.5518955e-08
6.4399406e-08
1.4281742e-07
2.8947409e-07
5.4939176e-07
9.9198165e-07
1.7227935e-06
2.9005236e-06
4.7614779e-06
7.6545004e-06
1.2090385e-05
1.8810899e-05
2.8883465e-05
4.3827523e-05
6.577598e-05
9.7666712e-05
0.00014343913
0.00020817032
0.00029801324
0.00041969084
0.00057917622
0.0007791522
0.0010151379
0.0012711708
0.0015177397
0.0017160455
0.0018303207
0.0018408034
0.001761617
0.0016005958
0.0014025706
0.0011886749
0.00097680284
0.00077756504
0.00060049055
0.00045316473
0.00034047258
0.00026666327
0.00022350029
0.00019981983
0.00018620186
0.00017408046
0.00016184381
0.00016553938
0.00019302701
0.00029324293
0.0003508449
0.00032249142
0.0002212305
0.00016873282
0.00016937775
0.00020040703
0.00024671117
0.0002541183
0.00024526206
0.00021946123
0.000196443
0.00017501188
0.00015565908
0.00013950349
0.00012550918
5.2373259e-12
1.645747e-10
1.345776e-09
5.7876829e-09
1.7810913e-08
4.4947695e-08
9.9680779e-08
2.0204515e-07
3.8347366e-07
6.9243909e-07
1.2026831e-06
2.0251552e-06
3.3252472e-06
5.3475335e-06
8.4510589e-06
1.3159235e-05
2.0229539e-05
3.0749093e-05
4.6262036e-05
6.8931466e-05
0.0001017291
0.00014862312
0.00021468943
0.00030599191
0.00042896094
0.00058887794
0.00078707631
0.0010168862
0.0012595687
0.0014833925
0.0016496707
0.0017250069
0.0017040969
0.0015959795
0.0014214213
0.0012190456
0.0010090675
0.00080710179
0.00062494895
0.00047258396
0.00035439584
0.00027368997
0.00022589172
0.00019850059
0.00018118293
0.00016656789
0.00016132014
0.00017569619
0.00022936704
0.00037069463
0.0003891842
0.0003205117
0.00019434789
0.00016312689
0.00017256451
0.00021372689
0.00024046039
0.00023845132
0.00021944363
0.00019785129
0.00017951064
0.00016195603
0.00014655277
0.00013364565
0.00012194186
3.5122266e-12
1.1036613e-10
9.0249517e-10
3.8812901e-09
1.19442e-08
3.0142448e-08
6.6847274e-08
1.3549512e-07
2.5716792e-07
4.6438078e-07
8.0661146e-07
1.3583355e-06
2.2306543e-06
3.5880546e-06
5.6724606e-06
8.8375649e-06
1.3597466e-05
2.0694803e-05
3.1194522e-05
4.6609267e-05
6.9059109e-05
0.00010145828
0.00014769758
0.00021274331
0.00030248994
0.00042308301
0.00057930969
0.00077168192
0.0009923281
0.0012211391
0.0014254819
0.0015670705
0.0016158646
0.0015773936
0.0014628255
0.0012793472
0.0010758016
0.00087391665
0.00068711272
0.00052451679
0.00039345262
0.00029951814
0.00024137939
0.00020681675
0.00018732118
0.000176738
0.00018302313
0.00022002238
0.00035051654
0.00045086899
0.00040782116
0.00025899977
0.00017537589
0.00016113227
0.00017788984
0.0002199679
0.00022911635
0.00021869925
0.00019544238
0.00017949959
0.00016502205
0.00015091155
0.00013879161
0.00012861026
0.00011876463
2.2647107e-12
7.1164907e-11
5.8193498e-10
2.5026772e-09
7.7016643e-09
1.9435895e-08
4.3103053e-08
8.736674e-08
1.6582026e-07
2.9942939e-07
5.2009996e-07
8.7586616e-07
1.4384095e-06
2.3139227e-06
3.6587627e-06
5.7019362e-06
8.7772727e-06
1.3369181e-05
2.0177088e-05
3.0204693e-05
4.4880249e-05
6.6211142e-05
9.6966453e-05
0.00014085779
0.00020263922
0.00028796662
0.00040273372
0.00055148606
0.00073454431
0.00094396703
0.0011598005
0.0013499576
0.0014775953
0.0015176827
0.001469211
0.001353963
0.0011751129
0.00097716054
0.00078587595
0.00061523603
0.00047318908
0.00036208237
0.0002868818
0.00024104369
0.00021944537
0.00022217981
0.00025053089
0.00035476548
0.00052287653
0.0004972169
0.00038361368
0.00020768815
0.00016092241
0.00016207263
0.00019343241
0.0002175988
0.00021258565
0.0001923351
0.00017693508
0.00016490053
0.00015331052
0.00014184075
0.00013240072
0.00012443257
0.00011599907
1.4067648e-12
4.4205326e-11
3.6147874e-10
1.554577e-09
4.7839907e-09
1.2072797e-08
2.6773674e-08
5.4267651e-08
1.0299717e-07
1.8598262e-07
3.2303711e-07
5.4398765e-07
8.9334524e-07
1.437059e-06
2.2722662e-06
3.5413472e-06
5.4521547e-06
8.3070656e-06
1.2544527e-05
1.8797991e-05
2.7978277e-05
4.1385668e-05
6.0855561e-05
8.8932751e-05
0.00012904913
0.00018563502
0.00026401864
0.00036983634
0.00050758735
0.00067796857
0.00087407841
0.0010778223
0.0012597513
0.0013881321
0.0014230534
0.0013825125
0.0012849476
0.0011234923
0.00093904724
0.00076074369
0.00060602934
0.00048232699
0.00039290938
0.00033345097
0.00032445441
0.00035026064
0.00042968959
0.00061946583
0.00061571541
0.00052096301
0.00026749003
0.00017324918
0.0001556969
0.00016656589
0.00019968255
0.00020539558
0.00019194996
0.00017631289
0.000163988
0.00015294236
0.00014344367
0.00013430096
0.00012722692
0.00012102289
0.00011362981
8.4460592e-13
2.6540379e-11
2.1702754e-10
9.3334795e-10
2.8722366e-09
7.2482888e-09
1.6074293e-08
3.2580587e-08
6.1834884e-08
1.116519e-07
1.9392121e-07
3.2653768e-07
5.361989e-07
8.6244991e-07
1.3635225e-06
2.1247597e-06
3.2707688e-06
4.9829546e-06
7.5248062e-06
1.1278282e-05
1.6795855e-05
2.4873999e-05
3.665444e-05
5.3757664e-05
7.8445593e-05
0.00011379079
0.00016379055
0.00023330673
0.00032760707
0.00045116528
0.00060536212
0.00078515787
0.00097586692
0.0011531804
0.0012955175
0.0013350015
0.0013090806
0.0012440886
0.0011230206
0.00097314148
0.00082424912
0.00069544628
0.00060641559
0.00055225464
0.00056577601
0.00062307278
0.00076067298
0.00074159732
0.0006467977
0.00035677203
0.00019614341
0.00015349244
0.00015680833
0.00018075631
0.00020017745
0.00019266632
0.00017392067
0.00016215152
0.00015162657
0.00014383373
0.000136559
0.00012891319
0.00012287994
0.00011809468
0.00011160427
4.9230142e-13
1.5469772e-11
1.2650018e-10
5.4402597e-10
1.674155e-09
4.2248363e-09
9.3692368e-09
1.8990085e-08
3.6040718e-08
6.5074709e-08
1.1301855e-07
1.902941e-07
3.1244362e-07
5.0247667e-07
7.9425413e-07
1.237365e-06
1.9041565e-06
2.8998814e-06
4.3773676e-06
6.5582566e-06
9.7637456e-06
1.4458913e-05
2.1315944e-05
3.1302337e-05
4.579895e-05
6.6746602e-05
9.6803516e-05
0.00013946233
0.00019901396
0.00028018011
0.00038717606
0.00052197523
0.00068161318
0.00085558524
0.0010272209
0.0011855465
0.001246616
0.0012339121
0.0012084125
0.0011493506
0.0010591515
0.00096521864
0.00089712655
0.00087623094
0.00090074109
0.00092543139
0.00089253286
0.00077631166
0.00044106643
0.00022194923
0.00015747249
0.00014732397
0.00016336267
0.00018640697
0.00018511875
0.00017271947
0.00016114806
0.00015292115
0.0001453615
0.00013805717
0.00013113782
0.00012452662
0.00011964499
0.00011548679
0.00010998629
2.7997076e-13
8.797624e-12
7.1940334e-11
3.0938639e-10
9.5208977e-10
2.4026648e-09
5.3282961e-09
1.0799667e-08
2.0496187e-08
3.7006916e-08
6.4269312e-08
1.0820603e-07
1.7764576e-07
2.8565107e-07
4.5142935e-07
7.030802e-07
1.0815459e-06
1.6462982e-06
2.4835433e-06
3.7180948e-06
5.5306025e-06
8.1825931e-06
1.2052785e-05
1.7689304e-05
2.5883313e-05
3.7769357e-05
5.4953098e-05
7.965304e-05
0.00011481449
0.00016410292
0.00023160313
0.0003210609
0.00043453944
0.00057063069
0.00072298957
0.000881634
0.0010466574
0.0011422992
0.0011651899
0.0011583806
0.0011462313
0.0011227652
0.0011017026
0.0010900767
0.0010716101
0.0010160743
0.00086484518
0.00047094243
0.00023201907
0.00015882413
0.00014289866
0.00015022655
0.00017413333
0.00018067965
0.00017349209
0.00016127276
0.00015392763
0.00014648699
0.00013896084
0.00013283478
0.00012706291
0.00012162666
0.00011718844
0.00011337663
0.0001087364
1.5678439e-13
4.9266938e-12
4.0286801e-11
1.7325775e-10
5.3317773e-10
1.3455244e-09
2.9839544e-09
6.0481088e-09
1.1478528e-08
2.0725088e-08
3.5992456e-08
6.0596078e-08
9.9476364e-08
1.5993899e-07
2.5271807e-07
3.9350062e-07
6.0511105e-07
9.2064316e-07
1.3879585e-06
2.0761658e-06
3.0849892e-06
4.5583647e-06
6.704227e-06
9.823285e-06
1.4350576e-05
2.0914417e-05
3.041698e-05
4.4137262e-05
6.3848571e-05
9.1922479e-05
0.00013135042
0.00018553116
0.00025769835
0.00034975193
0.00046113077
0.00058766519
0.00072691504
0.00087147578
0.0010022299
0.001067234
0.0010910561
0.001098789
0.0010924991
0.0010527038
0.00097330467
0.0008091044
0.00041830612
0.0002237293
0.00015527176
0.00013926292
0.00014470578
0.00016589399
0.00017810015
0.00017456545
0.00016350158
0.00015496624
0.00014693715
0.00014026357
0.00013446731
0.00012906529
0.00012366956
0.00011863042
0.00011486862
0.00011141297
0.00010761042
8.8304551e-14
2.7748267e-12
2.2690469e-11
9.7583316e-11
3.0030327e-10
7.5785868e-10
1.6807397e-09
3.4067628e-09
6.465827e-09
1.1674827e-08
2.0275932e-08
3.4137036e-08
5.604112e-08
9.0102275e-08
1.4236203e-07
2.2164233e-07
3.4076314e-07
5.1827907e-07
7.8095699e-07
1.1673341e-06
1.7328026e-06
2.5569375e-06
3.7540896e-06
5.488748e-06
7.9977957e-06
1.1622449e-05
1.6853367e-05
2.439213e-05
3.52294e-05
5.0735425e-05
7.2727377e-05
0.00010349347
0.00014566316
0.00020180454
0.00027362759
0.00036087609
0.00046191712
0.00057300796
0.00068539549
0.00078795927
0.00088003308
0.00091164164
0.00089004852
0.00081331513
0.00059917047
0.00033099432
0.00019661339
0.00014635772
0.00013350591
0.00013845704
0.00015851239
0.00017255182
0.00017132425
0.00016270323
0.00015452012
0.00014791709
0.00014238474
0.00013670469
0.00013062938
0.00012540432
0.0001208891
0.00011662091
0.00011326682
0.00010986668
0.00010671184
5.2468449e-14
1.6487362e-12
1.3482175e-11
5.7982471e-11
1.7843953e-10
4.5033432e-10
9.9877787e-10
2.0245898e-09
3.842818e-09
6.9391933e-09
1.2052364e-08
2.0293058e-08
3.3315961e-08
5.3566736e-08
8.4635771e-08
1.3176291e-07
2.0255528e-07
3.0800735e-07
4.6394873e-07
6.9307925e-07
1.0278677e-06
1.514651e-06
2.2194743e-06
3.2364834e-06
4.6997676e-06
6.8002424e-06
9.8095747e-06
1.4113632e-05
2.025741e-05
2.9000777e-05
4.1379148e-05
5.8734394e-05
8.2749293e-05
0.0001152919
0.00015812802
0.00021243771
0.00027832318
0.00035400987
0.00043478359
0.00051046145
0.0005743238
0.00057164691
0.00052238223
0.00036954712
0.00023307607
0.00015887698
0.00013046099
0.00012507981
0.00013151433
0.00015372337
0.00016800433
0.00016973381
0.00016587501
0.00015696121
0.00015044309
0.00014464816
0.00013805005
0.00013229834
0.00012766623
0.00012299703
0.00011848832
0.00011449537
0.00011152549
0.00010844671
0.00010595713
3.5095319e-14
1.102815e-12
9.0180845e-12
3.8784655e-11
1.1936374e-10
3.0126284e-10
6.6822152e-10
1.3546961e-09
2.5717014e-09
4.6447077e-09
8.0688736e-09
1.3589113e-08
2.23156e-08
3.5889623e-08
5.6720723e-08
8.8324298e-08
1.3580115e-07
2.0651491e-07
3.1104372e-07
4.6451422e-07
6.8846535e-07
1.013442e-06
1.4825648e-06
2.1563845e-06
3.1196549e-06
4.4905377e-06
6.4332885e-06
9.1756964e-06
1.3032445e-05
1.8435932e-05
2.5972389e-05
3.6420462e-05
5.0776539e-05
7.0218853e-05
9.5982584e-05
0.00012906977
0.00016971338
0.00021639223
0.00026440283
0.000303869
0.00030584827
0.0002760091
0.00019896672
0.00014843189
0.00012098543
0.00011057154
0.00011346679
0.00012357816
0.00015160237
0.00016498024
0.00016896942
0.0001665506
0.00015791288
0.00015099831
0.00014502066
0.00013916122
0.00013444232
0.00012947471
0.00012451926
0.00012023803
0.00011654722
0.00011307096
0.00011015486
0.00010736255
0.00010543263
2.7040076e-14
8.4969324e-13
6.9482908e-12
2.9883809e-11
9.1975806e-11
2.3215988e-10
5.1501419e-10
1.0442769e-09
1.9828447e-09
3.5821322e-09
6.2249119e-09
1.048749e-08
1.7229495e-08
2.7722921e-08
4.3836687e-08
6.8299263e-08
1.0507046e-07
1.5986444e-07
2.4088152e-07
3.5982221e-07
5.3327716e-07
7.846121e-07
1.1464891e-06
1.6641522e-06
2.3996376e-06
3.4371227e-06
4.8895691e-06
6.9070978e-06
9.6869372e-06
1.348582e-05
1.8635336e-05
2.5557264e-05
3.4767433e-05
4.6843868e-05
6.2309191e-05
8.1326389e-05
0.0001030273
0.00012459367
0.00014052932
0.00014043313
0.00012462092
0.00010580786
9.0064425e-05
8.7532947e-05
9.20521e-05
0.00010028328
0.00012161397
0.00015046523
0.00016335845
0.00016739897
0.00016637006
0.00015973091
0.00015223588
0.00014645317
0.00014126906
0.00013622659
0.00013091573
0.00012623287
0.00012212808
0.00011817407
0.00011461342
0.00011145666
0.00010882523
0.00010649084
0.00010497979
2.2114448e-14
6.9491393e-13
5.6826442e-12
2.4441032e-11
7.5228104e-11
1.8990244e-10
4.2132225e-10
8.5443393e-10
1.6226905e-09
2.9321765e-09
5.0968417e-09
8.589679e-09
1.4116684e-08
2.2723185e-08
3.5945904e-08
5.6029115e-08
8.6229722e-08
1.3124441e-07
1.9780155e-07
2.9547067e-07
4.3775077e-07
6.4350027e-07
9.3875775e-07
1.3589656e-06
1.9515114e-06
2.7783582e-06
3.9182923e-06
5.4683908e-06
7.5439935e-06
1.0276162e-05
1.3805918e-05
1.8273933e-05
2.3810083e-05
3.0465439e-05
3.8148691e-05
4.6406128e-05
5.4128942e-05
5.9319622e-05
5.9114654e-05
5.5819659e-05
5.5037543e-05
5.8150603e-05
6.3757468e-05
7.4031858e-05
8.9771219e-05
0.00012382303
0.00015033409
0.00016246506
0.00016665162
0.00016646336
0.00016257564
0.00015354849
0.000147779
0.00014290017
0.00013797744
0.00013310799
0.00012858032
0.00012430962
0.00012013051
0.00011648383
0.00011320565
0.00011029899
0.00010774563
0.00010585945
0.00010449996
1.6763477e-14
5.2676763e-13
4.3076398e-12
1.8527315e-11
5.7027276e-11
1.4396231e-10
3.1941399e-10
6.4780446e-10
1.2303545e-09
2.2233878e-09
3.8650552e-09
6.5141301e-09
1.0706015e-08
1.7233127e-08
2.7259553e-08
4.2483389e-08
6.5364578e-08
9.9441138e-08
1.4976174e-07
2.2346596e-07
3.3054183e-07
4.8477682e-07
7.048832e-07
1.0157069e-06
1.4493089e-06
2.0455352e-06
2.8514705e-06
3.9189756e-06
5.2995895e-06
7.0370737e-06
9.1553476e-06
1.1642509e-05
1.4440336e-05
1.7435133e-05
2.0462936e-05
2.3255411e-05
2.5159256e-05
2.6301583e-05
2.8626279e-05
3.2617354e-05
3.7711949e-05
4.8994455e-05
6.3699183e-05
8.7802553e-05
0.00012472755
0.00014921554
0.00016190173
0.00016645577
0.00016693815
0.00016390968
0.00015482684
0.00014869024
0.00014388769
0.00013899826
0.00013419301
0.00012959662
0.00012523768
0.00012132487
0.00011789493
0.0001146649
0.00011167399
0.0001090981
0.00010677617
0.00010531799
0.00010412535
1.105058e-14
3.4724794e-13
2.8396071e-12
1.2213163e-11
3.7591847e-11
9.4897048e-11
2.1054577e-10
4.269909e-10
8.1091901e-10
1.4652835e-09
2.5468495e-09
4.2916188e-09
7.0514436e-09
1.1346409e-08
1.793922e-08
2.7939905e-08
4.2951603e-08
6.5270718e-08
9.8156605e-08
1.4618566e-07
2.1569926e-07
3.1533928e-07
4.5663142e-07
6.5451454e-07
9.2761633e-07
1.2979432e-06
1.7895199e-06
2.4254531e-06
3.2230485e-06
4.1876104e-06
5.3061786e-06
6.5442603e-06
7.851944e-06
9.1783477e-06
1.0485103e-05
1.186322e-05
1.3913985e-05
1.6527553e-05
2.145267e-05
2.8975526e-05
4.1558619e-05
6.0077154e-05
8.6414629e-05
0.00012141273
0.00014494324
0.00016043908
0.00016693414
0.00016750619
0.00016503742
0.00015695886
0.00015010294
0.00014508232
0.00014054987
0.00013617613
0.00013187026
0.00012759879
0.00012367162
0.00011991993
0.00011638451
0.00011331183
0.00011054885
0.00010815455
0.00010598918
0.00010487865
0.00010376527
6.4256185e-15
2.0191512e-13
1.6511398e-12
7.1014041e-12
2.1857047e-11
5.5172312e-11
1.2239745e-10
2.4819093e-10
4.7126687e-10
8.5135316e-10
1.4793175e-09
2.4918057e-09
4.0922584e-09
6.5808622e-09
1.0396876e-08
1.6177839e-08
2.4841355e-08
3.7696231e-08
5.6590201e-08
8.4100385e-08
1.2376809e-07
1.8036891e-07
2.601881e-07
3.7123598e-07
5.2328712e-07
7.2756527e-07
9.9586344e-07
1.3389844e-06
1.7644687e-06
2.2750944e-06
2.8693913e-06
3.547103e-06
4.3256985e-06
5.2732947e-06
6.5982474e-06
8.6160904e-06
1.1731298e-05
1.6753044e-05
2.5020411e-05
3.8499442e-05
5.7434249e-05
8.282719e-05
0.00011546153
0.00014118438
0.00016111466
0.00016795744
0.00016860412
0.00016663598
0.00015973183
0.00015159814
0.00014620012
0.00014165043
0.00013750418
0.00013307158
0.00012879662
0.00012482183
0.00012112678
0.00011784735
0.00011474853
0.0001119205
0.00010934531
0.00010725847
0.00010529185
0.00010449369
0.00010326133
3.6509452e-15
1.147251e-13
9.3814277e-13
4.0347264e-12
1.2417339e-11
3.134041e-11
6.9515237e-11
1.4092699e-10
2.6751665e-10
4.8310582e-10
8.3909877e-10
1.4127091e-09
2.3187449e-09
3.7263634e-09
5.8826855e-09
9.1457391e-09
1.4029848e-08
2.1267182e-08
3.1889535e-08
4.7334018e-08
6.9574631e-08
1.0127751e-07
1.4597009e-07
2.0820343e-07
2.9367673e-07
4.0929048e-07
5.6312743e-07
7.6452303e-07
1.0246831e-06
1.3590356e-06
1.7933685e-06
2.3769893e-06
3.2077896e-06
4.4765792e-06
6.4822153e-06
9.7527138e-06
1.5057634e-05
2.345727e-05
3.6442141e-05
5.4446486e-05
7.8714435e-05
0.00011017734
0.00013879576
0.00016149211
0.00016947149
0.00017029174
0.00016864639
0.000162547
0.0001529896
0.00014745548
0.00014286619
0.00013875848
0.0001346133
0.00013049292
0.00012655634
0.00012275205
0.00011931784
0.00011616685
0.0001133386
0.00011083377
0.00010847179
0.0001065492
0.00010471119
0.00010400862
0.00010281799
2.5508818e-15
8.0157312e-14
6.5546579e-13
2.8188862e-12
8.6745982e-12
2.1890455e-11
4.8543664e-11
9.8384159e-11
1.8669812e-10
3.3703401e-10
5.8516293e-10
9.8479578e-10
1.6157856e-09
2.5958213e-09
4.0969886e-09
6.3690526e-09
9.7719283e-09
1.4820552e-08
2.2246262e-08
3.3079822e-08
4.8762454e-08
7.1292892e-08
1.0342159e-07
1.4890894e-07
2.1288336e-07
3.0237239e-07
4.2718354e-07
6.0151696e-07
8.4713528e-07
1.1998854e-06
1.7228232e-06
2.5224388e-06
3.78329e-06
5.8189586e-06
9.1032105e-06
1.4329015e-05
2.2498875e-05
3.4821229e-05
5.1981023e-05
7.556868e-05
0.0001060754
0.00013637864
0.00016106658
0.00017087875
0.00017239289
0.00017090307
0.00016533625
0.00015506748
0.00014943306
0.00014457763
0.00014015087
0.00013601775
0.00013212887
0.00012813956
0.00012446195
0.00012105816
0.0001178878
0.00011486787
0.0001120553
0.00010962983
0.00010751376
0.00010576268
0.00010415875
0.0001034382
0.00010239654
2.6239596e-15
8.2453702e-14
6.7424333e-13
2.8995899e-12
8.9224998e-12
2.2514119e-11
4.9921013e-11
1.0116235e-10
1.9194401e-10
3.464611e-10
6.0147561e-10
1.0122176e-09
1.6608836e-09
2.6688201e-09
4.213918e-09
6.5553516e-09
1.006865e-08
1.5295298e-08
2.3012828e-08
3.4334007e-08
5.0847975e-08
7.4823391e-08
1.0950681e-07
1.5957466e-07
2.3184733e-07
3.3647747e-07
4.8914146e-07
7.1493492e-07
1.055032e-06
1.5752707e-06
2.3828639e-06
3.6575056e-06
5.6908507e-06
8.9424316e-06
1.403632e-05
2.1989927e-05
3.3772634e-05
5.0317747e-05
7.3146925e-05
0.00010254103
0.0001333338
0.0001595664
0.00017220259
0.00017461265
0.00017327355
0.00016850596
0.00015771236
0.00015177888
0.00014624474
0.00014138709
0.00013719438
0.00013351534
0.00012970488
0.00012588224
0.0001222968
0.00011887917
0.00011595257
0.00011337754
0.0001110071
0.00010883564
0.0001067941
0.00010511156
0.0001036125
0.00010288642
0.00010174977
3.5015156e-15
1.1002951e-13
8.9973678e-13
3.869297e-12
1.1906181e-11
3.0041738e-11
6.6609019e-11
1.349728e-10
2.5608339e-10
4.6221849e-10
8.0243444e-10
1.3504705e-09
2.2161649e-09
3.5618918e-09
5.626169e-09
8.7575246e-09
1.3463077e-08
2.0478355e-08
3.087045e-08
4.6187184e-08
6.8679108e-08
1.0163565e-07
1.4990557e-07
2.2072334e-07
3.2505416e-07
4.798254e-07
7.1141501e-07
1.0612725e-06
1.5956353e-06
2.4233149e-06
3.7198098e-06
5.7632432e-06
8.9828162e-06
1.4022224e-05
2.1739761e-05
3.309327e-05
4.9089363e-05
7.1077996e-05
9.9301079e-05
0.00013013855
0.00015764955
0.00017340316
0.00017694753
0.00017580046
0.0001716732
0.00016097844
0.00015437044
0.00014812024
0.00014294308
0.00013880633
0.00013508576
0.00013134111