/*--------------------------------*- C++ -*----------------------------------*\
  =========                 |
  \\      /  F ield         | OpenFOAM: The Open Source CFD Toolbox
   \\    /   O peration     | Website:  https://openfoam.org
    \\  /    A nd           | Version:  13
     \\/     M anipulation  |
\*---------------------------------------------------------------------------*/
FoamFile
{
    format      ascii;
    class       volVectorField;
    location    "47.696089";
    object      UMean;
}
// * * * * * * * * * * * * * * * * * * * * * * * * * * * * * * * * * * * * * //

dimensions      [0 1 -1 0 0 0 0];

internalField   nonuniform List<vector> 
17140
(
(-1.4215184e-06 6.3829663e-05 -6.0176237e-23)
(-1.6723095e-05 0.00019674365 -4.5774632e-24)
(-4.9705639e-05 0.00034232793 3.0274357e-22)
(-0.00010713106 0.00050134092 -3.3306158e-22)
(-0.00019530589 0.00067457096 3.8970492e-23)
(-0.00032279 0.00086272461 -1.2762753e-22)
(-0.00050013724 0.0010663968 -2.1510394e-22)
(-0.00074012289 0.001286023 1.0530847e-22)
(-0.0010581708 0.0015218209 3.4511448e-22)
(-0.0014727737 0.0017737214 8.4834763e-22)
(-0.0020059298 0.0020412868 -1.2621883e-21)
(-0.0026835748 0.0023236203 1.1290171e-21)
(-0.00353599 0.0026192672 1.7330871e-22)
(-0.0045981405 0.0029261118 -9.8800973e-22)
(-0.0059098959 0.0032412804 1.1035889e-22)
(-0.0075160671 0.0035610584 -8.8218591e-22)
(-0.0094661878 0.0038808403 3.342843e-23)
(-0.01181397 0.0041951308 -7.2177917e-24)
(-0.014616369 0.0044976211 -5.3934247e-22)
(-0.017932235 0.0047813651 7.103711e-22)
(-0.021820585 0.0050390741 -3.4659631e-22)
(-0.026338615 0.0052635435 6.7893058e-23)
(-0.031539669 0.0054481938 5.0469712e-22)
(-0.037471626 0.0055877079 -5.1022052e-22)
(-0.044176612 0.0056787215 -8.2525546e-22)
(-0.051690646 0.0057205456 6.7583927e-22)
(-0.060042443 0.0057157578 3.3620154e-21)
(-0.069259028 0.005670049 3.9823079e-22)
(-0.07936562 0.0055917469 -3.5820266e-21)
(-0.090388027 0.0054901879 -8.4497079e-22)
(-0.10234838 0.0053713787 -3.0655447e-21)
(-0.11525849 0.0052365085 4.1048183e-21)
(-0.12912622 0.005083453 -1.0792659e-21)
(-0.14394977 0.0049084618 -5.2623544e-22)
(-0.15971799 0.0047070694 -5.2040184e-21)
(-0.17640834 0.0044744311 2.3235038e-21)
(-0.19398255 0.0042055799 -3.5146267e-21)
(-0.21237963 0.0038954537 -2.3905737e-21)
(-0.23150696 0.0035389476 -1.0944967e-21)
(-0.25123055 0.0031318879 3.335633e-21)
(-0.27136643 0.0026720689 6.2607522e-21)
(-0.2916728 0.0021602507 5.6427505e-21)
(-0.31184126 0.0015990062 2.4439488e-21)
(-0.33149389 0.00099107863 -1.1652268e-20)
(-0.35018382 0.00033856091 -8.3692697e-21)
(-0.36739459 -0.00035498358 2.0224538e-21)
(-0.38260318 -0.0010867169 -1.3474459e-20)
(-0.39531749 -0.0018552993 -4.4847285e-21)
(-0.40496652 -0.0026519135 4.4873752e-21)
(-0.41116096 -0.0034419908 1.0812029e-20)
(-0.41354104 -0.0041753391 -6.5834532e-21)
(-0.41183679 -0.0047924824 -4.1289348e-21)
(-0.40570874 -0.0052314464 1.0724827e-20)
(-0.39489198 -0.005390453 5.0783629e-21)
(-0.37881091 -0.0051083542 3.652006e-21)
(-0.35698572 -0.0041989876 -2.875733e-21)
(-0.32823245 -0.0025185736 7.9836622e-21)
(-0.29125058 3.1418607e-05 6.7861957e-21)
(-0.2422693 0.0027484261 1.7521789e-21)
(-0.17936717 0.0033458789 -4.582199e-21)
(-0.099596293 0.00052023841 -3.733231e-21)
(-0.0091701797 -0.0041284281 -1.4279756e-20)
(0.09556358 -0.0090148448 -2.1708832e-21)
(0.19711191 -0.012771065 1.8645282e-20)
(0.30692274 -0.013791317 -1.4866133e-20)
(-1.3228321e-05 0.00030918653 1.7052225e-23)
(-5.2895364e-05 0.0009527129 -1.5842631e-21)
(-0.00011220721 0.001657346 1.4103903e-21)
(-0.00019799566 0.002427027 -3.8488102e-22)
(-0.00031658423 0.0032656197 -7.9544213e-22)
(-0.00047651261 0.0041766156 1.5212216e-21)
(-0.00068826031 0.005162968 -1.588053e-21)
(-0.00096447311 0.0062268558 1.3998066e-22)
(-0.0013203611 0.0073693864 -4.3782503e-22)
(-0.0017741121 0.0085902484 -7.2772689e-24)
(-0.0023473101 0.009887312 -1.4696845e-21)
(-0.0030653523 0.011256178 2.3449477e-21)
(-0.003957844 0.012689694 1.944925e-22)
(-0.0050589271 0.014177464 -1.9304581e-21)
(-0.0064074975 0.01570538 5.9729504e-22)
(-0.0080472486 0.017255263 3.8208018e-22)
(-0.010026473 0.018804676 -2.4415647e-21)
(-0.01239755 0.020327034 8.0348809e-21)
(-0.015216071 0.021792138 -5.0864365e-21)
(-0.018539553 0.023167259 6.1636823e-21)
(-0.022425801 0.024418875 -9.2276332e-21)
(-0.026931007 0.02551508 2.2948529e-21)
(-0.032107807 0.02642854 9.6097897e-22)
(-0.038003694 0.027139661 -3.1799823e-21)
(-0.044660705 0.027639444 1.1630985e-20)
(-0.05211527 0.027931409 1.7509422e-21)
(-0.060396418 0.028031529 -9.2920064e-21)
(-0.069531525 0.027964062 1.0567754e-20)
(-0.079546224 0.027756695 -1.4981186e-21)
(-0.090466008 0.027433762 -1.4682711e-20)
(-0.10231256 0.027013259 1.561325e-21)
(-0.11509688 0.026505847 1.1996975e-20)
(-0.1288259 0.025917141 2.8312595e-22)
(-0.14349644 0.02525069 -9.1991376e-21)
(-0.15909549 0.024508364 1.0415724e-20)
(-0.17559812 0.023688819 -4.7326909e-21)
(-0.19296314 0.022785977 5.6738772e-21)
(-0.21112589 0.021788653 1.8085756e-20)
(-0.2299894 0.020681454 4.0409445e-21)
(-0.24941484 0.019447083 1.5853572e-20)
(-0.26921256 0.018069142 -2.0343213e-20)
(-0.28913372 0.016533701 -1.852508e-20)
(-0.30886109 0.014829375 -3.0918782e-21)
(-0.32800397 0.012947038 2.4916187e-20)
(-0.34609647 0.010882659 -1.1485751e-20)
(-0.36260216 0.008646452 -3.8958747e-21)
(-0.37695925 0.0062654905 2.1018886e-21)
(-0.38864068 0.0037699425 6.350915e-21)
(-0.39713802 0.0012046734 -3.0611911e-21)
(-0.40199924 -0.001352989 5.4455963e-21)
(-0.4028609 -0.0038340783 3.2509865e-20)
(-0.39943835 -0.0061749189 1.551692e-21)
(-0.39142266 -0.0083145358 -6.9629476e-21)
(-0.37852437 -0.010183371 1.5523617e-20)
(-0.36023388 -0.011682716 -1.3358868e-20)
(-0.33605122 -0.012726658 3.8382229e-20)
(-0.30473419 -0.013333124 1.1098901e-20)
(-0.26505602 -0.013728061 -3.2055877e-20)
(-0.21323308 -0.014865488 5.5117007e-21)
(-0.14682956 -0.018631553 6.5399805e-21)
(-0.063743955 -0.0252722 1.3651305e-21)
(0.029391431 -0.03298315 -1.8580242e-20)
(0.13596912 -0.039140716 3.7652247e-20)
(0.23820474 -0.042836676 1.1505013e-20)
(0.34798616 -0.042257323 1.9773414e-20)
(-3.8479919e-05 0.00054957122 9.3932076e-22)
(-0.00013008376 0.0016935433 -4.7635164e-22)
(-0.00024556927 0.002946306 -1.2671764e-22)
(-0.00039173524 0.0043150207 1.202943e-22)
(-0.00057498914 0.0058066744 -5.8312009e-22)
(-0.00080379009 0.0074276374 -4.3242662e-23)
(-0.0010884324 0.0091833454 -5.5511719e-22)
(-0.0014412483 0.011077864 -5.9892488e-22)
(-0.0018769386 0.013113399 4.9090695e-21)
(-0.0024129949 0.015289671 -4.3944705e-21)
(-0.0030700585 0.017603205 2.1098815e-21)
(-0.0038723135 0.020046527 3.1023923e-21)
(-0.00484785 0.02260729 -6.1828732e-21)
(-0.0060289745 0.025267383 -7.6865183e-22)
(-0.0074524225 0.028002091 2.9924728e-21)
(-0.0091594192 0.030779417 2.0728039e-21)
(-0.011195524 0.033559719 -2.4262046e-21)
(-0.013610202 0.036295861 8.8735023e-21)
(-0.016456057 0.038934124 -5.3112231e-21)
(-0.019787712 0.041416106 2.6578131e-21)
(-0.023660342 0.043681808 -9.1017061e-21)
(-0.028127977 0.045673959 -2.4038711e-21)
(-0.03324172 0.047343368 5.1009696e-21)
(-0.039048237 0.048654684 -7.8002443e-21)
(-0.045589335 0.049591569 -3.1110886e-21)
(-0.052902196 0.050160027 3.8346693e-21)
(-0.061016446 0.050388129 2.2068243e-20)
(-0.069960292 0.050318512 1.0116552e-20)
(-0.079759678 0.049997997 -5.1948779e-21)
(-0.090439389 0.049466517 5.5620022e-21)
(-0.10202065 0.048754652 -3.6191377e-21)
(-0.11451262 0.047883023 -2.0512596e-20)
(-0.12792019 0.046865196 6.9795597e-21)
(-0.14223734 0.045711988 2.1095651e-20)
(-0.15744721 0.044431536 -7.2402865e-21)
(-0.17351974 0.043026115 -1.0177713e-20)
(-0.19040718 0.041488724 1.781193e-20)
(-0.20803672 0.039802112 5.434602e-21)
(-0.22630139 0.037940607 -9.8506381e-21)
(-0.24505046 0.035873623 -3.9877991e-21)
(-0.26407988 0.033569863 1.9016961e-20)
(-0.28312273 0.030999676 -5.4719977e-21)
(-0.30183871 0.028136002 -7.8117243e-21)
(-0.31980833 0.024956038 -2.0523337e-20)
(-0.33652942 0.021448394 3.8749783e-20)
(-0.35142942 0.017630967 -2.4715196e-20)
(-0.36392746 0.013564142 -6.0633935e-21)
(-0.37346071 0.0093203774 -2.4043164e-20)
(-0.37950901 0.0049708265 -2.8539264e-20)
(-0.38163721 0.00063569541 -1.426623e-21)
(-0.37951578 -0.0035744397 5.9687575e-21)
(-0.37289435 -0.0075902801 -4.4340415e-20)
(-0.36149319 -0.011377415 -1.896219e-20)
(-0.34501739 -0.014906965 -1.9620139e-20)
(-0.322962 -0.018139816 -6.4786065e-21)
(-0.29478409 -0.021091586 -5.1147034e-20)
(-0.259201 -0.023938604 2.0543035e-20)
(-0.2148933 -0.027229215 -6.4558231e-21)
(-0.15780186 -0.032175788 -5.4028654e-20)
(-0.085862082 -0.040160115 -2.2063431e-20)
(0.0024062944 -0.050186855 2.7335266e-20)
(0.099036323 -0.060504555 9.7294357e-20)
(0.20753759 -0.067443555 -3.2362723e-20)
(0.30906855 -0.070680051 -5.3233468e-20)
(0.41675731 -0.068049957 -2.3499622e-20)
(-7.641633e-05 0.00077701764 -3.1279468e-21)
(-0.00024602393 0.0023948806 3.4064007e-21)
(-0.00044588779 0.0041671524 -1.2323654e-21)
(-0.0006827343 0.0061042198 1.3411009e-22)
(-0.00096308213 0.0082162148 -2.652288e-21)
(-0.001295293 0.010512453 2.7480095e-21)
(-0.0016893794 0.013001008 -4.1733924e-21)
(-0.002157173 0.015688114 1.9683453e-21)
(-0.002712634 0.018577468 7.4967284e-21)
(-0.0033721828 0.021669347 -1.8087903e-21)
(-0.0041550535 0.024959579 -6.9086608e-21)
(-0.0050835812 0.028438427 2.1191534e-21)
(-0.006183563 0.032089349 1.4324806e-22)
(-0.0074845286 0.035887696 -5.6053876e-21)
(-0.0090199318 0.039799474 1.7672839e-20)
(-0.010827238 0.043780286 -1.0947854e-20)
(-0.012947833 0.047774717 -1.0512233e-22)
(-0.015426702 0.051716413 6.1912718e-21)
(-0.018311848 0.05552921 -1.5937468e-20)
(-0.021653389 0.059129659 7.6414751e-21)
(-0.025502378 0.062431272 1.1589207e-20)
(-0.02990939 0.065350605 4.7704073e-21)
(-0.034923017 0.067814902 -2.4112969e-20)
(-0.040588489 0.069770537 -1.2846057e-20)
(-0.046947119 0.071190728 8.5158635e-21)
(-0.05403689 0.072080653 -5.0429189e-21)
(-0.061888556 0.072477835 1.9385813e-20)
(-0.070531468 0.072442692 -5.6737423e-21)
(-0.079991592 0.072040435 1.5629971e-20)
(-0.090293108 0.071327811 -9.0370009e-21)
(-0.1014567 0.070348496 5.6593092e-21)
(-0.11348876 0.069133683 -2.1261011e-20)
(-0.12639111 0.067705254 3.1325809e-21)
(-0.14015358 0.066081179 -1.6661963e-20)
(-0.15475378 0.064275759 1.6269691e-20)
(-0.17015429 0.062294929 5.194283e-21)
(-0.18629772 0.060130907 -6.6948073e-20)
(-0.20309919 0.057760528 -1.7591287e-20)
(-0.22043715 0.055147715 1.4791567e-20)
(-0.23814345 0.052248387 -1.4621387e-20)
(-0.25599334 0.049015669 3.7148289e-21)
(-0.27369435 0.045403104 2.3622862e-20)
(-0.29087523 0.041366787 -1.1182527e-21)
(-0.30707993 0.036870138 -7.7410975e-21)
(-0.32176603 0.031897132 3.8514051e-21)
(-0.33433379 0.026480617 -1.6694007e-21)
(-0.34419835 0.020712052 -5.1986539e-21)
(-0.35077725 0.014708197 8.1346793e-20)
(-0.35357343 0.0085924963 -8.9786319e-21)
(-0.35220395 0.0025336607 8.2593808e-21)
(-0.34639955 -0.0033297452 -7.7215358e-20)
(-0.33594737 -0.008928094 4.232935e-20)
(-0.32057977 -0.014256074 3.4732975e-20)
(-0.29998731 -0.019332726 3.3367515e-20)
(-0.27361999 -0.024186794 3.2444482e-20)
(-0.24088771 -0.028950529 5.1665221e-20)
(-0.20036919 -0.033962854 -1.0469228e-19)
(-0.15047276 -0.040142276 6.5665055e-20)
(-0.086696774 -0.048783547 1.0240138e-19)
(-0.0083829095 -0.060689891 -7.7136858e-20)
(0.085454713 -0.073603054 -2.5620366e-20)
(0.18540474 -0.085852816 -2.3414471e-20)
(0.29449435 -0.092869506 1.2234184e-19)
(0.39344601 -0.095159723 9.2104434e-20)
(0.49612497 -0.090057908 -4.2794054e-21)
(-0.00012539463 0.00098357677 2.1859573e-21)
(-0.00039574279 0.0030323656 -4.9498702e-21)
(-0.00070460263 0.0052777188 4.0380819e-21)
(-0.0010586169 0.0077332035 -1.527266e-21)
(-0.0014644761 0.010412099 -5.5220723e-22)
(-0.0019304165 0.013326777 4.7585251e-21)
(-0.0024661041 0.016488158 -1.2079688e-21)
(-0.00308275 0.019904984 -2.5691308e-21)
(-0.0037933727 0.023582925 -1.9785635e-22)
(-0.0046130507 0.027523503 -1.6844222e-21)
(-0.005559197 0.031722817 2.3675448e-21)
(-0.0066518034 0.03617011 -1.6539634e-21)
(-0.007913707 0.040846165 -6.1277123e-21)
(-0.0093708584 0.045721546 -1.7801359e-22)
(-0.011052442 0.050754956 4.7605293e-21)
(-0.012990999 0.055891813 3.405175e-21)
(-0.015222442 0.061063247 -2.9630705e-21)
(-0.017785816 0.066185912 2.9119586e-22)
(-0.020722946 0.071163099 5.9535105e-21)
(-0.024077834 0.075887629 7.3727873e-21)
(-0.027895825 0.080246933 -8.5774729e-21)
(-0.032222592 0.084130616 -8.8097307e-21)
(-0.037103003 0.087440232 1.2115375e-20)
(-0.042580005 0.090100394 -1.5315045e-20)
(-0.048693957 0.092069375 -2.7087532e-20)
(-0.055483116 0.093346594 6.5318963e-20)
(-0.062980571 0.093974519 -3.6728682e-20)
(-0.071216366 0.094029 5.5412231e-20)
(-0.080216085 0.093593397 -7.0568611e-20)
(-0.090004587 0.092743426 8.013862e-20)
(-0.10060108 0.091535668 -8.4249761e-20)
(-0.11200909 0.090012691 1.4474347e-20)
(-0.12422623 0.08820546 5.0475693e-20)
(-0.13723735 0.086139102 -2.890716e-20)
(-0.15101329 0.08383398 9.189255e-21)
(-0.16550753 0.081299573 2.7677958e-21)
(-0.18065083 0.078527445 3.3804131e-20)
(-0.19634363 0.075488771 1.1035739e-20)
(-0.21244687 0.072137303 1.1100241e-20)
(-0.22877205 0.068415284 1.1206811e-20)
(-0.24507023 0.064259542 -5.7256098e-20)
(-0.26102002 0.059605576 2.5106531e-20)
(-0.27621705 0.054391968 3.8111157e-21)
(-0.29016937 0.048569345 -4.539052e-20)
(-0.3023029 0.042122431 -2.2647009e-20)
(-0.31201223 0.035108272 1.1141906e-20)
(-0.31872732 0.027659469 3.9494594e-20)
(-0.32189507 0.019932652 -1.716089e-20)
(-0.32106409 0.012111148 4.9011184e-20)
(-0.31591098 0.0044139011 2.6370115e-20)
(-0.3062045 -0.0029967329 3.6277486e-20)
(-0.29173981 -0.010066588 9.6583966e-20)
(-0.27222054 -0.016833191 -7.4911312e-20)
(-0.24726404 -0.023370267 2.4199133e-20)
(-0.21623184 -0.029768579 -4.2601984e-20)
(-0.17842695 -0.03627872 -4.0885547e-20)
(-0.13218181 -0.043439703 -1.6108428e-20)
(-0.075596284 -0.052552268 -1.5184228e-19)
(-0.0040169226 -0.064677059 -4.2092958e-20)
(0.081514898 -0.079976169 9.9147934e-20)
(0.18089036 -0.095035373 3.8823144e-20)
(0.28355768 -0.10836224 -3.0496937e-20)
(0.39160917 -0.11469944 -6.5289743e-20)
(0.48636923 -0.11534995 -1.033168e-19)
(0.58126101 -0.10738982 8.3789449e-21)
(-0.00018288253 0.0011616219 6.5996478e-21)
(-0.00057153701 0.0035826015 1.5814102e-21)
(-0.0010084571 0.0062374607 -1.2823088e-21)
(-0.0015002123 0.0091428499 -4.7370399e-21)
(-0.0020537191 0.012315148 2.597909e-21)
(-0.0026770979 0.015769853 -3.7447872e-21)
(-0.0033796431 0.019520948 1.623192e-21)
(-0.0041718886 0.023580075 3.8736143e-22)
(-0.0050657933 0.027955505 -2.1990922e-21)
(-0.00607491 0.032650888 -4.755391e-21)
(-0.0072145678 0.037663766 -2.3835933e-22)
(-0.0085020538 0.042983849 7.8940405e-21)
(-0.0099567812 0.048591091 -1.0989262e-20)
(-0.011600497 0.054453598 1.7889236e-20)
(-0.013457378 0.06052556 -4.7204586e-21)
(-0.015554125 0.066745235 1.0138366e-20)
(-0.017920066 0.073033439 -1.2428894e-20)
(-0.020587021 0.07929301 8.1969911e-21)
(-0.023589204 0.085409584 -1.3211494e-21)
(-0.026962929 0.091254462 -5.4605581e-21)
(-0.030746195 0.096690112 1.3559734e-20)
(-0.034978152 0.10157877 -1.960339e-20)
(-0.039698455 0.10579406 2.1854266e-20)
(-0.044946551 0.10923464 3.8271839e-21)
(-0.050761031 0.11183805 -3.8785696e-20)
(-0.057179654 0.11359124 4.0197812e-20)
(-0.064238321 0.11453476 -2.6819361e-20)
(-0.071967346 0.11475461 3.0762042e-20)
(-0.080393199 0.114354 2.904692e-21)
(-0.089541359 0.11342843 1.8307377e-21)
(-0.099428245 0.11204774 -1.3044978e-20)
(-0.11005617 0.11026699 8.246585e-22)
(-0.12141698 0.10812737 -5.0802829e-20)
(-0.13349019 0.10566143 1.4062956e-20)
(-0.14623894 0.10289538 4.2438811e-20)
(-0.1596066 0.099842204 -2.0143187e-20)
(-0.17351097 0.096493199 1.6827985e-20)
(-0.18783661 0.092814479 -1.6977277e-20)
(-0.20242586 0.088750082 -9.5488715e-20)
(-0.21706863 0.084228504 5.3097907e-20)
(-0.23149088 0.079169551 1.2966396e-20)
(-0.24534269 0.073490142 -7.3422939e-20)
(-0.25818999 0.067111885 4.4441168e-21)
(-0.26951398 0.0599758 9.0233974e-21)
(-0.27872877 0.052074937 9.4915304e-20)
(-0.28525831 0.04349965 2.1699987e-20)
(-0.28856178 0.034427793 -3.3571596e-20)
(-0.28815288 0.025052693 -3.386672e-20)
(-0.28362274 0.015616606 -4.7449028e-20)
(-0.27467229 0.0063795174 -5.7797576e-20)
(-0.26105833 -0.0024805851 -3.4952781e-20)
(-0.24255165 -0.010931485 -5.4549301e-20)
(-0.21878154 -0.019060514 1.8722543e-20)
(-0.18925577 -0.026996111 -1.1558386e-19)
(-0.15319624 -0.034889485 -7.7368273e-21)
(-0.10968974 -0.043123589 -6.8240127e-21)
(-0.056782907 -0.052429985 -3.6684145e-21)
(0.0078758899 -0.064420922 1.6303226e-19)
(0.088206291 -0.079688715 6.5738303e-20)
(0.18145382 -0.09766046 -1.043471e-19)
(0.28587295 -0.11399196 -1.5628289e-19)
(0.39021768 -0.12733127 -7.2642508e-20)
(0.495358 -0.1321688 -2.4602691e-20)
(0.58398607 -0.13056988 1.472963e-19)
(0.66871555 -0.11927228 -3.8279758e-20)
(-0.00024549892 0.0013043519 -1.2335799e-21)
(-0.00076324004 0.0040246397 -2.649104e-21)
(-0.0013398715 0.00701 6.3991747e-21)
(-0.0019820745 0.010279965 -2.3859255e-22)
(-0.0026969922 0.013853911 -3.1232618e-21)
(-0.0034926734 0.017750484 -1.3786031e-21)
(-0.0043780666 0.021986907 -1.0198859e-21)
(-0.005363034 0.0265781 2.0150485e-21)
(-0.0064584514 0.031535567 -1.0463279e-20)
(-0.0076762885 0.036866034 7.9279327e-21)
(-0.0090296972 0.042569805 -3.844549e-22)
(-0.010533093 0.048638835 -4.847692e-21)
(-0.012202241 0.055054518 1.826805e-20)
(-0.014054334 0.061785246 -1.8364436e-20)
(-0.016108074 0.068783847 2.474877e-21)
(-0.018383736 0.075985116 1.5482508e-20)
(-0.020903242 0.083303697 -1.477247e-20)
(-0.023690222 0.09063282 5.2561591e-21)
(-0.026770062 0.097844477 -1.039645e-20)
(-0.030169956 0.10479182 1.3630274e-20)
(-0.033918933 0.11131454 2.6188938e-20)
(-0.03804786 0.11724793 -2.6582673e-20)
(-0.042589387 0.12243574 -3.9919747e-20)
(-0.047577786 0.12674628 7.9026392e-20)
(-0.053048575 0.13008943 -6.4981642e-20)
(-0.059038172 0.13243119 3.8616702e-20)
(-0.065583783 0.13380106 -1.020765e-20)
(-0.072717902 0.13428746 2.4581926e-20)
(-0.080468536 0.13401283 -2.5757462e-20)
(-0.088859159 0.13309223 -3.5253628e-20)
(-0.097905693 0.13161255 2.3933794e-20)
(-0.10761008 0.12964149 4.0114068e-20)
(-0.11795725 0.12723158 -3.638108e-21)
(-0.12892112 0.12442369 -1.5475514e-21)
(-0.14045676 0.12125004 -2.7082611e-20)
(-0.15249709 0.1177274 1.187269e-20)
(-0.16494681 0.11384747 4.4018584e-20)
(-0.17767458 0.10957211 2.2266765e-20)
(-0.1905041 0.10483616 -3.4456929e-20)
(-0.20320392 0.099554447 2.7471811e-20)
(-0.21547608 0.093629685 -2.3234255e-20)
(-0.22694564 0.086960782 7.9241023e-21)
(-0.23715686 0.079454649 2.9498454e-20)
(-0.24558 0.071048751 -7.0067668e-20)
(-0.25164488 0.061754238 -4.1357326e-20)
(-0.25483353 0.051699128 -2.652716e-20)
(-0.25465908 0.041100259 8.2040648e-20)
(-0.25069716 0.030183232 5.2518718e-20)
(-0.24254585 0.019227572 6.0830838e-20)
(-0.22986919 0.008530657 1.0496289e-19)
(-0.21238157 -0.0017086784 -3.5875369e-20)
(-0.18980852 -0.011481244 7.5444081e-21)
(-0.16166713 -0.020931977 5.9929429e-20)
(-0.12733441 -0.030250465 1.7680116e-19)
(-0.085813594 -0.039648859 1.1782066e-19)
(-0.035918591 -0.049640643 4.711499e-20)
(0.024744573 -0.061155103 1.4025789e-19)
(0.09870377 -0.075882307 -9.7144117e-20)
(0.18838811 -0.093760974 1.0379596e-20)
(0.28914753 -0.11346378 1.6823785e-19)
(0.39755486 -0.1299967 1.1891199e-19)
(0.50229239 -0.1422514 5.66904e-21)
(0.60240232 -0.14480774 -2.0632414e-19)
(0.68257143 -0.14041969 2.2285018e-20)
(0.75497353 -0.12557919 -3.3095341e-20)
(-0.00030923063 0.0014062089 -4.8161296e-21)
(-0.00095859502 0.0043412839 2.1833956e-21)
(-0.0016777083 0.0075653481 -2.9519036e-21)
(-0.0024735462 0.011100515 -1.6793955e-21)
(-0.0033534849 0.014968971 4.6932037e-21)
(-0.0043255685 0.019192438 4.3882039e-21)
(-0.00539847 0.023791474 -4.5127598e-21)
(-0.0065814551 0.028784591 5.4402262e-22)
(-0.0078843958 0.034187112 1.2639346e-22)
(-0.0093177603 0.040009763 9.0248225e-21)
(-0.010892597 0.046256951 -9.9623932e-22)
(-0.012620511 0.052924692 -1.8400252e-20)
(-0.014513636 0.059998203 1.4819324e-20)
(-0.016584608 0.06744917 -5.164224e-22)
(-0.01884655 0.075232774 -1.0129291e-20)
(-0.021313082 0.083284661 -8.8369532e-22)
(-0.023998371 0.091518126 2.2804647e-21)
(-0.026917252 0.099822004 1.04568e-20)
(-0.030085433 0.10805989 -1.9533255e-20)
(-0.033519821 0.11607156 3.5099344e-20)
(-0.037238984 0.1236776 -7.7633587e-21)
(-0.0412637 0.13068814 5.8389641e-21)
(-0.045617571 0.13691629 -4.9522193e-21)
(-0.050327562 0.14219591 1.9835891e-22)
(-0.055424197 0.14640193 -3.0904581e-20)
(-0.060941254 0.14946927 -3.1644457e-20)
(-0.066915015 0.15140531 6.4230329e-20)
(-0.073381784 0.15228974 1.0931004e-20)
(-0.08037068 0.15225523 -3.901846e-20)
(-0.087902545 0.151442 -1.4166764e-20)
(-0.09599454 0.14995894 -3.2537123e-20)
(-0.10464783 0.14788375 3.7499998e-20)
(-0.11384262 0.14528237 1.6666331e-20)
(-0.12354556 0.14220607 -3.9425197e-20)
(-0.13370378 0.13869347 1.6865602e-20)
(-0.14424015 0.13476596 7.9318063e-21)
(-0.15504675 0.13041655 -2.4259531e-20)
(-0.1659769 0.12560395 -6.3941474e-20)
(-0.17683631 0.12025459 -1.9508138e-20)
(-0.18737323 0.11427022 1.3168636e-20)
(-0.19726821 0.10753738 3.1294543e-20)
(-0.20612691 0.09993913 3.2238616e-20)
(-0.21348252 0.091372307 3.5490863e-20)
(-0.21881224 0.081778614 7.3904396e-20)
(-0.22158882 0.071196288 -1.9828984e-21)
(-0.22136225 0.059792686 3.0610701e-20)
(-0.21771074 0.047806365 -1.6281392e-19)
(-0.21023055 0.035476447 -4.4509201e-20)
(-0.19847351 0.023099733 -5.0298198e-20)
(-0.18205464 0.011014937 -1.3794071e-19)
(-0.16066079 -0.00054738514 1.6002195e-19)
(-0.13394743 -0.011606364 -3.5608826e-20)
(-0.10129008 -0.022368794 -1.1468687e-19)
(-0.061876907 -0.033089416 -1.4201524e-19)
(-0.0144057 -0.044045527 -1.8319921e-20)
(0.042650645 -0.05589258 4.6648891e-20)
(0.11211631 -0.069661788 7.6780433e-20)
(0.19601887 -0.08689029 -3.31508e-20)
(0.29497714 -0.10663917 6.1816679e-20)
(0.40263315 -0.12697936 -5.3100073e-20)
(0.51394332 -0.14267612 -1.8719149e-20)
(0.61715734 -0.15270236 -5.7433695e-20)
(0.70967623 -0.15212832 2.5744521e-19)
(0.77865676 -0.14466137 8.9843566e-21)
(0.83641431 -0.12629167 1.0809135e-19)
(-0.00036965983 0.001463331 4.471666e-21)
(-0.001143978 0.0045205232 8.0039662e-22)
(-0.0019984948 0.0078823955 -8.8034428e-22)
(-0.0029405208 0.011573258 -4.3310371e-21)
(-0.0039777164 0.015617794 5.2007197e-21)
(-0.0051181974 0.020040605 -4.4232135e-21)
(-0.0063704634 0.024865547 -2.1177e-21)
(-0.0077433197 0.030114891 1.1398231e-22)
(-0.0092458054 0.035808217 1.7977591e-21)
(-0.010887096 0.04196104 1.0259303e-20)
(-0.012676385 0.048583072 -1.7301925e-20)
(-0.014622751 0.055676131 2.0900489e-20)
(-0.016735006 0.063231609 -6.1788468e-21)
(-0.019021548 0.071227539 -8.4509291e-21)
(-0.021490222 0.079625294 1.3086044e-20)
(-0.024148228 0.088366027 -2.6090496e-20)
(-0.027002096 0.097367144 3.2048712e-20)
(-0.030057789 0.10651918 5.0939753e-22)
(-0.033320977 0.11568382 1.9002248e-20)
(-0.036797556 0.12469382 -7.7027258e-20)
(-0.040494437 0.13335624 1.9093123e-20)
(-0.044420626 0.1414599 8.0958585e-20)
(-0.048588527 0.14878839 -3.9320492e-20)
(-0.053015268 0.1551386 -4.8190332e-20)
(-0.057723747 0.16034365 1.2469568e-20)
(-0.062742892 0.16429656 6.691438e-20)
(-0.068106703 0.16696892 -1.041116e-19)
(-0.073851779 0.16841733 1.1825649e-19)
(-0.080011636 0.16877012 -9.524203e-20)
(-0.086607829 0.16818932 1.8642538e-20)
(-0.093651646 0.16681682 -3.2553057e-20)
(-0.10114578 0.16474731 -4.7182221e-20)
(-0.10907047 0.16205241 1.905285e-20)
(-0.11738396 0.1587965 5.0641147e-21)
(-0.12602628 0.15502856 7.258911e-20)
(-0.13491003 0.15077584 -1.4421438e-20)
(-0.14391532 0.14603383 3.7235402e-20)
(-0.15288084 0.1407592 -3.1779075e-20)
(-0.16159511 0.13487121 1.9183049e-20)
(-0.1697873 0.12825981 1.2465835e-20)
(-0.17711927 0.12079756 1.0684107e-20)
(-0.18318325 0.11235562 1.063181e-20)
(-0.18751167 0.10282735 -6.4480308e-20)
(-0.18960265 0.092167306 -5.0239338e-20)
(-0.18898815 0.080446441 1.4116844e-20)
(-0.18527103 0.06786762 -8.7513004e-21)
(-0.17807838 0.054667679 3.6383903e-20)
(-0.1669751 0.041075268 -7.0999048e-20)
(-0.15147039 0.027397362 -8.1601984e-20)
(-0.13119261 0.014020632 -2.3411796e-20)
(-0.1058173 0.0012003545 -6.1409306e-20)
(-0.074878017 -0.011115196 1.9622368e-21)
(-0.037543062 -0.023200497 2.974212e-20)
(0.0072842863 -0.035388239 1.449241e-19)
(0.061268151 -0.048007292 -7.3161543e-20)
(0.12628654 -0.061840877 2.9958715e-20)
(0.20525826 -0.077860008 -8.9459303e-20)
(0.29930543 -0.097162552 1.5399366e-19)
(0.40739287 -0.11795379 -9.0470031e-20)
(0.52145212 -0.1377173 3.256684e-20)
(0.63403742 -0.15127653 -4.9631906e-23)
(0.7327012 -0.15800951 2.7199678e-20)
(0.81423075 -0.15372702 1.0519312e-19)
(0.86880369 -0.14323233 -2.0190134e-19)
(0.90964741 -0.12203333 2.119763e-19)
(-0.00042222752 0.0014739756 -9.8789103e-21)
(-0.0013054149 0.0045567873 -4.51617e-21)
(-0.0022780644 0.007951117 7.0967397e-21)
(-0.0033478334 0.011682972 -1.8700253e-22)
(-0.0045227022 0.015779085 -6.4336185e-21)
(-0.0058109324 0.020266584 -3.3700247e-21)
(-0.0072209717 0.025172397 7.1205663e-21)
(-0.0087613399 0.030522508 -1.1720917e-21)
(-0.010440483 0.036340955 1.6590185e-20)
(-0.0122666 0.042648551 -3.2480315e-21)
(-0.014247426 0.049461245 -8.3408662e-23)
(-0.016389996 0.056788085 1.2088467e-20)
(-0.018700372 0.064628706 -3.905655e-20)
(-0.02118336 0.072970307 1.8378322e-20)
(-0.023842228 0.08178415 3.3315055e-20)
(-0.026678467 0.091021583 -3.6002566e-20)
(-0.029691634 0.10060983 4.500488e-21)
(-0.032879347 0.11044786 -2.6078362e-20)
(-0.036237511 0.12040296 -1.9794197e-20)
(-0.039760885 0.1303089 6.3794228e-20)
(-0.043444058 0.13996691 -4.9187241e-20)
(-0.047282946 0.1491511 6.660495e-20)
(-0.051276694 0.1576196 -8.0716865e-21)
(-0.055429891 0.16513255 3.3939035e-20)
(-0.059754602 0.17147645 -7.6062537e-20)
(-0.064271638 0.17649199 1.853855e-20)
(-0.069010217 0.18009983 4.8075606e-20)
(-0.074005283 0.18231578 -1.1925234e-19)
(-0.079291852 0.18324649 5.3117253e-20)
(-0.084896814 0.183059 5.8363541e-20)
(-0.090829745 0.18192755 -4.9295958e-20)
(-0.097085045 0.17998425 -6.6469329e-21)
(-0.10364584 0.17731673 3.4339805e-20)
(-0.11046864 0.17399313 -1.9355552e-20)
(-0.11748317 0.17007051 3.0166969e-20)
(-0.12459471 0.16558639 -1.0785076e-19)
(-0.13167216 0.16054174 5.7428608e-20)
(-0.13853956 0.15489339 3.4972475e-20)
(-0.14496826 0.14855532 7.2413835e-20)
(-0.15066936 0.14140786 9.5290665e-21)
(-0.15528883 0.13331296 -7.8645965e-20)
(-0.15841055 0.12413505 3.169553e-20)
(-0.15957354 0.11377121 4.6669327e-20)
(-0.15830398 0.10219662 7.354714e-21)
(-0.15418885 0.089514465 -4.4426825e-20)
(-0.14685918 0.075951978 -3.8639516e-20)
(-0.13595639 0.061727894 1.1605081e-19)
(-0.12100577 0.047050515 6.0735959e-20)
(-0.10156105 0.032239676 1.304712e-19)
(-0.077317244 0.017718393 4.5464589e-20)
(-0.047900098 0.0037391111 1.7537827e-20)
(-0.012636002 -0.0098029612 1.2948238e-19)
(0.029615436 -0.02325081 5.1053811e-20)
(0.080329615 -0.036991592 -1.7250761e-19)
(0.14153447 -0.051385117 1.3972813e-19)
(0.21529761 -0.067258115 -1.3000677e-19)
(0.30449074 -0.085311381 6.3519339e-20)
(0.40960648 -0.10602647 -3.1270687e-19)
(0.52721466 -0.12677741 -1.6000351e-19)
(0.64648983 -0.14464764 6.6845697e-20)
(0.75701102 -0.15490081 1.0715602e-19)
(0.84641282 -0.15753856 1.8287445e-19)
(0.91218949 -0.14950889 3.3327262e-20)
(0.94857521 -0.13659787 2.6017123e-20)
(0.97058902 -0.11369422 -2.8339818e-19)
(-0.00046266142 0.0014388797 -1.7734055e-22)
(-0.0014297823 0.0044520707 8.3414744e-21)
(-0.0024936716 0.007774533 -9.8429475e-21)
(-0.0036623119 0.011433359 -4.7424409e-21)
(-0.0049440064 0.015456742 9.5120904e-21)
(-0.0063472188 0.019873803 3.0865541e-21)
(-0.007880458 0.024714095 -1.5002267e-20)
(-0.0095521454 0.030007 1.6188494e-20)
(-0.011370409 0.035780883 3.4266097e-21)
(-0.013342848 0.042061982 1.3687519e-20)
(-0.015476238 0.048872961 -3.6528535e-20)
(-0.017776203 0.056231022 -4.4876907e-22)
(-0.020246829 0.064145561 3.3255712e-20)
(-0.022890247 0.072615203 -3.602069e-20)
(-0.025706204 0.081624261 2.606777e-20)
(-0.028691641 0.091138524 9.7907938e-21)
(-0.031840349 0.10110053 -2.0767923e-20)
(-0.035142768 0.11142452 1.9076754e-20)
(-0.038586043 0.12199157 2.5907504e-20)
(-0.042154454 0.13264575 -5.6443681e-22)
(-0.04583041 0.14319248 -4.2839867e-20)
(-0.049596077 0.15340081 2.7192757e-20)
(-0.053435776 0.16301149 -1.5573538e-20)
(-0.057338911 0.17175252 -7.7522891e-20)
(-0.06130315 0.17936294 -2.6619315e-20)
(-0.065337034 0.18562336 7.4410991e-20)
(-0.069460928 0.19038838 -7.6269602e-21)
(-0.07370517 0.19361242 8.842623e-20)
(-0.078104425 0.195358 -5.3681001e-20)
(-0.082688319 0.19577603 2.8979495e-20)
(-0.087470954 0.19505793 -4.3019552e-20)
(-0.092446774 0.19337881 -1.0692776e-20)
(-0.097588382 0.19086206 5.5128939e-20)
(-0.10284745 0.18759002 -5.8132353e-20)
(-0.10815446 0.1836293 -8.6714893e-20)
(-0.11340678 0.17902474 9.1488366e-21)
(-0.11846165 0.17378251 9.7614888e-20)
(-0.1231296 0.16786141 -1.2706069e-19)
(-0.1271653 0.16117323 2.7924547e-20)
(-0.13026312 0.1535926 -6.0192484e-20)
(-0.13205595 0.14497544 9.3058513e-21)
(-0.13212368 0.1351851 -9.5014782e-20)
(-0.13001575 0.12412835 -4.5593347e-20)
(-0.12528877 0.11180318 -5.6110489e-20)
(-0.11755828 0.098343553 2.247177e-19)
(-0.10647304 0.083986236 7.2441673e-20)
(-0.091668042 0.068931879 -9.5848171e-20)
(-0.072686426 0.05337455 7.7249853e-20)
(-0.049203239 0.037644731 6.3998224e-20)
(-0.020952038 0.022160824 -7.1789563e-20)
(0.012583307 0.0071280464 -3.7363892e-20)
(0.052391043 -0.0076324905 -8.7383324e-20)
(0.10003478 -0.022494322 -4.2467742e-20)
(0.15740944 -0.037867293 1.4567154e-19)
(0.22680326 -0.054065144 8.2696505e-20)
(0.31070836 -0.071833772 1.3384595e-20)
(0.41242253 -0.091456372 -3.4551409e-22)
(0.53061197 -0.11256346 7.6838519e-20)
(0.65738105 -0.1318396 -1.1555811e-19)
(0.77799222 -0.14629609 -1.5261657e-19)
(0.87988126 -0.15232735 -4.3494437e-20)
(0.95248446 -0.15097716 -3.3874259e-19)
(0.99570014 -0.14019034 -2.7514435e-19)
(1.0102752 -0.1263037 -7.1060721e-20)
(1.0129681 -0.1040806 -3.8584102e-20)