/*--------------------------------*- C++ -*----------------------------------*\
  =========                 |
  \\      /  F ield         | OpenFOAM: The Open Source CFD Toolbox
   \\    /   O peration     | Website:  https://openfoam.org
    \\  /    A nd           | Version:  13
     \\/     M anipulation  |
\*---------------------------------------------------------------------------*/
FoamFile
{
    format      ascii;
    class       surfaceScalarField;
    location    "0.06";
    object      phi;
}
// * * * * * * * * * * * * * * * * * * * * * * * * * * * * * * * * * * * * * //

dimensions      [1 0 -1 0 0 0 0];

internalField   nonuniform List<scalar> 
999
(
21.9575
22.0073
22.0571
22.1069
22.1566
22.2063
22.2559
22.3055
22.3551
22.4047
22.4542
22.5036
22.5531
22.6025
22.6518
22.7011
22.7504
22.7997
22.8489
22.898
22.9472
22.9963
23.0453
23.0944
23.1434
23.1923
23.2412
23.2901
23.339
23.3878
23.4365
23.4853
23.534
23.5827
23.6313
23.6799
23.7285
23.7771
23.8256
23.874
23.9225
23.9709
24.0192
24.0675
24.1158
24.164
24.2121
24.2602
24.3083
24.3563
24.4043
24.4522
24.5
24.5479
24.5956
24.6434
24.691
24.7387
24.7863
24.8338
24.8813
24.9287
24.9762
25.0235
25.0708
25.1181
25.1653
25.2125
25.2597
25.3068
25.3538
25.4008
25.4478
25.4947
25.5416
25.5885
25.6353
25.682
25.7287
25.7754
25.822
25.8686
25.9151
25.9616
26.0081
26.0545
26.1008
26.1471
26.1934
26.2397
26.2858
26.332
26.3781
26.4241
26.4701
26.5161
26.562
26.6079
26.6538
26.6995
26.7453
26.791
26.8367
26.8823
26.9278
26.9734
27.0189
27.0643
27.1097
27.155
27.2003
27.2456
27.2908
27.336
27.3811
27.4262
27.4712
27.5162
27.5612
27.6061
27.6509
27.6957
27.7405
27.7852
27.8299
27.8745
27.9191
27.9636
28.0081
28.0526
28.097
28.1413
28.1856
28.2299
28.2741
28.3183
28.3624
28.4065
28.4506
28.4946
28.5386
28.5825
28.6263
28.6702
28.714
28.7577
28.8014
28.8451
28.8887
28.9323
28.9759
29.0194
29.0629
29.1063
29.1497
29.1931
29.2364
29.2797
29.3229
29.3661
29.4093
29.4525
29.4956
29.5387
29.5817
29.6247
29.6677
29.7107
29.7536
29.7965
29.8393
29.8821
29.9249
29.9677
30.0104
30.0531
30.0958
30.1384
30.181
30.2236
30.2662
30.3087
30.3512
30.3936
30.436
30.4784
30.5208
30.5631
30.6054
30.6476
30.6898
30.732
30.7742
30.8163
30.8584
30.9004
30.9424
30.9844
31.0263
31.0682
31.1101
31.1519
31.1937
31.2354
31.2772
31.3188
31.3604
31.402
31.4436
31.4851
31.5266
31.568
31.6094
31.6507
31.692
31.7333
31.7745
31.8157
31.8568
31.8979
31.939
31.98
32.0209
32.0619
32.1027
32.1436
32.1844
32.2251
32.2659
32.3065
32.3471
32.3877
32.4283
32.4688
32.5092
32.5497
32.59
32.6304
32.6706
32.7109
32.7511
32.7913
32.8314
32.8715
32.9115
32.9515
32.9915
33.0314
33.0713
33.1112
33.151
33.1907
33.2305
33.2702
33.3098
33.3494
33.389
33.4286
33.4681
33.5076
33.547
33.5864
33.6258
33.6651
33.7044
33.7437
33.7829
33.8222
33.8613
33.9005
33.9396
33.9787
34.0177
34.0568
34.0958
34.1348
34.1737
34.2126
34.2515
34.2904
34.3293
34.3681
34.4069
34.4457
34.4844
34.5232
34.5619
34.6006
34.6393
34.678
34.7167
34.7553
34.7939
34.8326
34.8712
34.9098
34.9484
34.9869
35.0255
35.0641
35.1027
35.1412
35.1798
35.2183
35.2569
35.2954
35.334
35.3726
35.4111
35.4497
35.4883
35.5269
35.5655
35.6041
35.6427
35.6814
35.72
35.7587
35.7974
35.8361
35.8748
35.9136
35.9524
35.9912
36.03
36.0689
36.1078
36.1467
36.1857
36.2247
36.2637
36.3028
36.342
36.3811
36.4204
36.4596
36.499
36.5384
36.5778
36.6173
36.6568
36.6964
36.7361
36.7759
36.8157
36.8555
36.8955
36.9355
36.9756
37.0158
37.0561
37.0964
37.1369
37.1774
37.218
37.2587
37.2995
37.3404
37.3814
37.4225
37.4638
37.5051
37.5465
37.5881
37.6298
37.6716
37.7135
37.7555
37.7977
37.84
37.8824
37.925
37.9677
38.0106
38.0536
38.0967
38.14
38.1835
38.2271
38.2709
38.3148
38.3589
38.4032
38.4476
38.4923
38.5371
38.582
38.6272
38.6726
38.7181
38.7639
38.8098
38.8559
38.9023
38.9488
38.9956
39.0425
39.0897
39.1371
39.1848
39.2326
39.2807
39.329
39.3776
39.4263
39.4754
39.5246
39.5742
39.6239
39.6739
39.7242
39.7748
39.8256
39.8766
39.928
39.9796
40.0314
40.0836
40.136
40.1888
40.2418
40.2951
40.3486
40.4025
40.4567
40.5112
40.566
40.6211
40.6765
40.7322
40.7882
40.8445
40.9012
40.9582
41.0155
41.0731
41.1311
41.1894
41.248
41.307
41.3663
41.4259
41.4859
41.5463
41.6069
41.668
41.7294
41.7911
41.8532
41.9157
41.9785
42.0417
42.1052
42.1691
42.2334
42.298
42.363
42.4284
42.4942
42.5603
42.6268
42.6937
42.761
42.8286
42.8967
42.9651
43.0339
43.1031
43.1727
43.2426
43.313
43.3837
43.4548
43.5263
43.5983
43.6706
43.7433
43.8163
43.8898
43.9637
44.038
44.1127
44.1877
44.2632
44.339
44.4153
44.492
44.569
44.6465
44.7243
44.8025
44.8812
44.9602
45.0397
45.1195
45.1997
45.2803
45.3613
45.4428
45.5246
45.6068
45.6894
45.7723
45.8557
45.9395
46.0237
46.1082
46.1931
46.2785
46.3642
46.4503
46.5368
46.6237
46.7109
46.7986
46.8866
46.975
47.0638
47.153
47.2425
47.3324
47.4227
47.5134
47.6044
47.6958
47.7876
47.8798
47.9723
48.0652
48.1584
48.252
48.346
48.4403
48.535
48.6301
48.7255
48.8212
48.9173
49.0138
49.1106
49.2077
49.3052
49.403
49.5012
49.5997
49.6986
49.7977
49.8973
49.9971
50.0973
50.1978
50.2986
50.3998
50.5013
50.6031
50.7052
50.8076
50.9104
51.0135
51.1168
51.2205
51.3245
51.4288
51.5334
51.6383
51.7436
51.8491
51.9549
52.0609
52.1673
52.274
52.381
52.4882
52.5958
52.7036
52.8117
52.92
53.0287
53.1376
53.2468
53.3563
53.466
53.576
53.6862
53.7968
53.9075
54.0186
54.1299
54.2414
54.3532
54.4653
54.5776
54.6902
54.803
54.916
55.0293
55.1428
55.2565
55.3705
55.4848
55.5992
55.7139
55.8288
55.9439
56.0593
56.1749
56.2907
56.4067
56.523
56.6394
56.7561
56.873
56.9901
57.1074
57.2249
57.3426
57.4605
57.5786
57.6969
57.8154
57.9341
58.053
58.1721
58.2914
58.4109
58.5305
58.6504
58.7704
58.8906
59.011
59.1316
59.2524
59.3733
59.4944
59.6157
59.7371
59.8587
59.9805
60.1025
60.2246
60.3469
60.4693
60.592
60.7147
60.8376
60.9607
61.084
61.2074
61.3309
61.4546
61.5785
61.7025
61.8266
61.9509
62.0753
62.1999
62.3246
62.4495
62.5745
62.6997
62.8249
62.9503
63.0759
63.2016
63.3274
63.4533
63.5794
63.7056
63.8319
63.9584
64.085
64.2117
64.3385
64.4654
64.5925
64.7197
64.847
64.9744
65.102
65.2296
65.3574
65.4853
65.6133
65.7414
65.8696
65.9979
66.1263
66.2549
66.3835
66.5122
66.6411
66.77
66.8991
67.0282
67.1575
67.2868
67.4163
67.5458
67.6755
67.8052
67.9351
68.065
68.195
68.3251
68.4553
68.5856
68.716
68.8465
68.977
69.1077
69.2384
69.3692
69.5001
69.6311
69.7621
69.8933
70.0245
70.1558
70.2872
70.4187
70.5502
70.6819
70.8136
70.9453
71.0772
71.2091
71.3411
71.4732
71.6053
71.7376
71.8698
72.0022
72.1346
72.2671
72.3997
72.5323
72.665
72.7978
72.9307
73.0636
73.1965
73.3296
73.4627
73.5958
73.729
73.8623
73.9957
74.1291
74.2625
74.3961
74.5296
74.6633
74.797
74.9307
75.0646
75.1984
75.3323
75.4663
75.6003
75.7344
75.8686
76.0027
76.137
76.2713
76.4056
76.54
76.6744
76.8089
76.9435
77.0781
77.2127
77.3474
77.4821
77.6169
77.7518
77.8866
78.0216
78.1565
78.2916
78.4266
78.5617
78.6969
78.8321
78.9673
79.1026
79.2379
79.3733
79.5087
79.6442
79.7797
79.9152
80.0508
80.1864
80.3221
80.4578
80.5935
80.7293
80.8652
81.001
81.1369
81.2728
81.4088
81.5448
81.6809
81.817
81.9531
82.0892
82.2254
82.3617
82.4979
82.6342
82.7706
82.9069
83.0433
83.1798
83.3162
83.4527
83.5893
83.7258
83.8624
83.999
84.1357
84.2724
84.4091
84.5459
84.6826
84.8194
84.9563
85.0932
85.23
85.367
85.5039
85.6409
85.7779
85.915
86.052
86.1891
86.3262
86.4634
86.6005
86.7377
86.875
87.0122
87.1495
87.2868
87.4241
87.5614
87.6988
87.8362
87.9736
88.1111
88.2485
88.386
88.5235
88.661
88.7986
88.9362
89.0738
89.2114
89.349
89.4867
89.6243
89.762
89.8998
90.0375
90.1753
90.313
90.4508
90.5887
90.7265
90.8644
91.0022
91.1401
91.278
91.416
91.5539
91.6919
91.8299
91.9679
92.1059
92.2439
92.3819
92.52
92.6581
92.7962
92.9343
93.0724
93.2106
93.3487
93.4869
93.6251
93.7633
93.9015
94.0397
94.178
94.3163
94.4545
94.5928
94.7311
94.8694
95.0078
95.1461
95.2845
95.4228
95.5612
95.6996
95.838
95.9764
96.1148
96.2533
96.3917
96.5302
96.6687
96.8072
96.9457
97.0842
97.2227
97.3612
97.4997
97.6383
97.7769
97.9154
98.054
98.1926
98.3312
98.4698
98.6084
98.747
98.8857
99.0243
99.163
99.3017
99.4403
99.579
99.7177
99.8564
99.9951
100.134
100.273
100.411
100.55
100.689
100.828
100.966
101.105
101.244
101.383
101.521
101.66
101.799
101.938
102.077
102.215
102.354
102.493
102.632
102.771
102.91
103.049
103.187
103.326
103.465
103.604
103.743
103.882
104.021
104.16
104.299
104.438
104.576
104.715
104.854
104.993
105.132
105.271
105.41
105.549
105.688
105.827
105.966
106.105
106.244
106.383
106.522
106.661
106.8
106.939
107.078
107.217
107.356
107.495
107.634
107.773
107.912
108.051
108.19
108.329
108.468
108.607
)
;

boundaryField
{
    sides
    {
        type            calculated;
        value           nonuniform List<scalar> 2(108.746 -21.9076);
    }
    empty
    {
        type            empty;
    }
}


// ************************************************************************* //
