/*--------------------------------*- C++ -*----------------------------------*\
  =========                 |
  \\      /  F ield         | OpenFOAM: The Open Source CFD Toolbox
   \\    /   O peration     | Website:  https://openfoam.org
    \\  /    A nd           | Version:  13
     \\/     M anipulation  |
\*---------------------------------------------------------------------------*/
FoamFile
{
    format      ascii;
    class       surfaceScalarField;
    location    "32.996547";
    object      phi;
}
// * * * * * * * * * * * * * * * * * * * * * * * * * * * * * * * * * * * * * //

dimensions      [0 3 -1 0 0 0 0];

internalField   nonuniform List<scalar> 
34068
(
-1.0734565e-08
5.7081165e-08
-4.6346599e-08
-4.7789812e-08
1.9725389e-07
-1.6019864e-07
-1.1997332e-07
3.8463487e-07
-3.1245136e-07
-2.3839558e-07
6.3172878e-07
-5.1330651e-07
-4.1701778e-07
9.5402831e-07
-7.7540611e-07
-6.7331828e-07
1.370671e-06
-1.1143705e-06
-1.0290848e-06
1.9052213e-06
-1.5494548e-06
-1.5113615e-06
2.5865955e-06
-2.1043188e-06
-2.1536076e-06
3.4501503e-06
-2.8079043e-06
-2.9970721e-06
4.5389539e-06
-3.6954894e-06
-4.0924236e-06
5.9052459e-06
-4.8098944e-06
-5.5016688e-06
7.6121067e-06
-6.2028615e-06
-7.300394e-06
9.7353222e-06
-7.9365969e-06
-9.5803517e-06
1.2365434e-05
-1.0085476e-05
-1.2452425e-05
1.5609928e-05
-1.2737854e-05
-1.6049953e-05
1.9595482e-05
-1.5997955e-05
-2.0532413e-05
2.4470149e-05
-1.9987688e-05
-2.6089393e-05
3.0405271e-05
-2.4848291e-05
-3.2944735e-05
3.7596832e-05
-3.0741491e-05
-4.1360654e-05
4.6265856e-05
-3.7849936e-05
-5.1641551e-05
5.6657265e-05
-4.6376369e-05
-6.4137075e-05
6.9036521e-05
-5.6540997e-05
-7.9243793e-05
8.3683057e-05
-6.857634e-05
-9.7404674e-05
0.00010087956
-8.2718679e-05
-0.00011910524
0.00012089588
-9.9195322e-05
-0.00014486499
0.00014396687
-0.00011820711
-0.00017522257
0.00017026402
-0.00013990644
-0.00021071303
0.00019986341
-0.00016437295
-0.00025183673
0.00023271665
-0.00019159295
-0.0002990218
0.00026864018
-0.00022145511
-0.000352588
0.00030734949
-0.00025378329
-0.00041272849
0.00034856948
-0.00028842899
-0.0004795309
0.00039222546
-0.00032542304
-0.00055304776
0.00043864472
-0.00036512786
-0.00063339382
0.00048863742
-0.00040829136
-0.0007208254
0.00054340164
-0.00045597006
-0.00081577491
0.00060436488
-0.00050941537
-0.00091885174
0.00067311288
-0.00057003605
-0.0010308381
0.0007514485
-0.00063946218
-0.001152701
0.0008415417
-0.00071967878
-0.0012856321
0.00094613072
-0.00081319962
-0.001431122
0.0010687578
-0.00092326786
-0.0015910766
0.0012140282
-0.0010540736
-0.0017679887
0.0013878865
-0.0012109744
-0.0019651832
0.001597866
-0.0014006715
-0.0021870771
0.0018530089
-0.0016311151
-0.0024394491
0.0021634582
-0.0019110862
-0.0027298929
0.0025400607
-0.0022496169
-0.003068337
0.0029926262
-0.0026541821
-0.0034676081
0.0035260866
-0.0031268155
-0.0039441824
0.0041336627
-0.0036570884
-0.0045190178
0.0047826027
-0.0042077672
-0.0052179558
0.0053889726
-0.0046900346
-0.0060699639
0.0057668276
-0.0049148195
-0.0071005486
0.0055533922
-0.0045228075
-0.0083114659
0.004072055
-0.0028611377
-0.0096292659
0.0001729349
0.0011448651
-0.010850231
-0.0078539632
0.0090749279
-0.01150741
-0.021715891
0.02237307
-0.011001196
-0.041547407
0.041041193
-0.0091512911
-0.062988295
0.06113839
-0.0063390605
-0.077439337
0.074627106
-0.0020747037
-0.070645498
0.066381141
0.0079891484
-0.023399491
0.013335638
0.056159802
0.024692127
-0.072862781
-1.0561417e-08
6.7642582e-08
-4.7020345e-08
2.3371282e-07
-1.180453e-07
4.5565983e-07
-2.3457516e-07
7.4825864e-07
-4.1035069e-07
1.1298038e-06
-6.6256196e-07
1.6228823e-06
-1.0126314e-06
2.2552907e-06
-1.4871571e-06
3.0611212e-06
-2.1190471e-06
4.0820404e-06
-2.9488702e-06
5.368777e-06
-4.026464e-06
6.9828397e-06
-5.4128223e-06
8.9984651e-06
-7.1823139e-06
1.1504814e-05
-9.4252376e-06
1.4608358e-05
-1.225076e-05
1.8435451e-05
-1.579023e-05
2.3134952e-05
-2.0200846e-05
2.8880764e-05
-2.5669631e-05
3.5874056e-05
-3.2417624e-05
4.4344825e-05
-4.0704068e-05
5.4552299e-05
-5.0830339e-05
6.6783536e-05
-6.3143174e-05
8.1349355e-05
-7.8036613e-05
9.8576496e-05
-9.5951781e-05
0.00011879473
-0.00011737342
0.00014231753
-0.00014282176
0.0001694152
-0.00017283803
0.00020028029
-0.00020796202
0.00023498741
-0.00024870086
0.0002734555
-0.00029549069
0.00031543
-0.0003486585
0.00036051731
-0.0004084003
0.00040831127
-0.00047479738
0.00045862254
-0.00054788324
0.00051173058
-0.00062774116
0.00056849534
-0.00071458696
0.00063024744
-0.00080880606
0.00069858397
-0.00091095376
0.00077526058
-0.0010217474
0.00086224215
-0.0011420732
0.0009618675
-0.00127302
0.0010770775
-0.0014159475
0.0012116853
-0.0015725962
0.0013706769
-0.0017452546
0.0015605449
-0.0019369969
0.0017896083
-0.0021519492
0.0020679612
-0.0023955904
0.0024070994
-0.0026752391
0.0028197094
-0.0030006483
0.0033180354
-0.0033847429
0.0039101812
-0.0038446727
0.0045935926
-0.0044031691
0.005341099
-0.0050897943
0.0060755978
-0.0059404683
0.0066175016
-0.0069932196
0.0066061435
-0.0082687593
0.0053475947
-0.0097136738
0.0016178493
-0.011127046
-0.0064405906
-0.011929053
-0.020913885
-0.011410688
-0.042065772
-0.0094825032
-0.06491648
-0.0066626349
-0.080259205
-0.0028992607
-0.074408872
0.0052748568
-0.031573608
0.041239774
0.020194885
-1.0231077e-08
7.787366e-08
-4.5554371e-08
2.6903611e-07
-1.1437356e-07
5.2447902e-07
-2.2729257e-07
8.6117765e-07
-3.9763056e-07
1.3001418e-06
-6.4204972e-07
1.8673015e-06
-9.8131227e-07
2.5945533e-06
-1.4411994e-06
3.5210083e-06
-2.0536067e-06
4.6944477e-06
-2.8578624e-06
6.1730327e-06
-3.9022852e-06
8.0272626e-06
-5.2460324e-06
1.0342212e-05
-6.9612552e-06
1.3220037e-05
-9.135614e-06
1.6782717e-05
-1.1875153e-05
2.117499e-05
-1.530757e-05
2.6567369e-05
-1.9585854e-05
3.3159049e-05
-2.489226e-05
4.1180461e-05
-3.1442502e-05
5.0895067e-05
-3.9490041e-05
6.2599837e-05
-4.9330146e-05
7.6623641e-05
-6.130337e-05
9.3322579e-05
-7.5797826e-05
0.00011307095
-9.3249434e-05
0.00013624633
-0.00011413908
0.00016320717
-0.00013898515
0.00019426127
-0.00016832985
0.00022962499
-0.00020271742
0.00026937499
-0.00024266322
0.00031340129
-0.00028861468
0.00036138147
-0.00034091083
0.00041281346
-0.00039975523
0.00046715567
-0.00046522501
0.00052409233
-0.0005373314
0.00058383697
-0.00061611637
0.00064728031
-0.00070173965
0.00071587072
-0.0007945203
0.00079136463
-0.00089493711
0.00087567738
-0.0010036161
0.00097092116
-0.0011213299
0.0010795813
-0.001249022
0.0012047696
-0.0013878641
0.0013505274
-0.0015393544
0.0015221672
-0.0017054716
0.0017266621
-0.0018888942
0.0019730309
-0.002093246
0.002272313
-0.0023234123
0.0026372657
-0.0025860254
0.0030823224
-0.0028900599
0.00362207
-0.0032476618
0.0042677831
-0.0036753852
0.0050213159
-0.0041958937
0.0058616076
-0.0048397935
0.0067194976
-0.0056461084
0.0074238165
-0.0066602837
0.0076203187
-0.0079158585
0.0066031696
-0.0093745672
0.0030765581
-0.010791006
-0.0050241517
-0.011527186
-0.020177705
-0.010760863
-0.042832095
-0.0084611641
-0.067216179
-0.0053358425
-0.083384527
-0.0015557183
-0.078188997
0.0056214254
-0.038750752
0.027652237
0.019208962
-9.7365226e-09
8.7610183e-08
-4.3360596e-08
3.0266019e-07
-1.0887984e-07
5.8999826e-07
-2.1639808e-07
9.686959e-07
-3.7860648e-07
1.4623502e-06
-6.1138032e-07
2.1000753e-06
-9.3450565e-07
2.9176786e-06
-1.3725502e-06
3.9590529e-06
-1.9559183e-06
5.2778158e-06
-2.7221053e-06
6.9392197e-06
-3.7171992e-06
9.0223564e-06
-4.9976501e-06
1.1622663e-05
-6.6323576e-06
1.4854744e-05
-8.7050945e-06
1.8855454e-05
-1.1317309e-05
2.3787204e-05
-1.4591314e-05
2.9841374e-05
-1.8673871e-05
3.7241605e-05
-2.3740121e-05
4.6246711e-05
-2.9997809e-05
5.7152756e-05
-3.7691621e-05
7.0293649e-05
-4.710744e-05
8.603946e-05
-5.8576101e-05
0.00010479124
-7.2476095e-05
0.00012697095
-8.9234468e-05
0.00015300471
-0.00010932475
0.00018329745
-0.00013326057
0.00021819709
-0.00016158305
0.00025794747
-0.0001948402
0.00030263214
-0.00023355667
0.00035211776
-0.0002781944
0.0004060192
-0.00032910931
0.00046372836
-0.00038651771
0.00052456408
-0.00045049548
0.00058807009
-0.00052102892
0.00065437041
-0.00059810875
0.00072436013
-0.00068182228
0.00079958424
-0.00077240142
0.00088194377
-0.00087022414
0.0009735001
-0.00097579648
0.0010764935
-0.0010897419
0.0011935267
-0.0012128123
0.0013278401
-0.0013459298
0.0014836448
-0.0014902651
0.0016665025
-0.0016473703
0.0018837673
-0.0018193657
0.0021450263
-0.002009137
0.0024620843
-0.0022206425
0.0028487711
-0.0024593375
0.0033210175
-0.0027327048
0.0038954373
-0.0030510463
0.0045861246
-0.0034287276
0.0053989972
-0.0038859425
0.0063188225
-0.0044506824
0.0072842376
-0.0051596015
0.0081327356
-0.0060579314
0.0085186487
-0.0071818032
0.0077270414
-0.0084902895
0.0043850443
-0.0096887637
-0.0038256775
-0.010057856
-0.019808613
-0.0086741728
-0.044215778
-0.0056621456
-0.070228206
-0.002012687
-0.087033985
0.0020577092
-0.082259393
0.0089759374
-0.04566898
0.014738016
0.021890158
-9.0759774e-09
9.668616e-08
-4.0427386e-08
3.340116e-07
-1.0153042e-07
6.5110129e-07
-2.0181908e-07
1.0689846e-06
-3.5314377e-07
1.6136749e-06
-5.7033167e-07
2.3172632e-06
-8.7186287e-07
3.2192098e-06
-1.2806937e-06
4.3678837e-06
-1.8252392e-06
5.8223613e-06
-2.5405635e-06
7.6545441e-06
-3.4697876e-06
9.9515805e-06
-4.6657738e-06
1.2818649e-05
-6.193097e-06
1.6382067e-05
-8.1303716e-06
2.0792728e-05
-1.0572933e-05
2.6229765e-05
-1.3635928e-05
3.2904369e-05
-1.7457794e-05
4.1063471e-05
-2.2204143e-05
5.0993061e-05
-2.8071971e-05
6.3020583e-05
-3.5294075e-05
7.7515753e-05
-4.4143475e-05
9.488886e-05
-5.4937511e-05
0.00011558527
-6.8041071e-05
0.00014007451
-8.3868259e-05
0.0001688319
-0.00010288136
0.00020231055
-0.00012558573
0.00024090147
-0.00015251881
0.00028488055
-0.00018423107
0.0003343444
-0.00022125702
0.00038914372
-0.00026407583
0.00044883801
-0.00031306512
0.00051271764
-0.00036845974
0.00057995869
-0.00043033811
0.00064994847
-0.00049866017
0.00072269247
-0.00057335603
0.00079905599
-0.00065442374
0.00088065196
-0.0007419859
0.00096950593
-0.00083629344
0.0010678076
-0.00093770151
0.0011779016
-0.0010466463
0.0013024715
-0.0011636391
0.0014448329
-0.0012892862
0.0016092919
-0.0014243402
0.0018015565
-0.0015697984
0.0020292255
-0.0017270401
0.002302268
-0.0018979581
0.0026330023
-0.0020852084
0.0030360214
-0.0022925082
0.0035283174
-0.0025250113
0.0041279403
-0.0027899043
0.0048510176
-0.0030974083
0.0057065012
-0.0034622026
0.0066836167
-0.0039048958
0.0077269307
-0.0044524396
0.0086802794
-0.0051389565
0.0092051655
-0.0059861474
0.0085742323
-0.0069235798
0.0053224766
-0.0075794952
-0.0031697621
-0.0071039491
-0.020284159
-0.0045491678
-0.046770559
-0.00035294187
-0.074424432
0.0039416789
-0.091328606
0.0082548343
-0.086572548
0.015319068
-0.052733214
0.0017685549
0.028288529
-8.2499372e-09
1.049361e-07
-3.6757843e-08
3.625195e-07
-9.233404e-08
7.0667749e-07
-1.8357341e-07
1.1602239e-06
-3.2127554e-07
1.7513771e-06
-5.1895505e-07
2.5149427e-06
-7.9346432e-07
3.4937191e-06
-1.1657428e-06
4.7401621e-06
-1.6617294e-06
6.3183479e-06
-2.3134521e-06
8.3062668e-06
-3.1603356e-06
1.0798464e-05
-4.2507618e-06
1.3909076e-05
-5.643922e-06
1.7775227e-05
-7.4119891e-06
2.2560795e-05
-9.6426624e-06
2.8460439e-05
-1.244211e-05
3.5703816e-05
-1.5938332e-05
4.4559694e-05
-2.0284947e-05
5.5339675e-05
-2.5665357e-05
6.8400994e-05
-3.2297237e-05
8.4147632e-05
-4.0437118e-05
0.00010302874
-5.0384862e-05
0.00012553302
-6.2487492e-05
0.00015217714
-7.7141708e-05
0.00018348611
-9.4794136e-05
0.00021996298
-0.0001159378
0.00026204513
-0.0001411031
0.00031004584
-0.00017084081
0.00036408211
-0.00020569503
0.00042399794
-0.00024616419
0.00048930717
-0.00029265205
0.0005592055
-0.00034541804
0.00063272468
-0.00040454836
0.00070907879
-0.0004699768
0.00078812091
-0.00054156478
0.00087064397
-0.00061920428
0.00095829146
-0.00070288517
0.0010531868
-0.00079270337
0.0011576258
-0.00088883027
0.0012740285
-0.00099147449
0.0014051157
-0.0011008548
0.0015542132
-0.0012171923
0.0017256294
-0.0013407265
0.0019250907
-0.0014717635
0.0021602625
-0.0016107406
0.0024412451
-0.0017582828
0.0027805446
-0.0019153287
0.0031930672
-0.0020832304
0.003696219
-0.0022638531
0.0043085631
-0.0024597793
0.0050469438
-0.0026747414
0.0059214633
-0.0029141684
0.0069230438
-0.0031852524
0.0079980147
-0.003495313
0.00899034
-0.0038540956
0.0095639482
-0.0042419914
0.008962128
-0.0045156776
0.0055961629
-0.0041546075
-0.0035308321
-0.0020901666
-0.0223486
0.0024995674
-0.051360293
0.0084124255
-0.08033729
0.013373126
-0.096289307
0.01760302
-0.090802442
0.024774826
-0.05990502
-0.011729716
0.038273097
-7.2651306e-09
1.1220123e-07
-3.2382179e-08
3.8763655e-07
-8.1366024e-08
7.5566133e-07
-1.6181013e-07
1.240668e-06
-2.8325898e-07
1.8728259e-06
-4.5766336e-07
2.6893471e-06
-6.9993229e-07
3.735988e-06
-1.0286054e-06
5.0688353e-06
-1.4666669e-06
6.7564094e-06
-2.0425277e-06
8.8821276e-06
-2.7912073e-06
1.1547143e-05
-3.7557544e-06
1.4873623e-05
-4.9889275e-06
1.90084e-05
-6.5552109e-06
2.4127079e-05
-8.5331717e-06
3.04384e-05
-1.1018224e-05
3.8188868e-05
-1.4125831e-05
4.76673e-05
-1.7995154e-05
5.9208999e-05
-2.2793147e-05
7.3198986e-05
-2.8719062e-05
9.0073547e-05
-3.6009237e-05
0.00011031892
-4.4941886e-05
0.00013446567
-5.5841606e-05
0.00016307686
-6.9082899e-05
0.0001967274
-8.5091755e-05
0.00023597183
-0.00010434409
0.00028129747
-0.00012735898
0.00033306073
-0.00015468438
0.00039140751
-0.00018687243
0.00045618599
-0.00022444174
0.00052687647
-0.00026782599
0.00060258975
-0.00031731536
0.00068221406
-0.00037301035
0.00076477378
-0.00043482117
0.00084993173
-0.00050253463
0.00093835743
-0.00057592051
0.0010316773
-0.00065481185
0.0011320782
-0.00073911989
0.0012419339
-0.00082879764
0.0013637062
-0.00092378416
0.0015001022
-0.0010239519
0.0016543809
-0.0011290648
0.0018307423
-0.001238749
0.0020347749
-0.001352477
0.0022739905
-0.0014695383
0.0025583065
-0.0015889887
0.0028999949
-0.0017096
0.0033136785
-0.0018296708
0.0038162898
-0.0019467028
0.004425595
-0.002056964
0.005157205
-0.0021549459
0.0060194452
-0.0022323324
0.0070004304
-0.0022756482
0.0080413305
-0.002262249
0.0089769408
-0.0021587947
0.0094604939
-0.0018659177
0.0086692511
-0.0011047569
0.004835002
0.00090617925
-0.0055417682
0.0055796796
-0.0270221
0.013224859
-0.059005473
0.021489266
-0.088601696
0.027282861
-0.1020829
0.031002019
-0.0945216
0.037758146
-0.066661146
-0.025631258
0.051659687
-6.1341978e-09
1.1833543e-07
-2.7354978e-08
4.0885733e-07
-6.8761978e-08
7.9706833e-07
-1.3679627e-07
1.3087023e-06
-2.3955968e-07
1.9755893e-06
-3.8720304e-07
2.8369904e-06
-5.9240128e-07
3.9411862e-06
-8.7093509e-07
5.3473691e-06
-1.2423921e-06
7.1278664e-06
-1.7310254e-06
9.3707608e-06
-2.3667885e-06
1.2182907e-05
-3.1865823e-06
1.5693417e-05
-4.2357668e-06
2.0057585e-05
-5.5699532e-06
2.5461265e-05
-7.2571636e-06
3.212561e-05
-9.3803646e-06
4.0312069e-05
-1.2040457e-05
5.0327393e-05
-1.5359757e-05
6.2528298e-05
-1.9485979e-05
7.7325208e-05
-2.4596706e-05
9.5184274e-05
-3.0904306e-05
0.00011662652
-3.8661109e-05
0.00014222247
-4.8164544e-05
0.00017258029
-5.9761683e-05
0.00020832454
-7.3852442e-05
0.00025006259
-9.0890011e-05
0.00029833504
-0.00011137685
0.00035354757
-0.00013585356
0.00041588422
-0.00016487736
0.00048520979
-0.00019898629
0.0005609854
-0.00023864642
0.00064224988
-0.00028418457
0.00072775221
-0.00033572324
0.00081631245
-0.00039315448
0.00090736298
-0.00045618767
0.0010013906
-0.00052445607
0.0010999457
-0.0005976115
0.0012052336
-0.00067534972
0.0013196721
-0.00075736907
0.0014457256
-0.00084329584
0.001586029
-0.00093260117
0.0017436863
-0.0010245183
0.0019226594
-0.0011179573
0.002128214
-0.0012114097
0.0023674428
-0.0013028061
0.0026497029
-0.0013893172
0.002986506
-0.001467069
0.0033914303
-0.0015305622
0.003879783
-0.0015717531
0.004466786
-0.0015786716
0.0051641234
-0.0015334722
0.0059742457
-0.0014090939
0.0068760521
-0.0011632984
0.007795535
-0.00073291508
0.0085465575
-1.5726354e-05
0.0087433051
0.0012085729
0.0074449518
0.0034530173
0.0025905576
0.0079316291
-0.01002038
0.016138182
-0.035228653
0.02760753
-0.070474821
0.03858439
-0.099578556
0.045617102
-0.10911562
0.048963773
-0.09786827
0.054781096
-0.072478469
-0.039334305
0.068484143
-4.876923e-09
1.2321235e-07
-2.1764561e-08
4.2574497e-07
-5.4742515e-08
8.3004629e-07
-1.089687e-07
1.3629285e-06
-1.9093677e-07
2.0575574e-06
-3.0879251e-07
2.9548462e-06
-4.7272419e-07
4.1051179e-06
-6.954356e-07
5.5700805e-06
-9.9273151e-07
7.4251623e-06
-1.3842281e-06
9.7622575e-06
-1.8942247e-06
1.2692903e-05
-2.5527644e-06
1.6351956e-05
-3.3969314e-06
2.0901752e-05
-4.4724065e-06
2.653674e-05
-5.835375e-06
3.3488578e-05
-7.5548051e-06
4.20315e-05
-9.7151857e-06
5.2487773e-05
-1.2419751e-05
6.5232864e-05
-1.5794313e-05
8.069977e-05
-1.9991651e-05
9.9381613e-05
-2.5196489e-05
0.00012183135
-3.1631005e-05
0.00014865699
-3.9560568e-05
0.00018050985
-4.9299367e-05
0.00021806334
-6.1215171e-05
0.00026197839
-7.5732089e-05
0.00031285196
-9.3329508e-05
0.00037114499
-0.00011453459
0.0004370893
-0.00013990465
0.00051057985
-0.00016999436
0.00059107511
-0.00020530271
0.00067755823
-0.00024619797
0.00076864746
-0.00029283329
0.00086294777
-0.00034509098
0.00095962067
-0.0004026042
0.0010589038
-0.00046485848
0.0011622
-0.00053130084
0.0012716759
-0.00060137976
0.001389751
-0.00067450152
0.0015188473
-0.0007499354
0.0016614628
-0.00082669586
0.0018204467
-0.00090341143
0.001999375
-0.00097817299
0.0022029756
-0.0010483422
0.002437612
-0.0011102726
0.0027116333
-0.0011589265
0.0030351599
-0.0011872813
0.0034197851
-0.0011852476
0.0038777493
-0.0011379589
0.0044194973
-0.0010231048
0.0050492693
-0.00080718279
0.0057583237
-0.00043916285
0.0065080322
0.0001584183
0.0071979538
0.0011064656
0.0075985102
0.0026038189
0.0072459518
0.0050357786
0.0050129921
0.0092612633
-0.0016349271
0.016945393
-0.01770451
0.029092265
-0.047375525
0.043613858
-0.084996413
0.055983875
-0.11194857
0.064371177
-0.11750292
0.069302566
-0.10279966
0.075558098
-0.078734002
-0.052697431
0.088921224
-3.5186994e-09
1.2673105e-07
-1.5723664e-08
4.3794993e-07
-3.9589973e-08
8.5391259e-07
-7.8885629e-08
1.4022242e-06
-1.3836392e-07
2.1170356e-06
-2.2400041e-07
3.0404827e-06
-3.4328859e-07
4.2244061e-06
-5.0560093e-07
5.7323928e-06
-7.2264209e-07
7.6422035e-06
-1.0089999e-06
1.0048615e-05
-1.3828426e-06
1.3066746e-05
-1.8667623e-06
1.6835876e-05
-2.4888362e-06
2.1523826e-05
-3.2839299e-06
2.7331834e-05
-4.2953064e-06
3.4499955e-05
-5.5766078e-06
4.3312801e-05
-7.1942719e-06
5.4105437e-05
-9.230501e-06
6.7269093e-05
-1.1786807e-05
8.3256076e-05
-1.4988271e-05
0.00010258308
-1.8988529e-05
0.00012583161
-2.3975468e-05
0.00015364393
-3.0177543e-05
0.00018671193
-3.7870391e-05
0.00022575619
-4.7383226e-05
0.00027149123
-5.9103873e-05
0.00032457261
-7.3480943e-05
0.00038552206
-9.102036e-05
0.00045462872
-0.00011227228
0.00053183177
-0.00013780251
0.00061660534
-0.00016814062
0.00070789634
-0.00020369929
0.00080420614
-0.00024467073
0.00090391921
-0.00029093848
0.0010058884
-0.00034206598
0.0011100313
-0.00039738429
0.0012175183
-0.00045611419
0.0013304058
-0.00051742495
0.0014510618
-0.0005803926
0.001581815
-0.00064388452
0.0017249548
-0.0007064032
0.0018829654
-0.00076589898
0.0020588708
-0.00081954057
0.0022566172
-0.00086341012
0.0024814815
-0.00089206161
0.0027402848
-0.00089791522
0.0030410135
-0.00087027283
0.0033921427
-0.00079361502
0.0038010915
-0.00064487428
0.0042707566
-0.00038919882
0.0047935939
2.5936458e-05
0.0053431884
0.00067854487
0.0058554238
0.001695909
0.0061805896
0.0032758103
0.006018609
0.0057327036
0.0047890585
0.0096706787
0.0010750171
0.016436297
-0.0084005453
0.027842982
-0.029111195
0.043322526
-0.06285507
0.058558789
-0.10023268
0.069503696
-0.12289348
0.077327559
-0.12532678
0.084877756
-0.11034986
0.095157618
-0.089013864
-0.068509248
0.11096944
-2.0945742e-09
1.2882562e-07
-9.3877717e-09
4.4524313e-07
-2.3694247e-08
8.6821907e-07
-4.7320809e-08
1.4258507e-06
-8.3190505e-08
2.1529053e-06
-1.3499671e-07
3.0922889e-06
-2.0739662e-07
4.296806e-06
-3.062571e-07
5.8312533e-06
-4.3896159e-07
7.774908e-06
-6.1480089e-07
1.0224455e-05
-8.4546508e-07
1.329741e-05
-1.1456765e-06
1.7136088e-05
-1.533979e-06
2.1912128e-05
-2.0337649e-06
2.783162e-05
-2.6745484e-06
3.5140738e-05
-3.4936099e-06
4.4131863e-05
-4.5380702e-06
5.5149898e-05
-5.8674745e-06
6.8598497e-05
-7.5570414e-06
8.4945642e-05
-9.7016629e-06
0.0001047277
-1.2420789e-05
0.00012855074
-1.5864197e-05
0.00015708733
-2.021876e-05
0.00019106649
-2.5715949e-05
0.00023125338
-3.2639661e-05
0.00027841494
-4.1333626e-05
0.00033326657
-5.2206783e-05
0.00039639522
-6.5734149e-05
0.00046815609
-8.2448857e-05
0.00054854648
-0.0001029188
0.00063707528
-0.00012769809
0.00073267563
-0.00015724348
0.00083375152
-0.00019179349
0.00093846922
-0.00023124681
0.0010453417
-0.00027510732
0.0011538919
-0.00032255284
0.0012649638
-0.00037255948
0.0013804125
-0.00042398621
0.0015024885
-0.00047554
0.0016333688
-0.0005256412
0.001775056
-0.00057222493
0.0019295491
-0.00061249016
0.002099136
-0.00064258015
0.0022867071
-0.00065714445
0.0024960458
-0.0006487093
0.0027318497
-0.00060679521
0.0029990994
-0.00051646349
0.003301811
-0.0003558426
0.0036404706
-9.2138045e-05
0.004007052
0.00032439783
0.004377058
0.00096731792
0.0047002683
0.0019560304
0.0048667113
0.0034859032
0.0046507169
0.0058226331
0.003681879
0.0094360568
0.0011756348
0.015304044
-0.0047929701
0.025256018
-0.018352519
0.040350721
-0.044205898
0.057417433
-0.079921781
0.070631938
-0.11344718
0.078496616
-0.13075816
0.084082481
-0.13091265
0.091966894
-0.11823427
0.10505722
-0.10210419
-0.088209375
0.12475734
-6.4394965e-10
1.2946957e-07
-2.9314466e-09
4.4753063e-07
-7.4910638e-09
8.7277869e-07
-1.513756e-08
1.4334972e-06
-2.69222e-08
2.16469e-06
-4.4205628e-08
3.1095723e-06
-6.8745638e-08
4.321346e-06
-1.0282046e-07
5.8653281e-06
-1.4939016e-07
7.8214777e-06
-2.1231214e-07
1.0287377e-05
-2.9663538e-07
1.3381733e-05
-4.0898551e-07
1.7248438e-05
-5.5809429e-07
2.2061237e-05
-7.5550322e-07
2.8029029e-05
-1.0165021e-06
3.5401737e-05
-1.3613859e-06
4.4476746e-05
-1.8171068e-06
5.5605619e-05
-2.4194582e-06
6.9200849e-05
-3.2159178e-06
8.5742102e-05
-4.2692825e-06
0.00010578106
-5.6623001e-06
0.00012994376
-7.5034179e-06
0.00015892845
-9.933732e-06
0.00019349681
-1.3135181e-05
0.00023445483
-1.7339676e-05
0.00028261944
-2.2838584e-05
0.00033876548
-2.9991265e-05
0.0004035479
-3.9230266e-05
0.00047739509
-5.1059008e-05
0.00056037522
-6.603468e-05
0.00065205095
-8.4725226e-05
0.00075136618
-0.00010762882
0.00085665511
-0.00013503468
0.00096587509
-0.00016685753
0.0010771646
-0.00020257649
0.0011896108
-0.00024121344
0.0013036008
-0.00028148787
0.0014206869
-0.00032192163
0.0015429223
-0.00036081432
0.0016722615
-0.000396093
0.0018103347
-0.00042506918
0.0019585253
-0.0004441154
0.0021181822
-0.00044824135
0.0022908331
-0.00043050048
0.002478305
-0.00038114134
0.0026824906
-0.00028637162
0.0029043297
-0.0001263525
0.0031417919
0.00012832219
0.0033857959
0.00052192906
0.0036134452
0.0011216464
0.0037773407
0.0020318876
0.0037900271
0.0034367485
0.0034618504
0.0055816044
0.002505861
0.0088343867
0.00042909671
0.013945614
-0.0039355924
0.022440632
-0.013287988
0.036060663
-0.031972549
0.053649688
-0.061794924
0.069590306
-0.095862399
0.079038127
-0.122895
0.083711154
-0.13543118
0.087725211
-0.1349267
0.095135467
-0.12564453
0.10794972
-0.11491844
-0.10782121
0.12756156
7.8394028e-10
1.2868563e-07
3.4255863e-09
4.4488898e-07
8.4665351e-09
8.6773774e-07
1.6567247e-08
1.4253965e-06
2.8523383e-08
2.1527338e-06
4.5283385e-08
3.0928123e-06
6.7957509e-08
4.2986719e-06
9.7821383e-08
5.8354643e-06
1.3629986e-07
7.7829992e-06
1.8492505e-07
1.0238751e-05
2.4525623e-07
1.3321402e-05
3.1872443e-07
1.717497e-05
4.0639766e-07
2.1973564e-05
5.0859649e-07
2.792683e-05
6.2432334e-07
3.528601e-05
7.5042362e-07
4.4350646e-05
8.8038049e-07
5.5475662e-05
1.0026033e-06
6.9078626e-05
1.098101e-06
8.5646604e-05
1.137287e-06
0.00010574188
1.0757623e-06
0.00013000528
8.4881854e-07
0.0001591554
3.6446426e-07
0.00019398116
-5.0509704e-07
0.00023532439
-1.9336151e-06
0.00028404796
-4.1520051e-06
0.00034098387
-7.459728e-06
0.00040685562
-1.2234161e-05
0.00048216952
-1.8933807e-05
0.00056707487
-2.8087941e-05
0.00066120509
-4.0258956e-05
0.0007635372
-5.5958665e-05
0.00087235482
-7.5549625e-05
0.00098546605
-9.8958058e-05
0.001100573
-0.00012570411
0.0012163569
-0.00015461347
0.0013325102
-0.00018417123
0.0014502447
-0.00021253045
0.0015712815
-0.00023754702
0.001697278
-0.00025660654
0.0018293942
-0.00026633712
0.0019682559
-0.00026220302
0.0021140481
-0.00023795783
0.0022665879
-0.00018486608
0.0024252132
-9.0585695e-05
0.0025882102
6.2514266e-05
0.0027512297
0.00030009262
0.0029042135
0.00066076682
0.0030251217
0.001203375
0.003070837
0.0020182487
0.0029624669
0.0032642113
0.0025440645
0.0051771132
0.0015489485
0.008062591
-0.00037961674
0.012551223
-0.0040595353
0.019881764
-0.011266133
0.031803306
-0.025209531
0.048538935
-0.048708178
0.065943753
-0.079199742
0.078032866
-0.10795151
0.083619086
-0.12848122
0.086331015
-0.13814311
0.090020566
-0.13861625
0.097557647
-0.13318161
0.11009405
-0.12745484
-0.12587129
0.12814413
2.1368141e-09
1.2654882e-07
9.4527373e-09
4.3757306e-07
2.3603544e-08
8.5358693e-07
4.6653287e-08
1.4023468e-06
8.1158981e-08
2.1182282e-06
1.3026677e-07
3.0437045e-06
1.9782518e-07
4.2311135e-06
2.8850113e-07
5.7447883e-06
4.0791344e-07
7.6635869e-06
5.6275805e-07
1.0083907e-05
7.6092773e-07
1.3123232e-05
1.0116044e-06
1.6924293e-05
1.3253004e-06
2.1659868e-05
1.7138076e-06
2.7538323e-05
2.190005e-06
3.4809813e-05
2.7674495e-06
4.3773202e-05
3.459664e-06
5.4783447e-05
4.2789603e-06
6.8259329e-05
5.2346711e-06
8.4690894e-05
6.3305526e-06
0.000104646
7.5611162e-06
0.00012877472
8.9066103e-06
0.0001578099
1.0326357e-05
0.00019256141
1.1750154e-05
0.00023390059
1.3067722e-05
0.00028273039
1.4116163e-05
0.00033993543
1.466634e-05
0.00040630544
1.4409897e-05
0.00048242596
1.2950731e-05
0.00056853403
9.8086263e-06
0.00066434719
4.4426676e-06
0.00076890316
-3.6661037e-06
0.00088046359
-1.4788922e-05
0.00099658887
-2.9085647e-05
0.0011148697
-4.6097695e-05
0.0012333689
-6.4493629e-05
0.0013509061
-8.2403373e-05
0.0014681544
-9.7659443e-05
0.0015865376
-0.00010764101
0.0017072596
-0.00010913871
0.0018308919
-9.8028278e-05
0.0019571455
-6.8766644e-05
0.0020847865
-1.3693094e-05
0.0022115144
7.7973383e-05
0.0023335467
0.00022163003
0.0024445535
0.0004395082
0.0025333516
0.00076461096
0.0025791108
0.0012476133
0.0025421194
0.0019673179
0.0023511324
0.0030539058
0.0018758791
0.0047265593
0.00087141096
0.0072693002
-0.00099379241
0.011220775
-0.0043310914
0.017685224
-0.010523984
0.028185413
-0.021766322
0.043436813
-0.040460931
0.060911617
-0.066182982
0.074871621
-0.093159746
0.082320598
-0.11540049
0.085500283
-0.13166091
0.087741719
-0.14038455
0.091894327
-0.14276886
0.099818357
-0.14110564
0.11216372
-0.1398002
-0.14270487
0.1289973
3.3627066e-09
1.2318611e-07
1.4915504e-08
4.2602026e-07
3.7327125e-08
8.3117531e-07
7.3939429e-08
1.3657345e-06
1.289116e-07
2.063256e-06
2.0739702e-07
2.9652191e-06
3.1573818e-07
4.1227723e-06
4.6170313e-07
5.5988234e-06
6.547438e-07
7.4705462e-06
9.0628608e-07
9.8323644e-06
1.2300395e-06
1.2799479e-05
1.6423263e-06
1.6512006e-05
2.1623788e-06
2.1139815e-05
2.8126285e-06
2.6888073e-05
3.6188816e-06
3.400356e-05
4.6103603e-06
4.2781723e-05
5.8194727e-06
5.3574335e-05
7.281258e-06
6.6797544e-05
9.0322097e-06
8.2939942e-05
1.1108405e-05
0.0001025698
1.3542548e-05
0.00012634057
1.6359657e-05
0.00015499279
1.9571019e-05
0.00018935005
2.3166027e-05
0.00023030559
2.7101596e-05
0.00027879482
3.1289125e-05
0.0003357479
3.5579368e-05
0.0004020152
3.9746661e-05
0.00047825867
4.3475862e-05
0.00056480483
4.6358711e-05
0.00066146434
4.7919854e-05
0.00076734201
4.7677483e-05
0.00088070596
4.5156166e-05
0.00099911019
4.0220793e-05
0.0011198051
3.3717867e-05
0.0012398718
2.6813949e-05
0.00135781
2.1419149e-05
0.0014735492
2.0185515e-05
0.0015877712
2.6303718e-05
0.0017011414
4.3632547e-05
0.0018135631
7.7136298e-05
0.0019236417
0.0001335007
0.0020284221
0.00022203317
0.0021229819
0.00035598301
0.0021995969
0.00055454767
0.0022459889
0.00084591072
0.0022419885
0.0012730589
0.0021519626
0.0019039812
0.001911197
0.0028508918
0.0014042218
0.0043035402
0.00042323069
0.0065395938
-0.0013646426
0.010050294
-0.0045044929
0.015844223
-0.01012502
0.025285986
-0.019965748
0.039053235
-0.03553357
0.055599108
-0.057006805
0.070325659
-0.080909534
0.079276748
-0.10211083
0.083670847
-0.11979459
0.086182209
-0.13417227
0.088818613
-0.14302095
0.093608934
-0.14755918
0.10186421
-0.14936092
0.11394625
-0.15188224
-0.1584879
0.12972928
4.3979821e-09
1.1878813e-07
1.9534113e-08
4.1088413e-07
4.8939429e-08
8.0176999e-07
9.7042867e-08
1.317631e-06
1.6937183e-07
1.990927e-06
2.7278699e-07
2.8618039e-06
4.1576524e-07
3.9797941e-06
6.0872593e-07
5.4058627e-06
8.6440707e-07
7.2148651e-06
1.1983002e-06
9.4984713e-06
1.6291305e-06
1.2368649e-05
2.1793855e-06
1.5961751e-05
2.8758834e-06
2.0443318e-05
3.7503343e-06
2.6013622e-05
4.8398985e-06
3.2913995e-05
6.1876399e-06
4.1433982e-05
7.8428276e-06
5.1919147e-05
9.8609182e-06
6.4779453e-05
1.2303142e-05
8.0497718e-05
1.5235347e-05
9.9637596e-05
1.8725947e-05
0.00012284997
2.2842517e-05
0.00015087622
2.7646691e-05
0.00018454588
3.3186838e-05
0.00022476544
3.9488121e-05
0.00027249354
4.6539553e-05
0.00032869647
5.4278129e-05
0.00039427662
6.2570888e-05
0.00046996591
7.1197367e-05
0.00055617835
7.9838058e-05
0.00065282365
8.8078208e-05
0.00075910186
9.5437636e-05
0.00087334653
0.00010155855
0.00099298927
0.00010670489
0.0011146588
0.0001112881
0.0012352886
0.00011627936
0.0013528187
0.00012404486
0.0014657837
0.00013765093
0.0015741651
0.00016081874
0.0016779736
0.00019815401
0.0017762278
0.00025558838
0.0018662073
0.00034116871
0.0019428417
0.00046624135
0.0019979092
0.00064724309
0.0020185952
0.00090850674
0.0019847252
0.0012868115
0.0018636838
0.0018407417
0.0015980324
0.0026682415
0.0010836972
0.0039341671
0.00013829626
0.0059077232
-0.0015503254
0.0090628077
-0.0045197271
0.014341134
-0.0097828193
0.022985876
-0.018769762
0.035509283
-0.032489155
0.050680362