/*--------------------------------*- C++ -*----------------------------------*\
  =========                 |
  \\      /  F ield         | OpenFOAM: The Open Source CFD Toolbox
   \\    /   O peration     | Website:  https://openfoam.org
    \\  /    A nd           | Version:  13
     \\/     M anipulation  |
\*---------------------------------------------------------------------------*/
FoamFile
{
    format      ascii;
    class       volVectorField;
    location    "18.102409";
    object      UMean;
}
// * * * * * * * * * * * * * * * * * * * * * * * * * * * * * * * * * * * * * //

dimensions      [0 1 -1 0 0 0 0];

internalField   nonuniform List<vector> 
17140
(
(-2.742946e-06 0.00011157904 -2.005051e-22)
(-3.7144564e-05 0.0003432108 -1.6708316e-23)
(-0.00011199403 0.0005963115 1.1043331e-21)
(-0.00024312555 0.00087227365 -1.2145585e-21)
(-0.00044487371 0.0011725889 1.4205987e-22)
(-0.00073685696 0.0014985842 -4.6510621e-22)
(-0.0011432148 0.0018513666 -7.8352882e-22)
(-0.001693118 0.002231722 3.8316789e-22)
(-0.0024217041 0.0026399921 1.2550333e-21)
(-0.0033709968 0.0030759282 3.0822477e-21)
(-0.0045908311 0.0035385214 -4.5795873e-21)
(-0.0061397424 0.0040258127 4.0901854e-21)
(-0.0080857592 0.0045346903 6.2708916e-22)
(-0.010506991 0.0050606801 -3.563647e-21)
(-0.013491886 0.0055977564 3.9708188e-22)
(-0.017138994 0.0061381893 -3.1626256e-21)
(-0.021556067 0.006672478 1.1901342e-22)
(-0.026858345 0.0071894052 -2.6027469e-23)
(-0.03316587 0.0076762737 -1.9072775e-21)
(-0.040599842 0.0081193745 2.4956505e-21)
(-0.049278149 0.0085047261 -1.2104227e-21)
(-0.059310492 0.0088190939 2.345996e-22)
(-0.07079373 0.0090512226 1.734642e-21)
(-0.083808779 0.0091931757 -1.7406154e-21)
(-0.098421561 0.0092415815 -2.7918313e-21)
(-0.11468428 0.0091986105 2.2648079e-21)
(-0.13263502 0.0090722117 1.1177822e-20)
(-0.15231556 0.0088743581 1.3160719e-21)
(-0.17377423 0.0086194661 -1.1704036e-20)
(-0.19707409 0.0083218422 -2.7409815e-21)
(-0.22228208 0.0079872298 -9.8501197e-21)
(-0.24945789 0.0076112789 1.3060199e-20)
(-0.27865741 0.0071871981 -3.4065283e-21)
(-0.30991674 0.0067126891 -1.6429076e-21)
(-0.34326134 0.0061848919 -1.6126853e-20)
(-0.37868359 0.0055991438 7.1303502e-21)
(-0.41613085 0.004949785 -1.071784e-20)
(-0.45548843 0.0042299891 -7.2479951e-21)
(-0.49655624 0.0034316609 -3.3055281e-21)
(-0.53902096 0.0025469847 1.0035222e-20)
(-0.58242599 0.0015692719 1.8816868e-20)
(-0.62614118 0.00049498836 1.6961304e-20)
(-0.66933327 -0.00067596523 7.3543333e-21)
(-0.71095571 -0.0019392801 -3.5196411e-20)
(-0.74975292 -0.0032838874 -2.5378466e-20)
(-0.78426192 -0.0046840508 6.1580291e-21)
(-0.81298416 -0.0061111465 -4.1227466e-20)
(-0.83447239 -0.0075533493 -1.3792175e-20)
(-0.84703781 -0.0090011613 1.386789e-20)
(-0.84943908 -0.010401212 3.3567212e-20)
(-0.84051407 -0.011691216 -2.051826e-20)
(-0.81932853 -0.012831551 -1.2909698e-20)
(-0.78490637 -0.013839549 3.3612332e-20)
(-0.73654871 -0.014704675 1.5941184e-20)
(-0.67335261 -0.015332341 1.1468178e-20)
(-0.59493442 -0.015606465 -9.0404462e-21)
(-0.50113848 -0.015420673 2.5019407e-20)
(-0.39205575 -0.014642959 2.1222544e-20)
(-0.26816457 -0.013140937 5.4382135e-21)
(-0.13107277 -0.010848172 -1.416511e-20)
(0.016398197 -0.0078640347 -1.1332159e-20)
(0.16794622 -0.0045803095 -4.2651728e-20)
(0.31805064 -0.0015745725 -6.3299419e-21)
(0.4529815 0.00062913015 5.3489696e-20)
(0.57482909 0.0014017735 -4.1450769e-20)
(-2.9056337e-05 0.00067806197 5.6888376e-23)
(-0.00011752809 0.0020875092 -5.7841551e-21)
(-0.00025083917 0.0036288579 5.1484197e-21)
(-0.00044477272 0.0053105286 -1.4043849e-21)
(-0.00071374833 0.0071407171 -2.9018622e-21)
(-0.0010773088 0.0091266638 5.5475708e-21)
(-0.0015593961 0.011274249 -5.7878231e-21)
(-0.0021888357 0.013587417 5.0984283e-22)
(-0.003000237 0.016067472 -1.5934339e-21)
(-0.0040348755 0.018712248 -2.6648676e-23)
(-0.0053415825 0.021515158 -5.3367428e-21)
(-0.0069775988 0.024464126 8.5003538e-21)
(-0.0090093395 0.027540462 7.0377008e-22)
(-0.011512963 0.030717722 -6.968446e-21)
(-0.014574626 0.033960691 2.1491498e-21)
(-0.018290267 0.037224629 1.3701589e-21)
(-0.022764774 0.040455019 -8.7246878e-21)
(-0.028110345 0.043588101 2.8573249e-20)
(-0.03444396 0.046552513 -1.7990138e-20)
(-0.041883905 0.049272373 2.1672733e-20)
(-0.050545525 0.051672034 -3.2226065e-20)
(-0.060536555 0.053682534 7.9553208e-21)
(-0.071952676 0.055249333 3.3042262e-21)
(-0.084874465 0.056340383 -1.0855926e-20)
(-0.099368209 0.056952915 3.9363298e-20)
(-0.11548772 0.057117064 5.8872891e-21)
(-0.13327226 0.056893322 -3.0911779e-20)
(-0.15276474 0.056358573 3.4874373e-20)
(-0.17401467 0.055591058 -4.8823357e-21)
(-0.19708452 0.054652661 -4.7626711e-20)
(-0.22204021 0.053582893 5.007809e-21)
(-0.24893953 0.052397106 3.825833e-20)
(-0.27783745 0.051095848 9.1291009e-22)
(-0.30876666 0.049680528 -2.8815182e-20)
(-0.34174687 0.048144132 3.2327744e-20)
(-0.37676495 0.046469154 -1.4576445e-20)
(-0.41376067 0.044628905 1.73169e-20)
(-0.4526097 0.042586844 5.4926652e-20)
(-0.49310017 0.040296313 1.2233484e-20)
(-0.53490516 0.037702517 4.7836951e-20)
(-0.57755197 0.034746303 -6.1267129e-20)
(-0.62039169 0.031369225 -5.5848269e-20)
(-0.6625706 0.027520313 -9.3600202e-21)
(-0.70301553 0.023162823 7.5393999e-20)
(-0.74043192 0.018286406 -3.4944885e-20)
(-0.77331835 0.01293233 -1.1915283e-20)
(-0.80008718 0.0071907525 6.4329109e-21)
(-0.8192117 0.0011437225 1.9577831e-20)
(-0.82918539 -0.0051076332 -9.479826e-21)
(-0.82862531 -0.011394802 1.6952465e-20)
(-0.81638989 -0.017595481 1.0155044e-19)
(-0.79154256 -0.023631146 4.8565689e-21)
(-0.75323907 -0.029463715 -2.1858432e-20)
(-0.70078539 -0.03506222 4.8812076e-20)
(-0.63354596 -0.040316917 -4.2022688e-20)
(-0.55120136 -0.045058624 1.2069617e-19)
(-0.45361118 -0.049152837 3.4856285e-20)
(-0.34109729 -0.052369049 -1.003371e-19)
(-0.21417621 -0.054396511 1.7200557e-20)
(-0.074690207 -0.05479463 2.0171191e-20)
(0.074625457 -0.053118468 4.1371243e-21)
(0.22722197 -0.049285094 -5.5582726e-20)
(0.37776425 -0.043132216 1.0987025e-19)
(0.51266161 -0.036020552 3.3033491e-20)
(0.63393174 -0.028717339 5.5163135e-20)
(-8.632555e-05 0.0012326217 3.1339833e-21)
(-0.00029237758 0.0037955362 -1.7421113e-21)
(-0.00055265235 0.0065990345 -4.6337928e-22)
(-0.00088277896 0.0096586837 4.3968722e-22)
(-0.0012972981 0.012989488 -2.131034e-21)
(-0.0018155094 0.016604789 -1.5818397e-22)
(-0.002460831 0.020515523 -2.0270266e-21)
(-0.0032612277 0.024729184 -2.1857442e-21)
(-0.0042500336 0.029248568 1.7894909e-20)
(-0.0054667536 0.034070275 -1.600202e-20)
(-0.006957874 0.039182994 7.6725897e-21)
(-0.0087776426 0.044565575 1.1265192e-20)
(-0.010988771 0.050184967 -2.2404452e-20)
(-0.013662971 0.055994146 -2.7800947e-21)
(-0.016881203 0.061930209 1.0785826e-20)
(-0.020733531 0.067912948 7.4463519e-21)
(-0.025318399 0.073844296 -8.6802937e-21)
(-0.030741234 0.07960916 3.1600193e-20)
(-0.037112209 0.085078268 -1.8807812e-20)
(-0.044543188 0.090113619 9.3591649e-21)
(-0.053143933 0.094577036 -3.1825975e-20)
(-0.06301793 0.098341877 -8.3458347e-21)
(-0.074258355 0.10130727 1.7569688e-20)
(-0.086945147 0.1034131 -2.6660123e-20)
(-0.10114548 0.10465278 -1.0559345e-20)
(-0.1169165 0.10508018 1.2876864e-20)
(-0.13430012 0.1048055 7.3573697e-20)
(-0.15334223 0.10397091 3.3485331e-20)
(-0.1740935 0.10271898 -1.699831e-20)
(-0.19661489 0.10116187 1.8127798e-20)
(-0.22097146 0.099375483 -1.1622166e-20)
(-0.24721494 0.09739697 -6.5570642e-20)
(-0.27539726 0.095233643 2.2111687e-20)
(-0.30554446 0.092888989 6.6294834e-20)
(-0.337663 0.090351887 -2.2486857e-20)
(-0.37172676 0.087591972 -3.1419547e-20)
(-0.40765827 0.084561157 5.4608734e-20)
(-0.44531161 0.081192486 1.6592356e-20)
(-0.4844481 0.07740017 -2.9882663e-20)
(-0.52470827 0.073081892 -1.2055307e-20)
(-0.56558085 0.068124993 5.7500148e-20)
(-0.60637157 0.062415048 -1.6502372e-20)
(-0.64617356 0.055847708 -2.363739e-20)
(-0.68385135 0.048341658 -6.2364147e-20)
(-0.71803338 0.039861768 1.1814105e-19)
(-0.74714553 0.030466113 -7.5724714e-20)
(-0.76957117 0.0203282 -1.8717537e-20)
(-0.78371352 0.0096359818 -7.4405576e-20)
(-0.78806876 -0.0014416867 -8.8734171e-20)
(-0.78134324 -0.012619515 -4.4622177e-21)
(-0.76254222 -0.023653892 1.8762061e-20)
(-0.73089486 -0.034420005 -1.3939208e-19)
(-0.68575096 -0.044889315 -5.9725655e-20)
(-0.62654599 -0.055025066 -6.1864082e-20)
(-0.55286902 -0.064689203 -2.0447451e-20)
(-0.46457259 -0.073655068 -1.6118566e-19)
(-0.3618191 -0.08171427 6.4689392e-20)
(-0.24522561 -0.088577109 -2.0219933e-20)
(-0.11548857 -0.093796223 -1.685234e-19)
(0.025253002 -0.096590454 -6.8244471e-20)
(0.17428602 -0.095940481 8.3106209e-20)
(0.3247839 -0.091286682 2.9112372e-19)
(0.47155142 -0.081769734 -9.4468761e-20)
(0.60119492 -0.069490812 -1.5302282e-19)
(0.71445155 -0.055267999 -6.570769e-20)
(-0.0001727053 0.0017559659 -1.0451524e-20)
(-0.00055604853 0.0054083419 1.2491248e-20)
(-0.0010077831 0.0094050709 -4.5180863e-21)
(-0.0015432326 0.013768874 4.9147916e-22)
(-0.0021771344 0.018521644 -9.7183757e-21)
(-0.0029284073 0.023683077 1.0063817e-20)
(-0.0038196636 0.029269605 -1.5276916e-20)
(-0.0048775519 0.035292949 7.1985568e-21)
(-0.0061334626 0.041758356 2.7398198e-20)
(-0.0076242043 0.048662481 -6.6019426e-21)
(-0.0093926951 0.055990956 -2.5188295e-20)
(-0.011488626 0.063715634 7.712173e-21)
(-0.013969072 0.071791616 5.1911353e-22)
(-0.01689896 0.080154212 -2.0314377e-20)
(-0.02035132 0.088716095 6.3853545e-20)
(-0.024407211 0.097365067 -3.9415089e-20)
(-0.029155194 0.10596297 -3.7736958e-22)
(-0.034690234 0.11434653 2.209386e-20)
(-0.041111948 0.12233097 -5.6564919e-20)
(-0.048522145 0.12971738 2.695109e-20)
(-0.057021756 0.13630454 4.0603442e-20)
(-0.066707395 0.14190553 1.6602705e-20)
(-0.07766799 0.1463682 -8.3227679e-20)
(-0.089982137 0.1495974 -4.400507e-20)
(-0.10371811 0.15157438 2.8900258e-20)
(-0.11893738 0.15236814 -1.7006341e-20)
(-0.13568674 0.15213215 6.4769892e-20)
(-0.15401643 0.15107336 -1.8816434e-20)
(-0.17397793 0.14939813 5.1404702e-20)
(-0.1956309 0.14727367 -2.9459358e-20)
(-0.21903955 0.14481507 1.8331543e-20)
(-0.24424596 0.14208479 -6.8208468e-20)
(-0.27129614 0.13909946 9.9449773e-21)
(-0.30020709 0.13585961 -5.2557609e-20)
(-0.3309662 0.13234979 5.0844427e-20)
(-0.3635272 0.12852749 1.6163108e-20)
(-0.39778701 0.12432266 -2.0597272e-19)
(-0.43356758 0.11963719 -5.3849052e-20)
(-0.47059112 0.11434508 4.5032066e-20)
(-0.5084515 0.10829613 -4.4389595e-20)
(-0.5465834 0.10132397 1.1290175e-20)
(-0.58423066 0.09325813 7.1660876e-20)
(-0.62041732 0.083940225 -3.3874526e-21)
(-0.65393066 0.073245015 -2.3645168e-20)
(-0.68331777 0.06111903 1.1747634e-20)
(-0.70696084 0.047654341 -5.2362172e-21)
(-0.72326164 0.033099786 -1.613783e-20)
(-0.73060634 0.017755786 2.5263872e-19)
(-0.72759967 0.0019296149 -2.8026899e-20)
(-0.71314869 -0.013960317 2.5883807e-20)
(-0.68649688 -0.029581226 -2.4286873e-19)
(-0.64709317 -0.044770083 1.3345639e-19)
(-0.59448794 -0.059506428 1.0979049e-19)
(-0.52830679 -0.073760235 1.0556472e-19)
(-0.44835955 -0.087378173 1.0263946e-19)
(-0.35477842 -0.10008923 1.6326639e-19)
(-0.24804073 -0.11163236 -3.3031648e-19)
(-0.12909611 -0.12168343 2.0665718e-19)
(0.0011238009 -0.12966451 3.200443e-19)
(0.14013016 -0.13450314 -2.3880231e-19)
(0.28510223 -0.13461791 -7.8059542e-20)
(0.42887055 -0.12901604 -7.000681e-20)
(0.56645153 -0.11615722 3.5691887e-19)
(0.6847972 -0.098560489 2.6426789e-19)
(0.7833025 -0.077672017 -1.1551527e-20)
(-0.00028416965 0.0022288918 7.3183853e-21)
(-0.00089637034 0.0068671272 -1.8216913e-20)
(-0.0015953026 0.01194526 1.485774e-20)
(-0.0023959283 0.017493092 -5.6178024e-21)
(-0.0033132597 0.023539436 -2.0306313e-21)
(-0.0043657549 0.030110618 1.7489716e-20)
(-0.0055750199 0.037229117 -4.4362358e-21)
(-0.0069660457 0.044911791 -9.429856e-21)
(-0.0085677577 0.053167655 -7.2527928e-22)
(-0.01041353 0.061995257 -6.1700998e-21)
(-0.012541719 0.071379583 8.6610864e-21)
(-0.014996168 0.081288549 -6.0398846e-21)
(-0.017826687 0.091669152 -2.2334584e-20)
(-0.021089422 0.10244347 -6.4929344e-22)
(-0.024847089 0.11350479 1.725215e-20)
(-0.029168964 0.12471438 1.2297586e-20)
(-0.034130571 0.13589963 -1.0658554e-20)
(-0.039812967 0.1468544 1.0387873e-21)
(-0.046301555 0.15734281 2.1186942e-20)
(-0.053684403 0.16710782 2.6083973e-20)
(-0.062050099 0.1758855 -3.0136186e-20)
(-0.07148532 0.18342583 -3.0723558e-20)
(-0.082072384 0.18951905 4.1918927e-20)
(-0.093887204 0.19402509 -5.2575315e-20)
(-0.10699887 0.19690075 -9.2274121e-20)
(-0.1214727 0.19821702 2.2061792e-19)
(-0.13736438 0.1981592 -1.2304201e-19)
(-0.15472806 0.19699394 1.8423692e-19)
(-0.1736154 0.19499254 -2.3274387e-19)
(-0.19408825 0.192385 2.622403e-19)
(-0.21620717 0.18932722 -2.7347453e-19)
(-0.24000495 0.18591175 4.6536321e-20)
(-0.2655155 0.18216991 1.6114936e-19)
(-0.29274487 0.17809535 -9.1473034e-20)
(-0.32166082 0.17366551 2.8809184e-20)
(-0.35218929 0.16882611 8.5762323e-21)
(-0.38419517 0.16348495 1.044396e-19)
(-0.41746076 0.15751232 3.3949223e-20)
(-0.45166149 0.15074197 3.4039215e-20)
(-0.48633767 0.14297599 3.4177112e-20)
(-0.52086344 0.13399476 -1.7435713e-19)
(-0.55441576 0.12357174 7.6471358e-20)
(-0.58594795 0.11149499 1.1712153e-20)
(-0.61417617 0.097597945 -1.3896878e-19)
(-0.63759281 0.08182205 -6.9671946e-20)
(-0.65459661 0.064315609 3.4362802e-20)
(-0.66366409 0.04542826 1.2261463e-19)
(-0.6633035 0.025562716 -5.3439994e-20)
(-0.65230128 0.005187254 1.5357675e-19)
(-0.62980043 -0.015139773 8.3002078e-20)
(-0.59525025 -0.035000639 1.1454497e-19)
(-0.548288 -0.054226787 3.060922e-19)
(-0.48860745 -0.072832181 -2.3777026e-19)
(-0.41597843 -0.090798095 7.7056375e-20)
(-0.33043422 -0.107933 -1.3533681e-19)
(-0.23246312 -0.1239083 -1.2980289e-19)
(-0.12293046 -0.13842233 -5.1130268e-20)
(-0.0031576885 -0.15115382 -4.7917424e-19)
(0.12562082 -0.16141471 -1.3179284e-19)
(0.2604732 -0.16787751 3.0723275e-19)
(0.39835846 -0.16840065 1.1799366e-19)
(0.53173692 -0.16163151 -9.0866318e-20)
(0.65565871 -0.1454672 -1.9011324e-19)
(0.75778722 -0.12256468 -2.963384e-19)
(0.83760617 -0.095590451 2.2807958e-20)
(-0.00041455319 0.0026330771 2.2148198e-20)
(-0.0012946159 0.0081157134 5.8465576e-21)
(-0.0022829979 0.014122295 -4.7382852e-21)
(-0.0033943066 0.020689503 -1.7501442e-20)
(-0.0046439259 0.027853011 9.5950767e-21)
(-0.0060498452 0.035646012 -1.3823814e-20)
(-0.007632575 0.044097631 5.9883483e-21)
(-0.0094152594 0.053230889 1.4281511e-21)
(-0.011424045 0.063060167 -8.0993767e-21)
(-0.013688401 0.073588146 -1.7494641e-20)
(-0.016241454 0.084802183 -8.7764825e-22)
(-0.019120311 0.096670146 2.8947638e-20)
(-0.022366348 0.10913577 -4.0215655e-20)
(-0.026025456 0.12211368 6.5292203e-20)
(-0.0301482 0.13548452 -1.7174541e-20)
(-0.034789856 0.14909048 3.6759e-20)
(-0.04001029 0.16273233 -4.4861635e-20)
(-0.045873629 0.17616876 2.944208e-20)
(-0.052447699 0.18911964 -4.7144712e-21)
(-0.059803208 0.20127468 -1.9372227e-20)
(-0.068012692 0.21230917 4.7783843e-20)
(-0.077149318 0.22190782 -6.8561507e-20)
(-0.087285663 0.2297962 7.5842714e-20)
(-0.098492616 0.23577733 1.3203024e-20)
(-0.11083887 0.23976735 -1.3247407e-19)
(-0.12439253 0.24182125 1.3621786e-19)
(-0.13922034 0.24213823 -9.0133275e-20)
(-0.15538009 0.24103181 1.0263249e-19)
(-0.17292763 0.23884475 9.7034465e-21)
(-0.19192705 0.23587455 6.0878765e-21)
(-0.21243134 0.23232155 -4.2468623e-20)
(-0.2344692 0.22831381 2.7233392e-21)
(-0.25805456 0.22390399 -1.6287519e-19)
(-0.28317979 0.21908444 4.4631162e-20)
(-0.30979422 0.21381707 1.337964e-19)
(-0.33779257 0.20803311 -6.2948207e-20)
(-0.36700332 0.20161965 5.2167239e-20)
(-0.39716531 0.19441652 -5.2388209e-20)
(-0.42790442 0.18621847 -2.9320441e-19)
(-0.45870586 0.1767811 1.6255508e-19)
(-0.48888433 0.16583231 3.9687989e-20)
(-0.51755519 0.1530903 -2.2478879e-19)
(-0.54361355 0.13829229 1.3485679e-20)
(-0.56573091 0.12123953 2.7643813e-20)
(-0.58239901 0.10188694 2.9314869e-19)
(-0.59212841 0.080460927 6.7307294e-20)
(-0.59351495 0.057423186 -1.0469109e-19)
(-0.58529807 0.033272367 -1.0608547e-19)
(-0.56645179 0.0086376825 -1.4938368e-19)
(-0.53627756 -0.015801738 -1.8286648e-19)
(-0.49433912 -0.039557027 -1.1103684e-19)
(-0.44040955 -0.062459053 -1.7348409e-19)
(-0.37428974 -0.084559973 5.9573349e-20)
(-0.29588651 -0.10583345 -3.6887606e-19)
(-0.20547769 -0.12602381 -2.4827533e-20)
(-0.10395955 -0.14473048 -2.1735795e-20)
(0.0073350875 -0.16163454 -1.1801576e-20)
(0.126674 -0.17646238 5.1593749e-19)
(0.25251877 -0.18842293 2.060526e-19)
(0.38135952 -0.19599095 -3.2336666e-19)
(0.50982335 -0.19650958 -4.7467531e-19)
(0.63013282 -0.18824988 -2.1663609e-19)
(0.73694154 -0.16876817 -7.1686047e-20)
(0.81952949 -0.140877 4.2044745e-19)
(0.87879934 -0.10884843 -1.0606782e-19)
(-0.00055566966 0.0029523339 -4.1513603e-21)
(-0.0017262 0.0091042548 -9.8436341e-21)
(-0.003028381 0.015849647 2.3772052e-20)
(-0.004476915 0.023231628 -8.8543264e-22)
(-0.0060875246 0.031292542 -1.1593519e-20)
(-0.0078778128 0.040072574 -5.1150794e-21)
(-0.0098672325 0.04960801 -3.7818632e-21)
(-0.012077075 0.059929081 7.4658518e-21)
(-0.014530636 0.071057204 -3.8730238e-20)
(-0.01725333 0.083001653 2.9307611e-20)
(-0.020272801 0.095755547 -1.4202831e-21)
(-0.023619019 0.10929116 -1.7863634e-20)
(-0.027324351 0.12355462 6.7164645e-20)
(-0.031423628 0.13846002 -6.733923e-20)
(-0.035954172 0.15388348 9.0418827e-21)
(-0.040955816 0.16965744 5.6376918e-20)
(-0.04647091 0.18556607 -5.3550832e-20)
(-0.05254432 0.20134317 1.8949086e-20)
(-0.059223453 0.2166739 -3.727632e-20)
(-0.066558315 0.23120248 4.8553633e-20)
(-0.074601625 0.2445479 9.26367e-20)
(-0.083409033 0.25632926 -9.3308869e-20)
(-0.093039363 0.26620101 -1.3905532e-19)
(-0.10355489 0.27389607 2.7304111e-19)
(-0.11502137 0.27927062 -2.2270498e-19)
(-0.12750846 0.28234023 1.3131086e-19)
(-0.14109104 0.28329395 -3.4413857e-20)
(-0.15583649 0.28247274 8.2306901e-20)
(-0.17180742 0.28029122 -8.5502828e-20)
(-0.18906378 0.27711681 -1.1626901e-19)
(-0.20765689 0.27320737 7.8256376e-20)
(-0.22761294 0.26872966 1.3033812e-19)
(-0.24892388 0.26376373 -1.1670916e-20)
(-0.27156186 0.25831081 -4.9133872e-21)
(-0.29545452 0.25231876 -8.5773445e-20)
(-0.32046925 0.24569687 3.7319146e-20)
(-0.34639647 0.23830926 1.3734396e-19)
(-0.3729319 0.22996727 6.9140059e-20)
(-0.39965294 0.22042894 -1.0639331e-19)
(-0.42599309 0.20940556 8.4469564e-20)
(-0.45121414 0.19657523 -7.1476821e-20)
(-0.47438227 0.18160518 2.4225889e-20)
(-0.49435816 0.16418848 9.0860924e-20)
(-0.50981067 0.14410918 -2.1658817e-19)
(-0.51930379 0.12135966 -1.2823661e-19)
(-0.52154001 0.096255924 -8.2708764e-20)
(-0.51530701 0.069356712 2.5736842e-19)
(-0.49957374 0.041247351 1.6556911e-19)
(-0.47342229 0.012663938 1.9267237e-19)
(-0.43617258 -0.01559602 3.3391492e-19)
(-0.38746462 -0.042949489 -1.1469034e-19)
(-0.32719587 -0.069213567 2.4163159e-20)
(-0.25527213 -0.09448314 1.921832e-19)
(-0.17178348 -0.11871219 5.6722477e-19)
(-0.077327573 -0.14154387 3.7767997e-19)
(0.026750787 -0.16248914 1.507727e-19)
(0.13870663 -0.18122312 4.4724781e-19)
(0.25640857 -0.19757177 -3.0852984e-19)
(0.37801213 -0.21063174 3.2411168e-20)
(0.49937182 -0.21868771 5.2151125e-19)
(0.61658524 -0.21871693 3.6152625e-19)
(0.72176961 -0.20857999 1.7207471e-20)
(0.80916663 -0.18580729 -5.9644178e-19)
(0.87024514 -0.15354871 6.2993974e-20)
(0.90906302 -0.11767926 -9.0699711e-20)
(-0.00069786181 0.0031736054 -1.6257181e-20)
(-0.0021616345 0.0097923553 8.1593516e-21)
(-0.003780636 0.017056875 -1.1028235e-20)
(-0.0055700984 0.025016038 -6.2722438e-21)
(-0.0075460758 0.03371847 1.7520048e-20)
(-0.009725931 0.043211252 1.6373142e-20)
(-0.012128216 0.053538165 -1.6825945e-20)
(-0.014772541 0.064737517 2.0273681e-21)
(-0.017679539 0.07683933 4.7056412e-22)
(-0.020870764 0.089861886 3.3546577e-20)
(-0.024368566 0.10380752 -3.6948964e-21)
(-0.02819594 0.1186576 -6.8158789e-20)
(-0.032376344 0.13436668 5.4769676e-20)
(-0.036933526 0.15085596 -1.901602e-21)
(-0.04189137 0.16800627 -3.7208885e-20)
(-0.047273794 0.185651 -3.232314e-21)
(-0.053104773 0.20356979 8.3048591e-21)
(-0.059408547 0.22148433 3.788015e-20)
(-0.066210096 0.23905774 -7.0344551e-20)
(-0.073535963 0.25590001 1.2557963e-19)
(-0.081415537 0.27158196 -2.756528e-20)
(-0.089882673 0.28566009 2.0590176e-20)
(-0.098977681 0.29771374 -1.7297587e-20)
(-0.10874932 0.30739325 7.0689749e-22)
(-0.1192562 0.31447368 -1.0633262e-19)
(-0.13056705 0.3189033 -1.080072e-19)
(-0.14276005 0.3208311 2.1755915e-19)
(-0.15591763 0.32059666 3.6773055e-20)
(-0.17010901 0.31866483 -1.3017041e-19)
(-0.18538918 0.31549111 -4.6897141e-20)
(-0.2018127 0.31140774 -1.0712812e-19)
(-0.21940182 0.30661686 1.2238212e-19)
(-0.23813227 0.30123442 5.4001333e-20)
(-0.25795105 0.29527997 -1.2660666e-19)
(-0.27875858 0.28869644 5.3680749e-20)
(-0.30039333 0.28137169 2.5273636e-20)
(-0.32261256 0.27314338 -7.5943625e-20)
(-0.34507243 0.26379357 -1.9927959e-19)
(-0.36730662 0.25304569 -6.0627014e-20)
(-0.38870341 0.24057031 4.070103e-20)
(-0.40848153 0.22600019 9.6655352e-20)
(-0.42567332 0.20895835 9.9698631e-20)
(-0.43913178 0.18910569 1.0997448e-19)
(-0.44757098 0.16622866 2.2964322e-19)
(-0.4497016 0.14038148 -6.2569483e-21)
(-0.44444923 0.11197552 9.5770138e-20)
(-0.43083053 0.081622693 -5.1362454e-19)
(-0.40794712 0.049948346 -1.4111557e-19)
(-0.37486316 0.017747274 -1.6017705e-19)
(-0.3309176 -0.014045246 -4.4127512e-19)
(-0.27590044 -0.044710877 5.1396806e-19)
(-0.209848 -0.074049607 -1.1467486e-19)
(-0.13278601 -0.10218504 -3.6989108e-19)
(-0.045044876 -0.12902416 -4.5789611e-19)
(0.052422966 -0.15409289 -5.8857378e-20)
(0.15779641 -0.17682858 1.5012786e-19)
(0.26904264 -0.19691883 2.4575252e-19)
(0.38374527 -0.21430021 -1.0546826e-19)
(0.49970989 -0.22794221 1.9322986e-19)
(0.61223345 -0.23594957 -1.6416219e-19)
(0.71674102 -0.23501752 -5.6207424e-20)
(0.8051306 -0.2226097 -1.6841424e-19)
(0.87144272 -0.19657322 7.4381883e-19)
(0.91039014 -0.16070439 2.4026888e-20)
(0.93069116 -0.12259738 2.9835336e-19)
(-0.00083057043 0.0032880678 1.5142589e-20)
(-0.0025683526 0.010152558 3.0091336e-21)
(-0.004483696 0.017695683 -3.3085004e-21)
(-0.0065924333 0.025971197 -1.6271436e-20)
(-0.0089110664 0.035033312 1.9529946e-20)
(-0.011456894 0.044935611 -1.6600666e-20)
(-0.014247809 0.055729371 -7.9428133e-21)
(-0.017302072 0.067461503 4.2686191e-22)
(-0.020638073 0.08017184 6.7290382e-21)
(-0.024274028 0.093889748 3.8352231e-20)
(-0.028227619 0.10862991 -6.4574761e-20)
(-0.032515584 0.12438723 7.7851752e-20)
(-0.037153264 0.14113069 -2.2959035e-20)
(-0.042154154 0.15879632 -3.1313685e-20)
(-0.047529475 0.17727932 4.8321394e-20)
(-0.05328787 0.19642568 -9.5952065e-20)
(-0.059435289 0.21602411 1.1731222e-19)
(-0.065975207 0.23579921 1.8591514e-21)
(-0.07290935 0.25540792 6.8762553e-20)
(-0.080239058 0.27444124 -2.768181e-19)
(-0.087967479 0.29243474 6.8105143e-20)
(-0.096102589 0.30889052 2.865967e-19)
(-0.10466095 0.32331358 -1.3804937e-19)
(-0.11367174 0.33526261 -1.6784179e-19)
(-0.12318018 0.34441131 4.3061185e-20)
(-0.13324913 0.35060997 2.2941762e-19)
(-0.14395753 0.3539303 -3.5415181e-19)
(-0.15539476 0.35467256 3.9937651e-19)
(-0.16764653 0.35331526 -3.1934047e-19)
(-0.18077273 0.35039662 6.204267e-20)
(-0.19481312 0.34635715 -1.076654e-19)
(-0.2097923 0.34145747 -1.5495795e-19)
(-0.22568213 0.33583328 6.1890928e-20)
(-0.24240114 0.32953328 1.6231358e-20)
(-0.25982373 0.32251024 2.3253522e-19)
(-0.27775591 0.31463972 -4.5669323e-20)
(-0.29592238 0.30573417 1.1746396e-19)
(-0.31394397 0.29554524 -9.9843069e-20)
(-0.3313163 0.28376266 5.9668517e-20)
(-0.34738839 0.2700191 3.8839684e-20)
(-0.36134424 0.2539073 3.3311198e-20)
(-0.37219885 0.23501591 3.305235e-20)
(-0.37882557 0.21299208 -2.0102968e-19)
(-0.38002214 0.18764883 -1.5738816e-19)
(-0.37469246 0.15911816 4.4251246e-20)
(-0.36195092 0.12789804 -2.7756465e-20)
(-0.3410088 0.094594126 1.1525192e-19)
(-0.31097695 0.059811669 -2.2672042e-19)
(-0.27092908 0.024392169 -2.6198608e-19)
(-0.22042806 -0.010563268 -7.5570472e-20)
(-0.15950618 -0.044203861 -1.9836538e-19)
(-0.088308439 -0.076302805 6.3400501e-21)
(-0.0069525903 -0.1069967 9.630848e-20)
(0.083951778 -0.13613458 4.7019851e-19)
(0.18309 -0.16310192 -2.370785e-19)
(0.28820151 -0.18729988 9.6785714e-20)
(0.39708931 -0.20843609 -2.8705359e-19)
(0.5072564 -0.22650688 4.8905814e-19)
(0.61614516 -0.24033821 -2.8466224e-19)
(0.71844955 -0.247719 9.9540237e-20)
(0.80892028 -0.24522325 -1.3357336e-22)
(0.8789411 -0.23018611 8.0716744e-20)
(0.9229518 -0.20122549 3.0105315e-19)
(0.94073077 -0.16321275 -5.7173211e-19)
(0.94598311 -0.12438221 5.8295411e-19)
(-0.00094297787 0.0032921188 -3.3559807e-20)
(-0.002913219 0.010173263 -1.7080522e-20)
(-0.0050802792 0.017745054 2.6831758e-20)
(-0.0074606071 0.026064973 -7.0680719e-22)
(-0.010071232 0.035191799 -2.4303489e-20)
(-0.012929566 0.045184829 -1.2723268e-20)
(-0.016053138 0.056102381 2.6861733e-20)
(-0.01945929 0.067999967 -4.4181716e-21)
(-0.023164766 0.080927833 6.2459537e-20)
(-0.027185232 0.09492783 -1.2211053e-20)
(-0.031534695 0.11002943 -3.1348081e-22)
(-0.036224856 0.12624474 4.5281116e-20)
(-0.041264375 0.14356248 -1.4593002e-19)
(-0.046658123 0.16194063 6.8463286e-20)
(-0.052406433 0.18129809 1.2366867e-19)
(-0.058504469 0.20150522 -1.3308604e-19)
(-0.06494183 0.22237402 1.6563051e-20)
(-0.071702557 0.24364874 -9.5406072e-20)
(-0.078765795 0.26499866 -7.1964198e-20)
(-0.086107365 0.2860153 2.3032915e-19)
(-0.093702479 0.30621746 -1.7626614e-19)
(-0.1015299 0.32506786 2.3682203e-19)
(-0.10957727 0.34200539 -2.8455238e-20)
(-0.11784742 0.3564949 1.1873619e-19)
(-0.12636431 0.36809315 -2.6391654e-19)
(-0.13517707 0.37652232 6.3837984e-20)
(-0.14435976 0.38173454 1.6434309e-19)
(-0.15400476 0.38394324 -4.0466414e-19)
(-0.16420807 0.38359589 1.7891664e-19)
(-0.17504806 0.38127275 1.9535496e-19)
(-0.18656187 0.3775263 -1.6379169e-19)
(-0.19875135 0.37273565 -2.1997898e-20)
(-0.21159232 0.36708935 1.1247553e-19)
(-0.22499283 0.36064592 -6.2865771e-20)
(-0.23879283 0.35336698 9.7279122e-20)
(-0.25277282 0.34513067 -3.4494694e-19)
(-0.26662555 0.33573381 1.8244813e-19)
(-0.27993632 0.32490144 1.104837e-19)
(-0.29216391 0.31229103 2.2783759e-19)
(-0.30262208 0.29750033 3.0165743e-20)
(-0.31046888 0.28008978 -2.4590646e-19)
(-0.31471708 0.2596276 9.9099886e-20)
(-0.31428163 0.23576681 1.4609925e-19)
(-0.30806538 0.20836851 2.2878089e-20)
(-0.29515873 0.17764276 -1.4055666e-19)
(-0.27480621 0.14414674 -1.2283473e-19)
(-0.24633326 0.1084396 3.7088464e-19)
(-0.20885403 0.071084683 1.9509912e-19)
(-0.16171044 0.032985556 4.2116606e-19)
(-0.10487865 -0.0046082787 1.4737475e-19)
(-0.038619196 -0.04076724 5.7087897e-20)
(0.036894145 -0.075267225 4.224992e-19)
(0.12146108 -0.10822449 1.6652243e-19)
(0.21421336 -0.13937098 -5.6266383e-19)
(0.31346295 -0.16793799 4.5440245e-19)
(0.41659371 -0.19331658 -4.2078894e-19)
(0.5215068 -0.21527057 2.0346374e-19)
(0.62572452 -0.23378095 -9.9059413e-19)
(0.72621947 -0.24745703 -4.9884973e-19)
(0.81711115 -0.25397049 2.0284307e-19)
(0.89224783 -0.24970037 3.1901793e-19)
(0.94198824 -0.23202476 5.3512431e-19)
(0.96324146 -0.20087078 9.3454325e-20)
(0.96255573 -0.16197618 7.4159801e-20)
(0.95719839 -0.12384971 -7.7845005e-19)
(-0.0010250669 0.0031882293 -6.0423656e-22)
(-0.003165473 0.0098613867 3.1729392e-20)
(-0.0055170883 0.017215892 -3.7428198e-20)
(-0.008096912 0.025311519 -1.8025653e-20)
(-0.010922509 0.034210246 3.6136702e-20)
(-0.014011536 0.043975856 1.1718402e-20)
(-0.01738144 0.054672699 -5.6913704e-20)
(-0.021049108 0.066364205 6.1354967e-20)
(-0.025030322 0.079110822 1.2971566e-20)
(-0.029339138 0.092967314 5.1739689e-20)
(-0.033987135 0.10797923 -1.3784012e-19)
(-0.03898255 0.12417834 -1.6881791e-21)
(-0.044329302 0.14157695 1.2489776e-19)
(-0.050025931 0.16016077 -1.3486572e-19)
(-0.056064511 0.17988037 9.7240994e-20)
(-0.062429617 0.20064117 3.6365995e-20)
(-0.069097493 0.22229222 -7.6753056e-20)
(-0.076035635 0.24461446 7.0097122e-20)
(-0.083203064 0.26730984 9.4599837e-20)
(-0.090551627 0.28999335 -2.0436584e-21)
(-0.098028833 0.31219132 -1.5414692e-19)
(-0.10558241 0.3333503 9.7086807e-20)
(-0.11316696 0.35286151 -5.5160215e-20)
(-0.12075216 0.37010492 -2.7228121e-19)
(-0.1283316 0.38451468 -9.2809504e-20)
(-0.13593029 0.3956608 2.5733612e-19)
(-0.14360754 0.40333283 -2.619635e-20)
(-0.15145219 0.40760066 3.0153908e-19)
(-0.15956724 0.40882138 -1.8176076e-19)
(-0.16804461 0.40756458 9.7551717e-20)
(-0.17693711 0.40446063 -1.4381371e-19)
(-0.18624726 0.40002936 -3.5549142e-20)
(-0.19592051 0.39457172 1.817471e-19)
(-0.20584747 0.38819062 -1.9013477e-19)
(-0.21586343 0.38086669 -2.8186227e-19)
(-0.22572131 0.37247707 2.901781e-20)
(-0.23507964 0.36280334 3.1230435e-19)
(-0.24349028 0.35154729 -4.0397706e-19)
(-0.25037596 0.3383393 8.8222363e-20)
(-0.25501941 0.32274949 -1.8978909e-19)
(-0.25656147 0.30431637 2.9395952e-20)
(-0.25402619 0.28260194 -2.9917969e-19)
(-0.24638287 0.25728108 -1.4373839e-19)
(-0.23264925 0.22827017 -1.7791331e-19)
(-0.21203865 0.19585541 7.1562868e-19)
(-0.18390612 0.16061661 2.3221431e-19)
(-0.14765181 0.12306968 -3.0847527e-19)
(-0.10256625 0.083757879 2.4998247e-19)
(-0.048507141 0.043650725 2.0822339e-19)
(0.014137255 0.00405674 -2.3449909e-19)
(0.084968649 -0.034115337 -1.2244168e-19)
(0.16384005 -0.070671141 -2.8686238e-19)
(0.25047291 -0.10560568 -1.3930587e-19)
(0.34377305 -0.13848064 4.7725732e-19)
(0.4416351 -0.1684007 2.6945058e-19)
(0.54131385 -0.19481007 4.3485765e-20)
(0.64099589 -0.2175349 -1.8539081e-21)
(0.73818673 -0.23642698 2.4560784e-19)
(0.82924077 -0.24987169 -3.5581876e-19)
(0.90756711 -0.25506085 -4.6291368e-19)
(0.96544924 -0.24836042 -1.3019009e-19)
(0.99275964 -0.22815572 -9.8871852e-19)
(0.99271755 -0.19582364 -7.8541171e-19)
(0.97805591 -0.15801308 -1.9953899e-19)
(0.96644738 -0.12180883 -1.054155e-19)
(-0.0010687278 0.0029854214 2.0424326e-20)
(-0.0033001144 0.0092439235 1.3314291e-20)
(-0.0057506586 0.016153841 -2.7705033e-20)
(-0.0084377434 0.023775569 4.7515685e-20)
(-0.011379367 0.032172584 1.1904398e-20)
(-0.01459347 0.041411478 -5.1058585e-20)
(-0.01809762 0.051561028 2.6132181e-22)
(-0.021908648 0.062691133 -3.063906e-20)
(-0.026042028 0.074871256 9.159868e-21)