/*--------------------------------*- C++ -*----------------------------------*\
  =========                 |
  \\      /  F ield         | OpenFOAM: The Open Source CFD Toolbox
   \\    /   O peration     | Website:  https://openfoam.org
    \\  /    A nd           | Version:  13
     \\/     M anipulation  |
\*---------------------------------------------------------------------------*/
FoamFile
{
    format      ascii;
    class       volScalarField;
    location    "42.199311";
    object      pMean;
}
// * * * * * * * * * * * * * * * * * * * * * * * * * * * * * * * * * * * * * //

dimensions      [0 2 -2 0 0 0 0];

internalField   nonuniform List<scalar> 
17140
(
0.94879698
0.94872324
0.94863426
0.94854366
0.94844583
0.94833936
0.94822418
0.94810007
0.94796681
0.94782421
0.94767212
0.94751034
0.94733855
0.94715608
0.94696173
0.94675334
0.94652734
0.94627808
0.94599693
0.94567126
0.94528306
0.94480726
0.94420924
0.94344175
0.94244966
0.94118681
0.93962411
0.93772828
0.93544039
0.93268331
0.9293718
0.92540989
0.9206926
0.9151089
0.90854518
0.90088994
0.8920397
0.88190683
0.8704319
0.85760207
0.84347362
0.82820014
0.81207316
0.79554859
0.77927372
0.76408582
0.75083346
0.74037279
0.7335579
0.73108502
0.73342779
0.74085926
0.75351312
0.77111378
0.79335607
0.8191907
0.84814456
0.87822261
0.91026595
0.94033107
0.97275254
0.99767685
1.0284544
1.0423337
1.0698619
0.94764034
0.947568
0.94748074
0.9473919
0.94729597
0.94719149
0.94707843
0.94695661
0.94682581
0.94668585
0.9465366
0.94637789
0.94620941
0.94603056
0.94584019
0.94563622
0.94541518
0.9451715
0.94489672
0.94457833
0.9441985
0.94373235
0.94314553
0.94239116
0.94141373
0.94016615
0.93861938
0.93674065
0.93447083
0.93173238
0.92843977
0.92449682
0.91979813
0.91423211
0.90768451
0.90004311
0.89120363
0.88107751
0.86960438
0.85677036
0.84263071
0.82733847
0.81118425
0.79462634
0.77832116
0.7630871
0.7497859
0.73930642
0.73247949
0.72998658
0.73231692
0.7397448
0.75238586
0.76997559
0.79220515
0.81801313
0.84693128
0.87694782
0.90887178
0.93867816
0.97076574
0.99556482
1.0264341
1.0407076
1.0691146
0.94478144
0.9447126
0.94462974
0.94454515
0.9444537
0.94435406
0.94424623
0.94413004
0.94400522
0.94387166
0.94372928
0.94357798
0.94341752
0.94324741
0.94306663
0.9428733
0.94266416
0.94243393
0.94217445
0.9418736
0.94151394
0.94107104
0.94051125
0.93978852
0.93884666
0.93763644
0.93612789
0.93428879
0.93206083
0.92936611
0.92611813
0.92222018
0.91756582
0.91204217
0.90553339
0.89792551
0.88911215
0.87900258
0.86753418
0.85469083
0.84052581
0.82519163
0.80897958
0.79235634
0.77598597
0.76067047
0.74728723
0.73674275
0.72987338
0.72735397
0.72965413
0.7370369
0.74962461
0.7671559
0.78931022
0.8150229
0.84382216
0.87368024
0.90540254
0.9349842
0.96689833
0.99178892
1.0231068
1.0380856
1.0677017
0.94027433
0.94021113
0.94013527
0.94005732
0.93997298
0.93988107
0.93978156
0.93967425
0.93955892
0.93943552
0.93930405
0.93916446
0.93901665
0.93886028
0.93869455
0.93851785
0.93832726
0.93811794
0.93788221
0.93760852
0.93728007
0.93687318
0.93635519
0.93568145
0.93479526
0.93364423
0.93219557
0.9304176
0.92825439
0.92562796
0.92244996
0.9186229
0.91403886
0.90858294
0.90213691
0.894584
0.88581475
0.87573507
0.86427889
0.85142664
0.83722914
0.82183832
0.8055473
0.78883473
0.77237147
0.7569454
0.74345966
0.73283139
0.72590349
0.7233447
0.72560534
0.73292633
0.74542487
0.76284441
0.78485677
0.81037608
0.83893874
0.86855348
0.90001568
0.92937872
0.96128633
0.98665621
1.0188089
1.0348634
1.0658021
0.93426445
0.93420884
0.93414241
0.9340735
0.9339988
0.93391734
0.93382901
0.93373366
0.93363119
0.93352156
0.93340479
0.93328097
0.93315013
0.93301212
0.93286641
0.93271172
0.9325456
0.93236371
0.93215904
0.93192078
0.93163301
0.93127304
0.93080951
0.9301996
0.92938712
0.92831573
0.92694705
0.92524965
0.923172
0.92063641
0.91755206
0.91382039
0.90933164
0.90396843
0.89760949
0.89013449
0.88142992
0.87139737
0.85996629
0.84711279
0.83288466
0.8174332
0.80105606
0.78424648
0.76767413
0.75213045
0.73854035
0.72782716
0.72084895
0.7182599
0.72048563
0.72774117
0.74013904
0.75742007
0.77924159
0.80450387
0.83278451
0.86211427
0.89333457
0.92265227
0.95474778
0.98090882
1.0141245
1.0314206
1.0635577
0.92699269
0.92694641
0.92689153
0.92683376
0.92677097
0.9267024
0.92662793
0.92654743
0.92646083
0.92636814
0.92626949
0.92616503
0.92605494
0.92593928
0.92581778
0.92568954
0.9255526
0.92540323
0.92523518
0.92503853
0.92479842
0.9244934
0.92409362
0.92355846
0.92283418
0.9218601
0.92058845
0.91898765
0.91701265
0.91458655
0.91161621
0.90800153
0.90363078
0.89838377
0.89213573
0.88476221
0.87614501
0.86618056
0.85479289
0.84195293
0.827705
0.81220003
0.79574274
0.77884142
0.7621613
0.74651311
0.73283078
0.72204636
0.71503353
0.71243578
0.71464852
0.72185768
0.73416545
0.75129889
0.77290186
0.79786503
0.82580774
0.85484608
0.88588534
0.91538394
0.94797553
0.97524371
1.0096827
1.0281397
1.0612214
0.91878543
0.91874979
0.91870756
0.91866271
0.91861378
0.91856019
0.91850181
0.91843856
0.9183704
0.91829739
0.9182197
0.91813758
0.91805133
0.91796117
0.9178671
0.91776856
0.91766407
0.91755054
0.91742252
0.91727107
0.91708252
0.91683687
0.91650597
0.91605158
0.91542308
0.91455807
0.91339902
0.91190869
0.91004698
0.90774278
0.90490207
0.9014215
0.89718754
0.89207721
0.88596212
0.87871343
0.87020772
0.86033566
0.8490151
0.83621131
0.82196487
0.806427
0.78991195
0.77293868
0.75617424
0.74044807
0.72669036
0.71584925
0.70881653
0.70622875
0.70845197
0.71564376
0.72788945
0.74490565
0.76631802
0.79101359
0.81864067
0.84744311
0.87842674
0.90835804
0.9417605
0.97037738
1.0058933
1.0252455
1.0586902
0.9100382
0.91001419
0.9099856
0.90995499
0.90992138
0.90988434
0.90984377
0.90979961
0.90975185
0.9097006
0.90964604
0.90958849
0.90952831
0.90946585
0.90940127
0.90933433
0.90926394
0.90918759
0.90910059
0.908995
0.90885838
0.90867226
0.90841041
0.90803695
0.90750458
0.90675367
0.90571868
0.90434785
0.90260377
0.90042721
0.89772489
0.89438969
0.89030633
0.88534905
0.87938608
0.87228413
0.86391449
0.85416168
0.84293699
0.83019977
0.81598678
0.80045081
0.78391705
0.76690608
0.75009592
0.73432468
0.72050858
0.70961664
0.70256746
0.70000307
0.7022617
0.70946441
0.72168372
0.73862784
0.7599084
0.784418
0.81183667
0.84051906
0.8716485
0.90222826
0.93667641
0.96669539
1.002958
1.0228733
1.0562974
0.90119172
0.90117992
0.90116564
0.90115003
0.90113258
0.90111304
0.90109133
0.90106741
0.9010413
0.90101311
0.90098305
0.90095143
0.90091862
0.90088501
0.90085087
0.9008161
0.90077989
0.90074019
0.90069294
0.90063109
0.90054336
0.90041283
0.90021522
0.89991713
0.89947438
0.8988311
0.89792154
0.89667998
0.89505628
0.89300279
0.89043899
0.88725353
0.88332757
0.87853415
0.87273839
0.86580288
0.85759371
0.84798931
0.83689454
0.82426297
0.81012799
0.79464458
0.77814765
0.76115425
0.74435624
0.72858339
0.71473333
0.70380178
0.69674465
0.6942095
0.69650644
0.7037385
0.71597277
0.73289645
0.75411148
0.77851701
0.8058442
0.83460406
0.86613304
0.89783134
0.93352064
0.96473246
1.0012782
1.0212594
1.0538339
0.89270067
0.89270109
0.89270116
0.89270065
0.89269952
0.89269768
0.89269509
0.89269173
0.89268765
0.89268295
0.89267782
0.89267252
0.8926674
0.89266277
0.89265889
0.89265568
0.89265243
0.89264733
0.89263675
0.89261433
0.89256979
0.89248754
0.89234515
0.89211167
0.89174604
0.89119597
0.89039866
0.88928536
0.88778956
0.88585372
0.88341385
0.88037345
0.87660818
0.87198518
0.86636754
0.85961508
0.85158979
0.8421652
0.83124068
0.81876499
0.8047692
0.78941088
0.77302885
0.75613809
0.7394359
0.723728
0.70990013
0.69897523
0.69193349
0.68942579
0.6917691
0.69905842
0.7113346
0.72827107
0.74946617
0.77388004
0.80130562
0.83054195
0.8629732
0.89585225
0.93243616
0.96425047
1.000224
1.0198497
1.0513334
0.88499562
0.88500765
0.8850214
0.88503534
0.88504987
0.88506509
0.88508098
0.88509758
0.88511493
0.88513313
0.88515233
0.88517274
0.88519458
0.88521807
0.8852433
0.88527008
0.88529761
0.88532411
0.88534612
0.88535767
0.88534918
0.88530617
0.88520775
0.88502514
0.88472018
0.88424413
0.88353757
0.88253274
0.8811591
0.87934808
0.87702778
0.87411208
0.87049261
0.86603862
0.860607
0.85405428
0.8462397
0.83703299
0.82633025
0.81407735
0.80030474
0.78517239
0.76901104
0.75234032
0.73585529
0.72032705
0.70663469
0.69580238
0.68881705
0.68636024
0.68873863
0.69602959
0.70831201
0.7252641
0.74650067
0.77104804
0.79882351
0.82875134
0.86210513
0.89595492
0.93292972
0.96466229
0.99988112
1.0191598
1.0489303
0.87844374
0.87846613
0.87849211
0.87851905
0.87854772
0.87857843
0.8786112
0.87864609
0.87868319
0.8787226
0.87876443
0.87880881
0.87885584
0.87890558
0.87895792
0.87901241
0.87906807
0.87912287
0.87917331
0.87921349
0.87923422
0.87922169
0.87915618
0.87901063
0.87874932
0.87832686
0.87768755
0.87676577
0.87549048
0.87378923
0.87158633
0.86879678
0.86531648
0.86102268
0.85577795
0.84943929
0.84186467
0.83292254
0.82250651
0.81056178
0.79711869
0.78233731
0.76654106
0.75024711
0.73412636
0.71892824
0.70551816
0.69489122
0.68803624
0.68558456
0.68788353
0.6950773
0.70728204
0.72420249
0.74548907
0.77026342
0.79849448
0.82919802
0.86341692
0.89795804
0.93501026
0.96649842
1.000291
1.0191197
1.046895
0.87330985
0.87334067
0.87337666
0.8734143
0.87345472
0.87349838
0.87354537
0.8735958
0.87364981
0.87370753
0.87376906
0.87383448
0.87390381
0.87397693
0.87405355
0.87413297
0.87421392
0.8742941
0.87436974
0.87443485
0.8744803
0.87449263
0.87445282
0.874335
0.87410528
0.87372079
0.87312947
0.87227038
0.87107279
0.8694604
0.86736039
0.86468955
0.86134725
0.857219
0.85217258
0.84606893
0.8387682
0.8301419
0.82008954
0.80855351
0.79556363
0.78127614
0.76601051
0.75026549
0.73467388
0.71996088
0.70697548
0.69667668
0.68993308
0.68741688
0.68954519
0.69656744
0.70861697
0.72546778
0.74682168
0.77184113
0.80066088
0.83212855
0.86713189
0.90194076
0.93852533
0.96884014
1.0013278
1.0192581
1.0449572
0.86972633
0.86976308
0.86980619
0.86985153
0.86990049
0.8699537
0.87001129
0.87007347
0.87014045
0.87021241
0.87028948
0.87037176
0.87045923
0.87055172
0.87064878
0.87074957
0.87085259
0.87095536
0.87105386
0.87114198
0.87121055
0.87124632
0.87123069
0.8711385
0.87093695
0.87058497
0.87003273
0.86922219
0.86808853
0.86656293
0.86454323
0.86198356
0.8587843
0.85482951
0.8499978
0.84415991
0.83718546
0.82894961
0.81934487
0.80832597
0.79592302
0.78228305
0.76771019
0.75267155
0.73776566
0.72368099
0.7112391
0.70126563
0.69461414
0.69199998
0.6939071
0.7006756
0.71253167
0.72930438
0.75068896
0.77601391
0.80530314
0.837585
0.87279471
0.90739832
0.94264829
0.9720648
1.0024254
1.0194173
1.0433487
0.86766957
0.8677094
0.86775637
0.8678059
0.86785965
0.86791835
0.86798222
0.86805155
0.86812664
0.86820776
0.86829514
0.86838894
0.86848921
0.8685958
0.86870832
0.86882591
0.86894707
0.86906931
0.86918867
0.86929911
0.8693917
0.86945352
0.86946653
0.8694063
0.86924094
0.86893023
0.86842594
0.86767242
0.86660601
0.86516061
0.86328826
0.86084867
0.85775419
0.85399339
0.84940859
0.8438784
0.83727706
0.82948941
0.82042467
0.81004158
0.79835935
0.78551498
0.77178394
0.75759008
0.74349065
0.73014015
0.71823519
0.70857146
0.70200718
0.69924433
0.70088996
0.7073951
0.71904847
0.73569379
0.75706162
0.78266557
0.8126304
0.8451692
0.88011685
0.91374019
0.9476616
0.97522433
1.0037342
1.019622
1.0419233
0.86698425
0.86702427
0.86707185
0.86712192
0.86717648
0.86723635
0.86730183
0.86737329
0.86745113
0.86753572
0.86762741
0.86772651
0.86783321
0.86794752
0.86806923
0.8681977
0.86833168
0.86846902
0.8686062
0.86873772
0.8688554
0.86894732
0.86899661
0.86898002
0.8688669
0.86861827
0.8681867
0.86751676
0.86654602
0.86520892
0.86343986
0.8611371
0.85828322
0.8547287
0.85038884
0.84520669
0.83904545
0.83179891
0.82338591
0.81375148
0.80291701
0.79099811
0.77822929
0.76498816
0.75177591
0.7391503
0.72776067
0.71839793
0.71186236
0.70895286
0.71035252
0.71661918
0.72805711
0.744476
0.76592844
0.79203054
0.82216048
0.85442206
0.88851621
0.92081468
0.95267904
0.97854527
1.0050611
1.0199951
1.0408993
0.86738503
0.86742267
0.86746786
0.86751513
0.86756684
0.86762388
0.86768657
0.86775534
0.86783069
0.8679131
0.86800305
0.86810099
0.8682073
0.86832226
0.86844592
0.86857804
0.86871785
0.86886381
0.86901324
0.86916175
0.86930248
0.86942523
0.86951527
0.86955186
0.8695067
0.86934292
0.86901387
0.86846414
0.86763188
0.86645049
0.8648481
0.86277646
0.86014309
0.85686476
0.85291236
0.8481288
0.84246829
0.83584767
0.8281755
0.81939789
0.80952215
0.79863049
0.78691639
0.77469274
0.76236406
0.75044171
0.73955047
0.73041551
0.72390936
0.72086646
0.72207203
0.72811235
0.73923043
0.75562071
0.77737968
0.8035344
0.83326548
0.86505506
0.89758246
0.92803296
0.95784334
0.98178884
1.0065864
1.0206098
1.0402629
0.86854914
0.86858233
0.86862251
0.86866432
0.86871025
0.86876116
0.86881739
0.86887942
0.86894779
0.86902305
0.8691058
0.86919661
0.86929607
0.8694047
0.86952289
0.86965086
0.86978843
0.86993491
0.87008871
0.87024694
0.87040476
0.87055447
0.87068454
0.87077821
0.87081184
0.87075289
0.87055935
0.87017894
0.86954966
0.86860368
0.86726711
0.86547585
0.86316122
0.86026825
0.8567031
0.85244427
0.84742856
0.84150772
0.83466098
0.82683254
0.81800307
0.80821961
0.7976143
0.78641223
0.77495594
0.76371164
0.75324712
0.74432418
0.73784396
0.73471787
0.73572293
0.74147244
0.75252608
0.76911725
0.79078856
0.81654838
0.84597007
0.87617763
0.90689643
0.93527562
0.96283765
0.98518862
1.0083623
1.021531
1.0400926
0.87013269
0.87016016
0.87019356
0.87022827
0.87026655
0.87030918
0.87035652
0.87040902
0.87046724
0.87053177
0.87060323
0.87068232
0.87076973
0.87086618
0.87097236
0.87108888
0.87121616
0.87135429
0.87150282
0.87166043
0.87182446
0.87199018
0.87214989
0.87229178
0.87239832
0.87244474
0.87239658
0.8722085
0.87182435
0.87117798
0.870196
0.86880598
0.86693442
0.8645293
0.86153121
0.85789279
0.85354394
0.84846988
0.8425913
0.83580888
0.82810878
0.81948861
0.81001001
0.79982887
0.78922035
0.77858791
0.76851584
0.75976417
0.7533349
0.75005182
0.75088536
0.75655794
0.76777004
0.78421919
0.80557394
0.83116583
0.85915241
0.887568
0.91617656
0.94224255
0.96796602
0.98874392
1.0104517
1.0227929
1.0403762
0.87185679
0.87187807
0.87190383
0.87193088
0.87196085
0.87199437
0.87203177
0.87207349
0.87212004
0.87217199
0.87222995
0.87229462
0.87236675
0.87244716
0.87253671
0.87263625
0.87274664
0.87286858
0.87300254
0.87314852
0.87330574
0.87347223
0.87364407
0.87381453
0.8739729
0.87410283
0.87418069
0.8741735
0.87403719
0.87371623
0.87314472
0.87225016
0.8709587
0.86920297
0.86692249
0.8640706
0.86061152
0.85651096
0.85167069
0.84603092
0.83952886
0.83210585
0.82376721
0.81458372
0.80476167
0.7946891
0.78493476
0.77635667
0.76984858
0.76649074
0.76727983
0.77313698
0.78429368
0.80051423
0.82188133
0.84635914
0.87244231
0.89883257
0.92506198
0.94927947
0.97317793
0.99252297
1.0128778
1.0244258
1.0411416
0.87351031
0.87352574
0.87354432
0.8735641
0.87358612
0.87361085
0.87363859
0.87366971
0.87370464
0.87374389
0.87378802
0.87383766
0.87389353
0.87395643
0.87402725
0.87410698
0.87419665
0.87429734
0.87441008
0.87453575
0.87467494
0.87482766
0.87499299
0.87516852
0.87534957
0.87552802
0.875691
0.87581969
0.87588713
0.87585652
0.87568027
0.87530036
0.87465168
0.87366556
0.87227686
0.87042356
0.86803996
0.86506992
0.86144238
0.85707429
0.85185058
0.84566977
0.8384609
0.83022144
0.82111637
0.81150322
0.80200462
0.79345885
0.78694628
0.78364711
0.78467266
0.79065143
0.80168151
0.81814886
0.83877284
0.86134439
0.88560408
0.90967121
0.93393984
0.95629063
0.97855591
0.99655053
1.0156633
1.0264394
1.0423773
0.87498628
0.87499671
0.87500922
0.87502276
0.8750379
0.87505497
0.87507421
0.87509593
0.87512045
0.87514819
0.87517963
0.87521534
0.87525597
0.8753022
0.87535475
0.87541449
0.87548247
0.8755598
0.87564765
0.87574725
0.87586004
0.87598747
0.87613054
0.87628966
0.87646448
0.8766533
0.87685259
0.87705603
0.87725335
0.877429
0.87756034
0.87761606
0.87755583
0.87732843
0.8768726
0.87611804
0.87498345
0.87337394
0.87117383
0.8682486
0.86443141
0.85954791
0.85346029
0.84610366
0.83760893
0.82833527
0.8189532
0.8104822
0.8040853
0.8011126
0.80248008
0.8085438
0.82017179
0.83627563
0.85510891
0.87616416
0.8982546
0.92032964
0.94268565
0.96337728
0.98411903
1.0008446
1.0188211
1.0288522
1.0440939
0.87624532
0.8762517
0.87625938
0.87626772
0.87627711
0.87628775
0.87629981
0.87631348
0.87632901
0.87634678
0.87636725
0.87639059
0.87641688
0.87644658
0.87648069
0.87652047
0.87656711
0.87662181
0.87668576
0.87675979
0.87684446
0.87694127
0.87705286
0.87718191
0.87733091
0.87750263
0.87769998
0.87792557
0.8781823
0.87847227
0.87879608
0.87915318
0.87953729
0.87993245
0.88030616
0.88060152
0.88072782
0.88055097
0.87989899
0.87855913
0.87626096
0.87274783
0.867774
0.86127296
0.85328338
0.84426737
0.83506187
0.82674492
0.82075516
0.81842565
0.82016372
0.82727525
0.83898365
0.85380932
0.87115841
0.8904243
0.91047773
0.93074092
0.95141344
0.97055327
0.98988926
1.0054269
1.0223525
1.0316669
1.0462845
0.87733553
0.87733837
0.8773418
0.87734557
0.87734983
0.87735473
0.87736039
0.87736697
0.87737461
0.87738351
0.87739384
0.87740572
0.87741953
0.87743595
0.8774558
0.87747973
0.87750797
0.87754087
0.87757956
0.87762599
0.8776821
0.87774878
0.87782756
0.87792132
0.87803414
0.87817267
0.87834448
0.87855714
0.87882091
0.87915011
0.87956242
0.8800826
0.88073519
0.88153704
0.88249847
0.88360271
0.88477837
0.885885
0.88669765
0.88689769
0.88611513
0.88395938
0.88012429
0.87439856
0.86692166
0.85827174
0.84931056
0.84168039
0.83686659
0.83528311
0.83851399
0.84614829
0.85694438
0.87055637
0.88674009
0.90385391
0.92233932
0.94100385
0.96012421
0.97783973
0.99587689
1.0103022
1.0262629
1.0348863
1.0489404
0.87829433
0.87829325
0.878292
0.87829067
0.87828925
0.87828792
0.8782868
0.87828596
0.87828544
0.87828532
0.87828583
0.87828763
0.87829077
0.87829366
0.87829572
0.87829853
0.87830376
0.87831315
0.878329
0.87835274
0.87838472
0.87842464
0.87847351
0.87853592
0.87861764
0.878725
0.87886716
0.87905647
0.87930901
0.87964484
0.88009034
0.88068223
0.88146254
0.88247528
0.88376749
0.88535307
0.88719849
0.88917584
0.89106984
0.89250632
0.893024
0.89209185
0.88929074
0.88439425
0.87754196
0.86955875
0.86183964
0.85603633
0.85228718
0.85255282
0.85673258
0.86386996
0.87392904
0.88661071
0.90104252
0.91690786
0.93393316
0.95113036
0.96884999
0.98525033
1.002091
1.0154777
1.0305489
1.0385089
1.0520596
0.87914475
0.87913901
0.87913227
0.87912519
0.87911753
0.87910917
0.87910015
0.87909061
0.87908062
0.87907017
0.8790593
0.87904809
0.87903656
0.87902484
0.87901325
0.87900225
0.87899282
0.87898619
0.87898312
0.87898516
0.87899535
0.87901522
0.8790449
0.87908765
0.87914929
0.87923604
0.87935648
0.87952385
0.87975737
0.88008102
0.88052315
0.88112029
0.88191999
0.88298101
0.88436583
0.88611661
0.88825324
0.89068441
0.89319777
0.8954379
0.89684897
0.89684564
0.89491021
0.89084655
0.88530477
0.87920155
0.87372994
0.86924333
0.86762844
0.86928034
0.87326835
0.88044338
0.88997728
0.90153172
0.91493743
0.92953241
0.94526028
0.96115716
0.97760233
0.99279595
1.008537
1.0209549
1.035208
1.0425331
1.0556338
0.87969059
0.87968035
0.8796683
0.8796556
0.87964176
0.87962634
0.87960908
0.87959052
0.87957172
0.8795527
0.8795329
0.87951221
0.87949075
0.87946857
0.87944569
0.87942239
0.87939918
0.87937671
0.87935622
0.87934001
0.8793309
0.87933166
0.87934397
0.87936922
0.87941365
0.87948773
0.87959978
0.87975774
0.87997673
0.88028611
0.88071649
0.88129713
0.88208081
0.88312575
0.88450103
0.88626889
0.88843042
0.89095824
0.89364807
0.89615483
0.89796257
0.89856572
0.89768886
0.89529063
0.89181228
0.88797637
0.88424293
0.88201565
0.88239008
0.88425232
0.88888293
0.89585057
0.90498995
0.91577219
0.92822034
0.94177946
0.95638249
0.97110581
0.98639941
1.0004872
1.0152185
1.0267347
1.040234
1.0469521
1.0596542
0.87973482
0.87972183
0.87970656
0.87969045
0.879673
0.87965401
0.87963341
0.87961108
0.87958704
0.87956143
0.87953434
0.87950589
0.87947628
0.87944582
0.87941492
0.87938417
0.87935432
0.87932637
0.87930143
0.87928086
0.87926746
0.87926611
0.87927934
0.87930505
0.87934592
0.87941339
0.87951794
0.87966857
0.8798796
0.88016508
0.88055446
0.88109115
0.88181711
0.88278281
0.88403328
0.88562749
0.8876227
0.88999172
0.8926125
0.89521119
0.89745906
0.89900274
0.89949363
0.89889021
0.89758155
0.89566482
0.89407961
0.89430052
0.89541829
0.89834444
0.90356906
0.91040397
0.9191196
0.92936057
0.94106868
0.95372056
0.96732534
0.98100161
0.99525586
1.0083328
1.0221374
1.0328169
1.045623
1.0517699
1.0641137
0.87895987
0.87894757
0.87893312
0.87891786
0.87890135
0.87888338
0.87886394
0.878843
0.87882057
0.87879666
0.87877137
0.87874483
0.87871725
0.87868893
0.87866028
0.87863189
0.87860449
0.87857884
0.87855619
0.87853878
0.87852862
0.87852725
0.87853723
0.87856187
0.87860585
0.87867675
0.87878028
0.87892047
0.87911136
0.87938664
0.87976363
0.88025582
0.88090786
0.88176912
0.88290994
0.88438043
0.88622111
0.88845848
0.89104084
0.89385315
0.89664774
0.89913873
0.90103326
0.90230019
0.902762
0.90273917
0.9037628
0.90530333
0.90755425
0.91162509
0.91707534
0.92405356
0.93260691
0.9424316
0.95351108
0.9653907
0.97812759
0.9908691
1.0041867
1.0163403
1.0292967
1.0392006
1.0513686
1.0569771
1.068994
0.87749213
0.87748299
0.87747226
0.87746093
0.87744869
0.8774354
0.87742105
0.87740564
0.8773892
0.87737177
0.87735345
0.87733437
0.87731476
0.87729498
0.87727547
0.87725683
0.87723985
0.87722552
0.87721517
0.87721036
0.87721277
0.8772248
0.87724976
0.87729104
0.87734919
0.87742748
0.87753671
0.87769709
0.87791383
0.87818341
0.87853595
0.87901812
0.87966623
0.88050555
0.88158226
0.8829853
0.88478239
0.88701652
0.88972119
0.89286473
0.89631375
0.89979932
0.90308285
0.90573835
0.90767881
0.91007913
0.91274144
0.91541393
0.91914387
0.92391383
0.92990172
0.93708992
0.94553922
0.95505225
0.96562973
0.97684913
0.98882502
1.0007326
1.0132068
1.0245194
1.0366992
1.045885
1.0574641
1.0625661
1.0742913
0.87542955
0.87542417
0.87541789
0.87541131
0.87540427
0.87539671
0.87538867
0.87538019
0.87537134
0.87536224
0.87535306
0.875344
0.87533531
0.87532741
0.87532087
0.87531646
0.87531514
0.87531809
0.87532676
0.87534302
0.87536923
0.87540809
0.87545981
0.87552756
0.87561471
0.87573254
0.87589934
0.87610984
0.87637497
0.87672161
0.87715339
0.87769328
0.87838515
0.87927484
0.88041743
0.88188184
0.88375513
0.88613955
0.88913949
0.89277442
0.89692947
0.90138733
0.90565732
0.90932918
0.91327928
0.91737706
0.92109239
0.92525229
0.93005358
0.93564147
0.9421377
0.94957471
0.95802499
0.96731803
0.97748535
0.9881412
0.99945339
1.0106166
1.0223331
1.0328746
1.0443442
1.0528639
1.0639062
1.0685172
1.0800205
0.87295141
0.87294886
0.87294596
0.87294303
0.87294006
0.87293706
0.87293413
0.87293138
0.87292897
0.87292711
0.87292606
0.8729262
0.87292798
0.87293202
0.87293909
0.87295017
0.87296651
0.87298965
0.87302159
0.87306451
0.87312
0.87319074
0.87328185
0.87340326
0.87356217
0.87375946
0.87400601
0.87430873
0.87467155
0.87511594
0.87566372
0.87633636
0.87716285
0.87818019
0.87945383
0.88107746
0.88317567
0.88590481
0.88939311
0.89363857
0.8985583
0.9037481
0.90866638
0.9139049
0.91938255
0.92436407
0.92941297
0.93480734
0.94059436
0.94693171
0.95395123
0.96167505
0.97017385
0.97931005
0.98914606
0.99931934
1.0100492
1.0205461
1.0315788
1.0414135
1.0522369
1.0601332
1.0706913
1.0748237
1.0861474
0.86995966
0.86995888
0.86995816
0.86995764
0.86995744
0.86995765
0.86995845
0.86996004
0.86996269
0.86996674
0.86997262
0.86998089
0.86999226
0.87000759
0.87002799
0.87005483
0.87008984
0.87013515
0.8701933
0.8702669
0.8703601
0.87047825
0.87062923
0.87081789
0.87104742
0.87132665
0.87166543
0.87207507
0.87256784
0.87315675
0.87385845
0.87469132
0.87568675
0.87690339
0.87842514
0.88037472
0.88291752
0.88622416
0.8903555
0.89530835
0.90090798
0.90652694
0.91266461
0.91920298
0.92543775
0.93155143
0.9378238
0.9442296
0.95090296
0.95795241
0.96547722
0.97349458
0.98208034
0.99111051
1.0006753
1.0104317
1.0206483
1.030546
1.0409604
1.050146
1.0603813
1.0676884
1.0778132
1.0814816
1.0926548
0.86619466
0.86619574
0.86619731
0.86619937
0.86620216
0.86620587
0.86621077
0.86621717
0.86622548
0.86623621
0.86624998
0.86626759
0.86629001
0.86631846
0.86635444
0.86639979
0.86645676
0.86652809
0.86661704
0.86672773
0.86686562
0.86703548
0.86724361
0.8674976
0.86780521
0.86817666
0.86862228
0.86915374
0.86978307
0.87052278
0.87139097
0.87242196
0.87366595
0.87519594
0.87713085
0.87962905
0.88285736
0.88692571
0.89183223
0.89758067
0.9036187
0.91027421
0.9175492
0.92475311
0.93189268
0.93909477
0.94632401
0.95364745
0.9611331
0.9688374
0.97684254
0.9851523
0.99384261
1.0027986
1.0121369
1.0215278
1.0312866
1.0406415
1.0504925
1.059081
1.0687741
1.0755375
1.0852602
1.088486
1.0995357
0.86125862
0.86126298
0.86126853
0.86127498
0.86128274
0.86129217
0.86130363
0.86131757
0.86133456
0.86135531
0.86138067
0.8614117
0.86144969
0.86149621
0.86155319
0.86162294
0.86170826
0.86181254
0.86193977
0.8620947
0.86228284
0.86251069
0.86278584
0.8631166
0.86351303
0.86398563
0.86454437
0.8652018
0.86597535
0.86688903
0.86797491
0.86928138
0.87088504
0.87289987
0.87547344
0.87876238
0.88288302
0.88786482
0.89370373
0.90004923
0.90700946
0.91483654
0.92276426
0.9307416
0.93878429
0.94688449
0.95501826
0.9631809
0.97140346
0.97971114
0.9881634
0.99675033
1.0055496
1.0144499
1.0235917
1.0326552
1.0419994
1.0508574
1.0601909
1.0682251
1.0774203
1.0836694
1.0930248
1.0958248
1.1067659
0.85475952
0.85476933
0.85478144
0.85479502
0.85481078
0.85482927
0.85485096
0.8548765
0.85490665
0.85494233
0.85498465
0.85503499
0.85509496
0.85516655
0.8552521
0.85535441
0.8554768
0.8556233
0.85579863
0.85600803
0.85625795
0.85655615
0.85691044
0.8573296
0.85782372
0.85840565
0.85909216
0.85990255
0.86086205
0.86200777
0.86339529
0.86510647
0.86725521
0.86998186
0.87343255
0.87771732
0.88287613
0.888905
0.89558602
0.90283225
0.91104876
0.91957595
0.92820547
0.93708205
0.94603472
0.955024
0.96400003
0.97293448
0.98183217
0.99068983
0.99954983
1.00839
1.0172894
1.0261386
1.0350998
1.0438609
1.0528214
1.0612181
1.0700687
1.0775918
1.0863123
1.0920912
1.1010894
1.1034968
1.1143158
0.84634112
0.84635882
0.84638038
0.84640416
0.8464313
0.84646256
0.84649861
0.84654027
0.84658852
0.84664455
0.84670978
0.84678587
0.84687481
0.84697906
0.84710129
0.84724418
0.84741204
0.84761075
0.84784494
0.84811938
0.84844075
0.84881772
0.84926067
0.84978078
0.85039108
0.85110853
0.85195545
0.85296283
0.85417516
0.85565634
0.85749612
0.85981237
0.86274569
0.86643419
0.87098452
0.87643413
0.88277654
0.88984769
0.89750858
0.90612132
0.91523522
0.92453243
0.93414367
0.94392069
0.95376293
0.96359909
0.97336709
0.98301615
0.99252884
1.0018819
1.0111046
1.0201648
1.0291441
1.0379343
1.0467181
1.0551896
1.0637856
1.0717477
1.0801434
1.0871848
1.0954579
1.1007996
1.1094467
1.1114623
1.1222112
0.83563055
0.83565864
0.8356926
0.83572972
0.83577171
0.83581959
0.83587417
0.83593646
0.8360076
0.83608877
0.8361811
0.8362862
0.83640987
0.83655669
0.83672428
0.83691513
0.83713665
0.8373942
0.83769366
0.83804195
0.83844678
0.83891738
0.83946572
0.84010699
0.8408608
0.84175395
0.84282389
0.84412351
0.84572668
0.84773304
0.85026784
0.85347314
0.85748643
0.86240426
0.86827327
0.87506187
0.88264098
0.89084452
0.89997374
0.90969347
0.91968652
0.93003927
0.94062146
0.95132746
0.96205619
0.97271668
0.98323381
0.99354158
1.0036086
1.0133977
1.0229301
1.0321668
1.0411934
1.0499043
1.0585008
1.0666848
1.0749246
1.0824677
1.0904245
1.0970141
1.1048573
1.1098117
1.1180955
1.1198932
1.1303327
0.8224733
0.82251496
0.82256165
0.82260927
0.82266252
0.82272717
0.82280832
0.82290285
0.8230037
0.82311318
0.82323782
0.82338077
0.82354451
0.82373219
0.82394747
0.82419428
0.82447753
0.82480323
0.82517795
0.82561004
0.82611054
0.82669317
0.82737569
0.82818197
0.82914479
0.83030965
0.83173931
0.83351836
0.8357558
0.83858322
0.84214225
0.84656639
0.85194625
0.85832224
0.8656755
0.87383478
0.88267447
0.89243434
0.90286213
0.91361552
0.92476958
0.93620602
0.94780637
0.95946271
0.97106713
0.98251936
0.99373566
1.004641
1.0151953
1.0253538
1.0351334
1.0444927
1.0535223
1.0621209
1.0705073
1.0783922
1.086271
1.0934025
1.1009257
1.1070803
1.1144937
1.1190853
1.1269779
1.1284346
1.1385783
0.80684544
0.80690257
0.80696164
0.80702163
0.80709205
0.80717361
0.80726701
0.80737529
0.80750158
0.8076481
0.80781779
0.80801306
0.80823328
0.8084775
0.80874784
0.80905065
0.80939474
0.80978832
0.81023994
0.81076064
0.81136486
0.81207191
0.81290814
0.81391003
0.81512831
0.8166328
0.8185173
0.82090251
0.823934
0.82777182
0.83256477
0.83843076
0.84540996
0.85348936
0.86246534
0.87226263
0.8829533
0.89434237
0.90605484
0.91815913
0.93056184
0.94314367
0.95579804
0.96841212
0.98087566
0.99308302
1.0049461
1.0163859
1.0273586
1.0378165
1.0477768
1.057199
1.0661802
1.0746265
1.0827717
1.0903386
1.0978434
1.1045617
1.1116519
1.1173922
1.1243812
1.1287099
1.1362263
1.1379292
1.1483849
0.78837914
0.7884477
0.78853221
0.7886239
0.78872579
0.78883984
0.78896708
0.78910867
0.7892663
0.78944247
0.78963995
0.7898616
0.79011083
0.79039177
0.79070944
0.79107006
0.79148143
0.79195349
0.79249922
0.79313588
0.7938868
0.79478381
0.79587049
0.79720624
0.79887078
0.80096821
0.80362897
0.80700672
0.81126753
0.81656709
0.8230236
0.83069898
0.83952911
0.8494302
0.86029467
0.87211133
0.88462012
0.89744185
0.91065078
0.92416331
0.9378575
0.95162876
0.96536166
0.97893785
0.9922423
1.0051674
1.017623
1.0295305
1.0408456
1.0515232
1.0615817
1.0709886
1.0798472
1.088076
1.0959208
1.1031214
1.1102091
1.1164841
1.1231087
1.1284196
1.1349394
1.1390234
1.1459171
1.1483715
1.1560948
0.7686848
0.76876999
0.76887407
0.76898175
0.76910052
0.76923298
0.76938036
0.76954435
0.76972708
0.76993101
0.77015908
0.77041482
0.77070258
0.7710278
0.7713974
0.77182035
0.77230847
0.77287751
0.77354869
0.77435083
0.77532302
0.77651813
0.77800683
0.77988169
0.78226033
0.78528581
0.78912162
0.79393893
0.79989431
0.80710057
0.81561383
0.82536489
0.83624549
0.84825623
0.86112157
0.87463708
0.88852262
0.90285237
0.917524
0.93239938
0.94736272
0.96228867
0.97704978
0.99151982
1.0055801
1.019122
1.0320572
1.0443103
1.0558412
1.0666114
1.0766453
1.0859217
1.0945509
1.102471