/*--------------------------------*- C++ -*----------------------------------*\
  =========                 |
  \\      /  F ield         | OpenFOAM: The Open Source CFD Toolbox
   \\    /   O peration     | Website:  https://openfoam.org
    \\  /    A nd           | Version:  13
     \\/     M anipulation  |
\*---------------------------------------------------------------------------*/
FoamFile
{
    format      ascii;
    class       volScalarField;
    location    "18.400264";
    object      nut;
}
// * * * * * * * * * * * * * * * * * * * * * * * * * * * * * * * * * * * * * //

dimensions      [0 2 -1 0 0 0 0];

internalField   nonuniform List<scalar> 
17140
(
5.8038129e-17
1.1287637e-14
3.0064754e-13
3.0478286e-12
1.8430669e-11
8.16455e-11
2.9476045e-10
9.2214335e-10
2.5972013e-09
6.7538773e-09
1.6501942e-08
3.8362918e-08
8.5650297e-08
1.8495163e-07
3.8839772e-07
7.9662067e-07
1.6012675e-06
3.162946e-06
6.1526803e-06
1.1805636e-05
2.2369325e-05
4.187733e-05
7.7433884e-05
0.00014119875
0.00025304465
0.00044308833
0.00075178625
0.0012241052
0.0018963475
0.0027804884
0.0038551829
0.00506822
0.0063471406
0.0068536487
0.0073404658
0.0079291236
0.0085801061
0.009330058
0.010222605
0.011299821
0.012532537
0.013345971
0.013496833
0.013635973
0.013777407
0.013923332
0.01407618
0.014236876
0.014383931
0.014508067
0.014583843
0.014581215
0.014503555
0.014289425
0.01393963
0.013382228
0.012626998
0.011693109
0.010678809
0.0095867353
0.0085330809
0.0076776803
0.0069825088
0.0062851725
0.005454319
5.7607144e-17
1.1203808e-14
2.9841502e-13
3.0252045e-12
1.8293932e-11
8.1040149e-11
2.9257645e-10
9.1531559e-10
2.5779841e-09
6.7039351e-09
1.6379976e-08
3.8079457e-08
8.5017402e-08
1.8358427e-07
3.8552296e-07
7.907127e-07
1.5893559e-06
3.1393161e-06
6.1064501e-06
1.1716287e-05
2.2198568e-05
4.1554657e-05
7.6831945e-05
0.00014009466
0.00025106839
0.00043967724
0.00074619829
0.0012155685
0.0018843704
0.0027652266
0.0038376852
0.0050504907
0.0063321206
0.0069974473
0.0074966828
0.00809007
0.0087644847
0.0095456031
0.010471691
0.011569555
0.012757279
0.013362429
0.013526127
0.013681136
0.013840586
0.014012264
0.01420291
0.014404663
0.014605434
0.014797594
0.014964513
0.015090157
0.015154206
0.015111589
0.014978302
0.014667116
0.014166982
0.013486473
0.012649752
0.011656281
0.010542105
0.0094183134
0.0083819883
0.0073692012
0.0064139513
5.6645632e-17
1.1016805e-14
2.9343416e-13
2.9747116e-12
1.7988605e-11
7.9687662e-11
2.8769394e-10
9.0004179e-10
2.5349669e-09
6.5920669e-09
1.6106605e-08
3.7443738e-08
8.3597277e-08
1.8051489e-07
3.7906835e-07
7.7744746e-07
1.5626175e-06
3.0863035e-06
6.0028333e-06
1.1516296e-05
2.1817035e-05
4.0835232e-05
7.5493186e-05
0.00013764561
0.00024669621
0.00043214745
0.00073387905
0.0011967361
0.0018578445
0.0027311184
0.0037979225
0.0050090338
0.0062951593
0.0072686541
0.007793765
0.0083831429
0.0090850971
0.0099047751
0.01086702
0.011967118
0.013055533
0.013380909
0.013564876
0.013741529
0.013928942
0.014142493
0.014382684
0.014644683
0.014924791
0.015218601
0.015516322
0.015806927
0.016074877
0.016303683
0.016489492
0.016562164
0.016463525
0.016215978
0.015764568
0.0151147
0.014178926
0.012920278
0.011352055
0.0095482326
0.0074812232
5.511017e-17
1.0718177e-14
2.8548016e-13
2.8940782e-12
1.7501013e-11
7.7527753e-11
2.7989632e-10
8.7564751e-10
2.4662591e-09
6.41338e-09
1.566993e-08
3.6428219e-08
8.1328687e-08
1.7561177e-07
3.687583e-07
7.5626171e-07
1.5199239e-06
3.0016868e-06
5.8375239e-06
1.1197433e-05
2.1209197e-05
3.9690118e-05
7.3364325e-05
0.00013375469
0.00023975428
0.0004201925
0.00071430089
0.0011667325
0.0018153877
0.0026761028
0.0037329792
0.0049398842
0.0062309561
0.0075346433
0.0082577194
0.0088830468
0.0096114654
0.010470685
0.011457812
0.012480337
0.013152968
0.013394514
0.013603193
0.013808049
0.01403575
0.014299464
0.014597481
0.014933082
0.015307247
0.015719441
0.016164633
0.016635835
0.017124592
0.017625297
0.018127506
0.018580697
0.018929037
0.01905422
0.018942902
0.018632153
0.017908958
0.016584818
0.014312949
0.011013942
0.0077552649
5.296506e-17
1.0300983e-14
2.7436815e-13
2.78143e-12
1.6819815e-11
7.4510122e-11
2.6900169e-10
8.4156265e-10
2.3702509e-09
6.163676e-09
1.5059657e-08
3.5008884e-08
7.815779e-08
1.6875811e-07
3.5434622e-07
7.2664664e-07
1.4602453e-06
2.883416e-06
5.606497e-06
1.0751888e-05
2.0360044e-05
3.8090692e-05
7.0391085e-05
0.00012831931
0.00023004902
0.00040344851
0.00068678895
0.001124343
0.0017549109
0.0025967457
0.0036373117
0.0048337899
0.0061226784
0.0074328409
0.0086975352
0.0096000134
0.010400066
0.011294958
0.012237599
0.012786088
0.013127421
0.013397086
0.01363409
0.013874106
0.014150423
0.014465188
0.014826294
0.015240292
0.015711795
0.016243256
0.016832097
0.017472801
0.018160268
0.01889273
0.019662039
0.020431591
0.021124936
0.021567716
0.021709734
0.02160296
0.021017888
0.019612943
0.016408399
0.011697008
0.0073120544
5.0183767e-17
9.7600596e-15
2.5996062e-13
2.6353719e-12
1.5936566e-11
7.0597314e-11
2.5487467e-10
7.9736288e-10
2.2457449e-09
5.8398333e-09
1.426814e-08
3.3167906e-08
7.4044671e-08
1.5986748e-07
3.3565017e-07
6.8822832e-07
1.382829e-06
2.730002e-06
5.3068512e-06
1.0174079e-05
1.9258939e-05
3.6016792e-05
6.6535218e-05
0.00012126627
0.000217438
0.00038163356
0.00065078453
0.001068494
0.001674482
0.0024898624
0.0035061558
0.0046843869
0.0059634193
0.0072721286
0.0085407271
0.0097086983
0.010727059
0.011563874
0.012215843
0.012707806
0.013082071
0.013380482
0.013650338
0.013934428
0.014255967
0.014622418
0.015045907
0.015535177
0.016097212
0.016736117
0.017449522
0.018230425
0.019073223
0.019832274
0.02043168
0.021431148
0.022878524
0.023535017
0.023812284
0.023780365
0.023167724
0.021510454
0.017408958
0.011279746
0.0062585822
4.6768884e-17
9.0959125e-15
2.4227101e-13
2.4560404e-12
1.4852092e-11
6.5793006e-11
2.3752864e-10
7.4309052e-10
2.0928621e-09
5.4421737e-09
1.3296189e-08
3.0907242e-08
6.8993939e-08
1.4895056e-07
3.1269462e-07
6.4106258e-07
1.2878019e-06
2.5417337e-06
4.9392401e-06
9.4654698e-06
1.7909101e-05
3.3475277e-05
6.1810627e-05
0.00011262142
0.00020196209
0.00035479146
0.00060627475
0.00099896131
0.0015733934
0.0023539426
0.0033370154
0.0044884221
0.0057501895
0.0070520003
0.0083225645
0.0094986091
0.010531073
0.011390766
0.012073889
0.012601715
0.013009317
0.013340536
0.013646274
0.013975112
0.01433846
0.014753452
0.015233386
0.015788281
0.016426262
0.017151743
0.017960591
0.018841788
0.019422977
0.019847029
0.020562691
0.021691112
0.023272067
0.024842453
0.025127405
0.024988256
0.024147591
0.022143375
0.017147578
0.0094786897
0.0048320885
4.2774656e-17
8.3190904e-15
2.2158025e-13
2.2462841e-12
1.3583627e-11
6.0173606e-11
2.172397e-10
6.7961069e-10
1.9140443e-09
4.9770644e-09
1.2159418e-08
2.8263381e-08
6.3087611e-08
1.3618602e-07
2.8585922e-07
5.8593992e-07
1.176784e-06
2.3218878e-06
4.5102247e-06
8.6390816e-06
1.6336152e-05
3.0516041e-05
5.6312974e-05
0.00010256361
0.00018394186
0.0003234591
0.00055406965
0.00091679446
0.0014527383
0.0021897888
0.0031301009
0.0042454814
0.0054823381
0.006772268
0.0080436011
0.0092313514
0.010284974
0.011174351
0.011893669
0.012460999
0.012904857
0.013270115
0.013615326
0.013982697
0.014384617
0.014841512
0.015367773
0.015973767
0.016667658
0.017452929
0.018321977
0.018964894
0.019246472
0.019754797
0.020575734
0.021764836
0.023408678
0.025411043
0.025589458
0.025205398
0.024055136
0.021468929
0.014837047
0.0068040802
0.0035571792
3.8313199e-17
7.4513957e-15
1.9846901e-13
2.0119899e-12
1.2166784e-11
5.3896926e-11
1.9457797e-10
6.0870845e-10
1.7143249e-09
4.4576164e-09
1.0889934e-08
2.5311177e-08
5.6493464e-08
1.2193805e-07
2.5591395e-07
5.2445364e-07
1.0530141e-06
2.0769534e-06
4.0326486e-06
7.7200711e-06
1.4588885e-05
2.7232725e-05
5.0219539e-05
9.1421723e-05
0.00016396832
0.00028864613
0.00049576761
0.00082426815
0.0013153382
0.0020003685
0.0028879865
0.0039573144
0.0051606198
0.0064326925
0.0077023739
0.0089032431
0.0099823485
0.010906704
0.011667015
0.012277494
0.012761606
0.013162969
0.013550514
0.01394736
0.014382068
0.014871523
0.015430989
0.016070258
0.016796557
0.017611278
0.018482037
0.018654863
0.019012575
0.019605463
0.020472452
0.021647916
0.023431259
0.025206131
0.025143841
0.024402971
0.022692365
0.019141641
0.010638886
0.0042111751
0.002603705
3.3543945e-17
6.5238403e-15
1.7376339e-13
1.7615333e-12
1.0652212e-11
4.7187393e-11
1.7035395e-10
5.3292073e-10
1.5008541e-09
3.9024399e-09
9.533264e-09
2.2156649e-08
4.9448731e-08
1.0672046e-07
2.2394208e-07
4.5883705e-07
9.2101141e-07
1.8159325e-06
3.5242055e-06
6.7428133e-06
1.2733369e-05
2.3750927e-05
4.3765988e-05
7.9630144e-05
0.0001428209
0.00025169417
0.00043353712
0.0007245865
0.0011654001
0.001790466
0.0026152763
0.0036275253
0.0047870148
0.0060332592
0.0072966298
0.0085095624
0.009616125
0.010579218
0.011384754
0.012041818
0.012570073
0.013012295
0.01343649
0.013865516
0.014320435
0.014830302
0.015408043
0.016060835
0.016794126
0.017606089
0.018078592
0.018283136
0.018702915
0.019316626
0.020148678
0.021310425
0.023240591
0.024195168
0.023770715
0.022500427
0.020049966
0.014710228
0.0058978814
0.0028335602
0.0019190812
2.8654725e-17
5.5729527e-15
1.4843628e-13
1.5047763e-12
9.0995503e-12
4.0309231e-11
1.4552174e-10
4.5523294e-10
1.2820424e-09
3.333415e-09
8.1428956e-09
1.8924233e-08
4.2231501e-08
9.1134539e-08
1.9120855e-07
3.9169063e-07
7.8601894e-07
1.5492221e-06
3.0052205e-06
5.746544e-06
1.0844476e-05
2.0211897e-05
3.7215479e-05
6.767151e-05
0.00012136539
0.00021410525
0.00036985391
0.00062153354
0.0010081385
0.0015663851
0.0023184957
0.0032617167
0.0043651598
0.0055749339
0.0068243324
0.0080452768
0.0091786625
0.010182427
0.011036528
0.011744086
0.012320902
0.012805574
0.013264177
0.013719281
0.014197231
0.014717137
0.015294302
0.015938392
0.016653337
0.017434509
0.017585378
0.017838838
0.018240076
0.018775949
0.019502397
0.020730867
0.022555599
0.022378325
0.021460908
0.0194768
0.016086998
0.0083556073
0.0032103319
0.0020214875
0.0014224771
2.3839674e-17
4.6364896e-15
1.2349335e-13
1.2519146e-12
7.5704543e-12
3.3535547e-11
1.2106727e-10
3.7872941e-10
1.0665765e-09
2.773129e-09
6.7740133e-09
1.5742206e-08
3.5128138e-08
7.5798568e-08
1.5901154e-07
3.2567659e-07
6.5338723e-07
1.2873904e-06
2.4962525e-06
4.7707232e-06
8.9970232e-06
1.6755858e-05
3.0827746e-05
5.6020585e-05
0.00010045501
0.00017737546
0.00030724216
0.00051911863
0.00084938209
0.0013356563
0.0020060684
0.0028678406
0.0039010671
0.0050606513
0.0062847346
0.0075059056
0.008662197
0.0097061364
0.010610789
0.011371992
0.012001593
0.012531226
0.01302179
0.013498661
0.013987725
0.014510087
0.015077973
0.015697518
0.016368837
0.016889658
0.016971813
0.017187569
0.017482401
0.01788789
0.018579484
0.019885366
0.020486617
0.019797176
0.018164638
0.01537017
0.010026001
0.0036827521
0.0019655566
0.0013746607
0.0010049541
1.9280331e-17
3.749759e-15
9.9875105e-14
1.0124832e-12
6.1225825e-12
2.712174e-11
9.7912411e-11
3.0629349e-10
8.6257482e-10
2.2426848e-09
5.4781498e-09
1.2730277e-08
2.8405641e-08
6.1288313e-08
1.2855797e-07
2.6326458e-07
5.2806568e-07
1.0401778e-06
2.0161653e-06
3.8513632e-06
7.2588737e-06
1.3509189e-05
2.4835551e-05
4.5101523e-05
8.0853977e-05
0.00014286169
0.00024805364
0.000421246
0.0006951648
0.0011066829
0.0016882379
0.0024565796
0.0034039956
0.0044965424
0.0056797282
0.006888723
0.0080596844
0.0091398007
0.010094576
0.010911349
0.011596859
0.012175686
0.01269612
0.01319036
0.013682961
0.014193876
0.014734218
0.015306703
0.015907355
0.016115792
0.016157254
0.016264953
0.01641925
0.016728749
0.01748974
0.018385571
0.017766613
0.016391423
0.013907625
0.010083631
0.004083786
0.0018103975
0.0013376975
0.00097342357
0.00074765722
1.5129552e-17
2.9424883e-15
7.8373315e-14
7.9450801e-13
4.8044646e-12
2.1282761e-11
7.6833034e-11
2.4035168e-10
6.768683e-10
1.7598344e-09
4.2986384e-09
9.989058e-09
2.2288232e-08
4.8086784e-08
1.0085886e-07
2.065193e-07
4.1418129e-07
8.1567851e-07
1.5805674e-06
3.0181059e-06
5.6855506e-06
1.0574625e-05
1.942703e-05
3.5256124e-05
6.3180076e-05
0.00011167646
0.00019427629
0.00033138483
0.00055123007
0.00088816528
0.0013766829
0.0020414584
0.0028872196
0.0038933
0.0050155697
0.006194538
0.0073663663
0.0084737241
0.0094744318
0.010346559
0.011089215
0.011721517
0.012272413
0.012779056
0.013272454
0.013761042
0.014256773
0.014760264
0.015252805
0.015157447
0.015109312
0.015078201
0.015110473
0.015432185
0.016151961
0.015665138
0.014348024
0.012115274
0.0089529231
0.0039652699
0.0015878459
0.0011710424
0.00089682397
0.00069052632
0.00062884703
1.1497979e-17
2.2361965e-15
5.9561143e-14
6.0379944e-13
3.6512337e-12
1.6174218e-11
5.8390759e-11
1.8266021e-10
5.1440006e-10
1.3374196e-09
3.2668129e-09
7.5912477e-09
1.6937778e-08
3.6542185e-08
7.6641643e-08
1.569224e-07
3.146851e-07
6.1965325e-07
1.2005e-06
2.2917615e-06
4.3156867e-06
8.02296e-06
1.4730659e-05
2.6716556e-05
4.7854423e-05
8.4593107e-05
0.00014735124
0.0002522218
0.00042241984
0.00068818157
0.0010833882
0.0016380307
0.0023680606
0.0032672645
0.0043048379
0.0054301362
0.0065822724
0.0077012501
0.0087378856
0.0096606985
0.010458781
0.011140743
0.011727252
0.012244012
0.012731804
0.013189931
0.013628459
0.014043697
0.014190592
0.013996502
0.013835174
0.013679873
0.013657915
0.013964179
0.013633976
0.012284482
0.010160429
0.0072725224
0.0033988929
0.0013964551
0.00094883476
0.00074790398
0.00061924466
0.00056339206
0.00060888693
8.4496548e-18
1.6433399e-15
4.3770376e-14
4.437209e-13
2.6832272e-12
1.1886183e-11
4.2910649e-11
1.3423539e-10
3.7802997e-10
9.828673e-10
2.4007844e-09
5.5788313e-09
1.2447641e-08
2.6854978e-08
5.6324001e-08
1.1532138e-07
2.3125615e-07
4.5535578e-07
8.8213845e-07
1.6838209e-06
3.170276e-06
5.8919601e-06
1.0813737e-05
1.9603003e-05
3.5096262e-05
6.2029681e-05
0.00010812107
0.00018551618
0.00031235249
0.00051365576
0.00082014937
0.0012635362
0.0018682329
0.002641703
0.0035687759
0.0046114929
0.0057159191
0.0068224894
0.0078767629
0.0088380299
0.0096841894
0.010412189
0.011033472
0.011563956
0.012033978
0.012449505
0.012813726
0.013118616
0.012946682
0.012652017
0.012379356
0.012136052
0.012053241
0.011691702
0.010308078
0.0082286388
0.0055108929
0.0026004024
0.0011411568
0.00075305095
0.00061907626
0.00053186979
0.00051576841
0.00054805255
0.00064373218
5.9987895e-18
1.1666811e-15
3.1074562e-14
3.1501753e-13
1.9049487e-12
8.4385987e-12
3.0464635e-11
9.5301924e-11
2.6838939e-10
6.9781318e-10
1.7045255e-09
3.9609645e-09
8.8380012e-09
1.9067943e-08
3.9993403e-08
8.1888941e-08
1.6422323e-07
3.2338722e-07
6.2653001e-07
1.1960002e-06
2.251909e-06
4.1851061e-06
7.6802365e-06
1.3919489e-05
2.4913018e-05
4.4020845e-05
7.6745427e-05
0.00013185657
0.00022279405
0.00036897475
0.00059608332
0.0009339533
0.0014109879
0.0020457535
0.0028382886
0.0037667402
0.004788789
0.0058497417
0.0068930983
0.0078704884
0.0087485774
0.0095115882
0.010158921
0.010699381
0.011141005
0.011509149
0.011776279
0.011942571
0.011552194
0.01115964
0.010782964
0.010400731
0.0098915491
0.0083972514
0.0063961155
0.003876848
0.0018078476
0.00084434195
0.00058132605
0.00051251203
0.00046266601
0.00046039908
0.00050256256
0.00057132455
0.00067263993
4.1136052e-18
8.0003901e-16
2.1309038e-14
2.1601992e-13
1.3063027e-12
5.7867368e-12
2.0891208e-11
6.5354379e-11
1.8405393e-10
4.7854984e-10
1.1689658e-09
2.7165168e-09
6.061539e-09
1.3078448e-08
2.7432974e-08
5.6176385e-08
1.126737e-07
2.2191635e-07
4.3003954e-07
8.2114311e-07
1.5465861e-06
2.8751907e-06
5.2777712e-06
9.5667972e-06
1.7122791e-05
3.0252808e-05
5.2740984e-05
9.0658676e-05
0.00015346419
0.000255276
0.00041586149
0.00066038264
0.001016653
0.0015092072
0.0021510994
0.0029365592
0.0038388434
0.0048134838
0.005806769
0.0067659677
0.0076479594
0.0084240856
0.0090801681
0.0096121719
0.010014726
0.010302895
0.010458075
0.010459466
0.010035853
0.009529397
0.0089389888
0.0082107424
0.0066358801
0.0046455255
0.0024930479
0.0011676492
0.00057885915
0.00042990427
0.00040963826
0.00039812136
0.00041349371
0.00045852329
0.00052996568
0.00061362092
0.00072477861
2.7280124e-18
5.3056015e-16
1.413146e-14
1.4325757e-13
8.6630257e-13
3.8376314e-12
1.385475e-11
4.3342829e-11
1.2206664e-10
3.1738813e-10
7.7531827e-10
1.8018128e-09
4.0207352e-09
8.6758709e-09
1.8200228e-08
3.7275412e-08
7.4778997e-08
1.4732129e-07
2.855893e-07
5.4557581e-07
1.0281675e-06
1.9127632e-06
3.5139305e-06
6.3749558e-06
1.1418724e-05
2.0185369e-05
3.5197744e-05
6.0508955e-05
0.0001024887
0.0001708236
0.0002796012
0.00044796968
0.00069946144
0.0010589113
0.0015465714
0.0021704572
0.0029204352
0.0037664191
0.0046632674
0.0055589603
0.0064039477
0.0071580184
0.0077927742
0.0082888585
0.008623754
0.0087943618
0.0088162701
0.0086411916
0.0082616804
0.0075496622
0.0065007338
0.0050495958
0.0030815659
0.0015084987
0.00072771131
0.00037793222
0.00031125665
0.00031779668
0.00033465959
0.00036880189
0.00042027905
0.00048466995
0.0005697939
0.00064357493
0.00075052616
1.7545003e-18
3.4122564e-16
9.0885375e-15
9.213518e-14
5.5716037e-13
2.4681915e-12
8.9109015e-12
2.7877249e-11
7.8513058e-11
2.0415072e-10
4.9872317e-10
1.1590817e-09
2.5866794e-09
5.5820579e-09
1.1711658e-08
2.3990919e-08
4.8141314e-08
9.4876556e-08
1.8401088e-07
3.5174709e-07
6.6342266e-07
1.2354454e-06
2.2723593e-06
4.1281903e-06
7.4056614e-06
1.3112651e-05
2.2902013e-05
3.9425205e-05
6.6830839e-05
0.00011145306
0.00018270771
0.00029395115
0.00046277014
0.00071001866
0.0010566475
0.0015181146
0.0020977676
0.0027814984
0.0035373033
0.0043197525
0.0050781567
0.0057641935
0.0063365296
0.0067600301
0.0069985576
0.007031138
0.0069141807
0.0065801787
0.0059145302
0.0048498342
0.0034936673
0.001813939
0.00088063254
0.00043377386
0.00024148452
0.0002257337
0.00024511574
0.00027860476
0.0003263918
0.00038377875
0.00044391266
0.00052279139
0.00060363859
0.00068361907
0.00078752096
1.10001e-18
2.1393654e-16
5.6981985e-15
5.776576e-14
3.4932443e-13
1.5475126e-12
5.5871016e-12
1.7479437e-11
4.923062e-11
1.2801592e-10
3.1274986e-10
7.2691336e-10
1.6223756e-09
3.5015181e-09
7.3477133e-09
1.5054928e-08
3.0219274e-08
5.958114e-08
1.1562267e-07
2.2118942e-07
4.1760292e-07
7.7868187e-07
1.4345423e-06
2.6111574e-06
4.6945454e-06
8.3321495e-06
1.4588338e-05
2.5175441e-05
4.2784846e-05
7.153784e-05
0.00011751841
0.00018937202
0.00029886797
0.00046134093
0.00069398907
0.0010129324
0.0014281906
0.0019379008
0.0025241879
0.0031530163
0.0037786226
0.0043501068
0.004816771
0.0051288525
0.0052509384
0.0051795435
0.0049051297
0.0043292964
0.0033626566
0.0021046655
0.0009533902
0.00048735222
0.00025220237
0.0001525994
0.00016519984
0.00019060626
0.00023348805
0.00028964163
0.00030552013
0.00033008083
0.00036560908
0.00042932929
0.00052635456
0.00071173082
0.00082483011
6.7892926e-19
1.3204224e-16
3.5169463e-15
3.5653375e-14
2.1560765e-13
9.5516471e-13
3.4486045e-12
1.0789491e-11
3.0389924e-11
7.9028515e-11
1.9308485e-10
4.4882028e-10
1.001821e-09
2.1625101e-09
4.5387573e-09
9.3019615e-09
1.8677997e-08
3.6843408e-08
7.1543872e-08
1.3698413e-07
2.5892409e-07
4.8353685e-07
8.9254464e-07
1.6285547e-06
2.9364275e-06
5.2288509e-06
9.1867384e-06
1.5906809e-05
2.7113203e-05
4.545727e-05
7.4907777e-05
0.00012119583
0.00019209391
0.00029741399
0.00044886838
0.00065913451
0.00093901278
0.0012921228
0.0017106465
0.0021722297
0.0026402102
0.0030669157
0.0033970341
0.0035724577
0.0035787854
0.0033780123
0.0028936544
0.0021103431
0.0010790295
0.00049616525
0.00025780901
0.00014272068
9.9935456e-05
0.00011775658
0.00014992771
0.00019828634
0.00025713393
0.0002297706
0.00024390982
0.00026307078
0.00029885009
0.0003750808
0.00047061406
0.00067123758
0.00082629832
4.2090543e-19
8.1860196e-17
2.1803492e-15
2.2103646e-14
1.3367024e-13
5.9219025e-13
2.1381799e-12
6.6899862e-12
1.8844437e-11
4.9008696e-11
1.197515e-10
2.7839285e-10
6.2149933e-10
1.3418053e-09
2.8168928e-09
5.7748232e-09
1.1600215e-08
2.2894114e-08
4.4487968e-08
8.5261222e-08
1.6136309e-07
3.0185005e-07
5.5839852e-07
1.0217199e-06
1.8486371e-06
3.305376e-06
5.8340381e-06
1.0149979e-05
1.7380371e-05
2.9244525e-05
4.8290424e-05
7.8200101e-05
0.00012415457
0.00019298779
0.00029303796
0.00043223371
0.00061744202
0.00085200477
0.0011338473
0.0014479856
0.0017658876
0.0020445576
0.0022247433
0.0022603045
0.0021194864
0.0017422347
0.0011328459
0.00049862565
0.00025292879
0.00013610913
8.0774761e-05
6.7375285e-05
8.7846035e-05
0.00012279463
0.00017319692
0.00019621369
0.00018261654
0.00018987758
0.00019870028
0.00022002278
0.0002622521
0.0003308684
0.00042893126
0.0006166147
0.00077863781
2.7279651e-19
5.305511e-17
1.4131284e-15
1.4325974e-14
8.6637398e-14
3.8383927e-13
1.3859813e-12
4.336816e-12
1.2217148e-11
3.1776773e-11
7.765657e-11
1.8056302e-10
4.0318215e-10
8.7068612e-10
1.8284502e-09
3.750002e-09
7.5368235e-09
1.4884697e-08
2.8949184e-08
5.5543297e-08
1.0527186e-07
1.9729572e-07
3.6587663e-07
6.7157196e-07
1.2199671e-06
2.1921175e-06
3.8921216e-06
6.8181911e-06
1.1760836e-05
1.9927669e-05
3.3080558e-05
5.3676184e-05
8.5007653e-05
0.00013136398
0.00019818277
0.00029186879
0.00041772929
0.00057770249
0.00076558922
0.00096831309
0.0011611278
0.0012980928
0.0013185616
0.0012132569
0.00092654905
0.00049890955
0.00023370677
0.0001261691
7.1941459e-05
4.7367139e-05
4.8066723e-05
6.9332126e-05
0.00010514153
0.00015558011
0.00015859814
0.00015383327
0.00015754053
0.00015984869
0.00017138202
0.00019648716
0.00023441008
0.00029979924
0.00039220532
0.00058022562
0.00077971618
1.9593986e-19
3.810761e-17
1.0150051e-15
1.0290048e-14
6.2231826e-14
2.7572704e-13
9.9568059e-13
3.1158546e-12
8.7787263e-12
2.2837085e-11
5.5820551e-11
1.2982208e-10
2.8996626e-10
6.2641431e-10
1.3160452e-09
2.7005316e-09
5.431157e-09
1.0735049e-08
2.0900603e-08
4.0155393e-08
7.6240334e-08
1.4320242e-07
2.6630453e-07
4.905226e-07
8.9498153e-07
1.6168454e-06
2.8894079e-06
5.0996445e-06
8.8681677e-06
1.514592e-05
2.5313915e-05
4.1254442e-05
6.5370411e-05
0.00010053333
0.00014985306
0.00021657166
0.00030318718
0.00040969752
0.00053021546
0.00064634388
0.00072396757
0.00071400024
0.00062242419
0.00042010762
0.00020787302
0.00010909767
6.2913295e-05
3.8665876e-05
2.9196801e-05
3.623457e-05
5.7580264e-05
9.3361727e-05
0.00014215913
0.00013809179
0.00013827977
0.00013954539
0.00013891564
0.0001442099
0.00015822311
0.0001807644
0.00021811183
0.00027932795
0.00037389834
0.00054675197
0.00075474991
1.6099935e-19
3.1312199e-17
8.3401272e-16
8.4553014e-15
5.1137417e-14
2.2658396e-13
8.1828394e-13
2.5609899e-12
7.2164529e-12
1.8776407e-11
4.5905766e-11
1.0679465e-10
2.3862095e-10
5.1573022e-10
1.0841266e-09
2.2262087e-09
4.4811399e-09
8.8668162e-09
1.7286103e-08
3.3264977e-08
6.3284207e-08
1.191635e-07
2.2228565e-07
4.1099869e-07
7.533641e-07
1.3685764e-06
2.4615995e-06
4.3759352e-06
7.6669566e-06
1.3186368e-05
2.2151202e-05
3.6143117e-05
5.698509e-05
8.6482096e-05
0.00012604215
0.00017615996
0.00023547047
0.00029860511
0.00035265727
0.00037730934
0.00035110111
0.00027534542
0.00016609179
8.6059983e-05
4.9549711e-05
3.117691e-05
2.1715798e-05
1.9506628e-05
2.910464e-05
4.931051e-05
8.4655343e-05
0.00013148239
0.00013039153
0.00013267687
0.00013215879
0.00012999106
0.00013188749
0.000139088
0.00015126808
0.00017289944
0.00020734704
0.00026631106
0.00035028335
0.00052558968
0.0007600996
1.437165e-19
2.7950947e-17
7.4448839e-16
7.5477927e-15
4.5649884e-14
2.0227674e-13
7.3054042e-13
2.2865525e-12
6.4438066e-12
1.6768419e-11
4.1004107e-11
9.5414517e-11
2.132596e-10
4.6109968e-10
9.697725e-10
1.9926388e-09
4.014125e-09
7.9504156e-09
1.5517917e-08
2.9905335e-08
5.6991528e-08
1.0753687e-07
2.0109323e-07
3.7290324e-07
6.8587985e-07
1.2509015e-06
2.2598698e-06
4.03559e-06
7.0996032e-06
1.2240628e-05
2.0534922e-05
3.3224407e-05
5.1365246e-05
7.5284206e-05
0.00010398399
0.00013439681
0.00016200971
0.00017905311
0.00017661597
0.00015016962
0.00010423326
6.1614268e-05
3.5404386e-05
2.2695427e-05
1.5710758e-05
1.2891018e-05
1.4078099e-05
2.3728988e-05
4.372157e-05
7.6637256e-05
0.00012209232
0.00013260671
0.00013503287
0.0001320053
0.00012870091
0.00012842039
0.00013167972
0.00013762012
0.00014910434
0.00016914857
0.00020133688
0.00025598349
0.00034760753
0.00051288239
0.00075796713
1.246203e-19
2.4237e-17
6.4556677e-16
6.5449277e-15
3.9584629e-14
1.7540236e-13
6.3348719e-13
1.9828105e-12
5.5879489e-12
1.454175e-11
3.5560888e-11
8.2753798e-11
1.8497768e-10
3.9999376e-10
8.4137081e-10
1.7290893e-09
3.4838754e-09
6.9016697e-09
1.3473992e-08
2.5972187e-08
4.9505503e-08
9.3422532e-08
1.7469628e-07
3.2387608e-07
5.9536695e-07
1.084692e-06
1.9561618e-06
3.4836187e-06
6.0972326e-06
1.0416167e-05
1.7194002e-05
2.706926e-05
4.0056365e-05
5.4851238e-05
6.8741687e-05
7.8996543e-05
8.1413103e-05
7.37577e-05
5.6776195e-05
3.6949256e-05
2.293427e-05
1.4533571e-05
1.0486157e-05
8.5536362e-06
8.0546707e-06
1.0912292e-05
2.0410703e-05
3.9524476e-05
7.1457554e-05
0.00011356478
0.00014361697
0.00014340614
0.00013723175
0.00013207491
0.00013013501
0.0001307753
0.00013311939
0.00013950626
0.00015038836
0.00016903556
0.00019936369
0.00025400207
0.0003344903
0.00050329202
0.0007663255
9.5216514e-20
1.8518346e-17
4.932459e-16
5.0006241e-15
3.0244029e-14
1.3401021e-13
4.8397669e-13
1.5147661e-12
4.2686104e-12
1.1107345e-11
2.7158913e-11
6.3191176e-11
1.4121909e-10
3.0528267e-10
6.4190437e-10
1.3184992e-09
2.6548031e-09
5.2545482e-09
1.0246196e-08
1.9719415e-08
3.7509495e-08
7.0592648e-08
1.3153635e-07
2.4272794e-07
4.4348668e-07
8.0154397e-07
1.4302901e-06
2.5112304e-06
4.3138896e-06
7.1859773e-06
1.145577e-05
1.7193658e-05
2.3812364e-05
2.9763053e-05
3.3289601e-05
3.2777359e-05
2.7811945e-05
2.0212083e-05
1.3338444e-05
8.6870117e-06
6.2068184e-06
5.2126211e-06
4.9083594e-06
5.8371904e-06
8.8307987e-06
1.800818e-05
3.691888e-05
6.7965171e-05
0.0001065698
0.00014822309
0.00015797724
0.00014611283
0.00013861826
0.00013457446
0.00013271965
0.00013293082
0.00013644815
0.00014294993
0.0001530077
0.0001708895
0.00019895385
0.00025114334
0.00033784923
0.00050326679
0.00076926366
6.1210941e-20
1.1904698e-17
3.1708606e-16
3.2146311e-15
1.9441675e-14
8.6141188e-14
3.1107537e-13
9.7351165e-13
2.742954e-12
7.1360059e-12
1.7443738e-11
4.057194e-11
9.0625953e-11
1.9578659e-10
4.1132387e-10
8.4393846e-10
1.6968004e-09
3.3520264e-09
6.5201539e-09
1.2508054e-08
2.3693158e-08
4.4350226e-08
8.2064741e-08
1.5008454e-07
2.7107747e-07
4.8275146e-07
8.452853e-07
1.4485801e-06
2.4122657e-06
3.8616302e-06
5.8518527e-06
8.2199338e-06
1.0428225e-05
1.1677045e-05
1.1308639e-05
9.4555469e-06
6.935646e-06
4.8771432e-06
3.5905061e-06
2.8393042e-06
2.9037961e-06
3.3482577e-06
4.381898e-06
7.7493721e-06
1.7425537e-05
3.5891863e-05
6.431142e-05
9.9917881e-05
0.00013729758
0.00017609881
0.00015871549
0.00014755847
0.00014076441
0.00013616651
0.00013465477
0.00013644097
0.00014009139
0.00014670846
0.00015693003
0.00017446186
0.00020234806
0.00025408196
0.00033450612
0.00050281048
0.00077795611
3.289249e-20
6.3971338e-18
1.7038865e-16
1.7273704e-15
1.0446504e-14
4.6282883e-14
1.6712185e-13
5.2293563e-13
1.4731284e-12
3.8314233e-12
9.3623588e-12
2.1764933e-11
4.8584563e-11
1.0486957e-10
2.2006452e-10
4.5083665e-10
9.0464439e-10
1.7825024e-09
3.4555446e-09
6.6000456e-09
1.243128e-08
2.309943e-08
4.233952e-08
7.649236e-08
1.3600018e-07
2.3733754e-07
4.0486371e-07
6.7087404e-07
1.0697858e-06
1.6196102e-06
2.2850053e-06
2.9338203e-06
3.3367184e-06
3.2957895e-06
2.9070566e-06
2.3657207e-06
1.890299e-06
1.5853932e-06
1.5937404e-06
1.82222e-06
2.4329939e-06
3.7245068e-06
7.6841214e-06
1.6902805e-05
3.4145039e-05
6.0846392e-05
9.3512165e-05
0.00012717589
0.00016266036
0.00017239173
0.00015773754
0.00014756755
0.00014064979
0.00013757889
0.00013743608
0.0001391668
0.00014338194
0.00015097664
0.00016157276
0.00017919955
0.00020488037
0.00025597212
0.00033810701
0.00051244547
0.00078996679
1.4917603e-20
2.9012614e-18
7.7274756e-17
7.8337818e-16
4.7373634e-15
2.0987139e-14
7.5773354e-14
2.3706095e-13
6.6765513e-13
1.7359367e-12
4.2400603e-12
9.8512861e-12
2.1973496e-11
4.7381297e-11
9.9293981e-11
2.0306e-10
4.0651632e-10
7.9857879e-10
1.5420343e-09
2.9302184e-09
5.4825101e-09
1.0099865e-08
1.8306257e-08
3.2596726e-08
5.6877307e-08
9.6873483e-08
1.6013655e-07
2.5481259e-07
3.8579757e-07
5.4721247e-07
7.1321722e-07
8.3706795e-07
8.8770965e-07
8.8287448e-07
8.4396416e-07
8.2010641e-07
8.500392e-07
9.8133913e-07
1.3630721e-06
2.1097482e-06
3.6833425e-06
7.6242443e-06
1.5937916e-05
3.2269701e-05
5.7236769e-05
8.7008873e-05
0.00011774875
0.00015046255
0.00018248455
0.00016717203
0.0001546005
0.00014591502
0.00014124018
0.00013891939
0.00013879436
0.00014168147
0.00014694828
0.00015523544
0.00016613684
0.00018408151
0.00021073366
0.0002619738
0.00034411107
0.00051863361
0.00080000332
5.8660948e-21
1.1408691e-18
3.0386561e-17
3.0803694e-16
1.8627067e-15
8.2513116e-15
2.9787179e-14
9.3173344e-14
2.6234397e-13
6.8186629e-13
1.6646807e-12
3.8652454e-12
8.6143036e-12
1.8554561e-11
3.8827735e-11
7.9255403e-11
1.5827886e-10
3.0994715e-10
5.9605022e-10
1.1266416e-09
2.0935915e-09
3.8229281e-09
6.8509622e-09
1.2022763e-08
2.0591966e-08
3.4256907e-08
5.499349e-08
8.4468978e-08
1.2289143e-07
1.6770712e-07
2.1535883e-07
2.6445211e-07
3.1226841e-07
3.6204037e-07
4.2804329e-07
5.43414e-07
7.7406263e-07
1.2274151e-06
2.0343324e-06
3.6220492e-06
7.1623808e-06
1.4708343e-05
3.0239151e-05
5.36421e-05
8.0718171e-05
0.00010898097
0.00013947048
0.00017249364
0.0001715686
0.0001593368
0.00014998901
0.00014403179
0.00014002709
0.00013872985
0.00014028177
0.00014404993
0.00014987453
0.00015904915
0.00017113261
0.00019000991
0.00021544606
0.00026674543
0.00034713355
0.00053132718
0.00081315099
2.306699e-21
4.4861838e-19
1.194867e-17
1.2112455e-16
7.3241524e-16
3.2442154e-15
1.1710576e-14
3.6625963e-14
1.0310995e-13
2.6794225e-13
6.5397602e-13
1.5179884e-12
3.3817243e-12
7.2803918e-12
1.5225942e-11
3.1056551e-11
6.196777e-11
1.2122128e-10
2.3283511e-10
4.3949656e-10
8.1547855e-10
1.4868147e-09
2.6609039e-09
4.6659676e-09
7.9953091e-09
1.3341094e-08
2.160726e-08
3.3865974e-08
5.1404024e-08
7.6394075e-08
1.1054038e-07
1.5661379e-07
2.2148609e-07
3.1731575e-07
4.6494845e-07
7.3560756e-07
1.1833247e-06
1.9514279e-06
3.4411148e-06
6.6561986e-06
1.3701936e-05
2.8532788e-05
5.0137064e-05