/*--------------------------------*- C++ -*----------------------------------*\
  =========                 |
  \\      /  F ield         | OpenFOAM: The Open Source CFD Toolbox
   \\    /   O peration     | Website:  https://openfoam.org
    \\  /    A nd           | Version:  13
     \\/     M anipulation  |
\*---------------------------------------------------------------------------*/
FoamFile
{
    format      ascii;
    class       volScalarField;
    location    "32.698632";
    object      p;
}
// * * * * * * * * * * * * * * * * * * * * * * * * * * * * * * * * * * * * * //

dimensions      [0 2 -2 0 0 0 0];

internalField   nonuniform List<scalar> 
17140
(
-0.27861464
-0.2786229
-0.27863268
-0.27864313
-0.27865458
-0.27866723
-0.27868116
-0.27869646
-0.27871325
-0.27873163
-0.2787517
-0.27877358
-0.27879735
-0.27882311
-0.27885093
-0.27888087
-0.27891295
-0.27894719
-0.27898358
-0.27902205
-0.27906258
-0.27910511
-0.27914966
-0.27919638
-0.27924566
-0.27929837
-0.27935616
-0.27942197
-0.27950078
-0.27960061
-0.27973357
-0.27991656
-0.28017016
-0.28051464
-0.28096262
-0.2815115
-0.28214013
-0.28281226
-0.28348476
-0.28411645
-0.28467462
-0.28513853
-0.28550011
-0.28576108
-0.28593322
-0.28604005
-0.28610111
-0.28613204
-0.28614606
-0.28616242
-0.28616606
-0.28617334
-0.28606109
-0.28581195
-0.28493105
-0.28316813
-0.2790671
-0.27223494
-0.25912456
-0.24155906
-0.21923251
-0.20793686
-0.19683514
-0.1752564
-0.096696867
-0.27905395
-0.27906205
-0.2790719
-0.27908206
-0.27909319
-0.2791055
-0.27911907
-0.27913397
-0.27915031
-0.27916821
-0.27918776
-0.27920906
-0.27923221
-0.27925728
-0.27928436
-0.27931349
-0.2793447
-0.27937799
-0.27941335
-0.27945073
-0.27949007
-0.27953135
-0.27957456
-0.27961986
-0.27966766
-0.27971884
-0.27977504
-0.27983923
-0.27991638
-0.28001447
-0.28014555
-0.28032635
-0.28057728
-0.28091845
-0.28136259
-0.28190763
-0.2825334
-0.28320497
-0.28388075
-0.28452125
-0.28509562
-0.28558532
-0.2859849
-0.28629957
-0.28654616
-0.28675408
-0.28695138
-0.28716683
-0.28743112
-0.28778781
-0.28825612
-0.28889767
-0.28965113
-0.29056078
-0.29121025
-0.2913189
-0.28928848
-0.28388239
-0.26986384
-0.24776885
-0.21562734
-0.19160768
-0.16563223
-0.14149645
-0.073908632
-0.27956755
-0.2795753
-0.27958471
-0.27959446
-0.27960514
-0.27961696
-0.27962998
-0.27964428
-0.27965998
-0.27967716
-0.27969594
-0.27971639
-0.27973862
-0.27976269
-0.27978869
-0.27981664
-0.27984659
-0.27987852
-0.27991242
-0.27994824
-0.27998592
-0.28002543
-0.28006677
-0.2801101
-0.28015582
-0.28020482
-0.28025873
-0.28032051
-0.28039506
-0.28049025
-0.28061794
-0.28079452
-0.28104006
-0.28137437
-0.28181031
-0.28234646
-0.28296395
-0.28362955
-0.28430354
-0.28494834
-0.28553511
-0.2860476
-0.28648301
-0.28684997
-0.28717058
-0.28747978
-0.28781426
-0.28821625
-0.28873412
-0.28943666
-0.29037882
-0.29167086
-0.29331829
-0.2954371
-0.29770483
-0.29985416
-0.30008537
-0.29635653
-0.28188896
-0.25411981
-0.21149458
-0.1744344
-0.13409639
-0.10654607
-0.049034423
-0.28015133
-0.28015863
-0.28016746
-0.28017666
-0.28018674
-0.28019789
-0.28021018
-0.28022369
-0.28023852
-0.28025475
-0.28027249
-0.28029182
-0.28031283
-0.28033558
-0.28036014
-0.28038655
-0.28041483
-0.28044498
-0.28047698
-0.28051077
-0.2805463
-0.28058352
-0.28062246
-0.28066325
-0.28070631
-0.28075249
-0.28080343
-0.28086202
-0.28093305
-0.28102421
-0.28114701
-0.28131739
-0.28155485
-0.2818788
-0.28230213
-0.28282428
-0.28342795
-0.28408195
-0.28474875
-0.28539294
-0.28598784
-0.2865195
-0.28698779
-0.28740474
-0.28779773
-0.28820671
-0.2886773
-0.28926487
-0.29003581
-0.29108453
-0.29250282
-0.29445236
-0.29700911
-0.3003694
-0.30432317
-0.30863503
-0.31133133
-0.3095102
-0.29454289
-0.26070491
-0.20686085
-0.15638098
-0.10334932
-0.073219067
-0.025181859
-0.28079988
-0.28080662
-0.28081474
-0.28082324
-0.28083257
-0.2808429
-0.28085428
-0.2808668
-0.28088054
-0.28089559
-0.28091204
-0.28092997
-0.28094945
-0.28097055
-0.28099333
-0.28101783
-0.28104405
-0.28107201
-0.28110166
-0.28113296
-0.28116585
-0.28120028
-0.28123628
-0.28127398
-0.28131379
-0.28135654
-0.28140383
-0.28145846
-0.28152509
-0.2816111
-0.28172758
-0.28188984
-0.28211663
-0.2824268
-0.28283326
-0.28333635
-0.28392061
-0.28455724
-0.2852112
-0.2858495
-0.28644775
-0.28699436
-0.28749179
-0.28795559
-0.28841776
-0.28892327
-0.28952652
-0.29029558
-0.29131479
-0.29270397
-0.29459232
-0.29719458
-0.30065824
-0.30526697
-0.3109469
-0.31752548
-0.32289441
-0.32331891
-0.30752545
-0.26716612
-0.20151617
-0.13730768
-0.073755328
-0.042515059
-0.0042705612
-0.28150562
-0.28151168
-0.28151896
-0.28152664
-0.28153508
-0.28154442
-0.28155472
-0.28156605
-0.2815785
-0.28159214
-0.28160705
-0.28162331
-0.28164098
-0.28166013
-0.2816808
-0.28170302
-0.28172682
-0.28175217
-0.28177905
-0.28180742
-0.2818372
-0.28186836
-0.28190092
-0.281935
-0.28197101
-0.28200975
-0.28205275
-0.28210271
-0.28216408
-0.28224391
-0.28235273
-0.28250508
-0.28271881
-0.28301203
-0.28339756
-0.28387673
-0.2844361
-0.28504955
-0.28568487
-0.28631169
-0.28690805
-0.28746478
-0.2879868
-0.28849315
-0.28901984
-0.28961687
-0.29034671
-0.29128978
-0.29254754
-0.29426448
-0.29660702
-0.29984215
-0.30418603
-0.31001843
-0.31742479
-0.32631489
-0.33447907
-0.33720994
-0.3203854
-0.27222805
-0.19329537
-0.11685281
-0.04602952
-0.017223705
0.01222945
-0.28225921
-0.28226451
-0.28227083
-0.28227757
-0.28228498
-0.28229319
-0.28230225
-0.28231223
-0.28232319
-0.28233521
-0.28234835
-0.28236269
-0.28237829
-0.28239519
-0.28241343
-0.28243306
-0.28245406
-0.28247644
-0.28250016
-0.28252517
-0.28255141
-0.28257885
-0.28260748
-0.28263745
-0.28266913
-0.2827033
-0.28274142
-0.28278604
-0.28284138
-0.28291407
-0.28301401
-0.28315484
-0.28335335
-0.28362675
-0.28398766
-0.28443837
-0.28496761
-0.28555218
-0.28616294
-0.28677242
-0.28736124
-0.2879226
-0.28846388
-0.28900726
-0.2895925
-0.29027407
-0.29112183
-0.29222757
-0.29370874
-0.2957329
-0.29850292
-0.30233393
-0.30750569
-0.31449348
-0.32357022
-0.33472744
-0.34567113
-0.35051766
-0.3321006
-0.27590251
-0.18498802
-0.096251985
-0.021414522
0.0042060693
0.024338744
-0.2830493
-0.28305376
-0.28305906
-0.28306476
-0.28307102
-0.28307797
-0.28308565
-0.28309411
-0.28310342
-0.28311363
-0.28312481
-0.28313702
-0.28315029
-0.28316469
-0.28318024
-0.28319697
-0.28321487
-0.28323395
-0.28325415
-0.28327543
-0.28329775
-0.28332104
-0.28334534
-0.28337076
-0.28339765
-0.28342676
-0.28345946
-0.28349815
-0.28354676
-0.28361149
-0.28370149
-0.28382941
-0.28401085
-0.28426196
-0.28459502
-0.2850132
-0.28550742
-0.28605759
-0.28663791
-0.28722401
-0.28779921
-0.28835912
-0.28891346
-0.28948738
-0.29012368
-0.29088064
-0.29183493
-0.29308795
-0.29477152
-0.29707357
-0.30023089
-0.30459171
-0.31049407
-0.31855063
-0.32917429
-0.34244254
-0.35587959
-0.36225043
-0.34143438
-0.27615865
-0.17514695
-0.076449158
-0.0014016594
0.018911467
0.031454033
-0.2838634
-0.28386696
-0.2838712
-0.28387576
-0.28388079
-0.28388638
-0.28389256
-0.28389938
-0.28390689
-0.28391515
-0.2839242
-0.28393408
-0.28394485
-0.28395653
-0.28396915
-0.28398273
-0.28399727
-0.28401275
-0.28402913
-0.28404637
-0.28406442
-0.28408322
-0.2841028
-0.28412328
-0.28414497
-0.28416858
-0.28419537
-0.28422759
-0.28426886
-0.28432486
-0.28440401
-0.28451786
-0.2846807
-0.28490751
-0.28521002
-0.28559215
-0.28604696
-0.28655756
-0.28710167
-0.28765823
-0.28821341
-0.28876522
-0.28932565
-0.2899226
-0.29060079
-0.29142197
-0.29246858
-0.29384925
-0.29570802
-0.29824914
-0.30173872
-0.30655923
-0.31311135
-0.3220393
-0.3339883
-0.34904186
-0.36440634
-0.37115264
-0.34692182
-0.27350821
-0.16573964
-0.063027406
0.012602342
0.027916978
0.033962635
-0.28468737
-0.28468999
-0.28469311
-0.28469648
-0.2847002
-0.28470435
-0.28470895
-0.28471404
-0.28471966
-0.28472585
-0.28473265
-0.28474008
-0.28474819
-0.284757
-0.28476652
-0.28477677
-0.28478774
-0.28479942
-0.28481176
-0.28482471
-0.28483824
-0.28485229
-0.28486687
-0.28488209
-0.28489826
-0.28491601
-0.28493652
-0.28496182
-0.28499524
-0.28504193
-0.2851095
-0.28520837
-0.28535149
-0.28555246
-0.28582231
-0.28616552
-0.28657711
-0.28704339
-0.28754572
-0.28806654
-0.28859502
-0.28913156
-0.28969034
-0.2903016
-0.29101113
-0.2918834
-0.29300517
-0.29448961
-0.29649035
-0.29922188
-0.30297387
-0.30811505
-0.3151405
-0.32476525
-0.3377662
-0.35407323
-0.37037551
-0.37573813
-0.3466469
-0.27131013
-0.16003033
-0.064499376
0.0086645514
0.025240003
0.029162498
-0.28550726
-0.28550891
-0.28551088
-0.28551303
-0.28551541
-0.28551809
-0.28552107
-0.28552438
-0.28552805
-0.28553211
-0.28553658
-0.28554149
-0.28554686
-0.2855527
-0.28555902
-0.28556583
-0.28557311
-0.28558084
-0.28558898
-0.28559748
-0.2856063
-0.28561539
-0.28562475
-0.28563448
-0.28564485
-0.28565643
-0.28567029
-0.28568826
-0.28571334
-0.28575014
-0.28580544
-0.2858885
-0.28601098
-0.2861849
-0.28642051
-0.2867227
-0.28708798
-0.28750583
-0.28796119
-0.28844017
-0.28893508
-0.28944875
-0.28999743
-0.29061307
-0.2913421
-0.2922504
-0.29342707
-0.29498672
-0.29708893
-0.29994492
-0.30385717
-0.30919091
-0.31650098
-0.32661049
-0.34020929
-0.35717228
-0.37259693
-0.37478757
-0.33986976
-0.26363287
-0.15629339
-0.072376583
-0.0073660308
0.0082901491
0.022200812
-0.28630758
-0.28630826
-0.2863091
-0.28631003
-0.28631108
-0.28631228
-0.28631364
-0.28631518
-0.2863169
-0.28631883
-0.28632098
-0.28632335
-0.28632597
-0.28632883
-0.28633194
-0.28633528
-0.28633884
-0.2863426
-0.2863465
-0.2863505
-0.28635455
-0.2863586
-0.28636265
-0.28636677
-0.28637119
-0.28637642
-0.2863834
-0.28639375
-0.28641013
-0.28643663
-0.28647924
-0.28654606
-0.28664792
-0.28679439
-0.28699443
-0.287254
-0.28757028
-0.28793598
-0.28833946
-0.28877057
-0.28922484
-0.28970763
-0.29023706
-0.29084609
-0.2915814
-0.29250873
-0.2937173
-0.29531998
-0.29747607
-0.30038585
-0.30436623
-0.30969077
-0.31716868
-0.32737402
-0.3412357
-0.35761215
-0.37086067
-0.36737967
-0.32731754
-0.25108545
-0.1554766
-0.081134936
-0.021923382
-0.0051883842
0.012103454
-0.28707569
-0.28707545
-0.28707518
-0.28707494
-0.2870747
-0.28707448
-0.28707427
-0.28707409
-0.28707392
-0.28707378
-0.28707367
-0.28707358
-0.28707351
-0.28707346
-0.28707342
-0.28707337
-0.28707329
-0.28707313
-0.28707285
-0.2870724
-0.28707171
-0.28707074
-0.28706946
-0.28706792
-0.28706631
-0.28706504
-0.28706492
-0.28706735
-0.28707462
-0.28709028
-0.28711955
-0.28716896
-0.28724943
-0.28736541
-0.28752991
-0.28774704
-0.28801296
-0.28832404
-0.28867156
-0.28904921
-0.28945584
-0.28989941
-0.29039973
-0.29099016
-0.29171715
-0.29264432
-0.29385845
-0.29546684
-0.29762113
-0.30048974
-0.30440007
-0.3095891
-0.31694266
-0.32696618
-0.34045536
-0.35525776
-0.36434578
-0.35410799
-0.31039598
-0.23842714
-0.15436685
-0.089317567
-0.036107495
-0.018730313
-0.0025569863
-0.28779689
-0.28779579
-0.28779451
-0.28779318
-0.28779175
-0.2877902
-0.28778854
-0.28778674
-0.28778481
-0.28778274
-0.28778051
-0.28777811
-0.28777552
-0.28777274
-0.28776973
-0.28776647
-0.28776292
-0.28775905
-0.28775478
-0.28775006
-0.28774481
-0.28773897
-0.28773248
-0.28772536
-0.28771772
-0.28770987
-0.28770246
-0.28769662
-0.28769427
-0.28769839
-0.2877134
-0.28774202
-0.28781166
-0.28790677
-0.28802355
-0.28819685
-0.28840939
-0.28866279
-0.28895012
-0.28926868
-0.28962051
-0.29001607
-0.29047658
-0.29103548
-0.29173746
-0.2926434
-0.29383394
-0.29540916
-0.29747393
-0.30025587
-0.30392284
-0.3088995
-0.31578828
-0.32539387
-0.33772853
-0.34984819
-0.35275805
-0.33623395
-0.29252085
-0.22630629
-0.15327756
-0.096008615
-0.047536514
-0.029708991
-0.012756493
-0.28846325
-0.28846139
-0.2884592
-0.2884569
-0.2884544
-0.28845168
-0.28844871
-0.28844548
-0.28844197
-0.28843815
-0.28843402
-0.28842954
-0.28842468
-0.28841942
-0.28841372
-0.28840754
-0.28840084
-0.28839355
-0.28838562
-0.28837695
-0.28836747
-0.28835708
-0.28834569
-0.28833327
-0.28831986
-0.28830566
-0.28829115
-0.28827722
-0.28826543
-0.28825821
-0.28825919
-0.28827459
-0.28830681
-0.28835783
-0.28844962
-0.28858805
-0.28874722
-0.28894258
-0.28916719
-0.28942168
-0.28971188
-0.29005034
-0.2904596
-0.29097264
-0.29163054
-0.29249051
-0.29362521
-0.29509994
-0.29704298
-0.29958259
-0.30292908
-0.30745405
-0.31386534
-0.32245546
-0.33314349
-0.34067857
-0.33701022
-0.31618038
-0.27302644
-0.21727614
-0.15164945
-0.10145785
-0.057729806
-0.039607477
-0.023188384
-0.28906357
-0.28906108
-0.28905815
-0.28905504
-0.28905166
-0.28904795
-0.2890439
-0.28903947
-0.28903463
-0.28902936
-0.28902363
-0.28901739
-0.2890106
-0.28900324
-0.28899524
-0.28898657
-0.28897715
-0.28896691
-0.28895577
-0.28894362
-0.28893036
-0.28891584
-0.28889995
-0.28888256
-0.28886361
-0.28884315
-0.28882144
-0.28879909
-0.28877723
-0.28875772
-0.28874262
-0.28874271
-0.28874702
-0.28877614
-0.28883436
-0.28891089
-0.28902269
-0.28915777
-0.28931707
-0.28950325
-0.28972458
-0.28999621
-0.29034146
-0.29079169
-0.29138308
-0.29216924
-0.29320775
-0.29455219
-0.29629305
-0.29847024
-0.3014698
-0.30527492
-0.31108186
-0.31854667
-0.32647569
-0.32786956
-0.31917279
-0.29621172
-0.2564526
-0.20683995
-0.15057493
-0.10572393
-0.066023412
-0.047842619
-0.031419645
-0.28959636
-0.2895934
-0.28958991
-0.2895862
-0.28958215
-0.2895777
-0.28957282
-0.28956747
-0.28956163
-0.28955524
-0.28954828
-0.28954068
-0.28953241
-0.2895234
-0.28951361
-0.28950296
-0.28949138
-0.28947878
-0.28946505
-0.28945005
-0.28943365
-0.28941566
-0.28939589
-0.28937414
-0.28935021
-0.28932399
-0.28929551
-0.28926503
-0.28923329
-0.28920164
-0.28917202
-0.28914984
-0.28913131
-0.28912736
-0.28914838
-0.28918065
-0.28923482
-0.28930718
-0.28939738
-0.28950979
-0.28965468
-0.28984854
-0.29011489
-0.2904811
-0.29098051
-0.29165919
-0.29256086
-0.29370849
-0.2951434
-0.29699413
-0.2993196
-0.30278353
-0.30771154
-0.31303253
-0.31601708
-0.31344331
-0.30137291
-0.2766743
-0.24202053
-0.19808843
-0.1488997
-0.10892121
-0.073020228
-0.054882231
-0.038902148
-0.29005681
-0.29005358
-0.29004976
-0.29004569
-0.29004125
-0.29003635
-0.29003097
-0.29002506
-0.29001859
-0.29001152
-0.29000377
-0.28999532
-0.28998609
-0.28997603
-0.28996505
-0.28995309
-0.28994005
-0.2899258
-0.28991023
-0.28989315
-0.28987438
-0.28985367
-0.28983072
-0.28980523
-0.28977682
-0.28974514
-0.28970991
-0.28967099
-0.28962855
-0.28958324
-0.28953633
-0.28949043
-0.28944779
-0.2894108
-0.28938953
-0.28937771
-0.28937635
-0.2893854
-0.28940449
-0.28943864
-0.28949906
-0.28960244
-0.2897707
-0.29002613
-0.29039951
-0.29092509
-0.29162149
-0.29249125
-0.2935933
-0.29501495
-0.29704615
-0.30003852
-0.3032255
-0.30544057
-0.30438654
-0.29840622
-0.28233768
-0.26149589
-0.22835559
-0.18992875
-0.14706423
-0.11121703
-0.078567551
-0.060689549
-0.044806873
-0.29045086
-0.29044757
-0.29044367
-0.29043952
-0.29043497
-0.29042995
-0.29042443
-0.29041836
-0.2904117
-0.2904044
-0.2903964
-0.29038765
-0.29037808
-0.29036761
-0.29035616
-0.29034364
-0.29032993
-0.2903149
-0.29029837
-0.29028014
-0.29025995
-0.29023746
-0.2902123
-0.29018398
-0.29015195
-0.2901156
-0.29007427
-0.29002739
-0.28997454
-0.28991568
-0.2898513
-0.28978274
-0.28971199
-0.28964149
-0.2895747
-0.28951236
-0.28945338
-0.28939632
-0.28934077
-0.28929073
-0.28925662
-0.2892533
-0.28929781
-0.28941129
-0.28961812
-0.28994753
-0.29037773
-0.29098756
-0.29171166
-0.29304666
-0.29460989
-0.29626387
-0.29708398
-0.29590173
-0.29197649
-0.28278602
-0.2673767
-0.24655933
-0.21699364
-0.18280891
-0.14492772
-0.11266884
-0.082944116
-0.065426607
-0.04949438
-0.29078328
-0.29078016
-0.29077647
-0.29077253
-0.29076821
-0.29076344
-0.29075818
-0.29075239
-0.29074602
-0.29073903
-0.29073136
-0.29072294
-0.2907137
-0.29070356
-0.29069244
-0.29068021
-0.29066675
-0.29065189
-0.29063542
-0.29061708
-0.29059654
-0.29057337
-0.29054706
-0.29051694
-0.29048223
-0.290442
-0.29039519
-0.29034071
-0.29027748
-0.29020469
-0.29012194
-0.29002953
-0.28992859
-0.28982094
-0.28970886
-0.28959313
-0.28947293
-0.28934609
-0.28921099
-0.28906869
-0.28892676
-0.28879491
-0.28868404
-0.28862054
-0.2886267
-0.28871126
-0.28896305
-0.28927307
-0.29001545
-0.2908584
-0.29128629
-0.29106199
-0.28912677
-0.2857906
-0.27912408
-0.26798215
-0.2537397
-0.23368158
-0.20661403
-0.17603478
-0.14250098
-0.11338492
-0.086211937
-0.069187248
-0.05343955
-0.29106727
-0.29106459
-0.29106141
-0.29105801
-0.29105428
-0.29105014
-0.29104558
-0.29104054
-0.291035
-0.29102888
-0.29102215
-0.29101474
-0.29100658
-0.29099757
-0.29098762
-0.29097661
-0.29096436
-0.2909507
-0.29093536
-0.29091803
-0.29089828
-0.29087557
-0.29084924
-0.29081842
-0.29078203
-0.29073881
-0.29068723
-0.29062563
-0.29055222
-0.29046533
-0.29036358
-0.29024624
-0.29011341
-0.2899661
-0.28980586
-0.2896335
-0.2894481
-0.28924652
-0.28902472
-0.28877832
-0.28851148
-0.2882216
-0.28793106
-0.28766314
-0.28745868
-0.28738409
-0.28750043
-0.28775044
-0.28812282
-0.28790589
-0.28677949
-0.28415766
-0.28064383
-0.27498736
-0.26630374
-0.2559814
-0.2410732
-0.22191295
-0.19728424
-0.16979546
-0.13985231
-0.11345704
-0.088544316
-0.072097952
-0.056552054
-0.29131838
-0.29131641
-0.29131406
-0.29131155
-0.29130878
-0.2913057
-0.2913023
-0.29129852
-0.29129434
-0.29128972
-0.29128459
-0.29127891
-0.29127259
-0.29126554
-0.29125767
-0.29124881
-0.2912388
-0.29122739
-0.29121429
-0.2911991
-0.2911813
-0.29116023
-0.29113501
-0.29110456
-0.29106751
-0.29102217
-0.29096654
-0.29089832
-0.29081499
-0.29071396
-0.29059285
-0.29044978
-0.2902837
-0.29009483
-0.28988412
-0.28965189
-0.28939662
-0.28911359
-0.28879491
-0.28842931
-0.28801682
-0.28756313
-0.28706675
-0.28664165
-0.2863017
-0.28620383
-0.2862094
-0.28609179
-0.28553907
-0.28390534
-0.28055836
-0.27682245
-0.27141857
-0.26393757
-0.2553232
-0.24403169
-0.22949908
-0.21134256
-0.18869999
-0.16382319
-0.13695496
-0.11295047
-0.090036478
-0.074207262
-0.058937732
-0.29156007
-0.29155909
-0.29155791
-0.29155664
-0.29155523
-0.29155364
-0.29155185
-0.29154985
-0.2915476
-0.29154507
-0.29154221
-0.29153896
-0.29153525
-0.29153098
-0.29152604
-0.29152026
-0.29151343
-0.29150527
-0.29149542
-0.2914834
-0.29146856
-0.29145008
-0.2914269
-0.29139767
-0.29136068
-0.29131382
-0.29125457
-0.29117998
-0.29108678
-0.29097149
-0.29083073
-0.29066133
-0.29046136
-0.29023016
-0.28996779
-0.28967355
-0.28934419
-0.28897285
-0.28854617
-0.28804802
-0.28750125
-0.28685704
-0.2862829
-0.28573868
-0.28542806
-0.28520705
-0.28477024
-0.28379692
-0.28199769
-0.2780919
-0.27404321
-0.26880937
-0.26162438
-0.25385543
-0.24454042
-0.23319408
-0.21887927
-0.20158504
-0.18073684
-0.15812788
-0.13386077
-0.11194932
-0.090803184
-0.075650967
-0.06081417
-0.29182315
-0.29182343
-0.29182374
-0.29182404
-0.29182435
-0.29182464
-0.29182492
-0.29182516
-0.29182536
-0.29182547
-0.29182546
-0.29182528
-0.29182486
-0.29182408
-0.29182282
-0.29182089
-0.29181803
-0.29181392
-0.2918081
-0.2918
-0.29178884
-0.29177362
-0.29175306
-0.29172551
-0.29168893
-0.29164078
-0.29157803
-0.29149716
-0.29139417
-0.29126482
-0.291105
-0.290911
-0.2906742
-0.2903989
-0.29008495
-0.28972704
-0.2893196
-0.28885519
-0.28832025
-0.28769749
-0.28703071
-0.28636637
-0.28574396
-0.28518734
-0.28475831
-0.28403252
-0.28276356
-0.28047145
-0.27675387
-0.27231709
-0.26701892
-0.25986265
-0.25234165
-0.24415449
-0.23448457
-0.22294056
-0.20896551
-0.19256032
-0.17326347
-0.15260134
-0.13056383
-0.11050396
-0.090927866
-0.076492402
-0.062072095
-0.29215091
-0.29215265
-0.29215469
-0.29215682
-0.29215912
-0.2921616
-0.29216427
-0.29216711
-0.29217012
-0.29217327
-0.29217654
-0.29217987
-0.29218318
-0.29218636
-0.29218924
-0.2921916
-0.29219314
-0.29219345
-0.292192
-0.29218808
-0.29218076
-0.29216883
-0.29215078
-0.29212466
-0.29208807
-0.29203809
-0.29197122
-0.29188338
-0.29176986
-0.29162619
-0.2914528
-0.29122127
-0.29094371
-0.29063701
-0.29027307
-0.28985687
-0.28937641
-0.28883824
-0.2881951
-0.28751825
-0.28680647
-0.28615858
-0.285529
-0.28481974
-0.28387363
-0.28232127
-0.27973675
-0.27586327
-0.27135724
-0.2661647
-0.25858063
-0.25125283
-0.24352731
-0.23482559
-0.22483879
-0.21329898
-0.19969188
-0.18409623
-0.16617382
-0.14721411
-0.12709109
-0.10867174
-0.090489076
-0.076799725
-0.062788554
-0.29259899
-0.29260229
-0.29260615
-0.29261022
-0.29261462
-0.2926194
-0.29262457
-0.29263012
-0.29263606
-0.29264236
-0.292649
-0.29265592
-0.29266301
-0.29267015
-0.29267712
-0.29268367
-0.29268943
-0.29269388
-0.29269638
-0.29269607
-0.29269183
-0.29268225
-0.29266553
-0.29263944
-0.29260121
-0.29254756
-0.29247456
-0.2923775
-0.29225044
-0.29209871
-0.2918945
-0.2916377
-0.29134526
-0.2909941
-0.29058436
-0.29011656
-0.28956792
-0.28896662
-0.28832333
-0.28761765
-0.2869018
-0.28623356
-0.28538242
-0.28421282
-0.28240974
-0.27958316
-0.2754052
-0.27063717
-0.26511279
-0.25850534
-0.25028699
-0.2430753
-0.23483616
-0.22579283
-0.21563799
-0.20413525
-0.19091376
-0.17609455
-0.15938545
-0.14191181
-0.12344516
-0.10649181
-0.089553511
-0.076628587
-0.063023906
-0.2932418
-0.29324651
-0.29325205
-0.29325788
-0.29326418
-0.29327104
-0.29327845
-0.29328642
-0.29329496
-0.29330404
-0.29331362
-0.29332362
-0.29333392
-0.29334435
-0.29335467
-0.29336453
-0.29337348
-0.2933809
-0.29338601
-0.29338778
-0.2933849
-0.29337572
-0.29335819
-0.29332978
-0.29328746
-0.29322759
-0.29314604
-0.29303782
-0.29289065
-0.29271034
-0.29250312
-0.2922383
-0.29190855
-0.29152537
-0.29107491
-0.29056406
-0.28999627
-0.28935284
-0.28869615
-0.28800591
-0.28723094
-0.28630845
-0.28499491
-0.28298715
-0.27998771
-0.27567364
-0.2706979
-0.26527554
-0.25818798
-0.2501774
-0.24297229
-0.23498652
-0.22636451
-0.21705704
-0.2067721
-0.19537432
-0.18255049
-0.16845261
-0.15282323
-0.13666291
-0.1196391
-0.10400134
-0.088178328
-0.076022452
-0.062824115
-0.29416581
-0.29417155
-0.2941783
-0.29418541
-0.29419308
-0.29420141
-0.2942104
-0.29422005
-0.29423036
-0.29424128
-0.29425276
-0.29426469
-0.29427692
-0.29428921
-0.29430125
-0.29431262
-0.29432275
-0.2943309
-0.29433612
-0.29433719
-0.29433258
-0.29432041
-0.29429836
-0.29426361
-0.29421274
-0.29414174
-0.2940458
-0.29392046
-0.29378438
-0.29361006
-0.29335469
-0.29303123
-0.29267151
-0.2922615
-0.29179247
-0.29125106
-0.29065495
-0.29001017
-0.28931399
-0.28852274
-0.2875201
-0.28611254
-0.28397826
-0.28086274
-0.27646395
-0.2713071
-0.26584127
-0.25873446
-0.25102679
-0.2434661
-0.23534565
-0.22695293
-0.21805214
-0.20853344
-0.19819463
-0.18693905
-0.1745113
-0.16109171
-0.14642843
-0.1314337
-0.11567587
-0.10122758
-0.086411102
-0.075023671
-0.062230179
-0.2954563
-0.2954625
-0.29546976
-0.29547739
-0.29548561
-0.29549449
-0.29550403
-0.29551423
-0.29552504
-0.2955364
-0.29554822
-0.29556035
-0.29557256
-0.29558456
-0.29559595
-0.29560617
-0.29561454
-0.29562014
-0.29562183
-0.29561817
-0.29560739
-0.29558733
-0.29555534
-0.29550775
-0.29544038
-0.29536178
-0.29527469
-0.29515635
-0.29495345
-0.29469456
-0.29442708
-0.29410106
-0.29371491
-0.29326765
-0.29274981
-0.29217681
-0.29155002
-0.29084945
-0.29003717
-0.28900164
-0.28750751
-0.28530153
-0.28212814
-0.27770925
-0.27239016
-0.26688292
-0.25979393
-0.2519539
-0.24423736
-0.23607579
-0.22771639
-0.2190226
-0.20986205
-0.20019315
-0.18984135
-0.17875831
-0.16672445
-0.15393988
-0.14014719
-0.12619722
-0.11156038
-0.098194139
-0.084292255
-0.073664266
-0.061278086
-0.29721006
-0.29721594
-0.29722281
-0.29722999
-0.29723766
-0.2972459
-0.29725467
-0.29726394
-0.29727362
-0.29728362
-0.29729379
-0.2973039
-0.29731366
-0.29732267
-0.29733041
-0.2973362
-0.29733917
-0.29733822
-0.29733199
-0.29731882
-0.2972966
-0.29726236
-0.29721305
-0.29715583
-0.29708524
-0.29698779
-0.2968447
-0.29664254
-0.29641032
-0.29614864
-0.29582973
-0.29545336
-0.29501128
-0.29451013
-0.2939521
-0.29332712
-0.29262412
-0.29179665
-0.29072208
-0.28919659
-0.28692384
-0.28375773
-0.27936994
-0.27392167
-0.26835593
-0.26133115
-0.25333153
-0.2454581
-0.23730522
-0.2288574
-0.2201311
-0.21112395
-0.20175626
-0.19198073
-0.18165675
-0.17076959
-0.15912345
-0.14693672
-0.1339351
-0.12092872
-0.10729337
-0.094918473
-0.081854446
-0.07197458
-0.059995825
-0.29951296
-0.29951784
-0.29952348
-0.2995293
-0.29953544
-0.29954191
-0.29954864
-0.29955556
-0.29956253
-0.29956938
-0.29957588
-0.29958172
-0.29958649
-0.29958964
-0.29959051
-0.29958822
-0.29958168
-0.29956955
-0.29955015
-0.29952133
-0.29948059
-0.29942765
-0.29936065
-0.29927317
-0.29915235
-0.29898311
-0.29878238
-0.29855541
-0.29827956
-0.29795131
-0.29756514
-0.29711914
-0.29661516
-0.29604986
-0.29541794
-0.29470451
-0.29385584
-0.29275074
-0.29118689
-0.28890876
-0.28569969
-0.28150706
-0.2759776
-0.27038642
-0.26337696
-0.25519187
-0.24712797
-0.2388747
-0.23031337
-0.22150055
-0.21247503
-0.20322709
-0.19369246
-0.18385135
-0.17358675
-0.1629132
-0.15164916
-0.14002773
-0.12775153
-0.11560565
-0.1028746
-0.091414496
-0.079124732
-0.069978652
-0.058407517
-0.30246046
-0.30246383
-0.30246764
-0.30247144
-0.30247526
-0.30247907
-0.30248275
-0.30248612
-0.302489
-0.3024911
-0.30249208
-0.30249148
-0.30248872
-0.30248307
-0.30247361
-0.30245919
-0.30243841
-0.30240953
-0.30237038
-0.30231851
-0.30225234
-0.30216759
-0.3020574
-0.30191033
-0.30173135
-0.30152436
-0.30127476
-0.30097635
-0.30062354
-0.30021341
-0.29974638
-0.29922
-0.29863117
-0.29797672
-0.29723544
-0.29634996
-0.29520021
-0.29358911
-0.29127141
-0.28803147
-0.28377274
-0.27833238
-0.2725983
-0.26569115
-0.25746684
-0.24922716
-0.24087301
-0.23216288
-0.2232216
-0.21408497
-0.20477333
-0.19530163
-0.18563119
-0.17575732
-0.16557949
-0.1551349
-0.14424816
-0.13316513
-0.12156119
-0.11020752
-0.098302108
-0.087692349
-0.076124844
-0.067697655
-0.056533012
-0.30622814
-0.30622932
-0.30623047
-0.30623133
-0.30623181
-0.30623177
-0.30623102
-0.30622931
-0.30622631
-0.30622161
-0.3062147
-0.30620493
-0.30619151
-0.30617343
-0.30614946
-0.30611809
-0.3060775
-0.30602546
-0.30595936
-0.30587623
-0.30577238
-0.30564122
-0.30548043
-0.30528745
-0.30505488
-0.30477676
-0.30444736
-0.30406273
-0.30362123
-0.30312012
-0.30255722
-0.30193178
-0.3012364
-0.30044707
-0.29950367
-0.2982879
-0.29661186
-0.29424051
-0.2909689
-0.28667876
-0.28127039
-0.27524473
-0.26851972
-0.26015159
-0.25176708
-0.24331394
-0.23445319
-0.2253228
-0.21600099
-0.206535
-0.19695914
-0.18729834
-0.17752512
-0.16765026
-0.15758445
-0.14738299
-0.13687113
-0.12630529
-0.11533163
-0.10471494
-0.093572512
-0.083759024
-0.072872454
-0.065148863
-0.054391532
-0.31108774
-0.31108556
-0.31108264
-0.31107904
-0.31107447
-0.31106868
-0.31106136
-0.31105214
-0.31104054
-0.31102599
-0.31100776
-0.31098498
-0.31095656
-0.31092118
-0.31087725
-0.31082284
-0.31075563
-0.31067288
-0.3105714
-0.31044744
-0.31029677
-0.31011461
-0.30989587
-0.30963487
-0.30932599
-0.3089645
-0.3085467
-0.3080686
-0.30752714
-0.306921
-0.30624699
-0.30549487
-0.30463664
-0.30360971
-0.30229735
-0.30052259
-0.29806357
-0.29472431
-0.29039657
-0.28497864
-0.27880153
-0.27204083
-0.26376895
-0.25509428
-0.24647144
-0.23730736
-0.22790726
-0.21832276
-0.20860947
-0.1988255
-0.18900344
-0.17917739
-0.16932978
-0.15948266
-0.14955278
-0.13960907
-0.12947279
-0.11940879
-0.10903352
-0.099109814
-0.08868161
-0.07961927
-0.069381885
-0.062348123
-0.051998036
-0.31734155
-0.31733432
-0.31732534
-0.31731512
-0.31730312
-0.31728891
-0.31727207
-0.31725205
-0.3172282
-0.31719973
-0.31716569
-0.31712489
-0.31707596
-0.31701721
-0.31694662
-0.31686181
-0.31675997
-0.31663783
-0.31649159
-0.31631696
-0.31610908
-0.31586273
-0.31557258
-0.3152334
-0.31484003
-0.31438738
-0.31387121
-0.31328835
-0.31263527
-0.31190563
-0.31108471
-0.31013926
-0.30900267
-0.30755948
-0.30564007
-0.30304081
-0.29956699
-0.29512714
-0.28962513
-0.28324222
-0.27633904
-0.2680281
-0.25919094
-0.25023144
-0.24075172
-0.23102739
-0.22111748
-0.21107942
-0.20098452
-0.19089438
-0.18084766
-0.17088531
-0.16099425
-0.15120485
-0.14143609
-0.13176664
-0.12201066
-0.11243913
-0.10263975
-0.093374859
-0.083624315
-0.075274967
-0.065664547
-0.059305107
-0.04936804
-0.32535684
-0.32534248
-0.32532495
-0.32530545
-0.3252831
-0.32525723
-0.32522727
-0.32519249
-0.32515202
-0.32510482
-0.32504967
-0.32498505
-0.3249092
-0.32482005
-0.3247152
-0.32459179
-0.32444651
-0.32427556
-0.32407472
-0.32383932
-0.32356428
-0.32324423
-0.3228735
-0.32244645
-0.32195784
-0.32140271
-0.32077594
-0.32007106
-0.31927731
-0.31837399
-0.31732107
-0.31604652
-0.31443427
-0.31232092
-0.30951469
-0.30583586
-0.30117635
-0.2954987
-0.28881907
-0.28165397
-0.2732086
-0.26408463
-0.25475415
-0.24492381
-0.23481614
-0.22449362
-0.21403966
-0.20354037
-0.19306671
-0.18268615
-0.1724391
-0.16237005
-0.15246764
-0.14276739
-0.13318697
-0.12381123
-0.11444492
-0.10536263
-0.096125299
-0.087493798
-0.07839522
-0.070726544
-0.061730039
-0.056026768
-0.046524366
-0.33545483
-0.33543092
-0.33540198
-0.33537016
-0.33533412
-0.33529294
-0.33524586
-0.33519194
-0.33513009
-0.33505898
-0.33497712
-0.3348828
-0.3347738
-0.3346476
-0.33450145
-0.33433212
-0.33413582
-0.33390836
-0.33364523
-0.33334135
-0.33299131
-0.33258943
-0.33212986
-0.33160652
-0.33101297
-0.33034163
-0.32958221
-0.32871837
-0.32772207
-0.32654505
-0.32510803
-0.32329173
-0.32093557
-0.31785528
-0.31388256
-0.30890533
-0.30289097
-0.29588318
-0.28829752
-0.27956946
-0.27001604
-0.2601999
-0.24993554
-0.23934883
-0.22852835
-0.21757072
-0.20657087
-0.19561481
-0.1847781
-0.17413085
-0.16371387
-0.15357315
-0.14369602
-0.13412009
-0.12475898
-0.11570039
-0.10673829
-0.098148102
-0.089467111
-0.081451373
-0.072989096
-0.065973895
-0.057587672
-0.052530946
-0.043446476
-0.34796317
-0.34792728
-0.34788409
-0.34783689
-0.34778382
-0.34772372
-0.34765568
-0.3475783
-0.34748974
-0.34739082
-0.3472889
-0.34717139
-0.34701433
-0.34683116
-0.34663543
-0.34641532
-0.34616278
-0.34587312
-0.34554154
-0.34516308
-0.3447317
-0.34424087
-0.3436833
-0.34305038
-0.34233111
-0.34150999
-0.34056348
-0.33945439
-0.33812422
-0.3364844
-0.33440976
-0.33174108
-0.32829814
-0.32392347
-0.31850706
-0.31200359
-0.30450105
-0.29632535
-0.2872119
-0.27710257
-0.26669796
-0.25589097
-0.24472554
-0.23331244
-0.22175489
-0.21015461
-0.19860824
-0.18720846
-0.17603244
-0.16515081
-0.1546024