/*--------------------------------*- C++ -*----------------------------------*\
  =========                 |
  \\      /  F ield         | OpenFOAM: The Open Source CFD Toolbox
   \\    /   O peration     | Website:  https://openfoam.org
    \\  /    A nd           | Version:  13
     \\/     M anipulation  |
\*---------------------------------------------------------------------------*/
FoamFile
{
    format      ascii;
    class       volScalarField;
    location    "15.796675";
    object      yPlus;
}
// * * * * * * * * * * * * * * * * * * * * * * * * * * * * * * * * * * * * * //

dimensions      [];

internalField   uniform 0;

boundaryField
{
    inlet
    {
        type            calculated;
        value           uniform 0;
    }
    outlet
    {
        type            calculated;
        value           uniform 0;
    }
    cylinder
    {
        type            calculated;
        value           nonuniform List<scalar> 
132
(
4.9046196e-07
4.8862708e-07
4.8340893e-07
4.7468767e-07
4.6248853e-07
4.4690981e-07
4.280502e-07
4.0611692e-07
3.8139103e-07
3.5421578e-07
3.2500781e-07
2.9426505e-07
2.6258436e-07
2.3065552e-07
1.9922648e-07
1.6905972e-07
1.408615e-07
1.1522977e-07
9.2584889e-08
7.3142703e-08
5.6917807e-08
4.3759734e-08
3.3444715e-08
2.5740478e-08
2.0434807e-08
1.7160794e-08
1.5254569e-08
1.379703e-08
1.1997598e-08
9.7077478e-09
7.253689e-09
5.0798605e-09
3.5385309e-09
2.8705749e-09
3.00824e-09
3.6048902e-09
4.4744558e-09
5.5837681e-09
6.9623468e-09
8.651663e-09
1.0737854e-08
1.3327449e-08
1.622494e-08
1.9393318e-08
2.2750031e-08
2.621743e-08
2.9715029e-08
3.3171265e-08
3.653845e-08
3.9774588e-08
4.28545e-08
4.5761499e-08
4.8478789e-08
5.099088e-08
5.3322521e-08
5.5456473e-08
5.739421e-08
5.9126918e-08
6.0674801e-08
6.2030178e-08
6.3204313e-08
6.4175282e-08
6.4961598e-08
6.5550247e-08
6.5955041e-08
6.6168585e-08
4.8882354e-07
4.8373535e-07
4.7525861e-07
4.6335472e-07
4.4811417e-07
4.2967306e-07
4.0822878e-07
3.8404726e-07
3.5746757e-07
3.2890027e-07
2.9881778e-07
2.6776793e-07
2.3638109e-07
2.0535037e-07
1.7539169e-07
1.4718813e-07
1.2133741e-07
9.8285842e-08
7.8291698e-08
6.1419593e-08
4.7563994e-08
3.6521409e-08
2.8073768e-08
2.20314e-08
1.8178219e-08
1.6043177e-08
1.478135e-08
1.3453989e-08
1.1528204e-08
9.1089818e-09
6.6533353e-09
4.6032916e-09
3.2732816e-09
2.8524641e-09
3.1432227e-09
3.8240583e-09
4.7556892e-09
5.9331526e-09
7.3875464e-09
9.1608382e-09
1.1338955e-08
1.4023469e-08
1.7002572e-08
2.0235345e-08
2.3638328e-08
2.7128499e-08
3.0627879e-08
3.4072883e-08
3.7414175e-08
4.0616649e-08
4.3654158e-08
4.6514954e-08
4.9180876e-08
5.1638463e-08
5.3928888e-08
5.6006695e-08
5.7893013e-08
5.9572656e-08
6.1071808e-08
6.2376572e-08
6.3495139e-08
6.4414884e-08
6.5146315e-08
6.5680376e-08
6.6029421e-08
6.6190857e-08
)
;
    }
    frontAndBack
    {
        type            empty;
    }
}


// ************************************************************************* //
