/*--------------------------------*- C++ -*----------------------------------*\
  =========                 |
  \\      /  F ield         | OpenFOAM: The Open Source CFD Toolbox
   \\    /   O peration     | Website:  https://openfoam.org
    \\  /    A nd           | Version:  13
     \\/     M anipulation  |
\*---------------------------------------------------------------------------*/
FoamFile
{
    format      ascii;
    class       surfaceScalarField;
    location    "14.100212";
    object      phi;
}
// * * * * * * * * * * * * * * * * * * * * * * * * * * * * * * * * * * * * * //

dimensions      [0 3 -1 0 0 0 0];

internalField   nonuniform List<scalar> 
34068
(
-2.122056e-07
4.9202149e-08
1.6300345e-07
-9.4031477e-07
1.6899837e-07
5.591108e-07
-2.3507105e-06
3.2731537e-07
1.0830803e-06
-4.6502461e-06
5.329269e-07
1.7666088e-06
-8.0945199e-06
7.9618943e-07
2.6480843e-06
-1.2997368e-05
1.1291834e-06
3.7736647e-06
-1.9741664e-05
1.5458683e-06
5.1984276e-06
-2.8791394e-05
2.0621989e-06
6.9875313e-06
-4.0704868e-05
2.6961844e-06
9.2172895e-06
-5.6148777e-05
3.4678593e-06
1.197605e-05
-7.5912596e-05
4.3991237e-06
1.5364694e-05
-0.00010092256
5.5134194e-06
1.9496545e-05
-0.00013225412
6.8351904e-06
2.4496369e-05
-0.00017114142
8.3890992e-06
3.0498205e-05
-0.00021898198
1.0198983e-05
3.7641575e-05
-0.00027733448
1.2286583e-05
4.6065911e-05
-0.00034790757
1.467017e-05
5.590292e-05
-0.00043253807
1.7363286e-05
6.7267216e-05
-0.00053315792
2.0374027e-05
8.0245828e-05
-0.00065175182
2.3705496e-05
9.4888397e-05
-0.00079031082
2.7358254e-05
0.00011120075
-0.00095079284
3.1335748e-05
0.00012914628
-0.0011351072
3.5653494e-05
0.00014866084
-0.0013451458
4.0351968e-05
0.00016968671
-0.0015828877
4.5512447e-05
0.00019222936
-0.0018505954
5.1275763e-05
0.00021643199
-0.0021510505
5.7845879e-05
0.00024260924
-0.0024877008
6.5485243e-05
0.00027116502
-0.0028642224
7.4322037e-05
0.00030219961
-0.0032848999
8.4664345e-05
0.00033601314
-0.0037547877
9.6908136e-05
0.00037297965
-0.0042797806
0.00011152167
0.00041347119
-0.0048665964
0.00012904293
0.00045777289
-0.0055227842
0.00015011052
0.0005060773
-0.0062566944
0.00017548243
0.00055842775
-0.007077398
0.00020605479
0.00061464885
-0.0079945452
0.00024288308
0.00067426409
-0.0090181418
0.00028721076
0.00073638587
-0.010158255
0.00034043774
0.00079967552
-0.011424704
0.00040410492
0.00086234405
-0.012826783
0.00048000678
0.00092207258
-0.014373155
0.00057019489
0.00097617622
-0.016072006
0.00067690897
0.0010219422
-0.017931701
0.00080292358
0.0010567716
-0.019964195
0.00095249044
0.0010800037
-0.022186069
0.0011305322
0.0010913416
-0.024610827
0.0013391262
0.0010856323
-0.027237763
0.0015756067
0.0010513295
-0.03006765
0.0018416431
0.00098824322
-0.033095614
0.0021368046
0.00089115947
-0.036306032
0.0024570397
0.00075337872
-0.039662327
0.0027905411
0.00056575374
-0.043115304
0.0031260779
0.00032689867
-0.046624929
0.0034623486
4.7277246e-05
-0.050001422
0.0037125271
-0.00033603437
-0.052988985
0.0038111796
-0.00082361682
-0.055253326
0.0036957523
-0.0014314113
-0.056019974
0.0030824904
-0.0023158429
-0.054049096
0.0016198325
-0.0035907103
-0.047711231
-0.0012528949
-0.0050849699
-0.035818701
-0.0054894348
-0.0064030954
-0.018827993
-0.0099495187
-0.0070411889
0.001297244
-0.013557004
-0.0065682336
0.022506549
-0.015624088
-0.0055852169
-0.016561426
0.043531322
-0.0044633469
-2.1359096e-07
2.6279311e-07
-9.4646281e-07
9.0187022e-07
-2.3661137e-06
1.7469663e-06
-4.6808783e-06
2.8476915e-06
-8.1482492e-06
4.2635604e-06
-1.3084479e-05
6.0654133e-06
-1.9875514e-05
8.336903e-06
-2.8989226e-05
1.1175911e-05
-4.0988829e-05
1.4695787e-05
-5.654717e-05
1.90262e-05
-7.6461423e-05
2.4313377e-05
-0.00010166738
3.0719378e-05
-0.00013325231
3.8420114e-05
-0.00017246477
4.7601568e-05
-0.00022071979
5.8453996e-05
-0.00027959695
7.1163748e-05
-0.00035082958
8.5902796e-05
-0.00043628295
0.00010281666
-0.0005379212
0.00012201228
-0.00065776431
0.0001435486
-0.00079784073
0.00016743468
-0.00096014628
0.0001936413
-0.0011466267
0.00022213389
-0.001359207
0.00025293226
-0.0015998941
0.00028619962
-0.0018709748
0.00032235644
-0.0021752546
0.00036212568
-0.0025162055
0.0004064361
-0.0028975367
0.00045565328
-0.0033235819
0.00051070951
-0.0037994423
0.00057276855
-0.0043310654
0.00064314481
-0.0049252302
0.00072320772
-0.005589544
0.00081442429
-0.0063324022
0.00091834064
-0.0071628983
0.0010365509
-0.0080906481
0.0011706328
-0.0091255632
0.0013221259
-0.010277538
0.0014924129
-0.011556079
0.0016826456
-0.012970033
0.0018939609
-0.014527333
0.0021274945
-0.016235199
0.0023847751
-0.018100822
0.0026685464
-0.020134399
0.0029860674
-0.022349195
0.003345328
-0.024756721
0.0037466523
-0.027357556
0.0041764421
-0.030146433
0.00463052
-0.033114045
0.0051044171
-0.036237957
0.0055809509
-0.03947826
0.0060308442
-0.042777665
0.0064254834
-0.046027671
0.0067123546
-0.049073952
0.0067588079
-0.051686303
0.0064235308
-0.053416926
0.0054263751
-0.053494866
0.00316043
-0.050640661
-0.0012343719
-0.043178352
-0.0087152044
-0.029875285
-0.018792501
-0.011301183
-0.028523621
0.010509001
-0.035367187
0.033308364
-0.038423451
-0.038997354
0.055744292
-2.0866292e-07
4.7145603e-07
-9.2479345e-07
1.6180008e-06
-2.3123294e-06
3.1345023e-06
-4.575351e-06
5.110713e-06
-7.9662904e-06
7.6544998e-06
-1.2795468e-05
1.0894591e-05
-1.9441969e-05
1.4983404e-05
-2.8365903e-05
2.0099845e-05
-4.0121864e-05
2.6451747e-05
-5.5373423e-05
3.4277759e-05
-7.4908123e-05
4.3848077e-05
-9.9652303e-05
5.5463559e-05
-0.00013068465
6.9452462e-05
-0.00016924711
8.6164023e-05
-0.00021675121
0.0001059581
-0.00027477782
0.00012919036
-0.00034506791
0.00015619289
-0.0004295024
0.00018725115
-0.0005300701
0.00022257997
-0.00064882494
0.00026230345
-0.00078783708
0.00030644681
-0.00094914794
0.00035495216
-0.0011347463
0.00040773221
-0.0013465884
0.00046477439
-0.0015866906
0.00052630182
-0.0018573183
0.00059298413
-0.0021612318
0.00066603922
-0.0025018327
0.00074703701
-0.0028827851
0.00083660565
-0.003308388
0.0009363124
-0.0037836659
0.0010480464
-0.004314457
0.0011739359
-0.004907404
0.0013161547
-0.0055699115
0.0014769318
-0.0063100832
0.0016585123
-0.0071366165
0.0018630842
-0.0080585829
0.0020925992
-0.0090851145
0.0023486575
-0.010225025
0.0026323238
-0.011486406
0.0029440263
-0.012876211
0.0032837654
-0.014399979
0.0036512629
-0.016062105
0.0040469013
-0.01786686
0.0044733014
-0.019819608
0.0049388155
-0.021924363
0.0054500825
-0.024186521
0.0060088104
-0.0266118
0.0066017209
-0.029189838
0.0072085579
-0.031899679
0.0078142579
-0.034709156
0.0083904278
-0.037567793
0.0088894821
-0.040397639
0.0092553286
-0.043085317
0.0094000333
-0.045482604
0.0091560947
-0.047325999
0.0082669257
-0.048166647
0.006267023
-0.047252349
0.0022461321
-0.043295334
-0.0051913866
-0.034524555
-0.017485984
-0.019627877
-0.033689179
0.00045313116
-0.04860463
0.0235681
-0.058482157
0.047405578
-0.062260928
-0.06207907
0.070487294
-1.9702586e-07
6.6848189e-07
-8.7357834e-07
2.2945532e-06
-2.185083e-06
4.4460069e-06
-4.3252653e-06
7.2508953e-06
-7.534101e-06
1.0863336e-05
-1.2107078e-05
1.5467568e-05
-1.8405865e-05
2.1282191e-05
-2.687035e-05
2.8564331e-05
-3.803208e-05
3.7613476e-05
-5.2528804e-05
4.8774483e-05
-7.1119846e-05
6.243912e-05
-9.4701569e-05
7.9045282e-05
-0.00012432207
9.9072959e-05
-0.00016119364
0.0001230356
-0.00020670138
0.00015146583
-0.00026240559
0.00018489457
-0.00033003573
0.00022382303
-0.00041147346
0.00026868888
-0.00050872322
0.00031982974
-0.00062387052
0.00037745074
-0.00075903145
0.00044160775
-0.00091630201
0.00051222272
-0.0010977228
0.00058915296
-0.0013052823
0.00067233398
-0.0015409878
0.00076200724
-0.0018070319
0.00085902832
-0.0021060475
0.0009650548
-0.0024412516
0.0010822411
-0.0028162877
0.0012116417
-0.0032353066
0.0013553314
-0.0037031204
0.0015158602
-0.0042252672
0.0016960827
-0.0048080452
0.0018989327
-0.0054584194
0.002127306
-0.0061839018
0.0023839947
-0.0069923951
0.0026715775
-0.007891962
0.0029921661
-0.0088903775
0.003347073
-0.0099946299
0.0037365763
-0.011210528
0.0041599248
-0.01254223
0.004615467
-0.013992174
0.0051012066
-0.015561514
0.0056162412
-0.017251252
0.0061630399
-0.019060025
0.0067475884
-0.020983427
0.0073734845
-0.023015491
0.0080408741
-0.025154161
0.0087403917
-0.027392712
0.009447109
-0.029707124
0.010128669
-0.032054076
0.01073738
-0.034369736
0.011205142
-0.036565015
0.011450607
-0.038520532
0.01135555
-0.040087453
0.010723016
-0.041012544
0.0091920169
-0.040873001
0.0061274795
-0.038949399
0.00032253033
-0.03394497
-0.010195815
-0.023935578
-0.027495376
-0.0075840937
-0.050040664
0.013484469
-0.069673193
0.037001604
-0.081999291
0.060658326
-0.08591765
-0.084395932
0.082975188
-1.787767e-07
8.4725859e-07
-7.9318752e-07
2.9089641e-06
-1.9851625e-06
5.6379819e-06
-3.9319588e-06
9.1976916e-06
-6.8536462e-06
1.3785023e-05
-1.1021912e-05
1.9635834e-05
-1.6770244e-05
2.7030523e-05
-2.4505633e-05
3.629972e-05
-3.4721695e-05
4.7829538e-05
-4.8013254e-05
6.2066042e-05
-6.5091942e-05
7.9517807e-05
-8.6802505e-05
0.00010075584
-0.0001141388
0.00012640926
-0.00014825856
0.00015715536
-0.00019049493
0.0001937022
-0.00024236296
0.0002367626
-0.00030555819
0.00028701826
-0.00038194479
0.00034507548
-0.00047353068
0.00041141563
-0.00058242849
0.00048634855
-0.00071080388
0.00056998314
-0.0008608176
0.00066223644
-0.0010345742
0.00076290953
-0.0012340995
0.00087185934
-0.0014613744
0.00098928205
-0.0017184496
0.0011161036
-0.0020076907
0.0012542959
-0.0023320103
0.0014065607
-0.0026953442
0.0015749756
-0.003101513
0.0017615002
-0.0035548826
0.0019692297
-0.0040605034
0.0022017036
-0.0046241123
0.0024625416
-0.0052520133
0.002755207
-0.005950931
0.0030829125
-0.0067277256
0.003448372
-0.0075890296
0.0038534702
-0.0085408011
0.0042988445
-0.0095878307
0.0047836059
-0.010733313
0.0053054067
-0.011978594
0.0058607484
-0.013323328
0.0064459411
-0.01476581
0.0070587225
-0.016303175
0.0077004052
-0.017928795
0.0083732083
-0.019633023
0.0090777123
-0.021402669
0.0098105206
-0.023220997
0.01055872
-0.025069933
0.011296044
-0.026923629
0.011982366
-0.028740376
0.012554127
-0.030450915
0.012915682
-0.031946841
0.012946533
-0.033093426
0.012502134
-0.03373516
0.011364751
-0.033629789
0.0090866452
-0.032383356
0.0048810473
-0.029359503
-0.0027013236
-0.023242287
-0.01631303
-0.011949634
-0.038788029
0.0056240709
-0.067614369
0.027053843
-0.091102965
0.050025591
-0.10497104
0.07223457
-0.10812663
-0.10475077
0.09258941
-1.5423522e-07
1.0014938e-06
-6.8498772e-07
3.4397166e-06
-1.7158895e-06
6.6688837e-06
-3.4018029e-06
1.0883605e-05
-5.9356539e-06
1.6318874e-05
-9.55652e-06
2.32567e-05
-1.455915e-05
3.2033153e-05
-2.1304986e-05
4.3045556e-05
-3.0234869e-05
5.6759421e-05
-4.188332e-05
7.3714493e-05
-5.6894351e-05
9.4528838e-05
-7.6038494e-05
0.00011989999
-0.00010023045
0.00015060121
-0.0001305463
0.00018747121
-0.00016823896
0.00023139486
-0.00021474974
0.00028327338
-0.0002717133
0.00034398183
-0.00034095285
0.00041431502
-0.00042446207
0.00049492485
-0.00052437112
0.0005862576
-0.00064289529
0.00068850731
-0.00078226986
0.00080161101
-0.00094468003
0.00092531971
-0.0011322062
0.0010593855
-0.0013468127
0.0012038886
-0.0015903947
0.0013596857
-0.001864951
0.0015288521
-0.0021730595
0.0017146691
-0.0025188074
0.0019207235
-0.0029057302
0.0021484229
-0.0033375682
0.0024010678
-0.0038187669
0.0026829024
-0.0043543686
0.0029981432
-0.0049498677
0.0033507062
-0.0056109797
0.0037440244
-0.0063432859
0.0041806783
-0.0071518103
0.0046619945
-0.0080405611
0.0051875953
-0.0090120775
0.0057551223
-0.010067071
0.0063604007
-0.011204414
0.0069980905
-0.012421383
0.0076629104
-0.013713964
0.0083513037
-0.015075515
0.0090619564
-0.016495727
0.0097934197
-0.017960832
0.010542817
-0.019452749
0.011302438
-0.020947647
0.012053618
-0.022414592
0.012762988
-0.023813683
0.013381457
-0.025093712
0.013834155
-0.026183179
0.014005149
-0.026971326
0.013734681
-0.027301014
0.012831822
-0.026996442
0.011060179
-0.025814995
0.0079051979
-0.023385347
0.002451399
-0.01909251
-0.0069941604
-0.011647718
-0.023757823
0.0010936639
-0.05152941
0.019529405
-0.086050111
0.040617305
-0.11219086
0.062022261
-0.12637599
0.081744216
-0.12784858
-0.12241034
0.099403785
-1.239529e-07
1.1254467e-06
-5.5137794e-07
3.8671416e-06
-1.3831524e-06
7.5006581e-06
-2.7462201e-06
1.2246673e-05
-4.7995503e-06
1.8372204e-05
-7.7413074e-06
2.6198457e-05
-1.1817389e-05
3.6109235e-05
-1.7331564e-05
4.8559731e-05
-2.4657366e-05
6.4085223e-05
-3.4251883e-05
8.3309011e-05
-4.6671496e-05
0.00010694845
-6.2589531e-05
0.00013581802
-8.281533e-05
0.00017082701
-0.00010831441
0.00021297028
-0.00014022813
0.00026330859
-0.00017989142
0.00032293667
-0.00022884554
0.00039293595
-0.00028884259
0.00047431207
-0.000361837
0.00056791926
-0.00044995976
0.00067438035
-0.00055547101
0.00079401857
-0.00068068995
0.00092682994
-0.00082790728
0.001072537
-0.00099929503
0.0012307732
-0.0011968421
0.0014014356
-0.0014223562
0.0015851998
-0.001677618
0.0017841139
-0.0019648099
0.002001861
-0.0022869777
0.0022428913
-0.0026480107
0.0025094559
-0.0030512427
0.0028042998
-0.0035003515
0.0031320111
-0.0039995245
0.0034973162
-0.0045532973
0.003904479
-0.0051662266
0.0043569538
-0.0058425196
0.0048569712
-0.006585575
0.0054050499
-0.0073975131
0.0059995334
-0.0082787902
0.0066363993
-0.0092280097
0.0073096202
-0.010242058
0.0080121384
-0.011316311
0.0087371635
-0.012444387
0.0094793802
-0.01361654
0.010234109
-0.014819175
0.010996055
-0.016034718
0.01175836
-0.017240728
0.012508449
-0.018408216
0.013221106
-0.019500235
0.013855007
-0.020467241
0.014348464
-0.021240349
0.014607263
-0.021732225
0.014497025
-0.021829281
0.013831737
-0.021361438
0.01236398
-0.020133323
0.0098320633
-0.017883545
0.0056554204
-0.014238024
-0.0011941225
-0.0085698224
-0.012662362
0.00050688028
-0.032834525
0.014713691
-0.065736221
0.033619605
-0.10495603
0.053528781
-0.13210004
0.07247271
-0.14531992
0.089064754
-0.14444063
-0.13720628
0.10386069
-8.9006554e-08
1.2144533e-06
-3.970284e-07
4.1751635e-06
-9.9843095e-07
8.1020607e-06
-1.9875418e-06
1.3235784e-05
-3.4835366e-06
1.9868199e-05
-5.6364153e-06
2.8351336e-05
-8.6343188e-06
3.9107139e-05
-1.2712454e-05
5.2637866e-05
-1.8163822e-05
6.953659e-05
-2.5352143e-05
9.0497332e-05
-3.4727148e-05
0.00011632346
-4.6842402e-05
0.00014793328
-6.2375824e-05
0.00018636043
-8.2152355e-05
0.00023274681
-0.00010716838
0.00028832462
-0.00013861606
0.00035438434
-0.00017790539
0.00043222528
-0.00022668021
0.00052308689
-0.00028682281
0.00062806187
-0.00036044059
0.00074799813
-0.00044982792
0.0008834059
-0.00055739717
0.0010343992
-0.00068557777
0.0012007176
-0.00083669142
0.0013818869
-0.0010128308
0.001577575
-0.001215787
0.001788156
-0.0014470482
0.0020153752
-0.0017079875
0.0022628003
-0.0020005653
0.0025354691
-0.0023290349
0.0028379255
-0.0026969665
0.0031722315
-0.0031068619
0.0035419065
-0.0035618737
0.003952328
-0.0040654344
0.0044080397
-0.0046208941
0.0049124136
-0.0052311081
0.0054671852
-0.0058979358
0.0060718775
-0.0066217918
0.0067233894
-0.0074013651
0.0074159727
-0.0082335952
0.0081418503
-0.0091138437
0.0088923869
-0.010035918
0.0096592374
-0.010991166
0.010434629
-0.011966969
0.011209911
-0.012946121
0.011975207
-0.013906954
0.012719193
-0.014823135
0.013424629
-0.015661557
0.014059529
-0.016378935
0.014572385
-0.016917809
0.014887338
-0.017202346
0.014891801
-0.017129923
0.014424601
-0.016563815
0.013265628
-0.015325644
0.011125809
-0.013204856
0.0077112752
-0.0099111589
0.0023617235
-0.0050506475
-0.0060546339
0.0020659132
-0.019778922
0.01295297
-0.043721582
0.028612189
-0.08139544
0.047386219
-0.12373006
0.065271962
-0.14998578
0.081074168
-0.16112213
0.094341637
-0.1577081
-0.14949696
0.10663232
-5.0658072e-08
1.2651113e-06
-2.2748923e-07
4.3519946e-06
-5.7547522e-07
8.4500466e-06
-1.1526808e-06
1.3812989e-05
-2.0338538e-06
2.0749372e-05
-3.3150003e-06
2.9632482e-05
-5.1192035e-06
4.0911342e-05
-7.6039244e-06
5.5122587e-05
-1.0970252e-05
7.2902918e-05
-1.5474421e-05
9.5001501e-05
-2.1442129e-05
0.00012229116
-2.9286085e-05
0.00015577723
-3.9527227e-05
0.00019660157
-5.2819617e-05
0.0002460392
-6.9979179e-05
0.00030548418
-9.201504e-05
0.00037642021
-0.00012016171
0.00046037195
-0.0001559083
0.00055883348
-0.0002010196
0.00067317317
-0.00025754044
0.00080451897
-0.00032777326
0.00095363871
-0.00041421826
0.0011208442
-0.00051946633
0.0013059657
-0.00064604441
0.001508465
-0.00079622842
0.001727759
-0.00097186828
0.0019637959
-0.0011742982
0.0022178051
-0.0014044322
0.0024929342
-0.0016631935
0.0027942304
-0.0019529359
0.0031276679
-0.0022779694
0.003497265
-0.0026413931
0.0039053302
-0.0030451024
0.0043560372
-0.0034908715
0.0048538088
-0.0039807531
0.0054022952
-0.0045162766
0.0060027087
-0.005097883
0.0066534839
-0.0057245251
0.0073500315
-0.0063935174
0.008084965
-0.0071006163
0.0088489493
-0.0078400836
0.0096318541
-0.0086043625
0.010423516
-0.0093827329
0.011212999
-0.010159513
0.011986691
-0.010913341
0.012729036
-0.011617907
0.013423758
-0.012242937
0.01404966
-0.012751175
0.014567766
-0.01309374
0.01491495
-0.013206032
0.01499963
-0.013003309
0.014689078
-0.012371173
0.013792465
-0.011158515
0.012052971
-0.0091774344
0.0091447285
-0.0061854548
0.0047192956
-0.0018673763
-0.0019563551
0.0041897381
-0.012111748
0.012827187
-0.028416371
0.02560534
-0.056499735
0.042399096
-0.098189196
0.060138468
-0.14146943
0.075427894
-0.16527521
0.087652071
-0.17334631
0.097972071
-0.1680281
-0.15996601
0.10844112
-1.0447852e-08
1.2755592e-06
-4.9518905e-08
4.3910657e-06
-1.3102593e-07
8.5315537e-06
-2.7441969e-07
1.3956383e-05
-5.0695192e-07
2.0981904e-05
-8.6661491e-07
2.9992145e-05
-1.4061575e-06
4.1450884e-05
-2.1984592e-06
5.5914889e-05
-3.3437994e-06
7.4048258e-05
-4.9794182e-06
9.663712e-05
-7.2922504e-06
0.000124604
-1.0535267e-05
0.00015902025
-1.5048541e-05
0.00020111485
-2.128556e-05
0.00025227622
-2.9845319e-05
0.00031404394
-4.151012e-05
0.00038808501
-5.7287804e-05
0.00047614963
-7.8455838e-05
0.00058000151
-0.00010660126
0.00070131859
-0.00014364809
0.0008415658
-0.00019185907
0.0010018497
-0.00025379564
0.0011827808
-0.00033221885
0.0013843889
-0.00042991849
0.0016061646
-0.00054947331
0.0018473138
-0.00069297664
0.0021072992
-0.00086181698
0.0023866455
-0.0010566476
0.0026877648
-0.0012776903
0.0030152731
-0.0015252741
0.0033752517
-0.0018015921
0.003773583
-0.0021107989
0.0042145371
-0.0024553965
0.0047006348
-0.0028360105
0.0052344228
-0.0032531445
0.0058194292
-0.0037068421
0.0064564063
-0.0041960761
0.0071427179
-0.0047185095
0.007872465
-0.0052704391
0.0086368945
-0.0058468476
0.0094253577
-0.0064411817
0.010226188
-0.007044575
0.01102691
-0.0076442115
0.011812636
-0.0082215864
0.012564066
-0.0087505066
0.013257956
-0.0091989838
0.013872236
-0.0095325911
0.014383267
-0.0097098056
0.01474498
-0.0096756532
0.014880797
-0.0093575627
0.01468154
-0.008660449
0.013991964
-0.0074585755
0.012590591
-0.0055932649
0.01018766
-0.0028752693
0.0064267328
0.00097211488
0.00087191143
0.0062894637
-0.0072737039
0.013526566
-0.01934885
0.023770442
-0.038660247
0.038408143
-0.071137435
0.055698079
-0.11547913
0.071266013
-0.15703736
0.083446965
-0.17745616
0.092288288
-0.18218763
0.10046897
-0.17620877
-0.1693908
0.10989375
2.9810267e-08
1.2457489e-06
1.2891304e-07
4.2919629e-06
3.1512647e-07
8.3453402e-06
6.0836397e-07
1.3663145e-05
1.0300403e-06
2.0560228e-05
1.6019443e-06
2.9420241e-05
2.3443033e-06
4.0708525e-05
3.2726524e-06
5.498654e-05
4.3930747e-06
7.2927836e-05
5.6951207e-06
9.5335074e-05
7.1416477e-06
0.00012315747
8.6544633e-06
0.00015750743
1.0094803e-05
0.00019967451
1.1237029e-05
0.000251134
1.1734763e-05
0.00031354621
1.1078121e-05
0.00038874165
8.5422889e-06
0.00047868547
3.1293351e-06
0.00058541446
-6.492709e-06
0.00071094064
-2.2044568e-05
0.00085711766
-4.5670181e-05
0.0010254753
-7.9930123e-05
0.0012170407
-0.0001277296
0.0014321884
-0.00019215433
0.0016705893
-0.00027619967
0.0019313591
-0.00038240732
0.0022135068
-0.00051249179
0.0025167299
-0.00066712132
0.0028423944
-0.00084605573
0.0031942075
-0.0010487508
0.0035779468
-0.0012752486
0.0040000809
-0.0015268912
0.0044661797
-0.0018057363
0.0049794798
-0.0021140535
0.00554274
-0.0024520604
0.0061574361
-0.0028183333
0.0068226792
-0.0032105362
0.0075349208
-0.0036252772
0.008287206
-0.0040578826
0.0090694998
-0.0045022362
0.0098697114
-0.0049503095
0.010674262
-0.0053910763
0.011467676
-0.0058088546
0.012230414
-0.0061826821
0.012937894
-0.0064840613
0.013559335
-0.0066755901
0.014063764
-0.0067161924
0.01442387
-0.0065593189
0.014588107
-0.0061433954
0.014464873
-0.0053870482
0.013925192
-0.004184046
0.012788962
-0.0023962959
0.010802841
0.00013932143
0.007652043
0.0035999951
0.0029660591
0.0082941698
-0.0038222632
0.014577851
-0.013557385
0.023013795
-0.027784795
0.034997718
-0.05064417
0.051150174
-0.087289891
0.067893121
-0.13222208
0.080512896
-0.16965714
0.089288358
-0.18623162
0.095450744
-0.18835002
0.10231659
-0.18307462
-0.17845156
0.11137735
6.8131321e-08
1.1776176e-06
2.9904457e-07
4.0610496e-06
7.4117006e-07
7.9032147e-06
1.4527039e-06
1.2951612e-05
2.5026975e-06
1.9510234e-05
3.9718391e-06
2.79511e-05
5.9528101e-06
3.8727554e-05
8.549747e-06
5.2389603e-05
1.1876389e-05
6.9601194e-05
1.6052208e-05
9.1159255e-05
2.1195554e-05
0.00011801412
2.7412737e-05
0.00015129025
3.4781341e-05
0.0001923059
4.3326134e-05
0.0002425892
5.2985505e-05
0.00030388684
6.3566436e-05
0.00037816072
7.4686711e-05
0.00046756519
8.570413e-05
0.00057439705
9.5635488e-05
0.00070100928
0.00010307246
0.00084968069
0.0001061077
0.0010224401
0.00010229416
0.0012208542
8.8669584e-05
0.001445813
6.1884692e-05
0.0016973742
1.8471429e-05
0.0019747724
-4.4741157e-05
0.0022767194
-0.00013010911
0.0026020979
-0.00023870955
0.0029509948
-0.00037021259
0.0033257105
-0.00052331867
0.0037310529
-0.00069665819
0.0041734204
-0.0008895323
0.0046590538
-0.0011025469
0.0051924944
-0.0013365008
0.0057766939
-0.0015912575
0.0064121928
-0.0018656211
0.0070970428
-0.00215704
0.0078263397
-0.0024615386
0.0085917046
-0.0027735485
0.0093815096
-0.0030854888
0.010181652
-0.0033870428
0.010975816
-0.0036641823
0.011744816
-0.0038983322
0.012464564
-0.0040655921
0.013105154
-0.004135116
0.013628859
-0.0040652397
0.013993888
-0.0038084775
0.014167108
-0.0033121013
0.014091731
-0.0025074117
0.013660184
-0.00130385
0.012721631
0.00041698554
0.011068126
0.002805122
0.0084147045
0.0060149923
0.0044421728
0.010226802
-0.0012457509
0.015768497
-0.0093639579
0.022996438
-0.020785326
0.032734134
-0.037522492
0.04651238
-0.064422415
0.063346829
-0.10412434
0.078273716
-0.14714897
0.087590692
-0.17897411
0.093179577
-0.19182051
0.097618212
-0.19278865
0.10391904
-0.18937546
-0.1875572
0.11302468
1.0221314e-07
1.0754045e-06
4.5069462e-07
3.7125682e-06
1.1216858e-06
7.2322236e-06
2.208418e-06
1.1864879e-05
3.8238294e-06
1.7894823e-05
6.1033921e-06
2.5671537e-05
9.2077985e-06
3.5623148e-05
1.3325276e-05
4.8272125e-05
1.8673014e-05
6.4253456e-05
2.5497067e-05
8.4335202e-05
3.4069824e-05
0.00010944137
4.4683596e-05
0.00014067648
5.7638822e-05
0.00017935068
7.3224432e-05
0.00022700359
9.1687833e-05
0.00028542344
0.00011319143
0.00035665712
0.00013775268
0.00044300394
0.00016516525
0.00054698448
0.00019490157
0.00067127296
0.00022600014
0.00081858212
0.00025694922
0.00099149098
0.00028558816
0.0011922153
0.00030906184
0.0014223393
0.00032387803
0.001682558
0.00032612389
0.0019725265
0.00031189004
0.0022909533
0.00027789457
0.0026360933
0.00022218254
0.0030067068
0.0001446093
0.0034032838
4.6737851e-05
0.0038289243
-6.8951203e-05
0.0042891094
-0.00020012389
0.0047902265
-0.00034539328
0.0053377638
-0.00050383371
0.0059351343
-0.00067448524
0.0065828444
-0.00085569266
0.0072782502
-0.0010445909
0.008015238
-0.0012367237
0.0087838374
-0.0014256656
0.0095704515
-0.0016024513
0.010358438
-0.0017548015
0.011128166
-0.0018662548
0.011856269
-0.0019155886
0.012513898
-0.0018757732
0.013065338
-0.0017121725
0.013465258
-0.0013791781
0.013660894
-0.00082186471
0.013609794
1.9400845e-05
0.013250465
0.0012190659
0.012460519
0.0028794545
0.011061242
0.0051319115
0.0088156695
0.0081301035
0.0054165125
0.012008835
0.00056344155
0.016981308
-0.0062182241
0.023349427
-0.015732077
0.031536156
-0.028972055
0.042764111
-0.048750447
0.058045733
-0.079704037
0.074266675
-0.12034528
0.086235731
-0.15911802
0.092293708
-0.18503209
0.095543086
-0.19506989
0.099182613
-0.19642818
0.10548231
-0.19567515
-0.1968611
0.11478621
1.2967069e-07
9.4573377e-07
5.7327595e-07
3.2689629e-06
1.4301678e-06
6.3753317e-06
2.8229508e-06
1.0472096e-05
4.9017637e-06
1.581601e-05
7.8490005e-06
2.27243e-05
1.1884399e-05
3.1587749e-05
1.7270188e-05
4.2886336e-05
2.4316063e-05
5.7207582e-05
3.3383271e-05
7.5267993e-05
4.4887041e-05
9.7937596e-05
5.9296039e-05
0.00012626748
7.7127081e-05
0.00016151963
9.8932654e-05
0.00020519802
0.00012527807
0.00025907802
0.00015670432
0.00032523087
0.00019367217
0.00040603609
0.00023648267
0.00050417398
0.00028517073
0.0006225849
0.00033937113
0.00076438171
0.00039816278
0.00093269933
0.00045990818
0.0011304699
0.00052212135
0.0013601261
0.00058141849
0.0016232609
0.00063362679
0.0019203182
0.00067413193
0.0022504481
0.00069851785
0.0026117074
0.00070345004
0.0030017746
0.00068755853
0.0034191753
0.00065186412
0.0038646188
0.00059934945
0.0043416241
0.00053382242
0.0048557535
0.00045879067
0.0054127956
0.00037712426
0.0060168007
0.00029123365
0.006668735
0.00020372815
0.0073657557
0.00011807425
0.0081008919
3.9318612e-05
0.0088625931
-2.5222839e-05
0.0096349929
-6.5173085e-05
0.010398388
-6.6265505e-05
0.011129258
-9.5836695e-06
0.011799587
0.00012868393
0.01237563
0.00037869007
0.012815332
0.00077779861
0.01306615
0.0013749015
0.013063791
0.0022331934
0.012751502
0.0034218605
0.012061798
0.0050252286
0.010857151
0.0071549672
0.0089315035
0.0099513731
0.0060192635
0.013550809
0.0018170763
0.018087416
-0.003973165
0.023805826
-0.011936634
0.030962299
-0.022888551
0.040222036
-0.038231791
0.053067458
-0.061595869
0.068962404
-0.095598983
0.083147416
-0.13453029
0.091625818
-0.16759643
0.094954987
-0.18836126
0.096921604
-0.1970365
0.10049305
-0.19999963
0.10706623
-0.20224834
-0.20632101
0.11652614
1.4838598e-07
7.9734778e-07
6.5731849e-07
2.7600304e-06
1.6427572e-06
5.389893e-06
3.2487388e-06
8.8661148e-06
5.6529776e-06
1.3411771e-05
9.0733154e-06
1.9303963e-05
1.3774891e-05
2.6886174e-05
2.0078077e-05
3.658315e-05
2.8366836e-05
4.8918823e-05
3.9097145e-05
6.4537684e-05
5.2804784e-05
8.4229956e-05
7.0111459e-05
0.00010896081
9.1727397e-05
0.0001399037
0.00011844846
0.00017847696
0.00015114398
0.0002263825
0.00019073132
0.00028564353
0.00023813104
0.00035863637
0.00029419671
0.00044810832
0.00035961117
0.00055717044
0.00043474476
0.00068924812
0.00051947295
0.00084797115
0.00061296181
0.001036981
0.00071344603
0.0012596419
0.00081804884
0.0015186581
0.00092272594
0.0018156411
0.0010224435
0.0021507306
0.001111703
0.0025224478
0.0011854653
0.0029280123
0.0012403488
0.0033642919
0.0012756921
0.0038292754
0.0012938617
0.0043234545
0.001299491
0.0048501242
0.0012981035
0.0054141831
0.0012945691
0.0060203351
0.001293728
0.0066695761
0.0012998688
0.0073596149
0.0013174495
0.0080833112
0.0013524399
0.0088276026
0.0014131711
0.0095742618
0.0015114303
0.010300129
0.0016633393
0.010977349
0.0018901324
0.011572794
0.002218827
0.012046936
0.0026824917
0.012351667
0.0033218668
0.012426775
0.004188696
0.012196962
0.0053508884
0.01158931
0.0068915191
0.010521167
0.0089070265
0.0088416434
0.01151734
0.0063211902
0.014854352
0.0026822513
0.019028445
-0.0023570172
0.024204075
-0.0091487945
0.030607515
-0.018340074
0.038550725
-0.030831761
0.049111436
-0.048792502
0.063292388
-0.075776821
0.07840651
-0.11071311
0.089403396
-0.14552718
0.094587668
-0.1727807
0.096157251
-0.18993084
0.097780668
-0.19865992
0.10171329
-0.20393224
0.10859839
-0.20913344
-0.21582291
0.1181003
1.5691301e-07
6.4043478e-07
6.9629678e-07
2.2206466e-06
1.7428683e-06
4.3433215e-06
3.452374e-06
7.156609e-06
6.0181945e-06
1.0845951e-05
9.6790469e-06
1.564311e-05
1.4727939e-05
2.1837282e-05
2.1522351e-05
2.9788738e-05
3.0495615e-05
3.9945559e-05
4.2169348e-05
5.2863951e-05
5.7166437e-05
6.9232868e-05
7.6223859e-05
8.9903385e-05
0.00010020412
0.00011592344
0.00013010309
0.00014857798
0.00016705161
0.00018943398
0.00021230603
0.00024038911
0.00026722209
0.0003037203
0.00033320376
0.00038212664
0.00041161787
0.00047875633
0.00050366293
0.00059720307
0.00061018354
0.00074145054
0.00073142579
0.00091573879
0.0008667437
0.001124324
0.0010142904
0.0013711114
0.0011707662
0.0016591653
0.0013313424
0.0019901545
0.0014899196
0.0023638705
0.0016398755
0.0027780564
0.0017753432
0.0032288242
0.0018927888
0.0037118298
0.0019922703
0.004223973
0.0020775817
0.0047648128
0.0021554258
0.0053363389
0.0022315607
0.0059442003
0.0023169221
0.0065842147
0.0024166154
0.0072599216
0.0025370249
0.0079629017
0.0026855007
0.0086791268
0.0028715591
0.0093882034
0.0031085601
0.010063128
0.0034145681
0.010671341
0.0038133393
0.011174023
0.0043349519
0.011525323
0.0050161732
0.011670446
0.005901184
0.011541764
0.007044674
0.011053472
0.0085185172
0.010115467
0.010418825
0.0086208599
0.012854709
0.0064057591
0.01594647
0.0032294288
0.019795275
-0.0011665531
0.024510318
-0.0070720609
0.030268713
-0.014907189
0.037274344
-0.025345705
0.046133986
-0.039691403
0.05812343
-0.060781946
0.072687706
-0.090341097
0.085510403
-0.1235358
0.092900663
-0.15291744
0.095671762
-0.1755518
0.096503047
-0.19076213
0.098427905
-0.20058478
0.10285778
-0.20836212
0.10995841
-0.21623407
-0.22526545
0.11940095
1.5487124e-07
4.8556354e-07
6.883411e-07
1.6871768e-06
1.7254349e-06
3.3062277e-06
3.4230572e-06
5.4589867e-06
5.9771049e-06
8.291903e-06
9.6309607e-06
1.1989254e-05
1.4685527e-05
1.6782715e-05
2.1510994e-05
2.2963271e-05
3.0560501e-05
3.0896052e-05
4.2385669e-05
4.1038783e-05
5.7654015e-05
5.3964521e-05
7.7167802e-05
7.0389598e-05
0.00010188367
9.1207568e-05
0.00013293164
0.00011753001
0.00017163112
0.0001507345
0.00021950044
0.0001925198
0.00027825423
0.00024496651
0.00034978093
0.00031059995
0.00043608913
0.00039244813
0.00053920935
0.00049408285
0.00066103458
0.0006196253
0.00080308431