/*--------------------------------*- C++ -*----------------------------------*\
  =========                 |
  \\      /  F ield         | OpenFOAM: The Open Source CFD Toolbox
   \\    /   O peration     | Website:  https://openfoam.org
    \\  /    A nd           | Version:  13
     \\/     M anipulation  |
\*---------------------------------------------------------------------------*/
FoamFile
{
    format      ascii;
    class       volVectorField;
    location    "43.900532";
    object      U;
}
// * * * * * * * * * * * * * * * * * * * * * * * * * * * * * * * * * * * * * //

dimensions      [0 1 -1 0 0 0 0];

internalField   nonuniform List<vector> 
17140
(
(-3.541397e-06 0.00025410313 2.9626473e-23)
(-1.2313248e-05 0.00078739603 3.2808932e-24)
(-2.3994303e-05 0.0013777853 -2.1652801e-22)
(-3.9372753e-05 0.0020319075 2.3794044e-22)
(-5.9369214e-05 0.0027569933 -2.7802019e-23)
(-8.5151244e-05 0.0035608551 9.0941637e-23)
(-0.00011816596 0.0044518523 1.5299366e-22)
(-0.00016017851 0.0054388347 -7.4604767e-23)
(-0.00021334423 0.0065310552 -2.4394413e-22)
(-0.00028028468 0.0077380435 -5.975078e-22)
(-0.00036417954 0.0090694337 8.8439935e-22)
(-0.00046887092 0.010534734 -7.8644156e-22)
(-0.00059898413 0.012143031 -1.2008117e-22)
(-0.00076006378 0.013902608 6.7666091e-22)
(-0.00095872576 0.015820475 -7.4827152e-23)
(-0.001202823 0.017901785 5.898855e-22)
(-0.0015016217 0.020149132 -2.1773237e-23)
(-0.0018659824 0.02256172 4.9074113e-24)
(-0.0023085351 0.025134388 3.4129869e-22)
(-0.002843835 0.027856507 -4.3767088e-22)
(-0.0034884772 0.030710768 2.0821697e-22)
(-0.004261142 0.033671896 -3.909636e-23)
(-0.0051825315 0.036705383 -2.829331e-22)
(-0.0062751478 0.039766364 2.7695192e-22)
(-0.0075628492 0.042798848 4.3096244e-22)
(-0.0090701095 0.045735607 -3.3818352e-22)
(-0.010820896 0.048499186 -1.6230047e-21)
(-0.012837087 0.051004698 -1.8675833e-22)
(-0.015136385 0.053165332 1.5974104e-21)
(-0.01772978 0.054901779 3.6465238e-22)
(-0.020618857 0.056156558 1.2670067e-21)
(-0.023793593 0.056912474 -1.6189631e-21)
(-0.027231777 0.05720943 4.0885205e-22)
(-0.030901302 0.057147326 1.8790996e-22)
(-0.034765626 0.056864587 1.7636572e-21)
(-0.038790372 0.056500261 -7.3588832e-22)
(-0.042947673 0.056164741 1.0597008e-21)
(-0.047216815 0.055934328 6.8613343e-22)
(-0.051582908 0.055862456 3.0219975e-22)
(-0.056036074 0.055993804 -8.8782601e-22)
(-0.060572825 0.056373986 -1.6422584e-21)
(-0.065198474 0.057053792 -1.4728135e-21)
(-0.069931865 0.058089819 -6.4047057e-22)
(-0.074816414 0.059537325 3.1316058e-21)
(-0.07992028 0.061429959 2.3071942e-21)
(-0.085349692 0.063774548 -5.718941e-22)
(-0.091263469 0.066538197 3.9460541e-21)
(-0.097882124 0.069607902 1.35862e-21)
(-0.10549996 0.072743293 -1.4044187e-21)
(-0.11450524 0.075499934 -3.4964353e-21)
(-0.12537223 0.07707617 2.1877825e-21)
(-0.13868251 0.076068358 1.411942e-21)
(-0.15499635 0.070024184 -3.7524037e-21)
(-0.17474967 0.054914891 -1.8268166e-21)
(-0.1975926 0.02445392 -1.3289622e-21)
(-0.2220054 -0.030257984 1.0893492e-21)
(-0.23948624 -0.11825183 -2.8970152e-21)
(-0.24137017 -0.24173004 -2.2708851e-21)
(-0.2019966 -0.37672428 -4.735007e-22)
(-0.1366174 -0.46940196 1.0633492e-21)
(-0.070176504 -0.46992226 7.5749597e-22)
(-0.0032614221 -0.28975858 2.8747091e-21)
(0.19529928 0.082979566 3.7782275e-22)
(0.39168359 0.40930821 -1.9457644e-21)
(0.50477024 0.51344856 9.3101614e-22)
(-1.1631438e-05 0.00028187902 -8.4572431e-24)
(-3.741237e-05 0.00087346899 1.1391239e-21)
(-6.7748436e-05 0.0015282866 -1.0133789e-21)
(-0.00010370881 0.0022535014 2.7613797e-22)
(-0.00014635627 0.0030569197 5.7019033e-22)
(-0.0001970509 0.0039469567 -1.0888758e-21)
(-0.00025743183 0.004932601 1.134159e-21)
(-0.00032945404 0.0060233533 -9.9720848e-23)
(-0.00041545309 0.0072291311 3.1097062e-22)
(-0.00051821488 0.0085601326 5.2686162e-24)
(-0.00064105637 0.010026651 1.0348228e-21)
(-0.00078791756 0.011638825 -1.6404036e-21)
(-0.00096346668 0.013406324 -1.3509084e-22)
(-0.0011732181 0.015337934 1.3285434e-21)
(-0.0014236627 0.017441053 -4.0605282e-22)
(-0.0017224093 0.019721066 -2.5640326e-22)
(-0.0020783335 0.022180589 1.6146746e-21)
(-0.0025017283 0.024818567 -5.2119187e-21)
(-0.0030044485 0.02762923 3.2274335e-21)
(-0.0036000348 0.030600897 -3.8171108e-21)
(-0.0043037997 0.033714654 5.5536571e-21)
(-0.0051328489 0.036942954 -1.3386675e-21)
(-0.006106004 0.040248205 -5.4075773e-22)
(-0.0072435809 0.043581507 1.7329984e-21)
(-0.0085669677 0.04688172 -6.0955905e-21)
(-0.010097934 0.050075206 -8.9009071e-22)
(-0.011857599 0.053076727 4.5019281e-21)
(-0.013864989 0.055792195 -4.9359926e-21)
(-0.01613516 0.058124352 6.6351061e-22)
(-0.01867696 0.059982725 6.3472634e-21)
(-0.021490712 0.061299204 -6.4015002e-22)
(-0.024566432 0.062048745 -4.7922803e-21)
(-0.027883505 0.062269319 -1.1933745e-22)
(-0.03141276 0.062067414 3.3413567e-21)
(-0.035121089 0.061596127 -3.5740359e-21)
(-0.038976959 0.061012926 1.5391896e-21)
(-0.04295404 0.060445017 -1.7251865e-21)
(-0.047031713 0.059981102 -5.2630301e-21)
(-0.051194014 0.059682951 -1.1389907e-21)
(-0.055429072 0.059601348 -4.3278217e-21)
(-0.059730557 0.05978761 5.4288686e-21)
(-0.064100104 0.060299243 4.9553337e-21)
(-0.068552124 0.06120168 8.4804898e-22)
(-0.07312405 0.062561123 -6.8035869e-21)
(-0.077877165 0.064424041 3.266954e-21)
(-0.082910568 0.06681353 1.147622e-21)
(-0.088375492 0.069716368 -6.0073696e-22)
(-0.094485669 0.073042208 -1.9649155e-21)
(-0.10153093 0.076576679 9.7168098e-22)
(-0.10990323 0.079904404 -1.8466929e-21)
(-0.12009208 0.082251966 -1.113378e-20)
(-0.13272245 0.082231038 -5.1146818e-22)
(-0.14843705 0.077360025 2.4463779e-21)
(-0.16783219 0.063479838 -5.901268e-21)
(-0.19089685 0.033925732 5.121421e-21)
(-0.2163165 -0.021655427 -1.5274854e-20)
(-0.23585635 -0.11343262 -4.721341e-21)
(-0.23703644 -0.24664112 1.1603805e-20)
(-0.18983495 -0.39283372 -1.7841505e-21)
(-0.1219245 -0.48914335 -1.5004514e-21)
(-0.062587705 -0.48842485 -2.4295663e-22)
(-0.021444852 -0.32603865 2.5222522e-21)
(0.12426497 0.02283615 -5.1585601e-21)
(0.32460489 0.35746741 -2.7913741e-22)
(0.45139275 0.49059182 -1.1818164e-21)
(-2.1351374e-05 0.00030828855 -4.6718198e-22)
(-6.7434438e-05 0.00095532609 3.4520095e-22)
(-0.00012013469 0.0016714327 9.1782221e-23)
(-0.00018069316 0.00246428 -8.6986144e-23)
(-0.00025038711 0.0033422056 4.2136745e-22)
(-0.00033078588 0.0043141825 3.1328525e-23)
(-0.00042373901 0.005389782 3.9983286e-22)
(-0.0005314078 0.0065791081 4.3041275e-22)
(-0.00065632231 0.0078926967 -3.5132799e-21)
(-0.00080144127 0.0093413705 3.1322862e-21)
(-0.00097022096 0.010936043 -1.4962124e-21)
(-0.0011666924 0.012687455 -2.1874781e-21)
(-0.0013955489 0.014605838 4.3252454e-21)
(-0.0016622428 0.016700479 5.336145e-22)
(-0.0019730911 0.018979187 -2.0507249e-21)
(-0.0023353889 0.021447626 -1.4021006e-21)
(-0.0027575267 0.024108511 1.6147541e-21)
(-0.0032491071 0.026960656 -5.7971602e-21)
(-0.0038210529 0.029997849 3.3918741e-21)
(-0.004485696 0.033207579 -1.6581329e-21)
(-0.0052568297 0.036569607 5.5146788e-21)
(-0.0061497035 0.040054446 1.4118342e-21)
(-0.0071809287 0.043621815 -2.8963069e-21)
(-0.0083682579 0.047219206 4.2785773e-21)
(-0.0097301859 0.050780788 1.652999e-21)
(-0.011285317 0.05422697 -1.9446871e-21)
(-0.013051436 0.057465133 -1.0817516e-20)
(-0.015044222 0.06039231 -4.7970877e-21)
(-0.017275622 0.062900933 2.3436966e-21)
(-0.019751945 0.064889251 -2.4583751e-21)
(-0.022472007 0.066278028 1.5011055e-21)
(-0.025425841 0.067033402 8.3061823e-21)
(-0.028594699 0.067189992 -2.70725e-21)
(-0.031952886 0.066859322 -7.8128339e-21)
(-0.03547137 0.066208079 2.4982354e-21)
(-0.039121957 0.065411918 3.3665318e-21)
(-0.042880039 0.064615192 -5.599126e-21)
(-0.046724949 0.063919406 -1.6527692e-21)
(-0.050639184 0.063394894 2.8265953e-21)
(-0.054608094 0.063098549 1.1010452e-21)
(-0.058621394 0.063087295 -5.2501083e-21)
(-0.06267551 0.06342526 1.4841995e-21)
(-0.06677828 0.064186686 2.1461583e-21)
(-0.070958086 0.065448949 5.7989416e-21)
(-0.075265088 0.06727213 -1.119501e-20)
(-0.079785091 0.069696698 7.4044693e-21)
(-0.084652834 0.072730752 1.931728e-21)
(-0.09006265 0.076309299 7.7246297e-21)
(-0.096281776 0.080248682 9.4813817e-21)
(-0.10368052 0.084170278 4.7907176e-22)
(-0.11272732 0.087341787 -2.3203605e-21)
(-0.12403859 0.088410536 1.6327337e-20)
(-0.1382616 0.084897502 7.1801464e-21)
(-0.15602468 0.072566868 7.5631577e-21)
(-0.17749406 0.044429068 2.7746577e-21)
(-0.20126186 -0.01107727 2.1426301e-20)
(-0.2192064 -0.10687439 -9.7462583e-21)
(-0.21108597 -0.25110605 3.1496233e-21)
(-0.1532275 -0.40879035 1.7738909e-20)
(-0.081087051 -0.50663979 5.282095e-21)
(-0.030129328 -0.50201674 -4.2571537e-21)
(-0.0093553917 -0.35234652 -1.3431038e-20)
(0.087796822 -0.032924715 4.3179913e-21)
(0.27224564 0.30060424 3.3630243e-21)
(0.40821509 0.4603257 8.6114945e-22)
(-3.256973e-05 0.00033279038 1.5688851e-21)
(-0.0001020838 0.0010313109 -2.4958563e-21)
(-0.00018058637 0.0018043486 9.0219248e-22)
(-0.00026950596 0.0026600282 -9.8036939e-23)
(-0.00037035519 0.0036071663 1.9374906e-21)
(-0.00048493071 0.0046552394 -2.0035351e-21)
(-0.00061530886 0.0058143455 3.0373062e-21)
(-0.00076387137 0.007095136 -1.4277424e-21)
(-0.00093335361 0.0085087102 -5.4231618e-21)
(-0.0011268934 0.010066465 1.3022204e-21)
(-0.0013480865 0.011779889 4.9524174e-21)
(-0.0016010477 0.013660293 -1.5088411e-21)
(-0.0018904779 0.015718451 -1.0049526e-22)
(-0.0022217382 0.017964154 3.9268774e-21)
(-0.0026009275 0.020405648 -1.2237875e-20)
(-0.0030349651 0.023048938 7.4771881e-21)
(-0.0035316725 0.025896944 7.0825263e-23)
(-0.0040998524 0.028948499 -4.0829853e-21)
(-0.0047493568 0.032197165 1.028245e-20)
(-0.0054911356 0.035629874 -4.8057255e-21)
(-0.0063372513 0.039225413 -7.0877671e-21)
(-0.0073008427 0.042952779 -2.8356565e-21)
(-0.0083960109 0.046769491 1.3831881e-20)
(-0.0096375961 0.050619992 7.1255611e-21)
(-0.011040804 0.054434356 -4.5326594e-21)
(-0.012620632 0.058127645 2.6059626e-21)
(-0.014391052 0.061600442 -9.613676e-21)
(-0.016363905 0.064741367 2.7210866e-21)
(-0.018547536 0.067432832 -7.2207685e-21)
(-0.02094528 0.069561771 4.0189327e-21)
(-0.023554113 0.071037291 -2.448635e-21)
(-0.026363944 0.071815509 8.7870545e-21)
(-0.029358013 0.071925807 -1.2316102e-21)
(-0.032514511 0.071482587 6.322846e-21)
(-0.035809069 0.070664508 -5.8444357e-21)
(-0.039217368 0.069664884 -1.8087588e-21)
(-0.042716758 0.068645558 2.1590681e-20)
(-0.046286409 0.067721399 5.4398062e-21)
(-0.049906797 0.066971616 -4.3725383e-21)
(-0.053559703 0.066459242 4.2044943e-21)
(-0.057229736 0.066246634 -1.0785786e-21)
(-0.060906513 0.066404283 -6.6590132e-21)
(-0.064589039 0.067014944 3.0629861e-22)
(-0.06829332 0.068167076 2.2860085e-21)
(-0.072053921 0.069934738 -1.1348884e-21)
(-0.075936612 0.072376304 6.1594308e-22)
(-0.08004978 0.075522025 1.7418738e-21)
(-0.084554109 0.079334059 -2.6896886e-20)
(-0.08967357 0.083663067 3.1157322e-21)
(-0.095727147 0.088173219 -2.9276198e-21)
(-0.10311767 0.092184023 2.8347324e-20)
(-0.1123861 0.094395038 -1.5901802e-20)
(-0.12407617 0.092357196 -1.3792296e-20)
(-0.13867525 0.081812516 -1.3877442e-20)
(-0.15630104 0.055458065 -1.4250859e-20)
(-0.1750652 0.0002999058 -2.3696914e-20)
(-0.18560032 -0.10013234 4.8867901e-20)
(-0.16179392 -0.25567557 -2.9307478e-20)
(-0.082749257 -0.42274926 -3.5388315e-20)
(-0.0067339286 -0.51859695 1.7893171e-20)
(0.030674575 -0.50856307 4.1233272e-21)
(0.031808997 -0.36829362 4.5199959e-21)
(0.08941908 -0.080194236 -6.8601918e-21)
(0.23856296 0.24347938 -2.2495948e-21)
(0.37825638 0.42354462 -1.5911835e-22)
(-4.5123552e-05 0.00035485928 -1.1079039e-21)
(-0.00014085963 0.0010997909 3.6777248e-21)
(-0.0002482317 0.0019241802 -2.9975996e-21)
(-0.00036886868 0.0028365493 1.1325024e-21)
(-0.00050453519 0.0038461325 4.0901246e-22)
(-0.00065726937 0.0049628466 -3.5180715e-21)
(-0.00082938693 0.0061972514 8.9052246e-22)
(-0.0010235006 0.0075604812 1.8898626e-21)
(-0.0012425586 0.0090641363 1.4485793e-22)
(-0.0014898815 0.01072013 1.229666e-21)
(-0.0017692035 0.012540478 -1.7199535e-21)
(-0.0020847151 0.014537019 1.1935752e-21)
(-0.0024411099 0.016721055 4.3902923e-21)
(-0.002843632 0.019102883 1.2741732e-22)
(-0.0032981252 0.021691221 -3.337643e-21)
(-0.0038110808 0.024492488 -2.3555821e-21)
(-0.0043896822 0.027509934 2.0180872e-21)
(-0.0050418421 0.030742592 -1.921415e-22)
(-0.0057762266 0.034184043 -3.8861432e-21)
(-0.0066022598 0.037820996 -4.6986909e-21)
(-0.0075300962 0.041631672 5.3133812e-21)
(-0.008570548 0.045584055 5.2884499e-21)
(-0.0097349469 0.049634058 -7.0297915e-21)
(-0.011034915 0.053723745 8.5866082e-21)
(-0.012482011 0.057779831 1.4673201e-20)
(-0.014087219 0.0617128 -3.4058407e-20)
(-0.015860244 0.065417175 1.845854e-20)
(-0.017808595 0.068773821 -2.6924435e-20)
(-0.019936505 0.071655575 3.3092184e-20)
(-0.022243841 0.073938133 -3.6315527e-20)
(-0.024725308 0.075518425 3.6856408e-20)
(-0.0273704 0.076341178 -6.0697858e-21)
(-0.03016429 0.076428235 -2.0454815e-20)
(-0.033089297 0.075894093 1.1196111e-20)
(-0.036126216 0.074927119 -3.3797293e-21)
(-0.039255131 0.073737375 -9.4093187e-22)
(-0.042455665 0.072504492 -1.122921e-20)
(-0.045706757 0.071357415 -3.5282266e-21)
(-0.048986435 0.070384701 -3.4712671e-21)
(-0.052272126 0.069655583 -3.3307122e-21)
(-0.055542162 0.069237586 1.6761917e-20)
(-0.05877771 0.069207095 -7.325973e-21)
(-0.061966598 0.069654765 -1.1820283e-21)
(-0.065108957 0.07067968 1.3664813e-20)
(-0.068219055 0.07236975 7.0310907e-21)
(-0.071335417 0.074800952 -3.4925611e-21)
(-0.074529345 0.078025551 -1.3065003e-20)
(-0.077912152 0.082033336 5.7445688e-21)
(-0.081641316 0.086711201 -1.7357481e-20)
(-0.085950194 0.091769456 -9.7304002e-21)
(-0.091122588 0.096586168 -1.3749855e-20)
(-0.097540951 0.099922036 -3.8689591e-20)
(-0.10549923 0.099373371 3.1155273e-20)
(-0.11510368 0.090717006 -1.0921131e-20)
(-0.12604821 0.066372497 1.9788008e-20)
(-0.13533274 0.011878426 1.9829919e-20)
(-0.1312932 -0.093696289 9.8510998e-21)
(-0.079949508 -0.26172369 7.447212e-20)
(0.032008684 -0.43395658 1.5179007e-20)
(0.11141794 -0.52277579 -2.3554721e-20)
(0.12437102 -0.50413743 -4.1610556e-21)
(0.10006248 -0.37260653 3.3914499e-21)
(0.12344208 -0.11275225 4.7819067e-21)
(0.23074008 0.1919009 5.657971e-22)
(0.36943547 0.38120179 -1.4490071e-22)
(-5.8787591e-05 0.00037396958 -3.3856524e-21)
(-0.00018306894 0.0011591404 -1.1948044e-21)
(-0.00032186465 0.0020280894 9.6714884e-22)
(-0.00047701331 0.0029896732 3.5704944e-21)
(-0.00065054333 0.0040534738 -1.9557033e-21)
(-0.00084474404 0.0052297773 2.8137911e-21)
(-0.0010621788 0.0065295333 -1.2169178e-21)
(-0.0013056978 0.0079642865 -2.8968657e-22)
(-0.0015784663 0.0095460684 1.6384861e-21)
(-0.0018839891 0.011287244 3.5282493e-21)
(-0.002226136 0.013200302 1.7709636e-22)
(-0.0026091666 0.015297571 -5.787604e-21)
(-0.0030377541 0.017590853 7.9952996e-21)
(-0.0035170062 0.020090962 -1.2886779e-20)
(-0.0040524835 0.022807125 3.3605107e-21)
(-0.004650211 0.02574626 -7.1219348e-21)
(-0.0053166835 0.028912083 8.5824658e-21)
(-0.0060588574 0.032304029 -5.5525227e-21)
(-0.0068841289 0.035915982 8.7295574e-22)
(-0.0078002897 0.039734792 3.5217702e-21)
(-0.0088154523 0.043738585 -8.5062919e-21)
(-0.0099379365 0.047894904 1.191841e-20)
(-0.0111761 0.052158733 -1.2853087e-20)
(-0.012538095 0.056470541 -2.1916526e-21)
(-0.014031534 0.060754554 2.1280746e-20)
(-0.015663027 0.064917592 -2.129403e-20)
(-0.017437593 0.068849044 1.3693029e-20)
(-0.019357933 0.07242286 -1.5205747e-20)
(-0.021423645 0.075502932 -1.4435963e-21)
(-0.023630569 0.077953953 -8.8777004e-22)
(-0.025970602 0.079660225 5.8072379e-21)
(-0.028432351 0.080553616 -3.8990451e-22)
(-0.03100264 0.080645787 2.1081134e-20)
(-0.033667943 0.08004792 -5.5483204e-21)
(-0.036414558 0.078955104 -1.6132028e-20)
(-0.039227499 0.077592755 7.2515177e-21)
(-0.042089052 0.076158473 -5.7368945e-21)
(-0.044977972 0.074796121 5.5949439e-21)
(-0.047869478 0.073604234 3.0132987e-20)
(-0.050735896 0.072658362 -1.6302412e-20)
(-0.053548124 0.072030846 -3.9416461e-21)
(-0.056277228 0.071803277 2.228789e-20)
(-0.058897486 0.072073219 -1.2534799e-21)
(-0.061389664 0.07294943 -2.7235562e-21)
(-0.06374266 0.074533058 -3.0419642e-20)
(-0.065960306 0.076916364 -7.1382252e-21)
(-0.068065408 0.080172258 1.1484768e-20)
(-0.070102926 0.084316961 1.193992e-20)
(-0.07213839 0.089273203 1.7402592e-20)
(-0.074280838 0.094796796 2.2219783e-20)
(-0.076633231 0.10032556 1.4120673e-20)
(-0.079324459 0.10468042 2.2135319e-20)
(-0.082198359 0.10551359 -7.9176818e-21)
(-0.084717419 0.098612274 5.2954372e-20)
(-0.08569782 0.076185037 4.6214783e-21)
(-0.080044192 0.022046932 4.1231517e-21)
(-0.051909759 -0.090000782 3.816866e-21)
(0.042880343 -0.27056952 -8.4033777e-20)
(0.19102856 -0.44287276 -2.504357e-20)
(0.27581239 -0.51051133 2.3838294e-20)
(0.25739215 -0.48227691 1.4411526e-20)
(0.19867885 -0.36182396 2.7104008e-21)
(0.18640671 -0.13087738 8.6019562e-22)
(0.25710089 0.14916758 3.4577768e-21)
(0.39398041 0.33559076 -1.5154977e-21)
(-7.3270674e-05 0.00038963529 6.4139887e-22)
(-0.00022784022 0.0012078473 2.0381719e-21)
(-0.00039995626 0.0021134362 -4.9187325e-21)
(-0.00059170188 0.0031155165 1.8281006e-22)
(-0.00080536423 0.0042239435 2.3940293e-21)
(-0.0010434899 0.0054492941 1.0549919e-21)
(-0.0013088936 0.0068028275 7.7876337e-22)
(-0.0016046656 0.0082964191 -1.5340596e-21)
(-0.0019341889 0.0099424554 7.9381629e-21)
(-0.0023011512 0.011753683 -5.9868113e-21)
(-0.002709555 0.013743002 2.8947261e-22)
(-0.0031637234 0.015923184 3.6179329e-21)
(-0.0036683002 0.018306512 -1.3521536e-20)
(-0.004228245 0.020904314 1.3459667e-20)
(-0.0048488184 0.023726371 -1.7898632e-21)
(-0.0055355579 0.026780188 -1.1055243e-20)
(-0.0062942407 0.030070091 1.0370428e-20)
(-0.0071308305 0.033596138 -3.61284e-21)
(-0.0080514054 0.037352815 6.9943293e-21)
(-0.0090620618 0.041327515 -8.9368464e-21)
(-0.010168789 0.045498776 -1.6688543e-20)
(-0.011377306 0.04983433 1.6412977e-20)
(-0.012692857 0.054288989 2.3863564e-20)
(-0.014119945 0.058802505 -4.5619665e-20)
(-0.015661999 0.063297597 3.6212508e-20)
(-0.017320963 0.067678494 -2.0788574e-20)
(-0.0190968 0.071830547 5.2921715e-21)
(-0.020986955 0.075621827 -1.2358022e-20)
(-0.022985862 0.078908133 1.2478354e-20)
(-0.025084732 0.081543585 1.6615805e-20)
(-0.027271985 0.083399552 -1.0874911e-20)
(-0.02953468 0.084393591 -1.7759741e-20)
(-0.031860748 0.084524285 1.517835e-21)
(-0.034240547 0.083895478 6.0612666e-22)
(-0.036666004 0.082705215 1.0573877e-20)
(-0.039127548 0.081192256 -4.4464021e-21)
(-0.041610622 0.07957212 -1.5653557e-20)
(-0.044093975 0.078004551 -7.6215535e-21)
(-0.046549774 0.076598859 1.1332431e-20)
(-0.04894456 0.075437104 -8.7251379e-21)
(-0.051240692 0.074596023 7.3511614e-21)
(-0.053397511 0.074161502 -2.3736205e-21)
(-0.055373389 0.074236638 -9.3201153e-21)
(-0.057126395 0.074938305 2.2676454e-20)
(-0.058614772 0.076379579 1.3605669e-20)
(-0.059799966 0.078666676 9.0882837e-21)
(-0.06064469 0.081890312 -2.9331622e-20)
(-0.061109686 0.086089785 -1.9454409e-20)
(-0.061141962 0.091220385 -2.3367995e-20)
(-0.060684538 0.097077861 -4.1915342e-20)
(-0.059590884 0.10315558 1.5342639e-20)
(-0.05762384 0.10829673 -3.1767897e-21)
(-0.053922677 0.11016236 -2.7405857e-20)
(-0.047223038 0.10471516 -8.5671918e-20)
(-0.034610007 0.083622874 -6.1612683e-20)
(-0.0080665948 0.028940364 -2.7117647e-20)
(0.055620682 -0.092047731 -8.2817946e-20)
(0.20445191 -0.28315978 5.3787145e-20)
(0.37407763 -0.44943131 -4.3930784e-21)
(0.46002268 -0.48934402 -3.830345e-20)
(0.42727494 -0.43827055 -1.146988e-20)
(0.32795662 -0.33008624 -9.6504376e-22)
(0.27801239 -0.13242385 -7.5367099e-21)
(0.31836573 0.11655063 2.5816863e-21)
(0.45576731 0.29012533 -1.9112694e-21)
(-8.823827e-05 0.00040142306 2.5401849e-21)
(-0.00027411917 0.0012445673 -1.7133319e-21)
(-0.0004806821 0.0021778661 2.314105e-21)
(-0.00071025732 0.0032106142 1.3150394e-21)
(-0.00096539059 0.0043528582 -3.6689965e-21)
(-0.0012488851 0.0056153811 -3.4242446e-21)
(-0.0015638058 0.0070096658 3.5126956e-21)
(-0.0019134807 0.0085478331 -4.2262872e-22)
(-0.0023015079 0.010242542 -9.7801449e-23)
(-0.0027317549 0.012106844 -6.9481101e-21)
(-0.0032083535 0.014153983 7.613146e-22)
(-0.0037356861 0.016397126 1.3990564e-20)
(-0.0043183642 0.018849004 -1.1175429e-20)
(-0.0049611954 0.02152146 3.8466886e-22)
(-0.0056691376 0.024424868 7.4708147e-21)
(-0.0064472379 0.027567403 6.4153501e-22)
(-0.0073005531 0.030954152 -1.6285533e-21)
(-0.0082340504 0.034586015 -7.3191841e-21)
(-0.0092524832 0.038458392 1.3366775e-20)
(-0.01036024 0.04255963 -2.341172e-20)
(-0.011561164 0.046869218 5.025273e-21)
(-0.012858338 0.051355741 -3.6719754e-21)
(-0.014253825 0.055974647 2.9972607e-21)
(-0.015748379 0.060665923 -1.2756759e-22)
(-0.017341098 0.065351873 1.752529e-20)
(-0.019029037 0.069935333 1.7323488e-20)
(-0.020806807 0.074298882 -3.4014393e-20)
(-0.02266619 0.078305957 -5.6149075e-21)
(-0.024595935 0.08180534 1.9355068e-20)
(-0.026581971 0.084641268 6.7957323e-21)
(-0.028608471 0.086672109 1.5290192e-20)
(-0.030660067 0.087799788 -1.6995125e-20)
(-0.032725009 0.088006843 -7.3205033e-21)
(-0.034796924 0.087385225 1.6593998e-20)
(-0.036873103 0.08613138 -6.7675919e-21)
(-0.038949792 0.084494663 -3.2060657e-21)
(-0.041016181 0.082707988 8.8394129e-21)
(-0.043051368 0.080947993 2.2516777e-20)
(-0.045024404 0.079335739 6.7055284e-21)
(-0.046895474 0.077960109 -4.3488523e-21)
(-0.048617378 0.076901774 -1.018699e-20)
(-0.050136182 0.076249796 -1.0534581e-20)
(-0.051392089 0.076111074 -1.1715831e-20)
(-0.05231718 0.076608402 -2.4792252e-20)
(-0.052834246 0.077864436 7.2482275e-22)
(-0.052854107 0.079996111 -1.0706381e-20)
(-0.052268397 0.083107463 6.0425577e-20)
(-0.050935684 0.087255009 1.7101481e-20)
(-0.048659198 0.092419654 1.996869e-20)
(-0.04517557 0.098422632 5.7100234e-20)
(-0.04003309 0.10478923 -6.9398883e-20)
(-0.032529115 0.11035108 1.6245416e-20)
(-0.020987706 0.11289751 5.4816447e-20)
(-0.0026443352 0.10809953 7.1311787e-20)
(0.027040733 0.087349719 9.3569998e-21)
(0.079761714 0.029796008 -2.8836242e-20)
(0.19056464 -0.10152108 -4.8388823e-20)
(0.38646454 -0.29718899 1.9675725e-20)
(0.55813618 -0.45188663 -2.4043311e-20)
(0.62711354 -0.46560818 1.0178075e-20)
(0.5999659 -0.38341567 8.2486167e-22)
(0.48291551 -0.276293 -2.3294922e-21)
(0.39778218 -0.11437016 1.068881e-20)
(0.40976617 0.095370011 1.6354792e-21)
(0.54717634 0.24828502 2.7296064e-21)
(-0.00010330352 0.00040897657 -2.3930464e-21)
(-0.00032071113 0.0012681945 -6.4097957e-22)
(-0.00056196344 0.002219443 7.0415814e-22)
(-0.00082963299 0.0032721144 3.4600722e-21)
(-0.0011265187 0.00443636 -4.1482943e-21)
(-0.0014556741 0.0057230786 3.5210237e-21)
(-0.0018204078 0.0071438857 1.6819151e-21)
(-0.0022242793 0.0087110564 -9.0142817e-23)
(-0.0026710956 0.010437433 -1.4177443e-21)
(-0.0031648992 0.012336291 -8.0541776e-21)
(-0.0037099473 0.014421145 1.3505531e-20)
(-0.0043106812 0.016705497 -1.6200903e-20)
(-0.0049716822 0.019202492 4.7480695e-21)
(-0.0056976129 0.021924481 6.4288141e-21)
(-0.0064931405 0.024882456 -9.8314229e-21)
(-0.00736284 0.028085345 1.9314294e-20)
(-0.0083110735 0.031539133 -2.3318009e-20)
(-0.0093418434 0.035245777 -3.6584612e-22)
(-0.010458617 0.039201896 -1.3239396e-20)
(-0.011664117 0.043397208 5.2262022e-20)
(-0.012960084 0.047812686 -1.2580761e-20)
(-0.014346996 0.052418452 -5.1734684e-20)
(-0.015823763 0.057171427 2.4292205e-20)
(-0.017387376 0.062012833 2.878751e-20)
(-0.019032547 0.066865723 -7.1851927e-21)
(-0.020751323 0.071632853 -3.736734e-20)
(-0.022532741 0.076195448 5.6195032e-20)
(-0.024362584 0.080413757 -6.1885085e-20)
(-0.026223422 0.084130889 4.8350841e-20)
(-0.028095227 0.0871822 -9.1801234e-21)
(-0.029957044 0.089413348 1.5625634e-20)
(-0.031789967 0.090709662 2.2010412e-20)
(-0.033581559 0.091034873 -8.4830448e-21)
(-0.035327578 0.090463666 -2.1132529e-21)
(-0.037029842 0.089185374 -3.0223805e-20)
(-0.038690892 0.087456676 5.6287966e-21)
(-0.040304369 0.085526682 -1.4197196e-20)
(-0.041850211 0.083589982 1.1783975e-20)
(-0.043294498 0.081780508 -6.6395489e-21)
(-0.044590644 0.080194429 -4.3370668e-21)
(-0.045680993 0.078915859 -3.717882e-21)
(-0.046496919 0.078035727 -3.607461e-21)
(-0.046958304 0.077662576 2.219585e-20)
(-0.046968113 0.077922312 1.7821138e-20)
(-0.046409723 0.078943814 -5.0345333e-21)
(-0.045134066 0.080851027 3.3754862e-21)
(-0.042952948 0.083754331 -1.3813092e-20)
(-0.039606505 0.087719577 2.8638348e-20)
(-0.034737626 0.092741171 3.4323189e-20)
(-0.027864828 0.098654001 1.0423467e-20)
(-0.018234705 0.10499637 2.74861e-20)
(-0.0044806154 0.11048231 -8.8555839e-22)
(0.016460313 0.11275725 -1.4226898e-20)
(0.0489874 0.1079211 -7.6634301e-20)
(0.098308694 0.086189223 4.0732887e-20)
(0.18261532 0.022584671 -1.930365e-20)
(0.34575388 -0.11779163 5.5171272e-20)
(0.57473266 -0.30980591 -8.3656806e-20)
(0.73206838 -0.44694381 3.6009114e-20)
(0.76648602 -0.44311924 -5.1592171e-21)
(0.72996634 -0.33837576 4.8299878e-22)
(0.63933761 -0.2121655 7.3861179e-22)
(0.54012678 -0.076266864 6.9730071e-21)
(0.52986959 0.088315799 -1.1392782e-20)
(0.66173442 0.21275119 7.8094452e-21)
(-0.00011804764 0.00041204897 5.3621561e-21)
(-0.00036632329 0.0012779572 3.6889e-21)
(-0.00064154884 0.0022368096 -5.7904396e-21)
(-0.00094652831 0.0032980117 1.523893e-22)
(-0.0012843025 0.0044717295 5.2336189e-21)
(-0.0016581637 0.0057688856 2.7359547e-21)
(-0.0020716529 0.0072011336 -5.7654732e-21)
(-0.0025285501 0.0087808084 9.4630951e-22)
(-0.0030328624 0.010520844 -1.3339811e-20)
(-0.0035888001 0.012434649 2.5989767e-21)
(-0.0042007435 0.014535933 6.6708177e-23)
(-0.0048731942 0.016838466 -9.5499046e-21)
(-0.0056107122 0.01935576 3.0583712e-20)
(-0.0064178322 0.022100654 -1.4240608e-20)
(-0.0072989582 0.025084775 -2.5491204e-20)
(-0.008258233 0.028317865 2.7136473e-20)
(-0.0092993775 0.031806924 -3.3380808e-21)
(-0.010425499 0.035555159 1.8923104e-20)
(-0.011638862 0.039560689 1.4029725e-20)
(-0.012940625 0.043814992 -4.4043862e-20)
(-0.014330535 0.048301043 3.2985054e-20)
(-0.015806585 0.052991165 -4.3301411e-20)
(-0.017364638 0.057844584 5.0701881e-21)
(-0.018998019 0.06280477 -2.0647646e-20)
(-0.0206971 0.06779673 4.4700913e-20)
(-0.022448903 0.072724527 -1.0549226e-20)
(-0.024236769 0.077469571 -2.650882e-20)
(-0.026040214 0.081890551 6.3731792e-20)
(-0.027835165 0.085826484 -2.7526047e-20)
(-0.029594915 0.08910517 -2.9476495e-20)
(-0.031292398 0.091560239 2.4179497e-20)
(-0.032903677 0.093059907 3.2199055e-21)
(-0.034415181 0.093546745 -1.5889618e-20)
(-0.035823274 0.093072096 8.6412452e-21)
(-0.037132186 0.091813604 -1.2998826e-20)
(-0.038350595 0.090030578 4.4567532e-20)
(-0.039477746 0.087985328 -2.283447e-20)
(-0.040495083 0.085891353 -1.3389755e-20)
(-0.041366249 0.083896679 -2.6934438e-20)
(-0.042037661 0.082105502 -3.6521348e-21)
(-0.042440502 0.080604993 2.7824539e-20)
(-0.042490185 0.079486532 -1.1175903e-20)
(-0.042084336 0.078857891 -1.6516377e-20)
(-0.041094116 0.078845234 -2.4765533e-21)
(-0.039360145 0.079577182 1.6761336e-20)
(-0.036661254 0.081181267 1.503674e-20)
(-0.032728394 0.083768432 -4.671391e-20)
(-0.027169683 0.087402454 -2.5296405e-20)
(-0.019469936 0.092092898 -5.6292048e-20)
(-0.0089693022 0.097643243 -2.0265839e-20)
(0.0056398724 0.10353278 -8.1812359e-21)
(0.026978945 0.10837179 -6.3994298e-20)
(0.059444011 0.10972318 -2.6779782e-20)
(0.10740383 0.10357831 9.2951845e-20)
(0.17852762 0.078860168 -8.1257599e-20)
(0.30037742 0.006803846 7.9589763e-20)
(0.5162414 -0.1392435 -3.84e-20)
(0.76006147 -0.31856499 1.6360919e-19)
(0.8866525 -0.42862093 5.7778682e-20)
(0.87819238 -0.41317511 -1.0434642e-20)
(0.81420951 -0.30628858 -4.3979959e-21)
(0.75107624 -0.16625932 4.2098712e-21)
(0.68489397 -0.029706433 1.2813265e-21)
(0.6753609 0.098876631 1.6979168e-21)
(0.79983846 0.18986286 -1.1000299e-20)
(-0.00013203481 0.00041051166 9.7509395e-23)
(-0.00040961036 0.0012734497 -6.9412196e-21)
(-0.00071709541 0.0022292484 8.1814135e-21)
(-0.0010575089 0.0032872394 3.9361968e-21)
(-0.0014341164 0.0044575127 -7.8817877e-21)
(-0.001850432 0.0057509201 -2.5519914e-21)
(-0.0023102123 0.0071790562 1.2371661e-20)
(-0.0028174436 0.0087542179 -1.3306596e-20)
(-0.0033763204 0.010489333 -2.8051983e-21)
(-0.0039912134 0.012397853 -1.1150159e-20)
(-0.0046666229 0.014493594 2.9580715e-20)
(-0.0054071168 0.016790519 3.5937033e-22)
(-0.0062172488 0.019302451 -2.6494658e-20)
(-0.0071014535 0.022042678 2.8391275e-20)
(-0.008063915 0.025023462 -2.0282183e-20)
(-0.0091084053 0.028255393 -7.5022556e-21)
(-0.010238087 0.031746579 1.5631197e-20)
(-0.011455277 0.035501634 -1.4060023e-20)
(-0.01276117 0.03952042 -1.8655192e-20)
(-0.014155516 0.043796515 3.9543733e-22)
(-0.015636248 0.048315368 2.9177122e-20)
(-0.017199071 0.053052117 -1.7961972e-20)
(-0.018837008 0.057969079 9.9654333e-21)
(-0.020539916 0.063012957 4.7923241e-20)
(-0.022294004 0.0681119 1.5953834e-20)
(-0.024081381 0.073172686 -4.3108193e-20)
(-0.025879716 0.078078515 4.290635e-21)
(-0.027662139 0.082688271 -4.8261548e-20)
(-0.029397621 0.086838686 2.8455564e-20)
(-0.031052209 0.090351671 -1.5000417e-20)
(-0.032591992 0.093050098 2.168149e-20)
(-0.033986038 0.094785713 5.2790096e-21)
(-0.035220715 0.095483039 -2.6292612e-20)
(-0.036282287 0.095158791 2.6838184e-20)
(-0.037179821 0.093964911 3.8938384e-20)
(-0.037932034 0.092168818 -3.6338249e-21)
(-0.038543061 0.09003966 -4.036275e-20)
(-0.038995606 0.087810899 5.056376e-20)
(-0.039251654 0.085645571 -1.0669943e-20)
(-0.039250499 0.083656763 2.2575e-20)
(-0.03891164 0.081934348 -3.5072124e-21)
(-0.038133365 0.080568625 3.4996612e-20)
(-0.03678882 0.07966408 1.6865637e-20)
(-0.034715754 0.079342916 2.1477434e-20)
(-0.031701294 0.07972898 -8.8225109e-20)
(-0.027464296 0.080945591 -2.9614433e-20)
(-0.021631552 0.083100489 4.0124846e-20)
(-0.013677441 0.086253471 -3.3486432e-20)
(-0.0029811014 0.090402473 -2.8846142e-20)
(0.011480325 0.09528169 3.3462915e-20)
(0.032119928 0.10018642 1.8166836e-20)
(0.062936795 0.10359992 4.4492929e-20)
(0.10858273 0.10330672 2.2887822e-20)
(0.17235453 0.094954173 -7.9723357e-20)
(0.26854989 0.064859238 -4.7863048e-20)
(0.43766163 -0.016978984 -7.7939504e-21)
(0.69982712 -0.16200385 1.9794597e-21)