/*--------------------------------*- C++ -*----------------------------------*\
  =========                 |
  \\      /  F ield         | OpenFOAM: The Open Source CFD Toolbox
   \\    /   O peration     | Website:  https://openfoam.org
    \\  /    A nd           | Version:  13
     \\/     M anipulation  |
\*---------------------------------------------------------------------------*/
FoamFile
{
    format      ascii;
    class       volScalarField;
    location    "37.797061";
    object      pMean;
}
// * * * * * * * * * * * * * * * * * * * * * * * * * * * * * * * * * * * * * //

dimensions      [0 2 -2 0 0 0 0];

internalField   nonuniform List<scalar> 
17140
(
1.0934383
1.0933568
1.0932584
1.0931583
1.0930502
1.0929325
1.0928053
1.0926682
1.0925211
1.0923637
1.0921958
1.0920173
1.0918279
1.0916266
1.0914124
1.0911826
1.0909334
1.0906584
1.090348
1.0899881
1.0895586
1.0890314
1.0883681
1.0875157
1.0864129
1.0850082
1.0832693
1.0811597
1.0786141
1.0755476
1.0718664
1.0674656
1.0622301
1.0560376
1.0487619
1.0402769
1.0304642
1.0192218
1.006479
0.99221791
0.97649845
0.95949064
0.94151943
0.92309437
0.9049403
0.88799408
0.8732044
0.8615292
0.85392358
0.85116743
0.85378927
0.86209944
0.87624078
0.8959196
0.92076105
0.94962104
0.98183517
1.0152139
1.0501883
1.0824892
1.1159106
1.1410681
1.1710674
1.1829202
1.2071486
1.0921297
1.0920497
1.0919533
1.0918551
1.0917491
1.0916337
1.0915088
1.0913743
1.0912299
1.0910754
1.0909107
1.0907356
1.0905498
1.0903526
1.0901427
1.0899178
1.0896741
1.0894053
1.089102
1.0887502
1.08833
1.0878136
1.0871626
1.0863248
1.0852383
1.0838506
1.0821294
1.0800388
1.0775132
1.0744672
1.0708069
1.0664268
1.0612115
1.0550381
1.0477795
1.0393091
1.0295073
1.0182712
1.0055292
0.99126189
0.97552826
0.95849756
0.94049364
0.92202859
0.90383728
0.88683531
0.87198589
0.86028319
0.85265606
0.84986755
0.85246336
0.8607552
0.8748664
0.89451817
0.91933781
0.94818068
0.98040813
1.0138481
1.0489362
1.0813531
1.1148603
1.1399029
1.1695512
1.1809239
1.2053473
1.088928
1.088852
1.0887604
1.0886669
1.0885659
1.0884559
1.0883368
1.0882085
1.0880707
1.0879233
1.0877663
1.0875994
1.0874225
1.087235
1.0870358
1.0868227
1.0865922
1.0863384
1.0860521
1.0857197
1.0853219
1.0848314
1.0842105
1.0834079
1.082361
1.0810148
1.0793362
1.0772896
1.0748104
1.0718129
1.0682019
1.0638715
1.0587048
1.0525777
1.0453611
1.0369266
1.0271524
1.0159331
1.0031945
0.98891493
0.97315098
0.95607128
0.93800033
0.91945952
0.90119206
0.88409506
0.86914903
0.85736758
0.84968547
0.84685802
0.84940885
0.8576373
0.87167494
0.89124954
0.91598155
0.94473853
0.97690009
1.0103132
1.0454448
1.077979
1.1116055
1.1366595
1.1661651
1.1774105
1.2024167
1.0838939
1.0838241
1.0837403
1.0836542
1.0835611
1.0834596
1.0833498
1.0832313
1.0831041
1.082968
1.082823
1.0826692
1.0825063
1.0823341
1.0821515
1.0819569
1.081747
1.0815164
1.0812565
1.0809544
1.0805913
1.0801408
1.0795664
1.0788184
1.0778334
1.0765531
1.0749411
1.0729624
1.0705552
1.0676334
1.0640999
1.0598477
1.0547584
1.0487054
1.0415571
1.0331819
1.0234548
1.0122666
0.99953948
0.98524769
0.96944518
0.95229984
0.93413815
0.91549473
0.89712024
0.87989583
0.86483059
0.85294979
0.84519521
0.84231512
0.84481141
0.85295899
0.86688451
0.88632373
0.9108982
0.93946719
0.97144092
1.004727
1.0398229
1.0724411
1.1062048
1.1315103
1.1612015
1.1728142
1.1986255
1.0771897
1.0771283
1.077055
1.0769789
1.0768965
1.0768067
1.0767092
1.0766041
1.0764911
1.0763703
1.0762417
1.0761053
1.0759613
1.0758094
1.0756491
1.075479
1.0752962
1.0750961
1.0748707
1.0746079
1.0742901
1.0738918
1.073378
1.072701
1.071798
1.0706064
1.0690834
1.0671943
1.0648821
1.0620611
1.0586314
1.0544845
1.0495001
1.0435487
1.0364954
1.0282047
1.0185471
1.0074088
0.99470693
0.98041109
0.96457177
0.9473561
0.92909555
0.91034096
0.89184142
0.87448189
0.85929565
0.84731464
0.83949732
0.83657544
0.83902314
0.84708665
0.86088773
0.88016415
0.90453217
0.93284756
0.96457621
0.99768077
1.0327165
1.0654693
1.0994322
1.1251456
1.155299
1.1675846
1.1943647
1.0690842
1.0690332
1.0689727
1.0689091
1.0688399
1.0687643
1.0686823
1.0685936
1.0684983
1.0683963
1.0682877
1.0681729
1.0680519
1.0679248
1.0677914
1.0676506
1.0675002
1.0673362
1.0671515
1.066935
1.0666701
1.0663329
1.0658901
1.0652962
1.0644915
1.0634081
1.061993
1.0602113
1.0580132
1.0553137
1.0520103
1.0479927
1.0431383
1.0373143
1.0303822
1.0222017
1.0126384
1.0015729
0.98891636
0.9746326
0.95876825
0.94149001
0.92313714
0.90427725
0.88565426
0.86817446
0.85288106
0.84081558
0.83295358
0.83001463
0.83243889
0.84044016
0.85412891
0.87323626
0.89736945
0.92537813
0.95679458
0.98969258
1.0246867
1.0576408
1.0919184
1.1183223
1.1491383
1.1623425
1.1901452
1.0599416
1.0599024
1.059856
1.0598067
1.0597529
1.059694
1.0596298
1.0595603
1.0594854
1.0594052
1.05932
1.0592299
1.0591353
1.0590366
1.0589336
1.0588257
1.0587114
1.0585872
1.0584469
1.0582806
1.058073
1.0578018
1.0574356
1.0569316
1.0562334
1.0552714
1.0539816
1.0523227
1.0502505
1.0476862
1.0445264
1.040657
1.0359533
1.0302794
1.0234925
1.0154479
1.0060054
0.99503934
0.98245409
0.96820728
0.95234139
0.93502339
0.91660313
0.89766004
0.87893989
0.86136966
0.8459883
0.83385503
0.82596535
0.82303072
0.82545824
0.83342922
0.84703895
0.86601194
0.88993691
0.91766333
0.94877877
0.98150279
1.0165205
1.0498093
1.0845681
1.1118709
1.1434017
1.1575501
1.185999
1.0502029
1.0501767
1.0501454
1.0501119
1.0500751
1.0500346
1.0499902
1.0499418
1.0498896
1.0498336
1.049774
1.0497112
1.0496455
1.0495775
1.0495072
1.0494344
1.0493579
1.0492749
1.0491802
1.0490648
1.0489149
1.0487098
1.0484203
1.0480063
1.047415
1.04658
1.0454282
1.0439022
1.0419605
1.0395379
1.0365313
1.0328225
1.0282847
1.0227788
1.0161584
1.0082737
0.99897895
0.98814183
0.97565958
0.96148331
0.94565127
0.92833218
0.90988804
0.89090004
0.87212598
0.85450232
0.83905234
0.82685829
0.81894529
0.81603045
0.81848914
0.82646095
0.84003265
0.85891856
0.88268966
0.91020718
0.94111632
0.97376448
1.0089014
1.0426326
1.0780272
1.1063659
1.1385369
1.1535666
1.1824309
1.0403596
1.0403469
1.0403315
1.0403146
1.0402958
1.0402747
1.0402512
1.0402253
1.0401971
1.0401667
1.0401343
1.0401002
1.0400649
1.0400289
1.0399923
1.0399552
1.0399166
1.0398742
1.0398235
1.0397567
1.039661
1.0395176
1.0392995
1.0389692
1.0384776
1.0377623
1.03675
1.0353676
1.0335595
1.0312733
1.02842
1.0248767
1.0205122
1.0151862
1.0087487
1.0010456
0.99192547
0.98124946
0.96890784
0.9548454
0.93909671
0.92183292
0.90342685
0.88445571
0.86569249
0.84806423
0.83257329
0.82033149
0.81240512
0.80951692
0.81200938
0.82000336
0.83358082
0.85242819
0.87610212
0.90348291
0.9342933
0.96699249
1.0024047
1.0369327
1.0732385
1.1025782
1.1352038
1.1507689
1.1791848
1.0309183
1.0309191
1.0309197
1.0309196
1.0309188
1.0309174
1.0309151
1.0309121
1.0309083
1.0309039
1.0308991
1.0308943
1.0308897
1.0308857
1.0308827
1.0308806
1.0308785
1.0308744
1.0308643
1.0308411
1.0307933
1.0307035
1.0305465
1.030288
1.029882
1.0292702
1.0283827
1.0271428
1.0254767
1.0233208
1.0206045
1.0172213
1.0130337
1.0078947
1.0016521
0.99414892
0.98522921
0.97474903
0.96259272
0.9486999
0.93310264
0.91597497
0.89769408
0.87883483
0.86017607
0.84261784
0.82714901
0.81491153
0.80699828
0.80413465
0.80666863
0.81471636
0.82832396
0.84715515
0.87076997
0.89811466
0.92898383
0.96203965
0.99811811
1.0335249
1.0704795
1.1004988
1.1328938
1.1486143
1.1763569
1.0223588
1.0223725
1.0223882
1.0224042
1.0224208
1.0224383
1.0224565
1.0224756
1.0224956
1.0225166
1.0225388
1.0225624
1.0225877
1.0226149
1.0226441
1.0226751
1.0227071
1.022738
1.022764
1.0227783
1.0227704
1.0227239
1.0226157
1.0224134
1.0220747
1.021545
1.0207582
1.0196387
1.0181082
1.0160905
1.0135063
1.0102604
1.006233
1.0012795
0.99524051
0.98795559
0.97926603
0.9690239
0.95711015
0.94346138
0.92810908
0.91123004
0.89319244
0.87457622
0.85615758
0.83879774
0.82347798
0.81134116
0.80348709
0.80067344
0.80323652
0.8112715
0.82485989
0.84366752
0.8672689
0.89468546
0.92577301
0.95933095
0.99601428
1.0320749
1.0693218
1.0994798
1.1316029
1.1475631
1.1740168
1.01509
1.0151152
1.0151444
1.0151748
1.0152071
1.0152417
1.0152787
1.015318
1.0153599
1.0154044
1.0154516
1.0155018
1.015555
1.0156112
1.0156705
1.0157322
1.0157952
1.0158574
1.0159147
1.0159607
1.0159849
1.0159721
1.0159001
1.0157388
1.0154483
1.0149779
1.0142655
1.013238
1.0118164
1.0099203
1.0074657
1.0043587
1.0004842
0.99570616
0.98987172
0.98282101
0.97439411
0.96444194
0.95284302
0.93953339
0.92454461
0.90805362
0.89042052
0.87222241
0.85420836
0.83721519
0.82220867
0.81029875
0.80258634
0.79976967
0.8022341
0.81013825
0.82360393
0.8423201
0.86589023
0.89340695
0.92479572
0.95887845
0.9961202
1.0325969
1.0698569
1.1000718
1.1312619
1.1472612
1.1721965
1.0094062
1.0094408
1.0094811
1.0095233
1.0095686
1.0096176
1.0096703
1.0097268
1.0097874
1.0098522
1.0099212
1.0099947
1.0100725
1.0101546
1.0102407
1.0103299
1.0104209
1.0105111
1.0105962
1.0106696
1.0107211
1.0107356
1.0106918
1.010561
1.0103052
1.0098767
1.0092172
1.008259
1.0069233
1.0051253
1.0027841
0.99980779
0.99608488
0.99148837
0.98587127
0.97907815
0.9709517
0.9613466
0.95014825
0.93728982
0.92280249
0.90685904
0.88981521
0.87222749
0.85480225
0.83834907
0.82381498
0.81226918
0.804676
0.80177798
0.80403608
0.81171903
0.8249661
0.84352365
0.86704586
0.89466873
0.92649615
0.96111825
0.99880873
1.0352869
1.0720876
1.1014265
1.1317231
1.1473547
1.170598
1.0054543
1.0054953
1.0055435
1.0055942
1.005649
1.0057085
1.0057729
1.0058424
1.0059173
1.0059978
1.0060841
1.0061761
1.006274
1.0063775
1.0064861
1.0065989
1.0067143
1.0068293
1.0069396
1.0070383
1.0071152
1.0071555
1.0071383
1.0070356
1.0068108
1.0064179
1.0058015
1.0048968
1.0036316
1.0019293
0.99967643
0.99682239
0.99325696
0.98885094
0.98346942
0.97696825
0.96920077
0.96002599
0.9493218
0.93703549
0.92319875
0.90797425
0.89170067
0.87489913
0.8582376
0.84248443
0.8285555
0.81737042
0.80987257
0.80685451
0.80884077
0.81620493
0.82916818
0.84754358
0.87096881
0.89879994
0.93090122
0.96603995
1.003634
1.0397264
1.0752437
1.1039099
1.1324686
1.1475521
1.1693206
1.0032066
1.003251
1.0033035
1.0033587
1.0034187
1.0034843
1.0035556
1.003633
1.0037168
1.0038073
1.0039049
1.0040096
1.0041216
1.0042406
1.0043663
1.0044976
1.0046329
1.0047694
1.0049027
1.005026
1.0051293
1.0051983
1.0052126
1.0051452
1.0049602
1.0046129
1.0040494
1.0032077
1.0020167
1.0004029
0.99831319
0.99559128
0.99214018
0.98794769
0.98283806
0.97667592
0.9693198
0.96063987
0.95053298
0.93895119
0.92591427
0.91157391
0.89623686
0.88037594
0.86461281
0.84967764
0.83634624
0.8255024
0.8180928
0.81488965
0.8165565
0.82357309
0.83623752
0.85436881
0.87768445
0.90561951
0.93816031
0.97328547
1.0103618
1.045338
1.0795739
1.1065474
1.133566
1.1478508
1.1682578
1.0024887
1.0025333
1.0025864
1.0026422
1.002703
1.0027697
1.0028427
1.0029224
1.0030092
1.0031035
1.0032057
1.0033162
1.0034351
1.0035626
1.0036983
1.0038415
1.0039909
1.004144
1.0042969
1.0044434
1.0045744
1.0046766
1.0047311
1.0047119
1.0045848
1.0043063
1.0038234
1.0030742
1.0019892
1.0004953
0.99851955
0.99594881
0.99276396
0.98879868
0.98395885
0.97818081
0.97131095
0.96322964
0.95384477
0.94309338
0.93099797
0.91768651
0.90342016
0.88862002
0.87384496
0.85971675
0.84695764
0.83644214
0.82905104
0.82565963
0.8270128
0.83370077
0.84604847
0.86384618
0.88708671
0.91530983
0.94780293
0.98237861
1.0184105
1.0519294
1.0841098
1.1095228
1.1347734
1.1483472
1.1675753
1.0029813
1.0030232
1.0030735
1.0031262
1.0031837
1.0032472
1.003317
1.0033936
1.0034775
1.0035693
1.0036694
1.0037785
1.0038969
1.0040249
1.0041626
1.0043097
1.0044654
1.0046279
1.0047942
1.0049595
1.0051159
1.0052522
1.0053519
1.0053917
1.00534
1.0051558
1.0047867
1.0041711
1.0032398
1.0019187
1.0001277
0.99781325
0.99487223
0.99121256
0.98680188
0.98146428
0.97514854
0.96776062
0.95919723
0.94939688
0.93836661
0.92619732
0.91310439
0.89943653
0.88564447
0.87229763
0.86008819
0.8498153
0.84243635
0.83886501
0.83994863
0.84633246
0.8582386
0.87585617
0.89919034
0.92731579
0.95917419
0.99304286
1.0273194
1.0588536
1.0889625
1.1125202
1.1362482
1.1491116
1.1672865
1.0043233
1.0043602
1.0044049
1.0044514
1.0045025
1.0045591
1.0046216
1.0046906
1.0047666
1.0048504
1.0049424
1.0050434
1.005154
1.0052749
1.0054064
1.0055487
1.0057017
1.0058646
1.0060357
1.0062115
1.0063868
1.006553
1.006697
1.0068002
1.0068362
1.0067685
1.0065502
1.0061229
1.0054175
1.0043581
1.0028625
1.0008593
0.99827204
0.99503971
0.99105772
0.98630184
0.98070117
0.97408921
0.96644173
0.95769536
0.94782759
0.9368902
0.92502999
0.91249754
0.8996739
0.88707691
0.87533214
0.86527651
0.85790186
0.85419614
0.85502272
0.86099654
0.87269436
0.89029317
0.91342023
0.94094035
0.97228331
1.0043682
1.0366061
1.0659416
1.0937351
1.1157702
1.1380334
1.1502009
1.1674505
1.0061306
1.0061611
1.0061981
1.0062367
1.0062792
1.0063265
1.0063791
1.0064374
1.0065021
1.0065738
1.0066532
1.0067411
1.0068382
1.0069454
1.0070634
1.0071929
1.0073343
1.0074878
1.0076528
1.0078279
1.00801
1.0081938
1.0083707
1.0085275
1.0086445
1.0086941
1.0086376
1.0084244
1.0079918
1.0072658
1.0061647
1.0046076
1.0025128
0.99982224
0.99646974
0.9924025
0.98754153
0.98186964
0.97529733
0.96771271
0.95909953
0.94945439
0.93884513
0.9274449
0.9155589
0.90363298
0.89230724
0.88242375
0.87507218
0.87117154
0.87171915
0.87746785
0.88912021
0.90645935
0.9291021
0.95627556
0.98600682
1.0160405
1.0459681
1.0728186
1.098745
1.1192498
1.1401805
1.1516483
1.1680692
1.0080915
1.0081151
1.0081437
1.0081737
1.0082069
1.0082441
1.0082856
1.0083319
1.0083835
1.0084411
1.0085055
1.0085773
1.0086573
1.0087466
1.008846
1.0089565
1.0090791
1.0092145
1.0093632
1.0095252
1.0096996
1.0098842
1.0100745
1.010263
1.0104377
1.0105801
1.0106639
1.010652
1.0104952
1.0101315
1.0094872
1.0084815
1.007032
1.0050634
1.0025085
0.99931522
0.99544275
0.9908523
0.98543315
0.97911752
0.97183444
0.96351745
0.95417102
0.94387361
0.9328526
0.92153389
0.91054665
0.90083476
0.89337443
0.88930762
0.88966667
0.89541681
0.90689074
0.92387605
0.94637824
0.97229151
0.99987438
1.027665
1.0549671
1.0798477
1.1039128
1.1230171
1.1427064
1.1534813
1.169165
1.0099709
1.0099879
1.0100085
1.0100304
1.0100548
1.0100822
1.010113
1.0101475
1.0101862
1.0102297
1.0102787
1.0103337
1.0103957
1.0104655
1.0105441
1.0106325
1.010732
1.0108437
1.0109688
1.0111082
1.0112625
1.0114317
1.0116147
1.0118087
1.0120085
1.0122048
1.0123832
1.0125224
1.0125923
1.0125517
1.0123472
1.0119141
1.0111795
1.0100672
1.0085044
1.0064213
1.0037446
1.0004105
0.99633863
0.99143488
0.98556971
0.97862815
0.97053026
0.96127215
0.95103503
0.9402145
0.92950262
0.91980326
0.91226422
0.90812043
0.90854331
0.91430113
0.9255652
0.94266511
0.96431269
0.98811322
1.0136586
1.0388569
1.0640203
1.0869102
1.1093127
1.1270906
1.1456289
1.1557123
1.1707333
1.0116499
1.0116615
1.0116754
1.0116904
1.0117071
1.0117261
1.0117474
1.0117715
1.0117987
1.0118295
1.0118643
1.011904
1.011949
1.0120004
1.0120587
1.012125
1.0122004
1.0122862
1.0123836
1.012494
1.0126189
1.01276
1.0129182
1.0130939
1.0132866
1.0134942
1.0137128
1.0139349
1.0141489
1.0143374
1.0144747
1.0145259
1.0144457
1.0141771
1.0136518
1.0127908
1.011503
1.0096814
1.0071955
1.0038929
0.99958608
0.99407983
0.98721658
0.97893069
0.96936242
0.95891832
0.94831069
0.9386242
0.93107833
0.92709913
0.92776937
0.9335706
0.94532185
0.96199237
0.9816817
1.003776
1.0268971
1.0498961
1.0729771
1.0941072
1.1149543
1.13148
1.1489577
1.1583612
1.1727863
1.0130861
1.0130932
1.0131017
1.013111
1.0131215
1.0131333
1.0131468
1.013162
1.0131793
1.0131991
1.0132219
1.0132479
1.0132772
1.0133102
1.0133482
1.0133924
1.0134442
1.013505
1.0135759
1.013658
1.0137518
1.0138588
1.0139819
1.0141241
1.0142879
1.0144763
1.0146923
1.0149386
1.0152181
1.0155329
1.0158834
1.0162688
1.016682
1.017105
1.0175015
1.0178076
1.0179214
1.0176918
1.0169248
1.0153804
1.012757
1.0087634
1.0031363
0.99579608
0.98679036
0.97660799
0.96612471
0.95648317
0.94919053
0.94578863
0.94683209
0.95361302
0.96542364
0.98071609
0.99873382
1.0188311
1.039692
1.0606947
1.0819541
1.1014417
1.120854
1.1362021
1.1526912
1.1614299
1.1753219
1.0143351
1.0143383
1.0143423
1.0143466
1.0143515
1.0143571
1.0143635
1.014371
1.0143797
1.0143898
1.0144015
1.0144149
1.0144305
1.014449
1.0144713
1.0144982
1.0145298
1.0145665
1.0146095
1.0146611
1.0147232
1.0147968
1.0148835
1.0149863
1.0151097
1.0152609
1.0154479
1.0156791
1.0159655
1.0163228
1.0167703
1.0173355
1.0180454
1.0189188
1.0199668
1.0211704
1.0224488
1.0236434
1.0245017
1.0246634
1.0237198
1.0212372
1.0168783
1.0103997
1.00194
0.99209069
0.98175984
0.97268479
0.96655593
0.9639596
0.96647461
0.97377828
0.98463189
0.99855238
1.015276
1.0329788
1.0521054
1.0713582
1.0909447
1.1089294
1.1270156
1.1412565
1.156833
1.1649221
1.178332
1.0154417
1.0154407
1.0154396
1.0154384
1.0154371
1.0154359
1.015435
1.0154344
1.0154342
1.0154345
1.0154355
1.015438
1.015442
1.0154457
1.0154485
1.0154521
1.0154583
1.0154691
1.015487
1.0155136
1.015549
1.015593
1.0156464
1.0157143
1.0158029
1.015919
1.0160725
1.0162769
1.0165497
1.0169129
1.0173957
1.0180384
1.0188875
1.0199924
1.021405
1.02314
1.0251587
1.0273171
1.0293707
1.0309085
1.0314111
1.0302944
1.0270853
1.0215028
1.0136669
1.0044452
0.99530806
0.98810935
0.98315413
0.98242409
0.98590709
0.99272662
1.00274
1.0156265
1.0304008
1.0467208
1.0642406
1.0818933
1.0999772
1.1165776
1.1334427
1.1466468
1.161378
1.1688369
1.1818184
1.0164364
1.0164303
1.0164232
1.0164157
1.0164076
1.0163988
1.0163893
1.0163792
1.0163687
1.0163578
1.0163464
1.0163346
1.0163226
1.0163103
1.0162982
1.0162868
1.016277
1.0162703
1.0162674
1.01627
1.0162814
1.0163032
1.0163353
1.0163812
1.0164472
1.0165399
1.0166685
1.0168475
1.0170979
1.0174462
1.0179228
1.0185679
1.0194359
1.0205909
1.0221017
1.0240157
1.026351
1.029009
1.0317521
1.0341831
1.0356838
1.035598
1.0333213
1.0285977
1.0221091
1.0148122
1.0079998
1.0022661
0.9995011
1.0001937
1.0035369
1.0103843
1.0198095
1.0314405
1.0450779
1.0599958
1.0760937
1.0923361
1.1090586
1.1243926
1.1401362
1.1523713
1.1663223
1.1731738
1.1857739
1.0171059
1.0170949
1.017082
1.0170684
1.0170536
1.0170371
1.0170186
1.0169988
1.0169786
1.0169584
1.0169373
1.0169153
1.0168924
1.0168688
1.0168444
1.0168196
1.0167947
1.0167706
1.0167485
1.0167309
1.0167209
1.0167214
1.016734
1.0167601
1.0168064
1.0168843
1.0170027
1.01717
1.017403
1.0177322
1.0181924
1.0188184
1.0196658
1.0207986
1.0222936
1.0242206
1.0265822
1.0293423
1.0322805
1.0350087
1.0369424
1.0374984
1.0363329
1.0333502
1.0290135
1.0240456
1.0191762
1.0157876
1.015083
1.0160842
1.0201363
1.0267428
1.0357258
1.0464989
1.0590783
1.0728583
1.0877302
1.1027058
1.1182036
1.1323807
1.147096
1.1584281
1.1716583
1.1779256
1.190192
1.0172379
1.017224
1.0172077
1.0171904
1.0171717
1.0171514
1.0171293
1.0171054
1.0170797
1.0170523
1.0170232
1.0169928
1.016961
1.0169284
1.0168953
1.0168623
1.0168302
1.0168001
1.0167731
1.0167506
1.0167356
1.0167335
1.0167467
1.0167727
1.0168142
1.0168837
1.0169922
1.0171497
1.0173717
1.0176741
1.0180873
1.0186587
1.0194366
1.0204775
1.0218312
1.02356
1.0257308
1.028314
1.0311696
1.0339865
1.0363764
1.0379098
1.0381525
1.0370251
1.0349149
1.0320857
1.0294695
1.0286161
1.0288125
1.0310019
1.0356968
1.0421484
1.0506568
1.0608311
1.0725971
1.0853857
1.099175
1.1130264
1.1274241
1.1405472
1.1543203
1.1648144
1.1773812
1.1830979
1.1950666
1.0164871
1.016474
1.0164586
1.0164424
1.0164249
1.0164058
1.0163851
1.0163628
1.016339
1.0163136
1.0162867
1.0162584
1.016229
1.0161988
1.0161682
1.0161378
1.0161084
1.0160807
1.016056
1.0160367
1.0160248
1.0160219
1.0160307
1.0160544
1.0160979
1.0161694
1.016275
1.0164208
1.0166204
1.0169055
1.0172984
1.0178178
1.0185107
1.0194306
1.0206556
1.0222431
1.0242374
1.0266661
1.0294634
1.0324812
1.0354081
1.0378843
1.03955
1.040336
1.0401586
1.0393399
1.0394236
1.0400949
1.0415695
1.0450031
1.0499382
1.0565429
1.0648692
1.0745854
1.085664
1.0976137
1.1104677
1.123321
1.1367324
1.1488966
1.1618094
1.1715274
1.1834833
1.1886807
1.2003794
1.015004
1.0149944
1.0149832
1.0149714
1.0149586
1.0149448
1.0149298
1.0149137
1.0148965
1.0148782
1.014859
1.014839
1.0148184
1.0147975
1.0147769
1.014757
1.0147388
1.0147232
1.0147116
1.0147055
1.0147067
1.0147175
1.0147414
1.0147817
1.0148396
1.0149194
1.0150311
1.0151923
1.0154108
1.0156872
1.0160516
1.0165544
1.0172362
1.0181252
1.0192738
1.0207796
1.0227161
1.0251232
1.0280177
1.0313319
1.0348793
1.0383286
1.0413845
1.043662
1.0450666
1.0467423
1.048652
1.0506245
1.0536978
1.0578942
1.0634161
1.0702477
1.0784578
1.0878338
1.0983678
1.1096053
1.1216447
1.1336132
1.1461415
1.157436
1.1695635
1.1785643
1.1899569
1.1946664
1.2061275
1.0129083
1.0129029
1.0128966
1.01289
1.012883
1.0128754
1.0128673
1.0128588
1.0128499
1.0128407
1.0128315
1.0128223
1.0128135
1.0128055
1.0127988
1.0127942
1.0127926
1.0127954
1.0128039
1.0128199
1.0128459
1.0128846
1.0129366
1.0130054
1.0130935
1.0132108
1.0133772
1.0135899
1.0138604
1.0142161
1.0146612
1.0152208
1.0159445
1.0168829
1.0180967
1.01966
1.0216612
1.0241948
1.0273463
1.0311034
1.0353094
1.0396951
1.0437835
1.0471433
1.0505829
1.0541201
1.0572566
1.0608188
1.0650624
1.0701518
1.0762264
1.0833288
1.0915406
1.1006798
1.1107731
1.1214081
1.1327426
1.1439267
1.1556665
1.1661674
1.1775798
1.1859169
1.196798
1.2010334
1.2123291
1.0104127
1.0104104
1.0104077
1.0104051
1.0104024
1.0103997
1.0103971
1.0103947
1.0103927
1.0103912
1.0103906
1.0103912
1.0103935
1.010398
1.0104056
1.0104173
1.0104342
1.010458
1.0104906
1.0105344
1.0105907
1.0106627
1.0107553
1.0108779
1.0110381
1.011238
1.0114896
1.011799
1.0121701
1.0126262
1.013192
1.0138914
1.0147563
1.0158273
1.017174
1.0188917
1.0211009
1.0239464
1.0275401
1.0318562
1.036774
1.0418975
1.046664
1.0515737
1.0566668
1.0612202
1.0657766
1.0706876
1.0760045
1.0819087
1.0885531
1.0959692
1.1042365
1.1132107
1.1229529
1.133077
1.1437986
1.1542858
1.1653192
1.1750963
1.1858616
1.1935788
1.2040021
1.2077747
1.2189473
1.0074249
1.0074244
1.007424
1.0074238
1.0074239
1.0074245
1.0074257
1.0074278
1.0074309
1.0074355
1.007442
1.0074509
1.0074629
1.0074789
1.0075001
1.0075278
1.0075638
1.0076101
1.0076694
1.0077444
1.0078392
1.0079593
1.0081125
1.0083042
1.0085383
1.0088232
1.0091694
1.009589
1.0100955
1.0107034
1.0114311
1.0122988
1.0133405
1.0146178
1.0162148
1.0182504
1.0208825
1.0242705
1.0284657
1.0334381
1.0390205
1.0445785
1.0505163
1.0568016
1.0627514
1.0685025
1.0743909
1.0803954
1.0866715
1.0933486
1.1005427
1.1082805
1.1166474
1.1255148
1.1349744
1.1446626
1.1548494
1.1647154
1.1751147
1.184231
1.1944115
1.2015441
1.2115623
1.2148862
1.2259637
1.0036844
1.0036857
1.0036875
1.0036898
1.0036929
1.0036969
1.0037022
1.0037089
1.0037177
1.0037288
1.0037431
1.0037612
1.0037842
1.0038133
1.00385
1.0038961
1.003954
1.0040264
1.0041166
1.0042287
1.0043684
1.0045406
1.0047519
1.0050101
1.0053232
1.005702
1.0061579
1.0067035
1.0073519
1.008117
1.0090186
1.0100934
1.0113932
1.0129895
1.0149978
1.0175703
1.0208652
1.0249871
1.0299243
1.0356695
1.0416978
1.0482272
1.0553362
1.0623591
1.0692544
1.0761737
1.0830864
1.0900772
1.0972299
1.1046156
1.1123319
1.1203911
1.1288787
1.1376764
1.1469051
1.1562164
1.1659318
1.1752401
1.1850667
1.1935794
1.2032241
1.2098205
1.219465
1.2223628
1.2333718
0.99878403
0.99878854
0.99879427
0.99880089
0.99880886
0.9988185
0.99883019
0.99884439
0.99886166
0.99888272
0.99890841
0.99893981
0.9989782
0.99902518
0.99908266
0.99915299
0.99923901
0.99934412
0.99947239
0.99962865
0.99981856
1.0000488
1.0003272
1.0006626
1.0010656
1.0015476
1.0021192
1.0027941
1.0035916
1.0045375
1.0056655
1.0070246
1.0086901
1.0107725
1.0134132
1.016762
1.0209296
1.025943
1.0317863
1.0381408
1.0450241
1.0527422
1.0605627
1.0683861
1.0762301
1.0840985
1.0919742
1.0998623
1.1078061
1.1158429
1.1240451
1.1324101
1.141025
1.1497759
1.1588092
1.167788
1.1770818
1.1858847
1.1951901
1.2031462
1.2123033
1.2183943
1.2277018
1.2301914
1.2411456
0.99233157
0.99234148
0.99235371
0.99236741
0.9923833
0.99240192
0.99242377
0.99244947
0.99247978
0.99251563
0.99255815
0.99260869
0.99266889
0.99274073
0.99282656
0.99292921
0.99305203
0.9931991
0.99337521
0.99358572
0.99383726
0.99413795
0.99449595
0.99492046
0.99542222
0.99601509
0.99671736
0.99754983
0.99853932
0.99972431
1.0011609
1.00293
1.0051421
1.0079319
1.0114392
1.0157689
1.020957
1.026996
1.0336872
1.0408966
1.0490336
1.0575041
1.0660387
1.0747906
1.083584
1.092386
1.1011514
1.1098595
1.1185249
1.1271536
1.1357991
1.1444451
1.1531799
1.1618913
1.1707497
1.1794264
1.188335
1.1966735
1.205497
1.2129446
1.2216393
1.2272724
1.2362529
1.2383695
1.2492538
0.98397437
0.98399213
0.98401377
0.98403761
0.98406481
0.98409613
0.98413224
0.98417396
0.98422226
0.98427834
0.98434361
0.98441975
0.98450875
0.98461307
0.98473539
0.98487833
0.98504633
0.98524547
0.98548044
0.985756
0.98607905
0.98645864
0.98690579
0.98743236
0.98805229
0.98878371
0.98965038
0.99068479
0.99193278
0.99345883
0.99535187
0.99772697
1.00072
1.0044636
1.0090592
1.0145409
1.0208993
1.0279817
1.0356303
1.0441905
1.0532766
1.062523
1.0720527
1.0817255
1.091438
1.1011214
1.1107173
1.1201803
1.1295004
1.1386614
1.147702
1.1565946
1.1654296
1.1740961
1.1827861
1.1911777
1.1997249
1.2076306
1.2160047
1.2229768
1.2312394
1.2364504
1.2451102
1.2468556
1.257723
0.97334523
0.97337333
0.97340729
0.9734444
0.97348637
0.97353423
0.97358879
0.97365104
0.97372209
0.97380309
0.9738952
0.97400027
0.97412405
0.97427069
0.97443801
0.97462872
0.97485025
0.97510807
0.97540821
0.97575782
0.97616489
0.97663903
0.9771929
0.97784251
0.97860856
0.97951912
0.98061301
0.98194426
0.98358735
0.98564133
0.98822934
0.99148968
0.99555535
1.0005185
1.0064217
1.013233
1.0208304
1.0290364
1.0381334
1.0478432
1.0578118
1.0681118
1.0786275
1.0892485
1.0998724
1.1104094
1.1207868
1.1309426
1.1408511
1.1504809
1.1598605
1.1689547
1.1778575
1.1864602
1.1949745
1.2030867
1.2112847
1.2187774
1.2267216
1.2332521
1.2411028
1.2459449
1.2542705
1.2558278
1.2664213
0.96029447
0.96033576
0.96038245
0.96043039
0.96048379
0.96054821
0.96062895
0.96072319
0.96082383
0.96093297
0.96105718
0.96119972
0.96136308
0.96155045
0.96176559
0.96201261
0.96229622
0.96262223
0.96299773
0.96343157
0.96393502
0.96452234
0.96521201
0.96602881
0.9670066
0.968192
0.96964875
0.971462
0.97374045
0.97661421
0.98022212
0.98469414
0.99011742
0.99652835
1.003908
1.0120938
1.0209424
1.0306855
1.0411148
1.0518623
1.0629855
1.0743832
1.0859308
1.097519
1.1090395
1.1203925
1.1314963
1.1422786
1.152704
1.1627318
1.1723854
1.181626
1.190552
1.1990589
1.2073767
1.2152007
1.2230478
1.2301383
1.2376609
1.2437698
1.2512102
1.2557112
1.263676
1.2649176
1.2752639
0.94479872
0.94485535
0.9449145
0.94497508
0.94504599
0.94512778
0.94522104
0.94532869
0.945454
0.94559925
0.94576741
0.94596146
0.94618156
0.94642641
0.9466971
0.94699992
0.94734418
0.94773844
0.94819147
0.94871462
0.94932282
0.95003596
0.95088114
0.95189574
0.95313139
0.95465875
0.95657209
0.9589919
0.96206264
0.96594223
0.97077637
0.97668064
0.98369245
0.99179837
1.0008032
1.0106104
1.0212969
1.0326943
1.0444143
1.0565049
1.0688891
1.0814416
1.0940553
1.1066163
1.1190142
1.1311435
1.1429177
1.1542596
1.1651294
1.1754823
1.1853412
1.194667
1.2035646
1.2119365
1.2200281
1.2275472
1.2350329
1.2417226
1.2488268
1.2545383
1.2615753
1.2658423
1.2734568
1.2750013
1.2856869
0.92649692
0.92656499
0.92664928
0.92674076
0.92684245
0.92695629
0.92708331
0.92722458
0.92738179
0.92755751
0.92775453
0.92797575
0.92822459
0.92850523
0.92882276
0.9291835
0.92959539
0.93006858
0.93061632
0.93125623
0.93201211
0.93291636
0.93401325
0.93536287
0.93704555
0.93916581
0.941854
0.94526301
0.94955743
0.95489076
0.96137904
0.96908335
0.97793692
0.98786611
0.99873628
1.0105552
1.0230813
1.0359189
1.0491263
1.0626352
1.0763177
1.0900689
1.1037727
1.1173098
1.1305651
1.1434311
1.1558191
1.1676517
1.1788878
1.1894845
1.1994649
1.2087975
1.2175928
1.2257656
1.2335736
1.240742
1.2478259
1.2540881
1.2607442
1.2660469
1.2726379
1.2766939
1.2837118
1.2860883
1.2940133
0.90699646
0.9070814
0.90718519
0.90729255
0.907411
0.90754309
0.90769007
0.90785365
0.90803593
0.90823941
0.90846703
0.90872236
0.90900979
0.90933481
0.90970442
0.9101277
0.91061661
0.91118712
0.91186071
0.91266652
0.91364405
0.91484664
0.91634543
0.91823343
0.92062854
0.92367379
0.92753226
0.9323742
0.93835487
0.94558547
0.95412233
0.96389248
0.97479224
0.98680961
0.9996854
1.0132279
1.0271327
1.041468
1.0561456
1.0710213
1.0859793
1.1008935
1.1156355
1.1300788
1.1441045
1.1576041
1.1704904
1.1826891
1.1941625
1.2048737
1.2148512
1.2240747
1.2326605
1.2405439
1.2479844
1.2547421
1.2613617
1.2671661
1.2733275
1.2782166
1.2843373
1.2881363
1.2947184
1.2970733
1.3044964
0.88869752
0.88879308
0.88890967
0.88902995
0.88916219
0.88930921
0.88947234
0.88965346
0.88985496
0.89007975
0.89033142
0.8906145
0.89093481
0.89129994
0.89171993
0.89220821
0.89278286
0.89346833
0.89429774
0.89531573
0.89658198
0.89817521
0.90019694
0.90277428
0.90605979
0.91022634
0.91545455
0.92191148
0.92972239
0.9389504
0.94955712
0.961423
0.97461331
0.98846416
1.0029332
1.0179464
1.0334538
1.0493243
1.0654046
1.0815753
1.0977029
1.1136522
1.1292892
1.144484
1.1591179
1.1730857
1.1863043
1.1987064
1.2102601
1.2209392
1.230778
1.2397742
1.2480462
1.2555558
1.2625578
1.2688549
1.2749656
1.2802977
1.2859314
1.2904301
1.2960256
1.2996656
1.3056469
1.3084669
1.3148289
0.87465131
0.87475231
0.87487537
0.87500207
0.87514104
0.87529527
0.87546622
0.87565604
0.87586752
0.87610421
0.87637069
0.87667292
0.87701886
0.87741913
0.87788811
0.87844523
0.87911679
0.87993832
0.88095744
0.88223734
0.88386059
0.88593279
0.88858514
0.89197443
0.89627838
0.90168413
0.90836871
0.91647293
0.9260737
0.93716195
0.94962976
0.96347894
0.97813595
0.99337995
1.0094941
1.0261255
1.0431044
1.0603109
1.0776165
1.094885
1.1119775
1.1287526
1.1450724
1.1608068
1.1758393
1.1900699
1.2034215
1.2158375
1.227292
1.2377732
1.2473238
1.2559562
1.2637981
1.2708374
1.2773174
1.283096
1.2886437
1.2934764
1.2985488
1.3026494
1.3077037
1.311145
1.3165888
1.3194326
1.325288
0.86674536
0.86684676
0.86696988
0.86709664
0.86723552
0.86738961
0.86756059
0.86775096
0.8679641
0.86820446
0.86847795
0.86879252
0.86915894
0.8695918
0.87011097
0.87074328