/*--------------------------------*- C++ -*----------------------------------*\
  =========                 |
  \\      /  F ield         | OpenFOAM: The Open Source CFD Toolbox
   \\    /   O peration     | Website:  https://openfoam.org
    \\  /    A nd           | Version:  13
     \\/     M anipulation  |
\*---------------------------------------------------------------------------*/
FoamFile
{
    format      ascii;
    class       volVectorField;
    location    "37.797061";
    object      U;
}
// * * * * * * * * * * * * * * * * * * * * * * * * * * * * * * * * * * * * * //

dimensions      [0 1 -1 0 0 0 0];

internalField   nonuniform List<vector> 
17140
(
(-1.5375783e-06 0.00010588167 3.2051464e-23)
(-6.2469269e-06 0.0003266427 3.5476131e-24)
(-1.3659006e-05 0.0005700688 -2.340626e-22)
(-2.4599695e-05 0.00083962618 2.5712041e-22)
(-4.0043181e-05 0.0011391185 -3.0030334e-23)
(-6.1230734e-05 0.0014726881 9.81792e-23)
(-8.9712771e-05 0.0018447681 1.6506334e-22)
(-0.00012738991 0.002260046 -8.0426154e-23)
(-0.00017659301 0.0027233997 -2.6272433e-22)
(-0.00024016672 0.003239804 -6.4274293e-22)
(-0.00032157045 0.0038142019 9.4997335e-22)
(-0.00042499139 0.0044513343 -8.432656e-22)
(-0.00055547436 0.0051555209 -1.2848557e-22)
(-0.00071906571 0.0059303831 7.2215178e-22)
(-0.00092297091 0.0067785034 -7.9615015e-23)
(-0.0011757218 0.0077010141 6.253415e-22)
(-0.0014873478 0.0086971144 -2.2983291e-23)
(-0.0018695412 0.0097635172 5.1551342e-24)
(-0.0023358027 0.010893837 3.5645723e-22)
(-0.0029015466 0.012077941 -4.5416714e-22)
(-0.0035841379 0.013301306 2.1452115e-22)
(-0.0044028253 0.014544439 -3.9956071e-23)
(-0.0053785209 0.015782447 -2.8676668e-22)
(-0.0065333699 0.016984893 2.7817428e-22)
(-0.0078900392 0.018116086 4.2881178e-22)
(-0.0094706509 0.01913605 -3.3317979e-22)
(-0.01129529 0.02000245 -1.5828026e-21)
(-0.013380059 0.020673904 -1.8025938e-22)
(-0.015734758 0.02111514 1.5237911e-21)
(-0.01836049 0.021304274 3.4365138e-22)
(-0.02124788 0.021241347 1.1776617e-21)
(-0.024376956 0.020954668 -1.4822112e-21)
(-0.027719717 0.020498834 3.687443e-22)
(-0.031245225 0.019941108 1.6700099e-22)
(-0.034924989 0.019342565 1.5508768e-21)
(-0.038735831 0.018746043 -6.4263225e-22)
(-0.042659637 0.018175486 9.2389316e-22)
(-0.046681749 0.017641663 5.9924134e-22)
(-0.050789862 0.017147956 2.6488359e-22)
(-0.05497416 0.016693706 -7.8168584e-22)
(-0.059228581 0.016275011 -1.4517873e-21)
(-0.063553574 0.015883399 -1.3061075e-21)
(-0.067958759 0.015502862 -5.6900688e-22)
(-0.072468563 0.015105367 2.7835935e-21)
(-0.077129629 0.01464202 2.0525599e-21)
(-0.08200929 0.014034527 -5.0870687e-22)
(-0.087202541 0.013168533 3.506737e-21)
(-0.092837551 0.01187433 1.2050523e-21)
(-0.099068804 0.0099048628 -1.2419734e-21)
(-0.10607763 0.0069041536 -3.0764483e-21)
(-0.11404242 0.0023564596 1.9114667e-21)
(-0.12313846 -0.0044853052 1.2168957e-21)
(-0.1334237 -0.01469391 -3.1839843e-21)
(-0.1448549 -0.029733758 -1.5100183e-21)
(-0.15687186 -0.05147296 -1.0676779e-21)
(-0.16873321 -0.081751272 8.4266302e-22)
(-0.17820305 -0.12120157 -2.2168709e-21)
(-0.18339151 -0.16691362 -1.8063281e-21)
(-0.17956382 -0.2102112 -4.3117895e-22)
(-0.16870668 -0.23609803 1.0807209e-21)
(-0.15072464 -0.21732694 8.3757061e-22)
(-0.1311564 -0.11664573 3.0376643e-21)
(-0.050052632 0.089988682 3.7822196e-22)
(0.081195744 0.31232572 -2.1652979e-21)
(0.18809751 0.41609946 9.4361027e-22)
(-5.7250455e-06 0.00013777917 -9.1484579e-24)
(-1.9275291e-05 0.00042541749 1.2315188e-21)
(-3.631942e-05 0.00074268934 -1.0952715e-21)
(-5.7927635e-05 0.0010936772 2.9834935e-22)
(-8.5144323e-05 0.0014828494 6.1579514e-22)
(-0.00011934385 0.0019150235 -1.1753533e-21)
(-0.00016221032 0.0023953397 1.2234415e-21)
(-0.0002157804 0.0029292092 -1.0748594e-22)
(-0.00028251842 0.0035222371 3.3486003e-22)
(-0.00036539778 0.0041801124 5.6677092e-24)
(-0.00046799468 0.0049084582 1.1113802e-21)
(-0.00059459401 0.0057126349 -1.7586439e-21)
(-0.0007503095 0.0065974868 -1.4452095e-22)
(-0.00094121626 0.0075670231 1.4176183e-21)
(-0.0011744949 0.0086240258 -4.3194062e-22)
(-0.0014585829 0.0097695763 -2.7175267e-22)
(-0.0018033285 0.011002499 1.7040705e-21)
(-0.0022201366 0.01231872 -5.4730943e-21)
(-0.0027220947 0.013710558 3.3697996e-21)
(-0.0033240582 0.01516596 -3.9597457e-21)
(-0.0040426711 0.016667737 5.7196231e-21)
(-0.0048962852 0.018192846 -1.3677324e-21)
(-0.0059047361 0.019711828 -5.4778372e-22)
(-0.0070889189 0.021188525 1.7396846e-21)
(-0.0084701009 0.022580257 -6.0608691e-21)
(-0.0100689 0.023838722 -8.7645062e-22)
(-0.011903871 0.024911968 4.3866265e-21)
(-0.01398968 0.02574798 -4.7582712e-21)
(-0.01633496 0.02630055 6.318048e-22)
(-0.018940162 0.026538038 5.9737865e-21)
(-0.021796047 0.026454366 -5.9389913e-22)
(-0.024883763 0.026078338 -4.383585e-21)
(-0.028177318 0.025473434 -1.0813729e-22)
(-0.031648196 0.024722541 2.9676168e-21)
(-0.035270112 0.023904282 -3.1389805e-21)
(-0.039021467 0.023076315 1.3431295e-21)
(-0.042885055 0.022272884 -1.5022137e-21)
(-0.046846648 0.021511256 -4.5913849e-21)
(-0.050894118 0.020799156 -9.9749682e-22)
(-0.055017768 0.020139552 -3.8073077e-21)
(-0.05921177 0.019532453 4.7952281e-21)
(-0.063477038 0.018974188 4.3907888e-21)
(-0.06782418 0.018454893 7.5212571e-22)
(-0.072279521 0.0179545 -6.045308e-21)
(-0.076892454 0.017432782 2.9032481e-21)
(-0.081735109 0.016819455 1.0186199e-21)
(-0.086910354 0.016009028 -5.3532651e-22)
(-0.092558211 0.014840071 -1.7402736e-21)
(-0.098850886 0.01307055 8.5838555e-22)
(-0.10599625 0.0103447 -1.6100212e-21)
(-0.11421147 0.0061393457 -9.6793153e-21)
(-0.12372829 -0.00031452696 -4.503033e-22)
(-0.13467848 -0.010138047 2.0862795e-21)
(-0.14710807 -0.024893557 -4.7833994e-21)
(-0.16051572 -0.046604459 4.0394875e-21)
(-0.17410454 -0.077367486 -1.1452983e-20)
(-0.18529129 -0.11809361 -3.2962712e-21)
(-0.19124151 -0.16615474 8.7394701e-21)
(-0.1875609 -0.21240815 -1.4247018e-21)
(-0.17562939 -0.24058716 -1.5320067e-21)
(-0.15727575 -0.223481 -2.835082e-22)
(-0.14024652 -0.1308222 2.9371322e-21)
(-0.079956025 0.059555869 -5.3879861e-21)
(0.029164197 0.27547693 -5.7501608e-22)
(0.14316891 0.38880023 -1.2207386e-21)
(-1.1774655e-05 0.0001694688 -5.0529457e-22)
(-3.7925039e-05 0.00052355808 3.7316544e-22)
(-6.883272e-05 0.00091420663 9.9190498e-23)
(-0.00010568914 0.0013461056 -9.3974266e-23)
(-0.00014969277 0.0018243662 4.5502936e-22)
(-0.00020237008 0.0023544766 3.3816058e-23)
(-0.00026556077 0.0029422706 4.3127411e-22)
(-0.00034145688 0.0035938685 4.6389362e-22)
(-0.0004326728 0.0043155881 -3.7828307e-21)
(-0.00054232008 0.0051138191 3.3685878e-21)
(-0.00067409302 0.0059948545 -1.606745e-21)
(-0.00083236432 0.0069646673 -2.3449387e-21)
(-0.0010222927 0.0080286255 4.6266456e-21)
(-0.0012499408 0.0091911329 5.6934625e-22)
(-0.0015224011 0.010455188 -2.1812173e-21)
(-0.0018479282 0.01182185 -1.4858745e-21)
(-0.0022360697 0.013289612 1.7038764e-21)
(-0.0026977883 0.014853678 -6.0865531e-21)
(-0.0032455632 0.016505149 3.5406732e-21)
(-0.0038934519 0.018230156 -1.7196627e-21)
(-0.0046570901 0.020008964 5.6776276e-21)
(-0.0055535971 0.021815122 1.4420187e-21)
(-0.0066013472 0.023614754 -2.9326003e-21)
(-0.0078195567 0.025366135 4.2927021e-21)
(-0.0092276284 0.027019741 1.6427624e-21)
(-0.010844191 0.028519059 -1.9128193e-21)
(-0.012685784 0.029802587 -1.0532128e-20)
(-0.014765189 0.030807654 -4.6209932e-21)
(-0.017089514 0.03147698 2.2304188e-21)
(-0.019658359 0.031768866 -2.3128724e-21)
(-0.022462674 0.031670627 1.3905652e-21)
(-0.025485086 0.031210948 7.5900306e-21)
(-0.02870225 0.030461635 -2.4359444e-21)
(-0.032088808 0.02952095 -6.9332726e-21)
(-0.035621279 0.028485214 2.1903145e-21)
(-0.039279971 0.027427257 2.933984e-21)
(-0.04304864 0.026391944 -4.8710544e-21)
(-0.046913314 0.025403277 -1.4412291e-21)
(-0.050861708 0.024473503 2.4728953e-21)
(-0.05488374 0.023609406 9.6716435e-22)
(-0.058973131 0.022815153 -4.6339157e-21)
(-0.063130334 0.022092245 1.3164133e-21)
(-0.067365716 0.021437501 1.9040746e-21)
(-0.071705864 0.020839535 5.1474944e-21)
(-0.076200477 0.020267794 -9.9473891e-21)
(-0.080923253 0.019661524 6.5738161e-21)
(-0.085980533 0.018925968 1.7074131e-21)
(-0.091518196 0.017910293 6.8255561e-21)
(-0.09771794 0.016380766 8.3360076e-21)
(-0.10480307 0.013986338 4.2145962e-22)
(-0.11301487 0.010202429 -1.9528648e-21)
(-0.12262253 0.0042447843 1.392078e-20)
(-0.13380598 -0.0050504272 6.0011933e-21)
(-0.14666565 -0.019347846 6.1738921e-21)
(-0.1607152 -0.04085399 2.1014203e-21)
(-0.17505414 -0.072005631 1.5737845e-20)
(-0.1867456 -0.11424407 -6.4411449e-21)
(-0.19250292 -0.1649461 1.9211936e-21)
(-0.185802 -0.21448047 1.3902015e-20)
(-0.16976365 -0.24540169 4.9885314e-21)
(-0.14701552 -0.22976532 -4.9951222e-21)
(-0.12747496 -0.14301103 -1.5736361e-20)
(-0.078260368 0.033337809 4.5354577e-21)
(0.013171291 0.23948369 4.4011474e-21)
(0.13344488 0.35589263 1.1154955e-21)
(-1.9648207e-05 0.00020039243 1.6968553e-21)
(-6.2201918e-05 0.00061936015 -2.6980133e-21)
(-0.00011114917 0.0010816689 9.7499819e-22)
(-0.00016782296 0.001592596 -1.0591156e-22)
(-0.00023360348 0.0021578722 2.092253e-21)
(-0.00031019338 0.0027836323 -2.1624313e-21)
(-0.00039960993 0.0034763799 3.276102e-21)
(-0.00050421935 0.0042429207 -1.5387481e-21)
(-0.00062680059 0.0050902632 -5.8391999e-21)
(-0.00077061149 0.0060254795 1.4004278e-21)
(-0.00093946433 0.0070555182 5.3182354e-21)
(-0.0011378088 0.0081869583 -1.6174011e-21)
(-0.0013708241 0.0094256941 -1.0747587e-22)
(-0.0016445188 0.01077654 4.1896223e-21)
(-0.0019658354 0.012242742 -1.3016191e-20)
(-0.0023427581 0.013825392 7.9234835e-21)
(-0.0027844172 0.01552273 7.4743839e-23)
(-0.0033011824 0.017329339 -4.2863527e-21)
(-0.0039047348 0.019235246 1.0732191e-20)
(-0.0046081007 0.021224938 -4.9829341e-21)
(-0.0054256274 0.023276343 -7.2954362e-21)
(-0.0063728724 0.025359844 -2.8954522e-21)
(-0.0074663703 0.027437424 1.3999996e-20)
(-0.0087232342 0.029462077 7.1459833e-21)
(-0.010160538 0.031377724 -4.5009715e-21)
(-0.011794432 0.033119909 2.5624247e-21)
(-0.013638947 0.034617782 -9.3531014e-21)
(-0.015704513 0.035798113 2.6189426e-21)
(-0.017996322 0.036592452 -6.8697149e-21)
(-0.020512883 0.03694866 3.7753765e-21)
(-0.023245319 0.036846693 -2.2700769e-21)
(-0.026178033 0.036314052 8.0246194e-21)
(-0.029290904 0.035429782 -1.1069395e-21)
(-0.032562453 0.034306875 5.6075095e-21)
(-0.035972633 0.033059343 -5.124152e-21)
(-0.039504018 0.031775597 -1.5766797e-21)
(-0.043141384 0.030511604 1.8762562e-20)
(-0.046870842 0.029298468 4.7361876e-21)
(-0.050679572 0.028153196 -3.8218193e-21)
(-0.054556555 0.027086571 3.6925661e-21)
(-0.058494303 0.026107124 -9.5288608e-22)
(-0.062491782 0.025221831 -5.8915945e-21)
(-0.066557741 0.024434649 2.7082806e-22)
(-0.070717202 0.023743461 2.0276873e-21)
(-0.075017432 0.02312827 -1.0125055e-21)
(-0.079529997 0.02253922 5.4254973e-22)
(-0.084359544 0.021894005 1.5382681e-21)
(-0.089650754 0.021054628 -2.3746164e-20)
(-0.095585015 0.019798743 2.7393102e-21)
(-0.10238743 0.017784436 -2.5545857e-21)
(-0.11030504 0.014491981 2.4447773e-20)
(-0.11961984 0.0091289714 -1.3521904e-20)
(-0.13052506 0.00049465817 -1.1410651e-20)
(-0.14312984 -0.013180084 -1.105404e-20)
(-0.1569102 -0.034311175 -1.0735145e-20)
(-0.17080154 -0.065722462 -1.6722712e-20)
(-0.18147647 -0.10933958 3.2903322e-20)
(-0.18456305 -0.16332214 -1.9555511e-20)
(-0.17297236 -0.21693445 -2.6925546e-20)
(-0.15001845 -0.25080635 1.6856964e-20)
(-0.11968301 -0.23666697 4.7749183e-21)
(-0.094032859 -0.15413793 4.7185593e-21)
(-0.047306461 0.010974079 -9.4575444e-21)
(0.033400079 0.20548217 -4.8188026e-21)
(0.16319985 0.31847842 1.2322162e-22)
(-2.9278772e-05 0.00022997831 -1.1983765e-21)
(-9.1901339e-05 0.00071104933 3.9759575e-21)
(-0.00016291337 0.0012419782 -3.2397843e-21)
(-0.00024380858 0.0018285988 1.2235831e-21)
(-0.00033617412 0.0024772283 4.4172412e-22)
(-0.00044191078 0.0031946154 -3.7974394e-21)
(-0.00056323322 0.0039879004 9.605988e-22)
(-0.00070269885 0.0048645428 2.0369951e-21)
(-0.00086326375 0.0058322131 1.5597944e-22)
(-0.0010483388 0.0068986414 1.3225351e-21)
(-0.0012618533 0.008071415 -1.8471588e-21)
(-0.0015083226 0.0093577117 1.2795689e-21)
(-0.0017929228 0.010763959 4.6965384e-21)
(-0.0021215686 0.012295407 1.3601379e-22)
(-0.0025009936 0.013955597 -3.5500612e-21)
(-0.0029388298 0.015745729 -2.4962854e-21)
(-0.0034436806 0.017663898 2.129402e-21)
(-0.0040251814 0.019704222 -2.0164603e-22)
(-0.004694037 0.021855847 -4.0559082e-21)
(-0.0054620238 0.02410186 -4.8717501e-21)
(-0.006341937 0.026418153 5.4682902e-21)
(-0.0073474606 0.028772294 5.3985692e-21)
(-0.0084929293 0.031122516 -7.1131698e-21)
(-0.0097929449 0.033416966 8.6076373e-21)
(-0.011261803 0.035593451 1.4566436e-20)
(-0.012912692 0.037579997 -3.3466169e-20)
(-0.014756636 0.039296768 1.7947354e-20)
(-0.016801232 0.040660195 -2.5895676e-20)
(-0.019049332 0.04159063 3.146098e-20)
(-0.021498041 0.042025056 -3.4099345e-20)
(-0.02413856 0.041935081 3.4139633e-20)
(-0.026957244 0.041345489 -5.5375778e-21)
(-0.02993769 0.040340899 -1.8389639e-20)
(-0.033062973 0.039047904 9.9224385e-21)
(-0.036317122 0.037597997 -2.9608593e-21)
(-0.039685378 0.036095643 -8.1746099e-22)
(-0.043153644 0.034608558 -9.7484588e-21)
(-0.046707931 0.033175447 -3.0674993e-21)
(-0.050334486 0.031818384 -3.0332645e-21)
(-0.054020748 0.03055233 -2.9205773e-21)
(-0.057757191 0.029390339 1.4769584e-20)
(-0.061540159 0.028345075 -6.4790607e-21)
(-0.065375251 0.027427987 -1.045468e-21)
(-0.069283921 0.026646623 1.2124062e-20)
(-0.073307864 0.02599223 6.236982e-21)
(-0.077512297 0.025427065 -3.0925004e-21)
(-0.081994349 0.024882731 -1.1558909e-20)
(-0.086889204 0.024236042 5.0631911e-21)
(-0.092366137 0.023278746 -1.5253424e-20)
(-0.098635302 0.021682196 -8.4637186e-21)
(-0.10592631 0.01893768 -1.1810713e-20)
(-0.1145012 0.014251571 -3.2612999e-20)
(-0.12451883 0.006393763 2.5586586e-20)
(-0.13603769 -0.0065071 -8.676341e-21)
(-0.148429 -0.027092002 1.48163e-20)
(-0.16041514 -0.058653114 1.3976233e-20)
(-0.16807077 -0.10385363 5.8761452e-21)
(-0.16600572 -0.16128427 4.7453056e-20)
(-0.14647723 -0.21929056 1.126916e-20)
(-0.11367148 -0.25665143 -2.2043377e-20)
(-0.073832711 -0.24388008 -5.8007284e-21)
(-0.040041597 -0.16468412 4.1305904e-21)
(0.010286354 -0.008459058 5.7965855e-21)
(0.089006491 0.17334868 3.9847346e-21)
(0.23491922 0.27729789 -2.4608665e-22)
(-4.0532715e-05 0.00025762649 -3.6628521e-21)
(-0.00012661317 0.00079677225 -1.291968e-21)
(-0.00022341247 0.0013919026 1.0454734e-21)
(-0.00033260224 0.0020493697 3.8584167e-21)
(-0.00045599884 0.0027760343 -2.1125335e-21)
(-0.00059572042 0.0035792167 3.0378355e-21)
(-0.00075419637 0.0044666518 -1.3129687e-21)
(-0.00093418983 0.0054464132 -3.123095e-22)
(-0.0011388447 0.0065267969 1.7646936e-21)
(-0.0013717305 0.0077161612 3.7955069e-21)
(-0.0016368916 0.0090227115 1.9029436e-22)
(-0.001938899 0.010454217 -6.2057898e-21)
(-0.0022829038 0.012017649 8.5546327e-21)
(-0.0026746914 0.013718726 -1.3752318e-20)
(-0.0031207342 0.015561348 3.5750083e-21)
(-0.0036282388 0.017546921 -7.5487116e-21)
(-0.0042051848 0.01967354 9.0568213e-21)
(-0.0048603475 0.021935048 -5.8297604e-21)
(-0.0056032975 0.024319963 9.1100485e-22)
(-0.0064443655 0.026810293 3.6513267e-21)
(-0.0073945578 0.029380279 -8.7541551e-21)
(-0.0084654032 0.03199513 1.2165036e-20)
(-0.0096687071 0.034609849 -1.3003412e-20)
(-0.011016182 0.037168308 -2.1972296e-21)
(-0.012518923 0.039602803 2.1117768e-20)
(-0.014186692 0.041834437 -2.0916058e-20)
(-0.016027019 0.043774917 1.3307538e-20)
(-0.018044173 0.045330704 -1.4617837e-20)
(-0.020238195 0.046411018 -1.3746235e-21)
(-0.022604406 0.046941508 -8.3595783e-22)
(-0.02513385 0.046884232 5.3756721e-21)
(-0.027814866 0.046259283 -3.5819409e-22)
(-0.030635105 0.045154575 1.8950549e-20)
(-0.033582802 0.043708608 -4.9140309e-21)
(-0.036646706 0.042069865 -1.4133532e-20)
(-0.039815196 0.040359362 6.3053401e-21)
(-0.043075447 0.038657366 -4.9750373e-21)
(-0.046413221 0.037010841 4.8630748e-21)
(-0.049813415 0.035447311 2.6276363e-20)
(-0.053261278 0.033986106 -1.4285796e-20)
(-0.056744344 0.032644887 -3.4684179e-21)
(-0.060255096 0.031442122 1.9694546e-20)
(-0.063794265 0.030396991 -1.1110426e-21)
(-0.067377519 0.029526861 -2.4170466e-21)
(-0.071037499 0.028834616 -2.6999526e-20)
(-0.074828279 0.02829568 -6.325685e-21)
(-0.07883283 0.027856685 1.0161369e-20)
(-0.083167115 0.027410669 1.0531038e-20)
(-0.087974082 0.02676559 1.5263804e-20)
(-0.09342818 0.025609558 1.9285848e-20)
(-0.099711895 0.023450414 1.2050704e-20)
(-0.10702258 0.019499453 1.8712147e-20)
(-0.11541889 0.012506871 -6.4402413e-21)
(-0.12482606 0.00050717327 4.1647833e-20)
(-0.13439863 -0.019365865 3.2421928e-21)
(-0.14249394 -0.050927247 2.6000001e-21)
(-0.14438206 -0.097661162 1.9617139e-21)
(-0.13344401 -0.1588397 -5.2918533e-20)
(-0.10153506 -0.22146329 -1.8219675e-20)
(-0.055592206 -0.26191471 2.2519906e-20)
(-0.0052971594 -0.25032164 2.1834566e-20)
(0.036150215 -0.17405158 6.2104366e-21)
(0.092268576 -0.026024653 1.4870188e-21)
(0.17601336 0.14237824 -2.7086329e-21)
(0.3425987 0.23443524 1.3017908e-22)
(-5.3206551e-05 0.00028273598 6.9413652e-22)
(-0.00016571231 0.00087467256 2.2046068e-21)
(-0.00029155979 0.0015282044 -5.3189256e-21)
(-0.00043261305 0.0022501543 1.975919e-22)
(-0.00059093595 0.0030478742 2.5868216e-21)
(-0.00076887992 0.0039292039 1.1393649e-21)
(-0.00096910322 0.0049024223 8.4051131e-22)
(-0.0011945866 0.005976168 -1.654373e-21)
(-0.0014486703 0.0071593187 8.5524447e-21)
(-0.0017350865 0.0084608248 -6.4422808e-21)
(-0.0020579937 0.0098894849 3.1108188e-22)
(-0.0024220095 0.011453651 3.8806666e-21)
(-0.0028322421 0.01316085 -1.447191e-20)
(-0.0032943188 0.015017307 1.4368142e-20)
(-0.0038144075 0.01702736 -1.9045524e-21)
(-0.0043992303 0.019192735 -1.1720842e-20)
(-0.0050560635 0.0215117 1.0946572e-20)
(-0.0057927194 0.023978058 -3.7938686e-21)
(-0.0066175038 0.026580003 7.3020004e-21)
(-0.0075391394 0.029298847 -9.2673561e-21)
(-0.0085666445 0.032107652 -1.7176628e-20)
(-0.0097091528 0.034969824 1.6753271e-20)
(-0.010975656 0.037837782 2.4142584e-20)
(-0.012374644 0.040651836 -4.5715118e-20)
(-0.013913628 0.043339537 3.5928257e-20)
(-0.015598518 0.045815835 -2.0414051e-20)
(-0.017432876 0.047984692 5.1410858e-21)
(-0.019417141 0.049743145 -1.1876043e-20)
(-0.021548039 0.050989472 1.1851186e-20)
(-0.023818627 0.051637571 1.5592192e-20)
(-0.02621941 0.051638601 -1.0066611e-20)
(-0.028740523 0.051005594 -1.6212664e-20)
(-0.031373808 0.049826843 1.3625202e-21)
(-0.03411313 0.04825041 5.3603044e-22)
(-0.036952608 0.046440887 9.2630932e-21)
(-0.039884283 0.044536284 -3.8672411e-21)
(-0.042896835 0.042630382 -1.3569269e-20)
(-0.045975664 0.040779226 -6.6144608e-21)
(-0.049103903 0.039016275 9.8747187e-21)
(-0.052263927 0.037365421 -7.6406486e-21)
(-0.055439355 0.035848963 6.4671468e-21)
(-0.058617466 0.034491123 -2.0927863e-21)
(-0.061792329 0.03331887 -8.2460281e-21)
(-0.064971059 0.032359548 2.0116276e-20)
(-0.068173585 0.031627388 1.206306e-20)
(-0.071437513 0.031111864 8.0686745e-21)
(-0.074823916 0.03077526 -2.5952582e-20)
(-0.078418095 0.030527533 -1.716733e-20)
(-0.082319481 0.030193934 -2.0489693e-20)
(-0.086640785 0.02948165 -3.6426229e-20)
(-0.091478685 0.027919009 1.3041151e-20)
(-0.096903993 0.024726924 -2.7437604e-21)
(-0.10278732 0.018647538 -2.2336897e-20)
(-0.10880274 0.0076330325 -6.6900118e-20)
(-0.11369401 -0.011401534 -4.506953e-20)
(-0.11514621 -0.042843761 -1.808338e-20)
(-0.10709348 -0.091076816 -5.184176e-20)
(-0.081293973 -0.15589537 3.3814211e-20)
(-0.030013713 -0.222221 -3.3458986e-21)
(0.033153922 -0.26449587 -3.6773539e-20)
(0.094002799 -0.25283849 -1.6963631e-20)
(0.13974281 -0.17965869 -1.1101246e-21)
(0.19858264 -0.040492954 8.9422622e-22)
(0.28917216 0.11259312 9.192632e-22)
(0.47414007 0.19215719 2.063091e-22)
(-6.7019565e-05 0.00030472559 2.7503055e-21)
(-0.00020836085 0.00094294563 -1.854085e-21)
(-0.00036588592 0.0016477364 2.5035287e-21)
(-0.00054169255 0.0024263276 1.4222171e-21)
(-0.00073809432 0.0032865033 -3.9663012e-21)
(-0.00095768889 0.0042365615 -3.6998247e-21)
(-0.001203374 0.0052852644 3.7929051e-21)
(-0.0014783569 0.006441758 -4.5600699e-22)
(-0.0017861806 0.0077154498 -1.054362e-22)
(-0.0021307431 0.0091158392 -7.4802878e-21)
(-0.0025163158 0.010652288 8.1826608e-22)
(-0.002947557 0.012333718 1.5013076e-20)
(-0.0034295201 0.014168224 -1.1966299e-20)
(-0.0039676535 0.016162586 4.1067581e-22)
(-0.004567791 0.018321655 7.953527e-21)
(-0.0052361282 0.02064762 6.8041844e-22)
(-0.0059791816 0.023139111 -1.7197025e-21)
(-0.0068037271 0.025790158 -7.6891929e-21)
(-0.0077167108 0.028588981 1.3959263e-20)
(-0.0087251274 0.03151664 -2.4285498e-20)
(-0.0098358573 0.034545562 5.1728179e-21)
(-0.011055454 0.037638003 -3.7495885e-21)
(-0.012389869 0.040744555 3.0316793e-21)
(-0.013844097 0.04380282 -1.2880586e-22)
(-0.01542174 0.046736524 1.7387441e-20)
(-0.017124471 0.049455421 1.7009495e-20)
(-0.018951449 0.051856634 -3.3043717e-20)
(-0.020898785 0.053828515 -5.3960763e-21)
(-0.022959347 0.055258774 1.8383686e-20)
(-0.025123346 0.056049236 6.3757521e-21)
(-0.027380185 0.056138766 1.4166777e-20)
(-0.029721355 0.055530644 -1.5518426e-20)
(-0.032142751 0.054310007 -6.5879241e-21)
(-0.034644148 0.05263139 1.4718251e-20)
(-0.03722563 0.050674071 -5.9288613e-21)
(-0.039883509 0.04859335 -2.7954168e-21)
(-0.042608299 0.046497614 7.65601e-21)
(-0.045384994 0.044452997 1.9526283e-20)
(-0.048194566 0.042499495 5.8385445e-21)
(-0.051015801 0.040665786 -3.8078231e-21)
(-0.053827355 0.038978768 -8.9513015e-21)
(-0.056609857 0.037468268 -9.2952137e-21)
(-0.059348877 0.036168819 -1.0369872e-20)
(-0.062039627 0.035117398 -2.1975985e-20)
(-0.06468519 0.034339437 6.2279795e-22)
(-0.067301127 0.033838601 -9.4973393e-21)
(-0.0699173 0.033592708 5.3448258e-20)
(-0.07257488 0.033528391 1.5056096e-20)
(-0.075308715 0.033487717 1.7535603e-20)
(-0.078136666 0.033197274 4.9626361e-20)
(-0.081018006 0.032207091 -5.9455904e-20)
(-0.083813231 0.029750519 1.3591831e-20)
(-0.086092651 0.024572991 4.462272e-20)
(-0.087101773 0.014551806 5.5667618e-20)
(-0.084840063 -0.0036087271 6.8458826e-21)
(-0.075759253 -0.034920973 -1.9537536e-20)
(-0.051430457 -0.084630615 -3.1194294e-20)
(-0.0010692523 -0.15253045 1.2966594e-20)
(0.080572332 -0.22038722 -1.863046e-20)
(0.16769697 -0.2609077 1.0846397e-20)
(0.23756444 -0.24638732 1.6682867e-21)
(0.28102691 -0.1758924 6.2908265e-22)
(0.33416628 -0.047816779 -2.8648015e-22)
(0.42656099 0.086538523 7.1993202e-22)
(0.62230486 0.1530084 -3.0479971e-21)
(-8.1636195e-05 0.00032305979 -2.5925373e-21)
(-0.00025350433 0.00099993353 -6.9406078e-22)
(-0.00044456674 0.0017475994 7.6223777e-22)
(-0.00065716702 0.0025736263 3.7442598e-21)
(-0.00089387473 0.0034861608 -4.4871198e-21)
(-0.001157541 0.0044938884 3.8066307e-21)
(-0.0014513092 0.0056059855 1.8172124e-21)
(-0.0017786182 0.0068320392 -9.72712e-23)
(-0.0021432175 0.0081819262 -1.529012e-21)
(-0.002549173 0.0096656438 -8.676159e-21)
(-0.0030008695 0.011293079 1.4527151e-20)
(-0.0035030031 0.013073708 -1.7395248e-20)
(-0.0040605667 0.015016203 5.086907e-21)
(-0.0046788205 0.017127937 6.8697202e-21)
(-0.0053632496 0.019414369 -1.0472697e-20)
(-0.0061195023 0.021878286 2.0497018e-20)
(-0.0069533073 0.024518895 -2.4636579e-20)
(-0.0078703651 0.027330737 -3.8494097e-22)
(-0.0088762108 0.030302443 -1.3833693e-20)
(-0.0099760426 0.033415309 5.4235576e-20)
(-0.011174513 0.036641731 -1.2955987e-20)
(-0.012475478 0.03994355 -5.2837544e-20)
(-0.013881693 0.043270385 2.4584057e-20)
(-0.01539446 0.046558109 2.8855274e-20)
(-0.01701322 0.0497277 -7.1287682e-21)
(-0.018735093 0.052684844 -3.6695701e-20)
(-0.020554439 0.055320942 5.4593457e-20)
(-0.022462569 0.057516628 -5.9466384e-20)
(-0.024447913 0.059149633 4.5934319e-20)
(-0.026497161 0.060109583 -8.6162174e-21)
(-0.028597855 0.060321723 1.4482004e-20)
(-0.030742108 0.059776704 2.0120718e-20)
(-0.032929376 0.058552425 -7.6325932e-21)
(-0.035165354 0.056805975 -1.8702066e-21)
(-0.037456583 0.054729183 -2.650741e-20)
(-0.03980431 0.052494636 4.8857102e-21)
(-0.042201342 0.05022648 -1.2297877e-20)
(-0.044632323 0.048002143 1.0220348e-20)
(-0.047075709 0.045868913 -5.7677919e-21)
(-0.049505968 0.043860512 -3.7910716e-21)
(-0.05189568 0.042008354 -3.273652e-21)
(-0.05421726 0.040347576 -3.1829392e-21)
(-0.056445454 0.038919747 1.9631755e-20)
(-0.058560383 0.037770662 1.579147e-20)
(-0.060543469 0.03693674 -4.4899523e-21)
(-0.062381538 0.036435164 2.9926443e-21)
(-0.064062519 0.036258242 -1.2203206e-20)
(-0.065567283 0.036347784 2.5267115e-20)
(-0.066839846 0.036559922 3.0153072e-20)
(-0.067760111 0.036637988 9.045716e-21)
(-0.068079854 0.036150774 2.3539087e-20)
(-0.067343937 0.034344988 -7.3628461e-22)
(-0.064679773 0.029976306 -1.1572748e-20)
(-0.058631733 0.02083461 -6.0238742e-20)
(-0.045930328 0.0033999827 3.0636552e-20)
(-0.020873011 -0.028058165 -1.3801009e-20)
(0.029111964 -0.079472521 3.5809655e-20)
(0.11821502 -0.14943441 -5.6782925e-20)
(0.24225039 -0.21444078 2.7201287e-20)
(0.36017663 -0.24558965 -5.7802673e-21)
(0.43815492 -0.22257198 1.194321e-22)
(0.47232359 -0.15335843 -1.2287584e-21)
(0.50922378 -0.040154962 2.3966841e-21)
(0.59426983 0.071035953 -4.6096113e-22)
(0.79006506 0.12144465 -4.5422291e-21)
(-9.6655759e-05 0.00033726771 5.8134258e-21)
(-0.00029990479 0.0010441783 3.9972961e-21)
(-0.00052545086 0.0018252441 -6.2727119e-21)
(-0.00077588551 0.0026882985 1.650462e-22)
(-0.0010540365 0.0036417724 5.6653036e-21)
(-0.00136301 0.0046946603 2.9601758e-21)
(-0.0017061964 0.0058564743 -6.2335909e-21)
(-0.0020872677 0.0071371678 1.0224673e-21)
(-0.0025101808 0.0085470175 -1.4397699e-20)
(-0.0029791709 0.010096459 2.8016624e-21)
(-0.0034987371 0.011795859 7.1785772e-23)
(-0.0040736158 0.013655223 -1.0261602e-20)
(-0.004708741 0.015683802 3.2790906e-20)
(-0.0054091879 0.017889604 -1.5227936e-20)
(-0.0061800959 0.020278777 -2.7173269e-20)
(-0.00702657 0.022854851 2.8817968e-20)
(-0.0079535538 0.02561782 -3.529396e-21)
(-0.0089656744 0.02856304 1.9903513e-20)
(-0.010067053 0.031679949 1.4669003e-20)
(-0.011261083 0.034950595 -4.5734033e-20)
(-0.012550166 0.038347993 3.3990209e-20)
(-0.013935418 0.041834354 -4.4246062e-20)
(-0.015416332 0.045359264 5.1328119e-21)
(-0.016990409 0.048857948 -2.070559e-20)
(-0.018652761 0.052249848 4.43691e-20)
(-0.020395722 0.055437886 -1.0362236e-20)
(-0.022208527 0.058309059 -2.5762699e-20)
(-0.02407724 0.060737492 6.1257978e-20)
(-0.025985267 0.062591815 -2.6156026e-20)
(-0.027915013 0.063749603 -2.7684778e-20)
(-0.029851202 0.064121373 2.2421287e-20)
(-0.031785511 0.063682273 2.9494203e-21)
(-0.033720054 0.062498427 -1.4328203e-20)
(-0.035666061 0.060724706 7.6816201e-21)
(-0.037636864 0.058562451 -1.141412e-20)
(-0.039639333 0.056201022 3.8787379e-20)
(-0.041669165 0.053781471 -1.9790559e-20)
(-0.043710843 0.051393917 -1.1598123e-20)
(-0.045740023 0.049093867 -2.3411058e-20)
(-0.047726122 0.046920413 -3.1955481e-21)
(-0.04963444 0.044909332 2.440744e-20)
(-0.051427443 0.043100577 -9.8683061e-21)
(-0.053066525 0.041541998 -1.4619007e-20)
(-0.054512934 0.040287173 -2.1956988e-21)
(-0.05572125 0.039382362 1.4879374e-20)
(-0.056641491 0.038857198 1.336317e-20)
(-0.05720681 0.038716202 -4.1403214e-20)
(-0.057317936 0.03891312 -2.2344837e-20)
(-0.056794276 0.039311911 -4.9520324e-20)
(-0.055319807 0.039664759 -1.7734997e-20)
(-0.052347611 0.039557833 -7.0900762e-21)
(-0.046983229 0.038244129 -5.3891431e-20)
(-0.037716511 0.034478249 -2.1591427e-20)
(-0.021991815 0.025915614 7.4153595e-20)
(0.0054696509 0.0087557525 -6.1451681e-20)
(0.054011292 -0.023618586 5.6244049e-20)
(0.14286114 -0.077418933 -2.7104983e-20)
(0.28559606 -0.14735305 1.1720065e-19)
(0.45524909 -0.20619857 4.6521975e-20)
(0.5980053 -0.22235333 -1.1200577e-20)
(0.67722162 -0.18367667 -7.9378306e-21)
(0.70385237 -0.10895072 -2.9579185e-21)
(0.72406233 -0.0096551763 1.1562734e-22)
(0.79935573 0.073393745 2.8729352e-22)
(0.96962218 0.10344224 5.7770226e-21)
(-0.00011163267 0.00034698585 1.0581117e-22)
(-0.00034618827 0.0010745494 -7.5279511e-21)
(-0.00060614741 0.0018786891 8.8705402e-21)
(-0.00089434545 0.0027674209 4.2663602e-21)
(-0.0012138641 0.0037493757 -8.5391562e-21)
(-0.0015680608 0.004833771 -2.7634235e-21)
(-0.0019605691 0.0060303688 1.3388071e-20)
(-0.0023952905 0.007349405 -1.4388261e-20)
(-0.002876388 0.0088014783 -3.0303368e-21)
(-0.0034082658 0.010397393 -1.2030543e-20)
(-0.0039955402 0.012147942 3.1868908e-20)
(-0.0046429934 0.014063622 3.8668139e-22)
(-0.0053555111 0.016154256 -2.8430861e-20)
(-0.0061379988 0.018428511 3.0385957e-20)
(-0.0069952728 0.0208933 -2.1638267e-20)
(-0.0079319235 0.023553028 -7.9740608e-21)
(-0.0089521468 0.026408677 1.6539537e-20)
(-0.01005954 0.029456712 -1.4799815e-20)
(-0.011256863 0.032687776 -1.9519944e-20)
(-0.012545756 0.03608519 4.0955722e-22)
(-0.013926427 0.039623248 3.008592e-20)
(-0.015397296 0.04326535 -1.8366831e-20)
(-0.016954621 0.046962035 1.0096286e-20)
(-0.018592091 0.050649038 4.8079706e-20)
(-0.020300433 0.054245582 1.584719e-20)
(-0.022067057 0.057653275 -4.2361874e-20)
(-0.023875829 0.060756235 4.1721598e-21)
(-0.025707181 0.063423544 -4.6410157e-20)
(-0.027538918 0.06551592 2.705452e-20)
(-0.02934833 0.066899423 -1.4099744e-20)
(-0.031116201 0.067469126 2.0129348e-20)
(-0.03283242 0.067182027 4.8393321e-21)
(-0.034500363 0.066087722 -2.3751283e-20)
(-0.036135894 0.064333353 2.3908789e-20)
(-0.037759144 0.06212563 3.4278527e-20)
(-0.039383256 0.059669342 -3.1483691e-21)
(-0.041007552 0.0571234 -3.4998928e-20)
(-0.042616733 0.054592157 4.3803859e-20)
(-0.044183471 0.052140474 -9.2653497e-21)
(-0.045671408 0.049813235 1.9693022e-20)
(-0.047037272 0.047650381 -3.0727765e-21)
(-0.048231657 0.045696011 3.0829264e-20)
(-0.049199758 0.044003141 1.4914991e-20)
(-0.049879384 0.042631775 1.9055024e-20)
(-0.0501924 0.041636329 -7.8367212e-20)
(-0.050042174 0.041056753 -2.6294579e-20)
(-0.049291133 0.040906275 3.5619091e-20)
(-0.047734887 0.041145205 -2.9784642e-20)
(-0.045023332 0.041634829 -2.556752e-20)
(-0.040563189 0.042130376 2.9421965e-20)
(-0.033397631 0.042214167 1.5687762e-20)
(-0.022057716 0.041143715 3.7493388e-20)
(-0.0041122191 0.037647097 1.8815606e-20)