/*--------------------------------*- C++ -*----------------------------------*\
  =========                 |
  \\      /  F ield         | OpenFOAM: The Open Source CFD Toolbox
   \\    /   O peration     | Website:  https://openfoam.org
    \\  /    A nd           | Version:  13
     \\/     M anipulation  |
\*---------------------------------------------------------------------------*/
FoamFile
{
    format      ascii;
    class       volScalarField;
    location    "18.204029";
    object      nut;
}
// * * * * * * * * * * * * * * * * * * * * * * * * * * * * * * * * * * * * * //

dimensions      [0 2 -1 0 0 0 0];

internalField   nonuniform List<scalar> 
17140
(
6.1267278e-17
1.1915664e-14
3.1737525e-13
3.2174142e-12
1.9456286e-11
8.6189651e-11
3.1117001e-10
9.734959e-10
2.741889e-09
7.1302927e-09
1.7422095e-08
4.0503185e-08
9.0431453e-08
1.9528214e-07
4.1010493e-07
8.4116955e-07
1.690863e-06
3.3400016e-06
6.4971876e-06
1.2466626e-05
2.3620889e-05
4.4215758e-05
8.1738279e-05
0.00014897285
0.00026671253
0.00046617624
0.00078857105
0.0012781622
0.0019678731
0.00286336
0.0039353412
0.0051243096
0.0059916064
0.0064107428
0.0068907419
0.0074160841
0.0079843764
0.0086368552
0.0094151326
0.01034356
0.011442376
0.012610532
0.012976205
0.013099241
0.013223268
0.013350259
0.013479467
0.013614532
0.013735546
0.0138257
0.013858336
0.013827986
0.013696321
0.013451057
0.013033745
0.012425075
0.011643318
0.010705173
0.0097282045
0.0087309706
0.0077987452
0.0070423924
0.0064203378
0.0057836215
0.0049799128
6.0786774e-17
1.1822203e-14
3.1488622e-13
3.1921903e-12
1.9303835e-11
8.5514729e-11
3.0873503e-10
9.658836e-10
2.7204642e-09
7.0746139e-09
1.7286122e-08
4.0187174e-08
8.972589e-08
1.9375779e-07
4.0690009e-07
8.345832e-07
1.6775837e-06
3.3136588e-06
6.4456527e-06
1.2367038e-05
2.3430617e-05
4.3856406e-05
8.106864e-05
0.00014774709
0.00026452674
0.00046242853
0.00078249947
0.0012690464
0.0019554192
0.0028481464
0.00391916
0.0051103893
0.0061165699
0.0065325181
0.0070046369
0.0075458846
0.0081391356
0.008821703
0.0096318256
0.010588077
0.01168945
0.012798434
0.013016302
0.013157131
0.01330175
0.013456229
0.013626403
0.013807309
0.013985026
0.014148219
0.014282036
0.014379052
0.014393179
0.014319588
0.014126623
0.013753961
0.01321702
0.01250144
0.011649819
0.010682627
0.0096352439
0.0086041633
0.0076855771
0.0067835564
0.0059247194
5.9724088e-17
1.1615523e-14
3.0938126e-13
3.1363847e-12
1.8966387e-11
8.4019993e-11
3.0333917e-10
9.4900457e-10
2.6729281e-09
6.9510004e-09
1.6984065e-08
3.9484782e-08
8.8156906e-08
1.9036684e-07
3.9976966e-07
8.1992997e-07
1.6480499e-06
3.2551101e-06
6.3312333e-06
1.2146251e-05
2.3009578e-05
4.3063015e-05
7.9593914e-05
0.00014505465
0.00025973662
0.00045422724
0.00076920871
0.0012490253
0.0019278334
0.0028138473
0.0038813531
0.0050751848
0.0063253907
0.0067611404
0.0072252999
0.0077834472
0.0084110618
0.009138356
0.0099908728
0.010970356
0.012028038
0.012898121
0.01306957
0.013235306
0.013410826
0.01361053
0.013836464
0.014083289
0.014346592
0.014620087
0.014894679
0.015161489
0.01539896
0.015603398
0.01574717
0.015758591
0.015627759
0.015317047
0.014827175
0.014127306
0.013175608
0.0119321
0.010427914
0.0087309557
0.0068593456
5.8053358e-17
1.1290588e-14
3.0072655e-13
3.0486482e-12
1.8435849e-11
8.1669899e-11
2.9485521e-10
9.2246418e-10
2.598179e-09
6.756612e-09
1.6509045e-08
3.8380157e-08
8.5689425e-08
1.8503425e-07
3.8855747e-07
7.9689271e-07
1.6016308e-06
3.1631243e-06
6.1515667e-06
1.1799802e-05
2.234945e-05
4.1820251e-05
7.7286074e-05
0.00014084436
0.00025224815
0.00044139721
0.00074836851
0.0012174764
0.0018839554
0.0027582939
0.0038176691
0.0050094076
0.0062627792
0.007117013
0.0076203845
0.0081751173
0.008832938
0.0096057952
0.010505619
0.011495891
0.012449551
0.012929596
0.013127055
0.013323621
0.013542675
0.013798262
0.014087951
0.014415111
0.014780071
0.015180833
0.015612089
0.016067618
0.01653948
0.017024965
0.017500493
0.017914575
0.018210102
0.018254372
0.018101223
0.017698349
0.016891584
0.015483329
0.013149544
0.0099144858
0.0070593216
5.5755135e-17
1.0843615e-14
2.8882141e-13
2.9279602e-12
1.7706043e-11
7.8437005e-11
2.8318376e-10
8.8595033e-10
2.4953337e-09
6.4891397e-09
1.5855386e-08
3.6860021e-08
8.2293593e-08
1.7769506e-07
3.7312602e-07
7.6518697e-07
1.5377493e-06
3.0365498e-06
5.9043855e-06
1.1323276e-05
2.1441717e-05
4.0111774e-05
7.4113786e-05
0.00013505584
0.00024194363
0.0004237068
0.00071952521
0.0011735417
0.0018222728
0.0026790944
0.003724971
0.004910933
0.0061696378
0.0074301601
0.0081865521
0.0088115492
0.0095177363
0.010326264
0.01122725
0.01214262
0.012701771
0.012952331
0.01317936
0.013413809
0.013685956
0.013997814
0.014356613
0.014768878
0.015238483
0.01576621
0.016348301
0.016979777
0.017658371
0.018381264
0.019136577
0.019878557
0.020524556
0.020883106
0.020945151
0.020761176
0.02004454
0.018475547
0.015024846
0.010462642
0.0065593318
5.2813634e-17
1.0271534e-14
2.7358399e-13
2.7734896e-12
1.6771929e-11
7.4298926e-11
2.6824371e-10
8.3920801e-10
2.3636698e-09
6.1466921e-09
1.5018434e-08
3.4913467e-08
7.7944861e-08
1.6829583e-07
3.5336215e-07
7.2457872e-07
1.4559311e-06
2.8744411e-06
5.5878311e-06
1.0713057e-05
2.0279378e-05
3.7924007e-05
7.0050428e-05
0.00012763565
0.00022871237
0.00040092043
0.00068217756
0.0011161973
0.0017408435
0.002572859
0.0035976623
0.0047703211
0.0060258884
0.0072931228
0.0085068545
0.0096097831
0.010481322
0.01131732
0.011900373
0.012339506
0.012677997
0.012957299
0.013218382
0.013499754
0.013821161
0.014189534
0.014616254
0.015109756
0.015676086
0.0163172
0.017028633
0.017803826
0.018639175
0.019039138
0.019735724
0.020836723
0.022379097
0.022947892
0.023143876
0.023035787
0.022276819
0.02039433
0.015916992
0.009919738
0.0055737374
4.9229526e-17
9.5744748e-15
2.5501779e-13
2.5852717e-12
1.5633718e-11
6.9256572e-11
2.5003826e-10
7.8224699e-10
2.2032141e-09
5.7293378e-09
1.3998354e-08
3.2540886e-08
7.2644156e-08
1.5683878e-07
3.2927135e-07
6.7508178e-07
1.356211e-06
2.676886e-06
5.2021196e-06
9.9696578e-06
1.8863583e-05
3.5259314e-05
6.5100121e-05
0.0001185884
0.00021254947
0.00037298527
0.00063611643
0.0010448442
0.0016383006
0.0024370059
0.0034316106
0.0045819477
0.0058257424
0.0070913616
0.0083095185
0.0094207954
0.010380907
0.011167195
0.011783223
0.01225788
0.012628829
0.01293857
0.013238176
0.013565963
0.013932634
0.014353782
0.014841649
0.015405657
0.016052753
0.01678464
0.017594194
0.018349097
0.018639903
0.019141387
0.019961299
0.021187498
0.022866811
0.024337978
0.024555259
0.024333134
0.023336354
0.021075085
0.015538525
0.0082242059
0.0043053644
4.5046124e-17
8.7608611e-15
2.3334708e-13
2.3655806e-12
1.4305169e-11
6.3370954e-11
2.2878793e-10
7.1575826e-10
2.0159175e-09
5.2421655e-09
1.2807632e-08
2.9771471e-08
6.6457145e-08
1.4346713e-07
3.0115832e-07
6.173317e-07
1.2398943e-06
2.4465316e-06
4.7525671e-06
9.1036602e-06
1.7215208e-05
3.2158396e-05
5.9340796e-05
0.00010805885
0.00019371039
0.00034031522
0.00058192581
0.00096013801
0.0015151044
0.0022714303
0.0032259077
0.0043443433
0.0055683384
0.0068272362
0.0080501791
0.009175661
0.010158548
0.010975578
0.011628428
0.012141969
0.012547793
0.012890777
0.01323105
0.013598275
0.014006007
0.014472452
0.015010358
0.0156292
0.016335715
0.0171301
0.018001497
0.018217172
0.018578201
0.019192363
0.020105382
0.021372722
0.02309755
0.024980586
0.025096532
0.024632123
0.023331107
0.020415966
0.013212697
0.0058786147
0.003242046
4.036597e-17
7.8506327e-15
2.0910293e-13
2.1198006e-12
1.2818857e-11
5.678644e-11
2.0501433e-10
6.4137553e-10
1.8063879e-09
4.6971828e-09
1.1475687e-08
2.6673856e-08
5.9537784e-08
1.285154e-07
2.6973123e-07
5.5279617e-07
1.1099705e-06
2.1893817e-06
4.2510894e-06
8.138479e-06
1.5379827e-05
2.8709036e-05
5.2939192e-05
9.6357056e-05
0.00017275232
0.00030385851
0.00052109143
0.00086415072
0.0013737393
0.0020786126
0.0029825564
0.0040587862
0.0052543475
0.006500973
0.0077273776
0.0088699627
0.0098810423
0.01073459
0.011428939
0.011983742
0.012428034
0.012808623
0.01318745
0.013586337
0.014028246
0.014529765
0.015103586
0.015758363
0.016499634
0.017324858
0.017799508
0.018036453
0.018495812
0.019174725
0.020115063
0.021352969
0.023208
0.024843824
0.024720845
0.023907954
0.022043443
0.018040332
0.0092697358
0.0037823342
0.0023510075
3.5346921e-17
6.8744953e-15
1.831033e-13
1.8562248e-12
1.1224934e-11
4.972527e-11
1.7952019e-10
5.6161165e-10
1.5817091e-09
4.1128318e-09
1.0047648e-08
2.3353176e-08
5.2121457e-08
1.1249374e-07
2.3606658e-07
4.8369701e-07
9.7094166e-07
1.9144199e-06
3.7153824e-06
7.1085815e-06
1.3423884e-05
2.5037946e-05
4.6133853e-05
8.3923999e-05
0.00015046804
0.00026497944
0.00045581002
0.00076009911
0.0012183635
0.0018631758
0.0027058784
0.0037285458
0.0048854812
0.0061124092
0.0073386357
0.0084985688
0.0095409959
0.010435539
0.011175699
0.011775803
0.012262535
0.01268286
0.013098319
0.013524832
0.013987818
0.014512447
0.0151063
0.015776318
0.016525946
0.01735001
0.017493584
0.017809028
0.018301652
0.018984437
0.019870196
0.021097532
0.02308711
0.023889688
0.023424548
0.022059055
0.019448713
0.013461302
0.005113812
0.0025807347
0.0017566906
3.0185037e-17
5.8705783e-15
1.5636372e-13
1.5851475e-12
9.5856572e-12
4.2463277e-11
1.5330156e-10
4.7958377e-10
1.3506642e-09
3.5119652e-09
8.5793952e-09
1.993947e-08
4.4498886e-08
9.6031054e-08
2.0148825e-07
4.1275815e-07
8.2830541e-07
1.6325623e-06
3.1668197e-06
6.0553055e-06
1.1426433e-05
2.1294643e-05
3.9204046e-05
7.1273055e-05
0.00012777993
0.00022527817
0.00038871162
0.00065197498
0.0010544093
0.0016315642
0.0024023727
0.0033590002
0.0044649934
0.0056620326
0.0068813686
0.008055866
0.0091302927
0.010068759
0.010858574
0.011508613
0.012041771
0.012502066
0.012949543
0.013402883
0.013887208
0.014418786
0.01501249
0.015674837
0.016406938
0.016971945
0.017130008
0.017465601
0.017921872
0.018510638
0.019284313
0.020588026
0.022344776
0.022133278
0.021172349
0.019078313
0.015464899
0.0073267531
0.0029184724
0.0018344487
0.001296495
2.5089076e-17
4.8794816e-15
1.2996557e-13
1.317532e-12
7.9673247e-12
3.5294153e-11
1.2741878e-10
3.9860917e-10
1.1225966e-09
2.9188821e-09
7.1303046e-09
1.6570788e-08
3.6978329e-08
7.9793129e-08
1.6739473e-07
3.4284898e-07
6.878326e-07
1.3552168e-06
2.627618e-06
5.02135e-06
9.4685625e-06
1.7631375e-05
3.2432332e-05
5.8921665e-05
0.00010561915
0.00018638762
0.00032254548
0.00054412071
0.00088812377
0.0013917155
0.0020807104
0.002958064
0.0039985381
0.0051521494
0.0063540306
0.0075365342
0.0086404512
0.0096236272
0.010465971
0.011170018
0.011753543
0.012254551
0.012730532
0.013202758
0.01369858
0.014233951
0.01481828
0.015456237
0.016145029
0.01646439
0.016619044
0.016879282
0.017219804
0.017667589
0.018419806
0.019801493
0.020313604
0.019614074
0.017911721
0.014992713
0.0092215994
0.0033419047
0.0018446896
0.001291989
0.00094150522
2.0257697e-17
3.9398437e-15
1.049381e-13
1.0638132e-12
6.433038e-12
2.8497415e-11
1.0288084e-10
3.2184399e-10
9.0639376e-10
2.3566872e-09
5.7568054e-09
1.3378238e-08
2.9852272e-08
6.441085e-08
1.351089e-07
2.7667746e-07
5.5495276e-07
1.0930751e-06
2.1184978e-06
4.0463062e-06
7.6249596e-06
1.4187399e-05
2.6075532e-05
4.7338454e-05
8.4830926e-05
0.00014980885
0.00025990935
0.00044082949
0.00072608245
0.0011526529
0.0017516583
0.0025366397
0.0034951566
0.00458823
0.0057575187
0.006936705
0.0080633689
0.0090888791
0.0099848672
0.010745449
0.011383037
0.011927457
0.012431279
0.012918846
0.013413944
0.013934525
0.014490135
0.015080552
0.015699668
0.01577785
0.015866245
0.015998932
0.016195452
0.016557233
0.017401715
0.018265257
0.017652378
0.016247172
0.01368069
0.0095999256
0.003752157
0.0017112884
0.0012493924
0.00089999887
0.00071416145
1.5858995e-17
3.0843551e-15
8.2152e-14
8.3281719e-13
5.0361664e-12
2.2309463e-11
8.0541074e-11
2.5195719e-10
7.0957008e-10
1.8449103e-09
4.5065768e-09
1.0472535e-08
2.3367492e-08
5.0415897e-08
1.0574383e-07
2.1651713e-07
4.3421122e-07
8.5505397e-07
1.6566587e-06
3.1628502e-06
5.9568598e-06
1.1076094e-05
2.0341447e-05
3.690133e-05
6.6099111e-05
0.00011677472
0.000203007
0.00034594126
0.00057461035
0.00092385948
0.0014277232
0.0021088562
0.0029682398
0.0039804693
0.0050970279
0.0062557565
0.0073927637
0.0084534851
0.0094008104
0.010219057
0.010913196
0.011506049
0.012034993
0.0125356
0.013027294
0.013523515
0.014032753
0.014553236
0.014940289
0.01487907
0.01485481
0.014845548
0.014934529
0.015337191
0.016146734
0.015597329
0.014274901
0.012002379
0.0087159919
0.0037487372
0.0015062454
0.0011070631
0.00085159643
0.00066605378
0.00061806103
1.2014387e-17
2.3366308e-15
6.223625e-14
6.3092022e-13
3.8152656e-12
1.6901066e-11
6.1015844e-11
1.9087621e-10
5.3755071e-10
1.3976461e-09
3.4140097e-09
7.933472e-09
1.7701642e-08
3.8190395e-08
8.0097723e-08
1.6399338e-07
3.2884436e-07
6.4746837e-07
1.254198e-06
2.3937672e-06
4.5065305e-06
8.3748486e-06
1.5370419e-05
2.7863791e-05
4.9883557e-05
8.8130422e-05
0.00015341545
0.00026239752
0.00043899956
0.00071411845
0.001121819
0.0016911795
0.0024356418
0.0033450578
0.0043842012
0.0054988735
0.0066266822
0.0077087826
0.0086996798
0.0095733319
0.010324884
0.010969328
0.011525254
0.012029163
0.012516488
0.0129787
0.013428671
0.013860163
0.01392071
0.013762842
0.01361351
0.013498439
0.013570116
0.013972177
0.013603779
0.012268594
0.010133776
0.0071753575
0.003289136
0.0013254862
0.00090275666
0.00071571256
0.00059931143
0.00055500311
0.00060561754
8.7942407e-18
1.7103571e-15
4.5555402e-14
4.6181786e-13
2.7926817e-12
1.2371196e-11
4.4662341e-11
1.3971791e-10
3.9347848e-10
1.0230568e-09
2.4990089e-09
5.8071924e-09
1.2957331e-08
2.7954654e-08
5.8629545e-08
1.2003734e-07
2.4069624e-07
4.7389028e-07
9.1789072e-07
1.751655e-06
3.296969e-06
6.1250071e-06
1.1236104e-05
2.0357486e-05
3.6425096e-05
6.4337522e-05
0.00011207085
0.00019216221
0.00032329116
0.00053111667
0.00084686199
0.0013021537
0.0019201885
0.0027057337
0.0036398189
0.0046805818
0.0057713956
0.0068521989
0.0078705862
0.0087900333
0.0095938538
0.010284493
0.010875325
0.011384175
0.011849987
0.012270079
0.012645836
0.012967798
0.012715319
0.01245743
0.012214176
0.012057609
0.012082183
0.011700526
0.010344195
0.0082662999
0.0055016227
0.0025665219
0.0011062854
0.00071598543
0.00058969405
0.00051514169
0.00050749947
0.00054680507
0.00064616342
6.2131765e-18
1.2083764e-15
3.218513e-14
3.2627671e-13
1.9730476e-12
8.7403632e-12
3.155453e-11
9.8713236e-11
2.7800203e-10
7.2282146e-10
1.7656483e-09
4.1030707e-09
9.1551752e-09
1.9752241e-08
4.1427984e-08
8.4822967e-08
1.7009495e-07
3.3491096e-07
6.4874395e-07
1.2381029e-06
2.3304155e-06
4.3291671e-06
7.9404328e-06
1.4382147e-05
2.5723234e-05
4.5419152e-05
7.9125221e-05
0.00013585033
0.00022939042
0.00037964428
0.0006128358
0.00095917143
0.0014468572
0.0020931341
0.002895398
0.0038283697
0.0048464518
0.0058930609
0.0069119856
0.0078574306
0.0087003652
0.0094300512
0.01005037
0.010568112
0.011002205
0.011367691
0.011644612
0.011735045
0.011360108
0.0110327
0.010732487
0.010459601
0.0099156934
0.0084805014
0.0064917271
0.003922844
0.0018159854
0.00083218596
0.00055607291
0.00048852209
0.00044611728
0.00045260239
0.00049978217
0.00056977649
0.000672793
4.2361404e-18
8.2387039e-16
2.1943794e-14
2.2245526e-13
1.3452263e-12
5.9592235e-12
2.1514215e-11
6.7304471e-11
1.895494e-10
4.9284784e-10
1.2039139e-09
2.7977739e-09
6.2429103e-09
1.3469767e-08
2.8253349e-08
5.7854146e-08
1.1603088e-07
2.285033e-07
4.4273056e-07
8.4517523e-07
1.5913292e-06
2.9570904e-06
5.4251178e-06
9.8272872e-06
1.7575414e-05
3.1026323e-05
5.4042965e-05
9.2821247e-05
0.00015701406
0.00026103232
0.0004250452
0.0006746716
0.0010380428
0.0015394675
0.002190816
0.0029839411
0.0038891954
0.0048595075
0.0058399797
0.0067787079
0.0076353442
0.0083852807
0.0090186064
0.0095347728
0.0099271666
0.010216639
0.010378906
0.010356208
0.0099214872
0.0095195143
0.0090316408
0.0082661398
0.0067280776
0.0047839838
0.0025604878
0.0011863163
0.00057826543
0.00041282965
0.00039321704
0.00038504818
0.00040572764
0.00045476934
0.00052960508
0.00061282963
0.0007184003
2.7904773e-18
5.4270868e-16
1.4455039e-14
1.4653815e-13
8.8614555e-13
3.9255696e-12
1.4172404e-11
4.4337233e-11
1.2486926e-10
3.246809e-10
7.9314607e-10
1.843269e-09
4.1132785e-09
8.8755555e-09
1.8618872e-08
3.8131564e-08
7.6491912e-08
1.5068104e-07
2.9205855e-07
5.5781309e-07
1.0509104e-06
1.9542738e-06
3.5882782e-06
6.505485e-06
1.1643091e-05
2.0562811e-05
3.5819769e-05
6.1517321e-05
0.00010410447
0.00017339726
0.00028369127
0.00045444398
0.00070957243
0.0010742197
0.0015685492
0.0021996468
0.0029555647
0.0038038548
0.0046974848
0.0055838069
0.0064143822
0.0071516531
0.0077707095
0.0082556275
0.0085868155
0.0087626188
0.0087935768
0.0086337182
0.0082799966
0.007613598
0.0066280192
0.0051568694
0.0032182613
0.0015589912
0.00074803967
0.00038107945
0.00029954657
0.00030648969
0.00032553583
0.00036263657
0.00041682295
0.00048295109
0.00056599549
0.00064237071
0.00075618128
1.7808293e-18
3.4634624e-16
9.2249261e-15
9.3517976e-14
5.6552508e-13
2.5052668e-12
9.0448525e-12
2.8296678e-11
7.9695492e-11
2.0722841e-10
5.0624891e-10
1.1765862e-09
2.6257629e-09
5.6664004e-09
1.1888484e-08
2.4352475e-08
4.8864356e-08
9.6293512e-08
1.8673516e-07
3.5688762e-07
6.7293856e-07
1.2527065e-06
2.3029807e-06
4.1811833e-06
7.4948621e-06
1.3258266e-05
2.3131985e-05
3.9775658e-05
6.7347902e-05
0.00011220079
0.00018380902
0.00029563437
0.00046547185
0.00071449157
0.0010639793
0.0015294869
0.002113886
0.0028018333
0.0035597575
0.0043408916
0.0050943473
0.0057729636
0.0063377348
0.0067563549
0.0069966619
0.0070382189
0.0069341901
0.0066244232
0.0059915663
0.0049787924
0.0036696304
0.0019297932
0.00092344537
0.00044902228
0.00024511732
0.00021746044
0.00023742321
0.00027222347
0.0003218474
0.00038082996
0.00044168124
0.00051898835
0.00060284849
0.00068013848
0.00078137203
1.1065322e-18
2.1520502e-16
5.7319847e-15
5.8108345e-14
3.513975e-13
1.5567067e-12
5.6203471e-12
1.7583639e-11
4.95247e-11
1.2878221e-10
3.1462557e-10
7.3127991e-10
1.6321303e-09
3.5225699e-09
7.3918191e-09
1.5144954e-08
3.0398725e-08
5.9930897e-08
1.1628929e-07
2.224304e-07
4.1985291e-07
7.8263474e-07
1.4412153e-06
2.6218342e-06
4.7103549e-06
8.3528034e-06
1.4609254e-05
2.5182269e-05
4.2744836e-05
7.1388039e-05
0.00011714604
0.00018862451
0.00029762007
0.00045955986
0.00069188727
0.0010110768
0.0014274395
0.0019390725
0.0025275533
0.0031579357
0.0037837786
0.0043543245
0.0048201683
0.0051338867
0.005266274
0.0052084738
0.004954602
0.0044110402
0.0034783297
0.0022580996
0.0010261431
0.00051489251
0.00026344025
0.00015458089
0.00016093224
0.00018591659
0.00022918285
0.00028621714
0.00030549135
0.0003294278
0.00036669405
0.00043143341
0.00053195126
0.00071265227
0.00082676383
6.7568489e-19
1.3141125e-16
3.5001397e-15
3.5483029e-14
2.1457816e-13
9.5060888e-13
3.43218e-12
1.0738194e-11
3.0245715e-11
7.8654203e-11
1.9217184e-10
4.4670061e-10
9.9709195e-10
2.152296e-09
4.5172728e-09
9.2577361e-09
1.8588531e-08
3.6664876e-08
7.1191188e-08
1.3629205e-07
2.5757045e-07
4.8088935e-07
8.8735237e-07
1.6183255e-06
2.9161807e-06
5.188669e-06
9.1071278e-06
1.575026e-05
2.6812356e-05
4.4897051e-05
7.3902612e-05
0.00011946189
0.00018921807
0.0002928915
0.0004421694
0.00065006264
0.00092761699
0.0012788974
0.0016963856
0.0021577525
0.0026262115
0.0030543515
0.0033883996
0.0035737769
0.0035983952
0.0034194289
0.0029649628
0.0022101911
0.0011820585
0.0005349542
0.00027685892
0.00014971659
9.9910723e-05
0.0001165782
0.00014752417
0.0001954117
0.00025663883
0.00022813981
0.00024222689
0.00026328657
0.00030022712
0.0003753528
0.00047067465
0.00067994645
0.00083049645
4.1342352e-19
8.0405064e-17
2.1415913e-15
2.1710744e-14
1.3129447e-13
5.8166728e-13
2.1001963e-12
6.5711818e-12
1.8509905e-11
4.8138965e-11
1.1762691e-10
2.7345451e-10
6.1047476e-10
1.3179985e-09
2.7668883e-09
5.6722085e-09
1.1393721e-08
2.2485479e-08
4.3690823e-08
8.3725193e-08
1.5843426e-07
2.9631541e-07
5.4801908e-07
1.0023786e-06
1.8127867e-06
3.2392353e-06
5.7126014e-06
9.9289851e-06
1.6982077e-05
2.853728e-05
4.7061249e-05
7.6125824e-05
0.00012077836
0.00018770815
0.00028508709
0.00042073662
0.00060172576
0.00083191329
0.0011096794
0.0014207795
0.0017376077
0.0020190142
0.0022098543
0.0022634579
0.0021434403
0.0017974975
0.0012085233
0.00054434075
0.00027101253
0.00014559546
8.483195e-05
6.7037685e-05
8.6560238e-05
0.00012062611
0.00017070245
0.00019661448
0.000179582
0.00018718069
0.00019756091
0.00021977793
0.00026232507
0.00033214061
0.00043113991
0.00061500384
0.00077843795
2.6375594e-19
5.1296841e-17
1.3662964e-15
1.3851204e-14
8.376631e-14
3.7112017e-13
1.3400594e-12
4.1931393e-12
1.1812438e-11
3.0724183e-11
7.5084215e-11
1.7458131e-10
3.8982246e-10
8.4182414e-10
1.7678046e-09
3.6255283e-09
7.2864415e-09
1.4389698e-08
2.7985174e-08
5.3690492e-08
1.0175208e-07
1.9067566e-07
3.5353937e-07
6.4877418e-07
1.178176e-06
2.1161214e-06
3.7551186e-06
6.5735361e-06
1.1328891e-05
1.9174921e-05
3.1791153e-05
5.1518705e-05
8.1505821e-05
0.00012587831
0.00018996885
0.0002800387
0.00040146082
0.00055625341
0.00073926262
0.00093862833
0.0011318089
0.0012773137
0.0013140737
0.0012268157
0.00096395554
0.00054398393
0.00025088516
0.00013463113
7.6336024e-05
4.9352447e-05
4.74521e-05
6.7868381e-05
0.00010300818
0.0001532022
0.00015729695
0.00014964713
0.00015417781
0.00015787444
0.00017018811
0.00019539984
0.00023421369
0.00029979558
0.00039143741
0.00058326455
0.0007786654
1.8656236e-19
3.6283812e-17
9.6642765e-16
9.7975772e-15
5.9253605e-14
2.6253261e-13
9.4803885e-13
2.9667828e-12
8.3587727e-12
2.1744714e-11
5.3150621e-11
1.2361259e-10
2.7609576e-10
5.9644401e-10
1.253059e-09
2.5712175e-09
5.1709006e-09
1.0220138e-08
1.9896895e-08
3.8224189e-08
7.2567358e-08
1.3629212e-07
2.5342372e-07
4.6672045e-07
8.5137059e-07
1.537636e-06
2.7468949e-06
4.8458791e-06
8.4216399e-06
1.4371997e-05
2.3998108e-05
3.9071503e-05
6.1856695e-05
9.5074326e-05
0.00014170149
0.0002049609
0.00028752202
0.00039007816
0.00050792511
0.00062443884
0.0007086541
0.00070976253
0.00063289643
0.00044276028
0.00022447685
0.00011661514
6.6710222e-05
4.0645378e-05
3.0005179e-05
3.5520019e-05
5.6194541e-05
9.1254279e-05
0.00014010169
0.00013486992
0.0001330119
0.00013535182
0.00013605746
0.00014197517
0.00015621126
0.00017948077
0.00021674196
0.0002786559
0.00037512503
0.00054630766
0.00075499797
1.5188522e-19
2.9539624e-17
7.8679953e-16
7.9766601e-15
4.8242798e-14
2.1375968e-13
7.7197763e-13
2.416092e-12
6.808241e-12
1.7714524e-11
4.3310194e-11
1.0075764e-10
2.251345e-10
4.865865e-10
1.0228692e-09
2.1004235e-09
4.2279344e-09
8.3657206e-09
1.6308892e-08
3.1383456e-08
5.9702105e-08
1.1241211e-07
2.0968347e-07
3.8768646e-07
7.1061353e-07
1.2908654e-06
2.3216526e-06
4.1265945e-06
7.2281923e-06
1.2426806e-05
2.0864102e-05
3.4022231e-05
5.3613781e-05
8.1358539e-05
0.00011866436
0.00016622289
0.00022313637
0.0002849767
0.00034037868
0.00036967451
0.00034937612
0.00028264232
0.00017478605
9.1104903e-05
5.2357653e-05
3.2852183e-05
2.2570363e-05
1.971828e-05
2.8345413e-05
4.7988206e-05
8.2808661e-05
0.0001295049
0.0001247545
0.00012628263
0.00012738552
0.00012651811
0.00012902251
0.00013642628
0.00014920053
0.00017108021
0.00020641681
0.00026511236
0.00034867592
0.00052632033
0.00076048844
1.3556826e-19
2.6366223e-17
7.022787e-16
7.1198774e-15
4.3062056e-14
1.9081183e-13
6.8914338e-13
2.1570196e-12
6.0788924e-12
1.5819199e-11
3.8684007e-11
9.0018455e-11
2.0120558e-10
4.3505287e-10
9.1502843e-10
1.8802384e-09
3.7878916e-09
7.5027864e-09
1.46453e-08
2.8226318e-08
5.3798121e-08
1.0152637e-07
1.8988918e-07
3.5220819e-07
6.4799478e-07
1.1821801e-06
2.1364374e-06
3.8165255e-06
6.7163819e-06
1.1582686e-05
1.9433297e-05
3.1442531e-05
4.8618173e-05
7.1320895e-05
9.8599784e-05
0.00012801205
0.00015543482
0.0001736472
0.00017379675
0.00015004258
0.00010620674
6.3943602e-05
3.6820702e-05
2.356983e-05
1.6289486e-05
1.3186877e-05
1.4021152e-05
2.3087649e-05
4.2599067e-05
7.4972274e-05
0.00012040535
0.00012513598
0.00012736908
0.0001270041
0.0001249028
0.00012504682
0.00012847939
0.00013486759
0.0001466449
0.00016711628
0.00019915019
0.00025537375
0.00034682702
0.00051051461
0.00075565817
1.1820194e-19
2.2988718e-17
6.1231845e-16
6.2078663e-15
3.7546305e-14
1.6637241e-13
6.0088469e-13
1.8808066e-12
5.3006269e-12
1.3794493e-11
3.373483e-11
7.8507951e-11
1.754964e-10
3.7951533e-10
7.9835445e-10
1.6408319e-09
3.3064002e-09
6.55093e-09
1.2791267e-08
2.4660963e-08
4.701744e-08
8.8753492e-08
1.6602579e-07
3.0793917e-07
5.6638007e-07
1.0325621e-06
1.863601e-06
3.3215319e-06
5.8183781e-06
9.9474302e-06
1.643044e-05
2.587992e-05
3.831479e-05
5.2511342e-05
6.5946868e-05
7.6111194e-05
7.9022649e-05
7.2437105e-05
5.6505953e-05
3.723735e-05
2.3368669e-05
1.4873778e-05
1.0711927e-05
8.6951179e-06
8.1099192e-06
1.0741747e-05
1.9903001e-05
3.8560054e-05
7.0058549e-05
0.00011213302
0.00013499789
0.00013539753
0.00013175581
0.00012792413
0.00012635284
0.00012716746
0.00012999022
0.00013654713
0.00014773535
0.00016671765
0.00019799687
0.00025145327
0.00033374489
0.00050313465
0.00076454297
9.0783358e-20
1.7656158e-17
4.7028143e-16
4.7678209e-15
2.8836235e-14
1.2777389e-13
4.6146234e-13
1.4443327e-12
4.0702447e-12
1.0591542e-11
2.5898771e-11
6.0262121e-11
1.3468107e-10
2.9116909e-10
6.1227894e-10
1.2577723e-09
2.5328347e-09
5.0138787e-09
9.7786646e-09
1.8823818e-08
3.5815797e-08
6.7428132e-08
1.2569291e-07
2.3206543e-07
4.2427384e-07
7.6740043e-07
1.3705709e-06
2.4087491e-06
4.1421583e-06
6.9066397e-06
1.1019364e-05
1.6549046e-05
2.2931087e-05
2.8673115e-05
3.2178324e-05
3.1839032e-05
2.7214515e-05
1.9978446e-05
1.3301617e-05
8.7307757e-06
6.2494699e-06
5.2412086e-06
4.9165535e-06
5.7980558e-06
8.6666349e-06
1.7537008e-05
3.605184e-05
6.6780774e-05
0.00010537737
0.00014748665
0.00014991817
0.0001404145
0.00013398648
0.00013054605
0.00012897762
0.00012959109
0.00013324899
0.00014000841
0.00015044545
0.00016850995
0.00019643038
0.00024985758
0.00033516075
0.0005022353
0.00076984775
5.8546369e-20
1.1386476e-17
3.0328323e-16
3.0747062e-15
1.8595551e-14
8.2393137e-14
2.9754499e-13
9.3118738e-13
2.6237686e-12
6.826147e-12
1.6686914e-11
3.8813364e-11
8.6702315e-11
1.8732163e-10
3.9356919e-10
8.0758224e-10
1.6238799e-09
3.2083993e-09
6.2418053e-09
1.1976525e-08
2.2692099e-08
4.2489913e-08
7.8653793e-08
1.4391811e-07
2.6010123e-07
4.6355913e-07
8.1243741e-07
1.3938329e-06
2.324077e-06
3.7258373e-06
5.6546529e-06
7.9551857e-06
1.0108285e-05
1.1339799e-05
1.1020497e-05
9.2573456e-06
6.8287147e-06
4.8342561e-06
3.5724566e-06
2.8316285e-06
2.8932375e-06
3.3339276e-06
4.3322593e-06
7.5851114e-06
1.6962438e-05
3.5170296e-05
6.3337039e-05
9.8949175e-05
0.00013671638
0.0001706233
0.00015351971
0.00014299403
0.00013658418
0.00013238987
0.00013122727
0.00013311639
0.00013706605
0.00014386818
0.00015412982
0.00017195671
0.00020042501
0.0002518844
0.00033416777
0.00050105634
0.00077683487
3.1514153e-20
6.1290668e-18
1.6324874e-16
1.6549911e-15
1.0008837e-14
4.4344238e-14
1.6012379e-13
5.0104697e-13
1.4114977e-12
3.6712252e-12
8.9711801e-12
2.0856308e-11
4.6558291e-11
1.0050097e-10
2.1090994e-10
4.3211345e-10
8.6715117e-10
1.7088113e-09
3.3131332e-09
6.3291077e-09
1.1923499e-08
2.2161858e-08
4.0635008e-08
7.3445315e-08
1.3065654e-07
2.2817728e-07
3.8959658e-07
6.4632763e-07
1.0321289e-06
1.5653327e-06
2.2130659e-06
2.8486242e-06
3.2502953e-06
3.2218276e-06
2.852701e-06
2.3315306e-06
1.8691061e-06
1.5745787e-06
1.5820691e-06
1.8097722e-06
2.4157556e-06
3.6702139e-06
7.5085918e-06
1.6532932e-05
3.3516693e-05
6.0049326e-05
9.2827382e-05
0.00012674517
0.00016217099
0.0001687064
0.00015378196
0.00014367857
0.00013697008
0.00013419946
0.00013417043
0.00013615558
0.00014048658
0.00014811309
0.00015901481
0.00017671683
0.00020261234
0.00025413046
0.00033516334
0.00051072778
0.00078902457
1.4317871e-20
2.7846222e-18
7.4168121e-17
7.5188605e-16
4.546942e-15
2.0143715e-14
7.2729059e-14
2.2754021e-13
6.4085325e-13
1.6662889e-12
4.0700558e-12
9.4566079e-12
2.1093972e-11
4.5486873e-11
9.5329215e-11
1.9496495e-10
3.9034247e-10
7.6688433e-10
1.4810228e-09
2.8147403e-09
5.2675449e-09
9.7064713e-09
1.7599414e-08
3.135261e-08
5.4739941e-08
9.3308721e-08
1.5440945e-07
2.4604764e-07
3.7321571e-07
5.3063354e-07
6.9375491e-07
8.1708091e-07
8.6940279e-07
8.6764235e-07
8.3396049e-07
8.1438381e-07
8.4266944e-07
9.7356773e-07
1.3528501e-06
2.0931221e-06
3.6296469e-06
7.4716687e-06
1.5624081e-05
3.1728009e-05
5.6574686e-05
8.6468194e-05
0.00011732366
0.00014995921
0.00018112909
0.00016459099
0.00015157477
0.00014275977
0.00013811905
0.00013587663
0.00013593025
0.00013882799
0.00014418397
0.00015261233
0.00016348633
0.00018163
0.00020833416
0.00025987236
0.00034291047
0.00051681731
0.0007985731
5.6512598e-21
1.0990869e-18
2.9273728e-17
2.9675646e-16
1.7945017e-15
7.9492426e-15
2.8697031e-14
8.9764719e-14
2.5275119e-13
6.5694866e-13
1.6038936e-12
3.7242332e-12
8.3003919e-12
1.7879364e-11
3.7417258e-11
7.6382603e-11
1.5255748e-10
2.9878273e-10
5.7467736e-10
1.0864801e-09
2.0195337e-09
3.6890653e-09
6.6142965e-09
1.161493e-08
1.9910528e-08
3.3161178e-08
5.3315472e-08
8.2055586e-08
1.1968884e-07
1.6386304e-07
2.1111189e-07
2.601373e-07
3.0792305e-07
3.575084e-07
4.2535558e-07
5.4030061e-07
7.685617e-07
1.2179504e-06
2.0136358e-06
3.5676815e-06
7.026609e-06
1.4431725e-05
2.974537e-05
5.306627e-05
8.0297796e-05
0.00010860931
0.00013906014
0.00017227754
0.00017120073
0.00015785492
0.00014783579
0.00014155942
0.00013742149
0.00013614554
0.00013763654
0.00014146655
0.00014733533
0.00015649198
0.00016867398
0.00018757333
0.00021337961
0.00026463148
0.00034506505
0.00052944269
0.00081187505
2.2408816e-21
4.3581793e-19
1.1607746e-17
1.1766882e-16
7.1152232e-16
3.1516939e-15
1.1376726e-14
3.5582336e-14
1.0017387e-13
2.603191e-13
6.3539056e-13
1.4749099e-12
3.2859306e-12
7.0746459e-12
1.4796953e-11
3.0184944e-11
6.0237404e-11
1.178585e-10
2.2643114e-10
4.2754295e-10
7.9362147e-10
1.4477233e-09
2.592691e-09
4.5502673e-09
7.8054969e-09
1.3045471e-08
2.1171453e-08
3.326685e-08
5.0649639e-08
7.5455342e-08
1.0941243e-07
1.5533061e-07
2.199905e-07
3.1585499e-07
4.6182631e-07
7.2944753e-07
1.1726314e-06
1.929407e-06
3.3921209e-06
6.5454566e-06
1.3470468e-05
2.8133212e-05
4.9660286e-05