/*--------------------------------*- C++ -*----------------------------------*\
  =========                 |
  \\      /  F ield         | OpenFOAM: The Open Source CFD Toolbox
   \\    /   O peration     | Website:  https://openfoam.org
    \\  /    A nd           | Version:  13
     \\/     M anipulation  |
\*---------------------------------------------------------------------------*/
FoamFile
{
    format      ascii;
    class       surfaceScalarField;
    location    "0.1";
    object      phi;
}
// * * * * * * * * * * * * * * * * * * * * * * * * * * * * * * * * * * * * * //

dimensions      [1 0 -1 0 0 0 0];

internalField   nonuniform List<scalar> 
999
(
16.8998
16.9587
17.0176
17.0764
17.1353
17.1941
17.253
17.3117
17.3705
17.4292
17.4879
17.5465
17.6051
17.6636
17.7221
17.7805
17.8389
17.8972
17.9555
18.0137
18.0718
18.1298
18.1879
18.2458
18.3038
18.3617
18.4195
18.4774
18.5352
18.593
18.6508
18.7086
18.7663
18.824
18.8817
18.9393
18.9969
19.0544
19.1119
19.1693
19.2266
19.2839
19.3411
19.3982
19.4553
19.5123
19.5694
19.6264
19.6834
19.7405
19.7976
19.8547
19.9119
19.9691
20.0263
20.0835
20.1409
20.1981
20.2552
20.3128
20.37
20.4268
20.485
20.5427
20.5982
20.6568
20.7169
20.771
20.8256
20.8855
20.9494
20.9969
21.0473
21.116
21.2015
21.2332
21.2801
21.3631
21.443
21.4555
21.523
21.6244
21.658
21.6838
21.7715
21.8806
21.8665
21.8977
22.0049
22.1371
22.1043
22.1076
22.2176
22.387
22.3732
22.317
22.4055
22.6281
22.6683
22.5363
22.5922
22.828
22.9348
22.8284
22.8602
23.0565
23.178
23.0541
23.0828
23.3422
23.4406
23.2094
23.2627
23.6422
23.7164
23.3644
23.4191
23.9159
24.0153
23.5413
23.5435
24.1287
24.3332
23.81
23.6929
24.2141
24.5895
24.2572
23.9071
24.1274
24.7799
24.8471
24.1784
24.0987
24.7271
25.1442
24.9149
24.3974
24.4296
25.2188
25.4817
24.9286
24.6532
24.9434
25.5917
25.6041
24.95
24.9416
25.686
25.9557
25.3566
25.1358
25.5891
26.133
25.9713
25.4072
25.4999
26.2607
26.4105
25.7248
25.6377
26.3162
26.6605
26.1373
25.86
26.2972
26.8549
26.6494
26.0975
26.2284
27.0289
27.1733
26.4042
26.2735
26.9292
27.4289
27.1965
26.5613
26.5093
27.3696
27.7569
27.5039
26.8425
26.7684
27.5744
28.0204
27.7977
27.1162
27.0249
27.7635
28.2862
28.271
27.4346
27.3333
28.015
28.5457
28.3539
27.6929
27.7445
28.6156
28.8333
28.0818
27.9094
28.5609
29.0373
28.6298
28.1622
28.4456
29.2093
29.2014
28.4217
28.3975
29.2858
29.608
28.9118
28.5905
28.9745
29.7443
29.7613
28.8974
28.8002
29.6208
30.0989
29.7625
29.1035
29.1
30.0841
30.4246
29.7935
29.3387
29.464
30.4482
30.7001
29.8472
29.5731
29.9229
30.779
30.8878
29.9418
29.7978
30.4827
31.1052
30.947
30.1241
30.0602
31.0088
31.4318
30.9535
30.3483
30.4031
31.4295
31.725
30.9141
30.5742
30.916
31.7898
31.867
30.9152
30.7982
31.6349
32.138
31.7001
31.0811
31.2266
32.2153
32.411
31.4564
31.2607
31.9361
32.587
32.3654
31.5534
31.542
32.5843
32.9424
32.1913
31.7463
31.947
32.9805
33.2111
32.2144
31.9622
32.2895
33.2754
33.4751
32.4304
32.2113
32.4439
33.5136
33.7865
32.8325
32.4921
32.5681
33.7108
34.0384
33.2528
32.7651
32.8376
33.9708
34.2896
33.4282
33.0083
33.229
34.2935
34.5146
33.4683
33.227
33.7559
34.6147
34.6232
33.5717
33.4437
34.3443
34.9367
34.6198
33.7627
33.7122
34.8204
35.2503
34.6423
33.9795
33.9773
35.1447
35.5306
34.8402
34.2209
34.1736
35.3283
35.7617
35.3106
34.4925
34.3719
35.3193
35.9538
35.8681
34.7796
34.6413
35.3533
36.1668
36.2014
35.0495
34.8964
35.62
36.4174
36.3808
35.2678
35.1347
36.0511
36.6969
36.4309
35.4678
35.4015
36.5292
36.996
36.3735
35.6681
35.7326
36.9371
37.2803
36.3187
35.8667
36.1029
37.2571
37.5106
36.3654
36.0784
36.5604
37.4833
37.7774
37.5264
36.4481
36.3247
36.3386
37.611
37.9663
38.1462
36.855
36.6422
36.5676
37.7829
38.2718
38.2378
37.0141
36.8675
37.1417
38.3558
38.682
37.6957
37.1763
37.0954
38.307
38.8139
38.5379
37.4688
37.3279
37.9714
38.9405
39.1555
37.8729
37.6231
37.7396
39.0452
39.4082
38.5596
37.9017
37.8275
39.0638
39.5651
39.127
38.1543
38.0291
39.1077
39.7516
39.5172
38.3914
38.2482
39.1921
39.9484
39.8507
38.6262
38.472
39.2679
40.1437
40.1694
38.8687
38.7001
39.3469
40.3373
40.4512
39.1154
38.9213
39.4852
40.5382
40.6875
39.3441
39.1327
39.6614
40.7437
40.911
39.5613
39.3378
39.7981
40.9385
41.1605
39.8204
39.5524
39.8057
41.0918
41.4202
40.2745
39.7909
39.7638
41.1206
41.5668
40.9716
40.0315
39.9005
40.9651
41.677
41.5669
40.2783
40.1107
40.8438
41.8242
41.933
40.5357
40.3328
40.8053
41.9745
42.1979
40.8538
40.5536
40.7621
42.0982
42.4523
41.2492
40.7527
40.7892
42.123
42.5589
41.9853
41.0167
40.8158
41.8713
42.6606
42.6906
41.3069
41.1122
41.2797
42.6461
43.0096
42.3484
41.3747
41.2431
42.0033
42.9347
43.3347
42.1078
41.5264
41.4294
42.413
43.1968
43.5042
41.9923
41.6855
41.6793
43.0815
43.5439
43.1298
41.9448
41.8185
42.4642
43.5345
43.8177
42.3112
42.0232
42.1798
43.5919
43.9994
42.8755
42.2105
42.2138
43.5253
44.0261
43.5778
42.4474
42.2339
43.343
44.1055
44.1321
42.6471
42.4311
43.033
44.1721
44.4254
43.0547
42.6631
42.6794
44.1331
44.5447
43.9732
42.8641
42.6923
43.613
44.5082
44.7712
43.3041
42.9443
42.9657
44.3797
44.7781
44.5255
43.1721
43.008
43.7605
44.7167
45.0675
44.0327
43.2656
43.2645
44.5702
44.9441
45.244
43.843
43.4183
43.9238
44.684
44.9021
45.2755
44.5904
43.5995
43.8482
44.7898
44.9178
45.2598
45.1114
43.7386
43.5169
44.7098
45.2539
45.5515
44.975
43.8504
43.6182
44.6045
45.4412
45.7447
44.8053
43.937
43.7528
44.7616
45.5676
45.9272
44.4507
43.9783
43.9225
45.2353
45.7829
45.7789
44.2334
44.0521
44.2633
45.6702
46.0562
45.0986
44.232
44.0815
45.2202
45.9684
45.9465
44.4166
44.234
44.6548
45.9326
46.2584
44.8232
44.3711
44.4289
45.8737
46.3002
45.3848
44.4937
44.4066
45.69
46.2887
45.9079
44.6231
44.4503
45.4432
46.3039
46.2868
44.7519
44.5693
45.1301
46.3016
46.5705
45.0466
44.6928
44.8755
46.259
46.6377
45.855
44.8345
44.6866
45.7395
46.4923
46.7933
45.2388
44.8529
44.8258
46.2297
46.6947
46.5221
45.039
44.8721
45.3066
46.5748
46.9168
45.6483
45.0318
44.9138
46.2909
46.8526
46.5
45.148
44.9915
45.7127
46.7761
46.9918
45.3778
45.0963
45.3244
46.7157
47.081
45.9676
45.2234
45.1211
46.4626
47.023
46.7149
45.3403
45.1641
46.1163
46.9791
47.1304
45.5617
45.3266
46.0189
46.8822
47.2039
46.8536
45.4798
45.3547
46.4906
46.9386
47.2457
46.9976
45.5259
45.3467
46.0331
47.0023
47.3132
47.0247
45.5728
45.3976
45.8547
47.0638
47.4022
46.784
45.5926
45.4163
46.1471
47.1979
47.5241
46.1358
45.5794
45.474
46.8022
47.3769
47.2909
45.7342
45.5458
45.9191
47.2394
47.6085
46.3905
45.6751
45.5563
46.8204
47.4517
47.4327
45.8356
45.6369
46.0262
47.3245
47.6762
46.6193
45.7829
45.6424
46.8824
47.5106
47.6641
46.0091
45.7545
45.9347
47.336
47.6922
47.2379
45.9136
45.7392
46.4119
47.4976
47.8505
46.6554
45.912
45.7483
46.928
47.6497
47.8263
46.1857
45.9016
45.917
47.4134
47.8284
47.3911
46.0691
45.8816
46.4486
47.6802
47.995
46.5662
46.0412
45.9104
47.2912
47.8848
47.704
46.203
46.0082
46.3674
47.7525
48.1007
46.8668
46.1639
46.0062
47.3145
47.9689
47.9151
46.3272
46.1207
46.4828
47.8265
48.1713
47.2924
46.2875
46.093
46.9446
47.9457
48.2574
46.8065
46.2723
46.1095
47.3857
48.0691
48.0823
46.455
46.2328
46.3625
47.8728
48.2485
47.3109
46.3581
46.1627
47.2248
48.0931
48.1065
46.4888
46.261
46.5243
47.9689
48.3059
47.0013
46.3514
46.2151
47.6202
48.1969
47.7929
46.4356
46.2304
46.9797
48.0921
48.2004
46.5678
46.2907
46.8908
48.0787
48.1383
46.5464
46.2912
47.2407
48.1407
47.8505
46.4541
46.3005
47.6387
48.2228
47.4862
46.4273
46.4637
47.9145
48.2343
46.8902
46.4032
47.0731
48.0583
47.7689
46.5291
46.5666
47.8815
48.0895
46.7313
46.4488
47.515
48.0885
47.1688
46.4849
47.0547
48.0102
47.6369
46.5148
46.6628
47.9378
48.002
46.5885
46.3947
47.6566
48.1644
47.0895
46.3422
46.326
47.8793
48.2557
47.7392
46.4424
46.2079
46.9948
48.1026
48.1256
46.5253
46.2401
47.0114
48.1007
48.044
46.4873
46.2194
47.209
48.1283
47.9053
46.443
46.2034
47.3905
48.1558
47.7696
46.418
46.203
47.5317
48.1801
47.6375
46.399
46.2279
47.6833
48.2075
47.4411
46.3781
46.2229
47.7229
48.2164
47.4565
46.4021
46.1567
47.338
48.1513
47.938
46.4576
46.1964
47.1426
48.1216
47.9968
46.4725
46.2015
47.213
48.1319
47.9252
46.4538
46.1956
47.2876
48.1431
47.8898
46.4476
46.2069
47.4898
48.1538
47.5849
46.4578
46.2219
46.6226
48.0408
48.3395
47.2169
46.385
46.1999
47.6578
48.2057
47.5666
46.4183
46.3586
47.8917
48.2234
46.9558
46.3544
46.9766
48.0647
47.8285
46.4897
46.4322
47.8437
48.1436
46.8966
46.3608
47.0893
48.0772
47.8335
46.4729
46.1769
47.189
48.1489
47.995
46.5388
46.2955
46.347
47.979
48.3171
47.3346
46.3968
46.1771
47.3264
48.144
47.9745
46.4812
46.1751
47.5905
48.2384
47.3867
46.3294
46.7076
47.9234
47.8
46.8493
46.7097
47.1358
)
;

boundaryField
{
    sides
    {
        type            calculated;
        value           nonuniform List<scalar> 2(47.2873 -16.8409);
    }
    empty
    {
        type            empty;
    }
}


// ************************************************************************* //
