/*--------------------------------*- C++ -*----------------------------------*\
  =========                 |
  \\      /  F ield         | OpenFOAM: The Open Source CFD Toolbox
   \\    /   O peration     | Website:  https://openfoam.org
    \\  /    A nd           | Version:  13
     \\/     M anipulation  |
\*---------------------------------------------------------------------------*/
FoamFile
{
    format      ascii;
    class       volSymmTensorField;
    location    "13.095719";
    object      UPrime2Mean;
}
// * * * * * * * * * * * * * * * * * * * * * * * * * * * * * * * * * * * * * //

dimensions      [0 2 -2 0 0 0 0];

internalField   nonuniform List<symmTensor> 
17140
(
(1.5324123e-12 -7.5452574e-11 -3.2444463e-27 4.0640384e-09 6.0015475e-26 1.6353155e-40)
(1.9761937e-10 -2.1872039e-09 -1.8047074e-27 3.8448043e-08 1.3901311e-26 1.4530076e-42)
(1.7541887e-09 -1.0819652e-08 3.1346068e-25 1.1618793e-07 -1.4993575e-24 6.3343059e-39)
(8.1974052e-09 -3.3436654e-08 -6.9586698e-25 2.4900782e-07 2.3385038e-24 7.6553595e-39)
(2.729565e-08 -8.0882633e-08 1.4284502e-25 4.5082779e-07 -3.6189685e-25 1.0462283e-40)
(7.453988e-08 -1.6910332e-07 -7.5443921e-25 7.3793236e-07 1.504021e-24 1.1206477e-39)
(1.7861025e-07 -3.2074006e-07 -1.9396574e-24 1.1290354e-06 3.1230899e-24 3.1763595e-39)
(3.8986992e-07 -5.6707976e-07 1.3902719e-24 1.6452324e-06 -1.8399294e-24 7.5707448e-40)
(7.9334391e-07 -9.503837e-07 6.4869603e-24 2.3097259e-06 -7.1460226e-24 8.1110997e-39)
(1.5280631e-06 -1.5264794e-06 2.2164727e-23 3.1472627e-06 -2.051647e-23 4.879741e-38)
(2.815219e-06 -2.3674495e-06 -4.4948965e-23 4.1831708e-06 3.5212645e-23 1.0730104e-37)
(4.9982016e-06 -3.564145e-06 5.396461e-23 5.4418982e-06 -3.5976976e-23 8.5220579e-38)
(8.5981851e-06 -5.2281029e-06 1.0988486e-23 6.9449556e-06 -6.2614229e-24 1.9965336e-39)
(1.438921e-05 -7.4922556e-06 -8.1776272e-23 8.7082287e-06 3.9961177e-23 6.3863367e-38)
(2.3496667e-05 -1.0509698e-05 1.1836949e-23 1.0738696e-05 -4.972931e-24 7.8725836e-40)
(3.7522331e-05 -1.4449705e-05 -1.212134e-22 1.3030704e-05 4.3859181e-23 4.9396684e-38)
(5.8697353e-05 -1.9490318e-05 5.7855627e-24 1.556217e-05 -1.8051013e-24 6.8413975e-41)
(9.0062167e-05 -2.5807382e-05 -1.6521922e-24 1.8291347e-05 4.4490615e-25 3.4253788e-42)
(0.00013566888 -3.3560803e-05 -1.4797988e-22 2.1155016e-05 3.4389609e-23 1.7229271e-38)
(0.00020080085 -4.2880309e-05 2.4065899e-22 2.4069087e-05 -4.8269752e-23 2.888769e-38)
(0.00029220595 -5.385492e-05 -1.4422892e-22 2.693268e-05 2.4958725e-23 6.670854e-39)
(0.000418349 -6.6531719e-05 3.3942294e-23 2.9636287e-05 -5.0647568e-24 2.4145293e-40)
(0.00058971007 -8.0929797e-05 3.0585522e-22 3.2073901e-05 -3.9327806e-23 1.2996386e-38)
(0.00081920968 -9.707288e-05 -3.6931744e-22 3.4157648e-05 4.089673e-23 1.2782906e-38)
(0.0011229658 -0.00011504201 -7.0513319e-22 3.5832046e-05 6.7209629e-23 3.2001239e-38)
(0.0015209243 -0.00013503137 6.7306831e-22 3.7084856e-05 -5.5206074e-23 2.0399384e-38)
(0.0020376193 -0.0001573079 3.8913414e-21 3.7950622e-05 -2.7470145e-22 4.8574615e-37)
(0.0027068527 -0.00018231465 5.3507829e-22 3.8491152e-05 -3.251889e-23 6.6599706e-39)
(0.0035711479 -0.00021059029 -5.4345447e-21 3.8766512e-05 2.8434633e-22 5.0790645e-37)
(0.0046829064 -0.00024256719 -1.4612088e-21 3.8850892e-05 6.5800657e-23 2.7543938e-38)
(0.0061124068 -0.00027872382 -5.9570959e-21 3.8791547e-05 2.3057126e-22 3.4894325e-37)
(0.0079469442 -0.00031942899 8.90859e-21 3.8614253e-05 -2.9568408e-22 6.0309898e-37)
(0.010295714 -0.00036482036 -2.6251863e-21 3.8329405e-05 7.4468156e-23 4.0942812e-38)
(0.013293273 -0.00041482687 -1.4114043e-21 3.7933869e-05 3.4050822e-23 9.3689865e-39)
(0.017102918 -0.00046904311 -1.5556413e-20 3.7414215e-05 3.1727851e-22 9.0921706e-37)
(0.021919605 -0.00052666138 7.6168451e-21 3.6753759e-05 -1.3026025e-22 1.7615517e-37)
(0.027971304 -0.00058634942 -1.275584e-20 3.5938e-05 1.8111089e-22 4.0276954e-37)
(0.035517939 -0.0006460727 -9.545743e-21 3.4960474e-05 1.1100058e-22 1.857994e-37)
(0.044846444 -0.0007030486 -4.8082061e-21 3.3839098e-05 4.4952821e-23 3.9211157e-38)
(0.056259597 -0.00075337408 1.5929798e-20 3.2620661e-05 -1.1648456e-22 3.6209372e-37)
(0.070057679 -0.00079231921 3.2675395e-20 3.1417045e-05 -1.7938894e-22 1.2940249e-36)
(0.086512492 -0.00081403254 3.2009365e-20 3.041099e-05 -1.229575e-22 1.066634e-36)
(0.10583496 -0.00081276176 1.4979094e-20 2.990006e-05 -3.4943106e-23 2.0301814e-37)
(0.12814753 -0.00078354902 -7.7612285e-20 3.0280379e-05 7.3336893e-23 4.7895821e-36)
(0.15348079 -0.00072419107 -5.9918892e-20 3.2016005e-05 -2.16543e-23 2.5442144e-36)
(0.18177094 -0.00063843651 1.541202e-20 3.5480899e-05 2.463283e-23 1.5227759e-37)
(0.21293663 -0.00053277572 -1.0870273e-19 4.0790496e-05 -3.0173758e-22 6.9585288e-36)
(0.24691798 -0.00040852676 -3.7946174e-20 4.7621687e-05 -1.4800839e-22 7.9205292e-37)
(0.28341541 -0.00025934436 3.9346631e-20 5.5064328e-05 1.9641152e-22 8.1007337e-37)
(0.32221092 -7.1765844e-05 9.7045736e-20 6.1944107e-05 5.871998e-22 4.7765379e-36)
(0.36238281 0.00017376373 -5.9577769e-20 6.7228935e-05 -4.2179091e-22 1.7808509e-36)
(0.40222122 0.00050577642 -3.7083398e-20 7.1691338e-05 -3.0013679e-22 6.9739859e-37)
(0.43892676 0.00096598242 9.4190223e-20 7.6028718e-05 8.6582668e-22 4.65865e-36)
(0.46923777 0.0015899843 4.2786409e-20 7.8374653e-05 4.4591092e-22 1.0222445e-36)
(0.48864145 0.0023733759 2.8843678e-20 7.8357425e-05 3.4121137e-22 5.1030875e-37)
(0.49383133 0.0032402935 -2.1113222e-20 8.0711189e-05 -2.8325381e-22 3.098359e-37)
(0.48049865 0.0041441393 5.173377e-20 8.6746784e-05 7.9036961e-22 2.2198186e-36)
(0.44571318 0.0049976186 3.8412184e-20 9.5622884e-05 6.7214793e-22 1.5263461e-36)
(0.38889101 0.0055826021 8.2963557e-21 0.0001068934 1.6664962e-22 9.4552946e-38)
(0.31487309 0.0056756978 -1.797337e-20 0.00011724142 -4.1222486e-22 6.214811e-37)
(0.23496716 0.0051336752 -1.1424185e-20 0.00011927927 -2.9544448e-22 3.7760929e-37)
(0.16255364 0.0041220291 -3.3541125e-20 0.0001085963 -9.5926036e-22 5.138481e-36)
(0.10468228 0.0029141717 -3.8226526e-21 8.4743787e-05 -1.1867811e-22 1.1011757e-37)
(0.065994539 0.0018801532 2.4718058e-20 5.7123671e-05 8.1641044e-22 7.7770187e-36)
(0.039748916 0.0011548401 -1.4229512e-20 3.6875074e-05 -5.3311893e-22 4.647898e-36)
(1.2249758e-10 -2.863985e-09 4.7413874e-27 6.6985185e-08 -9.7602692e-26 1.3243351e-41)
(1.9611588e-09 -3.5201018e-08 -1.6993627e-24 6.3334899e-07 2.7498785e-23 1.7434926e-37)
(8.8292231e-09 -1.295728e-07 3.0072571e-24 1.9114151e-06 -3.981411e-23 1.3806574e-37)
(2.752059e-08 -3.3392604e-07 -1.3949948e-24 4.0849718e-06 1.5337587e-23 1.0261043e-38)
(7.0355089e-08 -7.1580724e-07 -4.5138905e-24 7.3633892e-06 4.185507e-23 4.3788173e-38)
(1.5922878e-07 -1.3717374e-06 1.2833835e-23 1.1980116e-05 -1.0150593e-22 1.59877e-37)
(3.3150992e-07 -2.4357763e-06 -1.9215302e-23 1.8189048e-05 1.3061506e-22 1.7372675e-37)
(6.4898634e-07 -4.0899194e-06 2.3665756e-24 2.6258083e-05 -1.3899374e-23 1.3456061e-39)
(1.211281e-06 -6.5763917e-06 -1.0134068e-23 3.6458646e-05 5.1633382e-23 1.3115261e-38)
(2.1755047e-06 -1.0211161e-05 -2.3139765e-25 4.905046e-05 1.026014e-24 3.7467986e-42)
(3.7844656e-06 -1.5397765e-05 -6.0854407e-23 6.4260751e-05 2.3538078e-22 1.4617121e-37)
(6.4063428e-06 -2.2639995e-05 1.2744126e-22 8.2257555e-05 -4.3087026e-22 3.6897334e-37)
(1.0589251e-05 -3.2551196e-05 1.3744772e-23 0.00010311761 -4.0681729e-23 2.5160562e-39)
(1.7134468e-05 -4.585716e-05 -1.7569998e-22 0.00012679048 4.5578532e-22 2.4492058e-37)
(2.7191998e-05 -6.3388838e-05 6.9371374e-23 0.00015306258 -1.5784998e-22 2.3071382e-38)
(4.2381603e-05 -8.606127e-05 5.6247401e-23 0.00018152694 -1.1231875e-22 9.2838056e-39)
(6.4940766e-05 -0.00011483587 -4.5259973e-22 0.00021156707 7.9328416e-22 3.7236951e-37)
(9.7899156e-05 -0.00015066654 1.858039e-21 0.00024236548 -2.8582088e-21 3.9339313e-36)
(0.00014527619 -0.00019443513 -1.4563732e-21 0.0002729473 1.9655838e-21 1.5328777e-36)
(0.00021229752 -0.00024689036 2.1695017e-21 0.00030226679 -2.5675993e-21 2.1834115e-36)
(0.00030562871 -0.0003086136 -3.9564883e-21 0.00032933601 4.1033071e-21 4.7211523e-36)
(0.00043363334 -0.0003800426 1.1884205e-21 0.00035338317 -1.0792772e-21 2.8075156e-37)
(0.00060667952 -0.00046158196 5.9516212e-22 0.00037401061 -4.7296715e-22 4.7100297e-38)
(0.00083757312 -0.00055382063 -2.3453693e-21 0.00039130942 1.6300058e-21 4.968592e-37)
(0.0011423147 -0.00065785893 1.008079e-20 0.00040588879 -6.1251192e-21 6.343004e-36)
(0.0015407974 -0.00077555815 1.782645e-21 0.00041879833 -9.469484e-22 1.3937264e-37)
(0.0020573816 -0.0009095252 -1.0852642e-20 0.00043130555 5.0427883e-21 3.7000746e-36)
(0.0027256202 -0.0010634378 1.4184469e-20 0.00044442673 -5.7697256e-21 4.6049415e-36)
(0.0035878902 -0.0012415694 -2.2557697e-21 0.00045894361 8.0392539e-22 8.6439935e-38)
(0.0046960883 -0.0014484244 -2.5393652e-20 0.00047560995 7.9336334e-21 8.2336845e-36)
(0.0061197918 -0.001688942 3.0080598e-21 0.00049466916 -8.241023e-22 8.8345129e-38)
(0.0079453864 -0.0019678018 2.62007e-20 0.0005160507 -6.2932775e-21 5.1836513e-36)
(0.01028073 -0.0022893369 7.4853002e-22 0.00053951349 -1.5756703e-22 3.2915054e-39)
(0.013258621 -0.002657355 -2.4886172e-20 0.00056466948 4.5844489e-21 2.9037037e-36)
(0.017040046 -0.0030747378 3.1139625e-20 0.00059099215 -5.0146458e-21 3.6408511e-36)
(0.021816881 -0.003542933 -1.5659543e-20 0.00061781769 2.2012899e-21 7.4446854e-37)
(0.027813159 -0.004061219 2.0478415e-20 0.00064434065 -2.5082164e-21 1.041011e-36)
(0.035283634 -0.0046256475 7.2069869e-20 0.00066961774 -7.6776834e-21 1.0630296e-35)
(0.044508514 -0.005227877 1.7774375e-20 0.00069267019 -1.6428003e-21 5.3831265e-37)
(0.055781737 -0.0058537869 7.6036131e-20 0.00071266633 -6.0728101e-21 8.2945363e-36)
(0.069392139 -0.0064825924 -1.0592894e-19 0.00072933481 7.2697497e-21 1.3699362e-35)
(0.085597013 -0.0070869896 -1.0540133e-19 0.00074360719 6.1672204e-21 1.1655982e-35)
(0.10458827 -0.0076358547 -1.9383093e-20 0.0007584919 9.5663473e-22 3.4212258e-37)
(0.12646498 -0.0081003686 1.6487719e-19 0.00077966967 -6.7212223e-21 2.1867431e-35)
(0.15122427 -0.008461727 -8.2482098e-20 0.00081505155 2.714939e-21 4.8785103e-36)
(0.17876677 -0.008719705 -2.9963593e-20 0.00087287619 7.6581617e-22 5.8282664e-37)
(0.20894359 -0.008891273 1.6640179e-20 0.00095783527 -3.0787543e-22 1.6603162e-37)
(0.24161134 -0.0089874201 5.340391e-20 0.0010629303 -6.3755017e-22 1.5991812e-36)
(0.27659851 -0.0090002858 -2.6585879e-20 0.0011638024 1.5226771e-22 3.7816915e-37)
(0.31347921 -0.0088519464 4.854619e-20 0.0012337813 9.0569616e-24 1.2261123e-36)
(0.35125282 -0.0083781876 2.9115623e-19 0.001254413 1.7166398e-21 4.3809273e-35)
(0.38808484 -0.0073906243 1.3690058e-20 0.0012241816 1.5910617e-22 9.8517632e-38)
(0.42122971 -0.0057458854 -6.0005356e-20 0.0011599439 -1.0398837e-21 1.9692549e-36)
(0.44729359 -0.0033579055 1.2798982e-19 0.001076654 3.0097465e-21 9.5962373e-36)
(0.46257172 -0.00028714383 -1.0308243e-19 0.0010028454 -3.1213646e-21 6.885368e-36)
(0.46336581 0.0033560226 2.7071199e-19 0.00095830444 1.0243204e-20 5.4547618e-35)
(0.4460301 0.0074533169 6.9944098e-20 0.00094889934 3.2596009e-21 4.3689367e-36)
(0.40814611 0.011572132 -1.7345843e-19 0.00099362213 -9.866769e-21 3.4128636e-35)
(0.34975236 0.014907542 2.5283824e-20 0.0011035979 1.7345946e-21 9.711221e-37)
(0.27623435 0.016355987 2.3800551e-20 0.0012458037 1.9409985e-21 1.2509761e-36)
(0.19918615 0.01522206 3.8159353e-21 0.0013054226 3.6014891e-22 4.9958158e-38)
(0.13179294 0.012239359 -3.9606423e-20 0.0012046794 -4.2059824e-21 8.7772926e-36)
(0.08013519 0.0084542815 5.8580667e-20 0.00093208526 6.8264843e-21 3.3268752e-35)
(0.04675872 0.0052954997 1.3088076e-20 0.0006308653 1.6499449e-21 2.9814831e-36)
(0.02536275 0.003048952 1.5534448e-20 0.00039344474 2.2372928e-21 8.2350361e-36)
(1.040823e-09 -1.4866258e-08 7.1571652e-25 2.1234653e-07 -9.7672936e-24 4.0252943e-38)
(1.1848537e-08 -1.5425398e-07 -1.2087312e-24 2.0084905e-06 1.5069278e-23 1.5927222e-38)
(4.2113399e-08 -5.0522893e-07 -5.6992842e-25 6.06325e-06 6.5143232e-24 1.126565e-39)
(1.0686643e-07 -1.1765361e-06 8.341844e-25 1.2961243e-05 -8.722973e-24 1.0128882e-39)
(2.2942533e-07 -2.3142624e-06 -5.8365736e-24 2.336796e-05 5.5826381e-23 2.3786411e-38)
(4.4648636e-07 -4.1174265e-06 -6.0262514e-25 3.8024877e-05 5.2692815e-24 1.3150545e-40)
(8.1478702e-07 -6.8522667e-06 -1.0414951e-23 5.7737967e-05 8.3126972e-23 2.1473525e-38)
(1.420809e-06 -1.0869322e-05 -1.4899318e-23 8.3357181e-05 1.0834383e-22 2.4928811e-38)
(2.3948399e-06 -1.6623375e-05 1.5945791e-22 0.00011574334 -1.0542175e-21 1.6652877e-36)
(3.9309287e-06 -2.4695092e-05 -1.8447303e-22 0.00015572003 1.1064734e-21 1.3275538e-36)
(6.3147883e-06 -3.5812851e-05 1.134349e-22 0.00020400794 -6.1598306e-22 3.0400948e-37)
(9.9621919e-06 -5.0872358e-05 2.1213705e-22 0.00026114073 -1.0407857e-21 6.5257731e-37)
(1.5470873e-05 -7.0950454e-05 -5.3389761e-22 0.00032736371 2.3618309e-21 2.5653932e-36)
(2.3689261e-05 -9.7308317e-05 -8.3472132e-23 0.0004025209 3.3228621e-22 3.9284057e-38)
(3.5805398e-05 -0.00013137816 4.0525833e-22 0.00048594149 -1.4488222e-21 5.8509807e-37)
(5.3459002e-05 -0.00017472769 3.4887168e-22 0.00057634469 -1.1178666e-21 2.7607076e-37)
(7.8878723e-05 -0.00022899858 -5.0452615e-22 0.00067178929 1.4459888e-21 3.7037232e-37)
(0.00011504498 -0.00029581944 2.2679724e-21 0.00076970155 -5.8020015e-21 4.837314e-36)
(0.0001658774 -0.00037670388 -1.6570385e-21 0.00086701528 3.7758925e-21 1.682519e-36)
(0.00023644528 -0.00047295651 1.0079178e-21 0.00096044901 -2.041466e-21 4.091108e-37)
(0.00033320214 -0.00058562652 -4.1574011e-21 0.0010469201 7.469004e-21 4.6203897e-36)
(0.00046425437 -0.0007155606 -1.3146466e-21 0.0011240532 2.0907461e-21 3.1005333e-37)
(0.00063968638 -0.0008636037 3.3117174e-21 0.0011906892 -4.6536467e-21 1.3371784e-36)
(0.00087200644 -0.0010309796 -5.9745705e-21 0.0012472555 7.4061697e-21 2.9982387e-36)
(0.0011768946 -0.0012198582 -2.7987718e-21 0.0012958546 3.0566268e-21 4.5998434e-37)
(0.0015740436 -0.0014338402 3.9674699e-21 0.0013399978 -3.8143437e-21 6.5738652e-37)
(0.0020873698 -0.0016778449 2.6390372e-20 0.0013838967 -2.2326805e-20 2.1004344e-35)
(0.0027497277 -0.0019587598 1.3881676e-20 0.001430999 -1.0335344e-20 4.2674665e-36)
(0.0036030377 -0.0022845534 -7.9949296e-21 0.0014838717 5.2394307e-21 1.0575602e-36)
(0.0046979822 -0.0026636894 9.8232892e-21 0.0015448913 -5.6665348e-21 1.2071625e-36)
(0.0061023073 -0.0031054182 -7.0053889e-21 0.0016148936 3.5565786e-21 4.7256801e-37)
(0.0079002084 -0.0036186384 -4.5071199e-20 0.0016937038 2.0130299e-20 1.519212e-35)
(0.010196298 -0.0042117296 1.7062762e-20 0.0017805654 -6.6998626e-21 1.7134475e-36)
(0.013119138 -0.0048922199 5.7367471e-20 0.0018741958 -1.9787386e-20 1.5399007e-35)
(0.016824103 -0.0056661096 -2.1461642e-20 0.0019728375 6.4955273e-21 1.7340062e-36)
(0.021495659 -0.0065369026 -3.3585992e-20 0.0020742065 8.9113177e-21 3.4426398e-36)
(0.027348189 -0.0075041873 6.4749878e-20 0.0021754086 -1.5041917e-20 1.0482972e-35)
(0.034623871 -0.0085617576 2.1896222e-20 0.0022729857 -4.4474667e-21 9.9103148e-37)
(0.043586467 -0.0096952387 -4.2928457e-20 0.002363121 7.6061688e-21 3.185763e-36)
(0.054508619 -0.010879678 -1.8879239e-20 0.0024423437 2.9093357e-21 5.2018581e-37)
(0.067651628 -0.012077434 9.9001863e-20 0.0025087106 -1.3210392e-20 1.2190292e-35)
(0.083237132 -0.013238578 -3.0377297e-20 0.0025641566 3.4801272e-21 9.9239539e-37)
(0.10141211 -0.014305342 -4.7398942e-20 0.0026174241 4.626889e-21 2.1040725e-36)
(0.12221995 -0.01522345 -1.3536654e-19 0.0026864462 1.1090688e-20 1.5145534e-35)
(0.14558888 -0.015957457 2.7300748e-19 0.0027973836 -1.8353702e-20 5.5221612e-35)
(0.17134859 -0.016507641 -1.8584741e-19 0.0029783647 9.9370014e-21 2.3274299e-35)
(0.19929839 -0.01691502 -4.887003e-20 0.0032435937 1.9881068e-21 1.4855298e-36)
(0.22925495 -0.017216615 -1.9933365e-19 0.00356714 5.6401077e-21 2.3322169e-35)
(0.26098245 -0.017383005 -2.4383704e-19 0.0038732647 4.0848414e-21 3.3507098e-35)
(0.29397544 -0.017260807 -1.2512259e-20 0.004070712 7.8677404e-23 8.607643e-38)
(0.32717704 -0.01656466 5.2761727e-20 0.0040954732 2.4852068e-22 1.5365402e-36)
(0.35872262 -0.014968368 -3.8163145e-19 0.0039461042 -5.9517193e-21 8.257307e-35)
(0.38594972 -0.012234842 -1.578818e-19 0.0036801967 -4.1757539e-21 1.4869632e-35)
(0.40571809 -0.0082769496 -1.5500572e-19 0.0033692667 -5.8976541e-21 1.5526593e-35)
(0.4147725 -0.0031789066 -4.780701e-20 0.0030853694 -2.4358399e-21 1.6548285e-36)
(0.40988826 0.0028790314 -3.3969385e-19 0.002881728 -2.2216606e-20 9.7579178e-35)
(0.38832223 0.0096189383 1.2126627e-19 0.0027887125 9.9910919e-21 1.5185249e-35)
(0.3483429 0.016366457 -3.2088075e-20 0.0028605791 -3.2981676e-21 1.3880238e-36)
(0.29059685 0.021778421 -2.2292127e-19 0.0031397438 -2.8153645e-20 9.2400622e-35)
(0.22092527 0.023991812 -7.2148209e-20 0.0035366106 -1.1030453e-20 1.4481528e-35)
(0.1509893 0.021899404 6.7221875e-20 0.0036893894 1.2130907e-20 2.0433397e-35)
(0.093118801 0.016959083 1.75329e-19 0.0033586353 3.6356232e-20 2.4122029e-34)
(0.051668034 0.011128646 -4.1071051e-20 0.0025617508 -9.5787262e-21 2.4604106e-35)
(0.026565452 0.0064818866 -4.7246772e-20 0.0017059621 -1.2317682e-20 6.393165e-35)
(0.01219672 0.003327901 -1.3640214e-20 0.0010145745 -4.2094863e-21 1.1729239e-35)
(4.0765471e-09 -4.1455595e-08 -4.7235866e-24 4.2157858e-07 4.6948847e-23 4.5143679e-37)
(4.2018557e-08 -4.0944742e-07 1.6358068e-23 3.9899352e-06 -1.5570876e-22 8.2798661e-37)
(1.3748035e-07 -1.2871566e-06 -1.0032966e-23 1.2051671e-05 9.137255e-23 1.0825809e-37)
(3.208695e-07 -2.875835e-06 1.6128944e-24 2.5777923e-05 -1.4014172e-23 1.2795191e-39)
(6.3507793e-07 -5.4340517e-06 -4.4212954e-23 4.6505158e-05 3.6576728e-22 5.0013653e-37)
(1.1417263e-06 -9.2970491e-06 6.1127262e-23 7.5726952e-05 -4.8037604e-22 5.355122e-37)
(1.9286897e-06 -1.4894708e-05 -1.2091806e-22 0.00011507359 9.0008475e-22 1.2324788e-36)
(3.1205425e-06 -2.2772388e-05 7.2931427e-23 0.00016627382 -5.1256774e-22 2.7290667e-37)
(4.8931091e-06 -3.3614712e-05 3.5112022e-22 0.00023109228 -2.3219359e-21 3.946067e-36)
(7.493338e-06 -4.8270715e-05 -1.0594737e-22 0.00031123722 6.5690871e-22 2.2823669e-37)
(1.1266193e-05 -6.7778493e-05 -5.0302169e-22 0.0004082333 2.9138067e-21 3.3120396e-36)
(1.6690635e-05 -9.3386369e-05 1.9048037e-22 0.00052325662 -1.0270848e-21 3.088275e-37)
(2.4427187e-05 -0.00012656643 1.5729767e-23 0.00065693391 -7.866326e-23 1.3804521e-39)
(3.5379814e-05 -0.00016901465 -7.5879532e-22 0.00080911487 3.5065825e-21 2.1161757e-36)
(5.0775189e-05 -0.0002226314 2.9173185e-21 0.00097863848 -1.2412286e-20 2.0715586e-35)
(7.2262033e-05 -0.00028947548 -2.1960845e-21 0.0011631289 8.5708225e-21 7.8065319e-36)
(0.00010203345 -0.00037168855 -2.5604768e-23 0.0013588725 9.1325677e-23 7.083205e-40)
(0.000142974 -0.00047139142 1.8142356e-21 0.0015608436 -5.8918403e-21 2.3846463e-36)
(0.00019883336 -0.000590566 -5.6093515e-21 0.0017629503 1.6525242e-20 1.53546e-35)
(0.00027442826 -0.00073095118 3.2134206e-21 0.0019585576 -8.5562878e-21 3.4132965e-36)
(0.00037587882 -0.00089400395 5.7958706e-21 0.0021412989 -1.389809e-20 7.5721942e-36)
(0.00051089053 -0.001080989 2.8260752e-21 0.0023061047 -6.0817821e-21 1.2377114e-36)
(0.00068910459 -0.0012932593 -1.6748528e-20 0.0024502675 3.224176e-20 3.0190449e-35)
(0.00092256113 -0.0015327628 -1.042817e-20 0.0025742687 1.7904376e-20 8.2189427e-36)
(0.0012264283 -0.0018027905 7.9786311e-21 0.0026820515 -1.2186594e-20 3.4237059e-36)
(0.0016200109 -0.0021087354 -5.4763937e-21 0.0027805565 7.4257726e-21 1.1627812e-36)
(0.0021266138 -0.0024577922 2.3974554e-20 0.0028784615 -2.8818084e-20 1.6318457e-35)
(0.0027779147 -0.0028600025 -7.9941047e-21 0.0029834496 8.5100285e-21 1.3478666e-36)
(0.0036149897 -0.0033268326 2.4852792e-20 0.0031006803 -2.341344e-20 9.8210836e-36)
(0.004686802 -0.0038704685 -1.6110411e-20 0.0032351878 1.3422107e-20 3.1538464e-36)
(0.0060580873 -0.0045041476 1.137362e-20 0.0033890788 -8.3734894e-21 1.215906e-36)
(0.0078097144 -0.0052407844 -4.7365372e-20 0.0035622243 3.0790698e-20 1.652136e-35)
(0.01004131 -0.0060924547 7.6889648e-21 0.0037531844 -4.4094856e-21 3.4499925e-37)
(0.012874889 -0.0070700198 -4.5676071e-20 0.0039593223 2.308864e-20 9.7312498e-36)
(0.016457147 -0.0081821453 4.9032621e-20 0.0041769294 -2.1825028e-20 9.0615521e-36)
(0.020961191 -0.0094338465 1.753168e-20 0.0044010539 -6.8662566e-21 9.4310209e-37)
(0.026586512 -0.01082442 -2.4310966e-19 0.0046253461 8.3648977e-20 1.4959267e-34)
(0.033556009 -0.012344656 -7.0254075e-20 0.0048420834 2.1213494e-20 1.0377644e-35)
(0.042108532 -0.013973384 6.4168033e-20 0.0050426259 -1.6966288e-20 7.2698693e-36)
(0.052484816 -0.015673777 -6.9116264e-20 0.0052187698 1.5956528e-20 7.1490383e-36)
(0.064905791 -0.017390471 1.939016e-20 0.0053654597 -3.8915019e-21 4.8146765e-37)
(0.079542886 -0.01904998 1.315379e-19 0.005485658 -2.2804035e-20 1.9201424e-35)
(0.096482939 -0.020567904 -6.5724291e-21 0.0055970265 9.7527275e-22 4.2076683e-38)
(0.11570087 -0.021866294 -5.0780483e-20 0.0057372663 6.3602364e-21 2.2235064e-36)
(0.13705197 -0.022899154 2.6164301e-20 0.0059628994 -2.6893555e-21 5.3477348e-37)
(0.16030977 -0.023680669 -1.3844728e-20 0.0063350431 1.1630056e-21 1.3475649e-37)
(0.18524938 -0.024289724 -4.1371678e-20 0.0068816117 2.6499906e-21 1.1321714e-36)
(0.21168 -0.024795457 6.5507261e-19 0.0075411125 -2.9947623e-20 2.7027707e-34)
(0.23936798 -0.025153411 -7.4524284e-20 0.0081479052 2.0945123e-21 3.3904537e-36)
(0.26779189 -0.025117196 6.9208667e-20 0.0085034525 -8.3168532e-22 2.8910832e-36)
(0.29583411 -0.024258262 -6.4523178e-19 0.0084766073 -2.5042313e-21 2.5424311e-34)
(0.3215915 -0.022126243 3.4574919e-19 0.008077326 6.8147283e-21 7.5695045e-35)
(0.34251405 -0.018444342 2.7415419e-19 0.0074402697 9.9334593e-21 5.0671837e-35)
(0.35579033 -0.013167147 2.4790588e-19 0.0067284422 1.3378431e-20 4.5529983e-35)
(0.35872103 -0.0064526138 2.2193904e-19 0.0060867046 1.635626e-20 4.1552863e-35)
(0.34885659 0.0014468261 3.1681795e-19 0.0056106026 3.0555132e-20 1.0063853e-34)
(0.32427628 0.010151399 -5.6222883e-19 0.0053584648 -6.9386527e-20 3.9552343e-34)
(0.28393189 0.018791568 2.9797292e-19 0.0054360839 4.6510022e-20 1.4756209e-34)
(0.2290005 0.025572551 3.7502496e-19 0.0059349487 7.3380224e-20 3.3526616e-34)
(0.16580708 0.028008331 -2.1929441e-19 0.0066838514 -5.2950068e-20 1.7877442e-34)
(0.10596287 0.024814497 -5.3400363e-20 0.006935685 -1.5513494e-20 1.8095055e-35)
(0.059966588 0.018299365 -3.4238424e-20 0.0062135108 -1.1655526e-20 1.3724457e-35)
(0.029785874 0.011255551 1.2446269e-19 0.0046502924 4.8654127e-20 3.5554287e-34)
(0.013301593 0.0060078684 6.3122875e-20 0.003018558 2.8172533e-20 1.9187971e-34)
(0.0051569527 0.0027298096 -1.8146887e-21 0.0017217547 -9.79834e-22 3.7250572e-37)
(1.0791405e-08 -8.4656361e-08 5.4962434e-24 6.6411443e-07 -4.2528285e-23 2.2382859e-37)
(1.0681972e-07 -8.1972503e-07 -3.8842867e-23 6.2905558e-06 2.9362308e-22 1.7874437e-36)
(3.3715706e-07 -2.5320542e-06 5.2583536e-23 1.9016199e-05 -3.8769704e-22 1.1882357e-36)
(7.5711414e-07 -5.551676e-06 -2.8764089e-23 4.0710525e-05 2.0645413e-22 1.6973875e-37)
(1.440004e-06 -1.0288577e-05 -1.4110788e-23 7.3515848e-05 9.8425063e-23 2.2160503e-38)
(2.4841885e-06 -1.7252961e-05 1.5893371e-22 0.00011983839 -1.0752025e-21 1.6415976e-36)
(4.0212542e-06 -2.7074586e-05 -5.1416215e-23 0.00018232233 3.365433e-22 1.0536573e-37)
(6.2267973e-06 -4.0524019e-05 -1.3706525e-22 0.00026379617 8.6563029e-22 4.7536843e-37)
(9.334864e-06 -5.8535908e-05 -1.303897e-23 0.00036718237 7.9212679e-23 2.8008056e-39)
(1.3656905e-05 -8.2232294e-05 -1.3610327e-22 0.00049536055 7.9278534e-22 2.0232271e-37)
(1.9606564e-05 -0.00011294396 2.3263267e-22 0.00065097529 -1.2947888e-21 3.9719068e-37)
(2.7731888e-05 -0.0001522267 -1.9641658e-22 0.00083618226 1.0408215e-21 1.9213395e-37)
(3.8756921e-05 -0.00020186844 -8.7621918e-22 0.0010523329 4.4038881e-21 2.6127572e-36)
(5.3634924e-05 -0.0002638819 -3.0755984e-23 0.0012996084 1.4603785e-22 2.2095867e-39)
(7.3615879e-05 -0.0003404771 9.7506365e-22 0.0015766307 -4.3559736e-21 1.5318938e-36)
(0.00010033126 -0.00043400876 8.3147802e-22 0.0018801028 -3.479914e-21 7.7001091e-37)
(0.00013589923 -0.00054689612 -8.6036359e-22 0.0022045561 3.3584949e-21 5.7120809e-37)
(0.00018305455 -0.00068152034 9.9138814e-23 0.0025423132 -3.5930838e-22 5.2705126e-39)
(0.00024530694 -0.00084011401 2.4159131e-21 0.0028837854 -8.0918733e-21 2.1782283e-36)
(0.00032713457 -0.0010246762 3.5231952e-21 0.0032182172 -1.0853958e-20 3.2368665e-36)
(0.00043422222 -0.0012369652 -4.8002668e-21 0.0035349201 1.353749e-20 4.2182602e-36)
(0.00057375749 -0.0014786367 -5.7463924e-21 0.0038249218 1.4765768e-20 4.2690118e-36)
(0.00075480868 -0.0017515972 9.1610435e-21 0.004082771 -2.1351615e-20 7.7208222e-36)
(0.00098881213 -0.0020586016 -1.3366007e-20 0.0043080638 2.8136504e-20 1.1802739e-35)
(0.0012902778 -0.0024041089 -2.715476e-20 0.0045061536 5.1431335e-20 3.5357875e-35)
(0.0016778498 -0.0027952548 7.4568348e-20 0.0046876412 -1.2664847e-19 1.9587046e-34)
(0.0021743615 -0.0032416452 -4.7527937e-20 0.0048666685 7.2190824e-20 5.920209e-35)
(0.002809721 -0.0037560953 8.1007913e-20 0.0050570375 -1.0981095e-19 1.2964716e-34)
(0.0036235257 -0.0043533086 -1.1572742e-19 0.0052673701 1.3976501e-19 2.0207704e-34)
(0.0046631015 -0.0050490538 1.4694358e-19 0.0055062426 -1.5786188e-19 2.517935e-34)
(0.0059888398 -0.0058599073 -1.7196406e-19 0.0057781747 1.6410175e-19 2.696757e-34)
(0.0076773745 -0.0068025415 3.2604953e-20 0.0060834724 -2.7603108e-20 7.6690955e-36)
(0.0098218201 -0.0078921736 1.264014e-19 0.0064199481 -9.4826645e-20 9.2007355e-35)
(0.012535664 -0.0091424056 -7.9704384e-20 0.0067832252 5.2926907e-20 2.95047e-35)
(0.015954317 -0.010563854 2.7762876e-20 0.0071669045 -1.6300437e-20 2.914789e-36)
(0.020236175 -0.01216228 8.991618e-21 0.0075623086 -4.6626572e-21 2.5134564e-37)
(0.025561675 -0.013935862 1.2270299e-19 0.0079581921 -5.6145801e-20 3.8721818e-35)
(0.032129279 -0.01587151 4.4072327e-20 0.0083407043 -1.7770025e-20 4.1723248e-36)
(0.040146825 -0.017940355 4.8749181e-20 0.0086941432 -1.727901e-20 4.3088488e-36)
(0.049816357 -0.020093049 5.2600913e-20 0.0090033377 -1.6341132e-20 4.2804164e-36)
(0.061311741 -0.022256218 -2.9097468e-19 0.0092583358 7.8876165e-20 1.1286976e-34)
(0.074748805 -0.024333659 1.3778597e-19 0.0094631873 -3.2384424e-20 2.2050897e-35)
(0.090152551 -0.026217082 2.3554404e-20 0.0096478228 -4.7701743e-21 5.6514157e-37)
(0.10743495 -0.02781176 -2.8825167e-19 0.0098783535 4.9328824e-20 7.6059807e-35)
(0.12640063 -0.02907546 -1.5402762e-19 0.010255529 2.1934556e-20 1.9691591e-35)
(0.14681247 -0.030060279 7.899862e-20 0.010887134 -9.1090302e-21 4.7855351e-36)
(0.16848556 -0.030904063 2.9666364e-19 0.011813673 -2.6511223e-20 6.3388134e-35)
(0.19129402 -0.03170498 -1.317955e-19 0.012907956 8.596183e-21 1.1999971e-35)
(0.21503108 -0.03236912 3.8882062e-19 0.013870158 -1.6122765e-20 1.0221565e-34)
(0.23911248 -0.032514209 2.108916e-19 0.014352501 -4.0802775e-21 3.0075337e-35)
(0.26227741 -0.031549247 2.8669307e-19 0.014150564 5.6457447e-22 5.6870864e-35)
(0.28252796 -0.028927629 7.4810877e-19 0.013318091 1.7934538e-20 4.0655163e-34)
(0.29742322 -0.024394568 -5.5337396e-19 0.012112133 -2.5816025e-20 2.4027551e-34)
(0.30453197 -0.01800898 1.6989033e-19 0.0108216 1.2186775e-20 2.5221921e-35)
(0.30178995 -0.010038469 -2.6885757e-19 0.0096781019 -2.6697099e-20 7.3351966e-35)
(0.28757349 -0.00082579518 -2.3013506e-19 0.0088267825 -3.0390481e-20 6.5128275e-35)
(0.26081591 0.0091727861 -7.8893663e-20 0.0083489949 -1.355575e-20 9.8030384e-36)
(0.22122182 0.018965597 -6.0850364e-19 0.0084034052 -1.3426721e-19 7.9993664e-34)
(0.17052305 0.026381902 -1.3317095e-19 0.0091491164 -3.7533248e-20 5.7072917e-35)
(0.11559471 0.028480478 2.3702867e-19 0.010300326 8.4077827e-20 2.9536121e-34)
(0.067747947 0.024209824 6.6842024e-20 0.010603906 2.9053238e-20 4.1964441e-35)
(0.034379089 0.016775331 -3.58865e-20 0.0093197002 -1.8543067e-20 2.3382074e-35)
(0.014974235 0.0095376818 -5.1912899e-20 0.006812807 -3.108122e-20 9.9961577e-35)
(0.0058173019 0.0046278672 -5.5601664e-20 0.0042876769 -3.7853633e-20 2.4239075e-34)
(0.0020500811 0.0018889888 2.7952331e-21 0.0023553492 2.2521468e-21 1.4098106e-36)
(2.2349551e-08 -1.4197758e-07 2.4775273e-23 9.0192739e-07 -1.5593718e-22 2.0779704e-36)
(2.1689009e-07 -1.3619354e-06 1.836562e-23 8.5521668e-06 -1.1405688e-22 1.8753046e-37)
(6.7229669e-07 -4.1712316e-06 -2.4380564e-23 2.5880665e-05 1.4916565e-22 1.2298218e-37)
(1.4798214e-06 -9.0600196e-06 -1.2870269e-22 5.5470926e-05 7.7487576e-22 1.6772713e-36)
(2.7553771e-06 -1.662365e-05 9.4617765e-23 0.00010030004 -5.5990129e-22 5.0369212e-37)
(4.6466193e-06 -2.7581307e-05 -1.7616068e-22 0.00016373438 1.0231124e-21 1.0439822e-36)
(7.3413179e-06 -4.2794894e-05 9.6192529e-23 0.00024950591 -5.4734738e-22 1.9557013e-37)
(1.1077758e-05 -6.3287922e-05 2.840779e-23 0.00036165216 -1.5804102e-22 1.110279e-38)
(1.6158128e-05 -9.0264642e-05 -1.9680685e-22 0.00050440954 1.0680104e-21 3.5604889e-37)
(2.296538e-05 -0.00012512692 -5.142278e-22 0.0006820444 2.7150813e-21 1.6557361e-36)
(3.198459e-05 -0.00016948697 -3.1080503e-23 0.00089860917 1.5921998e-22 4.1779429e-39)
(4.3829952e-05 -0.00022517279 1.2191131e-21 0.001157611 -6.0410768e-21 4.4905923e-36)
(5.9278967e-05 -0.00029422293 -2.0127959e-21 0.0014615889 9.6163339e-21 8.6143401e-36)
(7.9315766e-05 -0.00037886649 3.8688954e-21 0.001811607 -1.7758213e-20 2.2523639e-35)
(0.00010518602 -0.00048148462 -1.2015042e-21 0.0022066928 5.2782121e-21 1.5434502e-36)
(0.00013846677 -0.00060455155 3.0299207e-21 0.002643281 -1.2687305e-20 6.993946e-36)
(0.0001811551 -0.00075055567 -4.3441343e-21 0.0031147642 1.7263246e-20 1.026797e-35)
(0.00023578149 -0.00092190998 3.3430998e-21 0.0036112923 -1.2549732e-20 4.3514859e-36)
(0.00030555457 -0.0011208688 -6.2531368e-22 0.0041200003 2.2065724e-21 1.091972e-37)
(0.00039454749 -0.0013494863 -2.9990603e-21 0.0046258441 9.8972833e-21 1.8059637e-36)
(0.00050793882 -0.001609667 8.6048834e-21 0.0051131616 -2.6417105e-20 1.0728449e-35)