/*--------------------------------*- C++ -*----------------------------------*\
  =========                 |
  \\      /  F ield         | OpenFOAM: The Open Source CFD Toolbox
   \\    /   O peration     | Website:  https://openfoam.org
    \\  /    A nd           | Version:  13
     \\/     M anipulation  |
\*---------------------------------------------------------------------------*/
FoamFile
{
    format      ascii;
    class       volScalarField;
    location    "46.39854";
    object      yPlus;
}
// * * * * * * * * * * * * * * * * * * * * * * * * * * * * * * * * * * * * * //

dimensions      [];

internalField   uniform 0;

boundaryField
{
    inlet
    {
        type            calculated;
        value           uniform 0;
    }
    outlet
    {
        type            calculated;
        value           uniform 0;
    }
    cylinder
    {
        type            calculated;
        value           nonuniform List<scalar> 
132
(
1.2907767e-07
1.2817058e-07
1.2676548e-07
1.2483574e-07
1.2238646e-07
1.1943696e-07
1.1601347e-07
1.1214945e-07
1.0788626e-07
1.0327149e-07
9.836303e-08
9.3233244e-08
8.7946887e-08
8.2576688e-08
7.7197876e-08
7.1885021e-08
6.6708869e-08
6.1732332e-08
5.7004999e-08
5.2556058e-08
4.8384873e-08
4.4451532e-08
4.0672034e-08
3.6922258e-08
3.3056808e-08
2.8949488e-08
2.4552565e-08
1.9944356e-08
1.5340463e-08
1.1060502e-08
7.4472032e-09
4.7951012e-09
3.3198397e-09
3.0414988e-09
3.4837252e-09
4.2577197e-09
5.2572388e-09
6.4866793e-09
7.9716127e-09
9.7452448e-09
1.1870857e-08
1.4426618e-08
1.7188927e-08
2.0119359e-08
2.31453e-08
2.6199769e-08
2.9224063e-08
3.2174769e-08
3.5017816e-08
3.773153e-08
4.0298622e-08
4.2714496e-08
4.496708e-08
4.7049968e-08
4.8994165e-08
5.0757032e-08
5.2366929e-08
5.3815535e-08
5.5110692e-08
5.6241507e-08
5.7210402e-08
5.8025751e-08
5.8686307e-08
5.9190371e-08
5.9541322e-08
5.973428e-08
1.2947968e-07
1.293929e-07
1.2879648e-07
1.276535e-07
1.2594723e-07
1.2366992e-07
1.2082276e-07
1.174169e-07
1.1347445e-07
1.0902908e-07
1.0412653e-07
9.8824079e-08
9.3190303e-08
8.7305202e-08
8.1258071e-08
7.5145202e-08
6.9067451e-08
6.3126111e-08
5.7417093e-08
5.2021396e-08
4.6992394e-08
4.233865e-08
3.8007151e-08
3.3878082e-08
2.9786354e-08
2.5578696e-08
2.1192925e-08
1.6721247e-08
1.2412354e-08
8.6041213e-09
5.6211483e-09
3.7208425e-09
3.0373213e-09
3.2668645e-09
3.9249167e-09
4.822892e-09
5.939724e-09
7.2942781e-09
8.9133676e-09
1.0824254e-08
1.3083537e-08
1.5761635e-08
1.8613348e-08
2.1602797e-08
2.4652285e-08
2.7699596e-08
3.0695293e-08
3.3598228e-08
3.6381444e-08
3.9026169e-08
4.1517942e-08
4.3857796e-08
4.6032001e-08
4.8033111e-08
4.9902226e-08
5.1578556e-08
5.3116117e-08
5.4481161e-08
5.5700954e-08
5.6743577e-08
5.7638282e-08
5.8375058e-08
5.8957336e-08
5.9382994e-08
5.9654001e-08
5.9770108e-08
)
;
    }
    frontAndBack
    {
        type            empty;
    }
}


// ************************************************************************* //
