/*--------------------------------*- C++ -*----------------------------------*\
  =========                 |
  \\      /  F ield         | OpenFOAM: The Open Source CFD Toolbox
   \\    /   O peration     | Website:  https://openfoam.org
    \\  /    A nd           | Version:  13
     \\/     M anipulation  |
\*---------------------------------------------------------------------------*/
FoamFile
{
    format      ascii;
    class       volVectorField;
    location    "6.002447";
    object      U;
}
// * * * * * * * * * * * * * * * * * * * * * * * * * * * * * * * * * * * * * //

dimensions      [0 1 -1 0 0 0 0];

internalField   nonuniform List<vector> 
17140
(
(-3.9038339e-06 0.00015733266 1.2803477e-23)
(-5.3506628e-05 0.00048373701 1.4391222e-24)
(-0.00016143231 0.00083985553 -9.3914131e-23)
(-0.00035043828 0.0012270362 1.0325204e-22)
(-0.00064098857 0.0016466676 -1.2074843e-23)
(-0.0010609662 0.0020997939 3.9714079e-23)
(-0.0016445518 0.0025870224 6.7070468e-23)
(-0.002432823 0.0031083783 -3.237261e-23)
(-0.0034749668 0.0036631295 -1.069569e-22)
(-0.0048294145 0.0042495845 -2.6340388e-22)
(-0.0065649381 0.0048648672 3.8987148e-22)
(-0.0087616238 0.005504677 -3.4797665e-22)
(-0.01151164 0.0061630468 -5.4243823e-23)
(-0.014919628 0.0068321198 2.9954417e-22)
(-0.019102549 0.0075019857 -3.3514133e-23)
(-0.024188762 0.0081606106 2.6254059e-22)
(-0.030316155 0.008793936 -8.8481278e-24)
(-0.037629144 0.0093862048 3.1181733e-24)
(-0.046274508 0.009920597 1.532257e-22)
(-0.056396204 0.010380225 -1.9264873e-22)
(-0.068129631 0.010749504 9.4020299e-23)
(-0.08159614 0.011015823 -1.5161268e-23)
(-0.096898849 0.011171285 -1.2262066e-22)
(-0.11412226 0.011214147 1.2403957e-22)
(-0.13334084 0.011149413 1.940736e-22)
(-0.15461663 0.010988336 -1.4534805e-22)
(-0.17798356 0.010745816 -7.3548749e-22)
(-0.2035464 0.010433456 -9.9560703e-23)
(-0.23141284 0.010062175 7.5408895e-22)
(-0.26164998 0.0096405091 1.955382e-22)
(-0.29439192 0.0091731379 6.8525317e-22)
(-0.32975346 0.0086634266 -8.7969822e-22)
(-0.36784402 0.0081140389 2.5715963e-22)
(-0.40875537 0.0075269931 1.1563089e-22)
(-0.45254993 0.0069028399 1.3455772e-21)
(-0.49924788 0.0062396373 -5.8434195e-22)
(-0.54881171 0.0055324561 1.0342155e-21)
(-0.60112777 0.0047737241 7.8053514e-22)
(-0.65598468 0.0039542518 4.0733916e-22)
(-0.7130494 0.0030645354 -1.2827217e-21)
(-0.77184087 0.0020959035 -2.7099589e-21)
(-0.83170328 0.0010410956 -2.6880003e-21)
(-0.89178019 -0.00010583993 -1.2586116e-21)
(-0.95097168 -0.0013481683 6.9954906e-21)
(-1.0078647 -0.0026816301 5.5757756e-21)
(-1.0608108 -0.0040951777 -1.4598393e-21)
(-1.1076252 -0.0055793593 1.0595475e-20)
(-1.1456131 -0.0070956275 3.7867022e-21)
(-1.1713245 -0.0084149037 -3.9679229e-21)
(-1.1805433 -0.0096408826 -9.7599906e-21)
(-1.1683648 -0.011806401 5.8154565e-21)
(-1.1326065 -0.01362276 3.3808122e-21)
(-1.0699294 -0.014457329 -7.962484e-21)
(-0.97920811 -0.015486413 -3.1438691e-21)
(-0.85807473 -0.016292723 -1.6669296e-21)
(-0.7015409 -0.017006388 1.0124487e-21)
(-0.5074495 -0.017267827 -7.6490792e-22)
(-0.28405221 -0.016546707 2.3365948e-22)
(-0.047202768 -0.014674719 2.3950861e-22)
(0.17847875 -0.011742665 -7.4582829e-22)
(0.37709417 -0.0085377168 -5.7806833e-22)
(0.54177809 -0.0055572625 -1.8467443e-21)
(0.67400756 -0.0030666075 -2.1616993e-22)
(0.77761047 -0.00085727949 1.3713151e-21)
(0.85548593 0.0013744297 -8.0034974e-22)
(-4.1819885e-05 0.000975812 -3.8892075e-24)
(-0.00016919308 0.003002387 5.0357314e-22)
(-0.00036104539 0.0052155831 -4.4898323e-22)
(-0.00063992248 0.007625109 1.2206594e-22)
(-0.001026299 0.010239898 2.5335587e-22)
(-0.0015478055 0.013067009 -4.8549985e-22)
(-0.0022381767 0.016110988 5.0575637e-22)
(-0.0031378129 0.019373001 -4.458129e-23)
(-0.0042949462 0.022849795 1.3954944e-22)
(-0.0057667259 0.026532505 2.8220561e-24)
(-0.0076202714 0.030405317 4.6716354e-22)
(-0.0099336066 0.034444038 -7.3940411e-22)
(-0.012796403 0.038614654 -6.1234334e-23)
(-0.016310368 0.042872006 6.021832e-22)
(-0.02058911 0.047158788 -1.8244151e-22)
(-0.025757294 0.051405145 -1.1544699e-22)
(-0.031948883 0.055529245 7.3565153e-22)
(-0.03930432 0.05943924 -2.3600949e-21)
(-0.047966596 0.063037104 1.4550145e-21)
(-0.058076349 0.066224684 -1.7267562e-21)
(-0.069766429 0.068912095 2.4938827e-21)
(-0.083156692 0.071028034 -5.9599637e-22)
(-0.09834999 0.072530764 -2.3520671e-22)
(-0.1154316 0.073417464 7.8658049e-22)
(-0.13447732 0.073728811 -2.7211628e-21)
(-0.15555367 0.073546059 -4.4215697e-22)
(-0.17869401 0.072974587 2.0079626e-21)
(-0.20400402 0.072105195 -2.2991515e-21)
(-0.23159561 0.071023801 2.4003418e-22)
(-0.26153172 0.069795988 3.1207476e-21)
(-0.2939447 0.068457684 -2.7521464e-22)
(-0.32894573 0.067024684 -2.6999624e-21)
(-0.36663967 0.065498148 -1.5650015e-22)
(-0.40711234 0.063869562 2.2497973e-21)
(-0.45041851 0.062122643 -2.6426569e-21)
(-0.49656849 0.060233197 1.3424984e-21)
(-0.54551214 0.058168778 -1.5444787e-21)
(-0.59711992 0.05588912 -5.7872855e-21)
(-0.65116088 0.053347586 -1.5374975e-21)
(-0.70727845 0.050493326 -6.45378e-21)
(-0.7649643 0.047273471 8.7826696e-21)
(-0.82353257 0.04363398 9.2413037e-21)
(-0.8820945 0.039517038 1.9249134e-21)
(-0.93951598 0.034861724 -1.4665766e-20)
(-0.99435674 0.029610816 8.0187947e-21)
(-1.0449295 0.023690331 3.0606769e-21)
(-1.0889802 0.016931324 -1.5500379e-21)
(-1.1236573 0.0091383702 -5.419455e-21)
(-1.1453091 0.00020945571 2.7084996e-21)
(-1.1495984 -0.0099802389 -5.0253458e-21)
(-1.1325562 -0.021292821 -2.9373776e-20)
(-1.0911283 -0.032704832 -1.3015943e-21)
(-1.022301 -0.043602764 5.1906831e-21)
(-0.92532567 -0.054413912 -9.5979349e-21)
(-0.79809489 -0.065698213 6.3216555e-21)
(-0.63570323 -0.077554406 -1.1469015e-20)
(-0.4363023 -0.087463612 -1.5344315e-21)
(-0.20923067 -0.091848225 -1.1056641e-21)
(0.028409608 -0.088362605 5.4458068e-22)
(0.25156771 -0.077481557 1.0486068e-21)
(0.44575327 -0.063345687 2.1187239e-22)
(0.60363547 -0.04907325 -2.2848578e-21)
(0.72643372 -0.036576107 3.6557802e-21)
(0.81724773 -0.025915704 7.763562e-22)
(0.88160966 -0.015205794 1.0642967e-21)
(-0.00012434278 0.0017752724 -2.1789544e-22)
(-0.00042079349 0.0054632419 1.6109273e-22)
(-0.00079485332 0.0094920495 4.2995999e-23)
(-0.0012685238 0.013880009 -4.0600071e-23)
(-0.0018622197 0.018643838 1.979505e-22)
(-0.0026029089 0.023796997 1.5252756e-23)
(-0.00352322 0.029348507 1.8916908e-22)
(-0.0046619237 0.035301404 2.0452995e-22)
(-0.0060649948 0.041650861 -1.6602647e-21)
(-0.0077865893 0.048382022 1.4825097e-21)
(-0.0098900026 0.055467584 -7.0863638e-22)
(-0.012448523 0.062865178 -1.0410382e-21)
(-0.015546122 0.070514703 2.055689e-21)
(-0.019277839 0.078335853 2.5695746e-22)
(-0.02374971 0.086226178 -9.7424839e-22)
(-0.029078083 0.094060189 -6.6795317e-22)
(-0.035388124 0.10169018 7.6700255e-22)
(-0.042811402 0.10894954 -2.7539206e-21)
(-0.051482478 0.11565944 1.5937792e-21)
(-0.061534635 0.1216396 -7.8736434e-22)
(-0.073095091 0.12672344 2.5781875e-21)
(-0.086280401 0.1307769 6.5908371e-22)
(-0.10119281 0.13371888 -1.3333606e-21)
(-0.11791925 0.13553909 1.9887069e-21)
(-0.13653812 0.13630758 8.1582572e-22)
(-0.15712562 0.13617016 -8.4736379e-22)
(-0.17971291 0.13532239 -5.0519589e-21)
(-0.20440813 0.13394318 -2.4118106e-21)
(-0.2313328 0.13218609 9.9530772e-22)
(-0.26053857 0.13017667 -1.397669e-21)
(-0.29215291 0.12798651 5.9228282e-22)
(-0.32627849 0.12564537 4.6070466e-21)
(-0.36300889 0.12315342 -1.6085768e-21)
(-0.40241577 0.12049115 -5.346794e-21)
(-0.44453561 0.11762446 1.5697281e-21)
(-0.48935538 0.11450572 2.7889524e-21)
(-0.53679549 0.1110738 -5.4394048e-21)
(-0.58668968 0.1072548 -2.0281422e-21)
(-0.63876236 0.10296415 3.5528479e-21)
(-0.6926039 0.098109748 1.5098245e-21)
(-0.74764517 0.092595407 -8.7065273e-21)
(-0.80313375 0.086321394 2.3509155e-21)
(-0.85810887 0.079178636 4.1126016e-21)
(-0.91136084 0.07104545 1.2773654e-20)
(-0.96139728 0.061793169 -2.6074203e-20)
(-1.0064254 0.05124664 1.8607886e-20)
(-1.0441271 0.039053092 5.3904702e-21)
(-1.0716101 0.024879758 2.1236073e-20)
(-1.0852847 0.0085067568 2.6303143e-20)
(-1.080948 -0.010206031 1.4096931e-21)
(-1.0545424 -0.03099486 -5.7666604e-21)
(-1.002673 -0.052288361 3.9450634e-20)
(-0.92358685 -0.072795904 1.4896123e-20)
(-0.81737288 -0.092997235 1.2741049e-20)
(-0.68235401 -0.11431067 3.3779129e-21)
(-0.51355531 -0.13693359 1.5525677e-20)
(-0.30921533 -0.15588847 -3.2744599e-21)
(-0.080449074 -0.16423796 -1.6561462e-22)
(0.15244635 -0.15791718 -6.0437643e-21)
(0.36629115 -0.13822861 -3.1613528e-21)
(0.54727594 -0.11256086 3.8634951e-21)
(0.68878564 -0.086409997 1.176994e-20)
(0.79276328 -0.063314321 -3.1301293e-21)
(0.8631221 -0.043970699 -3.7795985e-21)
(0.90671505 -0.027043753 -1.2606981e-21)
(-0.00024845692 0.0025260789 7.9334364e-22)
(-0.00079919358 0.0077758278 -1.2625006e-21)
(-0.0014472371 0.013513228 4.5685033e-22)
(-0.0022137649 0.019765361 -4.9556782e-23)
(-0.0031190911 0.026557047 9.8512438e-22)
(-0.0041891738 0.033908752 -1.0181068e-21)
(-0.0054549598 0.041834905 1.5490885e-21)
(-0.0069527472 0.050341731 -7.2543021e-22)
(-0.0087250878 0.059424602 -2.7714184e-21)
(-0.010821599 0.069064979 6.6292047e-22)
(-0.013299777 0.079226952 2.5378672e-21)
(-0.016225719 0.089853465 -7.71043e-22)
(-0.019674732 0.10086242 -4.8696549e-23)
(-0.023731696 0.11214298 2.0196462e-21)
(-0.028491086 0.12355252 -6.2781532e-21)
(-0.034056494 0.13491496 3.8252707e-21)
(-0.040539538 0.14602143 3.6876247e-23)
(-0.048058024 0.15663436 -2.0787166e-21)
(-0.056733325 0.16649636 5.2147269e-21)
(-0.066687048 0.17534492 -2.4136893e-21)
(-0.078037261 0.18293367 -3.5439392e-21)
(-0.090894829 0.18905936 -1.4414653e-21)
(-0.10536041 0.1935918 6.8313347e-21)
(-0.12152315 0.19650121 3.5634464e-21)
(-0.13946546 0.19787417 -2.1318352e-21)
(-0.1592745 0.19790957 1.3412305e-21)
(-0.18098805 0.19688995 -4.692995e-21)
(-0.20471179 0.1950989 1.3936223e-21)
(-0.23057322 0.19274187 -3.7211264e-21)
(-0.25861976 0.19000782 2.0580003e-21)
(-0.28896526 0.1870128 -1.4538049e-21)
(-0.3217017 0.18380374 5.1490287e-21)
(-0.35690535 0.18038109 -6.9613512e-22)
(-0.39462623 0.17671365 4.4986648e-21)
(-0.43487338 0.17274786 -4.4682582e-21)
(-0.47759911 0.16841076 -1.8955185e-21)
(-0.52268065 0.1636108 2.1065902e-20)
(-0.56989894 0.15823922 6.3581048e-21)
(-0.61891548 0.15217314 -5.5158169e-21)
(-0.66924845 0.1452805 5.9931016e-21)
(-0.72025005 0.13742497 -1.900561e-21)
(-0.77108827 0.12846692 -1.1852049e-20)
(-0.82072826 0.11825563 5.3076622e-22)
(-0.86790295 0.10662106 5.2445935e-21)
(-0.91111811 0.093375234 -2.2990565e-21)
(-0.94855922 0.07824478 2.1672195e-21)
(-0.97797806 0.060713355 4.9714961e-21)
(-0.99656178 0.040256794 -7.329522e-20)
(-1.0007728 0.016465236 8.6704505e-21)
(-0.98639698 -0.010773619 -8.0557587e-21)
(-0.94925749 -0.040780361 7.4406292e-20)
(-0.88612128 -0.071484177 -3.7818486e-20)
(-0.79620232 -0.10089304 -2.8159369e-20)
(-0.68091347 -0.12947918 -2.2097542e-20)
(-0.53948629 -0.15996203 -1.6121784e-20)
(-0.36650318 -0.19280276 -1.6155894e-20)
(-0.16024467 -0.22026117 1.6277974e-20)
(0.065497674 -0.23128457 -4.2866672e-22)
(0.28716317 -0.22092165 1.0052214e-20)
(0.48400719 -0.19191986 -9.6763085e-21)
(0.64301402 -0.15455715 -3.625121e-21)
(0.76030182 -0.11684407 -3.1427143e-21)
(0.84021067 -0.083881524 1.0536713e-20)
(0.88902211 -0.056703788 6.0344651e-21)
(0.91492469 -0.034843562 -7.5680335e-23)
(-0.00040782122 0.0031987436 -6.1790055e-22)
(-0.0012851816 0.0098499196 2.0520703e-21)
(-0.0022852245 0.017123202 -1.6736707e-21)
(-0.0034281238 0.025054566 6.3287441e-22)
(-0.0047341049 0.033677281 2.2914367e-22)
(-0.0062278833 0.043019576 -1.9713298e-21)
(-0.0079383053 0.053102529 4.9722021e-22)
(-0.0098985608 0.063937372 1.0598425e-21)
(-0.012146876 0.075522193 8.0584745e-23)
(-0.014727108 0.087838088 6.9037033e-22)
(-0.017689363 0.10084475 -9.6819296e-22)
(-0.021090537 0.11447564 6.7077517e-22)
(-0.024994798 0.12863281 2.4769156e-21)
(-0.029473901 0.14318195 7.5356319e-23)
(-0.034607279 0.15794801 -1.8717513e-21)
(-0.040481811 0.17271243 -1.3215016e-21)
(-0.04719119 0.18721298 1.134617e-21)
(-0.05483479 0.2011479 -9.8112854e-23)
(-0.063516028 0.21418589 -2.1461092e-21)
(-0.073340244 0.22598364 -2.602714e-21)
(-0.084412274 0.23621205 2.915229e-21)
(-0.096834078 0.24459059 2.8681213e-21)
(-0.11070277 0.25092674 -3.7556011e-21)
(-0.12610951 0.25515384 4.5735249e-21)
(-0.1431423 0.25735622 7.8891873e-21)
(-0.16189549 0.25776955 -1.7891339e-20)
(-0.18243283 0.25675179 9.629186e-21)
(-0.2048441 0.2546901 -1.4426583e-20)
(-0.22925246 0.25184978 1.7877412e-20)
(-0.25572614 0.24848621 -2.0269609e-20)
(-0.2843483 0.24476729 2.1334182e-20)
(-0.31520188 0.24076113 -3.4444472e-21)
(-0.34834006 0.23647061 -1.3450594e-20)
(-0.38378565 0.23185247 7.9409549e-21)
(-0.42151326 0.22683214 -2.5684247e-21)
(-0.46143291 0.22130932 -6.3359629e-22)
(-0.50337017 0.21516031 -1.1273925e-20)
(-0.54704469 0.20824063 -4.3536031e-21)
(-0.59204792 0.20039022 -5.1464167e-21)
(-0.63782258 0.1914408 -4.9104811e-21)
(-0.6836465 0.18122325 2.7254238e-20)
(-0.7286254 0.16956944 -1.3098977e-20)
(-0.77168837 0.15630295 -2.9256895e-21)
(-0.81157574 0.14122433 2.9512253e-20)
(-0.84687562 0.12409927 1.6830043e-20)
(-0.87587988 0.10455438 -8.5016519e-21)
(-0.89650796 0.081917862 -3.4623872e-20)
(-0.90608303 0.055448254 1.5262226e-20)
(-0.90108438 0.024497748 -4.834692e-20)
(-0.87711174 -0.011113061 -2.6769142e-20)
(-0.8295432 -0.0503522 -3.5789018e-20)
(-0.75497241 -0.090274274 -9.3525247e-20)
(-0.65362249 -0.12781116 6.338482e-20)
(-0.52890828 -0.16353516 -1.9443241e-20)
(-0.38167989 -0.20200239 2.3314819e-20)
(-0.20582334 -0.24433268 1.6258785e-20)
(-6.0882933e-05 -0.27924936 4.0316662e-21)
(0.21711542 -0.29156206 3.6695586e-21)
(0.42196627 -0.27589986 -3.7265267e-21)
(0.59445422 -0.23700446 1.2637889e-20)
(0.72459281 -0.18819532 4.3645011e-21)
(0.8130259 -0.14000195 -3.4678041e-21)
(0.86788148 -0.09874596 -5.7496423e-21)
(0.89776674 -0.06550841 -6.4620542e-21)
(0.91219285 -0.039962615 3.2620415e-22)
(-0.00059280645 0.0037653169 -2.0989116e-21)
(-0.0018495422 0.011599881 -7.4227915e-22)
(-0.0032586276 0.020173756 5.9837949e-22)
(-0.0048391846 0.029531827 2.2165704e-21)
(-0.0066114276 0.039716097 -1.2160602e-21)
(-0.0085987514 0.05076337 1.7498289e-21)
(-0.010827701 0.062702788 -7.5716485e-22)
(-0.013328012 0.075552753 -1.8061825e-22)
(-0.016133056 0.089317132 1.0207218e-21)
(-0.019280177 0.10398077 2.1994952e-21)
(-0.022811061 0.1195043 1.1437705e-22)
(-0.026772053 0.1358183 -3.6060067e-21)
(-0.031214452 0.15281702 4.9864294e-21)
(-0.036194725 0.170352 -8.0167972e-21)
(-0.041774621 0.18822623 2.0856554e-21)
(-0.048021152 0.20618981 -4.4244051e-21)
(-0.055006409 0.22393837 5.294427e-21)
(-0.062807177 0.24111616 -3.4113541e-21)
(-0.07150437 0.25732584 5.2486201e-22)
(-0.081182314 0.27214729 2.1158604e-21)
(-0.09192795 0.28516714 -5.0883468e-21)
(-0.10383011 0.29601915 7.0387084e-21)
(-0.11697903 0.30443267 -7.5160448e-21)
(-0.13146597 0.31028193 -1.3613286e-21)
(-0.14738422 0.31362329 1.2278724e-20)
(-0.16483482 0.31470471 -1.2275194e-20)
(-0.18391184 0.31393677 7.7550217e-21)
(-0.20468636 0.31179709 -8.835998e-21)
(-0.22728319 0.30864789 -1.1849402e-21)
(-0.25179971 0.3047983 -8.2329887e-22)
(-0.27827865 0.30047501 3.4260534e-21)
(-0.30679392 0.29577717 -4.9291161e-22)
(-0.33737237 0.29071386 1.4568464e-20)
(-0.37000621 0.28523073 -3.828861e-21)
(-0.40463214 0.27923115 -1.3503862e-20)
(-0.44111449 0.27258592 6.5502777e-21)
(-0.47922493 0.26513807 -5.6203119e-21)
(-0.51862171 0.25670796 6.6555496e-21)
(-0.55883045 0.24710158 3.94482e-20)
(-0.59922984 0.23612168 -2.3789362e-20)
(-0.63904608 0.22357865 -6.668109e-21)
(-0.67736048 0.20929372 4.1311623e-20)
(-0.71312293 0.19308829 -1.5520911e-21)
(-0.74515929 0.17475824 -5.1973709e-21)
(-0.77222569 0.15403392 -7.147575e-20)
(-0.79282191 0.13043465 -1.7796252e-20)
(-0.8050852 0.10309821 3.0352177e-20)
(-0.80646739 0.070971642 3.2515454e-20)
(-0.79333174 0.033049866 4.8586978e-20)
(-0.76079033 -0.010999495 6.1905273e-20)
(-0.70333483 -0.05972893 3.7317701e-20)
(-0.61699937 -0.10892861 5.3876823e-20)
(-0.50311045 -0.15386784 -1.4741203e-20)
(-0.36811014 -0.1950913 8.6084153e-20)
(-0.21501717 -0.23985733 5.5653601e-21)
(-0.036769115 -0.2903327 2.1802274e-21)
(0.16575294 -0.3312818 1.8881599e-21)
(0.36955567 -0.3432188 -6.8291203e-21)
(0.55121088 -0.32121252 2.8383201e-21)
(0.69288473 -0.27224007 -8.9070471e-21)
(0.78996006 -0.21301567 -1.5506401e-20)
(0.84886805 -0.15632063 -6.5599904e-21)
(0.88163557 -0.10907574 -2.0131514e-21)
(0.8979933 -0.072020795 8.0850811e-21)
(0.90754733 -0.044727042 -1.6631916e-21)
(-0.00079072277 0.004201538 4.4215393e-22)
(-0.0024543349 0.012950967 1.4056844e-21)
(-0.0043018893 0.022535194 -3.3934162e-21)
(-0.0063522949 0.033007667 1.2497614e-22)
(-0.0086256132 0.0444193 1.6518353e-21)
(-0.011144042 0.056816162 7.2896283e-22)
(-0.013931877 0.070236856 5.3848664e-22)
(-0.017015402 0.08470921 -1.0603559e-21)
(-0.020423045 0.10024618 5.4898313e-21)
(-0.024185451 0.11684094 -4.1354599e-21)
(-0.028335552 0.13446108 2.0228882e-22)
(-0.032908619 0.15304198 2.500235e-21)
(-0.037942303 0.17247951 -9.3304953e-21)
(-0.043476679 0.19262228 9.2748882e-21)
(-0.049554301 0.21326418 -1.2219194e-21)
(-0.056220296 0.23413808 -7.5790403e-21)
(-0.063522529 0.25491214 7.0727679e-21)
(-0.071511904 0.2751907 -2.4302032e-21)
(-0.080242836 0.29452238 4.703763e-21)
(-0.089773976 0.31241812 -5.9579325e-21)
(-0.10016922 0.32838178 -1.1019588e-20)
(-0.11149895 0.34195451 1.0683102e-20)
(-0.12384149 0.35277088 1.5446899e-20)
(-0.13728406 0.36061975 -2.9104406e-20)
(-0.15192309 0.36549621 2.2842037e-20)
(-0.1678655 0.36762516 -1.3053522e-20)
(-0.18522929 0.36743801 3.2109151e-21)
(-0.20409029 0.3654899 -7.7344928e-21)
(-0.22456572 0.36228036 7.530116e-21)
(-0.2467721 0.35814559 1.0701157e-20)
(-0.27073832 0.3533807 -6.8987099e-21)
(-0.29651189 0.34813499 -1.2584855e-20)
(-0.32409719 0.3424299 9.0495447e-22)
(-0.35345398 0.33620372 3.3269748e-22)
(-0.38448059 0.3293379 9.0667925e-21)
(-0.41699643 0.32167363 -4.3526371e-21)
(-0.45072235 0.3130206 -1.6991572e-20)
(-0.48526215 0.30316605 -9.7440262e-21)
(-0.52008825 0.2918875 1.5608755e-20)
(-0.55453613 0.27896908 -1.2679303e-20)
(-0.58781151 0.26421663 1.2673039e-20)
(-0.61901279 0.24746263 -3.4533144e-21)
(-0.64716175 0.22855052 -1.8692978e-20)
(-0.67123096 0.20729463 4.9700397e-20)
(-0.69018487 0.18340736 3.1460644e-20)
(-0.70277229 0.15627973 2.268181e-20)
(-0.70732356 0.12480698 -7.8984375e-20)
(-0.70133659 0.087513387 -5.4288254e-20)
(-0.68086547 0.042865184 -6.6486293e-20)
(-0.64026104 -0.0098055448 -1.1923541e-19)
(-0.57287737 -0.068641852 4.0998481e-20)
(-0.47419853 -0.12766403 -9.0228416e-21)
(-0.34728697 -0.17953292 -5.6322008e-20)
(-0.20247407 -0.22455409 -1.3871472e-19)
(-0.043885427 -0.27366617 -7.1357446e-20)
(0.13634168 -0.33054692 -1.9204661e-20)
(0.33233071 -0.37522538 -3.100719e-20)
(0.5183928 -0.38452313 8.8301335e-21)
(0.67055808 -0.35554576 -1.3384756e-21)
(0.77652594 -0.29715416 1.2424819e-20)
(0.83941194 -0.22945505 1.1215918e-20)
(0.87172356 -0.16685354 8.9331117e-22)
(0.88796667 -0.11611168 -1.241443e-20)
(0.89690237 -0.077210224 5.2878826e-22)
(0.90598372 -0.049089608 -1.016967e-21)
(-0.0009868676 0.0044883066 1.9362429e-21)
(-0.0030543952 0.013844094 -1.3061812e-21)
(-0.0053374048 0.024104418 1.7644393e-21)
(-0.0078550868 0.035330684 1.0031157e-21)
(-0.010627438 0.04758258 -2.7983572e-21)
(-0.01367572 0.060915857 -2.6125226e-21)
(-0.017022274 0.075379716 2.6792153e-21)
(-0.020690275 0.09101347 -3.2367946e-22)
(-0.024703593 0.10784236 -7.461219e-23)
(-0.029086589 0.12587247 -5.2990414e-21)
(-0.033863871 0.14508457 5.764923e-22)
(-0.039060035 0.16542698 1.0651385e-20)
(-0.044699404 0.18680737 -8.4997855e-21)
(-0.050805811 0.20908391 2.9021578e-22)
(-0.057402475 0.23205607 5.6580698e-21)
(-0.064512066 0.25545613 4.8083063e-22)
(-0.072157046 0.27894274 -1.2189608e-21)
(-0.080360441 0.30209859 -5.4421228e-21)
(-0.089147178 0.32443508 9.8862493e-21)
(-0.098546117 0.34540737 -1.7191096e-20)
(-0.10859286 0.36444331 3.6264237e-21)
(-0.11933316 0.38098876 -2.6577019e-21)
(-0.13082671 0.39456891 2.0659764e-21)
(-0.14315024 0.40485986 -1.5054114e-22)
(-0.15639888 0.41175675 1.2125653e-20)
(-0.17068476 0.41541704 1.1840572e-20)
(-0.18613471 0.41625414 -2.3112898e-20)
(-0.20286771 0.4148669 -3.9013536e-21)
(-0.22096924 0.41188511 1.3024185e-20)
(-0.24055741 0.4077463 4.576353e-21)
(-0.26170309 0.40276381 1.1404733e-20)
(-0.28439754 0.39715802 -1.256327e-20)
(-0.30863148 0.3909842 -5.8663971e-21)
(-0.33433046 0.38417871 1.3799009e-20)
(-0.36135711 0.37660319 -5.9521797e-21)
(-0.38949003 0.36807019 -4.2596949e-21)
(-0.41840635 0.35835743 9.033523e-21)
(-0.44766632 0.34722244 2.7548437e-20)
(-0.47670548 0.33442126 9.795711e-21)
(-0.50483862 0.31973103 -6.3993543e-21)
(-0.53127789 0.30297002 -1.6969868e-20)
(-0.55516798 0.2840026 -1.9880699e-20)
(-0.57562929 0.26271901 -2.4139786e-20)
(-0.59180279 0.23897695 -5.4719476e-20)
(-0.60282779 0.21248037 2.3046781e-21)
(-0.60764305 0.18247313 -2.5825855e-20)
(-0.60464457 0.14755496 1.6362509e-19)
(-0.59117218 0.10571162 4.8077239e-20)
(-0.56274823 0.054709411 5.7351852e-20)
(-0.51290325 -0.0066065916 1.6379662e-19)
(-0.43415409 -0.07596139 -1.9209108e-19)
(-0.32228203 -0.14515112 3.9425288e-20)
(-0.1839914 -0.2034297 1.1242298e-19)
(-0.032933025 -0.25120895 1.1471001e-19)
(0.12892016 -0.30328012 9.9779071e-21)
(0.30916212 -0.36434932 -2.2568378e-20)
(0.49592726 -0.41014719 -2.2106811e-20)
(0.65932874 -0.41555989 6.3064565e-21)
(0.77630336 -0.37824031 -3.1175401e-21)
(0.84431531 -0.3118951 -4.1285948e-21)
(0.87516671 -0.23851924 -8.8276881e-22)
(0.88635148 -0.17298636 -2.8550398e-21)
(0.89228009 -0.12108203 1.4839966e-20)
(0.89844316 -0.081839855 -4.7032198e-22)
(0.90901135 -0.053586143 3.9954786e-21)
(-0.0011652343 0.0046134116 -1.9969162e-21)
(-0.0036005383 0.014241155 -5.3494078e-22)
(-0.0062804996 0.024814246 5.8747925e-22)
(-0.0092247529 0.036401112 2.8869876e-21)
(-0.012453486 0.049069633 -3.4613138e-21)
(-0.015987386 0.062885185 2.9372564e-21)
(-0.01984734 0.077908201 1.4035947e-21)
(-0.024054055 0.094191 -7.5275896e-23)
(-0.028627664 0.11177377 -1.1817e-21)
(-0.033587231 0.13067955 -6.7103118e-21)
(-0.038950217 0.15090808 1.124213e-20)
(-0.044731874 0.1724284 -1.3470421e-20)
(-0.050944646 0.19517023 3.9396394e-21)
(-0.057597609 0.21901407 5.3263493e-21)
(-0.064696046 0.24378058 -8.1182175e-21)
(-0.072241291 0.26921984 1.5889078e-20)
(-0.080231002 0.29500169 -1.909886e-20)
(-0.088660099 0.32070941 -3.0537751e-22)
(-0.097522614 0.34583939 -1.0700257e-20)
(-0.10681471 0.36981082 4.1798701e-20)
(-0.116539 0.39198977 -9.9395255e-21)
(-0.12671019 0.41173165 -4.0525968e-20)
(-0.13736139 0.42844396 1.8709143e-20)
(-0.14855014 0.44166564 2.1959322e-20)
(-0.16036219 0.45115156 -5.3448317e-21)
(-0.17291068 0.45693967 -2.8011584e-20)
(-0.18632959 0.45937167 4.146039e-20)
(-0.20076028 0.45904132 -4.5589578e-20)
(-0.21631384 0.45665908 3.5610975e-20)
(-0.23307766 0.45283782 -6.7608581e-21)
(-0.25113515 0.44795222 1.217672e-20)
(-0.27049179 0.4422351 1.7952128e-20)
(-0.29109329 0.43580666 -6.4001594e-21)
(-0.31284745 0.42862444 -1.305741e-21)
(-0.33557846 0.42053907 -2.847972e-20)
(-0.35902874 0.41133709 5.0191797e-21)
(-0.3828403 0.40076523 -1.6065114e-20)
(-0.40654185 0.38855481 1.592995e-20)
(-0.42954735 0.37444715 -8.1551485e-21)
(-0.45116784 0.35822281 -7.0428949e-21)
(-0.47063577 0.33972556 -6.9901119e-21)
(-0.48715096 0.31887105 -6.7731463e-21)
(-0.49992417 0.29561879 4.6646567e-20)
(-0.5082185 0.26988308 4.1915601e-20)
(-0.51125402 0.2413632 -1.1497983e-20)
(-0.50798478 0.20915692 9.4325429e-21)
(-0.49664127 0.17152391 -3.6457489e-20)
(-0.47414359 0.12584591 8.2088001e-20)
(-0.43538443 0.069111589 1.0168642e-19)
(-0.37346547 -0.00044942048 3.0706149e-20)
(-0.28112345 -0.080196591 7.6268562e-20)
(-0.15624164 -0.15892609 -2.0185276e-21)
(-0.011197314 -0.22281476 -2.909279e-20)
(0.13998266 -0.27273243 -1.2273513e-19)
(0.30133557 -0.32763579 5.1050904e-20)
(0.47910031 -0.39130749 -1.6798014e-20)
(0.65216061 -0.43634353 2.3192786e-20)
(0.78747496 -0.43368363 -1.8938157e-20)
(0.86612608 -0.38927275 -7.3225529e-22)
(0.89676634 -0.31743529 4.7529577e-22)
(0.90068456 -0.24162701 4.2428413e-22)
(0.89734331 -0.17598105 2.1621674e-21)
(0.89813365 -0.12471672 3.9283519e-21)
(0.90393346 -0.086022779 -7.8653277e-21)
(0.91565442 -0.057851153 6.2677653e-21)
(-0.001309745 0.0045730997 4.8364056e-21)
(-0.0040435352 0.014129714 3.3263802e-21)
(-0.0070461158 0.024641596 -5.2214957e-21)
(-0.01033768 0.036182805 1.3723181e-22)
(-0.013938847 0.048828292 4.7166185e-21)
(-0.01787014 0.062652358 2.4646522e-21)
(-0.022151609 0.077726546 -5.1932132e-21)
(-0.026802356 0.094116835 8.5162805e-22)
(-0.031839909 0.11188001 -1.2003631e-20)
(-0.037279501 0.13105906 2.336408e-21)
(-0.043133239 0.15167728 6.1436251e-23)
(-0.049409189 0.17373112 -8.5685319e-21)
(-0.056110409 0.19718142 2.7384072e-20)
(-0.063233997 0.22194304 -1.2723972e-20)
(-0.070770251 0.24787314 -2.2706813e-20)
(-0.078702102 0.27475843 2.4084318e-20)
(-0.087005036 0.30230237 -2.9676634e-21)
(-0.095647808 0.33011429 1.6619043e-20)
(-0.10459433 0.35770293 1.2224665e-20)
(-0.1138071 0.38447877 -3.806781e-20)
(-0.1232526 0.40976989 2.8207119e-20)
(-0.13290862 0.43285722 -3.6649724e-20)
(-0.14277332 0.45303326 4.2033759e-21)
(-0.15287461 0.46968432 -1.7092083e-20)
(-0.16327749 0.48238816 3.6377125e-20)
(-0.17408631 0.49100661 -8.5242824e-21)
(-0.18543833 0.49574107 -2.1333538e-20)
(-0.19748702 0.4971155 5.0668466e-20)
(-0.21037274 0.49586559 -2.1555041e-20)
(-0.22419734 0.49273775 -2.3693043e-20)
(-0.2390061 0.48827382 1.9473798e-20)
(-0.25482596 0.48277378 2.9289601e-21)
(-0.27161422 0.47638479 -1.3857629e-20)
(-0.28922574 0.46908904 7.7765782e-21)
(-0.30746415 0.46073862 -1.290406e-20)
(-0.32604097 0.45111176 4.7367532e-20)
(-0.34457145 0.43993065 -2.7088163e-20)
(-0.36256084 0.42690364 -1.7890516e-20)
(-0.37941152 0.41176176 -4.0592815e-20)
(-0.39443683 0.39429427 -7.6300309e-21)
(-0.40688996 0.37437831 4.8166704e-20)
(-0.41600939 0.35199295 -2.0841376e-20)
(-0.42105097 0.327177 -3.303724e-20)
(-0.42129887 0.29990906 -4.0580723e-21)
(-0.4159062 0.26988152 4.151257e-20)
(-0.40361188 0.23604866 3.922143e-20)
(-0.38223127 0.1963264 -1.2837459e-19)
(-0.34811009 0.14751119 -7.2365657e-20)
(-0.29575651 0.085861436 -1.6592144e-19)
(-0.21880567 0.0090829489 -6.0504533e-20)
(-0.11152515 -0.079557418 -2.3681477e-20)
(0.023462274 -0.16633208 -1.5642864e-19)
(0.16827618 -0.23435208 -4.914085e-20)
(0.31374107 -0.28720541 1.4995679e-19)
(0.47114222 -0.34558691 -9.6307844e-20)
(0.64323065 -0.41059334 6.3618872e-20)
(0.79739332 -0.45111202 -2.077304e-20)
(0.89870555 -0.44168554 4.8538241e-20)
(0.93813975 -0.38990937 7.8308881e-21)
(0.93552308 -0.31529691 -7.774353e-22)
(0.91977233 -0.24029363 2.8658386e-21)
(0.90812177 -0.176831 6.2175591e-21)
(0.90698768 -0.12738615 -2.7284659e-22)
(0.91278022 -0.08971379 1.1090666e-21)
(0.92439214 -0.061791271 -7.9299129e-21)
(-0.0014058603 0.0043731651 9.3538471e-23)
(-0.0043387367 0.013526451 -6.6701175e-21)
(-0.0075569075 0.023613555 7.8601111e-21)
(-0.011081142 0.0347123 3.7792144e-21)
(-0.014932643 0.046902986 -7.5679175e-21)
(-0.019132144 0.06026738 -2.4487209e-21)
(-0.023699484 0.074887071 1.18655e-20)
(-0.028653097 0.090841189 -1.2755058e-20)
(-0.034009209 0.10820341 -2.6854695e-21)
(-0.039780947 0.12703799 -1.0662679e-20)
(-0.045977275 0.14739458 2.8262489e-20)
(-0.05260181 0.16930161 3.3596271e-22)
(-0.059651514 0.19275799 -2.5210503e-20)
(-0.067115335 0.21772282 2.6942852e-20)
(-0.074972875 0.24410314 -1.9177818e-20)
(-0.083193271 0.27173981 -7.0603618e-21)
(-0.091734501 0.30039205 1.4639113e-20)
(-0.10054349 0.32972214 -1.3069836e-20)
(-0.10955746 0.3592825 -1.7231451e-20)
(-0.11870712 0.38850906 3.6379394e-22)
(-0.1279222 0.41672632 2.6450227e-20)
(-0.13713987 0.44317074 -1.6157008e-20)
(-0.14631579 0.46703922 8.8916519e-21)
(-0.155437 0.48756663 4.2202647e-20)
(-0.16453374 0.50412929 1.4083204e-20)
(-0.17368694 0.51635981 -3.7175693e-20)
(-0.18302567 0.52424156 3.7026609e-21)
(-0.19271076 0.52814111 -4.1112265e-20)
(-0.20290376 0.52874013 2.3861243e-20)
(-0.21372925 0.5268567 -1.2935195e-20)
(-0.22525068 0.523211 1.8698855e-20)
(-0.2374772 0.51827557 4.8403073e-21)
(-0.250346 0.51224367 -2.4229439e-20)
(-0.26370809 0.50513088 2.5567968e-20)
(-0.27735242 0.49681138 4.1432372e-20)
(-0.29097011 0.48705506 -1.8968695e-21)
(-0.30414793 0.47556296 -4.9141093e-20)
(-0.31637436 0.46202428 6.7501932e-20)
(-0.3270424 0.44616232 -1.4964736e-20)
(-0.33546474 0.42777595 3.6179683e-20)
(-0.34090108 0.40677696 -6.7335884e-21)
(-0.34259192 0.38320586 6.6831251e-20)
(-0.33977291 0.35717693 3.4381259e-20)
(-0.331625 0.32872916 4.9732349e-20)
(-0.31708635 0.29753841 -2.1781535e-19)
(-0.29449622 0.2624262 -7.9503789e-20)
(-0.26114215 0.2210098 1.1093381e-19)
(-0.21293572 0.16964126 -9.7166954e-20)
(-0.14453854 0.10420399 -8.6937715e-20)
(-0.051082165 0.021920269 1.0182645e-19)
(0.070247579 -0.073581896 5.0948181e-20)
(0.20948784 -0.16544035 1.0563325e-19)
(0.34762276 -0.23669672 4.2158327e-20)
(0.4834513 -0.29356627 -1.3088402e-19)
(0.63578815 -0.35650962 -6.0619525e-20)
(0.79925722 -0.42149431 -8.6917241e-21)
(0.92825981 -0.45652705 -2.2077056e-21)
(0.99019309 -0.43837007 -8.8741811e-21)
(0.99208685 -0.38132551 1.0082124e-20)
(0.96372559 -0.30747862 1.1845095e-21)
(0.93586347 -0.23596787 -1.6417788e-21)
(0.92049735 -0.17615876 -7.8817387e-21)
(0.91867118 -0.1291396 -7.9609058e-21)
(0.92366776 -0.092703413 -1.4031218e-21)
(0.93384707 -0.065144429 -2.9074038e-22)
(-0.0014423765 0.0040297835 -3.3575017e-21)
(-0.0044515674 0.012479846 -2.9721406e-21)
(-0.007752717 0.021812198 6.1766976e-21)
(-0.011367037 0.032106103 -1.057902e-20)
(-0.015316309 0.043444877 -2.6429364e-21)
(-0.019621703 0.055915471 1.132601e-20)
(-0.024303356 0.069607381 -5.8121415e-23)
(-0.029379866 0.08461102 6.753119e-21)
(-0.034867407 0.10101553 -2.0148562e-21)
(-0.040778731 0.1189057 4.0932135e-23)
(-0.047121963 0.13835779 -1.0897372e-20)
(-0.053899226 0.15943389 -2.490542e-21)
(-0.061105067 0.18217464 2.5328491e-21)