/*--------------------------------*- C++ -*----------------------------------*\
  =========                 |
  \\      /  F ield         | OpenFOAM: The Open Source CFD Toolbox
   \\    /   O peration     | Website:  https://openfoam.org
    \\  /    A nd           | Version:  13
     \\/     M anipulation  |
\*---------------------------------------------------------------------------*/
FoamFile
{
    format      ascii;
    class       surfaceScalarField;
    location    "18.996425";
    object      phi;
}
// * * * * * * * * * * * * * * * * * * * * * * * * * * * * * * * * * * * * * //

dimensions      [0 3 -1 0 0 0 0];

internalField   nonuniform List<scalar> 
34068
(
-6.184522e-08
1.3581743e-07
-7.3972211e-08
-2.7479926e-07
4.6765179e-07
-2.5469776e-07
-6.885119e-07
9.0885643e-07
-4.9514378e-07
-1.364966e-06
1.487265e-06
-8.108109e-07
-2.3811044e-06
2.2369188e-06
-1.2207804e-06
-3.8319182e-06
3.1992401e-06
-1.7484264e-06
-5.8340585e-06
4.4243821e-06
-2.4222417e-06
-8.5300144e-06
5.9727321e-06
-3.2767762e-06
-1.2092897e-05
7.9165557e-06
-4.3536729e-06
-1.6731848e-05
1.0341743e-05
-5.7027925e-06
-2.2698032e-05
1.3349567e-05
-7.3833821e-06
-3.0291163e-05
1.7058365e-05
-9.4652347e-06
-3.9866374e-05
2.1604946e-05
-1.2029735e-05
-5.1841182e-05
2.7145483e-05
-1.5170675e-05
-6.6702123e-05
3.3855546e-05
-1.8994605e-05
-8.5010412e-05
4.1928811e-05
-2.3620522e-05
-0.00010740578
5.1573843e-05
-2.9178477e-05
-0.00013460724
6.3008209e-05
-3.5806743e-05
-0.00016740929
7.6448984e-05
-4.3646935e-05
-0.00020667143
9.2098718e-05
-5.2836577e-05
-0.00025329889
0.00011012591
-6.349846e-05
-0.0003082123
0.00013064008
-7.5726662e-05
-0.00037230557
0.00015366355
-8.9570277e-05
-0.00044639525
0.00017910869
-0.00010501901
-0.00053117368
0.00020677943
-0.00012200101
-0.00062719089
0.00023642677
-0.00014040956
-0.00073489528
0.00026787459
-0.0001601702
-0.00085473958
0.00030117132
-0.00018132702
-0.00098731056
0.00033666113
-0.00020409015
-0.0011334217
0.00037491932
-0.0002288082
-0.0012941478
0.00041662616
-0.00025590001
-0.001470828
0.00046248185
-0.00028580169
-0.0016650748
0.00051319822
-0.00031895145
-0.0018788847
0.00056965516
-0.00035584526
-0.0021149388
0.00063320816
-0.00039715398
-0.0023766836
0.00070531165
-0.00044356688
-0.0026655366
0.00078255132
-0.00049369831
-0.0029810616
0.00086205968
-0.00054653475
-0.0033240524
0.00094497228
-0.00060198147
-0.0036997734
0.0010371315
-0.00066141046
-0.0041159373
0.0011423338
-0.00072616988
-0.0045807021
0.0012588043
-0.00079403956
-0.0051030141
0.0013845307
-0.00086221873
-0.0056931684
0.0015174451
-0.00092729079
-0.0063629845
0.0016541014
-0.00098428521
-0.0071260321
0.0017890375
-0.0010259899
-0.007998107
0.0019141977
-0.0010421228
-0.0089981249
0.0020184859
-0.001018468
-0.010149018
0.0020867005
-0.00093580779
-0.011478836
0.0020987198
-0.00076890123
-0.013021958
0.0020297615
-0.00048664006
-0.01481997
0.0018515821
-5.3569717e-05
-0.016921823
0.0015321582
0.00056969444
-0.019381686
0.0010350671
0.0014247966
-0.02225206
0.00032067246
0.0025497014
-0.025568107
-0.00065853874
0.0039745853
-0.029325992
-0.0019553118
0.0057131976
-0.033470503
-0.0035949664
0.007739477
-0.037864054
-0.0055797425
0.009973293
-0.042268298
-0.0078102924
0.012214536
-0.045618
-0.010092568
0.01344227
-0.046253609
-0.0120071
0.012642709
-0.0418859
-0.012632027
0.0082643184
-0.029584199
-0.011288967
-0.0010127344
-0.0087943134
-0.0089427643
-0.011847121
-6.1605217e-08
1.9742265e-07
-2.7375092e-07
6.797975e-07
-6.8592431e-07
1.3210298e-06
-1.359919e-06
2.1612597e-06
-2.3724447e-06
3.2494445e-06
-3.8182112e-06
4.6450066e-06
-5.8135347e-06
6.4197056e-06
-8.5005143e-06
8.6597116e-06
-1.2051824e-05
1.1467866e-05
-1.6676128e-05
1.4966047e-05
-2.2624116e-05
1.9297554e-05
-3.0195056e-05
2.4629306e-05
-3.9743779e-05
3.1153669e-05
-5.1687748e-05
3.9089452e-05
-6.651389e-05
4.8681689e-05
-8.4784547e-05
6.0199468e-05
-0.00010714166
7.3930952e-05
-0.00013430801
9.0174566e-05
-0.00016708407
0.00010922504
-0.00020633818
0.00013135283
-0.00025298811
0.00015677584
-0.00030797134
0.0001856233
-0.00037220327
0.00021789547
-0.0004465259
0.00025343132
-0.00053165843
0.00029191197
-0.00062817396
0.0003329423
-0.00073653322
0.00037623385
-0.00085718577
0.00042182386
-0.0009907013
0.00047017666
-0.001137869
0.00052208705
-0.0012997377
0.00057849486
-0.0014776181
0.00064036222
-0.0016730796
0.00070865971
-0.0018879209
0.00078449642
-0.002124002
0.00086928929
-0.0023831246
0.00096443422
-0.0026679125
0.0010673393
-0.0029799616
0.0011741087
-0.0033215655
0.0012865762
-0.0036976859
0.0014132519
-0.0041137947
0.0015584426
-0.0045770067
0.0017220163
-0.0050959614
0.0019034853
-0.0056805705
0.0021020542
-0.006342039
0.0023155699
-0.007093038
0.0025400365
-0.0079481937
0.0027693534
-0.0089247634
0.0029950556
-0.010043313
0.00320525
-0.011328578
0.0033839849
-0.012810253
0.0035114367
-0.014523382
0.0035647105
-0.016507885
0.0035166615
-0.018806189
0.0033333706
-0.021456512
0.002970996
-0.024480031
0.0023649799
-0.027864453
0.0014291105
-0.031559027
9.9607135e-05
-0.03545702
-0.0016817488
-0.039257691
-0.0040096222
-0.042090981
-0.007259277
-0.042484251
-0.01161383
-0.037953962
-0.017162316
-0.025383223
-0.023859706
-0.029833785
-0.0043437513
-6.0187947e-08
2.5761059e-07
-2.6750093e-07
8.8711048e-07
-6.7035921e-07
1.7238881e-06
-1.3292322e-06
2.8201327e-06
-2.3191985e-06
4.2394108e-06
-3.7329765e-06
6.0587845e-06
-5.6844628e-06
8.3711919e-06
-8.3128583e-06
1.1288107e-05
-1.1787384e-05
1.4942391e-05
-1.6312658e-05
1.9491321e-05
-2.2134681e-05
2.5119577e-05
-2.9547413e-05
3.2042038e-05
-3.8899774e-05
4.050603e-05
-5.060288e-05
5.0792559e-05
-6.5137092e-05
6.32159e-05
-8.3058348e-05
7.8120724e-05
-0.00010500294
9.5875546e-05
-0.00013168961
0.00011686123
-0.00016391734
0.00014145277
-0.00020255704
0.00016999253
-0.00024853446
0.00020275326
-0.00030280207
0.00023989091
-0.00036629816
0.00028139157
-0.00043989486
0.00032702802
-0.00052434477
0.00037636187
-0.00062024862
0.00042884616
-0.00072807617
0.00048406139
-0.00084825705
0.00054200475
-0.00098131201
0.00060323162
-0.0011279605
0.00066873558
-0.0012891667
0.00073970107
-0.0014661346
0.0008173301
-0.0016602773
0.00090280239
-0.0018731183
0.00099733737
-0.0021060402
0.0011022112
-0.0023599167
0.0012183107
-0.0026370944
0.001344517
-0.0029416082
0.0014786225
-0.0032777326
0.0016227006
-0.0036485986
0.0017841179
-0.0040580261
0.0019678701
-0.0045121143
0.0021761045
-0.0050185751
0.0024099461
-0.0055862942
0.0026697734
-0.0062251713
0.0029544469
-0.0069461802
0.0032610454
-0.0077617619
0.0035849352
-0.0086861156
0.0039194092
-0.0097355833
0.0042547178
-0.010929087
0.0045774891
-0.012288265
0.0048706143
-0.013837086
0.005113531
-0.015600317
0.0052798925
-0.017600281
0.0053333352
-0.01985051
0.0052212244
-0.022345397
0.0048598677
-0.025045964
0.0041296776
-0.027876627
0.0029302696
-0.030702995
0.0011446189
-0.033189203
-0.0015234138
-0.034571288
-0.0058771919
-0.033465701
-0.012719417
-0.027502377
-0.02312564
-0.013300273
-0.03806181
-0.052650433
0.0095163753
-5.7318197e-08
3.1492879e-07
-2.5482765e-07
1.0846199e-06
-6.387574e-07
2.1078178e-06
-1.2668586e-06
3.4482339e-06
-2.2108635e-06
5.1834157e-06
-3.5593949e-06
7.407316e-06
-5.4213927e-06
1.023319e-05
-7.9300828e-06
1.3796797e-05
-1.124758e-05
1.8259888e-05
-1.5570112e-05
2.3813853e-05
-2.1133916e-05
3.0683381e-05
-2.8221737e-05
3.9129859e-05
-3.7169857e-05
4.945415e-05
-4.8375434e-05
6.1998135e-05
-6.2303851e-05
7.7144317e-05
-7.9495552e-05
9.5312425e-05
-0.00010057162
0.00011695161
-0.000126237
0.00014252661
-0.0001572799
0.00017249568
-0.00019456536
0.00020727799
-0.00023902055
0.00024720845
-0.00029160902
0.00029247938
-0.00035329142
0.00034307397
-0.00042497326
0.00039870986
-0.00050744634
0.00045883495
-0.00060134411
0.00052274393
-0.00070714343
0.00058986071
-0.00082523877
0.0006601001
-0.00095607057
0.00073406342
-0.0011002434
0.00081290837
-0.0012585812
0.0008980389
-0.0014321201
0.00099086903
-0.0016220603
0.0010927426
-0.0018296675
0.0012049445
-0.0020561373
0.001328681
-0.002302609
0.0014647825
-0.0025712728
0.0016131809
-0.0028662422
0.0017735919
-0.0031918555
0.0019483139
-0.0035508169
0.0021430794
-0.0039462993
0.0023633525
-0.0043830658
0.002612871
-0.0048673736
0.0028942539
-0.0054064752
0.003208875
-0.006008301
0.0035562727
-0.0066814527
0.0039341971
-0.0074352913
0.0043387738
-0.0082798898
0.0047640078
-0.0092260948
0.0052009227
-0.010285502
0.0056368959
-0.011469969
0.006055082
-0.012790526
0.006434088
-0.014254833
0.0067441995
-0.015863073
0.0069415753
-0.017601844
0.0069599949
-0.019436556
0.00669458
-0.021298594
0.0059917155
-0.023079127
0.0047108023
-0.024602817
0.002668309
-0.025498871
-0.00062736008
-0.025026586
-0.0063494767
-0.021841819
-0.015904184
-0.013736398
-0.031231061
0.0027101999
-0.054508408
-0.077359598
0.027419365
-5.2747858e-08
3.6767665e-07
-2.3461399e-07
1.2664861e-06
-5.8830498e-07
2.4615088e-06
-1.1672088e-06
4.0271377e-06
-2.0376892e-06
6.0538961e-06
-3.2818195e-06
8.6514462e-06
-5.0005899e-06
1.195196e-05
-7.3176833e-06
1.6113891e-05
-1.0383824e-05
2.1326029e-05
-1.4381816e-05
2.7811845e-05
-1.9532221e-05
3.5833786e-05
-2.6099745e-05
4.5697383e-05
-3.4400196e-05
5.7754601e-05
-4.4807976e-05
7.2405915e-05
-5.776373e-05
9.0100072e-05
-7.3781842e-05
0.00011133054
-9.3457003e-05
0.00013662677
-0.00011746897
0.00016653858
-0.00014658409
0.00020161079
-0.00018165153
0.00024234543
-0.00022359192
0.00028914884
-0.00027337503
0.00034226249
-0.00033198355
0.0004016825
-0.00040036132
0.00046708763
-0.00047934964
0.00053782327
-0.00056962753
0.00061302182
-0.00067168865
0.00069192183
-0.00078589138
0.00077430283
-0.0009125806
0.00086075264
-0.0010522204
0.00095254813
-0.0012054688
0.0010512874
-0.0013731811
0.0011585813
-0.0015563685
0.00127593
-0.0017561388
0.0014047148
-0.0019736534
0.0015461956
-0.0022102722
0.0017014013
-0.0024681186
0.0018710272
-0.0027504993
0.0020559726
-0.0030609595
0.0022587741
-0.0034021128
0.0024842326
-0.0037765256
0.0027377653
-0.0041876684
0.0030240139
-0.0046400431
0.0033466286
-0.0051388065
0.0037076384
-0.0056894096
0.0041068757
-0.0062975232
0.0045423107
-0.0069687624
0.005010013
-0.0077083916
0.0055036371
-0.0085210779
0.006013609
-0.0094104874
0.0065263054
-0.010378342
0.0070229367
-0.011422836
0.0074785818
-0.012535323
0.0078566864
-0.013694528
0.0081007801
-0.014859104
0.0081245714
-0.015963344
0.0077988199
-0.016909587
0.0069379583
-0.017558023
0.0053592383
-0.017690529
0.0028008146
-0.016880911
-0.0014369775
-0.014368245
-0.0088621423
-0.0087846155
-0.021487814
0.0020462497
-0.042061927
0.021027613
-0.073489772
-0.10357336
0.047241377
-4.6308668e-08
4.1398532e-07
-2.0611508e-07
1.4262925e-06
-5.1713787e-07
2.7725316e-06
-1.0265883e-06
4.5365881e-06
-1.7932419e-06
6.8205498e-06
-2.8899055e-06
9.7481098e-06
-4.4063524e-06
1.3468407e-05
-6.4527658e-06
1.8160304e-05
-9.1638008e-06
2.4037064e-05
-1.2703273e-05
3.1351318e-05
-1.7269567e-05
4.040008e-05
-2.3101786e-05
5.1529602e-05
-3.0486643e-05
6.5139458e-05
-3.9765992e-05
8.1685264e-05
-5.1344869e-05
0.00010167895
-6.5699707e-05
0.00012568537
-8.3386209e-05
0.00015431328
-0.000105046
0.00018819837
-0.0001314108
0.00022797559
-0.00016330238
0.00027423701
-0.00020162548
0.00032747194
-0.00024735066
0.00038798767
-0.00030148287
0.0004558147
-0.00036501195
0.00053061672
-0.00043884508
0.0006116564
-0.00052373066
0.00069790739
-0.00062020481
0.00078839598
-0.00072860752
0.00088270554
-0.00084919114
0.00098133626
-0.00098226994
0.0010856269
-0.0011283249
0.0011973423
-0.0012880293
0.0013182857
-0.0014622219
0.0014501225
-0.0016518697
0.0015943627
-0.0018580643
0.0017523902
-0.002082136
0.001925473
-0.0023259299
0.002114821
-0.0025919328
0.0023219755
-0.0028827779
0.0025496193
-0.0032005771
0.0028020317
-0.0035471417
0.00308433
-0.0039245889
0.003401461
-0.0043354825
0.0037575222
-0.0047825728
0.0041547287
-0.005268499
0.004592802
-0.0057955629
0.0050693746
-0.0063652134
0.0055796634
-0.006977557
0.0061159807
-0.0076308553
0.0066669073
-0.0083208675
0.0072163176
-0.009039636
0.0077417052
-0.0097736734
0.0082126193
-0.010499717
0.0085827302
-0.011177849
0.0087789117
-0.011737171
0.0086838931
-0.012072744
0.0081343937
-0.012054734
0.0069199479
-0.011527079
0.0048315834
-0.010232654
0.0015063896
-0.0076544517
-0.00401518
-0.0029717932
-0.013544801
0.0052328022
-0.029692409
0.019132952
-0.055962076
0.040784878
-0.095141698
-0.13043399
0.067645508
-3.7976393e-08
4.5196171e-07
-1.6921407e-07
1.5575301e-06
-4.2494552e-07
3.0282631e-06
-8.4435277e-07
4.9559954e-06
-1.476342e-06
7.452539e-06
-2.3816808e-06
1.0653449e-05
-3.6355485e-06
1.4722275e-05
-5.3305857e-06
1.9855341e-05
-7.5805142e-06
2.6286992e-05
-1.0524408e-05
3.4295212e-05
-1.4331699e-05
4.4207371e-05
-1.9208013e-05
5.6405915e-05
-2.5401817e-05
7.1333262e-05
-3.321203e-05
8.9495477e-05
-4.2996393e-05
0.00011146331
-5.5180516e-05
0.0001378695
-7.0267209e-05
0.00016939997
-8.8845437e-05
0.0002067766
-0.00011159778
0.00025072794
-0.0001393049
0.00030194413
-0.00017284435
0.00036101138
-0.00021318015
0.00042832348
-0.00026133861
0.00050397316
-0.00031836413
0.00058764224
-0.00038524987
0.00067854213
-0.00046284624
0.00077550377
-0.0005517718
0.00087732153
-0.00065238398
0.00098331772
-0.00076486068
0.001093813
-0.00088936363
0.0012101299
-0.0010261817
0.0013341604
-0.0011757889
0.0014678929
-0.001338833
0.0016131666
-0.0015161036
0.0017716333
-0.0017085226
0.0019448091
-0.0019171954
0.0021341459
-0.0021435238
0.0023411495
-0.0023892176
0.0025676692
-0.0026559887
0.0028163904
-0.0029451133
0.0030911564
-0.0032574037
0.0033966204
-0.0035934837
0.003737541
-0.0039538437
0.0041178822
-0.0043386348
0.0045395198
-0.0047474529
0.0050016201
-0.0051789441
0.0055008657
-0.0056301634
0.0060308827
-0.0060959377
0.006581755
-0.0065681647
0.0071391342
-0.0070350284
0.0076831814
-0.0074796786
0.0081863555
-0.0078782674
0.008611208
-0.0081948876
0.0088993505
-0.008364668
0.0089486921
-0.0082826212
0.0086018464
-0.0078158911
0.0076676637
-0.006811415
0.0059154718
-0.0051002744
0.0031204429
-0.0023663711
-0.0012275137
0.0020213822
-0.0084029334
0.0089931057
-0.020516524
0.020035779
-0.040735082
0.037179586
-0.073105883
0.061087283
-0.11904939
-0.15633978
0.086993065
-2.7891058e-08
4.7985277e-07
-1.2451503e-07
1.6541541e-06
-3.132097e-07
3.2169578e-06
-6.233812e-07
5.2661669e-06
-1.0919177e-06
7.9210755e-06
-1.7649049e-06
1.1326436e-05
-2.6997158e-06
1.5657086e-05
-3.9675605e-06
2.1123186e-05
-5.6565488e-06
2.7975981e-05
-7.8754194e-06
3.6514082e-05
-1.0758011e-05
4.7089963e-05
-1.4468602e-05
6.0116507e-05
-1.9208298e-05
7.6072958e-05
-2.5222476e-05
9.5509655e-05
-3.2809498e-05
0.00011905033
-4.2330531e-05
0.00014739053
-5.4220442e-05
0.00018128988
-6.8999331e-05
0.00022155549
-8.7283898e-05
0.00026901251
-0.00010979718
0.00032445741
-0.00013737458
0.00038858878
-0.00017096241
0.00046191131
-0.00021160358
0.00054461433
-0.00026040218
0.00063644084
-0.00031845714
0.0007365971
-0.00038675778
0.00084380441
-0.00046605716
0.00095662092
-0.00055678412
0.0010740447
-0.00065907797
0.0011961068
-0.00077295308
0.001324005
-0.00089848533
0.0014596927
-0.0010359141
0.0016053217
-0.0011856509
0.0017629034
-0.001348245
0.0019342273
-0.0015243504
0.0021209146
-0.0017147206
0.0023245161
-0.0019202198
0.0025466486
-0.0021417673
0.0027892168
-0.0023801087
0.0030547318
-0.0026354854
0.003346533
-0.0029074847
0.0036686197
-0.003195072
0.0040251283
-0.0034965444
0.0044193546
-0.0038093471
0.0048523224
-0.0041298682
0.0053221412
-0.0044529287
0.0058239262
-0.0047710901
0.0063490441
-0.0050738951
0.00688456
-0.0053470054
0.0074122446
-0.0055713924
0.0079075684
-0.0057221829
0.008337146
-0.0057661206
0.0086551457
-0.0056472293
0.0087804591
-0.0052669643
0.0085684271
-0.0044992051
0.0078340872
-0.0032018256
0.0063702841
-0.0012158585
0.0039295047
0.0016561244
0.00024845991
0.0058417897
-0.0054131789
0.0120928
-0.014653944
0.021474678
-0.029898403
0.035583081
-0.054843485
0.055991023
-0.093513825
0.0808478
-0.14390617
-0.17907409
0.10358211
-1.6346483e-08
4.9619925e-07
-7.3314654e-08
1.7111223e-06
-1.8515221e-07
3.3287953e-06
-3.7000027e-07
5.451015e-06
-6.5087427e-07
8.2019495e-06
-1.0568931e-06
1.1732455e-05
-1.6248261e-06
1.6225019e-05
-2.4010097e-06
2.189937e-05
-3.443774e-06
2.9018745e-05
-4.826459e-06
3.7896767e-05
-6.6412004e-06
4.8904704e-05
-9.0036427e-06
6.2478949e-05
-1.2058803e-05
7.9128118e-05
-1.598823e-05
9.9439081e-05
-2.1018813e-05
0.00012408092
-2.7433308e-05
0.00015380503
-3.5582745e-05
0.00018943932
-4.5900526e-05
0.00023187327
-5.891802e-05
0.00028203
-7.5280402e-05
0.0003408198
-9.576093e-05
0.00040906931
-0.00012127049
0.00048742086
-0.00015285609
0.00057619993
-0.00019167894
0.00067526369
-0.00023895667
0.00078387482
-0.00029585299
0.00090070073
-0.00036331559
0.0010240835
-0.00044191859
0.0011526477
-0.00053182376
0.001286012
-0.00063292136
0.0014251026
-0.00074505637
0.0015718277
-0.00086818826
0.0017284536
-0.0010024331
0.0018971482
-0.0011480286
0.0020798229
-0.0013052757
0.0022781617
-0.001474483
0.0024937234
-0.001655908
0.0027280737
-0.0018496504
0.0029829591
-0.0020554388
0.0032605202
-0.0022723412
0.0035634354
-0.0024985382
0.0038948168
-0.0027311873
0.0042577774
-0.0029662843
0.0046544516
-0.0031984937
0.0050845319
-0.0034208969
0.0055445444
-0.0036244129
0.0060274422
-0.0037970606
0.0065216919
-0.0039231128
0.0070106122
-0.0039820444
0.0074711762
-0.0039480379
0.0078735618
-0.0037884567
0.0081775649
-0.0034563934
0.0083230824
-0.0028661953
0.008190261
-0.0018990797
0.0076013114
-0.00042473535
0.0063597429
0.0017126763
0.0042328725
0.0046700914
0.0009720896
0.0086997935
-0.0037812421
0.014376835
-0.01109022
0.022588637
-0.022865746
0.034585151
-0.041894917
0.052053008
-0.072311342
0.075134984
-0.1165958
0.098374629
-0.16714582
-0.19647986
0.1157804
-3.7853355e-09
4.9998458e-07
-1.7567742e-08
1.7249047e-06
-4.5637847e-08
3.3568654e-06
-9.3775396e-08
5.4991525e-06
-1.6975128e-07
8.2779254e-06
-2.8399901e-07
1.1846702e-05
-4.5052759e-07
1.6391547e-05
-6.8813028e-07
2.2136972e-05
-1.0220321e-06
2.9352647e-05
-1.4860546e-06
3.836079e-05
-2.125563e-06
4.9544212e-05
-3.0012944e-06
6.335468e-05
-4.1944678e-06
8.0321292e-05
-5.8134219e-06
0.00010105804
-8.0021764e-06
0.00012626967
-1.0951331e-05
0.00015675418
-1.4911632e-05
0.00019339962
-2.0210625e-05
0.00023717226
-2.7272209e-05
0.00028909158
-3.6638905e-05
0.00035018649
-4.8995401e-05
0.00042142581
-6.5190468e-05
0.00050361593
-8.6251512e-05
0.00059726098
-0.00011338069
0.00070239287
-0.00014791372
0.00081840785
-0.00019121403
0.00094400104
-0.00024448475
0.0010773542
-0.00030853793
0.0012167009
-0.00038365407
0.0013611281
-0.00046965871
0.0015111072
-0.0005661673
0.0016683363
-0.00067281373
0.0018351
-0.00078935069
0.0020136852
-0.00091563062
0.0022061028
-0.0010515249
0.0024140559
-0.0011968235
0.002639022
-0.0013511209
0.002882371
-0.0015136603
0.0031454985
-0.0016831064
0.0034299663
-0.0018572535
0.0037375824
-0.0020327397
0.0040703029
-0.0022047974
0.0044298351
-0.0023670395
0.0048166937
-0.0025112778
0.0052287702
-0.0026272057
0.0056604723
-0.0027018032
0.0061020397
-0.0027185582
0.0065384469
-0.0026564715
0.0069485254
-0.0024887838
0.0073034886
-0.0021828721
0.0075676501
-0.0016976567
0.0076923495
-0.00096445512
0.0075898808
0.00012503732
0.0071007686
0.0016922933
0.0060340555
0.0038798312
0.0041722049
0.0068557379
0.0012569658
0.010779638
-0.0029518108
0.01601359
-0.0090151942
0.023284931
-0.01836156
0.033666553
-0.033247368
0.048627746
-0.05685611
0.06946299
-0.093146586
0.093257105
-0.14038992
0.11179117
-0.18567989
-0.20800614
0.12331745
9.2405866e-09
4.90744e-07
4.0293207e-08
1.6938521e-06
9.9273057e-08
3.2978856e-06
1.9334746e-07
5.4050781e-06
3.3075234e-07
8.1405205e-06
5.2072621e-07
1.1656728e-05
7.7330571e-07
1.6138968e-05
1.0988982e-06
2.181138e-05
1.5075471e-06
2.8943998e-05
2.0077244e-06
3.7860613e-05
2.6044784e-06
4.8947458e-05
3.296633e-06
6.2662525e-05
4.0727856e-06
7.9545139e-05
4.9055473e-06
0.00010022527
5.7436808e-06
0.00012543154
6.5013299e-06
0.00015599653
7.0437498e-06
0.0001928572
7.1689215e-06
0.00023704709
6.584314e-06
0.00028967619
4.8786661e-06
0.00035189214
1.4892003e-06
0.00042481527
-4.3335065e-06
0.00050943864
-1.3558303e-05
0.00060648577
-2.739256e-05
0.00071622712
-4.7266257e-05
0.00083828155
-7.4745821e-05
0.0009714806
-0.00011133903
0.0011139475
-0.0001582014
0.0012635632
-0.00021587565
0.0014188024
-0.00028424094
0.0015794725
-0.00036272317
0.0017468185
-0.00045059276
0.0019229696
-0.00054716306
0.0021102555
-0.00065182741
0.0023107672
-0.0007639579
0.0025261864
-0.0008827635
0.0027578276
-0.0010071249
0.0030067324
-0.0011353918
0.0032737654
-0.0012651224
0.003559697
-0.0013927669
0.003865227
-0.0015133267
0.0041908628
-0.0016200252
0.0045365336
-0.0017040339
0.0049007025
-0.0017542611
0.0052789974
-0.0017569666
0.0056631778
-0.0016951578
0.0060402309
-0.0015477942
0.0063910833
-0.0012885512
0.0066892824
-0.0008845369
0.0068994743
-0.00029620099
0.0069793142
0.0005295819
0.0068665666
0.0016847046
0.0064347581
0.0032847127
0.0055007605
0.0054571006
0.0038616677
0.0083605645
0.001268741
0.012161378
-0.0025438475
0.017074465
-0.0078648984
0.023632856
-0.015573585
0.032723642
-0.027452346
0.045680123
-0.046203849
0.06399603
-0.075172017
0.086977699
-0.11612826
0.10807256
-0.16148478
0.12025412
-0.19786144
-0.21465365
0.12690164
2.2048877e-08
4.6869512e-07
9.7242234e-08
1.6186587e-06
2.4202682e-07
3.153101e-06
4.7645723e-07
5.1706477e-06
8.2476316e-07
7.7922146e-06
1.3159051e-06
1.1165586e-05
1.984126e-06
1.5470747e-05
2.869385e-06
2.0926121e-05
4.0176088e-06
2.7795774e-05
5.4806082e-06
3.6397613e-05
7.3154411e-06
4.7112625e-05
9.5829901e-06
6.0394977e-05
1.2345302e-05
7.6782828e-05
1.5661239e-05
9.6909336e-05
1.9579788e-05
0.00012151299
2.4130164e-05
0.00015144616
2.9307807e-05
0.00018767956
3.505506e-05
0.00023129984
4.1235408e-05
0.00028349584
4.7600311e-05
0.00034552724
5.3747992e-05
0.00041866759
5.907513e-05
0.0005041115
6.2725026e-05
0.00060283588
6.3541852e-05
0.0007154103
6.0052942e-05
0.00084177046
5.0519685e-05
0.00098101386
3.311477e-05
0.0011313524
6.2617127e-06
0.0012904163
-3.0984459e-05
0.0014560485
-7.8829857e-05
0.0016273179
-0.00013662266
0.0018046113
-0.00020320914
0.0019895561
-0.00027744356
0.0021844899
-0.0003581837
0.0023915073
-0.00044423073
0.0026122334
-0.0005341471
0.002847744
-0.00062604844
0.0030986338
-0.00071735261
0.0033650696
-0.00080447591
0.0036468203
-0.00088247663
0.0039432277
-0.0009446625
0.0042530487
-0.00098219655
0.0045740677
-0.00098376863
0.0049022745
-0.00093535032
0.005230579
-0.00081976499
0.0055475924
-0.00061604841
0.0058365143
-0.00029861517
0.0060736501
0.00016420647
0.0062264607
0.00081156629
0.0062521145
0.0016901851
0.0061006953
0.0028704659
0.0056862858
0.0044587855
0.0048464384
0.006573053
0.003386493
0.0093571573
0.0010775633
0.01297768
-0.0023517817
0.017606164
-0.0071723311
0.02360888
-0.013867615
0.031717408
-0.023682112
0.04306532
-0.038800258
0.059173206
-0.062311735
0.080448426
-0.096447238
0.1023565
-0.13803633
0.1171907
-0.17631898
0.12390916
-0.2045799
-0.21897379
0.1282293
3.387424e-08
4.3482088e-07
1.4989755e-07
1.5026354e-06
3.7417902e-07
2.9288195e-06
7.3887731e-07
4.8059494e-06
1.2832914e-06
7.2478004e-06
2.0550759e-06
1.0393802e-05
3.1115301e-06
1.4414293e-05
4.5209427e-06
1.9516708e-05
6.3638855e-06
2.5952831e-05
8.7343439e-06
3.4027155e-05
1.1740504e-05
4.4106465e-05
1.5504861e-05
5.6630619e-05
2.0163342e-05
7.2124347e-05
2.5862796e-05
9.1209882e-05
3.2756178e-05
0.00011461961
4.0994427e-05
0.00014320791
5.071381e-05
0.00017796017
6.2017137e-05
0.00021999651
7.494726e-05
0.00027056572
8.9450699e-05
0.0003310238
0.0001053299
0.00040278839
0.00012218315
0.00048725825
0.00013933382
0.0005856852
0.00015575636
0.00069898776
0.00017001802
0.00082750879
0.00018027819
0.00097075369
0.00018441158
0.001127219
0.00018033008
0.0012944978
0.00016657282
0.0014698058
0.00014239508
0.0016514957
0.00010853523
0.0018384712
6.6214972e-05
0.0020318763
1.6998882e-05
0.002233706
-3.7381e-05
0.0024458872
-9.5062747e-05
0.0026699152
-0.00015386914
0.0029065504
-0.0002110824
0.003155847
-0.00026314262
0.0034171298
-0.0003052911
0.0036889687
-0.00033116457
0.0039691011
-0.00033234993
0.004254234
-0.00029793053
0.0045396483
-0.0002140974
0.0048184414
-6.3861576e-05
0.0050803432
0.00017336948
0.0053103614
0.00052252048
0.0054873633
0.0010136864
0.0055824841
0.0016837658
0.0055563813
0.0025786222
0.0053572581
0.0037542461
0.0049250714
0.005299194
0.0041413379
0.0073244573
0.0028211751
0.009959024
0.0007519263
0.013363088
-0.0023265005
0.01770264
-0.0066913341
0.02323683
-0.012706521
0.030568246
-0.021199031
0.04067192
-0.033785786
0.054949644
-0.053077982
0.07431962
-0.081681711
0.095895547
-0.11802316
0.11246764
-0.15460842
0.12123394
-0.18508528
0.12526128
-0.20860724
-0.22250784
0.12879533
4.3986417e-08
3.9083446e-07
1.9499825e-07
1.3516236e-06
4.8754164e-07
2.6362761e-06
9.6434655e-07
4.3291445e-06
1.6779599e-06
6.5341871e-06
2.6925573e-06
9.3792046e-06
4.0859845e-06
1.3020865e-05
5.9519649e-06
1.7650728e-05
8.402477e-06
2.3502319e-05
1.1570141e-05
3.0859491e-05
1.5610496e-05
4.006611e-05
2.07039e-05
5.1537215e-05
2.7056674e-05
6.5771574e-05
3.4900933e-05
8.3365622e-05
4.4492347e-05
0.00010502819
5.6104748e-05
0.00013159551
7.0020222e-05
0.0001640447
8.6512733e-05
0.000203504
0.0001058231
0.00025125535
0.00012812254
0.00030872436
0.00015346174
0.00037744919
0.00018170292
0.00045901708
0.00021243376
0.00055495436
0.00024486697
0.00066655455
0.00027774022
0.00079463554
0.00030925361
0.0009392403
0.00033712058
0.001099352
0.00035881927
0.0012727991
0.00037203508
0.00145659
0.00037543946
0.0016480913
0.00036881506
0.0018450956
0.00035384396
0.0020468474
0.00033236586
0.0022551841
0.00030671689
0.0024715362
0.00027956323
0.0026970688
0.00025387286
0.0029322408
0.00023325442
0.0031764655
0.00022228626
0.0034280979
0.00022692776
0.0036843272
0.00025497627
0.0039410526
0.00031656641
0.0041926439
0.00042468212
0.0044315325
0.00059561355
0.00464751
0.00084930026
0.0048266565
0.0012097304
0.0049499312
0.0017057428
0.0049913509
0.0023719093
0.0049163177
0.0032502303
0.0046780602
0.0043938663
0.0042136222
0.0058721275
0.0034468101
0.0077862015
0.002227264
0.010252451
0.00035492557
0.013418098
-0.0024137205
0.017453084
-0.0063614864
0.022571304
-0.011809554
0.029256966
-0.019392183
0.038401386
-0.030343451
0.05124163
-0.046626031
0.068835346
-0.070671698
0.089363841
-0.10221021
0.10654756
-0.13520688
0.11667158
-0.16473244
0.12200386
-0.19041756
0.12521921
-0.21182259
-0.2267736
0.12948497
5.1661218e-08
3.3917325e-07
2.2932676e-07
1.173958e-06
5.7404395e-07
2.2915589e-06
1.1368406e-06
3.7663479e-06
1.9807444e-06
5.6902832e-06
3.1831448e-06
8.1768043e-06
4.8384641e-06
1.1365546e-05
7.0612105e-06
1.5427981e-05
9.9893325e-06
2.0574197e-05
1.3787855e-05
2.7060968e-05
1.8652667e-05
3.5201299e-05
2.4814283e-05
4.5375599e-05
3.2541186e-05
5.8044671e-05
4.214239e-05
7.3764418e-05
5.3968337e-05
9.3202246e-05
6.8409203e-05
0.00011715464
8.5889008e-05
0.00014656489
0.00010685373
0.00018253928
0.0001317504
0.00022635868
0.00016099414
0.00027948061
0.00019491878
0.00034352455
0.00023370652
0.00042022933
0.0002772928
0.00051136808
0.00032524522
0.00061860213
0.00037662438
0.00074325639
0.0004298535
0.00088601118
0.0004826605
0.001046545
0.00053221327
0.0012232463
0.00057558263
0.0014132206
0.00061085765
0.0016128163
0.00063633936
0.0018196138
0.00065259353
0.0020305933
0.00066220298
0.0022455746
0.00066799249
0.0024657467
0.00067358527
0.002691476
0.00068291767
0.0029229084
0.00070055861
0.0031588245
0.00073214343
0.0033965131
0.00078485997
0.0036316107
0.00086794349
0.0038579691
0.00099322847
0.0040673589
0.0011757236
0.0042490374
0.0014341417
0.0043890919
0.0017913237
0.0044694745
0.002274612
0.0044666429
0.0029166869
0.004349276
0.003756666
0.0040763386
0.004841954
0.0035927722
0.0062339318
0.0028216444
0.008017867
0.0016628749
0.010302596
-5.7464774e-05
0.01322029
-0.0025627685
0.016939428
-0.0061328586
0.021665905
-0.011087963
0.027808914
-0.017952563
0.036196634
-0.027779904
0.047964101
-0.042110918
0.064018852
-0.062680782
0.083157722
-0.089810567
0.10010204
-0.11915452
0.11088192
-0.14598676
0.11725109
-0.17110162
0.12140274
-0.19456921
0.12504281
-0.21546266
-0.23194757
0.13021678
5.6349901e-08
2.8282334e-07
2.5041617e-07
9.7989176e-07
6.2744947e-07
1.9145256e-06
1.2438864e-06
3.1499109e-06
2.1697062e-06
4.7644634e-06
3.4911892e-06
6.8553212e-06
5.3141468e-06
9.5425886e-06
7.7676315e-06
1.2974497e-05
1.100816e-05
1.7333669e-05
1.5224456e-05
2.2844672e-05
2.0642637e-05
2.9783118e-05
2.7531736e-05
3.8486499e-05
3.6209349e-05
4.9367058e-05
4.7046954e-05
6.2926814e-05
6.0474388e-05
7.9774811e-05
7.6982451e-05
0.00010064658
9.7122304e-05
0.00012642504
0.00012149957
0.00015816201
0.00015076057
0.00019709768
0.00018556653
0.00024467466
0.00022655115
0.00030253993
0.0002742552
0.00037252528
0.00032903148
0.0004565918
0.00039091422
0.00055671939
0.00045945259
0.00067471801
0.00053352241
0.00081194136
0.00061116241
0.00096890502
0.00068953706
0.0011448717
0.00076518107
0.0013375766
0.00083462763
0.0015433697
0.00089619403
0.0017580474
0.0009490402
0.0019777471
0.00099458159
0.0022000333
0.0010359383
0.00242439
0.0010773433
0.002650071
0.0011240115
0.0028762402
0.0011815785
0.0031012575
0.0012569375
0.0033211542
0.0013585736
0.0035299746
0.0014971744
0.0037193683
0.0016862394
0.003878294
0.0019427278
0.003992549
0.0022876728
0.0040441469
0.0027467103
0.004010437
0.0033505191
0.0038628342
0.0041355574
0.0035642377
0.0051457841
0.0030661119
0.0064346975
0.0023038588
0.0080733739
0.0011829681
0.010163206
-0.00042695679
0.012826565
-0.0027208244
0.016223781
-0.0059599843
0.020566805
-0.010475883
0.026239827
-0.016760985
0.034032279
-0.025745015
0.045019673
-0.038767297
0.059845671
-0.056936916
0.077415544
-0.080250654
0.093552364
-0.10594739
0.10446346
-0.13006562
0.11137987
-0.15290317
0.11634025
-0.176062
0.12035816
-0.19858713
0.12486841
-0.2199729
-0.23794071
0.13086155
5.7708255e-08
2.2511509e-07
2.5671141e-07
7.8088861e-07
6.4380292e-07
1.5274341e-06
1.2775224e-06
2.5161914e-06
2.2307041e-06