/*--------------------------------*- C++ -*----------------------------------*\
  =========                 |
  \\      /  F ield         | OpenFOAM: The Open Source CFD Toolbox
   \\    /   O peration     | Website:  https://openfoam.org
    \\  /    A nd           | Version:  13
     \\/     M anipulation  |
\*---------------------------------------------------------------------------*/
FoamFile
{
    format      ascii;
    class       volScalarField;
    location    "32.596489";
    object      p;
}
// * * * * * * * * * * * * * * * * * * * * * * * * * * * * * * * * * * * * * //

dimensions      [0 2 -2 0 0 0 0];

internalField   nonuniform List<scalar> 
17140
(
-0.27830121
-0.2783095
-0.27831932
-0.27832981
-0.27834131
-0.27835401
-0.278368
-0.27838336
-0.27840021
-0.27841866
-0.27843882
-0.27846078
-0.27848465
-0.27851052
-0.27853845
-0.27856851
-0.27860073
-0.27863511
-0.27867165
-0.27871029
-0.278751
-0.27879372
-0.27883848
-0.27888543
-0.27893497
-0.27898797
-0.27904612
-0.27911237
-0.27919176
-0.27929236
-0.27942638
-0.27961083
-0.27986639
-0.28021335
-0.28066431
-0.28121653
-0.28184871
-0.28252447
-0.28320064
-0.283836
-0.28439788
-0.28486553
-0.28523084
-0.28549547
-0.28567079
-0.28577987
-0.28584132
-0.28586898
-0.28587305
-0.28586759
-0.2858297
-0.28576372
-0.28552095
-0.28508175
-0.28386822
-0.28172572
-0.27708939
-0.26999204
-0.25688231
-0.24064576
-0.22076114
-0.21209836
-0.20003993
-0.17015305
-0.091538752
-0.27879392
-0.27880208
-0.27881198
-0.27882221
-0.27883342
-0.27884581
-0.27885946
-0.27887446
-0.27889092
-0.27890893
-0.27892861
-0.27895005
-0.27897335
-0.2789986
-0.27902586
-0.27905518
-0.2790866
-0.27912012
-0.27915573
-0.27919337
-0.27923301
-0.27927459
-0.27931815
-0.27936383
-0.27941206
-0.27946372
-0.27952051
-0.27958543
-0.27966351
-0.27976283
-0.27989557
-0.28007861
-0.28033252
-0.2806775
-0.28112628
-0.28167669
-0.28230837
-0.28298627
-0.28366871
-0.2843162
-0.28489793
-0.28539542
-0.28580331
-0.2861268
-0.2863825
-0.28659946
-0.28680486
-0.28702547
-0.28728858
-0.28763162
-0.28806418
-0.28863193
-0.28924145
-0.28992385
-0.29015446
-0.28971113
-0.28677383
-0.28052408
-0.26585167
-0.24447433
-0.21469424
-0.19314379
-0.1675388
-0.13656575
-0.071435866
-0.27936219
-0.27937001
-0.27937951
-0.27938935
-0.27940013
-0.27941206
-0.2794252
-0.27943964
-0.27945548
-0.27947283
-0.27949178
-0.27951242
-0.27953486
-0.27955916
-0.2795854
-0.27961362
-0.27964385
-0.2796761
-0.27971033
-0.27974651
-0.27978459
-0.27982452
-0.27986633
-0.27991018
-0.27995649
-0.28000617
-0.2800609
-0.28012368
-0.28019951
-0.28029638
-0.28042629
-0.28060588
-0.28085538
-0.28119479
-0.28163698
-0.28218047
-0.2828062
-0.28348078
-0.28416438
-0.28481946
-0.28541723
-0.28594161
-0.28638996
-0.28677102
-0.28710687
-0.2874322
-0.28778291
-0.28819916
-0.28872568
-0.28942434
-0.2903391
-0.29156053
-0.29305611
-0.29491827
-0.29668851
-0.29810716
-0.29707939
-0.29190753
-0.27584238
-0.24837754
-0.20816562
-0.17359994
-0.13529977
-0.10297884
-0.049119218
-0.28000191
-0.2800093
-0.28001825
-0.28002755
-0.28003776
-0.28004905
-0.28006149
-0.28007517
-0.28009018
-0.28010662
-0.28012458
-0.28014415
-0.28016541
-0.28018845
-0.28021332
-0.28024006
-0.2802687
-0.28029924
-0.28033165
-0.28036589
-0.28040191
-0.28043967
-0.28047919
-0.28052064
-0.28056445
-0.2806115
-0.28066348
-0.28072333
-0.28079598
-0.28088924
-0.28101482
-0.28118892
-0.28143129
-0.28176155
-0.28219269
-0.28272407
-0.28333822
-0.28400377
-0.2846831
-0.28534081
-0.28595034
-0.286498
-0.28698391
-0.28742038
-0.2878349
-0.28826741
-0.28876281
-0.28937452
-0.29016517
-0.2912217
-0.29262396
-0.29451063
-0.2969146
-0.30000004
-0.3033925
-0.30681599
-0.30797404
-0.30410303
-0.28652304
-0.25230592
-0.20074178
-0.15353891
-0.10410523
-0.070732671
-0.027726027
-0.2807077
-0.28071454
-0.28072279
-0.28073142
-0.2807409
-0.28075139
-0.28076295
-0.28077567
-0.28078963
-0.28080492
-0.28082163
-0.28083984
-0.28085963
-0.28088106
-0.28090421
-0.2809291
-0.28095575
-0.28098416
-0.2810143
-0.28104613
-0.2810796
-0.28111467
-0.28115137
-0.28118986
-0.28123055
-0.28127435
-0.28132288
-0.28137904
-0.28144759
-0.28153611
-0.28165589
-0.28182254
-0.28205512
-0.28237274
-0.28278844
-0.28330255
-0.28389943
-0.28455009
-0.28521941
-0.28587443
-0.28649093
-0.28705766
-0.28757744
-0.28806624
-0.2885564
-0.28909317
-0.28973028
-0.2905342
-0.29158547
-0.29299623
-0.29488323
-0.29743549
-0.30075328
-0.30508248
-0.3101519
-0.31569875
-0.31918102
-0.31685772
-0.29765507
-0.25614489
-0.19325934
-0.13291884
-0.074613903
-0.045511046
-0.0092503168
-0.2814719
-0.28147809
-0.28148551
-0.28149334
-0.28150194
-0.28151147
-0.28152197
-0.28153353
-0.28154623
-0.28156014
-0.28157534
-0.28159192
-0.28160994
-0.28162947
-0.28165055
-0.28167322
-0.28169749
-0.28172337
-0.28175081
-0.28177978
-0.28181022
-0.28184211
-0.28187547
-0.28191045
-0.28194748
-0.28198742
-0.28203185
-0.28208358
-0.28214718
-0.28222989
-0.28234249
-0.28249984
-0.28272015
-0.28302185
-0.28341795
-0.28390978
-0.28448377
-0.28511362
-0.28576703
-0.28641369
-0.28703188
-0.28761281
-0.28816194
-0.28869883
-0.28926018
-0.28989648
-0.29066972
-0.29165918
-0.29296264
-0.29471718
-0.29707661
-0.30028048
-0.3044943
-0.31005852
-0.31682776
-0.32457524
-0.33057069
-0.32986943
-0.30864359
-0.25902983
-0.18327933
-0.11171279
-0.046934593
-0.020186591
0.0051093528
-0.2822851
-0.28229053
-0.28229701
-0.28230391
-0.2823115
-0.28231991
-0.2823292
-0.28233942
-0.28235065
-0.28236296
-0.28237643
-0.28239112
-0.2824071
-0.28242441
-0.28244311
-0.28246322
-0.28248476
-0.28250771
-0.28253204
-0.28255772
-0.28258469
-0.28261293
-0.28264245
-0.28267343
-0.28270625
-0.28274176
-0.28278149
-0.28282809
-0.28288592
-0.28296184
-0.283066
-0.28321239
-0.28341818
-0.28370097
-0.28407362
-0.28453848
-0.28508418
-0.28568735
-0.28631881
-0.28695116
-0.28756529
-0.28815492
-0.28872805
-0.28930759
-0.28993428
-0.29066331
-0.29156444
-0.29272889
-0.29427065
-0.29635062
-0.29915863
-0.30298153
-0.30804742
-0.31479914
-0.323239
-0.33318374
-0.34173902
-0.34245821
-0.31879011
-0.26079234
-0.17282954
-0.090654222
-0.022171632
0.00033881536
0.015552275
-0.28313577
-0.28314037
-0.28314584
-0.28315171
-0.28315817
-0.28316533
-0.28317324
-0.28318197
-0.28319156
-0.28320209
-0.28321361
-0.28322619
-0.28323987
-0.28325471
-0.28327074
-0.28328798
-0.28330645
-0.28332613
-0.28334699
-0.283369
-0.28339209
-0.28341626
-0.28344151
-0.28346802
-0.28349616
-0.28352673
-0.2835612
-0.28360206
-0.28365341
-0.28372166
-0.28381627
-0.28395023
-0.28413957
-0.28440086
-0.28474666
-0.28518029
-0.28569261
-0.28626343
-0.28686689
-0.28747875
-0.28808266
-0.28867481
-0.2892657
-0.28988144
-0.290566
-0.29137879
-0.29239675
-0.29372151
-0.29548168
-0.29786017
-0.30108029
-0.30546679
-0.31129602
-0.3191537
-0.32916766
-0.34118926
-0.35207746
-0.3537253
-0.32687651
-0.25866978
-0.1614966
-0.070586725
-0.0022391711
0.014727533
0.02175663
-0.28401116
-0.28401486
-0.28401927
-0.28402401
-0.28402924
-0.28403504
-0.28404147
-0.28404856
-0.28405637
-0.28406495
-0.28407435
-0.28408462
-0.2840958
-0.28410794
-0.28412106
-0.28413518
-0.2841503
-0.28416641
-0.28418349
-0.28420148
-0.28422035
-0.28424006
-0.28426066
-0.28428229
-0.28430532
-0.28433049
-0.28435919
-0.28439374
-0.28443797
-0.28449777
-0.28458185
-0.28470215
-0.28487341
-0.28511104
-0.28542714
-0.28582582
-0.28630017
-0.28683324
-0.28740275
-0.2879878
-0.28857494
-0.28916285
-0.28976444
-0.2904088
-0.29114205
-0.29202749
-0.29314826
-0.29461424
-0.29656639
-0.29920672
-0.30278488
-0.30765475
-0.31416819
-0.32296733
-0.33436819
-0.34816584
-0.3608379
-0.36253371
-0.33166219
-0.25679341
-0.14983269
-0.055141905
0.012472482
0.023088386
0.023387053
-0.28489684
-0.28489959
-0.28490288
-0.28490643
-0.28491035
-0.28491472
-0.28491956
-0.28492492
-0.28493084
-0.28493735
-0.2849445
-0.28495233
-0.28496086
-0.28497012
-0.28498015
-0.28499095
-0.28500251
-0.28501483
-0.28502787
-0.28504159
-0.28505596
-0.28507094
-0.28508658
-0.28510301
-0.28512057
-0.28513998
-0.28516249
-0.28519027
-0.28522682
-0.28527753
-0.28535031
-0.28545597
-0.28560792
-0.28582024
-0.28610434
-0.28646498
-0.2868973
-0.28738765
-0.28791741
-0.28846924
-0.28903275
-0.2896091
-0.29021351
-0.29087763
-0.29164889
-0.29259381
-0.29380017
-0.29538371
-0.29749474
-0.30035003
-0.30421796
-0.30945937
-0.31650782
-0.32605511
-0.33856419
-0.35365365
-0.36714506
-0.36729541
-0.33180792
-0.25397021
-0.14481905
-0.054701504
0.011702235
0.021716302
0.021278089
-0.28577836
-0.28578014
-0.28578228
-0.2857846
-0.28578718
-0.28579006
-0.28579328
-0.28579685
-0.28580082
-0.28580519
-0.28581001
-0.2858153
-0.28582108
-0.28582737
-0.28583419
-0.28584153
-0.28584939
-0.28585776
-0.2858666
-0.28587587
-0.28588553
-0.28589556
-0.28590599
-0.28591695
-0.28592876
-0.28594205
-0.285958
-0.28597856
-0.28600691
-0.28604791
-0.28610865
-0.2861988
-0.28633044
-0.28651615
-0.28676651
-0.28708678
-0.28747374
-0.28791696
-0.28840153
-0.2889138
-0.28944657
-0.29000352
-0.2906021
-0.29127581
-0.292073
-0.29306214
-0.2943337
-0.29600647
-0.29823645
-0.30124617
-0.30529796
-0.31077619
-0.31816592
-0.32825929
-0.34144129
-0.35717909
-0.36975061
-0.36663383
-0.32574392
-0.24537909
-0.14355535
-0.063616309
-0.0043348537
0.0068399155
0.016026884
-0.28663982
-0.28664063
-0.28664162
-0.28664271
-0.28664395
-0.28664535
-0.28664693
-0.28664872
-0.28665071
-0.28665294
-0.28665542
-0.28665816
-0.28666117
-0.28666446
-0.28666803
-0.28667189
-0.28667601
-0.28668038
-0.28668496
-0.2866897
-0.28669458
-0.28669956
-0.28670467
-0.28671002
-0.28671589
-0.28672286
-0.28673198
-0.28674499
-0.28676475
-0.28679557
-0.28684379
-0.28691788
-0.28702913
-0.28718773
-0.28740291
-0.28768096
-0.28801963
-0.28841175
-0.28884592
-0.28931231
-0.28980699
-0.29033624
-0.29091952
-0.29159149
-0.292401
-0.29341688
-0.29472994
-0.29645861
-0.29875826
-0.30184373
-0.30598363
-0.31150071
-0.31910763
-0.32937728
-0.34286872
-0.3579549
-0.36829335
-0.35970403
-0.31438414
-0.23597175
-0.14395753
-0.073207545
-0.019287115
-0.0067855384
0.0053414204
-0.28746799
-0.28746786
-0.28746773
-0.28746763
-0.28746756
-0.28746752
-0.28746752
-0.28746756
-0.28746765
-0.28746778
-0.28746797
-0.28746821
-0.28746851
-0.28746885
-0.28746925
-0.28746967
-0.28747011
-0.28747052
-0.28747088
-0.28747113
-0.28747123
-0.28747116
-0.28747091
-0.28747058
-0.2874704
-0.28747088
-0.2874729
-0.28747803
-0.28748873
-0.2875088
-0.28754377
-0.28760052
-0.28769059
-0.28781966
-0.28799909
-0.28823472
-0.28852349
-0.28886172
-0.28924108
-0.28965565
-0.29010488
-0.29059772
-0.29115547
-0.29181332
-0.29261991
-0.29364277
-0.29497051
-0.29671694
-0.29903136
-0.30209672
-0.30617864
-0.3116182
-0.31914711
-0.32931458
-0.34239918
-0.35581773
-0.36190915
-0.34697561
-0.29885139
-0.2254076
-0.1446816
-0.082644723
-0.033847074
-0.019672628
-0.007531698
-0.28824754
-0.28824654
-0.28824537
-0.28824417
-0.28824288
-0.28824149
-0.28824
-0.28823841
-0.2882367
-0.28823486
-0.2882329
-0.28823079
-0.28822853
-0.28822609
-0.28822347
-0.28822064
-0.28821756
-0.2882142
-0.28821051
-0.28820643
-0.28820192
-0.28819691
-0.2881914
-0.28818544
-0.28817918
-0.28817303
-0.28816773
-0.28816455
-0.28816559
-0.28817405
-0.2881946
-0.28823021
-0.28831011
-0.2884183
-0.288551
-0.28874245
-0.28897815
-0.28925914
-0.28957906
-0.28993577
-0.29033195
-0.29077918
-0.29130023
-0.29193039
-0.29271672
-0.29372442
-0.29503634
-0.29675904
-0.29899771
-0.30197353
-0.30585204
-0.31109683
-0.31821792
-0.3279544
-0.33983596
-0.35040957
-0.35047791
-0.32981737
-0.28246572
-0.21546109
-0.14510754
-0.090241745
-0.045654976
-0.030560237
-0.017255558
-0.28897008
-0.2889683
-0.28896621
-0.28896401
-0.28896163
-0.28895904
-0.28895622
-0.28895315
-0.28894982
-0.28894622
-0.28894231
-0.28893807
-0.28893348
-0.28892852
-0.28892316
-0.28891735
-0.28891105
-0.28890422
-0.28889679
-0.28888871
-0.28887989
-0.28887027
-0.2888598
-0.28884847
-0.2888364
-0.28882387
-0.28881144
-0.28880018
-0.2887918
-0.288789
-0.28879608
-0.28881649
-0.28885813
-0.28892604
-0.28903175
-0.28918687
-0.28937004
-0.28959343
-0.28985103
-0.2901448
-0.29048049
-0.29087254
-0.29134479
-0.29193221
-0.29267855
-0.29364522
-0.29490742
-0.29653879
-0.29866229
-0.30140082
-0.30498682
-0.30976387
-0.31643741
-0.32514912
-0.33524904
-0.34104661
-0.33478854
-0.31069299
-0.26472002
-0.20804987
-0.14491305
-0.096562856
-0.056090179
-0.040094388
-0.026732186
-0.28962352
-0.28962109
-0.28961823
-0.28961521
-0.28961191
-0.28960831
-0.28960437
-0.28960007
-0.28959538
-0.28959027
-0.28958471
-0.28957867
-0.28957211
-0.28956499
-0.28955726
-0.28954889
-0.2895398
-0.28952994
-0.28951924
-0.28950759
-0.28949491
-0.28948109
-0.28946603
-0.28944966
-0.28943198
-0.28941312
-0.28939345
-0.28937373
-0.28935529
-0.28934021
-0.28933079
-0.28933974
-0.2893539
-0.28939035
-0.28946333
-0.28956306
-0.28969625
-0.28985917
-0.2900514
-0.29027688
-0.29054464
-0.29087109
-0.2912811
-0.29180797
-0.29249099
-0.29338723
-0.29455751
-0.29606224
-0.29797885
-0.30036555
-0.3035982
-0.30777179
-0.31372525
-0.32117793
-0.32827154
-0.32809899
-0.31706385
-0.29137183
-0.24977604
-0.19918969
-0.14484883
-0.10151976
-0.064632972
-0.048194548
-0.034428157
-0.29020599
-0.29020307
-0.29019963
-0.29019597
-0.29019199
-0.29018761
-0.29018281
-0.29017756
-0.29017182
-0.29016555
-0.29015871
-0.29015126
-0.29014314
-0.29013432
-0.29012473
-0.29011431
-0.29010299
-0.29009068
-0.29007729
-0.29006271
-0.2900468
-0.2900294
-0.29001036
-0.28998952
-0.28996676
-0.28994203
-0.28991548
-0.28988754
-0.28985911
-0.28983182
-0.28980783
-0.28979356
-0.28978261
-0.28978925
-0.28982649
-0.28987708
-0.28995407
-0.29005344
-0.29017644
-0.29032807
-0.29051964
-0.29076891
-0.29110103
-0.29154527
-0.2921381
-0.29292831
-0.29396288
-0.29526331
-0.29687838
-0.29891801
-0.30149772
-0.30525099
-0.31028446
-0.31548523
-0.31753546
-0.31343946
-0.29944405
-0.27280275
-0.23641356
-0.19184506
-0.14413557
-0.1053499
-0.071800248
-0.055014031
-0.041199258
-0.29071196
-0.29070875
-0.29070495
-0.29070091
-0.2906965
-0.29069164
-0.2906863
-0.29068045
-0.29067405
-0.29066704
-0.29065937
-0.29065101
-0.29064188
-0.29063193
-0.29062108
-0.29060927
-0.2905964
-0.29058237
-0.29056704
-0.29055027
-0.29053188
-0.29051164
-0.29048931
-0.29046459
-0.2904372
-0.29040687
-0.29037341
-0.29033684
-0.29029751
-0.29025631
-0.29021479
-0.29017602
-0.29014227
-0.29011685
-0.29010929
-0.2901148
-0.29013582
-0.29017118
-0.29022238
-0.29029511
-0.29040178
-0.29056045
-0.2907946
-0.29112862
-0.29159593
-0.29223321
-0.29305752
-0.29407857
-0.295344
-0.29695346
-0.2991973
-0.30236083
-0.30566659
-0.30741445
-0.30558703
-0.2983381
-0.2807782
-0.25808935
-0.22381573
-0.1847922
-0.14305029
-0.10816473
-0.077527417
-0.060691987
-0.046799803
-0.29114714
-0.29114385
-0.29113995
-0.2911358
-0.29113126
-0.29112625
-0.29112074
-0.29111469
-0.29110805
-0.29110077
-0.2910928
-0.29108408
-0.29107455
-0.29106413
-0.29105274
-0.29104029
-0.29102667
-0.29101176
-0.29099538
-0.29097735
-0.29095741
-0.29093529
-0.2909106
-0.29088291
-0.29085174
-0.29081655
-0.29077679
-0.29073203
-0.29068203
-0.29062698
-0.29056764
-0.29050571
-0.29044349
-0.29038395
-0.29033123
-0.29028574
-0.29024779
-0.290216
-0.29019126
-0.29017851
-0.29018947
-0.29024044
-0.2903502
-0.29054191
-0.29084216
-0.2912814
-0.29183762
-0.29258701
-0.29346901
-0.29499617
-0.29671796
-0.29849723
-0.29925596
-0.2976299
-0.29296139
-0.28245733
-0.26619823
-0.24364712
-0.21323453
-0.1785854
-0.14158467
-0.11007895
-0.082047326
-0.065317445
-0.05153329
-0.291516
-0.29151287
-0.29150916
-0.2915052
-0.29150086
-0.29149606
-0.29149078
-0.29148498
-0.29147859
-0.29147158
-0.29146389
-0.29145544
-0.29144619
-0.29143604
-0.2914249
-0.29141268
-0.29139923
-0.29138439
-0.29136798
-0.29134973
-0.29132934
-0.2913064
-0.29128042
-0.29125078
-0.29121676
-0.29117749
-0.29113203
-0.2910794
-0.29101873
-0.29094938
-0.29087126
-0.29078498
-0.29069204
-0.29059466
-0.29049559
-0.29039596
-0.29029565
-0.29019289
-0.29008704
-0.28998027
-0.2898816
-0.2898022
-0.28975519
-0.28976821
-0.28986633
-0.29005732
-0.29042669
-0.29087627
-0.29175445
-0.29273296
-0.29326861
-0.29307976
-0.29099696
-0.28723465
-0.27979641
-0.26786687
-0.25264145
-0.23126529
-0.20353529
-0.17256323
-0.13970819
-0.1111855
-0.085442486
-0.069071305
-0.05500023
-0.29183164
-0.29182892
-0.29182571
-0.29182227
-0.29181849
-0.29181431
-0.2918097
-0.29180461
-0.29179901
-0.29179284
-0.29178605
-0.29177857
-0.29177034
-0.29176126
-0.29175124
-0.29174015
-0.29172785
-0.29171413
-0.29169876
-0.29168142
-0.2916617
-0.2916391
-0.29161297
-0.29158246
-0.29154659
-0.29150411
-0.29145364
-0.29139359
-0.29132238
-0.29123851
-0.29114089
-0.29102907
-0.29090352
-0.29076565
-0.29061743
-0.29046004
-0.29029307
-0.29011389
-0.28991928
-0.28970607
-0.2894799
-0.28923991
-0.28901064
-0.28881683
-0.28869997
-0.28872548
-0.28895714
-0.28932426
-0.28980494
-0.28970018
-0.2886228
-0.28595337
-0.2822654
-0.2761373
-0.26676536
-0.25575074
-0.24009816
-0.21989868
-0.19474722
-0.16694031
-0.13753044
-0.11159495
-0.087858377
-0.071907166
-0.057455401
-0.29210967
-0.29210765
-0.29210525
-0.29210268
-0.29209985
-0.29209671
-0.29209323
-0.29208938
-0.29208512
-0.2920804
-0.29207518
-0.29206939
-0.29206296
-0.29205579
-0.29204779
-0.29203881
-0.29202867
-0.29201714
-0.29200392
-0.29198864
-0.29197077
-0.29194968
-0.29192452
-0.29189424
-0.29185751
-0.29181271
-0.29175791
-0.29169093
-0.29160939
-0.29151089
-0.2913933
-0.29125502
-0.29109534
-0.29091487
-0.29071488
-0.29049614
-0.29025753
-0.28999481
-0.28970082
-0.28936553
-0.28899047
-0.2885829
-0.2881451
-0.28778807
-0.28753202
-0.28752197
-0.28763214
-0.2876135
-0.28715122
-0.28557079
-0.28221911
-0.27840716
-0.27275552
-0.26482298
-0.25578203
-0.24385286
-0.22866831
-0.20968002
-0.18662216
-0.16148027
-0.13502718
-0.11137686
-0.089442746
-0.073976678
-0.059780609
-0.29237361
-0.29237257
-0.29237133
-0.29236999
-0.2923685
-0.29236682
-0.29236495
-0.29236285
-0.2923605
-0.29235785
-0.29235486
-0.29235147
-0.29234762
-0.29234319
-0.29233808
-0.29233213
-0.29232512
-0.29231678
-0.29230675
-0.29229455
-0.29227956
-0.29226097
-0.29223774
-0.29220853
-0.29217169
-0.29212516
-0.29206648
-0.29199281
-0.29190099
-0.29178771
-0.29164982
-0.2914844
-0.29128976
-0.29106564
-0.29081243
-0.2905299
-0.29021509
-0.2898616
-0.28945669
-0.2889857
-0.28847257
-0.28787097
-0.28734896
-0.28686908
-0.2866326
-0.2864907
-0.28614719
-0.2852522
-0.28351805
-0.27962781
-0.27553946
-0.27016143
-0.26272748
-0.25467099
-0.24489981
-0.23300158
-0.21816323
-0.20021273
-0.17903342
-0.15620597
-0.13226554
-0.11062341
-0.09028693
-0.075403337
-0.061506829
-0.29265473
-0.29265494
-0.29265518
-0.2926554
-0.29265562
-0.29265582
-0.29265599
-0.29265612
-0.29265619
-0.29265617
-0.29265602
-0.29265568
-0.29265508
-0.29265412
-0.29265266
-0.29265052
-0.29264744
-0.2926431
-0.29263705
-0.29262871
-0.29261733
-0.29260191
-0.29258118
-0.29255353
-0.29251693
-0.29246889
-0.29240645
-0.29232614
-0.29222408
-0.29209617
-0.29193851
-0.29174738
-0.291515
-0.29124553
-0.29093889
-0.29059075
-0.29019543
-0.28974609
-0.28922954
-0.28863065
-0.2879931
-0.28736745
-0.28679105
-0.28629223
-0.28592781
-0.2852733
-0.28407259
-0.28183315
-0.27812488
-0.2736972
-0.26831361
-0.26102531
-0.25333993
-0.24483473
-0.2348023
-0.22279498
-0.20837571
-0.19144129
-0.17187675
-0.15103124
-0.12924857
-0.10939126
-0.090480708
-0.076244688
-0.062615447
-0.29299637
-0.29299804
-0.293
-0.29300205
-0.29300425
-0.29300663
-0.29300918
-0.2930119
-0.29301478
-0.29301779
-0.2930209
-0.29302405
-0.29302717
-0.29303014
-0.2930328
-0.29303493
-0.29303622
-0.29303627
-0.29303455
-0.29303035
-0.29302274
-0.29301055
-0.29299223
-0.29296589
-0.29292913
-0.29287906
-0.29281221
-0.29272456
-0.29261147
-0.29246855
-0.29229633
-0.2920677
-0.29179435
-0.29149107
-0.2911328
-0.29072394
-0.29025291
-0.28972684
-0.28909892
-0.28844261
-0.28775667
-0.28714143
-0.28655261
-0.28589457
-0.28500397
-0.28350673
-0.28097234
-0.27713043
-0.27263395
-0.26740359
-0.25972229
-0.25230521
-0.24438704
-0.23542665
-0.22511998
-0.21318207
-0.19920687
-0.18318745
-0.16504771
-0.14593415
-0.12601093
-0.10774152
-0.09010583
-0.076562016
-0.063236555
-0.29345539
-0.29345861
-0.29346239
-0.29346637
-0.29347068
-0.29347535
-0.2934804
-0.29348582
-0.29349162
-0.29349778
-0.29350425
-0.29351099
-0.29351788
-0.29352481
-0.29353156
-0.29353786
-0.29354336
-0.29354754
-0.29354975
-0.29354914
-0.2935446
-0.29353471
-0.29351769
-0.29349131
-0.29345283
-0.29339897
-0.29332585
-0.29322878
-0.29310183
-0.29295062
-0.29274756
-0.29249241
-0.29220081
-0.29185194
-0.29144664
-0.29098414
-0.29044329
-0.28985132
-0.28921985
-0.28853097
-0.28783794
-0.28719818
-0.28638211
-0.28525367
-0.28349341
-0.28070698
-0.27656054
-0.27180807
-0.26626979
-0.25962473
-0.25135663
-0.24400882
-0.23560307
-0.22632613
-0.2158975
-0.20406116
-0.19053039
-0.1753672
-0.15847954
-0.14087504
-0.12256358
-0.10571886
-0.089227991
-0.076406682
-0.063380292
-0.2941059
-0.29411055
-0.294116
-0.29412175
-0.29412796
-0.29413471
-0.29414201
-0.29414987
-0.29415827
-0.2941672
-0.29417662
-0.29418645
-0.29419657
-0.2942068
-0.2942169
-0.29422652
-0.29423522
-0.29424238
-0.29424721
-0.29424868
-0.29424549
-0.294236
-0.29421815
-0.29418943
-0.29414678
-0.29408663
-0.29400486
-0.29389659
-0.29374823
-0.29356773
-0.2933627
-0.29309779
-0.29276703
-0.29238615
-0.29193867
-0.29143133
-0.29086777
-0.29023293
-0.28958628
-0.28890893
-0.28815331
-0.28725393
-0.28596787
-0.28399096
-0.28102191
-0.27673401
-0.27177728
-0.26635315
-0.25924318
-0.25118845
-0.24390894
-0.23582064
-0.22704855
-0.21753918
-0.20701838
-0.19533802
-0.18225492
-0.16787734
-0.1521001
-0.13582774
-0.11892423
-0.1033629
-0.087905302
-0.075821732
-0.063114941
-0.29503555
-0.29504124
-0.29504791
-0.29505495
-0.29506254
-0.29507078
-0.29507968
-0.29508922
-0.29509941
-0.29511021
-0.29512155
-0.29513333
-0.29514539
-0.2951575
-0.29516936
-0.29518052
-0.29519042
-0.29519833
-0.29520329
-0.29520409
-0.29519919
-0.2951867
-0.29516431
-0.29512921
-0.29507795
-0.29500651
-0.29491009
-0.29478483
-0.29464864
-0.29447161
-0.29421549
-0.29389381
-0.29353461
-0.29312438
-0.29265614
-0.29211825
-0.2915253
-0.29088508
-0.2901981
-0.28941745
-0.2884291
-0.28703828
-0.28492335
-0.28182805
-0.27744804
-0.27230858
-0.26684548
-0.25972751
-0.25199847
-0.24440012
-0.23620984
-0.22771235
-0.2186739
-0.20897727
-0.19843494
-0.18694141
-0.17429539
-0.16064625
-0.14585929
-0.13076759
-0.115102
-0.10070504
-0.086186324
-0.074846155
-0.062467917
-0.29633023
-0.29633639
-0.2963436
-0.29635118
-0.29635933
-0.29636815
-0.29637762
-0.29638773
-0.29639845
-0.29640972
-0.29642144
-0.29643345
-0.29644553
-0.29645739
-0.29646862
-0.29647868
-0.29648686
-0.29649226
-0.29649372
-0.29648981
-0.29647875
-0.29645838
-0.29642603
-0.29637803
-0.29631015
-0.29623123
-0.29614448
-0.29602555
-0.29582113
-0.29556179
-0.29529404
-0.2949669
-0.29458078
-0.29413404
-0.29361579
-0.29304386
-0.29242068
-0.29172382
-0.29091727
-0.28988846
-0.28840325
-0.28620713
-0.28304472
-0.2786363
-0.27333039
-0.26782619
-0.2607299
-0.2528808
-0.24514021
-0.23693035
-0.22850138
-0.2197138
-0.21043091
-0.20060724
-0.19008021
-0.17879598
-0.16657795
-0.15360384
-0.13970669
-0.12567198
-0.11110509
-0.097770685
-0.084110854
-0.07351094
-0.061475313
-0.29808846
-0.29809432
-0.29810116
-0.2981083
-0.29811594
-0.29812414
-0.29813286
-0.29814207
-0.2981517
-0.29816164
-0.29817173
-0.29818176
-0.29819143
-0.29820034
-0.29820797
-0.29821364
-0.29821647
-0.29821537
-0.29820896
-0.29819558
-0.29817314
-0.29813861
-0.29808892
-0.29803163
-0.29796161
-0.29786392
-0.29771908
-0.29751635
-0.29728403
-0.29702116
-0.29670191
-0.29632528
-0.29588206
-0.29538049
-0.29482303
-0.29419858
-0.29349678
-0.29267086
-0.29159864
-0.29007513
-0.28780598
-0.28464204
-0.28025754
-0.27481667
-0.26925208
-0.26221951
-0.25421581
-0.24632726
-0.23814194
-0.22964838
-0.22085723
-0.21176255
-0.20228441
-0.1923731
-0.18189766
-0.17084009
-0.15903796
-0.14669341
-0.1336027
-0.12052154
-0.10693835
-0.094580289
-0.081712691
-0.071845841
-0.060163197
-0.30039779
-0.30040264
-0.30040827
-0.30041408
-0.30042019
-0.30042664
-0.30043334
-0.30044023
-0.30044716
-0.30045398
-0.30046043
-0.30046622
-0.30047093
-0.30047403
-0.30047482
-0.30047245
-0.30046581
-0.30045357
-0.30043405
-0.3004051
-0.30036418
-0.30031088
-0.30024391
-0.30015643
-0.30003466
-0.29986474
-0.29966366
-0.29943627
-0.29915984
-0.29883093
-0.29844412
-0.29799758
-0.2974931
-0.29692725
-0.29629482
-0.29558086
-0.29473156
-0.2936252
-0.29205967
-0.28977839
-0.28656822
-0.28236789
-0.27684169
-0.27124739
-0.26422784
-0.25603975
-0.24796497
-0.23968832
-0.23109447
-0.22223543
-0.21314772
-0.20381982
-0.19418669
-0.18422698
-0.17383154
-0.16301313
-0.15161648
-0.13986261
-0.12750968
-0.11529718
-0.10260406
-0.091149258
-0.079018501
-0.069873836
-0.058552682
-0.30335212
-0.30335548
-0.30335928
-0.30336306
-0.30336687
-0.30337067
-0.30337432
-0.30337768
-0.30338053
-0.3033826
-0.30338355
-0.30338291
-0.30338011
-0.30337441
-0.30336489
-0.3033504
-0.30332954
-0.30330057
-0.30326131
-0.30320933
-0.30314299
-0.30305809
-0.30294779
-0.30280026
-0.30262077
-0.30241359
-0.30216371
-0.30186494
-0.30151172
-0.30110115
-0.30063365
-0.30010672
-0.29951712
-0.29886171
-0.29811907
-0.29723147
-0.29607849
-0.29446284
-0.29213958
-0.28889328
-0.28463116
-0.27918233
-0.27344376
-0.26652114
-0.25828761
-0.25003799
-0.24166445
-0.23292938
-0.22395396
-0.21477215
-0.20540227
-0.19585731
-0.18609858
-0.17612063
-0.16582935
-0.15526105
-0.14426103
-0.13306591
-0.12139523
-0.10998172
-0.09810288
-0.087489719
-0.076050587
-0.067615999
-0.056662286
-0.30712762
-0.30712878
-0.30712992
-0.30713076
-0.30713122
-0.30713117
-0.30713039
-0.30712865
-0.30712562
-0.30712088
-0.30711393
-0.30710412
-0.30709065
-0.30707251
-0.30704847
-0.30701703
-0.30697635
-0.30692422
-0.30685801
-0.30677475
-0.30667074
-0.30653958
-0.30637878
-0.30618558
-0.3059528
-0.30567446
-0.30534478
-0.30495987
-0.30451808
-0.30401656
-0.30345311
-0.3028269
-0.30213033
-0.30133915
-0.30039279
-0.29917251
-0.29748999
-0.29511026
-0.29182852
-0.28752757
-0.28210844
-0.27607662
-0.2693317
-0.26095425
-0.25255832
-0.24408678
-0.23520468
-0.2260471
-0.21669068
-0.20718075
-0.1975501
-0.18782239
-0.17797023
-0.168004
-0.15783962
-0.14753204
-0.13692293
-0.12626142
-0.11522913
-0.10455827
-0.093433353
-0.083609934
-0.072826597
-0.065088999
-0.054509536
-0.31199586
-0.31199365
-0.31199072
-0.31198709
-0.31198249
-0.31197667
-0.31196932
-0.31196006
-0.31194842
-0.31193382
-0.31191554
-0.3118927
-0.31186422
-0.31182877
-0.31178477
-0.31173026
-0.31166296
-0.31158011
-0.3114785
-0.31135442
-0.31120362
-0.31102131
-0.3108024
-0.31054122
-0.31023216
-0.30987049
-0.30945248
-0.30897411
-0.30843228
-0.30782565
-0.30715085
-0.30639746
-0.30553715
-0.30450688
-0.30318939
-0.30140725
-0.29893836
-0.29558721
-0.29124527
-0.2858131
-0.27962071
-0.27284307
-0.26455014
-0.25586898
-0.24722727
-0.23804512
-0.22862219
-0.21900947
-0.20926164
-0.19943535
-0.18956211
-0.17967498
-0.16975663
-0.15982897
-0.14981311
-0.13977785
-0.1295576
-0.11941124
-0.10898399
-0.099010902
-0.088592981
-0.079515948
-0.069361164
-0.062308596
-0.052108258
-0.31825762
-0.31825037
-0.31824136
-0.31823111
-0.31821908
-0.31820484
-0.31818795
-0.31816789
-0.31814399
-0.31811547
-0.31808137
-0.31804051
-0.3179915
-0.31793267
-0.31786199
-0.31777709
-0.31767514
-0.31755288
-0.31740652
-0.31723176
-0.31702374
-0.31677724
-0.31648694
-0.31614761
-0.31575406
-0.3153012
-0.31478476
-0.31420156
-0.31354794
-0.31281745
-0.31199513
-0.31104741
-0.30990721
-0.30845852
-0.30653125
-0.30392141
-0.30043447
-0.29597924
-0.29045938
-0.28406098
-0.27713887
-0.2688099
-0.2599563
-0.25098087
-0.24148076
-0.23173462
-0.22179974
-0.21173259
-0.20160344
-0.19147272
-0.1813782
-0.17136008
-0.16140556
-0.15154501
-0.14170097
-0.1319521
-0.12212318
-0.11248014
-0.10263426
-0.093324096
-0.083578077
-0.075210653
-0.065665842
-0.059284207
-0.0494731
-0.32627964
-0.32626525
-0.3262477
-0.32622817
-0.32620578
-0.32617988
-0.32614987
-0.32611504
-0.32607453
-0.32602728
-0.32597205
-0.32590738
-0.32583145
-0.32574222
-0.32563727
-0.32551376
-0.32536837
-0.32519732
-0.32499636
-0.32476083
-0.32448566
-0.32416547
-0.32379458
-0.32336736
-0.32287853
-0.32232312
-0.32169595
-0.32099046
-0.32019574
-0.31929087
-0.31823546
-0.31695707
-0.3153391
-0.31321764
-0.3104006
-0.30670816
-0.30203281
-0.29633643
-0.28963829
-0.28245378
-0.27398753
-0.26484645
-0.2554969
-0.24564622
-0.23551684
-0.22517113
-0.21469142
-0.20416292
-0.19365576
-0.18323654
-0.17294499
-0.162825
-0.15286555
-0.14310217
-0.13345555
-0.1240105
-0.1145804
-0.10543552
-0.096156234
-0.087483031
-0.078384397
-0.070695369
-0.061750435
-0.05602285
-0.04662586
-0.33638209
-0.33635816
-0.33632919
-0.33629734
-0.33626126
-0.33622005
-0.33617293
-0.33611897
-0.33605706
-0.3359859
-0.33590398
-0.33580961
-0.33570054
-0.33557428
-0.33542805
-0.33525863
-0.33506224
-0.33483468
-0.33457143
-0.33426743
-0.33391726
-0.33351524
-0.3330555
-0.33253194
-0.33193808
-0.33126629
-0.33050617
-0.32964122
-0.32864318
-0.32746347
-0.32602239
-0.32420018
-0.32183582
-0.31874469
-0.31475846
-0.3097653
-0.30373293
-0.29670534
-0.28910019
-0.28034905
-0.2707766
-0.26094078
-0.25065442
-0.24004593
-0.22920255
-0.21822063
-0.20719444
-0.19620929
-0.18534005
-0.17465611
-0.16419773
-0.15401045
-0.14408192
-0.13444981
-0.1250302
-0.11591075
-0.10689249
-0.098247096
-0.089527965
-0.081473663
-0.073007697
-0.065970723
-0.05762446
-0.052541995
-0.04354538
-0.34889115
-0.34885523
-0.34881201
-0.34876479
-0.34871169
-0.34865155
-0.34858347
-0.34850604
-0.34841742
-0.34831859
-0.34821696
-0.34809942
-0.34794192
-0.34775856
-0.34756284
-0.34734271
-0.34709011
-0.34680039
-0.34646872
-0.34609016
-0.34565866
-0.34516767
-0.34460987
-0.34397661
-0.34325681
-0.34243488
-0.34148711
-0.34037609
-0.33904299
-0.33739888
-0.33531814
-0.33264114
-0.32918734
-0.32479912
-0.31936682
-0.3128451
-0.30532255
-0.29712838
-0.28799262
-0.27786209
-0.26743717
-0.25660736
-0.24541949
-0.23398364
-0.22240254
-0.21077762
-0.19920496
-0.18777668
-0.17656936
-0.16565308