/*--------------------------------*- C++ -*----------------------------------*\
  =========                 |
  \\      /  F ield         | OpenFOAM: The Open Source CFD Toolbox
   \\    /   O peration     | Website:  https://openfoam.org
    \\  /    A nd           | Version:  13
     \\/     M anipulation  |
\*---------------------------------------------------------------------------*/
FoamFile
{
    format      ascii;
    class       volScalarField;
    location    "32.596489";
    object      pPrime2Mean;
}
// * * * * * * * * * * * * * * * * * * * * * * * * * * * * * * * * * * * * * //

dimensions      [0 4 -4 0 0 0 0];

internalField   nonuniform List<scalar> 
17140
(
9553.9311
9553.9314
9553.9313
9553.931
9553.9304
9553.9292
9553.9276
9553.9255
9553.9225
9553.9183
9553.9133
9553.9068
9553.8983
9553.8878
9553.8744
9553.8576
9553.8366
9553.81
9553.7769
9553.7355
9553.6831
9553.6178
9553.5357
9553.4322
9553.3017
9553.1377
9552.9306
9552.6692
9552.3396
9551.9243
9551.4017
9550.7455
9549.9237
9548.8975
9547.6205
9546.037
9544.0811
9541.6758
9538.7315
9535.1452
9530.7988
9525.559
9519.2755
9511.7796
9502.8839
9492.3799
9480.0391
9465.6114
9448.8228
9429.3766
9406.9488
9381.1894
9351.7203
9318.1336
9279.9895
9236.815
9188.0968
9133.284
9071.7736
9002.9265
8926.0298
8840.3462
8745.0129
8639.1864
8521.855
9554.1652
9554.1652
9554.1652
9554.1648
9554.1642
9554.163
9554.1615
9554.1591
9554.1561
9554.1522
9554.1469
9554.1404
9554.1319
9554.1215
9554.1081
9554.0911
9554.07
9554.0435
9554.0104
9553.9687
9553.9167
9553.8511
9553.769
9553.6658
9553.5357
9553.3721
9553.1655
9552.905
9552.5761
9552.1617
9551.6402
9550.9855
9550.1649
9549.1401
9547.8643
9546.2819
9544.3274
9541.9232
9538.9805
9535.3958
9531.0514
9525.814
9519.5336
9512.0412
9503.1497
9492.6511
9480.3164
9465.8957
9449.1153
9429.6781
9407.2609
9381.5136
9352.0581
9318.4868
9280.3605
9237.2059
9188.51
9133.7224
9072.2396
9003.4238
8926.5622
8840.9187
8745.6313
8639.8575
8522.5772
9554.7435
9554.7436
9554.7436
9554.7433
9554.7424
9554.7415
9554.7397
9554.7373
9554.7343
9554.7305
9554.7252
9554.7188
9554.7103
9554.6999
9554.6866
9554.6698
9554.6488
9554.6224
9554.5893
9554.548
9554.4963
9554.4313
9554.3496
9554.2471
9554.118
9553.955
9553.7497
9553.4904
9553.1633
9552.751
9552.2317
9551.5793
9550.7614
9549.7393
9548.466
9546.8862
9544.9342
9542.5328
9539.5933
9536.0123
9531.673
9526.4415
9520.1683
9512.6848
9503.804
9493.318
9480.9986
9466.5952
9449.8347
9430.4197
9408.0281
9382.3104
9352.8888
9319.3562
9281.2736
9238.1683
9189.5281
9134.8025
9073.3894
9004.6509
8927.8761
8842.3295
8747.1509
8641.5005
8524.3423
9555.6851
9555.6851
9555.6852
9555.6849
9555.684
9555.6829
9555.6814
9555.6791
9555.6761
9555.6723
9555.6671
9555.6607
9555.6523
9555.6419
9555.6287
9555.6123
9555.5913
9555.5655
9555.5329
9555.4919
9555.4409
9555.3766
9555.2956
9555.1941
9555.0663
9554.9049
9554.7015
9554.4443
9554.1197
9553.7101
9553.1941
9552.5451
9551.7307
9550.7121
9549.4426
9547.8668
9545.9188
9543.5218
9540.5874
9537.0131
9532.6815
9527.4598
9521.1981
9513.7292
9504.8655
9494.4003
9482.1052
9467.7298
9451.0017
9431.6233
9409.2734
9383.6035
9354.2369
9320.7673
9282.7563
9239.7317
9191.182
9136.5581
9075.2585
9006.6463
8930.012
8844.6223
8749.6191
8644.1672
8527.2048
9557.0094
9557.0095
9557.0093
9557.0091
9557.0083
9557.0071
9557.0054
9557.0034
9557.0003
9556.9965
9556.9913
9556.985
9556.9767
9556.9664
9556.9535
9556.9372
9556.9166
9556.8909
9556.8589
9556.8187
9556.7681
9556.7045
9556.6249
9556.5247
9556.3982
9556.2388
9556.0373
9555.7829
9555.4615
9555.0554
9554.5433
9553.8985
9553.0888
9552.075
9550.8105
9549.2396
9547.2972
9544.9069
9541.9801
9538.415
9534.0945
9528.8867
9522.6421
9515.1932
9506.3537
9495.9172
9483.656
9469.3202
9452.6365
9433.3096
9411.0188
9385.4166
9356.1273
9322.7464
9284.8355
9241.9242
9193.5017
9139.0207
9077.8806
9009.446
8933.0092
8847.8395
8753.0823
8647.9077
8531.2213
9558.7321
9558.7323
9558.7321
9558.7316
9558.7309
9558.7298
9558.7282
9558.7259
9558.7231
9558.7192
9558.714
9558.7078
9558.6998
9558.6896
9558.6768
9558.6606
9558.6404
9558.6151
9558.5836
9558.544
9558.4941
9558.4316
9558.3533
9558.2542
9558.1297
9557.9726
9557.7738
9557.5228
9557.2048
9556.8032
9556.296
9555.6563
9554.8523
9553.8443
9552.586
9551.0217
9549.087
9546.7053
9543.7887
9540.2361
9535.9307
9530.7412
9524.518
9517.0956
9508.2878
9497.889
9485.6713
9471.3861
9454.7607
9435.5009
9413.2867
9387.7727
9358.585
9325.3189
9287.5387
9244.7751
9196.5187
9142.2234
9081.2912
9013.0877
8936.9084
8852.025
8757.5877
8652.7747
8536.4492
9560.8711
9560.871
9560.8708
9560.8704
9560.8697
9560.8684
9560.8668
9560.8647
9560.8617
9560.8578
9560.8528
9560.8466
9560.8384
9560.8286
9560.8159
9560.8001
9560.7803
9560.7554
9560.7243
9560.6852
9560.6363
9560.5751
9560.4979
9560.401
9560.2785
9560.1239
9559.9283
9559.6809
9559.3677
9558.971
9558.4692
9557.8357
9557.038
9556.0371
9554.7864
9553.2307
9551.3054
9548.9349
9546.0316
9542.4946
9538.2084
9533.041
9526.8456
9519.456
9510.6873
9500.3347
9488.1716
9473.9487
9457.3959
9438.2189
9416.1007
9390.6969
9361.6349
9328.5123
9290.8943
9248.3139
9200.2638
9146.1995
9085.5253
9017.6092
8941.75
8857.2226
8763.1841
8658.8206
8542.9476
9563.4446
9563.4446
9563.4442
9563.4439
9563.4429
9563.442
9563.4402
9563.4378
9563.4349
9563.4311
9563.4262
9563.4201
9563.4123
9563.4023
9563.39
9563.3746
9563.3549
9563.3307
9563.3003
9563.2622
9563.2144
9563.1542
9563.0789
9562.9837
9562.864
9562.7122
9562.5204
9562.2769
9561.9688
9561.5776
9561.0821
9560.4555
9559.6652
9558.6726
9557.4305
9555.885
9553.9713
9551.6144
9548.727
9545.2091
9540.9457
9535.8061
9529.6435
9522.2935
9513.5721
9503.2749
9491.1767
9477.0293
9460.5635
9441.4874
9419.4849
9394.2139
9365.3036
9332.3536
9294.9311
9252.5713
9204.7694
9150.9833
9090.6195
9023.0499
8947.577
8863.4787
8769.9208
8666.0999
8550.7765
9566.4753
9566.4753
9566.475
9566.4747
9566.4739
9566.4724
9566.4707
9566.4687
9566.4656
9566.4618
9566.457
9566.451
9566.4431
9566.4334
9566.4215
9566.4062
9566.3873
9566.3635
9566.3337
9566.2963
9566.2498
9566.1912
9566.1175
9566.0248
9565.9076
9565.7592
9565.5711
9565.3321
9565.029
9564.6437
9564.1547
9563.5355
9562.7532
9561.7694
9560.5378
9559.0038
9557.1036
9554.7626
9551.8944
9548.3989
9544.1622
9539.055
9532.9314
9525.6277
9516.9615
9506.7298
9494.7075
9480.649
9464.2862
9445.3287
9423.4631
9398.3491
9369.6178
9336.871
9299.6787
9257.5787
9210.0688
9156.6099
9096.6119
9029.4498
8954.4314
8870.8393
8777.8481
8674.6684
8559.9979
9569.9871
9569.9871
9569.9869
9569.9863
9569.9855
9569.9842
9569.9825
9569.9803
9569.9772
9569.9736
9569.9688
9569.9627
9569.9551
9569.9458
9569.9338
9569.9191
9569.9006
9569.8775
9569.8484
9569.8123
9569.7667
9569.7097
9569.6378
9569.5473
9569.4325
9569.2875
9569.103
9568.8688
9568.5705
9568.191
9567.7084
9567.0966
9566.3228
9565.3483
9564.1278
9562.6069
9560.7219
9558.3989
9555.5523
9552.0829
9547.8771
9542.8073
9536.7286
9529.4786
9520.8763
9510.7196
9498.7853
9484.8293
9468.5857
9449.7664
9428.0595
9403.1272
9374.6034
9342.0922
9305.1664
9263.3669
9216.1951
9163.1146
9103.5393
9036.8493
8962.3583
8879.3536
8787.021
8684.5859
8570.6754
9574.0046
9574.0044
9574.0042
9574.0037
9574.0027
9574.0014
9573.9998
9573.9976
9573.9946
9573.9908
9573.9861
9573.9804
9573.9729
9573.9637
9573.952
9573.9375
9573.9196
9573.8969
9573.8688
9573.8333
9573.789
9573.7336
9573.6635
9573.5748
9573.4627
9573.3204
9573.1394
9572.9089
9572.6153
9572.2408
9571.7646
9571.1597
9570.3943
9569.4299
9568.2211
9566.7141
9564.8459
9562.5434
9559.7207
9556.2804
9552.1098
9547.0824
9541.0548
9533.866
9525.3362
9515.2646
9503.4303
9489.5916
9473.4845
9454.823
9433.2979
9408.574
9380.2875
9348.0455
9311.4245
9269.9683
9223.1823
9170.5341
9111.4424
9045.2928
8971.4056
8889.0739
8797.4945
8695.91
8582.8721
9578.5507
9578.5505
9578.5504
9578.5496
9578.5486
9578.5474
9578.5458
9578.5435
9578.5405
9578.5371
9578.5322
9578.5265
9578.5194
9578.51
9578.4987
9578.4845
9578.467
9578.445
9578.4173
9578.3827
9578.3393
9578.2848
9578.216
9578.1294
9578.0191
9577.8792
9577.7012
9577.4739
9577.1841
9576.8143
9576.3433
9575.7451
9574.988
9574.0337
9572.8372
9571.3454
9569.4957
9567.2151
9564.4192
9561.0111
9556.8802
9551.9006
9545.9306
9538.8104
9530.3614
9520.3859
9508.6645
9494.9579
9479.0048
9460.5222
9439.2032
9414.7154
9386.6976
9354.7607
9318.4844
9277.4164
9231.0667
9178.9069
9120.3622
9054.824
8981.62
8900.0494
8809.3233
8708.7021
8596.6536
9583.6447
9583.6446
9583.6445
9583.6438
9583.6428
9583.6416
9583.6398
9583.6375
9583.6346
9583.6312
9583.6266
9583.6207
9583.6136
9583.6046
9583.5934
9583.5796
9583.5622
9583.5405
9583.5134
9583.4795
9583.4368
9583.3833
9583.3156
9583.2299
9583.1215
9582.9834
9582.8072
9582.5829
9582.2961
9581.9304
9581.4646
9580.8728
9580.1238
9579.1799
9577.9964
9576.5205
9574.6903
9572.4336
9569.6672
9566.2954
9562.2081
9557.2818
9551.3756
9544.3319
9535.9737
9526.1049
9514.5095
9500.9508
9485.1708
9466.8889
9445.8017
9421.5786
9393.8627
9362.2674
9326.3773
9285.7446
9239.8832
9188.2711
9130.3394
9065.487
8993.0499
8912.3347
8822.5643
8723.0229
8612.0837
9589.3042
9589.304
9589.3036
9589.303
9589.302
9589.3008
9589.299
9589.2967
9589.2939
9589.2905
9589.286
9589.2801
9589.2731
9589.2645
9589.2533
9589.2395
9589.2224
9589.2011
9589.1744
9589.1409
9589.0988
9589.0459
9588.979
9588.8942
9588.7868
9588.6502
9588.4759
9588.2535
9587.9694
9587.6076
9587.1463
9586.5612
9585.8205
9584.8872
9583.7174
9582.2585
9580.4496
9578.2189
9575.4847
9572.1525
9568.114
9563.2466
9557.4113
9550.452
9542.1941
9532.4443
9520.989
9507.5951
9492.0078
9473.9498
9453.1201
9429.192
9401.8113
9370.5967
9335.1362
9294.9874
9249.6694
9198.6662
9141.4177
9077.3293
9005.746
8925.9809
8837.2739
8738.9337
8629.2265
9595.5447
9595.5445
9595.5441
9595.5435
9595.5425
9595.5413
9595.5396
9595.5373
9595.5344
9595.5311
9595.5266
9595.521
9595.514
9595.5051
9595.4942
9595.4808
9595.4638
9595.4428
9595.4164
9595.3833
9595.3416
9595.2891
9595.2228
9595.1388
9595.0321
9594.8966
9594.7237
9594.5033
9594.2218
9593.8634
9593.4074
9592.8285
9592.0968
9591.1752
9590.0199
9588.5792
9586.7929
9584.5909
9581.892
9578.6032
9574.6181
9569.8154
9564.0583
9557.1922
9549.0452
9539.4267
9528.1268
9514.9156
9499.5416
9481.731
9461.1864
9437.5843
9410.5744
9379.7801
9344.7945
9305.1801
9260.4624
9210.1334
9153.6403
9090.3975
9019.7572
8941.0426
8853.509
8756.4941
8648.1454
9602.384
9602.3839
9602.3835
9602.3828
9602.3818
9602.3806
9602.3792
9602.3768
9602.374
9602.3706
9602.3661
9602.3605
9602.3536
9602.3452
9602.3344
9602.321
9602.3042
9602.2833
9602.257
9602.2242
9602.1828
9602.1307
9602.0649
9601.9817
9601.8758
9601.7412
9601.5695
9601.351
9601.0725
9600.7179
9600.267
9599.6953
9598.9729
9598.0634
9596.9236
9595.5029
9593.7413
9591.5699
9588.9094
9585.6683
9581.7414
9577.0101
9571.3388
9564.5752
9556.5504
9547.0768
9535.9482
9522.938
9507.7988
9490.2609
9470.0294
9446.785
9420.1828
9389.8503
9355.3861
9316.3586
9272.3016
9222.7141
9167.0522
9104.738
9035.1344
8957.5722
8871.3248
8775.7639
8668.9031
9609.8439
9609.8437
9609.8433
9609.8428
9609.8419
9609.8406
9609.8389
9609.8368
9609.8339
9609.8305
9609.8263
9609.8207
9609.8137
9609.8053
9609.7947
9609.7813
9609.7646
9609.7439
9609.7176
9609.6851
9609.6439
9609.5922
9609.5265
9609.4438
9609.3385
9609.2048
9609.0345
9608.818
9608.542
9608.1913
9607.7462
9607.182
9606.4695
9605.5728
9604.4497
9603.0494
9601.3145
9599.177
9596.5583
9593.3692
9589.5065
9584.8526
9579.275
9572.6241
9564.7332
9555.4189
9544.4782
9531.6887
9516.8069
9499.5664
9479.6773
9456.8243
9430.6677
9400.8397
9366.9455
9328.56
9285.2266
9236.4502
9181.6973
9120.3985
9051.9263
8975.6217
8890.7765
8796.8013
8691.561
9617.9475
9617.9473
9617.9469
9617.9464
9617.9454
9617.9441
9617.9426
9617.9405
9617.9376
9617.9342
9617.9299
9617.9245
9617.9175
9617.9091
9617.8984
9617.885
9617.8685
9617.8475
9617.8215
9617.7888
9617.7478
9617.6959
9617.6306
9617.5481
9617.4431
9617.3102
9617.1413
9616.9264
9616.6533
9616.3066
9615.8668
9615.3104
9614.6081
9613.7248
9612.6189
9611.2416
9609.5355
9607.4338
9604.8609
9601.7281
9597.9349
9593.3656
9587.8901
9581.3619
9573.6177
9564.4773
9553.742
9541.1932
9526.5917
9509.6754
9490.1591
9467.7324
9442.0602
9412.7812
9379.5073
9341.8223
9299.2747
9251.3831
9197.6201
9137.4245
9070.1818
8995.2418
8911.9185
8819.6641
8716.1797
9626.7185
9626.7183
9626.7181
9626.7174
9626.7166
9626.7153
9626.7138
9626.7116
9626.709
9626.7055
9626.7012
9626.6955
9626.6886
9626.6802
9626.6692
9626.6557
9626.6389
9626.6181
9626.5918
9626.5587
9626.5175
9626.4656
9626.4001
9626.3174
9626.2127
9626.0804
9625.9123
9625.6993
9625.429
9625.0861
9624.6519
9624.1029
9623.411
9622.5418
9621.4546
9620.1011
9618.4256
9616.3632
9613.8394
9610.7679
9607.0494
9602.5719
9597.2074
9590.8127
9583.228
9574.2771
9563.7652
9551.4778
9537.1803
9520.6159
9501.5034
9479.5387
9454.3916
9425.7076
9393.1069
9356.1799
9314.4873
9267.5549
9214.8625
9155.8622
9089.9473
9016.4827
8934.8036
8844.4085
8742.818
9636.1762
9636.1759
9636.1757
9636.1752
9636.1742
9636.1731
9636.1715
9636.1693
9636.1666
9636.1631
9636.1587
9636.153
9636.1461
9636.1373
9636.1265
9636.1127
9636.0958
9636.0744
9636.048
9636.0145
9635.973
9635.9208
9635.855
9635.7721
9635.6678
9635.5357
9635.3687
9635.1574
9634.8896
9634.5509
9634.1223
9633.5816
9632.9005
9632.0458
9630.978
9629.6501
9628.0075
9625.9874
9623.5166
9620.5106
9616.8736
9612.4948
9607.2502
9601.0001
9593.5884
9584.8425
9574.5724
9562.5678
9548.5993
9532.4149
9513.7391
9492.2727
9467.6923
9439.6511
9407.7769
9371.6706
9330.903
9285.0047
9233.469
9175.754
9111.2697
9039.3932
8959.4839
8871.0898
8771.534
9646.3342
9646.3342
9646.334
9646.3334
9646.3326
9646.3313
9646.3296
9646.3275
9646.3247
9646.3211
9646.3167
9646.3112
9646.304
9646.2951
9646.2843
9646.2704
9646.2531
9646.2316
9646.2049
9646.1714
9646.1294
9646.0769
9646.0111
9645.9284
9645.8244
9645.6933
9645.5275
9645.3183
9645.0541
9644.72
9644.2978
9643.7658
9643.0969
9642.258
9641.2114
9639.9108
9638.3039
9636.3291
9633.915
9630.9799
9627.4297
9623.1574
9618.0423
9611.9479
9604.7228
9596.1982
9586.1887
9574.4891
9560.8748
9545.0993
9526.893
9505.9622
9481.9916
9454.642
9423.5514
9388.3316
9348.5572
9303.7726
9253.4773
9197.1436
9134.1937
9064.0213
8986.0101
8899.7616
8802.3825
9657.2011
9657.2011
9657.2009
9657.2003
9657.1995
9657.1984
9657.1967
9657.1945
9657.1918
9657.1884
9657.184
9657.1781
9657.1712
9657.1625
9657.1514
9657.1377
9657.1203
9657.0991
9657.0722
9657.0389
9656.9974
9656.9453
9656.88
9656.7981
9656.6954
9656.5657
9656.4026
9656.1967
9655.9367
9655.6086
9655.1947
9654.6734
9654.0181
9653.1977
9652.1744
9650.9046
9649.3362
9647.4104
9645.0574
9642.198
9638.7412
9634.5831
9629.6067
9623.6801
9616.655
9608.3684
9598.6389
9587.2666
9574.0325
9558.6949
9540.9906
9520.6342
9497.3171
9470.7111
9440.4645
9406.1956
9367.4875
9323.8951
9274.9281
9220.0722
9158.7645
9090.4139
9014.4311
8930.4757
8835.4164
9668.783
9668.783
9668.7827
9668.7824
9668.7816
9668.7805
9668.7788
9668.7768
9668.7741
9668.7707
9668.7665
9668.7612
9668.7541
9668.7457
9668.7351
9668.7216
9668.7048
9668.6841
9668.658
9668.6257
9668.585
9668.5342
9668.4707
9668.3907
9668.2905
9668.1641
9668.0049
9667.8038
9667.5501
9667.2302
9666.8264
9666.3178
9665.6796
9664.8806
9663.8843
9662.6487
9661.1234
9659.251
9656.9642
9654.1863
9650.8299
9646.7943
9641.9669
9636.2193
9629.4092
9621.377
9611.947
9600.9247
9588.096
9573.2249
9556.0568
9536.3132
9513.697
9487.8897
9458.5478
9425.2947
9387.7282
9345.408
9297.8596
9244.5809
9185.0248
9118.6162
9044.7943
8963.2821
8870.6848
9681.0892
9681.0892
9681.0889
9681.0883
9681.0878
9681.0866
9681.0852
9681.0833
9681.081
9681.0776
9681.0737
9681.0686
9681.0624
9681.0543
9681.0441
9681.0317
9681.016
9680.9963
9680.9718
9680.9409
9680.9024
9680.854
9680.793
9680.7166
9680.6202
9680.4986
9680.3452
9680.1511
9679.9057
9679.596
9679.2052
9678.7127
9678.0945
9677.3205
9676.3557
9675.1588
9673.6817
9671.8682
9669.6537
9666.9645
9663.716
9659.8121
9655.144
9649.5882
9643.007
9635.2465
9626.1352
9615.4843
9603.0843
9588.71
9572.1127
9553.0248
9531.1589
9506.2068
9477.8283
9445.6622
9409.3101
9368.3463
9322.3087
9270.7096
9213.0174
9148.6724
9077.145
8998.2288
8908.2355
9694.1342
9694.1342
9694.1342
9694.1336
9694.133
9694.1322
9694.131
9694.1293
9694.127
9694.1242
9694.1208
9694.116
9694.1103
9694.103
9694.094
9694.0824
9694.068
9694.0499
9694.0274
9693.999
9693.9632
9693.9179
9693.8611
9693.7889
9693.6978
9693.5826
9693.4362
9693.2508
9693.0158
9692.7185
9692.343
9691.8693
9691.2742
9690.5287
9689.5997
9688.4466
9687.0231
9685.2752
9683.1406
9680.5479
9677.4163
9673.6537
9669.156
9663.8048
9657.4676
9649.9942
9641.2195
9630.9601
9619.0166
9605.1698
9589.181
9570.7941
9549.7296
9525.6857
9498.3355
9467.3236
9432.2641
9392.7429
9348.3113
9298.4963
9242.7817
9180.6244
9111.5265
9035.3617
8948.1129
9707.94
9707.9399
9707.9396
9707.9393
9707.939
9707.9381
9707.937
9707.9355
9707.9338
9707.9312
9707.9281
9707.9241
9707.919
9707.9124
9707.9045
9707.894
9707.8813
9707.8649
9707.8443
9707.8186
9707.7857
9707.7443
9707.6914
9707.6245
9707.539
9707.4306
9707.2924
9707.1166
9706.8932
9706.61
9706.2513
9705.7987
9705.2297
9704.5165
9703.6269
9702.5226
9701.1584
9699.4822
9697.4343
9694.9466
9691.9414
9688.3312
9684.0162
9678.8827
9672.8024
9665.6324
9657.213
9647.3695
9635.9097
9622.6238
9607.285
9589.6426
9569.4294
9546.3514
9520.0923
9490.3066
9456.6197
9418.6299
9375.9019
9327.9776
9274.3576
9214.5133
9147.9799
9074.7257
8990.3603
9722.5286
9722.5286
9722.5286
9722.5282
9722.5279
9722.5273
9722.5264
9722.525
9722.5235
9722.5212
9722.5186
9722.5149
9722.5104
9722.5047
9722.4973
9722.4882
9722.4766
9722.4619
9722.443
9722.4193
9722.3895
9722.351
9722.3023
9722.2399
9722.1601
9722.0585
9721.9284
9721.7624
9721.5509
9721.2825
9720.942
9720.5124
9719.9714
9719.2933
9718.4466
9717.3951
9716.0952
9714.4971
9712.5433
9710.1691
9707.3001
9703.8527
9699.7315
9694.8281
9689.0201
9682.1706
9674.1282
9664.7257
9653.7794
9641.0912
9626.4401
9609.5881
9590.2768
9568.2241
9543.1215
9514.6356
9482.4042
9446.0372
9405.1132
9359.1894
9307.7819
9250.378
9186.5454
9116.3623
9035.022
9737.9187
9737.9187
9737.9187
9737.9184
9737.9181
9737.9175
9737.9166
9737.9155
9737.914
9737.912
9737.9095
9737.9061
9737.9021
9737.8967
9737.8899
9737.8814
9737.8707
9737.8569
9737.8394
9737.8175
9737.7893
9737.7536
9737.7077
9737.6492
9737.5742
9737.4784
9737.3556
9737.1992
9736.9998
9736.7465
9736.4254
9736.0197
9735.5087
9734.8681
9734.0678
9733.0728
9731.8417
9730.3268
9728.4738
9726.2203
9723.496
9720.2216
9716.3061
9711.6469
9706.1275
9699.6185
9691.9763
9683.0404
9672.64
9660.5831
9646.6602
9630.6458
9612.29
9591.3214
9567.4435
9540.3341
9509.643
9474.9937
9435.9773
9392.1658
9343.0917
9288.2567
9227.2617
9160.3111
9082.1442
9754.1173
9754.1173
9754.1173
9754.117
9754.1168
9754.1162
9754.1154
9754.1142
9754.1128
9754.1109
9754.1083
9754.1052
9754.101
9754.096
9754.0895
9754.0811
9754.0707
9754.0575
9754.0409
9754.0195
9753.9928
9753.9585
9753.915
9753.8593
9753.7883
9753.6976
9753.5819
9753.4344
9753.2471
9753.0092
9752.7079
9752.3276
9751.8484
9751.2474
9750.4957
9749.5604
9748.4018
9746.9752
9745.228
9743.1025
9740.5318
9737.4405
9733.7435
9729.3435
9724.1305
9717.983
9710.7634
9702.3227
9692.4989
9681.1095
9667.9584
9652.8281
9635.4816
9615.6595
9593.0761
9567.422
9538.3599
9505.5257
9468.5237
9426.9402
9380.3227
9328.1875
9270.1693
9206.6126
9131.7764
9771.1208
9771.1208
9771.1206
9771.1206
9771.12
9771.1195
9771.1187
9771.1176
9771.1159
9771.114
9771.1115
9771.1084
9771.1042
9771.0992
9771.0928
9771.0844
9771.074
9771.0612
9771.0449
9771.0242
9770.9981
9770.965
9770.9232
9770.8702
9770.8026
9770.717
9770.6081
9770.4698
9770.2948
9770.073
9769.7926
9769.4386
9768.993
9768.4335
9767.7328
9766.8601
9765.7775
9764.4429
9762.8076
9760.8166
9758.408
9755.5111
9752.0455
9747.9199
9743.0324
9737.2661
9730.4938
9722.5776
9713.3621
9702.6786
9690.3411
9676.1442
9659.8633
9641.2508
9620.0344
9595.9175
9568.5753
9537.6576
9502.7815
9463.5453
9419.5119
9370.2094
9315.3115
9255.3185
9183.969
9788.9182
9788.9183
9788.918
9788.9178
9788.9175
9788.917
9788.9159
9788.9148
9788.9134
9788.9115
9788.9087
9788.9057
9788.9015
9788.8965
9788.8901
9788.882
9788.872
9788.8591
9788.8432
9788.8234
9788.7982
9788.7666
9788.7269
9788.6768
9788.6132
9788.5329
9788.4316
9788.3034
9788.1416
9787.9369
9787.6785
9787.3526
9786.9422
9786.4258
9785.7787
9784.971
9783.9678
9782.7295
9781.2112
9779.3618
9777.124
9774.4321
9771.2111
9767.3767
9762.8316
9757.468
9751.1695
9743.8056
9735.2319
9725.2923
9713.8123
9700.5996
9685.4414
9668.1042
9648.3299
9625.8346
9600.3075
9571.4122
9538.7775
9502.0142
9460.6968
9414.3644
9362.7362
9306.4896
9238.7815
9807.4975
9807.4975
9807.4976
9807.4973
9807.4971
9807.4963
9807.4954
9807.4944
9807.493
9807.4911
9807.4886
9807.4856
9807.4817
9807.4767
9807.4706
9807.4631
9807.4534
9807.4414
9807.4266
9807.4077
9807.3843
9807.355
9807.3179
9807.2716
9807.213
9807.1392
9807.0465
9806.9298
9806.7824
9806.5967
9806.3621
9806.066
9805.6923
9805.2211
9804.6296
9803.8894
9802.9689
9801.8311
9800.4353
9798.7344
9796.6763
9794.2001
9791.2373
9787.709
9783.5244
9778.5866
9772.7866
9766.0031
9758.1059
9748.9494
9738.3725
9726.1955
9712.2195
9696.2256
9677.9697
9657.1836
9633.5706
9606.8078
9576.5371
9542.3796
9503.9196
9460.7006
9412.4798
9360.1353
9296.3551
9826.8481
9826.8481
9826.8478
9826.8476
9826.8473
9826.8468
9826.846
9826.8449
9826.8438
9826.8419
9826.8397
9826.8373
9826.8337
9826.8293
9826.8237
9826.8171
9826.8085
9826.7977
9826.7844
9826.7677
9826.7469
9826.7205
9826.6876
9826.6462
9826.5944
9826.5288
9826.4464
9826.3425
9826.2117
9826.0464
9825.8371
9825.5721
9825.2366
9824.8126
9824.2781
9823.6078
9822.7729
9821.7399
9820.4721
9818.9275
9817.0578
9814.8088
9812.1175
9808.9096
9805.1049
9800.6139
9795.3363
9789.1639
9781.9775
9773.6444
9764.0166
9752.9284
9740.1957
9725.614
9708.9565
9689.9708
9668.3751
9643.8613
9616.084
9584.6749
9549.2267
9509.269
9464.5636
9416.3933
9356.7298
9846.9626
9846.9626
9846.9624
9846.9621
9846.9619
9846.9616
9846.9608
9846.96
9846.959
9846.9576
9846.9557
9846.9536
9846.9508
9846.9473
9846.9426
9846.9371
9846.93
9846.9212
9846.9101
9846.8961
9846.8786
9846.8565
9846.8288
9846.7936
9846.7493
9846.6933
9846.6227
9846.5335
9846.4202
9846.2761
9846.0936
9845.8609
9845.5646
9845.1882
9844.7123
9844.1143
9843.3678
9842.4442
9841.3107
9839.9295
9838.2579
9836.247
9833.8382
9830.9665
9827.5595
9823.5358
9818.8069
9813.2759
9806.8358
9799.3669
9790.7348
9780.7895
9769.3622
9756.2647
9741.2874
9724.1964
9704.7267
9682.5851
9657.4398
9628.934
9596.6588
9560.0999
9519.0783
9475.3251
9419.9708
9867.8335
9867.8336
9867.8333
9867.8334
9867.8331
9867.8326
9867.8321
9867.8316
9867.8308
9867.8298
9867.8285
9867.8269
9867.8248
9867.8223
9867.8191
9867.8148
9867.8096
9867.8031
9867.7946
9867.784
9867.7705
9867.7535
9867.7316
9867.7038
9867.6683
9867.6226
9867.5643
9867.49
9867.3949
9867.2731
9867.1167
9866.9162
9866.6592
9866.3314
9865.9152
9865.3914
9864.7376
9863.9284
9862.9351
9861.7247
9860.2603
9858.4969
9856.3832
9853.8626
9850.8704
9847.3359
9843.181
9838.3218
9832.6636
9826.1001
9818.5118
9809.7642
9799.7054
9788.1653
9774.9531
9759.855
9742.6252
9722.9875
9700.625
9675.1865
9646.2549
9613.3139
9576.0859
9536.9946
9486.2758
9889.4546
9889.4543
9889.4544
9889.4541
9889.4542
9889.454
9889.4535
9889.4533
9889.4528
9889.452
9889.4513
9889.4503
9889.449
9889.4475
9889.4454
9889.4428
9889.4394
9889.4351
9889.4295
9889.4225
9889.4131
9889.4009
9889.385
9889.3641
9889.3369
9889.3015
9889.2553
9889.1953
9889.1174
9889.0167
9888.8859
9888.7171
9888.4995
9888.2204
9887.8659
9887.4194
9886.8615
9886.1712
9885.3243
9884.2924
9883.0426
9881.536
9879.7299
9877.5748
9875.015
9871.9905
9868.4361
9864.2794
9859.4388
9853.8223
9847.3256
9839.8305
9831.2043
9821.2965
9809.9373
9796.9338
9782.0638
9765.0698
9745.6486
9723.4545
9698.0979
9668.9807
9635.7215
9601.5141
9555.8491
9911.81
9911.8101
9911.8101
9911.8099
9911.81
9911.8098
9911.8096
9911.8094
9911.8092
9911.8087
9911.8086
9911.8078
9911.8074
9911.8065
9911.8055
9911.8043
9911.8026
9911.8004
9911.797
9911.7929
9911.7872
9911.779
9911.7685
9911.7537
9911.7337
9911.7072
9911.6718
9911.6247
9911.5629
9911.4816
9911.3755
9911.2376
9911.0592
9910.83
9910.5388
9910.1716
9909.7135
9909.1468
9908.4514
9907.6037
9906.5756
9905.3362
9903.8492
9902.0731
9899.9631
9897.471
9894.5429
9891.119
9887.1317
9882.5037
9877.1464
9870.9599
9863.8313
9855.632
9846.2147
9835.411
9823.0237
9808.8147
9792.5115
9773.7836
9752.234
9727.2307
9698.2359
9669.112
9628.8533
9934.8775
9934.8773
9934.8774
9934.8771
9934.8772
9934.877
9934.8768
9934.8769
9934.8767
9934.8766
9934.8764
9934.8762
9934.8758
9934.8758
9934.8751
9934.8747
9934.8739
9934.8728
9934.8709
9934.8685
9934.8651
9934.8599
9934.8526
9934.8422
9934.8276
9934.8079
9934.7808
9934.7447
9934.6966
9934.6336
9934.5508
9934.4434
9934.3041
9934.1256
9933.8986
9933.6132
9933.2575
9932.8182
9932.2791
9931.6209
9930.8226
9929.8595
9928.7024
9927.3197
9925.6778
9923.7397
9921.4644
9918.8041
9915.7055
9912.1064
9907.9364
9903.1145
9897.5485
9891.1337
9883.7484
9875.2472
9865.4677
9854.2052
9841.2123
9826.1805
9808.7352
9788.2201
9763.9863
9740.1437
9705.2854
9958.6142
9958.6143
9958.6141
9958.6138
9958.6139
9958.6137
9958.6135
9958.6133
9958.6131
9958.6129
9958.6128
9958.6126
9958.6125
9958.6124
9958.612
9958.6115
9958.6109
9958.6101
9958.6091
9958.6073
9958.6049
9958.6012
9958.5955
9958.5879
9958.5769
9958.5621
9958.542
9958.5151
9958.4798
9958.4335
9958.3738
9958.2965
9958.1971
9958.07
9957.9086
9957.707
9957.4567
9957.1478
9956.7683
9956.3057
9955.7438
9955.0649
9954.2493
9953.2748
9952.119
9950.7569
9949.1593
9947.2921
9945.116
9942.5858
9939.6487
9936.2436
9932.3042
9927.7506
9922.4881
9916.4029
9909.3624
9901.2001
9891.7198
9880.6577
9867.6729
9852.1239
9833.3558
9814.6953
9785.6492
9982.9712
9982.9709
9982.9707
9982.9705
9982.9703
9982.9701
9982.9699
9982.9694
9982.9693
9982.9688
9982.9687
9982.9682
9982.9675
9982.9671
9982.9664
9982.9658
9982.965
9982.9639
9982.9624
9982.9604
9982.9578
9982.9543
9982.9495
9982.9431
9982.9341
9982.9226
9982.9076
9982.8888
9982.8648
9982.8347
9982.7972
9982.7504
9982.6919
9982.6168
9982.5226
9982.4061
9982.2627
9982.0862
9981.8708
9981.6088
9981.2904
9980.9049
9980.4416
9979.89
9979.2382
9978.4727
9977.5776
9976.5316
9975.3116
9973.8899
9972.2325
9970.3013
9968.054
9965.4386
9962.3908
9958.829
9954.6621
9949.7643
9943.9921
9937.1599
9929.0005
9919.0091
9906.6301
9893.9469
9872.0998
10008.985
10008.984
10008.984
10008.984
10008.984
10008.983
10008.983
10008.982
10008.982
10008.981
10008.98
10008.979
10008.978
10008.977
10008.976
10008.974
10008.973
10008.97
10008.968
10008.965
10008.961
10008.956
10008.951
10008.944
10008.936
10008.927
10008.916
10008.904
10008.891
10008.877
10008.861
10008.845
10008.827
10008.807
10008.786
10008.762
10008.735
10008.704
10008.668
10008.625
10008.572
10008.507
10008.431
10008.341
10008.24
10008.124
10007.992
10007.837
10007.654
10007.433
10007.163
10006.831
10006.423
10005.915
10005.279
10004.472
10003.441
10002.12
10000.423
9998.2511
9995.4582
9991.7623
9987.1741
9982.9761
9974.9539
10036.352
10036.352
10036.352
10036.351
10036.351
10036.35
10036.35
10036.349
10036.348
10036.347
10036.346
10036.345
10036.343
10036.341
10036.339
10036.337
10036.334
10036.331
10036.328
10036.323
10036.318
10036.313
10036.306
10036.3
10036.293
10036.286
10036.28
10036.276
10036.275
10036.278
10036.288
10036.305
10036.333
10036.373
10036.428
10036.503
10036.602
10036.729
10036.884
10037.074
10037.305
10037.583
10037.919
10038.323
10038.809
10039.386
10040.067
10040.862
10041.782
10042.841
10044.053
10045.43
10046.987
10048.734
10050.677
10052.819
10055.155
10057.679
10060.374
10063.234
10066.251
10069.387
10072.941
10077.525
10080.98
10063.666
10063.666
10063.665
10063.665
10063.664
10063.664
10063.663
10063.662
10063.661
10063.66
10063.659
10063.658
10063.656
10063.655
10063.653
10063.65
10063.648
10063.645
10063.641
10063.637
10063.633
10063.629
10063.624
10063.62
10063.616
10063.614
10063.616
10063.622
10063.635
10063.658
10063.693
10063.744
10063.816
10063.913
10064.042
10064.212
10064.43
10064.705
10065.047
10065.467
10065.98
10066.6
10067.349
10068.248
10069.32
10070.591
10072.085
10073.831
10075.86
10078.205
10080.907
10084.005
10087.542
10091.562
10096.108
10101.229
10106.969
10113.383
10120.527
10128.484
10137.347
10147.26
10158.568
10171.64
10186.245
10090.809
10090.809
10090.809
10090.808
10090.808
10090.807
10090.806
10090.806
10090.805
10090.804
10090.803
10090.802
10090.801
10090.799
10090.798
10090.796
10090.794
10090.792
10090.79
10090.788
10090.785
10090.783
10090.782
10090.781
10090.783
10090.787
10090.797
10090.815
10090.842
10090.883
10090.943
10091.026
10091.141
10091.295
10091.498
10091.76
10092.096
10092.518
10093.044
10093.691
10094.482
10095.442
10096.601
10097.992
10099.648
10101.608
10103.912
10106.606
10109.74
10113.37
10117.561
10122.38
10127.899
10134.195
10141.349
10149.453
10158.605
10168.917
10180.515
10193.561
10208.238
10224.814
10243.69
10265.346
10290.459
10117.654
10117.653
10117.653
10117.652
10117.652
10117.651
10117.651
10117.65
10117.65
10117.649
10117.649
10117.648
10117.647
10117.647
10117.646
10117.646
10117.645
10117.645
10117.645
10117.645
10117.646
10117.647
10117.65
10117.655
10117.663
10117.676
10117.696
10117.725
10117.769
10117.831
10117.917
10118.036
10118.196
10118.407
10118.683
10119.038
10119.491
10120.059
10120.767
10121.639
10122.707
10124.004
10125.57
10127.447
10129.682
10132.325
10135.431
10139.065
10143.297
10148.206
10153.878
10160.408
10167.898
10176.458
10186.209
10197.284
10209.831
10224.02
10240.041
10258.132
10278.565
10301.71
10328.06
10358.248
10393.208
10144.095
10144.095
10144.094
10144.094
10144.094
10144.093
10144.093
10144.093
10144.093
10144.092
10144.092
10144.092
10144.093
10144.093
10144.094
10144.094
10144.096
10144.098
10144.1
10144.103
10144.107
10144.113
10144.121
10144.132
10144.148
10144.17
10144.2
10144.245
10144.306
10144.391
10144.507
10144.663
10144.869
10145.139
10145.489
10145.937
10146.506
10147.22