/*--------------------------------*- C++ -*----------------------------------*\
  =========                 |
  \\      /  F ield         | OpenFOAM: The Open Source CFD Toolbox
   \\    /   O peration     | Website:  https://openfoam.org
    \\  /    A nd           | Version:  13
     \\/     M anipulation  |
\*---------------------------------------------------------------------------*/
FoamFile
{
    format      ascii;
    class       volSymmTensorField;
    location    "44.403961";
    object      UPrime2Mean;
}
// * * * * * * * * * * * * * * * * * * * * * * * * * * * * * * * * * * * * * //

dimensions      [0 2 -2 0 0 0 0];

internalField   nonuniform List<symmTensor> 
17140
(
(5.8112207e-12 -3.6778085e-10 -8.03916e-28 2.4716523e-08 1.1590872e-26 4.8248474e-41)
(3.8449671e-10 -5.6756024e-09 -3.4355477e-28 2.3631817e-07 2.4834514e-27 4.2866727e-43)
(3.2959439e-09 -2.3477774e-08 5.4799511e-26 7.1993609e-07 -2.569885e-25 1.868752e-39)
(1.5317305e-08 -6.5628518e-08 -1.1523096e-25 1.5554547e-06 3.925791e-25 2.2584908e-39)
(5.1023716e-08 -1.4919575e-07 2.2863203e-26 2.8399105e-06 -6.0198208e-26 3.0865926e-41)
(1.396227e-07 -2.9898756e-07 -1.1804304e-25 4.690062e-06 2.498021e-25 3.3061463e-40)
(3.3550255e-07 -5.4996955e-07 -2.991424e-25 7.2450503e-06 5.2019897e-25 9.3709318e-40)
(7.3479193e-07 -9.5019051e-07 2.1253597e-25 1.0668945e-05 -3.0807805e-25 2.2335315e-40)
(1.5009645e-06 -1.5642428e-06 9.8856252e-25 1.5152916e-05 -1.2061883e-24 2.3929488e-39)
(2.9034835e-06 -2.4770531e-06 3.3790426e-24 2.0916688e-05 -3.4966933e-24 1.4396295e-38)
(5.3748419e-06 -3.7977026e-06 -6.8747195e-24 2.8208797e-05 6.0688886e-24 3.1656171e-38)
(9.5928875e-06 -5.6627539e-06 8.3033831e-24 3.7305036e-05 -6.2812371e-24 2.5141978e-38)
(1.6596867e-05 -8.238289e-06 1.7059372e-24 4.8504349e-05 -1.1097084e-24 5.8902273e-40)
(2.7946767e-05 -1.1719491e-05 -1.2811685e-23 6.2121298e-05 7.1932482e-24 1.8841188e-38)
(4.5935786e-05 -1.6326299e-05 1.8769597e-24 7.847419e-05 -9.1132889e-25 2.3226012e-40)
(7.3864236e-05 -2.22934e-05 -1.9467611e-23 9.7867968e-05 8.1933616e-24 1.4573251e-38)
(0.0001163788 -2.9852954e-05 9.3948448e-25 0.0001205712 -3.4348608e-25 2.0183935e-41)
(0.00017987312 -3.9209067e-05 -2.7728968e-25 0.00014678687 8.7699965e-26 1.0105692e-42)
(0.00027293304 -5.0504531e-05 -2.4864762e-23 0.00017661736 6.8663723e-24 5.0831237e-39)
(0.0004067953 -6.3782922e-05 4.1063049e-23 0.00021002488 -9.8726534e-24 8.5227385e-39)
(0.00059577396 -7.8952659e-05 -2.5024176e-23 0.00024678985 5.2380232e-24 1.9681138e-39)
(0.00085760391 -9.5763205e-05 5.9593553e-24 0.00028647146 -1.0887067e-24 7.1237007e-41)
(0.0012136619 -0.00011380522 5.4664028e-23 0.0003283766 -8.6818115e-24 3.8344063e-39)
(0.0016890899 -0.00013254559 -6.701517e-23 0.00037154718 9.2683627e-24 3.7714498e-39)
(0.0023130155 -0.00015140277 -1.2968522e-22 0.0004147806 1.5605291e-23 9.441679e-39)
(0.0031186883 -0.00016983778 1.2519742e-22 0.00045670287 -1.3109963e-23 6.0187139e-39)
(0.004143427 -0.00018738628 7.3281269e-22 0.00049590747 -6.6671227e-23 1.4331749e-37)
(0.005431098 -0.0002038003 1.0214128e-22 0.00053113099 -8.0572102e-24 1.9650063e-39)
(0.0070333729 -0.00021908883 -1.0440558e-21 0.00056140786 7.1546126e-23 1.4985798e-37)
(0.0090106576 -0.00023302801 -2.8373285e-22 0.00058615897 1.6836031e-23 8.1268786e-39)
(0.011434881 -0.00024553698 -1.1656497e-21 0.00060516512 5.9850675e-23 1.0295678e-37)
(0.014389951 -0.00025667992 1.755535e-21 0.00061848159 -7.7847822e-23 1.7794704e-37)
(0.017974565 -0.0002659034 -5.2214508e-22 0.00062657332 1.9905289e-23 1.208036e-38)
(0.022301905 -0.00027223464 -2.8227475e-22 0.00063038509 9.2387792e-24 2.764372e-39)
(0.027499244 -0.00027415872 -3.1410504e-21 0.00063114512 8.7334734e-23 2.6826872e-37)
(0.033705628 -0.00026961509 1.5463183e-21 0.00063001988 -3.6432157e-23 5.1975471e-38)
(0.0410674 -0.00025600041 -2.6122066e-21 0.00062789431 5.1534489e-23 1.1883862e-37)
(0.049730542 -0.00023015034 -1.9688675e-21 0.00062538975 3.2188618e-23 5.4820592e-38)
(0.059828348 -0.00018833648 -9.9915609e-22 0.0006230695 1.3319509e-23 1.1569296e-38)
(0.07146255 -0.00012630601 3.3247317e-21 0.00062173938 -3.5549978e-23 1.0683604e-37)
(0.084677027 -3.9621269e-05 6.864905e-21 0.00062274258 -5.7042569e-23 3.8180126e-37)
(0.099424674 7.5800422e-05 6.7654638e-21 0.00062810146 -4.1904112e-23 3.1470851e-37)
(0.11552956 0.0002227225 3.1840606e-21 0.00064039741 -1.372272e-23 5.989997e-38)
(0.13265633 0.00040164612 -1.6650368e-20 0.00066249661 4.3184768e-23 1.4131437e-36)
(0.15029812 0.00060937225 -1.2964314e-20 0.00069737306 1.361451e-23 7.5065517e-37)
(0.1677774 0.00083657854 3.3642872e-21 0.00074827516 1.2125064e-24 4.4928467e-38)
(0.18435069 0.0010709753 -2.3991814e-20 0.00081948259 -4.0195879e-23 2.0530601e-36)
(0.19930901 0.0013024863 -8.4829163e-21 0.00091737501 -2.4718694e-23 2.3368875e-37)
(0.21188378 0.0015204152 8.926484e-21 0.0010514182 3.6602494e-23 2.3900565e-37)
(0.22165861 0.0017102134 2.2399465e-20 0.0012343999 1.1747851e-22 1.4092825e-36)
(0.22828748 0.0018586721 -1.4028899e-20 0.0014846473 -8.9264386e-23 5.2542978e-37)
(0.23158806 0.0019618437 -8.9410956e-21 0.001829612 -6.6886178e-23 2.0576518e-37)
(0.23145073 0.0020325201 2.3373827e-20 0.0023096056 2.0311988e-22 1.3745312e-36)
(0.22810169 0.0020814467 1.0994183e-20 0.0029849804 1.1012179e-22 3.0161624e-37)
(0.22196743 0.0021100443 7.7371793e-21 0.0039501932 8.9079182e-23 1.5057053e-37)
(0.21396528 0.002128693 -5.9802862e-21 0.0053637966 -7.8982396e-23 9.1420467e-38)
(0.20535703 0.0021681192 1.5665375e-20 0.0074723816 2.3622187e-22 6.5499906e-37)
(0.1970824 0.0022083658 1.2654202e-20 0.010651335 2.1387856e-22 4.5038465e-37)
(0.18987643 0.0020892453 3.0307677e-21 0.015231801 5.4493382e-23 2.7900589e-38)
(0.18342309 0.0017379542 -7.4219063e-21 0.020923853 -1.259737e-22 1.8338762e-37)
(0.17680548 0.0016574335 -5.3999036e-21 0.026822875 -7.1992883e-23 1.114259e-37)
(0.1692923 0.001915606 -1.829674e-20 0.032466167 -1.4733846e-22 1.5162717e-36)
(0.15841861 0.0019709587 -2.3929817e-21 0.037776515 -6.4915849e-24 3.2493297e-38)
(0.14582242 0.0019239214 1.7762044e-20 0.041829321 8.2597656e-24 2.2948029e-36)
(0.12562921 0.0012239657 -1.16712e-20 0.042880174 -6.7132728e-23 1.3714573e-36)
(2.4565127e-10 -5.7703127e-09 9.1460289e-28 1.3558925e-07 -1.7494566e-26 3.9073225e-42)
(3.8035715e-09 -6.9522078e-08 -2.9491434e-25 1.2856443e-06 4.460443e-24 5.1436619e-38)
(1.685917e-08 -2.5250775e-07 4.9488811e-25 3.8869341e-06 -6.1011168e-24 4.0732241e-38)
(5.2123151e-08 -6.442837e-07 -2.2173593e-25 8.3273358e-06 2.2744784e-24 3.0272203e-39)
(1.3278324e-07 -1.371404e-06 -7.0221402e-25 1.5060359e-05 6.1038433e-24 1.291842e-38)
(3.0028706e-07 -2.6154458e-06 1.9701432e-24 2.4607202e-05 -1.4712817e-23 4.7167049e-38)
(6.2584707e-07 -4.6302321e-06 -2.9273274e-24 3.7555647e-05 1.8937513e-23 5.1253037e-38)
(1.2280549e-06 -7.7629977e-06 3.5938068e-25 5.4553625e-05 -2.0245247e-24 3.9698224e-40)
(2.2996312e-06 -1.2480185e-05 -1.5393147e-24 7.6295516e-05 7.5784953e-24 3.8692813e-39)
(4.1470592e-06 -1.939653e-05 -3.555693e-26 0.00010349853 1.5348417e-25 1.1053811e-42)
(7.2482603e-06 -2.930617e-05 -9.321496e-24 0.00013686689 3.5320279e-23 4.3123699e-38)
(1.2334823e-05 -4.3212858e-05 1.966362e-23 0.00017704142 -6.5554182e-23 1.0885533e-37)
(2.050674e-05 -6.2354723e-05 2.1408023e-24 0.00022453322 -6.2887453e-24 7.4229357e-40)
(3.3388635e-05 -8.8216616e-05 -2.7662882e-23 0.00027964209 7.1692456e-23 7.2257258e-38)
(5.3336605e-05 -0.00012252069 1.1052378e-23 0.00034236319 -2.529492e-23 6.806611e-39)
(8.3703395e-05 -0.000167184 9.0834573e-24 0.00041229005 -1.8371031e-23 2.7389528e-39)
(0.0001291654 -0.00022423125 -7.4182439e-23 0.00048852757 1.3263165e-22 1.0985858e-37)
(0.00019610757 -0.00029565397 3.0911536e-22 0.00056963498 -4.8867488e-22 1.1606158e-36)
(0.00029305086 -0.00038321507 -2.4607103e-22 0.00065362267 3.4393996e-22 4.5224247e-37)
(0.00043109268 -0.00048821266 3.7245026e-22 0.0007380273 -4.6013084e-22 6.4417192e-37)
(0.00062431875 -0.00061123956 -6.8985475e-22 0.00082008192 7.5296862e-22 1.3928907e-36)
(0.00089013902 -0.00075199944 2.1038242e-22 0.0008969782 -2.0276615e-22 8.2831278e-38)
(0.0012495123 -0.00090925962 1.0686513e-22 0.00096619046 -9.0888711e-23 1.3896309e-38)
(0.0017270809 -0.0010810233 -4.2750506e-22 0.0010257989 3.2055453e-22 1.465927e-37)
(0.0023514054 -0.0012649846 1.8608494e-21 0.0010747344 -1.2296118e-21 1.8714489e-36)
(0.0031551756 -0.0014591303 3.338343e-22 0.0011128855 -1.9416201e-22 4.1120958e-38)
(0.0041750539 -0.0016621859 -2.0496551e-21 0.0011410076 1.0499933e-21 1.0916943e-36)
(0.0054541805 -0.0018741804 2.7077679e-21 0.0011602972 -1.2204723e-21 1.3586819e-36)
(0.0070434944 -0.0020963873 -4.3263386e-22 0.0011721659 1.7174559e-22 2.5504303e-38)
(0.0090023925 -0.0023303112 -4.9349125e-21 0.0011781628 1.7201681e-21 2.4293691e-36)
(0.011401618 -0.0025779202 5.8761656e-22 0.0011794456 -1.8000618e-22 2.6066679e-38)
(0.014323567 -0.0028411046 5.1782051e-21 0.0011765555 -1.3894671e-21 1.52946e-36)
(0.017865036 -0.0031205828 1.5259213e-22 0.0011697642 -3.5586637e-23 9.7114343e-40)
(0.022136785 -0.0034155567 -4.995917e-21 0.0011593643 1.0245948e-21 8.5675288e-37)
(0.027263012 -0.0037232077 6.2959972e-21 0.0011456846 -1.1254375e-21 1.074252e-36)
(0.03337888 -0.0040383133 -3.1922035e-21 0.0011289324 4.96175e-22 2.1965865e-37)
(0.040625854 -0.0043527845 4.1929511e-21 0.0011091009 -5.6617817e-22 3.0715523e-37)
(0.049143764 -0.0046549368 1.4878927e-20 0.0010860548 -1.7403928e-21 3.136502e-36)
(0.059058194 -0.0049285424 3.7009739e-21 0.0010598072 -3.7426357e-22 1.5882976e-37)
(0.070461374 -0.0051519258 1.5918098e-20 0.0010309528 -1.3891568e-21 2.4473058e-36)
(0.083385655 -0.0052976942 -2.228377e-20 0.0010011742 1.6726892e-21 4.0419931e-36)
(0.09777033 -0.0053337593 -2.2345046e-20 0.00097359767 1.4354079e-21 3.4390722e-36)
(0.11342412 -0.0052263977 -4.1563037e-21 0.00095294164 2.2704787e-22 1.0094142e-37)
(0.12999439 -0.004945658 3.5404698e-20 0.00094552849 -1.6302999e-21 6.4518951e-36)
(0.14695283 -0.0044732629 -1.7916311e-20 0.00095918102 6.8664136e-22 1.439372e-36)
(0.16360515 -0.0038138087 -6.5797326e-21 0.0010028824 2.0633567e-22 1.7195824e-37)
(0.17917276 -0.0029997451 3.6710094e-21 0.0010859461 -9.187312e-23 4.8986655e-38)
(0.19292067 -0.0020798371 1.1980251e-20 0.0012161672 -2.3001464e-22 4.7182539e-37)
(0.20421314 -0.0011171874 -6.0532634e-21 0.0013981867 8.4536986e-23 1.1157589e-37)
(0.21256601 -0.00017490405 1.126411e-20 0.0016373757 -1.0283578e-22 3.6175501e-37)
(0.21768151 0.00071167082 6.8965138e-20 0.0019452038 -3.2522218e-22 1.2925659e-35)
(0.21941743 0.0015208649 3.321416e-21 0.0023452388 -1.7372996e-24 2.9067274e-38)
(0.21780346 0.002228716 -1.5011851e-20 0.0028783016 -4.9849732e-23 5.8102752e-37)
(0.21314203 0.0028030603 3.322576e-20 0.0036048761 2.3955408e-22 2.8313987e-36)
(0.20611969 0.0032028945 -2.800632e-20 0.0046177393 -3.1266562e-22 2.0315781e-36)
(0.19776971 0.0034073457 7.7854645e-20 0.0060701092 1.1859694e-21 1.6094954e-35)
(0.18940135 0.0034686479 2.1604443e-20 0.00821248 4.2536363e-22 1.2891307e-36)
(0.18205761 0.0033958033 -5.8601244e-20 0.011448325 -1.4187402e-21 1.0070467e-35)
(0.17635756 0.0030435126 9.5260995e-21 0.016127712 2.7676416e-22 2.8655577e-37)
(0.17182578 0.0022685557 1.0242355e-20 0.021784852 3.2698897e-22 3.691402e-37)
(0.16707268 0.0014062049 1.9053777e-21 0.027395377 6.3747672e-23 1.4741805e-38)
(0.16136792 0.00042144792 -2.3122071e-20 0.032806349 -8.0477064e-22 2.5900155e-36)
(0.1516731 -0.00076708333 3.9969563e-20 0.037863361 1.4132428e-21 9.8168807e-36)
(0.14020778 -0.001532576 1.0491759e-20 0.041680171 4.1391114e-22 8.7976038e-37)
(0.12057496 -0.0021414585 1.4657025e-20 0.042683741 7.4916299e-22 2.4299166e-36)
(1.9781392e-09 -2.8265206e-08 1.3150795e-25 4.0388268e-07 -1.7444516e-24 1.1876236e-38)
(2.2502599e-08 -2.9333747e-07 -2.0156498e-25 3.8262073e-06 2.4342145e-24 4.6988509e-39)
(7.9882516e-08 -9.6004412e-07 -9.0248743e-26 1.1558544e-05 9.9254906e-25 3.3235938e-40)
(2.026586e-07 -2.2353122e-06 1.2813411e-25 2.474189e-05 -1.2843443e-24 2.9882253e-40)
(4.3540903e-07 -4.3993784e-06 -8.822207e-25 4.4704378e-05 8.0764369e-24 7.0174738e-39)
(8.487796e-07 -7.8372421e-06 -9.056692e-26 7.2963778e-05 7.5857277e-25 3.8796754e-41)
(1.5528128e-06 -1.3068738e-05 -1.5598951e-24 0.00011121956 1.1948341e-23 6.3351296e-39)
(2.7165017e-06 -2.0785008e-05 -2.2357762e-24 0.0001613279 1.564421e-23 7.3545131e-39)
(4.5966004e-06 -3.1892828e-05 2.4026556e-23 0.00022525174 -1.5331426e-22 4.9129461e-37)
(7.5786672e-06 -4.7563088e-05 -2.7980163e-23 0.0003049799 1.6252791e-22 3.9165639e-37)
(1.2235369e-05 -6.9282818e-05 1.7350524e-23 0.00040240671 -9.1579838e-23 8.9689307e-38)
(1.940748e-05 -9.890441e-05 3.2780247e-23 0.00051916554 -1.5695354e-22 1.9252451e-37)
(3.0314636e-05 -0.00013868482 -8.3440916e-23 0.00065641264 3.6181999e-22 7.5684806e-37)
(4.6703536e-05 -0.00019130288 -1.3219358e-23 0.00081456389 5.1832598e-23 1.158969e-38)
(7.1041279e-05 -0.00025983883 6.5032632e-23 0.00099299723 -2.3020482e-22 1.726177e-37)
(0.00010676034 -0.00034769738 5.681937e-23 0.0011897493 -1.8130238e-22 8.14476e-38)
(0.00015855804 -0.00045845455 -8.3436891e-23 0.0014012532 2.396078e-22 1.0926924e-37)
(0.00023274699 -0.00059561354 3.8108832e-22 0.0016221858 -9.8333095e-22 1.4271364e-36)
(0.00033764354 -0.0007622682 -2.8286415e-22 0.0018455083 6.5472565e-22 4.9639044e-37)
(0.00048396979 -0.00096069811 1.7491577e-22 0.0020627876 -3.6254061e-22 1.2069985e-37)
(0.00068523398 -0.0011919569 -7.3267572e-22 0.0022648564 1.357514e-21 1.3631616e-36)
(0.00095805162 -0.00145556 -2.35246e-22 0.0024428103 3.8894044e-22 9.1476248e-38)
(0.0013223777 -0.0017494095 6.0112795e-22 0.0025892312 -8.8539681e-22 3.9451624e-37)
(0.0018016668 -0.0020701011 -1.099658e-21 0.002699405 1.4404087e-21 8.8459676e-37)
(0.0024231309 -0.0024137274 -5.2241823e-22 0.002772213 6.0750071e-22 1.3571424e-37)
(0.0032181011 -0.002777004 7.470983e-22 0.0028104043 -7.7077015e-22 1.9395827e-37)
(0.0042216765 -0.0031580214 5.0287009e-21 0.0028200009 -4.5937629e-21 6.1972608e-36)
(0.0054752522 -0.0035572979 2.6741578e-21 0.0028084303 -2.1606936e-21 1.2591096e-36)
(0.0070278768 -0.0039775226 -1.5481946e-21 0.0027829292 1.10649e-21 3.120351e-37)
(0.0089364994 -0.0044220178 1.9274563e-21 0.0027498297 -1.2145836e-21 3.5617548e-37)
(0.011268981 -0.004894835 -1.3757497e-21 0.0027135985 7.6525633e-22 1.3943398e-37)
(0.014103961 -0.005399669 -8.9601475e-21 0.0026762884 4.379261e-21 4.4825115e-36)
(0.017533578 -0.0059384524 3.4175674e-21 0.0026381227 -1.4664311e-21 5.055622e-37)
(0.021662696 -0.0065104485 1.1586433e-20 0.0025982255 -4.3551704e-21 4.5435588e-36)
(0.026608117 -0.0071113886 -4.3490951e-21 0.0025550622 1.4311222e-21 5.1163038e-37)
(0.032495735 -0.0077327158 -6.8751501e-21 0.0025066638 1.974383e-21 1.015768e-36)
(0.039455436 -0.0083606698 1.3354512e-20 0.0024507591 -3.3443524e-21 3.0930415e-36)
(0.047612597 -0.0089748827 4.5597736e-21 0.0023849778 -9.9419683e-22 2.924053e-37)
(0.057074792 -0.0095465289 -8.96552e-21 0.0023072357 1.7016794e-21 9.3996589e-37)
(0.067912094 -0.010036542 -3.9612111e-21 0.0022164478 6.5317148e-22 1.534817e-37)
(0.080130128 -0.01039478 2.0960803e-20 0.0021135388 -2.9934579e-21 3.5967342e-36)
(0.093636733 -0.010561595 -6.4405085e-21 0.002002689 7.9377806e-22 2.9280613e-37)
(0.1082052 -0.010473106 -1.0148745e-20 0.0018926169 1.0754731e-21 6.2080137e-37)
(0.12344524 -0.010071302 -2.9284766e-20 0.0017977473 2.6485176e-21 4.4686158e-36)
(0.13879006 -0.0093192925 5.9550421e-20 0.0017385215 -4.5500536e-21 1.6292814e-35)
(0.15352078 -0.0082232222 -4.0998017e-20 0.0017399171 2.6113902e-21 6.8669099e-36)
(0.16687531 -0.0068487277 -1.0953194e-20 0.0018257869 5.7260354e-22 4.3829085e-37)
(0.17814827 -0.0052977187 -4.5154974e-20 0.0020083322 1.8862596e-21 6.8809998e-36)
(0.18677144 -0.0036787903 -5.6140029e-20 0.0022829896 1.8189782e-21 9.8859825e-36)
(0.19237489 -0.0021028671 -2.9424329e-21 0.0026380331 7.2042971e-23 2.5396178e-38)
(0.19481958 -0.00064303996 1.2700248e-20 0.0030682605 -2.056953e-22 4.5334454e-37)
(0.19413539 0.00066106903 -9.4171947e-20 0.0035909468 8.1864766e-22 2.4362784e-35)
(0.19054612 0.0017672116 -4.0240588e-20 0.004251616 7.9309312e-23 4.3872602e-36)
(0.18453038 0.0026055715 -4.1106819e-20 0.0051160029 -1.8605978e-22 4.5811565e-36)
(0.17698325 0.0031024417 -1.3320888e-20 0.0062723898 -1.499404e-22 4.8826676e-37)
(0.16905763 0.0032269361 -1.0062953e-19 0.0078569366 -1.7668467e-21 2.8791936e-35)
(0.16210727 0.0030692845 3.8805078e-20 0.010104211 9.6928136e-22 4.4806606e-36)
(0.15705822 0.0026993848 -1.1318537e-20 0.013428169 -3.6728224e-22 4.0956943e-37)
(0.15416678 0.0020077478 -8.857199e-20 0.018179347 -3.6250557e-21 2.7265379e-35)
(0.15266951 0.00083803996 -3.3101875e-20 0.023637831 -1.6243175e-21 4.2732235e-36)
(0.15071838 -0.00061531507 3.632205e-20 0.028691157 2.0492073e-21 6.0295309e-36)
(0.14745184 -0.0024951481 1.1318381e-19 0.033420244 7.2797589e-21 7.117961e-35)
(0.1390606 -0.0045971484 -3.1740068e-20 0.037725017 -2.2824222e-21 7.2601337e-36)
(0.12904354 -0.0057821924 -4.434101e-20 0.040807629 -3.6786094e-21 1.8864634e-35)
(0.10991706 -0.0060153143 -1.5695142e-20 0.041332344 -1.6514282e-21 3.460958e-36)
(7.7330565e-09 -7.8638627e-08 -8.6163105e-25 7.996906e-07 8.4428521e-24 1.3319169e-37)
(7.9889763e-08 -7.7802178e-07 2.7097976e-24 7.5774991e-06 -2.5352511e-23 2.4427212e-37)
(2.6167748e-07 -2.4473836e-06 -1.5742162e-24 2.2895119e-05 1.4022139e-23 3.1938244e-38)
(6.1181495e-07 -5.4749899e-06 2.4527034e-25 4.9019698e-05 -2.0768077e-24 3.7748315e-40)
(1.2139671e-06 -1.0365895e-05 -6.618277e-24 8.8592904e-05 5.3230256e-23 1.4755007e-37)
(2.1894418e-06 -1.778283e-05 9.0944177e-24 0.000144638 -6.9407344e-23 1.5798665e-37)
(3.7128732e-06 -2.8586233e-05 -1.7993644e-23 0.00022054528 1.3004701e-22 3.6360565e-37)
(6.0340763e-06 -4.3881172e-05 1.0893169e-23 0.00032002369 -7.4354462e-23 8.0512925e-38)
(9.5088681e-06 -6.5072456e-05 5.2810828e-23 0.00044700358 -3.3942786e-22 1.1641693e-36)
(1.4641372e-05 -9.3924121e-05 -1.6072547e-23 0.00060547705 9.6958989e-23 6.733449e-38)
(2.2141687e-05 -0.00013261997 -7.7145644e-23 0.00079925996 4.3542443e-22 9.7712029e-37)
(3.3003998e-05 -0.00018381965 2.9563145e-23 0.0010316573 -1.5561423e-22 9.1110636e-38)
(4.8609703e-05 -0.00025069697 2.4680053e-24 0.0013050263 -1.2075838e-23 4.072638e-40)
(7.0862392e-05 -0.00033694859 -1.2113085e-22 0.0016202401 5.4934917e-22 6.2431866e-37)
(0.00010236036 -0.00044675234 4.728927e-22 0.0019760747 -1.9813721e-21 6.1115713e-36)
(0.00014661114 -0.00058465102 -3.6173855e-22 0.0023685736 1.3959207e-21 2.3031123e-36)
(0.00020829057 -0.00075533944 -4.2911457e-24 0.002790483 1.520379e-23 2.0897204e-40)
(0.00029354354 -0.00096333663 3.0900361e-22 0.0032308983 -1.0020908e-21 7.0353281e-37)
(0.000410317 -0.0012125446 -9.7161901e-22 0.0036753001 2.8750457e-21 4.5300301e-36)
(0.00056870717 -0.001505725 5.658258e-22 0.0041061644 -1.5229335e-21 1.0070226e-36)
(0.0007812965 -0.0018439766 1.0371e-21 0.0045042987 -2.531147e-21 2.2340344e-36)
(0.0010634535 -0.0022263512 5.1383992e-22 0.0048509211 -1.1336509e-21 3.6516615e-37)
(0.0014335768 -0.0026497894 -3.0874007e-21 0.0051302823 6.1397002e-21 8.9072688e-36)
(0.0019132922 -0.0031095616 -1.9490417e-21 0.0053323674 3.4834108e-21 2.4249042e-36)
(0.0025277432 -0.0036003659 1.5075296e-21 0.0054549643 -2.4155378e-21 1.0101357e-36)
(0.0033061274 -0.0041179638 -1.0484844e-21 0.0055043989 1.5017382e-21 3.4307115e-37)
(0.0042812107 -0.0046601502 4.6306083e-21 0.0054944441 -5.91845e-21 4.8147055e-36)
(0.0054916832 -0.0052283231 -1.5594386e-21 0.0054425418 1.7743794e-21 3.9768626e-37)
(0.006983531 -0.0058267225 4.8870899e-21 0.0053650522 -4.9419288e-21 2.8977193e-36)
(0.0088100407 -0.0064606848 -3.1906567e-21 0.0052759357 2.8618097e-21 9.3055141e-37)
(0.011034585 -0.0071363868 2.2743892e-21 0.0051851882 -1.8043038e-21 3.5875705e-37)
(0.013729996 -0.0078592277 -9.5264576e-21 0.0050976563 6.6746496e-21 4.8747071e-36)
(0.016981212 -0.0086322256 1.554388e-21 0.0050138409 -9.5988252e-22 1.0179417e-37)
(0.020884063 -0.0094544863 -9.3245344e-21 0.0049312626 5.0602196e-21 2.8712545e-36)
(0.025544071 -0.010320037 1.007164e-20 0.0048455682 -4.7983997e-21 2.6736576e-36)
(0.031073153 -0.011216706 3.6440496e-21 0.0047513342 -1.5205994e-21 2.7826437e-37)
(0.037583872 -0.012124784 -5.0599524e-20 0.004642571 1.8500588e-20 4.4137893e-35)
(0.045180244 -0.01301501 -1.4735642e-20 0.0045130941 4.7111027e-21 3.061947e-36)
(0.053943712 -0.013845934 1.3522877e-20 0.0043570749 -3.7767212e-21 2.1449881e-36)
(0.063912893 -0.014561398 -1.4655513e-20 0.0041701708 3.569228e-21 2.1093282e-36)
(0.075056675 -0.015089464 4.1559908e-21 0.0039514299 -8.7995757e-22 1.4205558e-37)
(0.087241836 -0.01534475 2.8257132e-20 0.0037060373 -5.1945373e-21 5.6653442e-36)
(0.10019919 -0.015236473 -1.4134578e-21 0.0034487757 2.2483108e-22 1.2414741e-38)
(0.11349922 -0.014684018 -1.1126645e-20 0.0032072603 1.5154189e-21 6.5603122e-37)
(0.12654764 -0.013641168 5.7450641e-21 0.0030231262 -6.6064395e-22 1.5778224e-37)
(0.13863694 -0.012130277 -3.1732837e-21 0.0029482791 3.0843763e-22 3.9757088e-38)
(0.1490756 -0.010260447 -9.4177081e-21 0.0030296866 7.5647642e-22 3.3403359e-37)
(0.15725304 -0.0081933871 1.5053269e-19 0.0032852521 -9.8219479e-21 7.9742748e-35)
(0.16276776 -0.0060979427 -1.7451311e-20 0.0036929097 8.8864623e-22 1.0003183e-36)
(0.16545708 -0.0041244305 1.6543291e-20 0.0042105834 -6.4648543e-22 8.5298885e-37)
(0.16538027 -0.0023601316 -1.5813012e-19 0.0048069101 4.4092741e-21 7.5012571e-35)
(0.16273983 -0.00084901574 8.7243269e-20 0.0054921409 -1.5444144e-21 2.2333471e-35)
(0.15792014 0.00035102539 7.1715403e-20 0.0063228698 -5.589036e-22 1.4950608e-35)
(0.15155689 0.0011421877 6.770672e-20 0.007375076 9.7651167e-23 1.3433702e-35)
(0.14466729 0.0014374508 6.3944393e-20 0.008731627 6.7336952e-22 1.2260442e-35)
(0.13844194 0.0012295943 9.7584744e-20 0.010498352 1.9341913e-21 2.9694598e-35)
(0.1340734 0.00068762908 -1.8824474e-19 0.012874432 -5.6786396e-21 1.1670586e-34)
(0.13213411 -5.6607632e-05 1.1074396e-19 0.016270009 4.6234287e-21 4.3541491e-35)
(0.13232961 -0.0010832697 1.5856222e-19 0.021012933 8.6282532e-21 9.8929486e-35)
(0.13352927 -0.0024697519 -1.083049e-19 0.026036558 -7.3984797e-21 5.2752837e-35)
(0.13359094 -0.0041636896 -3.1510467e-20 0.030285872 -2.5999132e-21 5.3395296e-36)
(0.13166179 -0.0063515125 -2.4578506e-20 0.03393556 -2.382729e-21 4.0498402e-36)
(0.12343068 -0.0088413 1.0804226e-19 0.037073195 1.2514225e-20 1.049127e-34)
(0.11339997 -0.010072163 6.7704123e-20 0.039074665 9.1975969e-21 5.6618823e-35)
(0.094159297 -0.0097756394 -2.371557e-21 0.038837915 -3.8202498e-22 1.0991347e-37)
(2.067964e-08 -1.622118e-07 1.0090112e-24 1.2723961e-06 -7.7427656e-24 6.6038075e-38)
(2.0524318e-07 -1.5735111e-06 -6.4849803e-24 1.2063629e-05 4.8503017e-23 5.2732886e-37)
(6.4877509e-07 -4.8640596e-06 8.3013198e-24 3.6469225e-05 -6.0347025e-23 3.5055151e-37)
(1.4601051e-06 -1.0680066e-05 -4.3956067e-24 7.8129372e-05 3.1019052e-23 5.0076083e-38)
(2.7853998e-06 -1.9836494e-05 -2.120828e-24 0.00014129738 1.451329e-23 6.5377614e-39)
(4.8232713e-06 -3.3363278e-05 2.3743247e-23 0.0002308581 -1.5736601e-22 4.8430205e-37)
(7.8427042e-06 -5.25514e-05 -7.6831529e-24 0.00035231327 4.9224274e-23 3.1084882e-38)
(1.2206773e-05 -7.9004395e-05 -2.0583093e-23 0.00051171427 1.2716373e-22 1.4024274e-37)
(1.8404567e-05 -0.00011469582 -1.9720581e-24 0.00071551973 1.1715391e-23 8.2629178e-40)
(2.7093223e-05 -0.00016202824 -2.0799992e-23 0.00097035301 1.1846692e-22 5.9689143e-38)
(3.9152997e-05 -0.000223889 3.5976893e-23 0.0012826323 -1.9582598e-22 1.1717911e-37)
(5.5758895e-05 -0.00030369494 -3.0780093e-23 0.0016580458 1.5958617e-22 5.6683395e-38)
(7.847246e-05 -0.00040541343 -1.3936925e-22 0.0021008551 6.8596571e-22 7.7081729e-37)
(0.00010935769 -0.00053354326 -4.9814584e-24 0.0026130272 2.319639e-23 6.5187416e-40)
(0.00015112604 -0.00069303651 1.6017558e-22 0.0031932156 -7.0295752e-22 4.5194238e-37)
(0.00020731239 -0.00088913511 1.3899332e-22 0.0038356814 -5.7283805e-22 2.2717083e-37)
(0.00028248433 -0.0011271009 -1.4642811e-22 0.0045292865 5.645535e-22 1.6852004e-37)
(0.00038248323 -0.0014118254 1.7114354e-23 0.0052567893 -6.1479325e-23 1.5549384e-39)
(0.00051469161 -0.0017473231 4.2590596e-22 0.0059947303 -1.4200293e-21 6.4263573e-37)
(0.00068831689 -0.0021361532 6.3215035e-22 0.0067142493 -1.9480515e-21 9.5496786e-37)
(0.0009146782 -0.0025788612 -8.7562485e-22 0.0073831085 2.4836823e-21 1.2445156e-36)
(0.0012074827 -0.003073601 -1.0645866e-21 0.0079690376 2.7680083e-21 1.2594989e-36)
(0.0015830848 -0.0036161413 1.7216957e-21 0.0084441434 -4.0869106e-21 2.2779164e-36)
(0.0020607342 -0.0042004597 -2.5460086e-21 0.0087896676 5.4958981e-21 3.4822577e-36)
(0.0026629066 -0.0048200815 -5.2373071e-21 0.0089999123 1.0241995e-20 1.0432014e-35)
(0.003415927 -0.0054701145 1.4531007e-20 0.0090840017 -2.56549e-20 5.7790338e-35)
(0.0043497934 -0.0061486422 -9.3497143e-21 0.0090646335 1.4854073e-20 1.7467362e-35)
(0.005499544 -0.0068582199 1.6081035e-20 0.0089724482 -2.2919081e-20 3.8252214e-35)
(0.0069069093 -0.0076048228 -2.3149623e-20 0.0088362736 2.9517705e-20 5.962299e-35)
(0.0086208971 -0.0083964038 2.9612084e-20 0.0086808462 -3.3684079e-20 7.4292298e-35)
(0.01069881 -0.0092411489 -3.4894512e-20 0.0085240438 3.5310811e-20 7.9568843e-35)
(0.013206056 -0.01014604 6.6519014e-21 0.0083751701 -5.9736352e-21 2.2628071e-36)
(0.016218227 -0.011115014 2.5996737e-20 0.008235674 -2.0659241e-20 2.7147238e-35)
(0.019819592 -0.012146768 -1.6497115e-20 0.0081012264 1.1579765e-20 8.7055151e-36)
(0.024101345 -0.01323333 5.7798802e-21 0.0079637622 -3.5771908e-21 8.600235e-37)
(0.02915782 -0.014358612 1.8739736e-21 0.0078130885 -1.021805e-21 7.4161367e-38)
(0.03508016 -0.015496726 2.5885388e-20 0.0076379546 -1.2401006e-20 1.1425007e-35)
(0.041946515 -0.01660948 9.3742637e-21 0.0074266891 -3.9440074e-21 1.2310508e-36)
(0.049807601 -0.017643171 1.0460943e-20 0.0071679943 -3.858137e-21 1.2713207e-36)
(0.058666571 -0.018525622 1.1306275e-20 0.0068526604 -3.6526167e-21 1.2629369e-36)
(0.068453109 -0.019165208 -6.2934165e-20 0.006476702 1.7756227e-20 3.3302087e-35)
(0.078993707 -0.019454499 3.0007475e-20 0.0060463904 -7.3707078e-21 6.5060622e-36)
(0.089983536 -0.019281797 5.2278388e-21 0.0055849078 -1.1152189e-21 1.6673984e-37)
(0.10097065 -0.018553313 -6.3912779e-20 0.0051387784 1.1717577e-20 2.2441013e-35)
(0.11136816 -0.017228267 -3.4565395e-20 0.0047803543 5.4154795e-21 5.8098547e-36)
(0.12053848 -0.015364741 1.7896639e-20 0.0045995828 -2.3741468e-21 1.4119397e-36)
(0.12792536 -0.013131867 6.8391933e-20 0.0046726274 -7.5284989e-21 1.870206e-35)
(0.13310689 -0.010749901 -3.0834041e-20 0.0050175952 2.7944957e-21 3.5404928e-36)
(0.13589496 -0.008435369 9.3008993e-20 0.0055835372 -6.6551722e-21 3.015767e-35)
(0.13632873 -0.0063525524 5.1647177e-20 0.0062831798 -2.8587149e-21 8.8734369e-36)
(0.13460939 -0.0045775191 7.2136337e-20 0.0070524203 -2.9620046e-21 1.6779319e-35)
(0.13104413 -0.0031431231 1.9458588e-19 0.0079000184 -5.2240718e-21 1.199504e-34)
(0.12610822 -0.0021194212 -1.4961163e-19 0.0089040873 2.1208041e-21 7.0892507e-35)
(0.12052945 -0.0016268064 4.8187769e-20 0.010155822 -2.958678e-23 7.441671e-36)
(0.11535951 -0.0017488753 -8.0797172e-20 0.011726741 -8.2043169e-22 2.1642869e-35)
(0.11170146 -0.0024332387 -7.4345457e-20 0.013678313 -1.7111731e-21 1.9216717e-35)
(0.11039764 -0.0034066204 -2.7873621e-20 0.016160311 -1.0425422e-21 2.8925223e-36)
(0.11148325 -0.0044612774 -2.4085965e-19 0.019561986 -1.2510678e-20 2.3603875e-34)
(0.11408815 -0.0057305596 -6.0548232e-20 0.024131636 -4.224371e-21 1.684092e-35)
(0.1167764 -0.0070986323 1.2729156e-19 0.028461812 1.1502357e-20 8.7155391e-35)
(0.11719649 -0.0086650897 4.3140504e-20 0.031602991 4.9116124e-21 1.2382904e-35)
(0.11496161 -0.010615884 -2.8372443e-20 0.033910343 -3.9082062e-21 6.8995976e-36)
(0.10574139 -0.012878296 -4.976759e-20 0.035699093 -8.294671e-21 2.949641e-35)
(0.094509017 -0.013782369 -6.4659374e-20 0.03643356 -1.3094403e-20 7.1523308e-35)
(0.075555253 -0.012921748 3.8583081e-21 0.035384311 9.4512181e-22 4.1598879e-37)
(4.3543942e-08 -2.7658474e-07 4.6099931e-24 1.7568264e-06 -2.8860588e-23 6.1307929e-37)
(4.2369762e-07 -2.657676e-06 3.1147976e-24 1.6670565e-05 -1.9203097e-23 5.5324727e-38)
(1.3152394e-06 -8.1445338e-06 -3.9053375e-24 5.0435352e-05 2.3656081e-23 3.6281882e-38)
(2.9014839e-06 -1.7713329e-05 -1.9938269e-23 0.00010814258 1.1857215e-22 4.9482426e-37)
(5.4189778e-06 -3.2569479e-05 1.4406271e-23 0.00019576487 -8.4044753e-23 1.4859799e-37)
(9.173991e-06 -5.4195322e-05 -2.6653444e-23 0.00032019594 1.5238719e-22 3.0799312e-37)
(1.4562068e-05 -8.4398926e-05 1.4562626e-23 0.00048924764 -8.1474806e-23 5.7696658e-38)
(2.2092372e-05 -0.00012536466 4.3225991e-24 0.00071157791 -2.3620524e-23 3.2755218e-39)
(3.2418965e-05 -0.00017970547 -3.0186634e-23 0.00099651921 1.6075185e-22 1.0504087e-37)
(4.638002e-05 -0.00025051079 -7.9702142e-23 0.0013537712 4.1261558e-22 4.8847255e-37)
(6.5046965e-05 -0.00034138407 -4.8879619e-24 0.0017929165 2.4537482e-23 1.2325697e-39)
(8.9785506e-05 -0.00045646004 1.9401133e-22 0.0023227192 -9.4153478e-22 1.3248104e-36)
(0.00012233084 -0.00060038885 -3.253411e-22 0.0029501695 1.5219027e-21 2.5413988e-36)
(0.00016487947 -0.00077827072 6.3580022e-22 0.0036792645 -2.8576284e-21 6.6449278e-36)
(0.00022019991 -0.00099552171 -2.009469e-22 0.0045095493 8.6480773e-22 4.553501e-37)
(0.00029176434 -0.0012576497 5.1616105e-22 0.0054345041 -2.1193602e-21 2.0633665e-36)
(0.00038390254 -0.0015699245 -7.5382198e-22 0.0064399672 2.9416468e-21 3.0292867e-36)
(0.00050197861 -0.0019369352 5.9107071e-22 0.0075028841 -2.1832208e-21 1.2837938e-36)
(0.00065258977 -0.0023620518 -1.1254962e-22 0.0085908095 3.9180036e-22 3.2216006e-38)
(0.00084378553 -0.0028468452 -5.4968306e-22 0.0096626713 1.795409e-21 5.3280936e-37)
(0.0010853053 -0.003390571 1.6045359e-21 0.010671277 -4.8945788e-21 3.1652119e-36)
(0.0013888342 -0.0039898823 -2.7096102e-21 0.011567847 7.6829469e-21 6.340575e-36)