/*--------------------------------*- C++ -*----------------------------------*\
  =========                 |
  \\      /  F ield         | OpenFOAM: The Open Source CFD Toolbox
   \\    /   O peration     | Website:  https://openfoam.org
    \\  /    A nd           | Version:  13
     \\/     M anipulation  |
\*---------------------------------------------------------------------------*/
FoamFile
{
    format      ascii;
    class       volVectorField;
    location    "44.403961";
    object      wallShearStress;
}
// * * * * * * * * * * * * * * * * * * * * * * * * * * * * * * * * * * * * * //

dimensions      [0 2 -2 0 0 0 0];

internalField   uniform (0 0 0);

boundaryField
{
    inlet
    {
        type            calculated;
        value           uniform (0 0 0);
    }
    outlet
    {
        type            calculated;
        value           uniform (0 0 0);
    }
    cylinder
    {
        type            calculated;
        value           nonuniform List<vector> 
132
(
(3.8145413e-05 -0.0025402009 -3.0111444e-22)
(0.00011849361 -0.0028120157 8.5698115e-23)
(0.00021450594 -0.0030649139 4.7263502e-21)
(0.00032433414 -0.003293691 -1.5835001e-20)
(0.00044593917 -0.0034935188 1.1156327e-20)
(0.00057672783 -0.0036598451 3.401457e-20)
(0.0007135932 -0.0037887207 -6.4293488e-21)
(0.00085299343 -0.0038769824 -2.5406046e-20)
(0.00099117545 -0.0039223604 2.3882461e-20)
(0.0011242073 -0.0039238333 -5.3401521e-20)
(0.0012481528 -0.0038815045 -9.6915509e-22)
(0.001359418 -0.0037971535 3.2996728e-20)
(0.0014548005 -0.0036736942 5.3673775e-20)
(0.0015319864 -0.003515865 -4.3489859e-20)
(0.001589592 -0.0033295816 4.568745e-20)
(0.0016274955 -0.0031220248 7.337769e-20)
(0.0016471878 -0.0029016723 -4.7989448e-20)
(0.0016517087 -0.0026775039 7.6847044e-20)
(0.0016461066 -0.0024592402 1.0145297e-19)
(0.001637374 -0.0022566305 -6.5724571e-20)
(0.0016348412 -0.0020794986 -8.3681721e-20)
(0.001650289 -0.0019373047 2.9445785e-23)
(0.0016979861 -0.0018386491 1.2122625e-20)
(0.0017941433 -0.0017902513 -1.4510133e-20)
(0.0019549986 -0.001794958 -2.4684733e-20)
(0.0021931156 -0.0018490794 5.2808167e-21)
(0.0025132052 -0.0019407797 -4.7704803e-20)
(0.0029052512 -0.0020479321 1.2755072e-20)
(0.0033425208 -0.0021413205 1.0024556e-20)
(0.0037846739 -0.002191017 -6.9105356e-20)
(0.004192867 -0.0021775414 9.0260445e-20)
(0.0045319665 -0.0020917715 2.7344798e-21)
(0.0047580688 -0.0019283835 1.9734279e-20)
(0.0047948221 -0.0016796323 -2.3416814e-20)
(0.0045260934 -0.0013417298 7.4522525e-20)
(0.0037849385 -0.00092261958 -4.7209971e-21)
(0.0023840057 -0.00046137563 1.9071479e-20)
(9.1535514e-05 -3.109583e-05 -2.6211832e-21)
(-0.0032812097 0.00024096185 3.7602567e-21)
(-0.0078735563 0.00017572104 -2.342346e-21)
(-0.014067829 -0.00046638841 4.360778e-21)
(-0.021715888 -0.0020159005 -1.3383569e-22)
(-0.030105784 -0.0046292013 4.8777479e-20)
(-0.038774921 -0.0083731977 -1.8676288e-20)
(-0.047130227 -0.013189412 1.6750934e-20)
(-0.05469122 -0.018924512 -1.0705199e-19)
(-0.061030651 -0.025329697 -1.7200989e-20)
(-0.065896259 -0.03212943 1.5073606e-19)
(-0.069104168 -0.039012455 -1.2861075e-19)
(-0.070626827 -0.045693335 -2.4639579e-21)
(-0.070471789 -0.05187506 3.9608236e-20)
(-0.068788865 -0.057339834 -3.6638151e-20)
(-0.065677682 -0.061825781 -7.4009551e-21)
(-0.0613728 -0.065187339 -5.0305376e-21)
(-0.056121324 -0.067318192 -9.6939916e-21)
(-0.050105682 -0.068059652 5.5843096e-23)
(-0.043612371 -0.067403058 4.6435726e-22)
(-0.036876872 -0.065315665 4.3310266e-20)
(-0.03014811 -0.061828871 -6.9605445e-20)
(-0.023659341 -0.057003882 -7.6212205e-20)
(-0.017628359 -0.050937477 -3.1415364e-20)
(-0.012252209 -0.043758332 -7.2751113e-20)
(-0.0077029652 -0.035624137 1.6346101e-20)
(-0.0041209476 -0.026714569 2.3906073e-20)
(-0.001621703 -0.017251771 -3.7295562e-20)
(-0.000264815 -0.0073921503 -4.9964306e-21)
(-2.6821499e-05 -0.0022519941 -1.3852395e-21)
(-7.5978009e-05 -0.0019467167 -8.2481727e-23)
(-0.00010826669 -0.0016259491 -4.7310635e-21)
(-0.00012237749 -0.0012943238 1.5844618e-20)
(-0.00011730029 -0.00095540773 -1.1167979e-20)
(-9.3038042e-05 -0.00061763998 -3.4071699e-20)
(-4.9605588e-05 -0.00028486084 6.4457333e-21)
(1.1762969e-05 3.650498e-05 2.5499817e-20)
(8.9372413e-05 0.00034060069 -2.4005237e-20)
(0.00018131889 0.00062189124 5.3770067e-20)
(0.00028450146 0.00087541233 9.778132e-22)
(0.00039560678 0.0010971896 -3.3372714e-20)
(0.00051120521 0.0012842858 -5.4430053e-20)
(0.00062777937 0.0014350935 4.4231372e-20)
(0.00074210631 0.001549583 -4.6610923e-20)
(0.00085149163 0.0016292324 -7.510373e-20)
(0.00095429063 0.0016774336 4.9280548e-20)
(0.0010499593 0.0016988608 -7.917437e-20)
(0.0011399656 0.0017002958 -1.0485991e-19)
(0.0012273108 0.001689053 6.8138523e-20)
(0.0013178284 0.0016741673 8.6999169e-20)
(0.0014195198 0.0016646608 7.8041788e-20)
(0.0015420828 0.0016684906 6.4209563e-20)
(0.00169672 0.0016921507 1.5186119e-20)
(0.0018940425 0.0017385823 2.5874323e-20)
(0.0021405546 0.0018048095 -5.5417903e-21)
(0.0024366551 0.0018820499 5.0101802e-20)
(0.0027755584 0.0019570641 -1.3401337e-20)
(0.0031387529 0.0020113345 -1.0533427e-20)
(0.0035028648 0.0020282914 7.2599633e-20)
(0.0038439172 0.0019966097 -9.4791551e-20)
(0.0041229294 0.0019033012 -2.8539876e-21)
(0.0042801487 0.0017352405 4.7115499e-20)
(0.0042213395 0.0014797349 2.4562895e-20)
(0.0038183927 0.0011336779 -7.8115485e-20)
(0.0028990479 0.0007098714 4.9433151e-21)
(0.0012781234 0.00025481346 1.4539686e-20)
(-0.0012668591 -0.0001499446 2.7336678e-21)
(-0.0049339214 -0.00037451167 -3.9082449e-21)
(-0.0097785263 -0.00022787613 2.4239173e-21)
(-0.016191606 0.00053175585 -4.4867043e-21)
(-0.023969866 0.0022212386 3.6047908e-20)
(-0.032352564 0.0049710239 -4.9414792e-20)
(-0.040892805 0.0088270662 1.8753935e-20)
(-0.048984295 0.013705559 -1.6664105e-20)
(-0.056193918 0.01944195 1.0547001e-19)
(-0.062124082 0.025779882 1.6771369e-20)
(-0.066552228 0.032445758 -1.453435e-19)
(-0.069321434 0.039131704 1.2244146e-19)
(-0.070434451 0.045565514 2.3107681e-21)
(-0.069887905 0.051441894 -3.6420327e-20)
(-0.067894394 0.056590893 3.2798799e-20)
(-0.064481808 0.060696104 -5.0981956e-20)
(-0.059940332 0.063662164 3.9319241e-21)
(-0.054555718 0.065436036 -7.5405051e-21)
(-0.048424228 0.065770779 3.6983862e-21)
(-0.041888742 0.064733533 -6.6272214e-22)
(-0.035163376 0.062273893 -5.2143866e-20)
(-0.028498234 0.058436697 7.8560008e-20)
(-0.022122475 0.053289896 8.3048304e-20)
(-0.016248306 0.046934567 3.3462552e-20)
(-0.011068021 0.039506768 7.6224859e-20)
(-0.0067467654 0.031166014 -1.6906629e-20)
(-0.0034185568 0.022099388 4.850871e-20)
(-0.0011910378 0.01251326 3.7793932e-20)
(-0.00012459984 0.0026359486 5.0213697e-21)
)
;
    }
    frontAndBack
    {
        type            empty;
    }
}


// ************************************************************************* //
