/*--------------------------------*- C++ -*----------------------------------*\
  =========                 |
  \\      /  F ield         | OpenFOAM: The Open Source CFD Toolbox
   \\    /   O peration     | Website:  https://openfoam.org
    \\  /    A nd           | Version:  13
     \\/     M anipulation  |
\*---------------------------------------------------------------------------*/
FoamFile
{
    format      ascii;
    class       volScalarField;
    location    "34.503238";
    object      pPrime2Mean;
}
// * * * * * * * * * * * * * * * * * * * * * * * * * * * * * * * * * * * * * //

dimensions      [0 4 -4 0 0 0 0];

internalField   nonuniform List<scalar> 
17140
(
8990.2692
8990.2694
8990.2695
8990.2693
8990.2688
8990.2681
8990.267
8990.2654
8990.2633
8990.2605
8990.2568
8990.252
8990.2459
8990.2381
8990.2281
8990.2153
8990.199
8990.1783
8990.1518
8990.1179
8990.0747
8990.0192
8989.9481
8989.8568
8989.7399
8989.59
8989.3982
8989.1537
8988.8429
8988.4495
8987.9533
8987.3296
8986.5482
8985.5723
8984.3578
8982.8515
8980.9908
8978.7022
8975.9013
8972.4908
8968.3605
8963.3854
8957.4247
8950.3204
8941.8963
8931.9569
8920.2873
8906.6517
8890.7924
8872.4292
8851.2587
8826.9521
8799.1543
8767.4827
8731.5242
8690.8346
8644.9318
8593.2982
8535.3663
8470.5356
8398.1326
8317.4639
8227.714
8128.0945
8017.6483
8990.494
8990.4942
8990.4943
8990.4941
8990.4936
8990.4929
8990.4917
8990.4901
8990.488
8990.4851
8990.4814
8990.4765
8990.4703
8990.4623
8990.4521
8990.4391
8990.4226
8990.4014
8990.3745
8990.3402
8990.2963
8990.2402
8990.1684
8990.0764
8989.9587
8989.8082
8989.6161
8989.3714
8989.0609
8988.668
8988.1726
8987.55
8986.7698
8985.7953
8984.5822
8983.0773
8981.2181
8978.9313
8976.1323
8972.7241
8968.5964
8963.6244
8957.6672
8950.5671
8942.1478
8932.2139
8920.5504
8906.9213
8891.0694
8872.7146
8851.5537
8827.2581
8799.4729
8767.8156
8731.8736
8691.2027
8645.3211
8593.7114
8535.8064
8471.0056
8398.6357
8318.0035
8228.2941
8128.7212
8018.3218
8991.0506
8991.0508
8991.0508
8991.0506
8991.0501
8991.0493
8991.048
8991.0463
8991.044
8991.041
8991.037
8991.0319
8991.0254
8991.017
8991.0063
8990.9927
8990.9755
8990.9536
8990.9257
8990.8904
8990.8453
8990.7879
8990.7148
8990.6216
8990.5028
8990.3514
8990.1588
8989.9142
8989.6042
8989.2125
8988.7189
8988.0983
8987.3206
8986.3487
8985.1383
8983.6363
8981.7802
8979.497
8976.7022
8973.299
8969.1774
8964.2126
8958.2641
8951.174
8942.7664
8932.8458
8921.197
8907.5843
8891.7505
8873.4163
8852.2789
8828.0104
8800.2563
8768.6346
8732.7331
8692.1082
8646.2787
8594.7277
8536.8883
8472.1608
8399.8722
8319.33
8229.7204
8130.261
8019.9754
8991.9511
8991.9512
8991.9512
8991.9509
8991.9503
8991.9494
8991.948
8991.9462
8991.9437
8991.9404
8991.9361
8991.9306
8991.9236
8991.9146
8991.9033
8991.889
8991.8709
8991.8479
8991.819
8991.7824
8991.736
8991.6773
8991.6029
8991.5085
8991.3888
8991.2369
8991.0443
8990.8002
8990.4915
8990.1016
8989.6103
8988.9925
8988.2179
8987.2494
8986.0426
8984.5447
8982.6933
8980.4156
8977.6274
8974.2323
8970.1203
8965.1671
8959.2324
8952.1585
8943.7696
8933.8702
8922.2451
8908.6586
8892.8543
8874.5536
8853.4546
8829.2304
8801.527
8769.9634
8734.128
8693.5782
8647.8336
8596.3781
8538.6456
8474.037
8401.8805
8321.4843
8232.0372
8132.7619
8022.6603
8993.208
8993.2081
8993.208
8993.2077
8993.207
8993.206
8993.2045
8993.2025
8993.1998
8993.1963
8993.1917
8993.1858
8993.1784
8993.169
8993.1571
8993.1421
8993.1232
8993.0994
8993.0696
8993.0319
8992.9846
8992.9249
8992.8495
8992.7544
8992.6343
8992.4825
8992.2904
8992.0474
8991.7404
8991.3527
8990.864
8990.2493
8989.4781
8988.5134
8987.3111
8985.8184
8983.9732
8981.703
8978.924
8975.54
8971.4414
8966.5043
8960.5887
8953.5373
8945.1742
8935.304
8923.7114
8910.1615
8894.3984
8876.1449
8855.1002
8830.9385
8803.3069
8771.8253
8736.0833
8695.6393
8650.0141
8598.6927
8541.1102
8476.6686
8404.6976
8324.5069
8235.2887
8136.2723
8026.4301
8994.8342
8994.8343
8994.8341
8994.8337
8994.833
8994.8319
8994.8303
8994.8282
8994.8254
8994.8217
8994.8169
8994.8109
8994.8032
8994.7935
8994.7813
8994.7659
8994.7467
8994.7225
8994.6922
8994.6542
8994.6065
8994.5465
8994.4711
8994.3761
8994.2564
8994.1053
8993.9144
8993.6731
8993.368
8992.9827
8992.4968
8991.8853
8991.1177
8990.1573
8988.96
8987.4735
8985.6361
8983.3756
8980.6083
8977.2386
8973.1573
8968.2409
8962.35
8955.3275
8946.9974
8937.1644
8925.6138
8912.1111
8896.4018
8878.2099
8857.2363
8833.1564
8805.6187
8774.2443
8738.6244
8698.3186
8652.8491
8601.7024
8544.3153
8480.0911
8408.3618
8328.4388
8239.5196
8140.8415
8031.339
8996.8467
8996.8468
8996.8466
8996.8462
8996.8454
8996.8443
8996.8426
8996.8404
8996.8376
8996.8338
8996.829
8996.823
8996.8152
8996.8055
8996.7933
8996.778
8996.7588
8996.7347
8996.7046
8996.6668
8996.6195
8996.5601
8996.4854
8996.3913
8996.2727
8996.1231
8995.9339
8995.6946
8995.3919
8995.0091
8994.526
8993.9176
8993.1537
8992.1979
8991.0064
8989.5272
8987.699
8985.4501
8982.6971
8979.3449
8975.2849
8970.3942
8964.5336
8957.5463
8949.2564
8939.4691
8927.9701
8914.5261
8898.8839
8880.7691
8859.8843
8835.9066
8808.4861
8777.2455
8741.7776
8701.6438
8656.368
8605.4384
8548.2941
8484.3402
8412.9114
8333.3218
8244.776
8146.5198
8037.4435
8999.2652
8999.2652
8999.265
8999.2645
8999.2637
8999.2626
8999.261
8999.2588
8999.2559
8999.2523
8999.2476
8999.2416
8999.2341
8999.2246
8999.2127
8999.1977
8999.179
8999.1555
8999.1261
8999.0892
8999.0429
8998.9847
8998.9115
8998.819
8998.7022
8998.5545
8998.3674
8998.1304
8997.83
8997.4497
8996.9693
8996.3641
8995.604
8994.653
8993.4679
8991.9971
8990.1796
8987.944
8985.2079
8981.8764
8977.8417
8972.9814
8967.1567
8960.2111
8951.9689
8942.2359
8930.7988
8917.4256
8901.8647
8883.8434
8863.0661
8839.2121
8811.9333
8780.8544
8745.5699
8705.6434
8660.6009
8609.933
8553.0812
8489.453
8418.3865
8339.1994
8251.1052
8153.359
8044.7998
9002.1124
9002.1124
9002.1121
9002.1117
9002.1109
9002.1097
9002.1081
9002.106
9002.1033
9002.0997
9002.0952
9002.0895
9002.0822
9002.0731
9002.0617
9002.0474
9002.0293
9002.0068
9001.9784
9001.9428
9001.8979
9001.8413
9001.7698
9001.6793
9001.5646
9001.4189
9001.2339
9000.9991
9000.7009
9000.3231
8999.8453
8999.2431
8998.487
8997.5413
8996.3631
8994.9015
8993.0959
8990.8757
8988.1588
8984.8512
8980.8456
8976.0204
8970.2371
8963.3395
8955.1525
8945.4828
8934.1184
8920.829
8905.3643
8887.4537
8866.8039
8843.0962
8815.9851
8785.0971
8750.029
8710.3468
8665.5791
8615.2193
8558.712
8495.4669
8424.8272
8346.1154
8258.5548
8161.412
8053.467
9005.4131
9005.413
9005.4127
9005.4122
9005.4114
9005.4103
9005.4088
9005.4067
9005.4041
9005.4007
9005.3963
9005.3908
9005.3839
9005.3752
9005.3643
9005.3505
9005.3333
9005.3116
9005.2843
9005.2499
9005.2064
9005.1513
9005.0815
9004.9927
9004.8798
9004.736
9004.5528
9004.3197
9004.0235
9003.6477
9003.1724
9002.5734
9001.8214
9000.8813
8999.7107
8998.2592
8996.4669
8994.2637
8991.5683
8988.2876
8984.315
8979.5293
8973.7926
8966.9493
8958.8251
8949.228
8937.9478
8924.7556
8909.4029
8891.6213
8871.1197
8847.5824
8820.666
8789.9996
8755.1825
8715.7834
8671.3338
8621.3303
8565.221
8502.4198
8432.2755
8354.1164
8267.1765
8170.7345
8063.5043
9009.189
9009.1889
9009.1886
9009.1881
9009.1873
9009.1862
9009.1847
9009.1827
9009.1801
9009.1768
9009.1726
9009.1673
9009.1606
9009.1523
9009.1417
9009.1285
9009.1119
9009.0909
9009.0644
9009.031
9008.9885
9008.9347
9008.8661
9008.7786
9008.667
9008.5244
9008.3426
9008.1108
9007.816
9007.442
9006.969
9006.3732
9005.6257
9004.6917
9003.5295
9002.089
9000.3112
8998.1268
8995.4553
8992.2044
8988.2683
8983.5263
8977.8414
8971.0585
8963.0049
8953.49
8942.3056
8929.2246
8914.0004
8896.3669
8876.0359
8852.6941
8826.0011
8795.5885
8761.0586
8721.983
8677.897
8628.3007
8572.6465
8510.3532
8440.7765
8363.2509
8277.0211
8181.3807
8074.9707
9013.4601
9013.46
9013.4597
9013.4591
9013.4583
9013.4572
9013.4557
9013.4537
9013.4511
9013.4479
9013.4437
9013.4385
9013.432
9013.4237
9013.4134
9013.4004
9013.384
9013.3634
9013.3373
9013.3043
9013.2623
9013.209
9013.1409
9013.054
9012.943
9012.8011
9012.62
9012.389
9012.0954
9011.723
9011.2525
9010.6602
9009.9177
9008.9905
9007.8375
9006.4093
9004.6475
9002.4837
8999.8384
8996.6202
8992.7239
8988.0298
8982.4015
8975.6854
8967.7103
8958.2878
8947.2113
8934.256
8919.1777
8901.7127
8881.5757
8858.4562
8832.0166
8801.8916
8767.6866
8728.9772
8685.3025
8636.1666
8581.027
8519.3081
8450.3741
8373.5655
8288.1406
8193.4067
8087.9266
9018.2406
9018.2405
9018.2401
9018.2396
9018.2387
9018.2376
9018.236
9018.234
9018.2314
9018.2281
9018.2239
9018.2187
9018.2121
9018.2038
9018.1934
9018.1804
9018.164
9018.1433
9018.1172
9018.0842
9018.0422
9017.9888
9017.9208
9017.8339
9017.7229
9017.5812
9017.4003
9017.17
9016.8775
9016.507
9016.0393
9015.4512
9014.7144
9013.7951
9012.6524
9011.2378
9009.4938
9007.3527
9004.7362
9001.5535
8997.7006
8993.0584
8987.4919
8980.8491
8972.9609
8963.6411
8952.6855
8939.8712
8924.957
8907.6819
8887.7635
8864.894
8838.7391
8808.9368
8775.0964
8736.7976
8693.5836
8644.9633
8590.4002
8529.3265
8461.1141
8385.1116
8300.5873
8206.8705
8102.4333
9023.5425
9023.5423
9023.5419
9023.5413
9023.5405
9023.5393
9023.5377
9023.5356
9023.5329
9023.5295
9023.5253
9023.5199
9023.5132
9023.5048
9023.4942
9023.481
9023.4644
9023.4434
9023.417
9023.3836
9023.3413
9023.2875
9023.219
9023.1318
9023.0206
9022.8789
9022.6984
9022.4689
9022.1779
9021.8097
9021.3457
9020.7627
9020.0328
9019.1225
9017.9917
9016.5925
9014.8681
9012.7521
9010.167
9007.0231
9003.217
8998.6311
8993.1318
8986.5693
8978.7771
8969.5712
8958.7498
8946.0929
8931.362
8914.2991
8894.6246
8872.034
8846.1961
8816.753
8783.3184
8745.4762
8702.7749
8654.7282
8600.8077
8540.4525
8473.0445
8397.9372
8314.4153
8221.8292
8118.5509
9029.3782
9029.378
9029.3776
9029.377
9029.3761
9029.3749
9029.3732
9029.3711
9029.3683
9029.3648
9029.3604
9029.3549
9029.348
9029.3394
9029.3286
9029.3151
9029.2981
9029.2768
9029.25
9029.2161
9029.1733
9029.1191
9029.0502
9028.9627
9028.8513
9028.7098
9028.53
9028.3018
9028.013
9027.6481
9027.1885
9026.6117
9025.8901
9024.9904
9023.8731
9022.4912
9020.7888
9018.7006
9016.1498
9013.0478
9009.2925
9004.7675
8999.3415
8992.8672
8985.1806
8976.1004
8965.4277
8952.9453
8938.4176
8921.59
8902.1857
8879.9034
8854.416
8825.37
8792.384
8755.0468
8712.9116
8665.4998
8612.2904
8552.7308
8486.2111
8412.0938
8329.677
8238.3393
8136.3399
9035.7628
9035.7626
9035.7622
9035.7616
9035.7606
9035.7594
9035.7577
9035.7555
9035.7527
9035.7491
9035.7447
9035.7391
9035.732
9035.7233
9035.7123
9035.6985
9035.6813
9035.6597
9035.6326
9035.5984
9035.5552
9035.5007
9035.4316
9035.344
9035.2329
9035.0921
9034.9135
9034.6873
9034.4014
9034.0407
9033.5868
9033.0173
9032.305
9031.4174
9030.3156
9028.9531
9027.2752
9025.2173
9022.704
9019.6475
9015.9471
9011.4884
9006.1424
8999.7647
8992.1941
8983.2523
8972.7434
8960.4531
8946.1494
8929.5807
8910.4735
8888.53
8863.4277
8834.8184
8802.3254
8765.5424
8724.0302
8677.3174
8624.8904
8566.2053
8500.6619
8427.6301
8346.4251
8256.4565
8155.859
9042.7161
9042.7159
9042.7155
9042.7149
9042.714
9042.7127
9042.711
9042.7088
9042.706
9042.7024
9042.6979
9042.6922
9042.6851
9042.6763
9042.6652
9042.6513
9042.634
9042.6122
9042.585
9042.5506
9042.5074
9042.4529
9042.384
9042.2968
9042.1865
9042.0468
9041.87
9041.6464
9041.3642
9041.0084
9040.5609
9039.9997
9039.298
9038.4239
9037.339
9035.9981
9034.347
9032.3223
9029.8495
9026.8422
9023.2015
9018.8151
9013.5566
9007.2846
8999.8411
8991.051
8980.7213
8968.6415
8954.583
8938.2975
8919.515
8897.9419
8873.261
8845.1289
8813.1743
8776.998
8736.1683
8690.2196
8638.6494
8580.9206
8516.4426
8444.5954
8364.7113
8276.2361
8177.1667
9050.2605
9050.2604
9050.26
9050.2594
9050.2585
9050.2572
9050.2556
9050.2534
9050.2506
9050.247
9050.2425
9050.2368
9050.2298
9050.2209
9050.2098
9050.196
9050.1787
9050.157
9050.1298
9050.0956
9050.0526
9049.9984
9049.9301
9049.8437
9049.7346
9049.5965
9049.422
9049.2016
9048.9234
9048.5731
9048.1326
9047.5805
9046.8904
9046.031
9044.9648
9043.6472
9042.025
9040.0362
9037.6071
9034.6532
9031.0772
9026.7695
9021.6066
9015.4502
9008.1454
8999.5204
8989.386
8977.5355
8963.7439
8947.7665
8929.3372
8908.1676
8883.9449
8856.3318
8824.9638
8789.449
8749.3613
8704.2468
8653.6088
8596.9195
8533.5992
8463.0372
8384.5866
8297.7325
8200.3198
9058.4183
9058.4181
9058.4178
9058.4172
9058.4163
9058.4151
9058.4135
9058.4114
9058.4086
9058.4051
9058.4007
9058.3951
9058.3881
9058.3794
9058.3685
9058.3548
9058.3377
9058.3162
9058.2893
9058.2556
9058.2131
9058.1597
9058.0923
9058.0072
9057.8996
9057.7637
9057.592
9057.3751
9057.1016
9056.7571
9056.3242
9055.7817
9055.1041
9054.2605
9053.2143
9051.9217
9050.3309
9048.3803
9045.9981
9043.1016
9039.596
9035.3741
9030.3154
9024.2846
9017.1304
9008.6845
8998.762
8987.16
8973.6574
8958.0138
8939.9674
8919.2347
8895.5086
8868.4586
8837.7271
8802.9284
8763.6475
8719.4373
8669.8089
8614.245
8552.1752
8483.0027
8406.1012
8320.9992
8225.3744
9067.2089
9067.2088
9067.2085
9067.2079
9067.2071
9067.2059
9067.2044
9067.2023
9067.1996
9067.1962
9067.1919
9067.1865
9067.1797
9067.1712
9067.1605
9067.1471
9067.1303
9067.1094
9067.083
9067.05
9067.0084
9066.956
9066.8899
9066.8065
9066.7012
9066.568
9066.3996
9066.187
9065.9187
9065.5809
9065.1564
9064.6245
9063.9602
9063.1335
9062.1087
9060.8428
9059.285
9057.3753
9055.0436
9052.2091
9048.7796
9044.6508
9039.7052
9033.8106
9026.8193
9018.567
9008.8732
8997.5393
8984.3488
8969.0654
8951.4322
8931.171
8907.9814
8881.5397
8851.4948
8817.4716
8779.0633
8735.8286
8687.2899
8632.9372
8572.2146
8504.5381
8429.3043
8346.088
8252.3846
9076.647
9076.647
9076.6467
9076.6462
9076.6454
9076.6443
9076.6428
9076.6409
9076.6383
9076.6351
9076.631
9076.6258
9076.6192
9076.611
9076.6007
9076.5878
9076.5716
9076.5513
9076.5258
9076.4938
9076.4535
9076.4027
9076.3386
9076.2575
9076.155
9076.0253
9075.8613
9075.6539
9075.3921
9075.0622
9074.6474
9074.1276
9073.4783
9072.6702
9071.6683
9070.4309
9068.9083
9067.0421
9064.7644
9061.9966
9058.6494
9054.6214
9049.798
9044.0504
9037.2347
9029.191
9019.7433
9008.698
8995.8429
8980.9465
8963.7574
8944.0035
8921.3914
8895.6036
8866.2993
8833.1133
8795.6428
8753.4582
8706.0886
8653.037
8593.7603
8527.6889
8454.2433
8373.0496
8281.4017
9086.7457
9086.7457
9086.7454
9086.745
9086.7443
9086.7432
9086.7419
9086.74
9086.7377
9086.7346
9086.7307
9086.7258
9086.7196
9086.7119
9086.7021
9086.6899
9086.6745
9086.6552
9086.6309
9086.6003
9086.5617
9086.513
9086.4513
9086.3733
9086.2745
9086.1493
9085.9907
9085.79
9085.5362
9085.216
9084.8131
9084.3077
9083.6757
9082.8886
9081.9121
9080.7055
9079.2207
9077.4012
9075.1812
9072.4851
9069.2265
9065.3069
9060.615
9055.0256
9048.3986
9040.5791
9031.3957
9020.6597
9008.164
8993.6819
8976.9683
8957.7584
8935.7646
8910.6799
8882.1739
8849.8844
8813.4209
8772.36
8726.2426
8674.5836
8616.8541
8552.4992
8480.9647
8401.9323
8312.4751
9097.5176
9097.5175
9097.5173
9097.5169
9097.5163
9097.5154
9097.5141
9097.5124
9097.5102
9097.5074
9097.5039
9097.4993
9097.4936
9097.4864
9097.4773
9097.4659
9097.4516
9097.4335
9097.4107
9097.382
9097.3456
9097.2995
9097.2411
9097.1669
9097.0727
9096.953
9096.8011
9096.6084
9096.3643
9096.0559
9095.667
9095.1783
9094.5665
9093.8035
9092.8557
9091.6835
9090.2402
9088.4713
9086.3137
9083.6948
9080.5312
9076.728
9072.1771
9066.757
9060.3326
9052.7533
9043.8528
9033.4475
9021.3351
9007.2948
8991.0892
8972.4591
8951.1281
8926.7987
8899.146
8867.8166
8832.429
8792.5685
8747.7881
8697.6158
8641.5369
8579.0116
8509.513
8432.783
8345.6509
9108.9805
9108.9804
9108.9803
9108.9799
9108.9793
9108.9785
9108.9774
9108.9759
9108.9739
9108.9713
9108.9681
9108.9639
9108.9587
9108.9521
9108.9438
9108.9333
9108.92
9108.9033
9108.8821
9108.8553
9108.8214
9108.7782
9108.7233
9108.6533
9108.5642
9108.4507
9108.3062
9108.1225
9107.8894
9107.5942
9107.2214
9106.7522
9106.1634
9105.4278
9104.5125
9103.3788
9101.9817
9100.2687
9098.1793
9095.644
9092.5827
9088.904
9084.5038
9079.2652
9073.0575
9065.7349
9057.1364
9047.0823
9035.376
9021.806
9006.1398
8988.1299
8967.5094
8943.9865
8917.2433
8886.9393
8852.6976
8814.1163
8770.7603
8722.1709
8667.8483
8607.2675
8539.9307
8465.6466
8380.973
9121.1541
9121.1541
9121.154
9121.1537
9121.1532
9121.1525
9121.1514
9121.1501
9121.1483
9121.146
9121.143
9121.1392
9121.1345
9121.1284
9121.1208
9121.1111
9121.0989
9121.0835
9121.0639
9121.039
9121.0073
9120.9669
9120.9154
9120.8496
9120.7655
9120.6582
9120.5213
9120.347
9120.1253
9119.8442
9119.4887
9119.0403
9118.4768
9117.7714
9116.8923
9115.8019
9114.4566
9112.8059
9110.7919
9108.3477
9105.3968
9101.8518
9097.6129
9092.5681
9086.5917
9079.5422
9071.2625
9061.5786
9050.3045
9037.2326
9022.1424
9004.7956
8984.9316
8962.2666
8936.494
8907.2784
8874.2558
8837.0352
8795.1931
8748.2851
8695.8262
8637.3065
8572.2584
8500.5664
8418.4829
9134.0599
9134.0599
9134.0598
9134.0596
9134.0591
9134.0585
9134.0575
9134.0563
9134.0546
9134.0525
9134.0497
9134.0462
9134.0417
9134.0361
9134.0289
9134.0198
9134.0083
9133.9937
9133.9752
9133.9517
9133.9217
9133.8835
9133.8346
9133.7722
9133.6925
9133.5907
9133.4607
9133.2952
9133.0847
9132.8177
9132.4797
9132.0532
9131.5166
9130.8441
9130.0046
9128.9621
9127.6742
9126.0924
9124.161
9121.816
9118.9845
9115.5832
9111.5173
9106.6796
9100.9476
9094.1853
9086.2417
9076.9527
9066.1356
9053.5948
9039.1196
9022.4761
9003.4151
8981.6624
8956.9187
8928.8597
8897.1316
8861.3551
8821.1193
8775.9931
8725.5073
8669.167
8606.5347
8537.5842
8458.221
9147.7137
9147.7137
9147.7137
9147.7134
9147.713
9147.7124
9147.7115
9147.7103
9147.7087
9147.7066
9147.7039
9147.7005
9147.6961
9147.6906
9147.6835
9147.6747
9147.6635
9147.6493
9147.6313
9147.6084
9147.5794
9147.5425
9147.4954
9147.4354
9147.359
9147.2615
9147.1375
9146.9799
9146.7799
9146.5265
9146.2061
9145.8018
9145.293
9144.655
9143.858
9142.867
9141.6415
9140.1348
9138.2933
9136.0561
9133.3537
9130.1068
9126.2248
9121.605
9116.1311
9109.6733
9102.0879
9093.2162
9082.885
9070.9104
9057.085
9041.1883
9022.9785
9002.1924
8978.5399
8951.7068
8921.3508
8887.1047
8848.5699
8805.3285
8756.9269
8702.8855
8642.7974
8576.7392
8500.228
9162.1225
9162.1225
9162.1224
9162.1222
9162.1218
9162.1212
9162.1203
9162.119
9162.1174
9162.1153
9162.1126
9162.1091
9162.1046
9162.099
9162.0919
9162.0829
9162.0716
9162.0574
9162.0394
9162.0166
9161.9879
9161.9514
9161.9053
9161.8468
9161.7727
9161.6789
9161.56
9161.4095
9161.2194
9160.9792
9160.6763
9160.2946
9159.8147
9159.2129
9158.4609
9157.5251
9156.3665
9154.9403
9153.1953
9151.0733
9148.508
9145.4244
9141.7372
9137.3491
9132.1493
9126.015
9118.8091
9110.3796
9100.5663
9089.1889
9076.0519
9060.9455
9043.6372
9023.8739
9001.3763
8975.8411
8946.9375
8914.3107
8877.5742
8836.3234
8790.1198
8738.4979
8681.0827
8618.0686
8544.5473
9177.2847
9177.2847
9177.2846
9177.2844
9177.2839
9177.2833
9177.2823
9177.281
9177.2793
9177.2771
9177.2743
9177.2706
9177.2661
9177.2603
9177.2529
9177.2438
9177.2322
9177.2177
9177.1995
9177.1767
9177.1479
9177.1118
9177.0663
9177.0091
9176.9372
9176.8466
9176.7327
9176.5894
9176.4092
9176.1825
9175.8975
9175.5392
9175.0893
9174.5253
9173.8201
9172.942
9171.8537
9170.5123
9168.869
9166.8686
9164.4487
9161.5387
9158.0583
9153.9156
9149.0069
9143.2157
9136.4105
9128.4517
9119.1851
9108.4392
9096.0314
9081.7599
9065.4038
9046.7213
9025.4446
9001.2817
8973.9137
8942.9979
8908.1602
8869.0091
8825.1197
8776.0402
8721.4279
8661.61
8591.226
9193.1909
9193.1909
9193.1908
9193.1905
9193.19
9193.1893
9193.1883
9193.187
9193.1852
9193.183
9193.18
9193.1763
9193.1717
9193.1658
9193.1584
9193.1491
9193.1375
9193.123
9193.1048
9193.0821
9193.0538
9193.0183
9192.9741
9192.9187
9192.8496
9192.7631
9192.6551
9192.5199
9192.3506
9192.1386
9191.8727
9191.539
9191.1203
9190.5953
9189.9388
9189.1205
9188.105
9186.8519
9185.3152
9183.4429
9181.1765
9178.4501
9175.1886
9171.3063
9166.7061
9161.2761
9154.8964
9147.4354
9138.7453
9128.6678
9117.029
9103.6389
9088.2882
9070.7464
9050.7584
9028.0448
9002.2986
8973.1892
8940.3545
8903.4159
8861.961
8815.5492
8763.8739
8707.4109
8640.3124
9209.8304
9209.8304
9209.8303
9209.83
9209.8295
9209.8288
9209.8279
9209.8265
9209.8248
9209.8226
9209.8197
9209.8161
9209.8115
9209.8058
9209.7986
9209.7896
9209.7784
9209.7644
9209.747
9209.7253
9209.6983
9209.6646
9209.6227
9209.5706
9209.5058
9209.4251
9209.3246
9209.1993
9209.0429
9208.8472
9208.602
9208.2944
9207.9082
9207.4236
9206.817
9206.06
9205.1198
9203.9585
9202.5331
9200.7952
9198.6906
9196.158
9193.1279
9189.5211
9185.2446
9180.1967
9174.2669
9167.3298
9159.249
9149.8759
9139.0483
9126.5877
9112.2966
9095.9573
9077.3284
9056.1437
9032.1087
9004.905
8974.1826
8939.5742
8900.6789
8857.0639
8808.4662
8755.5345
8691.8585
9227.1962
9227.1961
9227.196
9227.1958
9227.1953
9227.1946
9227.1937
9227.1925
9227.1909
9227.1889
9227.1863
9227.183
9227.1788
9227.1735
9227.167
9227.1588
9227.1485
9227.1358
9227.1199
9227.1001
9227.0756
9227.045
9227.007
9226.9598
9226.9012
9226.8282
9226.7373
9226.624
9226.4824
9226.3049
9226.0821
9225.8019
9225.4495
9225.0065
9224.4512
9223.7575
9222.8951
9221.8291
9220.5198
9218.9228
9216.9882
9214.6597
9211.8738
9208.555
9204.6192
9199.975
9194.5179
9188.1325
9180.6933
9172.0623
9162.0888
9150.6068
9137.4315
9122.3586
9105.1613
9085.588
9063.3573
9038.1635
9009.6681
8977.5146
8941.3113
8900.6287
8855.2408
8805.9837
8746.0033
9245.2864
9245.2863
9245.2862
9245.286
9245.2856
9245.285
9245.2843
9245.2832
9245.2819
9245.2801
9245.2779
9245.275
9245.2715
9245.267
9245.2614
9245.2544
9245.2456
9245.2347
9245.2211
9245.2041
9245.1829
9245.1565
9245.1237
9245.0827
9245.0317
9244.9679
9244.8882
9244.7884
9244.6629
9244.5049
9244.3056
9244.054
9243.7365
9243.3365
9242.8341
9242.2059
9241.4243
9240.4574
9239.2695
9237.8201
9236.0639
9233.9503
9231.419
9228.4021
9224.8253
9220.6039
9215.6427
9209.8375
9203.0726
9195.2217
9186.1461
9175.6928
9163.6909
9149.9505
9134.2599
9116.3833
9096.0542
9072.9799
9046.8335
9017.2685
8983.9025
8946.2947
8904.22
8858.8874
8802.7916
9264.1032
9264.1032
9264.1031
9264.1029
9264.1026
9264.1021
9264.1015
9264.1007
9264.0996
9264.0981
9264.0963
9264.094
9264.0911
9264.0874
9264.0829
9264.0771
9264.0699
9264.061
9264.0498
9264.0357
9264.0182
9263.9963
9263.9689
9263.9345
9263.8914
9263.8372
9263.7689
9263.6827
9263.5737
9263.4355
9263.2602
9263.0379
9262.7564
9262.401
9261.9538
9261.3938
9260.6964
9259.8332
9258.7723
9257.4775
9255.9088
9254.0187
9251.7532
9249.0534
9245.8519
9242.0728
9237.6319
9232.4347
9226.3769
9219.3442
9211.2108
9201.8373
9191.0677
9178.7278
9164.6219
9148.5307
9130.2048
9109.366
9085.6994
9058.8686
9028.4949
8994.0873
8955.4813
8914.3098
8862.2775
9283.6457
9283.6457
9283.6456
9283.6454
9283.6452
9283.6448
9283.6442
9283.6435
9283.6426
9283.6415
9283.6399
9283.638
9283.6356
9283.6326
9283.6289
9283.6241
9283.6182
9283.6108
9283.6016
9283.59
9283.5756
9283.5574
9283.5346
9283.506
9283.4698
9283.4241
9283.3663
9283.293
9283.1997
9283.0809
9282.9297
9282.7373
9282.4931
9282.1841
9281.7944
9281.3057
9280.6965
9279.942
9279.0141
9277.8816
9276.508
9274.8503
9272.8632
9270.4943
9267.6846
9264.3682
9260.4708
9255.9092
9250.5912
9244.415
9237.2682
9229.0261
9219.549
9208.6796
9196.2389
9182.0258
9165.8098
9147.3298
9126.2844
9102.3455
9075.1187
9044.1212
9009.0893
8972.3071
8924.6495
9303.9043
9303.9043
9303.9042
9303.904
9303.9038
9303.9034
9303.9029
9303.9023
9303.9014
9303.9003
9303.8989
9303.8972
9303.895
9303.8922
9303.8888
9303.8845
9303.8792
9303.8726
9303.8644
9303.8543
9303.8416
9303.8259
9303.8062
9303.7816
9303.7507
9303.7119
9303.663
9303.6011
9303.5226
9303.4227
9303.2955
9303.1337
9302.9279
9302.6669
9302.3372
9301.9229
9301.4058
9300.7649
9299.9763
9299.0127
9297.841
9296.4264
9294.7294
9292.7051
9290.304
9287.47
9284.1394
9280.2408
9275.6948
9270.4131
9264.2975
9257.2391
9249.1156
9239.788
9229.0958
9216.8575
9202.8636
9186.8728
9168.6003
9147.7155
9123.8576
9096.4627
9065.1676
9032.9844
8990.099
9324.8551
9324.855
9324.8549
9324.8547
9324.8544
9324.854
9324.8534
9324.8527
9324.8518
9324.8506
9324.8491
9324.8473
9324.845
9324.8421
9324.8386
9324.8343
9324.829
9324.8225
9324.8145
9324.8047
9324.7927
9324.7781
9324.7602
9324.7383
9324.7113
9324.6781
9324.6369
9324.5855
9324.521
9324.4397
9324.3365
9324.2054
9324.0385
9323.8266
9323.5585
9323.2211
9322.7996
9322.2767
9321.6325
9320.8426
9319.8812
9318.7193
9317.3238
9315.6586
9313.6832
9311.3514
9308.6108
9305.4024
9301.6604
9297.3107
9292.2711
9286.4496
9279.7417
9272.0278
9263.1689
9253.0052
9241.3497
9227.9827
9212.6435
9195.0252
9174.753
9151.2334
9123.9513
9096.5554
9058.777
9346.4613
9346.4612
9346.461
9346.4608
9346.4604
9346.4599
9346.4592
9346.4584
9346.4573
9346.4559
9346.4543
9346.4522
9346.4496
9346.4465
9346.4427
9346.438
9346.4323
9346.4255
9346.4173
9346.4074
9346.3955
9346.3814
9346.3647
9346.3448
9346.3211
9346.2927
9346.2587
9346.2172
9346.1663
9346.1029
9346.0231
9345.9222
9345.7939
9345.6311
9345.4252
9345.1663
9344.8428
9344.4412
9343.9445
9343.3346
9342.5915
9341.6917
9340.61
9339.3187
9337.7864
9335.9769
9333.8497
9331.3588
9328.4524
9325.0724
9321.1536
9316.6221
9311.3918
9305.3638
9298.4229
9290.432
9281.2333
9270.6397
9258.4176
9244.2799
9227.8731
9208.5809
9185.7797
9163.361
9130.6749
9368.6733
9368.6731
9368.6729
9368.6726
9368.6722
9368.6716
9368.6709
9368.6699
9368.6687
9368.6673
9368.6655
9368.6633
9368.6606
9368.6573
9368.6533
9368.6486
9368.6428
9368.636
9368.6279
9368.6183
9368.6071
9368.5941
9368.5789
9368.5615
9368.5414
9368.5183
9368.4915
9368.4599
9368.422
9368.3758
9368.3187
9368.2473
9368.1573
9368.0439
9367.9011
9367.7222
9367.4989
9367.2206
9366.8756
9366.4515
9365.9334
9365.3052
9364.5494
9363.6466
9362.5741
9361.3067
9359.8159
9358.0691
9356.0299
9353.6567
9350.9024
9347.711
9344.018
9339.7475
9334.8098
9329.0973
9322.481
9314.8079
9305.8919
9295.4918
9283.285
9268.6698
9251.0168
9233.4817
9206.2667
9391.4386
9391.4384
9391.4382
9391.4378
9391.4374
9391.4368
9391.436
9391.4351
9391.434
9391.4326
9391.4309
9391.4288
9391.4263
9391.4233
9391.4197
9391.4155
9391.4105
9391.4045
9391.3976
9391.3895
9391.3802
9391.3696
9391.3576
9391.3439
9391.3286
9391.3113
9391.2918
9391.2695
9391.2437
9391.2136
9391.1781
9391.1359
9391.0847
9391.0211
9390.9424
9390.8443
9390.7218
9390.5692
9390.3802
9390.1469
9389.8613
9389.5145
9389.0965
9388.5962
9388.0001
9387.2939
9386.4618
9385.4856
9384.3447
9383.016
9381.4699
9379.6718
9377.5781
9375.1374
9372.2888
9368.9555
9365.0476
9360.451
9355.0286
9348.6106
9340.947
9331.5643
9319.9301
9308.0209
9287.5523
9415.7392
9415.739
9415.7387
9415.7383
9415.7378
9415.7372
9415.7365
9415.7356
9415.7346
9415.7334
9415.732
9415.7303
9415.7283
9415.7259
9415.723
9415.7197
9415.7158
9415.7113
9415.706
9415.7
9415.6931
9415.6854
9415.6767
9415.6672
9415.6568
9415.6455
9415.6334
9415.6205
9415.6071
9415.5934
9415.5797
9415.5668
9415.5553
9415.5448
9415.5348
9415.5235
9415.5108
9415.4961
9415.4768
9415.4517
9415.4201
9415.3809
9415.332
9415.2709
9415.1935
9415.0977
9414.9818
9414.8428
9414.6772
9414.4801
9414.244
9413.9563
9413.5985
9413.1473
9412.5722
9411.8346
9410.8837
9409.6576
9408.075
9406.045
9403.4341
9399.979
9395.6852
9391.7738
9384.3189
9441.3076
9441.3073
9441.3069
9441.3065
9441.306
9441.3055
9441.3049
9441.3042
9441.3034
9441.3025
9441.3015
9441.3002
9441.2988
9441.2972
9441.2953
9441.293
9441.2905
9441.2876
9441.2843
9441.2805
9441.2764
9441.2718
9441.2669
9441.2618
9441.2568
9441.2521
9441.2483
9441.2463
9441.247
9441.2524
9441.264
9441.2845
9441.3169
9441.3631
9441.4259
9441.5087
9441.6154
9441.7482
9441.9098
9442.1067
9442.3457
9442.6336
9442.9768
9443.3822
9443.8578
9444.4137
9445.0622
9445.8168
9446.6918
9447.7024
9448.863
9450.1863
9451.6817
9453.3563
9455.2139
9457.2565
9459.4792
9461.8754
9464.4302
9467.1401
9469.9991
9472.9756
9476.349
9480.7032
9484.0058
9466.8349
9466.8346
9466.8343
9466.8339
9466.8335
9466.8332
9466.8327
9466.8323
9466.8318
9466.8314
9466.8309
9466.8303
9466.8298
9466.8293
9466.8287
9466.8282
9466.8276
9466.8271
9466.8267
9466.8263
9466.8261
9466.8261
9466.8264
9466.8273
9466.829
9466.8323
9466.8381
9466.8479
9466.8637
9466.8882
9466.9255
9466.98
9467.0556
9467.1581
9467.2928
9467.4658
9467.6844
9467.9578
9468.2962
9468.712
9469.2191
9469.8321
9470.5658
9471.4371
9472.4657
9473.6744
9475.0899
9476.7418
9478.6625
9480.8869
9483.4517
9486.3953
9489.7563
9493.5738
9497.8866
9502.7373
9508.1685
9514.2302
9520.9763
9528.4857
9536.8497
9546.2053
9556.8774
9569.2173
9583.0086
9492.2094
9492.2091
9492.2087
9492.2084
9492.2082
9492.2079
9492.2078
9492.2076
9492.2076
9492.2076
9492.2078
9492.2081
9492.2085
9492.2092
9492.2102
9492.2115
9492.2132
9492.2153
9492.218
9492.2213
9492.2253
9492.2302
9492.2361
9492.2434
9492.2526
9492.2646
9492.2806
9492.303
9492.3347
9492.3795
9492.4426
9492.5296
9492.6485
9492.8067
9493.0114
9493.2729
9493.6031
9494.0164
9494.5292
9495.1608
9495.9323
9496.8662
9497.9864
9499.3201
9500.8988
9502.758
9504.9384
9507.4861
9510.4511
9513.8882
9517.8563
9522.4195
9527.6463
9533.6082
9540.3801
9548.0445
9556.6912
9566.4257
9577.3672
9589.6689
9603.5072
9619.134
9636.9292
9657.3441
9681.0195
9517.3199
9517.3196
9517.3193
9517.3191
9517.3189
9517.3189
9517.3189
9517.3191
9517.3195
9517.3201
9517.3209
9517.322
9517.3236
9517.3255
9517.328
9517.3312
9517.3351
9517.3398
9517.3456
9517.3524
9517.3606
9517.3703
9517.3818
9517.3956
9517.4123
9517.4333
9517.4602
9517.4957
9517.5436
9517.6094
9517.6993
9517.8218
9517.9858
9518.1996
9518.4755
9518.8265
9519.2688
9519.8217
9520.5079
9521.3529
9522.3854
9523.6359
9525.1377
9526.929
9529.0528
9531.5574
9534.4976
9537.9351
9541.938
9546.5809
9551.9453
9558.1206
9565.204
9573.2995
9582.5182
9592.9824
9604.8286
9618.2151
9633.323
9650.3754
9669.6326
9691.4427
9716.2707
9744.7127
9777.6497
9542.0742
9542.074
9542.0737
9542.0736
9542.0736
9542.0737
9542.074
9542.0745
9542.0753
9542.0764
9542.0778
9542.0797
9542.0821
9542.0852
9542.089
9542.0937
9542.0995
9542.1064
9542.1148
9542.1247
9542.1365
9542.1503
9542.1668
9542.1864
9542.21
9542.2393
9542.2765
9542.325
9542.3897
9542.4771
9542.5953
9542.7539
9542.9629
9543.2346
9543.5829
9544.0243
9544.579
9545.2715
9546.1298
9547.186
9548.4756
9550.0379
9551.9157
9554.1581