/*--------------------------------*- C++ -*----------------------------------*\
  =========                 |
  \\      /  F ield         | OpenFOAM: The Open Source CFD Toolbox
   \\    /   O peration     | Website:  https://openfoam.org
    \\  /    A nd           | Version:  13
     \\/     M anipulation  |
\*---------------------------------------------------------------------------*/
FoamFile
{
    format      ascii;
    class       surfaceScalarField;
    location    "30.096475";
    object      phi;
}
// * * * * * * * * * * * * * * * * * * * * * * * * * * * * * * * * * * * * * //

dimensions      [0 3 -1 0 0 0 0];

internalField   nonuniform List<scalar> 
34068
(
-1.3052091e-08
-2.0642107e-08
3.3694199e-08
-5.8079945e-08
-7.1560291e-08
1.1658815e-07
-1.4574441e-07
-1.3975261e-07
2.2741708e-07
-2.8948437e-07
-2.2958891e-07
3.7332887e-07
-5.0615951e-07
-3.464164e-07
5.6309154e-07
-8.168394e-07
-4.9672318e-07
8.0740308e-07
-1.2477446e-06
-6.8837083e-07
1.1192761e-06
-1.8313738e-06
-9.3087082e-07
1.5145e-06
-2.6078513e-06
-1.2356823e-06
2.0121598e-06
-3.626524e-06
-1.6165694e-06
2.6352422e-06
-4.9478382e-06
-2.0900114e-06
3.4113256e-06
-6.6455261e-06
-2.6756755e-06
4.3733635e-06
-8.8091252e-06
-3.3969542e-06
5.5605533e-06
-1.1546848e-05
-4.2815733e-06
7.0192963e-06
-1.4988788e-05
-5.3622696e-06
8.8042097e-06
-1.9290442e-05
-6.6775329e-06
1.0979187e-05
-2.4636457e-05
-8.2723997e-06
1.3618415e-05
-3.1244484e-05
-1.0199268e-05
1.6807295e-05
-3.9368896e-05
-1.2518674e-05
2.0643086e-05
-4.9304066e-05
-1.5299951e-05
2.5235121e-05
-6.1386686e-05
-1.8621619e-05
3.0704239e-05
-7.5996472e-05
-2.2571301e-05
3.7181087e-05
-9.3554335e-05
-2.7244861e-05
4.4802724e-05
-0.00011451681
-3.2744414e-05
5.3706886e-05
-0.00013936528
-3.9174774e-05
6.4023251e-05
-0.00016858851
-4.6638089e-05
7.5861312e-05
-0.00020265711
-5.5226864e-05
8.9295462e-05
-0.00024199071
-6.501683e-05
0.00010435044
-0.00028692233
-7.6063535e-05
0.00012099515
-0.00033767202
-8.8409579e-05
0.00013915927
-0.00039434942
-0.00010211012
0.00015878752
-0.00045700056
-0.00011727564
0.00017992677
-0.00052569007
-0.00013411363
0.00020280315
-0.00060058137
-0.00015294536
0.00022783665
-0.00068198107
-0.00017419741
0.00025559711
-0.00077034664
-0.00019839301
0.00028675858
-0.00086627871
-0.00022616369
0.00032209577
-0.00097051843
-0.00025828507
0.00036252478
-0.00108396
-0.00029573508
0.00040917666
-0.0012076832
-0.00033977554
0.00046349876
-0.0013430095
-0.00039206148
0.00052738778
-0.0014915868
-0.00045478461
0.00060336187
-0.0016555084
-0.00053085687
0.00069477848
-0.0018374776
-0.00062413584
0.00080610509
-0.0020410349
-0.00073969109
0.0009432484
-0.0022707801
-0.00088407875
0.0011138239
-0.0025325595
-0.0010655417
0.0013273211
-0.002833778
-0.0012942011
0.0015954196
-0.003183651
-0.0015820208
0.0019318938
-0.0035933277
-0.0019419835
0.0023516601
-0.0040759043
-0.0023857288
0.0028683054
-0.0046462758
-0.0029181503
0.0034885218
-0.0053205418
-0.0035245898
0.0041988559
-0.0061147665
-0.0041472892
0.0049415139
-0.0070412612
-0.0046385836
0.0055650783
-0.0081012901
-0.0046940857
0.0057541146
-0.0092669165
-0.0037462989
0.0049119252
-0.010427472
-0.0009041872
0.0020647427
-0.011357839
0.0050892819
-0.0041589146
-0.011621925
0.015299949
-0.015035864
-0.010746938
0.02957346
-0.030448446
-0.0084454931
0.044207998
-0.046509443
-0.0047847437
0.051860462
-0.055521211
0.0012434693
0.040564591
-0.046592804
0.001588534
0.011744079
-0.012089144
-1.3375411e-08
-7.2666953e-09
-5.9517161e-08
-2.541854e-08
-1.493486e-07
-4.9921165e-08
-2.9664126e-07
-8.2296248e-08
-5.186897e-07
-1.2436795e-07
-8.3710105e-07
-1.7831182e-07
-1.2787555e-06
-2.4671639e-07
-1.8769728e-06
-3.3265346e-07
-2.6728934e-06
-4.397617e-07
-3.7171153e-06
-5.7234745e-07
-5.0716179e-06
-7.3550883e-07
-6.8120035e-06
-9.3528988e-07
-9.0300797e-06
-1.178878e-06
-1.1836797e-05
-1.4748557e-06
-1.5365536e-05
-1.8335306e-06
-1.9775705e-05
-2.2673635e-06
-2.525658e-05
-2.7915253e-06
-3.2031233e-05
-3.4246152e-06
-4.0360335e-05
-4.1895717e-06
-5.0545485e-05
-5.1148009e-06
-6.2931568e-05
-6.2355371e-06
-7.7907451e-05
-7.5954177e-06
-9.5904087e-05
-9.2482253e-06
-0.0001173888
-1.1259697e-05
-0.00014285431
-1.3709264e-05
-0.00017280085
-1.6691555e-05
-0.00020771025
-2.0317467e-05
-0.00024801254
-2.4714537e-05
-0.00029404985
-3.0026226e-05
-0.00034604992
-3.6409506e-05
-0.00040412915
-4.4030888e-05
-0.0004683409
-5.3063892e-05
-0.00053875973
-6.36948e-05
-0.00061556328
-7.6141813e-05
-0.00069907723
-9.0683452e-05
-0.00078978395
-0.00010768629
-0.00088831553
-0.00012763212
-0.00099545241
-0.00015114819
-0.0011121379
-0.00017904955
-0.0012395137
-0.00021239981
-0.0013789795
-0.00025259564
-0.0015322834
-0.00030148074
-0.0017016463
-0.000361494
-0.0018899334
-0.00043584866
-0.0021008885
-0.00052873601
-0.0023393565
-0.00064561078
-0.002611459
-0.0007934392
-0.0029248821
-0.00098077801
-0.0032890582
-0.0012178447
-0.0037151488
-0.0015158929
-0.0042157774
-0.0018851001
-0.0048043938
-0.0023295339
-0.005493872
-0.0028351117
-0.0062941716
-0.0033469896
-0.0072072598
-0.0037254954
-0.0082189967
-0.0036823488
-0.0092822501
-0.0026830455
-0.01028005
9.3612321e-05
-0.010971081
0.0057803135
-0.010958725
0.015287593
-0.0098132718
0.028428007
-0.0071917977
0.041586524
-0.0029564832
0.047625147
0.0043165472
0.03329156
-0.011135119
0.0170402
-1.3527022e-08
6.2603271e-09
-6.0199642e-08
2.1254082e-08
-1.5107972e-07
4.095892e-08
-3.0010676e-07
6.6730791e-08
-5.2477782e-07
1.0030312e-07
-8.4695777e-07
1.4386812e-07
-1.2938596e-06
2.001855e-07
-1.8992203e-06
2.7270722e-07
-2.704702e-06
3.6572001e-07
-3.7615535e-06
4.8450407e-07
-5.1325632e-06
6.3550086e-07
-6.8943345e-06
8.2648144e-07
-9.1399105e-06
1.066698e-06
-1.1981759e-05
1.3669926e-06
-1.5555114e-05
1.739825e-06
-2.0021646e-05
2.1991676e-06
-2.5573363e-05
2.7601921e-06
-3.2436635e-05
3.4386569e-06
-4.0876082e-05
4.2498753e-06
-5.1198003e-05
5.20712e-06
-6.3752841e-05
6.3193005e-06
-7.8935987e-05
7.5877282e-06
-9.718599e-05
9.0017779e-06
-0.00011897894
1.0533257e-05
-0.00014481757
1.2129359e-05
-0.00017521336
1.3704241e-05
-0.00021066064
1.512981e-05
-0.00025160283
1.6227654e-05
-0.0002983958
1.6766739e-05
-0.00035128033
1.647503e-05
-0.00041038386
1.507264e-05
-0.00047576782
1.232007e-05
-0.00054751249
8.0498687e-06
-0.00062580155
2.1472491e-06
-0.0007109684
-5.516605e-06
-0.00080350886
-1.5145827e-05
-0.0009040731
-2.7067878e-05
-0.0010134653
-4.1756013e-05
-0.0011326588
-5.985601e-05
-0.0012628329
-8.2225719e-05
-0.001405434
-0.00010999459
-0.0015622673
-0.00014464743
-0.0017356244
-0.00018813691
-0.0019284558
-0.00024301718
-0.0021446028
-0.00031258904
-0.0023890077
-0.00040120587
-0.0026678662
-0.00051458067
-0.0029888625
-0.00065978175
-0.0033612398
-0.00084546742
-0.0037955797
-0.001081553
-0.0043031637
-0.0013775162
-0.004894698
-0.0017379995
-0.0055778824
-0.0021519273
-0.0063536807
-0.0025711913
-0.0072098116
-0.0028693646
-0.0081105511
-0.0027816093
-0.0089838368
-0.0018097598
-0.0096877168
0.00079749231
-0.0099664544
0.0060590511
-0.0094476864
0.014768825
-0.0077188617
0.026699182
-0.0043239338
0.038191596
0.00118409
0.042117124
0.010846323
0.023629327
-0.026938978
0.026650182
-1.3497444e-08
1.9757771e-08
-6.006354e-08
6.7820179e-08
-1.5073208e-07
1.3162746e-07
-2.9942065e-07
2.1541937e-07
-5.2359798e-07
3.2448044e-07
-8.4509882e-07
4.6536897e-07
-1.2911058e-06
6.4619252e-07
-1.8953272e-06
8.769286e-07
-2.6994027e-06
1.1697955e-06
-3.75457e-06
1.5396714e-06
-5.1236268e-06
2.0045577e-06
-6.8832181e-06
2.5860727e-06
-9.1264782e-06
3.3099582e-06
-1.196604e-05
4.2065545e-06
-1.5537411e-05
5.3111955e-06
-2.0002682e-05
6.6644392e-06
-2.5554504e-05
8.3120136e-06
-3.2420178e-05
1.0304331e-05
-4.0865664e-05
1.2695361e-05
-5.1199144e-05
1.55406e-05
-6.3773672e-05
1.8893829e-05
-7.8988214e-05
2.280227e-05
-9.7286139e-05
2.7299703e-05
-0.00011914996
3.2397079e-05
-0.00014509082
3.8070223e-05
-0.0001756311
4.4244513e-05
-0.00021127874
5.0777458e-05
-0.00025249372
5.7442633e-05
-0.00029965061
6.3923626e-05
-0.00035300915
6.9833569e-05
-0.00041271251
7.4776001e-05
-0.00047883118
7.8438742e-05
-0.00055144684
8.0665529e-05
-0.00063073905
8.1439453e-05
-0.00071703952
8.0783866e-05
-0.00081084241
7.865706e-05
-0.00091280107
7.4890784e-05
-0.001023726
6.9168943e-05
-0.0011445994
6.1017334e-05
-0.0012766104
4.9785265e-05
-0.0014212161
3.4611149e-05
-0.0015802321
1.4368592e-05
-0.0017559574
-1.2411598e-05
-0.0019513437
-4.7630935e-05
-0.0021702142
-9.3718506e-05
-0.0024174485
-0.00015397158
-0.0026991012
-0.000232928
-0.0030225561
-0.00033632687
-0.0033964435
-0.00047158001
-0.0038301582
-0.00064783819
-0.0043327581
-0.00087491631
-0.0049108988
-0.0011598588
-0.0055651367
-0.0014976893
-0.0062845055
-0.0018518225
-0.0070387078
-0.0021151622
-0.007764167
-0.0020561501
-0.0083556054
-0.0012183214
-0.0086342687
0.0010761556
-0.0083186481
0.0057434305
-0.0070253428
0.01347552
-0.0043327746
0.024006614
0.00039238142
0.03346644
0.00817613
0.034333375
0.021476044
0.010329413
-0.046464311
0.041001377
-1.3260324e-08
3.3018095e-08
-5.9011619e-08
1.1357147e-07
-1.4810149e-07
2.2071733e-07
-2.9421436e-07
3.6153224e-07
-5.1453329e-07
5.4479937e-07
-8.3054397e-07
7.8137966e-07
-1.2690043e-06
1.0846528e-06
-1.8631105e-06
1.4710348e-06
-2.6538879e-06
1.9605729e-06
-3.6918454e-06
2.5776289e-06
-5.0389213e-06
3.3516335e-06
-6.7707611e-06
4.3179125e-06
-8.9793476e-06
5.5185446e-06
-1.1776011e-05
7.0032177e-06
-1.5294809e-05
8.8299941e-06
-1.9696267e-05
1.1065897e-05
-2.5171388e-05
1.3787135e-05
-3.1945833e-05
1.7078776e-05
-4.0284046e-05
2.1033574e-05
-5.0493003e-05
2.5749557e-05
-6.2925121e-05
3.1325947e-05
-7.7979654e-05
3.7856803e-05
-9.6101658e-05
4.5421707e-05
-0.00011777735
5.4072774e-05
-0.00014352436
6.3817225e-05
-0.00017387513
7.4595291e-05
-0.00020935221
8.6254536e-05
-0.00025043502
9.8525437e-05
-0.00029752185
0.00011101046
-0.00035089763
0.00012320936
-0.00041072675
0.00013460512
-0.0004770905
0.00014480249
-0.00055006803
0.00015364306
-0.00062982655
0.00016119797
-0.00071668051
0.00016763783
-0.00081110881
0.00017308536
-0.00091375085
0.00017753283
-0.0010254037
0.00018082184
-0.0011470342
0.00018264778
-0.0012798111
0.00018256217
-0.0014251627
0.0001799628
-0.0015848626
0.00017406841
-0.001761148
0.00016387379
-0.0019568796
0.00014810075
-0.0021757376
0.00012513947
-0.0024223649
9.2655728e-05
-0.0027024449
4.7151989e-05
-0.0030227448
-1.6026951e-05
-0.0033908357
-0.00010348913
-0.0038142944
-0.00022437947
-0.0042990447
-0.00039016607
-0.004846339
-0.00061256451
-0.0054475265
-0.00089650186
-0.0060765617
-0.0012227873
-0.006680525
-0.001511199
-0.0071626981
-0.0015739769
-0.0073754324
-0.0010055871
-0.0070903867
0.00079110995
-0.0059845591
0.0046376029
-0.0036228656
0.011113826
0.00046908901
0.019914659
0.0071791307
0.026756398
0.018211012
0.023301494
0.035941604
-0.0074011793
-0.069409435
0.058886728
-1.2805681e-08
4.5823777e-08
-5.6996902e-08
1.5776269e-07
-1.4306245e-07
3.0678287e-07
-2.8423848e-07
5.0270828e-07
-4.971525e-07
7.5771338e-07
-8.0260487e-07
1.086832e-06
-1.2265144e-06
1.5085623e-06
-1.8010535e-06
2.045574e-06
-2.5660101e-06
2.7255295e-06
-3.5704031e-06
3.5820219e-06
-4.8743924e-06
4.6556229e-06
-6.5515166e-06
5.9950367e-06
-8.6912888e-06
7.6583168e-06
-1.1402171e-05
9.7140997e-06
-1.4814935e-05
1.2242759e-05
-1.9086399e-05
1.533736e-05
-2.4403465e-05
1.9104201e-05
-3.0987371e-05
2.3662683e-05
-3.9097947e-05
2.914415e-05
-4.9037586e-05
3.5689195e-05
-6.1154479e-05
4.344284e-05
-7.58445e-05
5.2546825e-05
-9.3550837e-05
6.3128044e-05
-0.00011476022
7.5282156e-05
-0.00013999428
8.9051288e-05
-0.00016979432
0.00010439533
-0.00020469786
0.00012115807
-0.00024520638
0.00013903396
-0.00029174683
0.0001575509
-0.00034463593
0.00017609846
-0.00040406558
0.00019403477
-0.00047013082
0.00021086773
-0.0005429051
0.00022641734
-0.00062253335
0.00024082622
-0.0007092991
0.00025440359
-0.00080364872
0.00026743497
-0.00090618875
0.00028007285
-0.001017681
0.00029231404
-0.00113905
0.00030401686
-0.0012714109
0.00031492306
-0.0014161195
0.00032467133
-0.0015748496
0.00033279861
-0.0017497014
0.00033872557
-0.0019433444
0.0003417437
-0.0021591777
0.00034097279
-0.0024014201
0.00033489815
-0.0026751356
0.00032086752
-0.0029861314
0.00029496881
-0.0033404402
0.00025081963
-0.0037431416
0.00017832201
-0.0041960433
6.2735571e-05
-0.0046935204
-0.0001150874
-0.0052154668
-0.00037455549
-0.0057172785
-0.00072097553
-0.0061166462
-0.0011118312
-0.006281513
-0.0014091102
-0.0060139415
-0.0012731586
-0.0050130287
-0.00020980288
-0.0028927531
0.0025173273
0.00083663599
0.007384437
0.0067700894
0.013981206
0.016082275
0.017444212
0.030987821
0.0083959483
0.052975118
-0.029388476
-0.094532154
0.078097837
-1.2132189e-08
5.7955966e-08
-5.4008349e-08
1.9963885e-07
-1.3558141e-07
3.8835594e-07
-2.6941759e-07
6.3654446e-07
-4.7131138e-07
9.5960717e-07
-7.6103397e-07
1.3765546e-06
-1.1632379e-06
1.9107662e-06
-1.7085481e-06
2.5908842e-06
-2.4348697e-06
3.4518511e-06
-3.3889475e-06
4.5360997e-06
-4.6282111e-06
5.8948865e-06
-6.2229479e-06
7.5897735e-06
-8.2588239e-06
9.6941927e-06
-1.08398e-05
1.2295076e-05
-1.4091438e-05
1.5494397e-05
-1.8164598e-05
1.941052e-05
-2.3239486e-05
2.4179089e-05
-2.9529958e-05
2.9953155e-05
-3.7287905e-05
3.6902096e-05
-4.6807477e-05
4.5208767e-05
-5.8428724e-05
5.5064087e-05
-7.2540054e-05
6.6658155e-05
-8.9578723e-05
8.0166713e-05
-0.00011002822
9.573165e-05
-0.00013441106
0.00011343413
-0.0001632754
0.00013325967
-0.00019717343
0.0001550561
-0.00023663064
0.00017849117
-0.00028210716
0.00020302742
-0.00033395826
0.00022794956
-0.00039241059
0.0002524871
-0.00045757737
0.00027603451
-0.00052952452
0.00029836449
-0.00060836532
0.00031966702
-0.00069433746
0.00034037572
-0.00078783604
0.00036093356
-0.00088941363
0.00038165044
-0.00099977222
0.00040267264
-0.0011197651
0.00042400971
-0.0012504162
0.00044557415
-0.001392961
0.00046721612
-0.001548911
0.00048874864
-0.0017201452
0.00050995976
-0.001909032
0.00053063049
-0.0021185396
0.00055048044
-0.0023522551
0.0005686136
-0.0026143492
0.00058296166
-0.0029092878
0.00058990734
-0.0032410237
0.00058255555
-0.0036113708
0.00054866915
-0.004016885
0.00046824972
-0.0044432796
0.00031130727
-0.0048564358
3.8600664e-05
-0.0051896701
-0.00038774125
-0.005326813
-0.00097468838
-0.0050919692
-0.0016439539
-0.0042260858
-0.002139042
-0.0023508495
-0.0020850392
0.0010104536
-0.00084397585
0.00637838
0.0020165106
0.014536155
0.005823431
0.026930185
0.0050501818
0.045902092
-0.010575959
0.071435862
-0.054922246
-0.1200402
0.096943905
-1.1241581e-08
6.9197547e-08
-5.0055043e-08
2.3845232e-07
-1.2568242e-07
4.6398331e-07
-2.4979953e-07
7.6066157e-07
-4.3709261e-07
1.1469003e-06
-7.0595963e-07
1.6454216e-06
-1.079361e-06
2.2841677e-06
-1.585849e-06
3.0973722e-06
-2.2608007e-06
4.1268028e-06
-3.1478979e-06
5.4231968e-06
-4.3008816e-06
7.0478702e-06
-5.7856229e-06
9.0745148e-06
-7.6825514e-06
1.1591121e-05
-1.008946e-05
1.4701985e-05
-1.3124729e-05
1.8529666e-05
-1.6930947e-05
2.3216738e-05
-2.1678927e-05
2.8927069e-05
-2.7572045e-05
3.5846274e-05
-3.485076e-05
4.4180811e-05
-4.379708e-05
5.4155087e-05
-5.4738656e-05
6.6005663e-05
-6.8051936e-05
7.9971435e-05
-8.4163662e-05
9.6278439e-05
-0.00010354962
0.0001151176
-0.00012672931
0.00013661382
-0.00015425475
0.00016078511
-0.00018669144
0.00018749279
-0.00022458975
0.00021638948
-0.00026844669
0.00024688436
-0.00031866262
0.00027816549
-0.00037550701
0.00030933149
-0.00043911758
0.00033964509
-0.00050955298
0.00036879988
-0.00058688667
0.0003970007
-0.00067129488
0.00042478393
-0.00076310113
0.00045273981
-0.00086278043
0.00048132974
-0.00097094791
0.00051084012
-0.0010883528
0.00054141463
-0.0012158875
0.00057310878
-0.0013546143
0.00060594297
-0.001505813
0.00063994738
-0.0016710493
0.00067519602
-0.0018522678
0.00071184898
-0.0020518382
0.00075005086
-0.0022724835
0.00078925888
-0.0025171687
0.00082764684
-0.0027885684
0.00086130709
-0.0030879076
0.00088189473
-0.0034127819
0.00087354341
-0.0037530364
0.0008085043
-0.0040834796
0.00064175041
-0.0043525685
0.00030768958
-0.0044675472
-0.00027276257
-0.0042748277
-0.0011674078
-0.003542573
-0.0023762085
-0.0019422349
-0.0037393802
0.00098975846
-0.0050170325
0.005792148
-0.0056463654
0.013080004
-0.0052713458
0.023832429
-0.0049289936
0.039699912
-0.010817301
0.062619162
-0.033495209
0.090383791
-0.082686874
-0.14327318
0.11361677
-1.014315e-08
7.9340697e-08
-4.5178074e-08
2.7348724e-07
-1.1346766e-07
5.322729e-07
-2.2558576e-07
8.7277966e-07
-3.9484414e-07
1.3161586e-06
-6.3793591e-07
1.8885134e-06
-9.7571888e-07
2.6219506e-06
-1.4341614e-06
3.5558147e-06
-2.0454866e-06
4.738128e-06
-2.8495432e-06
6.2272535e-06
-3.8954435e-06
8.0937705e-06
-5.2435061e-06
1.0422577e-05
-6.9675467e-06
1.3315162e-05
-9.1575411e-06
1.6891979e-05
-1.1922716e-05
2.1294841e-05
-1.5395065e-05
2.6689086e-05
-1.9733291e-05
3.3265295e-05
-2.5127128e-05
4.1240111e-05
-3.1801975e-05
5.0855659e-05
-4.0023625e-05
6.2376737e-05
-5.0102802e-05
7.608484e-05
-6.2399104e-05
9.2267737e-05
-7.7323607e-05
0.00011120294
-9.5339235e-05
0.00013313323
-0.00011695757
0.00015823216
-0.00014273035
0.0001865579
-0.0001732336
0.00021799604
-0.00020904187
0.00025219775
-0.00025069131
0.00028853379
-0.00029863311
0.0003261073
-0.00035318819
0.00036388657
-0.00041452715
0.00040098404
-0.00048270451
0.00043697725
-0.00055774773
0.00047204393
-0.00063975607
0.00050679227
-0.00072895956
0.00054194331
-0.00082572951
0.00057809969
-0.00093056403
0.00061567463
-0.0010440723
0.00065492293
-0.00116697
0.00069600649
-0.0013000887
0.00073906162
-0.0014443995
0.00078425822
-0.0016010518
0.00083184828
-0.001771427
0.0008822242
-0.0019571009
0.00093572477
-0.0021596709
0.00099182887
-0.0023805159
0.0010484918
-0.0026199586
0.0011007498
-0.0028756564
0.0011375926
-0.003139693
0.00113758
-0.0033931341
0.0010619455
-0.0035966259
0.00084524214
-0.0036768516
0.00038791534
-0.0035086937
-0.00044092054
-0.0028918613
-0.0017842402
-0.0015276714
-0.0037403984
0.00099130337
-0.006258355
0.0052100957
-0.0092358248
0.011759997
-0.012196267
0.021317039
-0.014828387
0.035074597
-0.018686551
0.054705869
-0.030448573
0.081017442
-0.059806782
0.10819361
-0.10986304
-0.16073687
0.1256573
-8.8556908e-09
8.8196388e-08
-3.9460119e-08
3.0409167e-07
-9.9142556e-08
5.9195534e-07
-1.9717999e-07
9.708171e-07
-3.4526577e-07
1.4642444e-06
-5.5808261e-07
2.1013302e-06
-8.5400342e-07
2.9178714e-06
-1.2559403e-06
3.9577515e-06
-1.792377e-06
5.2745647e-06
-2.4986083e-06
6.9334848e-06
-3.4182375e-06
9.0133998e-06
-4.6049521e-06
1.1609292e-05
-6.1246416e-06
1.4834851e-05
-8.0578869e-06
1.8825225e-05
-1.0502867e-05
2.3739821e-05
-1.3578714e-05
2.9764933e-05
-1.7429332e-05
3.7115913e-05
-2.2227684e-05
4.6038463e-05
-2.8180458e-05
5.6808433e-05
-3.5533033e-05
6.9729312e-05
-4.4574497e-05
8.5126303e-05
-5.5642346e-05
0.00010333559
-6.9126325e-05
0.00012468692
-8.5470547e-05
0.00014947745
-0.00010517272
0.00017793433
-0.00012877876
0.00021016394
-0.00015687059
0.00024608787
-0.00019004422
0.00028537138
-0.00022887507
0.00032736464
-0.00027386936
0.00037110159
-0.00032540781
0.00041542501
-0.00038370431
0.00045928054
-0.000448816
0.00050208894
-0.0005207213
0.00054394923
-0.00059942803
0.00058549901
-0.00068504952
0.0006275648
-0.00077782466
0.00067087482
-0.0008781009
0.00071595088
-0.00098630737
0.0007631294
-0.0011029329
0.00081263204
-0.0012285135
0.00086464217
-0.0013636261
0.00091937083
-0.0015088881
0.00097711034
-0.0016649535
0.0010382895
-0.0018323688
0.0011031401
-0.0020112962
0.0011707562
-0.0022010415
0.0012382372
-0.0023988261
0.0012985344
-0.0025975577
0.0013363241
-0.0027818837
0.001321906
-0.0029209347
0.0012009965
-0.0029564034
0.00088071089
-0.0027863127
0.00021782465
-0.0022415202
-0.00098571312
-0.0010563838
-0.0029693766
0.0011536178
-0.0059504
0.0048965105
-0.010001248
0.010806344
-0.015145658
0.019588848
-0.020978771
0.031988609
-0.027228148
0.049213334
-0.035911277
0.072475156
-0.053710395
0.099770708
-0.087102335
0.12166056
-0.13175289
-0.1710808
0.13200449
-7.4060863e-09
9.5602474e-08
-3.3019863e-08
3.2970545e-07
-8.3003868e-08
6.4193934e-07
-1.6516951e-07
1.0529827e-06
-2.893789e-07
1.5884538e-06
-4.6803778e-07
2.2799891e-06
-7.1669952e-07
3.1665332e-06
-1.0548045e-06
4.2958565e-06
-1.5065786e-06
5.7263388e-06
-2.1021255e-06
7.5290317e-06
-2.8787454e-06
9.7900197e-06
-3.8825281e-06
1.2613075e-05
-5.1702517e-06
1.6122575e-05
-6.8116579e-06
2.0466631e-05
-8.8921218e-06
2.5820285e-05
-1.1515799e-05
3.2388611e-05
-1.4809275e-05
4.0409388e-05
-1.8925712e-05
5.01549e-05
-2.4049537e-05
6.1932258e-05
-3.0401565e-05
7.608134e-05
-3.8244439e-05
9.2969178e-05
-4.7888086e-05
0.00011297923
-5.9694805e-05
0.00013649364
-7.4083231e-05
0.00016386588
-9.1530116e-05
0.00019538121
-0.00011256841
0.00023120223
-0.00013777929
0.00027129874
-0.00016777482
0.00031536692
-0.00020316696
0.00036275678
-0.00024451839
0.00041245302
-0.00029227679
0.00046318342
-0.00034671104
0.00051371479
-0.00040789145
0.00056326935
-0.00047574886
0.00061180664
-0.00055018755
0.0006599377
-0.00063118043
0.00070855768
-0.00071880256
0.00075849696
-0.00081321346
0.00081036177
-0.00091461728
0.00086453322
-0.00102322
0.00092123475
-0.0011391883
0.00098061046
-0.0012626067
0.0010427892
-0.0013934268
0.0011079304
-0.0015313761
0.0011762389
-0.0016756878
0.0012474517
-0.0018246829
0.0013197514
-0.0019749408
0.001388495
-0.0021195122
0.0014431058
-0.0022447548
0.0014615667
-0.0023248296
0.0014019808
-0.002312018
0.0011881849
-0.0021217505
0.00069044333
-0.0016104442
-0.00029348167
-0.00054041218
-0.0020557451
0.0014577418
-0.0049675306
0.0049036217
-0.0093962799
0.010447417
-0.015545043
0.018799234
-0.023497475
0.030600542
-0.032780079
0.046420296
-0.043047902
0.06694726
-0.056438241
0.091652964
-0.078416099
0.1145259
-0.10997527
0.12826882
-0.14549581
-0.17698112
0.13416914
-5.8320624e-09
1.0143454e-07
-2.6025566e-08
3.4989895e-07
-6.547263e-08
6.8138641e-07
-1.303881e-07
1.1178982e-06
-2.2863499e-07
1.6867007e-06
-3.7013159e-07
2.4214857e-06
-5.6734705e-07
3.3637486e-06
-8.3591568e-07
4.5644251e-06
-1.1953889e-06
6.085812e-06
-1.6701548e-06
8.0037976e-06
-2.2905656e-06
1.041043e-05
-3.094301e-06
1.341681e-05
-4.1280311e-06
1.7156305e-05
-5.4494191e-06
2.1788019e-05
-7.129524e-06
2.7500389e-05
-9.2556729e-06
3.451476e-05
-1.1934849e-05
4.3088565e-05
-1.5297671e-05
5.3517722e-05
-1.9502985e-05
6.6137573e-05
-2.4743066e-05
8.132142e-05
-3.1249384e-05
9.9475496e-05
-3.9298776e-05
0.00012102862
-4.9219673e-05
0.00014641454
-6.1397909e-05
0.00017604412
-7.6281162e-05
0.00021026447
-9.4380634e-05
0.00024930171
-0.00011626773
0.00029318584
-0.00014256213
0.00034166132
-0.00017390575
0.00039410039
-0.00021091537
0.00044946264
-0.0002541099
0.00050637795
-0.00030382481
0.0005634297
-0.00036015793
0.00061960247
-0.00042299948
0.00067464818
-0.00049214222
0.00072908044
-0.00056739554
0.000783811
-0.00064863696
0.00083973838
-0.00073579647
0.00089752129
-0.00082880292
0.00095753967
-0.0009275155
0.0010199473
-0.0010316471
0.0010847421
-0.0011406735
0.0011518156
-0.0012537161
0.001220973
-0.0013693305
0.0012918533
-0.0014850772
0.0013631984
-0.0015968751
0.0014315493
-0.001697643
0.001489263
-0.0017746342
0.001520097
-0.0018047594
0.0014916919
-0.0017467496
0.001343971
-0.0015284726
0.0009699079
-0.0010262921
0.00018826285
-2.8655968e-05
-0.0012911178
0.0018241106
-0.0039085116
0.0050830692
-0.0082264892
0.01047578
-0.01478899
0.018794797
-0.023864061
0.030595212
-0.03529789
0.045977801
-0.048162668
0.064618719
-0.06168882
0.085774033
-0.077593555
0.10628968
-0.098931747
0.12125504
-0.12494063
0.12985721
-0.15409797
-0.18180951
0.1346856
-4.1795086e-09
1.0561405e-07
-1.8679908e-08
3.6439935e-07
-4.705595e-08
7.0976245e-07
-9.3838358e-08
1.1646806e-06
-1.6478244e-07
1.7576448e-06
-2.6717559e-07
2.5238789e-06
-4.1022298e-07
3.506796e-06
-6.0552329e-07
4.7597254e-06
-8.6766193e-07
6.3479506e-06
-1.2149449e-06
8.3510807e-06
-1.6703038e-06
1.0865789e-05
-2.2624229e-06
1.4008929e-05
-3.0271154e-06
1.7920998e-05
-4.0090274e-06
2.2769931e-05
-5.2637175e-06
2.875508e-05
-6.8601933e-06
3.6111236e-05
-8.883985e-06
4.5112356e-05
-1.1440853e-05
5.607459e-05
-1.4661175e-05
6.9357895e-05
-1.8705125e-05
8.536537e-05
-2.3768628e-05
0.000104539
-3.0090072e-05
0.00012735007
-3.7957594e-05
0.00015428206
-4.7716543e-05
0.00018580307
-5.9776522e-05
0.00022232445
-7.4616686e-05
0.00026414187
-9.2787273e-05
0.00031135643
-0.00011490369
0.00036377773
-0.00014162678
0.00042082348
-0.0001736198
0.00048145566
-0.00021147239
0.00054423054
-0.00025559585
0.00060755316
-0.00030613171
0.00067013833
-0.00036294267
0.00073145914
-0.00042570794
0.00079184571
-0.0004940528
0.00085215586
-0.000567622
0.00091330757
-0.00064607011
0.0009759694
-0.00072899351
0.0010404631
-0.00081583109
0.0011067849
-0.00090574219
0.0011746532
-0.00099745203
0.0012435255
-0.0010890422
0.0013125632
-0.001177578
0.0013803891
-0.0012584659
0.0014440863
-0.0013244124
0.0014974959
-0.0013632596
0.0015281101
-0.0013538465
0.0015106839
-0.0012588441
0.0013966895
-0.0010137742
0.0010989011
-0.00050966789
0.00046580161
0.00044238134
-0.00076378638
0.0021809953
-0.0030297318
0.0052846527
-0.0070121691
0.010589686
-0.013531523
0.019006099
-0.023205403
0.031076343
-0.035934305
0.046447701
-0.050669247
0.063918382
-0.065633349
0.081748273
-0.079518711
0.09861707
-0.094462352
0.11246087
-0.11277555
0.12255829
-0.13503805
0.12960557
-0.16114525
-0.18674329
0.13453934
-2.5067522e-09
1.081208e-07
-1.1242343e-08
3.7313494e-07
-2.8403282e-08
7.2692339e-07
-5.6808504e-08
1.1930858e-06
-1.0006551e-07
1.8009018e-06
-1.6278135e-07
2.5865947e-06
-2.5082489e-07
3.5948396e-06
-3.7166594e-07
4.8805665e-06
-5.3479436e-07
6.511079e-06
-7.5225876e-07
8.5685451e-06
-1.0393429e-06
1.1152873e-05
-1.4154211e-06
1.4385007e-05
-1.9050366e-06
1.8410613e-05
-2.5392643e-06
2.3404159e-05
-3.3574236e-06
2.9573239e-05
-4.4092293e-06
3.7163041e-05
-5.7574639e-06
4.6460591e-05
-7.4813173e-06
5.7798443e-05
-9.6804731e-06
7.155705e-05
-1.2480094e-05
8.8164991e-05
-1.6036803e-05
0.00010809571
-2.0545721e-05
0.00013185899
-2.6248541e-05
0.00015998488
-3.3442469e-05
0.00019299699
-4.2489497e-05
0.00023137148
-5.3825194e-05
0.00027547757
-6.7965006e-05
0.00032549624
-8.5504614e-05
0.00038131734
-0.00010710767
0.00044242654
-0.0001334695
0.0005078175
-0.0001652429
0.00057600394
-0.00020291899
0.00064522925
-0.00024669954
0.00071391888
-0.00029643732
0.00078119693
-0.00035170448
0.00084711287
-0.00041192625
0.00091237763
-0.00047647874
0.00097786007
-0.0005446906
0.0010441813
-0.00061576032
0.0011115328
-0.00068861972
0.0011796443
-0.00076175318
0.0012477866
-0.00083295672
0.001314729
-0.00089899487
0.0013786013
-0.00095500808
0.0014364023
-0.0009935558
0.001482634
-0.001002906
0.0015068461
-0.00096355993
0.001488764
-0.00084156262
0.0013886866
-0.00057756718
0.001132694
-7.1679213e-05
0.00059301309
0.00084703902
-0.00045291663
0.0024925334
-0.0024092808
0.0054435434
-0.0059807418
0.010633911
-0.012202537
0.01908045
-0.021978061
0.031255607
-0.035380561
0.046450014
-0.051128712
0.06280467
-0.067023903
0.078076161
-0.08090484
0.091245309
-0.092687858
0.10285992
-0.10607697
0.11278657
-0.1227022
0.12125762
-0.1435091
0.12853046
-0.16841809
-0.19281811
0.13460528
-8.7557654e-10
1.0899637e-07
-3.9863362e-09
3.762457e-07
-1.0198925e-08
7.3313597e-07
-2.0654161e-08
1.2035411e-06
-3.6852989e-08
1.8171006e-06
-6.0763577e-08
2.6105053e-06
-9.4972281e-08
3.6290483e-06
-1.4287074e-07
4.9284649e-06
-2.0891081e-07
6.5771191e-06
-2.9893668e-07
8.6585709e-06
-4.2062467e-07
1.1274561e-05
-5.8405447e-07
1.4548437e-05
-8.0248286e-07
1.8629041e-05
-1.0933283e-06
2.3695004e-05
-1.4794895e-06
2.99594e-05
-1.9910474e-06
3.7674599e-05
-2.6674976e-06
4.7137041e-05
-3.5605828e-06
5.8691529e-05
-4.737989e-06
7.2734457e-05
-6.2879486e-06
8.971495e-05
-8.3250342e-06
0.00011013279
-1.0997258e-05
0.00013453121
-1.4494594e-05
0.00016348221
-1.9058939e-05
0.00019756134
-2.4995287e-05
0.00023730782
-3.2683406e-05
0.00028316569
-4.2588562e-05
0.0003354014
-5.5268047e-05
0.00039399682
-7.1366982e-05
0.00045852547
-9.1591461e-05
0.00052804198
-0.00011664443
0.00060105691
-0.00014709364
0.00067567846
-0.0001831992
0.00075002444
-0.00022483426
0.00082283199
-0.00027147368
0.00089375229
-0.00032233464
0.00096323859
-0.0003764914
0.0010320168
-0.00043289274
0.0011005826
-0.00049026358
0.0011689036
-0.00054692346
0.0012363042
-0.00060052825
0.0013013914
-0.00064770918
0.0013619099
-0.00068353121
0.0014144233
-0.00070058988
0.001453461
-0.00068752634
0.0014695704
-0.00062619836
0.0014455181
-0.00048598098
0.0013485467
-0.00021274363
0.0011154493
0.00028698307
0.00063296733
0.0011719417
-0.00029194555
0.0027334539
-0.0020144288
0.0055350365
-0.0052108634
0.01055622
-0.011001925
0.018890327
-0.020536644
0.030925505
-0.034013239
0.045647191
-0.050102247
0.060763961
-0.066245482
0.07389693
-0.080156871
0.084353022
-0.091360932
0.093625799
-0.10196064
0.10257512
-0.11502629
0.11140253
-0.13152961
0.12001687
-0.15212345
0.12776156
-0.17616278
-0.19975526
0.13469871
6.407796e-10
1.0835559e-07
2.7606772e-09
3.741258e-07
6.7340765e-09
7.2916257e-07
1.2988523e-08
1.1972866e-06
2.1998958e-08
1.8080902e-06
3.4269421e-08
2.5982348e-06
5.0304958e-08
3.6130127e-06
7.0557931e-08
4.9082119e-06
9.5340585e-08
6.5523365e-06
1.2469514e-07
8.6292164e-06
1.5818915e-07
1.1241067e-05
1.9461633e-07
1.451201e-05
2.3156587e-07
1.8592092e-05
2.6478785e-07
2.3661782e-05
2.8732241e-07
2.9936866e-05
2.8826017e-07
3.7673662e-05
2.5105389e-07
4.7174247e-05
1.5118865e-07
5.8791394e-05
-4.6888716e-08
7.2932534e-05
-3.9390767e-07
9.0061969e-05
-9.6110075e-07
0.00011069999
-1.8470696e-06
0.00013541718
-3.1863566e-06
0.0001648215
-5.1599518e-06
0.00019953493
-8.0076711e-06
0.00024015554
-1.2042102e-05
0.00028720012
-1.7662923e-05
0.00034102222
-2.5368795e-05
0.0004017027
-3.5760615e-05
0.0004689173
-4.9522377e-05
0.00054180374
-6.7361345e-05
0.00061889588
-8.9936947e-05
0.00069825406
-0.00011753166
0.00077761915
-0.00015008816
0.00085538849
-0.00018700044
0.00093066456
-0.00022727975
0.0010035179
-0.00026966258
0.0010743997
-0.00031265948
0.0011435795
-0.00035443191
0.0012106761
-0.00039255479