/*--------------------------------*- C++ -*----------------------------------*\
  =========                 |
  \\      /  F ield         | OpenFOAM: The Open Source CFD Toolbox
   \\    /   O peration     | Website:  https://openfoam.org
    \\  /    A nd           | Version:  13
     \\/     M anipulation  |
\*---------------------------------------------------------------------------*/
FoamFile
{
    format      ascii;
    class       volScalarField;
    location    "3900";
    object      k;
}
// * * * * * * * * * * * * * * * * * * * * * * * * * * * * * * * * * * * * * //

dimensions      [0 2 -2 0 0 0 0];

internalField   nonuniform List<scalar> 
25000
(
0.000137295
0.000137292
0.000137276
0.000137257
0.000137239
0.000137223
0.000137211
0.000137201
0.000137192
0.000137185
0.000137178
0.000137172
0.000137167
0.000137162
0.000137158
0.000137155
0.000137153
0.000137151
0.000137151
0.000137151
0.000137153
0.000137155
0.000137159
0.000137163
0.000137168
0.000137174
0.000137181
0.000137188
0.000137195
0.000137203
0.000137211
0.000137219
0.000137228
0.000137236
0.000137243
0.00013725
0.000137257
0.000137262
0.000137267
0.000137271
0.000137275
0.000137276
0.000137278
0.000137278
0.000137278
0.000137278
0.00013728
0.000137284
0.000137291
0.000137294
0.000450269
0.000450227
0.000450049
0.000449843
0.000449638
0.000449467
0.00044933
0.000449223
0.000449133
0.000449052
0.000448984
0.000448922
0.000448871
0.000448827
0.000448794
0.000448768
0.000448752
0.000448745
0.000448749
0.000448763
0.000448787
0.000448821
0.000448866
0.00044892
0.000448983
0.000449054
0.000449131
0.000449214
0.000449301
0.000449389
0.000449476
0.000449566
0.000449657
0.000449741
0.000449821
0.000449893
0.000449958
0.000450014
0.000450062
0.000450098
0.000450124
0.000450138
0.000450143
0.000450136
0.000450129
0.000450122
0.000450138
0.000450174
0.000450241
0.000450265
0.000896505
0.000896373
0.000895945
0.000895454
0.000894973
0.000894574
0.000894259
0.000894016
0.000893818
0.000893649
0.000893511
0.000893393
0.000893304
0.000893235
0.000893193
0.00089317
0.000893173
0.000893197
0.000893246
0.000893317
0.000893413
0.000893529
0.000893667
0.000893824
0.000893998
0.000894187
0.000894387
0.000894595
0.000894807
0.000895018
0.000895223
0.000895429
0.00089563
0.000895814
0.000895982
0.000896128
0.000896255
0.000896357
0.000896436
0.000896486
0.000896512
0.000896507
0.00089648
0.000896428
0.000896375
0.000896324
0.000896326
0.000896376
0.000896497
0.000896529
0.00136347
0.0013632
0.00136253
0.00136178
0.00136106
0.00136047
0.00136001
0.00135967
0.0013594
0.00135919
0.00135904
0.00135892
0.00135886
0.00135883
0.00135884
0.0013589
0.00135899
0.00135911
0.00135928
0.00135947
0.0013597
0.00135995
0.00136023
0.00136054
0.00136085
0.00136119
0.00136153
0.00136187
0.0013622
0.00136253
0.00136284
0.00136313
0.00136341
0.00136365
0.00136386
0.00136403
0.00136416
0.00136425
0.00136429
0.00136429
0.00136425
0.00136415
0.00136403
0.00136387
0.00136371
0.00136356
0.00136348
0.00136348
0.00136358
0.00136358
0.00175913
0.0017587
0.00175787
0.00175694
0.00175608
0.00175537
0.00175484
0.00175445
0.00175417
0.00175397
0.00175385
0.00175378
0.00175379
0.00175385
0.00175397
0.00175414
0.00175436
0.00175462
0.00175493
0.00175528
0.00175566
0.00175606
0.00175649
0.00175694
0.0017574
0.00175786
0.00175832
0.00175876
0.00175919
0.0017596
0.00175997
0.00176031
0.00176061
0.00176086
0.00176106
0.0017612
0.00176128
0.0017613
0.00176126
0.00176116
0.00176101
0.0017608
0.00176054
0.00176025
0.00175995
0.00175967
0.00175948
0.00175939
0.00175941
0.00175934
0.00206428
0.00206372
0.00206279
0.00206175
0.00206079
0.00206003
0.00205946
0.00205906
0.00205879
0.00205862
0.00205854
0.00205855
0.00205863
0.00205878
0.00205901
0.00205929
0.00205964
0.00206003
0.00206047
0.00206096
0.00206147
0.00206201
0.00206257
0.00206314
0.00206371
0.00206427
0.00206482
0.00206534
0.00206584
0.00206629
0.0020667
0.00206705
0.00206735
0.00206759
0.00206775
0.00206785
0.00206787
0.00206781
0.00206769
0.00206749
0.00206722
0.00206689
0.00206651
0.00206609
0.00206567
0.00206528
0.00206497
0.00206479
0.00206473
0.00206458
0.00229611
0.00229546
0.00229444
0.00229332
0.00229231
0.00229151
0.00229093
0.00229052
0.00229026
0.00229012
0.00229009
0.00229015
0.00229031
0.00229054
0.00229085
0.00229123
0.00229168
0.00229218
0.00229273
0.00229332
0.00229395
0.00229459
0.00229525
0.00229591
0.00229657
0.00229721
0.00229783
0.00229841
0.00229895
0.00229944
0.00229987
0.00230023
0.00230053
0.00230074
0.00230087
0.00230092
0.00230089
0.00230076
0.00230056
0.00230028
0.00229992
0.00229949
0.00229901
0.00229849
0.00229797
0.00229748
0.00229709
0.00229683
0.00229669
0.00229649
0.00247663
0.0024759
0.00247482
0.00247365
0.00247259
0.00247176
0.00247116
0.00247075
0.0024705
0.00247039
0.00247039
0.0024705
0.00247071
0.002471
0.00247139
0.00247184
0.00247237
0.00247295
0.00247359
0.00247427
0.00247497
0.0024757
0.00247644
0.00247718
0.0024779
0.00247861
0.00247928
0.00247991
0.00248048
0.00248099
0.00248144
0.00248181
0.0024821
0.00248229
0.0024824
0.00248242
0.00248233
0.00248216
0.0024819
0.00248154
0.00248111
0.00248061
0.00248005
0.00247945
0.00247885
0.00247829
0.00247783
0.00247751
0.00247731
0.00247707
0.00262258
0.00262179
0.00262066
0.00261943
0.00261833
0.00261748
0.00261686
0.00261645
0.00261621
0.00261611
0.00261614
0.00261628
0.00261653
0.00261688
0.00261731
0.00261783
0.00261842
0.00261907
0.00261977
0.00262052
0.00262129
0.00262209
0.00262289
0.00262368
0.00262446
0.00262522
0.00262593
0.0026266
0.0026272
0.00262774
0.0026282
0.00262857
0.00262886
0.00262904
0.00262913
0.00262912
0.002629
0.00262879
0.00262848
0.00262807
0.00262758
0.00262702
0.0026264
0.00262574
0.00262508
0.00262446
0.00262394
0.00262358
0.00262334
0.00262306
0.00274494
0.0027441
0.00274292
0.00274164
0.00274051
0.00273963
0.002739
0.00273858
0.00273835
0.00273826
0.00273831
0.00273848
0.00273876
0.00273915
0.00273963
0.00274019
0.00274083
0.00274153
0.00274229
0.00274309
0.00274392
0.00274477
0.00274562
0.00274647
0.00274729
0.00274809
0.00274884
0.00274954
0.00275017
0.00275072
0.00275119
0.00275158
0.00275186
0.00275204
0.00275211
0.00275208
0.00275194
0.00275169
0.00275134
0.0027509
0.00275036
0.00274975
0.00274908
0.00274837
0.00274766
0.00274699
0.00274643
0.00274603
0.00274576
0.00274546
0.0028507
0.00284983
0.0028486
0.00284728
0.00284611
0.00284521
0.00284456
0.00284414
0.00284391
0.00284383
0.0028439
0.00284409
0.0028444
0.00284481
0.00284532
0.00284593
0.00284661
0.00284735
0.00284816
0.002849
0.00284988
0.00285077
0.00285167
0.00285256
0.00285343
0.00285426
0.00285504
0.00285576
0.00285642
0.00285699
0.00285747
0.00285786
0.00285815
0.00285832
0.00285839
0.00285834
0.00285818
0.0028579
0.00285752
0.00285704
0.00285647
0.00285582
0.00285511
0.00285436
0.0028536
0.0028529
0.0028523
0.00285187
0.00285158
0.00285125
0.00294439
0.00294348
0.00294221
0.00294085
0.00293965
0.00293872
0.00293806
0.00293764
0.0029374
0.00293734
0.00293741
0.00293762
0.00293795
0.00293839
0.00293893
0.00293957
0.00294028
0.00294107
0.00294191
0.0029428
0.00294371
0.00294465
0.00294558
0.00294651
0.00294741
0.00294827
0.00294908
0.00294983
0.0029505
0.00295109
0.00295159
0.00295199
0.00295227
0.00295245
0.0029525
0.00295244
0.00295226
0.00295197
0.00295156
0.00295106
0.00295045
0.00294977
0.00294902
0.00294823
0.00294744
0.0029467
0.00294607
0.00294562
0.00294531
0.00294496
0.00302902
0.00302808
0.00302677
0.00302537
0.00302415
0.00302319
0.00302252
0.00302208
0.00302185
0.00302179
0.00302188
0.0030221
0.00302245
0.00302291
0.00302348
0.00302414
0.00302489
0.0030257
0.00302658
0.0030275
0.00302845
0.00302942
0.00303039
0.00303135
0.00303228
0.00303317
0.003034
0.00303478
0.00303547
0.00303607
0.00303658
0.00303699
0.00303727
0.00303745
0.0030375
0.00303743
0.00303723
0.00303692
0.0030365
0.00303596
0.00303533
0.00303462
0.00303384
0.00303302
0.0030322
0.00303143
0.00303077
0.0030303
0.00302997
0.00302961
0.00310667
0.00310571
0.00310437
0.00310294
0.00310168
0.0031007
0.00310002
0.00309958
0.00309934
0.00309928
0.00309938
0.00309961
0.00309998
0.00310046
0.00310105
0.00310174
0.00310251
0.00310336
0.00310426
0.00310521
0.00310619
0.00310719
0.00310819
0.00310918
0.00311014
0.00311105
0.00311191
0.00311271
0.00311342
0.00311404
0.00311456
0.00311497
0.00311526
0.00311543
0.00311548
0.0031154
0.00311519
0.00311487
0.00311442
0.00311387
0.00311321
0.00311247
0.00311167
0.00311082
0.00310997
0.00310917
0.0031085
0.00310801
0.00310767
0.00310729
0.00317886
0.00317787
0.0031765
0.00317503
0.00317375
0.00317275
0.00317205
0.0031716
0.00317137
0.00317131
0.00317141
0.00317166
0.00317204
0.00317254
0.00317314
0.00317385
0.00317465
0.00317552
0.00317646
0.00317743
0.00317844
0.00317947
0.0031805
0.00318151
0.00318249
0.00318343
0.00318432
0.00318513
0.00318585
0.00318649
0.00318702
0.00318743
0.00318773
0.0031879
0.00318795
0.00318786
0.00318765
0.00318731
0.00318684
0.00318627
0.0031856
0.00318483
0.003184
0.00318313
0.00318225
0.00318144
0.00318074
0.00318023
0.00317988
0.0031795
0.00324668
0.00324567
0.00324426
0.00324277
0.00324146
0.00324044
0.00323973
0.00323927
0.00323904
0.00323898
0.00323909
0.00323935
0.00323973
0.00324025
0.00324087
0.0032416
0.00324242
0.00324332
0.00324427
0.00324528
0.00324631
0.00324736
0.00324842
0.00324945
0.00325046
0.00325142
0.00325232
0.00325315
0.00325389
0.00325454
0.00325508
0.00325551
0.00325581
0.00325598
0.00325602
0.00325593
0.0032557
0.00325535
0.00325488
0.00325429
0.00325359
0.00325281
0.00325196
0.00325106
0.00325016
0.00324932
0.00324861
0.00324809
0.00324773
0.00324733
0.00331097
0.00330994
0.00330851
0.00330698
0.00330564
0.00330461
0.00330388
0.00330342
0.00330318
0.00330313
0.00330324
0.00330351
0.0033039
0.00330443
0.00330507
0.00330582
0.00330666
0.00330757
0.00330855
0.00330958
0.00331064
0.00331171
0.00331279
0.00331385
0.00331488
0.00331586
0.00331678
0.00331762
0.00331838
0.00331904
0.00331959
0.00332002
0.00332033
0.0033205
0.00332054
0.00332044
0.00332021
0.00331985
0.00331936
0.00331876
0.00331805
0.00331725
0.00331637
0.00331546
0.00331454
0.00331368
0.00331295
0.00331241
0.00331204
0.00331164
0.00337238
0.00337133
0.00336987
0.00336832
0.00336696
0.00336591
0.00336517
0.0033647
0.00336446
0.00336441
0.00336452
0.00336479
0.0033652
0.00336574
0.0033664
0.00336716
0.00336802
0.00336895
0.00336995
0.003371
0.00337208
0.00337317
0.00337427
0.00337535
0.0033764
0.0033774
0.00337834
0.0033792
0.00337997
0.00338064
0.0033812
0.00338164
0.00338195
0.00338212
0.00338216
0.00338206
0.00338182
0.00338145
0.00338095
0.00338034
0.00337961
0.00337879
0.0033779
0.00337697
0.00337603
0.00337515
0.0033744
0.00337386
0.00337348
0.00337306
0.00343144
0.00343037
0.00342888
0.0034273
0.00342592
0.00342485
0.0034241
0.00342363
0.00342338
0.00342333
0.00342345
0.00342373
0.00342414
0.00342469
0.00342536
0.00342614
0.00342701
0.00342796
0.00342898
0.00343005
0.00343115
0.00343226
0.00343338
0.00343448
0.00343555
0.00343657
0.00343752
0.0034384
0.00343918
0.00343986
0.00344043
0.00344088
0.00344119
0.00344137
0.00344141
0.0034413
0.00344106
0.00344068
0.00344017
0.00343954
0.0034388
0.00343797
0.00343706
0.00343611
0.00343515
0.00343426
0.0034335
0.00343294
0.00343255
0.00343213
0.00348855
0.00348746
0.00348595
0.00348435
0.00348294
0.00348186
0.0034811
0.00348062
0.00348037
0.00348032
0.00348044
0.00348072
0.00348115
0.0034817
0.00348238
0.00348317
0.00348406
0.00348503
0.00348606
0.00348715
0.00348827
0.0034894
0.00349054
0.00349166
0.00349274
0.00349378
0.00349475
0.00349564
0.00349644
0.00349713
0.00349771
0.00349816
0.00349847
0.00349865
0.00349869
0.00349859
0.00349834
0.00349795
0.00349743
0.00349679
0.00349604
0.00349519
0.00349427
0.0034933
0.00349233
0.00349142
0.00349065
0.00349008
0.00348968
0.00348925
0.00354406
0.00354296
0.00354143
0.0035398
0.00353837
0.00353727
0.0035365
0.00353601
0.00353576
0.00353571
0.00353583
0.00353612
0.00353655
0.00353712
0.00353781
0.00353861
0.00353951
0.00354049
0.00354154
0.00354265
0.00354378
0.00354493
0.00354609
0.00354722
0.00354833
0.00354938
0.00355036
0.00355127
0.00355207
0.00355278
0.00355336
0.00355382
0.00355414
0.00355432
0.00355436
0.00355425
0.003554
0.00355361
0.00355308
0.00355243
0.00355167
0.00355081
0.00354987
0.00354888
0.0035479
0.00354697
0.00354619
0.00354561
0.00354521
0.00354477
0.00359825
0.00359714
0.00359558
0.00359393
0.00359249
0.00359137
0.00359059
0.00359009
0.00358984
0.00358979
0.00358991
0.0035902
0.00359064
0.00359122
0.00359192
0.00359273
0.00359364
0.00359464
0.0035957
0.00359682
0.00359797
0.00359914
0.00360031
0.00360146
0.00360258
0.00360365
0.00360465
0.00360556
0.00360638
0.0036071
0.00360769
0.00360816
0.00360848
0.00360867
0.00360871
0.0036086
0.00360834
0.00360794
0.00360741
0.00360675
0.00360597
0.0036051
0.00360415
0.00360315
0.00360215
0.00360121
0.00360042
0.00359983
0.00359943
0.00359898
0.00365137
0.00365024
0.00364867
0.00364699
0.00364553
0.0036444
0.00364361
0.00364311
0.00364285
0.0036428
0.00364292
0.00364322
0.00364366
0.00364424
0.00364495
0.00364577
0.0036467
0.00364771
0.00364879
0.00364992
0.00365109
0.00365227
0.00365346
0.00365462
0.00365575
0.00365684
0.00365785
0.00365878
0.00365961
0.00366033
0.00366093
0.0036614
0.00366173
0.00366192
0.00366196
0.00366185
0.00366159
0.00366119
0.00366065
0.00365998
0.0036592
0.00365831
0.00365735
0.00365634
0.00365532
0.00365437
0.00365357
0.00365297
0.00365256
0.00365211
0.00370362
0.00370248
0.00370088
0.00369919
0.00369771
0.00369657
0.00369576
0.00369525
0.00369499
0.00369494
0.00369507
0.00369536
0.00369581
0.0036964
0.00369712
0.00369795
0.00369888
0.00369991
0.003701
0.00370214
0.00370332
0.00370452
0.00370572
0.0037069
0.00370805
0.00370914
0.00371017
0.00371111
0.00371195
0.00371268
0.00371329
0.00371377
0.00371411
0.0037143
0.00371434
0.00371423
0.00371396
0.00371356
0.00371301
0.00371234
0.00371154
0.00371065
0.00370967
0.00370865
0.00370762
0.00370666
0.00370584
0.00370524
0.00370483
0.00370436
0.00375517
0.00375402
0.00375241
0.0037507
0.0037492
0.00374804
0.00374723
0.00374671
0.00374645
0.00374639
0.00374652
0.00374682
0.00374727
0.00374786
0.00374859
0.00374943
0.00375038
0.00375141
0.00375251
0.00375367
0.00375486
0.00375608
0.00375729
0.00375848
0.00375964
0.00376075
0.00376179
0.00376274
0.00376359
0.00376433
0.00376495
0.00376543
0.00376577
0.00376597
0.00376601
0.0037659
0.00376563
0.00376522
0.00376467
0.00376399
0.00376319
0.00376228
0.0037613
0.00376026
0.00375922
0.00375825
0.00375743
0.00375682
0.0037564
0.00375593
0.00380619
0.00380503
0.0038034
0.00380166
0.00380015
0.00379898
0.00379816
0.00379764
0.00379737
0.00379731
0.00379744
0.00379774
0.00379819
0.00379879
0.00379952
0.00380037
0.00380133
0.00380237
0.00380349
0.00380465
0.00380586
0.00380709
0.00380831
0.00380952
0.00381069
0.00381181
0.00381286
0.00381382
0.00381468
0.00381543
0.00381606
0.00381655
0.00381689
0.00381709
0.00381713
0.00381702
0.00381676
0.00381634
0.00381579
0.0038151
0.00381429
0.00381337
0.00381238
0.00381133
0.00381029
0.00380931
0.00380847
0.00380786
0.00380743
0.00380695
0.0038568
0.00385563
0.00385398
0.00385223
0.0038507
0.00384952
0.00384869
0.00384816
0.00384789
0.00384783
0.00384796
0.00384826
0.00384872
0.00384932
0.00385006
0.00385091
0.00385188
0.00385293
0.00385405
0.00385523
0.00385645
0.00385769
0.00385893
0.00386014
0.00386133
0.00386246
0.00386352
0.00386449
0.00386536
0.00386612
0.00386675
0.00386725
0.0038676
0.0038678
0.00386784
0.00386773
0.00386747
0.00386705
0.00386649
0.0038658
0.00386498
0.00386406
0.00386305
0.003862
0.00386094
0.00385995
0.00385911
0.00385849
0.00385806
0.00385757
0.00390713
0.00390595
0.00390429
0.00390252
0.00390097
0.00389978
0.00389894
0.0038984
0.00389813
0.00389807
0.00389819
0.0038985
0.00389896
0.00389957
0.00390031
0.00390117
0.00390214
0.0039032
0.00390434
0.00390553
0.00390675
0.003908
0.00390925
0.00391048
0.00391168
0.00391282
0.00391389
0.00391487
0.00391575
0.00391652
0.00391716
0.00391766
0.00391801
0.00391822
0.00391826
0.00391815
0.00391789
0.00391747
0.00391691
0.00391621
0.00391538
0.00391445
0.00391344
0.00391238
0.00391131
0.00391031
0.00390946
0.00390884
0.0039084
0.00390791
0.00395729
0.00395609
0.00395441
0.00395263
0.00395107
0.00394986
0.00394901
0.00394848
0.00394819
0.00394813
0.00394826
0.00394856
0.00394902
0.00394964
0.00395038
0.00395125
0.00395223
0.0039533
0.00395444
0.00395564
0.00395688
0.00395814
0.00395939
0.00396064
0.00396184
0.00396299
0.00396407
0.00396507
0.00396596
0.00396673
0.00396738
0.00396788
0.00396824
0.00396845
0.0039685
0.00396839
0.00396812
0.00396771
0.00396714
0.00396643
0.00396561
0.00396467
0.00396365
0.00396258
0.0039615
0.0039605
0.00395964
0.00395901
0.00395857
0.00395807
0.00400736
0.00400616
0.00400447
0.00400267
0.00400109
0.00399987
0.00399902
0.00399847
0.00399819
0.00399812
0.00399825
0.00399855
0.00399901
0.00399963
0.00400038
0.00400125
0.00400224
0.00400331
0.00400446
0.00400567
0.00400692
0.00400819
0.00400945
0.00401071
0.00401192
0.00401308
0.00401417
0.00401517
0.00401607
0.00401686
0.00401751
0.00401802
0.00401839
0.0040186
0.00401865
0.00401854
0.00401828
0.00401785
0.00401728
0.00401658
0.00401574
0.0040148
0.00401378
0.0040127
0.00401161
0.0040106
0.00400973
0.0040091
0.00400865
0.00400815
0.00405744
0.00405623
0.00405453
0.00405271
0.00405112
0.0040499
0.00404903
0.00404848
0.00404819
0.00404812
0.00404825
0.00404855
0.00404902
0.00404963
0.00405039
0.00405127
0.00405225
0.00405333
0.00405449
0.00405571
0.00405696
0.00405824
0.00405952
0.00406078
0.00406201
0.00406318
0.00406427
0.00406528
0.00406619
0.00406698
0.00406764
0.00406816
0.00406853
0.00406875
0.0040688
0.00406869
0.00406843
0.00406801
0.00406743
0.00406672
0.00406589
0.00406494
0.00406391
0.00406282
0.00406173
0.00406071
0.00405984
0.0040592
0.00405875
0.00405824
0.00410761
0.00410639
0.00410467
0.00410285
0.00410125
0.00410001
0.00409914
0.00409858
0.00409828
0.00409821
0.00409834
0.00409864
0.00409911
0.00409972
0.00410048
0.00410136
0.00410236
0.00410344
0.00410461
0.00410583
0.0041071
0.00410838
0.00410967
0.00411094
0.00411217
0.00411335
0.00411446
0.00411548
0.00411639
0.00411719
0.00411785
0.00411838
0.00411875
0.00411897
0.00411903
0.00411893
0.00411866
0.00411824
0.00411767
0.00411695
0.00411611
0.00411516
0.00411412
0.00411303
0.00411193
0.0041109
0.00411003
0.00410938
0.00410893
0.00410842
0.00415794
0.00415672
0.00415499
0.00415315
0.00415153
0.00415029
0.0041494
0.00414884
0.00414854
0.00414847
0.00414859
0.00414889
0.00414936
0.00414998
0.00415074
0.00415163
0.00415262
0.00415371
0.00415488
0.00415611
0.00415738
0.00415868
0.00415997
0.00416125
0.00416249
0.00416368
0.0041648
0.00416582
0.00416674
0.00416755
0.00416822
0.00416875
0.00416913
0.00416936
0.00416942
0.00416932
0.00416905
0.00416863
0.00416806
0.00416734
0.0041665
0.00416554
0.0041645
0.0041634
0.0041623
0.00416126
0.00416038
0.00415973
0.00415927
0.00415875
0.0042085
0.00420727
0.00420553
0.00420368
0.00420205
0.0042008
0.00419991
0.00419934
0.00419904
0.00419896
0.00419908
0.00419938
0.00419985
0.00420047
0.00420123
0.00420212
0.00420312
0.00420421
0.00420539
0.00420662
0.0042079
0.0042092
0.0042105
0.00421179
0.00421304
0.00421423
0.00421536
0.00421639
0.00421732
0.00421813
0.00421881
0.00421935
0.00421973
0.00421996
0.00422003
0.00421993
0.00421966
0.00421924
0.00421867
0.00421795
0.0042171
0.00421615
0.0042151
0.004214
0.00421289
0.00421185
0.00421096
0.0042103
0.00420984
0.00420932
0.00425935
0.00425812
0.00425637
0.0042545
0.00425287
0.0042516
0.0042507
0.00425013
0.00424982
0.00424974
0.00424986
0.00425016
0.00425063
0.00425125
0.00425201
0.0042529
0.0042539
0.004255
0.00425618
0.00425742
0.00425871
0.00426001
0.00426132
0.00426261
0.00426387
0.00426507
0.00426621
0.00426725
0.00426818
0.004269
0.00426969
0.00427023
0.00427062
0.00427085
0.00427092
0.00427082
0.00427056
0.00427014
0.00426957
0.00426885
0.004268
0.00426704
0.00426599
0.00426488
0.00426377
0.00426272
0.00426183
0.00426117
0.00426071
0.00426018
0.00431055
0.00430932
0.00430756
0.00430568
0.00430404
0.00430276
0.00430186
0.00430128
0.00430096
0.00430088
0.004301
0.00430129
0.00430176
0.00430238
0.00430314
0.00430403
0.00430504
0.00430614
0.00430733
0.00430857
0.00430986
0.00431117
0.00431249
0.00431379
0.00431505
0.00431626
0.0043174
0.00431845
0.00431939
0.00432021
0.00432091
0.00432145
0.00432185
0.00432209
0.00432216
0.00432207
0.00432181
0.00432139
0.00432081
0.00432009
0.00431924
0.00431828
0.00431723
0.00431612
0.004315
0.00431395
0.00431305
0.00431239
0.00431192
0.00431139
0.00436216
0.00436092
0.00435915
0.00435727
0.00435561
0.00435433
0.00435342
0.00435283
0.00435252
0.00435243
0.00435254
0.00435284
0.0043533
0.00435392
0.00435468
0.00435557
0.00435658
0.00435769
0.00435888
0.00436012
0.00436142
0.00436273
0.00436405
0.00436536
0.00436663
0.00436785
0.00436899
0.00437005
0.004371
0.00437183
0.00437253
0.00437308
0.00437348
0.00437372
0.0043738
0.00437371
0.00437345
0.00437303
0.00437246
0.00437174
0.00437089
0.00436992
0.00436887
0.00436775
0.00436663
0.00436558
0.00436468
0.00436401
0.00436354
0.004363
0.00441423
0.00441298
0.00441121
0.00440931
0.00440765
0.00440636
0.00440544
0.00440485
0.00440453
0.00440444
0.00440454
0.00440484
0.0044053
0.00440592
0.00440668
0.00440757
0.00440858
0.00440969
0.00441088
0.00441213
0.00441343
0.00441475
0.00441608
0.00441739
0.00441866
0.00441989
0.00442104
0.0044221
0.00442306
0.00442389
0.0044246
0.00442516
0.00442556
0.00442581
0.00442589
0.0044258
0.00442555
0.00442513
0.00442456
0.00442384
0.00442299
0.00442202
0.00442096
0.00441985
0.00441872
0.00441767
0.00441676
0.00441609
0.00441562
0.00441507
0.0044668
0.00446555
0.00446377
0.00446187
0.0044602
0.0044589
0.00445797
0.00445737
0.00445705
0.00445695
0.00445706
0.00445735
0.00445781
0.00445842
0.00445919
0.00446008
0.00446109
0.0044622
0.00446339
0.00446465
0.00446595
0.00446727
0.0044686
0.00446992
0.0044712
0.00447243
0.00447358
0.00447465
0.00447561
0.00447646
0.00447717
0.00447773
0.00447814
0.00447839
0.00447848
0.0044784
0.00447815
0.00447773
0.00447716
0.00447645
0.00447559
0.00447463
0.00447356
0.00447245
0.00447132
0.00447026
0.00446935
0.00446868
0.0044682
0.00446765
0.00451993
0.00451868
0.00451689
0.00451498
0.0045133
0.00451199
0.00451106
0.00451046
0.00451013
0.00451003
0.00451013
0.00451042
0.00451087
0.00451149
0.00451225
0.00451314
0.00451415
0.00451526
0.00451645
0.00451771
0.00451901
0.00452034
0.00452168
0.004523
0.00452428
0.00452552
0.00452668
0.00452775
0.00452872
0.00452957
0.00453028
0.00453086
0.00453127
0.00453153
0.00453162
0.00453154
0.00453129
0.00453088
0.00453031
0.0045296
0.00452875
0.00452778
0.00452672
0.0045256
0.00452447
0.00452341
0.0045225
0.00452182
0.00452134
0.00452078
0.00457365
0.0045724
0.0045706
0.00456869
0.004567
0.00456569
0.00456475
0.00456414
0.00456381
0.0045637
0.0045638
0.00456408
0.00456454
0.00456515
0.00456591
0.0045668
0.00456781
0.00456892
0.00457011
0.00457137
0.00457268
0.00457401
0.00457535
0.00457667
0.00457796
0.0045792
0.00458037
0.00458145
0.00458242
0.00458327
0.00458399
0.00458457
0.00458499
0.00458525
0.00458535
0.00458527
0.00458503
0.00458462
0.00458406
0.00458334
0.00458249
0.00458153
0.00458047
0.00457934
0.00457821
0.00457715
0.00457624
0.00457556
0.00457508
0.00457451
0.00462802
0.00462676
0.00462496
0.00462304
0.00462135
0.00462003
0.00461909
0.00461847
0.00461813
0.00461802
0.00461811
0.00461839
0.00461884
0.00461945
0.00462021
0.0046211
0.00462211
0.00462322
0.00462441
0.00462567
0.00462698
0.00462831
0.00462965
0.00463098
0.00463227
0.00463352
0.00463469
0.00463577
0.00463675
0.00463761
0.00463834
0.00463892
0.00463935
0.00463962
0.00463971
0.00463964
0.00463941
0.004639
0.00463844
0.00463773
0.00463688
0.00463591
0.00463485
0.00463373
0.0046326
0.00463153
0.00463062
0.00462994
0.00462945
0.00462888
0.00468307
0.00468181
0.00468001
0.00467808
0.00467638
0.00467505
0.0046741
0.00467348
0.00467314
0.00467302
0.00467311
0.00467339
0.00467384
0.00467444
0.0046752
0.00467608
0.00467709
0.0046782
0.00467939
0.00468065
0.00468196
0.00468329
0.00468464
0.00468597
0.00468727
0.00468851
0.00468969
0.00469078
0.00469176
0.00469263
0.00469336
0.00469395
0.00469438
0.00469465
0.00469476
0.00469469
0.00469446
0.00469406
0.0046935
0.00469279
0.00469194
0.00469098
0.00468992
0.0046888
0.00468766
0.0046866
0.00468568
0.004685
0.00468451
0.00468394
0.00473884
0.00473758
0.00473577
0.00473384
0.00473214
0.0047308
0.00472985
0.00472922
0.00472887
0.00472875
0.00472884
0.00472911
0.00472955
0.00473015
0.0047309
0.00473179
0.00473279
0.0047339
0.00473509
0.00473635
0.00473766
0.00473899
0.00474034
0.00474167
0.00474297
0.00474422
0.0047454
0.0047465
0.00474749
0.00474836
0.00474909
0.00474969
0.00475013
0.0047504
0.00475051
0.00475045
0.00475022
0.00474983
0.00474927
0.00474857
0.00474772
0.00474676
0.0047457
0.00474458
0.00474345
0.00474238
0.00474146
0.00474078
0.00474029
0.00473971
0.00479536
0.0047941
0.00479229
0.00479036
0.00478865
0.00478731
0.00478635
0.00478572
0.00478536
0.00478524
0.00478532
0.00478559
0.00478602
0.00478662
0.00478737
0.00478825
0.00478925
0.00479036
0.00479155
0.00479281
0.00479411
0.00479545
0.0047968
0.00479813
0.00479943
0.00480069
0.00480187
0.00480297
0.00480396
0.00480484
0.00480558
0.00480618
0.00480662
0.00480691
0.00480702
0.00480697
0.00480674
0.00480635
0.0048058
0.0048051
0.00480426
0.0048033
0.00480224
0.00480112
0.00479999
0.00479892
0.00479801
0.00479732
0.00479682
0.00479624
0.00485268
0.00485142
0.00484962
0.00484768
0.00484597
0.00484462
0.00484366
0.00484302
0.00484266
0.00484253
0.0048426
0.00484286
0.0048433
0.00484389
0.00484463
0.00484551
0.00484651
0.00484761
0.0048488
0.00485006
0.00485136
0.0048527
0.00485405
0.00485538
0.00485669
0.00485794
0.00485913
0.00486023
0.00486123
0.00486211
0.00486286
0.00486346
0.00486391
0.0048642
0.00486432
0.00486427
0.00486405
0.00486367
0.00486312
0.00486242
0.00486159
0.00486063
0.00485957
0.00485846
0.00485733
0.00485626
0.00485534
0.00485466
0.00485416
0.00485357
0.00491084
0.00490958
0.00490777
0.00490583
0.00490411
0.00490276
0.00490179
0.00490115
0.00490079
0.00490065
0.00490072
0.00490097
0.0049014
0.00490199
0.00490273
0.0049036
0.0049046
0.0049057
0.00490688
0.00490814
0.00490944
0.00491078
0.00491212
0.00491346
0.00491477
0.00491603
0.00491722
0.00491832
0.00491932
0.00492021
0.00492096
0.00492157
0.00492203
0.00492232
0.00492245
0.0049224
0.00492219
0.00492181
0.00492127
0.00492057
0.00491974
0.00491879
0.00491774
0.00491662
0.00491549
0.00491442
0.00491351
0.00491282
0.00491232
0.00491172
0.00496986
0.0049686
0.00496679
0.00496485
0.00496313
0.00496178
0.0049608
0.00496016
0.00495978
0.00495964
0.0049597
0.00495995
0.00496038
0.00496096
0.00496169
0.00496256
0.00496355
0.00496465
0.00496583
0.00496708
0.00496838
0.00496972
0.00497106
0.0049724
0.00497371
0.00497497
0.00497616
0.00497727
0.00497828
0.00497916
0.00497992
0.00498054
0.004981
0.0049813
0.00498143
0.00498139
0.00498119
0.00498081
0.00498028
0.00497959
0.00497876
0.00497781
0.00497676
0.00497565
0.00497452
0.00497346
0.00497254
0.00497185
0.00497135
0.00497075
0.00502978
0.00502852
0.00502671
0.00502477
0.00502305
0.00502169
0.00502071
0.00502006
0.00501968
0.00501953
0.00501959
0.00501984
0.00502025
0.00502083
0.00502156
0.00502242
0.0050234
0.0050245
0.00502567
0.00502692
0.00502822
0.00502956
0.0050309
0.00503224
0.00503355
0.00503481
0.005036
0.00503711
0.00503812
0.00503902
0.00503978
0.0050404
0.00504087
0.00504117
0.00504131
0.00504128
0.00504108
0.00504071
0.00504018
0.0050395
0.00503868
0.00503773
0.00503669
0.00503558
0.00503445
0.00503339
0.00503247
0.00503178
0.00503128
0.00503067
0.00509063
0.00508938
0.00508757
0.00508563
0.0050839
0.00508254
0.00508156
0.0050809
0.00508052
0.00508036
0.00508042
0.00508065
0.00508106
0.00508163
0.00508235
0.00508321
0.00508419
0.00508528
0.00508645
0.0050877
0.00508899
0.00509032
0.00509167
0.005093
0.00509431
0.00509558
0.00509677
0.00509789
0.0050989
0.0050998
0.00510056
0.00510119
0.00510166
0.00510197
0.00510212
0.00510209
0.0051019
0.00510154
0.00510101
0.00510034
0.00509952
0.00509858
0.00509754
0.00509643
0.00509531
0.00509425
0.00509334
0.00509265
0.00509214
0.00509153
0.00515245
0.0051512
0.0051494
0.00514746
0.00514573
0.00514436
0.00514337
0.00514271
0.00514232
0.00514216
0.00514221
0.00514244
0.00514284
0.00514341
0.00514412
0.00514497
0.00514594
0.00514702
0.00514819
0.00514943
0.00515073
0.00515206
0.0051534
0.00515473
0.00515604
0.0051573
0.0051585
0.00515962
0.00516063
0.00516153
0.0051623
0.00516294
0.00516341
0.00516373
0.00516389
0.00516387
0.00516368
0.00516332
0.00516281
0.00516214
0.00516133
0.00516039
0.00515936
0.00515826
0.00515714
0.00515608
0.00515517
0.00515448
0.00515396
0.00515335
0.00521527
0.00521402
0.00521222
0.00521028
0.00520855
0.00520718
0.00520619
0.00520552
0.00520513
0.00520496
0.005205
0.00520522
0.00520562
0.00520618
0.00520688
0.00520773
0.00520869
0.00520977
0.00521093
0.00521217
0.00521346
0.00521478
0.00521612
0.00521745
0.00521876
0.00522002
0.00522122
0.00522234
0.00522336
0.00522426
0.00522504
0.00522567
0.00522616
0.00522649
0.00522664
0.00522663
0.00522645
0.0052261
0.00522559
0.00522493
0.00522413
0.0052232
0.00522217
0.00522107
0.00521996
0.0052189
0.00521799
0.0052173
0.00521679
0.00521616
0.00527911
0.00527787
0.00527607
0.00527413
0.0052724
0.00527103
0.00527004
0.00526936
0.00526896
0.00526879
0.00526882
0.00526904
0.00526943
0.00526998
0.00527068
0.00527151
0.00527247
0.00527354
0.0052747
0.00527593
0.00527721
0.00527853
0.00527987
0.0052812
0.0052825
0.00528377
0.00528497
0.00528609
0.00528711
0.00528802
0.0052888
0.00528944
0.00528993
0.00529026
0.00529042
0.00529042
0.00529025
0.00528991
0.0052894
0.00528875
0.00528795
0.00528703
0.00528601
0.00528492
0.00528381
0.00528276
0.00528185
0.00528116
0.00528064
0.00528001
0.00534401
0.00534277
0.00534098
0.00533905
0.00533732
0.00533595
0.00533495
0.00533427
0.00533386
0.00533368
0.00533371
0.00533391
0.00533429
0.00533484
0.00533553
0.00533636
0.00533731
0.00533837
0.00533952
0.00534074
0.00534202
0.00534334
0.00534467
0.005346
0.0053473
0.00534857
0.00534977
0.00535089
0.00535191