/*--------------------------------*- C++ -*----------------------------------*\
  =========                 |
  \\      /  F ield         | OpenFOAM: The Open Source CFD Toolbox
   \\    /   O peration     | Website:  https://openfoam.org
    \\  /    A nd           | Version:  13
     \\/     M anipulation  |
\*---------------------------------------------------------------------------*/
FoamFile
{
    format      ascii;
    class       volSymmTensorField;
    location    "34.798322";
    object      UPrime2Mean;
}
// * * * * * * * * * * * * * * * * * * * * * * * * * * * * * * * * * * * * * //

dimensions      [0 2 -2 0 0 0 0];

internalField   nonuniform List<symmTensor> 
17140
(
(5.0240961e-12 -2.7286859e-10 -1.4427141e-27 1.6490422e-08 2.0605766e-26 8.6308247e-41)
(5.9319442e-10 -6.1448387e-09 -6.2957063e-28 1.5660344e-07 4.2382953e-27 7.4012608e-43)
(5.3147897e-09 -2.8588431e-08 1.0273288e-25 4.7416846e-07 -4.3596608e-25 3.2252489e-39)
(2.4988495e-08 -8.550963e-08 -2.1948239e-25 1.0175543e-06 6.6270572e-25 3.8959631e-39)
(8.3497162e-08 -2.0248075e-07 4.3952917e-26 1.8438425e-06 -1.012535e-25 5.3212047e-41)
(2.2849689e-07 -4.166241e-07 -2.283779e-25 3.0193993e-06 4.1888761e-25 5.6954015e-40)
(5.4826664e-07 -7.7986933e-07 -5.8102473e-25 4.6201455e-06 8.695828e-25 1.6127976e-39)
(1.1978882e-06 -1.3627885e-06 4.1362387e-25 6.7313193e-06 -5.1325382e-25 3.8396332e-40)
(2.4392458e-06 -2.2588334e-06 1.9239702e-24 9.446478e-06 -2.0017508e-24 4.1078739e-39)
(4.7005399e-06 -3.5884671e-06 6.5671394e-24 1.2865476e-05 -5.7780821e-24 2.4670661e-38)
(8.6626661e-06 -5.5024686e-06 -1.3325174e-23 1.7091124e-05 9.980664e-24 5.4133447e-38)
(1.5381402e-05 -8.1833452e-06 1.6030878e-23 2.2224241e-05 -1.0274863e-23 4.2882578e-38)
(2.645554e-05 -1.184335e-05 3.2765572e-24 2.8356904e-05 -1.8042962e-24 1.0014879e-39)
(4.42511e-05 -1.6717186e-05 -2.4466154e-23 3.5563842e-05 1.161807e-23 3.1912878e-38)
(7.2189837e-05 -2.3047308e-05 3.5592652e-24 4.3892192e-05 -1.4608796e-24 3.9159987e-40)
(0.00011510508 -3.1059941e-05 -3.6627615e-23 5.3350232e-05 1.3024376e-23 2.4436994e-38)
(0.00017965867 -4.0931112e-05 1.7528458e-24 6.389614e-05 -5.4116282e-25 3.3626409e-41)
(0.00027479938 -5.2744247e-05 -5.1077621e-25 7.5428269e-05 1.3645547e-25 1.6709723e-42)
(0.00041222706 -6.6444812e-05 -4.5394235e-23 8.7778682e-05 1.0580827e-23 8.3310276e-39)
(0.00060681407 -8.1802301e-05 7.4053212e-23 0.00010071158 -1.5026259e-23 1.3828966e-38)
(0.00087693323 -9.8394552e-05 -4.4519136e-23 0.00011392772 7.8661676e-24 3.1576625e-39)
(0.0012446592 -0.00011563016 1.0448417e-23 0.0001270751 -1.6118462e-24 1.1287796e-40)
(0.0017359269 -0.00013282312 9.4333564e-23 0.0001397661 -1.267114e-23 5.9944293e-39)
(0.0023809661 -0.00014932176 -1.137391e-22 0.00015160234 1.3323362e-23 5.812157e-39)
(0.0032141371 -0.00016459885 -2.1636506e-22 0.00016221298 2.2106084e-23 1.4335196e-38)
(0.0042742998 -0.00017820706 2.0531177e-22 0.0001713054 -1.8308531e-23 9.0002769e-39)
(0.0056082555 -0.00019012451 1.1815353e-21 0.00017869102 -9.1798217e-23 2.1107862e-37)
(0.0072725378 -0.0002003149 1.6204456e-22 0.00018431131 -1.0942495e-23 2.8515177e-39)
(0.0093329823 -0.00020836746 -1.6337616e-21 0.00018823749 9.6004368e-23 2.1446414e-37)
(0.011867593 -0.00021423709 -4.3831446e-22 0.00019066864 2.2298363e-23 1.1478485e-38)
(0.014969557 -0.0002178248 -1.7806355e-21 0.00019189077 7.8268793e-23 1.4364398e-37)
(0.018747999 -0.00021862248 2.6554708e-21 0.00019221881 -1.0049365e-22 2.4550441e-37)
(0.023328905 -0.00021579941 -7.8267336e-22 0.0001919408 2.5348233e-23 1.6499582e-38)
(0.028855161 -0.0002081645 -4.1969012e-22 0.00019126342 1.1601349e-23 3.7419938e-39)
(0.035485469 -0.00019418311 -4.6332254e-21 0.00019028852 1.0820383e-22 3.6029299e-37)
(0.043391518 -0.00017195341 2.2645006e-21 0.00018904342 -4.4474118e-23 6.9326031e-38)
(0.052752191 -0.00013912324 -3.7989037e-21 0.00018753572 6.1917708e-23 1.575633e-37)
(0.063743181 -9.2773891e-05 -2.8453748e-21 0.00018580921 3.8009727e-23 7.2307444e-38)
(0.07651995 -2.9267566e-05 -1.4357643e-21 0.00018401314 1.5428907e-23 1.5190861e-38)
(0.091192249 5.5883841e-05 4.7543611e-21 0.00018245493 -4.0235411e-23 1.397272e-37)
(0.10778976 0.00016788704 9.7720503e-21 0.00018162882 -6.2702042e-23 4.9761922e-37)
(0.12621906 0.00031228689 9.5902616e-21 0.00018217782 -4.416303e-23 4.0892195e-37)
(0.14621779 0.00049387461 4.4957783e-21 0.0001847803 -1.3459399e-23 7.7620538e-38)
(0.16733069 0.00071555091 -2.3411886e-20 0.00019009635 3.5972484e-23 1.8267296e-36)
(0.18888838 0.0009760809 -1.8155102e-20 0.00019882861 4.1946901e-24 9.68208e-37)
(0.21005509 0.00126589 4.692162e-21 0.00021173861 4.4403974e-24 5.78331e-38)
(0.2300009 0.0015746134 -3.3321368e-20 0.00022980906 -6.7573904e-23 2.6378958e-36)
(0.24778198 0.0018902539 -1.1726777e-20 0.00025431701 -3.5431899e-23 2.9975056e-37)
(0.26256605 0.0021999888 1.2277511e-20 0.00028681799 4.8417482e-23 3.0609461e-37)
(0.27384061 0.0024899376 3.0635534e-20 0.00032945262 1.4696504e-22 1.8022914e-36)
(0.28124425 0.0027474137 -1.9067981e-20 0.00038564629 -1.064107e-22 6.7107543e-37)
(0.28452116 0.0029670676 -1.206725e-20 0.00046151556 -7.5984687e-23 2.6248548e-37)
(0.2836741 0.0031638063 3.1305817e-20 0.00056499543 2.198885e-22 1.7515054e-36)
(0.2790211 0.0033297995 1.459827e-20 0.00070664047 1.1299455e-22 3.8395257e-37)
(0.27126187 0.003430441 1.0176182e-20 0.00090032818 8.6047359e-23 1.9150056e-37)
(0.26152133 0.0034419445 -7.7838468e-21 0.001163942 -7.2066527e-23 1.1617754e-37)
(0.25103992 0.0033473523 2.0159717e-20 0.0015111469 2.0312637e-22 8.3176646e-37)
(0.24070997 0.0031460489 1.6091294e-20 0.0019505494 1.7973585e-22 5.7156298e-37)
(0.23121426 0.0028810816 3.8092848e-21 0.0024737857 4.8134828e-23 3.5387111e-38)
(0.22253227 0.0026638586 -9.234201e-21 0.0030992488 -1.3624978e-22 2.3247956e-37)
(0.21397717 0.002661061 -6.6810436e-21 0.0039114044 -1.183205e-22 1.4119797e-37)
(0.20500533 0.0029456166 -2.264712e-20 0.0051866566 -4.8179461e-22 1.9206588e-36)
(0.19209749 0.0031877261 -2.9822798e-21 0.0071376468 -7.2984364e-23 4.1145149e-38)
(0.17819132 0.0028695706 2.2353767e-20 0.0089511644 5.4242583e-22 2.9049723e-36)
(0.15522183 0.0020529409 -1.4819096e-20 0.009418992 -3.1175063e-22 1.7356743e-36)
(3.6638453e-10 -8.5617213e-09 1.7856886e-27 2.0010989e-07 -3.4563613e-26 6.9895422e-42)
(5.8941762e-09 -1.0524165e-07 -5.6032016e-25 1.888185e-06 8.6694889e-24 8.8809176e-38)
(2.6614019e-08 -3.8677715e-07 9.515474e-25 5.6833674e-06 -1.1985224e-23 7.0299109e-38)
(8.3214778e-08 -9.9534441e-07 -4.2955772e-25 1.2117237e-05 4.4927959e-24 5.2220408e-39)
(2.1334778e-07 -2.1308273e-06 -1.3669979e-24 2.1796496e-05 1.2084316e-23 2.227099e-38)
(4.8408e-07 -4.0783995e-06 3.8468731e-24 3.5397208e-05 -2.9122848e-23 8.1253108e-38)
(1.0101153e-06 -7.2336057e-06 -5.7240286e-24 5.3652087e-05 3.7410903e-23 8.8209421e-38)
(1.9814043e-06 -1.2132183e-05 7.0271612e-25 7.732718e-05 -3.9860981e-24 6.8244271e-40)
(3.7045471e-06 -1.9484731e-05 -3.00604e-24 0.00010718471 1.4855242e-23 6.6421681e-39)
(6.6633086e-06 -3.0213352e-05 -6.9152196e-26 0.00014392905 2.9867134e-25 1.8942607e-42)
(1.1605182e-05 -4.5486609e-05 -1.8096522e-23 0.00018813334 6.8425726e-23 7.3741788e-38)
(1.9662348e-05 -6.6746818e-05 3.800594e-23 0.00024014597 -1.2608132e-22 1.8565924e-37)
(3.2516445e-05 -9.5721029e-05 4.1152529e-24 0.00029997929 -1.1995224e-23 1.262023e-39)
(5.2616455e-05 -0.00013440391 -5.2842194e-23 0.00036718777 1.3548583e-22 1.2237927e-37)
(8.3457138e-05 -0.00018499876 2.0961985e-23 0.00044075012 -4.7314454e-23 1.1474999e-38)
(0.00012992063 -0.00024980292 1.7087223e-23 0.00051897775 -3.3970246e-23 4.5920946e-39)
(0.00019867523 -0.00033102834 -1.3825396e-22 0.00059948115 2.4213697e-22 1.8298797e-37)
(0.00029861311 -0.00043055965 5.7023928e-22 0.00067923022 -8.7988792e-22 1.9184367e-36)
(0.00044129415 -0.00054967246 -4.4880178e-22 0.00075474236 6.1004946e-22 7.4092122e-37)
(0.00064135176 -0.00068876392 6.7078763e-22 0.00082241486 -8.0306104e-22 1.044706e-36)
(0.00091681521 -0.00084717827 -1.2254036e-21 0.00087898427 1.2919079e-21 2.233325e-36)
(0.0012893198 -0.0010232282 3.6814274e-22 0.00092204465 -3.4175074e-22 1.3114563e-37)
(0.0017842818 -0.0012145192 1.8402937e-22 0.00095050387 -1.5042555e-22 2.170342e-38)
(0.0024313505 -0.0014186433 -7.239086e-22 0.0009648323 5.2087467e-22 2.2565641e-37)
(0.0032643846 -0.001633827 3.0971908e-21 0.00096700453 -1.9623945e-21 2.8377202e-36)
(0.0043216047 -0.0018593593 5.4605502e-22 0.000959992 -3.044902e-22 6.1403375e-38)
(0.0056490403 -0.0020961757 -3.2974268e-21 0.00094663901 1.6200862e-21 1.6053486e-36)
(0.0073025919 -0.0023462982 4.288421e-21 0.00092942089 -1.8541932e-21 1.9684029e-36)
(0.009347127 -0.0026115618 -6.7610382e-22 0.00091061887 2.5733804e-22 3.6437412e-38)
(0.011859447 -0.0028942599 -7.613223e-21 0.00089176286 2.541126e-21 3.4253224e-36)
(0.014931237 -0.003196428 8.9673926e-22 0.00087355096 -2.6255082e-22 3.6304983e-38)
(0.018669747 -0.0035188903 7.822488e-21 0.00085607236 -2.0020304e-21 2.1065214e-36)
(0.023198612 -0.0038610846 2.2805629e-22 0.00083900551 -5.068052e-23 1.3241949e-39)
(0.028657805 -0.0042208138 -7.4180856e-21 0.00082178842 1.4466496e-21 1.1579149e-36)
(0.035202379 -0.0045939867 9.2762586e-21 0.00080373152 -1.576043e-21 1.4406063e-36)
(0.042999449 -0.0049740868 -4.6687223e-21 0.00078408856 6.8990557e-22 2.925774e-37)
(0.052222097 -0.005351238 6.0920655e-21 0.00076209543 -7.8228912e-22 4.0671995e-37)
(0.063038616 -0.0057109131 2.148273e-20 0.00073702395 -2.3903648e-21 4.1320774e-36)
(0.075595166 -0.006032463 5.3132856e-21 0.00070831404 -5.1094107e-22 2.0832119e-37)
(0.089989913 -0.0062878638 2.2741359e-20 0.00067580288 -1.8843663e-21 3.197558e-36)
(0.10623826 -0.0064414035 -3.1696831e-20 0.00064008448 2.252991e-21 5.2633572e-36)
(0.12422986 -0.0064514184 -3.1647867e-20 0.00060299604 1.9174822e-21 4.4649601e-36)
(0.14368343 -0.0062751621 -5.8601067e-21 0.0005681489 3.0027712e-22 1.3070624e-37)
(0.1641193 -0.0058769174 4.9754061e-20 0.0005413399 -2.1288913e-21 8.3346905e-36)
(0.18484019 -0.0052394693 -2.5066461e-20 0.00053063894 8.8257442e-22 1.8554321e-36)
(0.20500262 -0.0043795441 -9.1654592e-21 0.00054533278 2.6024294e-22 2.2123259e-37)
(0.22369389 -0.0033362447 5.0955373e-21 0.00059243862 -1.1319785e-22 6.2911825e-38)
(0.24002623 -0.0021625705 1.6545001e-20 0.00067219938 -2.7394508e-22 6.0495967e-37)
(0.25324879 -0.00094136989 -8.3163981e-21 0.00077894286 9.569273e-23 1.4284419e-37)
(0.26280829 0.0002572909 1.5385315e-20 0.00090558534 -1.0519633e-22 4.6249448e-37)
(0.26837939 0.0013932489 9.3601042e-20 0.0010484502 -2.4453908e-22 1.6504132e-35)
(0.26983179 0.0024295032 4.4766532e-21 0.0012127541 6.0407721e-24 3.7071386e-38)
(0.26730075 0.0033195577 -2.0066021e-20 0.0014095179 -9.822897e-23 7.4023059e-37)
(0.26125692 0.0039972604 4.4014496e-20 0.0016513912 3.6850235e-22 3.60371e-36)
(0.25263252 0.0043861747 -3.6736432e-20 0.0019497873 -4.3149364e-22 2.5834585e-36)
(0.24260253 0.0044530333 1.010167e-19 0.0023119608 1.5212608e-21 2.0450992e-35)
(0.23251759 0.0042288488 2.7703646e-20 0.002734698 5.1531092e-22 1.6368719e-36)
(0.2233663 0.0037802468 -7.4218608e-20 0.0032060772 -1.6557079e-21 1.2778903e-35)
(0.2157679 0.0032779573 1.1921216e-20 0.0036963557 3.2233763e-22 3.6342366e-37)
(0.20959587 0.0029149759 1.268254e-20 0.0042015109 4.0997655e-22 4.6793026e-37)
(0.20372902 0.0029834809 2.3444854e-21 0.0048239323 9.1520118e-23 1.867981e-38)
(0.19734892 0.0035604932 -2.8455452e-20 0.0059023886 -1.3480678e-21 3.2806533e-36)
(0.18635276 0.0041464967 4.9467347e-20 0.007735739 2.7467141e-21 1.2430442e-35)
(0.17424862 0.0042366038 1.3114633e-20 0.0094588883 7.9720915e-22 1.1136579e-36)
(0.15212749 0.0036382655 1.8494878e-20 0.0098136472 1.1986463e-21 3.0751878e-36)
(3.1670611e-09 -4.521548e-08 2.6061117e-25 6.4553947e-07 -3.4775731e-24 2.1244633e-38)
(3.6102383e-08 -4.689326e-07 -3.9105881e-25 6.0923611e-06 4.7834454e-24 8.1129278e-39)
(1.2838149e-07 -1.5339726e-06 -1.7702704e-25 1.8340912e-05 1.9751233e-24 5.7361405e-40)
(3.2604836e-07 -3.5687604e-06 2.5285729e-25 3.9112524e-05 -2.5735755e-24 5.1547744e-40)
(7.0079738e-07 -7.0153076e-06 -1.7459578e-24 7.0373201e-05 1.6233516e-23 1.2097917e-38)
(1.3657265e-06 -1.2476205e-05 -1.7931066e-25 0.00011431642 1.5244673e-24 6.6833801e-41)
(2.4961308e-06 -2.0757875e-05 -3.0868607e-24 0.00017332293 2.3976768e-23 1.0903081e-38)
(4.3596601e-06 -3.292098e-05 -4.415237e-24 0.00024988628 3.1287957e-23 1.2642884e-38)
(7.359974e-06 -5.0338108e-05 4.7307029e-23 0.0003464933 -3.0527032e-22 8.43367e-37)
(1.2098439e-05 -7.4753644e-05 -5.4873626e-23 0.00046544943 3.2182314e-22 6.7115221e-37)
(1.9459898e-05 -0.00010833956 3.3864208e-23 0.00060864005 -1.8015607e-22 1.53365e-37)
(3.0729603e-05 -0.00015373689 6.3618385e-23 0.00077722454 -3.0642912e-22 3.2834836e-37)
(4.7749213e-05 -0.00021406839 -1.6090268e-22 0.00097126933 7.0040356e-22 1.2866878e-36)
(7.3119494e-05 -0.0002929028 -2.530364e-23 0.0011893426 9.9362892e-23 1.9627228e-38)
(0.00011045564 -0.000394148 1.2349565e-22 0.0014281154 -4.3667931e-22 2.9097117e-37)
(0.00016469707 -0.00052185051 1.0692908e-22 0.001682044 -3.3985699e-22 1.3652847e-37)
(0.00024246645 -0.00067988667 -1.5546652e-22 0.0019432346 4.4334613e-22 1.8195811e-37)
(0.00035246278 -0.00087155002 7.0232051e-22 0.0022016168 -1.793773e-21 2.3581227e-36)
(0.00050586176 -0.0010990738 -5.150686e-22 0.0024455417 1.1761626e-21 8.1285079e-37)
(0.00071668862 -0.0013631771 3.1430952e-22 0.0026628772 -6.4059472e-22 1.9562242e-37)
(0.0010021286 -0.0016627755 -1.2978432e-21 0.0028425586 2.3572929e-21 2.1838472e-36)
(0.0013827548 -0.00199503 -4.1033175e-22 0.0029763878 6.6321164e-22 1.4468366e-37)
(0.0018827362 -0.0023559133 1.0315044e-21 0.0030606809 -1.4817528e-21 6.1538949e-37)
(0.0025303143 -0.0027414228 -1.8551618e-21 0.0030972514 2.3654997e-21 1.3596931e-36)
(0.0033580926 -0.0031488698 -8.6621233e-22 0.0030933018 9.7912407e-22 2.0544113e-37)
(0.004402679 -0.0035775035 1.2178076e-21 0.0030597598 -1.2201641e-21 2.8908625e-37)
(0.0057082377 -0.0040294859 8.0623066e-21 0.0030074773 -7.1471004e-21 9.0948764e-36)
(0.0073289563 -0.0045092145 4.2216869e-21 0.0029455305 -3.3073598e-21 1.8202942e-36)
(0.0093271823 -0.0050208318 -2.4121604e-21 0.0028812459 1.6692665e-21 4.4481978e-37)
(0.01177676 -0.0055690088 2.9650708e-21 0.0028194166 -1.8058633e-21 5.010758e-37)
(0.014765485 -0.006157925 -2.0943835e-21 0.0027619864 1.1236353e-21 1.9376994e-37)
(0.018395876 -0.0067897013 -1.3501966e-20 0.0027087253 6.3537684e-21 6.1603764e-36)
(0.022785619 -0.0074639522 5.1039195e-21 0.0026580155 -2.1057905e-21 6.8792792e-37)
(0.028067326 -0.0081773412 1.7159642e-20 0.002607525 -6.1982829e-21 6.1285018e-36)
(0.034386914 -0.0089230439 -6.3932416e-21 0.0025546044 2.0213596e-21 6.848354e-37)
(0.041900069 -0.0096897049 -1.0032e-20 0.0024964193 2.7696578e-21 1.3506218e-36)
(0.05076556 -0.010459661 1.9356952e-20 0.0024299181 -4.6626429e-21 4.0890972e-36)
(0.061133703 -0.011206527 6.5682214e-21 0.0023518545 -1.3778183e-21 3.846537e-37)
(0.073128163 -0.011892448 -1.2848422e-20 0.0022590671 2.34463e-21 1.2312181e-36)
(0.086819379 -0.012465739 -5.6501091e-21 0.0021491903 8.9436063e-22 2.002917e-37)
(0.10218912 -0.012860255 2.9759169e-20 0.0020219542 -4.0693522e-21 4.6784483e-36)
(0.11908764 -0.01299856 -9.1109726e-21 0.001881227 1.0702418e-21 3.7978256e-37)
(0.13718991 -0.012800622 -1.4294604e-20 0.0017373603 1.4353408e-21 8.031623e-37)
(0.15596694 -0.012199468 -4.1071746e-20 0.0016090765 3.4900899e-21 5.7681387e-36)
(0.17468042 -0.011164298 8.3179811e-20 0.0015237724 -5.9032003e-21 2.0987858e-35)
(0.19246731 -0.0097281857 -5.7013323e-20 0.0015129161 3.3254796e-21 8.8292284e-36)
(0.20842621 -0.0079775873 -1.5154079e-20 0.0015978512 7.1297723e-22 5.6257577e-37)
(0.22173092 -0.0060236489 -6.2193605e-20 0.0017764368 2.2775174e-21 8.8184261e-36)
(0.23173556 -0.0040092696 -7.6900347e-20 0.0020281015 2.1011352e-21 1.2651234e-35)
(0.23805543 -0.0020644603 -4.0043282e-21 0.0023220447 7.8170627e-23 3.2456443e-38)
(0.24056216 -0.00027392082 1.7166137e-20 0.0026366916 -1.9129214e-22 5.7867122e-37)
(0.23933504 0.0013005539 -1.2641688e-19 0.0029760803 4.6425437e-22 3.1063156e-35)
(0.23471076 0.0025808923 -5.3564476e-20 0.0033609854 -1.5868135e-22 5.588117e-36)
(0.2273582 0.0034514246 -5.4206483e-20 0.0038109499 -5.0180307e-22 5.8296253e-36)
(0.21837124 0.0038067371 -1.7385636e-20 0.0043295068 -2.723273e-22 6.2080425e-37)
(0.20903 0.0036202313 -1.2984443e-19 0.0049009604 -2.7782606e-21 3.6579324e-35)
(0.20069958 0.002991293 4.9464386e-20 0.0054885515 1.3846577e-21 5.6886572e-36)
(0.1942417 0.0021002763 -1.4246862e-20 0.0060400952 -4.9055967e-22 5.1967003e-37)
(0.18996725 0.0012695451 -1.1015699e-19 0.0064898974 -4.6780862e-21 3.4576418e-35)
(0.1874056 0.00081731492 -4.075682e-20 0.0067987516 -2.1197449e-21 5.4164869e-36)
(0.18474468 0.0011356921 4.4479872e-20 0.0070787742 2.8152939e-21 7.6398225e-36)
(0.1809478 0.0022683131 1.3856502e-19 0.0077464492 1.0682908e-20 9.015622e-35)
(0.17114301 0.0033855624 -3.9036583e-20 0.009239432 -3.5694944e-21 9.1927205e-36)
(0.1605049 0.0040693166 -5.5060301e-20 0.010611445 -5.7119736e-21 2.3879551e-35)
(0.13877086 0.0039391556 -1.9679488e-20 0.010568416 -2.2951055e-21 4.3799686e-36)
(1.2600227e-08 -1.2809154e-07 -1.7135079e-24 1.3021574e-06 1.6843042e-23 2.3825871e-37)
(1.2987031e-07 -1.2636841e-06 5.2977256e-24 1.2296465e-05 -4.9895956e-23 4.2175523e-37)
(4.247179e-07 -3.9660072e-06 -3.1147686e-24 3.7037907e-05 2.7972646e-23 5.512179e-38)
(9.912122e-07 -8.8499718e-06 4.8839565e-25 7.9031752e-05 -4.1749729e-24 6.5116955e-40)
(1.9627207e-06 -1.6708911e-05 -1.3213929e-23 0.00014229339 1.0738656e-22 2.5437184e-37)
(3.5314853e-06 -2.8574015e-05 1.8160452e-23 0.00023132032 -1.4009299e-22 2.7215729e-37)
(5.9724865e-06 -4.5769604e-05 -3.5868174e-23 0.0003510185 2.6202847e-22 6.257814e-37)
(9.676269e-06 -6.9974897e-05 2.1649309e-23 0.00050656046 -1.4933293e-22 1.3840594e-37)
(1.5194513e-05 -0.0001032923 1.0452238e-22 0.00070315345 -6.7858764e-22 1.9984159e-36)
(2.3301761e-05 -0.00014831485 -3.1653531e-23 0.00094569526 1.9276998e-22 1.15384e-37)
(3.5078095e-05 -0.00020818445 -1.5103911e-22 0.0012382985 8.5992388e-22 1.6707894e-36)
(5.2018127e-05 -0.00028662753 5.7500204e-23 0.0015836726 -3.0500348e-22 1.5538163e-37)
(7.6172203e-05 -0.00038794971 4.76725e-24 0.0019823728 -2.3477895e-23 6.923287e-40)
(0.00011032525 -0.0005169657 -2.3192734e-22 0.0024319551 1.0570159e-21 1.0571911e-36)
(0.00015821743 -0.00067883705 8.9732718e-22 0.0029261222 -3.771419e-21 1.0300549e-35)
(0.00022480743 -0.00087879209 -6.7966816e-22 0.0034540072 2.625401e-21 3.8599215e-36)
(0.00031657475 -0.001121713 -7.9732556e-24 0.0039998014 2.8209645e-23 3.4789549e-40)
(0.00044184982 -0.0014116 5.6765896e-22 0.0045429868 -1.833397e-21 1.1620604e-36)
(0.00061115411 -0.0017509666 -1.7623649e-21 0.0050594379 5.1787542e-21 7.4144438e-36)
(0.00083752761 -0.0021402825 1.0123286e-21 0.0055235714 -2.6978212e-21 1.6310794e-36)
(0.0011368238 -0.0025776489 1.828289e-21 0.0059115144 -4.4050669e-21 3.5761269e-36)
(0.0015279639 -0.00305893 8.917048e-22 0.0062049134 -1.9366473e-21 5.7698507e-37)
(0.0020331923 -0.0035785572 -5.2704984e-21 0.0063945961 1.0291105e-20 1.3877234e-35)
(0.0026785832 -0.0041311816 -3.2712283e-21 0.0064829847 5.7272137e-21 3.7219718e-36)
(0.0034947242 -0.0047136892 2.4873778e-21 0.0064842277 -3.8965904e-21 1.5266503e-36)
(0.0045158172 -0.0053257233 -1.7008971e-21 0.0064212197 2.3777485e-21 5.1041974e-37)
(0.0057831998 -0.0059712159 7.391603e-21 0.0063181538 -9.2077605e-21 7.0522801e-36)
(0.0073481617 -0.0066572957 -2.4519538e-21 0.0061948218 2.7153347e-21 5.7376823e-37)
(0.0092692389 -0.0073905644 7.5826699e-21 0.0060664979 -7.4503709e-21 4.1221494e-36)
(0.011615685 -0.0081781607 -4.8907829e-21 0.0059435526 4.2543184e-21 1.3063378e-36)
(0.014469179 -0.009026336 3.4473338e-21 0.0058303488 -2.6477654e-21 4.9750416e-37)
(0.017924894 -0.0099384128 -1.4299236e-20 0.0057264285 9.685986e-21 6.6855173e-36)
(0.022091287 -0.010913987 2.3126067e-21 0.0056282667 -1.3793676e-21 1.3823756e-37)
(0.027089603 -0.01194831 -1.3756421e-20 0.0055307214 7.208758e-21 3.865515e-36)
(0.033051724 -0.013031487 1.4747078e-20 0.005427927 -6.7851906e-21 3.5724201e-36)
(0.040115943 -0.014146953 5.2967536e-21 0.0053135264 -2.1357066e-21 3.6938345e-37)
(0.048419509 -0.015268903 -7.3104261e-20 0.0051805294 2.583027e-20 5.8262908e-35)
(0.058086136 -0.016358782 -2.1164356e-20 0.0050212815 6.5389943e-21 4.0223329e-36)
(0.069206832 -0.017361411 1.932285e-20 0.0048279947 -5.2115259e-21 2.8060596e-36)
(0.081812701 -0.018201752 -2.0842377e-20 0.004594254 4.8947246e-21 2.749485e-36)
(0.095839749 -0.018784298 5.882973e-21 0.0043179481 -1.1981503e-21 1.8458737e-37)
(0.11108773 -0.018998024 3.9846605e-20 0.0040059135 -7.0167556e-21 7.34134e-36)
(0.12718031 -0.018729748 -1.985849e-21 0.0036794968 3.0078833e-22 1.6048234e-38)
(0.14354026 -0.017888817 -1.5555311e-20 0.003379203 2.0014375e-21 8.4618436e-37)
(0.15941479 -0.016446039 8.007029e-21 0.0031653578 -8.5922955e-22 2.0311911e-37)
(0.17398644 -0.014469664 -4.3849694e-21 0.0031049536 3.9391803e-22 5.1087843e-38)
(0.18643402 -0.012103074 -1.2980608e-20 0.0032398848 9.4613003e-22 4.2853568e-37)
(0.19608464 -0.0095333244 2.0653647e-19 0.0035624222 -1.1936054e-20 1.0214941e-34)
(0.2025173 -0.0069730632 -2.3811548e-20 0.0040217941 1.0322463e-21 1.2796287e-36)
(0.20558633 -0.0045889372 2.2428064e-20 0.0045452573 -7.0426563e-22 1.0897647e-36)
(0.20536505 -0.00247681 -2.1287691e-19 0.0050841364 4.258888e-21 9.5722115e-35)
(0.2021001 -0.00070905298 1.1652766e-19 0.0056448223 -1.1209794e-21 2.8468479e-35)
(0.19627856 0.0006066548 9.4949085e-20 0.0062679166 4.49772e-23 1.9038675e-35)
(0.18871125 0.0013194928 8.8769846e-20 0.0069854724 8.7090624e-22 1.7091519e-35)
(0.18058575 0.0013182032 8.2938687e-20 0.007790996 1.5636383e-21 1.5586e-35)
(0.17318842 0.00061799621 1.2509688e-19 0.0086354002 3.4861358e-21 3.7721134e-35)
(0.16768616 -0.00057699723 -2.3833058e-19 0.0094337111 -8.9432598e-21 1.4815373e-34)
(0.16462533 -0.0019538636 1.3847063e-19 0.010079439 6.6247035e-21 5.5241653e-35)
(0.1637567 -0.0030294439 1.9609529e-19 0.010455388 1.1663289e-20 1.2544741e-34)
(0.16413336 -0.0033593821 -1.3286938e-19 0.010472983 -9.8023678e-21 6.6862271e-35)
(0.16316081 -0.0025231286 -3.8501912e-20 0.010271053 -3.4850226e-21 6.7652078e-36)
(0.15986421 -0.00057961238 -3.0002973e-20 0.010336273 -3.3235768e-21 5.1293238e-36)
(0.14904069 0.0011138738 1.3280236e-19 0.011306452 1.7867292e-20 1.3283564e-34)
(0.13759035 0.0024037448 8.3915231e-20 0.012057514 1.3067509e-20 7.16686e-35)
(0.11513387 0.0028286661 -2.9623188e-21 0.011412755 -5.3250479e-22 1.3909693e-37)
(3.3890135e-08 -2.657882e-07 2.0033774e-24 2.0844832e-06 -1.5406364e-23 1.1813189e-37)
(3.3531321e-07 -2.5701487e-06 -1.2683832e-23 1.9700129e-05 9.5223059e-23 9.1047604e-37)
(1.0574196e-06 -7.9240837e-06 1.6449718e-23 5.9382814e-05 -1.2015771e-22 6.0501251e-37)
(2.3735671e-06 -1.7349191e-05 -8.7743115e-24 0.00012681737 6.2273311e-23 8.6382715e-38)
(4.5150818e-06 -3.2121604e-05 -4.2473773e-24 0.00022854304 2.9250848e-23 1.1270892e-38)
(7.7938429e-06 -5.3835812e-05 4.7566956e-23 0.00037192376 -3.1738599e-22 8.3428602e-37)
(1.2628763e-05 -8.446478e-05 -1.5366339e-23 0.00056504751 9.912514e-23 5.3498233e-38)
(1.9580142e-05 -0.00012642237 -4.1032424e-23 0.00081651933 2.5523775e-22 2.4108296e-37)
(2.9395262e-05 -0.00018262743 -3.9145156e-24 0.0011351122 2.3410984e-23 1.4183984e-39)
(4.3067288e-05 -0.00025655998 -4.1064939e-23 0.0015292373 2.3538944e-22 1.0228119e-37)
(6.1910873e-05 -0.00035229944 7.0587962e-23 0.002006199 -3.8652504e-22 2.0036054e-37)
(8.7657877e-05 -0.00047452906 -5.9966964e-23 0.002571209 3.12598e-22 9.6664927e-38)
(0.00012257701 -0.00062848707 -2.6937635e-22 0.003226166 1.3320103e-21 1.3102763e-36)
(0.00016962061 -0.00081983964 -9.5344111e-24 0.0039682492 4.4557006e-23 1.1037577e-39)
(0.00023260093 -0.0010544493 3.0396266e-22 0.0047884487 -1.3372302e-21 7.6161464e-37)
(0.00031639665 -0.001338017 2.609944e-22 0.0056702554 -1.0766618e-21 3.8066012e-37)
(0.00042718729 -0.0016755884 -2.7180342e-22 0.0065888398 1.0471129e-21 2.8047951e-37)
(0.00057271054 -0.0020709464 3.1389341e-23 0.0075111547 -1.1245592e-22 2.5674755e-39)
(0.00076253416 -0.00252596 7.7036795e-22 0.0083974308 -2.5559368e-21 1.0513321e-36)
(0.001008334 -0.0030400258 1.1269608e-21 0.0092044366 -3.4478644e-21 1.545822e-36)
(0.0013241743 -0.0036098131 -1.5371651e-21 0.0098905621 4.3183627e-21 1.9906031e-36)
(0.0017267973 -0.0042295628 -1.8388154e-21 0.010422232 4.7238669e-21 1.9881591e-36)
(0.0022359444 -0.0048921566 2.9241527e-21 0.01078043 -6.8420116e-21 3.5447795e-36)
(0.0028748938 -0.0055911258 -4.2503778e-21 0.010965484 9.0232137e-21 5.3375998e-36)
(0.0036714734 -0.0063233636 -8.5940872e-21 0.010998143 1.6492803e-20 1.5741772e-35)
(0.0046570678 -0.0070896714 2.3446594e-20 0.01091579 -4.0544902e-20 8.583261e-35)
(0.0058693591 -0.0078965014 -1.4845179e-20 0.010761481 2.3060668e-20 2.553766e-35)
(0.0073553474 -0.0087538399 2.5153604e-20 0.010569653 -3.4997012e-20 5.5081273e-35)
(0.0091691036 -0.0096713378 -3.5733069e-20 0.010366668 4.4404959e-20 8.4645746e-35)
(0.011373873 -0.01065874 4.5152413e-20 0.010171245 -4.9972104e-20 1.0408109e-34)
(0.014043318 -0.011724209 -5.2619462e-20 0.0099918237 5.1734462e-20 1.1011811e-34)
(0.017263078 -0.012872161 9.9327897e-21 0.0098281441 -8.6573037e-21 3.0972335e-36)
(0.021129678 -0.014101908 3.8470022e-20 0.009674316 -2.9653369e-20 3.679601e-35)
(0.025749722 -0.015406952 -2.4216192e-20 0.0095213652 1.6483512e-20 1.1698918e-35)
(0.031237216 -0.016773947 8.4223987e-21 0.0093588656 -5.0550345e-21 1.1471801e-36)
(0.037708687 -0.018180752 2.7134746e-21 0.0091753729 -1.434875e-21 9.8292355e-38)
(0.04527484 -0.019593127 3.723763e-20 0.008958167 -1.7305567e-20 1.5059446e-35)
(0.054027341 -0.020960305 1.3408451e-20 0.008693166 -5.4719976e-21 1.6150359e-36)
(0.064019222 -0.022210231 1.488362e-20 0.0083658158 -5.3211851e-21 1.6611282e-36)
(0.075237916 -0.023245837 1.6016732e-20 0.0079637473 -5.0082322e-21 1.644436e-36)
(0.087571696 -0.023944964 -8.8773601e-20 0.0074820643 2.4180417e-20 4.3230633e-35)
(0.10077272 -0.024167848 4.2154973e-20 0.0069318339 -9.956729e-21 8.4233803e-36)
(0.11442459 -0.023776541 7.30556e-21 0.0063504764 -1.491026e-21 2.1536919e-37)
(0.12793204 -0.022672029 -8.9023843e-20 0.0058109532 1.5487904e-20 2.8925451e-35)
(0.14058711 -0.020850842 -4.7917329e-20 0.0054214943 7.0582009e-21 7.474467e-36)
(0.15168333 -0.0184392 2.4696062e-20 0.0052962893 -3.0455131e-21 1.8133586e-36)
(0.16058517 -0.015648572 9.3884261e-20 0.0054961837 -9.4513533e-21 2.3981459e-35)
(0.16685489 -0.012738118 -4.2101924e-20 0.0059979924 3.4154499e-21 4.5333778e-36)
(0.17030749 -0.0099599233 1.2626421e-19 0.0067017604 -7.7911258e-21 3.8563878e-35)
(0.17096937 -0.0074840894 6.965568e-20 0.0074759908 -3.1432164e-21 1.13329e-35)
(0.1690326 -0.0053908205 9.6577743e-20 0.0082417174 -2.936792e-21 2.1405744e-35)
(0.16483169 -0.0037498959 2.5841389e-19 0.0090192598 -4.047513e-21 1.5286413e-34)
(0.15893572 -0.0026969434 -1.9687306e-19 0.0098831535 4.8894139e-22 9.025859e-35)
(0.15224452 -0.0024142662 6.2780745e-20 0.010882472 7.2623397e-22 9.466321e-36)
(0.14596773 -0.0029980576 -1.0407943e-19 0.011994715 -2.3544014e-21 2.7509268e-35)
(0.14127301 -0.0043567652 -9.4635789e-20 0.013126456 -3.3598295e-21 2.4408073e-35)
(0.13897505 -0.0061486702 -3.5051728e-20 0.014133493 -1.7287971e-21 3.6715563e-36)
(0.1391644 -0.0079037104 -2.993438e-19 0.014842149 -1.8602401e-20 2.9943895e-34)
(0.14086414 -0.008990724 -7.4576539e-20 0.015079306 -5.82921e-21 2.135357e-35)
(0.14263434 -0.0088660117 1.5599098e-19 0.014689545 1.5294301e-20 1.1045988e-34)
(0.14116087 -0.0072075169 5.2879883e-20 0.013866825 6.5003898e-21 1.5688275e-35)
(0.13594485 -0.0043181459 -3.4779327e-20 0.013178111 -5.2990741e-21 8.7383498e-36)
(0.12258801 -0.0021032558 -6.123076e-20 0.013467534 -1.1427324e-20 3.7345863e-35)
(0.10874252 -0.00032460031 -8.0253532e-20 0.013393268 -1.7812335e-20 9.0532902e-35)
(0.086125019 0.0005469307 4.8056108e-21 0.012010371 1.2591359e-21 5.2643701e-37)
(7.1461107e-08 -4.5386071e-07 9.1216031e-24 2.8825416e-06 -5.7188576e-23 1.0967058e-36)
(6.9312234e-07 -4.3476651e-06 6.0736755e-24 2.7271164e-05 -3.7536072e-23 9.5522637e-38)
(2.1461086e-06 -1.3288686e-05 -7.719894e-24 8.228427e-05 4.6917903e-23 6.2618432e-38)
(4.7211455e-06 -2.8818403e-05 -3.9725408e-23 0.00017591471 2.3722204e-22 8.5358567e-37)
(8.79048e-06 -5.2820747e-05 2.88069e-23 0.00031740535 -1.6886069e-22 2.5617774e-37)
(1.483146e-05 -8.7583352e-05 -5.3320088e-23 0.00051723534 3.0644881e-22 5.3056472e-37)
(2.34543e-05 -0.00013585641 2.9080191e-23 0.00078701282 -1.6360293e-22 9.9297607e-38)
(3.5435674e-05 -0.00020090631 8.6025596e-24 0.0011392264 -4.7280051e-23 5.6307121e-39)
(5.176105e-05 -0.00028656232 -5.9803191e-23 0.0015868045 3.2035588e-22 1.8030926e-37)
(7.3676373e-05 -0.00039724413 -1.5701516e-22 0.0021424253 8.1772727e-22 8.3701409e-37)
(0.00010275109 -0.00053795836 -9.5611596e-24 0.0028175205 4.8280268e-23 2.1074717e-39)
(0.00014095403 -0.00071424678 3.7690969e-22 0.0036209281 -1.8397114e-21 2.2591714e-36)
(0.000190744 -0.00093206634 -6.267952e-22 0.004557181 2.9480966e-21 4.3197465e-36)
(0.00025517664 -0.0011975785 1.213712e-21 0.0056244773 -5.4822385e-21 1.1250227e-35)
(0.00033802874 -0.0015168271 -3.7974804e-22 0.0068124753 1.6413041e-21 7.6726112e-37)
(0.00044394108 -0.0018952915 9.6470459e-22 0.0081001931 -3.9743035e-21 3.4568768e-36)
(0.00057858061 -0.0023373225 -1.3922071e-21 0.0094544633 5.4444335e-21 5.0405983e-36)
(0.00074882287 -0.0028454984 1.0776135e-21 0.010829563 -3.982976e-21 2.1190503e-36)
(0.00096295739 -0.0034199946 -2.0240407e-22 0.012168748 7.0384477e-22 5.2680417e-38)
(0.0012309216 -0.0040581216 -9.739273e-22 0.013408342 3.1714175e-21 8.6195374e-37)
(0.0015645748 -0.0047542542 2.7987643e-21 0.014484684 -8.4929887e-21 5.0589176e-36)
(0.0019780321 -0.0055004072 -4.6496998e-21 0.015343451 1.3084722e-20 9.9994005e-36)
(0.0024880797 -0.0062876547 5.9225371e-21 0.015949812 -1.5380952e-20 1.1716943e-35)