/*--------------------------------*- C++ -*----------------------------------*\
  =========                 |
  \\      /  F ield         | OpenFOAM: The Open Source CFD Toolbox
   \\    /   O peration     | Website:  https://openfoam.org
    \\  /    A nd           | Version:  13
     \\/     M anipulation  |
\*---------------------------------------------------------------------------*/
FoamFile
{
    format      ascii;
    class       volVectorField;
    location    "38.001394";
    object      U;
}
// * * * * * * * * * * * * * * * * * * * * * * * * * * * * * * * * * * * * * //

dimensions      [0 1 -1 0 0 0 0];

internalField   nonuniform List<vector> 
17140
(
(-1.8549289e-06 0.00012926992 3.2135057e-23)
(-7.2260145e-06 0.00039947361 3.5568686e-24)
(-1.535912e-05 0.00069778545 -2.3467206e-22)
(-2.7079112e-05 0.0010279708 2.5778941e-22)
(-4.3358313e-05 0.001394141 -3.0108405e-23)
(-6.5435471e-05 0.0018007362 9.8433942e-23)
(-9.4856258e-05 0.0022524987 1.6549091e-22)
(-0.000133514 0.0027544267 -8.0634285e-23)
(-0.00018372937 0.003311707 -2.6340181e-22)
(-0.00024833339 0.0039296181 -6.4439367e-22)
(-0.00033076767 0.004613399 9.5240193e-22)
(-0.00043519671 0.0053680764 -8.4540872e-22)
(-0.0005666369 0.0061982416 -1.288102e-22)
(-0.00073109968 0.0071077706 7.2395563e-22)
(-0.00093574831 0.0080994784 -7.9812647e-23)
(-0.0011890645 0.0091747012 6.2685863e-22)
(-0.001501019 0.010332803 -2.3039675e-23)
(-0.0018832371 0.011570606 5.1650636e-24)
(-0.0023491441 0.012881754 3.5725397e-22)
(-0.0029140716 0.014256028 -4.5514458e-22)
(-0.003595297 0.015678644 2.1495475e-22)
(-0.0044119779 0.017129595 -4.0030857e-23)
(-0.0053849368 0.018583117 -2.8729715e-22)
(-0.006536235 0.020007408 2.786182e-22)
(-0.0078884675 0.021364751 4.2946344e-22)
(-0.0094637017 0.022612315 -3.3364635e-22)
(-0.011281993 0.023703938 -1.584704e-21)
(-0.013359442 0.024593414 -1.8044948e-22)
(-0.015705878 0.025239856 1.5253764e-21)
(-0.018322457 0.02561562 3.4397414e-22)
(-0.021199859 0.025716079 1.1788184e-21)
(-0.024318133 0.025567624 -1.4838542e-21)
(-0.027649215 0.02522701 3.6915798e-22)
(-0.031162007 0.024767542 1.6719476e-22)
(-0.034827796 0.024258394 1.5535285e-21)
(-0.038623165 0.023750436 -6.4389849e-22)
(-0.04252978 0.023274555 9.2560041e-22)
(-0.046532765 0.022847558 6.0032056e-22)
(-0.050619582 0.022478788 2.6538534e-22)
(-0.054780148 0.022174343 -7.8309171e-22)
(-0.059008072 0.021938653 -1.4541966e-21)
(-0.063303376 0.021773849 -1.3081295e-21)
(-0.067675207 0.021677461 -5.69849e-22)
(-0.072147503 0.02163865 2.787417e-21)
(-0.076766368 0.021629314 2.0552157e-21)
(-0.081599062 0.021594807 -5.0940953e-22)
(-0.086741555 0.02144832 3.5105305e-21)
(-0.092324724 0.021051672 1.2063594e-21)
(-0.098510004 0.02019204 -1.2433694e-21)
(-0.10549229 0.018546855 -3.0801797e-21)
(-0.1134754 0.015631213 1.9144989e-21)
(-0.12268277 0.010704965 1.2212018e-21)
(-0.13323902 0.0026617038 -3.2084603e-21)
(-0.14522655 -0.010132962 -1.5269321e-21)
(-0.1581588 -0.029904536 -1.0817285e-21)
(-0.17139415 -0.059363147 8.5654124e-22)
(-0.18254413 -0.10043042 -2.2564934e-21)
(-0.18924952 -0.15258751 -1.8343237e-21)
(-0.18518423 -0.20846322 -4.324837e-22)
(-0.17052085 -0.25131866 1.075066e-21)
(-0.14618827 -0.25798041 8.0582041e-22)
(-0.1224058 -0.1873061 2.902749e-21)
(-0.055937772 0.0029052612 3.936961e-22)
(0.085168141 0.25415118 -2.3659297e-21)
(0.21309125 0.40038079 1.0066048e-21)
(-6.6716346e-06 0.00016085715 -9.1705942e-24)
(-2.2203457e-05 0.0004972923 1.234511e-21)
(-4.1421727e-05 0.00086873778 -1.0979304e-21)
(-6.5397155e-05 0.0012795632 2.9907329e-22)
(-9.5175354e-05 0.0017345306 6.1728689e-22)
(-0.00013212823 0.0022387576 -1.1781961e-21)
(-0.0001779339 0.0027976873 1.2263956e-21)
(-0.0002346188 0.0034170349 -1.0774494e-22)
(-0.00030463169 0.004102707 3.356642e-22)
(-0.00039092393 0.0048606901 5.6807249e-24)
(-0.000497042 0.0056968987 1.1140244e-21)
(-0.00062723204 0.0066169758 -1.7628002e-21)
(-0.00078655853 0.0076260373 -1.4486087e-22)
(-0.00098103542 0.0087283504 1.4209067e-21)
(-0.0012177687 0.0099269376 -4.3292988e-22)
(-0.0015051067 0.011223098 -2.7235884e-22)
(-0.0018527926 0.012615841 1.7078137e-21)
(-0.00227211 0.014101232 -5.4848282e-21)
(-0.0027760082 0.015671655 3.3767926e-21)
(-0.003379189 0.017315018 -3.9676049e-21)
(-0.0040981281 0.019013929 5.7304477e-21)
(-0.0049509979 0.020744897 -1.3701374e-21)
(-0.0059574465 0.022477667 -5.487099e-22)
(-0.0071381795 0.024174792 1.742304e-21)
(-0.0085142781 0.025791649 -6.0693131e-21)
(-0.010106186 0.027277151 -8.774926e-22)
(-0.011932305 0.028575583 4.3917442e-21)
(-0.014007174 0.029630131 -4.763232e-21)
(-0.016339341 0.030388956 6.3240478e-22)
(-0.018929212 0.030814563 5.9795726e-21)
(-0.021767539 0.030896008 -5.9466708e-22)
(-0.024835469 0.030659896 -4.3886472e-21)
(-0.028106962 0.030171573 -1.0816537e-22)
(-0.031553365 0.029519817 2.9722132e-21)
(-0.03514816 0.028791367 -3.1445698e-21)
(-0.038869443 0.028052016 1.3456711e-21)
(-0.042699645 0.027343047 -1.5052592e-21)
(-0.04662412 0.026687825 -4.6005911e-21)
(-0.050630241 0.026100036 -9.9934525e-22)
(-0.054707662 0.025589362 -3.8137887e-21)
(-0.058849719 0.025164072 4.803673e-21)
(-0.063056216 0.024831033 4.397459e-21)
(-0.067336386 0.024593868 7.5328966e-22)
(-0.071714841 0.024449662 -6.0528624e-21)
(-0.076238746 0.024379071 2.9053476e-21)
(-0.080978053 0.024335838 1.0193513e-21)
(-0.086034014 0.02424267 -5.3710506e-22)
(-0.091545958 0.023970908 -1.7419231e-21)
(-0.097689306 0.023315103 8.595319e-22)
(-0.1046808 0.021956525 -1.6108649e-21)
(-0.1127594 0.019409589 -9.6933411e-21)
(-0.12220122 0.014920452 -4.5129591e-22)
(-0.13320838 0.007347244 2.0967043e-21)
(-0.14596388 -0.0050337913 -4.8407999e-21)
(-0.16009883 -0.024609886 4.1014148e-21)
(-0.17499706 -0.054378546 -1.1682052e-20)
(-0.18802782 -0.096642413 -3.3992517e-21)
(-0.19557735 -0.15140814 8.9679662e-21)
(-0.19230575 -0.21114184 -1.4676183e-21)
(-0.17634978 -0.257275 -1.5192528e-21)
(-0.15122971 -0.26558763 -2.7452602e-22)
(-0.12899405 -0.20003258 2.869455e-21)
(-0.080910687 -0.026097705 -5.5783087e-21)
(0.0286529 0.21361771 -5.3885425e-22)
(0.15683816 0.36926944 -1.2806546e-21)
(-1.3329856e-05 0.00019200432 -5.0643022e-22)
(-4.2739454e-05 0.00059375731 3.7400323e-22)
(-7.7227131e-05 0.0010373324 9.9412943e-23)
(-0.00011798651 0.0015276972 -9.4185054e-23)
(-0.00016621958 0.0020702454 4.5604708e-22)
(-0.0002234509 0.0026707541 3.3891278e-23)
(-0.00029151291 0.0033353488 4.3223433e-22)
(-0.00037258419 0.0040704428 4.6492346e-22)
(-0.00046925794 0.0048826455 -3.7912101e-21)
(-0.00058461517 0.0057786361 3.3760183e-21)
(-0.00072230856 0.0067649928 -1.610271e-21)
(-0.00088665626 0.0078479684 -2.350043e-21)
(-0.0010827475 0.009033204 4.6366402e-21)
(-0.0013165582 0.010325368 5.7056059e-22)
(-0.0015950756 0.011727714 -2.1858076e-21)
(-0.0019264277 0.013241541 -1.4889414e-21)
(-0.0023200132 0.01486556 1.7073235e-21)
(-0.0027866224 0.016595157 -6.0985125e-21)
(-0.0033385376 0.018421558 3.5474203e-21)
(-0.0039895959 0.020330926 -1.7227845e-21)
(-0.0047551897 0.022303407 5.6874631e-21)
(-0.0056521751 0.024312204 1.44442e-21)
(-0.0066986467 0.026322758 -2.9370452e-21)
(-0.0079135299 0.028292177 4.2986731e-21)
(-0.0093159315 0.030169114 1.64475e-21)
(-0.010924188 0.031894395 -1.9149606e-21)
(-0.01275456 0.033402847 -1.0542881e-20)
(-0.014819578 0.034627061 -4.6252027e-21)
(-0.017126137 0.03550411 2.2325061e-21)
(-0.019673684 0.035986317 -2.3150037e-21)
(-0.022453079 0.036055856 1.3921369e-21)
(-0.025446911 0.035738799 7.5996424e-21)
(-0.028631796 0.035108377 -2.4393208e-21)
(-0.03198226 0.034268457 -6.9454695e-21)
(-0.035474584 0.033323431 2.1951954e-21)
(-0.039088708 0.032354382 2.9403304e-21)
(-0.042807897 0.031413343 -4.8810639e-21)
(-0.046617568 0.030530488 -1.4432847e-21)
(-0.05050465 0.029724004 2.4778025e-21)
(-0.054458033 0.029007293 9.6957863e-22)
(-0.058470083 0.028392644 -4.6409559e-21)
(-0.062539447 0.027891929 1.3170007e-21)
(-0.066674177 0.027515297 1.9065106e-21)
(-0.070897861 0.027268324 5.1530706e-21)
(-0.075256224 0.027141287 -9.9556059e-21)
(-0.079818504 0.027097753 6.5765597e-21)
(-0.084686624 0.027071722 1.7068717e-21)
(-0.090001993 0.026946226 6.8278052e-21)
(-0.095945202 0.026526553 8.3407331e-21)
(-0.10274263 0.0255025 4.2225891e-22)
(-0.11065241 0.023394764 -1.9541159e-21)
(-0.11998204 0.019444389 1.3950516e-20)
(-0.13098294 0.012484966 6.0255756e-21)
(-0.14390104 0.00070856322 6.230999e-21)
(-0.15843437 -0.01844343 2.1418985e-21)
(-0.17394804 -0.048334629 1.609339e-20)
(-0.18759738 -0.09201103 -6.699218e-21)
(-0.19547106 -0.14951665 2.0742205e-21)
(-0.18928995 -0.21337483 1.4540869e-20)
(-0.16900769 -0.26339547 5.1492176e-21)
(-0.1396406 -0.27330827 -5.0548944e-21)
(-0.11496497 -0.21115236 -1.5337083e-20)
(-0.07527581 -0.050652028 4.6734795e-21)
(0.0092988504 0.17593633 4.5844725e-21)
(0.13616275 0.33409257 1.0125229e-21)
(-2.1772785e-05 0.0002221569 1.7003376e-21)
(-6.8782186e-05 0.00068717636 -2.7035435e-21)
(-0.0001226267 0.001200637 9.769948e-22)
(-0.00018464273 0.0017680786 -1.0612857e-22)
(-0.00025621544 0.0023954996 2.0965231e-21)
(-0.00033904537 0.0030893093 -2.166839e-21)
(-0.00043514074 0.0038562882 3.2827591e-21)
(-0.00054685072 0.0047035212 -1.5418707e-21)
(-0.00067692718 0.0056382963 -5.8509882e-21)
(-0.00082858895 0.0066679644 1.4032482e-21)
(-0.0010055951 0.0077997524 5.3288565e-21)
(-0.0012123258 0.009040516 -1.6206105e-21)
(-0.0014538716 0.010396426 -1.0769213e-22)
(-0.0017361311 0.011872571 4.1977487e-21)
(-0.0020659128 0.013472471 -1.3041067e-20)
(-0.0024510409 0.015197489 7.9383572e-21)
(-0.0029004572 0.017046124 7.4884492e-23)
(-0.0034243131 0.019013204 -4.2939899e-21)
(-0.0040340406 0.021088954 1.0750622e-20)
(-0.0047423861 0.023257986 -4.9911251e-21)
(-0.0055633869 0.025498228 -7.3068279e-21)
(-0.0065122621 0.02777985 -2.8996012e-21)
(-0.0076051832 0.030064298 1.4018912e-20)
(-0.008858879 0.032303568 7.1547084e-21)
(-0.010290025 0.034439923 -4.5061841e-21)
(-0.011914365 0.036406409 2.564926e-21)
(-0.013745527 0.038128646 -9.3615172e-21)
(-0.015793557 0.039528754 2.621028e-21)
(-0.018063304 0.04053264 -6.875319e-21)
(-0.020552994 0.04108204 3.7785331e-21)
(-0.023253558 0.041151426 -2.2719278e-21)
(-0.026149296 0.04076514 8.0345498e-21)
(-0.029220032 0.040003048 -1.1086542e-21)
(-0.032444188 0.038983311 5.6172252e-21)
(-0.035801481 0.037827903 -5.13465e-21)
(-0.039274074 0.036633611 -1.5797872e-21)
(-0.042846143 0.035463735 1.8804544e-20)
(-0.046502991 0.034355626 4.7461585e-21)
(-0.050230731 0.033332191 -3.829054e-21)
(-0.054016934 0.032410692 3.6985464e-21)
(-0.057852238 0.031607565 -9.529178e-22)
(-0.061733092 0.030939892 -5.899561e-21)
(-0.06566497 0.03042466 2.7171999e-22)
(-0.069668549 0.030076375 2.0285709e-21)
(-0.073785337 0.029895645 -1.0112311e-21)
(-0.078080058 0.029857086 5.4007715e-22)
(-0.082649848 0.029907542 1.536016e-21)
(-0.087630702 0.029943773 -2.3747553e-20)
(-0.09319804 0.029784834 2.7370301e-21)
(-0.099572902 0.029133476 -2.5556147e-21)
(-0.10701256 0.027523716 2.4474732e-20)
(-0.11582766 0.024200005 -1.3555954e-20)
(-0.12627955 0.017982541 -1.1458845e-20)
(-0.13862433 0.006986376 -1.1149684e-20)
(-0.15255886 -0.01152629 -1.0938533e-20)
(-0.16734479 -0.041302532 -1.7190481e-20)
(-0.17989089 -0.085978512 3.4128793e-20)
(-0.18521005 -0.14688915 -2.0527308e-20)
(-0.17417476 -0.21578719 -2.8405466e-20)
(-0.14659648 -0.26974757 1.7912114e-20)
(-0.11040528 -0.28117835 4.8536055e-21)
(-0.080296871 -0.22123621 4.5634382e-21)
(-0.04186136 -0.069890458 -9.6310617e-21)
(0.027282124 0.14212786 -4.576491e-21)
(0.15427192 0.29661911 -9.0141765e-23)
(-3.1914535e-05 0.00025074922 -1.2005872e-21)
(-0.0001000685 0.00077579357 3.9832813e-21)
(-0.00017716292 0.0013555854 -3.2457455e-21)
(-0.00026469554 0.0019962038 1.2258314e-21)
(-0.00036425905 0.0027042158 4.4253382e-22)
(-0.00047775125 0.0034866262 -3.8043871e-21)
(-0.00060737539 0.0043508348 9.6235581e-22)
(-0.00075566777 0.0053045634 2.0407013e-21)
(-0.00092555142 0.0063557468 1.5626439e-22)
(-0.0011203899 0.0075123819 1.3249232e-21)
(-0.0013440484 0.0087823255 -1.8504642e-21)
(-0.0016009588 0.010173029 1.2818451e-21)
(-0.0018961916 0.0116912 4.7047753e-21)
(-0.0022355305 0.013342376 1.3624681e-22)
(-0.0026255509 0.015130396 -3.5561266e-21)
(-0.0030736955 0.017056766 -2.5004558e-21)
(-0.0035883459 0.019119899 2.1328532e-21)
(-0.004178881 0.021314222 -2.0199599e-22)
(-0.0048557131 0.023629177 -4.0621e-21)
(-0.0056302894 0.026048094 -4.8787581e-21)
(-0.0065150392 0.028547 5.4756906e-21)
(-0.0075232458 0.031093416 5.4054631e-21)
(-0.008668809 0.033645227 -7.1216432e-21)
(-0.0099658651 0.036149781 8.6168787e-21)
(-0.011428218 0.038543444 1.4580212e-20)
(-0.013068543 0.040751949 -3.3495316e-20)
(-0.014897341 0.042692116 1.796175e-20)
(-0.01692169 0.044275853 -2.5914507e-20)
(-0.019143952 0.045417891 3.1484159e-20)
(-0.021560802 0.046048939 -3.4126644e-20)
(-0.024163112 0.046134721 3.4172427e-20)
(-0.026937034 0.045696201 -5.5444733e-21)
(-0.02986606 0.044818047 -1.8417704e-20)
(-0.032933168 0.04363143 9.9405235e-21)
(-0.036122167 0.042275601 -2.9668077e-21)
(-0.039417866 0.040863517 -8.1990234e-22)
(-0.042805471 0.039470412 -9.7718004e-21)
(-0.046270009 0.038141329 -3.0750665e-21)
(-0.049796392 0.036904191 -3.0370936e-21)
(-0.053370268 0.035780249 -2.9261093e-21)
(-0.056979719 0.034790165 1.4789181e-20)
(-0.06061787 0.033956327 -6.4850737e-21)
(-0.064286074 0.03330277 -1.0457688e-21)
(-0.068000049 0.03285316 1.2126768e-20)
(-0.07179392 0.032618928 6.2379714e-21)
(-0.075723594 0.032586727 -3.0955184e-21)
(-0.079875402 0.03271745 -1.1555817e-20)
(-0.084371152 0.032923292 5.0677295e-21)
(-0.089368766 0.033039556 -1.5246508e-20)
(-0.095065699 0.032785755 -8.4631406e-21)
(-0.10169329 0.031715839 -1.1824891e-20)
(-0.109528 0.029085416 -3.2670808e-20)
(-0.11878683 0.023713515 2.5693943e-20)
(-0.12966727 0.013649815 -8.7288751e-21)
(-0.14177822 -0.0040213357 1.5056314e-20)
(-0.15420379 -0.033495992 1.4357091e-20)
(-0.16333132 -0.079300537 6.2371302e-21)
(-0.16310793 -0.14353752 5.0469109e-20)
(-0.14353931 -0.21766284 1.1997128e-20)
(-0.10545317 -0.27588321 -2.3340383e-20)
(-0.060119189 -0.2885724 -6.1997198e-21)
(-0.023985525 -0.23031723 4.0873436e-21)
(0.017292104 -0.085786036 5.9636969e-21)
(0.080733767 0.11214675 3.426407e-21)
(0.21307771 0.25795186 -1.0983896e-22)
(-4.3603156e-05 0.00027719332 -3.6688011e-21)
(-0.00013613177 0.00085779221 -1.2940595e-21)
(-0.0002400246 0.0014990092 1.0471706e-21)
(-0.00035695718 0.0022074213 3.8646537e-21)
(-0.00048875099 0.0029901182 -2.1159382e-21)
(-0.00063751945 0.0038546548 3.0427215e-21)
(-0.00080567752 0.0048090051 -1.3150743e-21)
(-0.00099596279 0.0058614854 -3.12808e-22)
(-0.0012114801 0.0070206383 1.7674996e-21)
(-0.0014557434 0.0082950747 3.8015065e-21)
(-0.0017327234 0.0096932594 1.905821e-22)
(-0.0020468951 0.011223232 -6.2154419e-21)
(-0.0024032893 0.012892246 8.5677642e-21)
(-0.0028075436 0.014706323 -1.3773168e-20)
(-0.0032659518 0.016669689 3.5803357e-21)
(-0.003785509 0.018784097 -7.5596598e-21)
(-0.0043739471 0.021048019 9.0696603e-21)
(-0.0050397562 0.023455694 -5.8377434e-21)
(-0.0057921819 0.02599604 9.1222528e-22)
(-0.0066411895 0.028651442 3.6559481e-21)
(-0.0075973782 0.031396439 -8.7645319e-21)
(-0.0086718283 0.034196383 1.217847e-20)
(-0.0098758549 0.037006149 -1.3016653e-20)
(-0.011220639 0.039769051 -2.1990005e-21)
(-0.012716704 0.042416199 2.1134802e-20)
(-0.014373203 0.044866657 -2.0930877e-20)
(-0.016197027 0.047029016 1.3316371e-20)
(-0.018191787 0.048805388 -1.462656e-20)
(-0.020356878 0.050099423 -1.3746187e-21)
(-0.022687017 0.05083036 -8.3613178e-22)
(-0.025172747 0.050953935 5.3804037e-21)
(-0.027802052 0.050485671 -3.5818281e-22)
(-0.030562386 0.049512592 1.8979374e-20)
(-0.033441865 0.048177014 -4.9237138e-21)
(-0.036429043 0.046634859 -1.4163217e-20)
(-0.039511867 0.045015714 6.3203196e-21)
(-0.042676752 0.043407575 -4.9871304e-21)
(-0.04590832 0.041863852 4.8717855e-21)
(-0.049189882 0.040417852 2.6327319e-20)
(-0.052504538 0.039094961 -1.4307945e-20)
(-0.055836922 0.037920072 -3.4732134e-21)
(-0.059175611 0.036920872 1.9708341e-20)
(-0.062516146 0.036128514 -1.112804e-21)
(-0.065867026 0.035575783 -2.4184729e-21)
(-0.069251535 0.035285122 -2.6986999e-20)
(-0.07271192 0.035255988 -6.3239114e-21)
(-0.076316947 0.035464096 1.0153733e-20)
(-0.080164104 0.035838076 1.0524424e-20)
(-0.08437922 0.036231166 1.5253658e-20)
(-0.089113872 0.036382417 1.9275089e-20)
(-0.094542027 0.035871152 1.2052749e-20)
(-0.10085606 0.033969922 1.8745922e-20)
(-0.10815578 0.029510254 -6.4776038e-21)
(-0.11648553 0.020491365 4.1966838e-20)
(-0.12522231 0.0038363947 3.3024198e-21)
(-0.13307151 -0.025122392 2.7172328e-21)
(-0.13561586 -0.071860537 2.1584303e-21)
(-0.12532557 -0.13960247 -5.655383e-20)
(-0.091316788 -0.21891448 -2.0052543e-20)
(-0.038570899 -0.28081931 2.4884055e-20)
(0.018318727 -0.29341181 2.3826548e-20)
(0.057577999 -0.23676985 6.3242341e-21)
(0.10136437 -0.098651515 1.5002858e-21)
(0.16510785 0.085250763 -1.0048166e-21)
(0.30854804 0.21904697 -5.8329702e-22)
(-5.661861e-05 0.00030090788 6.9510072e-22)
(-0.00017629578 0.0009313764 2.2076613e-21)
(-0.00031003605 0.0016277756 -5.3262828e-21)
(-0.00045970644 0.00239713 1.9786914e-22)
(-0.00062737429 0.0032469964 2.5903875e-21)
(-0.00081538367 0.0041854257 1.1409279e-21)
(-0.0010263747 0.0052209122 8.416593e-22)
(-0.0012632977 0.006362315 -1.656625e-21)
(-0.0015294477 0.0076187384 8.5640146e-21)
(-0.0018284942 0.0089993688 -6.4509565e-21)
(-0.0021645126 0.010513253 3.1148766e-22)
(-0.0025420146 0.012169006 3.8857816e-21)
(-0.0029659768 0.013974445 -1.4490763e-20)
(-0.0034418653 0.015936111 1.4386556e-20)
(-0.0039756556 0.018058693 -1.9069832e-21)
(-0.0045738427 0.020344316 -1.1735196e-20)
(-0.005243439 0.022791687 1.09596e-20)
(-0.0059919537 0.025395096 -3.7983e-21)
(-0.0068273485 0.028143254 7.3100166e-21)
(-0.0077579594 0.031017997 -9.2769899e-21)
(-0.0087923733 0.033992865 -1.7193306e-20)
(-0.0099392464 0.037031622 1.6768398e-20)
(-0.011207043 0.040086802 2.4162088e-20)
(-0.012603675 0.043098434 -4.574841e-20)
(-0.014136018 0.045993173 3.5951377e-20)
(-0.015809291 0.048684231 -2.0425361e-20)
(-0.017626308 0.051072731 5.1438884e-21)
(-0.019586715 0.053051578 -1.188199e-20)
(-0.021686421 0.054513584 1.1858256e-20)
(-0.023917681 0.055366119 1.5601937e-20)
(-0.026270281 0.055553586 -1.0075678e-20)
(-0.028733797 0.055083622 -1.6229507e-20)
(-0.03129973 0.054042553 1.3650743e-21)
(-0.033961769 0.052581299 5.3782829e-22)
(-0.036713856 0.050871427 9.2837276e-21)
(-0.039547632 0.049059544 -3.8750632e-21)
(-0.04245099 0.04724738 -1.3601536e-20)
(-0.04540807 0.045497556 -6.6295532e-21)
(-0.048400197 0.043849242 9.8912037e-21)
(-0.051407265 0.042332109 -7.6506038e-21)
(-0.054409516 0.040975226 6.4726343e-21)
(-0.057389675 0.039811416 -2.0966136e-21)
(-0.060335697 0.038878812 -8.2486089e-21)
(-0.063246144 0.038219231 2.0105129e-20)
(-0.066129873 0.03786567 1.2059609e-20)
(-0.069010134 0.037830874 8.0574601e-21)
(-0.071930396 0.03810557 -2.5913309e-20)
(-0.074952121 0.038634976 -1.7136633e-20)
(-0.078151795 0.039290671 -2.04567e-20)
(-0.081607757 0.039832332 -3.6375711e-20)
(-0.085396923 0.039867719 1.3029955e-20)
(-0.089561092 0.038689567 -2.7387019e-21)
(-0.093989915 0.035156003 -2.240272e-20)
(-0.09844512 0.0272282 -6.7386581e-20)
(-0.1018427 0.011685255 -4.574898e-20)
(-0.10214972 -0.016646726 -1.870386e-20)
(-0.093467973 -0.064282941 -5.4653183e-20)
(-0.066030099 -0.13537914 3.6382803e-20)
(-0.0081071394 -0.21851885 -4.0107668e-21)
(0.065734122 -0.28191708 -4.1012385e-20)
(0.13506948 -0.29249477 -1.8632753e-20)
(0.17214661 -0.2364431 -1.1132921e-21)
(0.21255497 -0.10613555 3.1713661e-23)
(0.27623374 0.061604379 1.5999628e-21)
(0.43142084 0.18153801 -6.7238008e-22)
(-7.0665616e-05 0.00032133841 2.7534368e-21)
(-0.00021968035 0.00099482242 -1.8561898e-21)
(-0.00038565266 0.0017388779 2.5063647e-21)
(-0.00057068493 0.0025609101 1.4238216e-21)
(-0.00077708991 0.0034688823 -3.9707697e-21)
(-0.0010074546 0.0044712771 -3.7039726e-21)
(-0.001264654 0.0055770464 3.797146e-21)
(-0.0015518599 0.0067955322 -4.5650736e-22)
(-0.0018725639 0.0081363466 -1.0555068e-22)
(-0.0022305943 0.009609206 -7.488464e-21)
(-0.0026301324 0.011223706 8.1917949e-22)
(-0.0030757226 0.012989028 1.5029149e-20)
(-0.0035722781 0.014913555 -1.19789e-20)
(-0.0041250784 0.017004398 4.1112102e-22)
(-0.0047397569 0.019266792 7.9615583e-21)
(-0.0054222748 0.021703365 6.8109849e-22)
(-0.0061788786 0.024313259 -1.7213453e-21)
(-0.0070160358 0.02709108 -7.6962344e-21)
(-0.0079403438 0.03002569 1.3971338e-20)
(-0.0089584064 0.033098826 -2.4305037e-20)
(-0.010076668 0.036283585 5.1768064e-21)
(-0.011301195 0.03954281 -3.7520259e-21)
(-0.012637397 0.042827474 3.0337395e-21)
(-0.014089665 0.046075198 -1.2867106e-22)
(-0.015660924 0.049209141 1.7395254e-20)
(-0.017352091 0.052137655 1.7016364e-20)
(-0.019161478 0.054755353 -3.3054883e-20)
(-0.021084272 0.056946729 -5.3977906e-21)
(-0.023112342 0.058594178 1.839084e-20)
(-0.025234876 0.059592934 6.3795889e-21)
(-0.027440301 0.059874699 1.4174796e-20)
(-0.029719284 0.059436504 -1.5532607e-20)
(-0.032067163 0.058360324 -6.5962695e-21)
(-0.034483437 0.056802395 1.4744779e-20)
(-0.03696802 0.054948324 -5.9430818e-21)
(-0.039516879 0.05296195 -2.7992659e-21)
(-0.042119761 0.050959823 7.6741315e-21)
(-0.044760325 0.049014809 1.9567048e-20)
(-0.047417558 0.047172549 5.8472755e-21)
(-0.050067477 0.045467178 -3.8110128e-21)
(-0.052684939 0.043931824 -8.9592258e-21)
(-0.055245422 0.042604157 -9.2977506e-21)
(-0.057727492 0.041528888 -1.0366511e-20)
(-0.060116575 0.040756303 -2.196115e-20)
(-0.062403122 0.04032949 6.2618914e-22)
(-0.064585828 0.040274239 -9.4867135e-21)
(-0.066673812 0.040595646 5.3347603e-20)
(-0.068678977 0.041254609 1.5029836e-20)
(-0.070607968 0.042139661 1.7498323e-20)
(-0.07243207 0.043029761 4.9532632e-20)
(-0.074080148 0.043561056 -5.9369013e-20)
(-0.07535663 0.043044633 1.3590307e-20)
(-0.075830147 0.040378285 4.471344e-20)
(-0.074799075 0.033488528 5.6056948e-20)
(-0.0703634 0.019015687 6.9590159e-21)
(-0.059146012 -0.0087866262 -2.0168711e-20)
(-0.032605978 -0.057419851 -3.2998322e-20)
(0.022875882 -0.13176462 1.4077253e-20)
(0.11826998 -0.21600926 -2.1314888e-20)
(0.22243767 -0.27654512 1.2160796e-20)
(0.30246464 -0.27898541 1.9666234e-21)
(0.3319306 -0.22231116 6.007119e-22)
(0.35795581 -0.10291356 9.2132679e-22)
(0.41435544 0.044355237 1.1863402e-21)
(0.57460433 0.14816641 -4.290306e-22)
(-8.5399998e-05 0.00033798193 -2.5948014e-21)
(-0.00026519796 0.0010465738 -6.9466279e-22)
(-0.00046499566 0.0018295926 7.6290129e-22)
(-0.00068713788 0.0026947559 3.7474971e-21)
(-0.00093418941 0.0036503612 -4.4909832e-21)
(-0.0012089861 0.0047052508 3.8098938e-21)
(-0.0015146435 0.0058687628 1.8187534e-21)
(-0.0018545594 0.0071506539 -9.7359705e-23)
(-0.0022324258 0.0085609812 -1.5303008e-21)
(-0.0026522332 0.010109938 -8.6833536e-21)
(-0.0031182699 0.011807631 1.4539049e-20)
(-0.0036351131 0.013663783 -1.7409275e-20)
(-0.0042076108 0.015687358 5.0909558e-21)
(-0.0048408514 0.017886072 6.8750251e-21)
(-0.0055401185 0.020265792 -1.0480556e-20)
(-0.0063108276 0.022829791 2.0511866e-20)
(-0.0071584418 0.02557785 -2.4653629e-20)
(-0.008088361 0.028505183 -3.8511093e-22)
(-0.0091057828 0.031601183 -1.3842072e-20)
(-0.010215529 0.034847978 5.4266376e-20)
(-0.011421829 0.038218831 -1.2962797e-20)
(-0.012728068 0.041676403 -5.2861157e-20)
(-0.014136468 0.045170976 2.4593867e-20)
(-0.015647727 0.048638759 2.8864478e-20)
(-0.017260589 0.052000519 -7.1307977e-21)
(-0.018971372 0.055160915 -3.6702206e-20)
(-0.020773512 0.058009209 5.4602393e-20)
(-0.022657264 0.060422507 -5.9474983e-20)
(-0.02460988 0.062273448 4.5942995e-20)
(-0.026616784 0.063445075 -8.6188813e-21)
(-0.028664242 0.063855123 1.448904e-20)
(-0.03074322 0.063487164 2.0136544e-20)
(-0.032852334 0.062414647 -7.6435968e-21)
(-0.034996827 0.060795013 -1.8750093e-21)
(-0.037183055 0.058825559 -2.6563874e-20)
(-0.039412002 0.056687224 4.9002767e-21)
(-0.041675774 0.054512518 -1.2326306e-20)
(-0.043957668 0.052385787 1.0237627e-20)
(-0.046234037 0.050359902 -5.7796611e-21)
(-0.048476355 0.048473697 -3.7943826e-21)
(-0.050653047 0.046764191 -3.2721544e-21)
(-0.052730879 0.045273468 -3.1823874e-21)
(-0.054676821 0.044052099 1.9620022e-20)
(-0.056460121 0.043157832 1.5770678e-20)
(-0.058048245 0.042643246 -4.4773431e-21)
(-0.059408916 0.042546075 2.9833544e-21)
(-0.060506637 0.042884156 -1.2184768e-20)
(-0.061287877 0.043631829 2.519016e-20)
(-0.06166465 0.044690683 3.0045464e-20)
(-0.06145825 0.045853962 9.0100675e-21)
(-0.060383807 0.046780179 2.3503125e-20)
(-0.057903923 0.046801293 -7.3822422e-22)
(-0.053133888 0.044852583 -1.1614889e-20)
(-0.044655039 0.038795964 -6.0563467e-20)
(-0.029251547 0.025114487 3.0979138e-20)
(-0.0012979164 -0.0025981811 -1.4164782e-20)
(0.052267341 -0.053037219 3.7642613e-20)
(0.15085415 -0.13019811 -6.1630762e-20)
(0.2950324 -0.21260945 3.0256781e-20)
(0.43509433 -0.26072294 -6.8088446e-21)
(0.52310475 -0.24898062 2.5845328e-22)
(0.5434683 -0.18572152 -1.1241933e-21)
(0.54536707 -0.079557338 3.1115264e-21)
(0.58634846 0.041054151 -4.2785257e-21)
(0.74013955 0.12411089 5.1515518e-22)
(-0.00010041493 0.00035040696 5.8168784e-21)
(-0.00031159453 0.0010852935 3.9996509e-21)
(-0.0005458837 0.0018975811 -6.2764082e-21)
(-0.00080587056 0.0027952235 1.651395e-22)
(-0.001094373 0.0037867741 5.6685907e-21)
(-0.0014144765 0.0048813545 2.9618651e-21)
(-0.001769538 0.00608861 -6.2371831e-21)
(-0.0021631822 0.0074186354 1.0230268e-21)
(-0.002599303 0.0088818621 -1.4405755e-20)
(-0.0030820549 0.010488899 2.8032179e-21)
(-0.0036158364 0.012250314 7.1824453e-23)
(-0.0042052616 0.01417635 -1.0266981e-20)
(-0.0048551195 0.016276543 3.2807744e-20)
(-0.0055703149 0.018559254 -1.523554e-20)
(-0.0063557919 0.02103106 -2.7186174e-20)
(-0.0072164326 0.023696017 2.8831038e-20)
(-0.0081569302 0.026554753 -3.5308135e-21)
(-0.009181632 0.029603381 1.9911197e-20)
(-0.010294349 0.032832216 1.4674023e-20)
(-0.011498128 0.036224292 -4.5748209e-20)
(-0.012794988 0.039753677 3.3999065e-20)
(-0.014185609 0.043383638 -4.4255101e-20)
(-0.015668985 0.047064704 5.1337714e-21)
(-0.017242037 0.050732764 -2.0707146e-20)
(-0.018899191 0.05430742 4.4370776e-20)
(-0.020631956 0.05769097 -1.0361878e-20)
(-0.022428583 0.060768688 -2.5760816e-20)
(-0.024273965 0.063411558 6.1254755e-20)
(-0.02615015 0.065483414 -2.6156941e-20)
(-0.028038019 0.06685535 -2.7687923e-20)
(-0.02992069 0.067430131 2.2429031e-20)
(-0.031788326 0.067175071 2.9500404e-21)
(-0.033641852 0.066150532 -1.434455e-20)
(-0.035491775 0.064510199 7.6937109e-21)
(-0.037351157 0.06245979 -1.1437555e-20)
(-0.039226709 0.060196658 3.8873192e-20)
(-0.041113555 0.05787036 -1.9831522e-20)
(-0.042994897 0.055578141 -1.1621287e-20)
(-0.044844246 0.053381057 -2.3443269e-20)
(-0.046627883 0.051322952 -3.1952536e-21)
(-0.048306702 0.049444515 2.4418522e-20)
(-0.049837149 0.047791621 -9.8611064e-21)
(-0.051172243 0.046419743 -1.4604265e-20)
(-0.052261526 0.045392822 -2.1955685e-21)
(-0.053044641 0.044771482 1.4844872e-20)
(-0.053450743 0.044603789 1.3321472e-20)
(-0.053387722 0.044917421 -4.1270435e-20)
(-0.052717637 0.045696208 -2.2270484e-20)
(-0.051227106 0.046847284 -4.9350129e-20)
(-0.048532119 0.048168975 -1.7671963e-20)
(-0.04404907 0.049339485 -7.0607763e-21)
(-0.036767929 0.049683102 -5.3748118e-20)
(-0.025222535 0.048188914 -2.1633776e-20)
(-0.0069326982 0.042583408 7.435368e-20)
(0.023325326 0.029097465 -6.196541e-20)
(0.074686958 0.00039546971 5.7717966e-20)
(0.16774254 -0.053204961 -2.8396283e-20)
(0.3229958 -0.13221809 1.2698831e-19)
(0.5143963 -0.20858313 5.2261411e-20)
(0.67336194 -0.24235489 -1.3213868e-20)
(0.75260674 -0.2119168 -1.0004716e-20)
(0.76732653 -0.13536941 -4.0965382e-21)
(0.75920537 -0.035314048 -1.1498361e-22)
(0.79149583 0.058275969 8.3654665e-22)
(0.92328982 0.1150645 -7.985185e-22)
(-0.0001152645 0.0003582925 1.0584269e-22)
(-0.00035749489 0.0011099821 -7.5302032e-21)
(-0.00062592352 0.0019410904 8.8731741e-21)
(-0.0009233766 0.0028597252 4.2676045e-21)
(-0.00125292 0.0038746103 -8.5416431e-21)
(-0.0016178838 0.0049950605 -2.7642131e-21)
(-0.0020218619 0.0062309412 1.3391823e-20)
(-0.0024687027 0.0075926009 -1.4392235e-20)
(-0.0029625006 0.0090907655 -3.0311409e-21)
(-0.0035075746 0.010736388 -1.2033648e-20)
(-0.0041084378 0.012540443 3.18769e-20)
(-0.0047697501 0.014513648 3.8674847e-22)
(-0.0054962548 0.016666107 -2.8437292e-20)
(-0.0062926945 0.01900684 3.0392318e-20)
(-0.0071637021 0.021543206 -2.1642443e-20)
(-0.0081136638 0.024280165 -7.9753594e-21)
(-0.0091465507 0.027219388 1.6541933e-20)
(-0.010265714 0.030358168 -1.4801528e-20)
(-0.011473645 0.033688129 -1.9521285e-20)
(-0.012771689 0.037193713 4.098094e-22)
(-0.014159724 0.040850447 3.0086051e-20)
(-0.015635797 0.044623009 -1.8365659e-20)
(-0.017195727 0.048463151 1.0095114e-20)
(-0.018832677 0.052307596 4.807264e-20)
(-0.020536722 0.056076108 1.5843141e-20)
(-0.022294455 0.059670093 -4.2351383e-20)
(-0.024088723 0.062972392 4.1708467e-21)
(-0.025898692 0.065849392 -4.6397916e-20)
(-0.027700634 0.068157395 2.7049685e-20)
(-0.029470054 0.0697562 -1.4098359e-20)
(-0.031185762 0.070533042 2.0130969e-20)
(-0.032835745 0.070436505 4.8405552e-21)
(-0.03442179 0.069509047 -2.3772731e-20)
(-0.035958609 0.067894826 2.3940334e-20)
(-0.037465918 0.06580369 3.4332581e-20)
(-0.038956836 0.063447885 -3.1592695e-21)
(-0.040430311 0.060994885 -3.5068142e-20)
(-0.041869904 0.058556397 4.3881353e-20)
(-0.043246197 0.056202829 -9.2780654e-21)
(-0.044519659 0.053983453 1.9708626e-20)
(-0.045642497 0.051942379 -3.0732467e-21)
(-0.046559078 0.050128489 3.0812171e-20)
(-0.047205856 0.048600866 1.4896617e-20)
(-0.047508536 0.047428008 1.9011067e-20)
(-0.047373501 0.046676627 -7.8143792e-20)
(-0.046682301 0.046402491 -2.6203702e-20)
(-0.045271668 0.046638963 3.5488539e-20)
(-0.042896019 0.047373539 -2.9644909e-20)
(-0.03917603 0.048507256 -2.543663e-20)
(-0.033443035 0.049832019 2.9268042e-20)
(-0.024730466 0.051009128 1.5619505e-20)
(-0.011415569 0.051427273 3.7349006e-20)
(0.0087130318 0.050000012 1.8752022e-20)
(0.039826019 0.044235587 -6.4702398e-20)