/*--------------------------------*- C++ -*----------------------------------*\
  =========                 |
  \\      /  F ield         | OpenFOAM: The Open Source CFD Toolbox
   \\    /   O peration     | Website:  https://openfoam.org
    \\  /    A nd           | Version:  13
     \\/     M anipulation  |
\*---------------------------------------------------------------------------*/
FoamFile
{
    format      ascii;
    class       volSymmTensorField;
    location    "0.897497";
    object      UPrime2Mean;
}
// * * * * * * * * * * * * * * * * * * * * * * * * * * * * * * * * * * * * * //

dimensions      [0 2 -2 0 0 0 0];

internalField   nonuniform List<symmTensor> 
17140
(
(1.1215507e-12 -1.599334e-11 -4.7947793e-26 5.4473861e-10 4.6063261e-25 3.3210502e-39)
(4.6941127e-11 -4.3738531e-10 -1.615065e-26 4.7080785e-09 7.9440805e-26 2.8526056e-41)
(3.7396244e-10 -2.1897344e-09 2.3444539e-24 1.3924457e-08 -7.1386239e-24 1.2430744e-37)
(1.6784933e-09 -6.8617493e-09 -4.6048286e-24 2.9743169e-08 9.9576167e-24 1.5015713e-37)
(5.5170117e-09 -1.6900402e-08 8.6940408e-25 5.4280161e-08 -1.4507431e-24 2.0508679e-39)
(1.507688e-08 -3.6168851e-08 -4.3312244e-24 9.0361927e-08 5.8910142e-24 2.1950673e-38)
(3.6519441e-08 -7.0622316e-08 -1.0720391e-23 1.4164678e-07 1.2220735e-23 6.215816e-38)
(8.1254018e-08 -1.292886e-07 7.5173794e-24 2.1287173e-07 -7.2916597e-24 1.4797954e-38)
(1.6979769e-07 -2.2568878e-07 3.4744712e-23 3.1007094e-07 -2.8943235e-23 1.5831464e-37)
(3.3819062e-07 -3.798269e-07 1.1877069e-22 4.4086135e-07 -8.5504022e-23 9.5076904e-37)
(6.4853623e-07 -6.209483e-07 -2.4291242e-22 6.1472733e-07 1.5180188e-22 2.086162e-36)
(1.2061193e-06 -9.9131385e-07 2.9601111e-22 8.4329211e-07 -1.6109888e-22 1.6525272e-36)
(2.1868125e-06 -1.5512495e-06 6.1491627e-23 1.1405294e-06 -2.9213126e-23 3.8591839e-38)
(3.8802972e-06 -2.3857397e-06 -4.6879967e-22 1.5228492e-06 1.9472947e-22 1.2296864e-36)
(6.7572286e-06 -3.6127941e-06 6.9707638e-23 2.0089413e-06 -2.5341863e-23 1.5088453e-38)
(1.1571924e-05 -5.3937255e-06 -7.3466358e-22 2.6192713e-06 2.3385017e-22 9.4149659e-37)
(1.9515902e-05 -7.9450526e-06 3.612697e-23 3.3750287e-06 -1.0067597e-23 1.2954333e-39)
(3.2442937e-05 -1.1551386e-05 -1.060274e-23 4.2963205e-06 2.5857789e-24 6.436567e-41)
(5.3190792e-05 -1.6577718e-05 -9.7783894e-22 5.399442e-06 2.0846847e-22 3.2087584e-37)
(8.6028228e-05 -2.3478187e-05 1.6310978e-21 6.6930832e-06 -3.0363443e-22 5.3256125e-37)
(0.00013725915 -3.2796553e-05 -9.9903875e-22 8.1733853e-06 1.6212583e-22 1.2158465e-37)
(0.00021600812 -4.5151197e-05 2.3939621e-22 9.8182918e-06 -3.3796095e-23 4.3456083e-39)
(0.00033518849 -6.119458e-05 2.1839736e-21 1.158175e-05 -2.6750017e-22 2.3073186e-37)
(0.00051260121 -8.1536065e-05 -2.6563697e-21 1.3388882e-05 2.8127657e-22 2.2367219e-37)
(0.00077200496 -0.00010661986 -5.0807525e-21 1.5134116e-05 4.6289459e-22 5.5155739e-37)
(0.0011439314 -0.00013655814 4.8317519e-21 1.6683415e-05 -3.7638565e-22 3.4622307e-37)
(0.0016659565 -0.00017093583 2.7671741e-20 1.7883044e-05 -1.8277353e-21 8.1181739e-36)
(0.0023818973 -0.00020860879 3.7488645e-21 1.8576149e-05 -2.0763938e-22 1.0964936e-37)
(0.0033391292 -0.00024753124 -3.7381259e-20 1.8626788e-05 1.7101661e-21 8.245378e-36)
(0.0045838426 -0.00028467125 -9.8152612e-21 1.794504e-05 3.6330645e-22 4.4123562e-37)
(0.0061539047 -0.00031608428 -3.8914846e-20 1.6512875e-05 1.133044e-21 5.5209577e-36)
(0.0080696202 -0.00033716412 5.6328113e-20 1.4400939e-05 -1.2396505e-21 9.434856e-36)
(0.010322696 -0.00034315914 -1.5974146e-20 1.1777444e-05 2.4987048e-22 6.3402015e-37)
(0.012863439 -0.00032990602 -8.2215775e-21 8.8989331e-06 8.1989313e-23 1.4377968e-37)
(0.015593796 -0.00029462883 -8.612136e-20 6.0743704e-06 4.254011e-22 1.3842531e-35)
(0.018368564 -0.00023588421 3.9833577e-20 3.587316e-06 -1.8629218e-23 2.6633624e-36)
(0.020983724 -0.00015594556 -6.2526247e-20 1.7385026e-06 -2.184606e-22 6.0529064e-36)
(0.023225636 -6.0537191e-05 -4.355256e-20 7.2576992e-07 -3.0441279e-22 2.7776084e-36)
(0.024868961 4.1997401e-05 -2.0270139e-20 6.0162455e-07 -2.0394132e-22 5.8351405e-37)
(0.025733004 0.00014134958 6.1664669e-20 1.2539274e-06 7.8519179e-22 5.3670467e-36)
(0.025712803 0.00022736217 1.1533276e-19 2.4349602e-06 1.7342713e-21 1.9113338e-35)
(0.024804026 0.00029120142 1.0244057e-19 3.8063648e-06 1.7408696e-21 1.5706036e-35)
(0.023110946 0.00032808116 4.3268253e-20 5.0325994e-06 8.0628807e-22 2.9811992e-36)
(0.020825344 0.00033745999 -2.0153701e-19 5.856354e-06 -4.027775e-21 7.0157761e-35)
(0.018188717 0.00032304874 -1.3971534e-19 6.1575531e-06 -2.9441137e-21 3.7184263e-35)
(0.015447027 0.00029133603 3.2290354e-20 5.9554476e-06 7.0806319e-22 2.2210448e-36)
(0.01281016 0.00024978633 -2.0505465e-19 5.3709476e-06 -4.6350219e-21 1.0130458e-34)
(0.01042887 0.00020516941 -6.4703452e-20 4.5667968e-06 -1.499306e-21 1.1511265e-35)
(0.0083889149 0.00016254841 6.0994565e-20 3.6951478e-06 1.4463271e-21 1.1754697e-35)
(0.0067205648 0.00012502141 1.3772713e-19 2.867724e-06 3.3453602e-21 6.9210901e-35)
(0.0054124812 9.3981798e-05 -7.8067997e-20 2.149916e-06 -1.947832e-21 2.577009e-35)
(0.0044283732 6.9594691e-05 -4.5297323e-20 1.5678735e-06 -1.165663e-21 1.0079675e-35)
(0.003718162 5.1268982e-05 1.0841236e-19 1.121538e-06 2.8937525e-21 6.7258877e-35)
(0.0032285296 3.8017385e-05 4.6959832e-20 7.9510449e-07 1.3096097e-21 1.4743968e-35)
(0.0029083082 2.8772043e-05 3.0601399e-20 5.6706506e-07 9.0028998e-22 7.3537218e-36)
(0.0027126863 2.2499686e-05 -2.1914647e-20 4.1419223e-07 -6.8727162e-22 4.4612655e-36)
(0.0026064 1.8370189e-05 5.3574467e-20 3.1635127e-07 1.8151674e-21 3.1940547e-35)
(0.002560669 1.5625465e-05 4.0251414e-20 2.5617902e-07 1.4904121e-21 2.1948639e-35)
(0.0025580511 1.3866483e-05 8.9538706e-21 2.2137753e-07 3.6953207e-22 1.3589195e-36)
(0.002581705 1.2537986e-05 -2.0167813e-20 2.0094973e-07 -9.3990793e-22 8.9276248e-36)
(0.0026286145 1.166605e-05 -1.3448801e-20 1.8956734e-07 -7.3176572e-22 5.4223339e-36)
(0.002686813 1.0784283e-05 -4.0959801e-20 1.8220573e-07 -2.6663891e-21 7.3758316e-35)
(0.0027666834 1.009718e-05 -4.7128901e-21 1.7454824e-07 -3.8967923e-22 1.5800894e-36)
(0.0028583683 8.8466388e-06 2.6746631e-20 1.6714562e-07 3.2012274e-21 1.1155919e-34)
(0.0029489461 6.7613159e-06 -1.036387e-20 1.8215503e-07 -2.6853181e-21 6.6655261e-35)
(3.0143076e-11 -6.5552634e-10 4.6210461e-26 1.4651452e-08 -8.0267714e-25 2.6895003e-40)
(4.0934829e-10 -7.101728e-09 -1.2645338e-23 1.2552983e-07 1.7385623e-22 3.4228979e-36)
(1.7996823e-09 -2.5633381e-08 1.9653396e-23 3.7170066e-07 -2.1309691e-22 2.7094659e-36)
(5.5782313e-09 -6.6020049e-08 -8.3306946e-24 7.9499649e-07 7.3726561e-23 2.0126646e-37)
(1.4346364e-08 -1.4318495e-07 -2.5427089e-23 1.4535401e-06 1.8934457e-22 8.5835554e-37)
(3.2913728e-08 -2.8012826e-07 6.971494e-23 2.4244811e-06 -4.4781242e-22 3.1315796e-36)
(6.9913711e-08 -5.117243e-07 -1.022716e-22 3.808755e-06 5.7482583e-22 3.3996424e-36)
(1.404674e-07 -8.9013926e-07 1.2489835e-23 5.7373926e-06 -6.1914384e-23 2.6301349e-38)
(2.7059733e-07 -1.4926485e-06 -5.3527644e-23 8.3787072e-06 2.3510235e-22 2.5598455e-37)
(5.0442897e-07 -2.4326002e-06 -1.2314889e-24 1.194658e-05 4.8058997e-24 7.3001614e-41)
(9.1582319e-07 -3.8746151e-06 -3.2877583e-22 1.6709383e-05 1.1420163e-21 2.8418151e-36)
(1.6269523e-06 -6.0553077e-06 7.0190646e-22 2.2998884e-05 -2.1725136e-21 7.154579e-36)
(2.8376798e-06 -9.3111362e-06 7.7474342e-23 3.121805e-05 -2.1378727e-22 4.8631409e-38)
(4.8714123e-06 -1.4114944e-05 -1.0166015e-21 4.1845921e-05 2.5010801e-21 4.7155864e-36)
(8.2455853e-06 -2.1122531e-05 4.1288731e-22 5.5436858e-05 -9.0527436e-22 4.4213441e-37)
(1.377829e-05 -3.1229944e-05 3.4475065e-22 7.2610223e-05 -6.7309657e-22 1.7692162e-37)
(2.2746706e-05 -4.5640698e-05 -2.8571317e-21 9.402546e-05 4.961788e-21 7.0494419e-36)
(3.711752e-05 -6.5939165e-05 1.2071646e-20 0.00012033663 -1.8621334e-20 7.3898433e-35)
(5.9873832e-05 -9.4161228e-05 -9.7206919e-21 0.0001521194 1.329852e-20 2.8536973e-35)
(9.5466649e-05 -0.0001328468 1.4834913e-20 0.00018976595 -1.7969203e-20 4.0231865e-35)
(0.00015041964 -0.00018504889 -2.7616318e-20 0.00023334611 2.9565406e-20 8.5992486e-35)
(0.00023410833 -0.00025426157 8.4305717e-21 0.00028244061 -7.962263e-21 5.0487937e-36)
(0.00035971008 -0.00034421752 4.2699804e-21 0.00033596444 -3.5503139e-21 8.3537371e-37)
(0.00054526534 -0.00045850179 -1.6925467e-20 0.00039201467 1.2359446e-20 8.6838766e-36)
(0.00081469157 -0.00059993664 7.2793064e-20 0.00044778645 -4.6548073e-20 1.0918102e-34)
(0.0011985227 -0.00076974717 1.2806429e-20 0.00049960909 -7.1455782e-21 2.3619986e-36)
(0.0017340768 -0.00096657999 -7.7208269e-20 0.0005431537 3.7419779e-20 6.1740821e-35)
(0.0024645347 -0.0011854722 9.9410752e-20 0.00057383902 -4.1612691e-20 7.5689378e-35)
(0.0034361757 -0.0014169348 -1.5520736e-20 0.00058743052 5.56995e-21 1.4008652e-36)
(0.0046935775 -0.0016464113 -1.7051817e-19 0.00058068173 5.1977349e-20 1.3166736e-34)
(0.0062724941 -0.0018544759 1.9646268e-20 0.00055202727 -5.0304672e-21 1.3953607e-36)
(0.0081907131 -0.0020179361 1.6547307e-19 0.0005021049 -3.5126602e-20 8.0952841e-35)
(0.010436978 -0.0021120371 4.5324499e-21 0.00043404692 -7.8516931e-22 5.0880884e-38)
(0.012958666 -0.0021137236 -1.4467575e-19 0.0003534073 2.0054986e-20 4.4489948e-35)
(0.015656458 -0.0020052487 1.7207552e-19 0.00026735682 -1.8602997e-20 5.5347681e-35)
(0.018379673 -0.0017792557 -8.1674329e-20 0.00018420941 6.6443288e-21 1.1240022e-35)
(0.020933323 -0.0014430537 1.001723e-19 0.0001121955 -5.8103482e-21 1.5624332e-35)
(0.023101537 -0.0010173746 3.2799707e-19 5.7392095e-05 -1.2368401e-20 1.5872775e-34)
(0.024667426 -0.0005397097 7.4721296e-20 2.3535361e-05 -1.5094641e-21 8.0019982e-36)
(0.025457241 -5.7027556e-05 2.9343693e-19 1.0564112e-05 -1.5416983e-21 1.2281984e-34)
(0.025374791 0.00038091919 -3.7293724e-19 1.4858785e-05 -2.7293604e-21 2.0216204e-34)
(0.024423704 0.00073140085 -3.3642775e-19 3.013432e-05 -5.9518841e-21 1.7149059e-34)
(0.022713947 0.00096752979 -5.5787263e-20 4.9153091e-05 -1.4535263e-21 5.0199982e-36)
(0.020438461 0.0010826845 4.2782797e-19 6.5637122e-05 1.3956049e-20 3.2010295e-34)
(0.017835741 0.0010894724 -1.9225254e-19 7.5658483e-05 -7.2208461e-21 7.1257902e-35)
(0.015144993 0.0010137726 -6.2802471e-20 7.8031017e-05 -2.5773916e-21 8.4962369e-36)
(0.012567492 0.00088666317 3.1512219e-20 7.3773242e-05 1.3627049e-21 2.4160362e-36)
(0.010245665 0.00073700117 9.1542552e-20 6.5055465e-05 4.0654504e-21 2.3232079e-35)
(0.00825895 0.00058686434 -4.1535296e-20 5.4197856e-05 -1.8642219e-21 5.4855136e-36)
(0.006634114 0.00045027376 6.9617448e-20 4.304762e-05 3.1335233e-21 1.7760478e-35)
(0.0053589104 0.00033424731 3.866956e-19 3.2798288e-05 1.7430597e-20 6.3377595e-34)
(0.0043979426 0.00024076968 1.7017921e-20 2.4055101e-05 7.7009668e-22 1.4235678e-36)
(0.0037028957 0.00016876147 -7.0515464e-20 1.7024441e-05 -3.2206672e-21 2.8425242e-35)
(0.0032224453 0.00011542304 1.4403915e-19 1.1644932e-05 6.695136e-21 1.3838394e-34)
(0.0029072474 7.7384093e-05 -1.1258773e-19 7.7260108e-06 -5.3980972e-21 9.9205794e-35)
(0.0027139775 5.1039979e-05 2.9136131e-19 4.9914925e-06 1.4649905e-20 7.85328e-34)
(0.0026084591 3.3415147e-05 7.5325618e-20 3.1699852e-06 4.0683259e-21 6.2856884e-35)
(0.0025626657 2.1644055e-05 -1.9076368e-19 2.0098056e-06 -1.1294654e-20 4.9072255e-34)
(0.0025595888 1.4089649e-05 2.8760744e-20 1.3027636e-06 1.9265349e-21 1.3955878e-35)
(0.002582662 8.7652972e-06 2.8666179e-20 9.0783946e-07 2.2109854e-21 1.7969348e-35)
(0.0026290539 5.314699e-06 4.9003011e-21 6.7507177e-07 4.5503573e-22 7.1734814e-37)
(0.0026868189 2.1540719e-06 -5.3631291e-20 5.884806e-07 -6.0911066e-21 1.2598505e-34)
(0.0027660994 -4.375354e-08 8.2032309e-20 5.0266001e-07 1.2371191e-20 4.7736236e-34)
(0.0028569689 -4.3127787e-06 1.6658785e-20 5.7903355e-07 3.7055618e-21 4.2767452e-35)
(0.0029452895 -1.082504e-05 1.4649836e-20 6.5299889e-07 7.094236e-21 1.180964e-34)
(2.4430388e-10 -3.4210909e-09 6.3578472e-24 4.8067864e-08 -8.1331339e-23 8.1747094e-37)
(2.4804683e-09 -3.1887032e-08 -8.3298295e-24 4.1115255e-07 9.6647418e-23 3.1268978e-37)
(8.6902383e-09 -1.0266794e-07 -3.4236962e-24 1.2172566e-06 3.5417217e-23 2.2108211e-38)
(2.2147069e-08 -2.3963973e-07 4.5931421e-24 2.6037034e-06 -4.2613129e-23 1.9867387e-38)
(4.831106e-08 -4.7849445e-07 -3.0581956e-23 4.7616848e-06 2.5662378e-22 4.6627085e-37)
(9.6290459e-08 -8.7233434e-07 -3.083875e-24 7.9451334e-06 2.3611384e-23 2.5758424e-39)
(1.8110764e-07 -1.4993141e-06 -5.2938699e-23 1.2486761e-05 3.715283e-22 4.2021098e-37)
(3.2726624e-07 -2.473368e-06 -7.6048176e-23 1.8818916e-05 4.900263e-22 4.8725672e-37)
(5.7445856e-07 -3.9594778e-06 8.2370847e-22 2.7497733e-05 -4.8733874e-21 3.2502772e-35)
(9.8655564e-07 -6.1948164e-06 -9.7002362e-22 3.9230894e-05 5.2652102e-21 2.5865152e-35)
(1.6656871e-06 -9.517717e-06 6.0992105e-22 5.4907739e-05 -3.0335282e-21 5.9102826e-36)
(2.774122e-06 -1.4406766e-05 1.1703754e-21 7.562955e-05 -5.3257899e-21 1.2653249e-35)
(4.5679814e-06 -2.1532677e-05 -3.0303305e-21 0.00010273651 1.2594298e-20 4.9581812e-35)
(7.4487371e-06 -3.182581e-05 -4.8825758e-22 0.00013782523 1.84971e-21 7.5628605e-37)
(1.2040749e-05 -4.6561271e-05 2.4456296e-21 0.00018274792 -8.4268701e-21 1.1211164e-35)
(1.930639e-05 -6.7462404e-05 2.1723154e-21 0.00023958024 -6.7918216e-21 5.2600752e-36)
(3.0714157e-05 -9.6820487e-05 -3.2393454e-21 0.00031054094 9.166461e-21 7.0097413e-36)
(4.8479468e-05 -0.00013762305 1.4991835e-20 0.0003978425 -3.8293034e-20 9.0834714e-35)
(7.5900699e-05 -0.00019367305 -1.1250155e-20 0.00050345074 2.5867042e-20 3.1307161e-35)
(0.00011781647 -0.00026966997 7.0049651e-21 0.00062873496 -1.4457751e-20 7.5333922e-36)
(0.00018120756 -0.00037120528 -2.9461005e-20 0.00077400307 5.4426274e-20 8.4086384e-35)
(0.00027595693 -0.00050460442 -9.4543108e-21 0.00093794124 1.5587623e-20 5.5698874e-36)
(0.00041575377 -0.00067652905 2.4049026e-20 0.001117017 -3.5275507e-20 2.3686164e-35)
(0.00061906956 -0.00089324737 -4.3574632e-20 0.001304957 5.6667309e-20 5.2323643e-35)
(0.00091005244 -0.001159511 -2.0388944e-20 0.0014924565 2.3415648e-20 7.9041261e-36)
(0.0013191046 -0.001477053 2.8734003e-20 0.0016672945 -2.9008891e-20 1.1120048e-35)
(0.001882844 -0.0018428412 1.8894836e-19 0.0018150329 -1.6679035e-19 3.4977471e-34)
(0.0026429687 -0.002247281 9.7800449e-20 0.0019203775 -7.5007581e-20 6.9992354e-35)
(0.003643305 -0.0026726504 -5.5236002e-20 0.0019691595 3.6524299e-20 1.7100951e-35)
(0.0049249234 -0.0030922415 6.6170095e-20 0.0019504652 -3.7379204e-20 1.926051e-35)
(0.0065191027 -0.003470815 -4.5885864e-20 0.0018588887 2.1911839e-20 7.447319e-36)
(0.0084382522 -0.00376663 -2.8515116e-19 0.0016962583 1.137234e-19 2.3673711e-34)
(0.010665171 -0.003935398 1.0379209e-19 0.0014725593 -3.4082625e-20 2.6433837e-35)
(0.013142431 -0.0039361577 3.3346067e-19 0.0012056484 -8.8612334e-20 2.3546921e-34)
(0.015766097 -0.0037382713 -1.1856473e-19 0.00091926837 2.4939974e-20 2.6311104e-35)
(0.018384464 -0.0033299505 -1.7495741e-19 0.00064077207 2.8278686e-20 5.1886959e-35)
(0.020806097 -0.0027244408 3.1599926e-19 0.00039683279 -3.7603052e-20 1.5708314e-34)
(0.022819962 -0.0019617415 9.9374875e-20 0.0002084847 -8.1378474e-21 1.4775815e-35)
(0.024223714 -0.0011083797 -1.8010773e-19 8.7939601e-05 8.9786249e-21 4.7293436e-35)
(0.024859239 -0.00024839794 -7.2713941e-20 3.5707003e-05 1.6363523e-21 7.6933139e-36)
(0.024648179 0.00053013444 3.4771925e-19 4.0613073e-05 1.652482e-22 1.7969572e-34)
(0.023611018 0.001152865 -9.6982071e-20 8.2745927e-05 -1.8831991e-21 1.4586917e-35)
(0.021868793 0.0015739236 -1.3664374e-19 0.00013898515 -4.7328517e-21 3.0847215e-35)
(0.019617088 0.0017837109 -3.5164578e-19 0.00018920457 -1.6351764e-20 2.2153145e-34)
(0.017087606 0.0018058368 6.3922518e-19 0.00022070479 3.5369512e-20 8.0604226e-34)
(0.014505024 0.0016861581 -3.9257462e-19 0.00022943118 -2.4110849e-20 3.3908006e-34)
(0.012052445 0.0014784409 -9.3347051e-20 0.00021822019 -6.0768498e-21 2.1604779e-35)
(0.0098551493 0.0012317631 -3.4678233e-19 0.00019347647 -2.3191847e-20 3.3865144e-34)
(0.0079798798 0.00098319171 -3.8855204e-19 0.00016207787 -2.6171809e-20 4.8583369e-34)
(0.0064464517 0.00075608968 -1.8368403e-20 0.00012949781 -1.2334847e-21 1.2463751e-36)
(0.0052407431 0.00056218077 7.2257761e-20 9.928803e-05 4.8241728e-21 2.2221588e-35)
(0.0043290247 0.00040495192 -4.9244462e-19 7.32866e-05 -3.2728878e-20 1.1928461e-33)
(0.0036664561 0.00028291474 -1.9396297e-19 5.2180735e-05 -1.2895449e-20 2.1458628e-34)
(0.0032058064 0.00019175411 -1.8362527e-19 3.5872392e-05 -1.2318058e-20 2.2385968e-34)
(0.0029015708 0.00012617407 -5.537004e-20 2.3876162e-05 -3.8047546e-21 2.3839047e-35)
(0.0027136819 8.0338878e-05 -3.9119413e-19 1.5423913e-05 -2.8053358e-20 1.4046634e-33)
(0.0026102809 4.9428673e-05 1.4102908e-19 9.7414493e-06 1.0851931e-20 2.1844749e-34)
(0.0025648551 2.8632527e-05 -3.864405e-20 6.0881618e-06 -3.2650504e-21 1.9955855e-35)
(0.0025613327 1.5208481e-05 -2.817542e-19 3.8361526e-06 -2.7092964e-20 1.3277767e-33)
(0.0025836404 5.766556e-06 -9.7968678e-20 2.5663876e-06 -1.0922697e-20 2.0800174e-34)
(0.0026293017 -3.5611001e-07 9.9514373e-20 1.8025624e-06 1.3506079e-20 2.9338532e-34)
(0.0026865005 -5.8814992e-06 2.823285e-19 1.5214521e-06 4.7227754e-20 3.4622117e-33)
(0.0027645797 -9.6093302e-06 -7.0802737e-20 1.2361415e-06 -1.5957274e-20 3.5302472e-34)
(0.002854145 -1.6927882e-05 -7.7984633e-20 1.5098638e-06 -2.5882395e-20 9.1703785e-34)
(0.0029444228 -2.5775142e-05 -1.8174961e-20 1.6187981e-06 -1.2951278e-20 1.6820319e-34)
(9.9087037e-10 -9.9801633e-09 -4.1263757e-23 1.006033e-07 3.970685e-22 9.1679414e-36)
(9.2149589e-09 -8.8999468e-08 1.1119814e-22 8.6022837e-07 -1.0177535e-21 1.6255358e-35)
(2.9782841e-08 -2.7527797e-07 -5.8920645e-23 2.5467443e-06 5.0684661e-22 2.124502e-36)
(7.0024289e-08 -6.172722e-07 8.6341346e-24 5.4475677e-06 -6.9841845e-23 2.5097193e-38)
(1.4141421e-07 -1.1862072e-06 -2.248801e-22 9.9639542e-06 1.7146302e-21 9.8038496e-36)
(2.6180464e-07 -2.0847738e-06 3.0442866e-22 1.6628884e-05 -2.1945877e-21 1.0489224e-35)
(4.5882977e-07 -3.4598945e-06 -6.0082683e-22 2.6141715e-05 4.0994302e-21 2.4117972e-35)
(7.7503306e-07 -5.5202944e-06 3.6595941e-22 3.9411857e-05 -2.3618117e-21 5.334165e-36)
(1.2757694e-06 -8.5610737e-06 1.7936259e-21 5.7610412e-05 -1.0931679e-20 7.701753e-35)
(2.0611498e-06 -1.2997017e-05 -5.5415659e-22 8.2229134e-05 3.1827079e-21 4.4467169e-36)
(3.2841267e-06 -1.9407591e-05 -2.7051264e-21 0.00011514487 1.4604902e-20 6.4387784e-35)
(5.1776817e-06 -2.8596654e-05 1.0563921e-21 0.00015868458 -5.3472024e-21 5.9877912e-36)
(8.0954217e-06 -4.1670339e-05 9.0161846e-23 0.00021568366 -4.2665049e-22 2.6678512e-38)
(1.2571729e-05 -6.0136476e-05 -4.4982831e-21 0.00028952472 1.9839049e-20 4.0736164e-35)
(1.9410122e-05 -8.6028229e-05 1.7895642e-20 0.00038413789 -7.3321624e-20 3.968809e-34)
(2.9810912e-05 -0.00012205086 -1.3931925e-20 0.00050393507 5.2845716e-20 1.48712e-34)
(4.5553535e-05 -0.00017174782 -1.6773861e-22 0.00065364192 5.8691263e-22 1.3402227e-38)
(6.9251319e-05 -0.00023967141 1.2248905e-20 0.00083798306 -3.9385526e-20 4.4762244e-35)
(0.00010469855 -0.00033152986 -3.890958e-20 0.0010611725 1.1452743e-19 2.8556714e-34)
(0.00015733269 -0.00045426877 2.281534e-20 0.00132617 -6.1230751e-20 6.2812086e-35)
(0.00023482543 -0.00061601267 4.1933054e-20 0.0016336901 -1.021957e-19 1.3769277e-34)
(0.00034780655 -0.00082577306 2.0731162e-20 0.0019810042 -4.5690987e-20 2.2211868e-35)
(0.00051069036 -0.0010928032 -1.2393224e-19 0.002360663 2.4594498e-19 5.3412122e-34)
(0.00074252096 -0.0014254832 -7.7404481e-20 0.0027593767 1.3767539e-19 1.4322579e-34)
(0.0010676879 -0.0018296743 5.9098218e-20 0.0031573878 -9.3735848e-20 5.8735113e-35)
(0.0015162644 -0.0023065656 -4.0247431e-20 0.0035287362 5.6608537e-20 1.9633342e-35)
(0.0021236863 -0.0028502255 1.740117e-19 0.0038427707 -2.1567648e-19 2.7121316e-34)
(0.0029293171 -0.003445144 -5.7020441e-20 0.0040670585 6.1838036e-20 2.2061537e-35)
(0.0039732681 -0.0040641977 1.7350131e-19 0.0041715859 -1.632885e-19 1.5847015e-34)
(0.0052914658 -0.0046676845 -1.0958589e-19 0.0041332629 8.8656967e-20 5.0212761e-35)
(0.0069086426 -0.0052041859 7.5004613e-20 0.0039406503 -5.1609609e-20 1.9120412e-35)
(0.0088294804 -0.005613718 -3.0149284e-19 0.003597634 1.7432753e-19 2.5691355e-34)
(0.011028612 -0.0058335275 4.7001125e-20 0.0031252189 -2.2519543e-20 5.3117664e-36)
(0.013441317 -0.0058066373 -2.6638095e-19 0.00256094 1.0399206e-19 1.4851929e-34)
(0.015958232 -0.0054923364 2.7130413e-19 0.0019552971 -8.4487448e-20 1.3724897e-34)
(0.018426096 -0.004877352 9.1336976e-20 0.0013658775 -2.206178e-20 1.4190378e-35)
(0.020657037 -0.0039842633 -1.1869766e-18 0.00084861766 2.137705e-19 2.2381669e-33)
(0.02245034 -0.0028748999 -3.1884752e-19 0.00044817322 4.0312843e-20 1.5451066e-34)
(0.023620802 -0.001647004 2.6906981e-19 0.00018992461 -2.1520463e-20 1.0778604e-34)
(0.024033595 -0.00042184126 -2.659924e-19 7.4726013e-05 1.0708772e-20 1.0560933e-34)
(0.023636158 0.00067643866 6.8067649e-20 7.8922478e-05 -4.6488963e-22 7.0898837e-36)
(0.022472901 0.0015454526 4.1961697e-19 0.00016076965 8.6964153e-21 2.8196771e-34)
(0.020680636 0.0021260542 -1.8998384e-20 0.00027220952 -8.1406158e-22 6.1636819e-37)
(0.018458235 0.0024106902 -1.3244943e-19 0.00037191148 -7.9450459e-21 3.2498553e-35)
(0.016027547 0.0024373994 6.1877421e-20 0.00043425415 4.4917231e-21 7.8009158e-36)
(0.013592744 0.0022729066 -2.9398497e-20 0.00045144712 -2.3807133e-21 1.9619384e-36)
(0.011311719 0.0019921101 -8.0351117e-20 0.00042951333 -6.9091087e-21 1.6457175e-35)
(0.0092862225 0.0016612477 1.1663962e-18 0.00038130263 1.0298029e-19 3.9228179e-33)
(0.0075656457 0.0013290282 -1.2240791e-19 0.00032027257 -1.0874355e-20 4.9140329e-35)
(0.0061602632 0.0010255018 1.0570072e-19 0.00025693117 9.3464933e-21 4.1848607e-35)
(0.0050532474 0.00076554803 -9.2521346e-19 0.00019802362 -8.1128315e-20 3.6758297e-33)
(0.0042128822 0.00055363339 4.7042164e-19 0.00014705597 4.0933932e-20 1.0932106e-33)
(0.0035987407 0.00038799699 3.5794769e-19 0.00010540511 3.1069521e-20 7.3109367e-34)
(0.0031689158 0.00026325822 3.1486856e-19 7.2968947e-05 2.7519249e-20 6.5632039e-34)
(0.0028829638 0.00017273798 2.7819738e-19 4.8903158e-05 2.4889864e-20 5.9850792e-34)
(0.002705186 0.00010888581 3.9873176e-19 3.178533e-05 3.7251318e-20 1.4485086e-33)
(0.0026068676 6.5437165e-05 -7.2283369e-19 2.0164604e-05 -7.2573377e-20 5.6891849e-33)
(0.0025636644 3.5918078e-05 4.0034748e-19 1.2621576e-05 4.4216005e-20 2.1213224e-33)
(0.0025608116 1.6715663e-05 5.3933608e-19 7.9311785e-06 6.8010868e-20 4.817323e-33)
(0.0025830581 3.0508854e-06 -3.4604877e-19 5.2586972e-06 -5.0736462e-20 2.5676093e-33)
(0.0026283655 -5.8253206e-06 -9.4109874e-20 3.6360334e-06 -1.6880049e-20 2.5979762e-34)
(0.0026852345 -1.3909917e-05 -6.7660033e-20 3.0251047e-06 -1.5003594e-20 1.9697906e-34)
(0.0027619617 -1.9284407e-05 2.7075367e-19 2.404079e-06 8.1156641e-20 5.1012131e-33)
(0.0028505289 -2.9641599e-05 1.3742641e-19 2.9635008e-06 6.0014361e-20 2.7522575e-33)
(0.0029502809 -3.9785116e-05 -3.3514475e-21 3.0089592e-06 -3.0855467e-21 5.3417565e-36)
(2.8110371e-09 -2.1921701e-08 4.8360592e-23 1.7100015e-07 -3.6738002e-22 4.5455892e-36)
(2.5206516e-08 -1.9191954e-07 -2.668576e-22 1.461612e-06 1.968052e-21 3.5091715e-35)
(7.86299e-08 -5.8321527e-07 3.1080937e-22 4.3271464e-06 -2.2084655e-21 2.331837e-35)
(1.7807038e-07 -1.2835976e-06 -1.5441644e-22 9.2561206e-06 1.05657e-21 3.3293382e-36)
(3.462201e-07 -2.4206821e-06 -7.1835067e-23 1.6932657e-05 4.7363305e-22 4.3439607e-37)
(6.1680476e-07 -4.1742532e-06 7.9229011e-22 2.8265555e-05 -5.0399804e-21 3.2154248e-35)
(1.0397959e-06 -6.7960233e-06 -2.5613512e-22 4.4449237e-05 1.572045e-21 2.0618526e-36)
(1.6889521e-06 -1.063615e-05 -6.9121878e-22 6.7038117e-05 4.088844e-21 9.2913365e-36)
(2.6730463e-06 -1.6179686e-05 -6.7145813e-23 9.8036391e-05 3.8214401e-22 5.4664066e-38)
(4.1522195e-06 -2.4094944e-05 -7.1996757e-22 0.00014000007 3.9336173e-21 3.9417544e-36)
(6.3619029e-06 -3.5297598e-05 1.2695619e-21 0.00019614923 -6.6424973e-21 7.7213603e-36)
(9.6475325e-06 -5.1033885e-05 -1.1091422e-21 0.00027048172 5.542297e-21 3.7250801e-36)
(1.4514869e-05 -7.2987351e-05 -5.1289784e-21 0.00036787614 2.4405497e-20 5.0490687e-35)
(2.1701994e-05 -0.00010341151 -1.867257e-22 0.00049416195 8.4341667e-22 4.2530316e-38)
(3.2281778e-05 -0.00014529064 6.1424352e-21 0.00065612391 -2.6246362e-20 2.9345017e-35)
(4.780617e-05 -0.00020252642 5.4276737e-21 0.00086139328 -2.1859379e-20 1.4665733e-35)
(7.050535e-05 -0.00028013921 -5.8084432e-21 0.0011181627 2.1961928e-20 1.080509e-35)
(0.00010355831 -0.00038446317 6.9051583e-22 0.0014346461 -2.4409079e-21 9.8898076e-38)
(0.00015145124 -0.0005232951 1.7289006e-20 0.0018181994 -5.6885329e-20 4.0491758e-35)
(0.00022043757 -0.00070593193 2.5800991e-20 0.0022740332 -7.8651787e-20 5.952831e-35)
(0.00031910545 -0.00094300401 -3.5800013e-20 0.0028034907 1.0062396e-19 7.6643974e-35)
(0.00045904331 -0.0012459854 -4.3412931e-20 0.0034019592 1.1194235e-19 7.6536002e-35)
(0.00065555407 -0.0016262334 6.9721208e-20 0.0040566428 -1.6405648e-19 1.3643279e-34)
(0.00092832771 -0.0020934394 -1.0189614e-19 0.0047446032 2.1756564e-19 2.0539314e-34)
(0.0013019222 -0.0026534398 -2.0620675e-19 0.0054316631 3.9710992e-19 6.056222e-34)
(0.0018057939 -0.0033054368 5.6104668e-19 0.0060728924 -9.6813247e-19 3.3014908e-33)
(0.0024736374 -0.0040389442 -3.5245351e-19 0.0066152563 5.4107843e-19 9.8209174e-34)
(0.0033415781 -0.0048308291 5.8922515e-19 0.0070027303 -7.984657e-19 2.1178411e-33)
(0.0044447614 -0.0056430412 -8.2218128e-19 0.0071834686 9.7481396e-19 3.2540168e-33)
(0.0058123578 -0.006421789 1.014832e-18 0.0071176135 -1.0423367e-18 4.0005627e-33)
(0.0074605846 -0.0070990438 -1.1491612e-18 0.0067854792 1.0112954e-18 4.2320648e-33)
(0.0093843053 -0.0075970339 2.0987919e-19 0.006193843 -1.5630863e-19 1.1902046e-34)
(0.011547951 -0.0078360326 7.7930505e-19 0.0053789823 -4.8423076e-19 1.4138597e-33)
(0.013877598 -0.0077455961 -4.6823061e-19 0.0044057317 2.3864994e-19 4.49488e-34)
(0.016257202 -0.0072782151 1.5451479e-19 0.0033615743 -6.3251312e-20 4.4073481e-35)
(0.018531458 -0.0064233304 4.7128308e-20 0.0023460598 -1.5074744e-20 3.7760865e-36)
(0.020517784 -0.0052177633 6.0082337e-19 0.0014557185 -1.4457983e-19 5.7850498e-34)
(0.022028731 -0.003748768 2.0031997e-19 0.00076723406 -3.4265e-20 6.2038103e-35)
(0.02290123 -0.0021479047 2.0449247e-19 0.00032333098 -2.2601172e-20 6.3806632e-35)
(0.023030316 -0.00057376564 2.0254924e-19 0.00012418415 -1.185779e-20 6.3163448e-35)
(0.022395717 0.00081578166 -1.0230529e-18 0.00012781823 1.4973771e-20 1.6604605e-33)
(0.021071746 0.001896352 4.4056924e-19 0.00026172819 9.5311278e-21 3.2352761e-34)
(0.019214059 0.0026025408 6.8112594e-20 0.00044387341 3.4520178e-21 8.2715767e-36)
(0.01702443 0.0029357337 -7.5775195e-19 0.00060515167 -5.5382387e-20 1.1109172e-33)
(0.014711512 0.0029527922 -3.6729149e-19 0.00070410624 -3.2795047e-20 2.8705814e-34)
(0.01245377 0.0027422468 1.71632e-19 0.00072948124 1.7170845e-20 6.9640912e-35)
(0.010378537 0.0023978739 5.8981304e-19 0.00069241084 6.2706302e-20 9.2097185e-34)
(0.0085597569 0.0019990559 -2.4166545e-19 0.00061427203 -2.6392856e-20 1.7409458e-34)
(0.0070266287 0.0016020162 6.6273171e-19 0.00051657549 7.2865555e-20 1.4809326e-33)
(0.0057782583 0.0012403554 3.3717997e-19 0.00041565447 3.690749e-20 4.3520033e-34)
(0.0047943181 0.00093024844 4.3408903e-19 0.00032180684 4.7096842e-20 8.220037e-34)
(0.0040449288 0.00067636587 1.0844797e-18 0.00024035409 1.166927e-19 5.870079e-33)
(0.0034943548 0.00047661404 -7.772846e-19 0.00017343422 -8.340441e-20 3.4659665e-33)
(0.0031066476 0.00032491824 2.3418658e-19 0.00012094178 2.5315752e-20 3.6350672e-34)
(0.0028471443 0.00021378493 -3.7002838e-19 8.1657914e-05 -4.0993067e-20 1.0563622e-33)
(0.0026852419 0.00013457581 -3.2157217e-19 5.3442475e-05 -3.7251308e-20 9.3727512e-34)
(0.0025959083 8.0151159e-05 -1.1421412e-19 3.4111706e-05 -1.4236178e-20 1.4098871e-34)
(0.0025575096 4.275563e-05 -9.3632646e-19 2.1452792e-05 -1.2852514e-19 1.1498663e-32)
(0.0025569516 1.8204652e-05 -2.2362149e-19 1.352115e-05 -3.5100502e-20 8.1999998e-34)
(0.0025802104 4.5609922e-07 4.4729748e-19 8.9531572e-06 8.1707661e-20 4.2418183e-33)
(0.0026257706 -1.1106324e-05 1.4413108e-19 6.1589818e-06 3.2272042e-20 6.0245819e-34)
(0.0026827253 -2.1801842e-05 -8.8896396e-20 5.0801127e-06 -2.4607421e-20 3.3557351e-34)
(0.0027578651 -2.878861e-05 -1.4427574e-19 4.0012013e-06 -5.4132054e-20 1.4341763e-33)
(0.0028457424 -4.2105906e-05 -1.575465e-19 4.9380736e-06 -8.4729826e-20 3.4766871e-33)
(0.0029578906 -5.2658907e-05 6.9185316e-21 4.7619949e-06 7.4963505e-21 2.02169e-35)
(6.4298033e-09 -4.0677378e-08 2.2263305e-22 2.5736835e-07 -1.3849906e-21 4.2200081e-35)
(5.6589194e-08 -3.5267642e-07 1.2931791e-22 2.1981702e-06 -7.8941962e-22 3.6816496e-36)
(1.7329323e-07 -1.061846e-06 -1.4747383e-22 6.5071795e-06 8.7895829e-22 2.413438e-36)
(3.8471898e-07 -2.3139119e-06 -7.054548e-22 1.3919176e-05 4.1026512e-21 3.2898666e-35)
(7.3270821e-07 -4.3192891e-06 4.909423e-22 2.5466703e-05 -2.7865503e-21 9.8734541e-36)
(1.2775733e-06 -7.3696758e-06 -8.9442586e-22 4.2521543e-05 4.9575042e-21 2.0448518e-35)
(2.1060494e-06 -1.1867333e-05 4.8813844e-22 6.6889633e-05 -2.6414251e-21 3.8269871e-36)
(3.3423294e-06 -1.8363083e-05 1.4604873e-22 0.00010092337 -7.7078687e-22 2.1700763e-37)
(5.1640942e-06 -2.760805e-05 -1.0343989e-21 0.00014766008 5.3162477e-21 6.9489905e-36)
(7.8250595e-06 -4.0620704e-05 -2.7804927e-21 0.00021097856 1.3890219e-20 3.2257189e-35)
(1.168696e-05 -5.8774118e-05 -1.7363595e-22 0.00029577303 8.4135238e-22 8.1216225e-38)
(1.726446e-05 -8.3906654e-05 7.0609268e-21 0.00040812973 -3.3107747e-20 8.7059416e-35)
(2.5288019e-05 -0.00011846031 -1.2106327e-20 0.00055548901 5.4788052e-20 1.6645866e-34)
(3.679139e-05 -0.00016564933 2.4184279e-20 0.00074675882 -1.053352e-19 4.3349787e-34)
(5.3231859e-05 -0.00022965761 -7.8035332e-21 0.00099232954 3.2608771e-20 2.9562529e-35)
(7.6653343e-05 -0.00031585773 2.0420815e-20 0.0013039166 -8.1586234e-20 1.3318314e-34)