/*--------------------------------*- C++ -*----------------------------------*\
  =========                 |
  \\      /  F ield         | OpenFOAM: The Open Source CFD Toolbox
   \\    /   O peration     | Website:  https://openfoam.org
    \\  /    A nd           | Version:  13
     \\/     M anipulation  |
\*---------------------------------------------------------------------------*/
FoamFile
{
    format      ascii;
    class       volVectorField;
    location    "40.603043";
    object      U;
}
// * * * * * * * * * * * * * * * * * * * * * * * * * * * * * * * * * * * * * //

dimensions      [0 1 -1 0 0 0 0];

internalField   nonuniform List<vector> 
17140
(
(1.5344107e-06 -0.00011944442 2.843216e-23)
(3.3517549e-06 -0.00036828619 3.1492671e-24)
(3.3241735e-06 -0.00064303738 -2.078044e-22)
(7.9976686e-07 -0.00094847866 2.2835676e-22)
(-4.9999362e-06 -0.0012899088 -2.6682994e-23)
(-1.5090424e-05 -0.0016731453 8.7280089e-23)
(-3.0764366e-05 -0.0021045152 1.4683955e-22)
(-5.3629488e-05 -0.0025908231 -7.1608344e-23)
(-8.568421e-05 -0.0031393297 -2.3415347e-22)
(-0.00012940319 -0.0037575905 -5.7355163e-22)
(-0.00018783971 -0.0044533082 8.4899517e-22)
(-0.00026473773 -0.0052341383 -7.550458e-22)
(-0.00036466429 -0.0061074277 -1.1533533e-22)
(-0.00049315971 -0.0070798698 6.4982555e-22)
(-0.00065690526 -0.0081570704 -7.1916535e-23)
(-0.00086390688 -0.0093430162 5.6673114e-22)
(-0.0011236903 -0.010639437 -2.0959109e-23)
(-0.0014475008 -0.01204506 4.6779451e-24)
(-0.0018484971 -0.013554767 3.2819656e-22)
(-0.0023419216 -0.015158676 -4.2106803e-22)
(-0.0029452248 -0.016841186 2.0030893e-22)
(-0.0036781127 -0.018580062 -3.7552926e-23)
(-0.0045624732 -0.020345663 -2.7315567e-22)
(-0.0056221311 -0.022100466 2.6676609e-22)
(-0.0068823642 -0.023799079 4.1644627e-22)
(-0.0083691059 -0.025388997 -3.2729986e-22)
(-0.01010775 -0.026812429 -1.5700597e-21)
(-0.01212148 -0.028009544 -1.8088974e-22)
(-0.014429086 -0.028923601 1.5502352e-21)
(-0.017042323 -0.029508355 3.5373573e-22)
(-0.019963105 -0.029737821 1.2302012e-21)
(-0.02318123 -0.029617089 -1.5737423e-21)
(-0.026673805 -0.029189939 3.9645641e-22)
(-0.030407652 -0.028535778 1.8154536e-22)
(-0.034345024 -0.027751148 1.7227536e-21)
(-0.038450554 -0.026923253 -7.2078571e-22)
(-0.042695909 -0.026112117 1.0336501e-21)
(-0.047060522 -0.025349184 6.6808683e-22)
(-0.051530155 -0.024645654 2.948078e-22)
(-0.056095875 -0.024000707 -8.643942e-22)
(-0.060754981 -0.023405156 -1.5951583e-21)
(-0.065513656 -0.02284018 -1.4282299e-21)
(-0.070390872 -0.022271931 -6.2064765e-22)
(-0.07542633 -0.021644398 3.0285869e-21)
(-0.080686612 -0.020865924 2.2303581e-21)
(-0.086267698 -0.019791848 -5.5480841e-22)
(-0.092303545 -0.018214726 3.7995659e-21)
(-0.098970235 -0.015831526 1.3059459e-21)
(-0.10647932 -0.012209478 -1.3452866e-21)
(-0.11507172 -0.0067247946 -3.3196643e-21)
(-0.1249714 0.0015207253 2.060669e-21)
(-0.13635512 0.013842261 1.3014204e-21)
(-0.14915973 0.032077921 -3.3894741e-21)
(-0.16298503 0.05873108 -1.5853973e-21)
(-0.17667951 0.096497362 -1.1210837e-21)
(-0.1881332 0.14696443 8.6019434e-22)
(-0.19347838 0.20820491 -2.2592533e-21)
(-0.18790045 0.27125317 -1.8528137e-21)
(-0.16865497 0.31590666 -4.6495455e-22)
(-0.1408176 0.31959996 1.2484665e-21)
(-0.10417086 0.21700347 1.0826531e-21)
(0.01831575 -0.054927769 4.3174673e-21)
(0.22538187 -0.36100684 4.1993883e-22)
(0.3520173 -0.49154552 -2.0151534e-21)
(0.38765126 -0.49404855 6.6542161e-22)
(3.6100445e-06 -8.99458e-05 -8.0702944e-24)
(9.715211e-06 -0.00027692215 1.0869994e-21)
(1.4444423e-05 -0.00048331255 -9.6702083e-22)
(1.7269479e-05 -0.00071324086 2.6350932e-22)
(1.747264e-05 -0.00097137038 5.441195e-22)
(1.4268655e-05 -0.001262857 -1.0391205e-21)
(6.4361779e-06 -0.0015933289 1.0823636e-21)
(-7.4723148e-06 -0.0019689581 -9.5173906e-23)
(-2.9202957e-05 -0.0023962695 2.9680606e-22)
(-6.1115105e-05 -0.0028819722 5.0240685e-24)
(-0.00010605011 -0.0034329933 9.8782928e-22)
(-0.00016760077 -0.0040562847 -1.5659841e-21)
(-0.00025015475 -0.0047585714 -1.2902185e-22)
(-0.00035910334 -0.0055460299 1.2687259e-21)
(-0.0005010134 -0.0064239 -3.8782002e-22)
(-0.0006838189 -0.0073960082 -2.4478902e-22)
(-0.0009170394 -0.0084641943 1.543081e-21)
(-0.0012119955 -0.0096276428 -4.9835363e-21)
(-0.0015820248 -0.010882126 3.0876888e-21)
(-0.0020426733 -0.012219185 -3.6536735e-21)
(-0.0026118419 -0.013625284 5.3205033e-21)
(-0.0033098505 -0.015081012 -1.2825711e-21)
(-0.0041593782 -0.016560435 -5.1943653e-22)
(-0.0051852197 -0.018030737 1.6647399e-21)
(-0.0064137905 -0.019452345 -5.8666124e-21)
(-0.0078722978 -0.020779775 -8.5693137e-22)
(-0.0095874888 -0.021963488 4.3488793e-21)
(-0.011583893 -0.02295308 -4.7726771e-21)
(-0.013881514 -0.02370214 6.4042783e-22)
(-0.016493026 -0.024175014 6.1514395e-21)
(-0.019420766 -0.024355247 -6.246511e-22)
(-0.022654244 -0.024254221 -4.653092e-21)
(-0.026169418 -0.023915963 -1.1401338e-22)
(-0.029931178 -0.023412059 3.2477804e-21)
(-0.033899398 -0.022824003 -3.4783064e-21)
(-0.038036345 -0.022220952 1.4980436e-21)
(-0.042311738 -0.021646681 -1.6803158e-21)
(-0.046703543 -0.021120654 -5.1247756e-21)
(-0.051196253 -0.020645972 -1.1064582e-21)
(-0.055779598 -0.020215914 -4.1938192e-21)
(-0.060449142 -0.01981592 5.2720832e-21)
(-0.065208594 -0.01942118 4.7927728e-21)
(-0.070073186 -0.018990566 8.2009653e-22)
(-0.075076273 -0.018458998 -6.5544714e-21)
(-0.080275824 -0.017724979 3.1053698e-21)
(-0.085754702 -0.016635064 1.0877215e-21)
(-0.091626645 -0.014972725 -6.1854468e-22)
(-0.098039027 -0.012428052 -1.8708743e-21)
(-0.10516135 -0.0085676951 9.3197003e-22)
(-0.113176 -0.0027787964 -1.6433604e-21)
(-0.12222266 0.0058078194 -1.0143221e-20)
(-0.13236909 0.018442742 -5.1241489e-22)
(-0.1434087 0.036848985 2.2330412e-21)
(-0.15482283 0.06335056 -4.7171528e-21)
(-0.16544173 0.10042416 4.0317449e-21)
(-0.1732052 0.14923512 -1.1155467e-20)
(-0.17398224 0.20753386 -3.0291124e-21)
(-0.16323723 0.26673662 8.7221819e-21)
(-0.13877917 0.30827614 -1.5102329e-21)
(-0.10323062 0.30932434 -1.8202597e-21)
(-0.046340455 0.1910573 -4.4456944e-22)
(0.1234796 -0.10354203 6.9916584e-21)
(0.32360079 -0.40664945 -8.0966961e-21)
(0.44015391 -0.51106593 -1.4469977e-21)
(0.4536447 -0.49022822 -8.8656318e-22)
(4.075257e-06 -6.0297108e-05 -4.4325454e-22)
(1.1174582e-05 -0.00018510837 3.2752765e-22)
(1.7019052e-05 -0.00032285186 8.708633e-23)
(2.114067e-05 -0.00047704164 -8.2538364e-23)
(2.3060684e-05 -0.00065170867 3.9981398e-22)
(2.1936226e-05 -0.00085126951 2.9735889e-23)
(1.6750588e-05 -0.0010805265 3.7940808e-22)
(6.2778207e-06 -0.0013448444 4.0845659e-22)
(-1.1212661e-05 -0.0016499041 -3.3341181e-21)
(-3.7853909e-05 -0.0020016822 2.9727828e-21)
(-7.6316847e-05 -0.0024063553 -1.4201637e-21)
(-0.00012999567 -0.002870147 -2.0765019e-21)
(-0.00020309714 -0.0033991077 4.106637e-21)
(-0.00030083364 -0.0039988485 5.0683148e-22)
(-0.00042960106 -0.0046741988 -1.9477782e-21)
(-0.00059719148 -0.0054287868 -1.332099e-21)
(-0.00081301627 -0.006264534 1.5349888e-21)
(-0.0010883404 -0.0071810663 -5.5134211e-21)
(-0.0014365135 -0.0081750494 3.2281805e-21)
(-0.0018731796 -0.0092394702 -1.5792675e-21)
(-0.0024164407 -0.010362905 5.2575364e-21)
(-0.0030869378 -0.011528843 1.3492887e-21)
(-0.0039078022 -0.012715154 -2.7678085e-21)
(-0.0049044174 -0.013893855 4.0953727e-21)
(-0.0061039176 -0.01503134 1.5834164e-21)
(-0.0075343373 -0.016089303 -1.8648316e-21)
(-0.0092233188 -0.017026627 -1.0403424e-20)
(-0.01119629 -0.017802493 -4.6213491e-21)
(-0.013474064 -0.018380972 2.2610332e-21)
(-0.016069919 -0.018737142 -2.3801792e-21)
(-0.018986451 -0.018864253 1.4531527e-21)
(-0.022212953 -0.018780203 8.0648699e-21)
(-0.025724611 -0.018529539 -2.62228e-21)
(-0.029485018 -0.01817629 -7.6016917e-21)
(-0.033452373 -0.017787064 2.4406002e-21)
(-0.037587186 -0.017412841 3.2784526e-21)
(-0.041857472 -0.017080837 -5.4341552e-21)
(-0.046239526 -0.016798197 -1.5845443e-21)
(-0.050716124 -0.016559698 2.7431094e-21)
(-0.055275031 -0.016352661 1.0812537e-21)
(-0.059909239 -0.016157353 -5.0624498e-21)
(-0.064618859 -0.015943484 1.4036387e-21)
(-0.069413828 -0.015663526 2.0637414e-21)
(-0.074319426 -0.015244533 5.5522272e-21)
(-0.079382175 -0.014576607 -1.0670245e-20)
(-0.084668038 -0.013499801 6.9714442e-21)
(-0.09026598 -0.011791408 1.7584479e-21)
(-0.096288463 -0.0091384512 7.1644657e-21)
(-0.10285511 -0.0051121172 8.707072e-21)
(-0.1100792 0.00088269738 4.6323035e-22)
(-0.11800615 0.0096794014 -1.7436833e-21)
(-0.12658576 0.02245547 1.3877014e-20)
(-0.13546392 0.040821837 5.9105203e-21)
(-0.14401815 0.066981123 6.0806871e-21)
(-0.15122116 0.10309315 1.8753962e-21)
(-0.15427536 0.14993931 1.4887187e-20)
(-0.1487281 0.20513832 -5.5293419e-21)
(-0.13007774 0.26047659 1.6711748e-21)
(-0.094566098 0.29889403 1.5087268e-20)
(-0.044859668 0.29513056 6.8265283e-21)
(0.053071637 0.15887431 -1.0184952e-20)
(0.25111471 -0.15065218 -3.5552776e-20)
(0.43769197 -0.4439756 7.0297678e-21)
(0.53411302 -0.52208647 6.4644066e-21)
(0.52689453 -0.47508294 9.7944752e-22)
(2.9474649e-06 -3.1041814e-05 1.4801101e-21)
(7.6719093e-06 -9.4518359e-05 -2.3546761e-21)
(1.0961695e-05 -0.00016449924 8.5117516e-22)
(1.2422113e-05 -0.00024386644 -9.2500991e-23)
(1.1569209e-05 -0.00033589732 1.8280035e-21)
(7.7261784e-06 -0.00044429333 -1.8903616e-21)
(-1.5757417e-08 -0.00057317313 2.8658756e-21)
(-1.2839859e-05 -0.0007270295 -1.3471967e-21)
(-3.2284057e-05 -0.00091071586 -5.1176173e-21)
(-6.0325146e-05 -0.0011293857 1.2289823e-21)
(-9.9486534e-05 -0.0013883952 4.674268e-21)
(-0.00015296289 -0.0016931741 -1.4242328e-21)
(-0.0002247674 -0.002049049 -9.4884416e-23)
(-0.00031990122 -0.0024610132 3.7085643e-21)
(-0.00044454643 -0.0029334335 -1.1560194e-20)
(-0.00060628075 -0.0034696882 7.0658779e-21)
(-0.0008143104 -0.0040717323 6.7160744e-23)
(-0.0010797139 -0.0047395896 -3.862826e-21)
(-0.0014156851 -0.005470782 9.7348224e-21)
(-0.0018377561 -0.0062597156 -4.5532353e-21)
(-0.0023639752 -0.0070970642 -6.724229e-21)
(-0.0030150011 -0.0079692114 -2.692379e-21)
(-0.0038140663 -0.0088578463 1.315621e-20)
(-0.0047867453 -0.0097398435 6.7880293e-21)
(-0.0059604532 -0.010587598 -4.3286471e-21)
(-0.0073635844 -0.011370029 2.4921831e-21)
(-0.0090241941 -0.012054481 -9.2098738e-21)
(-0.010968134 -0.01260977 2.6109868e-21)
(-0.013216589 -0.013010502 -6.948999e-21)
(-0.015783096 -0.013242578 3.8699529e-21)
(-0.018670331 -0.013309145 -2.3559643e-21)
(-0.021867421 -0.013234967 8.5064556e-21)
(-0.025349127 -0.013065725 -1.1923994e-21)
(-0.029078366 -0.012858671 6.1236024e-21)
(-0.03301246 -0.012666131 -5.6694574e-21)
(-0.037110763 -0.01252116 -1.7514882e-21)
(-0.041339806 -0.012434231 2.0943045e-20)
(-0.045674132 -0.012399691 5.26976e-21)
(-0.050094493 -0.012403559 -4.2220627e-21)
(-0.054586139 -0.012427046 4.0468627e-21)
(-0.05913867 -0.012445469 -1.0087105e-21)
(-0.06374751 -0.012423658 -6.3967812e-21)
(-0.068415858 -0.01230864 3.0530721e-22)
(-0.073159213 -0.012020925 2.1523269e-21)
(-0.078010104 -0.011444037 -1.0420184e-21)
(-0.083014148 -0.010413834 4.9258354e-22)
(-0.088231404 -0.008704525 1.5319919e-21)
(-0.093733835 -0.0060040624 -2.4657101e-20)
(-0.099583838 -0.0018934037 2.7392398e-21)
(-0.10581695 0.0041990356 -2.5924547e-21)
(-0.11237424 0.013063202 2.4407586e-20)
(-0.11907525 0.025797582 -1.3459282e-20)
(-0.12539185 0.043912185 -1.0787042e-20)
(-0.13065041 0.069529987 -1.0077992e-20)
(-0.13368363 0.10438812 -9.5244425e-21)
(-0.13039044 0.14884695 -1.4831194e-20)
(-0.11648915 0.20051726 2.9315789e-20)
(-0.087132321 0.25149232 -1.8074281e-20)
(-0.03505906 0.28634686 -2.9166142e-20)
(0.035694063 0.27388436 2.5415465e-20)
(0.1825315 0.12282945 9.5738576e-21)
(0.39213717 -0.19135809 7.3173911e-21)
(0.56306639 -0.47041644 -3.0896e-20)
(0.62871811 -0.52473213 -1.0934863e-20)
(0.60459858 -0.45227426 -2.3172411e-22)
(2.5413327e-07 -2.6397217e-06 -1.0394025e-21)
(-6.5537483e-07 -6.5711229e-06 3.4503973e-21)
(-3.5090935e-06 -1.0758901e-05 -2.8123536e-21)
(-8.6671807e-06 -1.7429688e-05 1.0625411e-21)
(-1.6572032e-05 -2.9163179e-05 3.8376509e-22)
(-2.7842449e-05 -4.890712e-05 -3.3009623e-21)
(-4.3313652e-05 -7.9979079e-05 8.355788e-22)
(-6.4077459e-05 -0.00012605271 1.773368e-21)
(-9.1559207e-05 -0.00019113228 1.3597287e-22)
(-0.0001276025 -0.00027950465 1.1542012e-21)
(-0.00017457463 -0.00039566584 -1.6143965e-21)
(-0.00023548982 -0.00054421445 1.1205919e-21)
(-0.00031415567 -0.00072970643 4.1222021e-21)
(-0.00041534262 -0.00095646329 1.2002161e-22)
(-0.00054497774 -0.0012283279 -3.1355296e-21)
(-0.00071036135 -0.0015483616 -2.2137686e-21)
(-0.00092040331 -0.0019184794 1.8974794e-21)
(-0.0011858718 -0.0023390249 -1.8122171e-22)
(-0.0015196427 -0.0028082946 -3.6602479e-21)
(-0.0019369315 -0.0033220305 -4.428641e-21)
(-0.0024554805 -0.0038729191 5.0121667e-21)
(-0.0030956639 -0.0044501561 4.9983395e-21)
(-0.0038804615 -0.0050391663 -6.6570215e-21)
(-0.0048352356 -0.0056216009 8.1441015e-21)
(-0.0059872348 -0.0061757766 1.394194e-20)
(-0.0073647304 -0.0066777508 -3.2445217e-20)
(-0.0089956881 -0.0071032496 1.7631138e-20)
(-0.010905884 -0.0074306367 -2.5770643e-20)
(-0.013116416 -0.0076449962 3.175298e-20)
(-0.015640711 -0.0077430717 -3.4921678e-20)
(-0.018481284 -0.007738058 3.5513606e-20)
(-0.021627083 -0.0076620804 -5.8558271e-21)
(-0.025052742 -0.0075628604 -1.9770744e-20)
(-0.028721028 -0.0074921849 1.0819491e-20)
(-0.032589136 -0.0074894651 -3.2589555e-21)
(-0.036615946 -0.0075703921 -9.2084194e-22)
(-0.04076684 -0.0077284226 -1.0883629e-20)
(-0.045014676 -0.0079445102 -3.4319241e-21)
(-0.04933796 -0.008195381 -3.3048879e-21)
(-0.053718913 -0.0084559628 -3.2141331e-21)
(-0.058142983 -0.0086968345 1.6036782e-20)
(-0.062599899 -0.0088785603 -6.9679174e-21)
(-0.067084806 -0.0089437504 -1.1030189e-21)
(-0.071601793 -0.008807851 1.281968e-20)
(-0.076167143 -0.0083497887 6.5669233e-21)
(-0.080803078 -0.0074036546 -3.3049968e-21)
(-0.085536838 -0.005743866 -1.1948173e-20)
(-0.090395062 -0.0030634441 5.3427034e-21)
(-0.095376505 0.0010415917 -1.5393009e-20)
(-0.10043017 0.0071130471 -8.3606299e-21)
(-0.1053824 0.015890574 -1.1627764e-20)
(-0.10990089 0.028385662 -3.0497186e-20)
(-0.11323702 0.046056144 2.3297655e-20)
(-0.11480086 0.070810785 -7.2519252e-21)
(-0.11207976 0.10396285 1.2603518e-20)
(-0.10085747 0.14552092 1.1933342e-20)
(-0.076365506 0.19325106 4.1958166e-21)
(-0.032197628 0.23896634 4.1847148e-20)
(0.038666605 0.26956414 1.2227277e-20)
(0.1375228 0.24609458 -3.2712105e-20)
(0.32019125 0.083602766 -1.5976695e-20)
(0.53832086 -0.2247009 1.0810966e-20)
(0.69250623 -0.48414876 1.503677e-20)
(0.72065878 -0.51794248 1.2111733e-20)
(0.67886107 -0.42289145 3.149417e-22)
(-3.8958522e-06 2.444729e-05 -3.15915e-21)
(-1.3556924e-05 7.7287761e-05 -1.1149236e-21)
(-2.5909607e-05 0.00013586 9.0246007e-22)
(-4.1415084e-05 0.00019856752 3.3318188e-21)
(-6.0454687e-05 0.00026354088 -1.8250271e-21)
(-8.3630594e-05 0.00032858194 2.6258469e-21)
(-0.00011173447 0.00039117067 -1.1356989e-21)
(-0.00014579689 0.00044847151 -2.7039161e-22)
(-0.00018715874 0.00049735053 1.5293461e-21)
(-0.00023755485 0.00053441042 3.2937051e-21)
(-0.00029921499 0.00055604696 1.6544192e-22)
(-0.00037498403 0.0005585323 -5.4039937e-21)
(-0.00046846462 0.00053813038 7.4669876e-21)
(-0.00058418343 0.00049125031 -1.2038532e-20)
(-0.00072778182 0.00041464324 3.1401689e-21)
(-0.00090623008 0.00030564715 -6.6579438e-21)
(-0.0011280622 0.00016248177 8.0276547e-21)
(-0.0014036242 -1.5408604e-05 -5.1979371e-21)
(-0.0017453249 -0.00022697346 8.1740978e-22)
(-0.0021678706 -0.00046915504 3.3035418e-21)
(-0.0026884576 -0.00073650335 -7.9912697e-21)
(-0.0033268841 -0.0010208632 1.1211765e-20)
(-0.0041055321 -0.0013112175 -1.2116136e-20)
(-0.0050491547 -0.0015938034 -2.0676838e-21)
(-0.0061843869 -0.0018526538 2.0134591e-20)
(-0.0075388893 -0.0020707484 -2.0193492e-20)
(-0.0091400243 -0.0022319665 1.3023091e-20)
(-0.011012976 -0.0023239989 -1.4493467e-20)
(-0.013178275 -0.0023422166 -1.3680095e-21)
(-0.015648776 -0.002294104 -8.4931566e-22)
(-0.01842652 -0.0022030629 5.5651839e-21)
(-0.0215002 -0.0021091783 -3.7107266e-22)
(-0.02484452 -0.0020634681 2.0293354e-20)
(-0.028422814 -0.0021140664 -5.3466441e-21)
(-0.032192617 -0.0022891658 -1.5523676e-20)
(-0.036112742 -0.0025881287 6.988776e-21)
(-0.040148097 -0.0029874404 -5.5277504e-21)
(-0.044270157 -0.0034540149 5.3379799e-21)
(-0.048455001 -0.0039546339 2.8902231e-20)
(-0.052681374 -0.0044576333 -1.5569211e-20)
(-0.056929907 -0.0049290076 -3.7628068e-21)
(-0.061183719 -0.0053256825 2.1046836e-20)
(-0.065428726 -0.0055869449 -1.2112549e-21)
(-0.069656097 -0.0056247698 -2.5799723e-21)
(-0.073863759 -0.0053155879 -2.8040904e-20)
(-0.078048 -0.0044942662 -6.5655521e-21)
(-0.082199974 -0.0029388692 1.037116e-20)
(-0.08629644 -0.00035193028 1.0686975e-20)
(-0.090266403 0.0036499182 1.5212034e-20)
(-0.09396354 0.0095721891 1.8636605e-20)
(-0.097087393 0.018094078 1.1204225e-20)
(-0.099110252 0.030132483 1.7704979e-20)
(-0.099081395 0.047109149 -5.9202647e-21)
(-0.096212589 0.070561353 3.5377822e-20)
(-0.086376125 0.10144368 2.0540415e-21)
(-0.065740702 0.13952883 1.8089168e-21)
(-0.028334452 0.182565 6.6620143e-22)
(0.03386919 0.22266823 -4.51646e-20)
(0.12417235 0.2475886 -1.9385693e-20)
(0.25162899 0.21396754 3.5637842e-20)
(0.45562149 0.044086425 6.4160506e-20)
(0.68464088 -0.25124341 2.8699181e-20)
(0.81827313 -0.48535828 6.2241192e-21)
(0.80556095 -0.50075068 -1.4958533e-20)
(0.7405142 -0.39050855 7.4709931e-22)
(-9.4037946e-06 4.9772057e-05 5.9537785e-22)
(-3.0578038e-05 0.00015568882 1.8919914e-21)
(-5.5527116e-05 0.0002729429 -4.5660201e-21)
(-8.4742326e-05 0.00040057445 1.6967681e-22)
(-0.0001186327 0.00053740572 2.2224646e-21)
(-0.00015780037 0.00068198336 9.7938739e-22)
(-0.00020302678 0.00083258088 7.2300756e-22)
(-0.00025531293 0.00098720186 -1.4243151e-21)
(-0.00031594721 0.0011435892 7.3708905e-21)
(-0.00038658446 0.0012992488 -5.559414e-21)
(-0.00046934182 0.0014514906 2.6883506e-22)
(-0.00056691329 0.0015974899 3.3608418e-21)
(-0.00068270628 0.0017343745 -1.2562424e-20)
(-0.00082100128 0.0018593426 1.2508036e-20)
(-0.00098713582 0.0019698133 -1.6639795e-21)
(-0.0011877119 0.0020636161 -1.0281231e-20)
(-0.0014308243 0.0021392179 9.6499952e-21)
(-0.0017263033 0.0021959859 -3.3652679e-21)
(-0.0020859604 0.0022344763 6.5195977e-21)
(-0.0025238212 0.0022567314 -8.3380337e-21)
(-0.0030563164 0.0022665495 -1.5592888e-20)
(-0.0037023967 0.0022696761 1.5358204e-20)
(-0.00448352 0.0022738379 2.2368518e-20)
(-0.0054234469 0.0022885073 -4.2850093e-20)
(-0.0065477631 0.0023242578 3.4089146e-20)
(-0.0078830368 0.0023915359 -1.9611564e-20)
(-0.0094555106 0.0024986763 5.0079031e-21)
(-0.011289243 0.0026490352 -1.1727857e-20)
(-0.013403662 0.0028372998 1.1876851e-20)
(-0.015810625 0.0030454728 1.5835796e-20)
(-0.018511341 0.0032398738 -1.0391767e-20)
(-0.021494025 0.0033718481 -1.6958329e-20)
(-0.024733449 0.0033856121 1.4581314e-21)
(-0.028193582 0.0032344924 5.9644045e-22)
(-0.031833117 0.0028991757 1.013637e-20)
(-0.035611785 0.0023949474 -4.2295007e-21)
(-0.039494428 0.0017619982 -1.4989771e-20)
(-0.043451311 0.0010481194 -7.306988e-21)
(-0.047456083 0.00029727161 1.0763497e-20)
(-0.05148372 -0.00045184551 -8.2617577e-21)
(-0.055509479 -0.0011607196 6.9275543e-21)
(-0.059509071 -0.0017832498 -2.2817713e-21)
(-0.063458137 -0.0022565365 -8.7137408e-21)
(-0.067333625 -0.00249075 2.0893379e-20)
(-0.071113265 -0.0023620552 1.2556191e-20)
(-0.074765031 -0.0017087666 8.1933967e-21)
(-0.078241147 -0.00031613033 -2.5990326e-20)
(-0.081464454 0.0020990997 -1.6925322e-20)
(-0.084288064 0.0058936832 -1.9879078e-20)
(-0.086461846 0.011529404 -3.4543778e-20)
(-0.087544216 0.019607738 1.1575986e-20)
(-0.086754484 0.03095532 -2.512592e-21)
(-0.083019398 0.046905926 -1.8906083e-20)
(-0.074668428 0.068541573 -5.4540342e-20)
(-0.05684922 0.096494891 -3.5192251e-20)
(-0.025311043 0.13046546 -1.3404869e-20)
(0.02711463 0.16790821 -3.8817802e-20)
(0.10824291 0.20234838 2.652606e-20)
(0.21567082 0.22093985 -2.7226991e-21)
(0.3656812 0.17839651 -5.7566461e-20)
(0.58751711 0.0045533231 -4.8036912e-20)
(0.82771412 -0.27154926 -2.6614226e-21)
(0.93404115 -0.47434839 4.9990271e-20)
(0.87896281 -0.47341811 -1.7434215e-21)
(0.78748872 -0.35671865 1.8198815e-22)
(-1.6067293e-05 7.2923751e-05 2.3463084e-21)
(-5.1157425e-05 0.00022737119 -1.5825977e-21)
(-9.1362284e-05 0.00039830449 2.1375819e-21)
(-0.00013721708 0.00058538022 1.2147908e-21)
(-0.00018918661 0.00078809227 -3.3892675e-21)
(-0.00024791009 0.0010057133 -3.1633621e-21)
(-0.0003141914 0.0012372962 3.2451233e-21)
(-0.00038903612 0.0014816731 -3.9043221e-22)
(-0.00047371415 0.0017374593 -9.0430454e-23)
(-0.00056983313 0.0020030667 -6.4205613e-21)
(-0.00067942765 0.0022767305 7.0337586e-22)
(-0.00080506639 0.0025565518 1.29314e-20)
(-0.00094998021 0.0028405591 -1.0331381e-20)
(-0.0011182124 0.0031267918 3.5540493e-22)
(-0.0013147924 0.0034134098 6.910118e-21)
(-0.0015459323 0.003698829 5.9386403e-22)
(-0.0018192439 0.0039818852 -1.5081124e-21)
(-0.0021439705 0.0042620204 -6.7828239e-21)
(-0.0025312219 0.0045394829 1.2394998e-20)
(-0.0029941985 0.0048155229 -2.1730899e-20)
(-0.0035483759 0.0050925516 4.6694254e-21)
(-0.0042116164 0.0053742127 -3.4188933e-21)
(-0.0050041577 0.0056652948 2.7946117e-21)
(-0.0059484146 0.0059713788 -1.1954329e-22)
(-0.0070685139 0.0062980884 1.6401323e-20)
(-0.0083894704 0.0066497824 1.6259345e-20)
(-0.0099359057 0.0070275316 -3.1983534e-20)
(-0.011730225 0.0074262776 -5.2971539e-21)
(-0.013790224 0.0078312769 1.8290527e-20)
(-0.016126238 0.0082144 6.4488181e-21)
(-0.018738215 0.008531773 1.4478939e-20)
(-0.021613557 0.0087256027 -1.6107315e-20)
(-0.024726934 0.0087338202 -6.9452673e-21)
(-0.028043099 0.0085085586 1.578757e-20)
(-0.03152223 0.008036243 -6.470557e-21)
(-0.035125581 0.0073446745 -3.0184078e-21)
(-0.038818659 0.0064901137 8.3969651e-21)
(-0.042570995 0.0055355938 2.136519e-20)
(-0.046353935 0.0045367215 6.3253744e-21)
(-0.050138502 0.003539829 -4.0728628e-21)
(-0.053894146 0.0025879649 -9.5753174e-21)
(-0.057588462 0.0017296869 -9.8213494e-21)
(-0.061185894 0.0010289362 -1.0826206e-20)
(-0.064648021 0.00057560688 -2.2747888e-20)
(-0.067930709 0.00049149219 6.8014298e-22)
(-0.070971531 0.00093205876 -9.7014586e-21)
(-0.073680835 0.0021013718 5.3052971e-20)
(-0.075923788 0.0042633114 1.4777533e-20)
(-0.077470899 0.0077419319 1.6885029e-20)
(-0.077960745 0.012946721 4.6482402e-20)
(-0.076790611 0.020379656 -5.3512162e-20)
(-0.072901095 0.030800093 1.1656629e-20)
(-0.065121368 0.045280066 3.6677142e-20)
(-0.050328695 0.064526148 4.4671622e-20)
(-0.023528505 0.088901076 5.7452772e-21)
(0.020495896 0.11797668 -1.2988303e-20)
(0.08914548 0.14932999 -2.0514236e-20)
(0.18616949 0.17823582 8.5728074e-21)
(0.3064146 0.19090284 -1.7301692e-20)
(0.47483633 0.13933395 1.8948733e-20)
(0.72106171 -0.035422511 6.9116156e-21)
(0.96448477 -0.28549942 1.8576896e-20)
(1.0317593 -0.45084852 -6.1963881e-20)
(0.936534 -0.4364262 6.6673576e-22)
(0.82338029 -0.32272077 -1.2795374e-21)
(-2.3665244e-05 9.3553181e-05 -2.2001905e-21)
(-7.4615646e-05 0.00029124998 -5.8935131e-22)
(-0.00013222351 0.00051004779 6.4742081e-22)
(-0.00019709235 0.0007501899 3.1814641e-21)
(-0.00026977207 0.0010118118 -3.8143581e-21)
(-0.0003509707 0.001294884 3.2377239e-21)
(-0.00044154799 0.0015992132 1.5466727e-21)
(-0.000542549 0.0019244388 -8.2803017e-23)
(-0.00065526106 0.0022700318 -1.3038187e-21)
(-0.00078128047 0.0026353008 -7.4081241e-21)
(-0.00092259411 0.0030194062 1.2423671e-20)
(-0.0010816776 0.0034213865 -1.4905281e-20)
(-0.0012616128 0.0038401967 4.3690823e-21)
(-0.0014662264 0.0042747622 5.9171676e-21)
(-0.0017002504 0.0047240494 -9.0521572e-21)
(-0.0019695037 0.0051871537 1.779033e-20)
(-0.0022810937 0.0056634037 -2.1488105e-20)
(-0.0026436317 0.0061524768 -3.3752744e-22)
(-0.0030674528 0.0066545162 -1.2218759e-20)
(-0.0035648233 0.0071702308 4.827823e-20)
(-0.0041501135 0.0077009479 -1.1634055e-20)
(-0.0048399 0.0082485716 -4.7909576e-20)
(-0.0056529495 0.008815376 2.253206e-20)
(-0.0066100234 0.0094035387 2.6750485e-20)
(-0.0077334233 0.010014287 -6.6903091e-21)
(-0.0090461877 0.010646508 -3.4855895e-20)
(-0.010570842 0.011294677 5.2550919e-20)
(-0.012327625 0.011946023 -5.7987857e-20)
(-0.014332159 0.01257706 4.5398004e-20)
(-0.016592707 0.01315009 -8.6323643e-21)
(-0.019107411 0.013611286 1.4723676e-20)
(-0.021862371 0.013893294 2.0771427e-20)
(-0.024831781 0.013926226 -8.0223618e-21)
(-0.027981004 0.013658219 -2.0150716e-21)
(-0.031271864 0.01307791 -2.8625399e-20)
(-0.034667644 0.012222632 5.3710007e-21)
(-0.038135232 0.01116344 -1.3429677e-20)
(-0.041644048 0.0099789647 1.1070383e-20)
(-0.045163465 0.0087374562 -6.2798523e-21)
(-0.04866054 0.0074936571 -4.048894e-21)
(-0.052098594 0.0062953289 -3.423073e-21)
(-0.055436501 0.0051930017 -3.3347372e-21)
(-0.058626673 0.0042505486 2.0373437e-20)
(-0.061614239 0.0035561499 1.6123679e-20)
(-0.064331521 0.0032271708 -4.4872765e-21)
(-0.066683715 0.0034100643 2.9103004e-21)
(-0.068536087 0.0042945831 -1.221286e-20)
(-0.069691518 0.0061198928 2.4180098e-20)
(-0.069829813 0.0091714491 2.8011217e-20)
(-0.068469396 0.013796076 7.9543937e-21)
(-0.064806267 0.020384304 2.1131331e-20)
(-0.057545939 0.029606167 -6.7813928e-22)
(-0.045120451 0.042156305 -1.0031141e-20)
(-0.022890661 0.058379662 -4.5746569e-20)
(0.014223268 0.078544938 2.2482098e-20)
(0.072028151 0.102169 -7.9673305e-21)
(0.15549183 0.12744066 2.4671636e-20)
(0.26205248 0.15104549 -4.14403e-20)
(0.39398156 0.15761038 2.6901409e-20)
(0.58532885 0.096290045 -1.1016927e-20)
(0.86436983 -0.073315428 -4.01914e-22)
(1.0893891 -0.2901584 -1.0649051e-20)
(1.102961 -0.41728281 -2.036895e-20)
(0.97551741 -0.39333597 1.7263023e-20)
(0.85360001 -0.28927199 -3.5057984e-21)
(-3.194353e-05 0.00011138141 4.90904e-21)
(-0.00010017132 0.00034646194 3.3773131e-21)
(-0.00017675493 0.0006066619 -5.3013174e-21)
(-0.00026238404 0.00089277498 1.3954802e-22)
(-0.00035772381 0.0012055379 4.7919346e-21)
(-0.000463581 0.0015455811 2.5052516e-21)
(-0.00058090372 0.0019134283 -5.2791415e-21)
(-0.00071081148 0.0023094932 8.666821e-22)
(-0.00085464596 0.0027340737 -1.2216318e-20)
(-0.0010140305 0.0031873525 2.3802739e-21)
(-0.0011909432 0.0036694021 6.0964134e-23)
(-0.0013878051 0.0041801965 -8.7486881e-21)
(-0.0016075855 0.0047196306 2.8023031e-20)
(-0.0018539268 0.0052875479 -1.3050891e-20)
(-0.0021312892 0.0058837773 -2.3369641e-20)
(-0.0024451144 0.0065081784 2.4886831e-20)
(-0.0028020082 0.0071606924 -3.0615335e-21)
(-0.0032099346 0.0078413931 1.737351e-20)
(-0.0036784143 0.008550528 1.2892013e-20)
(-0.0042187119 0.0092885299 -4.0501263e-20)
(-0.0048439886 0.010055971 3.0367584e-20)
(-0.0055693885 0.010853415 -3.9911569e-20)
(-0.0064120123 0.011681095 4.6804425e-21)
(-0.0073907178 0.012538344 -1.9092775e-20)
(-0.0085256725 0.01342263 4.1409441e-20)
(-0.0098375678 0.014328093 -9.7871327e-21)
(-0.011346403 0.01524341 -2.4648973e-20)
(-0.013069758 0.01614895 5.9390871e-20)
(-0.015020548 0.01701334 -2.5707379e-20)
(-0.017204383 0.01779009 -2.7574648e-20)
(-0.019616977 0.018415888 2.2651394e-20)
(-0.022242486 0.018813636 3.0025633e-21)
(-0.025053995 0.018904306 -1.4939543e-20)
(-0.028016981 0.018629217 8.1210745e-21)
(-0.031094749 0.017975277 -1.2251993e-20)
(-0.034252927 0.01698563 4.1942008e-20)
(-0.037460488 0.015744104 -2.1435248e-20)
(-0.040687515 0.01434488 -1.2583985e-20)
(-0.043901932 0.012869833 -2.5179877e-20)
(-0.047066987 0.011383059 -3.3638853e-21)
(-0.050139675 0.0099373819 2.5846542e-20)
(-0.053069597 0.0085849456 -1.0262273e-20)
(-0.055796313 0.0073885196 -1.5102235e-20)
(-0.058247343 0.0064327807 -2.3182971e-21)
(-0.060329594 0.0058282685 1.4907981e-20)
(-0.061913345 0.0057096034 1.3141315e-20)
(-0.062814916 0.0062484141 -4.0224889e-20)
(-0.062767971 0.007653781 -2.137865e-20)
(-0.061350028 0.010166763 -4.6352716e-20)
(-0.057941418 0.014057072 -1.6207397e-20)
(-0.05147285 0.019610021 -6.1724665e-21)
(-0.040465513 0.027328467 -4.4133699e-20)
(-0.022369233 0.037455061 -1.6771471e-20)
(0.0086109129 0.050077643 5.5791574e-20)
(0.057525939 0.065430931 -4.2249158e-20)
(0.12828872 0.083291332 3.720237e-20)
(0.22091301 0.10327589 -1.6628256e-20)
(0.33523792 0.12183624 8.253929e-20)
(0.48517914 0.12079021 4.6095568e-20)
(0.71654242 0.050981352 -2.1244532e-20)
(1.019958 -0.10490585 -3.6353899e-20)
(1.1893263 -0.28310956 -5.4434706e-20)
(1.1435164 -0.37562314 -2.672985e-21)
(0.9982132 -0.34807819 -2.6096739e-21)
(0.8816309 -0.25662066 4.7573695e-21)
(-4.0629572e-05 0.00012621696 8.8936241e-23)
(-0.00012699112 0.00039241266 -6.330271e-21)
(-0.00022350433 0.00068710613 7.4614505e-21)
(-0.00033096759 0.0010115956 3.5899867e-21)
(-0.00045018608 0.001367171 -7.1885511e-21)
(-0.00058209311 0.0017550746 -2.3276576e-21)
(-0.0007277561 0.0021765008 1.1284595e-20)
(-0.00088840308 0.002632592 -1.2137955e-20)
(-0.0010654672 0.003124432 -2.5591109e-21)
(-0.0012606387 0.0036530417 -1.017292e-20)
(-0.0014759293 0.0042193777 2.6990144e-20)
(-0.001713749 0.0048243328 3.2848415e-22)
(-0.0019769991 0.0054687391 -2.4182389e-20)
(-0.0022691814 0.0061533747 2.5919169e-20)
(-0.0025945251 0.0068789713 -1.852153e-20)
(-0.0029581306 0.007646223 -6.8538112e-21)
(-0.0033661291 0.0084557904 1.4285659e-20)
(-0.0038258522 0.009308295 -1.2858121e-20)
(-0.0043460048 0.010204292 -1.7071524e-20)
(-0.0049368249 0.011144205 3.6025079e-22)
(-0.0056102113 0.012128185 2.6747841e-20)
(-0.0063797866 0.013155871 -1.6486204e-20)
(-0.0072608528 0.014225963 9.1536078e-21)
(-0.0082701809 0.015335543 4.4116695e-20)
(-0.0094255628 0.016479026 1.4708329e-20)
(-0.010745038 0.017646602 -3.9810779e-20)
(-0.012245704 0.018822051 3.969961e-21)
(-0.01394204 0.019979865 -4.4750733e-20)
(-0.015843729 0.021081808 2.6432519e-20)
(-0.017953131 0.022073569 -1.3959889e-20)
(-0.020262852 0.022883093 2.0188462e-20)
(-0.022754324 0.023423697 4.9155119e-21)
(-0.025398663 0.023606257 -2.4573571e-20)
(-0.028160616 0.023362695 2.5074429e-20)
(-0.031004389 0.022674071 3.6358896e-20)
(-0.033897941 0.021584919 -3.4222871e-21)
(-0.036812918 0.02018892 -3.7702908e-20)
(-0.039720932 0.018595139 4.7180437e-20)
(-0.042589189 0.016899896 -9.9288655e-21)
(-0.045377464 0.015177704 2.0950486e-20)