/*--------------------------------*- C++ -*----------------------------------*\
  =========                 |
  \\      /  F ield         | OpenFOAM: The Open Source CFD Toolbox
   \\    /   O peration     | Website:  https://openfoam.org
    \\  /    A nd           | Version:  13
     \\/     M anipulation  |
\*---------------------------------------------------------------------------*/
FoamFile
{
    format      ascii;
    class       volScalarField;
    location    "43.199055";
    object      pPrime2Mean;
}
// * * * * * * * * * * * * * * * * * * * * * * * * * * * * * * * * * * * * * //

dimensions      [0 4 -4 0 0 0 0];

internalField   nonuniform List<scalar> 
17140
(
7209.5378
7209.5379
7209.5379
7209.5375
7209.537
7209.536
7209.5348
7209.5331
7209.5307
7209.5275
7209.5236
7209.5186
7209.512
7209.504
7209.4938
7209.4809
7209.4649
7209.4447
7209.4195
7209.3881
7209.3483
7209.2987
7209.2364
7209.1579
7209.0589
7208.9344
7208.7772
7208.5788
7208.3287
7208.0136
7207.6172
7207.1196
7206.4966
7205.7189
7204.7513
7203.5518
7202.0705
7200.2494
7198.0207
7195.3066
7192.0181
7188.0547
7183.3032
7177.6364
7170.9135
7162.9775
7153.6567
7142.7627
7130.0894
7115.413
7098.4896
7079.0553
7056.8249
7031.4907
7002.7209
6970.1585
6933.4153
6892.075
6845.6803
6793.7467
6735.7295
6671.0729
6599.1284
6519.2647
6430.7191
7209.7136
7209.7135
7209.7135
7209.7132
7209.7126
7209.7116
7209.7104
7209.7085
7209.7062
7209.7031
7209.699
7209.694
7209.6875
7209.6795
7209.6693
7209.6563
7209.6402
7209.6201
7209.5949
7209.5633
7209.5238
7209.474
7209.4117
7209.3334
7209.2347
7209.1105
7208.9537
7208.756
7208.5064
7208.192
7207.7965
7207.3
7206.6779
7205.9013
7204.9346
7203.7359
7202.2558
7200.4355
7198.208
7195.4951
7192.2082
7188.2465
7183.4974
7177.8332
7171.1134
7163.1815
7153.8652
7142.9765
7130.3093
7115.6398
7098.7243
7079.299
7057.0788
7031.7562
7002.9997
6970.4521
6933.7256
6892.404
6846.0302
6794.1205
6736.131
6671.5056
6599.5957
6519.7705
6431.2622
7210.1481
7210.148
7210.148
7210.1477
7210.147
7210.1462
7210.1448
7210.1429
7210.1406
7210.1376
7210.1335
7210.1285
7210.122
7210.114
7210.1039
7210.0911
7210.0751
7210.055
7210.0299
7209.9985
7209.9593
7209.91
7209.8481
7209.7703
7209.6723
7209.5487
7209.3928
7209.1961
7208.9479
7208.6351
7208.2412
7207.7466
7207.1265
7206.3519
7205.3872
7204.1905
7202.7123
7200.8941
7198.669
7195.959
7192.6758
7188.7187
7183.9748
7178.3174
7171.6056
7163.6832
7154.3784
7143.5027
7130.8505
7116.1977
7099.3016
7079.8985
7057.7038
7032.4103
7003.6866
6971.176
6934.4913
6893.2163
6846.8951
6795.044
6737.1204
6672.5684
6600.7403
6521.0071
6432.5899
7210.8555
7210.8555
7210.8555
7210.8552
7210.8545
7210.8536
7210.8524
7210.8506
7210.8483
7210.8453
7210.8413
7210.8364
7210.8299
7210.822
7210.8119
7210.7994
7210.7835
7210.7639
7210.7391
7210.708
7210.6693
7210.6205
7210.5591
7210.4822
7210.3852
7210.2628
7210.1084
7209.9133
7209.667
7209.3564
7208.965
7208.4729
7207.8556
7207.0837
7206.1219
7204.9283
7203.453
7201.6382
7199.417
7196.712
7193.4346
7189.4849
7184.7497
7179.1032
7172.4044
7164.4976
7155.2111
7144.3565
7131.7287
7117.1035
7100.2388
7080.8718
7058.7185
7033.4723
7004.8025
6972.3525
6935.7357
6894.5374
6848.3017
6796.5456
6738.728
6674.294
6602.5974
6523.0134
6434.7435
7211.8509
7211.8509
7211.8507
7211.8505
7211.8499
7211.849
7211.8476
7211.846
7211.8436
7211.8407
7211.8367
7211.8318
7211.8255
7211.8176
7211.8077
7211.7953
7211.7797
7211.7602
7211.7359
7211.7054
7211.667
7211.6189
7211.5585
7211.4826
7211.3867
7211.2658
7211.1129
7210.92
7210.6762
7210.3682
7209.9799
7209.491
7208.8774
7208.1091
7207.1511
7205.9612
7204.4903
7202.6805
7200.4651
7197.767
7194.4981
7190.5588
7185.8364
7180.2051
7173.5244
7165.6393
7156.3784
7145.5536
7132.9594
7118.373
7101.5529
7082.2369
7060.1418
7034.9625
7006.368
6974.0032
6937.4821
6896.3911
6850.2754
6798.6529
6740.9835
6676.7145
6605.2028
6525.8279
6437.7664
7213.1461
7213.1462
7213.146
7213.1456
7213.145
7213.1442
7213.1429
7213.1411
7213.1389
7213.1359
7213.132
7213.1272
7213.1211
7213.1133
7213.1036
7213.0913
7213.0759
7213.0568
7213.0328
7213.0029
7212.9651
7212.9177
7212.8584
7212.7833
7212.689
7212.5699
7212.4192
7212.2288
7211.9877
7211.6832
7211.2986
7210.8137
7210.2043
7209.4406
7208.4873
7207.3025
7205.8374
7204.0342
7201.8265
7199.1379
7195.8804
7191.9548
7187.2487
7181.6372
7174.9805
7167.1238
7157.8957
7147.1092
7134.5589
7120.0232
7103.2609
7084.0115
7061.9929
7036.9001
7008.4041
6976.1505
6939.7542
6898.8028
6852.8433
6801.3939
6743.9176
6679.8636
6608.5929
6529.4913
6441.7028
7214.7548
7214.7547
7214.7546
7214.7543
7214.7537
7214.7527
7214.7515
7214.7498
7214.7475
7214.7445
7214.7406
7214.7359
7214.7297
7214.7222
7214.7126
7214.7006
7214.6856
7214.6668
7214.6432
7214.6136
7214.5766
7214.5303
7214.4718
7214.3985
7214.3057
7214.1885
7214.0403
7213.8528
7213.6153
7213.3145
7212.9341
7212.454
7211.8495
7211.0912
7210.1437
7208.9655
7207.5076
7205.7129
7203.5153
7200.8385
7197.5954
7193.6866
7189.0014
7183.4148
7176.7875
7168.9657
7159.7788
7149.0393
7136.5439
7122.0708
7105.3808
7086.2145
7064.2909
7039.3062
7010.9324
6978.8167
6942.5756
6901.7978
6856.0319
6804.7979
6747.5615
6683.7752
6612.8055
6534.0443
6446.598
7216.6912
7216.6911
7216.6909
7216.6906
7216.6899
7216.6891
7216.6877
7216.6859
7216.6837
7216.6808
7216.677
7216.6724
7216.6665
7216.6589
7216.6496
7216.6379
7216.623
7216.6047
7216.5817
7216.5529
7216.5167
7216.4712
7216.4142
7216.3422
7216.2515
7216.1366
7215.9913
7215.8068
7215.5733
7215.2768
7214.9013
7214.4264
7213.8276
7213.0756
7212.1348
7210.9643
7209.5153
7207.7309
7205.5453
7202.8831
7199.6572
7195.7694
7191.109
7185.5522
7178.9607
7171.1808
7162.0429
7151.3605
7138.9307
7124.5337
7107.9312
7088.8651
7067.0559
7042.2014
7013.975
6982.0254
6945.971
6905.4022
6859.8691
6808.8946
6751.948
6688.4851
6617.879
6539.5286
6452.498
7218.9725
7218.9725
7218.9723
7218.972
7218.9714
7218.9703
7218.969
7218.9674
7218.9651
7218.9622
7218.9586
7218.9541
7218.948
7218.9407
7218.9317
7218.9202
7218.9058
7218.8879
7218.8654
7218.8371
7218.802
7218.7577
7218.702
7218.6318
7218.5431
7218.4308
7218.2884
7218.1074
7217.8777
7217.5858
7217.2152
7216.7461
7216.1533
7215.4081
7214.4753
7213.3136
7211.8748
7210.1026
7207.9316
7205.2863
7202.0807
7198.2174
7193.5865
7188.0647
7181.515
7173.7845
7164.704
7154.0887
7141.7367
7127.4293
7110.9301
7091.9825
7070.3084
7045.6072
7017.5542
6985.8002
6949.9655
6909.6423
6864.3834
6813.7144
6757.1097
6694.029
6623.852
6545.987
6459.45
7221.6171
7221.6171
7221.6169
7221.6165
7221.6159
7221.6149
7221.6137
7221.612
7221.6097
7221.6069
7221.6034
7221.5987
7221.593
7221.586
7221.5769
7221.5659
7221.5519
7221.5344
7221.5125
7221.4852
7221.4508
7221.4078
7221.3534
7221.285
7221.1982
7221.0885
7220.9488
7220.7715
7220.5455
7220.258
7219.8924
7219.4289
7218.8427
7218.1046
7217.1803
7216.0286
7214.6014
7212.8429
7210.6883
7208.0627
7204.8807
7201.0457
7196.4488
7190.9677
7184.4663
7176.7924
7167.7785
7157.2406
7144.9787
7130.7755
7114.3961
7095.5856
7074.0681
7049.5446
7021.6925
6990.1648
6954.5842
6914.545
6869.6031
6819.2886
6763.0812
6700.4448
6630.7664
6553.4648
6467.5022
7224.6439
7224.6437
7224.6436
7224.6432
7224.6425
7224.6415
7224.6403
7224.6387
7224.6364
7224.6336
7224.6301
7224.6257
7224.6201
7224.6132
7224.6044
7224.5935
7224.58
7224.5629
7224.5417
7224.5149
7224.4815
7224.4396
7224.3867
7224.3197
7224.235
7224.1273
7223.9904
7223.8159
7223.5935
7223.3099
7222.9492
7222.491
7221.9113
7221.1808
7220.2654
7219.1244
7217.71
7215.9671
7213.8307
7211.2273
7208.0719
7204.2691
7199.7109
7194.2762
7187.8296
7180.2202
7171.2819
7160.8326
7148.6737
7134.5897
7118.3475
7099.6944
7078.3558
7054.0352
7026.4129
6995.1436
6959.8529
6920.1382
6875.5594
6825.6514
6769.8996
6707.7723
6638.6638
6562.0055
6476.7026
7228.0702
7228.0701
7228.07
7228.0695
7228.0687
7228.0678
7228.0667
7228.0649
7228.0627
7228.0601
7228.0565
7228.0522
7228.0469
7228.0399
7228.0314
7228.0207
7228.0076
7227.991
7227.9701
7227.9441
7227.9114
7227.8702
7227.8183
7227.7528
7227.6695
7227.5637
7227.4291
7227.257
7227.0376
7226.7576
7226.4009
7225.9479
7225.3744
7224.6518
7223.7458
7222.6163
7221.216
7219.4898
7217.3737
7214.7949
7211.6696
7207.9032
7203.3887
7198.0059
7191.6207
7184.084
7175.231
7164.8816
7152.839
7138.89
7122.8034
7104.3283
7083.1922
7059.1017
7031.7389
7000.7616
6965.7988
6926.4512
6882.284
6832.8369
6777.601
6716.0489
6647.5855
6571.6552
6487.0997
7231.9109
7231.9108
7231.9108
7231.9103
7231.9096
7231.9087
7231.9074
7231.9057
7231.9035
7231.901
7231.8976
7231.8932
7231.8879
7231.8812
7231.8727
7231.8624
7231.8493
7231.833
7231.8126
7231.7871
7231.7549
7231.7145
7231.6635
7231.5988
7231.5169
7231.4125
7231.2792
7231.1095
7230.8924
7230.6155
7230.2629
7229.8147
7229.2475
7228.5327
7227.6367
7226.5194
7225.134
7223.426
7221.3324
7218.7811
7215.6891
7211.9632
7207.4971
7202.1725
7195.856
7188.4002
7179.6425
7169.4049
7157.493
7143.6955
7127.7836
7109.508
7088.5996
7064.7664
7037.6942
7007.0443
6972.4488
6933.5135
6889.8082
6840.8782
6786.2214
6725.3157
6657.5743
6582.4598
6498.7422
7236.1792
7236.1792
7236.1789
7236.1784
7236.1777
7236.1769
7236.1756
7236.1739
7236.1718
7236.1693
7236.1659
7236.1616
7236.1563
7236.1499
7236.1415
7236.1312
7236.1184
7236.1024
7236.0823
7236.0571
7236.0254
7235.9855
7235.935
7235.8711
7235.7899
7235.6867
7235.5549
7235.3866
7235.1716
7234.8977
7234.5485
7234.1055
7233.5447
7232.8381
7231.9524
7230.8481
7229.479
7227.7908
7225.7218
7223.2008
7220.1459
7216.4647
7212.0526
7206.7921
7200.5516
7193.1859
7184.5343
7174.4212
7162.6548
7149.0261
7133.3084
7115.2552
7094.5994
7071.0528
7044.3039
7014.0181
6979.8317
6941.355
6898.1647
6849.8111
6795.799
6735.6107
6668.6727
6594.4649
6511.6778
7240.887
7240.8869
7240.8866
7240.8861
7240.8855
7240.8846
7240.8833
7240.8817
7240.8796
7240.8771
7240.8738
7240.8696
7240.8644
7240.8578
7240.8496
7240.8396
7240.8268
7240.8111
7240.7913
7240.7664
7240.735
7240.6954
7240.6455
7240.5821
7240.5015
7240.3992
7240.2685
7240.1017
7239.8887
7239.6175
7239.2723
7238.8342
7238.2802
7237.5826
7236.708
7235.6176
7234.2657
7232.5994
7230.5574
7228.0695
7225.0553
7221.4234
7217.0708
7211.881
7205.7247
7198.4585
7189.9244
7179.9492
7168.3438
7154.9017
7139.3988
7121.5914
7101.2148
7077.9846
7051.5932
7021.7095
6987.9753
6950.0067
6907.386
6859.6704
6806.3701
6746.975
6680.9227
6607.7154
6525.954
7246.0474
7246.0473
7246.0471
7246.0466
7246.0459
7246.045
7246.044
7246.0423
7246.0402
7246.0377
7246.0344
7246.0302
7246.025
7246.0188
7246.0107
7246.0007
7245.9882
7245.9725
7245.9527
7245.928
7245.897
7245.8577
7245.8081
7245.7454
7245.6654
7245.5638
7245.4341
7245.2688
7245.0582
7244.7899
7244.4487
7244.016
7243.4692
7242.7809
7241.9182
7240.843
7239.5101
7237.8672
7235.8546
7233.403
7230.4332
7226.8557
7222.5684
7217.4564
7211.3928
7204.2363
7195.8317
7186.0083
7174.58
7161.3435
7146.0766
7128.5386
7108.4691
7085.5866
7059.5875
7030.1457
6996.9094
6959.4999
6917.5061
6870.491
6817.973
6759.4475
6694.3662
6622.2561
6541.6179
7251.6768
7251.6767
7251.6764
7251.6761
7251.6754
7251.6745
7251.6732
7251.6717
7251.6696
7251.6671
7251.664
7251.6598
7251.6546
7251.6483
7251.6404
7251.6304
7251.6179
7251.6024
7251.5827
7251.5583
7251.5272
7251.4883
7251.4389
7251.3765
7251.2971
7251.1962
7251.0676
7250.9039
7250.6953
7250.43
7250.0933
7249.6664
7249.1273
7248.4488
7247.5989
7246.5395
7245.227
7243.61
7241.6293
7239.2175
7236.2966
7232.7781
7228.5621
7223.5357
7217.5736
7210.5376
7202.275
7192.6182
7181.384
7168.3717
7153.3628
7136.1197
7116.3856
7093.8827
7068.3126
7039.3547
7006.6637
6969.866
6928.5577
6882.3084
6830.644
6773.0673
6709.0442
6638.131
6558.716
7257.7924
7257.7923
7257.792
7257.7917
7257.7909
7257.79
7257.7889
7257.7874
7257.7852
7257.7827
7257.7795
7257.7755
7257.7703
7257.764
7257.7561
7257.746
7257.7337
7257.718
7257.6984
7257.6738
7257.6431
7257.604
7257.5549
7257.4927
7257.4135
7257.3132
7257.1858
7257.0234
7256.8171
7256.5551
7256.2225
7255.8017
7255.2704
7254.6023
7253.7658
7252.7239
7251.4335
7249.844
7247.8983
7245.5295
7242.6617
7239.2076
7235.0692
7230.1361
7224.2851
7217.3806
7209.2732
7199.798
7188.775
7176.0071
7161.2792
7144.3569
7124.9875
7102.8977
7077.795
7049.3649
7017.2667
6981.136
6940.5741
6895.1568
6844.4196
6787.8726
6724.998
6655.3834
6577.2937
7264.4119
7264.4118
7264.4117
7264.4111
7264.4106
7264.4096
7264.4085
7264.4069
7264.405
7264.4024
7264.3992
7264.3949
7264.3898
7264.3835
7264.3753
7264.3652
7264.3526
7264.337
7264.3173
7264.2924
7264.2614
7264.2224
7264.1731
7264.1108
7264.0319
7263.9322
7263.8054
7263.6446
7263.4405
7263.1815
7262.8534
7262.4384
7261.9153
7261.2581
7260.436
7259.4125
7258.1457
7256.5864
7254.6783
7252.3563
7249.5456
7246.1614
7242.1074
7237.2755
7231.5453
7224.7841
7216.8452
7207.5672
7196.7735
7184.2708
7169.8469
7153.2724
7134.2979
7112.6563
7088.0609
7060.2026
7028.749
6993.3414
6953.5867
6909.0705
6859.335
6803.9011
6742.2673
6674.0558
6597.3956
7271.5497
7271.5495
7271.5494
7271.549
7271.5482
7271.5475
7271.5463
7271.5447
7271.5427
7271.54
7271.5368
7271.5325
7271.5274
7271.5208
7271.5127
7271.5023
7271.4896
7271.4736
7271.4538
7271.4286
7271.3974
7271.3581
7271.3086
7271.2462
7271.1676
7271.0681
7270.9421
7270.7827
7270.5807
7270.325
7270.0013
7269.5929
7269.0784
7268.4325
7267.6255
7266.6219
7265.3804
7263.8536
7261.9861
7259.7143
7256.9657
7253.6568
7249.6938
7244.9715
7239.3722
7232.7659
7225.0095
7215.9448
7205.3991
7193.1826
7179.0873
7162.8876
7144.34
7123.183
7099.1353
7071.8959
7041.1394
7006.5115
6967.6286
6924.0817
6875.4254
6821.1896
6760.8915
6694.1898
6619.0652
7279.2159
7279.2159
7279.2158
7279.2154
7279.2148
7279.2138
7279.2126
7279.2109
7279.2089
7279.2062
7279.2029
7279.1988
7279.1934
7279.1867
7279.1786
7279.1682
7279.1552
7279.1391
7279.119
7279.0938
7279.0622
7279.0227
7278.9731
7278.9109
7278.8325
7278.7337
7278.6088
7278.4511
7278.2517
7277.9997
7277.6811
7277.2796
7276.7745
7276.1411
7275.3507
7274.3682
7273.1543
7271.6624
7269.8386
7267.621
7264.9386
7261.7107
7257.8461
7253.2417
7247.7836
7241.3444
7233.7847
7224.95
7214.6711
7202.7622
7189.0201
7173.2238
7155.136
7134.5003
7111.0437
7084.4724
7054.4648
7020.6761
6982.7284
6940.2232
6892.7244
6839.7744
6780.9085
6715.826
6642.3442
7287.417
7287.417
7287.4168
7287.4164
7287.4158
7287.415
7287.4137
7287.4121
7287.41
7287.4075
7287.4042
7287.3998
7287.3946
7287.3881
7287.3797
7287.3694
7287.3564
7287.3404
7287.3202
7287.2951
7287.2639
7287.2247
7287.1755
7287.1138
7287.0364
7286.9387
7286.8158
7286.6605
7286.4645
7286.217
7285.9049
7285.5116
7285.0172
7284.3981
7283.6258
7282.6672
7281.4832
7280.029
7278.2521
7276.0926
7273.4816
7270.3406
7266.5812
7262.104
7256.7971
7250.5376
7243.1891
7234.6008
7224.608
7213.0286
7199.6646
7184.3016
7166.7064
7146.6316
7123.8115
7097.9568
7068.7529
7035.8629
6998.9168
6957.5262
6911.2662
6859.6909
6802.3556
6739.0034
6667.2722
7296.1574
7296.1574
7296.1572
7296.157
7296.1564
7296.1555
7296.1543
7296.1528
7296.1507
7296.1482
7296.1451
7296.141
7296.1358
7296.1294
7296.1214
7296.1113
7296.0987
7296.0831
7296.0634
7296.0391
7296.0085
7295.9702
7295.9224
7295.8621
7295.7865
7295.6913
7295.5713
7295.4197
7295.2285
7294.9872
7294.6828
7294.2993
7293.8179
7293.2153
7292.4639
7291.5317
7290.3809
7288.9678
7287.2418
7285.1447
7282.6103
7279.5625
7275.9162
7271.5746
7266.4302
7260.3627
7253.2398
7244.9149
7235.2272
7223.9992
7211.0399
7196.139
7179.0727
7159.6004
7137.4619
7112.3732
7084.0296
7052.0988
7016.2225
6976.0216
6931.0832
6880.9729
6825.2683
6763.7597
6693.8864
7305.4443
7305.4443
7305.4441
7305.4437
7305.4432
7305.4424
7305.4413
7305.4399
7305.4382
7305.4356
7305.4327
7305.4288
7305.4242
7305.418
7305.4104
7305.4011
7305.3892
7305.3743
7305.3559
7305.3326
7305.3036
7305.2672
7305.2212
7305.1636
7305.0909
7304.9992
7304.8836
7304.7373
7304.5523
7304.3188
7304.0241
7303.6529
7303.1868
7302.6032
7301.8758
7300.9732
7299.8593
7298.4914
7296.8208
7294.7914
7292.3393
7289.3918
7285.8664
7281.67
7276.6985
7270.8357
7263.9528
7255.9077
7246.5432
7235.6904
7223.1618
7208.7556
7192.2555
7173.4277
7152.0157
7127.7461
7100.3181
7069.4102
7034.6735
6995.7395
6952.2072
6903.654
6849.6808
6790.131
6722.2229
7315.2886
7315.2886
7315.2886
7315.2882
7315.2877
7315.2871
7315.2862
7315.2849
7315.2832
7315.281
7315.2785
7315.2748
7315.2706
7315.2651
7315.2582
7315.2495
7315.2387
7315.2251
7315.2081
7315.1866
7315.1597
7315.1255
7315.0827
7315.0282
7314.9596
7314.8727
7314.7623
7314.6225
7314.4453
7314.2212
7313.9381
7313.581
7313.1324
7312.5705
7311.8702
7311.001
7309.9278
7308.6099
7307
7305.0441
7302.681
7299.8408
7296.4447
7292.4029
7287.6155
7281.9693
7275.3403
7267.5905
7258.5711
7248.1166
7236.0471
7222.1701
7206.2743
7188.1314
7167.4945
7144.0952
7117.642
7087.822
7054.2967
7016.7085
6974.6684
6927.7659
6875.6258
6818.1522
6752.3152
7325.7068
7325.7068
7325.7066
7325.7064
7325.7061
7325.7054
7325.7046
7325.7035
7325.7021
7325.7002
7325.6978
7325.6948
7325.691
7325.686
7325.68
7325.6721
7325.6625
7325.6501
7325.6346
7325.6153
7325.5904
7325.5592
7325.5193
7325.4688
7325.4044
7325.3226
7325.2184
7325.0859
7324.9174
7324.7039
7324.4335
7324.0922
7323.6633
7323.1258
7322.4552
7321.6229
7320.5946
7319.331
7317.7869
7315.9106
7313.6434
7310.9187
7307.6607
7303.7835
7299.1902
7293.7731
7287.4123
7279.9773
7271.3233
7261.2921
7249.7134
7236.3984
7221.1445
7203.7301
7183.916
7161.4413
7136.0233
7107.3584
7075.1181
7038.9564
6998.4966
6953.3393
6903.1344
6847.8569
6784.1959
7336.7157
7336.7156
7336.7156
7336.7154
7336.7151
7336.7147
7336.714
7336.7129
7336.7118
7336.71
7336.7081
7336.7053
7336.7018
7336.6975
7336.6919
7336.6851
7336.6763
7336.6652
7336.6509
7336.6331
7336.6106
7336.5815
7336.5448
7336.4977
7336.4375
7336.3608
7336.2627
7336.1376
7335.9781
7335.7757
7335.519
7335.1951
7334.7873
7334.2762
7333.638
7332.8455
7331.8657
7330.661
7329.188
7327.3976
7325.2332
7322.6316
7319.5202
7315.817
7311.4294
7306.2546
7300.1793
7293.0778
7284.8114
7275.2317
7264.1725
7251.4537
7236.8803
7220.2391
7201.2972
7179.8029
7155.4827
7128.042
7097.1626
7062.5101
7023.7196
6980.4036
6932.2368
6879.2767
6817.8985
7348.329
7348.329
7348.3289
7348.3287
7348.3285
7348.328
7348.3274
7348.3265
7348.3254
7348.3239
7348.3219
7348.3193
7348.3163
7348.3123
7348.3071
7348.3007
7348.2926
7348.2822
7348.269
7348.2524
7348.2312
7348.2042
7348.1696
7348.1255
7348.0688
7347.9966
7347.904
7347.786
7347.6356
7347.4447
7347.2025
7346.8966
7346.5113
7346.0285
7345.4251
7344.6751
7343.7471
7342.6052
7341.2082
7339.5089
7337.4538
7334.9829
7332.0269
7328.5082
7324.3388
7319.4218
7313.6493
7306.9003
7299.0466
7289.9441
7279.4347
7267.3479
7253.4952
7237.6718
7219.6537
7199.1977
7176.0394
7149.8944
7120.4543
7087.3954
7050.3656
7008.9879
6962.9622
6912.4413
6853.4578
7360.552
7360.552
7360.552
7360.5518
7360.5516
7360.5512
7360.5505
7360.5497
7360.5486
7360.5471
7360.5452
7360.5429
7360.5397
7360.5358
7360.5309
7360.5246
7360.5167
7360.5067
7360.4942
7360.4781
7360.4579
7360.432
7360.3992
7360.3572
7360.3036
7360.2351
7360.1479
7360.0367
7359.8953
7359.7159
7359.4887
7359.2019
7358.8405
7358.3874
7357.8207
7357.1157
7356.2423
7355.1669
7353.8497
7352.2469
7350.3077
7347.9749
7345.1838
7341.8609
7337.9234
7333.2801
7327.8269
7321.4524
7314.0348
7305.4366
7295.5096
7284.09
7270.9989
7256.0404
7238.9989
7219.6408
7197.7114
7172.9358
7145.0153
7113.6375
7078.4612
7039.1207
6995.3412
6947.3812
6890.9113
7373.3822
7373.3822
7373.382
7373.3821
7373.3816
7373.3812
7373.3806
7373.3798
7373.3785
7373.377
7373.3752
7373.3728
7373.3697
7373.3659
7373.361
7373.3547
7373.3469
7373.3371
7373.3249
7373.3092
7373.2895
7373.2645
7373.233
7373.193
7373.142
7373.0774
7372.9953
7372.8909
7372.7589
7372.5916
7372.3801
7372.1131
7371.7771
7371.3552
7370.827
7370.1691
7369.353
7368.3469
7367.1139
7365.6125
7363.7955
7361.6093
7358.9927
7355.8773
7352.1861
7347.8308
7342.7161
7336.7383
7329.7803
7321.7152
7312.4024
7301.6873
7289.4002
7275.3543
7259.3442
7241.1458
7220.5139
7197.1843
7170.8678
7141.261
7108.0345
7070.8314
7029.4065
6984.1356
6930.2968
7386.8114
7386.8114
7386.8112
7386.811
7386.8108
7386.8104
7386.8096
7386.8088
7386.8078
7386.8063
7386.8042
7386.8019
7386.7988
7386.795
7386.7902
7386.7841
7386.7765
7386.7668
7386.7548
7386.7398
7386.7208
7386.697
7386.667
7386.6292
7386.5812
7386.5206
7386.4442
7386.3475
7386.2254
7386.071
7385.8761
7385.6304
7385.3209
7384.9316
7384.4437
7383.8348
7383.0786
7382.145
7381.0002
7379.6053
7377.917
7375.8852
7373.4534
7370.5582
7367.1256
7363.0748
7358.3184
7352.758
7346.285
7338.7816
7330.1162
7320.1439
7308.704
7295.6205
7280.6984
7263.7234
7244.461
7222.6571
7198.0318
7170.2909
7139.1137
7104.1518
7065.1942
7022.7502
6971.6593
7400.8306
7400.8306
7400.8307
7400.8305
7400.8303
7400.8297
7400.8291
7400.8282
7400.8272
7400.8258
7400.8239
7400.8216
7400.8187
7400.8149
7400.8103
7400.8047
7400.7973
7400.7883
7400.7772
7400.7629
7400.7452
7400.7231
7400.6951
7400.6602
7400.616
7400.5604
7400.4904
7400.4024
7400.2912
7400.1511
7399.9742
7399.751
7399.4692
7399.114
7398.6681
7398.1102
7397.4162
7396.5583
7395.5057
7394.2226
7392.6695
7390.8004
7388.5639
7385.8995
7382.7393
7379.0106
7374.6309
7369.5092
7363.5471
7356.635
7348.6514
7339.4607
7328.913
7316.8431
7303.0666
7287.3813
7269.5631
7249.3683
7226.5266
7200.7519
7171.7309
7139.1181
7102.7318
7063.2322
7015.1054
7415.4319
7415.432
7415.4318
7415.4316
7415.4314
7415.431
7415.4304
7415.4296
7415.4288
7415.4273
7415.4257
7415.4238
7415.4211
7415.4178
7415.4136
7415.4086
7415.4021
7415.394
7415.3839
7415.3714
7415.3557
7415.3357
7415.311
7415.2797
7415.2407
7415.1911
7415.129
7415.0507
7414.9521
7414.8274
7414.6696
7414.4699
7414.217
7413.8975
7413.4946
7412.9893
7412.3598
7411.5809
7410.6245
7409.459
7408.048
7406.3504
7404.3184
7401.8959
7399.0231
7395.632
7391.6472
7386.9871
7381.5618
7375.2713
7368.0042
7359.6353
7350.0259
7339.0216
7326.4512
7312.1243
7295.8283
7277.3304
7256.3701
7232.6692
7205.9208
7175.7689
7142.0352
7105.6854
7060.6652
7430.6099
7430.6099
7430.6097
7430.6095
7430.6093
7430.6091
7430.6085
7430.608
7430.6071
7430.6061
7430.6047
7430.6031
7430.601
7430.5983
7430.5948
7430.5907
7430.5853
7430.5787
7430.5703
7430.5597
7430.5466
7430.5299
7430.509
7430.4825
7430.4491
7430.4069
7430.3536
7430.2864
7430.201
7430.0924
7429.9549
7429.7795
7429.5563
7429.2726
7428.914
7428.4632
7427.9002
7427.2036
7426.3484
7425.306
7424.0444
7422.5264
7420.7074
7418.5392
7415.9668
7412.9288
7409.3583
7405.1826
7400.3208
7394.6828
7388.1672
7380.661
7372.0367
7362.1524
7350.8499
7337.9526
7323.2608
7306.5528
7287.5786
7266.0683
7241.7142
7214.1269
7183.1731
7150.1564
7108.388
7446.3587
7446.3587
7446.3585
7446.3585
7446.3584
7446.358
7446.3576
7446.3572
7446.3566
7446.3558
7446.3549
7446.3537
7446.352
7446.3502
7446.3478
7446.3445
7446.3406
7446.3357
7446.3293
7446.3213
7446.3112
7446.2983
7446.2818
7446.2608
7446.2341
7446.1997
7446.1557
7446.0998
7446.0281
7445.9364
7445.8186
7445.6676
7445.4741
7445.2271
7444.9134
7444.5185
7444.0254
7443.4149
7442.6653
7441.7518
7440.6464
7439.3149
7437.719
7435.816
7433.5568
7430.8882
7427.7513
7424.0828
7419.8113
7414.8568
7409.1291
7402.5267
7394.9352
7386.2261
7376.2556
7364.8622
7351.8605
7337.0418
7320.1674
7300.9717
7279.1405
7254.2832
7226.1921
7196.6931
7158.4229
7462.6735
7462.6734
7462.6734
7462.6732
7462.6733
7462.6731
7462.6727
7462.6726
7462.6722
7462.6716
7462.6711
7462.6703
7462.6694
7462.6682
7462.6666
7462.6647
7462.6621
7462.6589
7462.6546
7462.6494
7462.6423
7462.6331
7462.6211
7462.6053
7462.5848
7462.5582
7462.5234
7462.4783
7462.4196
7462.3439
7462.2455
7462.1184
7461.9545
7461.7443
7461.4771
7461.1404
7460.7195
7460.1987
7459.5594
7458.7806
7457.8369
7456.6994
7455.3359
7453.7088
7451.7761
7449.4925
7446.809
7443.6708
7440.0166
7435.777
7430.8731
7425.2161
7418.7057
7411.2284
7402.6561
7392.8433
7381.6222
7368.7984
7354.1434
7337.3958
7318.2624
7296.2905
7271.1942
7245.3806
7210.924
7479.5427
7479.5428
7479.5428
7479.5426
7479.5427
7479.5425
7479.5424
7479.5422
7479.5421
7479.5417
7479.5416
7479.5411
7479.5407
7479.54
7479.5393
7479.5384
7479.5371
7479.5354
7479.5329
7479.5298
7479.5255
7479.5193
7479.5114
7479.5002
7479.4852
7479.4653
7479.4387
7479.4033
7479.3568
7479.2957
7479.216
7479.1122
7478.9779
7478.8052
7478.5857
7478.3088
7477.9631
7477.5355
7477.0106
7476.3705
7475.5943
7474.6587
7473.5359
7472.1948
7470.6017
7468.7201
7466.5094
7463.9245
7460.9143
7457.4208
7453.3769
7448.7075
7443.3273
7437.1393
7430.0324
7421.8795
7412.5319
7401.8096
7389.5074
7375.3753
7359.1145
7340.2469
7318.3686
7296.3909
7266.014
7496.9493
7496.9491
7496.9492
7496.949
7496.9491
7496.9489
7496.9488
7496.9488
7496.9487
7496.9485
7496.9484
7496.9483
7496.948
7496.9479
7496.9474
7496.9472
7496.9465
7496.9457
7496.9442
7496.9425
7496.9399
7496.936
7496.9305
7496.9227
7496.9117
7496.897
7496.8766
7496.8496
7496.8135
7496.7661
7496.704
7496.6232
7496.5184
7496.3838
7496.2127
7495.9974
7495.7289
7495.3974
7494.9903
7494.4934
7493.8907
7493.1634
7492.2897
7491.2457
7490.0059
7488.5425
7486.8246
7484.816
7482.4767
7479.7597
7476.612
7472.9724
7468.7715
7463.9301
7458.3566
7451.9411
7444.5613
7436.0624
7426.2581
7414.9151
7401.7514
7386.2706
7367.9849
7349.9924
7323.6907
7514.861
7514.861
7514.8608
7514.8607
7514.8607
7514.8606
7514.8604
7514.8603
7514.8601
7514.86
7514.8599
7514.8597
7514.8596
7514.8596
7514.8593
7514.8589
7514.8584
7514.8578
7514.857
7514.8557
7514.8539
7514.8511
7514.8468
7514.8412
7514.833
7514.8219
7514.8068
7514.7867
7514.7603
7514.7256
7514.6808
7514.6226
7514.5478
7514.452
7514.3303
7514.1782
7513.9893
7513.756
7513.4694
7513.1201
7512.6957
7512.1831
7511.5671
7510.8312
7509.9584
7508.9297
7507.7233
7506.3134
7504.6704
7502.7602
7500.5429
7497.9726
7494.9991
7491.5623
7487.5907
7482.9984
7477.6854
7471.5259
7464.3722
7456.0246
7446.2267
7434.4933
7420.332
7406.25
7384.3342
7533.2408
7533.2406
7533.2405
7533.2403
7533.2402
7533.24
7533.2399
7533.2395
7533.2394
7533.239
7533.2389
7533.2385
7533.238
7533.2377
7533.2372
7533.2367
7533.2361
7533.2353
7533.2341
7533.2327
7533.2307
7533.2281
7533.2245
7533.2198
7533.213
7533.2044
7533.1933
7533.1792
7533.1613
7533.1388
7533.1106
7533.0755
7533.0314
7532.9748
7532.9038
7532.8158
7532.7075
7532.574
7532.4114
7532.2135
7531.9729
7531.6817
7531.3317
7530.9149
7530.4225
7529.8442
7529.168
7528.3779
7527.4565
7526.3828
7525.1314
7523.6733
7521.9768
7520.0026
7517.7023
7515.0142
7511.8696
7508.1735
7503.8178
7498.6621
7492.5055
7484.9658
7475.6256
7466.0543
7449.5707
7552.8708
7552.8706
7552.8705
7552.8703
7552.8699
7552.8697
7552.8694
7552.869
7552.8684
7552.8678
7552.8673
7552.8667
7552.866
7552.865
7552.8641
7552.863
7552.8616
7552.8599
7552.858
7552.8558
7552.8529
7552.8494
7552.8453
7552.8404
7552.8344
7552.8273
7552.8194
7552.8105
7552.8007
7552.7901
7552.7785
7552.7663
7552.7528
7552.7378
7552.7215
7552.7032
7552.6827
7552.6596
7552.6325
7552.5994
7552.5593
7552.5101
7552.4519
7552.3843
7552.307
7552.2192
7552.1189
7552.0016
7551.8624
7551.6947
7551.4904
7551.2397
7550.9306
7550.5474
7550.0667
7549.457
7548.6791
7547.6822
7546.4016
7544.7625
7542.6554
7539.8663
7536.4049
7533.2367
7527.1848
7573.5227
7573.5223
7573.5221
7573.5217
7573.5213
7573.5209
7573.5205
7573.5199
7573.5193
7573.5185
7573.5177
7573.5168
7573.5158
7573.5144
7573.5129
7573.5111
7573.5091
7573.5067
7573.504
7573.5006
7573.4969
7573.4928
7573.488
7573.4831
7573.4777
7573.4727
7573.4683
7573.4652
7573.4647
7573.4672
7573.4745
7573.4876
7573.5084
7573.5384
7573.5799
7573.6364
7573.7115
7573.8067
7573.924
7574.0672
7574.2408
7574.4505
7574.7036
7575.0087
7575.3744
7575.8098
7576.323
7576.9222
7577.6163
7578.4148
7579.3282
7580.3672
7581.5414
7582.8588
7584.3249
7585.9411
7587.7038
7589.6079
7591.6412
7593.7998
7596.0767
7598.4429
7601.1258
7604.5845
7607.1928
7594.1337
7594.1336
7594.1331
7594.1327
7594.1323
7594.1319
7594.1315
7594.1309
7594.1301
7594.1295
7594.1285
7594.1275
7594.1265
7594.1251
7594.1236
7594.1219
7594.1198
7594.1175
7594.1149
7594.1121
7594.109
7594.1055
7594.1021
7594.0988
7594.0963
7594.095
7594.0962
7594.1007
7594.1106
7594.1278
7594.1543
7594.1931
7594.2468
7594.3201
7594.4179
7594.546
7594.7104
7594.9178
7595.1757
7595.4926
7595.8789
7596.3468
7596.9116
7597.5896
7598.3986
7599.357
7600.4843
7601.8012
7603.3315
7605.101
7607.139
7609.4765
7612.1452
7615.1779
7618.6082
7622.4718
7626.8032
7631.6427
7637.0338
7643.0378
7649.7262
7657.2065
7665.7404
7675.6047
7686.6259
7614.6163
7614.6161
7614.6157
7614.6152
7614.615
7614.6144
7614.614
7614.6136
7614.613
7614.6123
7614.6115
7614.6107
7614.6097
7614.6088
7614.6077
7614.6064
7614.6049
7614.6035
7614.6016
7614.6001
7614.5982
7614.5967
7614.5955
7614.595
7614.5961
7614.5998
7614.6073
7614.6202
7614.6406
7614.6717
7614.7169
7614.7798
7614.8663
7614.9827
7615.1356
7615.3335
7615.5865
7615.9054
7616.3019
7616.7901
7617.3865
7618.111
7618.9854
7620.0343
7621.2842
7622.7629
7624.5013
7626.5335
7628.8977
7631.6371
7634.799
7638.4351
7642.5993
7647.3496
7652.7477
7658.8626
7665.7686
7673.5498
7682.3019
7692.1458
7703.2217
7715.7294
7729.9744
7746.3155
7765.2666
7634.873
7634.8725
7634.8723
7634.8719
7634.8717
7634.8712
7634.8708
7634.8704
7634.87
7634.8695
7634.8691
7634.8688
7634.8682
7634.8679
7634.8675
7634.8671
7634.8666
7634.8664
7634.8663
7634.8666
7634.867
7634.8682
7634.8704
7634.8741
7634.8801
7634.8899
7634.9045
7634.9269
7634.9596
7635.0064
7635.0716
7635.1611
7635.2819
7635.4413
7635.6492
7635.9172
7636.2586
7636.6877
7637.2214
7637.8798
7638.6851
7639.6636
7640.8453
7642.2616
7643.9477
7645.9417
7648.2858
7651.0276
7654.2205
7657.9242
7662.204
7667.1314
7672.7833
7679.2423
7686.5998
7694.9565
7704.4249
7715.1313
7727.2211
7740.8719
7756.2911
7773.7561
7793.6404
7816.4204
7842.8019
7654.8258
7654.8254
7654.8252
7654.8249
7654.8247
7654.8243
7654.824
7654.824
7654.8238
7654.8236
7654.8236
7654.8237
7654.824
7654.8241
7654.8247
7654.8252
7654.8263
7654.8276
7654.8293
7654.8316
7654.8349
7654.8392
7654.8451
7654.8535
7654.8652
7654.8818
7654.9051
7654.9383
7654.9845
7655.0488
7655.1362
7655.2537
7655.4095
7655.6129
7655.8768
7656.2149
7656.6443
7657.1833
7657.8536
7658.6802