/*--------------------------------*- C++ -*----------------------------------*\
  =========                 |
  \\      /  F ield         | OpenFOAM: The Open Source CFD Toolbox
   \\    /   O peration     | Website:  https://openfoam.org
    \\  /    A nd           | Version:  13
     \\/     M anipulation  |
\*---------------------------------------------------------------------------*/
FoamFile
{
    format      ascii;
    class       volScalarField;
    location    "1500";
    object      p;
}
// * * * * * * * * * * * * * * * * * * * * * * * * * * * * * * * * * * * * * //

dimensions      [0 2 -2 0 0 0 0];

internalField   nonuniform List<scalar> 
9536
(
-0.49871508
-0.49857717
-0.49841373
-0.49823646
-0.49803138
-0.49779438
-0.49752014
-0.49720203
-0.49683219
-0.49640134
-0.49589854
-0.49531092
-0.49462331
-0.49381796
-0.49287406
-0.49176734
-0.49046955
-0.48894795
-0.48716473
-0.48507654
-0.48263393
-0.47978098
-0.47645509
-0.47258697
-0.46810105
-0.46291632
-0.45694784
-0.45010889
-0.44231395
-0.43348245
-0.42354324
-0.4124394
-0.40013326
-0.38661081
-0.37188542
-0.35599906
-0.3390245
-0.32105687
-0.30222621
-0.28264902
-0.2625246
-0.24188958
-0.22114147
-0.19989949
-0.1793453
-0.15752351
-0.13846568
-0.11497451
-0.10009845
-0.071649908
-0.065827869
-0.027664119
-0.49893689
-0.49879805
-0.49863366
-0.49845543
-0.49824921
-0.49801089
-0.49773512
-0.49741521
-0.49704326
-0.49660994
-0.49610425
-0.49551322
-0.49482161
-0.49401156
-0.49306216
-0.491949
-0.4906437
-0.48911337
-0.48732005
-0.48522023
-0.4827643
-0.47989619
-0.47655318
-0.47266586
-0.46815858
-0.46295031
-0.45695611
-0.45008933
-0.44226458
-0.43340151
-0.42342928
-0.41229138
-0.39995063
-0.38639358
-0.3716342
-0.35571512
-0.33870969
-0.32071375
-0.30185773
-0.28225911
-0.26211676
-0.24146934
-0.22071154
-0.19946825
-0.17891145
-0.15710103
-0.13804451
-0.11456882
-0.099722633
-0.071232848
-0.065618318
-0.027025871
-0.49938985
-0.49924877
-0.49907953
-0.49889914
-0.49869002
-0.4984483
-0.49816862
-0.49784418
-0.49746699
-0.49702759
-0.49651484
-0.49591559
-0.49521445
-0.49439332
-0.49343106
-0.49230302
-0.49098051
-0.48943036
-0.48761428
-0.48548843
-0.48300287
-0.48010122
-0.47672046
-0.47279093
-0.46823683
-0.46297703
-0.45692664
-0.4499992
-0.4421097
-0.43317836
-0.42313508
-0.4119243
-0.39950995
-0.38587984
-0.3710493
-0.35506241
-0.33799388
-0.31994107
-0.30103524
-0.28139558
-0.26122026
-0.24055122
-0.21977846
-0.19853549
-0.17797997
-0.15619232
-0.13715241
-0.11369733
-0.098941361
-0.070327775
-0.065210391
-0.025642618
-0.50006318
-0.49991898
-0.49974584
-0.49956134
-0.49934747
-0.49910029
-0.49881432
-0.49848263
-0.49809705
-0.49764793
-0.49712392
-0.49651162
-0.49579535
-0.4949567
-0.49397418
-0.49282273
-0.49147326
-0.48989211
-0.48804054
-0.48587419
-0.48334263
-0.48038901
-0.47694986
-0.47295517
-0.46832888
-0.46298976
-0.45685301
-0.44983251
-0.44184384
-0.4328081
-0.42265637
-0.41133457
-0.39880838
-0.38506757
-0.37012958
-0.3540407
-0.33687769
-0.31874007
-0.29976044
-0.28006036
-0.25983721
-0.23913712
-0.21834428
-0.19710265
-0.176553
-0.15479824
-0.13579176
-0.11235894
-0.097758634
-0.06892973
-0.064611922
-0.02348589
-0.50096511
-0.50081641
-0.5006379
-0.5004477
-0.50022726
-0.49997251
-0.49967782
-0.49933607
-0.49893886
-0.49847629
-0.49793667
-0.4973063
-0.49656907
-0.49570617
-0.49469559
-0.49351176
-0.492125
-0.49050103
-0.48860046
-0.48637826
-0.48378335
-0.48075823
-0.47723888
-0.47315484
-0.46842972
-0.46298222
-0.4567277
-0.44958052
-0.44145709
-0.43227976
-0.42198126
-0.41050954
-0.39783267
-0.38394313
-0.36886119
-0.35263612
-0.33534745
-0.31709757
-0.29802083
-0.27824177
-0.25795696
-0.23721736
-0.21640055
-0.19516209
-0.17462428
-0.15291334
-0.13395807
-0.11054934
-0.096171037
-0.067035156
-0.063821372
-0.020548978
-0.50208046
-0.50192599
-0.50174056
-0.50154302
-0.50131412
-0.50104964
-0.50074375
-0.50038907
-0.49997692
-0.49949705
-0.49893741
-0.49828383
-0.49751974
-0.49662575
-0.49557924
-0.49435397
-0.49291953
-0.49124086
-0.48927774
-0.48698432
-0.48430869
-0.48119256
-0.4775712
-0.47337359
-0.46852299
-0.46293798
-0.45653417
-0.44922657
-0.44093271
-0.43157653
-0.42109288
-0.40943236
-0.3965661
-0.38248998
-0.36722791
-0.35083289
-0.33338791
-0.3149989
-0.2958025
-0.27592666
-0.25556719
-0.23478034
-0.21393663
-0.19270365
-0.17218492
-0.15052953
-0.13164372
-0.10826142
-0.094171191
-0.064639055
-0.06283044
-0.016826195
-0.50339147
-0.50322991
-0.50303599
-0.50282945
-0.50259017
-0.50231375
-0.5019941
-0.50162357
-0.50119309
-0.50069201
-0.50010781
-0.4994258
-0.49862877
-0.49769668
-0.49660617
-0.49533015
-0.49383733
-0.49209171
-0.4900521
-0.48767162
-0.48489738
-0.48167017
-0.47792443
-0.47358849
-0.46858521
-0.46283311
-0.45624813
-0.4487461
-0.44024596
-0.43067363
-0.4199666
-0.40807867
-0.39498471
-0.38068476
-0.36520714
-0.34860929
-0.33097841
-0.31242459
-0.2930872
-0.27309808
-0.25265233
-0.23181169
-0.21093958
-0.18971527
-0.16922455
-0.14763793
-0.12884003
-0.10548801
-0.091750139
-0.061738388
-0.061626525
-0.01231755
-0.50486385
-0.50469386
-0.50448985
-0.50427262
-0.50402099
-0.50373038
-0.5033944
-0.50300503
-0.50255278
-0.50202652
-0.50141317
-0.50069741
-0.49986132
-0.49888406
-0.49774138
-0.49640525
-0.49484332
-0.49301849
-0.49088841
-0.48840505
-0.48551436
-0.48215605
-0.47826363
-0.47376468
-0.46858164
-0.46263299
-0.45583511
-0.44810487
-0.43936289
-0.42953753
-0.41856939
-0.40641609
-0.39305696
-0.37849692
-0.36276944
-0.34593721
-0.3280923
-0.30934954
-0.28985152
-0.2697343
-0.24919236
-0.22829296
-0.20739269
-0.18618133
-0.16572966
-0.14422726
-0.12553544
-0.10222002
-0.088895514
-0.0583304
-0.060191069
-0.0070283883
-0.50645237
-0.50627259
-0.50605688
-0.50582723
-0.50556129
-0.50525421
-0.50489929
-0.50448807
-0.50401058
-0.50345513
-0.50280799
-0.50205313
-0.5011718
-0.50014223
-0.49893918
-0.4975335
-0.49589165
-0.49397526
-0.49174068
-0.48913854
-0.48611349
-0.48260404
-0.47854263
-0.47385608
-0.46846634
-0.46229191
-0.45524976
-0.44725801
-0.43823929
-0.42812478
-0.41685874
-0.40440327
-0.39074279
-0.3758879
-0.35987794
-0.34278159
-0.32469648
-0.30574276
-0.28606663
-0.26580868
-0.24516282
-0.22420163
-0.2032755
-0.18208267
-0.16168374
-0.14028412
-0.12171565
-0.098446491
-0.085591786
-0.054412733
-0.058500146
-0.00097076985
-0.50809444
-0.50790353
-0.50767449
-0.5074307
-0.50714847
-0.50682265
-0.50644616
-0.50601008
-0.50550388
-0.50491523
-0.50422969
-0.50343038
-0.50249766
-0.5014087
-0.50013712
-0.49865253
-0.49692006
-0.49489991
-0.49254696
-0.48981037
-0.48663335
-0.48295305
-0.47870081
-0.47380254
-0.46817978
-0.46175108
-0.45443413
-0.44614854
-0.43681929
-0.42638084
-0.41478165
-0.40198888
-0.38799279
-0.37281035
-0.35648758
-0.33909983
-0.32075092
-0.30156687
-0.28169788
-0.26128934
-0.24053445
-0.21951084
-0.19856362
-0.1773962
-0.15706711
-0.13579275
-0.11736332
-0.094154325
-0.081820212
-0.049982935
-0.056522597
0.0058628428
-0.50971038
-0.50950698
-0.509263
-0.50900338
-0.50870289
-0.50835607
-0.50795544
-0.50749151
-0.50695317
-0.50632736
-0.50559885
-0.50474984
-0.50375965
-0.50260432
-0.5012562
-0.49968352
-0.49784992
-0.49571407
-0.49322921
-0.49034288
-0.48699672
-0.48312646
-0.47866217
-0.47352889
-0.46764771
-0.46093734
-0.45331634
-0.44470607
-0.43503421
-0.42423893
-0.41227344
-0.39911061
-0.38474722
-0.36920734
-0.35254439
-0.33484107
-0.31620803
-0.29677767
-0.27670444
-0.25613884
-0.23527299
-0.21418922
-0.19322844
-0.17209421
-0.15185622
-0.13073456
-0.11245908
-0.089327976
-0.077558945
-0.045039311
-0.05422737
0.013470942
-0.51120054
-0.51098334
-0.51072285
-0.51044573
-0.51012505
-0.50975504
-0.50932772
-0.50883305
-0.50825921
-0.5075924
-0.50681647
-0.50591263
-0.50485909
-0.50363062
-0.5021982
-0.50052855
-0.49858372
-0.49632065
-0.49369086
-0.49064014
-0.48710843
-0.48302993
-0.47833342
-0.47294303
-0.46677943
-0.45976159
-0.45180913
-0.44284541
-0.43280117
-0.42161876
-0.40925669
-0.39569414
-0.3809351
-0.36501147
-0.34798473
-0.32994563
-0.31101217
-0.2913236
-0.27103887
-0.25031389
-0.22933889
-0.20820062
-0.18723666
-0.1661439
-0.1460268
-0.12509944
-0.10698643
-0.083949451
-0.072783433
-0.039585217
-0.051588961
0.021488886
-0.51244238
-0.51221012
-0.5119316
-0.51163538
-0.51129267
-0.51089735
-0.51044092
-0.50991271
-0.50930017
-0.50858866
-0.50776107
-0.50679754
-0.50567503
-0.504367
-0.50284293
-0.50106792
-0.49900229
-0.49660119
-0.49381426
-0.49058544
-0.48685289
-0.48254919
-0.4776018
-0.47193392
-0.46546587
-0.45811698
-0.44980815
-0.440465
-0.43002171
-0.41842526
-0.40564
-0.39165207
-0.37647329
-0.36014404
-0.34273459
-0.32434428
-0.30509903
-0.28514535
-0.26464679
-0.24376512
-0.2226872
-0.20150426
-0.18055151
-0.1595142
-0.13957285
-0.11891042
-0.10086801
-0.077991993
-0.067463058
-0.033606415
-0.048536503
0.030100231
-0.51329055
-0.51304204
-0.51274408
-0.51242724
-0.51206078
-0.51163815
-0.51115034
-0.51058598
-0.50993173
-0.50917207
-0.50828886
-0.50726108
-0.50606441
-0.50467085
-0.50304831
-0.50116018
-0.49896496
-0.49641587
-0.49346061
-0.49004116
-0.48609385
-0.48154958
-0.47633446
-0.47037082
-0.4635787
-0.45587795
-0.44719092
-0.43744583
-0.42658067
-0.4145475
-0.40131704
-0.38688295
-0.37126553
-0.3545143
-0.33670885
-0.31795771
-0.29839517
-0.27817536
-0.2574665
-0.2364369
-0.21526754
-0.19405523
-0.17313329
-0.15214929
-0.13231559
-0.11171426
-0.094062604
-0.071447069
-0.061564415
-0.027085544
-0.044978335
0.039675271
-0.51357033
-0.51330448
-0.51298578
-0.51264695
-0.51225515
-0.51180341
-0.51128214
-0.51067924
-0.50998058
-0.50916965
-0.50822725
-0.50713114
-0.50585564
-0.50437123
-0.50264417
-0.50063608
-0.49830353
-0.49559776
-0.49246444
-0.48884356
-0.48466953
-0.4798716
-0.47437453
-0.46809983
-0.46096734
-0.45289761
-0.44381467
-0.43364964
-0.42234467
-0.40985738
-0.39616535
-0.38127034
-0.3652017
-0.34801865
-0.32981066
-0.31069593
-0.29081749
-0.27033747
-0.24942868
-0.22826716
-0.20702319
-0.18579888
-0.16491221
-0.14378888
-0.12428698
-0.10394698
-0.086784117
-0.064276906
-0.055069097
-0.020019102
-0.040878192
0.049816295
-0.51308331
-0.51279917
-0.51245859
-0.51209658
-0.51167806
-0.51119563
-0.5106391
-0.50999562
-0.50925018
-0.50838528
-0.50738062
-0.50621267
-0.50485433
-0.50327454
-0.50143782
-0.49930395
-0.49682754
-0.49395779
-0.4906383
-0.48680701
-0.48239645
-0.47733419
-0.47154373
-0.4649458
-0.45746026
-0.4490085
-0.43951653
-0.42891865
-0.41716159
-0.40420895
-0.39004565
-0.37468204
-0.35815706
-0.34054007
-0.32193091
-0.3024578
-0.28227285
-0.26154639
-0.24045578
-0.21918664
-0.19788937
-0.17667296
-0.15581829
-0.13522993
-0.11588176
-0.095754889
-0.07888458
-0.056541042
-0.047928314
-0.012397389
-0.036175362
0.060474732
-0.51159236
-0.51128916
-0.51092577
-0.51053959
-0.51009323
-0.50957883
-0.50898558
-0.50829985
-0.50750574
-0.50658474
-0.50551537
-0.50427283
-0.50282856
-0.50114989
-0.49919962
-0.49693563
-0.49431056
-0.49127155
-0.48776012
-0.48371221
-0.47905846
-0.47372483
-0.46763364
-0.46070499
-0.45285885
-0.44401769
-0.43410975
-0.42307283
-0.41085857
-0.39743697
-0.38280077
-0.36696933
-0.34999161
-0.33194759
-0.31294779
-0.29313071
-0.2726578
-0.25170789
-0.2304639
-0.20912744
-0.18782805
-0.16680867
-0.14607208
-0.12588582
-0.10648027
-0.086724544
-0.070003485
-0.048092945
-0.040091676
-0.0042033763
-0.030797949
0.071634532
-0.5088423
-0.50851948
-0.50813263
-0.50772158
-0.50724657
-0.50669929
-0.50606828
-0.50533913
-0.50449502
-0.50351641
-0.50238066
-0.50106163
-0.49952932
-0.49774943
-0.49568301
-0.49328606
-0.49050924
-0.48729764
-0.48359073
-0.47932247
-0.47442171
-0.46881291
-0.4624173
-0.45515456
-0.446945
-0.43771245
-0.42738767
-0.41591231
-0.40324333
-0.38935749
-0.3742557
-0.35796674
-0.34054992
-0.32209605
-0.30272656
-0.28259032
-0.26185817
-0.24071727
-0.21935765
-0.19800131
-0.17672814
-0.15581885
-0.13536667
-0.11515123
-0.095848378
-0.076659748
-0.060373163
-0.038925394
-0.031521467
0.004581387
-0.024671462
0.083248187
-0.50452166
-0.50417892
-0.50376823
-0.50333193
-0.50282785
-0.5022472
-0.50157789
-0.50080473
-0.49990999
-0.49887309
-0.49767023
-0.49627396
-0.49465284
-0.49277097
-0.49058769
-0.48805716
-0.4851281
-0.48174365
-0.47784133
-0.47335321
-0.46820648
-0.46232424
-0.45562683
-0.44803367
-0.43946565
-0.42984816
-0.41911475
-0.40721121
-0.3941001
-0.37976529
-0.3642162
-0.34749134
-0.3296606
-0.31082583
-0.29111934
-0.27070017
-0.24974799
-0.22845637
-0.20701942
-0.18564097
-0.16447738
-0.14363505
-0.12332961
-0.10342275
-0.084709788
-0.065820945
-0.049942716
-0.029002577
-0.022173273
0.013979904
-0.017715497
0.095269571
-0.49832401
-0.49796136
-0.49752687
-0.49706536
-0.49653223
-0.49591828
-0.49521076
-0.4943937
-0.49344849
-0.49235352
-0.49108386
-0.48961077
-0.4879014
-0.48591831
-0.48361914
-0.4809563
-0.47787665
-0.47432145
-0.47022635
-0.46552173
-0.46013324
-0.45398283
-0.4469902
-0.43907479
-0.43015839
-0.42016837
-0.40904143
-0.39672792
-0.38319637
-0.36843806
-0.35247116
-0.33534405
-0.31713726
-0.29796362
-0.27796619
-0.2573139
-0.23619493
-0.21480881
-0.19335435
-0.17202613
-0.1509948
-0.13032302
-0.11039968
-0.090902491
-0.072552189
-0.054083565
-0.038648811
-0.018282756
-0.011999283
0.02401958
-0.0098452639
0.10765227
-0.48984487
-0.48946267
-0.48900479
-0.48851852
-0.4879569
-0.48731028
-0.48656532
-0.48570529
-0.48471072
-0.48355905
-0.48222425
-0.48067638
-0.47888124
-0.47679997
-0.47438865
-0.47159806
-0.46837337
-0.46465416
-0.46037446
-0.45546314
-0.44984462
-0.44343997
-0.43616851
-0.42794999
-0.41870734
-0.40837008
-0.39687832
-0.38418713
-0.37027119
-0.3551294
-0.33878884
-0.32130788
-0.30277776
-0.28332219
-0.26309474
-0.2422739
-0.22105589
-0.19964589
-0.1782474
-0.15705277
-0.13624061
-0.11589874
-0.096301794
-0.077248332
-0.059350149
-0.041392769
-0.02644037
-0.0067214124
-0.00094914557
0.034732403
-0.00097223379
0.12035143
-0.47875432
-0.47835337
-0.47787324
-0.47736325
-0.47677434
-0.47609644
-0.47531564
-0.4744145
-0.47337275
-0.47216691
-0.47076993
-0.46915076
-0.46727394
-0.46509927
-0.4625814
-0.4596696
-0.45630751
-0.45243319
-0.44797922
-0.44287324
-0.43703865
-0.43039596
-0.42286448
-0.41436468
-0.40482114
-0.3941661
-0.38234359
-0.36931393
-0.3550584
-0.33958371
-0.32292593
-0.30515329
-0.28636738
-0.26670232
-0.24632162
-0.22541259
-0.20417871
-0.1828301
-0.16157345
-0.14059993
-0.12008755
-0.10013607
-0.080966489
-0.062428747
-0.045054498
-0.027688749
-0.013262826
0.0057301244
0.011029818
0.046154991
0.008995147
0.13332549
-0.46451233
-0.46409392
-0.46359454
-0.46306214
-0.46244772
-0.46174067
-0.46092651
-0.45998719
-0.45890169
-0.45764576
-0.45619144
-0.4545067
-0.45255504
-0.4502951
-0.44768036
-0.44465887
-0.44117307
-0.43715987
-0.43255082
-0.42727271
-0.42124843
-0.41439835
-0.40664216
-0.3979014
-0.3881025
-0.37718055
-0.36508351
-0.35177687
-0.33724838
-0.32151252
-0.30461425
-0.28663155
-0.26767619
-0.24789237
-0.22745297
-0.20655345
-0.18540361
-0.16421765
-0.14320405
-0.12255285
-0.10243806
-0.082964897
-0.064316595
-0.046374773
-0.029600479
-0.01290896
0.00094028862
0.019123724
0.02399198
0.058328275
0.020150694
0.14653808
-0.44684988
-0.44641591
-0.44589981
-0.4453473
-0.44471008
-0.44397699
-0.44313304
-0.44215962
-0.4410351
-0.43973453
-0.43822916
-0.43648611
-0.43446796
-0.43213239
-0.42943185
-0.42631334
-0.42271832
-0.41858275
-0.41383739
-0.40840848
-0.40221868
-0.3951886
-0.38723883
-0.37829254
-0.36827879
-0.35713634
-0.34481798
-0.33129522
-0.31656294
-0.30064368
-0.2835912
-0.26549271
-0.24646927
-0.22667404
-0.20628798
-0.18551331
-0.16456473
-0.14365918
-0.12300533
-0.10279121
-0.083184874
-0.064292436
-0.046267263
-0.029011757
-0.012921796
0.0030100499
0.01622646
0.033513462
0.037992489
0.071296701
0.032589685
0.15996001
-0.42498324
-0.42453602
-0.4240061
-0.42343636
-0.42277974
-0.42202456
-0.42115545
-0.42015335
-0.41899619
-0.41765847
-0.41611092
-0.41432007
-0.41224789
-0.40985145
-0.40708263
-0.4038879
-0.40020827
-0.39597941
-0.391132
-0.38559245
-0.37928394
-0.37212802
-0.36404674
-0.35496529
-0.34481543
-0.33353939
-0.3210943
-0.30745697
-0.2926286
-0.27663908
-0.25955043
-0.24145866
-0.22249378
-0.20281742
-0.18261794
-0.16210333
-0.14149196
-0.12100207
-0.10084102
-0.081193356
-0.062219733
-0.044023491
-0.02673305
-0.010264133
0.0050489469
0.020132083
0.03265329
0.048954261
0.053085941
0.085106696
0.046408007
0.1735716
-0.39892483
-0.39846751
-0.39792778
-0.39734478
-0.39667333
-0.39590128
-0.39501294
-0.39398896
-0.39280689
-0.39144088
-0.38986125
-0.38803409
-0.38592094
-0.38347843
-0.38065801
-0.37740581
-0.37366255
-0.36936375
-0.36444016
-0.35881854
-0.35242284
-0.3451759
-0.33700173
-0.32782836
-0.31759135
-0.30623782
-0.2937309
-0.28005439
-0.26521725
-0.24925762
-0.23224576
-0.21428567
-0.19551467
-0.17610072
-0.15623719
-0.13613537
-0.11601499
-0.096093348
-0.076574482
-0.057637625
-0.039434534
-0.022062824
-0.0056288211
0.0099436738
0.024379242
0.03852015
0.050277101
0.065499955
0.069324349
0.099803875
0.061700846
0.18736455
-0.36733863
-0.36687475
-0.36632938
-0.36573761
-0.36505657
-0.36427378
-0.3633734
-0.36233596
-0.36113893
-0.35975639
-0.3581586
-0.35631169
-0.35417727
-0.35171216
-0.34886813
-0.34559178
-0.34182455
-0.33750293
-0.33255894
-0.32692097
-0.32051502
-0.31326635
-0.30510184
-0.29595279
-0.28575836
-0.27446966
-0.26205419
-0.24850054
-0.23382305
-0.2180658
-0.20130565
-0.1836535
-0.16525343
-0.14627942
-0.12692942
-0.10741727
-0.087962844
-0.068781019
-0.050070824
-0.032004411
-0.014723292
0.001682995
0.017128689
0.031685647
0.045134946
0.058234895
0.069151074
0.08320075
0.086754277
0.11542856
0.078562602
0.20135024
-0.33109575
-0.33062992
-0.33008467
-0.32949
-0.32880607
-0.32802014
-0.32711628
-0.32607507
-0.32487401
-0.32348725
-0.32188514
-0.32003394
-0.31789545
-0.31542675
-0.31257995
-0.3093021
-0.30553523
-0.30121663
-0.29627937
-0.29065323
-0.284266
-0.27704541
-0.26892147
-0.25982958
-0.24971413
-0.23853261
-0.22626003
-0.21289344
-0.198456
-0.18300054
-0.16661172
-0.14940685
-0.13153459
-0.11317144
-0.094515778
-0.07577972
-0.057179267
-0.03892331
-0.021202841
-0.0041803767
0.012014631
0.027302948
0.041618639
0.055032054
0.067378213
0.079332537
0.089322764
0.10209986
0.1054128
0.13200982
0.097093775
0.21557706
-0.28748076
-0.28701801
-0.2864784
-0.28588719
-0.28520783
-0.28442748
-0.28353044
-0.28249763
-0.28130697
-0.27993316
-0.27834722
-0.27651624
-0.27440308
-0.27196607
-0.2691589
-0.26593052
-0.26222525
-0.25798307
-0.25314026
-0.24763024
-0.24138495
-0.23433661
-0.22642007
-0.2175756
-0.20775236
-0.19691226
-0.18503431
-0.172119
-0.15819269
-0.14331122
-0.12756245
-0.11106694
-0.093976412
-0.076469596
-0.058745571
-0.041014977
-0.023489745
-0.0063720663
0.010156205
0.025943509
0.040873504
0.054878682
0.067912229
0.080044943
0.091162566
0.10185962
0.11082801
0.12222578
0.12531649
0.14954374
0.11736337
0.22998992
-0.23965777
-0.23920388
-0.23867721
-0.23809698
-0.23743065
-0.23666537
-0.23578573
-0.23477309
-0.23360592
-0.23225948
-0.23070553
-0.22891196
-0.22684256
-0.22445674
-0.2217094
-0.21855087
-0.21492702
-0.21077966
-0.20604708
-0.20066512
-0.19456857
-0.18769307
-0.1799777
-0.17136798
-0.16181951
-0.15130207
-0.13980378
-0.12733528
-0.11393337
-0.099663688
-0.084622133
-0.06893459
-0.052754728
-0.036259654
-0.019643424
-0.00310865
0.013143291
0.02892277
0.04406202
0.058424446
0.071909657
0.08446426
0.09606074
0.10677221
0.11653144
0.12585484
0.13369425
0.14359548
0.14645866
0.16796652
0.13936374
0.24459271
-0.18148743
-0.18105023
-0.18054456
-0.17998498
-0.17934289
-0.17860576
-0.17775882
-0.17678432
-0.17566179
-0.17436777
-0.17287552
-0.17115477
-0.16917146
-0.16688759
-0.16426109
-0.1612459
-0.15779211
-0.15384635
-0.1493525
-0.14425263
-0.13848835
-0.13200264
-0.12474205
-0.1166594
-0.10771698
-0.097890091
-0.087170864
-0.075572202
-0.063131438
-0.049913345
-0.036011949
-0.021550573
-0.0066796759
0.0084277862
0.023583353
0.038591962
0.053262028
0.067415881
0.080899531
0.093591212
0.10540624
0.11630523
0.12627834
0.13540108
0.14364758
0.15145861
0.15803381
0.16629922
0.16889873
0.18731182
0.16389089
0.26257679
-0.12166535
-0.12124668
-0.1207653
-0.12022965
-0.11961558
-0.11891094
-0.11810171
-0.11717114
-0.11609988
-0.11486581
-0.11344373
-0.11180513
-0.10991793
-0.10774636
-0.10525087
-0.10238811
-0.099111173
-0.095369965
-0.091111891
-0.08628286
-0.080828714
-0.074697107
-0.067839902
-0.060216072
-0.051795054
-0.042560419
-0.032513654
-0.021677711
-0.010099963
0.0021458423
0.014959011
0.02821299
0.041758337
0.055427655
0.069042376
0.082421081
0.095388791
0.1077865
0.11948002
0.13036755
0.14038403
0.14950713
0.15774572
0.16517918
0.1718186
0.17803095
0.18324626
0.18975962
0.19201481
0.20670814
0.19091749
0.27579935
-0.047163931
-0.046779694
-0.046339865
-0.045847852
-0.045284336
-0.044638033
-0.043896195
-0.043043659
-0.042062987
-0.040934263
-0.039634866
-0.038139261
-0.036418846
-0.034441829
-0.032173198
-0.0295748
-0.026605567
-0.023221945
-0.019378567
-0.015029227
-0.010128198
-0.0046319503
0.0014987175
0.0082961288
0.015782807
0.02396827
0.032845722
0.042388867
0.052549195
0.063254125
0.074406448
0.085885469
0.09755009
0.10924393
0.12080226
0.13206028
0.14286202
0.15306923
0.16256928
0.17128154
0.17916107
0.18620231
0.19243088
0.19792796
0.20273406
0.20713621
0.21076259
0.21521457
0.21654259
0.22562645
0.21475555
0.24046603
0.038400899
0.038744784
0.039156492
0.039592793
0.040095357
0.040671941
0.041333268
0.042092678
0.042965429
0.043968857
0.045122586
0.046448653
0.047971626
0.049718643
0.05171938
0.054005906
0.056612395
0.059574648
0.062929404
0.066713374
0.070961976
0.07570775
0.080978434
0.086794741
0.093167883
0.10009695
0.10756634
0.11554336
0.12397643
0.13279396
0.14190441
0.15119765
0.16054793
0.16981851
0.17886777
0.18755652
0.1957559
0.20335512
0.21026824
0.21643948
0.22184594
0.22649977
0.23044169
0.23375578
0.2365011
0.23890857
0.24074546
0.24314804
0.24343297
0.24884935
0.24218663
0.25840773
0.12632216
0.12661926
0.12697459
0.12735113
0.12778452
0.12828128
0.12885037
0.12950298
0.1302518
0.13111122
0.13209744
0.13322858
0.13452473
0.13600795
0.13770221
0.13963321
0.14182809
0.14431499
0.14712236
0.15027808
0.15380834
0.15773615
0.16207966
0.16685013
0.17204973
0.17766923
0.18368578
0.19006095
0.19673945
0.20364864
0.21069936
0.21778801
0.22480017
0.23161549
0.23811364
0.24418091
0.24971689
0.2546407
0.25889608
0.26245504
0.26531932
0.26752085
0.26911601
0.27019379
0.27082604
0.27120144
0.2711791
0.27154892
0.2704865
0.27269235
0.26715857
0.27547
0.2231504
0.22338853
0.22367357
0.22397523
0.22432212
0.22471926
0.22517356
0.22569359
0.22628904
0.22697081
0.22775106
0.22864327
0.2296622
0.23082389
0.23214546
0.23364494
0.23534092
0.23725211
0.23939666
0.24179138
0.24445073
0.24738561
0.25060196
0.25409924
0.2578688
0.26189233
0.26614036
0.27057123
0.27513042
0.27975066
0.28435297
0.28884868
0.29314272
0.29713792
0.30074031
0.30386487
0.30644123
0.30841877
0.30977039
0.31049486
0.31061702
0.3101869
0.30927418
0.30797171
0.30635885
0.30459141
0.30259139
0.3009024
0.2983083
0.29784177
0.29254831
0.29581232
0.3231981
0.32336946
0.32357437
0.32379112
0.32404008
0.32432462
0.32464944
0.3250203
0.32544366
0.32592669
0.32647729
0.32710406
0.32781628
0.32862377
0.32953673
0.33056553
0.33172036
0.33301075
0.33444507
0.33602971
0.3377683
0.33966064
0.34170156
0.34387972
0.34617631
0.34856397
0.35100585
0.35345514
0.35585523
0.35814063
0.36023879
0.36207289
0.36356544
0.36464248
0.36523825
0.36529964
0.36479034
0.36369404
0.3620165
0.35978601
0.35705243
0.35388496
0.35036649
0.34659402
0.34265134
0.33866828
0.33460661
0.33083374
0.32654463
0.32367102
0.31784148
0.31753855
0.42863095
0.42872801
0.42884409
0.42896645
0.42910648
0.42926576
0.42944647
0.42965126
0.42988296
0.43014458
0.43043923
0.43077004
0.43114007
0.43155215
0.43200861
0.4325111
0.43306017
0.43365487
0.43429224
0.43496673
0.43566949
0.43638769
0.43710369
0.43779443
0.43843068
0.43897674
0.43939024
0.43962243
0.43961906
0.43932173
0.43867001
0.43760423
0.4360688
0.43401598
0.43140977
0.42822943
0.42447235
0.42015583
0.4153175
0.41001426
0.40431979
0.3983211
0.39211265
0.38579451
0.3794517
0.3731923
0.36699984
0.36111445
0.35499766
0.3497986
0.34268966
0.33953781
0.53632024
0.53633694
0.53635675
0.53637702
0.53639933
0.53642334
0.5364486
0.53647447
0.53649996
0.53652373
0.53654389
0.5365579
0.53656243
0.53655309
0.53652424
0.53646866
0.53637724
0.5362386
0.53603861
0.53575999
0.53538179
0.53487894
0.5342218
0.53337592
0.53230185
0.53095537
0.52928799
0.52724797
0.52478196
0.52183713
0.51836395
0.51431936
0.50967016
0.50439633
0.49849396
0.49197741
0.4848805
0.47725638
0.46917614
0.46072612
0.45200398
0.44311407
0.43416137
0.42524824
0.41645855
0.40788152
0.39950901
0.39148896
0.38342196
0.37580655
0.36779149
0.36184975
0.64628544
0.64621705
0.64613501
0.64604718
0.64594484
0.6458256
0.64568622
0.64552258
0.64532967
0.64510152
0.64483096
0.64450945
0.64412684
0.64367111
0.64312811
0.64248123
0.64171104
0.640795
0.63970712
0.63841759
0.6368926
0.63509416
0.63298012
0.63050439
0.62761746
0.62426731
0.62040071
0.61596499
0.61091036
0.6051926
0.59877615
0.59163729
0.58376728
0.57517515
0.56588966
0.5559603
0.54545688
0.53446776
0.52309665
0.51145825
0.49967298
0.48786135
0.47613748
0.46460502
0.45334509
0.44243149
0.43186013
0.42172722
0.41170846
0.40245275
0.39304368
0.38399957
0.75642906
0.75627221
0.75608422
0.75588402
0.75565211
0.75538407
0.75507376
0.75471349
0.75429413
0.75380498
0.75323349
0.75256499
0.75178243
0.75086609
0.74979322
0.74853775
0.74706996
0.74535621
0.74335867
0.74103521
0.73833937
0.73522051
0.73162426
0.72749319
0.72276796
0.71738886
0.71129787
0.70444118
0.69677226
0.68825523
0.67886837
0.66860752
0.6574891
0.64555215
0.63285931
0.6194963
0.60556978
0.59120374
0.57653448
0.56170456
0.5468563
0.53212516
0.51763304
0.50348378
0.48975417
0.47650399
0.46372889
0.45149145
0.43956124
0.42860342
0.41671808
0.40543987
0.86584064
0.86559374
0.8652987
0.86498375
0.86461961
0.86419972
0.86371501
0.86315414
0.86250379
0.86174845
0.86087011
0.85984787
0.85865768
0.85727196
0.85565925
0.85378387
0.85160565
0.84907965
0.84615609
0.84278033
0.83889314
0.83443119
0.82932787
0.82351462
0.81692261
0.80948507
0.80114006
0.79183381
0.78152442
0.77018578
0.75781142
0.74441791
0.73004753
0.71476965
0.69868063
0.68190191
0.66457622
0.64686217
0.62892742
0.61094109
0.59306598
0.57545106
0.55822448
0.54148894
0.52531486
0.5097467
0.49477106
0.48040686
0.46645377
0.4532243
0.43976583
0.42685751
0.97280162
0.9724643
0.97206326
0.97163289
0.97113611
0.97056397
0.96990445
0.96914255
0.96826082
0.96723899
0.96605357
0.96467754
0.9630799
0.96122534
0.95907377
0.95658009
0.95369384
0.95035905
0.94651424
0.94209261
0.93702253
0.93122836
0.92463174
0.91715338
0.9087154
0.89924429
0.88867448
0.87695237
0.86404075
0.84992327
0.83460864
0.81813412
0.80056782
0.78200939
0.76258877
0.74246276
0.72180957
0.70082151
0.67969649
0.65862887
0.63780048
0.6173724
0.59747772
0.57821702
0.5596533
0.54181641
0.52468297
0.50823832
0.49231683
0.47704489
0.46184612
0.44712027
1.0760484
1.0756219
1.0751158
1.0745718
1.0739444
1.0732223
1.0723906
1.0714308
1.0703213
1.0690371
1.0675495
1.0658254
1.0638271
1.0615115
1.0588302
1.0557289
1.0521471
1.048018
1.0432688
1.0378208
1.0315902
1.0244897
1.0164294
1.00732
0.99707482
0.98561438
0.97287004
0.95878901
0.94333937
0.92651498
0.90834005
0.8888725
0.86820594
0.84646958
0.82382589
0.80046571
0.77660115
0.75245658
0.72825837
0.70422438
0.68055386
0.6574185
0.63495515
0.61326141
0.59239214
0.57236298
0.55313926
0.53467827
0.51683469
0.49962661
0.48268839
0.46619461
1.1740451
1.1735324
1.172924
1.1722703
1.1715166
1.1706495
1.1696514
1.1685003
1.1671707
1.1656333
1.1638539
1.1617939
1.159409
1.1566488
1.153457
1.1497704
1.1455188
1.1406253
1.1350062
1.1285716
1.1212263
1.1128717
1.1034074
1.0927342
1.0807579
1.067393
1.0525685
1.0362324
1.0183581
0.99894947
0.97804572
0.95572475
0.93210475
0.90734335
0.88163414
0.85520044
0.8282865
0.80114682
0.77403437
0.74718863
0.72082458
0.69512317
0.67022392
0.6462209
0.62316057
0.60104519
0.57982843
0.55944521
0.53976054
0.52072509
0.50210099
0.48391446
1.2654624
1.2648678
1.2641619
1.2634043
1.262531
1.2615266
1.2603709
1.2590387
1.2575008
1.2557235
1.2536682
1.2512903
1.2485397
1.2453592
1.2416847
1.2374449
1.2325605
1.2269451
1.2205047
1.2131388
1.2047419
1.1952046
1.1844167
1.1722702
1.1586635
1.1435063
1.1267252
1.1082695
1.088118
1.0662843
1.0428221
1.0178282
0.99144418
0.96385433
0.93528138
0.90597884
0.87622074
0.84628935
0.81646192
0.7869975
0.75812506
0.7300334
0.7028639
0.67670676
0.65160011
0.62753388
0.60445032
0.58226651
0.56085164
0.5401143
0.51989669
0.50012155
1.348944
1.3482737
1.3474768
1.3466232
1.3456392
1.3445077
1.3432062
1.3417064
1.3399758
1.3379768
1.3356661
1.3329945
1.3299059
1.326337
1.3222168
1.3174662
1.3119978
1.3057162
1.2985183
1.290294
1.2809279
1.2703012
1.2582947
1.2447925
1.2296863
1.2128815
1.1943027
1.1739008
1.1516595
1.1276016
1.1017942
1.0743519
1.0454375
1.0152599
0.98406863
0.95214474
0.91978932
0.88730976
0.85500512
0.82315184
0.79199107
0.76171826
0.7324759
0.7043503
0.67737162
0.65151869
0.62672311
0.6028877
0.57988239
0.5575893
0.53590277
0.51467077
1.4232688
1.4225302
1.4216509
1.4207109
1.4196272
1.4183813
1.4169485
1.4152978
1.4133938
1.4111951
1.4086547
1.4057188
1.4023263
1.3984081
1.3938872
1.3886775
1.3826844
1.3758045
1.3679265
1.3589317
1.348696
1.3370922
1.3239931
1.3092757
1.2928263
1.274546
1.2543582
1.2322151
1.2081051
1.1820594
1.1541572
1.124529
1.093357
1.0608721
1.0273475
0.99308888
0.95842124
0.92367412
0.8891657
0.85518751
0.82199113
0.78977745
0.75868957
0.72881
0.70016171
0.67271369
0.64638808
0.62107633
0.59664745
0.57296665
0.54996396
0.52743156
1.4873341
1.4865361
1.4855845
1.4845694
1.483399
1.4820535
1.4805065
1.4787246
1.4766696
1.4742974
1.4715573
1.4683915
1.4647347
1.4605129
1.4556436
1.4500349
1.4435858
1.4361862
1.4277173
1.4180533
1.4070626
1.3946107
1.3805636
1.3647923
1.3471781
1.3276192
1.3060377
1.2823871
1.2566601
1.2288953
1.1991825
1.1676662
1.134545
1.1000691
1.064532
1.0282605
0.99160031
0.95489975
0.91849324
0.88268506