/*--------------------------------*- C++ -*----------------------------------*\
  =========                 |
  \\      /  F ield         | OpenFOAM: The Open Source CFD Toolbox
   \\    /   O peration     | Website:  https://openfoam.org
    \\  /    A nd           | Version:  13
     \\/     M anipulation  |
\*---------------------------------------------------------------------------*/
FoamFile
{
    format      ascii;
    class       volScalarField;
    location    "0.0005";
    object      CrankNicolson:ddt0(rho,e);
}
// * * * * * * * * * * * * * * * * * * * * * * * * * * * * * * * * * * * * * //

dimensions      [1 -1 -3 0 0 0 0];

internalField   nonuniform List<scalar> 
1000
(
-5.45697e-07
-2.12445e-06
-1.66027e-06
-4.08181e-07
1.74193e-07
-1.41693e-07
7.23239e-07
-3.97946e-06
2.94121e-06
-1.99012e-06
-2.11938e-06
-7.31118e-07
1.60282e-06
4.54131e-08
3.06686e-06
7.75559e-09
1.1632e-06
9.20863e-07
-4.26828e-08
6.82186e-07
-3.11829e-09
1.16819e-08
1.76478e-06
3.90363e-06
-7.39397e-07
-1.09006e-06
2.78244e-07
1.46816e-06
3.41061e-07
-1.78631e-06
-2.60847e-06
-1.38163e-06
-1.1479e-06
3.94006e-06
1.1411e-06
-2.02076e-06
-4.1204e-07
-5.59815e-08
-1.50188e-06
2.3858e-06
2.72132e-06
1.21187e-08
-5.20131e-13
-1.16818e-06
1.22788e-06
-3.2773e-06
1.16819e-08
1.76478e-06
3.90363e-06
-7.39397e-07
-1.09006e-06
2.78244e-07
1.46816e-06
3.41061e-07
-1.78631e-06
-2.60847e-06
-1.38163e-06
-1.1479e-06
3.94006e-06
1.1411e-06
-2.02076e-06
-4.1204e-07
-5.59815e-08
-1.50188e-06
2.3858e-06
2.72132e-06
1.21187e-08
-5.20131e-13
-2.25958e-06
-4.09208e-07
2.6973e-07
-8.06863e-07
-1.85046e-06
2.6076e-06
-2.29255e-06
-6.98908e-07
7.84373e-07
-1.55183e-06
-2.51638e-07
-3.40967e-06
-3.24368e-06
8.54602e-08
1.80751e-06
1.12617e-06
-8.25626e-07
5.7967e-07
-3.72381e-07
4.83454e-06
1.13933e-06
-9.01013e-07
5.39294e-07
3.15482e-07
2.58243e-06
-1.63262e-06
-1.13891e-06
-8.24001e-08
1.86474e-07
4.07704e-07
5.55017e-07
-2.29056e-06
-2.52566e-06
-4.53384e-06
1.06839e-08
9.55273e-07
-1.6378e-06
1.29446e-06
8.12614e-07
-7.50456e-07
8.52886e-07
8.58538e-07
1.38108e-06
1.48937e-06
-3.97266e-08
1.03265e-06
-9.54865e-07
2.0632e-06
5.34702e-09
-4.19985e-10
2.6965e-06
-8.24039e-07
-3.52754e-06
-1.35172e-06
8.95253e-08
-4.79452e-07
2.69001e-06
-2.34141e-06
-1.23751e-07
2.38957e-06
-8.1902e-07
-1.78001e-06
-4.72122e-07
1.63711e-06
8.18356e-07
-3.31683e-06
-5.94433e-07
8.3951e-07
-1.23725e-06
-3.63734e-07
1.44192e-06
1.04701e-10
2.0632e-06
5.34702e-09
-4.19985e-10
2.6965e-06
-8.24039e-07
-3.52754e-06
-1.35172e-06
8.95253e-08
-4.79452e-07
2.69001e-06
-2.34141e-06
-1.23751e-07
2.38957e-06
-8.1902e-07
-1.78001e-06
-4.72122e-07
1.63711e-06
8.18356e-07
-3.31683e-06
-5.94433e-07
8.3951e-07
-1.23725e-06
-3.63734e-07
1.44192e-06
1.04701e-10
2.0632e-06
5.34702e-09
-4.19985e-10
-3.19814e-08
-5.49357e-09
-8.24637e-07
1.30003e-06
2.33626e-06
-2.07846e-07
-2.48104e-06
-7.72083e-07
1.15976e-06
2.27044e-06
1.45697e-06
-1.67332e-06
-1.90738e-07
-2.27214e-06
2.51892e-07
1.29754e-07
-4.78282e-07
6.8316e-07
1.91641e-06
-1.0235e-06
-1.92836e-06
-1.78097e-07
-1.30117e-06
3.8198e-07
-1.14722e-06
-3.54431e-07
3.99143e-07
6.12972e-07
2.44837e-06
7.22924e-07
-2.21676e-07
1.05237e-06
1.7698e-06
-1.60172e-07
6.45487e-08
-2.1616e-07
6.24084e-08
1.61746e-07
1.70933e-06
-5.24249e-08
-3.40878e-08
8.14963e-07
-4.71023e-07
-2.23663e-07
2.40232e-06
8.03572e-07
1.63777e-09
1.44765e-06
-2.50917e-06
-2.04639e-06
2.06941e-08
2.23819e-09
7.59404e-11
2.72361e-06
3.27485e-06
1.10845e-06
-1.21286e-07
3.4095e-08
1.55556e-06
-2.85688e-06
2.45865e-06
1.79192e-06
-2.81529e-07
-1.90141e-06
-1.2241e-06
-1.55682e-06
1.75895e-06
7.65221e-08
-6.13059e-07
-2.64548e-06
3.06147e-06
1.45809e-06
-9.14185e-07
5.72885e-06
-1.04242e-06
3.91966e-08
-1.71329e-07
-6.98375e-07
-4.45778e-07
1.17029e-06
8.96562e-07
-3.23764e-09
3.05245e-07
-3.00979e-08
-3.18687e-07
4.22337e-07
-1.54754e-06
1.60301e-06
2.81419e-06
2.17018e-06
-1.27863e-07
3.11849e-06
2.51223e-06
-1.62084e-06
-2.72032e-06
1.09086e-06
-2.96969e-07
8.51235e-09
3.22782e-06
2.49409e-07
2.45343e-06
-3.62027e-07
2.55797e-08
1.0794e-06
-3.25416e-13
-7.57877e-07
-1.13074e-06
-1.61777e-06
-1.1714e-07
-1.18466e-06
3.81791e-10
-2.31776e-07
6.66068e-11
-1.25649e-08
1.02112e-09
2.18465e-06
8.86745e-07
-1.37279e-06
-4.80131e-07
-1.11054e-06
-2.39284e-06
1.0237e-06
3.00152e-08
1.40187e-06
-4.33408e-07
1.13543e-07
-2.08948e-06
4.297e-06
1.94458e-06
-1.41628e-06
6.37709e-07
1.22872e-06
-1.91149e-06
1.72542e-07
-1.54934e-06
1.27378e-06
-6.58042e-07
1.88698e-06
1.0763e-06
-9.94706e-07
1.04347e-06
9.16635e-07
-4.47469e-06
5.44014e-10
5.50048e-07
-1.15366e-06
-1.26502e-06
2.94428e-08
-1.21881e-06
-3.4982e-07
3.88578e-06
-8.01796e-07
-1.33919e-06
3.27401e-06
-1.90434e-06
-4.49725e-06
1.76739e-06
2.2612e-06
5.94818e-07
-3.3225e-07
-1.91264e-06
-2.42238e-08
3.48336e-07
-1.2459e-06
-3.0822e-07
6.72363e-07
-1.34126e-07
1.65336e-06
4.0287e-07
1.54144e-06
3.50454e-08
-2.77819e-06
-2.48809e-07
-1.51348e-06
8.67978e-07
1.19369e-06
-6.80117e-08
5.54403e-07
1.1043e-06
9.55502e-07
1.19556e-06
1.34432e-06
-1.81612e-06
5.57859e-10
8.30981e-08
7.9628e-07
1.13398e-06
-1.36553e-07
-2.65953e-06
-3.59285e-06
1.63631e-06
-2.04816e-06
1.36328e-06
1.72127e-06
-7.81837e-07
7.99301e-07
3.36921e-06
-1.93667e-06
2.40634e-06
7.30956e-07
-2.74469e-06
-1.40781e-06
-3.54711e-06
-3.95525e-06
-1.96668e-06
1.28245e-06
1.6371e-06
-2.03563e-07
1.64069e-09
1.7792e-15
-1.09972e-06
-5.81368e-08
-2.82129e-06
1.13378e-08
2.80502e-06
-3.26138e-06
5.33078e-07
-2.37011e-06
5.34115e-07
2.77503e-07
1.24793e-06
-1.81638e-06
-7.24609e-07
1.38378e-08
-1.47608e-07
5.68524e-07
-2.27155e-06
-2.28416e-06
-1.03942e-06
1.14222e-07
1.15568e-06
9.20333e-07
-9.2205e-08
-1.15959e-06
-2.53208e-06
3.27434e-06
-8.97716e-07
4.02406e-06
-1.59335e-06
9.59624e-09
-1.84042e-06
-1.57923e-06
1.51792e-06
-3.19356e-06
-1.61648e-07
-5.13914e-07
3.88872e-06
8.16409e-07
-1.06528e-06
-2.68073e-06
-4.51752e-07
-1.2487e-07
-1.68802e-06
3.25694e-06
-2.74992e-06
-3.46736e-06
-1.23608e-07
8.443e-07
3.48193e-06
1.56489e-06
-2.50719e-06
2.23524e-06
-2.21472e-06
3.44116e-06
3.31084e-06
-1.21849e-06
-3.09363e-09
-2.47486e-06
-2.68744e-07
4.24178e-07
-2.62223e-06
-3.65434e-06
-1.21985e-07
-2.64721e-06
1.10357e-06
3.76855e-10
-8.6331e-07
-1.02721e-06
7.4943e-07
-1.02192e-06
8.95591e-07
-2.75445e-06
1.65947e-06
-1.09996e-06
-3.46251e-06
-5.0061e-06
-1.36765e-05
-6.33179e-05
-0.00027772
-0.00121933
-0.00520167
-0.0216976
-0.0882945
-0.350116
-1.35111
-5.06783
-18.4504
-65.0981
-222.215
-732.478
-2326.52
-7103.26
-20789.4
-58138.1
-154762
-390370
-927882
-2.06414e+06
-4.26094e+06
-8.07588e+06
-1.3874e+07
-2.12823e+07
-2.86634e+07
-3.32911e+07
-3.35869e+07
-3.09521e+07
-2.68676e+07
-2.20993e+07
-1.71846e+07
-1.2447e+07
-8.08967e+06
-4.23823e+06
-964112
1.69305e+06
3.72509e+06
5.13541e+06
5.94066e+06
6.1866e+06
5.92308e+06
5.1787e+06
4.0098e+06
2.55701e+06
1.00243e+06
-559841
-2.14613e+06
-3.68316e+06
-4.69798e+06
-4.41088e+06
-2.00578e+06
3.28483e+06
9.63899e+06
2.1792e+06
-5.04594e+07
-1.46611e+08
-2.35911e+08
-2.76161e+08
-2.62252e+08
-2.10292e+08
-1.39795e+08
-7.0965e+07
-1.50196e+07
1.6246e+07
5.33162e+06
-1.27358e+07
3.28016e+07
4.69912e+07
-8.31694e+07
1.93456e+07
3.52945e+08
1.08231e+08
-1.24241e+07
-3.63413e+06
-462049
-74317.6
-12353.9
-2034.76
-333.159
-54.3735
-8.85189
-1.43763
-0.232922
-0.0376445
-0.00606762
-0.000975551
-0.000156682
-2.52982e-05
-3.9563e-06
-2.38742e-07
5.45697e-07
0
0
0
0
0
0
0
0
0
4.77483e-07
-5.78204e-07
2.21287e-07
-5.44382e-08
2.25261e-07
-3.9781e-07
-1.21905e-07
1.35517e-08
-2.51544e-07
6.23673e-08
9.66568e-07
-8.1841e-07
9.66571e-10
6.55821e-08
-6.18705e-07
-3.24007e-07
-3.09522e-07
-9.49034e-07
5.39916e-07
6.97107e-07
2.75752e-07
6.96782e-07
2.41353e-07
7.52998e-07
-6.82125e-08
-2.04365e-07
1.84019e-09
-2.48995e-08
5.82854e-11
7.31337e-08
1.38124e-08
-1.55898e-07
7.95843e-08
3.15547e-07
1.07712e-07
4.96066e-08
-2.55597e-07
-2.05518e-07
5.33439e-07
1.02585e-08
-2.39262e-07
1.40686e-07
5.75519e-11
5.8625e-10
2.08101e-07
3.32534e-07
-2.04636e-07
-4.86014e-07
-5.45828e-07
-6.82537e-08
6.82121e-08
-7.14096e-08
-1.51887e-08
6.90914e-07
2.21691e-07
-3.4002e-07
2.35227e-09
-1.70437e-11
7.30249e-08
6.46235e-22
0
0
1.613e-18
3.67708e-19
9.52899e-17
-3.87121e-16
0
6.46235e-22
-6.35275e-17
-2.30189e-07
1.02906e-07
-6.63494e-07
8.15837e-08
9.3779e-08
1.249e-11
6.46235e-22
0
8.52651e-07
-6.10597e-07
2.04445e-07
-1.12005e-07
-1.32164e-07
-4.08914e-07
-2.9121e-13
7.73829e-07
9.47312e-07
-4.78583e-07
-2.53714e-08
8.61307e-08
-2.73348e-07
-1.79248e-07
-2.81373e-07
2.68142e-07
-2.86121e-07
6.83193e-07
5.91852e-07
-1.36624e-07
-4.12537e-07
-1.59851e-08
-6.81954e-08
-9.75782e-14
0
0
1.9984e-10
6.46235e-22
-7.99361e-10
-3.97073e-17
-2.30216e-07
-6.64052e-10
-4.69558e-07
-7.21921e-08
-7.97749e-09
-1.7586e-08
2.48051e-07
3.5981e-09
-1.66533e-11
-1.77104e-10
2.25044e-08
1.06693e-07
3.96551e-09
2.72848e-07
-2.70621e-11
-6.87742e-08
8.52957e-09
3.61758e-07
5.03398e-07
3.49737e-07
-2.66656e-08
9.74221e-10
-2.72848e-07
6.82121e-08
1.06581e-09
-4.09273e-07
-1.83337e-07
3.60245e-07
-7.00507e-07
9.33786e-07
-6.82107e-08
-1.76289e-15
2.72848e-07
-4.81757e-07
-9.54985e-08
4.12987e-08
6.23494e-07
-1.21447e-11
1.94225e-16
-5.18321e-13
8.6854e-19
1.01643e-15
-2.08906e-07
-1.91631e-09
-1.16941e-07
-2.51341e-08
2.72848e-07
3.05889e-07
4.2899e-08
3.58114e-07
-2.89901e-07
-2.58494e-21
-6.48015e-07
-6.39488e-09
5.45897e-07
1.04083e-12
-9.20863e-07
6.37357e-07
8.32032e-12
-1.50401e-10
-1.89442e-16
2.38776e-07
6.82107e-08
4.28128e-07
-3.05893e-07
-1.2782e-08
4.43578e-07
4.06375e-07
3.28025e-07
-6.72883e-08
-1.36754e-07
6.82079e-08
-5.11591e-07
-5.96856e-08
3.25896e-14
0
1.36424e-07
-4.06508e-07
-5.54382e-07
4.77295e-07
-3.3198e-07
9.21764e-07
1.32124e-10
-6.13861e-07
1.70611e-07
-3.29387e-07
5.45028e-07
-1.36624e-07
4.31544e-09
-1.04813e-09
1.57642e-07
2.01905e-07
-2.22755e-07
-1.83853e-08
-6.17822e-07
1.01145e-06
4.75456e-08
-7.24042e-07
5.32644e-07
-4.07346e-10
2.14998e-07
-6.91564e-08
-1.15758e-06
2.38724e-07
-1.39749e-07
-4.13811e-07
4.43191e-08
-5.76367e-08
-7.33079e-07
-1.70355e-07
-4.98899e-07
-2.39911e-08
6.58779e-07
-1.50413e-07
1.48603e-08
5.96859e-07
-4.271e-07
3.23498e-07
1.05321e-07
-1.53494e-07
1.14953e-10
-8.74634e-08
6.13118e-07
-1.70424e-07
2.05949e-10
-9.48174e-07
-2.14769e-07
-4.38588e-07
-2.49033e-08
1.29379e-07
1.54075e-10
-5.56433e-07
8.3744e-07
-4.52346e-07
7.08592e-09
-1.35765e-07
-7.20453e-07
4.61318e-07
9.15726e-09
-6.59929e-08
3.60243e-07
-2.1316e-07
2.38755e-07
9.69369e-07
-7.72763e-08
5.39293e-07
1.76942e-07
7.83354e-07
-9.49438e-08
1.88181e-07
1.27785e-07
-2.66454e-09
-8.31335e-07
-3.37848e-07
-2.72618e-07
2.4124e-10
8.52651e-09
-5.33631e-10
1.91455e-07
-1.22536e-07
-4.86282e-07
-3.89822e-07
-6.52695e-20
2.38685e-07
1.33224e-10
1.27898e-07
5.28643e-07
-5.15842e-07
4.63683e-07
-1.30829e-07
-2.72848e-07
6.46235e-22
2.28698e-15
4.05443e-14
-6.16043e-15
-4.43327e-07
2.04653e-07
-6.46235e-22
1.06694e-08
9.7419e-11
5.21783e-07
-2.21689e-07
2.94231e-07
-6.51396e-08
-3.30076e-08
3.80982e-08
3.51985e-07
-6.52745e-20
-5.70995e-11
1.33224e-10
6.73595e-07
5.28643e-07
-5.15842e-07
4.63683e-07
-1.30829e-07
-2.72848e-07
6.46235e-22
2.28698e-15
4.05443e-14
-6.16043e-15
-4.43327e-07
2.04653e-07
-6.46235e-22
1.06694e-08
9.7419e-11
5.21783e-07
-2.21689e-07
2.94231e-07
-6.51396e-08
-3.30076e-08
3.80982e-08
3.51985e-07
-6.52745e-20
-5.70995e-11
1.33224e-10
6.73595e-07
5.28643e-07
-5.15842e-07
4.63683e-07
-1.30829e-07
-2.72848e-07
6.46235e-22
2.28698e-15
4.05443e-14
-6.16043e-15
5.20459e-11
1.28064e-08
3.64042e-08
-2.36877e-07
-5.32739e-07
-4.80764e-08
7.25596e-08
-5.14401e-07
6.62628e-09
-4.7584e-07
-6.20057e-07
3.20908e-07
-1.58593e-08
1.38804e-07
-5.41537e-07
6.12155e-07
7.09599e-08
1.35155e-07
-2.86841e-07
-5.11786e-07
5.71805e-07
-3.61601e-07
9.932e-08
-3.6913e-07
-2.0465e-07
6.44796e-08
-3.50054e-08
-1.38236e-09
-6.0141e-07
-2.37994e-07
-3.66263e-07
2.54113e-07
-7.69526e-07
3.83687e-07
2.95263e-07
1.3759e-07
4.51244e-07
3.0056e-07
3.23069e-07
-4.78548e-07
-2.43205e-07
1.49216e-08
-3.19289e-07
-1.47269e-07
-5.28483e-07
-2.55721e-07
-8.15878e-07
-6.22036e-07
1.60658e-07
3.09236e-07
-8.85488e-07
-3.54209e-07
1.3088e-07
-6.29137e-07
-4.48529e-08
1.62453e-08
5.72667e-09
-5.06209e-07
-2.29055e-07
1.84276e-07
2.66442e-07
-2.20801e-07
-4.16662e-08
-1.47114e-06
-4.69036e-08
-4.15353e-07
2.63921e-09
-6.89349e-07
1.56155e-07
-2.86e-08
-8.48081e-07
3.2401e-07
2.23821e-07
5.31516e-09
-4.20847e-07
-9.25989e-07
-9.59592e-07
-5.81084e-07
-4.13843e-07
2.27996e-07
1.62453e-08
5.72667e-09
-5.06209e-07
-2.29055e-07
1.84276e-07
2.66442e-07
3.24896e-07
6.06349e-07
3.36483e-07
-4.69036e-08
-1.27583e-07
3.42101e-07
-2.03404e-07
-4.32558e-07
4.85039e-07
9.80375e-08
-3.04306e-07
-1.38689e-07
-5.78966e-08
8.44967e-10
-3.56769e-08
8.40677e-08
-9.36619e-08
-3.24674e-07
-6.81059e-07
-2.19725e-07
3.53407e-07
-3.66339e-07
2.76588e-07
6.69803e-07
7.07345e-07
3.55568e-07
)
;

boundaryField
{
    sides
    {
        type            calculated;
        value           nonuniform List<scalar> 2(3.55568e-07 -5.45697e-07);
    }
    empty
    {
        type            empty;
    }
}


// ************************************************************************* //
