/*--------------------------------*- C++ -*----------------------------------*\
  =========                 |
  \\      /  F ield         | OpenFOAM: The Open Source CFD Toolbox
   \\    /   O peration     | Website:  https://openfoam.org
    \\  /    A nd           | Version:  13
     \\/     M anipulation  |
\*---------------------------------------------------------------------------*/
FoamFile
{
    format      ascii;
    class       volScalarField;
    location    "0.0005";
    object      CrankNicolson:ddt0(rho,K);
}
// * * * * * * * * * * * * * * * * * * * * * * * * * * * * * * * * * * * * * //

dimensions      [1 -1 -3 0 0 0 0];

internalField   nonuniform List<scalar> 
1000
(
1.25091e-21
3.94616e-22
-1.91675e-22
1.1983e-22
7.02894e-23
-3.60857e-23
-2.59925e-23
2.71844e-22
-5.26884e-22
-4.64766e-23
-1.22005e-21
-3.4188e-22
8.34455e-22
3.6953e-22
-3.23643e-22
-3.1183e-22
-1.00621e-22
6.56008e-22
5.2433e-23
1.13693e-23
3.31586e-23
1.38236e-22
1.55179e-23
5.10968e-22
8.54091e-22
2.3293e-23
1.20751e-24
-2.26044e-22
6.08355e-24
1.14547e-23
3.19625e-24
1.54777e-23
3.91387e-22
-2.35853e-22
2.64223e-22
-6.34332e-22
-5.90641e-22
-1.06723e-22
-1.53035e-24
-3.6391e-22
-3.69784e-22
1.04904e-23
-1.06345e-23
1.13461e-22
4.07246e-24
6.62448e-24
1.38236e-22
1.55179e-23
5.10968e-22
8.54091e-22
2.3293e-23
1.20751e-24
-2.26044e-22
6.08355e-24
1.14547e-23
3.19625e-24
1.54777e-23
3.91387e-22
-2.35853e-22
2.64223e-22
-6.34332e-22
-5.90641e-22
-1.06723e-22
-1.53035e-24
-3.6391e-22
-3.69784e-22
1.04904e-23
-1.06345e-23
-9.88116e-23
2.56147e-22
9.27789e-24
-1.04658e-23
8.65274e-22
-1.8008e-22
1.10498e-22
5.9494e-22
6.94447e-22
3.72911e-22
-1.97177e-22
-2.50055e-22
1.79997e-22
-9.93222e-23
2.96387e-22
4.48215e-24
8.49065e-23
7.27716e-22
-5.90021e-22
-8.27498e-23
-1.30368e-24
3.7078e-22
-1.78265e-24
2.20549e-22
-1.19273e-22
5.07361e-22
-8.61216e-22
3.02572e-22
-2.42246e-22
-5.79297e-23
-3.13323e-22
-5.75451e-23
4.93256e-23
4.80336e-23
1.74154e-22
6.38964e-22
4.2166e-22
-3.59883e-25
-6.92642e-23
-6.52548e-22
-5.2609e-22
-1.1197e-22
-2.92425e-22
-9.53478e-22
-3.54921e-22
5.34161e-22
2.1654e-22
7.78616e-22
1.39706e-23
-1.34407e-22
-2.28916e-23
8.85356e-22
1.17265e-21
1.69682e-24
1.10937e-22
-1.05662e-22
-1.89111e-22
6.29383e-24
-3.90835e-22
3.40016e-24
2.69631e-22
3.60686e-22
2.39265e-22
-1.39503e-22
-3.3416e-23
-3.76345e-23
-1.06841e-22
-1.0463e-21
-2.12507e-22
1.1074e-22
1.23157e-21
-4.77328e-22
5.09736e-22
1.55486e-22
-1.34407e-22
-2.28916e-23
8.85356e-22
1.17265e-21
1.69682e-24
1.10937e-22
-1.05662e-22
-1.89111e-22
6.29383e-24
-3.90835e-22
3.40016e-24
2.69631e-22
3.60686e-22
2.39265e-22
-1.39503e-22
-3.3416e-23
-3.76345e-23
-1.06841e-22
-1.0463e-21
-2.12507e-22
1.1074e-22
1.23157e-21
-4.77328e-22
5.09736e-22
1.55486e-22
3.2439e-26
6.02486e-23
2.68879e-22
-4.6615e-26
-2.47572e-22
-1.12369e-22
-1.97536e-22
-1.63418e-22
-8.93724e-22
-3.76128e-22
3.0167e-22
4.66903e-22
6.82425e-22
2.91783e-22
5.59549e-23
2.20841e-24
8.59136e-23
6.14006e-24
-2.65562e-22
-3.77435e-22
-2.20639e-22
-8.61083e-23
1.38434e-23
-7.67261e-23
1.49905e-21
4.57384e-22
9.64455e-23
-8.0676e-22
-1.68298e-21
-1.88896e-22
3.40295e-23
-2.88505e-22
1.1849e-22
-1.5274e-22
-4.40697e-22
-2.75243e-22
-5.60235e-23
9.67865e-23
3.48306e-24
4.12706e-26
5.55682e-22
7.03877e-23
-3.81305e-22
2.49148e-22
1.45641e-22
3.41629e-22
1.61735e-22
-3.07616e-23
-3.85948e-22
2.83838e-22
1.18397e-21
1.32867e-22
1.97626e-27
4.46782e-26
3.49635e-24
4.95178e-22
4.38786e-22
-8.35463e-23
2.134e-23
1.35802e-22
2.97091e-22
1.40866e-22
-3.96688e-22
-1.0349e-21
-1.81791e-24
-4.36673e-22
2.56426e-22
-1.50486e-22
4.90187e-23
-1.32368e-22
-3.47837e-22
-8.42458e-25
3.45654e-22
-3.82341e-22
-1.92495e-24
-4.48004e-24
1.44038e-23
4.07192e-23
4.47992e-24
-5.19638e-24
-1.40367e-22
1.31716e-22
4.26886e-23
6.77064e-22
-2.87214e-22
2.72313e-25
-8.11748e-22
-8.3253e-24
5.48101e-22
6.70883e-22
-6.07931e-25
1.44636e-22
3.29798e-22
6.39377e-22
-2.50686e-22
2.48865e-22
1.14185e-21
-3.42079e-23
-9.99083e-23
1.54546e-22
1.55699e-23
9.49066e-23
1.66985e-22
1.56042e-23
3.34938e-22
-3.09007e-22
2.4524e-22
-1.21527e-24
3.3744e-24
-2.17822e-23
3.9634e-23
3.07559e-22
-9.90402e-23
2.20982e-24
4.5968e-23
2.29868e-22
-1.23472e-21
7.39858e-22
-1.95799e-22
1.37931e-21
-2.22817e-22
2.47689e-22
1.75278e-22
2.47271e-22
-9.6426e-25
-8.95246e-22
6.60869e-24
1.2574e-21
1.22905e-22
9.88742e-22
6.32911e-22
1.08732e-22
-1.3059e-23
1.2186e-23
1.13256e-21
-1.42649e-24
-3.67882e-23
1.06424e-23
-1.3616e-23
-3.99837e-23
1.14955e-21
5.86853e-22
-1.10581e-21
-2.3083e-21
-1.72203e-21
-1.44408e-21
1.05845e-22
1.52009e-23
-5.88293e-23
2.27924e-21
4.24046e-21
4.10399e-22
8.87773e-23
2.60576e-22
-1.04025e-21
-2.92747e-22
8.99237e-22
1.09402e-21
1.00264e-23
-1.92111e-22
3.58326e-24
-6.03195e-22
-9.63249e-22
6.52406e-24
1.77264e-21
2.54878e-22
1.21017e-23
2.04158e-24
1.14907e-21
1.29646e-21
3.3135e-22
-4.37596e-23
-2.93349e-24
-6.26573e-22
9.37657e-23
5.44843e-22
1.87202e-22
1.7333e-22
-3.18495e-22
2.65521e-22
-1.48233e-21
-4.45995e-22
-1.19295e-22
-1.50558e-22
-1.98326e-24
4.12736e-22
4.71397e-22
-9.7044e-23
-5.93175e-23
-3.54825e-22
1.88651e-22
-7.52375e-22
-1.41792e-23
-4.68431e-22
-4.77701e-22
1.90847e-23
4.96994e-22
9.63207e-25
-5.74021e-22
-1.7306e-24
4.60164e-21
3.9199e-21
2.61163e-22
-4.76555e-25
2.72174e-22
-1.66614e-22
-4.36903e-22
1.60595e-22
1.72102e-22
-7.32612e-22
1.02647e-22
-6.82019e-23
1.5227e-22
-2.39515e-22
-7.52252e-23
-1.7262e-24
-8.31382e-22
3.57913e-24
3.42698e-24
3.48741e-22
4.89181e-24
2.29629e-22
1.06585e-21
4.9564e-22
-5.2274e-22
-1.46246e-21
-4.66859e-22
5.60337e-25
7.87528e-22
1.01702e-21
-6.73118e-22
1.51941e-23
6.96763e-22
-7.74132e-22
-2.50311e-22
1.2239e-21
6.16802e-24
-6.28877e-22
-1.16367e-21
2.3338e-21
5.75356e-22
-2.20205e-21
-2.76813e-22
1.45458e-23
-1.50895e-21
-2.4961e-21
4.00494e-24
-9.6928e-23
2.72235e-23
-7.01546e-23
-2.49532e-22
9.62092e-22
1.95927e-21
-4.52078e-23
-3.97367e-21
-8.94584e-22
1.82127e-22
4.32668e-22
-1.30256e-21
-1.57977e-21
6.11172e-22
2.54043e-21
1.22561e-21
3.61831e-22
-2.79326e-22
1.44774e-21
1.56321e-22
1.88637e-22
3.92493e-22
-6.41266e-22
4.73525e-22
1.73293e-21
1.99803e-21
1.91231e-21
-7.22952e-22
1.23218e-22
-4.80852e-22
2.73898e-22
4.07442e-24
-2.2697e-22
9.44426e-23
6.12216e-22
6.32058e-25
-1.02867e-22
-5.189e-22
-6.7347e-22
1.22725e-20
1.85988e-19
3.9247e-18
7.65755e-17
1.48522e-15
2.75053e-14
4.85347e-13
8.15531e-12
1.3023e-10
1.97224e-09
2.82566e-08
3.81979e-07
4.85804e-06
5.79421e-05
0.000645799
0.00669964
0.0644047
0.570813
4.63717
34.2977
229.142
1370.09
7252.52
33564.5
133912
453695
1.28561e+06
3.00237e+06
5.7274e+06
9.07965e+06
1.2519e+07
1.57108e+07
1.84546e+07
2.06234e+07
2.21578e+07
2.30428e+07
2.32939e+07
2.29481e+07
2.20615e+07
2.06983e+07
1.89385e+07
1.68627e+07
1.45546e+07
1.21068e+07
9.60157e+06
7.10955e+06
4.7114e+06
2.48559e+06
479760
-1.23747e+06
-2.46564e+06
-2.8798e+06
-2.14124e+06
-254841
2.55492e+06
6.50233e+06
1.01637e+07
1.26441e+07
1.47536e+07
1.9325e+07
2.96675e+07
4.04571e+07
4.08299e+07
2.68275e+07
9.93806e+06
5.23377e+06
3.07212e+06
-1.84955e+07
-1.51103e+07
4.72012e+07
1.56746e+07
-1.07925e+08
1.53007e+08
4.21117e+08
1.11906e+08
6.26314e+06
192305
5388.58
143.747
3.85283
0.103106
0.00274838
7.29345e-05
1.92653e-06
5.06457e-08
1.32488e-09
3.44835e-11
8.92802e-13
2.29888e-14
5.8867e-16
1.49927e-17
3.84917e-19
9.36308e-21
2.00222e-22
8.84472e-25
1.8331e-59
1.87206e-97
4.67723e-97
3.20681e-92
4.81864e-88
1.34901e-57
2.75186e-53
6.91332e-27
-2.75283e-23
1.4838e-23
-7.87403e-23
1.83063e-22
9.56208e-23
2.04044e-22
9.60032e-25
-5.50176e-23
7.38123e-23
-2.07866e-23
2.11951e-22
3.69122e-23
6.25063e-25
-8.25119e-24
-6.05814e-26
8.33605e-23
-3.06315e-25
-4.59448e-25
-2.14774e-22
-1.71864e-22
6.5215e-25
6.03429e-23
3.38205e-23
1.04338e-22
3.87556e-24
1.98919e-23
-9.40907e-24
-2.60523e-27
-1.32222e-24
7.66803e-23
2.31685e-25
-4.45661e-23
-5.10988e-23
7.25055e-23
-8.61498e-24
-5.68312e-23
-4.47579e-23
-8.40697e-23
2.53976e-23
-1.06811e-22
9.52397e-23
-1.22106e-24
-1.14912e-23
-7.79103e-24
-1.69353e-23
5.26021e-25
-9.12308e-24
2.77683e-25
5.51692e-23
1.90383e-22
1.40705e-23
-1.63692e-23
7.58604e-25
-2.04422e-23
9.21441e-24
-8.93465e-23
4.42371e-25
-2.1755e-26
-1.38469e-26
1.42252e-54
7.12761e-55
-9.65308e-36
-9.7893e-36
-2.05731e-34
-2.0594e-34
1.5187e-53
1.28041e-56
5.81278e-54
4.42271e-25
-1.37514e-25
-3.31979e-23
-1.45593e-23
-4.91438e-23
2.1933e-23
-1.35436e-24
7.95065e-56
-1.79106e-23
3.25129e-23
1.0172e-22
-1.27156e-23
-6.45735e-23
-1.74316e-23
3.34273e-25
4.56475e-25
-3.94533e-23
3.02011e-23
-2.14155e-24
-3.93059e-23
-7.82354e-24
-3.24814e-23
-2.18819e-23
1.90238e-23
9.96946e-23
-1.41561e-23
1.14893e-25
-1.41072e-22
-1.31976e-22
-3.86098e-24
4.20124e-24
-2.7861e-23
-5.52795e-26
6.23553e-23
3.31676e-23
3.31676e-23
-2.15922e-28
-6.4782e-28
5.91862e-23
-3.66501e-23
-3.37512e-23
-2.62397e-23
8.73973e-24
-7.66698e-23
1.4481e-23
8.70744e-26
3.30161e-23
-2.27993e-26
-1.08653e-27
-1.1605e-25
-1.56664e-23
-1.21473e-23
2.43783e-23
4.55505e-23
-3.85162e-23
3.40923e-25
2.58014e-23
-1.01466e-23
-4.52918e-23
6.04303e-23
-1.63784e-22
1.17359e-22
5.12864e-23
-9.50808e-23
-1.43649e-23
-2.41157e-23
2.80095e-23
4.49509e-23
2.01943e-24
-4.16289e-23
8.29206e-26
-4.60272e-23
4.30643e-23
5.29953e-27
4.10019e-25
-3.33859e-23
-1.043e-26
2.38954e-30
2.07068e-33
1.68257e-30
8.28383e-26
5.38762e-23
6.35942e-23
-1.42252e-23
7.17127e-23
5.44682e-23
5.14359e-25
1.71543e-22
-3.10947e-26
-9.12112e-25
6.04896e-23
-2.07298e-26
4.0757e-23
9.42166e-23
9.40644e-25
-5.96673e-23
4.1128e-23
7.76031e-24
-9.52231e-31
4.97823e-25
7.82758e-23
4.1244e-25
4.35533e-23
1.2114e-25
2.49057e-23
1.79525e-25
-3.36668e-23
9.54178e-25
3.50139e-23
1.02077e-25
-2.87739e-23
-1.65839e-25
2.06469e-23
2.65342e-23
1.06137e-23
-5.75486e-23
2.81501e-22
1.85976e-24
-1.33843e-22
4.44105e-23
4.44024e-23
-2.86662e-23
4.41153e-25
-8.83683e-25
1.90211e-22
7.49673e-23
3.95179e-26
-9.11971e-25
-5.97166e-23
-2.36569e-22
-1.03591e-23
-1.7358e-23
-6.27999e-23
-5.81164e-23
7.284e-23
-6.29342e-23
4.04427e-25
6.1915e-23
-5.87521e-23
-2.9488e-23
4.60208e-23
-3.86409e-24
-3.36684e-22
-3.48982e-23
3.7057e-23
1.98873e-23
1.76452e-22
-3.89975e-25
7.93717e-25
7.13759e-24
-3.76493e-23
-5.33139e-23
-1.79796e-23
8.74689e-24
7.32124e-23
3.43251e-23
9.0365e-23
-4.01141e-23
7.38871e-25
4.14217e-23
6.60136e-23
1.25692e-23
4.92327e-23
-1.24234e-22
-1.50848e-22
9.68255e-25
-7.25926e-26
1.2842e-22
4.61945e-23
-2.677e-25
-2.12384e-22
-3.39712e-22
1.46229e-22
1.80692e-22
1.5044e-22
-2.4805e-23
1.96191e-25
5.74993e-23
5.73951e-23
-1.0814e-24
-5.94248e-25
1.57068e-22
-7.96163e-23
8.80102e-23
5.62459e-24
1.12051e-22
-5.08614e-23
-1.82441e-22
5.37611e-25
7.30208e-23
3.19386e-23
-1.18627e-22
4.08625e-26
1.3145e-23
4.58156e-25
-3.96004e-24
-1.25795e-23
-1.22338e-23
3.62164e-23
-2.42605e-23
-5.11523e-23
1.5019e-23
1.45861e-23
6.50088e-23
-4.13767e-23
-6.91128e-24
-4.04553e-25
-7.1689e-23
3.50296e-23
-1.09177e-24
-1.86604e-34
1.06037e-31
1.26823e-32
4.42196e-25
-4.38575e-29
3.42733e-23
-8.44637e-25
-2.49161e-23
-1.02714e-23
9.03133e-23
-2.7759e-23
3.04041e-23
1.62297e-25
4.64284e-23
-2.51312e-23
-4.96087e-27
-3.24718e-27
1.45861e-23
7.08131e-23
-6.08351e-23
-6.91128e-24
-4.04553e-25
-7.1689e-23
3.50296e-23
-1.09177e-24
-1.86604e-34
1.06037e-31
1.26823e-32
4.42196e-25
-4.38575e-29
3.42733e-23
-8.44637e-25
-2.49161e-23
-1.02714e-23
9.03133e-23
-2.7759e-23
3.04041e-23
1.62297e-25
4.64284e-23
-2.51312e-23
-4.96087e-27
-3.24718e-27
1.45861e-23
7.08131e-23
-6.08351e-23
-6.91128e-24
-4.04553e-25
-7.1689e-23
3.50296e-23
-1.09177e-24
-1.86604e-34
1.06037e-31
1.26823e-32
3.09561e-24
-4.38575e-29
-3.13712e-24
1.16574e-22
5.70803e-23
2.75904e-23
2.64787e-22
8.14568e-26
-1.95693e-22
-1.28178e-22
6.34748e-25
-1.4247e-24
-6.76265e-24
-1.08844e-22
3.79093e-23
-6.41208e-23
-9.74172e-24
7.55386e-25
-2.81583e-23
-3.97079e-23
6.89931e-26
-3.34009e-23
-4.33695e-23
-1.54224e-24
-6.98416e-23
-8.1962e-23
-4.25671e-23
8.9087e-26
2.84405e-25
5.11971e-23
5.92668e-25
3.15622e-26
3.31805e-22
3.06643e-22
2.4229e-22
9.90631e-23
-1.34783e-22
1.74303e-22
1.84877e-22
3.69016e-22
1.71068e-22
-4.19403e-22
-1.76154e-22
-8.87894e-23
2.09149e-23
-8.14747e-23
1.97963e-23
-1.12065e-23
-4.48828e-23
2.12586e-22
1.08606e-22
-1.24215e-23
5.49261e-23
4.93709e-23
3.47397e-23
-7.48393e-26
-1.12441e-22
1.17739e-25
4.95629e-23
1.68991e-22
1.20683e-22
2.17578e-24
-1.44586e-22
6.74987e-23
7.93129e-23
9.75123e-23
1.60441e-22
-5.71819e-23
-3.04003e-22
-8.3105e-23
9.56175e-23
1.05651e-23
4.35079e-23
7.1434e-23
2.34564e-22
7.14062e-23
8.9657e-25
5.85486e-23
5.1506e-23
4.26689e-23
2.5561e-23
-5.67196e-23
1.17739e-25
4.95629e-23
1.68991e-22
1.20683e-22
2.95944e-23
-9.85939e-23
-1.9069e-23
3.76164e-22
3.28332e-22
9.86906e-23
-2.10207e-22
-3.85431e-22
-6.25907e-23
3.52427e-23
4.71149e-23
8.64089e-24
4.80621e-23
-5.36402e-25
-1.23194e-22
3.69737e-25
2.78361e-22
1.63313e-22
9.07231e-23
-1.54652e-22
-6.72476e-23
-2.91424e-25
1.52788e-24
3.36004e-22
1.45231e-22
-1.3834e-22
-4.08276e-23
)
;

boundaryField
{
    sides
    {
        type            calculated;
        value           nonuniform List<scalar> 2(-4.08276e-23 1.25091e-21);
    }
    empty
    {
        type            empty;
    }
}


// ************************************************************************* //
