/*--------------------------------*- C++ -*----------------------------------*\
  =========                 |
  \\      /  F ield         | OpenFOAM: The Open Source CFD Toolbox
   \\    /   O peration     | Website:  https://openfoam.org
    \\  /    A nd           | Version:  13
     \\/     M anipulation  |
\*---------------------------------------------------------------------------*/
FoamFile
{
    format      ascii;
    class       volScalarField;
    location    "0.0005";
    object      CrankNicolson:ddt0(p);
}
// * * * * * * * * * * * * * * * * * * * * * * * * * * * * * * * * * * * * * //

dimensions      [1 -1 -3 0 0 0 0];

internalField   nonuniform List<scalar> 
1000
(
1.09113e-06
-2.3356e-06
8.1428e-07
-6.88719e-07
2.66506e-09
-2.866e-07
-2.65845e-06
4.11232e-06
2.01492e-06
-4.28511e-06
-7.4607e-09
4.97629e-06
-2.5723e-06
-1.91719e-07
-4.51049e-06
-2.29847e-08
3.69507e-06
-3.27418e-06
3.73425e-06
-3.27914e-06
1.48128e-08
1.60158e-08
1.02052e-07
2.14639e-06
1.40526e-06
-5.32907e-09
-6.86118e-07
3.50653e-07
7.63976e-06
-3.64974e-07
-1.97831e-06
8.18942e-07
4.36295e-06
-4.97424e-06
6.92246e-07
-3.27391e-06
1.42326e-06
-4.64921e-07
4.41374e-07
-1.07004e-06
9.63864e-08
-5.65931e-08
-3.81165e-16
4.68922e-06
-1.09635e-06
-2.16797e-06
1.60158e-08
1.02052e-07
2.14639e-06
1.40526e-06
-5.32907e-09
-6.86118e-07
3.50653e-07
7.63976e-06
-3.64974e-07
-1.97831e-06
8.18942e-07
4.36295e-06
-4.97424e-06
6.92246e-07
-3.27391e-06
1.42326e-06
-4.64921e-07
4.41374e-07
-1.07004e-06
9.63864e-08
-5.65931e-08
-3.81165e-16
4.68922e-06
1.08644e-06
-5.30884e-07
1.60158e-08
2.83054e-06
2.55566e-06
6.20822e-07
2.79723e-06
4.09139e-07
-2.11458e-06
-1.0734e-06
5.04412e-08
6.48468e-06
-2.44237e-06
1.60297e-06
-1.40199e-07
-9.0105e-09
5.45697e-07
8.42414e-08
-1.44959e-06
2.58572e-06
2.07245e-06
1.70176e-08
-5.03066e-07
1.13083e-06
-4.63444e-06
1.11492e-07
1.28032e-06
3.10586e-07
1.96125e-06
-2.56275e-06
3.59051e-07
1.01677e-06
4.13077e-06
2.18706e-06
4.63695e-06
-2.73448e-07
-1.37703e-06
1.12724e-09
-1.59132e-06
-7.70853e-06
1.42689e-06
-1.08986e-06
-2.75533e-07
7.91434e-07
5.04451e-06
6.54919e-06
4.36467e-06
-5.09548e-09
-7.34005e-08
2.10342e-06
5.47034e-06
3.255e-06
-1.94298e-06
1.70364e-08
-1.02918e-08
3.88704e-06
9.32255e-07
9.69887e-08
2.22113e-06
3.00266e-06
-1.65651e-06
-2.60059e-06
-5.45702e-07
-5.45754e-07
3.18476e-06
4.81115e-07
2.06171e-07
-3.07508e-07
2.2921e-06
1.33236e-07
8.32602e-10
-9.07912e-10
-5.09548e-09
-7.34005e-08
2.10342e-06
5.47034e-06
3.255e-06
-1.94298e-06
1.70364e-08
-1.02918e-08
3.88704e-06
9.32255e-07
9.69887e-08
2.22113e-06
3.00266e-06
-1.65651e-06
-2.60059e-06
-5.45702e-07
-5.45754e-07
3.18476e-06
4.81115e-07
2.06171e-07
-3.07508e-07
2.2921e-06
1.33236e-07
8.32602e-10
-9.07912e-10
-5.09548e-09
-7.34005e-08
-7.93642e-08
1.33726e-08
-2.20197e-06
-1.6275e-06
-9.38083e-08
-4.30456e-07
3.36748e-06
1.40044e-06
-2.8324e-07
5.8282e-06
-1.7522e-06
-4.89417e-06
-1.19058e-06
4.36978e-06
4.08709e-06
1.62647e-06
2.72849e-07
5.44853e-06
-3.68407e-06
3.35676e-08
3.61827e-06
-1.04118e-06
1.04931e-05
6.57589e-07
-5.79024e-07
3.04032e-07
-3.00595e-07
1.19368e-06
-7.49534e-07
3.05481e-07
1.39853e-06
4.95712e-06
-1.91421e-06
-5.4145e-07
3.60152e-06
6.29097e-07
-1.61433e-07
4.22009e-08
-4.35745e-06
1.82457e-06
4.12251e-06
-3.86696e-06
-7.93765e-07
9.50565e-06
4.95174e-07
-1.11678e-06
-2.77577e-09
-2.2326e-06
2.69876e-06
-5.75645e-06
2.60528e-08
2.7291e-09
1.74479e-09
-3.64386e-08
-2.18279e-06
-2.14868e-06
2.30969e-06
2.72823e-07
1.40691e-07
3.27632e-06
3.98381e-07
-3.17998e-06
1.26126e-06
6.83774e-06
7.87705e-07
1.14475e-06
-2.76419e-06
-1.63892e-06
-2.60426e-07
2.52598e-06
8.87831e-07
3.20997e-06
2.96779e-06
-2.66414e-07
-2.42122e-06
3.4115e-07
6.01086e-11
-3.0589e-07
2.50279e-06
-2.86925e-06
2.70275e-06
7.43064e-09
-3.39162e-07
-7.6617e-08
7.80458e-07
-1.63466e-06
4.43372e-06
8.18579e-07
-1.12473e-06
-4.23618e-07
-5.4573e-07
-1.82201e-06
-2.36061e-06
-7.28697e-06
1.63723e-06
1.09139e-06
6.07211e-06
2.74525e-08
1.9211e-06
-4.77547e-07
-5.1844e-06
-2.17373e-06
-5.11591e-07
-1.92075e-06
1.36426e-07
5.89364e-07
-7.34131e-07
4.55901e-07
-2.76188e-07
8.19077e-07
4.36541e-06
-1.23222e-06
-8.79299e-09
-6.44151e-08
-3.68715e-09
2.183e-06
3.27418e-06
1.90967e-06
4.97392e-09
3.62911e-08
-6.33112e-06
-2.45363e-06
6.18105e-07
4.64697e-07
5.61568e-07
2.96662e-07
-1.79234e-06
1.76573e-06
-3.11176e-07
-3.25823e-07
7.16414e-07
1.85226e-06
-1.87115e-08
-1.30832e-06
5.06962e-06
-2.34958e-06
7.12887e-07
2.9695e-06
1.43618e-06
-2.46377e-06
-2.75892e-06
-5.53344e-06
8.41997e-08
-1.09473e-09
1.38969e-06
8.7124e-06
-6.19637e-07
-1.30246e-07
1.81081e-06
-2.21685e-06
4.81947e-06
-1.52567e-06
-1.10518e-06
4.3681e-06
2.6771e-06
6.33365e-06
1.44632e-06
-6.86171e-06
-6.45823e-06
-1.11027e-06
-2.16979e-06
-2.38624e-07
-2.78537e-07
1.6624e-06
4.86944e-07
-6.6617e-08
6.65497e-06
5.52386e-07
-1.70064e-07
-4.46958e-07
-6.84068e-08
-4.79482e-06
1.13443e-06
-1.09992e-06
-7.88547e-07
-8.24937e-07
1.12976e-07
-8.93719e-07
-2.44668e-06
-4.29416e-06
1.63749e-06
-2.54667e-06
5.41398e-07
-2.27834e-07
-7.61474e-08
4.05862e-06
1.36791e-07
2.18813e-06
-2.24873e-06
1.08387e-06
5.4546e-06
6.22961e-06
-1.09727e-06
-8.4138e-09
-6.03789e-08
4.82186e-06
-1.99839e-06
9.42896e-07
2.31251e-06
1.47816e-06
8.81789e-07
-2.50804e-08
-1.22714e-06
-1.61966e-07
1.93243e-06
-3.23982e-07
5.0477e-06
4.9134e-06
7.60979e-07
-1.02612e-14
4.68148e-06
-1.67333e-07
4.61377e-06
3.66396e-07
-3.27448e-06
-3.2742e-06
2.16494e-10
2.15268e-06
5.05871e-09
-2.87294e-06
5.29656e-06
4.26627e-07
6.68691e-08
-1.68011e-06
-2.1039e-06
3.23556e-06
4.996e-08
-2.48959e-06
-7.24697e-06
-1.58835e-06
-4.68958e-08
5.93469e-06
2.89889e-07
-2.52385e-06
1.24042e-06
4.43481e-06
2.94259e-06
4.40872e-06
-1.482e-06
-2.51315e-06
-1.3464e-06
-5.77892e-06
-2.76683e-06
-6.67404e-06
2.45661e-06
4.02971e-06
1.23231e-06
-1.36211e-06
-3.06962e-07
2.32014e-06
-2.40445e-06
2.96719e-06
-3.27318e-06
1.7964e-06
-1.14466e-05
-5.15216e-06
-4.9368e-06
2.80837e-07
4.47459e-06
-3.47637e-06
7.82975e-07
3.24597e-08
-7.31652e-07
2.53164e-06
-1.29074e-07
5.322e-06
2.76861e-08
-2.03987e-07
-1.10404e-06
2.12835e-06
6.76158e-06
-3.55186e-06
-8.93335e-07
-1.16069e-06
2.20856e-06
-1.09203e-08
2.40235e-06
-1.56748e-06
-1.91454e-06
-1.55609e-07
1.29971e-07
-4.46974e-08
-9.0594e-07
9.67693e-07
-2.73812e-06
-1.37123e-05
-4.33736e-05
-0.000180916
-0.000806394
-0.00353057
-0.0150456
-0.0626258
-0.254201
-1.0054
-3.87018
-14.481
-52.5935
-185.126
-630.472
-2073.5
-6571.38
-20020.5
-58473.1
-163195
-433600
-1.09186e+06
-2.59194e+06
-5.7637e+06
-1.19162e+07
-2.27078e+07
-3.95038e+07
-6.20966e+07
-8.72401e+07
-1.08171e+08
-1.18954e+08
-1.21329e+08
-1.19028e+08
-1.13835e+08
-1.0684e+08
-9.88007e+07
-9.01993e+07
-8.13688e+07
-7.25368e+07
-6.38623e+07
-5.54582e+07
-4.741e+07
-3.97807e+07
-3.26176e+07
-2.59593e+07
-1.98382e+07
-1.42784e+07
-9.31471e+06
-5.00358e+06
-1.42636e+06
1.28512e+06
2.90883e+06
3.11999e+06
1.60017e+06
-1.67947e+06
-6.1399e+06
-1.03451e+07
-1.19479e+07
-6.69962e+06
3.72046e+06
1.09306e+07
1.05193e+07
2.69905e+06
-5.06409e+06
-8.04764e+06
-3.43467e+06
1.04497e+07
1.3543e+07
-2.01719e+07
-2.33109e+07
6.15397e+07
2.68897e+07
-1.68591e+08
1.34274e+08
6.4588e+08
3.5093e+08
7.94658e+07
1.38728e+07
2.24962e+06
368177
60367.2
9883.87
1614.96
263.292
42.8267
6.94962
1.125
0.18166
0.0292581
0.0046994
0.000752691
0.000120791
1.88436e-05
3.17186e-06
5.45697e-07
0
0
0
0
0
0
0
0
0
-4.26534e-09
-6.98108e-08
-1.1911e-07
-4.46053e-07
1.92009e-08
5.46511e-07
5.7607e-07
-1.75172e-09
2.04766e-07
4.14797e-07
8.50166e-09
4.15447e-07
9.99164e-10
2.44072e-07
3.01626e-07
-1.44951e-07
-2.71658e-07
6.26333e-07
2.28682e-07
-4.55324e-08
4.93953e-07
2.86806e-07
1.25071e-07
-4.02878e-07
0
3.40694e-07
1.39888e-09
-7.82294e-09
-4.01824e-12
-5.66777e-07
3.46162e-07
-7.76415e-07
1.28564e-08
3.43209e-08
-7.48818e-08
-1.23856e-07
3.53434e-08
1.8844e-07
6.26699e-07
7.14095e-07
-2.69629e-07
-2.64309e-07
-2.48883e-11
2.0926e-09
-2.2915e-07
-2.71916e-07
-1.36424e-07
4.00751e-07
1.35883e-07
-2.72965e-07
-1.7053e-07
-3.73419e-08
1.99575e-08
1.10845e-07
-4.49774e-07
-3.41059e-07
-3.23063e-09
4.98299e-11
8.52318e-08
0
0
0
5.83162e-18
-6.46235e-22
-2.54111e-16
1.27055e-16
0
0
0
2.38699e-07
-1.70341e-07
4.06009e-07
9.04624e-09
-1.61995e-07
4.16334e-12
0
0
1.36424e-07
4.10445e-07
-2.72965e-07
4.8711e-08
-5.86732e-09
-2.0484e-07
3.15427e-12
3.36801e-07
-2.12783e-07
2.42237e-07
3.31235e-08
-1.50267e-07
3.47555e-07
9.16434e-08
8.55207e-09
7.26044e-08
2.58597e-07
2.73925e-07
3.62768e-07
-3.41394e-08
1.18372e-07
-1.53544e-08
-3.41061e-08
-3.25261e-14
0
0
6.66134e-11
0
3.99676e-10
-3.97027e-17
2.7498e-07
-6.84117e-07
-1.00853e-07
3.15298e-07
-1.56571e-08
-5.88862e-08
-4.59132e-07
8.45999e-09
-3.33067e-11
1.74405e-10
3.29299e-08
-1.05641e-07
4.02411e-09
-3.41061e-08
8.32684e-12
4.77056e-11
2.15977e-09
-1.01912e-07
3.55164e-07
2.85676e-07
6.1977e-08
3.51177e-08
1.9611e-07
-4.06576e-15
-5.32907e-10
1.50067e-06
-4.27991e-09
-1.49214e-07
3.43192e-07
-3.09086e-07
-1.19373e-07
4.33498e-13
-9.7599e-14
3.83652e-07
2.55307e-07
-6.87447e-08
3.41055e-08
-3.82712e-11
-3.69071e-17
2.08097e-12
3.2136e-17
-1.52465e-15
2.72932e-07
2.00048e-09
2.3472e-07
5.80123e-07
-1.33227e-10
-6.82121e-08
5.59552e-09
1.19371e-07
3.75167e-07
1.9387e-21
7.3328e-07
1.27898e-08
8.32667e-11
5.45696e-07
-7.84439e-07
1.49214e-07
8.32566e-12
5.38632e-10
-6.60049e-14
-3.06821e-07
-1.38816e-10
-5.25541e-08
-4.69065e-08
5.1369e-09
4.51898e-07
1.10229e-07
-1.3704e-07
3.42201e-07
-1.35425e-07
-3.40436e-08
2.55795e-07
3.6664e-07
-8.32209e-15
0
1.95876e-21
1.26404e-06
-1.01352e-07
1.82984e-07
-3.83866e-07
-8.87623e-08
1.29772e-09
4.0936e-07
-8.14371e-11
5.05088e-08
2.72568e-07
-2.72874e-07
-6.23292e-09
-2.05148e-09
1.71816e-08
4.7376e-07
2.79243e-07
2.9976e-08
4.62563e-07
-3.35734e-07
-1.84864e-07
8.68445e-08
2.7978e-07
2.46867e-10
3.72539e-08
-9.28641e-08
9.22739e-07
-4.16248e-07
-5.27737e-07
-2.65827e-09
3.67941e-09
2.05765e-07
-1.18905e-07
2.32512e-07
8.3154e-08
-5.78296e-09
6.51176e-07
-4.51108e-08
4.25928e-08
9.38793e-08
-4.10621e-07
-1.79107e-07
-3.29557e-07
5.28711e-07
2.4068e-11
-9.19265e-08
2.30216e-07
1.70563e-07
-4.00841e-10
2.89228e-07
9.96333e-08
2.44068e-07
8.98897e-08
3.03753e-08
3.90711e-09
-1.8901e-08
-2.61325e-07
1.66889e-07
4.30134e-08
6.58876e-08
-2.27067e-08
-1.06619e-07
-2.08041e-08
1.7227e-07
1.38556e-07
4.27476e-09
3.06983e-07
-1.05708e-09
-3.19683e-08
-2.77109e-07
-1.19355e-07
3.39462e-08
-2.15661e-08
2.38742e-07
2.55812e-07
-5.32907e-10
5.58487e-07
3.4426e-07
2.72899e-07
3.50745e-10
8.52651e-09
-2.13165e-08
-2.94198e-07
7.55735e-08
3.42054e-07
1.74392e-07
-1.06581e-09
5.75626e-07
-6.66157e-11
1.7053e-08
-4.78014e-07
4.29007e-07
-1.62731e-09
1.36158e-07
2.72848e-07
-2.58494e-21
-8.89384e-15
-1.32347e-13
-2.52249e-16
-5.45688e-07
1.36387e-07
0
-7.83411e-08
2.72738e-07
3.64375e-07
2.55795e-08
-4.94238e-07
-3.04087e-08
1.05416e-07
-7.5331e-09
-2.09301e-07
-6.92779e-08
-4.17698e-09
-6.66157e-11
-2.55795e-07
-4.78014e-07
4.29007e-07
-1.62731e-09
1.36158e-07
2.72848e-07
-2.58494e-21
-8.89384e-15
-1.32347e-13
-2.52249e-16
-5.45688e-07
1.36387e-07
0
-7.83411e-08
2.72738e-07
3.64375e-07
2.55795e-08
-4.94238e-07
-3.04087e-08
1.05416e-07
-7.5331e-09
-2.09301e-07
-6.92779e-08
-4.17698e-09
-6.66157e-11
-2.55795e-07
-4.78014e-07
4.29007e-07
-1.62731e-09
1.36158e-07
2.72848e-07
-2.58494e-21
-8.89384e-15
-1.32347e-13
-2.52249e-16
8.33608e-12
-3.74781e-11
-1.10578e-08
1.33893e-08
3.94752e-07
6.04188e-07
3.61892e-08
1.95139e-07
-7.28465e-09
-6.14649e-07
2.63587e-07
9.26157e-08
3.19862e-07
1.97122e-08
-2.09034e-07
7.5059e-07
-3.08104e-07
1.95508e-07
2.69723e-07
2.28771e-07
1.53493e-07
2.45393e-07
1.56014e-07
1.88599e-08
-9.8753e-12
-1.9225e-07
-6.6654e-08
-7.44185e-11
2.72006e-07
-2.07913e-07
1.68153e-07
1.72109e-07
4.43379e-07
-3.58113e-07
-2.66474e-07
-7.47313e-10
6.75127e-07
-4.94541e-07
4.92152e-07
-2.6883e-07
-4.87959e-07
-4.9554e-07
-6.28672e-08
3.76308e-08
2.62618e-07
-3.15303e-07
1.668e-07
1.09552e-06
-2.07669e-07
3.65547e-09
1.33936e-08
-1.5334e-07
3.29893e-07
4.18145e-07
-3.93635e-08
1.14156e-08
5.22782e-09
-2.34982e-07
-5.52653e-08
5.68493e-07
-1.22266e-08
8.61243e-07
-1.83153e-07
1.15157e-07
1.56672e-07
-8.41232e-08
-2.60221e-07
4.21836e-07
-2.8681e-07
-1.43907e-07
5.04775e-07
7.3328e-07
4.82814e-07
-7.17773e-08
-4.82889e-07
2.44675e-07
8.66404e-09
4.72712e-07
7.4002e-07
2.33485e-07
1.14156e-08
5.22782e-09
-2.34982e-07
-5.52653e-08
5.68493e-07
-1.22266e-08
3.15546e-07
4.64862e-07
5.92641e-07
2.24884e-07
-1.35282e-07
6.23245e-09
-6.42416e-08
-2.08972e-07
3.8131e-08
1.83251e-07
-1.32843e-08
3.74163e-07
-6.3771e-08
2.1183e-08
-3.47457e-07
1.13369e-07
-5.05386e-07
5.79713e-07
1.36728e-07
2.36539e-07
-6.17413e-07
3.13778e-07
5.74954e-07
-2.23634e-08
-1.16802e-09
1.17372e-07
)
;

boundaryField
{
    sides
    {
        type            calculated;
        value           nonuniform List<scalar> 2(1.17372e-07 1.09113e-06);
    }
    empty
    {
        type            empty;
    }
}


// ************************************************************************* //
