/*--------------------------------*- C++ -*----------------------------------*\
  =========                 |
  \\      /  F ield         | OpenFOAM: The Open Source CFD Toolbox
   \\    /   O peration     | Website:  https://openfoam.org
    \\  /    A nd           | Version:  13
     \\/     M anipulation  |
\*---------------------------------------------------------------------------*/
FoamFile
{
    format      ascii;
    class       volScalarField;
    location    "0.0005";
    object      mag(U);
}
// * * * * * * * * * * * * * * * * * * * * * * * * * * * * * * * * * * * * * //

dimensions      [0 1 -1 0 0 0 0];

internalField   nonuniform List<scalar> 
1000
(
4.57069e-13
2.86883e-13
1.16698e-13
7.77989e-14
6.8074e-14
1.94497e-14
1.94497e-14
1.9936e-13
1.11836e-13
2.43122e-14
6.32116e-14
2.18809e-13
2.47984e-13
1.75048e-13
3.4037e-14
3.88995e-14
3.88995e-14
1.94497e-13
7.77989e-14
2.85568e-28
2.91746e-14
1.11836e-13
1.45873e-13
2.09085e-13
2.91746e-13
4.37619e-14
1.6046e-13
1.41011e-13
2.43122e-14
7.29365e-14
1.02111e-13
1.36148e-13
1.55598e-13
4.86243e-14
1.41011e-13
1.70185e-13
1.65323e-13
8.75238e-14
5.34868e-14
4.86243e-15
2.28534e-13
2.43122e-14
3.4037e-14
7.77989e-14
5.83492e-14
1.45873e-14
1.11836e-13
1.45873e-13
2.09085e-13
2.91746e-13
4.37619e-14
1.6046e-13
1.41011e-13
2.43122e-14
7.29365e-14
1.02111e-13
1.36148e-13
1.55598e-13
4.86243e-14
1.41011e-13
1.70185e-13
1.65323e-13
8.75238e-14
5.34868e-14
4.86243e-15
2.28534e-13
2.43122e-14
4.37619e-14
4.86243e-14
1.36148e-13
3.4037e-14
1.70185e-13
2.38259e-13
8.75238e-14
9.23862e-14
1.55598e-13
2.52846e-13
1.6046e-13
3.88995e-14
7.29365e-14
1.50735e-13
9.72486e-15
2.13947e-13
8.75238e-14
8.26613e-14
2.77159e-13
1.6046e-13
2.91746e-14
8.75238e-14
2.62571e-13
1.94497e-14
1.7991e-13
7.29365e-14
3.30645e-13
7.77989e-14
1.02111e-13
2.91746e-14
5.34868e-14
6.8074e-14
1.45873e-14
6.32116e-14
2.43122e-14
1.41011e-13
1.70185e-13
1.55598e-13
1.31286e-13
4.86243e-15
1.65323e-13
7.29365e-14
2.91746e-14
5.83492e-14
1.55598e-13
1.45873e-14
1.9936e-13
1.11836e-13
2.43122e-13
2.91746e-14
7.29365e-14
2.43122e-14
2.18809e-13
3.01471e-13
8.75238e-14
8.75238e-14
1.94497e-14
3.88995e-14
3.88995e-14
2.43122e-14
6.8074e-14
9.23862e-14
2.38259e-13
9.23862e-14
9.23862e-14
4.86243e-15
9.72486e-15
6.32116e-14
1.89635e-13
1.16698e-13
9.23862e-14
3.35508e-13
9.72486e-15
1.9936e-13
6.8074e-14
7.29365e-14
2.43122e-14
2.18809e-13
3.01471e-13
8.75238e-14
8.75238e-14
1.94497e-14
3.88995e-14
3.88995e-14
2.43122e-14
6.8074e-14
9.23862e-14
2.38259e-13
9.23862e-14
9.23862e-14
4.86243e-15
9.72486e-15
6.32116e-14
1.89635e-13
1.16698e-13
9.23862e-14
3.35508e-13
9.72486e-15
1.9936e-13
6.8074e-14
9.72486e-14
5.83492e-14
1.26423e-13
1.94497e-14
1.41011e-13
6.32116e-14
9.72486e-15
1.45873e-14
9.23862e-14
2.18809e-13
2.04222e-13
1.26423e-13
2.67434e-13
9.23862e-14
5.34868e-14
8.75238e-14
5.83492e-14
1.02111e-13
1.55598e-13
2.91746e-14
5.34868e-14
1.94497e-14
5.83492e-14
6.32116e-14
3.11196e-13
1.70185e-13
8.26613e-14
1.31286e-13
2.23672e-13
9.72486e-14
4.86243e-14
1.7991e-13
7.77989e-14
9.23862e-14
2.62571e-13
9.72486e-15
3.88995e-14
7.29365e-14
1.94497e-14
5.34868e-14
1.94497e-13
5.83492e-14
2.43122e-13
6.32116e-14
8.75238e-14
2.09085e-13
1.36148e-13
3.88995e-14
4.37619e-14
1.26423e-13
2.43122e-13
7.77989e-14
9.72486e-15
4.86243e-15
8.75238e-14
1.84772e-13
1.65323e-13
9.72486e-15
4.37619e-14
1.06974e-13
1.11836e-13
8.75238e-14
3.4037e-14
6.32116e-14
3.88995e-14
3.4037e-14
2.13947e-13
2.43122e-14
7.29365e-14
8.75238e-14
2.23672e-13
3.88995e-14
1.50735e-13
2.18809e-13
7.29365e-14
2.23672e-13
3.4037e-14
6.32116e-14
2.43122e-14
8.75238e-14
9.23862e-14
1.11836e-13
6.32116e-14
2.57709e-13
1.7991e-13
1.06974e-13
2.38259e-13
9.72486e-15
1.55598e-13
1.7991e-13
1.26423e-13
1.06974e-13
2.38259e-13
2.38259e-13
9.72486e-15
1.75048e-13
2.86883e-13
4.86243e-15
4.86243e-15
1.11836e-13
2.28534e-13
8.26613e-14
1.31286e-13
7.29365e-14
1.6046e-13
5.83492e-14
1.84772e-13
4.86243e-15
1.45873e-14
3.69545e-13
1.94497e-14
1.45873e-13
3.88995e-14
9.72486e-15
4.86243e-14
1.16698e-13
7.77989e-14
2.23672e-13
1.16698e-13
3.35508e-13
1.45873e-13
1.11836e-13
9.72486e-14
8.26613e-14
5.83492e-14
4.86243e-14
2.18809e-13
2.86883e-13
1.16698e-13
2.57709e-13
1.84772e-13
4.86243e-14
2.66635e-28
3.88995e-14
2.82021e-13
1.7991e-13
4.86243e-15
2.57709e-13
4.37619e-14
4.37619e-14
2.72296e-13
2.38259e-13
3.20921e-13
4.61931e-13
3.30645e-13
5.34868e-14
7.77989e-14
1.9936e-13
3.4037e-14
3.30645e-13
5.25143e-13
1.84772e-13
3.88995e-14
1.94497e-13
2.96608e-13
5.83492e-14
2.09085e-13
2.62571e-13
2.67434e-13
6.32116e-14
2.13947e-13
1.70185e-13
3.06333e-13
1.45873e-13
2.82021e-13
1.21561e-13
2.47984e-13
3.06333e-13
4.23032e-13
3.35508e-13
2.38259e-13
3.4037e-14
1.31286e-13
9.72486e-14
7.29365e-14
1.31286e-13
1.36148e-13
7.29365e-14
1.89635e-13
1.06974e-13
6.8074e-14
3.88995e-14
7.29365e-14
1.94497e-14
2.72296e-13
1.75048e-13
1.75048e-13
4.37619e-14
2.43122e-14
1.45873e-14
1.36148e-13
4.86243e-14
9.72486e-15
1.45873e-14
3.01471e-13
2.91746e-14
3.69545e-13
5.15418e-13
3.7927e-13
5.54317e-13
6.07804e-13
5.3973e-13
2.13947e-13
7.29365e-14
2.09085e-13
3.4037e-14
1.16698e-13
5.83492e-14
1.26423e-13
2.04222e-13
1.02111e-13
2.43122e-14
8.26613e-14
1.55598e-13
2.43122e-14
1.94497e-14
5.34868e-14
1.02111e-13
1.75048e-13
2.23672e-13
1.16698e-13
1.75048e-13
2.72296e-13
1.65323e-13
6.8074e-14
1.7991e-13
1.16698e-13
4.37619e-14
2.33397e-13
3.5982e-13
4.42481e-13
2.38259e-13
2.67434e-13
1.50735e-13
1.55598e-13
2.91746e-13
2.18809e-13
1.75048e-13
3.4037e-13
5.5918e-13
3.98719e-13
2.13947e-13
2.91746e-14
2.57709e-13
2.82021e-13
3.35508e-13
5.34868e-14
4.86243e-14
3.88995e-14
2.43122e-14
1.31286e-13
3.30645e-13
3.7927e-13
6.32116e-14
2.52846e-13
2.47984e-13
8.26613e-14
2.86883e-13
3.88995e-13
3.20921e-13
4.27894e-13
4.23032e-13
3.54958e-13
2.47984e-13
5.83492e-14
2.47984e-13
1.06974e-13
1.26423e-13
2.86883e-13
1.84772e-13
3.54958e-13
4.42481e-13
3.93857e-13
3.7927e-13
1.26423e-13
6.32116e-14
3.01471e-13
1.94497e-13
2.13947e-13
3.4037e-14
9.23862e-14
2.28534e-13
1.16698e-13
5.34868e-14
1.16698e-13
1.31286e-13
1.02597e-12
4.14279e-12
1.87933e-11
8.2389e-11
3.5824e-10
1.52249e-09
6.31814e-09
2.55916e-08
1.01077e-07
3.88879e-07
1.45567e-06
5.29479e-06
1.86881e-05
6.39071e-05
0.000211381
0.000675
0.00207659
0.00614016
0.0174031
0.0471374
0.121584
0.297465
0.687255
1.49225
3.03029
5.72862
10.0432
16.2847
24.4233
34.1086
44.9366
56.6261
68.9958
81.9182
95.3007
109.072
123.174
137.557
152.171
166.973
181.913
196.938
211.99
227
241.881
256.525
270.78
284.425
297.151
308.529
317.949
324.541
327.185
324.781
316.915
304.292
289.624
278.426
276.063
283.412
295.393
303.436
302.095
294.325
288.225
288.007
290.505
291.919
293.687
294.963
289.662
286.082
295.92
278.433
184.327
64.7427
13.0911
2.26049
0.372409
0.060982
0.00998929
0.00163372
0.000266637
4.34203e-05
7.05442e-06
1.14339e-06
1.84866e-07
2.98137e-08
4.79542e-09
7.69214e-10
1.23078e-10
1.97318e-11
3.08279e-12
4.86244e-13
5.34868e-14
4.03598e-31
1.70243e-50
2.69094e-50
4.87424e-48
5.63699e-46
1.22585e-30
1.60745e-28
1.6046e-13
3.88995e-14
8.75239e-14
5.83493e-14
3.01471e-13
4.71657e-13
4.13307e-13
2.62572e-13
5.83493e-14
1.55598e-13
4.3762e-14
2.91746e-13
1.26423e-13
9.72488e-14
4.3762e-14
2.23672e-13
1.55598e-13
1.11836e-13
2.52847e-13
7.7799e-14
1.02111e-13
2.43122e-14
1.6046e-13
9.23863e-14
3.16059e-13
6.80741e-14
1.26423e-13
2.43122e-14
1.45873e-14
4.3762e-14
1.70185e-13
3.11196e-13
2.28535e-13
3.88995e-14
1.70185e-13
8.75239e-14
1.45873e-14
9.72488e-15
9.72488e-14
8.75239e-14
2.67434e-13
1.9936e-13
2.09085e-13
4.3762e-14
9.72488e-15
6.32117e-14
1.94498e-13
3.40371e-14
1.94498e-13
1.75048e-13
3.9872e-13
8.75239e-14
9.72488e-15
4.3762e-14
3.28166e-28
5.34868e-14
1.89635e-13
2.33397e-13
2.91746e-13
1.31286e-13
3.12172e-29
4.72052e-29
2.91746e-14
1.36148e-13
1.45873e-13
2.52847e-13
2.34836e-28
7.79367e-30
1.78274e-28
1.41011e-13
4.86244e-15
1.65323e-13
6.32117e-14
8.75239e-14
1.50736e-13
9.72488e-15
2.55406e-29
8.26615e-14
1.7991e-13
2.13947e-13
4.86244e-15
3.35508e-13
7.7799e-14
1.45873e-13
2.04222e-13
1.94498e-13
1.84773e-13
4.86244e-15
2.43122e-14
3.40371e-14
2.43122e-14
1.02111e-13
8.75239e-14
2.52847e-13
8.26615e-14
3.30646e-13
2.04222e-13
3.35508e-13
2.43122e-14
3.88995e-14
1.36148e-13
2.91746e-13
3.5982e-13
1.9936e-13
1.9936e-13
2.04222e-13
1.94498e-14
1.75048e-13
1.70185e-13
1.65323e-13
1.70185e-13
5.83493e-14
1.02111e-13
6.80741e-14
9.72488e-14
1.89635e-13
5.34868e-14
1.11149e-28
1.02111e-13
6.80741e-14
4.86244e-14
1.41011e-13
2.57709e-13
1.94498e-13
1.36148e-13
1.06974e-13
4.3762e-14
3.88995e-14
1.41011e-13
2.47984e-13
2.52847e-13
1.70185e-13
1.06974e-13
5.34868e-14
8.75239e-14
1.6046e-13
1.16699e-13
1.94498e-14
7.7799e-14
8.75239e-14
7.7799e-14
2.43122e-13
1.94498e-14
6.32117e-14
6.80741e-14
5.83493e-14
9.72488e-14
8.26615e-14
4.86244e-14
4.3762e-14
1.70185e-13
3.5982e-13
9.72488e-15
2.28535e-13
1.70185e-13
3.88995e-14
2.82021e-13
3.40371e-13
7.29366e-14
1.50736e-13
4.86244e-15
2.33397e-13
2.86884e-13
1.11836e-13
3.06334e-13
1.50736e-13
5.83493e-14
9.72488e-14
1.75048e-13
4.47344e-13
1.16699e-13
2.47984e-13
4.3762e-14
1.36148e-13
8.75239e-14
1.45873e-13
2.1881e-13
1.11836e-13
2.91746e-14
3.88995e-14
5.63792e-30
8.75239e-14
1.65323e-13
7.7799e-14
4.86244e-15
4.42482e-13
1.7991e-13
1.89635e-13
1.50736e-13
1.26423e-13
1.36148e-13
4.86244e-14
8.26615e-14
3.93858e-13
2.3826e-13
4.03582e-13
2.47984e-13
3.01471e-13
3.69545e-13
4.86244e-14
7.7799e-14
3.30646e-13
3.11196e-13
3.88995e-13
3.30646e-13
1.06974e-13
1.9936e-13
3.06334e-13
4.86244e-15
1.84773e-13
4.86244e-15
2.62572e-13
7.29366e-14
1.26423e-13
1.31286e-13
3.64683e-13
7.29366e-14
2.04222e-13
4.86244e-14
1.70185e-13
9.72488e-14
6.80741e-14
6.80741e-14
2.28535e-13
2.04222e-13
2.82021e-13
2.13947e-13
3.16059e-13
2.47984e-13
3.69545e-13
8.75239e-14
2.96609e-13
1.55598e-13
1.36148e-13
8.28947e-28
8.26615e-14
2.82021e-13
2.72297e-13
2.3826e-13
3.40371e-13
4.03582e-13
4.42482e-13
2.82021e-13
4.42482e-13
1.11836e-13
2.91746e-13
1.94498e-13
3.30646e-13
4.08445e-13
2.67434e-13
2.77159e-13
3.91275e-28
5.10556e-13
5.34868e-14
6.32117e-13
2.57709e-13
4.71657e-13
7.7799e-14
2.28535e-13
1.84773e-13
1.50736e-13
1.21561e-13
8.26615e-14
1.26423e-13
4.86244e-15
4.86244e-14
3.88995e-14
1.36148e-13
4.86244e-14
1.21561e-13
9.72488e-14
9.72488e-14
2.09085e-13
8.26615e-14
9.72488e-15
4.3762e-14
1.50736e-13
1.11836e-13
2.43122e-14
2.91746e-14
7.29366e-14
7.29366e-14
9.72488e-15
2.91746e-14
1.94498e-13
1.89635e-13
1.31286e-13
4.86244e-14
2.77159e-13
2.91746e-14
1.75048e-13
1.36148e-13
1.55598e-13
1.21561e-13
2.91746e-13
5.83493e-14
9.72488e-14
2.23672e-13
6.80741e-14
3.47099e-28
4.3762e-14
1.50736e-13
1.11836e-13
2.43122e-14
2.91746e-14
7.29366e-14
7.29366e-14
9.72488e-15
2.91746e-14
1.94498e-13
1.89635e-13
1.31286e-13
4.86244e-14
2.77159e-13
2.91746e-14
1.75048e-13
1.36148e-13
1.55598e-13
1.21561e-13
2.91746e-13
5.83493e-14
9.72488e-14
2.23672e-13
6.80741e-14
3.47099e-28
4.3762e-14
1.50736e-13
1.11836e-13
2.43122e-14
2.91746e-14
7.29366e-14
7.29366e-14
3.40371e-14
3.88995e-14
8.04638e-29
1.94498e-13
1.70185e-13
9.23863e-14
5.15419e-13
4.03582e-13
4.95969e-13
3.16059e-13
2.09085e-13
4.3762e-14
1.94498e-14
1.45873e-13
2.23672e-13
3.50096e-13
4.86244e-14
3.40371e-14
1.36148e-13
6.80741e-14
7.29366e-14
3.40371e-14
9.23863e-14
3.40371e-14
1.6046e-13
1.89635e-13
2.1881e-13
1.75048e-13
3.20921e-13
3.11196e-13
5.10556e-13
6.71017e-13
5.15419e-13
4.27895e-13
4.23032e-13
2.86884e-13
5.34868e-14
2.43122e-13
3.35508e-13
4.86244e-13
4.47344e-13
2.96609e-13
3.88995e-14
2.09085e-13
1.21561e-13
4.86244e-14
9.23863e-14
1.45873e-14
2.23672e-13
4.23032e-13
2.52847e-13
4.86244e-14
3.16059e-13
2.96609e-13
1.16699e-13
1.02111e-13
2.72297e-13
2.23672e-13
2.96609e-13
3.54958e-13
3.45233e-13
1.45873e-13
1.31286e-13
1.26423e-13
1.89635e-13
2.43122e-13
4.66794e-13
2.96609e-13
2.47984e-13
9.23863e-14
2.09085e-13
2.91746e-14
2.33397e-13
3.7927e-13
4.61932e-13
1.84773e-13
9.72488e-15
3.20921e-13
2.72297e-13
1.31286e-13
1.55598e-13
2.96609e-13
2.23672e-13
2.96609e-13
3.54958e-13
3.45233e-13
1.70185e-13
2.1881e-13
7.7799e-14
4.03582e-13
4.32757e-13
5.39731e-13
3.45233e-13
1.84773e-13
1.94498e-14
1.9936e-13
1.70185e-13
6.80741e-14
1.31286e-13
2.33397e-13
3.01471e-13
2.1881e-13
4.57069e-13
2.62572e-13
1.9936e-13
3.9872e-13
3.35508e-13
2.96609e-13
3.40371e-14
5.20281e-13
4.23032e-13
3.45233e-13
1.9936e-13
)
;

boundaryField
{
    sides
    {
        type            calculated;
        value           nonuniform List<scalar> 2(1.9936e-13 4.57069e-13);
    }
    empty
    {
        type            empty;
    }
}


// ************************************************************************* //
