/*--------------------------------*- C++ -*----------------------------------*\
  =========                 |
  \\      /  F ield         | OpenFOAM: The Open Source CFD Toolbox
   \\    /   O peration     | Website:  https://openfoam.org
    \\  /    A nd           | Version:  13
     \\/     M anipulation  |
\*---------------------------------------------------------------------------*/
FoamFile
{
    format      ascii;
    class       surfaceScalarField;
    location    "0.0005";
    object      phi;
}
// * * * * * * * * * * * * * * * * * * * * * * * * * * * * * * * * * * * * * //

dimensions      [1 0 -1 0 0 0 0];

internalField   nonuniform List<scalar> 
999
(
-1.79027e-12
-7.47216e-13
-5.63605e-14
-1.01724e-14
-2.06632e-13
2.82467e-14
2.50763e-13
3.51868e-13
-2.52434e-13
2.17415e-13
3.95364e-13
1.0487e-12
8.74206e-13
3.28668e-13
-1.2173e-13
-1.55587e-13
-5.07186e-13
-8.02739e-13
-9.00031e-14
9.46021e-14
3.28668e-13
5.29091e-13
-1.51409e-13
-1.35203e-12
-3.8923e-13
5.47129e-13
4.24022e-13
4.68919e-13
-7.43073e-14
-2.40337e-14
6.10156e-13
4.49138e-13
3.84276e-13
-6.92085e-13
-6.92207e-13
1.24789e-13
-2.85967e-14
-3.11701e-13
-5.68685e-14
-5.62703e-13
-4.15581e-13
-1.46133e-14
2.88463e-14
4.33442e-13
6.76514e-14
3.01717e-13
5.29091e-13
-1.51409e-13
-1.35203e-12
-3.8923e-13
5.47129e-13
4.24022e-13
4.68919e-13
-7.43073e-14
-2.40337e-14
6.10156e-13
4.49138e-13
3.84276e-13
-6.92085e-13
-6.92207e-13
1.24789e-13
-2.85967e-14
-3.11701e-13
-5.68685e-14
-5.62703e-13
-4.15581e-13
-1.46133e-14
-3.52886e-14
3.51269e-13
5.38603e-13
3.22484e-13
7.74503e-13
5.04655e-13
-4.88334e-13
-7.03127e-13
-5.96945e-13
-1.21949e-12
-2.53328e-13
-9.96371e-14
7.47994e-15
4.72247e-13
5.25127e-13
6.20176e-13
2.53786e-13
9.82603e-13
9.5271e-13
9.23816e-14
-1.17767e-13
-5.67266e-13
-7.10032e-13
-5.39288e-13
-4.62877e-13
-1.03732e-12
-9.09647e-13
1.00059e-13
7.64722e-14
-1.28209e-13
-4.09784e-13
-5.8703e-14
-2.47272e-13
-2.47205e-13
-1.27187e-13
-7.66001e-13
-7.09158e-13
-8.02825e-13
-1.75266e-13
-5.70141e-13
-3.00726e-13
-2.56184e-13
7.64165e-14
4.8681e-13
3.25045e-13
3.31829e-13
7.95996e-13
8.22073e-13
3.96766e-13
1.44662e-13
1.51445e-13
-6.35536e-13
-1.25667e-12
-6.73681e-13
-4.95046e-13
-2.18781e-13
2.5562e-13
2.42292e-13
3.70119e-14
-5.2092e-14
-2.82769e-13
-7.68943e-13
-2.86971e-13
1.16821e-14
-2.66565e-13
-1.43244e-13
2.37582e-13
3.01062e-13
5.61692e-13
3.6385e-13
8.84953e-13
7.23843e-13
5.97428e-13
2.26236e-13
8.78186e-14
1.51445e-13
-6.35536e-13
-1.25667e-12
-6.73681e-13
-4.95046e-13
-2.18781e-13
2.5562e-13
2.42292e-13
3.70119e-14
-5.2092e-14
-2.82769e-13
-7.68943e-13
-2.86971e-13
1.16821e-14
-2.66565e-13
-1.43244e-13
2.37582e-13
3.01062e-13
5.61692e-13
3.6385e-13
8.84953e-13
7.23843e-13
5.97428e-13
2.26236e-13
8.78186e-14
2.33619e-13
-7.37993e-14
-4.45261e-13
2.30651e-13
5.48603e-13
3.23017e-14
-1.38828e-13
-2.08583e-14
1.53427e-13
-5.99539e-15
-4.85026e-13
-1.1335e-12
-3.40572e-13
4.39479e-13
2.39417e-13
4.44189e-13
2.34854e-13
-8.35805e-14
-4.21704e-13
-2.95203e-13
-1.53605e-13
2.54533e-13
-1.21517e-13
-7.74767e-13
-8.66812e-13
-6.95616e-13
-4.75026e-13
-6.38839e-13
-3.98503e-13
-5.1654e-13
2.78222e-13
5.87408e-13
3.00148e-14
2.85152e-13
4.14149e-13
3.35959e-13
-2.5597e-13
-1.79468e-13
2.3089e-13
-4.39463e-13
-4.19803e-13
-5.93489e-13
-3.5765e-13
2.86987e-13
-2.23049e-13
-7.88603e-13
-4.57862e-13
-2.94907e-14
2.54726e-13
1.22211e-12
3.96857e-13
2.8095e-13
6.50701e-14
-1.86012e-13
-4.03066e-13
-7.01506e-13
-4.82831e-13
-2.97043e-14
-4.97627e-13
1.88263e-14
4.48752e-13
3.94637e-13
-3.98609e-13
-1.31104e-13
3.3381e-13
4.36151e-13
2.42872e-13
1.16457e-13
4.4677e-13
4.36898e-13
7.68685e-13
-3.17011e-13
-9.45144e-13
-1.76079e-13
-3.75541e-13
-6.19693e-13
-1.361e-13
-1.52303e-13
-3.36677e-14
-1.32869e-14
-2.256e-14
-1.96032e-13
9.42304e-13
6.80328e-13
7.51007e-13
8.62113e-13
2.29996e-13
4.43442e-13
7.00947e-13
1.80739e-13
-1.63264e-13
-1.67827e-13
-1.15815e-12
-4.68609e-13
2.39417e-13
1.26953e-12
3.86985e-13
4.15085e-14
1.23895e-13
-2.86438e-13
-5.16606e-13
-5.68673e-13
-3.72813e-13
-3.9298e-13
-2.93155e-13
-2.22983e-13
-2.48526e-13
4.6285e-14
7.10221e-13
8.39364e-13
4.73121e-13
3.26539e-13
-1.40515e-13
-6.24529e-14
-4.4586e-13
8.96531e-14
-5.80994e-13
-4.18543e-13
-1.1483e-12
-1.11642e-12
-1.03112e-13
4.78284e-13
1.05857e-13
-2.6599e-13
1.66903e-13
-6.19546e-13
-1.14173e-12
-9.52735e-13
-7.96427e-13
-2.90083e-15
5.52419e-13
1.49952e-13
9.31444e-15
9.89875e-13
8.39184e-13
4.87196e-13
4.14296e-13
7.17332e-13
6.01212e-14
8.45749e-13
1.0549e-12
1.23924e-12
1.2794e-12
2.03382e-12
5.31799e-13
-1.71236e-13
-5.59361e-13
-2.51074e-13
6.44792e-13
1.97625e-12
1.50343e-12
3.32471e-13
2.78208e-13
1.35625e-12
3.61108e-13
-6.07658e-13
-9.61895e-13
-1.26367e-12
-4.53726e-13
3.42176e-13
6.78707e-13
9.96419e-13
7.19166e-13
9.30811e-13
9.86386e-13
-3.93047e-13
-1.13411e-12
-1.39228e-12
-1.79682e-12
-1.11265e-12
-4.50423e-13
-5.46399e-13
-2.80073e-13
-2.02102e-13
5.56788e-13
-1.32444e-13
-4.47728e-13
-6.79992e-13
-2.67505e-13
-1.57774e-13
7.47994e-15
-4.05983e-14
-1.22805e-13
5.87588e-13
7.71774e-13
9.6109e-13
3.80981e-13
1.14622e-13
-1.96843e-14
4.70413e-13
2.74405e-13
8.23285e-14
3.0434e-14
-6.51454e-13
-5.2279e-13
-1.07742e-12
-1.59661e-12
-2.15985e-12
-1.59805e-12
-2.43095e-12
-2.74338e-12
-1.51892e-12
-4.46935e-13
-7.59784e-13
-2.71661e-13
2.95186e-13
3.32883e-13
4.3126e-13
4.29821e-14
-8.41663e-13
-3.53268e-13
2.78189e-13
3.98839e-13
1.25549e-13
4.00094e-13
-1.03626e-13
5.09978e-13
4.87377e-13
1.04234e-12
4.98304e-13
7.94015e-13
6.32758e-13
1.32306e-12
3.79147e-13
4.06131e-13
6.59561e-13
4.02622e-13
6.08355e-13
1.47997e-12
1.6822e-12
1.09023e-12
1.1857e-12
9.7683e-13
4.81012e-13
1.17241e-12
1.11492e-12
7.1254e-14
-7.50044e-13
-2.066e-12
-2.25292e-12
-1.2013e-12
-3.2144e-13
7.79052e-13
9.31081e-13
1.13888e-12
6.8805e-13
8.80686e-14
-1.84938e-13
1.36463e-13
-5.1773e-13
-9.68075e-13
-1.2685e-12
-1.24838e-12
-5.33634e-13
-8.18345e-13
-9.46418e-13
4.32998e-13
1.68765e-12
1.29367e-12
1.17014e-12
2.13465e-12
1.6717e-12
1.18314e-12
8.60118e-13
-4.53415e-13
-9.79256e-13
-3.02461e-13
-1.19038e-12
-7.2313e-13
-8.69188e-13
-1.68384e-12
-1.82124e-12
-1.62951e-12
-1.19877e-12
-1.01311e-13
-4.7542e-13
-9.19634e-13
-1.10658e-12
-2.94012e-13
-3.50642e-13
-6.36361e-13
-8.32898e-13
-3.02419e-13
-5.21558e-13
2.32897e-14
1.83302e-12
7.29309e-12
3.3237e-11
1.47933e-10
6.49128e-10
2.79557e-09
1.17574e-08
4.82828e-08
1.93441e-07
7.55354e-07
2.87155e-06
1.06149e-05
3.81044e-05
0.000132637
0.000446984
0.00145577
0.00457312
0.0138259
0.0401289
0.111498
0.2956
0.744976
1.77709
3.99298
8.40624
16.4911
29.9909
50.344
77.7641
110.438
145.584
181.298
216.486
250.412
282.598
312.735
340.625
366.151
389.252
409.908
428.131
443.96
457.452
468.686
477.759
484.783
489.881
493.204
494.947
495.345
494.678
493.294
491.693
490.561
490.7
492.844
497.218
502.001
500.116
483.452
451.744
412.426
375.223
346.116
327.01
316.724
311.395
307.268
309.03
318.996
315.575
297.309
319.467
350.197
230.447
77.1663
16.1549
2.63933
0.427158
0.0701207
0.0115058
0.00188384
0.000307758
5.01653e-05
8.15833e-06
1.32365e-06
2.14236e-07
3.45877e-08
5.5696e-09
8.94433e-10
1.43243e-10
2.29276e-11
3.64337e-12
5.6569e-13
9.63812e-14
4.20497e-15
-1.11022e-15
6.80012e-16
-1.11022e-15
-1.11022e-15
-1.11022e-15
-1.13798e-15
-4.01415e-14
-2.27943e-14
-3.4037e-14
-2.85532e-14
7.21944e-14
2.10236e-13
1.77623e-13
2.31623e-13
5.92117e-14
-2.70613e-14
-2.98997e-14
8.65349e-14
1.371e-13
4.74981e-14
2.12757e-14
-1.75307e-14
-1.38054e-13
-6.32265e-14
-1.26797e-13
-7.65294e-14
-2.15497e-14
-2.97026e-14
-5.68344e-14
-5.84036e-14
-1.21145e-13
-7.75491e-14
-8.22835e-14
-9.19474e-15
-8.31315e-15
-8.04288e-15
8.07705e-14
1.269e-13
1.17796e-13
9.51541e-14
-5.64077e-14
-3.03383e-14
5.25923e-14
-4.73716e-15
-9.37454e-16
7.5398e-14
-3.42077e-14
-1.37979e-13
-1.1762e-13
-3.64913e-14
4.69728e-15
-1.6661e-14
-5.01397e-14
-9.82898e-14
-4.01682e-14
-1.32359e-13
-1.26607e-13
-1.3191e-13
-4.04978e-14
2.5285e-14
-1.265e-14
3.8326e-14
2.64719e-14
1.44607e-13
1.0767e-13
1.31124e-13
3.5201e-14
-1.11022e-15
-9.72833e-15
1.72844e-14
1.01648e-13
-4.84893e-14
-4.2091e-14
-6.53644e-15
1.54737e-15
3.09197e-14
3.3119e-14
6.49762e-14
6.38273e-15
-1.52572e-14
-8.47718e-14
-6.35398e-14
5.93969e-15
3.08642e-14
4.73298e-14
1.28752e-13
6.27786e-14
6.29514e-14
1.27011e-13
3.70547e-14
1.13071e-13
8.52245e-14
5.03834e-15
-3.26395e-14
-5.96086e-15
-1.04848e-15
-2.56739e-15
-5.34119e-15
-5.85629e-14
-1.19378e-13
-7.4581e-14
-7.14363e-14
-1.82986e-13
-9.01834e-14
-1.12742e-13
-2.23155e-14
2.24608e-14
-3.00527e-14
2.37588e-14
3.79696e-14
-6.01637e-15
1.6584e-15
-3.29806e-14
-4.93289e-14
-9.87686e-14
-5.15549e-14
-1.07698e-13
-2.18776e-14
2.38143e-14
1.2073e-14
9.82442e-15
8.19403e-14
3.8871e-14
-1.31083e-14
-2.17819e-14
-3.4334e-14
-3.24775e-15
3.24522e-14
-1.34341e-14
-1.62788e-13
1.06866e-14
-1.21094e-14
-3.88526e-14
-8.92447e-15
-2.87968e-14
1.64295e-14
9.71698e-14
1.55535e-13
5.92151e-14
-6.63675e-15
2.30301e-15
-9.22602e-14
-2.57714e-14
6.32352e-14
7.73616e-15
2.124e-14
-6.8775e-15
-6.29795e-14
-5.27509e-14
-2.94986e-14
-2.41897e-14
-3.38139e-14
7.00758e-15
3.45487e-15
-3.92401e-14
-4.43466e-15
5.56777e-14
1.5328e-13
1.18156e-13
-9.29961e-14
-7.76199e-14
-5.58741e-14
1.11202e-13
1.44252e-13
7.52224e-14
9.74151e-14
1.06713e-14
6.51704e-14
-1.43704e-14
-7.16934e-14
-2.31683e-14
-1.27828e-13
-5.7274e-14
1.13444e-14
-1.19214e-14
5.19924e-14
9.0691e-14
3.68247e-14
8.13308e-14
5.16604e-14
-9.78477e-17
-7.38021e-14
-6.32674e-14
-1.09107e-13
-3.11914e-14
4.54008e-14
-1.2506e-14
3.63244e-14
6.27831e-14
2.7367e-14
-1.8181e-14
-1.3212e-13
-1.646e-13
-1.02157e-13
-1.47175e-15
5.56562e-14
8.99686e-14
1.72136e-14
-2.03112e-14
-1.00469e-13
-1.97823e-13
-1.33653e-13
-1.51381e-13
6.99853e-15
1.70575e-13
8.93885e-14
-3.03028e-15
-1.11512e-13
-1.41038e-13
-2.13465e-13
-1.6091e-13
-1.12177e-13
1.8149e-14
1.20685e-13
6.08433e-14
-2.99598e-14
-7.08458e-14
-5.26229e-14
-4.64653e-14
-1.67509e-15
5.63886e-15
-1.5873e-13
-1.14676e-13
3.73832e-14
4.37878e-14
1.63015e-14
1.42195e-14
-1.0814e-14
-1.72814e-14
8.26117e-14
8.78158e-14
1.53896e-13
1.05053e-13
1.11839e-13
1.6062e-13
1.67039e-13
9.96484e-14
1.13305e-13
1.34219e-13
4.47805e-14
4.75491e-14
-1.57614e-14
-1.08084e-13
-1.45888e-13
-1.29866e-13
-1.62097e-13
-1.59125e-13
-1.79927e-13
-2.22506e-13
-1.86058e-13
-1.433e-13
-6.59789e-14
-1.65734e-13
4.40983e-14
2.07843e-13
1.50298e-13
1.15777e-13
1.02457e-13
1.15219e-13
1.21638e-13
1.78308e-13
2.15931e-13
1.91124e-13
1.46618e-13
7.7437e-14
1.26107e-13
9.30353e-14
-7.21232e-15
1.24338e-14
-2.45505e-14
-2.62297e-14
-2.16226e-14
-4.03185e-15
7.3145e-14
7.23762e-15
1.52784e-14
8.23092e-14
3.45342e-14
-1.16778e-14
-5.88987e-14
4.76063e-14
-2.83066e-14
-2.079e-14
-2.53346e-14
3.66162e-14
1.30451e-14
-1.41762e-14
-4.44228e-14
-1.78881e-14
-2.69163e-14
6.04173e-14
7.25739e-14
3.18363e-14
-4.0197e-14
-1.1153e-13
-5.20778e-14
-1.40301e-14
-1.3558e-13
2.53207e-14
4.50195e-14
1.23499e-13
6.80983e-14
2.92405e-14
-1.95673e-14
-4.99816e-14
2.98428e-14
-2.83066e-14
-2.079e-14
-2.53346e-14
3.66162e-14
1.30451e-14
-1.41762e-14
-4.44228e-14
-1.78881e-14
-2.69163e-14
6.04173e-14
7.25739e-14
3.18363e-14
-4.0197e-14
-1.1153e-13
-5.20778e-14
-1.40301e-14
-1.3558e-13
2.53207e-14
4.50195e-14
1.23499e-13
6.80983e-14
2.92405e-14
-1.95673e-14
-4.99816e-14
2.98428e-14
-2.83066e-14
-2.079e-14
-2.53346e-14
3.66162e-14
1.30451e-14
-1.41762e-14
-4.44228e-14
-1.78881e-14
-4.09544e-14
5.73117e-15
-5.82121e-14
-1.06418e-13
-2.31597e-14
-7.23484e-14
-3.09633e-13
-1.65614e-13
-2.23366e-13
-1.1992e-13
-6.33206e-14
-2.54627e-14
-2.33241e-14
-9.03743e-14
-1.68139e-13
-7.15071e-14
-3.3968e-14
2.73579e-14
6.54101e-14
-1.11061e-14
-1.6524e-14
-2.74031e-14
-3.72771e-14
2.37077e-14
8.93975e-14
9.06247e-14
1.35853e-13
1.15029e-13
1.45484e-13
2.27537e-13
3.02539e-13
2.82542e-13
2.58284e-13
2.26549e-13
1.69533e-13
1.16221e-13
-6.56506e-14
-1.44422e-13
-1.92955e-13
-2.72267e-13
-1.66912e-13
-5.98921e-14
-4.08566e-14
-8.40789e-14
-3.99924e-14
4.28927e-14
3.11327e-14
-4.49724e-14
-1.69664e-13
-2.16552e-13
-6.54293e-14
7.85666e-14
1.57046e-13
1.15219e-13
7.5696e-14
8.42506e-14
1.40088e-13
1.34551e-13
1.5949e-13
1.92936e-13
1.21514e-13
1.02647e-13
-1.38039e-14
-7.91971e-14
-1.00195e-13
-1.85947e-13
-2.12336e-13
-1.25821e-13
-5.79075e-14
2.33407e-14
8.19681e-14
-7.36859e-14
-1.55377e-13
-1.77824e-13
-2.1447e-13
-3.83541e-14
1.06031e-13
1.37887e-13
1.04734e-13
9.64985e-14
1.02798e-13
1.40088e-13
1.34551e-13
1.5949e-13
1.92936e-13
1.21514e-13
1.35919e-13
4.74374e-15
-9.57603e-14
-2.38232e-13
-2.374e-13
-2.19539e-13
-1.35549e-13
-1.93193e-14
4.01474e-14
1.10217e-13
3.48537e-14
-5.63171e-14
-1.17082e-13
-1.19871e-13
-1.05347e-13
-1.58832e-13
-2.06359e-13
-1.29298e-13
-1.71293e-13
-1.43779e-13
-2.12779e-13
-6.60139e-14
-1.4743e-13
-2.70526e-13
-1.6595e-13
-1.15212e-13
)
;

boundaryField
{
    sides
    {
        type            calculated;
        value           nonuniform List<scalar> 2(-1.09139e-13 1.74623e-12);
    }
    empty
    {
        type            empty;
    }
}


// ************************************************************************* //
