/*--------------------------------*- C++ -*----------------------------------*\
  =========                 |
  \\      /  F ield         | OpenFOAM: The Open Source CFD Toolbox
   \\    /   O peration     | Website:  https://openfoam.org
    \\  /    A nd           | Version:  13
     \\/     M anipulation  |
\*---------------------------------------------------------------------------*/
FoamFile
{
    format      ascii;
    class       surfaceScalarField;
    location    "0.0005";
    object      phi_0;
}
// * * * * * * * * * * * * * * * * * * * * * * * * * * * * * * * * * * * * * //

dimensions      [1 0 -1 0 0 0 0];

internalField   nonuniform List<scalar> 
999
(
-1.76038e-12
-7.12761e-13
-4.28852e-14
-1.01724e-14
-1.19896e-13
7.16148e-14
4.64448e-13
1.51445e-13
-3.86888e-13
4.62827e-13
8.05122e-13
8.25889e-13
8.30838e-13
9.40025e-14
-2.11409e-13
-2.03518e-13
-7.05774e-13
-3.76563e-13
-7.82988e-15
5.5797e-14
3.15192e-13
4.54209e-13
-8.27116e-14
-1.22192e-12
-4.87607e-13
6.60816e-13
4.62827e-13
5.89898e-13
-2.31362e-13
2.82467e-14
5.78643e-13
3.26539e-13
2.13746e-13
-5.66544e-13
-7.92419e-13
1.38265e-13
2.5562e-13
-9.48605e-14
-3.61018e-14
-7.4965e-13
-4.5895e-13
-1.13798e-15
1.56008e-13
4.54209e-13
1.0808e-14
3.15192e-13
4.54209e-13
-8.27116e-14
-1.22192e-12
-4.87607e-13
6.60816e-13
4.62827e-13
5.89898e-13
-2.31362e-13
2.82467e-14
5.78643e-13
3.26539e-13
2.13746e-13
-5.66544e-13
-7.92419e-13
1.38265e-13
2.5562e-13
-9.48605e-14
-3.61018e-14
-7.4965e-13
-4.5895e-13
-1.13798e-15
1.56008e-13
2.5562e-13
4.68284e-13
2.44874e-13
9.04393e-13
2.63806e-13
-3.5823e-13
-4.25093e-13
-5.67052e-13
-1.04602e-12
-2.83221e-13
-3.03002e-13
6.70518e-14
1.8803e-13
4.68284e-13
5.88663e-13
1.13148e-13
8.12073e-13
9.82603e-13
2.01505e-13
-1.31242e-13
-5.89653e-13
-6.09821e-13
-4.52552e-13
-3.46462e-13
-1.19437e-12
-1.02606e-12
4.02735e-14
6.15349e-15
4.23216e-14
-3.23047e-13
-5.8703e-14
-3.63687e-13
-1.25401e-14
-5.8703e-14
-6.33169e-13
-6.49372e-13
-7.54894e-13
-2.09721e-13
-6.26985e-13
-6.81913e-13
-1.55972e-13
4.21744e-14
7.91794e-13
4.821e-13
2.84111e-13
5.80477e-13
5.27109e-13
1.12549e-13
2.01505e-13
2.38182e-13
-3.15756e-13
-1.09668e-12
-7.21612e-13
-4.47115e-13
-2.92042e-13
7.32357e-14
8.98004e-14
1.23748e-13
3.00812e-14
-1.6179e-13
-8.98834e-13
-2.12089e-13
-3.1686e-14
-3.66776e-13
-2.20854e-13
2.94426e-13
3.75943e-13
6.75379e-13
4.07218e-13
8.01159e-13
4.82994e-13
3.47453e-13
5.57054e-14
2.01505e-13
2.38182e-13
-3.15756e-13
-1.09668e-12
-7.21612e-13
-4.47115e-13
-2.92042e-13
7.32357e-14
8.98004e-14
1.23748e-13
3.00812e-14
-1.6179e-13
-8.98834e-13
-2.12089e-13
-3.1686e-14
-3.66776e-13
-2.20854e-13
2.94426e-13
3.75943e-13
6.75379e-13
4.07218e-13
8.01159e-13
4.82994e-13
3.47453e-13
5.57054e-14
2.01505e-13
2.33619e-13
-3.04312e-14
-3.15156e-13
3.263e-13
6.83056e-13
1.98269e-13
-9.08971e-14
-7.31388e-14
1.53427e-13
2.37582e-13
-4.98501e-13
-8.73291e-13
-3.24155e-13
3.07754e-13
4.81195e-14
4.30714e-13
1.7801e-13
-1.35861e-13
-5.60721e-13
-4.50637e-13
-2.05885e-13
1.84214e-13
1.83467e-13
-5.71401e-13
-6.49972e-13
-4.44534e-13
-5.36432e-13
-9.33503e-13
-5.58501e-13
-4.73172e-13
3.91909e-13
5.48603e-13
4.34902e-14
2.14834e-13
5.69369e-13
9.2168e-14
-8.54401e-14
-1.06207e-13
2.3089e-13
-2.61641e-13
-3.123e-13
-8.19242e-13
-3.307e-13
3.41996e-13
-4.9217e-13
-7.15342e-13
-2.97865e-13
1.4104e-13
1.20273e-13
7.8996e-13
3.96857e-13
2.58349e-13
8.22672e-15
-1.08402e-13
-4.94152e-13
-4.7119e-13
-2.95883e-13
5.70319e-14
-4.76647e-13
6.9719e-15
2.73659e-13
3.94637e-13
3.80996e-14
2.35286e-13
1.46863e-13
3.22464e-13
2.77114e-13
-1.96032e-13
4.28732e-13
3.8918e-13
8.23907e-13
-1.79615e-13
-1.09307e-12
-2.32922e-13
-3.80104e-13
-6.19693e-13
-4.93635e-14
-1.08935e-13
9.70039e-15
-2.67622e-14
9.11268e-14
-1.96032e-13
7.89812e-13
6.80328e-13
7.51007e-13
8.75588e-13
3.70634e-13
3.29755e-13
5.58475e-13
-2.42473e-14
-2.63475e-13
-1.7239e-13
-1.16706e-12
-3.36883e-13
3.6385e-13
1.18117e-12
3.85364e-13
-1.67827e-13
2.26835e-13
-4.70443e-13
-6.37584e-13
-3.6825e-13
-4.11618e-13
-3.79505e-13
-1.19682e-13
-1.02005e-13
-3.18845e-13
-1.78498e-14
7.80539e-13
8.7817e-13
3.80201e-13
1.08077e-13
-1.2704e-13
-1.90848e-14
-3.15756e-13
3.7387e-13
-2.84923e-13
-3.93214e-13
-1.17525e-12
-1.05045e-12
-3.31807e-13
2.80589e-13
5.64545e-15
-2.43389e-13
1.3701e-13
-7.4965e-13
-1.01163e-12
-5.62423e-13
-5.45131e-13
-1.28229e-13
5.29818e-13
-2.05783e-14
-5.48204e-14
8.19344e-13
9.16794e-13
3.03191e-13
4.30714e-13
7.17332e-13
-2.2052e-14
5.15435e-13
1.02957e-12
1.06436e-12
1.75948e-12
2.18175e-12
8.23308e-13
1.77116e-13
-6.89466e-13
-3.76616e-13
3.09916e-13
1.47814e-12
1.3329e-12
2.36822e-13
1.93307e-13
1.44917e-12
7.40974e-13
-3.17557e-13
-8.13752e-13
-1.21118e-12
-5.56666e-13
3.9902e-13
8.19344e-13
1.11011e-12
6.84924e-13
7.73756e-13
5.88482e-13
-5.79994e-13
-1.02043e-12
-1.39684e-12
-1.6204e-12
-1.16037e-12
-3.06844e-13
-4.32712e-13
-3.01054e-13
-3.32206e-13
3.11376e-13
-1.07328e-13
-4.74678e-13
-5.79781e-13
-3.93047e-13
1.73195e-14
3.98092e-13
2.97204e-14
-1.96066e-13
4.73901e-13
7.14931e-13
8.56315e-13
3.97185e-13
5.77787e-14
1.91208e-14
2.04234e-13
4.70266e-13
5.99408e-14
-4.90107e-14
-8.08509e-13
-5.52683e-13
-8.2177e-13
-1.72833e-12
-2.2555e-12
-1.55924e-12
-2.35769e-12
-2.4172e-12
-1.30937e-12
-3.24335e-13
-7.02941e-13
-1.71449e-13
2.041e-13
5.01792e-13
2.11178e-13
-2.30702e-13
-8.41663e-13
-2.71095e-13
1.64502e-13
4.55683e-13
1.95868e-13
3.31396e-13
-1.79323e-15
7.50827e-13
4.14329e-13
1.09918e-12
5.07216e-13
8.851e-13
5.19071e-13
1.1345e-12
2.51985e-13
5.37856e-13
1.11704e-12
2.41218e-13
4.87377e-13
1.32292e-12
1.80936e-12
1.07676e-12
1.22745e-12
9.75209e-13
4.60246e-13
1.17241e-12
1.19982e-12
-1.35353e-13
-8.95245e-13
-2.19316e-12
-2.02695e-12
-1.42978e-12
-5.23184e-13
5.69717e-13
8.71509e-13
1.50527e-12
8.97385e-13
2.23129e-14
-1.84938e-13
3.62518e-14
-3.40122e-13
-1.31643e-12
-1.00372e-12
-8.97083e-13
-5.69711e-13
-1.44789e-12
-7.68382e-13
3.34621e-13
1.97187e-12
1.40735e-12
1.39752e-12
1.89652e-12
1.36944e-12
9.73805e-13
1.05141e-12
-2.11245e-13
-5.29157e-13
-1.58881e-13
-1.05136e-12
-8.53234e-13
-8.78101e-13
-1.4896e-12
-1.75254e-12
-1.33941e-12
-1.22845e-12
-6.25059e-14
-6.75843e-13
-8.76266e-13
-1.16615e-12
-4.26845e-13
-2.84886e-13
-5.79517e-13
-8.6714e-13
-2.45576e-13
-7.12855e-13
-2.91928e-13
7.73595e-13
3.4547e-12
1.50286e-11
6.69373e-11
2.98328e-10
1.31128e-09
5.62612e-09
2.35743e-08
9.63934e-08
3.84286e-07
1.49204e-06
5.63525e-06
2.0677e-05
7.36026e-05
0.000253779
0.000846124
0.00272271
0.00843794
0.0251244
0.0716798
0.195336
0.506629
1.24544
2.88824
6.28552
12.7653
24.0614
41.888
67.0979
98.6565
133.764
170.015
206.044
240.982
274.248
305.47
334.411
360.928
384.941
406.423
425.378
441.843
455.877
467.559
476.99
484.284
489.571
493.013
494.812
495.212
494.498
493.038
491.372
490.251
490.542
493.024
497.754
502.022
497.516
476.706
441.575
401.208
365.301
338.914
322.931
314.601
309.118
306.779
314.204
320.263
304.159
301.483
346.493
304.385
136.531
34.1786
6.07131
0.968885
0.15846
0.0259979
0.00425659
0.0006953
0.000113315
1.84243e-05
2.98855e-06
4.83582e-07
7.80526e-08
1.25653e-08
2.01732e-09
3.22968e-10
5.15488e-11
8.24149e-12
1.2953e-12
2.03725e-13
2.17742e-14
6.52256e-16
-1.11022e-15
6.80012e-16
-1.11022e-15
-1.11022e-15
-1.11022e-15
-1.13798e-15
-4.01415e-14
-1.84575e-14
-1.28935e-14
-6.52055e-14
3.98789e-14
2.17856e-13
1.76666e-13
2.14374e-13
6.7615e-14
1.41005e-14
-2.05128e-14
8.01161e-14
1.14216e-13
3.80404e-14
1.95347e-14
-2.8973e-14
-1.1637e-13
-2.95597e-14
-8.32824e-14
-1.15047e-13
-6.5848e-14
-3.70783e-14
-5.3698e-14
-3.62057e-14
-1.16268e-13
-6.53227e-14
-5.5235e-14
-3.28633e-14
-1.265e-14
-1.67165e-14
3.55421e-14
1.34006e-13
1.17796e-13
1.1647e-13
-2.40655e-14
-3.15387e-14
2.84099e-14
-5.52125e-15
8.93659e-15
7.34135e-14
-4.15834e-14
-1.49421e-13
-1.06422e-13
-1.95118e-14
1.89081e-14
-1.18103e-14
-7.43221e-14
-8.76316e-14
-2.8726e-14
-1.19079e-13
-1.18448e-13
-1.05619e-13
-3.53769e-14
1.22746e-14
-5.24386e-14
2.73268e-14
4.37216e-14
1.51712e-13
1.0767e-13
1.34677e-13
3.5201e-14
-1.11022e-15
-9.72833e-15
1.72844e-14
1.01648e-13
-4.84893e-14
-4.2091e-14
-6.53644e-15
1.54737e-15
3.09197e-14
4.07382e-14
6.06393e-14
1.26182e-15
-2.01079e-14
-7.25454e-14
-5.40821e-14
1.30451e-14
3.08642e-14
4.24792e-14
1.0942e-13
3.22749e-14
7.71623e-14
1.33333e-13
4.18079e-14
1.18608e-13
9.233e-14
6.60653e-15
-2.67345e-14
1.14457e-15
2.50424e-15
-1.47937e-14
-1.32307e-14
-5.04031e-14
-8.19147e-14
-5.77743e-14
-8.15806e-14
-1.85214e-13
-1.21325e-13
-1.10904e-13
-6.53644e-15
2.60136e-14
-3.00527e-14
1.66533e-14
3.79696e-14
-6.01637e-15
-2.67841e-15
-3.08985e-14
-4.34239e-14
-9.90121e-14
-7.50507e-14
-9.72836e-14
-1.07057e-14
3.24879e-14
2.62838e-14
7.7424e-15
8.98299e-14
3.25496e-14
-1.31083e-14
-2.17819e-14
-4.30076e-14
-3.24775e-15
3.96551e-14
-2.05395e-14
-1.62788e-13
6.34979e-15
-4.04713e-15
-2.28033e-14
-2.22052e-14
-3.4334e-14
1.94684e-14
1.07828e-13
1.28584e-13
7.09009e-14
1.017e-14
-3.51601e-14
-1.01962e-13
-2.55986e-14
4.11348e-14
6.95207e-15
3.18981e-14
9.92921e-15
-4.46046e-14
-5.55195e-14
-3.38355e-14
-3.69298e-14
-3.4598e-14
7.00758e-15
3.45487e-15
-3.92401e-14
-4.43466e-15
4.72743e-14
1.50241e-13
1.26559e-13
-7.86611e-14
-5.90722e-14
-5.69017e-14
1.00544e-13
1.30555e-13
1.02687e-13
6.67386e-14
1.7604e-14
4.74069e-14
-5.45327e-15
-6.57884e-14
-3.21121e-14
-1.09697e-13
-5.3451e-14
2.12184e-14
-1.75561e-14
5.04242e-14
9.0691e-14
2.76373e-14
8.13308e-14
4.81077e-14
1.16854e-14
-9.59025e-14
-6.32674e-14
-9.17599e-14
-1.38441e-14
5.17222e-14
-1.06376e-15
2.28976e-14
4.50195e-14
2.7367e-14
6.00144e-15
-9.10064e-14
-1.7222e-13
-1.12372e-13
-5.12196e-15
3.68649e-14
9.41327e-14
1.14061e-14
-3.25375e-14
-9.17957e-14
-1.75085e-13
-1.24195e-13
-1.60055e-13
1.4104e-14
1.94487e-13
1.14771e-13
-4.3443e-16
-1.25723e-13
-1.23203e-13
-2.25692e-13
-1.65517e-13
-1.22149e-13
1.73649e-14
1.17133e-13
7.15014e-14
-1.69493e-14
-3.73785e-14
-7.77622e-14
-1.01276e-13
-2.61277e-14
1.02192e-14
-1.49273e-13
-1.06002e-13
4.44887e-14
4.37878e-14
2.82575e-14
2.19362e-14
-4.67089e-14
-2.5955e-14
6.91849e-14
7.76715e-14
1.43752e-13
9.56929e-14
1.23281e-13
1.47193e-13
1.59934e-13
9.68798e-14
9.58119e-14
1.44877e-13
9.27775e-14
4.80629e-14
-7.26054e-15
-1.00097e-13
-1.25945e-13
-1.36187e-13
-1.63665e-13
-1.99724e-13
-1.72308e-13
-2.05943e-13
-1.42447e-13
-1.50676e-13
-7.54366e-14
-1.58628e-13
4.7651e-14
2.0429e-13
1.46746e-13
1.20114e-13
6.11226e-14
9.66713e-14
1.09411e-13
1.69121e-13
2.10394e-13
2.0335e-13
1.5468e-13
7.11157e-14
1.15449e-13
1.16163e-13
7.2421e-15
-1.63099e-15
-4.26818e-14
-2.18929e-14
-2.64733e-14
-1.86105e-14
4.39392e-14
1.20883e-14
1.8047e-14
6.9569e-14
4.45057e-14
-9.32552e-15
-3.3662e-14
5.66963e-14
-1.55664e-14
-4.16899e-14
-4.34659e-14
2.64719e-14
5.93969e-15
-1.41762e-14
-4.44228e-14
-1.78881e-14
-2.69163e-14
6.31859e-14
6.90212e-14
2.62991e-14
-2.51046e-14
-9.31287e-14
-4.95795e-14
-3.16476e-14
-1.38863e-13
2.01998e-14
4.50195e-14
1.22201e-13
7.24351e-14
2.92405e-14
-1.79991e-14
-3.23641e-14
5.0375e-14
-1.55664e-14
-4.16899e-14
-4.34659e-14
2.64719e-14
5.93969e-15
-1.41762e-14
-4.44228e-14
-1.78881e-14
-2.69163e-14
6.31859e-14
6.90212e-14
2.62991e-14
-2.51046e-14
-9.31287e-14
-4.95795e-14
-3.16476e-14
-1.38863e-13
2.01998e-14
4.50195e-14
1.22201e-13
7.24351e-14
2.92405e-14
-1.79991e-14
-3.23641e-14
5.0375e-14
-1.55664e-14
-4.16899e-14
-4.34659e-14
2.64719e-14
5.93969e-15
-1.41762e-14
-4.44228e-14
-1.78881e-14
-3.66176e-14
1.49186e-14
-3.21913e-14
-7.30218e-14
-7.13705e-15
-6.38476e-14
-2.92702e-13
-1.82448e-13
-2.39145e-13
-1.37095e-13
-4.07064e-14
-2.66631e-14
-3.12136e-14
-9.54952e-14
-1.68923e-13
-8.83405e-14
-4.84491e-14
2.51032e-14
8.34173e-14
-2.97301e-15
-3.28168e-14
-2.38504e-14
-4.21278e-14
4.72788e-14
1.03608e-13
1.11941e-13
1.27964e-13
1.22135e-13
1.48766e-13
2.11758e-13
3.21087e-13
2.57943e-13
2.46669e-13
1.67624e-13
1.5324e-13
1.39349e-13
-2.53214e-14
-1.19331e-13
-1.46061e-13
-2.62269e-13
-1.88667e-13
-9.44405e-14
-7.52808e-14
-8.56471e-14
-7.67688e-15
3.56145e-14
9.54616e-15
-3.98782e-14
-1.7824e-13
-1.88179e-13
-6.59431e-14
7.63118e-14
1.52709e-13
1.04561e-13
5.51639e-14
1.06351e-13
1.40088e-13
1.30728e-13
1.32026e-13
2.00652e-13
1.00712e-13
1.30112e-13
1.15789e-14
-5.04076e-14
-8.84821e-14
-1.53875e-13
-2.10081e-13
-1.49857e-13
-9.69388e-14
-1.87028e-14
7.39058e-14
-7.2831e-14
-1.53441e-13
-1.89266e-13
-1.97366e-13
-2.46571e-14
8.79269e-14
1.5445e-13
9.13068e-14
6.80768e-14
1.17009e-13
1.40088e-13
1.30728e-13
1.32026e-13
2.00652e-13
1.00712e-13
1.46919e-13
5.03132e-14
-6.75599e-14
-1.82027e-13
-2.35047e-13
-2.24389e-13
-1.75364e-13
-5.55819e-14
2.15997e-14
9.95589e-14
3.69357e-14
-4.04406e-14
-1.15514e-13
-1.19871e-13
-1.31367e-13
-1.37148e-13
-1.71151e-13
-7.74295e-14
-1.5951e-13
-1.70243e-13
-2.46149e-13
-5.28574e-14
-1.13962e-13
-2.74225e-13
-1.50344e-13
-1.3888e-13
)
;

boundaryField
{
    sides
    {
        type            calculated;
        value           nonuniform List<scalar> 2(-1.16415e-13 1.62981e-12);
    }
    empty
    {
        type            empty;
    }
}


// ************************************************************************* //
