/*--------------------------------*- C++ -*----------------------------------*\
  =========                 |
  \\      /  F ield         | OpenFOAM: The Open Source CFD Toolbox
   \\    /   O peration     | Website:  https://openfoam.org
    \\  /    A nd           | Version:  13
     \\/     M anipulation  |
\*---------------------------------------------------------------------------*/
FoamFile
{
    format      ascii;
    class       volVectorField;
    location    "0.0005";
    object      U_0;
}
// * * * * * * * * * * * * * * * * * * * * * * * * * * * * * * * * * * * * * //

dimensions      [0 1 -1 0 0 0 0];

internalField   nonuniform List<vector> 
1000
(
(-4.27894e-13 0 0)
(-2.72296e-13 0 0)
(-1.31286e-13 0 0)
(4.86243e-14 0 0)
(-5.34868e-14 0 0)
(9.72486e-15 0 0)
(1.45873e-14 0 0)
(1.84772e-13 0 0)
(-1.70185e-13 0 0)
(3.88995e-14 0 0)
(1.45873e-13 0 0)
(2.33397e-13 0 0)
(2.04222e-13 0 0)
(1.36148e-13 0 0)
(-7.77989e-14 0 0)
(-7.29365e-14 0 0)
(-6.32116e-14 0 0)
(-1.6046e-13 0 0)
(-1.94497e-14 0 0)
(-4.86243e-15 0 0)
(2.43122e-14 0 0)
(9.72486e-14 0 0)
(1.45873e-13 0 0)
(-1.7991e-13 0 0)
(-2.82021e-13 0 0)
(1.45873e-14 0 0)
(1.89635e-13 0 0)
(1.55598e-13 0 0)
(9.72486e-15 0 0)
(-7.29365e-14 0 0)
(1.02111e-13 0 0)
(1.26423e-13 0 0)
(1.02111e-13 0 0)
(-6.8074e-14 0 0)
(-1.02111e-13 0 0)
(-2.09085e-13 0 0)
(1.94497e-13 0 0)
(1.12334e-27 0 0)
(-4.37619e-14 0 0)
(-5.34868e-14 0 0)
(-2.52846e-13 0 0)
(9.72486e-15 0 0)
(-4.86243e-15 0 0)
(8.26613e-14 0 0)
(4.86243e-14 0 0)
(-9.72486e-15 0 0)
(9.72486e-14 0 0)
(1.45873e-13 0 0)
(-1.7991e-13 0 0)
(-2.82021e-13 0 0)
(1.45873e-14 0 0)
(1.89635e-13 0 0)
(1.55598e-13 0 0)
(9.72486e-15 0 0)
(-7.29365e-14 0 0)
(1.02111e-13 0 0)
(1.26423e-13 0 0)
(1.02111e-13 0 0)
(-6.8074e-14 0 0)
(-1.02111e-13 0 0)
(-2.09085e-13 0 0)
(1.94497e-13 0 0)
(1.12334e-27 0 0)
(-4.37619e-14 0 0)
(-5.34868e-14 0 0)
(-2.52846e-13 0 0)
(9.72486e-15 0 0)
(-4.86243e-15 0 0)
(6.32116e-14 0 0)
(9.72486e-14 0 0)
(9.72486e-15 0 0)
(1.89635e-13 0 0)
(2.04222e-13 0 0)
(-1.21561e-13 0 0)
(-2.91746e-14 0 0)
(-1.16698e-13 0 0)
(-2.23672e-13 0 0)
(-1.31286e-13 0 0)
(-6.8074e-14 0 0)
(-8.26613e-14 0 0)
(1.26423e-13 0 0)
(-2.91746e-14 0 0)
(1.9936e-13 0 0)
(8.75238e-14 0 0)
(6.8074e-14 0 0)
(2.47984e-13 0 0)
(1.9936e-13 0 0)
(4.86243e-15 0 0)
(-8.75238e-14 0 0)
(-2.57709e-13 0 0)
(4.86243e-15 0 0)
(-1.55598e-13 0 0)
(-7.77989e-14 0 0)
(-3.45233e-13 0 0)
(-1.45873e-13 0 0)
(7.77989e-14 0 0)
(2.91746e-14 0 0)
(4.86243e-15 0 0)
(-9.72486e-14 0 0)
(-3.88995e-14 0 0)
(-3.88995e-14 0 0)
(3.88995e-14 0 0)
(-1.26423e-13 0 0)
(-1.45873e-13 0 0)
(-1.36148e-13 0 0)
(-1.31286e-13 0 0)
(-2.43122e-14 0 0)
(-2.13947e-13 0 0)
(-1.16698e-13 0 0)
(1.45873e-14 0 0)
(9.72486e-14 0 0)
(2.09085e-13 0 0)
(4.37619e-14 0 0)
(1.7991e-13 0 0)
(3.88995e-14 0 0)
(1.89635e-13 0 0)
(-3.88995e-14 0 0)
(8.75238e-14 0 0)
(9.72486e-15 0 0)
(-1.6046e-13 0 0)
(-2.77159e-13 0 0)
(-8.75238e-14 0 0)
(-8.26613e-14 0 0)
(-2.43122e-14 0 0)
(-1.94497e-14 0 0)
(3.88995e-14 0 0)
(8.75238e-14 0 0)
(-5.83492e-14 0 0)
(-9.23862e-14 0 0)
(-2.43122e-13 0 0)
(9.23862e-14 0 0)
(-1.06974e-13 0 0)
(-1.94497e-14 0 0)
(-3.4037e-14 0 0)
(7.77989e-14 0 0)
(2.33397e-13 0 0)
(1.41011e-13 0 0)
(7.77989e-14 0 0)
(2.91746e-13 0 0)
(-5.34868e-14 0 0)
(1.7991e-13 0 0)
(-5.83492e-14 0 0)
(8.75238e-14 0 0)
(9.72486e-15 0 0)
(-1.6046e-13 0 0)
(-2.77159e-13 0 0)
(-8.75238e-14 0 0)
(-8.26613e-14 0 0)
(-2.43122e-14 0 0)
(-1.94497e-14 0 0)
(3.88995e-14 0 0)
(8.75238e-14 0 0)
(-5.83492e-14 0 0)
(-9.23862e-14 0 0)
(-2.43122e-13 0 0)
(9.23862e-14 0 0)
(-1.06974e-13 0 0)
(-1.94497e-14 0 0)
(-3.4037e-14 0 0)
(7.77989e-14 0 0)
(2.33397e-13 0 0)
(1.41011e-13 0 0)
(7.77989e-14 0 0)
(2.91746e-13 0 0)
(-5.34868e-14 0 0)
(1.7991e-13 0 0)
(-5.83492e-14 0 0)
(9.72486e-14 0 0)
(4.37619e-14 0 0)
(-9.72486e-14 0 0)
(4.86243e-15 0 0)
(1.65323e-13 0 0)
(7.77989e-14 0 0)
(3.4037e-14 0 0)
(-5.34868e-14 0 0)
(-1.41011e-13 0 0)
(2.52846e-13 0 0)
(-1.9936e-13 0 0)
(-6.32116e-14 0 0)
(-2.38259e-13 0 0)
(5.83492e-14 0 0)
(2.91746e-14 0 0)
(7.77989e-14 0 0)
(3.88995e-14 0 0)
(1.02111e-13 0 0)
(-1.7991e-13 0 0)
(-7.29365e-14 0 0)
(-8.26613e-14 0 0)
(-3.4037e-14 0 0)
(7.77989e-14 0 0)
(-4.35451e-28 0 0)
(-2.52846e-13 0 0)
(-1.16698e-13 0 0)
(-6.8074e-14 0 0)
(-1.75048e-13 0 0)
(-2.82021e-13 0 0)
(-1.21561e-13 0 0)
(-1.94497e-14 0 0)
(1.94497e-13 0 0)
(4.86243e-14 0 0)
(-1.06974e-13 0 0)
(2.96608e-13 0 0)
(-5.34868e-14 0 0)
(3.4037e-14 0 0)
(-2.91746e-14 0 0)
(-1.94497e-14 0 0)
(6.32116e-14 0 0)
(-1.41011e-13 0 0)
(-6.32116e-14 0 0)
(-2.57709e-13 0 0)
(5.34868e-14 0 0)
(4.86243e-14 0 0)
(-2.13947e-13 0 0)
(-1.11836e-13 0 0)
(4.86243e-15 0 0)
(7.77989e-14 0 0)
(5.83492e-14 0 0)
(1.7991e-13 0 0)
(8.26613e-14 0 0)
(3.06475e-28 0 0)
(1.45873e-14 0 0)
(-8.75238e-14 0 0)
(-1.75048e-13 0 0)
(-1.11836e-13 0 0)
(1.94497e-14 0 0)
(-4.37619e-14 0 0)
(-1.02111e-13 0 0)
(7.77989e-14 0 0)
(4.37619e-14 0 0)
(3.88995e-14 0 0)
(6.32116e-14 0 0)
(2.91746e-14 0 0)
(-3.88995e-14 0 0)
(1.9936e-13 0 0)
(-4.37619e-14 0 0)
(1.94497e-14 0 0)
(9.23862e-14 0 0)
(2.38259e-13 0 0)
(5.83492e-14 0 0)
(-1.21561e-13 0 0)
(-2.52846e-13 0 0)
(1.94497e-14 0 0)
(-2.33397e-13 0 0)
(-1.94497e-14 0 0)
(-1.94497e-14 0 0)
(9.72486e-15 0 0)
(-8.75238e-14 0 0)
(1.06974e-13 0 0)
(-9.72486e-14 0 0)
(3.88995e-14 0 0)
(2.38259e-13 0 0)
(1.94497e-13 0 0)
(1.06974e-13 0 0)
(2.67434e-13 0 0)
(4.86243e-15 0 0)
(1.31286e-13 0 0)
(1.31286e-13 0 0)
(-1.55598e-13 0 0)
(1.02111e-13 0 0)
(-2.33397e-13 0 0)
(-2.18809e-13 0 0)
(4.37619e-14 0 0)
(1.70185e-13 0 0)
(2.62571e-13 0 0)
(-2.91746e-14 0 0)
(-2.43122e-14 0 0)
(1.06974e-13 0 0)
(-2.57709e-13 0 0)
(-6.8074e-14 0 0)
(-1.16698e-13 0 0)
(-7.29365e-14 0 0)
(-1.21561e-13 0 0)
(9.72486e-14 0 0)
(-1.70185e-13 0 0)
(-1.45873e-14 0 0)
(-1.45873e-14 0 0)
(3.7927e-13 0 0)
(9.72486e-15 0 0)
(1.16698e-13 0 0)
(-6.32116e-14 0 0)
(-9.5274e-29 0 0)
(-3.4037e-14 0 0)
(-8.75238e-14 0 0)
(1.6046e-13 0 0)
(-1.7991e-13 0 0)
(-1.31286e-13 0 0)
(-3.20921e-13 0 0)
(-1.50735e-13 0 0)
(4.37619e-14 0 0)
(2.43122e-14 0 0)
(-5.34868e-14 0 0)
(6.8074e-14 0 0)
(-1.11836e-13 0 0)
(-2.18809e-13 0 0)
(-2.28534e-13 0 0)
(-2.91746e-14 0 0)
(-2.33397e-13 0 0)
(1.50735e-13 0 0)
(3.4037e-14 0 0)
(-2.65057e-28 0 0)
(9.72486e-15 0 0)
(2.57709e-13 0 0)
(1.7991e-13 0 0)
(-1.94497e-14 0 0)
(2.57709e-13 0 0)
(4.37619e-14 0 0)
(-4.86243e-15 0 0)
(2.13947e-13 0 0)
(2.09085e-13 0 0)
(3.69545e-13 0 0)
(5.15418e-13 0 0)
(3.84132e-13 0 0)
(1.41011e-13 0 0)
(-7.29365e-14 0 0)
(-2.18809e-13 0 0)
(-9.72486e-15 0 0)
(2.23672e-13 0 0)
(4.23032e-13 0 0)
(1.45873e-13 0 0)
(-2.91746e-14 0 0)
(1.7991e-13 0 0)
(3.45233e-13 0 0)
(2.43122e-14 0 0)
(-1.50735e-13 0 0)
(-2.38259e-13 0 0)
(-2.77159e-13 0 0)
(-7.29365e-14 0 0)
(2.23672e-13 0 0)
(1.9936e-13 0 0)
(3.25783e-13 0 0)
(1.45873e-13 0 0)
(1.89635e-13 0 0)
(4.86243e-14 0 0)
(-2.47984e-13 0 0)
(-2.96608e-13 0 0)
(-3.93857e-13 0 0)
(-3.01471e-13 0 0)
(-2.33397e-13 0 0)
(4.86243e-15 0 0)
(-1.31286e-13 0 0)
(-1.41011e-13 0 0)
(2.91746e-14 0 0)
(1.02111e-13 0 0)
(-1.31286e-13 0 0)
(-6.32116e-14 0 0)
(-2.04222e-13 0 0)
(-8.75238e-14 0 0)
(1.45873e-13 0 0)
(9.23862e-14 0 0)
(-7.77989e-14 0 0)
(-4.86243e-14 0 0)
(2.72296e-13 0 0)
(1.45873e-13 0 0)
(1.55598e-13 0 0)
(5.83492e-14 0 0)
(3.88995e-14 0 0)
(-6.8074e-14 0 0)
(1.21561e-13 0 0)
(1.06974e-13 0 0)
(-4.86243e-15 0 0)
(-6.32116e-14 0 0)
(-3.25783e-13 0 0)
(-1.45873e-14 0 0)
(-3.45233e-13 0 0)
(-5.25143e-13 0 0)
(-3.93857e-13 0 0)
(-5.44592e-13 0 0)
(-5.3973e-13 0 0)
(-4.61931e-13 0 0)
(-1.7991e-13 0 0)
(-7.29365e-14 0 0)
(-1.94497e-13 0 0)
(5.34868e-14 0 0)
(1.45873e-13 0 0)
(4.86243e-14 0 0)
(3.88995e-14 0 0)
(-2.43122e-13 0 0)
(-7.77989e-14 0 0)
(-4.86243e-14 0 0)
(5.34868e-14 0 0)
(1.70185e-13 0 0)
(-1.45873e-14 0 0)
(9.72486e-15 0 0)
(1.31286e-13 0 0)
(9.23862e-14 0 0)
(1.65323e-13 0 0)
(2.38259e-13 0 0)
(1.26423e-13 0 0)
(1.6046e-13 0 0)
(1.94497e-13 0 0)
(1.21561e-13 0 0)
(1.11836e-13 0 0)
(2.38259e-13 0 0)
(1.55598e-13 0 0)
(3.26588e-28 0 0)
(1.89635e-13 0 0)
(3.50095e-13 0 0)
(4.57069e-13 0 0)
(2.38259e-13 0 0)
(2.47984e-13 0 0)
(1.75048e-13 0 0)
(1.70185e-13 0 0)
(2.77159e-13 0 0)
(2.28534e-13 0 0)
(-2.13947e-13 0 0)
(-3.88995e-13 0 0)
(-5.25143e-13 0 0)
(-4.03582e-13 0 0)
(-2.86883e-13 0 0)
(-2.43122e-14 0 0)
(2.47984e-13 0 0)
(3.35508e-13 0 0)
(4.13307e-13 0 0)
(4.37619e-14 0 0)
(-6.32116e-14 0 0)
(2.43122e-14 0 0)
(-2.43122e-14 0 0)
(-1.55598e-13 0 0)
(-3.4037e-13 0 0)
(-2.86883e-13 0 0)
(1.76705e-28 0 0)
(-3.64682e-13 0 0)
(-2.96608e-13 0 0)
(-7.29365e-14 0 0)
(2.82021e-13 0 0)
(4.37619e-13 0 0)
(3.64682e-13 0 0)
(4.32756e-13 0 0)
(3.50095e-13 0 0)
(2.91746e-13 0 0)
(2.43122e-13 0 0)
(9.72486e-14 0 0)
(-1.50735e-13 0 0)
(-3.4037e-14 0 0)
(-1.11836e-13 0 0)
(-2.72296e-13 0 0)
(-2.13947e-13 0 0)
(-3.30645e-13 0 0)
(-3.98719e-13 0 0)
(-3.45233e-13 0 0)
(-3.4037e-13 0 0)
(-1.6046e-13 0 0)
(2.43122e-14 0 0)
(-3.25783e-13 0 0)
(-1.89635e-13 0 0)
(-2.33397e-13 0 0)
(-4.86243e-14 0 0)
(-6.8074e-14 0 0)
(-2.18809e-13 0 0)
(-1.16698e-13 0 0)
(-6.8074e-14 0 0)
(-1.75048e-13 0 0)
(-2.43122e-14 0 0)
(5.25143e-13 0 0)
(1.89149e-12 0 0)
(8.52384e-12 0 0)
(3.75282e-11 0 0)
(1.66524e-10 0 0)
(7.22164e-10 0 0)
(3.05745e-09 0 0)
(1.26375e-08 0 0)
(5.09488e-08 0 0)
(2.00157e-07 0 0)
(7.65351e-07 0 0)
(2.84489e-06 0 0)
(1.02659e-05 0 0)
(3.5909e-05 0 0)
(0.000121557 0 0)
(0.000397497 0 0)
(0.0012531 0 0)
(0.00379971 0 0)
(0.0110536 0 0)
(0.0307592 0 0)
(0.0816023 0 0)
(0.2056 0 0)
(0.489847 0 0)
(1.09837 0 0)
(2.30632 0 0)
(4.51289 0 0)
(8.19376 0 0)
(13.7579 0 0)
(21.3297 0 0)
(30.6512 0 0)
(41.2917 0 0)
(52.909 0 0)
(65.2857 0 0)
(78.2735 0 0)
(91.7654 0 0)
(105.681 0 0)
(119.956 0 0)
(134.535 0 0)
(149.366 0 0)
(164.403 0 0)
(179.593 0 0)
(194.881 0 0)
(210.209 0 0)
(225.502 0 0)
(240.673 0 0)
(255.611 0 0)
(270.158 0 0)
(284.087 0 0)
(297.077 0 0)
(308.689 0 0)
(318.281 0 0)
(324.936 0 0)
(327.476 0 0)
(324.784 0 0)
(316.493 0 0)
(303.379 0 0)
(288.464 0 0)
(277.701 0 0)
(276.406 0 0)
(284.794 0 0)
(296.858 0 0)
(303.711 0 0)
(300.954 0 0)
(293.023 0 0)
(287.973 0 0)
(288.295 0 0)
(290.364 0 0)
(292.481 0 0)
(295.182 0 0)
(293.135 0 0)
(285.999 0 0)
(290.942 0 0)
(293.991 0 0)
(236.696 0 0)
(113.532 0 0)
(28.0793 0 0)
(5.03413 0 0)
(0.843599 0 0)
(0.137917 0 0)
(0.0225756 0 0)
(0.00369137 0 0)
(0.000602353 0 0)
(9.80699e-05 0 0)
(1.59297e-05 0 0)
(2.58128e-06 0 0)
(4.17243e-07 0 0)
(6.72719e-08 0 0)
(1.08174e-08 0 0)
(1.73466e-09 0 0)
(2.77422e-10 0 0)
(4.42433e-11 0 0)
(7.08457e-12 0 0)
(1.09405e-12 0 0)
(1.55598e-13 0 0)
(9.72488e-15 0 0)
(-4.60994e-32 0 0)
(4.57029e-51 0 0)
(7.224e-51 0 0)
(-4.21011e-48 0 0)
(4.73498e-46 0 0)
(1.13247e-30 0 0)
(-1.46433e-28 0 0)
(-1.6046e-13 0 0)
(6.80741e-14 0 0)
(-8.26615e-14 0 0)
(-1.31286e-13 0 0)
(2.62572e-13 0 0)
(4.86244e-13 0 0)
(3.7927e-13 0 0)
(2.52847e-13 0 0)
(1.02111e-13 0 0)
(-8.75239e-14 0 0)
(5.34868e-14 0 0)
(2.47984e-13 0 0)
(9.72488e-14 0 0)
(9.72488e-14 0 0)
(-4.86244e-15 0 0)
(-2.33397e-13 0 0)
(-9.23863e-14 0 0)
(-2.43122e-14 0 0)
(-2.33397e-13 0 0)
(-1.75048e-13 0 0)
(-1.75048e-13 0 0)
(-1.45873e-14 0 0)
(-1.16699e-13 0 0)
(-5.83493e-14 0 0)
(-2.96609e-13 0 0)
(-1.94498e-14 0 0)
(-1.11836e-13 0 0)
(-4.86244e-14 0 0)
(-1.45873e-14 0 0)
(4.86244e-15 0 0)
(1.11836e-13 0 0)
(3.20921e-13 0 0)
(2.43122e-13 0 0)
(8.26615e-14 0 0)
(-1.11836e-13 0 0)
(4.86244e-15 0 0)
(-4.86244e-14 0 0)
(4.86244e-14 0 0)
(1.41011e-13 0 0)
(4.3762e-14 0 0)
(-2.86884e-13 0 0)
(-1.75048e-13 0 0)
(-1.9936e-13 0 0)
(5.83493e-14 0 0)
(3.40371e-14 0 0)
(-8.75239e-14 0 0)
(-1.94498e-13 0 0)
(-4.86244e-14 0 0)
(-2.04222e-13 0 0)
(-1.45873e-13 0 0)
(-3.54958e-13 0 0)
(-4.86244e-14 0 0)
(-3.88995e-14 0 0)
(4.86244e-15 0 0)
(-4.86244e-14 0 0)
(3.40371e-14 0 0)
(2.3826e-13 0 0)
(2.33397e-13 0 0)
(2.91746e-13 0 0)
(1.31286e-13 0 0)
(2.70831e-29 0 0)
(-4.59561e-29 0 0)
(-2.91746e-14 0 0)
(1.36148e-13 0 0)
(1.45873e-13 0 0)
(-2.52847e-13 0 0)
(2.29509e-28 0 0)
(-7.68097e-30 0 0)
(-1.75818e-28 0 0)
(1.50736e-13 0 0)
(-4.86244e-15 0 0)
(1.7991e-13 0 0)
(-7.7799e-14 0 0)
(-1.26423e-13 0 0)
(-1.26423e-13 0 0)
(4.86244e-15 0 0)
(-2.47033e-29 0 0)
(9.72488e-14 0 0)
(1.55598e-13 0 0)
(1.55598e-13 0 0)
(-2.43122e-14 0 0)
(3.50096e-13 0 0)
(9.23863e-14 0 0)
(1.45873e-13 0 0)
(2.04222e-13 0 0)
(2.09085e-13 0 0)
(-1.70185e-13 0 0)
(9.72488e-15 0 0)
(6.80741e-14 0 0)
(-4.86244e-14 0 0)
(-3.40371e-14 0 0)
(-1.16699e-13 0 0)
(-3.88995e-14 0 0)
(-1.89635e-13 0 0)
(-9.72488e-14 0 0)
(-3.50096e-13 0 0)
(-2.47984e-13 0 0)
(-3.54958e-13 0 0)
(4.86244e-15 0 0)
(-2.43122e-14 0 0)
(1.50736e-13 0 0)
(-2.91746e-13 0 0)
(3.45233e-13 0 0)
(-1.84773e-13 0 0)
(1.84773e-13 0 0)
(-2.04222e-13 0 0)
(2.91746e-14 0 0)
(-1.65323e-13 0 0)
(-1.94498e-13 0 0)
(-1.7991e-13 0 0)
(-1.65323e-13 0 0)
(5.34868e-14 0 0)
(1.36148e-13 0 0)
(-3.88995e-14 0 0)
(9.72488e-14 0 0)
(1.75048e-13 0 0)
(-5.34868e-14 0 0)
(-1.07167e-28 0 0)
(-1.02111e-13 0 0)
(-8.26615e-14 0 0)
(6.32117e-14 0 0)
(1.36148e-13 0 0)
(-2.52847e-13 0 0)
(-2.09085e-13 0 0)
(1.26423e-13 0 0)
(-4.86244e-14 0 0)
(-4.86244e-14 0 0)
(-7.29366e-14 0 0)
(-1.16699e-13 0 0)
(2.91746e-13 0 0)
(2.1881e-13 0 0)
(1.50736e-13 0 0)
(1.6046e-13 0 0)
(-7.7799e-14 0 0)
(-1.21561e-13 0 0)
(-1.55598e-13 0 0)
(6.80741e-14 0 0)
(1.45873e-14 0 0)
(1.06974e-13 0 0)
(-7.7799e-14 0 0)
(1.16699e-13 0 0)
(-2.3826e-13 0 0)
(-2.91746e-14 0 0)
(-7.29366e-14 0 0)
(-8.75239e-14 0 0)
(-5.83493e-14 0 0)
(9.72488e-14 0 0)
(-8.26615e-14 0 0)
(-4.86244e-14 0 0)
(3.40371e-14 0 0)
(1.50736e-13 0 0)
(3.54958e-13 0 0)
(1.45873e-14 0 0)
(-1.89635e-13 0 0)
(-1.50736e-13 0 0)
(2.91746e-14 0 0)
(2.43122e-13 0 0)
(3.5982e-13 0 0)
(6.32117e-14 0 0)
(1.16699e-13 0 0)
(-1.45873e-14 0 0)
(2.28535e-13 0 0)
(-2.67434e-13 0 0)
(1.02111e-13 0 0)
(-3.20921e-13 0 0)
(-1.21561e-13 0 0)
(-4.3762e-14 0 0)
(9.72488e-14 0 0)
(-1.75048e-13 0 0)
(4.32757e-13 0 0)
(-1.26423e-13 0 0)
(2.43122e-13 0 0)
(4.3762e-14 0 0)
(1.31286e-13 0 0)
(-7.7799e-14 0 0)
(-1.7991e-13 0 0)
(-2.1881e-13 0 0)
(-5.34868e-14 0 0)
(2.91746e-14 0 0)
(6.80741e-14 0 0)
(5.73141e-30 0 0)
(4.3762e-14 0 0)
(1.50736e-13 0 0)
(-6.32117e-14 0 0)
(6.32117e-14 0 0)
(-4.03582e-13 0 0)
(-1.89635e-13 0 0)
(-2.33397e-13 0 0)
(1.21561e-13 0 0)
(1.26423e-13 0 0)
(1.50736e-13 0 0)
(-4.86244e-14 0 0)
(-9.23863e-14 0 0)
(-3.5982e-13 0 0)
(-1.9936e-13 0 0)
(-4.03582e-13 0 0)
(-2.47984e-13 0 0)
(3.25783e-13 0 0)
(4.23032e-13 0 0)
(5.34868e-14 0 0)
(-9.23863e-14 0 0)
(-3.45233e-13 0 0)
(-3.16059e-13 0 0)
(-3.84133e-13 0 0)
(-3.54958e-13 0 0)
(-1.16699e-13 0 0)
(1.7991e-13 0 0)
(3.20921e-13 0 0)
(4.86244e-14 0 0)
(-1.36148e-13 0 0)
(1.94498e-14 0 0)
(-3.45233e-13 0 0)
(-1.11836e-13 0 0)
(1.06974e-13 0 0)
(-1.16699e-13 0 0)
(-3.30646e-13 0 0)
(-7.29366e-14 0 0)
(2.04222e-13 0 0)
(-1.94498e-14 0 0)
(2.04222e-13 0 0)
(-1.36148e-13 0 0)
(-9.23863e-14 0 0)
(5.34868e-14 0 0)
(2.09085e-13 0 0)
(1.89635e-13 0 0)
(2.52847e-13 0 0)
(2.1881e-13 0 0)
(3.16059e-13 0 0)
(2.33397e-13 0 0)
(3.54958e-13 0 0)
(7.29366e-14 0 0)
(2.72297e-13 0 0)
(2.1881e-13 0 0)
(1.94498e-13 0 0)
(8.20781e-28 0 0)
(-7.29366e-14 0 0)
(-2.47984e-13 0 0)
(-2.57709e-13 0 0)
(-2.47984e-13 0 0)
(-3.84133e-13 0 0)
(-4.52207e-13 0 0)
(-4.13307e-13 0 0)
(-2.09085e-13 0 0)
(-4.13307e-13 0 0)
(-1.36148e-13 0 0)
(-2.91746e-13 0 0)
(-1.65323e-13 0 0)
(3.16059e-13 0 0)
(4.08445e-13 0 0)
(2.67434e-13 0 0)
(2.28535e-13 0 0)
(-7.29366e-14 0 0)
(4.86244e-13 0 0)
(2.43122e-14 0 0)
(6.1753e-13 0 0)
(2.72297e-13 0 0)
(4.91106e-13 0 0)
(7.7799e-14 0 0)
(2.09085e-13 0 0)
(1.7991e-13 0 0)
(2.04222e-13 0 0)
(-1.31286e-13 0 0)
(4.3762e-14 0 0)
(-1.26423e-13 0 0)
(1.94498e-14 0 0)
(-6.32117e-14 0 0)
(-1.94498e-14 0 0)
(1.06974e-13 0 0)
(1.94498e-14 0 0)
(1.41011e-13 0 0)
(8.26615e-14 0 0)
(8.26615e-14 0 0)
(-1.7991e-13 0 0)
(1.11836e-13 0 0)
(3.40371e-14 0 0)
(-4.3762e-14 0 0)
(-1.89635e-13 0 0)
(9.23863e-14 0 0)
(3.47099e-29 0 0)
(2.91746e-14 0 0)
(-7.29366e-14 0 0)
(-7.29366e-14 0 0)
(-9.72488e-15 0 0)
(-2.91746e-14 0 0)
(1.7991e-13 0 0)
(1.89635e-13 0 0)
(-1.36148e-13 0 0)
(-9.34011e-28 0 0)
(-2.47984e-13 0 0)
(-1.94498e-14 0 0)
(-1.70185e-13 0 0)
(-1.45873e-13 0 0)
(1.36148e-13 0 0)
(1.36148e-13 0 0)
(2.91746e-13 0 0)
(5.83493e-14 0 0)
(8.26615e-14 0 0)
(-1.94498e-13 0 0)
(1.02111e-13 0 0)
(3.40371e-14 0 0)
(-4.3762e-14 0 0)
(-1.89635e-13 0 0)
(9.23863e-14 0 0)
(3.47099e-29 0 0)
(2.91746e-14 0 0)
(-7.29366e-14 0 0)
(-7.29366e-14 0 0)
(-9.72488e-15 0 0)
(-2.91746e-14 0 0)
(1.7991e-13 0 0)
(1.89635e-13 0 0)
(-1.36148e-13 0 0)
(-9.34011e-28 0 0)
(-2.47984e-13 0 0)
(-1.94498e-14 0 0)
(-1.70185e-13 0 0)
(-1.45873e-13 0 0)
(1.36148e-13 0 0)
(1.36148e-13 0 0)
(2.91746e-13 0 0)
(5.83493e-14 0 0)
(8.26615e-14 0 0)
(-1.94498e-13 0 0)
(1.02111e-13 0 0)
(3.40371e-14 0 0)
(-4.3762e-14 0 0)
(-1.89635e-13 0 0)
(9.23863e-14 0 0)
(3.47099e-29 0 0)
(2.91746e-14 0 0)
(-7.29366e-14 0 0)
(-7.29366e-14 0 0)
(-1.94498e-14 0 0)
(-2.91746e-14 0 0)
(1.45873e-14 0 0)
(-1.16699e-13 0 0)
(-1.16699e-13 0 0)
(7.29366e-14 0 0)
(-4.91106e-13 0 0)
(-3.93858e-13 0 0)
(-5.34868e-13 0 0)
(-3.45233e-13 0 0)
(-2.1881e-13 0 0)
(-4.86244e-15 0 0)
(-3.40371e-14 0 0)
(-1.89635e-13 0 0)
(-2.09085e-13 0 0)
(-3.64683e-13 0 0)
(-5.34868e-14 0 0)
(-3.40371e-14 0 0)
(1.50736e-13 0 0)
(1.06974e-13 0 0)
(-8.26615e-14 0 0)
(-8.26615e-14 0 0)
(-1.11836e-13 0 0)
(-4.86244e-15 0 0)
(1.89635e-13 0 0)
(2.1881e-13 0 0)
(2.33397e-13 0 0)
(1.75048e-13 0 0)
(3.30646e-13 0 0)
(2.86884e-13 0 0)
(5.10556e-13 0 0)
(6.71017e-13 0 0)
(4.66794e-13 0 0)
(3.54958e-13 0 0)
(3.45233e-13 0 0)
(2.77159e-13 0 0)
(1.26423e-13 0 0)
(-1.65323e-13 0 0)
(-2.57709e-13 0 0)
(-4.23032e-13 0 0)
(-4.57069e-13 0 0)
(-3.74408e-13 0 0)
(-1.21561e-13 0 0)
(-2.47984e-13 0 0)
(-6.32117e-14 0 0)
(1.06974e-13 0 0)
(6.32117e-14 0 0)
(-2.91746e-14 0 0)
(-2.47984e-13 0 0)
(-3.7927e-13 0 0)
(-2.1881e-13 0 0)
(-6.32117e-14 0 0)
(3.01471e-13 0 0)
(2.82021e-13 0 0)
(7.29366e-14 0 0)
(1.02111e-13 0 0)
(3.01471e-13 0 0)
(2.23672e-13 0 0)
(2.72297e-13 0 0)
(3.20921e-13 0 0)
(3.35508e-13 0 0)
(1.45873e-13 0 0)
(1.89635e-13 0 0)
(-5.83493e-14 0 0)
(-1.55598e-13 0 0)
(-1.89635e-13 0 0)
(-4.3762e-13 0 0)
(-3.11196e-13 0 0)
(-3.20921e-13 0 0)
(-1.45873e-13 0 0)
(1.75048e-13 0 0)
(1.45873e-14 0 0)
(-2.28535e-13 0 0)
(-3.84133e-13 0 0)
(-4.3762e-13 0 0)
(-1.31286e-13 0 0)
(6.41474e-28 0 0)
(3.16059e-13 0 0)
(2.67434e-13 0 0)
(8.75239e-14 0 0)
(1.41011e-13 0 0)
(3.11196e-13 0 0)
(2.23672e-13 0 0)
(2.72297e-13 0 0)
(3.20921e-13 0 0)
(3.35508e-13 0 0)
(1.55598e-13 0 0)
(2.67434e-13 0 0)
(-6.31089e-29 0 0)
(-3.11196e-13 0 0)
(-3.69545e-13 0 0)
(-5.44593e-13 0 0)
(-3.7927e-13 0 0)
(-2.86884e-13 0 0)
(-5.34868e-14 0 0)
(1.84773e-13 0 0)
(1.50736e-13 0 0)
(-5.34868e-14 0 0)
(-9.72488e-14 0 0)
(-2.33397e-13 0 0)
(-3.30646e-13 0 0)
(-2.1881e-13 0 0)
(-3.88995e-13 0 0)
(-1.65323e-13 0 0)
(-1.41011e-13 0 0)
(-4.1817e-13 0 0)
(-3.69545e-13 0 0)
(-3.16059e-13 0 0)
(-1.94498e-14 0 0)
(-4.61932e-13 0 0)
(-4.03582e-13 0 0)
(-3.74408e-13 0 0)
(-2.23672e-13 0 0)
)
;

boundaryField
{
    sides
    {
        type            calculated;
        value           nonuniform List<vector> 2((-2.23672e-13 0 0) (-4.27894e-13 0 0));
    }
    empty
    {
        type            empty;
    }
}


// ************************************************************************* //
