/*--------------------------------*- C++ -*----------------------------------*\
  =========                 |
  \\      /  F ield         | OpenFOAM: The Open Source CFD Toolbox
   \\    /   O peration     | Website:  https://openfoam.org
    \\  /    A nd           | Version:  13
     \\/     M anipulation  |
\*---------------------------------------------------------------------------*/
FoamFile
{
    format      ascii;
    class       volScalarField;
    location    "6.102726";
    object      p;
}
// * * * * * * * * * * * * * * * * * * * * * * * * * * * * * * * * * * * * * //

dimensions      [0 2 -2 0 0 0 0];

internalField   nonuniform List<scalar> 
17140
(
-0.11507747
-0.11530028
-0.11556906
-0.11584121
-0.11613429
-0.11645243
-0.11679545
-0.1171636
-0.11755722
-0.11797655
-0.11842183
-0.11889366
-0.1193934
-0.11992391
-0.12049053
-0.12110245
-0.12177446
-0.12252922
-0.12339986
-0.12443306
-0.12569225
-0.12726117
-0.12925043
-0.13180286
-0.13504065
-0.13900149
-0.1437727
-0.1496086
-0.15677755
-0.16552638
-0.17614993
-0.18897256
-0.20434925
-0.22266592
-0.24433413
-0.2697791
-0.2994199
-0.33364025
-0.37274823
-0.4169226
-0.46614755
-0.52014885
-0.57828872
-0.63931013
-0.70132885
-0.76179839
-0.81699818
-0.86233154
-0.88900794
-0.89128875
-0.86195246
-0.79384454
-0.6906988
-0.55792792
-0.40381802
-0.23388028
-0.069700742
0.06425993
0.14832459
0.18014483
0.17317619
0.14710513
0.11626884
0.087321286
0.064617558
-0.11899102
-0.11920899
-0.11947162
-0.11973803
-0.12002499
-0.12033652
-0.12067246
-0.12103302
-0.12141852
-0.12182914
-0.12226506
-0.12272676
-0.12321549
-0.12373392
-0.12428716
-0.1248841
-0.1255392
-0.12627473
-0.12712337
-0.12813135
-0.12936167
-0.13089759
-0.13284887
-0.13535776
-0.1385513
-0.14247003
-0.14719413
-0.15297678
-0.16009041
-0.16878153
-0.17934564
-0.1921079
-0.20742422
-0.22568157
-0.24729277
-0.27268435
-0.30227672
-0.33645482
-0.37552767
-0.41967466
-0.46888135
-0.52287615
-0.58102147
-0.6420639
-0.70417577
-0.76481614
-0.82028511
-0.86572835
-0.89331921
-0.89580455
-0.86602885
-0.79822211
-0.69495638
-0.5624079
-0.40875276
-0.23902463
-0.074631639
0.059697824
0.14432055
0.17671732
0.1702271
0.14472724
0.11452563
0.086080113
0.064260849
-0.128516
-0.128722
-0.12896968
-0.12922199
-0.12949395
-0.12978927
-0.13010784
-0.13044983
-0.13081546
-0.13120481
-0.13161788
-0.13205493
-0.13251687
-0.13300596
-0.13352673
-0.13408737
-0.1347015
-0.13539038
-0.13618564
-0.13713233
-0.13829233
-0.13974773
-0.14160629
-0.1440085
-0.14709264
-0.15090663
-0.15551569
-0.16116794
-0.16814552
-0.17669444
-0.18711183
-0.19972503
-0.21489238
-0.23300361
-0.25447441
-0.27973428
-0.30920635
-0.3432778
-0.38225913
-0.42633079
-0.47548164
-0.52944574
-0.5875869
-0.6486828
-0.71101054
-0.77202253
-0.82806919
-0.87410545
-0.90267274
-0.90623101
-0.87673037
-0.80871172
-0.70518636
-0.57303483
-0.42042908
-0.25115356
-0.086378086
0.048775616
0.13441605
0.1679007
0.1627121
0.13863304
0.10989556
0.082791866
0.061521722
-0.14342288
-0.14360994
-0.14383404
-0.14406398
-0.14431212
-0.14458172
-0.14487271
-0.14518522
-0.14551934
-0.14587497
-0.14625187
-0.14664997
-0.1470697
-0.14751266
-0.14798256
-0.14848649
-0.14903678
-0.14965315
-0.15036551
-0.1512171
-0.15226794
-0.15359825
-0.15531272
-0.15754877
-0.160461
-0.16410983
-0.16853899
-0.17398685
-0.18075005
-0.18907438
-0.19925896
-0.2116345
-0.22656294
-0.24443795
-0.26567934
-0.29072056
-0.31998813
-0.35387167
-0.39268274
-0.43660236
-0.48562373
-0.53948807
-0.59756327
-0.6587089
-0.72128268
-0.7827825
-0.83965524
-0.88680406
-0.91685595
-0.9216397
-0.89268249
-0.82452481
-0.72063173
-0.58920109
-0.43826771
-0.26984161
-0.10467367
0.031439023
0.1185692
0.15367789
0.15076679
0.12926615
0.10320415
0.078253226
0.059254481
-0.16315783
-0.16331944
-0.16351197
-0.16371175
-0.16392777
-0.16416267
-0.16441645
-0.16468919
-0.16498082
-0.16529104
-0.16561935
-0.16596525
-0.16632863
-0.1667103
-0.16711291
-0.16754223
-0.1680089
-0.16853067
-0.16913518
-0.16986322
-0.17077226
-0.17193995
-0.17346775
-0.17548826
-0.17816253
-0.18158028
-0.18578313
-0.19097104
-0.19744449
-0.20546735
-0.21533745
-0.22738983
-0.24199074
-0.2595383
-0.28045671
-0.30518355
-0.33414851
-0.36774284
-0.4062781
-0.44993493
-0.4987112
-0.55235938
-0.61026023
-0.67138305
-0.73415943
-0.79621036
-0.8540942
-0.90271095
-0.93469562
-0.94125314
-0.91308886
-0.84465259
-0.7400333
-0.60940217
-0.46056679
-0.29341386
-0.12785772
0.0091785173
0.097805724
0.13496784
0.13521108
0.11728674
0.094739763
0.07260836
0.055563091
-0.18682897
-0.18695949
-0.18711357
-0.18727634
-0.18745287
-0.1876451
-0.18785312
-0.18807694
-0.18831636
-0.18857087
-0.1888397
-0.18912197
-0.18941697
-0.1897247
-0.19004671
-0.19038727
-0.19075512
-0.19116573
-0.19164405
-0.19222785
-0.19297135
-0.19394893
-0.19525852
-0.19702685
-0.19941176
-0.20254334
-0.20647991
-0.21136616
-0.21748974
-0.22514774
-0.23463363
-0.2462872
-0.26047879
-0.27761096
-0.2981121
-0.32242328
-0.35097632
-0.38416278
-0.42229303
-0.46554698
-0.51392787
-0.5672062
-0.62479598
-0.68577471
-0.74869358
-0.81134363
-0.87042366
-0.92087952
-0.95523162
-0.96398866
-0.93686861
-0.86790084
-0.76232097
-0.63245032
-0.4859329
-0.32027034
-0.15475913
-0.016870456
0.073196363
0.11284618
0.11707657
0.10363541
0.085363222
0.066424535
0.052069809
-0.21324947
-0.21334499
-0.21345801
-0.21357818
-0.21370907
-0.21385214
-0.21400743
-0.21417487
-0.21435415
-0.2145446
-0.21474523
-0.21495484
-0.21517223
-0.21539668
-0.21562867
-0.21587105
-0.21613063
-0.21642045
-0.21676254
-0.21719127
-0.21775707
-0.21853032
-0.21960477
-0.22110071
-0.22316946
-0.22597983
-0.2296186
-0.23417296
-0.23991089
-0.247159
-0.25620895
-0.26740417
-0.2811185
-0.29775811
-0.31775449
-0.34155099
-0.36958021
-0.40223272
-0.43981723
-0.48251365
-0.53033213
-0.58306751
-0.64019004
-0.70089296
-0.76388224
-0.8271524
-0.88759618
-0.94024907
-0.97744816
-0.98890533
-0.96309835
-0.89338076
-0.78645139
-0.6570122
-0.51244422
-0.34876233
-0.18337792
-0.04483758
0.046282392
0.088649746
0.097475014
0.089052616
0.075353744
0.059754352
0.047879204
-0.24101836
-0.24107587
-0.24114445
-0.24121815
-0.24129918
-0.24138846
-0.241486
-0.24159168
-0.2417051
-0.24182552
-0.24195183
-0.24208266
-0.24221648
-0.24235208
-0.24248913
-0.24262928
-0.24277767
-0.24294507
-0.24315063
-0.24342521
-0.2438152
-0.24438641
-0.24522781
-0.24645435
-0.24820924
-0.250662
-0.25396004
-0.25820012
-0.26356501
-0.27037424
-0.27895937
-0.28965697
-0.30284507
-0.31893169
-0.33835006
-0.36154397
-0.38894515
-0.42094227
-0.45784245
-0.49982677
-0.54691632
-0.5989358
-0.65543967
-0.71574032
-0.77871578
-0.84261362
-0.90455596
-0.95969174
-1.0001445
-1.0147535
-0.9905211
-0.92000959
-0.81142029
-0.68208904
-0.5387488
-0.3771276
-0.21194171
-0.074332675
0.018510669
0.063655385
0.077368285
0.07417991
0.065127403
0.052815148
0.043556756
-0.26859624
-0.26861439
-0.26863691
-0.2686623
-0.26869139
-0.26872452
-0.26876169
-0.26880274
-0.26884724
-0.26889445
-0.26894328
-0.26899234
-0.26904009
-0.26908507
-0.26912657
-0.26916549
-0.26920575
-0.26925629
-0.26933376
-0.26946576
-0.26969464
-0.27008148
-0.27070991
-0.27168912
-0.27315547
-0.27527173
-0.27821437
-0.28212823
-0.28715725
-0.29355204
-0.3016659
-0.31185926
-0.324502
-0.3400014
-0.35879112
-0.38131404
-0.40799985
-0.43923514
-0.47532565
-0.516456
-0.56266472
-0.61380826
-0.66954698
-0.72930957
-0.79216053
-0.8566209
-0.92005711
-0.97774743
-1.0215723
-1.0394889
-1.0170066
-0.94569791
-0.8357972
-0.70600182
-0.56364197
-0.40321303
-0.23952211
-0.10174975
-0.0093372209
0.038873294
0.057473601
0.059380673
0.054753807
0.04557155
0.038741897
-0.29443687
-0.29441628
-0.29439334
-0.29437092
-0.29434844
-0.29432567
-0.2943026
-0.29427903
-0.29425454
-0.29422847
-0.29419988
-0.29416757
-0.29413019
-0.29408649
-0.2940358
-0.29397883
-0.29391895
-0.29386402
-0.29382885
-0.29383842
-0.29393155
-0.29416489
-0.29461673
-0.29539013
-0.29661486
-0.29844693
-0.30106289
-0.30464294
-0.30936463
-0.3154278
-0.32311773
-0.33281381
-0.34491274
-0.35981447
-0.37795136
-0.39976072
-0.42566797
-0.45605706
-0.4912332
-0.53138805
-0.57658115
-0.62670448
-0.68152028
-0.74057302
-0.80311902
-0.86792707
-0.93259301
-0.99250169
-1.0393227
-1.0602257
-1.0391081
-0.9676015
-0.85695668
-0.72706938
-0.5853547
-0.42606083
-0.26328739
-0.12639484
-0.035849828
0.01517212
0.038287901
0.044899067
0.044372938
0.038117785
0.033672897
-0.3171182
-0.31706161
-0.3169963
-0.31692913
-0.31685817
-0.31678266
-0.31670253
-0.31661754
-0.31652729
-0.31643125
-0.31632868
-0.31621875
-0.31610052
-0.31597327
-0.31583683
-0.31569235
-0.31554339
-0.3153976
-0.31526898
-0.31518086
-0.31516946
-0.31528778
-0.31560947
-0.31623182
-0.31727811
-0.31889763
-0.32126285
-0.32456059
-0.32898369
-0.33474291
-0.34209859
-0.35138505
-0.36298634
-0.37730961
-0.39478966
-0.41586259
-0.44094717
-0.47042402
-0.50459886
-0.54367086
-0.58771674
-0.6366773
-0.69038407
-0.74848852
-0.81042608
-0.87514867
-0.94042214
-1.0016983
-1.0504037
-1.0730806
-1.0532511
-0.9821913
-0.8720861
-0.74348503
-0.60228299
-0.44318809
-0.28336729
-0.15028617
-0.059848008
-0.0070441068
0.020066546
0.030837382
0.034005931
0.030465146
0.02828068
-0.33548188
-0.33539425
-0.33529224
-0.33518609
-0.33507264
-0.33495064
-0.3348199
-0.33468012
-0.3345309
-0.33437178
-0.33420228
-0.33402193
-0.33383037
-0.33362755
-0.33341417
-0.33319226
-0.33296626
-0.33274444
-0.33254102
-0.33237891
-0.332293
-0.33233398
-0.33257199
-0.33309978
-0.3340347
-0.33551931
-0.33772003
-0.34082318
-0.3450282
-0.35054738
-0.35762838
-0.36656884
-0.37773791
-0.39153686
-0.40838853
-0.42872268
-0.45295421
-0.48146078
-0.51454986
-0.55242937
-0.59519161
-0.6428196
-0.69518697
-0.75203314
-0.81292257
-0.87690093
-0.94181725
-1.0030887
-1.0521167
-1.0750981
-1.0560921
-0.98662348
-0.87922007
-0.75335978
-0.61263322
-0.45399829
-0.29882294
-0.17012905
-0.081518735
-0.027487646
0.0029530259
0.017279879
0.023745727
0.022711683
0.022710656
-0.34878135
-0.34866982
-0.3485394
-0.34840276
-0.34825579
-0.34809674
-0.34792529
-0.34774098
-0.34754333
-0.34733189
-0.34710631
-0.3468664
-0.34661226
-0.34634452
-0.34606472
-0.34577593
-0.34548369
-0.34519737
-0.34493208
-0.34471122
-0.34456955
-0.34455682
-0.34474135
-0.34521313
-0.34608571
-0.34749647
-0.34960521
-0.35259102
-0.35666344
-0.36200915
-0.36886891
-0.37753408
-0.3883504
-0.40167626
-0.41793034
-0.43753179
-0.46088827
-0.48837162
-0.52028925
-0.5568577
-0.59818578
-0.64427811
-0.69503972
-0.7502615
-0.80953839
-0.87196077
-0.93535796
-0.99513135
-1.0426536
-1.0648211
-1.0461442
-0.97958874
-0.8771998
-0.75546802
-0.61559512
-0.4616196
-0.30825094
-0.18656586
-0.10063062
-0.046038024
-0.01300123
0.0042898786
0.013660371
0.01492578
0.01700032
-0.35675051
-0.35662406
-0.35647563
-0.35631933
-0.35615034
-0.35596652
-0.35576732
-0.3555521
-0.35532016
-0.35507094
-0.35480404
-0.35451933
-0.35421714
-0.35389845
-0.35356539
-0.35322174
-0.35287394
-0.35253231
-0.35221286
-0.35193972
-0.35174806
-0.35168754
-0.35182596
-0.35225233
-0.35307886
-0.35444106
-0.35649653
-0.35941866
-0.36338718
-0.36861962
-0.37550855
-0.3838962
-0.39433243
-0.40719347
-0.42286174
-0.44172079
-0.46416345
-0.49055397
-0.52119765
-0.55631685
-0.59603122
-0.64035829
-0.68921661
-0.74239655
-0.79948445
-0.85950344
-0.92025943
-0.97714572
-1.0218884
-1.0420496
-1.0238111
-0.96159021
-0.86598891
-0.74903316
-0.61134058
-0.46204276
-0.31436487
-0.2001367
-0.11727732
-0.062714772
-0.027760065
-0.0080546713
0.0038529538
0.0072088499
0.011248036
-0.35971547
-0.35958426
-0.35942938
-0.35926569
-0.35908788
-0.3588935
-0.35868177
-0.35845174
-0.35820247
-0.3579331
-0.35764299
-0.35733178
-0.35699963
-0.35664744
-0.35627728
-0.355893
-0.35550111
-0.35511201
-0.35474174
-0.35441425
-0.35416434
-0.35404105
-0.35411146
-0.35446405
-0.35521103
-0.35648845
-0.35845381
-0.36128141
-0.36516651
-0.37029683
-0.37655911
-0.38481164
-0.39537592
-0.40777431
-0.4228392
-0.44091886
-0.46238355
-0.48758609
-0.51682395
-0.55032358
-0.58821251
-0.6305136
-0.67714392
-0.72787189
-0.78223137
-0.83917219
-0.89644504
-0.94949388
-0.99064603
-1.0083423
-0.99085508
-0.93412734
-0.84609009
-0.73399519
-0.59906617
-0.45442334
-0.31747845
-0.21061606
-0.13149109
-0.077542467
-0.041299981
-0.019685365
-0.005589601
-0.00035864593
0.0055119148
-0.35841755
-0.35829122
-0.35814021
-0.3579818
-0.35780897
-0.35761895
-0.35741081
-0.35718334
-0.35693527
-0.35666536
-0.35637256
-0.35605602
-0.35571536
-0.35535086
-0.35496387
-0.35455738
-0.35413685
-0.35371135
-0.35329523
-0.35291029
-0.35258863
-0.35237614
-0.35233651
-0.35255518
-0.35314246
-0.35423458
-0.35599148
-0.35859006
-0.36221885
-0.36705258
-0.37332493
-0.38157775
-0.39116942
-0.4031814
-0.41783307
-0.43507589
-0.45544996
-0.47931179
-0.5069526
-0.53860945
-0.57442127
-0.61441729
-0.65850815
-0.70643555
-0.75766744
-0.81108345
-0.86437941
-0.91323028
-0.95044556
-0.96564712
-0.94962444
-0.89916919
-0.81835564
-0.71084473
-0.57968854
-0.44325688
-0.31753268
-0.21858836
-0.14347288
-0.090585981
-0.053603833
-0.030531164
-0.014578486
-0.0076938996
-0.00013665301
-0.35406122
-0.35394809
-0.35381154
-0.3536692
-0.35351318
-0.35334065
-0.35315054
-0.35294145
-0.35271182
-0.35246008
-0.35218469
-0.35188426
-0.35155766
-0.35120426
-0.35082425
-0.3504191
-0.34999232
-0.34955047
-0.34910462
-0.3486724
-0.34828066
-0.34796904
-0.34779416
-0.34783439
-0.3481944
-0.34900836
-0.35044021
-0.35267892
-0.35593215
-0.36039724
-0.36633214
-0.3736936
-0.38290538
-0.39446016
-0.4079893
-0.42430655
-0.44346082
-0.46578846
-0.49158966
-0.52112913
-0.55456667
-0.59195418
-0.63321007
-0.67806382
-0.72592917
-0.77563709
-0.82487425
-0.8695697
-0.90291515
-0.91622706
-0.90276703
-0.8584928
-0.78369989
-0.68037203
-0.55738494
-0.42879295
-0.31503459
-0.22425671
-0.15330065
-0.1018854
-0.064653502
-0.040531152
-0.023041514
-0.014729136
-0.0056403486
-0.34788012
-0.34778632
-0.34767197
-0.34755349
-0.34742297
-0.34727775
-0.34711672
-0.34693838
-0.34674103
-0.34652284
-0.34628194
-0.34601643
-0.34572449
-0.34540453
-0.34505542
-0.34467684
-0.34426989
-0.3438378
-0.34338722
-0.34292985
-0.34248479
-0.34208175
-0.34176517
-0.34159928
-0.34167375
-0.34210916
-0.34306066
-0.34471746
-0.34729845
-0.35102756
-0.35616476
-0.36284411
-0.37139997
-0.38184059
-0.39463266
-0.40952731
-0.42688415
-0.44735616
-0.47098274
-0.49805875
-0.5287747
-0.56322472
-0.60136736
-0.64294525
-0.68736686
-0.73342863
-0.77885371
-0.81963601
-0.84973086
-0.86254421
-0.85263473
-0.81324676
-0.74236206
-0.6440555
-0.52861817
-0.41529879
-0.31091557
-0.22789306
-0.16117049
-0.11152909
-0.074453007
-0.049644264
-0.030918599
-0.021401843
-0.010941181
-0.34106854
-0.34099664
-0.34090903
-0.34081805
-0.34071723
-0.34060435
-0.34047831
-0.34033768
-0.34018076
-0.34000568
-0.33981044
-0.33959287
-0.33935071
-0.3390817
-0.33878367
-0.33845482
-0.33809405
-0.33770151
-0.33727946
-0.3368335
-0.33637433
-0.33592033
-0.335501
-0.33516158
-0.33496884
-0.33501771
-0.33543799
-0.33639913
-0.33811148
-0.34081526
-0.34477885
-0.35023535
-0.35747411
-0.36654515
-0.37757366
-0.39070657
-0.40641541
-0.42459672
-0.4456074
-0.46983242
-0.49743619
-0.52859413
-0.56335083
-0.60152269
-0.64253165
-0.68520633
-0.72718991
-0.76476102
-0.79315556
-0.80741587
-0.80095904
-0.76377764
-0.69633945
-0.60603714
-0.49829856
-0.39788042
-0.30581623
-0.22968651
-0.16719689
-0.11958511
-0.083004141
-0.057837438
-0.038166309
-0.027663822
-0.015989238
-0.3345494
-0.33449979
-0.33444074
-0.33437668
-0.33430514
-0.3342246
-0.33413399
-0.33403201
-0.33391715
-0.33378769
-0.33364172
-0.3334771
-0.33329147
-0.3330823
-0.33284692
-0.33258261
-0.33228686
-0.33195761
-0.3315938
-0.33119611
-0.33076815
-0.33031815
-0.32986141
-0.32942376
-0.32904622
-0.3287909
-0.32874823
-0.32904437
-0.32984763
-0.33136929
-0.33386007
-0.337581
-0.34280797
-0.34974248
-0.35858717
-0.36957319
-0.38268313
-0.39812062
-0.41618696
-0.43710651
-0.461182
-0.48870276
-0.5198458
-0.55453108
-0.59234903
-0.63204342
-0.67124838
-0.70728627
-0.73634478
-0.7532248
-0.74894454
-0.71161799
-0.64781185
-0.56353113
-0.47282387
-0.380894
-0.29937477
-0.22982397
-0.17155193
-0.12614307
-0.090333872
-0.065094536
-0.04474105
-0.033467604
-0.020738096
-0.32881804
-0.32878679
-0.32874916
-0.32870801
-0.32866171
-0.32860915
-0.32854949
-0.32848167
-0.32840446
-0.32831647
-0.32821605
-0.32810135
-0.32797026
-0.32782039
-0.32764914
-0.32745365
-0.32723094
-0.32697805
-0.32669226
-0.32637155
-0.3260152
-0.32562474
-0.32520541
-0.32476813
-0.32433245
-0.32393055
-0.32361257
-0.3234532
-0.32355893
-0.32407467
-0.32518817
-0.32712158
-0.33013329
-0.33448142
-0.34039461
-0.34811155
-0.35783953
-0.3697365
-0.38401133
-0.40098368
-0.42103656
-0.44458083
-0.47195131
-0.50332219
-0.53822574
-0.57555825
-0.61375635
-0.65085246
-0.68203675
-0.70056334
-0.6926162
-0.65690746
-0.5975206
-0.52407099
-0.44475298
-0.36493587
-0.29203368
-0.22853482
-0.17436411
-0.13128401
-0.096483032
-0.071424401
-0.050619939
-0.038775589
-0.025151775
-0.32423209
-0.32421378
-0.3241916
-0.32416716
-0.32413943
-0.32410767
-0.32407126
-0.32402946
-0.32398137
-0.32392593
-0.32386193
-0.32378791
-0.32370223
-0.32360299
-0.32348813
-0.32335524
-0.32320148
-0.32302368
-0.32281862
-0.32258323
-0.32231496
-0.32201227
-0.32167525
-0.32130654
-0.32091235
-0.32050425
-0.32010143
-0.31973465
-0.31945042
-0.31931624
-0.31942687
-0.3199121
-0.3209145
-0.32264444
-0.32532755
-0.32922724
-0.33463969
-0.34187081
-0.35130245
-0.36340605
-0.37875228
-0.39792115
-0.4214457
-0.44962518
-0.48243486
-0.51946697
-0.55932253
-0.59928598
-0.63215035
-0.64929129
-0.6373278
-0.6052946
-0.54685361
-0.48791748
-0.41815054
-0.3486353
-0.28363065
-0.22593169
-0.17576796
-0.13510014
-0.10149342
-0.076836906
-0.055798496
-0.043563859
-0.029196985
-0.32050446
-0.32049438
-0.3204821
-0.3204685
-0.32045297
-0.32043507
-0.32041441
-0.32039051
-0.32036279
-0.32033056
-0.32029304
-0.32024944
-0.3201985
-0.32013615
-0.32006173
-0.31997657
-0.31987697
-0.31975985
-0.31962387
-0.31946918
-0.319295
-0.31910062
-0.31888767
-0.31865268
-0.31838767
-0.31808728
-0.31775252
-0.31739424
-0.31701917
-0.31665462
-0.31627718
-0.31585951
-0.31548292
-0.3152084
-0.3151021
-0.31535669
-0.31627431
-0.31829937
-0.32206421
-0.32837345
-0.3381544
-0.35243569
-0.37217057
-0.39799562
-0.43037925
-0.46961041
-0.51303635
-0.55461077
-0.58508706
-0.59655258
-0.58453311
-0.54987548
-0.50652669
-0.45280574
-0.39307787
-0.33260296
-0.27462238
-0.22226114
-0.17592584
-0.13769937
-0.10542617
-0.081354407
-0.060275486
-0.047816991
-0.032850126
-0.31759476
-0.31759066
-0.31758566
-0.31758011
-0.31757373
-0.31756635
-0.31755776
-0.3175477
-0.31753585
-0.31752193
-0.31750602
-0.31748713
-0.31745671
-0.3174176
-0.31739294
-0.31738686
-0.31738131
-0.31735758
-0.31729848
-0.31720403
-0.31709512
-0.31698494
-0.31686587
-0.31672848
-0.31657504
-0.31640298
-0.31620063
-0.31595466
-0.31564533
-0.31524136
-0.3146852
-0.31389894
-0.31284792
-0.31138796
-0.30942034
-0.30699042
-0.30427992
-0.30173663
-0.30022665
-0.30093648
-0.30544376
-0.31513835
-0.33140879
-0.35606664
-0.39142931
-0.43362535
-0.47621932
-0.5130977
-0.53682576
-0.53938759
-0.53492648
-0.50099436
-0.46556225
-0.42094972
-0.36966085
-0.31672347
-0.26505426
-0.21764563
-0.17496239
-0.13917489
-0.10833878
-0.085005025
-0.064056072
-0.051524704
-0.036097401
-0.3147668
-0.31476979
-0.31477333
-0.3147771
-0.31478128
-0.31478601
-0.31479032
-0.31479246
-0.31479313
-0.31479393
-0.31479479
-0.31479539
-0.3147957
-0.31479806
-0.31480204
-0.31480588
-0.31481473
-0.31482379
-0.31482464
-0.31481263
-0.31476866
-0.31470727
-0.31466659
-0.31463706
-0.31460139
-0.31456079
-0.31450048
-0.31438205
-0.31419131
-0.31392134
-0.3134609
-0.31265356
-0.31138776
-0.30949249
-0.30680845
-0.30316472
-0.29855266
-0.29323757
-0.28813204
-0.28473023
-0.28478994
-0.29088893
-0.30692547
-0.33342714
-0.36775815
-0.40518877
-0.44240498
-0.47375772
-0.48998466
-0.49604458
-0.48167675
-0.46278645
-0.43130001
-0.39223538
-0.34766986
-0.30122283
-0.25515808
-0.2122697
-0.1730245
-0.13963526
-0.1103001
-0.087823324
-0.067151214
-0.054681435
-0.038929018
-0.31199507
-0.31201095
-0.3120297
-0.31204915
-0.31206986
-0.31209897
-0.31214053
-0.31217711
-0.31219613
-0.31220872
-0.31222407
-0.31224154
-0.31226044
-0.31228607
-0.31232657
-0.31238008
-0.31243916
-0.3125056
-0.31258719
-0.31267252
-0.3127401
-0.31278849
-0.31283436
-0.31290334
-0.31297412
-0.31298239
-0.3129298
-0.31285383
-0.31272088
-0.31244421
-0.31194568
-0.31111903
-0.30980241
-0.30777588
-0.30471441
-0.30045064
-0.29504591
-0.28862478
-0.28234106
-0.27752987
-0.27716511
-0.28389074
-0.29767905
-0.31918187
-0.34854704
-0.38189989
-0.41214265
-0.43927551
-0.45032572
-0.45330072
-0.44448952
-0.42587185
-0.39891875
-0.36558678
-0.32692913
-0.28609602
-0.24501019
-0.20624589
-0.17022335
-0.13916891
-0.11137271
-0.089847514
-0.069578604
-0.057288564
-0.041339806
-0.30894414
-0.30897514
-0.30901158
-0.30905009
-0.30909176
-0.309137
-0.30918693
-0.30924339
-0.30930564
-0.30937201
-0.3094424
-0.30951672
-0.30959473
-0.30967605
-0.30975973
-0.30984447
-0.30992945
-0.31001386
-0.31009663
-0.3101772
-0.31024629
-0.31027997
-0.31027969
-0.31030491
-0.31038357
-0.31045251
-0.31044838
-0.3103664
-0.31021726
-0.30998748
-0.30958087
-0.30884907
-0.30758228
-0.30560967
-0.303095
-0.2998255
-0.29521012
-0.2898192
-0.2842906
-0.28018634
-0.27894557
-0.28255554
-0.29326688
-0.3122212
-0.33716476
-0.36193758
-0.38716418
-0.40699906
-0.41803191
-0.4148123
-0.40847549
-0.3934776
-0.37047421
-0.34135336
-0.30749161
-0.27144398
-0.23473917
-0.199705
-0.1666788
-0.13787351
-0.11162559
-0.091119075
-0.071358693
-0.059350362
-0.043326702
-0.30821442
-0.30824873
-0.30828908
-0.30833168
-0.30837783
-0.30842808
-0.30848255
-0.30854134
-0.30860453
-0.30867215
-0.30874416
-0.30882043
-0.30890073
-0.30898474
-0.30907198
-0.30916175
-0.30925312
-0.30934514
-0.30943669
-0.30952643
-0.30961267
-0.30969389
-0.30976881
-0.30983589
-0.30989197
-0.30992916
-0.30994184
-0.30991596
-0.3098176
-0.30959286
-0.30920981
-0.30863471
-0.30778034
-0.30657621
-0.30471474
-0.30202595
-0.29852928
-0.29441717
-0.28985921
-0.28587358
-0.28417511
-0.2868141
-0.29498532
-0.3092354
-0.32754946
-0.3453532
-0.36547854
-0.37988748
-0.384945
-0.38517119
-0.37878191
-0.36484806
-0.34447779
-0.3189344
-0.28917085
-0.25724808
-0.22440415
-0.19273794
-0.16248491
-0.13582948
-0.11112084
-0.091680538
-0.072515941
-0.060876657
-0.04488893
-0.30901362
-0.30904021
-0.30907148
-0.30910455
-0.30914043
-0.30917959
-0.30922215
-0.30926826
-0.30931804
-0.30937156
-0.30942887
-0.3094899
-0.30955446
-0.30962229
-0.30969412
-0.30977111
-0.30985076
-0.30992977
-0.31000796
-0.31008585
-0.3101634
-0.31023995
-0.31031549
-0.3103912
-0.31046735
-0.31052533
-0.31057242
-0.3106472
-0.31068926
-0.31073909
-0.31076675
-0.31048054
-0.30992631
-0.30916679
-0.30805902
-0.30628828
-0.30369234
-0.30030786
-0.29644797
-0.29284711
-0.29081093
-0.29188346
-0.29722442
-0.30743612
-0.31931017
-0.33297947
-0.34743746
-0.35570553
-0.35999167
-0.35829766
-0.35149982
-0.3389923
-0.32094299
-0.29830976
-0.27194012
-0.24353657
-0.2140731
-0.1854322
-0.1577329
-0.13311785
-0.10992156
-0.091575034
-0.073075934
-0.06187938
-0.046026937
-0.31173781
-0.3117512
-0.31176701
-0.31178378
-0.31180204
-0.31182207
-0.31184394
-0.31186778
-0.31189369
-0.31192178
-0.3119521
-0.31198431
-0.31201837
-0.31205983
-0.31211424
-0.31216608
-0.3121998
-0.31223039
-0.31227216
-0.31232108
-0.3123723
-0.31242476
-0.31248151
-0.31254768
-0.31263664
-0.3127338
-0.31286204
-0.31301268
-0.31306113
-0.31305814
-0.31307326
-0.31299315
-0.31274184
-0.31221252
-0.31126873
-0.30979023
-0.30769148
-0.3049523
-0.30170496
-0.29846607
-0.29627627
-0.29622917
-0.29944616
-0.30552972
-0.31278924
-0.32227669
-0.33034297
-0.33552853
-0.33710737
-0.33459186
-0.32767937
-0.31588947
-0.29947724
-0.27919382
-0.25566632
-0.2302794
-0.2037786
-0.17785175
-0.15249619
-0.12980711
-0.10808477
-0.09084536
-0.073066404
-0.062374731
-0.046743887
-0.31475684
-0.31476051
-0.31476486
-0.31476951
-0.31477459
-0.3147802
-0.31478636
-0.31479309
-0.31480043
-0.31480839
-0.31481697
-0.31482613
-0.31483587
-0.31484616
-0.31485606
-0.31486417
-0.31487173
-0.31488057
-0.31489007
-0.31489885
-0.31490624
-0.31491651
-0.31493125
-0.31494694
-0.31494345
-0.31490102
-0.31485899
-0.31485021
-0.31484996
-0.31483526
-0.31476467
-0.31460111
-0.31430159
-0.31382591
-0.31309012
-0.31197847
-0.31035846
-0.308125
-0.30531727
-0.30231276
-0.29981565
-0.29854613
-0.29965054
-0.30202949
-0.30700464
-0.31164554
-0.31579717
-0.31780213
-0.31733996
-0.3135392
-0.30612451
-0.29485601
-0.27977554
-0.26141974
-0.24026562
-0.21745931
-0.193549
-0.17005119
-0.1468407
-0.12596142
-0.10566511
-0.089533038
-0.072515164
-0.062380437
-0.047045164
-0.31785722
-0.317858
-0.31785885
-0.31785965
-0.31786037
-0.31786098
-0.31786141
-0.31786155
-0.31786127
-0.31786042
-0.31785877
-0.31785603
-0.31785183
-0.3178457
-0.31783705
-0.31782504
-0.31780862
-0.31778673
-0.31775816
-0.31772144
-0.3176749
-0.31761689
-0.31754455
-0.31745457
-0.31733593
-0.31719679
-0.31704984
-0.31688014
-0.31668618
-0.31645594
-0.31619135
-0.31589888
-0.31554687
-0.31509004
-0.31445957
-0.3135299
-0.31212414
-0.31008356
-0.30741616
-0.30440544
-0.30145785
-0.29969223
-0.29897585
-0.29952336
-0.30044104
-0.30147429
-0.30232733
-0.30185595
-0.29944467
-0.2944952
-0.28665685
-0.27569241
-0.26160073
-0.24480075
-0.22562972
-0.20503536
-0.18339274
-0.16206884
-0.1408189
-0.12163505
-0.10271174
-0.087677876
-0.071450765
-0.061916859
-0.046939238
-0.32116824
-0.32116931
-0.32117038
-0.32117121
-0.32117174
-0.32117183
-0.32117133
-0.32116999
-0.32116755
-0.32116363
-0.32115776
-0.32114936
-0.32113769
-0.32112182
-0.32110061
-0.32107265
-0.32103621
-0.32098926
-0.32092935
-0.32085364
-0.32075891
-0.32064165
-0.3204981
-0.32032398
-0.32011474
-0.31986847
-0.31958242
-0.31925558
-0.31889405
-0.31851363
-0.31811714
-0.31770005
-0.31725716
-0.31674886
-0.31607792
-0.31507893
-0.3135349
-0.31130825
-0.30842823
-0.30501653
-0.30182215
-0.29924503
-0.29669628
-0.29500369
-0.29277656
-0.29157388
-0.28994805
-0.28730661
-0.28321287
-0.2771558
-0.26881
-0.25800417
-0.24468406
-0.22916085
-0.21165684
-0.19296472
-0.17331062
-0.15393344
-0.1344749
-0.11687598
-0.099269391
-0.085317024
-0.069901333
-0.061004977
-0.04643803
-0.32546345
-0.32546387
-0.32546402
-0.32546368
-0.32546268
-0.32546081
-0.32545778
-0.32545325
-0.32544676
-0.32543774
-0.32542549
-0.32540913
-0.32538757
-0.32535945
-0.32532314
-0.32527664
-0.32521755
-0.32514301
-0.32504971
-0.32493383
-0.32479108
-0.32461681
-0.32440621
-0.32415456
-0.32385756
-0.32351205
-0.32311858
-0.32268292
-0.32220972
-0.32170554
-0.32118171
-0.32063916
-0.32005329
-0.31935013
-0.31838881
-0.3169782
-0.3149213
-0.31219073
-0.3087069
-0.30488738
-0.30123206
-0.29704852
-0.29292309
-0.28891915
-0.28543637
-0.2819787
-0.27820028
-0.2737246
-0.26814791
-0.26109436
-0.25227561
-0.24154261
-0.2288168
-0.21434159
-0.1982453
-0.18119649
-0.16329232
-0.14566238
-0.12784265
-0.11172453
-0.095378296
-0.082485146
-0.067894235
-0.059666277
-0.045556747
-0.33126618
-0.33126292
-0.33125861
-0.33125333
-0.3312467
-0.33123836
-0.3312279
-0.3312148
-0.33119845
-0.33117805
-0.33115264
-0.33112106
-0.33108187
-0.33103333
-0.33097335
-0.33089944
-0.33080865
-0.33069754
-0.33056216
-0.33039805
-0.33020036
-0.32996386
-0.32968321
-0.3293538
-0.32897264
-0.32853858
-0.32805161
-0.32751481
-0.32693519
-0.32631845
-0.32566181
-0.32493971
-0.32408528
-0.32297599
-0.3214435
-0.31931375
-0.31649312
-0.31298634
-0.30875545
-0.30448619
-0.29925354
-0.29363123
-0.28811871
-0.28292862
-0.27765152
-0.27237714
-0.26686528
-0.26082527
-0.25397331
-0.24603058
-0.23675699
-0.22603959
-0.21378584
-0.20018684
-0.18529328
-0.16967556
-0.15332054
-0.13726504
-0.12094853
-0.1062142
-0.091073625
-0.079213382
-0.06545609
-0.057922345
-0.044306984
-0.33908741
-0.3390775
-0.33906519
-0.33905118
-0.33903475
-0.33901533
-0.33899233
-0.33896506
-0.33893265
-0.33889406
-0.33884804
-0.33879307
-0.33872734
-0.33864868
-0.33855455
-0.33844196
-0.33830745
-0.33814704
-0.33795627
-0.33773022
-0.33746391
-0.33715252
-0.3367915
-0.33637681
-0.33590544
-0.33537641
-0.33479072
-0.33414953
-0.33345092
-0.3326824
-0.33180896
-0.33075824
-0.3294114
-0.32761196
-0.32520107
-0.32207083
-0.31820482
-0.31357351
-0.30867196
-0.30280052
-0.29619769
-0.28959392
-0.28303559
-0.27633093
-0.26958628
-0.26276816
-0.25574694
-0.24835862
-0.24040055
-0.23167728
-0.22199717
-0.21127407
-0.19940832
-0.18655536
-0.17270335
-0.15834464
-0.14337194
-0.12874303
-0.11381149
-0.1003726
-0.086386517
-0.075528173
-0.062610892
-0.055780995
-0.042718119
-0.34936305
-0.34934364
-0.34931995
-0.3492936
-0.3492634
-0.3492285
-0.34918812
-0.34914133
-0.34908702
-0.34902385
-0.34895023
-0.3488643
-0.34876393
-0.34864644
-0.34850881
-0.3483477
-0.34815925
-0.34793923
-0.34768302
-0.34738585
-0.34704266
-0.34664857
-0.3461993
-0.34569137
-0.34512194
-0.34448827
-0.34378576
-0.34300383
-0.34211861
-0.34108231
-0.33981209
-0.33818399
-0.33604448
-0.33324134
-0.3296651
-0.32527955
-0.32009388
-0.31438754
-0.30794945
-0.30047191
-0.29297247
-0.28531914
-0.27739724
-0.26935019
-0.26121477
-0.25300452
-0.24466896
-0.23611179
-0.22719995
-0.21780226
-0.2077687
-0.19703879
-0.18550988
-0.17331103
-0.16037911
-0.14714382
-0.13341826
-0.12009225
-0.10644467
-0.094221977
-0.08134481
-0.071457405
-0.059386818
-0.053286013
-0.040781863
-0.36262494
-0.36259314
-0.36255467
-0.36251239
-0.36246456
-0.36240999
-0.3623477
-0.36227645
-0.36219479
-0.36210089
-0.36199322
-0.36187395
-0.36173628
-0.36156832
-0.36137533
-0.3611588
-0.3609096
-0.36062299
-0.36029446
-0.3599191
-0.35949186
-0.35900771
-0.35846153
-0.35784761
-0.3571584
-0.35638188
-0.355497
-0.35446661
-0.35322838
-0.35168681
-0.3497109
-0.34714606
-0.34384643
-0.33970402
-0.33467323
-0.32880113
-0.32228794
-0.31508567
-0.30685295
-0.29839465
-0.28968775
-0.28057298
-0.27128636
-0.26188866
-0.25243555
-0.24296315
-0.23346002
-0.2238844
-0.21415409
-0.2041863
-0.19386487
-0.18314908
-0.17193421
-0.16032932
-0.14822975