/*--------------------------------*- C++ -*----------------------------------*\
  =========                 |
  \\      /  F ield         | OpenFOAM: The Open Source CFD Toolbox
   \\    /   O peration     | Website:  https://openfoam.org
    \\  /    A nd           | Version:  13
     \\/     M anipulation  |
\*---------------------------------------------------------------------------*/
FoamFile
{
    format      ascii;
    class       volVectorField;
    location    "31.496709";
    object      U;
}
// * * * * * * * * * * * * * * * * * * * * * * * * * * * * * * * * * * * * * //

dimensions      [0 1 -1 0 0 0 0];

internalField   nonuniform List<vector> 
17140
(
(-3.02416e-07 1.7404032e-05 2.5448009e-23)
(-2.5206089e-06 5.2389062e-05 2.81863e-24)
(-7.0452489e-06 9.047221e-05 -1.8601739e-22)
(-1.4814618e-05 0.00013343511 2.0442527e-22)
(-2.6712822e-05 0.00018331419 -2.3887848e-23)
(-4.3949213e-05 0.00024238849 7.8147399e-23)
(-6.8034833e-05 0.00031317906 1.3148754e-22)
(-0.00010082859 0.00039843408 -6.4124074e-23)
(-0.00014461655 0.00050110095 -2.0972344e-22)
(-0.00020219951 0.00062428014 -5.1382219e-22)
(-0.00027699474 0.00077115664 7.6075347e-22)
(-0.00037315251 0.00094490384 -6.7675117e-22)
(-0.00049568968 0.0011485541 -1.0339305e-22)
(-0.00065063975 0.0013848303 5.8287546e-22)
(-0.00084521852 0.0016559325 -6.450709e-23)
(-0.0010880025 0.0019632763 5.0893039e-22)
(-0.001389115 0.0023071788 -1.8795691e-23)
(-0.0017604122 0.0026864946 4.2534602e-24)
(-0.0022156551 0.003098209 2.9558796e-22)
(-0.0027706502 0.0035370022 -3.7967113e-22)
(-0.0034433326 0.0039948129 1.8101006e-22)
(-0.0042537581 0.0044604423 -3.4038482e-23)
(-0.0052239573 0.0049192583 -2.4710584e-22)
(-0.0063775989 0.0053530815 2.4254525e-22)
(-0.0077393911 0.0057403547 3.7848944e-22)
(-0.0093341446 0.0060567238 -2.9776311e-22)
(-0.011185418 0.0062761792 -1.432752e-21)
(-0.013313678 0.006372933 -1.6529058e-22)
(-0.015733983 0.0063242194 1.4147869e-21)
(-0.018453322 0.0061141418 3.2313363e-22)
(-0.021468075 0.0057383392 1.1211795e-21)
(-0.024762456 0.0052082474 -1.4281688e-21)
(-0.028309183 0.004552122 3.5924578e-22)
(-0.032073179 0.0038095828 1.6415446e-22)
(-0.036017703 0.0030202636 1.5334109e-21)
(-0.040109967 0.0022128248 -6.3667903e-22)
(-0.04432322 0.0014006244 9.1459027e-22)
(-0.048635794 0.00058378512 5.9124771e-22)
(-0.05302942 -0.00024704673 2.6013541e-22)
(-0.057488383 -0.0011083909 -7.636336e-22)
(-0.062000071 -0.0020238982 -1.4115226e-21)
(-0.066556736 -0.0030262458 -1.2645128e-21)
(-0.071158352 -0.004160616 -5.4885728e-22)
(-0.075815384 -0.0054894335 2.6766073e-21)
(-0.08055378 -0.0070979972 1.9696214e-21)
(-0.085420363 -0.0091023803 -4.8785866e-22)
(-0.090475721 -0.011653305 3.3610014e-21)
(-0.095797015 -0.014942568 1.1544998e-21)
(-0.10147029 -0.019217511 -1.1895169e-21)
(-0.10758296 -0.024788195 -2.9442488e-21)
(-0.11418684 -0.03203201 1.8270896e-21)
(-0.12130613 -0.041399194 1.1610968e-21)
(-0.12882951 -0.053360619 -3.0388732e-21)
(-0.13661726 -0.068324712 -1.4390989e-21)
(-0.14419696 -0.086278958 -1.0200555e-21)
(-0.15124841 -0.10642841 8.0104628e-22)
(-0.15659682 -0.12615401 -2.1224702e-21)
(-0.16032617 -0.13978252 -1.7521353e-21)
(-0.16151879 -0.14016508 -4.2990773e-22)
(-0.16084227 -0.11263534 1.0902079e-21)
(-0.15188427 -0.042175313 8.3577886e-22)
(-0.12574296 0.081442074 2.7317139e-21)
(-0.047750509 0.2264181 2.8499379e-22)
(0.031883758 0.31815054 -1.9345923e-21)
(0.11459937 0.31483344 1.0679959e-21)
(-2.0871668e-06 4.9193714e-05 -7.2649352e-24)
(-8.0086334e-06 0.00015084163 9.7840135e-22)
(-1.6623307e-05 0.00026254646 -8.7045015e-22)
(-2.8941733e-05 0.00038672017 2.372021e-22)
(-4.5938078e-05 0.00052607141 4.8984314e-22)
(-6.8918024e-05 0.00068358273 -9.3554563e-22)
(-9.9497679e-05 0.00086250656 9.7456749e-22)
(-0.0001396488 0.0010663429 -8.5702828e-23)
(-0.00019177689 0.0012988 2.6731226e-22)
(-0.00025880671 0.0015637334 4.5351593e-24)
(-0.00034428125 0.001865058 8.9003765e-22)
(-0.00045247425 0.002206626 -1.4113804e-21)
(-0.00058851881 0.0025920663 -1.1628904e-22)
(-0.00075855076 0.0030245755 1.1442615e-21)
(-0.00096986601 0.0035066562 -3.4994524e-22)
(-0.0012310891 0.0040397961 -2.2115486e-22)
(-0.0015523475 0.0046240833 1.3943176e-21)
(-0.0019454438 0.0052577597 -4.50604e-21)
(-0.0024240132 0.0059367192 2.794349e-21)
(-0.0030036479 0.0066539634 -3.3106554e-21)
(-0.0037019651 0.0073990467 4.8261474e-21)
(-0.0045385846 0.0081575509 -1.1658084e-21)
(-0.0055349728 0.0089106559 -4.7205829e-22)
(-0.006714102 0.0096348922 1.5170723e-21)
(-0.0080998571 0.01030219 -5.3501024e-21)
(-0.0097161188 0.010880368 -7.8362326e-22)
(-0.011585446 0.011334258 3.9711184e-21)
(-0.013727306 0.011627704 -4.3628059e-21)
(-0.016155853 0.01172678 5.8652906e-22)
(-0.018877425 0.011604603 5.6168553e-21)
(-0.021888196 0.011247816 -5.6527114e-22)
(-0.025172838 0.010663603 -4.223004e-21)
(-0.028705301 0.0098835657 -1.0543354e-22)
(-0.032452433 0.0089591535 2.9157236e-21)
(-0.036379665 0.007947404 -3.1019034e-21)
(-0.04045613 0.0068947427 1.3305296e-21)
(-0.044656615 0.0058286874 -1.4862981e-21)
(-0.048960637 0.0047588592 -4.529608e-21)
(-0.053350912 0.0036819833 -9.8009575e-22)
(-0.057812767 0.0025858827 -3.7227984e-21)
(-0.062334921 0.0014508276 4.6664493e-21)
(-0.066911468 0.00024845677 4.2569181e-21)
(-0.071545084 -0.0010613519 7.2665582e-22)
(-0.076250137 -0.0025350664 -5.8255547e-21)
(-0.081058178 -0.0042509801 2.7930957e-21)
(-0.086023428 -0.0063193452 9.7931276e-22)
(-0.091216512 -0.0088883067 -5.1499942e-22)
(-0.096728049 -0.012148516 -1.6718046e-21)
(-0.10266118 -0.016350416 8.2455692e-22)
(-0.10912387 -0.021814396 -1.539904e-21)
(-0.11619198 -0.028937151 -9.2614129e-21)
(-0.12391135 -0.038198663 -4.3451734e-22)
(-0.13218495 -0.050112675 1.9946327e-21)
(-0.14084716 -0.065143305 -4.5080071e-21)
(-0.14934055 -0.083345845 3.8141086e-21)
(-0.15711422 -0.10400856 -1.0732715e-20)
(-0.16272006 -0.12450065 -3.0008011e-21)
(-0.16564833 -0.13901084 8.2194149e-21)
(-0.16555762 -0.14056661 -1.3420371e-21)
(-0.16274697 -0.11472276 -1.5398291e-21)
(-0.15132401 -0.048159363 -2.8294679e-22)
(-0.12655402 0.065868776 2.7543205e-21)
(-0.056579766 0.2023505 -4.422947e-21)
(0.020559264 0.29328755 -1.006106e-21)
(0.11212661 0.29096163 -1.4635546e-21)
(-5.6891924e-06 8.1369681e-05 -4.0121441e-22)
(-1.9102312e-05 0.00025050242 2.9648437e-22)
(-3.5967629e-05 0.00043674214 7.8835428e-23)
(-5.7390271e-05 0.00064313241 -7.4718559e-23)
(-8.4464082e-05 0.00087305327 3.6198469e-22)
(-0.00011861741 0.0011301898 2.692363e-23)
(-0.00016159598 0.0014185242 3.4357552e-22)
(-0.00021550625 0.0017423062 3.6992068e-22)
(-0.00028289072 0.0021060025 -3.0199316e-21)
(-0.00036680964 0.0025142211 2.6930944e-21)
(-0.00047093497 0.0029716035 -1.2868016e-21)
(-0.00059965653 0.0034826789 -1.8820675e-21)
(-0.00075820234 0.0040516707 3.7230084e-21)
(-0.0009527719 0.0046822491 4.5963287e-22)
(-0.0011906813 0.0053772212 -1.7673587e-21)
(-0.0014805174 0.0061381512 -1.2094061e-21)
(-0.0018322953 0.0069649066 1.3942418e-21)
(-0.0022576123 0.0078551297 -5.0116312e-21)
(-0.0027697852 0.0088036408 2.9362805e-21)
(-0.0033839549 0.0098017872 -1.4379999e-21)
(-0.0041171349 0.010836768 4.7912919e-21)
(-0.0049881728 0.01189098 1.2294156e-21)
(-0.0060175852 0.012941451 -2.5277372e-21)
(-0.0072272155 0.013959457 3.7439155e-21)
(-0.0086396552 0.014910444 1.4506497e-21)
(-0.010277359 0.015754421 -1.70989e-21)
(-0.012161389 0.01644705 -9.5364243e-21)
(-0.014309735 0.016941765 -4.2379567e-21)
(-0.016735245 0.017193389 2.0709139e-21)
(-0.019443326 0.017163891 -2.17495e-21)
(-0.022429882 0.016830676 1.3234056e-21)
(-0.025680256 0.01619637 7.3100821e-21)
(-0.029170157 0.015295619 -2.3715171e-21)
(-0.032869064 0.014191531 -6.8086299e-21)
(-0.036745323 0.012958687 2.1622618e-21)
(-0.040770551 0.011661615 2.9043654e-21)
(-0.044921268 0.010342284 -4.8190929e-21)
(-0.049178097 0.009020129 -1.4227466e-21)
(-0.053524474 0.0076982353 2.4288366e-21)
(-0.057946345 0.0063690625 9.4506972e-22)
(-0.062433168 0.0050171747 -4.5120352e-21)
(-0.06698016 0.0036190099 1.2777285e-21)
(-0.071591602 0.0021400996 1.8412545e-21)
(-0.076284421 0.00053081613 4.9662733e-21)
(-0.081094155 -0.0012792037 -9.5875886e-21)
(-0.086079711 -0.00339337 6.3364099e-21)
(-0.091318433 -0.0059560204 1.6434977e-21)
(-0.096910134 -0.0091554355 6.5750084e-21)
(-0.10296916 -0.013243988 8.021471e-21)
(-0.10961609 -0.018551892 4.0617556e-22)
(-0.1169399 -0.025495788 -1.847334e-21)
(-0.1249936 -0.034589131 1.327326e-20)
(-0.13367313 -0.046399245 5.6841938e-21)
(-0.14275647 -0.061468256 5.8285799e-21)
(-0.15155222 -0.079956411 1.933794e-21)
(-0.15922036 -0.10128364 1.4583233e-20)
(-0.16402394 -0.12292856 -5.664908e-21)
(-0.16528674 -0.13865496 1.5228926e-21)
(-0.1609099 -0.14139178 1.2640183e-20)
(-0.15362309 -0.11782826 4.6607257e-21)
(-0.13705097 -0.055134105 -4.774628e-21)
(-0.10974659 0.050648077 -1.4846389e-20)
(-0.042786868 0.1791081 3.7594858e-21)
(0.03403732 0.26756021 5.1387279e-21)
(0.13850111 0.26308262 1.9656156e-21)
(-1.1150507e-05 0.00011341341 1.3475032e-21)
(-3.5931889e-05 0.00034977085 -2.1438646e-21)
(-6.5304865e-05 0.00061026978 7.7500091e-22)
(-0.00010049103 0.00089857654 -8.4219971e-23)
(-0.00014273308 0.0012187324 1.664629e-21)
(-0.00019360777 0.0015751145 -1.7215241e-21)
(-0.0002550143 0.0019724244 2.6101857e-21)
(-0.00032921465 0.0024156504 -1.2271004e-21)
(-0.00041890479 0.0029100075 -4.6621703e-21)
(-0.00052729058 0.0034608467 1.1197087e-21)
(-0.00065817473 0.0040735293 4.2598207e-21)
(-0.00081605387 0.0047532566 -1.2982511e-21)
(-0.0010062277 0.0055048472 -8.6461121e-23)
(-0.0012349186 0.0063324513 3.3824883e-21)
(-0.0015094005 0.0072391947 -1.0548164e-20)
(-0.0018381345 0.0082267431 6.4500195e-21)
(-0.0022309044 0.0092947809 6.1194675e-23)
(-0.0026989479 0.010440404 -3.5298588e-21)
(-0.0032550682 0.01165743 8.9019485e-21)
(-0.003913715 0.012935642 -4.1670488e-21)
(-0.0046910093 0.014259995 -6.1576405e-21)
(-0.0056046872 0.015609834 -2.4691519e-21)
(-0.0066739252 0.016958184 1.2069806e-20)
(-0.0079190004 0.018271232 6.2339321e-21)
(-0.0093607328 0.019508108 -3.9740988e-21)
(-0.011019647 0.020621175 2.2916962e-21)
(-0.012914793 0.021557066 -8.4702435e-21)
(-0.015062196 0.022258891 2.4021389e-21)
(-0.01747297 0.022670217 -6.3801349e-21)
(-0.020151286 0.022741707 3.549924e-21)
(-0.02309267 0.022441151 -2.1610238e-21)
(-0.026283312 0.021765977 7.7269897e-21)
(-0.029701172 0.020753081 -1.0770988e-21)
(-0.033319087 0.019476554 5.5046032e-21)
(-0.037109034 0.018028263 -5.0585197e-21)
(-0.041045646 0.01649107 -1.5615449e-21)
(-0.045107418 0.014921883 1.8555499e-20)
(-0.049276005 0.01335042 4.6721138e-21)
(-0.05353527 0.011786514 -3.7544426e-21)
(-0.057871295 0.010227604 3.6120427e-21)
(-0.062273615 0.0086629128 -9.2965754e-22)
(-0.066737697 0.0070741344 -5.7183629e-21)
(-0.071268254 0.0054331298 2.6154567e-22)
(-0.075883281 0.0036978651 1.9586057e-21)
(-0.080620405 0.0018067732 -9.7949955e-22)
(-0.085540135 -0.00033575491 5.228296e-22)
(-0.090722701 -0.0028688776 1.4835103e-21)
(-0.096272124 -0.005977217 -2.2928299e-20)
(-0.10230712 -0.009914159 2.6449774e-21)
(-0.10895192 -0.015019074 -2.4632999e-21)
(-0.11629628 -0.021729292 2.3489061e-20)
(-0.12438466 -0.030595741 -1.2935237e-20)
(-0.13308351 -0.042251229 -1.0790254e-20)
(-0.14208306 -0.057341114 -1.0301984e-20)
(-0.15051328 -0.076172023 -9.8447886e-21)
(-0.15717631 -0.098298701 -1.5112675e-20)
(-0.16004569 -0.12119661 2.928223e-20)
(-0.15768682 -0.13894633 -1.7076632e-20)
(-0.1475181 -0.14351669 -2.3937997e-20)
(-0.13340027 -0.12212385 1.4902142e-20)
(-0.10905618 -0.062954197 4.5495503e-21)
(-0.07592049 0.035551484 4.2771394e-21)
(-0.0069891583 0.15668332 -1.042995e-20)
(0.073938758 0.24095777 -8.1922015e-21)
(0.20014704 0.23046308 6.7098077e-22)
(-1.8455054e-05 0.00014475115 -9.5183637e-22)
(-5.8448811e-05 0.00044687508 3.1599468e-21)
(-0.0001045507 0.00078004005 -2.5757198e-21)
(-0.00015811983 0.0011485179 9.7318498e-22)
(-0.0002205757 0.001556991 3.5151269e-22)
(-0.00029366797 0.0020105088 -3.0237802e-21)
(-0.00037947177 0.0025144718 7.6545682e-22)
(-0.00048042409 0.0030745879 1.624782e-21)
(-0.00059938932 0.0036968019 1.2455481e-22)
(-0.00073972772 0.0043871926 1.0576697e-21)
(-0.00090537317 0.0051518293 -1.4798317e-21)
(-0.0011009187 0.0059965805 1.0273063e-21)
(-0.0013317117 0.0069268623 3.780554e-21)
(-0.0016039562 0.0079473188 1.0992983e-22)
(-0.0019248221 0.0090614229 -2.8774112e-21)
(-0.0023025573 0.010270988 -2.0324755e-21)
(-0.0027465977 0.011575583 1.743101e-21)
(-0.0032676693 0.012971853 -1.6600045e-22)
(-0.0038778716 0.014452738 -3.3648852e-21)
(-0.0045907278 0.016006616 -4.0752909e-21)
(-0.005421184 0.017616396 4.6164523e-21)
(-0.0063855326 0.019258602 4.6043321e-21)
(-0.0075012264 0.020902531 -6.133859e-21)
(-0.008786545 0.022509578 7.510291e-21)
(-0.010260064 0.024032882 1.2866766e-20)
(-0.011939872 0.02541748 -2.9932179e-20)
(-0.013842493 0.026601275 1.6256171e-20)
(-0.015981483 0.027517286 -2.3754285e-20)
(-0.01836577 0.028097922 2.9220667e-20)
(-0.020997951 0.028282405 -3.2062811e-20)
(-0.023873003 0.028028404 3.2488511e-20)
(-0.026978062 0.027327174 -5.3303799e-21)
(-0.03029374 0.026216523 -1.7888527e-20)
(-0.033796887 0.024780263 9.7348687e-21)
(-0.037463838 0.023126901 -2.921524e-21)
(-0.0412728 0.021357755 -8.076247e-22)
(-0.045204497 0.019545256 -9.6389254e-21)
(-0.049241558 0.017730051 -3.026012e-21)
(-0.053367951 0.01592924 -2.9840869e-21)
(-0.057569361 0.014145649 -2.857812e-21)
(-0.061834655 0.012373537 1.4398738e-20)
(-0.066158554 0.010600289 -6.29598e-21)
(-0.070544872 0.0088046762 -1.0130154e-21)
(-0.075011 0.0069530712 1.1728318e-20)
(-0.079594395 0.0049934073 6.0264226e-21)
(-0.084353623 0.0028387574 -2.9860131e-21)
(-0.089367403 0.00035663956 -1.1171457e-20)
(-0.094738223 -0.0026326765 4.8931902e-21)
(-0.10058091 -0.0063826506 -1.476105e-20)
(-0.10701234 -0.011241073 -8.1762529e-21)
(-0.11410823 -0.017666861 -1.1376646e-20)
(-0.12188602 -0.026250927 -3.1170585e-20)
(-0.13015559 -0.037705046 2.4193998e-20)
(-0.1384848 -0.052802637 -8.0479102e-21)
(-0.14578338 -0.072039708 1.3482776e-20)
(-0.15046955 -0.09515835 1.2543718e-20)
(-0.15000615 -0.11976633 4.6775313e-21)
(-0.14231927 -0.13984508 3.9601485e-20)
(-0.12479446 -0.14663367 9.781021e-21)
(-0.10152153 -0.1278206 -1.9619271e-20)
(-0.066758547 -0.071919761 -5.3508588e-21)
(-0.024656931 0.020290104 4.0527855e-21)
(0.050347325 0.13472227 5.8715834e-21)
(0.14164551 0.2126836 8.8545393e-21)
(0.29932617 0.19334016 -7.7784938e-22)
(-2.7521532e-05 0.00017477686 -2.9100819e-21)
(-8.6403885e-05 0.00053994296 -1.0271081e-21)
(-0.00015327208 0.00094278813 8.3137913e-22)
(-0.00022964248 0.0013881628 3.0696429e-21)
(-0.00031713721 0.0018813602 -1.6815437e-21)
(-0.0004177014 0.0024280719 2.4195743e-21)
(-0.00053360666 0.0030343674 -1.0465644e-21)
(-0.00066748258 0.0037066453 -2.4918601e-22)
(-0.00082237536 0.0044515538 1.409632e-21)
(-0.001001807 0.0052758769 3.0362372e-21)
(-0.0012098421 0.0061863762 1.5257189e-22)
(-0.0014511594 0.0071895797 -4.9836868e-21)
(-0.0017311304 0.0082915063 6.8880332e-21)
(-0.0020559014 0.0094973153 -1.1107854e-20)
(-0.0024324793 0.010810868 2.8984422e-21)
(-0.0028688161 0.012234193 -6.1480898e-21)
(-0.0033738895 0.013766845 7.4154622e-21)
(-0.0039577718 0.015405152 -4.8032709e-21)
(-0.0046316785 0.017141358 7.5580929e-22)
(-0.0054079859 0.018962668 3.0549121e-21)
(-0.0063001994 0.020850227 -7.3927182e-21)
(-0.0073228529 0.022778079 1.0377759e-20)
(-0.0084913124 0.024712185 -1.1216363e-20)
(-0.0098214478 0.026609593 -1.9183796e-21)
(-0.011329134 0.028417925 1.8657429e-20)
(-0.013029536 0.030075387 -1.871265e-20)
(-0.014936137 0.031511623 1.2056191e-20)
(-0.017059516 0.032649954 -1.3411554e-20)
(-0.019405942 0.033411858 -1.2784005e-21)
(-0.02197604 0.033725026 -7.8687205e-22)
(-0.024763994 0.033536401 5.1148201e-21)
(-0.02775785 0.03282978 -3.4531606e-22)
(-0.030941143 0.031641999 1.8426134e-20)
(-0.03429528 0.030064685 -4.8176965e-21)
(-0.037801641 0.028221838 -1.3941396e-20)
(-0.041442593 0.026233186 6.235153e-21)
(-0.045201388 0.024187363 -4.9177727e-21)
(-0.049061595 0.022136762 4.7995286e-21)
(-0.053006952 0.020106413 2.5831713e-20)
(-0.057022159 0.018105006 -1.3990548e-20)
(-0.061094574 0.016132222 -3.384263e-21)
(-0.065217051 0.01418153 1.9161758e-20)
(-0.069390977 0.012239153 -1.0771481e-21)
(-0.07363122 0.010280646 -2.3415321e-21)
(-0.077972367 0.008264004 -2.6145925e-20)
(-0.082466947 0.0061117457 -6.1233502e-21)
(-0.087187048 0.0036996796 9.8406092e-21)
(-0.092226596 0.00085406588 1.0202803e-20)
(-0.097686433 -0.0026775918 1.4788346e-20)
(-0.10366241 -0.0072507482 1.8652734e-20)
(-0.11019647 -0.013345512 1.1603031e-20)
(-0.1172536 -0.021597509 1.7996503e-20)
(-0.12455098 -0.032806627 -6.0988763e-21)
(-0.13148978 -0.047898095 3.8708221e-20)
(-0.13670761 -0.067595707 2.7779178e-21)
(-0.13818475 -0.091877552 2.1384203e-21)
(-0.13276547 -0.11849091 1.2011059e-21)
(-0.11780494 -0.14136601 -4.3291192e-20)
(-0.091067874 -0.1508339 -1.4395509e-20)
(-0.056545398 -0.13485927 1.8442418e-20)
(-0.0094652996 -0.081982872 1.9921165e-20)
(0.044010553 0.0049248208 7.0323148e-21)
(0.12832428 0.11276013 1.8914604e-21)
(0.23689351 0.18195298 -1.2159812e-20)
(0.42816527 0.15366001 3.3780671e-21)
(-3.8197737e-05 0.00020286744 5.5167479e-22)
(-0.00011932963 0.000627049 1.7532392e-21)
(-0.00021065618 0.0010951555 -4.2313453e-21)
(-0.0003138688 0.0016125791 1.5722921e-22)
(-0.0004308149 0.0021851828 2.059765e-21)
(-0.00056365494 0.0028192596 9.0780032e-22)
(-0.00071487494 0.0035215077 6.7021257e-22)
(-0.00088731238 0.0042989775 -1.3204235e-21)
(-0.0010842066 0.0051589851 6.8341196e-21)
(-0.0013092474 0.00610899 -5.1552246e-21)
(-0.0015666291 0.0071564243 2.4941472e-22)
(-0.0018611064 0.0083084659 3.1176363e-21)
(-0.0021980533 0.0095717428 -1.1656459e-20)
(-0.002583523 0.010951956 1.1609362e-20)
(-0.0030243065 0.01245341 -1.5445377e-21)
(-0.0035279867 0.014078435 -9.5491881e-21)
(-0.0041029851 0.0158267 8.9659739e-21)
(-0.0047585933 0.017694396 -3.1266874e-21)
(-0.0055049835 0.019673303 6.06183e-21)
(-0.0063531878 0.021749751 -7.7566036e-21)
(-0.0073150323 0.02390349 -1.4510206e-20)
(-0.0084030096 0.02610653 1.4296677e-20)
(-0.0096300684 0.02832201 2.0832149e-20)
(-0.011009291 0.030503218 -3.9910874e-20)
(-0.012553428 0.0325929 3.1752119e-20)
(-0.014274254 0.034523095 -1.8268586e-20)
(-0.016181722 0.036215846 4.6584903e-21)
(-0.018282922 0.037585347 -1.0897776e-20)
(-0.020580966 0.038542522 1.1007872e-20)
(-0.023074051 0.039003529 1.4660407e-20)
(-0.025755208 0.038903933 -9.5752829e-21)
(-0.028613203 0.038218526 -1.5599159e-20)
(-0.031634553 0.036980765 1.3232863e-21)
(-0.034805607 0.035287487 5.2415395e-22)
(-0.038113396 0.033276448 9.1320441e-21)
(-0.041545059 0.031085468 -3.8253696e-21)
(-0.045086736 0.028820099 -1.3418662e-20)
(-0.048722942 0.02654548 -6.529293e-21)
(-0.052436851 0.024295386 9.7170918e-21)
(-0.056211532 0.022084927 -7.4905194e-21)
(-0.060031904 0.019919603 6.3201541e-21)
(-0.063887661 0.017799313 -2.0356711e-21)
(-0.067776031 0.015718199 -8.0127051e-21)
(-0.071707122 0.013661722 1.9529979e-20)
(-0.075709304 0.011598319 1.1698975e-20)
(-0.079824415 0.009460599 7.83516e-21)
(-0.084111704 0.0071343177 -2.5190561e-20)
(-0.088647698 0.0044526922 -1.6674771e-20)
(-0.093506303 0.0011650036 -1.9893009e-20)
(-0.098743953 -0.0030909404 -3.5325447e-20)
(-0.10434293 -0.0088158891 1.2552795e-20)
(-0.11017737 -0.016693319 -2.6699095e-21)
(-0.11581635 -0.027617804 -2.1183814e-20)
(-0.12043887 -0.042685091 -6.2044073e-20)
(-0.12233261 -0.062880336 -4.0349706e-20)
(-0.11894351 -0.088476619 -1.5451615e-20)
(-0.10636386 -0.11737314 -4.2406775e-20)
(-0.081577457 -0.14324657 2.6625966e-20)
(-0.043027802 -0.15556276 -1.8485008e-21)
(0.0045575788 -0.14260234 -2.9395192e-20)
(0.064448763 -0.092589812 -1.5223848e-20)
(0.13032354 -0.010436489 -9.8032682e-22)
(0.2264141 0.090383502 1.0765583e-20)
(0.35605436 0.14941216 -1.4272026e-21)
(0.57406027 0.11417718 3.514682e-21)
(-5.0258232e-05 0.00022840496 2.186803e-21)
(-0.00015653305 0.00070628406 -1.4751231e-21)
(-0.00027549798 0.0012338114 1.9924926e-21)
(-0.00040903442 0.0018168737 1.1323879e-21)
(-0.0005592336 0.0024618517 -3.1595783e-21)
(-0.00072848759 0.0031755884 -2.9491859e-21)
(-0.00091951144 0.0039653598 3.0256774e-21)
(-0.0011353629 0.0048388186 -3.6413616e-22)
(-0.0013794835 0.0058039041 -8.4306577e-23)
(-0.0016557356 0.0068687129 -5.9886025e-21)
(-0.0019684422 0.0080413194 6.560935e-22)
(-0.0023224254 0.0093295376 1.2066044e-20)
(-0.0027230443 0.01074061 -9.642478e-21)
(-0.0031762297 0.01228081 3.3183037e-22)
(-0.0036885136 0.013954948 6.4534273e-21)
(-0.0042670499 0.015765761 5.5456492e-22)
(-0.0049196235 0.017713185 -1.4091414e-21)
(-0.0056546416 0.019793485 -6.3400195e-21)
(-0.0064811016 0.021998262 1.1592933e-20)
(-0.0074085284 0.024313332 -2.0335508e-20)
(-0.0084468698 0.026717497 4.3708882e-21)
(-0.0096063382 0.029181274 -3.2017874e-21)
(-0.010897182 0.031665618 2.616109e-21)
(-0.012329368 0.034120778 -1.1330862e-22)
(-0.013912146 0.036485423 1.537209e-20)
(-0.015653477 0.038686275 1.5226738e-20)
(-0.017559316 0.040638619 -2.9954165e-20)
(-0.019632769 0.042248296 -4.9532649e-21)
(-0.021873269 0.043416234 1.7080025e-20)
(-0.024276064 0.044047188 5.9937563e-21)
(-0.026832539 0.044064726 1.3478584e-20)
(-0.029531779 0.043432907 -1.4927286e-20)
(-0.032363094 0.042178944 -6.4015038e-21)
(-0.035317914 0.040401563 1.4419416e-20)
(-0.038389399 0.038249814 -5.8409866e-21)
(-0.041570064 0.035878882 -2.7700168e-21)
(-0.04484938 0.033411914 7.5695424e-21)
(-0.048212879 0.030927953 1.9281242e-20)
(-0.051642848 0.028470504 5.7519774e-21)
(-0.055120033 0.026061752 -3.738983e-21)
(-0.058625863 0.023713421 -8.757028e-21)
(-0.062145395 0.021432128 -9.0711953e-21)
(-0.065669729 0.019220298 -1.0100531e-20)
(-0.069201594 0.017073876 -2.1373477e-20)
(-0.072758811 0.014972063 5.9567742e-22)
(-0.076367322 0.012857912 -9.2387854e-21)
(-0.080065761 0.010628714 5.19948e-20)
(-0.083901783 0.0081253025 1.4642834e-20)
(-0.087905251 0.0050992413 1.707876e-20)
(-0.092067929 0.0011822228 4.8243573e-20)
(-0.09627358 -0.0041471636 -5.7583877e-20)
(-0.10024726 -0.011619278 1.305778e-20)
(-0.10333349 -0.022226121 4.2409096e-20)
(-0.10440025 -0.037243889 5.1685603e-20)
(-0.10123764 -0.057943775 6.2136762e-21)
(-0.090551305 -0.084933618 -1.6362582e-20)
(-0.067479073 -0.11618553 -2.4397897e-20)
(-0.028952999 -0.14494532 9.4292e-21)
(0.025312554 -0.15961322 -1.2683235e-20)
(0.088017267 -0.14902482 8.688802e-21)
(0.15991454 -0.10170841 1.6021741e-21)
(0.23767236 -0.024201547 2.813777e-21)
(0.34551003 0.068897548 -1.3231744e-20)
(0.49569412 0.11678896 -6.5038342e-22)
(0.73283338 0.077365851 -1.2124887e-20)
(-6.3399701e-05 0.00025080329 -2.062435e-21)
(-0.00019710463 0.00077582739 -5.5249616e-22)
(-0.00034620396 0.0013555794 6.0694982e-22)
(-0.00051280842 0.0019963764 2.98274e-21)
(-0.00069925608 0.002705057 -3.5763327e-21)
(-0.00090818342 0.0034889516 3.0358715e-21)
(-0.0011425454 0.0043558515 1.4504187e-21)
(-0.0014056289 0.0053139527 -7.7673465e-23)
(-0.0017010842 0.0063717622 -1.2229247e-21)
(-0.0020329497 0.007537966 -6.9495123e-21)
(-0.0024056762 0.0088212449 1.1656541e-20)
(-0.0028241472 0.010230029 -1.3987803e-20)
(-0.0032936944 0.011772177 4.1010099e-21)
(-0.0038201056 0.013454566 5.5558704e-21)
(-0.0044096234 0.015282582 -8.5018374e-21)
(-0.0050689304 0.017259483 1.6714701e-20)
(-0.0058051178 0.019385641 -2.019753e-20)
(-0.0066256341 0.02165764 -3.1788145e-22)
(-0.0075382074 0.02406722 -1.1494869e-20)
(-0.0085507359 0.026600096 4.543504e-20)
(-0.0096711412 0.029234643 -1.0953368e-20)
(-0.010907174 0.031940507 -4.5130717e-20)
(-0.012266163 0.034677202 2.1229302e-20)
(-0.013754693 0.037392791 2.5212369e-20)
(-0.015378201 0.040022818 -6.3044283e-21)
(-0.017140472 0.042489708 -3.2864129e-20)
(-0.019043038 0.044703035 4.9505588e-20)
(-0.021084542 0.046561267 -5.4597305e-20)
(-0.023260202 0.047956114 4.2687611e-20)
(-0.025561731 0.048781252 -8.1021143e-21)
(-0.027978226 0.04894775 1.3775364e-20)
(-0.03049846 0.048407162 1.9348666e-20)
(-0.033114026 0.047177236 -7.4093948e-21)
(-0.035821247 0.045354567 -1.8281697e-21)
(-0.038619688 0.043096201 -2.6114164e-20)
(-0.04150781 0.040573361 4.823033e-21)
(-0.044478927 0.037927308 -1.2166238e-20)
(-0.047519755 0.035252262 1.0106472e-20)
(-0.050611398 0.032602631 -5.6793987e-21)
(-0.053731537 0.030008437 -3.7273855e-21)
(-0.056856943 0.027488048 -3.2144543e-21)
(-0.059966303 0.025055042 -3.1128952e-21)
(-0.063042375 0.022720323 1.9159321e-20)
(-0.066077371 0.02049064 1.5395927e-20)
(-0.069072955 0.018356157 -4.3892998e-21)
(-0.072033126 0.016270709 2.9189801e-21)
(-0.074966042 0.014144064 -1.1893594e-20)
(-0.077875095 0.011824923 2.4665056e-20)
(-0.08072293 0.0090670269 2.9449379e-20)
(-0.083400437 0.0054956664 8.8052371e-21)
(-0.085633927 0.0005689371 2.2848224e-20)
(-0.086912999 -0.0064872207 -7.0968731e-22)
(-0.086252141 -0.016755849 -1.1058612e-20)
(-0.082046278 -0.031697871 -5.5790281e-20)
(-0.071290234 -0.052881878 2.7534402e-20)
(-0.049523935 -0.081243172 -1.1353499e-20)
(-0.010505763 -0.11456339 2.8831883e-20)
(0.048303517 -0.14536367 -4.2265314e-20)
(0.12428338 -0.1607794 2.0440593e-20)
(0.20512136 -0.15048389 -4.2297102e-21)
(0.28823735 -0.10510711 -7.3327844e-23)
(0.37519145 -0.032361084 -1.9978063e-21)
(0.49137033 0.051148012 -4.2905119e-21)
(0.65766031 0.087729348 1.5771197e-20)
(0.90435566 0.048441432 -2.1844718e-20)
(-7.7264007e-05 0.00026953232 4.6275195e-21)
(-0.00023992176 0.00083403838 3.1838722e-21)
(-0.00042083033 0.0014575898 -4.9978492e-21)
(-0.00062234167 0.0021468647 1.3157133e-22)
(-0.00084704628 0.0029090881 4.5181114e-21)
(-0.0010978321 0.003752005 2.3623035e-21)
(-0.0013778996 0.0046838502 -4.9781583e-21)
(-0.0016907701 0.0057132919 8.1741947e-22)
(-0.002040306 0.0068493394 -1.1522652e-20)
(-0.0024307231 0.0081012105 2.2453808e-21)
(-0.0028666002 0.0094781467 5.7616799e-23)
(-0.003352879 0.010989166 -8.2565233e-21)
(-0.0038948577 0.01264274 2.6451912e-20)
(-0.0044981709 0.014446376 -1.2322539e-20)
(-0.0051687564 0.016406101 -2.2072339e-20)
(-0.0059128038 0.018525813 2.3513404e-20)
(-0.0067366822 0.020806505 -2.8951918e-21)
(-0.0076468424 0.02324533 1.6428643e-20)
(-0.0086496919 0.025834519 1.2195838e-20)
(-0.0097514361 0.028560134 -3.8333566e-20)
(-0.010957884 0.031400687 2.8753883e-20)
(-0.012274212 0.034325651 -3.7811643e-20)
(-0.013704686 0.037293925 4.4342446e-21)
(-0.015252328 0.040252352 -1.8101569e-20)
(-0.016918527 0.043134433 3.926092e-20)
(-0.018702597 0.045859487 -9.2842153e-21)
(-0.020601291 0.048332611 -2.3372951e-20)
(-0.022608343 0.050446107 5.6261171e-20)
(-0.024714218 0.052083489 -2.4310961e-20)
(-0.026906436 0.053127943 -2.6036517e-20)
(-0.029171031 0.053477766 2.1324085e-20)
(-0.031495568 0.053070357 2.8378507e-21)
(-0.033873045 0.0519106 -1.3907177e-20)
(-0.036304089 0.050088316 7.5187376e-21)
(-0.03879462 0.047764317 -1.1240527e-20)
(-0.041349519 0.045123731 3.8343356e-20)
(-0.043966518 0.04232609 -1.9592571e-20)
(-0.046633792 0.039482121 -1.1470311e-20)
(-0.049331026 0.036658468 -2.3113632e-20)
(-0.052032054 0.033893879 -3.1536539e-21)
(-0.054707667 0.031213806 2.396201e-20)
(-0.057328154 0.028638985 -9.6787127e-21)
(-0.059865379 0.02618888 -1.4306851e-20)
(-0.062296975 0.023880832 -2.1450551e-21)
(-0.064601866 0.021715945 1.4552873e-20)
(-0.066754215 0.019659437 1.3083607e-20)
(-0.068718804 0.017633279 -4.0537342e-20)
(-0.070433986 0.015493634 -2.1884116e-20)
(-0.071762821 0.012995092 -4.8499473e-20)
(-0.072441628 0.0097542016 -1.7368962e-20)
(-0.071950063 0.0052097291 -6.9350732e-21)
(-0.069427257 -0.0014486687 -5.2111225e-20)
(-0.063394471 -0.01138245 -2.0396887e-20)
(-0.05146359 -0.026246807 6.899965e-20)
(-0.02926096 -0.047884236 -5.4764002e-20)
(0.0096873718 -0.07746822 4.7867399e-20)
(0.073660065 -0.11198785 -2.1298569e-20)
(0.16318048 -0.14266345 8.6136667e-20)
(0.26925468 -0.15519048 3.295373e-20)
(0.37209876 -0.14097517 -7.9275823e-21)
(0.46551531 -0.09490058 -7.1755942e-21)
(0.55658036 -0.027204725 -8.30764e-21)
(0.67532615 0.045428864 -1.1693652e-21)
(0.84791878 0.067463007 -1.9346283e-21)
(1.0713376 0.02942916 2.820994e-20)
(-9.14336e-05 0.0002841452 8.4285835e-23)
(-0.00028369406 0.00087953283 -6.0000613e-21)
(-0.00049713421 0.001537421 7.0724998e-21)
(-0.0007343484 0.0022647714 3.4030151e-21)
(-0.00099818079 0.0030691151 -6.814521e-21)
(-0.0012917716 0.0039585294 -2.2066982e-21)
(-0.0016185673 0.0049416099 1.0699158e-20)
(-0.0019823239 0.0060274164 -1.1509314e-20)
(-0.0023871161 0.0072253841 -2.4268765e-21)
(-0.0028373378 0.008545194 -9.648566e-21)
(-0.0033376954 0.009996592 2.5603539e-20)
(-0.00389319 0.011589145 3.1146228e-22)
(-0.0045090869 0.013331923 -2.294971e-20)
(-0.0051908691 0.015233082 2.4604942e-20)
(-0.0059441717 0.017299349 -1.758745e-20)
(-0.0067746939 0.019535377 -6.5106586e-21)
(-0.0076880845 0.021942956 1.3575537e-20)
(-0.0086897985 0.024520072 -1.2223331e-20)
(-0.0097849212 0.027259797 -1.6238568e-20)
(-0.010977958 0.030149008 3.4254539e-22)
(-0.01227259 0.033166949 2.5465188e-20)
(-0.013671388 0.036283657 -1.5705681e-20)
(-0.015175499 0.039458304 8.7282964e-21)
(-0.01678429 0.042637556 4.2053033e-20)
(-0.018494969 0.045754071 1.4032686e-20)
(-0.020302177 0.048725387 -3.7972597e-20)
(-0.022197601 0.051453544 3.7870991e-21)
(-0.024169676 0.053826105 -4.2640489e-20)
(-0.026203586 0.055719681 2.5153083e-20)
(-0.028281956 0.057007872 -1.3262163e-20)
(-0.030386837 0.057576296 1.9145852e-20)
(-0.032503443 0.057346847 4.6529061e-21)
(-0.034624902 0.056308205 -2.3045878e-20)
(-0.036755045 0.054538318 2.3395371e-20)
(-0.038905667 0.052196569 3.3769516e-20)
(-0.041088339 0.049478825 -3.1008628e-21)
(-0.043305816 0.046562449 -3.4663043e-20)
(-0.045548123 0.04357592 4.3365154e-20)
(-0.04779337 0.040599601 -9.1551803e-21)
(-0.050010727 0.037681986 1.941923e-20)
(-0.052163496 0.03485606 -3.0232008e-21)
(-0.05421128 0.032149833 3.0280735e-20)
(-0.056111762 0.029591244 1.4631255e-20)
(-0.057822737 0.027207502 1.8692326e-20)
(-0.059292875 0.02501033 -7.6896211e-20)
(-0.060455648 0.022976657 -2.5807914e-20)
(-0.061214881 0.021039326 3.4984458e-20)