/*--------------------------------*- C++ -*----------------------------------*\
  =========                 |
  \\      /  F ield         | OpenFOAM: The Open Source CFD Toolbox
   \\    /   O peration     | Website:  https://openfoam.org
    \\  /    A nd           | Version:  13
     \\/     M anipulation  |
\*---------------------------------------------------------------------------*/
FoamFile
{
    format      ascii;
    class       volScalarField;
    location    "4.003669";
    object      pMean;
}
// * * * * * * * * * * * * * * * * * * * * * * * * * * * * * * * * * * * * * //

dimensions      [0 2 -2 0 0 0 0];

internalField   nonuniform List<scalar> 
17140
(
12.000054
11.999913
11.999743
11.999571
11.999385
11.999183
11.998965
11.99873
11.998477
11.998207
11.997919
11.997613
11.997288
11.996946
11.996583
11.996199
11.99579
11.995348
11.994863
11.994317
11.993685
11.992933
11.992014
11.990868
11.989417
11.987574
11.985275
11.98245
11.978966
11.974672
11.969424
11.96306
11.955412
11.946304
11.935563
11.923033
11.908594
11.892197
11.873918
11.85404
11.833158
11.812311
11.79317
11.778112
11.770026
11.77227
11.787937
11.817549
11.860476
11.913512
11.969963
12.023588
12.068041
12.097421
12.105784
12.091362
12.056486
12.007279
11.949875
11.887904
11.82298
11.753938
11.680703
11.600438
11.5137
11.997409
11.997271
11.997105
11.996936
11.996754
11.996557
11.996343
11.996112
11.995865
11.9956
11.995318
11.995018
11.9947
11.994365
11.99401
11.993635
11.993235
11.992803
11.992329
11.991796
11.991179
11.990443
11.989543
11.988418
11.98699
11.985171
11.982895
11.980094
11.976635
11.972364
11.967137
11.960792
11.953157
11.944055
11.933311
11.920764
11.906291
11.889837
11.871473
11.851473
11.830427
11.809375
11.78999
11.774658
11.766342
11.768371
11.783735
11.813527
11.856772
11.909838
11.966461
12.02024
12.064955
12.094756
12.103623
12.08971
12.055303
12.006501
11.949444
11.887741
11.823011
11.754093
11.680965
11.600777
11.514152
11.991036
11.990905
11.990748
11.990588
11.990415
11.990228
11.990024
11.989805
11.98957
11.989318
11.989049
11.988764
11.988462
11.988143
11.987807
11.987451
11.987073
11.986665
11.986218
11.985714
11.985131
11.984433
11.983575
11.982498
11.981123
11.979361
11.97714
11.974393
11.97099
11.966774
11.961598
11.955295
11.947692
11.938605
11.927852
11.915266
11.900711
11.884119
11.865546
11.845252
11.823812
11.802265
11.782298
11.766335
11.757443
11.759051
11.774139
11.80394
11.847531
11.900987
11.957963
12.012118
12.05746
12.088284
12.098374
12.085689
12.052414
12.004585
11.948361
11.887302
11.823047
11.754453
11.681591
11.60159
11.515193
11.981044
11.980924
11.980782
11.980635
11.980477
11.980305
11.980118
11.979917
11.979701
11.979469
11.979222
11.97896
11.978682
11.97839
11.978081
11.977756
11.977411
11.97704
11.976633
11.976175
11.975642
11.975002
11.974208
11.973203
11.971909
11.970233
11.968097
11.965431
11.962113
11.957983
11.952884
11.946649
11.939094
11.93003
11.919265
11.906616
11.891932
11.875124
11.856224
11.835467
11.813408
11.791085
11.770207
11.753264
11.743462
11.744371
11.759094
11.789011
11.833066
11.88709
11.944622
11.99936
12.045693
12.07811
12.09011
12.079336
12.047827
12.001541
11.946644
11.886623
11.823145
11.755096
11.682641
11.602945
11.516945
11.967739
11.967635
11.967512
11.967384
11.967245
11.967093
11.966929
11.966752
11.966561
11.966357
11.966138
11.965907
11.965662
11.965404
11.965133
11.964847
11.964545
11.964222
11.963867
11.963467
11.963
11.962432
11.961721
11.960807
11.959615
11.958053
11.956029
11.953467
11.950257
11.946238
11.941241
11.935092
11.927601
11.918567
11.907783
11.895049
11.880192
11.863095
11.843757
11.822381
11.799496
11.776137
11.754049
11.735819
11.72483
11.72485
11.739141
11.769227
11.813969
11.868869
11.927196
11.98275
12.030397
12.064874
12.079323
12.071003
12.041776
11.99753
11.944402
11.88577
11.823347
11.756027
11.68415
11.604864
11.519372
11.951632
11.951547
11.951446
11.95134
11.951225
11.951099
11.950963
11.950815
11.950656
11.950484
11.950302
11.950107
11.949902
11.949687
11.94946
11.949223
11.948973
11.948705
11.948412
11.94808
11.947687
11.947204
11.946587
11.945778
11.944704
11.943273
11.94138
11.93894
11.935854
11.931963
11.927084
11.921036
11.913619
11.904617
11.893807
11.880969
11.8659
11.848451
11.828582
11.806455
11.78257
11.75796
11.734418
11.714662
11.702295
11.701334
11.715246
11.745675
11.791386
11.847489
11.906867
11.963433
12.012619
12.049421
12.066653
12.061164
12.0346
11.992797
11.941807
11.884863
11.823725
11.757303
11.686175
11.607428
11.522595
11.933423
11.933359
11.933283
11.933203
11.933115
11.933019
11.932914
11.9328
11.932677
11.932544
11.932402
11.932251
11.932092
11.931924
11.931749
11.931566
11.931373
11.931167
11.93094
11.930681
11.930369
11.929975
11.929458
11.92876
11.92781
11.926516
11.92477
11.922467
11.919507
11.915746
11.910994
11.905053
11.897712
11.888742
11.877901
11.864942
11.849634
11.831789
11.811325
11.788358
11.763358
11.73736
11.712222
11.690825
11.677023
11.675114
11.688776
11.719763
11.76674
11.824358
11.885037
11.942803
11.993648
12.032793
12.052921
12.050387
12.026705
11.987617
11.939041
11.884007
11.824339
11.758968
11.688744
11.61064
11.526594
11.913965
11.913924
11.913876
11.913823
11.913765
11.913702
11.913631
11.913555
11.913471
11.913381
11.913284
11.91318
11.913071
11.912956
11.912836
11.91271
11.912579
11.912437
11.91228
11.912095
11.911863
11.911558
11.911138
11.910549
11.909719
11.908558
11.906959
11.904798
11.901963
11.898323
11.893694
11.887858
11.880592
11.871651
11.860775
11.847691
11.832136
11.813885
11.792808
11.768979
11.742838
11.715433
11.688702
11.665708
11.650568
11.647859
11.661434
11.693133
11.741561
11.800895
11.863042
11.922082
11.97452
12.0159
12.038811
12.039167
12.018497
11.982275
11.936285
11.883318
11.825266
11.761078
11.691905
11.614571
11.531479
11.89421
11.894193
11.894171
11.894148
11.894121
11.894091
11.894057
11.89402
11.893978
11.893932
11.893882
11.893828
11.893772
11.893712
11.893649
11.893584
11.893515
11.893438
11.893349
11.893236
11.893081
11.892858
11.892528
11.892038
11.891317
11.890276
11.888808
11.886787
11.884077
11.880541
11.876012
11.870273
11.86308
11.854169
11.843264
11.83007
11.814293
11.79567
11.774032
11.749413
11.722232
11.693556
11.665416
11.641056
11.624837
11.621552
11.635159
11.667591
11.717461
11.778465
11.841986
11.9022
11.956137
11.999536
12.024921
12.028209
12.01032
11.977028
11.933704
11.88289
11.826567
11.76368
11.695698
11.619243
11.537238
11.875134
11.87514
11.875146
11.875151
11.875155
11.875158
11.875161
11.875162
11.875162
11.875161
11.875158
11.875155
11.875151
11.875147
11.875142
11.875136
11.875128
11.875115
11.875091
11.875045
11.87496
11.874811
11.87456
11.874154
11.873525
11.872585
11.871225
11.869321
11.866729
11.863296
11.858849
11.853185
11.846059
11.837191
11.826284
11.813025
11.797094
11.778199
11.756141
11.730924
11.702957
11.673336
11.644182
11.61889
11.602001
11.598433
11.612169
11.645262
11.69627
11.758491
11.823128
11.884544
11.940039
11.985148
12.012599
12.017934
12.002513
11.972107
11.931445
11.882822
11.828316
11.766834
11.700181
11.624725
11.543973
11.857638
11.857665
11.857696
11.857727
11.85776
11.857795
11.857831
11.857869
11.857909
11.85795
11.857994
11.858039
11.858086
11.858135
11.858186
11.858238
11.85829
11.858337
11.858375
11.858391
11.85837
11.858286
11.858103
11.857769
11.857216
11.856358
11.855087
11.853277
11.850783
11.847444
11.843082
11.837493
11.830434
11.82163
11.810771
11.79753
11.781571
11.762583
11.740349
11.714863
11.686537
11.656498
11.62694
11.601358
11.584377
11.580905
11.594896
11.628409
11.679925
11.742759
11.808139
11.870304
11.926881
11.973143
12.001842
12.008363
11.995423
11.967705
11.929639
11.883207
11.830584
11.770603
11.705406
11.631052
11.55169
11.842473
11.842518
11.842571
11.842625
11.842683
11.842745
11.842811
11.842882
11.842957
11.843036
11.843121
11.84321
11.843304
11.843402
11.843505
11.843611
11.843718
11.843822
11.843916
11.843991
11.844028
11.844004
11.843882
11.843612
11.843126
11.842339
11.841144
11.839417
11.837011
11.833763
11.829496
11.824005
11.817052
11.808364
11.797634
11.784534
11.76873
11.749908
11.727849
11.702554
11.674456
11.64471
11.615542
11.590455
11.574036
11.571071
11.585407
11.618986
11.670361
11.732773
11.797402
11.859438
11.916398
11.962986
11.992364
11.999986
11.989234
11.963978
11.928407
11.884142
11.833456
11.775058
11.711439
11.638293
11.560491
11.830152
11.830211
11.83028
11.830352
11.830429
11.830513
11.830603
11.8307
11.830803
11.830914
11.831032
11.831159
11.831292
11.831434
11.831582
11.831736
11.831893
11.83205
11.832199
11.832329
11.832424
11.83246
11.832401
11.832197
11.831783
11.831074
11.829963
11.828327
11.82602
11.822881
11.818728
11.81336
11.806564
11.798087
11.787631
11.774864
11.759459
11.741123
11.719674
11.69513
11.667951
11.639307
11.6114
11.587645
11.572449
11.570369
11.585039
11.618383
11.668394
11.728555
11.791225
11.85255
11.909333
11.955483
11.984866
11.993079
11.984079
11.961069
11.927863
11.885725
11.837016
11.780272
11.718338
11.646493
11.570394
11.820911
11.820979
11.821058
11.821142
11.821232
11.82133
11.821436
11.821551
11.821675
11.821809
11.821952
11.822106
11.82227
11.822445
11.82263
11.822824
11.823024
11.823226
11.823425
11.823609
11.823763
11.823862
11.823874
11.82375
11.823426
11.822817
11.82182
11.82031
11.818149
11.815181
11.811225
11.806102
11.799589
11.791418
11.78133
11.769079
11.754383
11.736943
11.716592
11.693403
11.667867
11.641141
11.615342
11.593697
11.580275
11.579284
11.594288
11.626388
11.67355
11.730185
11.790353
11.850249
11.906001
11.950864
11.979193
11.987653
11.980072
11.959095
11.928118
11.888057
11.841352
11.786319
11.726179
11.655719
11.581493
11.814685
11.814757
11.814841
11.814929
11.815025
11.81513
11.815244
11.815368
11.815502
11.815648
11.815806
11.815977
11.816161
11.816358
11.816568
11.816791
11.817024
11.817265
11.817508
11.817743
11.817956
11.818127
11.818223
11.818201
11.818
11.817541
11.816724
11.815429
11.813515
11.81082
11.807165
11.802368
11.79623
11.788552
11.779142
11.767728
11.753985
11.737759
11.718969
11.697714
11.674485
11.650394
11.627415
11.608437
11.597103
11.597417
11.612008
11.641809
11.685137
11.737515
11.79446
11.85231
11.906113
11.948755
11.975344
11.983742
11.977318
11.958162
11.929279
11.891238
11.846553
11.79327
11.735026
11.666023
11.593813
11.81118
11.81125
11.811333
11.81142
11.811514
11.811618
11.811732
11.811856
11.811992
11.81214
11.812302
11.812477
11.812668
11.812874
11.813097
11.813335
11.813589
11.813856
11.814132
11.81441
11.814679
11.81492
11.815108
11.815204
11.815154
11.814884
11.8143
11.813282
11.811687
11.809356
11.806126
11.801831
11.796305
11.789362
11.780797
11.770391
11.757972
11.74345
11.726716
11.7079
11.687514
11.666592
11.646854
11.630806
11.62182
11.622865
11.636313
11.663154
11.701873
11.749727
11.803261
11.85839
11.909288
11.948873
11.973308
11.981405
11.9759
11.958367
11.931447
11.895363
11.852706
11.801202
11.744945
11.677479
11.607437
11.809858
11.809923
11.81
11.81008
11.810168
11.810265
11.810371
11.810488
11.810617
11.810758
11.810913
11.811083
11.811269
11.811472
11.811693
11.811933
11.812193
11.81247
11.812765
11.813071
11.813382
11.813685
11.813958
11.814173
11.814284
11.814232
11.813929
11.813269
11.812124
11.810342
11.807759
11.804203
11.799505
11.793507
11.786065
11.777043
11.766324
11.753786
11.739411
11.723382
11.706169
11.688647
11.672257
11.659277
11.652102
11.653325
11.665225
11.688381
11.722511
11.766075
11.816098
11.867873
11.914857
11.950908
11.973002
11.98064
11.975876
11.959792
11.934714
11.900521
11.859892
11.810191
11.756001
11.690141
11.622402
11.810199
11.810255
11.810322
11.810392
11.810469
11.810554
11.810649
11.810752
11.810867
11.810994
11.811134
11.811289
11.81146
11.811649
11.811856
11.812085
11.812335
11.812608
11.812905
11.813222
11.813558
11.813906
11.814252
11.814576
11.814847
11.81502
11.815031
11.814793
11.814191
11.81309
11.811332
11.808752
11.805186
11.800486
11.794517
11.787161
11.778347
11.768036
11.756267
11.743215
11.729257
11.715095
11.702018
11.691528
11.685632
11.686716
11.696364
11.715919
11.745989
11.785872
11.832281
11.879807
11.922445
11.95452
11.974415
11.981456
11.977297
11.962507
11.93916
11.906792
11.868184
11.820306
11.76826
11.704071
11.63879
11.811589
11.811635
11.811692
11.81175
11.811814
11.811885
11.811964
11.812052
11.812149
11.812257
11.812378
11.812511
11.812661
11.812826
11.813011
11.813217
11.813445
11.813699
11.81398
11.814289
11.814627
11.814992
11.815379
11.815779
11.816174
11.816539
11.816829
11.816984
11.816922
11.816536
11.815694
11.814247
11.812037
11.808914
11.804747
11.79943
11.792901
11.785139
11.776187
11.766174
11.755383
11.744442
11.734088
11.725513
11.720505
11.720693
11.728079
11.744492
11.77138
11.808177
11.850603
11.893365
11.931284
11.95973
11.977412
11.983875
11.980207
11.966575
11.944857
11.914249
11.877651
11.831609
11.781783
11.719323
11.656648
11.813601
11.813638
11.813682
11.813728
11.813779
11.813836
11.813899
11.81397
11.814048
11.814136
11.814235
11.814345
11.814469
11.814607
11.814764
11.814939
11.815137
11.815361
11.815612
11.815896
11.816214
11.816571
11.816967
11.817402
11.817873
11.818369
11.818872
11.819351
11.819761
11.820034
11.820082
11.819794
11.81904
11.817681
11.815577
11.812608
11.808678
11.80373
11.797747
11.790782
11.783068
11.774846
11.766656
11.759517
11.754567
11.753661
11.759112
11.773456
11.798225
11.832106
11.870226
11.908087
11.941046
11.966306
11.982016
11.987893
11.984627
11.972042
11.951865
11.922956
11.88836
11.844164
11.79663
11.735959
11.676048
11.815872
11.8159
11.815932
11.815967
11.816006
11.816049
11.816097
11.816151
11.816212
11.81628
11.816356
11.816442
11.81654
11.81665
11.816776
11.816919
11.817083
11.81727
11.817484
11.817731
11.818016
11.818344
11.81872
11.819153
11.81965
11.820218
11.820857
11.821564
11.822327
11.823127
11.823927
11.824668
11.825271
11.825634
11.82563
11.825116
11.823942
11.821962
11.819058
11.815177
11.810234
11.80432
11.797849
11.791351
11.786183
11.784503
11.789111
11.802693
11.826207
11.856898
11.890714
11.923366
11.952156
11.974163
11.988173
11.993489
11.99057
11.978945
11.960237
11.932972
11.90037
11.858031
11.812858
11.754032
11.697037
11.818243
11.818262
11.818285
11.818309
11.818337
11.818367
11.818401
11.81844
11.818483
11.818533
11.81859
11.818656
11.81873
11.818813
11.818907
11.819015
11.819139
11.819284
11.819455
11.819657
11.819896
11.820181
11.820523
11.820932
11.821422
11.822011
11.822715
11.823553
11.824546
11.825715
11.827063
11.828589
11.830277
11.83208
11.83391
11.835625
11.837035
11.83791
11.837965
11.836881
11.834405
11.830486
11.825151
11.819153
11.81424
11.812941
11.818192
11.831878
11.853978
11.881437
11.911062
11.938907
11.964062
11.983335
11.99584
12.000637
11.998039
11.987311
11.970013
11.944346
11.913735
11.873262
11.830523
11.773601
11.719678
11.820612
11.820623
11.820636
11.82065
11.820665
11.820683
11.820703
11.820727
11.820758
11.820793
11.820825
11.820854
11.820886
11.820931
11.820997
11.821084
11.821187
11.821305
11.821441
11.8216
11.82179
11.822026
11.822321
11.822692
11.823157
11.823739
11.824465
11.825375
11.826511
11.827908
11.82961
11.831669
11.834118
11.836957
11.840143
11.843568
11.847031
11.850196
11.852646
11.853914
11.853531
11.851139
11.846988
11.842291
11.838987
11.839596
11.846299
11.86036
11.880667
11.905056
11.930315
11.954817
11.976717
11.99372
12.004945
12.009303
12.007027
11.997154
11.981226
11.957122
11.928503
11.889909
11.849678
11.79471
11.743992
11.822936
11.822938
11.82294
11.822943
11.822946
11.822952
11.82296
11.822971
11.822985
11.823001
11.823019
11.82304
11.823065
11.823095
11.82313
11.823171
11.823222
11.823293
11.823385
11.823496
11.823636
11.823822
11.824083
11.824441
11.824901
11.825475
11.826206
11.827148
11.828351
11.829874
11.831776
11.83413
11.837011
11.84047
11.844504
11.84901
11.853775
11.858466
11.862588
11.865503
11.866677
11.865997
11.863972
11.861953
11.861435
11.864577
11.87292
11.887016
11.905489
11.9273
11.94932
11.970859
11.990134
12.005282
12.015442
12.019457
12.017525
12.008486
11.9939
11.971336
11.944717
11.908018
11.870367
11.817399
11.770024
11.824888
11.82488
11.824872
11.824864
11.824855
11.824846
11.824837
11.824827
11.824817
11.824808
11.824801
11.824795
11.824793
11.824797
11.824808
11.824829
11.824864
11.824916
11.824992
11.825095
11.82523
11.825408
11.82565
11.825977
11.826402
11.826947
11.827656
11.828602
11.829855
11.831468
11.8335
11.83603
11.839155
11.842918
11.847293
11.852234
11.857569
11.862969
11.867996
11.87221
11.875282
11.877075
11.878187
11.879361
11.881986
11.887615
11.897437
11.911257
11.928894
11.947912
11.967818
11.987054
12.004292
12.017958
12.027278
12.031061
12.029517
12.02131
12.008054
11.987017
11.962413
11.927631
11.892628
11.841704
11.797838
11.826067
11.826054
11.826039
11.826023
11.826007
11.825989
11.825971
11.825952
11.825933
11.825914
11.825896
11.825879
11.825865
11.825854
11.825848
11.825851
11.825865
11.825894
11.825945
11.826025
11.826145
11.826315
11.82655
11.826873
11.827311
11.827894
11.828645
11.829611
11.830863
11.832464
11.834463
11.836925
11.839933
11.843572
11.847893
11.852873
11.858417
11.86433
11.87038
11.876247
11.881525
11.88617
11.890402
11.894831
11.900607
11.908736
11.919886
11.933821
11.95026
11.967949
11.986083
12.003528
12.019203
12.031719
12.040415
12.044087
12.042986
12.035624
12.023701
12.004191
11.98162
11.948785
11.916492
11.867675
11.827488
11.8258
11.825787
11.825772
11.825757
11.825741
11.825724
11.825706
11.825688
11.825669
11.82565
11.825632
11.825615
11.825601
11.82559
11.825584
11.825587
11.8256
11.825628
11.825677
11.825752
11.825864
11.826023
11.826245
11.826548
11.826958
11.827502
11.828215
11.829136
11.830308
11.831799
11.83371
11.836114
11.83906
11.842614
11.846879
11.851933
11.857801
11.864424
11.871632
11.879151
11.886697
11.894141
11.901475
11.90918
11.917826
11.928137
11.940318
11.954906
11.97049
11.987213
12.004151
12.020328
12.034862
12.046536
12.054819
12.058506
12.057916
12.051426
12.040846
12.022878
12.002359
11.971507
11.941978
11.895313
11.859
11.824185
11.824178
11.824171
11.824163
11.824154
11.824146
11.824137
11.824129
11.82412
11.824113
11.824107
11.824103
11.824101
11.824104
11.824113
11.82413
11.824158
11.8242
11.824262
11.82435
11.824472
11.824638
11.824861
11.825157
11.825548
11.82606
11.82673
11.827619
11.82878
11.830257
11.83212
11.83445
11.837344
11.840938
11.845362
11.850732
11.857156
11.864659
11.873177
11.88244
11.892218
11.902188
11.912441
11.922835
11.933913
11.946003
11.959709
11.974283
11.989915
12.006115
12.022265
12.03756
12.051302
12.062405
12.07047
12.074295
12.074292
12.06871
12.0595
12.043093
12.024643
11.995829
11.969125
11.924743
11.892425
11.821457
11.821458
11.82146
11.821462
11.821464
11.821468
11.821472
11.821477
11.821484
11.821493
11.821504
11.821519
11.821538
11.821562
11.821593
11.821634
11.821686
11.821754
11.821842
11.821957
11.822105
11.822298
11.822551
11.822881
11.82332
11.823899
11.824643
11.825597
11.826809
11.828344
11.830292
11.832755
11.835854
11.839727
11.844532
11.850443
11.857624
11.866157
11.875994
11.886925
11.89873
11.910963
11.923447
11.936187
11.949317
11.96323
11.977879
11.993105
12.008866
12.024824
12.040535
12.055292
12.068546
12.079323
12.087351
12.091436
12.092099
12.087472
12.079662
12.064842
12.048495
12.021774
11.99795
11.955954
11.927676
11.81828
11.818288
11.818297
11.818307
11.818318
11.81833
11.818345
11.818362
11.818382
11.818405
11.818432
11.818464
11.818502
11.818547
11.818602
11.818669
11.81875
11.818851
11.818976
11.819132
11.819329
11.819579
11.819898
11.820305
11.820826
11.821495
11.822354
11.823448
11.82483
11.826572
11.828765
11.831516
11.834958
11.839269
11.844648
11.851303
11.859415
11.869121
11.880387
11.892974
11.906512
11.920665
11.935026
11.949732
11.964618
11.979978
11.995576
12.011468
12.02757
12.043573
12.059125
12.073618
12.086639
12.0973
12.105456
12.109916
12.111327
12.107703
12.101334
12.088149
12.073935
12.049362
12.028456
11.988946
11.964826
11.814678
11.81469
11.814704
11.814719
11.814736
11.814755
11.814777
11.814803
11.814832
11.814866
11.814906
11.814952
11.815007
11.815072
11.815148
11.815241
11.815352
11.815487
11.815653
11.815857
11.816111
11.81643
11.81683
11.817334
11.81797
11.818775
11.819792
11.821075
11.822689
11.824713
11.827242
11.8304
11.834362
11.839327
11.8455
11.853134
11.862458
11.873561
11.886283
11.900393
11.915492
11.931134
11.947235
11.963548
11.980027
11.996474
12.013096
12.029749
12.046326
12.062554
12.078166
12.092623
12.105625
12.116352
12.124785
12.129727
12.131967
12.129396
12.124531
12.112981
12.100945
12.078561
12.060689
12.023611
12.004125
11.810488
11.810503
11.810521
11.810541
11.810563
11.810588
11.810617
11.810651
11.810689
11.810734
11.810785
11.810846
11.810917
11.811
11.811099
11.811218
11.811359
11.811531
11.811739
11.811994
11.812308
11.812697
11.813182
11.813788
11.814547
11.815502
11.8167
11.818203
11.820085
11.822435
11.825383
11.8291
11.833772
11.839592
11.846835
11.855793
11.866597
11.879215
11.893456
11.909007
11.925459
11.942596
11.960126
11.977827
11.995475
12.013141
12.030756
12.048191
12.065341
12.081945
12.097791
12.112394
12.125553
12.136501
12.145341
12.150864
12.154011
12.152542
12.149228
12.139327
12.129559
12.109344
12.094663
12.05996
12.045299
11.805338
11.805357
11.805381
11.805406
11.805435
11.805468
11.805506
11.805549
11.805599
11.805657
11.805723
11.8058
11.805891
11.805997
11.806122
11.806269
11.806446
11.806657
11.806912
11.807222
11.8076
11.808065
11.80864
11.809354
11.810245
11.81136
11.812756
11.814504
11.816704
11.819487
11.823017
11.827454
11.832994
11.839964
11.848647
11.859181
11.871618
11.885843
11.901599
11.918541
11.936322
11.954892
11.973677
11.992548
12.011422
12.030196
12.04878
12.067031
12.084826
12.101912
12.118124
12.133015
12.146473
12.157772
12.167132
12.173325
12.177451
12.177133
12.175422
12.167197
12.15979
12.141687
12.13039
12.098015
12.088302
11.798981
11.799007
11.799039
11.799073
11.799111
11.799155
11.799204
11.799261
11.799325
11.7994
11.799485
11.799584
11.799698
11.799832
11.799988
11.800171
11.800388
11.800645
11.800953
11.801324
11.801774
11.802323
11.802998
11.803832
11.804868
11.806163
11.807793
11.809865
11.812499
11.815826
11.820018
11.825354
11.832136
11.840595
11.850932
11.863241
11.877446
11.893348
11.910603
11.928899
11.948173
11.967923
11.98788
12.007959
12.027993
12.047845
12.067394
12.086475
12.10496
12.122603
12.139276
12.154565
12.168436
12.180191
12.190165
12.197107
12.202276
12.203157
12.203092
12.196581
12.191581
12.175678
12.167783
12.137824
12.13313
11.791261
11.791295
11.791337
11.791381
11.791432
11.791488
11.791553
11.791626
11.791709
11.791803
11.791912
11.792036
11.792179
11.792344
11.792536
11.79276
11.793022
11.793331
11.793699
11.794137
11.794665
11.795306
11.796093
11.797064
11.798283
11.799823
11.80176
11.804209
11.807335
11.811358
11.81653
11.823116
11.831386
11.841572
11.85379
11.868005
11.884043
11.901629
11.920406
11.940237
11.960838
11.981777
12.002972
12.024233
12.045396
12.066299
12.086798
12.106711
12.125911
12.144156
12.161355
12.17712
12.191488
12.203783
12.214447
12.222204
12.228473
12.230599
12.232218
12.227443
12.22493
12.211189
12.206828
12.179299
12.179646
11.782089
11.782133
11.782187
11.782244
11.782309
11.782381
11.782463
11.782555
11.782659
11.782777
11.782911
11.783064
11.783239
11.78344
11.783672
11.78394
11.784252
11.784619
11.785053
11.785566
11.786181
11.786939
11.787871
11.789019
11.790446
11.792249
11.79457
11.797566
11.801439
11.806435
11.81284
11.820946
11.831001
11.843153
11.857404
11.873607
11.891505
11.910755
11.931164
11.952501
11.974375
11.996619
12.019074
12.041529
12.063813
12.085748
12.107177
12.127912
12.14783
12.1667
12.184463
12.200755
12.21568
12.228576
12.239987
12.24861
12.256022
12.259431
12.262764
12.259803
12.259722
12.248277
12.247378
12.222421
12.22772
11.771644
11.7717
11.771768
11.77184
11.77192
11.772009
11.77211
11.772223
11.77235
11.772494
11.772656
11.772841
11.773051
11.773292
11.773566
11.773871
11.774226
11.774662
11.77518
11.775781
11.776493
11.777362
11.778446
11.77981
11.781539
11.783757
11.786623
11.790345
11.795179
11.801418
11.809366
11.819294
11.831382
11.845678
11.862058
11.880274
11.900022
11.921015
11.94311
11.965858
11.98912
12.012714
12.036424
12.06006
12.083439
12.106375
12.128702
12.150232
12.170852
12.190345
12.208686
12.225533
12.241049
12.254587
12.266781
12.276305
12.284891
12.289637
12.294715
12.293593
12.295994
12.286906
12.289425
12.266997
12.277419
11.760165
11.760234
11.760316
11.760403
11.7605
11.76061
11.760733
11.76087
11.76102
11.761185
11.761366
11.761579
11.761833
11.762117
11.762426
11.762776
11.763189
11.763679
11.764266
11.764975
11.765834
11.766884
11.768195
11.769857
11.771993
11.774762
11.778373
11.783082
11.789183
11.796994
11.806805
11.818829
11.833156
11.849705
11.868224
11.888438
11.91003
11.932851
11.95648
11.980718
12.005408
12.030325
12.055277
12.080065
12.104499
12.128384
12.151556
12.173832
12.195116
12.215207
12.234112
12.251512
12.267625
12.281822
12.294816
12.305279
12.315057
12.321159
12.327995
12.328786
12.33369
12.327098
12.332829
12.313673
12.327649
11.748644
11.748724
11.748819
11.74892
11.749033
11.74917
11.749326
11.74948
11.749633
11.749805
11.750007
11.750244
11.750519
11.750839
11.751213
11.751642
11.752134
11.752707
11.753391
11.754219
11.755238
11.756513
11.758131
11.760212
11.762914
11.76644
11.771044
11.777021
11.784688
11.79435
11.806252
11.820511
11.837108
11.855828
11.876405
11.898608
11.922139
11.946625
11.971805
11.997542
12.023614
12.049823
12.07597
12.101849
12.127265
12.152022
12.175961
12.198911
12.220798
12.24144
12.260874
12.278811
12.295502
12.310355
12.324147
12.33555
12.346519
12.354011
12.362585
12.365325
12.372675
12.368694
12.377656
12.361269
12.37991
11.737757
11.737849
11.737956
11.73807
11.738196
11.738337
11.738493
11.738668
11.738862
11.739079
11.739322
11.739596
11.739906
11.74026
11.740666
11.741136
11.741689
11.742347
11.743143
11.744121
11.745344
11.746895
11.748889
11.751479
11.754862
11.759286
11.765044
11.772462
11.781864
11.793531
11.80764
11.824192
11.843076
11.864101
11.886881
11.91109
11.936427
11.962518
11.989256
12.016426
12.043832
12.071273
12.098543
12.125432
12.151742
12.177281
12.2019
12.225447
12.247865
12.268997
12.28891
12.307336
12.32457
12.340057
12.354623
12.366972
12.379116
12.388012
12.398325
12.403111
12.412858
12.411967
12.423658
12.412473
12.433798
11.729048
11.729147
11.729264
11.72939
11.729528
11.729681
11.729851
11.730039
11.730249
11.730484
11.730748
11.731046
11.731385
11.731775
11.732227
11.732759
11.733395
11.734165
11.735115
11.736305
11.737817
11.739763
11.742291
11.745592
11.749906
11.755518
11.762751
11.771937
11.783378
11.797294
11.813761
11.832686
11.85398
11.87718
11.901923
11.92786
11.954727
11.982369
12.010547
12.039062
12.067714
12.096296
12.12459
12.152384
12.179474
12.205684
12.23088
12.25493
12.277797
12.299358
12.31968
12.338554
12.356291
12.372399
12.38774
12.40106
12.41442
12.424794
12.436906
12.443864
12.456066
12.458582
12.472935
12.469435
12.488329
11.726073
11.726176
11.726303
11.726432
11.726575
11.726733
11.726909
11.727104
11.727322
11.727567
11.727844
11.72816
11.728523
11.728947
11.729449
11.730051
11.730785
11.731696
11.732842
11.734306
11.736196
11.738654
11.741865
11.746058
11.751509
11.758531
11.767452
11.778584
11.792172
11.808346
11.82707
11.848307
11.871651
11.896502
11.922802
11.950242
11.97857
12.007554
12.036986
12.066663
12.09637
12.12588
12.154983
12.183458
12.211113
12.237786
12.263363
12.287738
12.31089
12.332724
12.353325
12.372534
12.390671
12.407344
12.423379
12.437682
12.452176
12.464125
12.477922
12.487283
12.501789
12.507906
12.525045
12.527487
12.548104
11.730147
11.730252
11.730379
11.730509
11.730652
11.730811
11.730988
11.731185
11.731406
11.731656
11.731941
11.732271
11.732656
11.733114
11.733667
11.734345
11.73519
11.736261
11.737632
11.739408
11.741724
11.744751
11.748707
11.753852
11.760486
11.768931
11.779505
11.792479
11.808031
11.826197
11.846915
11.869977
11.894712
11.921095
11.948845
11.977593
12.007098
12.037157
12.067559
12.098093
12.128542
12.158677
12.188278
12.217138
12.245076
12.271953
12.297676
12.322162
12.345401
12.36733
12.38804
12.407443
12.425852
12.442993
12.459617
12.474842
12.490367
12.503877
12.519225
12.531058
12.547587
12.55754
12.576935
12.585437
12.607821
11.744244
11.744345
11.744467
11.744593
11.744731
11.744884
11.745055
11.745247
11.745464
11.745712
11.745999
11.746336
11.746738
11.747225
11.747827
11.748581
11.749541
11.750778
11.752385
11.754486
11.75724
11.760846
11.765545
11.771618
11.779373
11.789129
11.801171
11.81572
11.832881
11.852623
11.874808
11.899003
11.924951
11.952516
11.981212
12.010802
12.041069
12.071798
12.102776
12.133784
12.164597
12.194983
12.224725
12.25363
12.281537
12.308328
12.333932
12.358285
12.381385
12.403199
12.423829
12.443263
12.4618
12.479289
12.496385
12.512435
12.528876
12.543868
12.560659
12.574883
12.593375
12.607022
12.628734
12.642628
12.667763
11.768928
11.769021
11.769133
11.76925
11.769378
11.769522
11.769683
11.769864
11.770072
11.770313
11.770596
11.770936
11.77135
11.771865
11.772514
11.773345
11.774421
11.775827
11.777673
11.7801
11.783288
11.787455
11.792859
11.799789
11.808553
11.819444
11.832714
11.848523
11.866912
11.887786
11.910918
11.935994
11.962794
11.990905
12.020075
12.050065
12.080653
12.111621
12.142751
12.173813
12.204575
12.234808
12.264306
12.292895
12.320437
12.346838
12.372041
12.396
12.418717
12.440195
12.460549
12.479842
12.498364
12.51607
12.533522
12.550281
12.567541
12.583917
12.60207
12.618586
12.638993
12.656156
12.680213
12.699208
12.727282
11.80538
11.805463
11.805562
11.805667
11.805782
11.805911
11.806057
11.806224
11.806418
11.806646
11.806921
11.807259
11.80768
11.808215
11.808905
11.809805
11.810987
11.812548
11.814611
11.817333
11.820908
11.825567
11.831575
11.839221
11.848797
11.860569
11.874743
11.891427
11.910607
11.932142
11.955789
11.981254
12.008226
12.036427
12.065602
12.095523
12.12597
12.15672
12.187545
12.21821
12.248483
12.278142
12.306999
12.334902
12.361737