/*--------------------------------*- C++ -*----------------------------------*\
  =========                 |
  \\      /  F ield         | OpenFOAM: The Open Source CFD Toolbox
   \\    /   O peration     | Website:  https://openfoam.org
    \\  /    A nd           | Version:  13
     \\/     M anipulation  |
\*---------------------------------------------------------------------------*/
FoamFile
{
    format      ascii;
    class       volSymmTensorField;
    location    "4.003669";
    object      UPrime2Mean;
}
// * * * * * * * * * * * * * * * * * * * * * * * * * * * * * * * * * * * * * //

dimensions      [0 2 -2 0 0 0 0];

internalField   nonuniform List<symmTensor> 
17140
(
(2.4596813e-12 -1.0109599e-10 -1.0079999e-26 4.3501255e-09 1.7318633e-25 5.3426026e-40)
(3.9619455e-10 -4.0164162e-09 -5.3127207e-27 4.1130993e-08 3.9393751e-26 4.7480696e-42)
(3.5479696e-09 -2.0890077e-08 9.0787591e-25 1.2422707e-07 -4.2055606e-24 2.0698934e-38)
(1.6626159e-08 -6.612517e-08 -1.9963653e-24 2.656659e-07 6.5262182e-24 2.5015788e-38)
(5.5458176e-08 -1.6216456e-07 4.0747467e-25 4.7914751e-07 -1.0079543e-24 3.4188076e-40)
(1.5171087e-07 -3.4214501e-07 -2.1444878e-24 7.7998488e-07 4.1892841e-24 3.6619868e-39)
(3.6425333e-07 -6.5326952e-07 -5.502918e-24 1.1848417e-06 8.7112607e-24 1.0379506e-38)
(7.969683e-07 -1.1609974e-06 3.9416545e-24 1.7113557e-06 -5.1442295e-24 2.4739156e-39)
(1.6262361e-06 -1.9540967e-06 1.8396713e-23 2.3774698e-06 -2.0040647e-23 2.6504829e-38)
(3.1423602e-06 -3.1503731e-06 6.2925004e-23 3.2004842e-06 -5.7748783e-23 1.5945598e-37)
(5.8106459e-06 -4.9027785e-06 -1.2782874e-22 4.1957454e-06 9.9531378e-23 3.5062794e-37)
(1.0359557e-05 -7.4054157e-06 1.5381757e-22 5.3749697e-06 -1.0216485e-22 2.7847438e-37)
(1.7905267e-05 -1.0898664e-05 3.1406401e-23 6.7441966e-06 -1.7870167e-23 6.5240171e-39)
(3.0123343e-05 -1.5672257e-05 -2.3446493e-22 8.3015224e-06 1.146653e-22 2.0868329e-37)
(4.9479459e-05 -2.2064903e-05 3.4055469e-23 1.0034813e-05 -1.434972e-23 2.5724671e-39)
(7.9530911e-05 -3.045885e-05 -3.5003529e-22 1.1919713e-05 1.2729473e-22 1.6140851e-37)
(0.00012530874 -4.1267993e-05 1.6773921e-23 1.3918419e-05 -5.2705386e-24 2.2354711e-40)
(0.00019378661 -5.4919158e-05 -4.8068644e-24 1.5979946e-05 1.3059114e-24 1.1192453e-41)
(0.00029443589 -7.1827904e-05 -4.3244843e-22 1.8042529e-05 1.0157902e-22 5.6296138e-38)
(0.00043986438 -9.2373093e-05 7.0609928e-22 2.0038466e-05 -1.4337604e-22 9.4388043e-38)
(0.00064653553 -0.0001168784 -4.2478417e-22 2.190163e-05 7.4519687e-23 2.1795998e-38)
(0.00093557949 -0.00014561183 1.0034235e-22 2.357681e-05 -1.5195167e-23 7.8889404e-40)
(0.0013337495 -0.00017881599 9.0709658e-22 2.5029282e-05 -1.1845596e-22 4.2461709e-38)
(0.0018746463 -0.00021677621 -1.0985048e-21 2.6252038e-05 1.2356347e-22 4.1763098e-38)
(0.0026005741 -0.00025992614 -2.1026099e-21 2.7267645e-05 2.0348177e-22 1.0454846e-37)
(0.003564838 -0.00030895537 2.0110933e-21 2.8124475e-05 -1.6726363e-22 6.6643158e-38)
(0.0048337879 -0.00036482919 1.1643259e-20 2.8884103e-05 -8.3147249e-22 1.5868475e-36)
(0.0064952249 -0.00042881433 1.6021876e-21 2.9596757e-05 -9.8134843e-23 2.1756312e-38)
(0.0086622769 -0.00050236693 -1.6277449e-20 3.0298683e-05 8.5392099e-22 1.6591509e-36)
(0.011476446 -0.00058689157 -4.3738905e-21 3.1006058e-05 1.9614354e-22 8.9973961e-38)
(0.015121466 -0.00068363026 -1.7810038e-20 3.1706508e-05 6.8044446e-22 1.1398195e-36)
(0.019827342 -0.00079337998 2.6582665e-20 3.236637e-05 -8.6119754e-22 1.9699792e-36)
(0.025879836 -0.00091631197 -7.8115075e-21 3.2936959e-05 2.1323955e-22 1.337343e-37)
(0.033627286 -0.0010517807 -4.1852607e-21 3.3363875e-05 9.5437831e-23 3.0602151e-38)
(0.043486337 -0.001197949 -4.5922804e-20 3.3583255e-05 8.651702e-22 2.9697529e-36)
(0.055943913 -0.0013514491 2.2367151e-20 3.3526921e-05 -3.42828e-22 5.7536536e-37)
(0.071551181 -0.0015067581 -3.7218567e-20 3.3118444e-05 4.545975e-22 1.3155274e-36)
(0.090904742 -0.0016552483 -2.7643845e-20 3.2267122e-05 2.6085743e-22 6.0685274e-37)
(0.11460644 -0.0017843136 -1.3801293e-20 3.0884941e-05 9.578372e-23 1.2806907e-37)
(0.14318832 -0.0018753548 4.5255672e-20 2.8874544e-05 -2.1112984e-22 1.1826405e-36)
(0.17699146 -0.0019032279 9.1691694e-20 2.6201365e-05 -2.3551934e-22 4.2263986e-36)
(0.21598519 -0.0018344619 8.8512853e-20 2.2920132e-05 -5.2587716e-23 3.483691e-36)
(0.25951435 -0.0016304291 4.0693504e-20 1.9335127e-05 5.32018e-23 6.6306424e-37)
(0.30604854 -0.0012512 -2.0628276e-19 1.6079962e-05 -6.5459743e-22 1.5642721e-35)
(0.35299017 -0.00066852721 -1.5504397e-19 1.4257358e-05 -7.8285214e-22 8.3092669e-36)
(0.3964794 0.00010536246 3.8579994e-20 1.5371291e-05 2.676463e-22 4.9732347e-37)
(0.43192328 0.0010381495 -2.6123213e-19 2.0529947e-05 -2.3133574e-21 2.2725514e-35)
(0.45478057 0.002095563 -8.6726256e-20 3.009693e-05 -9.4115938e-22 2.5866752e-36)
(0.45850523 0.0031443667 8.4537443e-20 4.3592257e-05 1.0904949e-21 2.6454725e-36)
(0.44439184 0.0040255601 1.9387226e-19 5.9508714e-05 2.8971544e-21 1.5598515e-35)
(0.41052109 0.0046495285 -1.0926766e-19 7.535416e-05 -1.8609272e-21 5.8155366e-36)
(0.35953129 0.0049720497 -6.1596315e-20 8.90116e-05 -1.18401e-21 2.2773862e-36)
(0.29468202 0.0049494197 1.3983264e-19 9.883625e-05 3.0181281e-21 1.5212934e-35)
(0.22210755 0.0045226797 5.5899612e-20 0.00010206742 1.3462679e-21 3.3381601e-36)
(0.15142926 0.0036930023 3.2792642e-20 9.5209297e-05 8.7001429e-22 1.6664403e-36)
(0.092485882 0.0026380244 -2.074569e-20 7.7667453e-05 -5.948591e-22 1.0117936e-36)
(0.051012561 0.0016223296 4.4436625e-20 5.338179e-05 1.3435359e-21 7.2492593e-36)
(0.026575498 0.00086874044 2.9463545e-20 3.0465698e-05 9.1754801e-22 4.984721e-36)
(0.014169318 0.00042032661 5.9154405e-21 1.4354473e-05 1.8720568e-22 3.0880009e-37)
(0.0086030133 0.00020223181 -1.2431453e-20 5.7240684e-06 -4.0013793e-22 2.0297273e-36)
(0.0061064173 0.00011150565 -8.048389e-21 2.4146574e-06 -2.7034228e-22 1.2332792e-36)
(0.0047748994 7.5745812e-05 -2.4706093e-20 1.563776e-06 -9.0587748e-22 1.6782558e-35)
(0.0037503303 5.9087579e-05 -2.9372828e-21 1.2795299e-06 -1.2512256e-22 3.596506e-37)
(0.0028333295 4.7998817e-05 1.8884037e-20 1.1009641e-06 9.947706e-22 2.5400133e-35)
(0.0019428413 3.3276439e-05 -9.9142319e-21 8.6710516e-07 -7.6303519e-22 1.5180217e-35)
(2.4344648e-10 -5.6829742e-09 1.3954726e-26 1.3273501e-07 -2.8290901e-25 4.3266234e-41)
(3.9355678e-09 -7.0276677e-08 -4.9091764e-24 1.2553966e-06 7.8328804e-23 5.6973032e-37)
(1.7810391e-08 -2.5986511e-07 8.6032395e-24 3.7930914e-06 -1.1222335e-22 4.5116447e-37)
(5.5728179e-08 -6.7249073e-07 -3.9679606e-24 8.1185005e-06 4.2988634e-23 3.3530509e-38)
(1.4290106e-07 -1.4470919e-06 -1.2797343e-23 1.4660424e-05 1.1701783e-22 1.430886e-37)
(3.2431183e-07 -2.783574e-06 3.6325091e-23 2.3902729e-05 -2.8369327e-22 5.224367e-37)
(6.7706393e-07 -4.9616902e-06 -5.4360016e-23 3.6379386e-05 3.654484e-22 5.6769325e-37)
(1.3292918e-06 -8.3645227e-06 6.6975073e-24 5.2664489e-05 -3.8970294e-23 4.3970783e-39)
(2.4887896e-06 -1.350699e-05 -2.8710476e-23 7.3354532e-05 1.4517802e-22 4.285704e-38)
(4.4854224e-06 -2.1068452e-05 -6.5651607e-25 9.9041515e-05 2.8942049e-24 1.2243449e-41)
(7.8327937e-06 -3.1928091e-05 -1.730634e-22 0.00013027489 6.6674094e-22 4.7764408e-37)
(1.3316281e-05 -4.7200689e-05 3.6337334e-22 0.00016751133 -1.2258633e-21 1.2056902e-36)
(2.2116238e-05 -6.8268839e-05 3.9307126e-23 0.00021105252 -1.1629426e-22 8.2216469e-39)
(3.5976758e-05 -9.6805766e-05 -5.041246e-22 0.00026097322 1.3095146e-21 8.0031518e-37)
(5.7431282e-05 -0.00013478108 1.9975495e-22 0.00031704571 -4.5591396e-22 7.5388679e-38)
(9.0096723e-05 -0.00018444129 1.6257546e-22 0.0003786704 -3.2616157e-22 3.033574e-38)
(0.00013904572 -0.00024825707 -1.3132869e-21 0.00044482842 2.3161701e-21 1.2167401e-36)
(0.00021126425 -0.00032883473 5.4129258e-21 0.00051407564 -8.3904693e-21 1.2854193e-35)
(0.00031619595 -0.00042879723 -4.2597202e-21 0.00058460052 5.8006095e-21 5.0086297e-36)
(0.00046637245 -0.0005506572 6.3703465e-21 0.00065436459 -7.6153638e-21 7.1341006e-36)
(0.00067813049 -0.00069672344 -1.1661249e-20 0.00072133102 1.2227283e-20 1.5425626e-35)
(0.00097243183 -0.00086910372 3.515102e-21 0.00078376747 -3.2296685e-21 9.1729083e-37)
(0.0013758324 -0.0010698713 1.7660705e-21 0.00084057398 -1.4204684e-21 1.5388546e-37)
(0.0019217249 -0.0013014497 -6.9791458e-21 0.00089155727 4.9093634e-21 1.6232868e-36)
(0.0026521975 -0.0015672469 3.0070251e-20 0.00093756418 -1.8485288e-20 2.0722614e-35)
(0.0036204255 -0.0018723137 5.3272186e-21 0.00098040038 -2.8603905e-21 4.5531704e-37)
(0.0048924213 -0.0022234927 -3.2477923e-20 0.0010224672 1.5229911e-20 1.2087451e-35)
(0.0065555777 -0.0026300724 4.248063e-20 0.0010659555 -1.7396773e-20 1.5043055e-35)
(0.008722603 -0.0031030278 -6.7576969e-21 0.0011126199 2.4168272e-21 2.8236838e-37)
(0.011533847 -0.0036538425 -7.6014097e-20 0.0011636313 2.3736721e-20 2.6895759e-35)
(0.015171538 -0.0042946177 8.9938996e-21 0.001219285 -2.4503368e-21 2.8857805e-37)
(0.019863493 -0.0050364299 7.8171057e-20 0.0012790855 -1.8557796e-20 1.6931956e-35)
(0.02589244 -0.0058886726 2.2252274e-21 0.0013418948 -4.5959034e-22 1.0751085e-38)
(0.033602785 -0.0068579482 -7.3780516e-20 0.001406033 1.3216429e-20 9.4843977e-36)
(0.043406238 -0.0079464791 9.1915535e-20 0.0014692065 -1.4240585e-20 1.1891999e-35)
(0.055783438 -0.009149795 -4.597556e-20 0.0015283662 6.1380567e-21 2.4316049e-36)
(0.071278087 -0.010453122 5.9751003e-20 0.0015794403 -6.8409609e-21 3.4001542e-36)
(0.090477626 -0.011825835 2.0870616e-19 0.0016169761 -2.037246e-20 3.4720337e-35)
(0.1139728 -0.013214064 5.1018991e-20 0.0016339494 -4.2102864e-21 1.758201e-36)
(0.14228195 -0.014530844 2.1602043e-19 0.0016217765 -1.4875989e-20 2.7090858e-35)
(0.17572914 -0.015645866 -2.9730863e-19 0.0015710826 1.6746856e-20 4.474328e-35)
(0.21426215 -0.016377886 -2.9151959e-19 0.001473657 1.3012941e-20 3.8069035e-35)
(0.25719806 -0.016497755 -5.2648919e-20 0.0013263011 1.765378e-21 1.1173696e-36)
(0.30296728 -0.015750899 4.3850341e-19 0.001135646 -9.9110219e-21 7.1418923e-35)
(0.34889407 -0.013903645 -2.1351947e-19 0.00092237344 2.5364773e-21 1.5932903e-35)
(0.39107452 -0.010830797 -7.5009832e-20 0.00072370178 8.4472265e-23 1.9034383e-36)
(0.42463416 -0.0065622971 3.9999327e-20 0.00058324637 3.9242698e-22 5.4223499e-37)
(0.4447219 -0.0013111127 1.220164e-19 0.00053201608 2.5404683e-21 5.2225797e-36)
(0.44767775 0.0041316701 -5.7116585e-20 0.00060421628 -1.8075852e-21 1.2349928e-36)
(0.43161651 0.0091140739 9.6959081e-20 0.0007844634 4.0918192e-21 4.0040541e-36)
(0.39666132 0.013343357 5.3391289e-19 0.0010218845 2.8208802e-20 1.4306327e-34)
(0.34518968 0.016367744 2.2770617e-20 0.0012811094 1.4501694e-21 3.2171563e-37)
(0.28075936 0.017913452 -8.9065335e-20 0.0015258182 -6.6812796e-21 6.4306432e-36)
(0.20949879 0.01748811 1.6729887e-19 0.0016971994 1.4460558e-20 3.1336704e-35)
(0.14101676 0.014878779 -1.1730958e-19 0.0016927462 -1.1330143e-20 2.2484486e-35)
(0.084819177 0.010848324 2.6717158e-19 0.0014512556 2.7727178e-20 1.7813084e-34)
(0.046001812 0.0066858445 6.040437e-20 0.0010265476 6.421835e-21 1.4267529e-35)
(0.023516423 0.0035195895 -1.3476958e-19 0.00059034024 -1.3997807e-20 1.1145685e-34)
(0.012313237 0.0016257976 1.8324434e-20 0.00027107306 1.7931985e-21 3.1715368e-36)
(0.0073825941 0.00071504306 1.7043441e-20 9.7721092e-05 1.5501216e-21 4.0856376e-36)
(0.0052289406 0.00035481157 2.8303079e-21 3.4537604e-05 2.4785261e-22 1.631649e-37)
(0.0041215388 0.00023047456 -3.1293515e-20 2.2774558e-05 -2.862703e-21 2.8667041e-35)
(0.0032995808 0.00018524127 4.9725536e-20 2.0067916e-05 5.2769572e-21 1.0865759e-34)
(0.0025800142 0.00016663111 1.1486787e-20 1.8090747e-05 1.5291761e-21 9.7376518e-36)
(0.0018426305 0.00013060423 1.3217041e-20 1.6265529e-05 2.5872848e-21 2.6895937e-35)
(2.1018702e-09 -3.0014336e-08 2.0884517e-24 4.2862824e-07 -2.8339008e-23 1.3150703e-37)
(2.3967872e-08 -3.1174913e-07 -3.4670995e-24 4.0551693e-06 4.2961996e-23 5.2046229e-38)
(8.5372834e-08 -1.0228833e-06 -1.6192741e-24 1.2256515e-05 1.8376186e-23 3.6813338e-39)
(2.1717373e-07 -2.3872663e-06 2.3579921e-24 2.6244358e-05 -2.4465608e-23 3.3098639e-39)
(4.6746598e-07 -4.7077719e-06 -1.6458548e-23 4.7416517e-05 1.5617114e-22 7.7727931e-38)
(9.1232767e-07 -8.4002542e-06 -1.6982029e-24 7.7355236e-05 1.473409e-23 4.2972565e-40)
(1.6700162e-06 -1.4025777e-05 -2.9365354e-23 0.0001178137 2.3269402e-22 7.0169818e-38)
(2.9218425e-06 -2.23302e-05 -4.2063583e-23 0.00017068641 3.0390467e-22 8.1460629e-38)
(4.9427153e-06 -3.4291773e-05 4.5103498e-22 0.00023795524 -2.9654266e-21 5.4416989e-36)
(8.1449828e-06 -5.1175139e-05 -5.2302748e-22 0.00032160593 3.12308e-21 4.3380661e-36)
(1.3140543e-05 -7.458961e-05 3.225065e-22 0.00042350853 -1.7454942e-21 9.9341261e-37)
(2.0827605e-05 -0.00010654779 6.0499644e-22 0.00054525782 -2.9621278e-21 2.1324196e-36)
(3.2510034e-05 -0.00014951817 -1.5277963e-21 0.00068797319 6.7537134e-21 8.3828635e-36)
(5.0058652e-05 -0.00020646245 -2.3972664e-22 0.0008520648 9.5493774e-22 1.2836659e-37)
(7.6124937e-05 -0.00028084544 1.168334e-21 0.0010369828 -4.1855251e-21 1.9118819e-36)
(0.00011441804 -0.00037660411 1.0097464e-21 0.0012409816 -3.2467331e-21 9.0208772e-37)
(0.00017005558 -0.00049806421 -1.466149e-21 0.0014609468 4.2224616e-21 1.2102137e-36)
(0.00024999616 -0.00064979888 6.6173752e-21 0.0016923501 -1.7033416e-20 1.5806003e-35)
(0.00036355997 -0.00083644036 -4.8541938e-21 0.0019294049 1.1143189e-20 5.497573e-36)
(0.00052304096 -0.0010624796 2.9640443e-21 0.0021654904 -6.0545611e-21 1.3367311e-36)
(0.00074441844 -0.0013321239 -1.2271143e-20 0.0023938718 2.2254185e-20 1.5096377e-35)
(0.0010481896 -0.0016493156 -3.8936287e-21 0.0026086797 6.2553226e-21 1.0130253e-36)
(0.0014603696 -0.0020180286 9.8388905e-21 0.0028060044 -1.3973111e-20 4.3688005e-36)
(0.0020137637 -0.0024429327 -1.7797809e-20 0.0029848579 2.2301024e-20 9.7955076e-36)
(0.0027498196 -0.0029304848 -8.3556919e-21 0.0031476915 9.221859e-21 1.5027645e-36)
(0.0037211793 -0.0034901681 1.1866806e-20 0.0033002212 -1.1520258e-20 2.1476151e-36)
(0.004993013 -0.0041346284 7.9023007e-20 0.0034503953 -6.7416884e-20 6.8616997e-35)
(0.0066514356 -0.0048811661 4.1591001e-20 0.0036059375 -3.1159782e-20 1.3940559e-35)
(0.0088077102 -0.0057499773 -2.3956454e-20 0.0037726906 1.5751387e-20 3.4546539e-36)
(0.011599498 -0.0067623203 2.9408667e-20 0.0039549748 -1.6957175e-20 3.9432386e-36)
(0.015205085 -0.0079408986 -2.0949404e-20 0.0041543322 1.0581366e-20 1.5436334e-36)
(0.019846982 -0.0093068531 -1.3448142e-19 0.0043696048 5.9416226e-20 4.962364e-35)
(0.025800526 -0.010878598 5.0768749e-20 0.0045974417 -1.9584371e-20 5.5967254e-36)
(0.033400586 -0.012669854 1.7007315e-19 0.0048325132 -5.7157914e-20 5.0297822e-35)
(0.043046658 -0.014686908 -6.3354953e-20 0.0050673598 1.8499602e-20 5.6637338e-36)
(0.055203967 -0.016924303 -9.8611013e-20 0.005291775 2.4945571e-20 1.1244447e-35)
(0.070397211 -0.019358088 1.8891873e-19 0.0054917449 -4.1241315e-20 3.4239438e-35)
(0.089190475 -0.021935836 6.3412003e-20 0.0056483265 -1.1886694e-20 3.2368703e-36)
(0.11214553 -0.02456247 -1.2326413e-19 0.0057365961 1.9689936e-20 1.0405146e-35)
(0.13974476 -0.027082323 -5.3662854e-20 0.005725777 7.2256699e-21 1.6989849e-36)
(0.17226629 -0.029258684 2.7803312e-19 0.0055811301 -3.1034888e-20 3.9814494e-35)
(0.20959662 -0.030759396 -8.4136235e-20 0.0052707274 7.5638412e-21 3.2412553e-36)
(0.25097313 -0.03115973 -1.2895862e-19 0.0047779669 8.942084e-21 6.8719683e-36)
(0.29472314 -0.029983896 -3.6041428e-19 0.0041191237 1.7750333e-20 4.9465097e-35)
(0.33803388 -0.026790906 7.0787588e-19 0.0033589349 -2.0688408e-20 1.8035124e-34)
(0.37690367 -0.021333652 -4.6612498e-19 0.0026192736 4.2589902e-21 7.6011674e-35)
(0.40658385 -0.013742359 -1.1750251e-19 0.0020592118 -1.2995955e-21 4.8514688e-36)
(0.42257114 -0.0045985477 -4.5573989e-19 0.0018121651 -1.4355439e-20 7.6165202e-35)
(0.42149467 0.0049996736 -5.238706e-19 0.0019505502 -2.7091145e-20 1.0942457e-34)
(0.40191072 0.013874026 -2.4881298e-20 0.0024333742 -1.778706e-21 2.8108811e-37)
(0.36504271 0.021212608 9.6489828e-20 0.003125287 8.8295434e-21 5.0176632e-36)
(0.31363559 0.02646819 -6.337139e-19 0.0038972394 -7.0897895e-20 2.6964635e-34)
(0.25134048 0.029154072 -2.3421768e-19 0.0046382983 -3.1206198e-20 4.8557047e-35)
(0.1840337 0.028437607 -2.0251251e-19 0.0051685563 -3.1339711e-20 5.0702259e-35)
(0.12098882 0.023986848 -5.4479074e-20 0.0051569795 -9.4609068e-21 5.4039016e-36)
(0.070868625 0.017233983 -3.3687384e-19 0.0044068686 -6.2798768e-20 3.1865453e-34)
(0.037430929 0.010430074 1.0597194e-19 0.0030996556 2.0111581e-20 4.9589965e-35)
(0.018703326 0.005382782 -2.5590272e-20 0.0017722427 -4.6888171e-21 4.5330119e-36)
(0.0096699368 0.0024358012 -1.685732e-19 0.00080987782 -2.8585816e-20 3.0176831e-34)
(0.0057679899 0.0010420302 -5.4811121e-20 0.00028887221 -8.4541182e-21 4.7295865e-35)
(0.0040777902 0.0004960919 5.4157543e-20 9.5867872e-05 7.8690196e-21 6.6735707e-35)
(0.0032299032 0.00031311529 1.553968e-19 6.0425643e-05 2.3197981e-20 7.8783591e-34)
(0.0026336709 0.0002485394 -4.0678476e-20 5.3827751e-05 -7.0150469e-21 8.0358344e-35)
(0.0021509092 0.00022763838 -5.1132472e-20 4.7191817e-05 -1.10717e-20 2.088036e-34)
(0.0016394062 0.00018833086 -1.54568e-20 4.2612326e-05 -4.8900525e-21 3.8308092e-35)
(8.2776972e-09 -8.4171056e-08 -1.3762777e-23 8.5590082e-07 1.3640002e-22 1.4748515e-36)
(8.5394439e-08 -8.3176925e-07 4.6845937e-23 8.1018596e-06 -4.4448125e-22 2.705656e-36)
(2.7987241e-07 -2.6185753e-06 -2.8445852e-23 2.4500977e-05 2.5803354e-22 3.5376052e-37)
(6.5463244e-07 -5.8620578e-06 4.5484866e-24 5.2495564e-05 -3.9342453e-23 4.1811471e-39)
(1.2990123e-06 -1.1103352e-05 -1.2438535e-22 9.4912368e-05 1.024054e-21 1.6343189e-36)
(2.3422364e-06 -1.905071e-05 1.7190275e-22 0.000154963 -1.3443154e-21 1.7499154e-36)
(3.9698592e-06 -3.0621531e-05 -3.4034264e-22 0.00023622384 2.5213935e-21 4.0274161e-36)
(6.4468489e-06 -4.6992711e-05 2.0563358e-22 0.00034258369 -1.4387711e-21 8.9178549e-37)
(1.015006e-05 -6.9660074e-05 9.9232775e-22 0.00047814516 -6.5358271e-21 1.2894654e-35)
(1.5613137e-05 -0.0001005047 -3.00278e-22 0.00064706735 1.8553954e-21 7.4581224e-37)
(2.3588113e-05 -0.00014186342 -1.4302643e-21 0.00085333699 8.2620925e-21 1.0822761e-35)
(3.5129119e-05 -0.00019659871 5.4352042e-22 0.0011004577 -2.9249938e-21 1.0091522e-36)
(5.1705016e-05 -0.00026816031 4.5056162e-23 0.0013910548 -2.2509069e-22 4.5108664e-39)
(7.5348926e-05 -0.00036062775 -2.1819964e-21 0.0017264042 1.0083399e-20 6.9149234e-36)
(0.00010885427 -0.00047872023 8.4235717e-21 0.0021059162 -3.5878142e-20 6.7690779e-35)
(0.00015602706 -0.00062775759 -6.3676209e-21 0.0025266316 2.4906369e-20 2.5508585e-35)
(0.00022200601 -0.00081356084 -7.4552539e-23 0.0029828215 2.6680826e-22 2.314477e-39)
(0.0003136606 -0.001042286 5.3045268e-21 0.0034658212 -1.7304927e-20 7.7918657e-36)
(0.00044007793 -0.0013202061 -1.6467238e-20 0.003964248 4.8787339e-20 5.0170582e-35)
(0.0006131485 -0.0016534826 9.470153e-21 0.0044647522 -2.5385133e-20 1.1152614e-35)
(0.00084826945 -0.0020480187 1.714278e-20 0.0049533868 -4.14216e-20 2.4740883e-35)
(0.001165191 -0.0025095177 8.3864581e-21 0.0054175538 -1.8199964e-20 4.043919e-36)
(0.0015890557 -0.003043898 -4.9849849e-20 0.0058482718 9.6825864e-20 9.8637341e-35)
(0.0021517125 -0.0036581797 -3.1116392e-20 0.0062422892 5.3919172e-20 2.6851928e-35)
(0.0028935555 -0.004361921 2.3857622e-20 0.0066033866 -3.6773688e-20 1.1185191e-35)
(0.0038661882 -0.0051689985 -1.6399687e-20 0.0069422995 2.242804e-20 3.79867e-36)
(0.0051336361 -0.0060977878 7.1868179e-20 0.0072750486 -8.7027982e-20 5.3308957e-35)
(0.0067797233 -0.0071732434 -2.3973181e-20 0.007618495 2.5661272e-20 4.4030703e-36)
(0.0089129404 -0.0084240975 7.4515665e-20 0.0079846292 -7.0397581e-20 3.2081643e-35)
(0.01166715 -0.0098809835 -4.8262788e-20 0.008383275 4.0182167e-20 1.0302138e-35)
(0.015214121 -0.011576482 3.4018508e-20 0.0088187974 -2.4918308e-20 3.9717058e-36)
(0.019768084 -0.013541255 -1.4136487e-19 0.0092896791 9.0934811e-20 5.3965326e-35)
(0.025592797 -0.015802121 2.2883467e-20 0.0097896739 -1.2900658e-20 1.1268882e-36)
(0.033007994 -0.018379375 -1.354297e-19 0.010308135 6.6769578e-20 3.1785159e-35)
(0.04239369 -0.021282928 1.4474107e-19 0.010829752 -6.2248581e-20 2.9597377e-35)
(0.054190499 -0.02450599 5.1469093e-20 0.011333063 -1.9258024e-20 3.08037e-36)
(0.068892177 -0.028015327 -7.0943694e-19 0.011788236 2.3000702e-19 4.8859864e-34)
(0.087024437 -0.031736627 -2.0352107e-19 0.012154415 5.6918238e-20 3.3895066e-35)
(0.10910119 -0.035533742 1.8433692e-19 0.012377372 -4.4152568e-20 2.3744419e-35)
(0.13554477 -0.039181811 -1.9659617e-19 0.012389195 3.9915985e-20 2.3349594e-35)
(0.16655683 -0.042337377 5.4515167e-20 0.012112446 -9.2350959e-21 1.5725207e-36)
(0.20192542 -0.044516079 3.645958e-19 0.011473956 -5.0205452e-20 6.2712991e-35)
(0.2407657 -0.045097985 -1.7898773e-20 0.010432447 1.9190089e-21 1.3742273e-37)
(0.28125667 -0.043390564 -1.3540815e-19 0.009017378 1.0506483e-20 7.2619292e-36)
(0.32042771 -0.038765581 6.808606e-20 0.007366086 -3.2341019e-21 1.7466025e-36)
(0.35422654 -0.030907941 -3.4698612e-20 0.0057427481 6.407489e-22 4.4008621e-37)
(0.37806029 -0.020084274 -9.9556821e-20 0.0044908486 -1.2429442e-21 3.6974826e-36)
(0.3878183 -0.0072665977 1.4965979e-18 0.0039052905 6.4732085e-20 8.826693e-34)
(0.38094257 0.0059312651 -1.6004339e-19 0.004124329 -1.180467e-20 1.1072412e-35)
(0.3572556 0.017858976 1.3765061e-19 0.0050380458 1.4301182e-20 9.4412893e-36)
(0.31902166 0.027419242 -1.1761704e-18 0.006360725 -1.5771065e-19 8.3025412e-34)
(0.26939205 0.03407707 5.7062105e-19 0.0078179883 9.4275975e-20 2.4718515e-34)
(0.21174518 0.03731083 4.0453929e-19 0.0092038238 8.0133774e-20 1.6546944e-34)
(0.15121083 0.036033435 3.225567e-19 0.010181533 7.4633895e-20 1.4867861e-34)
(0.096387679 0.029886966 2.5237513e-19 0.010081636 6.5668621e-20 1.3569242e-34)
(0.054657096 0.021011734 3.1568323e-19 0.0085281356 8.7995023e-20 3.2864498e-34)
(0.028088727 0.012425847 -4.9936142e-19 0.00592647 -1.4067213e-19 1.2916483e-33)
(0.013904024 0.0062963445 2.4479543e-19 0.0033458696 6.5761064e-20 4.819023e-34)
(0.00732188 0.0028384053 3.0042419e-19 0.0015162087 7.3640754e-20 1.0949322e-33)
(0.0044886079 0.00122783 -1.8156493e-19 0.00054281459 -3.9975267e-20 5.8386582e-34)
(0.0032074032 0.00057853415 -4.8214121e-20 0.00017627551 -9.9066157e-21 5.9098568e-35)
(0.0025373827 0.00034986601 -3.5028847e-20 0.00010275485 -7.3421542e-21 4.4824875e-35)
(0.0020779406 0.00026875281 1.4604939e-19 9.0929284e-05 3.5194124e-20 1.1612176e-33)
(0.0017423486 0.00024346498 8.4102117e-20 7.8478081e-05 2.5383842e-20 6.2668625e-34)
(0.0014023814 0.00020449172 -2.6364898e-21 6.9477319e-05 -1.1618225e-21 1.216603e-36)
(2.2011194e-08 -1.7266471e-07 1.6025615e-23 1.3544605e-06 -1.2379055e-22 7.3125177e-37)
(2.1802238e-07 -1.6725263e-06 -1.1129663e-22 1.283067e-05 8.3965866e-22 5.8409253e-36)
(6.8924648e-07 -5.1734037e-06 1.490993e-22 3.8831805e-05 -1.0965501e-21 3.8828588e-36)
(1.5511008e-06 -1.1364808e-05 -8.1095862e-23 8.3272465e-05 5.8036697e-22 5.546636e-37)
(2.957876e-06 -2.1112348e-05 -3.9681424e-23 0.00015070272 2.7590065e-22 7.2414886e-38)
(5.1184341e-06 -3.5505471e-05 4.4676138e-22 0.0002463173 -3.0123406e-21 5.3643169e-36)
(8.3147033e-06 -5.5905288e-05 -1.4467197e-22 0.00037593822 9.4378953e-22 3.4430749e-37)
(1.2926431e-05 -8.3999551e-05 -3.864005e-22 0.00054594729 2.4323835e-21 1.5533761e-36)
(1.9464686e-05 -0.00012186566 -3.6853642e-23 0.00076315009 2.2320405e-22 9.1522582e-39)
(2.861645e-05 -0.00017203871 -3.8587727e-22 0.0010345488 2.2414496e-21 6.6113275e-37)
(4.1303814e-05 -0.00023758173 6.6187698e-22 0.0013670026 -3.6750573e-21 1.2979011e-36)
(5.8762177e-05 -0.0003221528 -5.6098903e-22 0.0017667564 2.9670273e-21 6.2783393e-37)
(8.2643052e-05 -0.00043006174 -2.5128376e-21 0.0022388271 1.2612799e-20 8.5376322e-36)
(0.00011514825 -0.00056630581 -8.8575638e-23 0.0027862552 4.2031094e-22 7.2201496e-39)
(0.00015920372 -0.0007365717 2.8206261e-21 0.0034092586 -1.2602407e-20 5.0056548e-36)
(0.00021868299 -0.00094719061 2.4159297e-21 0.0041043669 -1.0121052e-20 2.5160831e-36)
(0.0002986912 -0.0012050349 -2.5108697e-21 0.004863674 9.819814e-21 1.8664549e-36)
(0.00040592421 -0.0015173566 2.9059913e-22 0.0056744054 -1.0561933e-21 1.7221473e-38)
(0.00054911649 -0.0018915822 7.1104287e-21 0.0065190526 -2.3905597e-20 7.1172737e-36)
(0.00073959812 -0.0023351136 1.0409873e-20 0.0073763338 -3.2220643e-20 1.0576133e-35)
(0.0009919862 -0.0028552281 -1.423458e-20 0.008223181 4.0367289e-20 1.3782444e-35)
(0.0013250423 -0.0034592093 -1.7095746e-20 0.0090377574 4.4206882e-20 1.3947929e-35)
(0.0017627518 -0.0041548783 2.7332073e-20 0.0098031928 -6.4144225e-20 2.5225187e-35)
(0.002335686 -0.0049516475 -3.9972354e-20 0.010511325 8.4758663e-20 3.8560377e-35)
(0.0030828229 -0.0058621728 -8.1360175e-20 0.011165384 1.5522688e-19 1.1551321e-34)
(0.0040541296 -0.0069044751 2.237201e-19 0.011780541 -3.8260944e-19 6.3988422e-34)
(0.0053124144 -0.0081027095 -1.4270091e-19 0.012381887 2.1805378e-19 1.9340007e-34)
(0.0069379931 -0.0094882938 2.432591e-19 0.012998097 -3.3120095e-19 4.2351642e-34)
(0.0090351335 -0.011097703 -3.4736682e-19 0.013649908 4.2034143e-19 6.6010469e-34)
(0.011733518 -0.012970844 4.4058243e-19 0.014355304 -4.7272765e-19 8.224884e-34)
(0.015195531 -0.015148598 -5.1470897e-19 0.015123668 4.8855277e-19 8.8088226e-34)
(0.019624287 -0.017670276 9.7363993e-20 0.015954174 -8.1567915e-20 2.5050289e-35)
(0.025267864 -0.020569982 3.7627975e-19 0.016837626 -2.7760617e-19 3.0052714e-34)
(0.032425485 -0.023873561 -2.3637875e-19 0.017756951 1.5320971e-19 9.6371055e-35)
(0.041450586 -0.027593507 8.1968541e-20 0.018686669 -4.6555112e-20 9.5204618e-36)
(0.052750017 -0.031720887 2.6409067e-20 0.019590372 -1.3104664e-20 8.2095241e-37)
(0.066774984 -0.036212598 3.58104e-19 0.020416761 -1.5475418e-19 1.2647283e-34)
(0.083997964 -0.04097204 1.2768784e-19 0.021094665 -4.7829738e-20 1.3627444e-35)
(0.10486631 -0.045821673 1.4007813e-19 0.021528561 -4.516264e-20 1.4073283e-35)
(0.12971892 -0.050467351 1.4968921e-19 0.021597557 -4.1110357e-20 1.3980307e-35)
(0.15865209 -0.054458511 -8.186325e-19 0.021162024 1.885467e-19 3.6864287e-34)
(0.19132047 -0.05715902 3.8231986e-19 0.020087788 -7.2035829e-20 7.2019719e-35)
(0.22667709 -0.057756447 6.4195085e-20 0.018294862 -9.5305744e-21 1.845739e-36)
(0.26271513 -0.055353793 -7.6955133e-19 0.015829534 8.3142482e-20 2.484118e-34)
(0.29631258 -0.049176689 -4.0001954e-19 0.012936463 2.7207094e-20 6.4311792e-35)
(0.32344462 -0.038929377 1.9803055e-19 0.010090403 -5.3873678e-21 1.5629039e-35)
(0.3398829 -0.025135654 7.1205254e-19 0.0078953077 1.0113984e-20 2.0701663e-34)
(0.34229484 -0.0092325659 -2.9918995e-19 0.0068489098 -1.6827462e-20 3.9189216e-35)
(0.32930069 0.0066674561 8.2739074e-19 0.0071386961 8.1319902e-20 3.3381014e-34)
(0.30208441 0.020516782 4.1493897e-19 0.0085379467 5.8115071e-20 9.8215913e-35)
(0.26390158 0.031139699 5.155225e-19 0.010547227 9.37862e-20 1.8571634e-34)
(0.2181165 0.038265197 1.2189307e-18 0.012704978 2.7483024e-19 1.3276103e-33)
(0.16741295 0.041494779 -8.0632054e-19 0.014730511 -2.1930545e-19 7.8462138e-34)
(0.11580194 0.039543015 2.188273e-19 0.016136089 6.9893742e-20 8.2361898e-35)
(0.071026415 0.032097617 -3.037499e-19 0.015823599 -1.092054e-19 2.3953239e-34)
(0.038790806 0.021967009 -2.3005326e-19 0.013214612 -8.8198722e-20 2.1268065e-34)
(0.019500751 0.012663008 -7.165392e-20 0.0090417384 -2.7470282e-20 3.2013207e-35)
(0.0098224321 0.0063399452 -5.2510112e-19 0.0050170453 -1.8871358e-19 2.612395e-33)
(0.0054939955 0.0029074402 -1.1584507e-19 0.0022443038 -3.7368488e-20 1.8639185e-34)
(0.003583475 0.0013149031 2.2083951e-19 0.00080653681 6.3350285e-20 9.6463123e-34)
(0.0026314793 0.00063095674 6.9920392e-20 0.00026286984 1.8685183e-20 1.3705537e-34)
(0.0020761879 0.0003631146 -4.3486795e-20 0.00014222315 -1.1864044e-20 7.6366867e-35)
(0.001688136 0.00026492414 -7.3231343e-20 0.00012206335 -2.2953163e-20 3.2647928e-34)
(0.0014303258 0.00023467224 -8.9452413e-20 0.00010577321 -3.4950242e-20 7.91656e-34)
(0.0012007263 0.00019488014 4.9087482e-21 9.1600392e-05 2.7709104e-21 4.604478e-36)
(4.5822537e-08 -2.9108051e-07 7.2374049e-23 1.849049e-06 -4.5501624e-22 6.7887651e-36)
(4.4491486e-07 -2.792903e-06 5.2711264e-23 1.7532275e-05 -3.2690784e-22 6.1280337e-37)
(1.3812622e-06 -8.5653113e-06 -6.9219087e-23 5.311526e-05 4.2274317e-22 4.0187526e-37)
(3.0468999e-06 -1.8639324e-05 -3.6320354e-22 0.00011403048 2.1820959e-21 5.4809021e-36)
(5.6883017e-06 -3.4282077e-05 2.6628253e-22 0.00020662578 -1.5719956e-21 1.6459379e-36)
(9.6229588e-06 -5.7044066e-05 -4.9553486e-22 0.00033819273 2.8706981e-21 3.4114644e-36)
(1.5259255e-05 -8.8809705e-05 2.708556e-22 0.00051696849 -1.5371598e-21 6.3907178e-37)
(2.3121688e-05 -0.00013185179 8.0148721e-23 0.00075207228 -4.447081e-22 3.6280932e-38)
(3.3883748e-05 -0.00018889118 -5.5677249e-22 0.0010533568 3.0134991e-21 1.1634694e-36)
(4.8410076e-05 -0.00026315753 -1.4595303e-21 0.0014311391 7.6866542e-21 5.4104725e-36)
(6.7810743e-05 -0.00035844837 -8.8540089e-23 0.0018957824 4.5249611e-22 1.365227e-38)
(9.3511095e-05 -0.00047918097 3.4872149e-21 0.002457094 -1.724315e-20 1.4673859e-35)
(0.00012734178 -0.00063043061 -5.7824742e-21 0.003123518 2.7575787e-20 2.8148835e-35)
(0.00017165478 -0.00081794679 1.1165091e-20 0.0039011193 -5.117437e-20 7.359938e-35)
(0.00022947289 -0.0010481376 -3.4834339e-21 0.0047923875 1.5288232e-20 5.0434163e-36)
(0.00030468282 -0.0013280152 8.8253174e-21 0.0057949501 -3.6940435e-20 2.2853372e-35)
(0.00040228292 -0.0016650937 -1.2711578e-20 0.0069003546 5.0527719e-20 3.3551166e-35)
(0.00052870336 -0.0020672504 9.8261591e-21 0.0080931792 -3.6921885e-20 1.4218527e-35)
(0.00069221625 -0.0025425653 -1.8458139e-21 0.0093508187 6.5244796e-21 3.5679732e-37)
(0.00090346379 -0.003099196 -8.8878498e-21 0.01064435 2.9403347e-20 5.9007983e-36)
(0.0011761371 -0.0037453757 2.5593281e-20 0.011940846 -7.8824701e-20 3.5053322e-35)
(0.0015278388 -0.0044896496 -4.2673934e-20 0.013207276 1.2169482e-19 7.0216787e-35)