/*--------------------------------*- C++ -*----------------------------------*\
  =========                 |
  \\      /  F ield         | OpenFOAM: The Open Source CFD Toolbox
   \\    /   O peration     | Website:  https://openfoam.org
    \\  /    A nd           | Version:  13
     \\/     M anipulation  |
\*---------------------------------------------------------------------------*/
FoamFile
{
    format      ascii;
    class       volScalarField;
    location    "36.099946";
    object      pPrime2Mean;
}
// * * * * * * * * * * * * * * * * * * * * * * * * * * * * * * * * * * * * * //

dimensions      [0 4 -4 0 0 0 0];

internalField   nonuniform List<scalar> 
17140
(
8592.7231
8592.7233
8592.7233
8592.7231
8592.7227
8592.7219
8592.7208
8592.7193
8592.7173
8592.7146
8592.7111
8592.7065
8592.7006
8592.6931
8592.6835
8592.6713
8592.6557
8592.6358
8592.6105
8592.5781
8592.5366
8592.4836
8592.4155
8592.3282
8592.2162
8592.0728
8591.8893
8591.6553
8591.3579
8590.9815
8590.5068
8589.9101
8589.1625
8588.2291
8587.0674
8585.6266
8583.847
8581.6583
8578.9796
8575.7182
8571.7686
8567.0115
8561.3122
8554.5198
8546.4661
8536.9644
8525.8092
8512.7753
8497.6165
8480.0653
8459.8314
8436.6008
8410.0341
8379.7656
8345.4005
8306.5139
8262.645
8213.2989
8157.9328
8095.9725
8026.7741
7949.6757
7863.8966
7768.6814
7663.1141
8592.9377
8592.9379
8592.9379
8592.9377
8592.9373
8592.9366
8592.9355
8592.9339
8592.9318
8592.9291
8592.9255
8592.9208
8592.9149
8592.9072
8592.8974
8592.885
8592.8691
8592.8489
8592.8232
8592.7903
8592.7483
8592.6946
8592.6259
8592.5378
8592.4252
8592.2812
8592.0974
8591.8632
8591.5661
8591.1902
8590.7162
8590.1205
8589.3742
8588.442
8587.2816
8585.8423
8584.0641
8581.877
8579.2002
8575.941
8571.9939
8567.2397
8561.5438
8554.7554
8546.7063
8537.2098
8526.0603
8513.0327
8497.881
8480.3377
8460.113
8436.8929
8410.3381
8380.0833
8345.7337
8306.8648
8263.016
8213.6927
8158.3522
8096.421
8027.2553
7950.1934
7864.4544
7769.284
7663.76
8593.4692
8593.4694
8593.4694
8593.4692
8593.4687
8593.4679
8593.4667
8593.4651
8593.4628
8593.4599
8593.4561
8593.4512
8593.4449
8593.4369
8593.4266
8593.4136
8593.3971
8593.3762
8593.3495
8593.3157
8593.2726
8593.2177
8593.1477
8593.0585
8592.9448
8592.8
8592.6156
8592.3815
8592.085
8591.7102
8591.2379
8590.6443
8589.9003
8588.9706
8587.8128
8586.3762
8584.601
8582.4173
8579.7445
8576.4901
8572.5489
8567.8016
8562.1139
8555.3352
8547.2972
8537.8133
8526.678
8513.666
8498.5316
8481.0079
8460.8056
8437.6114
8411.0863
8380.8652
8346.5542
8307.7292
8263.93
8214.6625
8159.385
8097.5241
8028.4371
7951.4627
7865.8206
7770.7586
7665.3417
8594.3291
8594.3293
8594.3292
8594.3289
8594.3284
8594.3275
8594.3262
8594.3244
8594.322
8594.3188
8594.3147
8594.3094
8594.3027
8594.2941
8594.2833
8594.2696
8594.2522
8594.2303
8594.2026
8594.1676
8594.1232
8594.067
8593.9958
8593.9055
8593.7909
8593.6456
8593.4613
8593.2278
8592.9324
8592.5594
8592.0893
8591.4983
8590.7573
8589.8309
8588.6766
8587.2439
8585.4731
8583.2948
8580.6283
8577.3816
8573.4496
8568.7133
8563.0388
8556.2756
8548.2554
8538.7918
8527.6791
8514.6922
8499.5859
8482.0942
8461.9286
8438.7766
8412.2999
8382.1343
8347.8864
8309.1329
8265.4147
8216.2384
8161.0629
8099.3161
8030.3563
7953.5228
7868.0373
7773.151
7667.9085
8595.5295
8595.5296
8595.5296
8595.5292
8595.5286
8595.5276
8595.5262
8595.5242
8595.5216
8595.5182
8595.5138
8595.5082
8595.5011
8595.4921
8595.4807
8595.4664
8595.4483
8595.4256
8595.397
8595.361
8595.3157
8595.2585
8595.1865
8595.0955
8594.9806
8594.8353
8594.6515
8594.419
8594.1252
8593.7543
8593.2868
8592.6988
8591.961
8591.0383
8589.8883
8588.4605
8586.6957
8584.5246
8581.867
8578.6308
8574.7116
8569.9907
8564.3345
8557.5927
8549.5972
8540.1615
8529.0799
8516.1279
8501.061
8483.6144
8463.5006
8440.4083
8414.0001
8383.9128
8349.7539
8311.1014
8267.4971
8218.4488
8163.4168
8101.8299
8033.0482
7956.4123
7871.1464
7776.5073
7671.5114
8597.0827
8597.0828
8597.0827
8597.0823
8597.0816
8597.0805
8597.079
8597.0769
8597.0742
8597.0707
8597.0661
8597.0603
8597.053
8597.0437
8597.032
8597.0173
8596.9989
8596.9758
8596.9468
8596.9104
8596.8648
8596.8074
8596.7353
8596.6444
8596.5299
8596.3853
8596.2027
8595.9718
8595.68
8595.3114
8594.8466
8594.2615
8593.5273
8592.6086
8591.4634
8590.0417
8588.2844
8586.1224
8583.476
8580.2535
8576.3508
8571.6498
8566.0172
8559.3029
8551.339
8541.9389
8530.8973
8517.9904
8502.9749
8485.5872
8465.5414
8442.5272
8416.2087
8386.2237
8352.1813
8313.6608
8270.2051
8221.3237
8166.4783
8105.0995
8036.5495
7960.1703
7875.1906
7780.8742
7676.2023
8599.005
8599.0051
8599.0049
8599.0045
8599.0037
8599.0026
8599.0011
8598.999
8598.9962
8598.9926
8598.988
8598.9822
8598.9748
8598.9655
8598.9538
8598.9392
8598.9208
8598.8978
8598.869
8598.8329
8598.7876
8598.7308
8598.6593
8598.5694
8598.456
8598.3128
8598.1318
8597.9029
8597.6133
8597.2471
8596.785
8596.203
8595.4723
8594.558
8593.4183
8592.0036
8590.2552
8588.1043
8585.4716
8582.2658
8578.3835
8573.7069
8568.1033
8561.4227
8553.4973
8544.1408
8533.1486
8520.2977
8505.3464
8488.0324
8468.0714
8445.1548
8418.9482
8389.091
8355.1938
8316.8375
8273.5668
8224.8927
8170.2794
8109.1591
8040.8969
7964.8368
7880.2137
7786.3001
7682.0356
8601.3152
8601.3152
8601.315
8601.3146
8601.3138
8601.3127
8601.3111
8601.3091
8601.3063
8601.3028
8601.2983
8601.2926
8601.2854
8601.2763
8601.2649
8601.2506
8601.2327
8601.2103
8601.1822
8601.1469
8601.1027
8601.047
8600.9769
8600.8885
8600.7768
8600.6355
8600.4566
8600.2298
8599.9425
8599.5787
8599.1192
8598.5402
8597.8132
8596.9036
8595.7701
8594.3633
8592.625
8590.4871
8587.8704
8584.6845
8580.8263
8576.1789
8570.6096
8563.9688
8556.089
8546.7844
8535.8513
8523.0682
8508.1945
8490.9698
8471.1115
8448.3131
8422.242
8392.5392
8358.8172
8320.6589
8277.611
8229.1869
8174.8532
8114.0444
8046.1288
7970.4534
7886.2613
7792.8349
7689.065
8604.0352
8604.0352
8604.035
8604.0345
8604.0337
8604.0326
8604.0311
8604.0291
8604.0265
8604.0231
8604.0187
8604.0133
8604.0063
8603.9976
8603.9867
8603.973
8603.9558
8603.9342
8603.9071
8603.873
8603.8301
8603.776
8603.7077
8603.6211
8603.5114
8603.3721
8603.1952
8602.9705
8602.6853
8602.3239
8601.8668
8601.2909
8600.5676
8599.6631
8598.5362
8597.1383
8595.4115
8593.2882
8590.6899
8587.5269
8583.6966
8579.0826
8573.5529
8566.9581
8559.131
8549.8869
8539.0234
8526.3202
8511.5386
8494.4196
8474.6831
8452.0246
8426.1136
8396.5932
8363.078
8325.1531
8282.3677
8234.238
8180.2334
8119.7911
8052.2834
7977.062
7893.3788
7800.5289
7697.3473
8607.1887
8607.1886
8607.1884
8607.1879
8607.1871
8607.186
8607.1846
8607.1826
8607.1801
8607.1768
8607.1727
8607.1674
8607.1608
8607.1525
8607.142
8607.1289
8607.1124
8607.0917
8607.0656
8607.0327
8606.9911
8606.9385
8606.8717
8606.7869
8606.6789
8606.5413
8606.3662
8606.1433
8605.8599
8605.5005
8605.0458
8604.4729
8603.7536
8602.8544
8601.7349
8600.3466
8598.6325
8596.5255
8593.9479
8590.8105
8587.0117
8582.4356
8576.9505
8570.4076
8562.6405
8553.4658
8542.6827
8530.0725
8515.3979
8498.4022
8478.8075
8456.3117
8430.5867
8401.2781
8368.0027
8330.3481
8287.8667
8240.0774
8186.4533
8126.4353
8059.4011
7984.7071
7901.6161
7809.4361
7706.9389
8610.7965
8610.7964
8610.7961
8610.7956
8610.7949
8610.7938
8610.7924
8610.7905
8610.788
8610.7849
8610.7809
8610.7758
8610.7694
8610.7614
8610.7514
8610.7387
8610.7228
8610.7028
8610.6775
8610.6455
8610.605
8610.5535
8610.4879
8610.4043
8610.2975
8610.1613
8609.9873
8609.7657
8609.4837
8609.126
8608.6736
8608.1038
8607.3888
8606.4955
8605.3839
8604.0063
8602.3061
8600.217
8597.6622
8594.5534
8590.7895
8586.2553
8580.8196
8574.3345
8566.6349
8557.5389
8546.8474
8534.3434
8519.7916
8502.9375
8483.5057
8461.1969
8435.6854
8406.6193
8373.6182
8336.2727
8294.1387
8246.7384
8193.5494
8134.0169
8067.5248
7993.4352
7911.022
7819.6083
7717.8968
8614.8778
8614.8777
8614.8774
8614.8769
8614.8761
8614.875
8614.8736
8614.8717
8614.8693
8614.8661
8614.8622
8614.8572
8614.851
8614.8431
8614.8332
8614.8208
8614.8052
8614.7855
8614.7605
8614.729
8614.6889
8614.6379
8614.5729
8614.4898
8614.3836
8614.248
8614.0747
8613.8539
8613.573
8613.2169
8612.7669
8612.2004
8611.4903
8610.6035
8609.5007
8608.1348
8606.4499
8604.3806
8601.8509
8598.7734
8595.0477
8590.5592
8585.1777
8578.7565
8571.132
8562.1242
8551.5359
8539.1522
8524.7398
8508.0467
8488.8003
8466.7039
8441.4346
8412.6433
8379.9527
8342.9571
8301.2159
8254.2557
8201.5585
8142.5752
8076.6967
8003.2912
7921.6464
7831.0998
7730.2786
8619.4462
8619.446
8619.4457
8619.4452
8619.4444
8619.4433
8619.4418
8619.4399
8619.4374
8619.4343
8619.4303
8619.4253
8619.419
8619.4111
8619.4012
8619.3887
8619.3731
8619.3534
8619.3284
8619.2968
8619.2568
8619.2057
8619.1407
8619.0576
8618.9515
8618.816
8618.6431
8618.4228
8618.1431
8617.7887
8617.3414
8616.7789
8616.0743
8615.195
8614.1022
8612.7494
8611.0814
8609.0339
8606.5317
8603.4883
8599.804
8595.3652
8590.0428
8583.6917
8576.1504
8567.2409
8556.7681
8544.5192
8530.2636
8513.7522
8494.7146
8472.8571
8447.8598
8419.3768
8387.0346
8350.4313
8309.1304
8262.6632
8210.5172
8152.1501
8086.9605
8014.3243
7933.5398
7843.966
7744.1427
8624.5131
8624.5129
8624.5126
8624.512
8624.5112
8624.5101
8624.5085
8624.5066
8624.504
8624.5008
8624.4967
8624.4916
8624.4852
8624.4772
8624.4671
8624.4545
8624.4386
8624.4186
8624.3934
8624.3615
8624.321
8624.2696
8624.2042
8624.1208
8624.0145
8623.879
8623.7064
8623.4869
8623.2086
8622.8566
8622.4128
8621.8552
8621.1571
8620.2865
8619.2051
8617.8669
8616.2179
8614.1944
8611.7223
8608.7159
8605.0765
8600.6915
8595.4335
8589.1593
8581.7098
8572.9092
8562.5647
8550.4663
8536.386
8520.0772
8501.2728
8479.6817
8454.9874
8426.8475
8394.893
8358.7261
8317.9154
8271.9965
8220.4646
8162.7838
8098.3623
8026.5806
7946.7541
7858.2615
7759.5468
8630.0905
8630.0903
8630.0899
8630.0894
8630.0885
8630.0873
8630.0857
8630.0837
8630.0811
8630.0778
8630.0736
8630.0683
8630.0618
8630.0535
8630.0432
8630.0303
8630.0141
8629.9938
8629.9682
8629.9358
8629.8949
8629.8431
8629.7772
8629.6936
8629.5871
8629.4518
8629.2799
8629.0617
8628.7855
8628.4366
8627.997
8627.4454
8626.7552
8625.8948
8624.8263
8623.5047
8621.8768
8619.8798
8617.4406
8614.4744
8610.8836
8606.557
8601.3692
8595.1793
8587.8308
8579.1504
8568.9482
8557.0165
8543.1304
8527.0465
8508.5003
8487.2038
8462.8443
8435.084
8403.5582
8367.8739
8327.6043
8282.2923
8231.4399
8174.5191
8110.9457
8040.1097
7961.3391
7874.0401
7776.5484
8636.1926
8636.1924
8636.1921
8636.1915
8636.1906
8636.1894
8636.1878
8636.1857
8636.1831
8636.1797
8636.1754
8636.1701
8636.1634
8636.155
8636.1445
8636.1314
8636.115
8636.0943
8636.0684
8636.0357
8635.9945
8635.9424
8635.8764
8635.7927
8635.6865
8635.5518
8635.3811
8635.1648
8634.8914
8634.5465
8634.1124
8633.5678
8632.8865
8632.0377
8630.984
8629.6811
8628.0765
8626.1087
8623.7053
8620.7827
8617.2445
8612.9814
8607.8701
8601.7727
8594.5351
8585.9872
8575.9415
8564.1935
8550.5215
8534.685
8516.4226
8495.4499
8471.4584
8444.1154
8413.0607
8377.9061
8338.232
8293.5881
8243.4833
8187.3977
8124.7568
8054.9578
7977.3452
7891.3549
7795.2038
8642.8385
8642.8384
8642.838
8642.8374
8642.8365
8642.8353
8642.8337
8642.8316
8642.8289
8642.8255
8642.8212
8642.8158
8642.8091
8642.8006
8642.79
8642.7768
8642.7602
8642.7395
8642.7134
8642.6807
8642.6394
8642.5873
8642.5214
8642.4381
8642.3326
8642.1991
8642.0301
8641.8163
8641.5464
8641.2062
8640.7783
8640.2416
8639.5706
8638.7347
8637.6972
8636.4149
8634.8361
8632.9
8630.5355
8627.66
8624.179
8619.985
8614.9575
8608.9612
8601.8453
8593.4424
8583.568
8572.0213
8558.5836
8543.0177
8525.0656
8504.4468
8480.858
8453.9709
8423.4308
8388.8561
8349.8343
8305.9207
8256.6345
8201.4623
8139.8391
8071.1719
7994.8216
7910.2588
7815.5686
8650.0495
8650.0494
8650.049
8650.0485
8650.0476
8650.0464
8650.0448
8650.0427
8650.04
8650.0366
8650.0324
8650.027
8650.0202
8650.0118
8650.0012
8649.988
8649.9714
8649.9507
8649.9248
8649.8921
8649.8511
8649.7993
8649.734
8649.6515
8649.5471
8649.4152
8649.2484
8649.0376
8648.7717
8648.4367
8648.0155
8647.4875
8646.8277
8646.0058
8644.9863
8643.7264
8642.1752
8640.2735
8637.9509
8635.1265
8631.7075
8627.589
8622.653
8616.7672
8609.784
8601.5389
8591.8513
8580.5237
8567.341
8552.0695
8534.455
8514.2217
8491.0707
8464.6795
8434.7001
8400.7576
8362.445
8319.3285
8270.9329
8216.7538
8156.2366
8088.7973
8013.817
7930.8039
7837.6975
8657.8467
8657.8466
8657.8463
8657.8457
8657.8449
8657.8438
8657.8422
8657.8402
8657.8375
8657.8342
8657.83
8657.8247
8657.818
8657.8097
8657.7992
8657.7862
8657.7698
8657.7494
8657.7237
8657.6915
8657.6509
8657.5998
8657.5354
8657.4541
8657.3514
8657.2215
8657.0573
8656.85
8656.5885
8656.2592
8655.8453
8655.3266
8654.6786
8653.872
8652.8716
8651.6357
8650.1146
8648.2496
8645.9719
8643.2026
8639.8509
8635.8145
8630.9782
8625.2128
8618.3735
8610.2997
8600.8145
8589.7244
8576.8179
8561.8654
8544.6168
8524.8009
8502.1244
8476.2713
8446.9002
8413.6422
8376.1006
8333.848
8286.4171
8233.3132
8173.9908
8107.8792
8034.3794
7953.041
7861.6438
8666.2488
8666.2487
8666.2485
8666.2479
8666.2472
8666.246
8666.2445
8666.2426
8666.24
8666.2368
8666.2327
8666.2275
8666.221
8666.2129
8666.2027
8666.1899
8666.1739
8666.1539
8666.1287
8666.0971
8666.0574
8666.0074
8665.9443
8665.8646
8665.7639
8665.6366
8665.4757
8665.2725
8665.016
8664.6931
8664.2873
8663.7788
8663.1437
8662.3533
8661.3735
8660.1632
8658.6738
8656.8479
8654.6186
8651.9087
8648.6299
8644.6827
8639.9546
8634.3195
8627.6359
8619.7472
8610.4807
8599.6467
8587.0385
8572.4301
8555.5763
8536.2109
8514.047
8488.7754
8460.0604
8427.5434
8390.8357
8349.5154
8303.1256
8251.1789
8193.1438
8128.4618
8056.5557
7977.0198
7887.4592
8675.2699
8675.2698
8675.2695
8675.269
8675.2683
8675.2673
8675.2658
8675.264
8675.2616
8675.2585
8675.2545
8675.2496
8675.2433
8675.2355
8675.2256
8675.2133
8675.1979
8675.1785
8675.1541
8675.1236
8675.0851
8675.0365
8674.9752
8674.8978
8674.7998
8674.6759
8674.5191
8674.321
8674.0707
8673.7554
8673.359
8672.8621
8672.2414
8671.4689
8670.5111
8669.3281
8667.8725
8666.0885
8663.9109
8661.2649
8658.065
8654.2142
8649.6031
8644.1085
8637.5928
8629.9035
8620.8722
8610.314
8598.0263
8583.7877
8567.358
8548.4774
8526.8655
8502.2187
8474.2116
8442.4947
8406.6831
8366.366
8321.0933
8270.3899
8213.7364
8150.5884
8080.3915
8002.7885
7915.1929
8684.9221
8684.9221
8684.9219
8684.9214
8684.9208
8684.9198
8684.9185
8684.9167
8684.9144
8684.9115
8684.9078
8684.9032
8684.8973
8684.8898
8684.8805
8684.8688
8684.8541
8684.8357
8684.8125
8684.7832
8684.7464
8684.6998
8684.6409
8684.5664
8684.472
8684.3524
8684.2008
8684.0089
8683.7664
8683.4604
8683.0754
8682.5923
8681.9882
8681.2358
8680.3025
8679.1492
8677.7299
8675.9905
8673.8684
8671.2911
8668.176
8664.429
8659.9437
8654.6004
8648.2652
8640.7901
8632.0115
8621.7488
8609.8044
8595.9617
8579.9864
8561.6256
8540.6046
8516.6298
8489.3855
8458.5254
8423.676
8384.4326
8340.3565
8290.9838
8235.8089
8174.3011
8105.9308
8030.3936
7944.8919
8695.2178
8695.2178
8695.2176
8695.2172
8695.2166
8695.2157
8695.2145
8695.2129
8695.2108
8695.2081
8695.2047
8695.2004
8695.1949
8695.188
8695.1794
8695.1685
8695.1548
8695.1375
8695.1157
8695.0882
8695.0535
8695.0095
8694.9536
8694.8828
8694.7928
8694.6784
8694.5332
8694.349
8694.1158
8693.821
8693.4494
8692.9824
8692.3976
8691.6685
8690.7626
8689.6423
8688.2628
8686.572
8684.5098
8682.0064
8678.9824
8675.3468
8670.9964
8665.815
8659.6735
8652.4281
8643.9197
8633.9729
8622.3947
8608.974
8593.4843
8575.6777
8555.2902
8532.0372
8505.6084
8475.6656
8441.8443
8403.7481
8360.9495
8312.9976
8259.4001
8199.6409
8133.2162
8059.8797
7976.6005
8706.1739
8706.1739
8706.1737
8706.1734
8706.1728
8706.172
8706.1709
8706.1695
8706.1676
8706.1652
8706.162
8706.1581
8706.1531
8706.1468
8706.1388
8706.1288
8706.1161
8706.1001
8706.0799
8706.0543
8706.0219
8705.9806
8705.9281
8705.8613
8705.7762
8705.6677
8705.5296
8705.3541
8705.1313
8704.8491
8704.4929
8704.0445
8703.4819
8702.7789
8701.9041
8700.8208
8699.4856
8697.8484
8695.8516
8693.4283
8690.5023
8686.9859
8682.7797
8677.7718
8671.8374
8664.8373
8656.6174
8647.0062
8635.8161
8622.845
8607.8708
8590.6569
8570.9484
8548.4663
8522.9065
8493.9436
8461.2173
8424.3436
8382.9062
8336.4669
8284.5478
8226.6471
8162.2886
8091.2898
8010.3604
8717.8093
8717.8093
8717.8092
8717.8089
8717.8084
8717.8077
8717.8067
8717.8054
8717.8037
8717.8015
8717.7987
8717.7951
8717.7905
8717.7847
8717.7774
8717.7682
8717.7565
8717.7418
8717.723
8717.6992
8717.6689
8717.6304
8717.5811
8717.5182
8717.4379
8717.3354
8717.2046
8717.0379
8716.8261
8716.5575
8716.2177
8715.7892
8715.2507
8714.5767
8713.7366
8712.6947
8711.4091
8709.8317
8707.9069
8705.5709
8702.7506
8699.3621
8695.3103
8690.4877
8684.7744
8678.0352
8670.12
8660.8626
8650.0857
8637.5907
8623.167
8606.5871
8587.6016
8565.9392
8541.307
8513.3842
8481.8229
8446.2494
8406.2589
8361.4264
8311.2884
8255.3575
8193.1865
8124.6652
8046.2115
8730.1445
8730.1445
8730.1444
8730.1441
8730.1437
8730.1431
8730.1422
8730.141
8730.1394
8730.1373
8730.1347
8730.1313
8730.1271
8730.1217
8730.1148
8730.1061
8730.0951
8730.0812
8730.0635
8730.041
8730.0123
8729.9758
8729.9291
8729.8695
8729.7933
8729.696
8729.5718
8729.4136
8729.2125
8728.9573
8728.6343
8728.2267
8727.7139
8727.0713
8726.2691
8725.2729
8724.0422
8722.5307
8720.685
8718.444
8715.7379
8712.4869
8708.6004
8703.9758
8698.4962
8692.0315
8684.4376
8675.5579
8665.2179
8653.2305
8639.3947
8623.487
8605.2688
8584.4784
8560.8294
8534.0119
8503.6877
8469.4944
8431.0389
8387.9093
8339.657
8285.809
8225.947
8160.0458
8084.1923
8743.1945
8743.1945
8743.1944
8743.1942
8743.1938
8743.1932
8743.1924
8743.1912
8743.1897
8743.1877
8743.1851
8743.1818
8743.1776
8743.1723
8743.1656
8743.1572
8743.1464
8743.1329
8743.1157
8743.0938
8743.0661
8743.0308
8742.9858
8742.9285
8742.8554
8742.7623
8742.6438
8742.4932
8742.302
8742.0598
8741.7536
8741.3672
8740.8811
8740.2714
8739.5098
8738.5629
8737.3919
8735.952
8734.1924
8732.0544
8729.4717
8726.3683
8722.6577
8718.2415
8713.0086
8706.835
8699.5837
8691.1031
8681.2274
8669.7815
8656.5668
8641.3727
8623.9681
8604.1014
8581.4953
8555.8493
8526.8365
8494.1057
8457.2759
8415.9476
8369.6873
8318.0363
8260.6059
8197.4692
8124.3416
8756.9661
8756.9661
8756.966
8756.9658
8756.9654
8756.9648
8756.9639
8756.9628
8756.9612
8756.9592
8756.9566
8756.9532
8756.949
8756.9436
8756.9368
8756.9282
8756.9174
8756.9038
8756.8866
8756.8648
8756.8374
8756.8025
8756.7584
8756.7026
8756.6318
8756.542
8756.4284
8756.2846
8756.1029
8755.8734
8755.5839
8755.2191
8754.7606
8754.1855
8753.4668
8752.5726
8751.4655
8750.1026
8748.4351
8746.4072
8743.9556
8741.0084
8737.484
8733.2893
8728.3185
8722.4544
8715.566
8707.508
8698.1276
8687.2525
8674.6959
8660.2572
8643.7142
8624.825
8603.3226
8578.917
8551.2923
8520.109
8484.9978
8445.572
8401.4123
8352.0739
8297.1981
8236.9709
8166.701
8771.4577
8771.4577
8771.4576
8771.4574
8771.4569
8771.4563
8771.4554
8771.4542
8771.4525
8771.4504
8771.4477
8771.4442
8771.4398
8771.4343
8771.4273
8771.4185
8771.4075
8771.3936
8771.3762
8771.3544
8771.3269
8771.2924
8771.2489
8771.1943
8771.1255
8771.0389
8770.93
8770.7931
8770.6209
8770.4043
8770.1319
8769.7895
8769.3595
8768.8205
8768.1467
8767.3075
8766.2675
8764.9857
8763.4154
8761.5038
8759.1911
8756.4098
8753.0831
8749.123
8744.4306
8738.8946
8732.3893
8724.7814
8715.9237
8705.6523
8693.7927
8680.1519
8664.5191
8646.6628
8626.3272
8603.2332
8577.076
8547.528
8514.2316
8476.8124
8434.8646
8387.956
8335.7592
8278.5868
8211.3155
8786.6603
8786.6603
8786.6602
8786.6599
8786.6595
8786.6588
8786.6579
8786.6566
8786.6549
8786.6527
8786.6499
8786.6464
8786.6419
8786.6363
8786.6292
8786.6203
8786.6092
8786.5954
8786.578
8786.5563
8786.5292
8786.4954
8786.4531
8786.4002
8786.3341
8786.2515
8786.1482
8786.019
8785.8572
8785.6546
8785.4005
8785.0816
8784.6814
8784.1797
8783.5523
8782.7703
8781.7999
8780.6025
8779.134
8777.3448
8775.1788
8772.573
8769.4554
8765.7444
8761.347
8756.1564
8750.0579
8742.926
8734.6195
8724.987
8713.8624
8701.0642
8686.3921
8669.6261
8650.5222
8628.8133
8604.2061
8576.3845
8545.0024
8509.6979
8470.0768
8425.7178
8376.3281
8322.3623
8258.2313
8802.5638
8802.5638
8802.5637
8802.5634
8802.563
8802.5623
8802.5614
8802.5601
8802.5584
8802.5563
8802.5536
8802.5501
8802.5458
8802.5403
8802.5334
8802.5248
8802.5141
8802.5008
8802.4841
8802.4633
8802.4375
8802.4053
8802.3653
8802.3155
8802.2536
8802.1765
8802.0804
8801.9606
8801.8111
8801.6241
8801.3898
8801.0958
8800.7267
8800.2637
8799.6839
8798.9606
8798.0621
8796.9524
8795.5902
8793.9294
8791.918
8789.4973
8786.6011
8783.1535
8779.0655
8774.2401
8768.572
8761.9409
8754.2168
8745.2578
8734.9085
8722.9987
8709.3394
8693.7227
8675.9177
8655.6701
8632.6984
8606.6981
8577.3348
8544.2573
8507.0825
8465.3967
8418.9485
8368.3577
8307.4979
8819.1614
8819.1614
8819.1613
8819.161
8819.1606
8819.16
8819.1591
8819.158
8819.1564
8819.1545
8819.152
8819.1488
8819.1448
8819.1398
8819.1335
8819.1257
8819.1159
8819.1037
8819.0886
8819.0697
8819.0462
8819.017
8818.9807
8818.9356
8818.8795
8818.8098
8818.7229
8818.6146
8818.4793
8818.3097
8818.0967
8817.829
8817.4922
8817.0689
8816.5382
8815.8753
8815.0512
8814.0325
8812.7813
8811.2551
8809.406
8807.1805
8804.5177
8801.3454
8797.5831
8793.1439
8787.9275
8781.824
8774.7133
8766.4635
8756.9307
8745.9562
8733.3634
8718.9571
8702.5204
8683.8128
8662.5655
8638.4861
8611.2514
8580.5202
8545.9183
8507.0351
8463.6547
8416.576
8359.2484
8836.4515
8836.4515
8836.4514
8836.4511
8836.4508
8836.4502
8836.4495
8836.4485
8836.4472
8836.4455
8836.4434
8836.4407
8836.4373
8836.433
8836.4276
8836.4209
8836.4126
8836.4021
8836.3891
8836.3729
8836.3526
8836.3274
8836.296
8836.2569
8836.2081
8836.1472
8836.071
8835.9756
8835.8557
8835.7047
8835.5143
8835.2738
8834.9704
8834.5882
8834.1081
8833.5078
8832.7609
8831.837
8830.7016
8829.3164
8827.6379
8825.6178
8823.1982
8820.3144
8816.8956
8812.8604
8808.1183
8802.5693
8796.1032
8788.5991
8779.9245
8769.9333
8758.462
8745.3292
8730.3326
8713.2467
8693.8168
8671.7632
8646.7734
8618.5163
8586.6261
8550.6818
8510.468
8467.1402
8413.5255
8854.4361
8854.436
8854.436
8854.4358
8854.4355
8854.435
8854.4344
8854.4336
8854.4326
8854.4312
8854.4295
8854.4273
8854.4245
8854.421
8854.4166
8854.4111
8854.4043
8854.3957
8854.385
8854.3716
8854.3549
8854.3339
8854.3077
8854.2748
8854.2336
8854.1818
8854.1166
8854.0343
8853.9301
8853.798
8853.6305
8853.4181
8853.1492
8852.8095
8852.3822
8851.8471
8851.1806
8850.3558
8849.3419
8848.1043
8846.6051
8844.7985
8842.6329
8840.0524
8836.9923
8833.38
8829.1351
8824.1674
8818.3772
8811.6552
8803.8812
8794.922
8784.6286
8772.8344
8759.3523
8743.9729
8726.4576
8706.5406
8683.9208
8658.2768
8629.2467
8596.3609
8559.4625
8520.1118
8470.3809
8873.1142
8873.1142
8873.1141
8873.1139
8873.1137
8873.1133
8873.1128
8873.1121
8873.1113
8873.1101
8873.1087
8873.1069
8873.1046
8873.1017
8873.0981
8873.0936
8873.0879
8873.0809
8873.0721
8873.061
8873.0472
8873.0298
8873.0081
8872.9807
8872.9461
8872.9025
8872.8473
8872.7772
8872.688
8872.5746
8872.4301
8872.2463
8872.013
8871.7177
8871.3454
8870.8784
8870.2962
8869.5751
8868.6883
8867.606
8866.2931
8864.7086
8862.8093
8860.545
8857.8594
8854.6894
8850.9641
8846.604
8841.5209
8835.6176
8828.7866
8820.9088
8811.8507
8801.462
8789.5715
8775.987
8760.4883
8742.8257
8722.7113
8699.8313
8673.8088
8644.1823
8610.7
8575.5444
8529.9948
8892.4768
8892.4768
8892.4767
8892.4765
8892.4763
8892.4759
8892.4755
8892.4748
8892.474
8892.473
8892.4716
8892.47
8892.4679
8892.4652
8892.462
8892.4579
8892.4528
8892.4465
8892.4387
8892.429
8892.4169
8892.4018
8892.383
8892.3595
8892.33
8892.293
8892.2462
8892.1871
8892.1121
8892.0167
8891.8952
8891.7406
8891.544
8891.2946
8890.9796
8890.5837
8890.0896
8889.4771
8888.7234
8887.8024
8886.6825
8885.3304
8883.7084
8881.7736
8879.4785
8876.7696
8873.5861
8869.8598
8865.5146
8860.4662
8854.6209
8847.8745
8840.1102
8831.195
8820.9757
8809.2787
8795.9038
8780.6203
8763.1561
8743.1951
8720.3926
8694.2093
8664.2985
8633.5385
8592.5501
8912.5009
8912.5009
8912.5008
8912.5006
8912.5003
8912.4999
8912.4993
8912.4986
8912.4978
8912.4966
8912.4952
8912.4935
8912.4913
8912.4886
8912.4852
8912.4811
8912.476
8912.4698
8912.4621
8912.4528
8912.4414
8912.4274
8912.4103
8912.3893
8912.3636
8912.3318
8912.2925
8912.2434
8912.1818
8912.1041
8912.0056
8911.8804
8911.721
8911.5186
8911.2624
8910.94
8910.5371
8910.0374
8909.4218
8908.6668
8907.7479
8906.6375
8905.3035
8903.7119
8901.8238
8899.595
8896.9754
8893.9088
8890.3321
8886.1746
8881.3577
8875.7935
8869.3822
8862.0094
8853.5423
8843.8282
8832.6882
8819.9125
8805.2518
8788.4129
8769.0374
8746.558
8720.4827
8694.2984
8658.1912
8933.1515
8933.1514
8933.1513
8933.151
8933.1507
8933.1502
8933.1495
8933.1487
8933.1477
8933.1464
8933.1448
8933.1428
8933.1404
8933.1374
8933.1337
8933.1293
8933.1239
8933.1173
8933.1095
8933.1
8933.0887
8933.0752
8933.0592
8933.0402
8933.0176
8932.9905
8932.958
8932.9184
8932.8698
8932.8093
8932.7331
8932.6367
8932.5142
8932.3587
8932.162
8931.9146
8931.6054
8931.2217
8930.747
8930.1641
8929.4539
8928.5938
8927.5599
8926.3258
8924.8611
8923.1315
8921.0983
8918.7174
8915.9395
8912.7088
8908.9632
8904.6321
8899.633
8893.8716
8887.2376
8879.6001
8870.8083
8860.6833
8849.0019
8835.4895
8819.8085
8801.3696
8779.5771
8758.1498
8726.9096
8954.3811
8954.381
8954.3808
8954.3805
8954.3801
8954.3795
8954.3788
8954.3779
8954.3768
8954.3754
8954.3737
8954.3716
8954.369
8954.3659
8954.3621
8954.3575
8954.3521
8954.3455
8954.3378
8954.3286
8954.3179
8954.3055
8954.291
8954.2744
8954.2552
8954.2332
8954.2076
8954.1774
8954.1413
8954.0972
8954.0427
8953.9745
8953.8886
8953.7803
8953.6439
8953.4729
8953.2596
8952.9936
8952.6639
8952.2586
8951.7635
8951.163
8950.4407
8949.5778
8948.5527
8947.3413
8945.9163
8944.2467
8942.2975
8940.0293
8937.3966
8934.3464
8930.8166
8926.7349
8922.0157
8916.5558
8910.2322
8902.8985
8894.377
8884.437
8872.7702
8858.8014
8841.9294
8825.1697
8799.1588
8976.1397
8976.1395
8976.1392
8976.1389
8976.1384
8976.1379
8976.1372
8976.1363
8976.1352
8976.1339
8976.1322
8976.1303
8976.1279
8976.125
8976.1216
8976.1175
8976.1127
8976.1071
8976.1004
8976.0927
8976.0839
8976.0737
8976.0622
8976.0492
8976.0346
8976.0181
8975.9995
8975.9782
8975.9537
8975.925
8975.8911
8975.8508
8975.802
8975.7414
8975.6661
8975.5724
8975.4554
8975.3096
8975.1291
8974.9062
8974.6332
8974.3018
8973.9022
8973.424
8972.8543
8972.1793
8971.384
8970.4509
8969.3604
8968.0904
8966.6126
8964.894
8962.8928
8960.5601
8957.8375
8954.6516
8950.9166
8946.5233
8941.3409
8935.2068
8927.8824
8918.9147
8907.7953
8896.4127
8876.8498
8999.3656
8999.3653
8999.365
8999.3646
8999.3642
8999.3636
8999.3629
8999.3621
8999.3611
8999.36
8999.3586
8999.357
8999.3551
8999.3528
8999.3501
8999.3469
8999.3432
8999.3389
8999.3338
8999.3281
8999.3215
8999.3141
8999.3059
8999.2968
8999.2869
8999.2761
8999.2646
8999.2524
8999.2396
8999.2266
8999.2136
8999.2014
8999.1904
8999.1805
8999.171
8999.1603
8999.1482
8999.1342
8999.1158
8999.0919
8999.0618
8999.0243
8998.9776
8998.9192
8998.8452
8998.7537
8998.6429
8998.51
8998.3517
8998.1632
8997.9375
8997.6625
8997.3206
8996.8893
8996.3396
8995.6347
8994.726
8993.5541
8992.0416
8990.1015
8987.6063
8984.304
8980.2005
8976.462
8969.3372
9023.8032
9023.8029
9023.8025
9023.8021
9023.8017
9023.8012
9023.8006
9023.8
9023.7992
9023.7984
9023.7973
9023.7962
9023.7948
9023.7932
9023.7914
9023.7893
9023.7869
9023.7841
9023.7809
9023.7773
9023.7734
9023.769
9023.7644
9023.7596
9023.7548
9023.7503
9023.7468
9023.7449
9023.7457
9023.7508
9023.7621
9023.7817
9023.8128
9023.857
9023.9171
9023.9963
9024.0983
9024.2254
9024.3799
9024.5682
9024.7967
9025.0719
9025.3999
9025.7874
9026.242
9026.7733
9027.3931
9028.1143
9028.9506
9029.9165
9031.0258
9032.2906
9033.7198
9035.3204
9037.0959
9039.0482
9041.1727
9043.4629
9045.9048
9048.495
9051.2277
9054.0727
9057.2972
9061.4588
9064.6157
9048.2016
9048.2014
9048.201
9048.2007
9048.2003
9048.1999
9048.1996
9048.1991
9048.1987
9048.1982
9048.1978
9048.1973
9048.1967
9048.1962
9048.1957
9048.1952
9048.1947
9048.1942
9048.1938
9048.1934
9048.1932
9048.1932
9048.1936
9048.1944
9048.1962
9048.1994
9048.2049
9048.2143
9048.2295
9048.253
9048.2887
9048.3409
9048.4132
9048.5113
9048.6401
9048.8055
9049.0146
9049.2759
9049.5994
9049.9969
9050.4817
9051.0676
9051.7689
9052.6017
9053.5849
9054.7402
9056.093
9057.6719
9059.5077
9061.6337
9064.0851
9066.8985
9070.1109
9073.7595
9077.8816
9082.5179
9087.7089
9093.5026
9099.9506
9107.128
9115.1222
9124.0641
9134.2645
9146.0587
9159.2404
9072.454
9072.4537
9072.4534
9072.4531
9072.4529
9072.4526
9072.4525
9072.4523
9072.4523
9072.4523
9072.4525
9072.4527
9072.4532
9072.4539
9072.4548
9072.456
9072.4577
9072.4597
9072.4623
9072.4654
9072.4693
9072.474
9072.4797
9072.4867
9072.4955
9072.5069
9072.5224
9072.5438
9072.5742
9072.6171
9072.6774
9072.7607
9072.8744
9073.0257
9073.2214
9073.4714
9073.7871
9074.1822
9074.6724
9075.2761
9076.0136
9076.9062
9077.9769
9079.2517
9080.7607
9082.5377
9084.6217
9087.0567
9089.8906
9093.1757
9096.9683
9101.3298
9106.3254
9112.0237
9118.4961
9125.8216
9134.0861
9143.3901
9153.8478
9165.6056
9178.8321
9193.7679
9210.7763
9230.2885
9252.9171
9096.4541
9096.4538
9096.4536
9096.4533
9096.4532
9096.4532
9096.4532
9096.4534
9096.4538
9096.4543
9096.4551
9096.4562
9096.4576
9096.4595
9096.4619
9096.4649
9096.4686
9096.4732
9096.4787
9096.4853
9096.4931
9096.5024
9096.5134
9096.5266
9096.5426
9096.5627
9096.5885
9096.6225
9096.6684
9096.7312
9096.8173
9096.9344
9097.0912
9097.2957
9097.5595
9097.895
9098.3178
9098.8464
9099.5023
9100.3101
9101.2969
9102.4922
9103.9277
9105.6398
9107.6697
9110.0636
9112.8738
9116.1593
9119.9853
9124.4229
9129.55
9135.4522
9142.2224
9149.9599
9158.7709
9168.7724
9180.0948
9192.8894
9207.3293
9223.6277
9242.0334
9262.8791
9286.6093
9313.7935
9345.2742
9120.1139
9120.1136
9120.1134
9120.1133
9120.1133
9120.1134
9120.1137
9120.1142
9120.1149
9120.1159
9120.1173
9120.1191
9120.1214
9120.1243
9120.128
9120.1325
9120.138
9120.1447
9120.1526
9120.1621
9120.1734
9120.1867
9120.2024
9120.2212
9120.2438
9120.2718
9120.3074
9120.3538
9120.4158
9120.4994
9120.6124
9120.764
9120.9638
9121.2237
9121.5566
9121.9786
9122.5089