/*--------------------------------*- C++ -*----------------------------------*\
  =========                 |
  \\      /  F ield         | OpenFOAM: The Open Source CFD Toolbox
   \\    /   O peration     | Website:  https://openfoam.org
    \\  /    A nd           | Version:  13
     \\/     M anipulation  |
\*---------------------------------------------------------------------------*/
FoamFile
{
    format      ascii;
    class       volScalarField;
    location    "3.69986";
    object      omega;
}
// * * * * * * * * * * * * * * * * * * * * * * * * * * * * * * * * * * * * * //

dimensions      [0 0 -1 0 0 0 0];

internalField   nonuniform List<scalar> 
17140
(
4528389.9
731656.66
224624.83
95286.501
48483.47
27612.081
16953.917
10977.132
7390.156
5124.6243
3635.9319
2626.4621
1924.2827
1425.4734
1064.8284
800.13353
603.33128
455.35714
343.02174
257.07431
190.97083
140.0704
101.08985
71.703744
50.213964
35.252313
25.525243
19.734599
16.559234
14.844964
13.847499
13.101063
12.424799
11.778381
11.160804
10.575766
10.027874
9.5227614
9.0670512
8.6685251
8.3351538
8.076249
7.9187382
7.8422399
7.8186068
7.9135961
8.0412494
8.2265254
8.4040193
8.5924681
8.7497172
8.8524152
8.9004604
8.7534841
8.3432457
7.6215821
6.6389085
5.544427
4.4667901
3.5088141
2.7071741
2.037179
1.4717948
1.0021978
0.63622073
4528420.9
731662.29
224626.93
95287.637
48484.213
27612.643
16954.391
10977.563
7390.572
5125.0417
3636.3613
2626.9106
1924.7545
1425.9705
1065.3507
800.67919
603.89622
455.93517
343.60427
257.65013
191.52596
140.58821
101.55195
72.09212
50.514687
35.460168
25.648473
19.788005
16.568604
14.830579
13.82475
13.07872
12.40556
11.762688
11.148765
10.567619
10.023955
9.5233071
9.0728559
8.6809395
8.3566907
8.1097373
7.9689784
7.9042299
7.8951152
8.0256716
8.1715905
8.387704
8.570108
8.7782715
8.9118929
8.9999625
9.0306612
8.8349785
8.3521682
7.576898
6.5901474
5.5421679
4.5329247
3.6183564
2.8064075
2.0885922
1.477694
0.9856449
0.61864979
4528451.2
731667.33
224628.57
95288.475
48484.811
27613.176
16954.936
10978.152
7391.2235
5125.7682
3637.1705
2627.8072
1925.7402
1427.0441
1066.5078
801.91163
605.19181
457.27699
344.97002
259.01145
192.84793
141.82956
102.66694
73.035499
51.250583
35.973348
25.956654
19.925755
16.598586
14.803193
13.777409
13.032737
12.365561
11.729454
11.122673
10.549555
10.015774
9.5260511
9.0876
8.7117046
8.4075495
8.1990985
8.0901079
8.0503518
8.0932167
8.279798
8.4640196
8.7127163
8.9055902
9.0685071
9.1467469
9.1692218
9.1304432
8.8859054
8.2492761
7.3128938
6.2467757
5.2306897
4.3480936
3.5587935
2.8076536
2.0912522
1.4547477
0.94856755
0.58643462
4528483
731672.6
224630.32
95289.448
48485.57
27613.912
16955.729
10979.037
7392.2201
5126.8914
3638.4303
2629.2094
1927.2871
1428.7337
1068.3334
803.86098
607.24632
459.41069
347.14844
261.19042
194.97262
143.83459
104.47901
74.580851
52.46869
36.835203
26.484812
20.172856
16.665288
14.772907
13.711382
12.96338
12.304487
11.678982
11.083236
10.521541
9.9995994
9.5272453
9.1093829
8.758615
8.4880865
8.3365481
8.2662036
8.2518062
8.3820157
8.5884304
8.8120365
9.0537058
9.2089178
9.2836156
9.2941116
9.21282
9.0954168
8.8420659
8.1108078
6.9598957
5.7397188
4.657906
3.8375216
3.2004384
2.5917493
1.9599562
1.3663702
0.88623098
0.54522158
4528516.9
731678.23
224632.21
95290.549
48486.482
27614.836
16956.753
10980.195
7393.5369
5128.3837
3640.1103
2631.0851
1929.3621
1431.0064
1070.796
806.49883
610.03614
462.31933
350.13114
264.18903
197.91402
146.63036
107.02837
76.779796
54.227902
38.105338
27.279194
20.565909
16.789482
14.753058
13.625984
12.867796
12.218902
11.607773
11.026869
10.480348
9.9748569
9.520314
9.129019
8.8077847
8.5942271
8.4841988
8.4439014
8.4647148
8.6488883
8.842973
9.0692182
9.2548578
9.3518889
9.3847578
9.2434587
9.0510626
8.8768518
8.6579365
7.971955
6.6378871
5.2901001
4.1483289
3.3176838
2.7399594
2.2421225
1.7219936
1.2145377
0.79494803
0.49329723
4528552.1
731684.06
224634.19
95291.754
48487.524
27615.92
16957.972
10981.587
7395.1277
5130.1931
3642.1534
2633.3728
1931.9002
1433.7951
1073.8287
809.76037
613.50133
465.95077
353.87697
267.98033
201.66244
150.22692
110.34598
79.682954
56.593556
39.854465
28.408584
21.168001
17.006629
14.754109
13.525817
12.74098
12.10199
11.510499
10.950138
10.42379
9.9376849
9.5041839
9.142033
8.8577293
8.688322
8.6044213
8.5775903
8.6233504
8.7866095
8.9359395
9.1278452
9.2602857
9.323252
9.3303324
9.0831578
8.8180424
8.6095458
8.3862044
7.7615767
6.2611684
4.8084974
3.6691456
2.8742806
2.3347871
1.8983993
1.4630414
1.0403035
0.68979005
0.43514702
4528588.7
731690.09
224636.25
95293.045
48488.668
27617.127
16959.341
10983.157
7396.9278
5132.2461
3644.4781
2635.9832
1934.806
1437
1077.3292
813.54397
617.54428
470.21547
358.30888
272.50457
206.18028
154.61338
114.45098
83.340393
59.643302
42.178991
29.97512
22.057845
17.375247
14.812951
13.428276
12.596774
11.962736
11.390461
10.851342
10.347023
9.8858712
9.4762119
9.1357624
8.8887621
8.7411011
8.6651938
8.6383836
8.6618745
8.7822153
8.8994216
9.038407
9.1247136
9.1685726
9.1419395
8.8781085
8.615055
8.4132041
8.1846021
7.5346103
5.8650015
4.325283
3.2007175
2.4593187
1.9715772
1.5889841
1.2224191
0.87388623
0.5876478
0.37836281
4528626.6
731696.34
224638.38
95294.397
48489.877
27618.409
16960.799
10984.833
7398.8536
5134.4479
3646.9778
2638.7993
1937.9526
1440.4861
1081.1571
817.70693
622.02407
474.97912
363.30492
277.6585
211.38981
159.74431
119.33624
87.786823
63.452423
45.186061
32.100598
23.347383
17.980949
14.98472
13.366143
12.451474
11.808937
11.253881
10.7369
10.25521
9.8168022
9.4334188
9.1143236
8.8786535
8.7367844
8.6629169
8.6354323
8.6431563
8.717401
8.755026
8.8106183
8.9003831
8.9539987
8.8830499
8.6107052
8.4278391
8.27512
8.0340832
7.2983401
5.4187095
3.8448898
2.775292
2.09561
1.6552213
1.3186194
1.0102132
0.72605666
0.49629728
0.32731927
4528664.7
731702.77
224640.6
95295.783
48491.103
27619.705
16962.274
10986.529
7400.8047
5136.6832
3649.5228
2641.6768
1941.1824
1444.0838
1085.1327
822.06279
626.75169
480.05568
368.68859
283.28294
217.15787
165.52184
124.9482
93.020186
68.072919
48.975749
34.915291
25.173955
18.954282
15.352256
13.396475
12.328012
11.651626
11.107123
10.611335
10.151383
9.7341533
9.3714756
9.07657
8.8541706
8.7185096
8.6437761
8.6037744
8.5784983
8.5658959
8.55312
8.5863226
8.6797588
8.7273691
8.5573089
8.3030675
8.2751946
8.2138904
7.9355074
7.0101161
4.9151326
3.3587176
2.3744684
1.7737861
1.3864543
1.0919227
0.83200491
0.60133802
0.41868581
0.28366111
4528704.9
731709.65
224643.07
95297.276
48492.372
27621.003
16963.708
10988.16
7402.6749
5138.8258
3651.9676
2644.4514
1944.3125
1447.5927
1089.0401
826.38244
631.48893
485.20319
374.2213
289.15147
223.28074
171.77697
131.16552
98.979404
73.513664
53.629196
38.562267
27.717582
20.469578
16.054055
13.603181
12.289074
11.512139
10.96037
10.481144
10.042102
9.6447091
9.2991347
9.0179711
8.8101349
8.678372
8.596917
8.5348776
8.467733
8.4189695
8.4001852
8.4358037
8.4969575
8.4503388
8.198417
8.0096898
8.2056447
8.192488
7.8455858
6.5861293
4.3515062
2.8867895
2.0158045
1.4959972
1.1606284
0.9058445
0.68751947
0.50030085
0.35518672
0.24751275
4528746.8
731716.72
224645.56
95298.726
48493.561
27622.185
16964.997
10989.616
7404.3412
5140.7371
3654.1556
2646.9468
1947.1457
1450.794
1092.6387
830.40505
635.95699
490.12909
379.60296
294.96517
229.47197
178.24977
137.77137
105.50916
79.698829
59.162876
43.149805
31.155596
22.724847
17.284666
14.102794
12.377259
11.443473
10.830276
10.358226
9.9343671
9.550916
9.2180091
8.9466434
8.7448205
8.612445
8.5260981
8.4540997
8.3666687
8.3089998
8.2928037
8.3207519
8.3368524
8.109112
7.8211233
7.8601723
8.1998684
8.2683664
7.7915085
6.0020675
3.7458124
2.4336368
1.6946234
1.2597202
0.97427635
0.75569308
0.57263516
0.42012351
0.30417934
0.21807906
4528789.6
731723.93
224648.03
95300.086
48494.612
27623.187
16966.06
10990.804
7405.6949
5142.2908
3655.9408
2648.9953
1949.4908
1453.4711
1095.6851
833.85937
639.85695
494.50848
384.48657
300.36158
235.36381
184.58133
144.43434
112.32866
86.425007
65.477494
48.701018
35.630016
25.945103
19.284677
15.116261
12.746853
11.493247
10.768504
10.248816
9.8363918
9.4703579
9.147397
8.8797551
8.6770758
8.5398042
8.4496676
8.377573
8.2890164
8.2234261
8.2048217
8.2060493
8.1322055
7.7564779
7.6254344
7.7821513
8.4227148
8.4190105
7.679163
5.1926286
3.1408558
2.0302221
1.4196175
1.0608236
0.82001864
0.63412676
0.48113875
0.35649488
0.26325795
0.19421124
4528834.7
731731.37
224650.49
95301.332
48495.487
27623.957
16966.839
10991.651
7406.6491
5143.3838
3657.2021
2650.4553
1951.1829
1455.4327
1097.9584
836.49141
642.89897
498.01374
388.50648
304.93946
240.52551
190.32243
150.70384
119.01045
93.320498
72.296947
55.076421
41.165263
30.309938
22.327266
16.9285
13.624812
11.786118
10.819372
10.226999
9.7715117
9.3973054
9.0779889
8.8123918
8.6080855
8.4679052
8.3782682
8.3129214
8.2299752
8.1564699
8.1222173
8.0763965
7.903883
7.5713046
7.5610605
7.9361468
8.8637163
8.5671314
7.2423885
4.2744324
2.5800362
1.6766964
1.1880558
0.89669447
0.6937559
0.53572633
0.40775963
0.30558509
0.23024715
0.17484698
4528880.1
731738.86
224652.87
95302.44
48496.162
27624.469
16967.299
10992.115
7407.1533
5143.955
3657.8655
2651.2373
1952.1133
1456.5469
1099.2986
838.10767
644.84992
500.36594
391.33242
308.31315
244.51499
194.97818
156.04264
124.99464
99.834452
79.125487
61.895028
47.558472
35.836154
26.633141
19.874349
15.339976
12.591606
11.1038
10.299333
9.783356
9.3905618
9.0647675
8.7890213
8.568524
8.4075574
8.3049205
8.2441365
8.1730498
8.0951482
8.0354244
7.9498326
7.7116585
7.5009266
7.7120384
8.6372541
9.3244955
8.6640271
6.2076154
3.4854139
2.0779103
1.3767951
0.99703631
0.76091795
0.58977469
0.45572602
0.34859959
0.2646707
0.2035689
0.15916502
4528926.9
731746.49
224655.2
95303.421
48496.644
27624.726
16967.442
10992.198
7407.2055
5143.9984
3657.9188
2651.3198
1952.2482
1456.7627
1099.6319
838.60517
645.57023
501.3811
392.7275
310.18258
246.95781
198.09148
159.90789
129.65836
105.28312
85.256604
68.490111
54.27015
42.208831
32.178237
24.201438
18.295807
14.317621
11.902802
10.620918
9.9113788
9.4414777
9.0889831
8.804522
8.5770971
8.4078552
8.2910981
8.2204771
8.155405
8.0695882
7.9808039
7.8724951
7.6468846
7.6775633
8.1903591
9.7176092
9.5998154
8.3875978
4.8764799
2.7032493
1.6672403
1.1395722
0.84392828
0.65008598
0.50453839
0.3906175
0.30075732
0.23178315
0.18208494
0.14652326
4528977.9
731754.58
224657.57
95304.305
48496.962
27624.766
16967.313
10991.95
7406.8644
5143.58
3657.4348
2650.7823
1951.6712
1456.1647
1099.0379
838.04855
645.09542
501.04624
392.60828
310.37828
247.59153
199.30251
161.84006
132.4321
108.97852
89.892065
73.988974
60.427986
48.674745
38.472152
29.791438
22.738285
17.409875
13.746712
11.512476
10.323061
9.6432392
9.2019215
8.8817201
8.6357116
8.4510806
8.3220133
8.2447317
8.1808703
8.0890211
8.0080471
7.8719459
7.8887193
8.1889199
9.604471
10.56789
9.825973
7.0800862
3.7454982
2.120562
1.3457172
0.95014932
0.72012413
0.55911107
0.43483365
0.33784843
0.26223207
0.20553116
0.16495655
0.1363599
4529031.7
731762.92
224659.96
95305.132
48497.173
27624.653
16966.988
10991.461
7406.2332
5142.8172
3656.5461
2649.7721
1950.5452
1454.9321
1097.7131
836.6538
643.66297
499.6207
391.24841
309.15723
246.59907
198.64941
161.66389
132.91633
110.32565
92.275669
77.482736
64.992978
54.136301
44.49872
35.903154
28.375672
22.070509
17.14521
13.614965
11.423625
10.218589
9.527422
9.0948775
8.7983517
8.587582
8.4420957
8.3558288
8.2971368
8.2184513
8.1786044
8.219622
8.4567543
9.3773974
11.292988
10.983247
9.4888804
5.2890289
2.7322307
1.6157994
1.0945751
0.81363598
0.62681864
0.48595459
0.37785861
0.29503329
0.23128682
0.18469903
0.15147865
0.12809057
4529085.9
731771.42
224662.39
95305.945
48497.334
27624.463
16966.56
10990.842
7405.442
5141.8602
3655.4237
2648.4822
1949.0854
1453.3016
1095.9146
834.69562
641.56141
497.4029
388.95542
306.84702
244.34915
196.55804
159.84788
131.49975
109.44657
92.100911
78.255923
66.940299
57.363021
48.888398
41.170284
34.07178
27.638301
22.039132
17.462393
14.000041
11.689201
10.388898
9.6402762
9.1917456
8.9128675
8.7420248
8.642806
8.5851502
8.60688
8.6982092
8.9597762
9.7069024
11.776361
12.296675
11.213123
7.4545472
3.7079264
2.0618958
1.3021106
0.93071397
0.70235898
0.54101234
0.42107161
0.33066042
0.26038456
0.20662362
0.16825179
0.141025
0.12118749
4529139.6
731780.11
224664.89
95306.781
48497.505
27624.274
16966.125
10990.207
7404.6263
5140.8672
3654.2505
2647.1223
1947.5304
1451.5431
1093.9453
832.51106
639.16201
494.79642
386.15999
303.89481
241.29021
193.46415
156.81527
128.64955
106.92242
90.059509
76.833512
66.27798
57.646631
50.389629
44.020136
38.106733
32.495325
27.211458
22.409452
18.28201
14.983007
12.547023
11.027229
10.16946
9.6883318
9.4355744
9.3375293
9.3774825
9.5175421
9.8169695
10.474135
12.259908
13.459417
12.720166
10.073916
4.9989282
2.5606126
1.5149785
1.0453835
0.77852482
0.60348358
0.47404734
0.37140727
0.29318458
0.23237289
0.18687754
0.15522902
0.13278547
0.11604439
4529196.7
731789.21
224667.53
95307.702
48497.746
27624.154
16965.764
10989.654
7403.8992
5139.9709
3653.1814
2645.8719
1946.0876
1449.8948
1092.078
830.4115
636.81858
492.201
383.31037
300.7978
237.96575
189.9503
153.17422
124.97469
103.34773
86.750402
73.947505
63.958418
56.002651
49.472733
43.933377
39.138625
34.785256
30.643338
26.607685
22.780294
19.336648
16.441197
14.178323
12.575036
11.601972
11.081771
10.948583
11.038595
11.285063
11.782507
13.120401
14.675881
14.151981
12.2287
6.7977117
3.3802262
1.9164723
1.243527
0.89107268
0.67698285
0.52874718
0.41530485
0.32717468
0.26074793
0.20898022
0.17105929
0.14490881
0.1260554
0.11249835
4529258.1
731798.85
224670.34
95308.728
48498.081
27624.133
16965.514
10989.228
7403.3173
5139.239
3652.2966
2644.8263
1944.8695
1448.4902
1090.4708
828.58416
634.75302
489.87931
380.71612
297.91801
234.79347
186.48805
149.43793
120.99742
99.180556
82.471797
69.704102
59.96472
52.517398
46.72849
42.021353
37.993154
34.381976
31.129142
28.142453
25.325291
22.602621
20.073347
17.877021
16.127288
14.864439
14.0796
13.595048
13.569744
13.735642
14.40329
16.025097
15.640068
14.089404
9.0410859
4.418246
2.3204056
1.3870881
0.96018603
0.73279575
0.58252345
0.46199218
0.3679584
0.29287795
0.23475276
0.19010815
0.15844167
0.13667389
0.12071091
0.10971442
4529319.5
731808.68
224673.26
95309.838
48498.496
27624.198
16965.362
10988.913
7402.8644
5138.6554
3651.5817
2643.9739
1943.8697
1447.3298
1089.1337
827.05195
633.00505
487.89335
378.4691
295.38697
231.95677
183.32692
145.93828
117.15158
94.987616
77.958772
64.931546
55.034038
47.572675
41.996994
37.846264
34.672042
32.084421
29.695431
27.421596
25.222026
23.260505
21.483635
19.89777
18.509209
17.336817
16.443868
15.690125
15.56652
16.015722
17.541272
17.250269
15.856721
11.340794
5.4634884
2.7414679
1.6099968
1.1003801
0.83696119
0.64896069
0.51008492
0.4053157
0.32378359
0.26029799
0.21175065
0.17459171
0.14814977
0.13004885
0.11649844
0.10756559
4529381.2
731818.71
224676.26
95310.986
48498.932
27624.278
16965.221
10988.61
7402.4231
5138.0849
3650.8822
2643.1404
1942.8935
1446.1995
1087.8356
825.5706
631.32322
485.99254
376.32978
292.98888
229.27944
180.3505
142.64542
113.52981
91.033716
73.679273
60.35446
50.195655
42.533627
36.837027
32.664805
29.653679
27.499716
25.936345
24.6626
23.449765
22.154159
20.891849
19.715196
18.68137
17.767977
16.867602
16.793979
17.433838
19.231276
18.930509
17.606872
13.344179
6.4445183
3.273584
1.9002048
1.2816222
0.935349
0.71049404
0.56529146
0.45247794
0.36116136
0.2894269
0.23432038
0.19337192
0.16213453
0.13981447
0.12475456
0.11320678
0.10594482
4529447.3
731829.33
224679.43
95312.195
48499.392
27624.361
16965.07
10988.288
7401.9588
5137.4884
3650.1549
2642.2782
1941.8888
1445.0427
1086.5155
824.07451
629.63733
484.10131
374.21594
290.63379
226.66428
177.45829
139.46283
110.04992
87.25939
69.619879
56.022353
45.616707
37.745784
31.891237
27.63363
24.62372
22.560115
21.173125
20.201384
19.43506
18.814287
18.224636
17.630707
17.286591
17.143845
17.717065
19.128387
21.038908
20.672022
19.257615
14.93154
7.5501091
3.9063672
2.2670532
1.4814086
1.0243615
0.76272349
0.60360479
0.48643565
0.39221735
0.3201884
0.26119067
0.21365458
0.17799995
0.15156303
0.13288332
0.12043207
0.11063899
0.1047702
4529517.1
731840.44
224682.76
95313.455
48499.858
27624.426
16964.881
10987.915
7401.432
5136.8212
3649.3511
2641.3364
1940.8045
1443.809
1085.1243
822.51653
627.90249
482.17934
372.09683
288.30824
224.12398
174.69607
136.47359
106.83244
83.818326
65.965357
52.168912
41.586476
33.572803
27.619933
23.315548
20.31349
18.314575
17.053814
16.284357
15.790832
15.647304
15.789386
16.150014
17.082785
18.67224
21.374815
22.739903
22.305053
20.716375
16.186306
8.6771029
4.6378077
2.6697985
1.6622281
1.1149499
0.83354863
0.66732757
0.54479662
0.44352977
0.35905621
0.28880686
0.23602186
0.1961397
0.16577738
0.1432824
0.12739711
0.11691695
0.10870919
0.10397563
4529588.1
731851.82
224686.19
95314.792
48500.39
27624.559
16964.77
10987.632
7401.0108
5136.2767
3648.6895
2640.559
1939.9096
1442.7934
1083.9837
821.24645
626.49876
480.63848
370.41633
286.48659
222.16046
172.59047
134.2261
104.44376
81.29105
63.305336
49.394881
38.7246
30.655528
24.684591
20.400893
17.458465
15.57274
14.586284
14.163563
14.230747
14.813254
15.971564
17.854176
20.315342
23.129681
24.380025
23.846012
22.010572
17.183767
9.8018108
5.3985182
3.0611428
1.8430033
1.2467643
0.93494002
0.74351844
0.59604075
0.47306619
0.37798059
0.3097537
0.25711896
0.21410694
0.18067475
0.15507091
0.1363183
0.12287067
0.11405478
0.10723265
0.10334446
4529661.3
731863.69
224689.82
95316.322
48501.149
27624.969
16964.997
10987.751
7401.0593
5136.275
3648.6486
2640.4847
1939.8046
1442.6584
1083.8179
821.04795
626.26451
480.36443
370.09746
286.11719
221.73455
172.10247
133.67158
103.82028
80.598851
62.549058
48.574473
37.858418
29.773645
23.813293
19.5797
16.752725
15.103095
14.413231
14.442127
15.197692
16.7607
19.05645
21.91595
24.643435
25.917584
25.296101
23.252952
18.166603
10.983153
6.2218709
3.4845717
2.0751874
1.4128716
1.0539786
0.81598513
0.63379033
0.5027599
0.414083
0.3460926
0.28635938
0.23632167
0.19698949
0.16784833
0.14623242
0.13053623
0.11914945
0.11169501
0.10600405
0.10274039
4529737.4
731876.04
224693.67
95318.04
48502.127
27625.646
16965.547
10988.253
7401.5562
5136.7917
3649.2009
2641.0832
1940.457
1443.3699
1084.5921
821.88664
627.16796
481.33119
371.12423
287.19855
222.86288
173.26779
134.86145
105.01977
81.790941
63.715992
49.700501
38.920972
30.752962
24.740227
20.522649
17.819603
16.415025
16.081086
16.700848
18.211395
20.475124
22.992226
25.883258
27.540251
26.845562
24.622858
19.30105
12.211288
7.0733048
3.9171308
2.3339681
1.5907296
1.1726246
0.88226149
0.67944699
0.54961062
0.45927667
0.38131655
0.31428745
0.26003059
0.21850567
0.1857589
0.15937135
0.13980331
0.12592563
0.11612798
0.10965005
0.10503846
0.10208994
4529816
731888.8
224697.68
95319.872
48503.215
27626.444
16966.24
10988.923
7402.2486
5137.5351
3650.0147
2641.9819
1941.4518
1444.4702
1085.8055
823.21945
628.62515
482.91619
372.83879
289.04264
224.83414
175.36127
137.06959
107.33248
84.196171
66.201122
52.255137
41.540781
33.448705
27.52636
23.435132
20.921538
19.799951
19.887384
20.855678
22.619535
25.185295
28.123262
29.593934
28.743925
26.256906
20.585219
13.46994
7.924128
4.3838236
2.6309766
1.7979036
1.3108916
0.97642403
0.75906849
0.61609972
0.50687935
0.41507381
0.33974075
0.2798137
0.23311039
0.19694073
0.16979389
0.14937068
0.13355495
0.12186307
0.11352345
0.10798843
0.10425475
0.1014297
4529897.8
731902.11
224701.8
95321.727
48504.279
27627.188
16966.853
10989.493
7402.8233
5138.1436
3650.6775
2642.7146
1942.2674
1445.3802
1086.8205
824.34962
629.88019
484.30559
374.37173
290.72783
226.6798
177.37497
139.25805
109.70169
86.752429
68.951009
55.207963
44.711447
36.859957
31.211821
27.444167
25.317657
24.637882
25.04296
26.268375
28.555248
31.215483
32.069403
30.957743
28.057266
21.980954
14.771033
8.8254096
4.9355451
2.9873749
2.0328365
1.4619201
1.0867439
0.84634312
0.67616672
0.54424696
0.44234949
0.36534299
0.30504996
0.25920593
0.22078444
0.18792045
0.16207605
0.14292736
0.12890605
0.11863461
0.11149904
0.10663574
0.10357665
0.10096876
4529983.7
731915.92
224706.05
95323.575
48505.268
27627.811
16967.305
10989.864
7403.1618
5138.4789
3651.0295
2643.0983
1942.6956
1445.8648
1087.3733
824.98296
630.60719
485.14058
375.33049
291.82777
227.94027
178.81747
140.90645
111.58249
88.894599
71.387501
57.975886
47.853899
40.428187
35.266803
32.052108
30.533762
30.463197
31.108012
32.78502
34.923023
34.812732
33.393507
29.888529
23.492054
16.132487
9.797371
5.5613565
3.3850733
2.2784355
1.6243915
1.2135763
0.94383119
0.74421578
0.59372559
0.48463619
0.40540294
0.34242078
0.28767358
0.24028842
0.20342838
0.17614671
0.15401342
0.13686809
0.12461037
0.11579625
0.10981717
0.10548353
0.10280422
0.10059318
4530071.7
731930.13
224710.45
95325.455
48506.249
27628.397
16967.699
10990.159
7403.4068
5138.7039
3651.2541
2643.3372
1942.9615
1446.1695
1087.7289
825.40248
631.10545
485.73453
376.03983
292.67556
228.95358
180.02807
142.35152
113.30533
90.944997
73.822023
60.857391
51.249865
44.406072
39.883038
37.334402
36.45432
36.766742
37.80022
38.673108
37.878184
35.932901
31.706159
25.049778
17.504601
10.811574
6.2488605
3.820684
2.5466559
1.8133315
1.3663192
1.0592432
0.82897961
0.66047198
0.53944575
0.44909881
0.37433744
0.31021475
0.25859506
0.21939929
0.18757645
0.16383662
0.14624814
0.13221089
0.1215018
0.11365675
0.10838081
0.10450336
0.10204314
0.10017655
4530163.2
731944.99
224715.02
95327.428
48507.294
27629.041
16968.15
10990.515
7403.7205
5139.0059
3651.5653
2643.6737
1943.3369
1446.5968
1088.2214
825.97485
631.77419
486.51887
376.96252
293.7637
230.23958
181.55066
144.15666
115.44685
93.484495
76.827407
64.394126
55.382016
49.175304
45.281428
43.264422
42.665148
42.789995
42.432894
40.955573
38.345656
33.583437
26.65489
18.874623
11.888019
7.0240229
4.3194932
2.8563682
2.0341406
1.5370332
1.1861724
0.92487655
0.73593958
0.59589038
0.48887743
0.403339
0.33687924
0.28487867
0.24177941
0.20799553
0.18033878
0.15754638
0.13991856
0.12730315
0.11832543
0.11166698
0.10707029
0.10365321
0.1013765
0.099699759
4530257.7
731960.31
224719.78
95329.517
48508.438
27629.785
16968.712
10990.997
7404.1772
5139.4719
3652.0643
2644.2241
1943.9549
1447.298
1089.0221
826.89278
632.82951
487.735
378.3671
295.38971
232.12651
183.74581
146.71644
118.4333
96.955212
80.811963
68.930624
60.490361
54.813776
51.308973
49.439325
48.280574
46.608953
44.137491
40.873228
35.508139
28.243671
20.231975
13.039219
7.8992779
4.8858095
3.2071422
2.2805251
1.7235633
1.3292281
1.0394704
0.82601425
0.66551829
0.54276956
0.44904185
0.37760339
0.31954543
0.26936703
0.22785831
0.19531784
0.17000727
0.1512426
0.13606304
0.12438661
0.11604971
0.11002361
0.10591887
0.10283344
0.10075005
0.099214588
4530355.2
731976.14
224724.72
95331.721
48509.684
27630.633
16969.387
10991.608
7404.7837
5140.1105
3652.7616
2645.0016
1944.8318
1448.2934
1090.156
828.1871
634.30917
489.42879
380.30883
297.61899
234.68851
186.68982
150.09103
122.28391
101.32102
85.722026
74.354174
66.327174
60.874859
57.17536
54.201486
51.13313
47.773066
43.588117
37.545552
29.914026
21.709765
14.336556
8.9017694
5.5312211
3.6055009
2.5550931
1.9286681
1.4904804
1.1702996
0.92983007
0.74579625
0.60579342
0.49728142
0.41438211
0.34684933
0.29090894
0.24560893
0.21005375
0.18230097
0.15999501
0.14336005
0.13054879
0.12095423
0.11386595
0.10853656
0.10483976
0.10202675
0.10019389
0.098818261
4530457.6
731992.73
224729.91
95334.059
48511.032
27631.579
16970.169
10992.339
7405.5273
5140.9068
3653.6399
2645.9862
1945.9453
1449.5582
1091.5956
829.8273
636.17834
491.55835
382.73269
300.3727
237.8083
190.20982
154.03956
126.6754
106.14676
90.947282
79.828175
71.757823
65.750067
60.826925
56.322079
51.876295
46.618358
39.827517
31.776195
23.34621
15.755647
9.9869623
6.2428119
4.0605532
2.8696949
2.1622775
1.6762523
1.3214223
1.04985
0.83992671
0.6788613
0.55553598
0.46012671
0.38598645
0.32557464
0.27616036
0.23542322
0.20236961
0.17649512
0.1553552
0.13947805
0.12722182
0.11838585
0.11200246
0.10715582
0.10389674
0.10131241
0.099777746
0.09853053
4530563.2
732009.92
224735.33
95336.52
48512.475
27632.619
16971.053
10993.184
7406.3998
5141.8504
3654.6866
2647.1627
1947.2763
1451.0678
1093.3088
831.77028
638.37875
494.04515
385.5347
303.51661
241.31416
194.08431
158.26575
131.19848
110.85531
95.651043
84.281336
75.56327
68.514873
62.407835
56.602525
50.102035
42.457831
33.906544
25.191396
17.344322
11.229479
7.1060736
4.6339618
3.2529727
2.4323297
1.8851815
1.4904017
1.1863162
0.95064019
0.76801128
0.6259769
0.51624112
0.4290695
0.36019395
0.30363753
0.25775537
0.21952807
0.18921882
0.1667438
0.14871594
0.13496081
0.12405092
0.11614643
0.11034431
0.10596405
0.10306949
0.10076756
0.099481282
0.098354895
4530672.5
732027.71
224740.94
95339.094
48514.007
27633.744
16972.026
10994.128
7407.3833
5142.9184
3655.8718
2648.4924
1948.7752
1452.7601
1095.2187
833.92231
640.79737
496.75301
388.55056
306.85071
244.9617
198.01632
162.41719
135.45424
115.03569
99.498544
87.479949
77.842782
69.673875
62.104376
54.169527
45.551833
36.410375
27.337037
19.178387
12.680865
8.1350222
5.305587
3.6767684
2.7208349
2.111224
1.6788741
1.3435604
1.0791827
0.87010603
0.70616327
0.57936545
0.47971618
0.40030136
0.33881687
0.28702041
0.24374681
0.20825784
0.18069966
0.15933711
0.14256472
0.13051269
0.12098938
0.11406503
0.10886232
0.10491331
0.10233978
0.10031989
0.099195952
0.09820353
4530784.7
732046.07
224746.73
95341.756
48515.593
27634.906
16973.029
10995.099
7408.395
5144.0165
3657.0904
2649.8595
1950.3157
1454.4973
1097.1748
836.11754
643.24853
499.4709
391.53603
310.08884
248.41395
201.61095
166.0392
138.93729
118.16083
102.00657
89.100696
78.331563
68.583302
59.023519
49.297239
39.449589
29.91163
21.352882
14.406358
9.3777374
6.1258439
4.2000679
3.0818644
2.3908934
1.9053091
1.5276184
1.2277305
0.98969484
0.80370165
0.65745555
0.54113018
0.45035547
0.37825874
0.31968
0.27060167
0.23226639
0.20000743
0.1747369
0.15540047
0.13932812
0.127668
0.11864568
0.11229882
0.10754298
0.10397854
0.10171378
0.099928955
0.098951858
0.098059122
4530901
732061.65
224749.85
95342.281
48515.583
27634.852
16973.078
10995.306
7408.7813
5144.5949
3657.8709
2650.852
1951.5306
1455.9445
1098.8633
838.05285
645.43021
501.88831
394.16285
312.87633
251.28343
204.44659
168.6834
141.19161
119.79791
102.81377
88.77686
76.444267
64.991313
53.948597
43.218161
33.059738
23.976177
16.488745
10.900216
7.1474483
4.8508325
3.5106874
2.6992794
2.1453264
1.7257485
1.3954138
1.1309782
0.91927018
0.74900833
0.61374792
0.508882
0.42476545
0.35589794
0.30261477
0.25735086
0.22014955
0.18840532
0.16528207
0.148449
0.13459819
0.12455116
0.1164897
0.11075078
0.10638549
0.10321496
0.10120704
0.099630344
0.098777391
0.097961532
4531685.4
732195.73
224794.99
95363.666
48527.719
27642.626
16978.527
10999.414
7412.0765
5147.3876
3660.3556
2653.1572
1953.7449
1458.1303
1101.063
840.29229
647.71832
504.21491
396.49476
315.15269
253.41144
206.29967
170.10671
142.00568
119.76766
101.58097
86.088437
72.300264
59.588147
47.692373
36.697959
26.941859
18.831376
12.634127
8.3343205
5.6134805
4.0040321
3.0461352
2.4186111
1.9571161
1.5915439
1.2923119
1.0480741
0.85168314
0.69764299
0.57578274
0.47751982
0.39988408
0.33804682
0.28781061
0.24482623
0.21200022
0.18330292
0.16095249
0.14434377
0.13103119
0.1218107
0.11445946
0.10930157
0.1053493
0.10256359
0.10076923
0.099398064
0.098573529
0.097899321
4531684.6
732192.01
224791.98
95361.436
48526.172
27641.567
16977.827
10998.994
7411.8905
5147.4065
3660.5613
2653.5382
1954.2924
1458.835
1101.9125
841.26672
648.78644
505.32916
397.58631
316.12753
254.14998
206.64407
169.84652
140.87868
117.53798
98.141762
81.447652
66.619292
53.207192
41.110713
30.491454
21.630155
14.736567
9.8079856
6.5780706
4.6220368
3.4639743
2.7330191
2.2130325
1.8043484
1.4702417
1.1980042
0.97817943
0.80147684
0.6579158
0.54239403
0.45248237
0.37995511
0.32006433
0.27360485
0.23349477
0.20120076
0.17432855
0.15546209
0.14058072
0.12808508
0.11959672
0.11275447
0.10805523
0.10445756
0.10201708
0.10042519
0.099189025
0.09842636
0.097860356
4531684.8
732192.09
224792.03
95361.52
48526.282
27641.706
16978.001
10999.207
7412.148
5147.7126
3660.9196
2653.9504
1954.757
1459.3458
1102.4555
841.81834
649.30893
505.76675
397.86019
316.12929
253.73078
205.63371
168.0769
138.21723
113.90414
93.54259
76.013918
60.624709
47.053131
35.265613
25.391196
17.573278
11.813384
7.893341
5.4451176
3.9906664
3.105937
2.5082448
2.0527711
1.6826846
1.3771916
1.1248035
0.91774492
0.75053735
0.61852629
0.51325865
0.42799579
0.35976448
0.30510748
0.26164497
0.2244955
0.194703
0.16780548
0.14988028
0.13635496
0.1250203
0.11749774
0.11123876
0.1069985
0.10374477
0.10159109
0.10013189
0.098992666
0.098297815
0.097762446
4531684.9
732192.12
224792.03
95361.512
48526.273
27641.701
16978
10999.214
7412.1647
5147.7404
3660.9581
2653.9968
1954.8039
1459.3797
1102.4538
841.74576
649.11441
505.38024
397.19107
315.06878
252.16264
203.43949
165.15384
134.50256
109.40405
88.359286
70.360408
54.815723
41.464444
30.265601
21.262201
14.45333
9.655647
6.5565782
4.6869241
3.5744423
2.8625021
2.3444859
1.9296462
1.5850716
1.2983077
1.0624541
0.87071902
0.71566869
0.58957251
0.48814676
0.40888943
0.34495898
0.29278221
0.25174198
0.21583348
0.18832878
0.16364889
0.14695842
0.13369337
0.12282225
0.1158691
0.10998551
0.10612916
0.10317091
0.10121358
0.099856753
0.098821552
0.098197064
0.097718035
4531686.1
732192.17
224791.98
95361.415
48526.151
27641.554
16977.829
10999.019
7411.9449
5147.4938
3660.6804
2653.6802
1954.4357
1458.9401
1101.9141
841.06601
648.24166
504.24749
395.71824
313.16668
249.74098
200.42011
161.48892
130.19617
104.53266
83.084629
64.926442
49.52369
36.626285
26.1451
18.022187
12.115842
8.1447593
5.6684465
4.1922805
3.2915841
2.6803952
2.2112665
1.8251815
1.5018634
1.2322939
1.0092077
0.82638838
0.67881414
0.56114568