/*--------------------------------*- C++ -*----------------------------------*\
  =========                 |
  \\      /  F ield         | OpenFOAM: The Open Source CFD Toolbox
   \\    /   O peration     | Website:  https://openfoam.org
    \\  /    A nd           | Version:  13
     \\/     M anipulation  |
\*---------------------------------------------------------------------------*/
FoamFile
{
    format      ascii;
    class       volScalarField;
    location    "36.403137";
    object      pMean;
}
// * * * * * * * * * * * * * * * * * * * * * * * * * * * * * * * * * * * * * //

dimensions      [0 2 -2 0 0 0 0];

internalField   nonuniform List<scalar> 
17140
(
1.1461358
1.1460514
1.1459496
1.145846
1.1457341
1.1456124
1.1454808
1.145339
1.1451867
1.1450239
1.1448503
1.1446657
1.1444698
1.1442617
1.1440401
1.1438026
1.1435449
1.1432605
1.1429394
1.142567
1.1421224
1.1415765
1.1408892
1.1400058
1.1388624
1.1374058
1.1356025
1.1334146
1.1307748
1.127595
1.1237788
1.1192176
1.1137927
1.1073779
1.0998418
1.0910534
1.0808885
1.0692397
1.0560324
1.0412466
1.0249436
1.0072994
0.98865127
0.96952819
0.95068332
0.93309002
0.91773342
0.90560835
0.89770639
0.8948372
0.89754805
0.90616126
0.92082064
0.94122449
0.9669722
0.99689249
1.0302621
1.064856
1.1010231
1.1344558
1.1686912
1.1939501
1.2227578
1.2334687
1.2572046
1.1447979
1.1447152
1.1446153
1.1445138
1.1444041
1.1442847
1.1441555
1.1440163
1.1438669
1.1437071
1.1435368
1.1433558
1.1431636
1.1429597
1.1427427
1.1425103
1.1422583
1.1419803
1.1416666
1.1413026
1.1408677
1.1403329
1.1396586
1.1387903
1.1376639
1.1362249
1.1344401
1.1322719
1.1296529
1.1264947
1.1227001
1.1181607
1.1127571
1.1063624
1.0988446
1.0900717
1.0799187
1.0682773
1.0550715
1.0402803
1.0239638
1.0062974
0.987617
0.96845456
0.94957369
0.93192576
0.91651109
0.90436227
0.89644372
0.89354763
0.89623893
0.90484074
0.91947524
0.93985276
0.96556886
0.99543955
1.0287504
1.0632729
1.0993346
1.1325733
1.1665563
1.1915633
1.220335
1.2312298
1.2558724
1.1414975
1.1414188
1.141324
1.1412273
1.1411228
1.141009
1.1408858
1.1407531
1.1406106
1.1404582
1.1402958
1.1401233
1.1399404
1.1397466
1.1395406
1.1393204
1.1390821
1.1388197
1.1385236
1.1381799
1.1377682
1.1372603
1.1366171
1.1357855
1.1347001
1.1333043
1.1315636
1.1294413
1.1268705
1.1237626
1.1200195
1.1155316
1.1101787
1.1038321
1.0963582
1.0876229
1.077499
1.0658755
1.0526741
1.037871
1.0215241
1.0038082
0.98505998
0.96582108
0.94686388
0.92912066
0.91360985
0.90138439
0.8934149
0.89048566
0.89313857
0.90168328
0.9162492
0.93655012
0.96216819
0.99191955
1.0250904
1.0594468
1.0953331
1.1283873
1.1621654
1.1870472
1.2159537
1.2273677
1.2533125
1.1362974
1.1362252
1.1361385
1.1360495
1.1359532
1.1358483
1.1357346
1.1356121
1.1354806
1.1353399
1.13519
1.135031
1.1348627
1.1346847
1.134496
1.134295
1.1340781
1.1338398
1.1335711
1.1332586
1.132883
1.1324166
1.1318218
1.1310467
1.1300257
1.1286983
1.1270267
1.1249749
1.1224788
1.1194496
1.1157869
1.1113803
1.1061076
1.099838
1.0924351
1.0837616
1.0736867
1.0620959
1.0489069
1.0340918
1.017706
0.99992321
0.98108251
0.96173929
0.94267377
0.92480176
0.90917155
0.89684833
0.88881021
0.88583422
0.88843967
0.8969104
0.91136942
0.93153553
0.95698569
0.98651473
1.0194231
1.0535066
1.0891245
1.12197
1.1556016
1.1806334
1.2099965
1.2223786
1.249794
1.1293663
1.1293028
1.129227
1.1291484
1.1290632
1.1289703
1.1288696
1.1287609
1.1286441
1.1285192
1.1283863
1.1282454
1.1280966
1.1279397
1.1277742
1.1275985
1.1274097
1.127203
1.1269701
1.1266985
1.1263698
1.1259576
1.1254256
1.1247242
1.1237884
1.122553
1.1209738
1.1190149
1.1166175
1.1136929
1.1101378
1.1058405
1.1006767
1.0945125
1.087208
1.0786221
1.0686194
1.0570806
1.0439181
1.0290995
1.0126763
0.99482176
0.9758801
0.95642365
0.93723116
0.91922247
0.90347118
0.89104959
0.88295336
0.87994252
0.88250763
0.8909024
0.90524366
0.92524907
0.95048374
0.97972574
1.0123115
1.0460679
1.0813985
1.1140933
1.1476739
1.1730671
1.2031736
1.2167666
1.2456894
1.1209831
1.1209304
1.1208679
1.1208021
1.1207306
1.1206525
1.1205678
1.1204762
1.1203777
1.1202723
1.1201602
1.1200416
1.1199167
1.1197855
1.1196478
1.1195026
1.1193474
1.1191781
1.1189874
1.1187638
1.11849
1.1181412
1.1176828
1.1170678
1.1162338
1.1151108
1.1136436
1.1117962
1.1095171
1.1067185
1.1032944
1.0991312
1.0941021
1.0880699
1.0808909
1.0724192
1.0625142
1.0510509
1.0379356
1.0231299
1.0066815
0.98876316
0.96972727
0.9501637
0.9308459
0.91271602
0.89685816
0.88435482
0.87621963
0.87320021
0.87575202
0.88409493
0.89833299
0.91817397
0.94316743
0.97207161
1.0042695
1.0376713
1.0727342
1.1053671
1.1390537
1.1651354
1.1962178
1.2112015
1.2414829
1.1115257
1.1114852
1.1114373
1.1113864
1.1113309
1.11127
1.1112038
1.1111321
1.1110548
1.1109721
1.1108841
1.1107912
1.1106937
1.1105918
1.1104857
1.1103746
1.1102568
1.1101287
1.1099841
1.1098125
1.1095982
1.1093178
1.1089389
1.108417
1.1076936
1.1066965
1.1053593
1.1036393
1.1014908
1.0988325
1.0955573
1.0915477
1.0866747
1.0807978
1.0737692
1.065438
1.055658
1.0442976
1.0312564
1.0164893
1.0000399
0.98208134
0.962977
0.94332921
0.92391341
0.90569337
0.88974899
0.87718141
0.86902525
0.86602002
0.86858711
0.87691264
0.89108396
0.91079929
0.93558302
0.96417918
0.99600286
1.0290834
1.0639477
1.0966629
1.1306799
1.1577111
1.1898231
1.2061225
1.2371766
1.1014517
1.1014247
1.1013924
1.1013579
1.10132
1.1012782
1.1012325
1.1011827
1.1011289
1.1010712
1.1010098
1.1009452
1.1008776
1.1008076
1.1007354
1.1006606
1.100582
1.1004967
1.1003993
1.1002805
1.1001259
1.0999141
1.0996147
1.0991862
1.0985738
1.0977084
1.0965144
1.0949321
1.0929191
1.0904076
1.0872913
1.0834481
1.0787468
1.0730439
1.0661873
1.0580215
1.0483942
1.0371672
1.0242327
1.0095389
0.99312514
0.97516633
0.95603864
0.93634631
0.91687738
0.89860561
0.88259484
0.86997045
0.86179807
0.85882352
0.86143557
0.86977702
0.88392559
0.90356683
0.9282008
0.95656854
0.9881172
1.0209733
1.0557299
1.0886584
1.1232089
1.1513811
1.1844385
1.2018735
1.2332616
1.091271
1.091258
1.0912422
1.091225
1.0912057
1.091184
1.09116
1.0911335
1.0911046
1.0910734
1.0910402
1.0910053
1.0909692
1.0909324
1.0908951
1.0908572
1.0908179
1.0907747
1.0907229
1.0906544
1.090556
1.0904082
1.0901828
1.0898411
1.0893319
1.0885907
1.0875414
1.0861082
1.0842337
1.0818636
1.0789061
1.0752343
1.0707124
1.0651955
1.058528
1.0505498
1.041103
1.0300426
1.0172536
1.0026779
0.98635094
0.96845031
0.94936346
0.92969062
0.91023573
0.89196286
0.87591442
0.86324677
0.85506863
0.85213209
0.85479212
0.86317204
0.87734419
0.89696345
0.92150887
0.94972407
0.98110491
1.0138606
1.0486836
1.0822188
1.117635
1.1469588
1.1807406
1.1987667
1.2295253
1.0815093
1.0815103
1.0815111
1.0815112
1.0815106
1.0815093
1.0815073
1.0815044
1.0815008
1.0814966
1.0814921
1.0814874
1.0814831
1.0814796
1.081477
1.0814753
1.0814738
1.0814703
1.0814606
1.0814373
1.0813885
1.0812961
1.0811341
1.0808667
1.0804464
1.0798125
1.0788925
1.0776071
1.0758798
1.0736448
1.0708292
1.067323
1.0629842
1.0576606
1.0511945
1.0434228
1.034183
1.023325
1.0107278
0.99632787
0.9801582
0.96239947
0.94344377
0.92388896
0.90454515
0.88634857
0.87032784
0.8576709
0.84951443
0.84661364
0.84932941
0.85778014
0.87200119
0.89162208
0.916118
0.94428027
0.9756462
1.008619
1.0439358
1.078218
1.1143086
1.1444681
1.178226
1.1962955
1.2260921
1.0726641
1.0726785
1.0726949
1.0727116
1.0727291
1.0727474
1.0727666
1.0727866
1.0728077
1.0728298
1.0728531
1.072878
1.0729046
1.0729333
1.0729641
1.0729968
1.0730306
1.0730632
1.0730908
1.0731064
1.0730988
1.0730514
1.0729398
1.0727307
1.07238
1.0718312
1.0710156
1.0698551
1.0682682
1.0661765
1.0634976
1.0601334
1.0559603
1.0508283
1.0445725
1.0370261
1.0280241
1.0174122
1.0050659
0.99091884
0.9750034
0.9575032
0.93880107
0.91950028
0.90040822
0.88242102
0.86655959
0.85401314
0.84592577
0.84308651
0.84584394
0.85429515
0.86851265
0.88812521
0.9126135
0.94082232
0.97232397
1.0056669
1.0414798
1.0764358
1.1129719
1.1434528
1.1769388
1.1949345
1.2231806
1.0651593
1.0651856
1.0652161
1.0652477
1.0652814
1.0653175
1.065356
1.0653971
1.0654408
1.0654872
1.0655365
1.0655889
1.0656444
1.0657031
1.065765
1.0658294
1.0658953
1.0659603
1.0660203
1.0660686
1.0660943
1.0660816
1.0660076
1.0658408
1.06554
1.0650526
1.0643141
1.0632489
1.0617749
1.0598089
1.0572642
1.0540437
1.0500285
1.0450777
1.039033
1.0317285
1.0229979
1.0126857
1.0006652
0.98686946
0.97133111
0.95423398
0.9359526
0.91708734
0.89841755
0.88081416
0.86528212
0.85297675
0.84504342
0.84220923
0.84487356
0.85320032
0.86730343
0.88683068
0.91127999
0.9395398
0.9712452
1.0050156
1.0414067
1.0769398
1.1137432
1.1443857
1.1767912
1.1944879
1.2208257
1.0593001
1.059336
1.059378
1.0594219
1.059469
1.05952
1.0595748
1.0596336
1.0596967
1.0597641
1.059836
1.0599124
1.0599934
1.0600789
1.0601685
1.0602615
1.0603563
1.0604502
1.060539
1.0606156
1.0606694
1.0606849
1.06064
1.0605048
1.0602398
1.0597956
1.059112
1.0581184
1.0567333
1.0548688
1.0524415
1.0493561
1.0454974
1.040734
1.0349138
1.0278752
1.0194549
1.0095016
0.99789571
0.9845675
0.9695492
0.95302048
0.93535141
0.91712104
0.89906445
0.88202442
0.86698651
0.85506398
0.84725997
0.84434706
0.84680362
0.85490827
0.86879103
0.88815136
0.9125192
0.94080642
0.97285292
1.0071231
1.044072
1.0798535
1.1164159
1.1461741
1.1775429
1.194495
1.2188471
1.055238
1.0552807
1.0553308
1.0553835
1.0554404
1.0555022
1.0555691
1.0556414
1.0557193
1.0558029
1.0558926
1.0559883
1.05609
1.0561976
1.0563105
1.0564279
1.0565478
1.0566675
1.0567822
1.056885
1.0569651
1.0570072
1.0569897
1.0568834
1.0566505
1.0562432
1.0556039
1.0546656
1.0533534
1.0515881
1.0492519
1.0462928
1.0425968
1.0380302
1.0324531
1.0257162
1.017667
1.0081588
0.99706443
0.98432901
0.96998535
0.95420271
0.93733355
0.91992021
0.90265797
0.88634688
0.87194015
0.86039575
0.85269393
0.84965902
0.85183597
0.85961117
0.87319526
0.89234343
0.91654681
0.94494427
0.97716361
1.0119747
1.0490052
1.0846403
1.120057
1.1491029
1.178564
1.1946065
1.2173052
1.052944
1.0529902
1.0530446
1.053102
1.0531643
1.0532324
1.0533064
1.0533868
1.0534738
1.0535679
1.0536692
1.053778
1.0538943
1.0540179
1.0541484
1.0542848
1.0544254
1.0545672
1.0547057
1.0548338
1.0549412
1.055013
1.0550281
1.0549582
1.0547665
1.0544063
1.0538217
1.0529485
1.0517131
1.0500392
1.0478719
1.0450495
1.0414714
1.0371253
1.0318292
1.0254426
1.0178188
1.0088225
0.99834667
0.98634125
0.97282688
0.9579615
0.94206449
0.92562807
0.90929947
0.89383905
0.88005454
0.8688661
0.86125606
0.85802784
0.85987041
0.86727716
0.88053148
0.89937551
0.92337382
0.95174583
0.98435035
1.0192467
1.0559286
1.0906259
1.1248398
1.1521446
1.1798769
1.1949016
1.2160488
1.0522363
1.0522826
1.0523377
1.0523956
1.0524587
1.052528
1.0526037
1.0526864
1.0527765
1.0528743
1.0529805
1.0530951
1.0532186
1.0533509
1.0534918
1.0536404
1.0537955
1.0539544
1.0541131
1.0542652
1.0544013
1.0545073
1.0545639
1.0545441
1.0544122
1.0541232
1.0536221
1.0528447
1.051719
1.0501691
1.0481197
1.0454535
1.042151
1.0380397
1.0330224
1.027033
1.0199121
1.0115355
1.0018074
0.99066239
0.97812409
0.9643259
0.94953985
0.93420452
0.91890188
0.90427963
0.8910896
0.88024082
0.87264674
0.86921759
0.8707245
0.87777037
0.89065746
0.90907831
0.9328683
0.96141572
0.99399091
1.0284128
1.0642414
1.0975773
1.1297848
1.1554623
1.1812953
1.1953949
1.2152274
1.0527829
1.0528264
1.0528786
1.0529331
1.0529929
1.0530587
1.0531311
1.0532106
1.0532976
1.0533928
1.0534967
1.0536098
1.0537326
1.0538654
1.0540083
1.0541609
1.0543224
1.054491
1.0546636
1.054835
1.0549973
1.0551386
1.055242
1.0552832
1.0552295
1.0550381
1.054655
1.054016
1.0530496
1.0516787
1.0498206
1.0474197
1.0443694
1.0405743
1.0360012
1.0304674
1.02392
1.0162612
1.0073839
0.99722434
0.9857901
0.97317621
0.95960718
0.94544641
0.93116342
0.91735138
0.90472976
0.89412834
0.88653971
0.88291201
0.88411952
0.89082203
0.90318656
0.92130508
0.94505238
0.97345961
1.0054034
1.0392427
1.0733984
1.1048463
1.1349997
1.1587564
1.1829498
1.196189
1.2148497
1.0542085
1.0542468
1.0542931
1.0543413
1.0543942
1.0544529
1.0545177
1.0545893
1.0546681
1.0547549
1.0548503
1.054955
1.0550697
1.055195
1.0553314
1.055479
1.0556376
1.0558066
1.0559839
1.0561663
1.056348
1.0565202
1.0566695
1.0567764
1.0568134
1.0567429
1.0565161
1.0560724
1.05534
1.0542405
1.0526885
1.0506099
1.0479259
1.0445735
1.040444
1.0355125
1.0297055
1.0228502
1.0149216
1.005854
0.99562446
0.98428745
0.97199622
0.9590122
0.94573234
0.9326957
0.92055081
0.91016709
0.90257041
0.89878761
0.89970663
0.90593123
0.91798486
0.93594358
0.95940933
0.98716688
1.0186358
1.0507639
1.0829541
1.1122363
1.1400861
1.1622686
1.1849052
1.197319
1.2149602
1.056114
1.0561456
1.056184
1.056224
1.056268
1.056317
1.0563715
1.0564319
1.0564989
1.0565732
1.0566555
1.0567465
1.0568472
1.0569583
1.0570805
1.0572147
1.0573613
1.0575204
1.0576914
1.0578729
1.0580616
1.0582521
1.0584353
1.0585977
1.0587188
1.0587698
1.0587107
1.0584889
1.0580395
1.0572856
1.0561426
1.0545265
1.0523529
1.0495617
1.0460841
1.0418659
1.0368248
1.0309433
1.0241284
1.0162643
1.0073346
0.99733633
0.98634077
0.97452884
0.96221832
0.94987232
0.93815378
0.92793748
0.92035061
0.91635087
0.91693431
0.92284963
0.93472372
0.95234175
0.97526159
1.0026388
1.0325541
1.0626476
1.0925688
1.1193837
1.1453694
1.1659826
1.1872059
1.198825
1.2155593
1.058176
1.0582004
1.0582299
1.058261
1.0582954
1.0583339
1.0583768
1.0584247
1.0584782
1.0585379
1.0586045
1.0586788
1.0587618
1.0588542
1.0589572
1.0590717
1.0591986
1.0593389
1.0594929
1.0596608
1.0598414
1.0600326
1.0602297
1.0604249
1.0606056
1.0607529
1.0608392
1.0608261
1.0606627
1.0602844
1.059615
1.0585706
1.0570659
1.0550228
1.0523719
1.0490591
1.0450422
1.0402809
1.0346605
1.0281108
1.0205586
1.0119355
1.0022465
0.99157437
0.98015555
0.968431
0.95705442
0.94700515
0.93929214
0.93507973
0.93540036
0.94120302
0.9528214
0.97002269
0.99272541
1.0188928
1.046623
1.0744935
1.1018011
1.1266632
1.1507824
1.1699601
1.1898805
1.2007277
1.2166605
1.0601501
1.0601678
1.0601891
1.0602117
1.0602369
1.0602653
1.0602971
1.0603328
1.0603728
1.0604178
1.0604685
1.0605255
1.0605896
1.0606618
1.0607432
1.0608347
1.0609377
1.0610534
1.0611829
1.0613272
1.061487
1.0616621
1.0618516
1.0620524
1.0622591
1.0624622
1.0626464
1.06279
1.0628614
1.062818
1.0626044
1.0621537
1.0613901
1.0602347
1.0586121
1.05645
1.0536721
1.0502126
1.0459878
1.0409002
1.0348158
1.0276154
1.0192168
1.0096169
0.99900332
0.98778763
0.97669034
0.96664097
0.95881443
0.95446205
0.95475466
0.9604883
0.97184136
0.98907262
1.0109557
1.0349454
1.0606388
1.0858983
1.1110774
1.1339544
1.1564051
1.1742272
1.1929443
1.203041
1.218258
1.0619136
1.0619255
1.0619399
1.0619554
1.0619727
1.0619923
1.0620143
1.0620392
1.0620673
1.0620991
1.0621352
1.0621762
1.0622228
1.0622759
1.0623362
1.0624048
1.0624828
1.0625716
1.0626724
1.0627867
1.0629159
1.0630619
1.0632255
1.0634073
1.0636065
1.0638212
1.0640469
1.0642762
1.0644968
1.0646907
1.0648312
1.0648822
1.0647969
1.0645159
1.0639685
1.063073
1.0617347
1.0598424
1.0572605
1.0538309
1.0493589
1.0436427
1.0365179
1.0279198
1.0179934
1.0071653
0.99616391
0.98609997
0.97821366
0.97394734
0.97442506
0.98016407
0.99193908
1.0087322
1.0286149
1.0508692
1.0740999
1.0971478
1.1202455
1.1413651
1.1622526
1.1787971
1.1964116
1.2057817
1.2203604
1.0634227
1.06343
1.0634389
1.0634485
1.0634593
1.0634715
1.0634854
1.0635012
1.063519
1.0635395
1.0635631
1.06359
1.0636202
1.0636544
1.0636936
1.0637394
1.063793
1.0638558
1.0639292
1.0640141
1.064111
1.0642217
1.0643489
1.0644958
1.064665
1.0648595
1.0650824
1.0653364
1.0656245
1.0659489
1.06631
1.066707
1.0671324
1.0675678
1.0679755
1.0682894
1.0684033
1.0681604
1.0673588
1.0657491
1.0630189
1.058865
1.0530194
1.0453965
1.0360516
1.0254846
1.0145852
1.0045215
0.99682041
0.99308548
0.9939198
1.0005896
1.0124083
1.0278143
1.0459581
1.0661756
1.087113
1.1081508
1.1294254
1.1489011
1.1683451
1.1836907
1.2002822
1.2089517
1.2229634
1.0647362
1.0647396
1.0647436
1.0647481
1.0647532
1.064759
1.0647656
1.0647734
1.0647824
1.0647929
1.064805
1.0648189
1.0648351
1.0648542
1.0648773
1.0649051
1.0649378
1.0649757
1.0650203
1.0650735
1.0651377
1.0652137
1.0653031
1.0654091
1.0655363
1.065692
1.0658846
1.0661226
1.0664174
1.0667853
1.0672462
1.0678286
1.0685607
1.0694619
1.0705439
1.0717869
1.0731066
1.0743384
1.0752194
1.0753753
1.074383
1.0717945
1.0672616
1.0605308
1.0517433
1.0414942
1.0307102
1.0211622
1.0146037
1.0116816
1.0139609
1.0211446
1.0320052
1.045973
1.0627932
1.0805586
1.0997393
1.1190144
1.1386119
1.1565809
1.1746899
1.1889101
1.2045612
1.2125543
1.2260564
1.0659018
1.0659008
1.0658996
1.0658984
1.0658971
1.0658959
1.065895
1.0658945
1.0658943
1.0658947
1.0658958
1.0658985
1.0659026
1.0659066
1.0659095
1.0659133
1.0659198
1.065931
1.0659495
1.0659769
1.0660134
1.0660587
1.0661137
1.0661834
1.0662744
1.0663935
1.066551
1.0667609
1.0670411
1.0674144
1.067911
1.0685727
1.0694477
1.0705874
1.0720457
1.0738376
1.0759225
1.0781511
1.0802679
1.0818487
1.0823549
1.0811831
1.0778411
1.0720301
1.063864
1.0542255
1.0446134
1.0369475
1.0315903
1.0305293
1.0337747
1.040484
1.0504553
1.0633614
1.0781726
1.0945306
1.1120833
1.1297453
1.1478343
1.1644139
1.181293
1.1944613
1.209245
1.2165878
1.2296402
1.0669527
1.0669465
1.0669392
1.0669315
1.0669232
1.0669142
1.0669045
1.0668942
1.0668834
1.0668722
1.0668605
1.0668485
1.0668361
1.0668236
1.0668112
1.0667995
1.0667895
1.0667826
1.0667796
1.0667823
1.066794
1.0668162
1.0668491
1.066896
1.0669633
1.067058
1.0671895
1.0673726
1.067629
1.0679862
1.0684752
1.0691378
1.0700313
1.0712212
1.0727791
1.0747541
1.0771643
1.079908
1.0827391
1.0852451
1.0867865
1.086682
1.0842961
1.0793517
1.072545
1.0648437
1.0575763
1.0514196
1.0482684
1.0486353
1.0517578
1.0584817
1.0678446
1.0794532
1.093099
1.1080281
1.1241398
1.1403797
1.1571007
1.172408
1.1881576
1.2003446
1.2143304
1.2210514
1.2337061
1.0676699
1.0676587
1.0676455
1.0676315
1.0676163
1.0675994
1.0675804
1.06756
1.0675393
1.0675185
1.0674969
1.0674743
1.0674509
1.0674267
1.0674016
1.0673761
1.0673505
1.0673257
1.0673029
1.0672847
1.0672742
1.0672743
1.0672869
1.0673131
1.0673599
1.067439
1.0675594
1.0677299
1.0679677
1.0683042
1.0687751
1.0694172
1.0702878
1.0714528
1.0729923
1.0749782
1.0774139
1.0802611
1.0832938
1.0861081
1.0880949
1.0886441
1.0873879
1.0842105
1.0795875
1.0742309
1.0689727
1.0651923
1.0641209
1.0648242
1.0686725
1.0751423
1.0840453
1.0947706
1.1073326
1.1211042
1.1359747
1.1509369
1.1664266
1.1805713
1.1952851
1.2065592
1.2198105
1.2259376
1.2382469
1.0678359
1.0678216
1.0678049
1.0677872
1.067768
1.0677472
1.0677245
1.0677
1.0676736
1.0676454
1.0676157
1.0675844
1.0675518
1.0675183
1.0674843
1.0674504
1.0674174
1.0673864
1.0673585
1.0673352
1.0673196
1.0673169
1.06733
1.067356
1.0673975
1.0674674
1.0675771
1.0677368
1.0679626
1.0682709
1.0686924
1.0692762
1.070073
1.071141
1.0725322
1.0743109
1.0765468
1.0792098
1.0821547
1.0850557
1.0875041
1.0890437
1.0892092
1.0879073
1.0855289
1.0823904
1.0794217
1.0782017
1.0780767
1.0800087
1.0845153
1.0908199
1.0992314
1.1093422
1.1210734
1.1338375
1.1476124
1.161441
1.1758244
1.1889097
1.2026751
1.2131038
1.2256813
1.2312519
1.2432555
1.0670956
1.0670822
1.0670665
1.0670499
1.0670319
1.0670124
1.0669913
1.0669685
1.0669441
1.0669181
1.0668905
1.0668616
1.0668315
1.0668005
1.0667692
1.066738
1.0667077
1.0666792
1.0666537
1.0666336
1.066621
1.0666174
1.0666256
1.0666488
1.066692
1.0667635
1.0668695
1.067017
1.0672193
1.0675077
1.0679061
1.0684348
1.0691424
1.0700837
1.0713392
1.0729696
1.0750213
1.0775214
1.0803998
1.0834969
1.0864781
1.088958
1.0905519
1.0911787
1.0907841
1.0896963
1.0894587
1.0898297
1.0910328
1.0942438
1.0989929
1.1054534
1.1136771
1.1233194
1.1343501
1.1462633
1.1590928
1.1719157
1.1853073
1.197429
1.210329
1.2199762
1.2319354
1.2369838
1.2487124
1.0656085
1.0655988
1.0655874
1.0655754
1.0655624
1.0655483
1.065533
1.0655167
1.0654992
1.0654806
1.065461
1.0654406
1.0654196
1.0653983
1.0653772
1.0653569
1.0653382
1.0653221
1.06531
1.0653034
1.065304
1.0653143
1.0653377
1.0653774
1.0654351
1.0655153
1.0656277
1.0657887
1.0660075
1.0662862
1.0666547
1.0671649
1.0678585
1.0687655
1.0699405
1.0714841
1.0734723
1.0759438
1.07891
1.0822902
1.0858792
1.0893235
1.0923071
1.0944598
1.0956831
1.0971146
1.0987567
1.1004894
1.1033356
1.1073291
1.1126812
1.1193744
1.1274792
1.1367753
1.147253
1.1584453
1.1704526
1.1823844
1.1948885
1.206137
1.2182479
1.2271744
1.2385652
1.2431256
1.2546146
1.0635028
1.0634974
1.0634911
1.0634845
1.0634774
1.0634698
1.0634617
1.0634532
1.0634442
1.0634351
1.0634258
1.0634166
1.0634077
1.0633996
1.0633928
1.0633881
1.0633865
1.0633891
1.0633975
1.0634134
1.0634393
1.0634779
1.0635298
1.063599
1.0636873
1.0638041
1.0639703
1.0641838
1.0644561
1.0648149
1.0652646
1.0658313
1.0665665
1.0675227
1.0687624
1.0703622
1.0724106
1.0749997
1.0782084
1.0820134
1.0862431
1.0906095
1.0946411
1.0978978
1.1011641
1.1045095
1.107445
1.1107995
1.1148469
1.1197583
1.1256777
1.1326498
1.1407582
1.1498153
1.1598474
1.1704313
1.1817283
1.1928713
1.2045838
1.215036
1.2264293
1.2346903
1.2455673
1.2496549
1.2609805
1.0610035
1.0610012
1.0609987
1.0609961
1.0609935
1.060991
1.0609885
1.0609862
1.0609843
1.060983
1.0609826
1.0609833
1.0609857
1.0609905
1.0609983
1.0610101
1.0610272
1.0610512
1.0610841
1.0611281
1.0611847
1.0612571
1.0613503
1.0614732
1.0616339
1.0618348
1.0620883
1.0624
1.062774
1.0632344
1.0638067
1.0645158
1.0653947
1.0664852
1.0678587
1.0696109
1.0718609
1.0747498
1.0783834
1.0827285
1.08765
1.0927554
1.0974738
1.1022721
1.1072349
1.1116406
1.1160248
1.120767
1.1259181
1.1316663
1.1381717
1.1454674
1.1536356
1.1625282
1.1722071
1.1822769
1.1929579
1.2034009
1.2144052
1.224132
1.2348773
1.242518
1.2529371
1.2565644
1.2677716
1.0580202
1.0580198
1.0580195
1.0580194
1.0580197
1.0580204
1.0580218
1.058024
1.0580273
1.0580321
1.0580387
1.0580478
1.0580601
1.0580764
1.0580979
1.0581259
1.0581622
1.0582089
1.0582686
1.0583441
1.0584395
1.0585603
1.0587143
1.0589072
1.0591429
1.0594299
1.0597788
1.060202
1.0607136
1.0613285
1.0620657
1.0629462
1.0640048
1.0653042
1.0669286
1.0689956
1.0716605
1.0750788
1.0792987
1.0842814
1.0898602
1.0954012
1.1012709
1.1074706
1.1133228
1.1189485
1.1247029
1.1305663
1.1367009
1.1432429
1.1503134
1.1579413
1.1662154
1.1750038
1.1844004
1.1940332
1.2041781
1.2139984
1.2243682
1.2334337
1.2435948
1.2506516
1.2606678
1.2638502
1.274969
1.0542918
1.0542932
1.0542951
1.0542975
1.0543007
1.0543048
1.0543102
1.0543171
1.054326
1.0543373
1.0543517
1.05437
1.0543932
1.0544226
1.0544595
1.0545059
1.0545641
1.0546369
1.0547275
1.0548401
1.0549805
1.0551536
1.0553661
1.0556258
1.0559409
1.0563226
1.0567822
1.057333
1.0579885
1.058763
1.0596768
1.0607677
1.0620877
1.0637082
1.0657431
1.0683424
1.0716616
1.0758031
1.0807527
1.0864979
1.0925247
1.0990114
1.1060636
1.1130255
1.1198368
1.1266579
1.1334594
1.1403324
1.1473657
1.1546349
1.1622425
1.1702029
1.1786049
1.1873279
1.1964958
1.2057524
1.2154261
1.2246888
1.2344865
1.2429493
1.2525765
1.2590992
1.2687457
1.2715069
1.2825657
1.0494074
1.049412
1.0494178
1.0494245
1.0494325
1.0494422
1.049454
1.0494683
1.0494856
1.0495068
1.0495326
1.0495641
1.0496027
1.0496498
1.0497074
1.049778
1.0498642
1.0499697
1.0500983
1.0502551
1.0504456
1.0506767
1.0509564
1.0512935
1.051699
1.0521845
1.0527608
1.0534423
1.0542485
1.0552063
1.0563497
1.057728
1.0594159
1.0615226
1.0641874
1.0675575
1.0717418
1.0767661
1.0826115
1.0889693
1.0958269
1.1035067
1.1112916
1.1190619
1.126837
1.1346242
1.1424088
1.150199
1.1580419
1.1659788
1.1740862
1.1823633
1.1909006
1.1995822
1.2085583
1.2174845
1.2267384
1.235497
1.2447755
1.2526834
1.2618265
1.267847
1.2771621
1.2795209
1.2905347
1.0429744
1.0429843
1.0429966
1.0430103
1.0430263
1.0430449
1.0430668
1.0430926
1.043123
1.0431589
1.0432015
1.0432521
1.0433123
1.0433843
1.0434702
1.043573
1.043696
1.0438432
1.0440197
1.0442306
1.0444828
1.0447844
1.0451438
1.0455703
1.0460749
1.0466719
1.04738
1.0482206
1.0492211
1.0504204
1.0518749
1.0536649
1.0558997
1.0587121
1.0622393
1.0665846
1.0717826
1.0778246
1.0845187
1.0917154
1.0998246
1.1082752
1.1167772
1.1254852
1.1342227
1.1429585
1.1516488
1.1602754
1.1688561
1.1773997
1.1859632
1.194532
1.2031975
1.211846
1.2206517
1.2292793
1.2381508
1.2464475
1.2552472
1.2626499
1.2713346
1.2769019
1.2858965
1.2878897
1.2988442
1.0346411
1.0346589
1.0346805
1.0347044
1.0347316
1.034763
1.0347991
1.0348408
1.0348892
1.0349453
1.0350106
1.0350867
1.0351757
1.0352801
1.0354025
1.0355454
1.0357135
1.0359128
1.0361481
1.0364241
1.0367478
1.0371284
1.0375772
1.0381062
1.0387297
1.0394663
1.0403402
1.0413845
1.0426455
1.0441878
1.0461001
1.0484962
1.0515104
1.0552732
1.0598844
1.0653767
1.0717398
1.0788252
1.0864689
1.0950098
1.1040855
1.1133135
1.1228143
1.1324501
1.1421166
1.1517454
1.1612795
1.1706749
1.1799241
1.1890131
1.1979835
1.206809
1.2155831
1.2241935
1.2328363
1.2411831
1.2496973
1.2575648
1.2659193
1.2728506
1.2811087
1.2862596
1.2949408
1.2965707
1.3075206
1.024042
1.0240701
1.0241041
1.0241412
1.0241832
1.024231
1.0242856
1.0243478
1.0244189
1.0244998
1.0245918
1.0246969
1.0248207
1.0249674
1.0251346
1.0253253
1.0255469
1.0258048
1.0261052
1.0264554
1.0268633
1.0273389
1.0278948
1.0285475
1.0293181
1.0302351
1.0313377
1.0326805
1.034338
1.036409
1.039016
1.0422957
1.0463796
1.0513582
1.0572725
1.0640907
1.0716933
1.0798991
1.0889832
1.0986888
1.1086478
1.1189285
1.1294201
1.1400105
1.1505966
1.1610889
1.1714156
1.1815156
1.1913653
1.2009346
1.2102549
1.2192917
1.228142
1.2366955
1.2451688
1.2532414
1.2614113
1.2688704
1.2767999
1.2832951
1.2911475
1.2959369
1.3042915
1.3057449
1.3164282
1.0110287
1.0110698
1.0111165
1.0111646
1.011218
1.0112824
1.011363
1.0114572
1.0115578
1.0116668
1.0117909
1.0119333
1.0120966
1.0122839
1.012499
1.0127461
1.01303
1.0133561
1.013732
1.0141665
1.0146711
1.0152602
1.0159526
1.0167733
1.0177566
1.0189495
1.0204161
1.0222416
1.0245348
1.027425
1.0310501
1.0355387
1.0409767
1.0473991
1.0547868
1.0629806
1.071831
1.0815666
1.0919951
1.1027396
1.1138507
1.1252337
1.1367617
1.1483249
1.1598147
1.1711315
1.182194
1.1929307
1.2033076
1.2132853
1.2228894
1.2320817
1.2409634
1.2494284
1.2577117
1.2655018
1.2733263
1.2803888
1.2879025
1.2939824
1.3014315
1.3058884
1.3138906
1.3150387
1.3254849
0.99557758
0.99563402
0.99569319
0.99575403
0.99582515
0.99590703
0.99600019
0.99610757
0.99623254
0.99637737
0.99654502
0.9967387
0.99695888
0.99720404
0.99747491
0.9977778
0.99812219
0.99851678
0.9989704
0.99949453
1.0001043
1.0008197
1.0016682
1.0026875
1.0039295
1.0054651
1.0073888
1.009821
1.0129057
1.0167999
1.0216483
1.0275656
1.0345881
1.0427023
1.0517161
1.0615252
1.0722089
1.0836075
1.0953291
1.1074137
1.1197901
1.1323313
1.1449295
1.1574708
1.1698443
1.1819446
1.1936857
1.204991
1.2158216
1.2261338
1.2359522
1.2452383
1.2540996
1.2624369
1.2705006
1.2779922
1.2854615
1.2921294
1.2992311
1.3049212
1.3119744
1.3162085
1.323868
1.3253391
1.3361374
0.97732925
0.97739715
0.97748138
0.9775728
0.97767445
0.97778824
0.9779152
0.97805639
0.97821349
0.97838909
0.978586
0.97880711
0.97905587
0.97933646
0.97965401
0.98001488
0.98042705
0.98090074
0.98144931
0.9820905
0.98284828
0.98375527
0.98485594
0.98621065
0.98789995
0.99002847
0.99272651
0.99614666
1.000453
1.0057981
1.0122972
1.0200111
1.0288722
1.0388102
1.049681
1.0614995
1.0740303
1.0868724
1.100078
1.1135846
1.1272619
1.141005
1.1546974
1.1682196
1.1814563
1.1943002
1.2066625
1.2184666
1.2296722
1.2402369
1.2501856
1.2594869
1.2682539
1.2763997
1.2841871
1.291335
1.2984094
1.304657
1.3113181
1.316608
1.3232236
1.3272602
1.3343302
1.3366689
1.3446824
0.9578897
0.95797457
0.95807828
0.95818556
0.95830391
0.95843591
0.95858278
0.95874625
0.95892842
0.95913178
0.9593593
0.95961455
0.95990193
0.96022696
0.96059666
0.96102015
0.96150946
0.96208061
0.9627552
0.96356247
0.96454207
0.96574751
0.9672501
0.96914299
0.97154419
0.9745967
0.97846343
0.98331428
0.98930398
0.99654316
1.0050881
1.0148646
1.0257706
1.0377891
1.0506677
1.0642189
1.0781294
1.0924658
1.1071444
1.1220193
1.1369745
1.1518836
1.166618
1.1810508
1.1950631
1.2085465
1.2214139
1.2335914
1.245042
1.2557294
1.2656833
1.2748835
1.2834489
1.2913131
1.2987404
1.3054852
1.3121027
1.3179008
1.3240749
1.3289617
1.3351154
1.3389093
1.3455522
1.3478914
1.3554045
0.93965286
0.93974835
0.93986487
0.93998507
0.94011723
0.94026416
0.9404272
0.94060822
0.94080963
0.94103433
0.94128593
0.94156897
0.94188927
0.94225446
0.94267461
0.94316318
0.9437383
0.94442451
0.94525498
0.94627446
0.94754276
0.9491387
0.95116392
0.9537456
0.95703629
0.96120878
0.96644351
0.9729072
0.98072475
0.98995915
1.0005715
1.012442
1.0256379
1.039492
1.0539722
1.0689895
1.0844989
1.1003726
1.1164548
1.1326263
1.1487532
1.1647
1.1803326
1.1955207
1.2101458
1.2241026
1.237308
1.2496954
1.2612331
1.2718955
1.281718
1.2906985
1.2989573
1.3064552
1.3134512
1.3197435
1.3258593
1.3311941
1.3368481
1.3413559
1.3469925
1.3506441
1.3566931
1.359526
1.36598
0.92566783
0.92576878
0.92589177
0.9260184
0.92615731
0.92631147
0.92648235
0.9266721
0.92688352
0.92712016
0.9273866
0.92768883
0.92803481
0.92843519
0.92890437
0.92946181
0.93013388
0.93095614
0.9319763
0.93325761
0.93488273
0.93695735
0.93961273
0.94300569
0.94731394
0.95272453
0.95941437
0.96752406
0.9771304
0.98822422
1.0006973
1.014556
1.029218
1.0444674
1.0605834
1.0772188
1.094202
1.1114123
1.1287211
1.145992
1.1630859
1.179861
1.1961792
1.2119103
1.226938
1.2411619
1.2545056
1.2669123
1.2783569
1.2888278
1.2983686
1.3069921
1.3148276
1.3218625
1.3283435
1.334125
1.3396851
1.3445297
1.3496302
1.3537516
1.3588552
1.3623242
1.3678436
1.3707225
1.3766775
0.91782048
0.91792185
0.91804492
0.91817164
0.91831048
0.91846452
0.91863546
0.91882579
0.9190389
0.91927925
0.91955274
0.91986734
0.92023383
0.92066684
0.92118622
0.92181887
0.92260101
0.92358099
0.92482263
0.92640887
0.9284452
0.9310623
0.93441629
0.93868498
0.94405812
0.95072048
0.95882775
0.96847906
0.97969255
0.99239326
1.0064951
1.0216345
1.0375515
1.054504
1.0719579
1.0898069
1.1079269
1.1261785
1.1444211
1.1625085
1.1802917
1.1976231
1.2143623
1.2303808
1.2455645
1.2598198
1.2730787
1.2852905
1.2964473
1.3065465
1.3156443
1.3237734
1.3310624
1.3375325
1.3434129