/*--------------------------------*- C++ -*----------------------------------*\
  =========                 |
  \\      /  F ield         | OpenFOAM: The Open Source CFD Toolbox
   \\    /   O peration     | Website:  https://openfoam.org
    \\  /    A nd           | Version:  13
     \\/     M anipulation  |
\*---------------------------------------------------------------------------*/
FoamFile
{
    format      ascii;
    class       volScalarField;
    location    "9.700126";
    object      pMean;
}
// * * * * * * * * * * * * * * * * * * * * * * * * * * * * * * * * * * * * * //

dimensions      [0 2 -2 0 0 0 0];

internalField   nonuniform List<scalar> 
17140
(
4.8746387
4.8744597
4.8742435
4.874024
4.8737869
4.8735287
4.8732494
4.8729482
4.8726248
4.8722785
4.8719092
4.8715165
4.8711
4.8706588
4.8701909
4.8696927
4.8691575
4.8685747
4.8679274
4.867191
4.8663305
4.8652976
4.8640285
4.8624406
4.8604278
4.8578745
4.8547035
4.8508407
4.8461177
4.8403191
4.8332403
4.8246536
4.8143071
4.8019307
4.7872395
4.7699435
4.7497644
4.7264638
4.6998853
4.6700165
4.6370714
4.6015885
4.5645567
4.5275252
4.4926141
4.4625099
4.4401436
4.4281737
4.4289586
4.4440737
4.4740015
4.518229
4.5750822
4.6424594
4.7167724
4.7926882
4.8640906
4.9233452
4.9624697
4.9760043
4.9652972
4.9347905
4.8937605
4.8455214
4.7974837
4.8715984
4.8714233
4.8712121
4.8709973
4.8707652
4.8705125
4.8702389
4.869944
4.8696272
4.869288
4.8689263
4.8685418
4.868134
4.8677022
4.8672445
4.8667572
4.8662342
4.8656649
4.8650327
4.8643135
4.8634723
4.8624612
4.8612167
4.8596566
4.8576752
4.855155
4.8520165
4.8481866
4.8434991
4.8377373
4.8306948
4.8221432
4.8118292
4.799481
4.7848118
4.7675292
4.7473521
4.7240389
4.69743
4.6675095
4.6344888
4.5989059
4.5617503
4.5245738
4.4895192
4.4592583
4.4367074
4.424654
4.4254223
4.4405033
4.4703901
4.5145776
4.5715009
4.6388957
4.7131532
4.7891131
4.8606809
4.9202747
4.959836
4.9738388
4.9635773
4.9334641
4.8927779
4.8448536
4.7971485
4.8643588
4.8641933
4.8639938
4.8637903
4.8635702
4.8633304
4.8630707
4.8627907
4.8624898
4.8621676
4.8618239
4.8614586
4.8610714
4.8606617
4.8602279
4.8597668
4.8592724
4.8587347
4.8581381
4.8574587
4.8566625
4.8557024
4.8545157
4.8530209
4.8511133
4.8486722
4.8456112
4.841859
4.8372559
4.8315824
4.8246275
4.8161611
4.8059268
4.7936486
4.7790355
4.7617891
4.7416219
4.7182848
4.6916103
4.661575
4.628384
4.5925737
4.5551383
4.5176406
4.4822561
4.4516749
4.4288282
4.4165363
4.4171617
4.4321743
4.4620011
4.5060996
4.5630032
4.630432
4.7047164
4.7808064
4.8527523
4.9130759
4.9535725
4.9685704
4.9592708
4.9300531
4.8902352
4.8430747
4.7960191
4.853071
4.8529203
4.8527394
4.8525536
4.8523524
4.852133
4.8518954
4.8516388
4.8513629
4.8510673
4.8507521
4.850417
4.8500623
4.8496873
4.8492909
4.8488702
4.8484201
4.8479315
4.8473894
4.8467713
4.8460442
4.8451623
4.844064
4.8426691
4.8408745
4.8385563
4.8356165
4.8319835
4.8275104
4.8219746
4.8151572
4.8068252
4.7967176
4.7845526
4.7700316
4.7528481
4.7327044
4.7093401
4.6825759
4.6523767
4.6189389
4.5827971
4.5449521
4.5069868
4.4711168
4.4400603
4.4167981
4.4041978
4.4046241
4.4195303
4.4492969
4.4933402
4.5502328
4.617659
4.6919472
4.7681779
4.8406048
4.9019081
4.9437104
4.9601382
4.9523109
4.9245522
4.8862066
4.840381
4.7944553
4.8381176
4.8379868
4.8378307
4.8376686
4.8374927
4.8373009
4.8370927
4.8368677
4.8366253
4.8363657
4.8360886
4.8357943
4.8354827
4.8351539
4.8348069
4.8344398
4.8340481
4.8336234
4.8331524
4.8326137
4.8319762
4.8311953
4.8302111
4.8289452
4.8272968
4.8251413
4.8223643
4.8188869
4.8145806
4.809227
4.8025924
4.7944406
4.7845044
4.7724945
4.7581032
4.7410129
4.7209134
4.69753
4.6706683
4.6402787
4.6065467
4.5700049
4.5316644
4.4931379
4.4566881
4.4250774
4.401338
4.3883805
4.3885979
4.4034256
4.4331754
4.4772148
4.5341557
4.6016546
4.6760016
4.7523885
4.8253444
4.8877485
4.9310567
4.9491835
4.9431891
4.9173614
4.8810082
4.8369651
4.7925475
4.8201213
4.8200148
4.8198887
4.8197558
4.8196111
4.8194529
4.8192809
4.8190946
4.8188937
4.818678
4.8184477
4.8182031
4.8179444
4.8176718
4.8173849
4.8170823
4.8167602
4.8164116
4.8160243
4.8155787
4.8150455
4.8143823
4.813531
4.8124152
4.8109367
4.8089735
4.8063942
4.8031031
4.7989908
4.7938521
4.787438
4.7795048
4.7697793
4.7579634
4.7437389
4.726776
4.7067497
4.6833692
4.6564224
4.6258433
4.5918051
4.5548381
4.5159668
4.476843
4.4397791
4.4075951
4.3833766
4.3700701
4.3701054
4.3849057
4.4147116
4.4588324
4.5159045
4.5835457
4.6579928
4.7345313
4.8080008
4.8714926
4.9163472
4.9363373
4.9324684
4.9089884
4.8750941
4.8332305
4.7906365
4.7999194
4.7998404
4.7997469
4.7996474
4.7995386
4.7994192
4.7992889
4.7991472
4.798994
4.7988291
4.7986528
4.7984653
4.7982672
4.7980588
4.7978401
4.79761
4.7973657
4.7971011
4.7968056
4.7964612
4.7960407
4.7955039
4.7947952
4.7938404
4.7925443
4.7907882
4.788432
4.7853536
4.7814492
4.7765406
4.7703738
4.7626873
4.7532034
4.7416149
4.7275924
4.7107932
4.6908772
4.6675363
4.6405397
4.6098038
4.5754884
4.5381225
4.4987465
4.4590569
4.4214137
4.3886976
4.3640347
4.3503984
4.3502669
4.3650681
4.3949871
4.4392893
4.4966189
4.5645229
4.6391572
4.7158796
4.7898347
4.854294
4.9006369
4.922485
4.9208692
4.9000038
4.8688703
4.82939
4.788802
4.7785153
4.7784661
4.7784073
4.7783442
4.7782746
4.7781976
4.7781128
4.77802
4.7779192
4.77781
4.7776928
4.777568
4.777436
4.7772974
4.7771522
4.7769998
4.7768378
4.7766613
4.7764606
4.7762195
4.7759127
4.7755025
4.774936
4.7741416
4.773027
4.7714771
4.7693536
4.7665077
4.7628161
4.7581339
4.7522227
4.744799
4.7355772
4.7242421
4.7104539
4.6938571
4.674097
4.6508485
4.6238624
4.5930373
4.5585204
4.5208391
4.4810524
4.4408975
4.4027778
4.369622
4.3445625
4.3305873
4.3302541
4.3450385
4.3750979
4.4196332
4.4772947
4.5455681
4.6205072
4.6975284
4.7719561
4.837213
4.8847795
4.9082533
4.909035
4.890904
4.8626833
4.825682
4.7872052
4.7570129
4.7569943
4.7569715
4.7569461
4.7569172
4.7568843
4.7568472
4.7568057
4.7567595
4.7567087
4.7566537
4.7565945
4.7565317
4.7564656
4.7563966
4.7563239
4.7562456
4.756157
4.7560496
4.7559084
4.75571
4.755419
4.7549851
4.7543398
4.7533937
4.7520349
4.7501288
4.7475208
4.7440534
4.739579
4.7339042
4.7267486
4.717798
4.7067336
4.6932079
4.6768545
4.6573057
4.6342209
4.6073347
4.5765292
4.5419401
4.5040938
4.4640675
4.4236272
4.3852091
4.3517549
4.3263619
4.3120399
4.3114595
4.3261724
4.356305
4.4010423
4.4590801
4.5277826
4.6030566
4.6803557
4.7550897
4.820814
4.8692538
4.8945584
4.8974478
4.8820764
4.8567631
4.8221994
4.7858429
4.7365329
4.7365443
4.7365568
4.7365687
4.73658
4.7365909
4.7366012
4.7366106
4.7366192
4.7366271
4.7366342
4.736641
4.7366476
4.7366544
4.7366611
4.7366672
4.7366705
4.7366666
4.7366474
4.7365989
4.7364988
4.7363137
4.7359958
4.7354796
4.7346788
4.733485
4.7317668
4.7293709
4.7261293
4.721866
4.7163934
4.7094738
4.7007969
4.6900195
4.6767862
4.660723
4.6414534
4.6186257
4.591962
4.5613321
4.5268624
4.4890795
4.4490739
4.4086214
4.3701711
4.3366409
4.3110609
4.2964759
4.295649
4.3102047
4.3403373
4.3852917
4.4436877
4.5127301
4.5882669
4.6657585
4.7407765
4.8068596
4.8560219
4.8820039
4.8865158
4.8737984
4.8512733
4.8190495
4.7848011
4.718106
4.7181452
4.7181905
4.718237
4.7182859
4.7183379
4.7183927
4.7184504
4.7185111
4.7185747
4.7186416
4.7187116
4.718785
4.7188617
4.7189413
4.7190226
4.7191034
4.7191788
4.7192408
4.7192758
4.7192622
4.7191682
4.7189478
4.7185381
4.7178558
4.7167958
4.7152301
4.713008
4.7099599
4.705902
4.7006351
4.693927
4.6854945
4.6750044
4.6620932
4.6463776
4.6274747
4.6050271
4.5787503
4.5485068
4.5144195
4.477015
4.4373887
4.397309
4.3592116
4.325946
4.3004734
4.2858392
4.2848414
4.2992364
4.3293006
4.3741766
4.4325465
4.5015824
4.5770992
4.6546014
4.7296219
4.7953834
4.8442479
4.8702813
4.8765991
4.8662377
4.8463097
4.8162788
4.7840906
4.7025827
4.7026458
4.7027192
4.7027957
4.7028774
4.7029653
4.7030594
4.7031599
4.703267
4.7033807
4.7035013
4.7036288
4.7037631
4.7039039
4.7040504
4.7042012
4.7043531
4.7045012
4.7046368
4.7047461
4.7048083
4.7047922
4.704653
4.70433
4.7037426
4.7027885
4.7013432
4.6992597
4.6963696
4.6924871
4.6874123
4.680916
4.6727303
4.6625358
4.6499755
4.6346711
4.6162418
4.5943292
4.5686479
4.539061
4.5056912
4.4690644
4.4302661
4.3910387
4.3537644
4.3212007
4.2962346
4.2818587
4.2808964
4.2950457
4.3245004
4.3687304
4.4264792
4.4949171
4.5698507
4.6468038
4.7211624
4.7857653
4.8338764
4.8601659
4.8678519
4.8594993
4.8419499
4.8139609
4.7837992
4.6905326
4.690614
4.6907092
4.6908091
4.6909166
4.691033
4.6911585
4.6912936
4.6914386
4.6915937
4.6917591
4.6919351
4.6921214
4.6923175
4.6925226
4.6927345
4.6929501
4.6931635
4.6933661
4.6935437
4.6936753
4.6937305
4.6936656
4.693421
4.6929182
4.6920575
4.6907167
4.6887525
4.6860015
4.6822777
4.677379
4.6710931
4.6631659
4.6532964
4.6411503
4.6263516
4.6085279
4.587331
4.5624917
4.5338767
4.5016125
4.4662166
4.4287467
4.3908951
4.354949
4.3235507
4.299492
4.2857289
4.2847881
4.2982877
4.3266684
4.3697741
4.4263371
4.4935268
4.5672847
4.6431505
4.716282
4.7792437
4.8259946
4.8516313
4.8602636
4.8536477
4.8382508
4.8121502
4.7839671
4.6821974
4.6822906
4.6823999
4.6825152
4.6826398
4.6827754
4.6829225
4.6830817
4.6832535
4.6834385
4.683637
4.6838493
4.6840754
4.6843149
4.6845668
4.684829
4.6850981
4.6853684
4.6856309
4.6858716
4.6860702
4.6861964
4.6862081
4.6860473
4.685637
4.6848791
4.6836532
4.6818183
4.6792151
4.6756678
4.6709899
4.6649046
4.6572797
4.6477962
4.636125
4.621933
4.6048838
4.5846317
4.5609144
4.5336176
4.5028726
4.4691792
4.4335487
4.3975853
4.3634326
4.3335887
4.310808
4.297659
4.2965212
4.309062
4.3360904
4.3775461
4.4323143
4.4976241
4.5696222
4.6438144
4.7148745
4.775237
4.8196508
4.8445608
4.8538936
4.8487339
4.8352783
4.8109203
4.7846809
4.677449
4.6775466
4.6776618
4.6777834
4.6779156
4.6780602
4.6782178
4.6783891
4.6785751
4.6787766
4.6789942
4.6792284
4.6794795
4.6797475
4.6800317
4.6803303
4.6806404
4.6809567
4.6812708
4.68157
4.6818347
4.6820369
4.6821364
4.6820781
4.6817879
4.6811707
4.680109
4.6784633
4.6760747
4.6727636
4.6683465
4.6626961
4.6554351
4.6462953
4.6352384
4.6218247
4.6057077
4.5866041
4.5642916
4.538664
4.5098434
4.4782997
4.4449712
4.4113165
4.3793032
4.3513501
4.3298098
4.3171212
4.3155982
4.3269366
4.3522011
4.3915982
4.4440321
4.5069144
4.5766024
4.6483948
4.7165041
4.7734694
4.8152193
4.8390287
4.8487541
4.8447981
4.8330907
4.810332
4.7859862
4.6758693
4.6759646
4.6760781
4.6761974
4.6763277
4.6764708
4.6766275
4.6767989
4.6769859
4.6771897
4.6774113
4.6776515
4.6779113
4.6781907
4.6784899
4.678808
4.6791428
4.6794902
4.6798436
4.6801921
4.6805189
4.6807992
4.6809972
4.681063
4.6809274
4.6805
4.6796674
4.6782903
4.6762093
4.6732491
4.6692285
4.6639652
4.6571627
4.6488236
4.6384773
4.6258739
4.610901
4.5932454
4.5726639
4.5490538
4.5225337
4.4935248
4.4628454
4.4317857
4.4021972
4.3760688
4.3556279
4.3432493
4.3410396
4.3509358
4.3742085
4.4111831
4.4608771
4.5209571
4.5878195
4.6564455
4.7206255
4.7736324
4.8122845
4.8349068
4.8448546
4.8418808
4.8317459
4.8104557
4.7879573
4.6767602
4.6768476
4.6769524
4.677062
4.6771822
4.6773149
4.6774609
4.6776213
4.6777974
4.6779906
4.678202
4.678433
4.6786847
4.6789584
4.6792543
4.6795729
4.6799131
4.6802727
4.6806471
4.6810284
4.681404
4.681754
4.6820486
4.6822454
4.682285
4.6820865
4.6815429
4.6805227
4.6788702
4.6764079
4.6729492
4.6682891
4.6622955
4.6547134
4.6452729
4.6339926
4.6204462
4.6044389
4.5858345
4.5645362
4.5406212
4.5144193
4.4866073
4.4583569
4.4310992
4.4066549
4.3871827
4.374756
4.3716705
4.379944
4.4010326
4.4353428
4.4820561
4.5390738
4.6026153
4.6671915
4.7267076
4.775318
4.810975
4.8322045
4.8422119
4.8400199
4.8312946
4.8113459
4.7906387
4.6793804
4.6794555
4.6795464
4.6796411
4.6797451
4.6798604
4.6799881
4.6801291
4.6802848
4.6804567
4.6806462
4.6808548
4.6810843
4.6813361
4.6816116
4.681912
4.6822378
4.6825886
4.6829623
4.6833546
4.6837577
4.684158
4.6845344
4.6848549
4.685073
4.6851225
4.6849146
4.6843323
4.6832298
4.6814349
4.6787585
4.674994
4.6699659
4.6634746
4.6553915
4.6454333
4.6335429
4.6195874
4.6032696
4.5845496
4.5634633
4.5402361
4.515443
4.4898942
4.4648198
4.4419275
4.4230321
4.4103416
4.4061958
4.4127513
4.4315212
4.4630424
4.5067724
4.5606062
4.6201663
4.6797591
4.7342901
4.7782224
4.8110007
4.8308757
4.8408194
4.8392426
4.8317843
4.8130562
4.794093
4.6829524
4.6830131
4.6830871
4.6831638
4.6832485
4.6833428
4.6834477
4.6835643
4.6836938
4.6838376
4.6839973
4.6841747
4.6843715
4.6845896
4.6848309
4.6850975
4.6853909
4.6857123
4.6860623
4.6864398
4.6868414
4.6872603
4.6876843
4.6880932
4.6884556
4.6887255
4.6888362
4.6886959
4.688185
4.6871527
4.6854218
4.6827935
4.6790702
4.6740417
4.667559
4.6594798
4.6496957
4.6379559
4.6241899
4.6082876
4.5901806
4.5700444
4.5481672
4.5251638
4.5021127
4.480355
4.4617654
4.4485413
4.4431702
4.4479238
4.4643533
4.4932114
4.534075
4.5844978
4.639421
4.6937869
4.7426214
4.7824536
4.8123457
4.8308978
4.8406747
4.8395685
4.8332541
4.8156323
4.7983613
4.6868723
4.6869185
4.6869748
4.6870333
4.6870982
4.6871708
4.687252
4.6873426
4.6874439
4.6875572
4.6876839
4.6878258
4.6879846
4.6881625
4.6883613
4.6885837
4.688832
4.6891085
4.6894154
4.6897543
4.6901256
4.690528
4.6909571
4.6914037
4.6918517
4.6922749
4.6926333
4.6928676
4.6928953
4.6926052
4.6918569
4.6904808
4.6882896
4.6850821
4.6806786
4.6748822
4.6675019
4.6584437
4.6475606
4.6346641
4.6196916
4.6025897
4.5834898
4.5628421
4.5413743
4.5204061
4.5017815
4.4878515
4.4811739
4.4841429
4.4985005
4.5251124
4.5634
4.6099271
4.6598234
4.7083899
4.7519411
4.7876902
4.8150036
4.8322398
4.8417686
4.8410103
4.8357321
4.8191173
4.8034962
4.6906936
4.6907264
4.6907657
4.6908078
4.6908546
4.6909072
4.6909663
4.6910326
4.6911072
4.6911911
4.6912857
4.6913924
4.6915129
4.6916491
4.6918032
4.6919776
4.6921749
4.6923979
4.6926499
4.6929337
4.6932524
4.6936084
4.6940025
4.6944343
4.694901
4.6953942
4.6958971
4.6963826
4.6968085
4.6971142
4.6972148
4.6969951
4.6963113
4.6949898
4.6928397
4.6896511
4.685206
4.6792833
4.6716568
4.6621119
4.6503882
4.6362938
4.6198239
4.6011221
4.5808659
4.5603361
4.5414649
4.5267409
4.5189002
4.5205468
4.5335458
4.5585096
4.5940568
4.6361715
4.680767
4.7231211
4.762038
4.7939978
4.8189247
4.8348653
4.8440899
4.8435768
4.8392393
4.8235417
4.8095328
4.6941944
4.6942162
4.6942421
4.6942702
4.6943016
4.694337
4.694377
4.6944222
4.6944734
4.6945319
4.6945988
4.6946749
4.6947611
4.694859
4.69497
4.6950962
4.6952407
4.6954066
4.6955975
4.695817
4.6960692
4.6963588
4.6966907
4.6970704
4.6975025
4.6979912
4.6985385
4.699143
4.6997993
4.7004953
4.7012041
4.7018793
4.7024501
4.7028115
4.7028124
4.7022474
4.700856
4.698325
4.6942856
4.6883162
4.6799842
4.668922
4.6548283
4.6377959
4.618492
4.598214
4.5790937
4.5637471
4.5552873
4.5564928
4.568954
4.5925637
4.6248544
4.6621717
4.7009871
4.7381921
4.7726597
4.8013001
4.8240412
4.8387284
4.8476166
4.8472682
4.8437945
4.8289347
4.8165081
4.6973356
4.6973479
4.6973626
4.6973786
4.6973967
4.6974172
4.6974406
4.6974684
4.6975016
4.6975377
4.6975744
4.6976136
4.69766
4.6977182
4.6977926
4.6978834
4.6979884
4.6981078
4.6982431
4.6983974
4.6985772
4.6987901
4.6990437
4.6993476
4.6997117
4.7001473
4.7006684
4.7012938
4.7020424
4.7029352
4.7039968
4.7052438
4.7066779
4.7082785
4.7099757
4.7116198
4.7129581
4.7135969
4.7130209
4.7106052
4.7056502
4.6974825
4.6856854
4.6703038
4.6519334
4.6320222
4.6129116
4.597728
4.5899038
4.5917664
4.6040892
4.6259084
4.6542021
4.6870296
4.7205144
4.7533741
4.7839148
4.8095704
4.8302969
4.8437863
4.8523248
4.8520808
4.8494098
4.8353174
4.8244397
4.7001675
4.7001708
4.7001749
4.7001794
4.7001848
4.7001916
4.7002005
4.7002118
4.7002256
4.7002416
4.7002594
4.7002797
4.7003031
4.7003309
4.7003637
4.7004013
4.7004477
4.7005122
4.7005975
4.7006982
4.700815
4.7009583
4.7011427
4.7013807
4.7016793
4.7020488
4.7025141
4.7031062
4.7038601
4.7048189
4.7060318
4.7075584
4.7094629
4.7118005
4.7145814
4.7177238
4.7210167
4.724078
4.7263065
4.7268741
4.7248699
4.7194324
4.7099236
4.6962778
4.6790347
4.6600525
4.6423267
4.629079
4.623231
4.6261504
4.6380571
4.6571412
4.6823244
4.7102374
4.7396797
4.7685788
4.7957099
4.8187201
4.8376236
4.8499906
4.8581871
4.8580059
4.8560915
4.8427051
4.8333508
4.7027085
4.7027022
4.7026948
4.7026869
4.7026785
4.7026695
4.7026605
4.7026518
4.7026437
4.7026365
4.7026302
4.702625
4.7026221
4.7026226
4.702626
4.7026315
4.702641
4.7026619
4.7027021
4.702759
4.70283
4.702925
4.7030559
4.703232
4.7034651
4.7037719
4.7041778
4.7047218
4.7054516
4.7064177
4.7076813
4.709315
4.7114136
4.7140721
4.717342
4.7212142
4.7255406
4.7299791
4.7339568
4.7366451
4.7370113
4.7339377
4.7266202
4.7149058
4.6998382
4.6835825
4.668931
4.6585494
4.6548545
4.6585875
4.6696409
4.6864398
4.7082273
4.7324835
4.7582997
4.7838454
4.8080435
4.8287065
4.8459694
4.8572987
4.8651744
4.8650319
4.8638397
4.8511084
4.8432711
4.704773
4.7047573
4.7047388
4.7047194
4.704698
4.7046742
4.7046487
4.7046221
4.7045954
4.7045688
4.7045426
4.7045165
4.7044904
4.7044642
4.7044385
4.7044142
4.7043933
4.7043793
4.7043764
4.7043889
4.70442
4.7044757
4.7045662
4.7047057
4.7049102
4.7051964
4.7055842
4.7061053
4.7068068
4.7077415
4.7089698
4.7105694
4.7126389
4.7152927
4.7186265
4.7226674
4.7273246
4.7323424
4.7372471
4.7412308
4.7431953
4.7420094
4.7369658
4.7281977
4.7165331
4.703848
4.6926893
4.6856543
4.6837462
4.6881836
4.6983301
4.7136601
4.7322391
4.7536296
4.7765041
4.7991976
4.8208659
4.8394695
4.8552774
4.8656655
4.8732558
4.8731454
4.8726499
4.8605416
4.8542225
4.7058365
4.705815
4.7057898
4.7057632
4.7057346
4.7057035
4.70567
4.7056341
4.7055956
4.7055548
4.705512
4.7054677
4.7054224
4.7053772
4.705333
4.7052913
4.7052541
4.705224
4.7052055
4.7052037
4.7052246
4.7052729
4.7053535
4.7054749
4.7056517
4.7059017
4.7062475
4.7067221
4.7073636
4.7082232
4.7093803
4.7109094
4.7128789
4.7153919
4.7185434
4.7223918
4.7269458
4.7320577
4.7373075
4.7419847
4.7452099
4.7460335
4.7436624
4.7380573
4.7299266
4.7212839
4.7142057
4.7098352
4.7097254
4.7149917
4.7246994
4.7381812
4.7549187
4.7739744
4.7943701
4.814651
4.8341608
4.850971
4.8655021
4.875051
4.8823996
4.882327
4.8825111
4.8709962
4.8662145
4.7054609
4.7054403
4.7054164
4.7053911
4.7053638
4.7053343
4.7053026
4.7052686
4.7052324
4.7051942
4.7051542
4.7051128
4.7050706
4.7050281
4.7049866
4.7049474
4.7049121
4.7048832
4.7048636
4.704857
4.7048684
4.7049036
4.7049696
4.7050765
4.7052399
4.7054757
4.7058003
4.7062429
4.7068385
4.7076302
4.7086845
4.7100646
4.7118249
4.7140884
4.7170013
4.7206347
4.7250329
4.730123
4.7356217
4.7410011
4.7454696
4.7480846
4.7482743
4.7457784
4.7414382
4.736823
4.7330918
4.7313336
4.7334262
4.739381
4.7486401
4.7611573
4.7763911
4.7935683
4.8119574
4.8302233
4.8479059
4.8631712
4.8766008
4.885417
4.8925713
4.892561
4.8934201
4.8825128
4.8792633
4.7036528
4.7036391
4.7036231
4.7036062
4.703588
4.7035684
4.7035473
4.7035249
4.7035011
4.7034762
4.7034504
4.7034239
4.7033974
4.7033715
4.7033471
4.7033255
4.7033083
4.7032973
4.7032955
4.7033062
4.7033331
4.7033818
4.70346
4.703577
4.7037465
4.7039838
4.7043047
4.7047313
4.7052906
4.7060214
4.7069821
4.7082626
4.7099629
4.7121558
4.7149404
4.7184612
4.7228263
4.728027
4.7338521
4.7398639
4.7454315
4.7497262
4.7521621
4.7525991
4.7517217
4.7506333
4.7500025
4.7511066
4.7550159
4.7614876
4.7707969
4.7826965
4.7968543
4.8125864
4.8293469
4.845941
4.8620939
4.876044
4.8885363
4.8967258
4.9037456
4.9038287
4.9053641
4.8950749
4.8933275
4.7008401
4.7008349
4.7008288
4.7008225
4.7008158
4.7008089
4.7008015
4.7007941
4.7007866
4.7007794
4.7007725
4.7007666
4.7007621
4.7007597
4.7007603
4.7007652
4.7007758
4.7007947
4.7008243
4.700868
4.7009299
4.7010161
4.701134
4.7012929
4.701502
4.7017724
4.7021287
4.7025959
4.7032052
4.7040117
4.7050583
4.706388
4.7080948
4.7103135
4.7131828
4.7168323
4.7213474
4.7267704
4.7329809
4.7396312
4.7461406
4.7518849
4.756287
4.7593178
4.7615215
4.7634659
4.7657343
4.7692038
4.7745937
4.7820014
4.7915561
4.8031336
4.8165254
4.8311394
4.8466044
4.8618318
4.8767199
4.8895633
4.9012772
4.9089517
4.9158975
4.9161113
4.9183243
4.9086697
4.9084308
4.6974475
4.6974489
4.6974507
4.6974528
4.6974554
4.6974586
4.6974626
4.6974676
4.697474
4.6974819
4.6974919
4.6975046
4.6975205
4.6975409
4.6975666
4.6975994
4.6976413
4.6976946
4.6977617
4.6978469
4.6979568
4.6980989
4.6982794
4.6985086
4.6987967
4.699161
4.699636
4.700245
4.7009988
4.7019386
4.70313
4.7046408
4.7065656
4.7090171
4.7121157
4.7160097
4.7208343
4.7266444
4.733325
4.7406063
4.748005
4.7549991
4.7611396
4.7664815
4.7713272
4.7757505
4.780411
4.7860781
4.7929595
4.8012735
4.8112157
4.8226872
4.8355719
4.8493548
4.8638065
4.8779297
4.8917884
4.9037139
4.9148036
4.9220507
4.9289896
4.9293699
4.9322999
4.9232383
4.9246689
4.6935974
4.6936027
4.6936094
4.6936167
4.6936251
4.6936349
4.6936464
4.69366
4.6936761
4.693695
4.6937177
4.6937449
4.6937775
4.6938169
4.6938646
4.6939228
4.6939939
4.6940812
4.6941889
4.6943221
4.6944876
4.6946929
4.6949477
4.6952669
4.695667
4.6961638
4.6967771
4.697537
4.6984793
4.6996424
4.7010841
4.7028815
4.7051261
4.7079212
4.7114132
4.715774
4.7211202
4.7274939
4.734804
4.7427955
4.7510899
4.7592634
4.7669666
4.7742846
4.7810866
4.7878164
4.7947317
4.8021526
4.8103857
4.819638
4.8300663
4.8415919
4.8541708
4.8673494
4.8810248
4.8942708
4.9073057
4.9184824
4.9290837
4.9359926
4.9430097
4.9435705
4.9472782
4.9387712
4.9419199
4.6890509
4.6890592
4.6890695
4.6890809
4.689094
4.6891092
4.689127
4.6891479
4.6891722
4.689201
4.6892349
4.6892753
4.6893234
4.6893809
4.6894499
4.6895332
4.6896339
4.689756
4.6899046
4.6900862
4.6903084
4.6905812
4.6909176
4.6913316
4.6918399
4.6924646
4.6932328
4.6941749
4.6953318
4.6967544
4.6985108
4.7006717
4.7033258
4.706629
4.7107409
4.7157888
4.7218808
4.7290413
4.7371488
4.7459916
4.755213
4.7645049
4.77368
4.782619
4.7913837
4.800043
4.808742
4.81773
4.8272339
4.8373945
4.8483569
4.8600478
4.8724763
4.8852363
4.8983326
4.910894
4.9232839
4.9338625
4.9441014
4.9507593
4.9579394
4.9586812
4.9632467
4.9552636
4.9601556
4.683389
4.6834015
4.6834168
4.6834336
4.6834529
4.6834752
4.6835011
4.6835311
4.6835661
4.6836069
4.683655
4.6837115
4.6837781
4.6838572
4.6839512
4.6840633
4.6841976
4.6843587
4.6845528
4.6847873
4.6850713
4.6854162
4.6858359
4.6863474
4.6869709
4.6877321
4.6886638
4.6898093
4.6912172
4.6929401
4.6950475
4.6976564
4.7009062
4.7049261
4.7098626
4.7158429
4.722929
4.7310916
4.7401652
4.7499814
4.7602051
4.7706686
4.7812658
4.7917818
4.8022313
4.8124628
4.8227235
4.8331062
4.8437638
4.8547918
4.8663104
4.8782417
4.8906364
4.9031227
4.9158003
4.9278387
4.9397361
4.9498494
4.9598359
4.9663284
4.973735
4.974719
4.9801524
4.9727204
4.9793637
4.676241
4.6762599
4.6762828
4.6763079
4.6763364
4.6763691
4.6764067
4.6764499
4.6764997
4.6765573
4.6766243
4.6767022
4.6767931
4.6768996
4.6770248
4.6771725
4.677347
4.6775541
4.6778008
4.6780954
4.6784481
4.6788719
4.6793834
4.6800019
4.680756
4.6816774
4.6827987
4.6841668
4.6858492
4.6879364
4.6905349
4.6937689
4.6977812
4.702725
4.7087319
4.7158807
4.7241716
4.7335103
4.7437347
4.7546247
4.7660058
4.7778153
4.7897759
4.8016913
4.8135099
4.8252155
4.8368625
4.8484949
4.8602103
4.8720539
4.884126
4.8963419
4.9087856
4.9211091
4.9334953
4.9451437
4.9566773
4.9664412
4.9762718
4.9826715
4.9903779
4.9916146
4.9979735
4.9910927
4.99948
4.6672886
4.6673162
4.6673497
4.667386
4.6674269
4.6674736
4.6675266
4.6675871
4.6676563
4.6677357
4.6678268
4.6679319
4.6680533
4.668194
4.6683576
4.6685482
4.6687711
4.6690329
4.6693417
4.6697053
4.6701366
4.670655
4.6712771
4.6720232
4.6729213
4.6740137
4.6753599
4.6770266
4.6790995
4.6816884
4.6849285
4.6889753
4.6939884
4.7001089
4.7074276
4.7159589
4.7256332
4.7363115
4.7478134
4.7599319
4.7727181
4.7858326
4.7990506
4.8122548
4.825416
4.8384473
4.8513435
4.8641037
4.8767794
4.8893777
4.9019837
4.914504
4.9270501
4.9392915
4.9514833
4.9628477
4.9741221
4.9836333
4.99339
4.9997859
5.007806
5.0093772
5.0166352
5.0103664
5.0204331
4.6563821
4.6564207
4.6564674
4.6565176
4.656574
4.6566377
4.6567098
4.6567915
4.6568842
4.6569896
4.6571099
4.6572473
4.6574049
4.6575861
4.6577938
4.6580289
4.658302
4.658629
4.6590126
4.6594561
4.6599744
4.6605899
4.6613299
4.662224
4.6633105
4.6646434
4.6662931
4.6683526
4.6709403
4.6742013
4.6783016
4.683414
4.6896936
4.6972476
4.7061023
4.7161949
4.7274094
4.7395566
4.7524533
4.766075
4.7802496
4.7946015
4.8090872
4.8236032
4.8380341
4.8522899
4.8663261
4.8801062
4.8936507
4.906938
4.9200431
4.9328664
4.9455429
4.957756
4.9698229
4.9809833
4.9920797
5.001429
5.0111823
5.0176342
5.026021
5.0279774
5.0361185
5.0304374
5.0422509
4.6433862
4.6434378
4.6434997
4.6435662
4.6436409
4.6437253
4.6438204
4.643927
4.6440461
4.6441772
4.644321
4.6444883
4.6446921
4.6449251
4.6451797
4.6454669
4.6458004
4.6461894
4.6466449
4.6471801
4.6478099
4.6485559
4.6494502
4.6505349
4.6518659
4.6535176
4.6555881
4.6582027
4.6615154
4.6657039
4.6709557
4.6774411
4.6852858
4.6945304
4.7051163
4.7169323
4.7297864
4.7434876
4.7579939
4.773142
4.7886033
4.8042879
4.8201039
4.8358873
4.8515257
4.8669153
4.8819868
4.8966815
4.9109992
4.9249004
4.9384539
4.9515566
4.9643656
4.9765785
4.9885647
4.9995856
5.0105657
5.0198155
5.029619
5.0362009
5.0449902
5.0474212
5.0563658
5.0516337
5.0645194
4.6286786
4.6287456
4.628824
4.6289052
4.628995
4.6291019
4.6292276
4.6293605
4.6294989
4.6296539
4.6298327
4.6300381
4.6302735
4.6305433
4.6308533
4.6312099
4.6316196
4.6320897
4.6326323
4.6332677
4.634021
4.6349242
4.6360207
4.6373687
4.6390464
4.6411566
4.6438308
4.6472307
4.6515428
4.6569648
4.6636819
4.6718299
4.6814721
4.6925622
4.704999
4.7186068
4.7331382
4.748571
4.7647239
4.7812756
4.7981402
4.8152087
4.832313
4.8493155
4.866089
4.8825173
4.8985181
4.9140186
4.9290085
4.9434385
4.9573751
4.9707186
4.9836402
4.9958577
5.0077833
5.0186989
5.0296018
5.038809
5.0486925
5.055456
5.0646441
5.0676191
5.0773478
5.0733378
5.0875366
4.6125733
4.6126586
4.612749
4.6128396
4.6129437
4.6130637
4.6132005
4.6133565
4.6135343
4.6137363
4.6139642
4.6142193
4.6145027
4.6148189
4.6151764
4.6155846
4.6160535
4.6165965
4.617231
4.6179809
4.6188782
4.6199664
4.6213044
4.6229714
4.6250723
4.6277425
4.6311499
4.6354923
4.6409848
4.6478371
4.6562212
4.6662217
4.6778379
4.6909961
4.705463
4.7210001
4.7375349
4.7548259
4.7725631
4.7906494
4.8089921
4.8274192
4.8457899
4.8639585
4.8817905
4.8991642
4.9159907
4.9321927
4.9477548
4.9626251
4.9768728
4.9904013
5.0034
5.0156089
5.0274735
5.0383066
5.0491513
5.0583521
5.0683433
5.0753573
5.0849447
5.0887006
5.0990682
5.0969191
5.1125281
4.5955425
4.5956356
4.5957458
4.5958644
4.5959953
4.596141
4.5963029
4.5964831
4.5966837
4.5969076
4.5971579
4.5974388
4.5977552
4.5981134
4.5985213
4.5989896
4.5995319
4.6001668
4.6009189
4.6018223
4.6029226
4.6042814
4.6059815
4.6081317
4.6108715
4.6143737
4.6188424
4.6245019
4.6315764
4.6402587
4.6506674
4.6628162
4.6766594
4.6919668
4.708502
4.7261176
4.7445709
4.7635134
4.7828556
4.802504
4.8222819
4.8420453
4.8616384
4.8809107
4.8997202
4.9179448
4.9354943
4.9522924
4.9683229
4.9835406
4.9980081
5.0116522
5.0246693
5.036833
5.0486144
5.0593624
5.0701565
5.0793784
5.0894937
5.0968081
5.1067939
5.1114722
5.1222677
5.1233768
5.1361456
4.5802339
4.5803372
4.5804634
4.5805936
4.5807369
4.5808962
4.5810729
4.5812694
4.581488
4.581732
4.5820055
4.5823133
4.5826619
4.5830595
4.583517
4.5840492
4.5846756
4.5854229
4.5863272
4.5874371
4.5888182
4.5905572
4.5927675
4.5955937
4.5992134
4.6038355
4.6096908
4.6170114
4.6260017
4.6368013
4.6494453
4.6639048
4.6799797
4.6973945
4.7159389
4.7353544
4.7553466
4.7758453
4.7967257
4.8177978
4.8389041
4.8598756
4.8805516
4.9007707
4.920391
4.9392915
4.9573865
4.9746056
4.9909361
5.0063412
5.0208885
5.0345268
5.0474589
5.0595091
5.0711401
5.0817889
5.0924844
5.1017628
5.1119494
5.1196587
5.1299727
5.1356112
5.1469656
5.1500087
5.1628979
4.5688486
4.5689582
4.5690916
4.569229
4.5693799
4.5695475
4.5697333
4.5699397
4.5701697
4.570427
4.5707166
4.5710447
4.5714196
4.5718525
4.5723582
4.5729569
4.573676
4.5745522
4.5756355
4.5769923
4.5787106
4.5809045
4.5837189
4.5873318
4.5919534
4.597818
4.6051663
4.6142197
4.6251442
4.6380129
4.6527998
4.6693833
4.6875056
4.7067913
4.7270092
4.7479494
4.7695182
4.7915195
4.8137565
4.836073
4.8582964
4.8802524
4.9017727
4.9226976
4.9428877
4.9622301
4.9806463
4.9980761
5.01451
5.0299253
5.0443926
5.0578947
5.0706322
5.0824906
5.0939052
5.1044233
5.114978
5.1243256
5.1345361
5.1427022
5.1532276
5.160004
5.1716273
5.1771018
5.1898119
4.5645745
4.5646848
4.5648189
4.564957
4.5651086
4.5652768
4.5654634
4.565671
4.5659032
4.5661645
4.566461
4.5668006
4.5671941
4.5676562
4.5682066
4.5688723
4.5696896
4.5707072
4.5719904
4.5736249
4.5757217
4.5784215
4.5818974
4.5863551
4.5920262
4.5991553
4.607975
4.6186759
4.63137
4.646063
4.6626586
4.6809746
4.7005834
4.7212646
4.7429352
4.7653284
4.7881869
4.8113465
4.8346397
4.8578913
4.8809235
4.9035565
4.9256191
4.9469556
4.9674335
4.9869496
5.0054348
5.0228391
5.0391571
5.0543828
5.0685932
5.0818086
5.0942273
5.1057987
5.1169155
5.1272487
5.1376074
5.1469995
5.157192
5.1657982
5.1765146
5.184343
5.1963052
5.2035919
5.2168193
4.5687477
4.5688541
4.5689824
4.5691155
4.5692616
4.5694236
4.5696039
4.5698054
4.5700324
4.5702901
4.5705862
4.5709307
4.5713373
4.571825
4.5724189
4.5731537
4.5740755
4.575246
4.576746
4.5786802
4.5811815
4.5844136
4.5885726
4.5938822
4.6005837
4.6089162
4.6190901
4.6312527
4.6454573
4.6616434
4.6796687
4.699222
4.7200235
4.7419934
4.7647529
4.7880769
4.8117965
4.8357305
4.8596981
4.8835148
4.9069935
4.92995
4.952214
4.9736366
4.9940941
5.0134942
5.0317772
5.0489027
5.0648726
5.0796993
5.0934699
5.1062435
5.1182142
5.1293921
5.1401251
5.150203
5.1603117
5.1697067
5.1798515
5.1888686
5.1997687
5.2086147
5.2209426
5.230106
5.2439409
4.5832318
4.58333
4.5834467
4.5835697
4.5837047
4.5838549
4.5840227
4.5842116
4.5844262
4.5846736
4.5849623
4.5853049
4.5857184
4.5862259
4.5868585
4.5876586
4.5886823
4.5900032
4.591717
4.5939453
4.596839
4.6005799
4.6053787
4.6114678
4.619086
4.6284567
4.6397568
4.6530872
4.6684472
4.6857273
4.704727
4.7251669
4.7468381
4.7694331
4.7927384
4.8165563
4.8406962
4.8649712
4.8891893
4.9131559