/*--------------------------------*- C++ -*----------------------------------*\
  =========                 |
  \\      /  F ield         | OpenFOAM: The Open Source CFD Toolbox
   \\    /   O peration     | Website:  https://openfoam.org
    \\  /    A nd           | Version:  13
     \\/     M anipulation  |
\*---------------------------------------------------------------------------*/
FoamFile
{
    format      ascii;
    class       volScalarField;
    location    "35.201228";
    object      nut;
}
// * * * * * * * * * * * * * * * * * * * * * * * * * * * * * * * * * * * * * //

dimensions      [0 2 -1 0 0 0 0];

internalField   nonuniform List<scalar> 
17140
(
1.2789721e-18
2.4874312e-16
6.6253467e-15
6.716644e-14
4.0618953e-13
1.7995471e-12
6.4977249e-12
2.0331559e-11
5.7276703e-11
1.4898679e-10
3.6414748e-10
8.4690078e-10
1.8917669e-09
4.0875791e-09
8.5905893e-09
1.7637238e-08
3.5498232e-08
7.0239798e-08
1.3695246e-07
2.6363313e-07
5.0183976e-07
9.458859e-07
1.7672365e-06
3.2758014e-06
6.0284839e-06
1.1019942e-05
2.0014314e-05
3.6112845e-05
6.4699515e-05
0.00011494405
0.00020198618
0.00034957368
0.00059202813
0.00097295784
0.0015377097
0.002319449
0.003324641
0.0045265103
0.0058693684
0.0072802223
0.0086820518
0.010005696
0.011198492
0.012215266
0.013039243
0.013738592
0.014317085
0.014790298
0.015194189
0.015558789
0.015905565
0.016247609
0.016595355
0.016969804
0.017399056
0.017891641
0.018460932
0.019145181
0.0199429
0.020300827
0.019348132
0.015592772
0.0093913115
0.0084040638
0.013155492
1.2635024e-18
2.4573427e-16
6.5452129e-15
6.6354313e-14
4.0128096e-13
1.7778174e-12
6.4193412e-12
2.0086584e-11
5.6587521e-11
1.4719689e-10
3.5978032e-10
8.3676379e-10
1.8691723e-09
4.0388754e-09
8.4885046e-09
1.7428273e-08
3.5079061e-08
6.9413551e-08
1.3534849e-07
2.6056115e-07
4.9602668e-07
9.3500549e-07
1.7470754e-06
3.2387936e-06
5.9611601e-06
1.0898538e-05
1.9797311e-05
3.5728657e-05
6.4024531e-05
0.00011376594
0.00019994838
0.00034612105
0.00058638593
0.00096418431
0.0015248174
0.0023016564
0.0033017523
0.0044990908
0.005838746
0.0072483493
0.0086514943
0.0099792889
0.011178952
0.012205666
0.013042491
0.013753813
0.0143485
0.014840799
0.015267853
0.015661379
0.016044554
0.016432574
0.016836429
0.017273795
0.017764094
0.018300575
0.018860047
0.019414619
0.019724495
0.019299152
0.017149244
0.012194157
0.0059499798
0.0045883712
0.0082907388
1.2393722e-18
2.4104124e-16
6.4202125e-15
6.5087159e-14
3.9361896e-13
1.7438809e-12
6.2968489e-12
1.9703479e-11
5.550886e-11
1.4439291e-10
3.52932e-10
8.2084975e-10
1.8336569e-09
3.9622146e-09
8.3275727e-09
1.7098276e-08
3.4415795e-08
6.8103179e-08
1.3279798e-07
2.5566109e-07
4.8672018e-07
9.1750983e-07
1.7144857e-06
3.1785943e-06
5.8508185e-06
1.0697768e-05
1.9434201e-05
3.5075069e-05
6.28574e-05
0.00011170585
0.00019637368
0.00034006921
0.00057645538
0.00094856876
0.0015015924
0.0022692742
0.0032594661
0.0044473244
0.005779164
0.0071836366
0.0085847716
0.0099136692
0.011117276
0.012150977
0.01299721
0.013717021
0.01432278
0.014827994
0.015270566
0.015683346
0.016091107
0.016510501
0.01695327
0.017434521
0.017964532
0.018518264
0.019038106
0.019429137
0.0193019
0.018231822
0.015209231
0.0095945243
0.0050014276
0.0029693332
0.00573907
1.2063108e-18
2.3461122e-16
6.2489468e-15
6.3350961e-14
3.8312033e-13
1.6973764e-12
6.1289716e-12
1.9178342e-11
5.4030006e-11
1.4054773e-10
3.4353807e-10
7.9901321e-10
1.7849061e-09
3.8569393e-09
8.10646e-09
1.6644609e-08
3.3503336e-08
6.6299008e-08
1.2928287e-07
2.4889976e-07
4.7385991e-07
8.9328999e-07
1.6692713e-06
3.094848e-06
5.6967802e-06
1.0416136e-05
1.8922785e-05
3.4153814e-05
6.1212155e-05
0.00010880019
0.00019131874
0.00033145207
0.00056221234
0.00092602809
0.0014678517
0.0022218445
0.0031971461
0.0043705743
0.0056900094
0.0070851076
0.0084803814
0.0098068959
0.01101115
0.012048329
0.012899678
0.013623867
0.014234857
0.014745914
0.015195419
0.015617154
0.016037254
0.016473306
0.016937705
0.017443785
0.017992619
0.018540859
0.017804113
0.016933863
0.017043386
0.017363218
0.013725669
0.0086919485
0.0052540548
0.002593558
0.0046573524
1.1645966e-18
2.2649835e-16
6.0328588e-15
6.1160363e-14
3.6987361e-13
1.6386961e-12
5.9171259e-12
1.8515607e-11
5.216345e-11
1.3569385e-10
3.3167805e-10
7.7143947e-10
1.7233349e-09
3.7239501e-09
7.8270707e-09
1.6071214e-08
3.2349695e-08
6.4017112e-08
1.2483506e-07
2.4033998e-07
4.5756888e-07
8.6258608e-07
1.6119001e-06
2.9884665e-06
5.5009177e-06
1.0058066e-05
1.8272583e-05
3.2981367e-05
5.9114801e-05
0.00010508465
0.00018482446
0.00032033141
0.00054374642
0.00089666335
0.0014236667
0.0021595328
0.003114954
0.0042687914
0.0055707516
0.0069517799
0.0083369318
0.0096571312
0.010858238
0.011894862
0.01274652
0.013470297
0.014079777
0.014588583
0.015035315
0.015454395
0.015872893
0.01630971
0.016778106
0.017290836
0.01784338
0.017580042
0.015655767
0.014543246
0.014608654
0.016594867
0.012731126
0.0090082156
0.0056432972
0.0024979282
0.0036053785
1.1149314e-18
2.1683915e-16
5.7755838e-15
5.8552195e-14
3.5410127e-13
1.5688242e-12
5.6648581e-12
1.7726342e-11
4.9940274e-11
1.2991181e-10
3.1754799e-10
7.3858222e-10
1.6499512e-09
3.5654113e-09
7.4939227e-09
1.5387302e-08
3.0973285e-08
6.1293692e-08
1.1952481e-07
2.3011678e-07
4.3810526e-07
8.2589179e-07
1.5433228e-06
2.8613096e-06
5.266825e-06
9.6299341e-06
1.7494475e-05
3.1576209e-05
5.6595414e-05
0.00010060928
0.0001769806
0.00030686015
0.00052130334
0.00086084478
0.0013695817
0.0020829046
0.0030133016
0.0041420504
0.005421113
0.0067829613
0.0081532539
0.0094626576
0.010656134
0.011687422
0.012534445
0.013251944
0.013852036
0.014349153
0.014781588
0.015183884
0.015583466
0.015999463
0.016446326
0.016940068
0.017471569
0.015605134
0.013754587
0.012878703
0.013555816
0.01597627
0.012239069
0.0093714751
0.0056905704
0.0024247006
0.002622813
1.0583236e-18
2.0582972e-16
5.4823456e-15
5.557943e-14
3.3612389e-13
1.4891825e-12
5.3773112e-12
1.6826676e-11
4.740604e-11
1.2332052e-10
3.0143966e-10
7.0112317e-10
1.566286e-09
3.3846514e-09
7.1140598e-09
1.4607441e-08
2.940366e-08
5.8187684e-08
1.1346783e-07
2.1845406e-07
4.1589576e-07
7.840065e-07
1.4650053e-06
2.7159867e-06
4.999027e-06
9.1395837e-06
1.6602122e-05
2.9962522e-05
5.369827e-05
9.5455889e-05
0.00016793422
0.00029129197
0.00049529369
0.00081917187
0.0013063271
0.0019927276
0.0028928649
0.0039908246
0.0052412226
0.0065783287
0.007928487
0.0092219834
0.010402449
0.011421705
0.012261052
0.012964032
0.013545414
0.014019759
0.01442439
0.014793405
0.015153911
0.015524485
0.015921567
0.016366456
0.016227649
0.013717026
0.01230625
0.012087671
0.013714353
0.015403428
0.011871222
0.0093602441
0.0049150113
0.0022245133
0.0019266471
9.9568443e-19
1.9364728e-16
5.1578638e-15
5.2289912e-14
3.1623079e-13
1.4010525e-12
5.0591084e-12
1.5831062e-11
4.4601429e-11
1.1602568e-10
2.8361099e-10
6.5966115e-10
1.4736741e-09
3.1845473e-09
6.6935107e-09
1.3743972e-08
2.7665573e-08
5.4747898e-08
1.0675901e-07
2.05534e-07
3.912869e-07
7.3758482e-07
1.3781798e-06
2.5548186e-06
4.7019027e-06
8.595265e-06
1.5610993e-05
2.8169058e-05
5.0475947e-05
8.9718694e-05
0.00015784993
0.00027390419
0.00046615993
0.0007722989
0.0012347856
0.0018900572
0.0027547359
0.0038160559
0.0050316911
0.0063380149
0.0076621806
0.0089340391
0.010095788
0.011097182
0.011919504
0.012600831
0.013152785
0.013591185
0.013951743
0.014267306
0.014563664
0.014857997
0.015172361
0.015537659
0.014147842
0.012110563
0.011445303
0.012278293
0.014772359
0.014390715
0.011080839
0.008666748
0.0036863337
0.0018408479
0.0013592851
9.2814283e-19
1.8051131e-16
4.8079823e-15
4.8742887e-14
2.9478029e-13
1.3060214e-12
4.7159807e-12
1.4757431e-11
4.1576941e-11
1.0815864e-10
2.64383e-10
6.1494271e-10
1.373783e-09
2.9687028e-09
6.2398525e-09
1.2812459e-08
2.5790384e-08
5.1036483e-08
9.951977e-08
1.9159113e-07
3.64727e-07
6.8747661e-07
1.284446e-06
2.3807996e-06
4.3810275e-06
8.0073095e-06
1.4540133e-05
2.6230698e-05
4.6991758e-05
8.3511135e-05
0.00014692701
0.00025503611
0.00043445267
0.0007210597
0.0011561099
0.0017763201
0.0026004715
0.0036192209
0.0047936929
0.0060626979
0.0073543601
0.0085980731
0.0097344782
0.010710532
0.011505785
0.012156281
0.012666066
0.013052699
0.013349382
0.013586536
0.013787368
0.013968311
0.01416503
0.014417701
0.012172581
0.011039859
0.011473135
0.013342099
0.014935093
0.012619194
0.0098256352
0.0067125594
0.0024567664
0.0013969648
0.0009576271
8.5699274e-19
1.6667357e-16
4.4394093e-15
4.5006361e-14
2.7218362e-13
1.205911e-12
4.3545065e-12
1.3626367e-11
3.8390571e-11
9.9870244e-11
2.4412444e-10
5.6782564e-10
1.2685295e-09
2.7412611e-09
5.7617972e-09
1.1830806e-08
2.3814163e-08
4.7124919e-08
9.1889785e-08
1.7689501e-07
3.3673103e-07
6.3465696e-07
1.1856364e-06
2.1973504e-06
4.0427519e-06
7.3874446e-06
1.3411089e-05
2.41868e-05
4.3317071e-05
7.6961222e-05
0.00013539119
0.00023507505
0.00040080871
0.00066643775
0.0010716965
0.0016533053
0.0024321153
0.0034023853
0.0045290491
0.0057537018
0.0070056273
0.0082137398
0.0093169183
0.010258538
0.011015957
0.011623913
0.012076259
0.012392182
0.012601068
0.012729348
0.01279736
0.012829015
0.012879806
0.01231494
0.010751124
0.010820452
0.01230758
0.013166095
0.012562795
0.010152626
0.0080160905
0.0036532299
0.0016233336
0.00107773
0.00070450745
7.8363287e-19
1.5240606e-16
4.0593897e-15
4.1153777e-14
2.488849e-13
1.1026892e-12
3.9817918e-12
1.2460107e-11
3.5104966e-11
9.1323483e-11
2.2323374e-10
5.1923679e-10
1.1599846e-09
2.5066991e-09
5.2687597e-09
1.0818355e-08
2.1775887e-08
4.3090438e-08
8.401991e-08
1.6173674e-07
3.0785482e-07
5.8017765e-07
1.0837259e-06
2.0081545e-06
3.6939057e-06
6.7482677e-06
1.2246978e-05
2.2079556e-05
3.9528365e-05
7.0206268e-05
0.00012348538
0.00021444061
0.00036592636
0.00060953218
0.00098314787
0.0015231375
0.0022521982
0.0031682435
0.0042403074
0.0054131119
0.0066173039
0.0077812838
0.0088418664
0.0097383722
0.010446144
0.01099679
0.01137372
0.011596747
0.011689904
0.011673991
0.011573499
0.01144171
0.011329431
0.010478447
0.010100824
0.010732311
0.010589872
0.010385668
0.0092326488
0.0074399965
0.0045200741
0.0016999436
0.0011462
0.00083664374
0.00058366212
7.0950677e-19
1.3798952e-16
3.6753997e-15
3.7260934e-14
2.2534256e-13
9.9838691e-13
3.6051704e-12
1.1281601e-11
3.1784795e-11
8.2686606e-11
2.0212225e-10
4.7013311e-10
1.0502867e-09
2.2696396e-09
4.7704615e-09
9.7950836e-09
1.97158e-08
3.9012773e-08
7.6065868e-08
1.4641672e-07
2.7867178e-07
5.251232e-07
9.8074941e-07
1.8170047e-06
3.341515e-06
6.102725e-06
1.1071532e-05
1.9952241e-05
3.5704056e-05
6.3387154e-05
0.00011145947
0.00019356726
0.00033053726
0.00055151663
0.00089222203
0.0013882292
0.0020637132
0.0029201341
0.0039308091
0.005043892
0.0061916021
0.0073017785
0.0083085398
0.0091469313
0.0097939362
0.010267472
0.010548837
0.010654229
0.010601432
0.010406505
0.0101291
0.0098490315
0.0095516291
0.0091222754
0.008649055
0.0082636852
0.0077239582
0.0068769127
0.0057517546
0.0039033683
0.0015320724
0.00095068143
0.00077138886
0.00061653978
0.00053432814
6.360422e-19
1.2370166e-16
3.2948373e-15
3.3402835e-14
2.0201022e-13
8.950141e-13
3.2319004e-12
1.0113565e-11
2.8494061e-11
7.4126136e-11
1.8119711e-10
4.2146185e-10
9.4155272e-10
2.034659e-09
4.2765266e-09
8.7807647e-09
1.7673741e-08
3.4970843e-08
6.8181764e-08
1.3123217e-07
2.4974897e-07
4.7056557e-07
8.7871723e-07
1.6276441e-06
2.9925073e-06
5.463566e-06
9.9080954e-06
1.7847371e-05
3.1921129e-05
5.6642245e-05
9.9559505e-05
0.0001728854
0.00029537481
0.00049359063
0.00080076612
0.0012512058
0.0018700539
0.0026620182
0.0036047233
0.0046499811
0.0057317967
0.0067775809
0.0077171554
0.0084832818
0.0090543895
0.0094300445
0.0095934902
0.0095560489
0.0093297922
0.0089447293
0.0085309759
0.0081084312
0.0076003964
0.0069436203
0.0062570567
0.0056015754
0.0045893589
0.0037873149
0.0022917967
0.001193389
0.00076606389
0.00062972983
0.00054156088
0.00049440743
0.00053287684
5.6459457e-19
1.0980603e-16
2.9247218e-15
2.9650635e-14
1.7931819e-13
7.9447739e-13
2.8688675e-12
8.9775482e-12
2.5293487e-11
6.5800075e-11
1.6084461e-10
3.741218e-10
8.3579127e-10
1.8060999e-09
3.796087e-09
7.794161e-09
1.5687504e-08
3.1039513e-08
6.0513746e-08
1.1646484e-07
2.2162374e-07
4.1751994e-07
7.7953143e-07
1.4436109e-06
2.6534223e-06
4.8428092e-06
8.7786369e-06
1.5804897e-05
2.8251838e-05
5.010137e-05
8.8016801e-05
0.000152802
0.00026114078
0.00043692501
0.00071063576
0.0011148037
0.0016749101
0.0023984024
0.0032670224
0.0042363174
0.0052422045
0.0062116561
0.00706962
0.0077473365
0.0082241067
0.0084802193
0.0085034195
0.0083021214
0.0078897492
0.0073688161
0.0068553718
0.006274742
0.0055723033
0.0047382274
0.003898427
0.0030530473
0.002237863
0.0011958408
0.00070881713
0.00058364763
0.00051388231
0.0004504496
0.00043893686
0.00046977255
0.00056162224
4.9638629e-19
9.6540414e-17
2.5713868e-15
2.6068547e-14
1.5765486e-13
6.9849771e-13
2.5222866e-12
7.8930023e-12
2.223789e-11
5.785106e-11
1.4141353e-10
3.2892448e-10
7.3481596e-10
1.5878829e-09
3.3373878e-09
6.8522123e-09
1.379121e-08
2.7286352e-08
5.319369e-08
1.0236887e-07
1.947805e-07
3.6690073e-07
6.8490366e-07
1.2680852e-06
2.3301288e-06
4.2512199e-06
7.7027952e-06
1.3860458e-05
2.4760518e-05
4.3880047e-05
7.703747e-05
0.00013368172
0.00022847165
0.00038260412
0.00062360282
0.00098173947
0.0014821117
0.0021341891
0.0029233758
0.0038088047
0.0047282754
0.0056082156
0.0063689004
0.006940952
0.0073020092
0.0074175731
0.0072824243
0.0069086438
0.0063428532
0.0057708425
0.0051546397
0.004435183
0.0036188231
0.0027085752
0.002014309
0.0011526818
0.00065050104
0.00039348658
0.00038885132
0.0003914286
0.00037544898
0.00038315075
0.00042275441
0.00050557485
0.00059707505
4.3245826e-19
8.4107285e-17
2.2402266e-15
2.271127e-14
1.3735109e-13
6.0854106e-13
2.1974526e-12
6.8764989e-12
1.9373968e-11
5.0400608e-11
1.2320102e-10
2.8656128e-10
6.4017199e-10
1.3833488e-09
2.907454e-09
5.9693496e-09
1.2013921e-08
2.3768901e-08
4.6333856e-08
8.9160505e-08
1.6963109e-07
3.1948465e-07
5.9628595e-07
1.1037602e-06
2.0275869e-06
3.6978747e-06
6.6970813e-06
1.2043924e-05
2.1500941e-05
3.8074635e-05
6.6793512e-05
0.00011583037
0.00019790783
0.00033156957
0.00054125787
0.00085455713
0.0012954216
0.00187444
0.0025799296
0.0033741602
0.0041965617
0.0049726394
0.0056186257
0.0060698681
0.0062908355
0.006249713
0.0059497434
0.0054200071
0.0048012069
0.0042042325
0.0035034986
0.0027225368
0.0018961127
0.00130622
0.00065901856
0.00034832524
0.0002317193
0.00024209159
0.00026516017
0.00029352819
0.00032938888
0.00038332557
0.00043491245
0.00051436787
0.00056487253
3.7362636e-19
7.2665307e-17
1.9354663e-15
1.9621628e-14
1.1866583e-13
5.25755e-13
1.89851e-12
5.9410118e-12
1.6738285e-11
4.3543873e-11
1.0643973e-10
2.475736e-10
5.5306934e-10
1.1951133e-09
2.5117854e-09
5.1568699e-09
1.0378384e-08
2.0532177e-08
4.0022023e-08
7.7008678e-08
1.4649697e-07
2.758771e-07
5.1480798e-07
9.5272645e-07
1.7496355e-06
3.1897732e-06
5.7741751e-06
1.0378132e-05
1.851403e-05
3.2758223e-05
5.7415321e-05
9.9481009e-05
0.00016986698
0.00028456838
0.00046491292
0.00073546074
0.0011182806
0.0016240413
0.0022429309
0.0029395756
0.003654667
0.0043118903
0.0048269187
0.0051388444
0.0052027537
0.0050000158
0.0045526808
0.0039420558
0.0033555538
0.0027359045
0.0020156859
0.0013070589
0.00076703726
0.0003892461
0.00020413398
0.00013881707
0.00015317191
0.00017934491
0.00022157372
0.00027769679
0.00034253545
0.00037405989
0.00036118919
0.00043725846
0.00052374761
3.2045287e-19
6.2323787e-17
1.6600161e-15
1.6829127e-14
1.0177756e-13
4.5093037e-13
1.6283152e-12
5.0954818e-12
1.435604e-11
3.7346432e-11
9.1290065e-11
2.1233463e-10
4.743421e-10
1.0249795e-09
2.1541732e-09
4.4225588e-09
8.900268e-09
1.760718e-08
3.4318594e-08
6.6029529e-08
1.2559879e-07
2.364928e-07
4.4124156e-07
8.1640698e-07
1.4988759e-06
2.7316313e-06
4.9425598e-06
8.8782327e-06
1.5826701e-05
2.7978487e-05
4.8987555e-05
8.4785422e-05
0.00014462585
0.00024211239
0.00039551519
0.00062614793
0.00095352079
0.0013872712
0.0019181548
0.0025119956
0.0031099808
0.0036343496
0.0040046486
0.004160673
0.0040645102
0.0037196773
0.0031847754
0.0026220482
0.0020717958
0.0014694051
0.00089025544
0.00044350826
0.00022771021
0.00012329708
8.8919777e-05
0.00010167875
0.00012976056
0.00017479455
0.00023581006
0.00030583216
0.00032250781
0.00030563371
0.00031688976
0.00039098935
0.00046513377
2.7322465e-19
5.3138504e-17
1.4153621e-15
1.4348836e-14
8.6777426e-14
3.8447098e-13
1.3883267e-12
4.3444742e-12
1.22401e-11
3.1841769e-11
7.7833885e-11
1.8103489e-10
4.0441593e-10
8.7386732e-10
1.8365504e-09
3.7703826e-09
7.5875475e-09
1.5009656e-08
2.9254175e-08
5.628171e-08
1.0704746e-07
2.0153896e-07
3.7596915e-07
6.9549946e-07
1.2765654e-06
2.3256868e-06
4.2061675e-06
7.5510508e-06
1.3450671e-05
2.3755481e-05
4.1544909e-05
7.1805867e-05
0.00012230376
0.00020444799
0.00033358565
0.00052767174
0.00080307781
0.0011673028
0.0016102047
0.0020973959
0.0025696773
0.0029503895
0.003165323
0.0031633669
0.0029285712
0.0025009468
0.0020039822
0.0015292924
0.0010394735
0.00057624853
0.00027682792
0.00013571785
7.5575058e-05
5.8776251e-05
7.2601207e-05
0.00010059477
0.00014596935
0.00020652529
0.00027451694
0.00030917588
0.00026008828
0.00025799636
0.00027960423
0.00036332378
0.00045970884
2.319295e-19
4.5107149e-17
1.201444e-15
1.2180143e-14
7.3661735e-14
3.263607e-13
1.1784867e-12
3.68781e-12
1.0389966e-11
2.7028605e-11
6.6068096e-11
1.5366722e-10
3.4327498e-10
7.4174248e-10
1.5588444e-09
3.2001896e-09
6.4399071e-09
1.2738949e-08
2.4827392e-08
4.7762304e-08
9.083673e-08
1.7100193e-07
3.1896069e-07
5.8993699e-07
1.0825542e-06
1.971604e-06
3.5642473e-06
6.3949202e-06
1.1382317e-05
2.0081688e-05
3.5072844e-05
6.0517208e-05
0.00010286562
0.00017154759
0.0002791631
0.00044027249
0.0006676672
0.00096567053
0.0013217464
0.0016999449
0.0020409201
0.0022725212
0.0023340026
0.0021986566
0.0018832064
0.001480493
0.0010991705
0.0007173452
0.00035470504
0.00016804832
8.5408935e-05
4.8240796e-05
4.0195369e-05
5.4362317e-05
8.2248227e-05
0.00012684943
0.00018465941
0.00024940925
0.00030792409
0.00024872706
0.00022518661
0.00023321493
0.0002565124
0.00033368194
0.00043583595
1.9625427e-19
3.8168813e-17
1.0166393e-15
1.0306603e-14
6.2331044e-14
2.7615895e-13
9.9720456e-13
3.1205122e-12
8.7916168e-12
2.2870467e-11
5.5903551e-11
1.3002427e-10
2.9045588e-10
6.2760323e-10
1.3189481e-09
2.7076475e-09
5.4486093e-09
1.0777718e-08
2.1004293e-08
4.0405568e-08
7.6840434e-08
1.4464133e-07
2.6976058e-07
4.9885969e-07
9.1522485e-07
1.6663513e-06
3.0111471e-06
5.3993866e-06
9.6024871e-06
1.6921986e-05
2.9506832e-05
5.0801556e-05
8.6102862e-05
0.00014306414
0.00023172816
0.00036329307
0.00054660826
0.00078190866
0.0010530313
0.0013219223
0.0015312666
0.0016203713
0.0015580298
0.0013441999
0.0010466608
0.00075530655
0.00047382985
0.00021091459
0.00010227039
5.3401503e-05
3.2358381e-05
2.9010568e-05
4.2431737e-05
6.9152097e-05
0.0001118073
0.00016745209
0.0002285056
0.00029718967
0.00025004454
0.00022008731
0.00020521481
0.00021642295
0.00024380763
0.00032134863
0.00042356096
1.6557889e-19
3.2202862e-17
8.5773403e-16
8.6956277e-15
5.2588266e-14
2.3299254e-13
8.4132719e-13
2.6327144e-12
7.4172557e-12
1.9295039e-11
4.7163464e-11
1.0969476e-10
2.4503963e-10
5.2946276e-10
1.1126827e-09
2.2841686e-09
4.5963461e-09
9.0916533e-09
1.7717814e-08
3.4081983e-08
6.4810941e-08
1.2198765e-07
2.2748467e-07
4.2061093e-07
7.7148348e-07
1.4041577e-06
2.5360925e-06
4.5442906e-06
8.0734569e-06
1.4206773e-05
2.4721612e-05
4.244044e-05
7.1638316e-05
0.00011836105
0.00019025944
0.00029520137
0.00043781721
0.00061364387
0.0008024931
0.00096574935
0.0010543763
0.0010345256
0.00090101604
0.00069887924
0.00049207708
0.00029019071
0.00012859208
6.2025224e-05
3.3924706e-05
2.2148572e-05
2.1943194e-05
3.4365311e-05
5.8640486e-05
9.8796018e-05
0.00015185618
0.0002108306
0.0002776468
0.0002522425
0.00022398681
0.00020365638
0.00019752358
0.00020975848
0.00023877354
0.00031695444
0.00043798796
1.3901412e-19
2.7036363e-17
7.2012224e-16
7.3005244e-15
4.4151022e-14
1.9561035e-13
7.0633682e-13
2.2102786e-12
6.2270487e-12
1.6198688e-11
3.9594472e-11
9.2089259e-11
2.0570895e-10
4.4447314e-10
9.3405825e-10
1.9174424e-09
3.8583076e-09
7.6315808e-09
1.4871866e-08
2.8606051e-08
5.4393871e-08
1.0236989e-07
1.9087211e-07
3.5283687e-07
6.4696038e-07
1.1769504e-06
2.1242335e-06
3.8024134e-06
6.7454389e-06
1.184463e-05
2.0548512e-05
3.5124077e-05
5.8928627e-05
9.652773e-05
0.00015328648
0.00023377153
0.00033831043
0.00045786697
0.00056980977
0.00064031603
0.00064070883
0.00056337862
0.00043581
0.00029927384
0.00016720428
7.4319486e-05
3.7984935e-05
2.1797668e-05
1.5735774e-05
1.7044481e-05
2.8344961e-05
4.9895151e-05
8.6497315e-05
0.00013712092
0.00019601735
0.00023882629
0.00023851389
0.00022820763
0.00021007926
0.00019827974
0.00019324698
0.00020946304
0.00023969574
0.00031802657
0.00043853091
1.1549784e-19
2.2462763e-17
5.9830287e-16
6.0655255e-15
3.6682047e-14
1.6251815e-13
5.8683777e-13
1.8363201e-12
5.1734213e-12
1.3457638e-11
3.2893959e-11
7.6503684e-11
1.7089031e-10
3.6923212e-10
7.7591841e-10
1.5927598e-09
3.2048471e-09
6.3387327e-09
1.2351603e-08
2.3756062e-08
4.5165686e-08
8.4986235e-08
1.5841672e-07
2.9272734e-07
5.3644314e-07
9.7511243e-07
1.7579143e-06
3.1415048e-06
5.5598709e-06
9.7300896e-06
1.6799652e-05
2.8521888e-05
4.739419e-05
7.6584861e-05
0.00011925589
0.00017681417
0.00024575749
0.00031419308
0.00036170995
0.00036822162
0.00032684451
0.00025213074
0.000167107
8.9404855e-05
4.1569335e-05
2.2459742e-05
1.4340657e-05
1.1356499e-05
1.3720943e-05
2.3451993e-05
4.3026094e-05
7.7364738e-05
0.0001262304
0.00018253347
0.00020316958
0.00021622811
0.00022109504
0.00021520323
0.00020339684
0.00019594752
0.00019646567
0.00021156392
0.0002435849
0.00032185308
0.00045651048
9.3988906e-20
1.8279573e-17
4.8688225e-16
4.9359476e-15
2.9850634e-14
1.3225076e-13
4.7753934e-13
1.4942826e-12
4.209727e-12
1.095053e-11
2.676523e-11
6.2247764e-11
1.3904104e-10
3.0040426e-10
6.3124721e-10
1.2957006e-09
2.6069006e-09
5.1555002e-09
1.0044458e-08
1.9314759e-08
3.6711517e-08
6.9051806e-08
1.2864573e-07
2.3753884e-07
4.3485548e-07
7.8931123e-07
1.4200893e-06
2.5306584e-06
4.4612176e-06
7.764584e-06
1.3303237e-05
2.2343119e-05
3.6563743e-05
5.7793947e-05
8.7188736e-05
0.00012354886
0.00016114391
0.00018899444
0.00019510427
0.00017468517
0.00013444257
8.6120298e-05
4.6133185e-05
2.271181e-05
1.3285615e-05
9.3104925e-06
8.540402e-06
1.0914965e-05
1.9780169e-05
3.7190706e-05
6.9852887e-05
0.00011504925
0.00016476784
0.00017801229
0.00019139651
0.00020447813
0.00020839852
0.0002059128
0.00020032029
0.00019858312
0.00020014048
0.00021804259
0.00025137112
0.00033466588
0.00047736356
7.3760275e-20
1.4345378e-17
3.8209349e-16
3.8736017e-15
2.342583e-14
1.0378497e-13
3.7474684e-13
1.1726048e-12
3.3033941e-12
8.5926301e-12
2.1001143e-11
4.8839618e-11
1.0908435e-10
2.3566176e-10
4.9514946e-10
1.0162068e-09
2.0442059e-09
4.0417483e-09
7.8720882e-09
1.5131157e-08
2.8743677e-08
5.4024049e-08
1.0054568e-07
1.8539596e-07
3.3875992e-07
6.133123e-07
1.099592e-06
1.9501937e-06
3.4155656e-06
5.8916717e-06
9.969926e-06
1.6455214e-05
2.6269198e-05
4.0088654e-05
5.7547511e-05
7.6099315e-05
9.0447065e-05
9.4339413e-05
8.5115342e-05
6.4936349e-05
4.052968e-05
2.2133302e-05
1.2161582e-05
7.7928244e-06
6.2956515e-06
6.2717257e-06
8.9857858e-06
1.6426139e-05
3.288857e-05
6.3735964e-05
0.00010425955
0.00014936231
0.00015939366
0.00017062006
0.00018458996
0.0001946117
0.00019912288
0.00020127225
0.00020015854
0.00020144873
0.00020654866
0.0002262317
0.0002621455
0.00034354904
0.00049406642
5.4697502e-20
1.0637922e-17
2.8334394e-16
2.8724817e-15
1.737132e-14
7.6959955e-14
2.7788001e-13
8.6947293e-13
2.4493181e-12
6.3706791e-12
1.5569347e-11
3.6204182e-11
8.0853071e-11
1.7464488e-10
3.6687324e-10
7.5274654e-10
1.513713e-09
2.9915355e-09
5.8231648e-09
1.1184149e-08
2.1223867e-08
3.9835768e-08
7.400418e-08
1.3612451e-07
2.4792428e-07
4.4691722e-07
7.9663244e-07
1.401904e-06
2.4295261e-06
4.1307583e-06
6.8523771e-06
1.1001829e-05
1.6900817e-05
2.4448097e-05
3.2610128e-05
3.9110354e-05
4.1064099e-05
3.7258907e-05
2.827903e-05
1.7743776e-05
1.0370292e-05
6.2718401e-06
4.7090263e-06
4.2258766e-06
4.8253502e-06
7.2117715e-06
1.4099128e-05
3.0343596e-05
5.7604407e-05
9.4484354e-05
0.00013604798
0.00014623587
0.00015396941
0.00016647708
0.00017711103
0.00018616083
0.00019283983
0.00019748155
0.00019989266
0.0002054978
0.00021345581
0.00023474914
0.00027119072
0.00035969824
0.00052445288
3.7437858e-20
7.2811523e-18
1.9393499e-16
1.9660583e-15
1.1889548e-14
5.2672787e-14
1.9017899e-13
5.9502982e-13
1.6760909e-12
4.3591135e-12
1.0651987e-11
2.4765727e-11
5.5296873e-11
1.194112e-10
2.5075849e-10
5.1427238e-10
1.0335533e-09
2.0410308e-09
3.9689602e-09
7.61283e-09
1.4421585e-08
2.7006565e-08
5.0020306e-08
9.1644224e-08
1.6604065e-07
2.9724372e-07
5.2498412e-07
9.1258721e-07
1.5556891e-06
2.5868113e-06
4.1631384e-06
6.4127142e-06
9.3083184e-06
1.2472694e-05
1.5042558e-05
1.587911e-05
1.4471076e-05
1.1038584e-05
7.2608651e-06
4.6678776e-06
3.3285819e-06
2.8394042e-06
2.9892583e-06
3.6526819e-06
5.9971658e-06
1.3046379e-05
2.7489233e-05
5.2189765e-05
8.5574537e-05
0.00012411313
0.00013614449
0.00014077467
0.00015090097
0.00016083028
0.00017049482
0.00018009446
0.00018769381
0.00019504591
0.00020097465
0.00020970495
0.00022013911
0.00024530365
0.00028518541
0.00037417746
0.00054417021
2.3081942e-20
4.4891189e-18
1.1956812e-16
1.2121345e-15
7.3301046e-15
3.2472466e-14
1.1723789e-13
3.6678464e-13
1.0330586e-12
2.6863663e-12
6.5632327e-12
1.5255733e-11
3.4052157e-11
7.3503596e-11
1.5427062e-10
3.1616407e-10
6.3481856e-10
1.2521047e-09
2.4309797e-09
4.6532253e-09
8.791227e-09
1.6404941e-08
3.0244677e-08
5.507894e-08
9.9004951e-08
1.7540303e-07
3.0557029e-07
5.2160019e-07
8.6785876e-07
1.3968796e-06
2.151755e-06
3.1250628e-06
4.1950383e-06
5.0780622e-06
5.3832266e-06
4.9547228e-06
3.9330304e-06
2.9008034e-06
2.1592595e-06
1.7726287e-06
1.8375896e-06
2.1092358e-06
2.9139724e-06
5.4526471e-06
1.2115395e-05
2.4788645e-05
4.7132556e-05
7.7697801e-05
0.00011313372
0.00012796316
0.00013024446
0.00013819482
0.00014642278
0.00015559056
0.00016499433
0.00017458957
0.00018370351
0.00019312034
0.00020142217
0.00021356322
0.00022774502
0.00025482303
0.0002953891
0.00039027016
0.00056979121
1.2530795e-20
2.4370633e-18
6.4911028e-17
6.5803181e-16
3.9791715e-15
1.7626886e-14
6.3634879e-14
1.9906344e-13
5.6058419e-13
1.4574514e-12
3.55984e-12
8.2716454e-12
1.845444e-11
3.9810633e-11
8.3488379e-11
1.7092335e-10
3.4272572e-10
6.7478744e-10
1.3070877e-09
2.4944392e-09
4.6943106e-09
8.7154638e-09
1.5962226e-08
2.8819721e-08
5.1224721e-08
8.9427371e-08
1.5280986e-07
2.5427713e-07
4.0904205e-07
6.2960702e-07
9.1430426e-07
1.2295249e-06
1.4957042e-06
1.6097396e-06
1.5497e-06
1.3854125e-06
1.1826086e-06
1.0408072e-06
1.0490273e-06
1.2049738e-06
1.6165699e-06
2.5786398e-06
5.1364469e-06
1.0981848e-05
2.2185221e-05
4.2540119e-05
7.0517744e-05
0.00010276286
0.00012108014
0.00012153385
0.00012770541
0.00013420662
0.0001419712
0.00015072982
0.00016002131
0.0001704392
0.00018051621
0.00019159323
0.00020280794
0.00021787097
0.00023411749
0.00026510148
0.0003088405
0.00040883854
0.00059471912
5.9073383e-21
1.1488925e-18
3.0600425e-17
3.1020321e-16
1.8757459e-15
8.3085957e-15
2.9991865e-14
9.3807476e-14
2.6411959e-13
6.8649428e-13
1.6761646e-12
3.8928724e-12
8.6797052e-12
1.8708692e-11
3.9192248e-11
8.0124017e-11
1.6036559e-10
3.1499035e-10
6.0826727e-10
1.1561838e-09
2.1646101e-09
3.9920202e-09
7.2483009e-09
1.2940927e-08
2.2669779e-08
3.8837629e-08
6.4760179e-08
1.0439799e-07
1.6121413e-07
2.3558141e-07
3.2083122e-07
4.0080146e-07
4.5943439e-07
4.9240031e-07
5.1405839e-07
5.3425454e-07
5.6511782e-07
6.5509137e-07
9.0588847e-07
1.4077221e-06
2.44295e-06
4.7576947e-06
9.746262e-06
1.9697042e-05
3.8351351e-05
6.3803224e-05
9.3017608e-05
0.00011506003
0.00011418974
0.00011876441
0.00012379924
0.00013010052
0.00013759604
0.0001463351
0.00015594814
0.00016660546
0.00017763855
0.00019062029
0.00020351083
0.00022132002
0.00024106818
0.00027495678
0.00031966381
0.00042386793
0.00061183739
2.4727326e-21
4.8091005e-19
1.2808773e-17
1.2984216e-16
7.850982e-16
3.4773329e-15
1.2550914e-14
3.9250248e-14
1.1048736e-13
2.8709276e-13
7.0069954e-13
1.6265193e-12
3.6240652e-12
7.8044855e-12
1.6330252e-11
3.333471e-11
6.6587745e-11
1.304623e-10
2.5111711e-10
4.7534535e-10
8.8524872e-10
1.6216453e-09
2.9194032e-09
5.1564191e-09
8.9120031e-09
1.5015511e-08
2.4537806e-08
3.8641312e-08
5.8200094e-08
8.3244032e-08
1.1332083e-07
1.4799908e-07
1.8489757e-07
2.2376096e-07
2.8265402e-07
3.6677747e-07
5.0958294e-07
8.0131178e-07
1.315678e-06
2.2922615e-06
4.2982224e-06
8.597287e-06
1.7691115e-05
3.4666476e-05
5.770105e-05
8.4366847e-05
0.00010927781
0.00010780131
0.00011091413
0.0001147258
0.00011975203
0.00012591781
0.00013354668
0.00014236629
0.00015201413
0.00016337002
0.00017547883
0.0001896013
0.00020486844
0.00022527722
0.00024697426
0.00028398457
0.00033152718
0.00044298644
0.0006314708
1.0815262e-21
2.1034071e-19
5.6022873e-18
5.6789854e-17
3.4338023e-16
1.5208718e-15
5.4892676e-15
1.716606e-14
4.8319781e-14
1.2554868e-13
3.064017e-13
7.1117805e-13
1.5843972e-12
3.4115353e-12
7.137155e-12
1.4566234e-11
2.909116e-11
5.6987193e-11
1.0967904e-10
2.0762181e-10
3.8677874e-10
7.090814e-10
1.2786141e-09
2.2652523e-09
3.9365594e-09
6.6964801e-09
1.1127451e-08
1.8026354e-08
2.8444157e-08
4.3804089e-08
6.5769179e-08
9.6581371e-08
1.3968344e-07
2.0361465e-07
3.0025048e-07
4.6795264e-07
7.4986888e-07
1.221857e-06
2.0992622e-06
3.8810383e-06
7.7110458e-06
1.6041913e-05
3.128858e-05
5.2061879e-05
7.6481689e-05
0.00010337676
0.00010201063
0.00010377568
0.0001066546
0.0001106095
0.00011551116
0.00012194005
0.00012966887
0.00013852964
0.00014862661
0.00016046467
0.00017324555
0.00018900687
0.00020566219
0.00022817205
0.00025287228
0.00029313922
0.00034239666
0.00045709551
0.0006415479
7.5212502e-22
1.462775e-19
3.8960614e-18
3.9495618e-17
2.3883036e-16
1.0579539e-15
3.8192489e-15
1.1947044e-14
3.3642458e-14
8.745958e-14
2.1359725e-13
4.9623981e-13
1.1069184e-12
2.3873077e-12
5.0050777e-12
1.024348e-11
2.0532918e-11