/*--------------------------------*- C++ -*----------------------------------*\
  =========                 |
  \\      /  F ield         | OpenFOAM: The Open Source CFD Toolbox
   \\    /   O peration     | Website:  https://openfoam.org
    \\  /    A nd           | Version:  13
     \\/     M anipulation  |
\*---------------------------------------------------------------------------*/
FoamFile
{
    format      ascii;
    class       surfaceScalarField;
    location    "35.201228";
    object      phi;
}
// * * * * * * * * * * * * * * * * * * * * * * * * * * * * * * * * * * * * * //

dimensions      [0 3 -1 0 0 0 0];

internalField   nonuniform List<scalar> 
34068
(
-1.0656615e-08
-3.496022e-08
4.5616835e-08
-4.7442723e-08
-1.2032852e-07
1.5711462e-07
-1.1910824e-07
-2.3427037e-07
3.0593589e-07
-2.3670959e-07
-3.8496698e-07
5.0256832e-07
-4.1414163e-07
-5.8281224e-07
7.6024428e-07
-6.6878846e-07
-8.4094857e-07
1.0955954e-06
-1.0222735e-06
-1.1759742e-06
1.5294593e-06
-1.5014448e-06
-1.6086757e-06
2.087847e-06
-2.1395633e-06
-2.1649284e-06
2.8030469e-06
-2.97765e-06
-2.8768608e-06
3.7149475e-06
-4.0661028e-06
-3.7840986e-06
4.8725514e-06
-5.4666063e-06
-4.9351824e-06
6.3356858e-06
-7.2543585e-06
-6.3891292e-06
8.1768815e-06
-9.5206524e-06
-8.2170896e-06
1.0483384e-05
-1.2375811e-05
-1.0504022e-05
1.3359181e-05
-1.5952508e-05
-1.335025e-05
1.6926947e-05
-2.0409417e-05
-1.6872722e-05
2.132963e-05
-2.5935163e-05
-2.1205683e-05
2.6731429e-05
-3.2752437e-05
-2.6500389e-05
3.3317664e-05
-4.1122113e-05
-3.2923393e-05
4.1293068e-05
-5.1347048e-05
-4.0652771e-05
5.0877706e-05
-6.3775162e-05
-4.9871639e-05
6.2299753e-05
-7.8801227e-05
-6.0758179e-05
7.5784244e-05
-9.6866504e-05
-7.3471614e-05
9.1536891e-05
-0.00011845524
-8.8133752e-05
0.00010972249
-0.00014408669
-0.00010480658
0.00013043803
-0.00017430111
-0.00012346766
0.00015368207
-0.00020963829
-0.00014398745
0.00017932463
-0.00025060798
-0.00016611685
0.00020708655
-0.00029765385
-0.00018949834
0.00023654421
-0.00035111798
-0.00021371981
0.00026718394
-0.00041122122
-0.00023842612
0.00029852936
-0.00047808045
-0.00026347514
0.00033033437
-0.0005517747
-0.00028906742
0.00036276167
-0.00063244202
-0.00031574871
0.00039641603
-0.00072036413
-0.00034426718
0.00043218929
-0.00081600959
-0.00037540078
0.00047104623
-0.00092004268
-0.00040987375
0.00051390685
-0.0010333262
-0.00044836863
0.00056165215
-0.001156942
-0.00049157029
0.00061518608
-0.0012922439
-0.00054018414
0.00067548605
-0.0014409525
-0.00059488727
0.00074359591
-0.0016053033
-0.00065616366
0.00082051443
-0.0017882684
-0.00072394863
0.0009069137
-0.001993844
-0.00079698471
0.0010025603
-0.0022273191
-0.00087170877
0.0011051838
-0.002495678
-0.00094053503
0.001208894
-0.0028081105
-0.00098920224
0.0013016348
-0.0031764395
-0.00099222764
0.0013605566
-0.0036154133
-0.00090583836
0.0013448121
-0.004142588
-0.00065620279
0.0011833776
-0.0047773019
-0.00012020095
0.00075491479
-0.0055369686
0.00090495146
-0.00014528468
-0.0064290774
0.0027444661
-0.0018523573
-0.0074366978
0.0058946405
-0.0048870201
-0.0084962632
0.011025045
-0.0099654794
-0.0094690576
0.018837251
-0.017864456
-0.010116613
0.029603774
-0.028956219
-0.010185084
0.042381956
-0.042313484
-0.009645399
0.054031887
-0.054571572
-0.0084795607
0.057679066
-0.058844904
-0.0044692867
0.037073551
-0.041083825
0.0065130248
-0.026035191
0.01505288
0.0208515
-0.10717593
0.092837457
-0.1561664
0.030991896
0.14602601
-1.0843623e-08
-2.4116596e-08
-4.826953e-08
-8.290261e-08
-1.211728e-07
-1.613671e-07
-2.4077702e-07
-2.6536276e-07
-4.211793e-07
-4.0240997e-07
-6.8006178e-07
-5.820661e-07
-1.0394812e-06
-8.1655482e-07
-1.5268359e-06
-1.121321e-06
-2.1760724e-06
-1.5156919e-06
-3.0290708e-06
-2.0238624e-06
-4.1373096e-06
-2.6758597e-06
-5.5638346e-06
-3.5086574e-06
-7.3855469e-06
-4.567417e-06
-9.6958534e-06
-5.9067831e-06
-1.2607689e-05
-7.5921856e-06
-1.6256917e-05
-9.7010221e-06
-2.0806083e-05
-1.2323557e-05
-2.644846e-05
-1.5563305e-05
-3.3412264e-05
-1.9536586e-05
-4.1964843e-05
-2.4370813e-05
-5.2416553e-05
-3.0201061e-05
-6.5123876e-05
-3.7164317e-05
-8.049117e-05
-4.5390885e-05
-9.8970261e-05
-5.4992523e-05
-0.00012105678
-6.6047229e-05
-0.00014728197
-7.8581396e-05
-0.00017819835
-9.2551277e-05
-0.00021435793
-0.00010782787
-0.00025628216
-0.00012419261
-0.00030442554
-0.00014135497
-0.00035913976
-0.00015900559
-0.00042065385
-0.00017691202
-0.00048909117
-0.00019503782
-0.0005645356
-0.00021362299
-0.00064712946
-0.00023315485
-0.00073715951
-0.00025423713
-0.00083510113
-0.00027745915
-0.00094162769
-0.00030334719
-0.0010576125
-0.00033238385
-0.0011841466
-0.00036503621
-0.0013225866
-0.00040174407
-0.001474642
-0.00044283188
-0.001642509
-0.00048829665
-0.0018290671
-0.00053739057
-0.0020381298
-0.00058792201
-0.0022746685
-0.00063517001
-0.0025450989
-0.00067010464
-0.0028576507
-0.00067665046
-0.0032225703
-0.00062730805
-0.0036520483
-0.00047636032
-0.0041595563
-0.0001486948
-0.0047580047
0.00047824741
-0.0054550361
0.0016019828
-0.0062447002
0.0035341302
-0.0070948164
0.0067447567
-0.0079282885
0.011858517
-0.0085999491
0.019508911
-0.0088810258
0.02988485
-0.0085283401
0.04202927
-0.0074614166
0.052964964
-0.0054706121
0.055688261
0.0006831249
0.030919814
0.014429581
-0.039781647
0.030003243
-0.1227496
-0.16506925
0.038906092
-1.0883054e-08
-1.3233542e-08
-4.8442972e-08
-4.5342693e-08
-1.2160044e-07
-8.8209636e-08
-2.4161164e-07
-1.4535156e-07
-4.226398e-07
-2.2138181e-07
-6.8243012e-07
-3.2227578e-07
-1.0431956e-06
-4.5578939e-07
-1.5325727e-06
-6.3194384e-07
-2.1847591e-06
-8.6350551e-07
-3.0419793e-06
-1.1666422e-06
-4.1561869e-06
-1.5616521e-06
-5.5910564e-06
-2.0737879e-06
-7.4243206e-06
-2.7341529e-06
-9.7504666e-06
-3.5806371e-06
-1.2683822e-05
-4.6588298e-06
-1.6362026e-05
-6.0228184e-06
-2.0949857e-05
-7.7357258e-06
-2.6643365e-05
-9.8697973e-06
-3.367418e-05
-1.2505771e-05
-4.2313795e-05
-1.5731199e-05
-5.2877529e-05
-1.9637327e-05
-6.5727731e-05
-2.4314115e-05
-8.1275603e-05
-2.9843013e-05
-9.998085e-05
-3.6287276e-05
-0.00012234805
-4.3680031e-05
-0.00014891846
-5.2010982e-05
-0.00018025576
-6.1213981e-05
-0.00021692416
-7.1159469e-05
-0.0002594584
-8.1658377e-05
-0.00030832701
-9.2486358e-05
-0.00036389587
-0.00010343673
-0.00042640675
-0.00011440114
-0.00049599217
-0.0001254524
-0.00057273939
-0.00013687577
-0.00065678757
-0.00014910667
-0.00074841587
-0.00016260883
-0.00084809025
-0.00017778477
-0.00095647341
-0.00019496403
-0.0010744246
-0.00021443268
-0.0012030133
-0.00023644747
-0.0013435602
-0.00026119717
-0.0014977115
-0.00028868061
-0.0016675527
-0.00031845544
-0.001855772
-0.00034917131
-0.0020658632
-0.00037783079
-0.0023022853
-0.00039874793
-0.0025706191
-0.00040177077
-0.0028777613
-0.00036950828
-0.0032318619
-0.00027320748
-0.0036418432
-6.637897e-05
-0.0041161415
0.00032560347
-0.004660033
0.0010221389
-0.0052699158
0.0022118657
-0.0059248617
0.0041890761
-0.0065760977
0.0073959928
-0.0071310425
0.012413462
-0.0074143475
0.019792216
-0.007148674
0.029619177
-0.0060603264
0.040940922
-0.0039814689
0.050886106
-0.00033774632
0.052044538
0.0089309577
0.02165111
0.025085092
-0.055935781
0.041312983
-0.13897749
-0.17303687
0.049280605
-1.0761248e-08
-2.4722948e-09
-4.7900529e-08
-8.203412e-09
-1.2024708e-07
-1.5863083e-08
-2.3898168e-07
-2.6616961e-08
-4.1819464e-07
-4.2168854e-08
-6.7551258e-07
-6.4957839e-08
-1.0329441e-06
-9.8357856e-08
-1.5179125e-06
-1.4697546e-07
-2.1644349e-06
-2.1698309e-07
-3.0145585e-06
-3.1651857e-07
-4.1200653e-06
-4.5614542e-07
-5.544485e-06
-6.4936812e-07
-7.3654507e-06
-9.1318729e-07
-9.6774251e-06
-1.2686627e-06
-1.2594821e-05
-1.7414343e-06
-1.6255516e-05
-2.3621232e-06
-2.0824744e-05
-3.1664977e-06
-2.6499293e-05
-4.1952482e-06
-3.3511898e-05
-5.4931659e-06
-4.2135628e-05
-7.1074686e-06
-5.2687966e-05
-9.0849888e-06
-6.5534149e-05
-1.1467932e-05
-8.1089162e-05
-1.4288e-05
-9.9817567e-05
-1.755887e-05
-0.00012223013
-2.1267473e-05
-0.00014887587
-2.5365234e-05
-0.00018032819
-2.9761667e-05
-0.00021716332
-3.4324338e-05
-0.00025993062
-3.8891072e-05
-0.00030911587
-4.3301109e-05
-0.00036510388
-4.7448724e-05
-0.00042815464
-5.1350381e-05
-0.00049841363
-5.5193407e-05
-0.00057597076
-5.931865e-05
-0.00066095518
-6.4122245e-05
-0.00075362546
-6.9938556e-05
-0.00085441998
-7.6990252e-05
-0.00096396881
-8.5415203e-05
-0.0010830918
-9.5309642e-05
-0.0012128065
-0.00010673282
-0.0013543575
-0.00011964618
-0.0015092744
-0.00013376364
-0.0016794599
-0.00014827002
-0.0018673127
-0.00016131847
-0.0020758738
-0.00016926971
-0.0023088966
-0.00016572511
-0.0025708702
-0.0001397972
-0.002867001
-7.3377481e-05
-0.0032028502
6.264178e-05
-0.0035834071
0.00031417784
-0.0040112122
0.00075340862
-0.0044828435
0.0014937702
-0.0049820729
0.002711095
-0.0054724267
0.0046794298
-0.0058888966
0.0078124627
-0.0061091822
0.012633747
-0.0058912309
0.019574265
-0.004868977
0.028596923
-0.0026910299
0.038762975
0.00091080571
0.047284271
0.0073774943
0.04557785
0.019989852
0.0090387523
0.03745608
-0.073402009
0.05335878
-0.15488019
-0.18047939
0.060801299
-1.0495602e-08
8.0233074e-09
-4.6718378e-08
2.8019363e-08
-1.1728628e-07
5.4704819e-08
-2.331035e-07
8.9200263e-08
-4.0790827e-07
1.3263591e-07
-6.5895726e-07
1.8609115e-07
-1.0078264e-06
2.5051127e-07
-1.4814023e-06
3.2660049e-07
-2.1130719e-06
4.1468642e-07
-2.9441483e-06
5.1455792e-07
-4.0255695e-06
6.2527572e-07
-5.4199042e-06
7.4496659e-07
-7.2037049e-06
8.7061344e-07
-9.4702376e-06
9.9787e-07
-1.2332611e-05
1.120939e-06
-1.5927313e-05
1.2325791e-06
-2.0418135e-05
1.3243242e-06
-2.6000421e-05
1.3870379e-06
-3.2905538e-05
1.4119502e-06
-4.1405361e-05
1.3923551e-06
-5.1816506e-05
1.3261563e-06
-6.4503853e-05
1.2194143e-06
-7.9882793e-05
1.0909392e-06
-9.8419387e-05
9.7772368e-07
-0.00012062741
9.4055129e-07
-0.00014706099
1.0683435e-06
-0.00017830132
1.4786655e-06
-0.00021493601
2.31035e-06
-0.00025753004
3.7029569e-06
-0.00030658942
5.7582767e-06
-0.00036252295
8.4848059e-06
-0.00042561488
1.1741544e-05
-0.00049602851
1.5220226e-05
-0.00057385688
1.8509719e-05
-0.00065921263
2.1233503e-05
-0.00075231985
2.316866e-05
-0.00085357046
2.426036e-05
-0.00096353989
2.455423e-05
-0.001082983
2.4133425e-05
-0.0012128332
2.3117455e-05
-0.0013542189
2.1739514e-05
-0.0015084995
2.0516952e-05
-0.0016773227
2.0553175e-05
-0.0018627023
2.4061087e-05
-0.0020670961
3.5124077e-05
-0.0022933674
6.0546242e-05
-0.0025446669
0.00011150226
-0.0028241733
0.00020612899
-0.0031343883
0.00037285671
-0.0034757481
0.00065553768
-0.0038441057
0.0011217662
-0.0042262871
0.0018759517
-0.004592121
0.0030769289
-0.0048876245
0.0049749334
-0.0050263986
0.0079512367
-0.0048179508
0.012425299
-0.0039229417
0.018679256
-0.0019008546
0.026574836
0.0016744706
0.03518765
0.0072305872
0.041728154
0.016860355
0.035948082
0.032672169
-0.0067730614
0.050855722
-0.091585563
0.065296771
-0.16932124
-0.18728287
0.072100247
-1.0079585e-08
1.8102892e-08
-4.486444e-08
6.2804218e-08
-1.1263396e-07
1.2247434e-07
-2.2387605e-07
2.0044236e-07
-3.9182057e-07
3.0058043e-07
-6.3309222e-07
4.273628e-07
-9.685065e-07
5.8592556e-07
-1.4240346e-06
7.821286e-07
-2.0319689e-06
1.0226207e-06
-2.8323219e-06
1.3149109e-06
-3.8744956e-06
1.6674494e-06
-5.2192601e-06
2.0897311e-06
-6.9410783e-06
2.5924317e-06
-9.1308107e-06
3.1876024e-06
-1.1898825e-05
3.8889535e-06
-1.5378525e-05
4.7122791e-06
-1.9730278e-05
5.6760767e-06
-2.5145693e-05
6.8024531e-06
-3.1852151e-05
8.1184078e-06
-4.0117393e-05
9.657598e-06
-5.0253909e-05
1.1462672e-05
-6.26227e-05
1.3588205e-05
-7.7635858e-05
1.6104097e-05
-9.5757189e-05
1.9099054e-05
-0.00011749987
2.2683235e-05
-0.00014341991
2.6988383e-05
-0.00017410389
3.2162644e-05
-0.00021014952
3.8355975e-05
-0.00025213786
4.5691305e-05
-0.00030059781
5.4218223e-05
-0.00035596697
6.3853968e-05
-0.00041856025
7.4334815e-05
-0.0004885645
8.5224483e-05
-0.00056607757
9.6022782e-05
-0.0006511901
0.00010634603
-0.00074407883
0.00011605739
-0.00084507065
0.00012525219
-0.00095466352
0.0001341471
-0.0010735201
0.00014299004
-0.0012024576
0.00015205487
-0.0013424466
0.00016172853
-0.0014946239
0.00017269431
-0.001660313
0.00018624227
-0.0018410492
0.00020479727
-0.0020385784
0.00023265332
-0.0022547046
0.00027667239
-0.0024910043
0.00034780195
-0.0027483017
0.00046342645
-0.0030255942
0.00065014913
-0.0033181508
0.0009480943
-0.0036143275
0.0014179429
-0.0038899369
0.002151561
-0.0040998324
0.0032868245
-0.0041685915
0.0050436924
-0.003963992
0.0077466373
-0.0031944429
0.01165575
-0.0014339251
0.016918738
0.0018187957
0.023322115
0.0069877287
0.030018717
0.014723372
0.03399251
0.027431626
0.023239828
0.045929252
-0.025270687
0.064678144
-0.11033446
0.076799099
-0.18144219
-0.19275994
0.082276168
-9.5131538e-09
2.7616046e-08
-4.2344143e-08
9.5635207e-08
-1.0631449e-07
1.8644468e-07
-2.1134264e-07
3.0547051e-07
-3.6995501e-07
4.5919281e-07
-5.9791277e-07
6.5532056e-07
-9.1497654e-07
9.0298932e-07
-1.3458366e-06
1.2129887e-06
-1.9212385e-06
1.5980225e-06
-2.6793377e-06
2.0730102e-06
-3.6673205e-06
2.6554322e-06
-4.9433308e-06
3.3657414e-06
-6.5787379e-06
4.2278388e-06
-8.6607893e-06
5.2696538e-06
-1.1295668e-05
6.5238324e-06
-1.4611978e-05
8.028589e-06
-1.8764645e-05
9.8287432e-06
-2.3939193e-05
1.1977001e-05
-3.0356306e-05
1.4535521e-05
-3.8276511e-05
1.7577803e-05
-4.8004729e-05
2.119089e-05
-5.9894306e-05
2.5477783e-05
-7.4350001e-05
3.0559793e-05
-9.1829191e-05
3.6578243e-05
-0.00011284033
4.3694372e-05
-0.00013793748
5.2085536e-05
-0.00016770947
6.1934634e-05
-0.0002027621
7.3408609e-05
-0.00024369218
8.662138e-05
-0.00029105323
0.00010157927
-0.00034531593
0.00011811667
-0.00040683204
0.00013585093
-0.00047581853
0.00015421097
-0.00055238149
0.00017258574
-0.0006365865
0.00019055105
-0.00072855157
0.00020802246
-0.00082851995
0.00022522056
-0.00093688833
0.00024251548
-0.0010541992
0.00026030093
-0.0011811198
0.0002789755
-0.0013184227
0.00029903142
-0.0014669703
0.00032124186
-0.0016276956
0.00034696758
-0.0018015666
0.00037866821
-0.0019894902
0.00042057692
-0.002192054
0.00047923624
-0.0024090358
0.00056478379
-0.0026385877
0.0006929783
-0.0028757475
0.00088730891
-0.003109968
0.0011823148
-0.0033211455
0.0016291204
-0.0034725466
0.0023029621
-0.0035016505
0.0033159284
-0.0033044717
0.0048465136
-0.0026685892
0.0071107548
-0.0011975821
0.010184743
0.0015925051
0.014128651
0.0062016506
0.01871297
0.012971067
0.0232493
0.022923205
0.024040373
0.038535808
0.0076272251
0.059389374
-0.046124253
0.078159456
-0.12910454
0.087389695
-0.19067243
-0.19605401
0.090683762
-8.8057322e-09
3.6421778e-08
-3.9199207e-08
1.2602868e-07
-9.8430973e-08
2.4567645e-07
-1.9570683e-07
4.0274637e-07
-3.4266958e-07
6.0615555e-07
-5.5399032e-07
8.666413e-07
-8.4809243e-07
1.1970914e-06
-1.2480348e-06
1.612931e-06
-1.7825816e-06
2.1325694e-06
-2.4874964e-06
2.7779249e-06
-3.4070928e-06
3.5750286e-06
-4.5960839e-06
4.5547325e-06
-6.1217715e-06
5.7535264e-06
-8.0666089e-06
7.2144912e-06
-1.0531177e-05
8.9884008e-06
-1.3637588e-05
1.1135e-05
-1.753332e-05
1.3724475e-05
-2.2395459e-05
1.683914e-05
-2.8435262e-05
2.0575323e-05
-3.5902904e-05
2.5045445e-05
-4.509219e-05
3.0380176e-05
-5.634487e-05
3.6730463e-05
-7.0054086e-05
4.4269009e-05
-8.6666244e-05
5.3190402e-05
-0.00010668046
6.3708585e-05
-0.00013064438
7.6049458e-05
-0.00015914508
9.043533e-05
-0.00019279336
0.0001070569
-0.00023220016
0.00012602818
-0.00027794409
0.00014732321
-0.00033053195
0.00017070453
-0.00039035809
0.00019567707
-0.00045767676
0.00022152964
-0.00053260802
0.00024751699
-0.00061519204
0.00027313507
-0.00070547867
0.00029830909
-0.00080360945
0.00032335134
-0.00090985548
0.00034876151
-0.0010246102
0.00037505564
-0.0011483572
0.00040272251
-0.0012816299
0.00043230413
-0.0014249653
0.00046457723
-0.0015788404
0.00050084269
-0.0017435706
0.00054339842
-0.0019191116
0.00059611792
-0.0021046722
0.00066479686
-0.0022980123
0.00075812392
-0.0024942895
0.0008892555
-0.0026840866
0.001077106
-0.0028502775
0.0013485057
-0.0029630165
0.0017418594
-0.00297123
0.0023111756
-0.002789518
0.0031342164
-0.0022712779
0.0043282735
-0.0010996802
0.0059391571
0.0011920251
0.007893038
0.0050879247
0.010232751
0.010977278
0.012823616
0.019250762
0.014975817
0.031438748
0.011852387
0.050041568
-0.010975595
0.072893107
-0.068975792
0.090474733
-0.14668616
0.096381562
-0.19657926
-0.19682441
0.097151968
-7.9727096e-09
4.4394488e-08
-3.5494366e-08
1.5355034e-07
-8.9141374e-08
2.9932346e-07
-1.772766e-07
4.908816e-07
-3.104944e-07
7.3937335e-07
-5.0216893e-07
1.0583158e-06
-7.6912804e-07
1.4640505e-06
-1.1324754e-06
1.9762784e-06
-1.6185935e-06
2.6186875e-06
-2.2603567e-06
3.4196881e-06
-3.098593e-06
4.4132649e-06
-4.1838345e-06
5.6399741e-06
-5.5783969e-06
7.1480887e-06
-7.3588234e-06
8.9949177e-06
-9.6187427e-06
1.124832e-05
-1.2472154e-05
1.3988412e-05
-1.605716e-05
1.7309481e-05
-2.0540118e-05
2.1322098e-05
-2.6120175e-05
2.615538e-05
-3.3034048e-05
3.1959318e-05
-4.1560859e-05
3.8906987e-05
-5.2026745e-05
4.7196349e-05
-6.4808766e-05
5.705103e-05
-8.033753e-05
6.8719166e-05
-9.9097708e-05
8.2468763e-05
-0.00012162538
9.8577128e-05
-0.00014850089
0.00011731085
-0.00018033573
0.00013889173
-0.00021775169
0.00016344414
-0.00026135114
0.00019092266
-0.00031167819
0.00022103158
-0.00036917427
0.00025317315
-0.00043413828
0.00028649365
-0.00050671189
0.0003200906
-0.00058691281
0.000353336
-0.00067471633
0.00038611261
-0.00077014547
0.00041878048
-0.0008733213
0.00045193734
-0.00098445837
0.00048619271
-0.001103822
0.00052208617
-0.0012316652
0.0005601473
-0.001368148
0.00060106004
-0.0015132261
0.00064592074
-0.0016664783
0.00069665068
-0.0018268009
0.00075644052
-0.001991858
0.00082985388
-0.002157162
0.00092342792
-0.0023145161
0.0010466096
-0.0024494489
0.0012120388
-0.0025372263
0.0014362831
-0.0025364411
0.0017410743
-0.0023792426
0.0021539771
-0.0019514276
0.0027064014
-0.0010382503
0.0034150962
0.000773707
0.0041271998
0.0039393813
0.0047273636
0.0088391909
0.0053329416
0.01583817
0.0058246366
0.025720727
0.00509326
0.040530507
-0.002957393
0.06228861
-0.032733699
0.086148336
-0.092835517
0.10065667
-0.1611945
0.1030734
-0.19899598
-0.19578192
0.10203091
-7.0333058e-09
5.1427794e-08
-3.1316483e-08
1.7783352e-07
-7.866455e-08
3.4667152e-07
-1.5648639e-07
5.6870344e-07
-2.7418764e-07
8.570746e-07
-4.4366826e-07
1.2277965e-06
-6.7993673e-07
1.700319e-06
-1.0018619e-06
2.2982036e-06
-1.433094e-06
3.0499196e-06
-2.0031817e-06
3.9897758e-06
-2.7489282e-06
5.1590115e-06
-3.716015e-06
6.6070608e-06
-4.9609462e-06
8.39302e-06
-6.5533487e-06
1.058732e-05
-8.5786697e-06
1.3273641e-05
-1.1141307e-05
1.6551049e-05
-1.4368186e-05
2.053636e-05
-1.8412794e-05
2.5366706e-05
-2.3459618e-05
3.1202205e-05
-2.9728915e-05
3.8228615e-05
-3.7481645e-05
4.6659716e-05
-4.7024313e-05
5.6739018e-05
-5.8713361e-05
6.8740078e-05
-7.2958539e-05
8.2964344e-05
-9.0224572e-05
9.9734796e-05
-0.00011103012
0.00011938267
-0.00013594285
0.00014222358
-0.00016556913
0.00016851801
-0.00020053655
0.00019841156
-0.00024146752
0.00023185362
-0.00028894219
0.00026850625
-0.00034345132
0.00030768228
-0.00040534495
0.00034838728
-0.00047479542
0.00038954107
-0.00055180447
0.00043034505
-0.00063627029
0.00047057843
-0.00072808307
0.00051059327
-0.00082718958
0.00055104385
-0.00093359475
0.00059259788
-0.0010473093
0.00063580075
-0.0011682627
0.00068110072
-0.001296185
0.00072898232
-0.0014304426
0.00078017828
-0.0015697909
0.00083599907
-0.0017119456
0.00089859517
-0.001852848
0.00097075633
-0.001985494
0.0010560739
-0.002097878
0.0011589936
-0.0021696606
0.0012838213
-0.0021669369
0.0014335594
-0.0020340871
0.0016082245
-0.0016819942
0.0018018842
-0.00095862664
0.0019830338
0.00043855124
0.0020179184
0.0029395513
0.0016261998
0.0068889134
0.00077800152
0.012662903
-0.00044104797
0.020899898
-0.0024123585
0.03291607
-0.0069229122
0.051053933
-0.021095256
0.075703105
-0.057382871
0.098201598
-0.11533401
0.10785956
-0.17085246
0.10738775
-0.19852418
-0.19430363
0.10590946
-6.0128349e-09
5.7440629e-08
-2.6777858e-08
1.9859854e-07
-6.7281947e-08
3.8717561e-07
-1.3389427e-07
6.3531577e-07
-2.3472227e-07
9.579026e-07
-3.8005276e-07
1.3731269e-06
-5.8289785e-07
1.9031641e-06
-8.5966866e-07
2.5749744e-06
-1.231001e-06
3.421252e-06
-1.7227656e-06
4.4815404e-06
-2.3672945e-06
5.8035404e-06
-3.2048671e-06
7.4446334e-06
-4.285488e-06
9.4736409e-06
-5.6710151e-06
1.1972847e-05
-7.4376605e-06
1.5040286e-05
-9.6789254e-06
1.8792314e-05
-1.2508987e-05
2.3366422e-05
-1.6066543e-05
2.8924262e-05
-2.0519112e-05
3.5654774e-05
-2.6067725e-05
4.3777228e-05
-3.2951897e-05
5.3543888e-05
-4.1454646e-05
6.5241768e-05
-5.1907308e-05
7.9192739e-05
-6.4693638e-05
9.5750674e-05
-8.0252595e-05
0.00011529375
-9.9078985e-05
0.00013820906
-0.00012172084
0.00016486543
-0.00014877214
0.00019556932
-0.0001808591
0.00023049853
-0.00021861768
0.00026961219
-0.0002626595
0.00031254808
-0.00031352361
0.0003585464
-0.00037161536
0.00040647903
-0.00043714694
0.00045507264
-0.0005101138
0.00050331191
-0.0005903392
0.00055080383
-0.00067756965
0.00059782372
-0.00077155432
0.00064502852
-0.00087205633
0.00069309989
-0.00097879299
0.00074253742
-0.0010913234
0.00079363114
-0.0012088893
0.00084654825
-0.0013301919
0.00090148084
-0.001453061
0.00095886815
-0.0015738798
0.001019414
-0.0016866484
0.0010835249
-0.0017814775
0.001150903
-0.0018419033
0.0012194194
-0.0018404929
0.001282411
-0.0017317687
0.0013248352
-0.0014418829
0.0013183387
-0.00085316423
0.0012131655
0.00023547578
0.00089439382
0.002174088
7.9306115e-05
0.0053279746
-0.0015276868
0.010046034
-0.0039400581
0.016956698
-0.0073517114
0.02711133
-0.012566991
0.042249617
-0.022061198
0.064145539
-0.042991178
0.089571859
-0.082809191
0.10705088
-0.13281303
0.11155865
-0.17536023
0.10986366
-0.19682918
-0.193793
0.10935303
-4.9428144e-09
6.2383443e-08
-2.20184e-08
2.1567412e-07
-5.5343513e-08
4.2050073e-07
-1.1019371e-07
6.9016597e-07
-1.933072e-07
1.0410161e-06
-3.1326679e-07
1.4930865e-06
-4.8097117e-07
2.0708685e-06
-7.102219e-07
2.8042251e-06
-1.0184467e-06
3.7294768e-06
-1.4275881e-06
4.8906818e-06
-1.9651924e-06
6.3411446e-06
-2.6657296e-06
8.1451706e-06
-3.5721947e-06
1.0380106e-05
-4.7380262e-06
1.3138679e-05
-6.2293895e-06
1.653165e-05
-8.1278724e-06
2.0690797e-05
-1.0533624e-05
2.5772173e-05
-1.3568971e-05
3.1959609e-05
-1.7382514e-05
3.9468316e-05
-2.2153664e-05
4.8548378e-05
-2.8097561e-05
5.9487785e-05
-3.5470212e-05
7.2614419e-05
-4.4573606e-05
8.8296133e-05
-5.5760458e-05
0.00010693753
-6.9438051e-05
0.00012897135
-8.6070474e-05
0.00015484149
-0.0001061783
0.00018497325
-0.00013033439
0.00021972541
-0.00015915417
0.00025931831
-0.00019327764
0.00030373565
-0.00023333931
0.00035260975
-0.00027992094
0.00040512803
-0.00033348331
0.00046004139
-0.0003942858
0.00051587514
-0.00046232909
0.0005713552
-0.00053736846
0.00062584319
-0.00061900043
0.00067945569
-0.00070675495
0.00073278304
-0.00080011948
0.00078646442
-0.00089847441
0.00084089234
-0.0010009545
0.00089611127
-0.0011062439
0.0009518376
-0.0012122846
0.0010075215
-0.0013158424
0.001062426
-0.0014117557
0.0011153272
-0.0014917601
0.0011635294
-0.0015425062
0.0012016491
-0.0015420178
0.001218931
-0.0014537544
0.0011941475
-0.0012170326
0.0010881134
-0.00073443861
0.00083574469
0.00014712087
0.00033160606
0.0016756963
-0.00063418163
0.0042103257
-0.0024553233
0.0081683912
-0.0054857524
0.014151409
-0.009923076
0.023123127
-0.016323429
0.036354358
-0.025798222
0.055313125
-0.041019966
0.079272233
-0.066950286
0.100822
-0.10435896
0.11158197
-0.143573
0.11316977
-0.17694803
0.11141759
-0.19507701
-0.19492139
0.11254598
-3.8591329e-09
6.6242576e-08
-1.719742e-08
2.2901241e-07
-4.3248751e-08
4.4655206e-07
-8.6176312e-08
7.3309353e-07
-1.5132512e-07
1.1061649e-06
-2.4553762e-07
1.587299e-06
-3.7755101e-07
2.2028819e-06
-5.5849083e-07
2.9851649e-06
-8.0248621e-07
3.9734722e-06
-1.1274306e-06
5.2156262e-06
-1.5559169e-06
6.7696309e-06
-2.1163889e-06
8.7056426e-06
-2.8445364e-06
1.1108254e-05
-3.7849912e-06
1.4079134e-05
-4.9933592e-06
1.7740018e-05
-6.5386418e-06
2.2236079e-05
-8.5060896e-06
2.7739621e-05
-1.1000534e-05
3.4454053e-05
-1.4150196e-05
4.2617979e-05
-1.8111007e-05
5.250919e-05
-2.3071369e-05
6.4448147e-05
-2.9257277e-05
7.8800327e-05
-3.6937633e-05
9.5976489e-05
-4.6429447e-05
0.00011642934
-5.810259e-05
0.00014064449
-7.2383436e-05
0.00016912233
-8.975666e-05
0.00020234648
-0.00011076406
0.00024073281
-0.00013599872
0.00028455297
-0.00016609191
0.00033382884
-0.00020168797
0.00038820581
-0.00024340011
0.00044684017
-0.00029173859
0.00050837987
-0.00034701278
0.00057114933
-0.00040923926
0.00063358168
-0.00047811593
0.00069471986
-0.00055308824
0.000754428
-0.00063344759
0.00081314238
-0.00071836962
0.00087138646
-0.00080684702
0.00092936974
-0.00089752304
0.00098678729
-0.00098843273
0.0010427473
-0.001076629
0.0010957178
-0.0011576074
0.0011434043
-0.0012243341
0.0011820539
-0.0012657301
0.0012049254
-0.0012639839
0.0011999028
-0.001189704
0.0011446512
-0.00099366114
0.00099810463
-0.00059416388
0.00068861613
0.00013729811
0.0001042827
0.0014009007
-0.00093199658
0.0035145583
-0.0027478392
0.0069492891
-0.0058900541
0.012394467
-0.010930931
0.020779254
-0.018307863
0.033114868
-0.028659042
0.050020686
-0.042704041
0.071028686
-0.062027965
0.092081384
-0.088002984
0.1064715
-0.11874907
0.11247129
-0.14957279
0.1133231
-0.17779984
0.11285022
-0.19460412
-0.19769406
0.11562289
-2.8031114e-09
6.9045687e-08
-1.2498739e-08
2.3870804e-07
-3.1458386e-08
4.655117e-07
-6.275721e-08
7.6439235e-07
-1.1037323e-07
1.1537809e-06
-1.7944035e-07
1.6563661e-06
-2.7656535e-07
2.3000069e-06
-4.102318e-07
3.1188314e-06
-5.9130051e-07
4.1545409e-06
-8.3363995e-07
5.4579656e-06
-1.154907e-06
7.0908979e-06
-1.5775127e-06
9.1282483e-06
-2.1298093e-06
1.166055e-05
-2.847542e-06
1.4796866e-05
-3.7756106e-06
1.8668086e-05
-4.9701911e-06
2.343066e-05
-6.5012596e-06
2.927069e-05
-8.4555848e-06
3.6408378e-05
-1.0940201e-05
4.5102595e-05
-1.4086406e-05
5.5655394e-05
-1.8054261e-05
6.8416003e-05
-2.3037561e-05
8.3783627e-05
-2.9269146e-05
0.00010220807
-3.7026403e-05
0.0001241866
-4.6636591e-05
0.00015025468
-5.8481643e-05
0.00018096738
-7.3001744e-05
0.00021686658
-9.0696774e-05
0.00025842784
-0.00011212418
0.00030598038
-0.0001378906
0.00035959526
-0.00016863248
0.00041894769
-0.0002049767
0.00048318438
-0.00024746929
0.00055087247
-0.00029646439
0.00062014444
-0.00035200008
0.00068911737
-0.00041372851
0.00075644829
-0.00048094766
0.00082164714
-0.00055269343
0.00088488816
-0.00062778955
0.00094648257
-0.00070477845
0.0010063586
-0.00078172233
0.0010637312
-0.00085587724
0.0011169022
-0.00092320721
0.0011630478
-0.0009776078
0.0011978049
-0.0010096284
0.0012140745
-0.0010043789
0.0011996759
-0.00093769975
0.0011332237
-0.00076915896
0.00097611041
-0.00043015795
0.00065910362
0.00019203127
6.642691e-05
0.0012773143
-0.00098100031
0.0031218184
-0.0027765007
0.0062264211
-0.0058524418
0.011375087
-0.01103872
0.01953576
-0.019091603
0.031498462
-0.030270566
0.04722477
-0.04438535
0.06555352
-0.061032791
0.08406347
-0.080537915
0.098909039
-0.10284855
0.10763618
-0.12747622
0.11163994
-0.15357655
0.11274947
-0.17890938
0.11408604
-0.19594069
-0.20199539
0.11838737
-1.8178319e-09
7.0863519e-08
-8.1146847e-09
2.4500489e-07
-2.0455755e-08
4.7785278e-07
-4.0896559e-08
7.8483316e-07
-7.213251e-08
1.1850169e-06
-1.1768691e-07
1.7019205e-06
-1.8215809e-07
2.3644781e-06
-2.7152706e-07
3.2082003e-06
-3.935532e-07
4.276567e-06
-5.5827171e-07
5.6226841e-06
-7.7862034e-07
7.3112466e-06
-1.0712179e-06
9.4208458e-06
-1.4573461e-06
1.2046678e-05
-1.9641437e-06
1.5303664e-05
-2.62609e-06
1.9330033e-05
-3.4868001e-06
2.429137e-05
-4.601209e-06
3.0385099e-05
-6.0381541e-06
3.7845323e-05
-7.8834754e-06
4.6947917e-05
-1.0243589e-05
5.8015507e-05
-1.3249619e-05
7.1422033e-05
-1.7062054e-05
8.7596061e-05
-2.1875858e-05
0.00010702188
-2.7925955e-05
0.0001302367
-3.5492871e-05
0.00015782159
-4.4908194e-05
0.00019038271
-5.6559439e-05
0.00022851782
-7.0893554e-05
0.00027276196
-8.8417834e-05
0.00032350466
-0.00010969592
0.00038087334
-0.00013533405
0.00044458583
-0.00016594809
0.00051379842
-0.00020209704
0.00058702142
-0.00024416321
0.0006622106
-0.00029220201
0.00073715617
-0.00034582509
0.00081007137
-0.00040419067
0.00088001273
-0.00046606293
0.00094676042
-0.00052986575
0.0010102854
-0.0005936094
0.0010701023
-0.00065464826
0.00112477
-0.00070926159
0.0011715155
-0.00075200062
0.0012057868
-0.00077461038
0.0012204147
-0.00076425598
0.0012037201
-0.00070038099
0.0011358009
-0.00054880677
0.00098164944
-0.00025089892
0.00067820256
0.00029376817
0.00011443653
0.0012521932
-0.00089199817
0.0029145447
-0.0026433518
0.0058022672
-0.0056642231
0.010771852
-0.010822026
0.018831133
-0.019098001
0.030519243
-0.030779714
0.045318398
-0.045069721
0.061561103
-0.060628054
0.077246839
-0.076718528
0.090416091
-0.093707167
0.099704747
-0.11213721
0.10573852
-0.13350999
0.11000835
-0.15784638
0.11253772
-0.18143875
0.11534783
-0.1987508
-0.20738862
0.12074106
-9.5181827e-10
7.1815338e-08
-4.2603003e-09
2.4831338e-07
-1.0779508e-08
4.8437198e-07
-2.1664072e-08
7.9571772e-07
-3.8470729e-08
1.2018235e-06
-6.3293562e-08
1.7267434e-06
-9.8936883e-08
2.4001214e-06
-1.4914221e-07
3.2584057e-06
-2.1888167e-07
4.3463065e-06
-3.1473062e-07
5.7185331e-06
-4.4534794e-07
7.4418639e-06
-6.2208303e-07
9.5975809e-06
-8.5973828e-07
1.2284334e-05
-1.1775352e-06
1.5621461e-05
-1.6003003e-06
1.9752798e-05
-2.1599443e-06
2.4851014e-05
-2.8972607e-06
3.1122415e-05
-3.8641276e-06
3.881219e-05
-5.1261126e-06
4.8209902e-05
-6.7656055e-06
5.9655e-05
-8.8854359e-06
7.3541864e-05
-1.1613057e-05
9.0323683e-05
-1.5105234e-05
0.00011051405
-1.9553206e-05
0.00013468467
-2.5188175e-05
0.00016345656
-3.2286938e-05
0.00019748147
-4.1177321e-05
0.0002374082
-5.2242878e-05
0.00028382751
-6.5925907e-05
0.00033718769
-8.2726837e-05
0.00039767427
-0.00010319561
0.0004650546
-0.00012790583
0.00053850864
-0.00015740113
0.00061651672
-0.00019206388
0.00069687335
-0.00023192483
0.00077701713
-0.00027657269
0.00085471922
-0.00032502185
0.00092846189
-0.00037574469
0.00099748326
-0.00042670119
0.0010612419
-0.00047525459
0.0011186557
-0.00051786053