/*--------------------------------*- C++ -*----------------------------------*\
  =========                 |
  \\      /  F ield         | OpenFOAM: The Open Source CFD Toolbox
   \\    /   O peration     | Website:  https://openfoam.org
    \\  /    A nd           | Version:  13
     \\/     M anipulation  |
\*---------------------------------------------------------------------------*/
FoamFile
{
    format      ascii;
    class       volScalarField;
    location    "37.600743";
    object      p;
}
// * * * * * * * * * * * * * * * * * * * * * * * * * * * * * * * * * * * * * //

dimensions      [0 2 -2 0 0 0 0];

internalField   nonuniform List<scalar> 
17140
(
-0.28463667
-0.28464386
-0.28465238
-0.28466146
-0.28467142
-0.2846824
-0.28469449
-0.28470776
-0.2847223
-0.28473821
-0.28475557
-0.28477448
-0.284795
-0.28481722
-0.28484119
-0.28486695
-0.28489453
-0.28492394
-0.28495516
-0.28498819
-0.285023
-0.28505962
-0.28509819
-0.28513903
-0.28518279
-0.28523078
-0.2852853
-0.28535027
-0.28543213
-0.2855408
-0.28569049
-0.2858993
-0.28618632
-0.28656591
-0.28704083
-0.28759816
-0.28821076
-0.288843
-0.2894581
-0.29002403
-0.2905172
-0.29092457
-0.29124163
-0.29147069
-0.29162797
-0.29173038
-0.29178299
-0.29179253
-0.29175555
-0.29166263
-0.29146324
-0.29111686
-0.29045894
-0.2894127
-0.2875765
-0.28509287
-0.28109232
-0.27676723
-0.2693691
-0.26725133
-0.26179722
-0.2609989
-0.20951033
-0.14040272
-0.078091522
-0.28531336
-0.28532056
-0.28532931
-0.28533834
-0.28534823
-0.28535916
-0.28537119
-0.2853844
-0.28539888
-0.28541471
-0.285432
-0.28545082
-0.28547125
-0.28549337
-0.28551722
-0.28554286
-0.2855703
-0.28559956
-0.28563063
-0.28566349
-0.28569815
-0.28573463
-0.28577308
-0.28581385
-0.28585765
-0.28590582
-0.28596073
-0.28602644
-0.28610948
-0.28621993
-0.28637217
-0.28658449
-0.2868762
-0.28726193
-0.28774479
-0.2883124
-0.28893827
-0.28958767
-0.29022493
-0.29081939
-0.2913492
-0.29180345
-0.29218035
-0.292486
-0.29274126
-0.29296854
-0.29318053
-0.29339378
-0.293617
-0.29385542
-0.29407529
-0.29425063
-0.29421788
-0.29387776
-0.29269349
-0.29054933
-0.28588117
-0.27928247
-0.26656615
-0.25602571
-0.2373912
-0.22496995
-0.1723343
-0.11886924
-0.075518702
-0.28606725
-0.28607431
-0.28608287
-0.28609174
-0.28610145
-0.28611219
-0.28612401
-0.28613699
-0.28615122
-0.28616679
-0.28618378
-0.28620228
-0.28622237
-0.2862441
-0.28626755
-0.28629275
-0.28631972
-0.28634848
-0.28637901
-0.28641131
-0.28644538
-0.28648126
-0.28651912
-0.28655932
-0.2866026
-0.28665035
-0.28670499
-0.28677061
-0.28685383
-0.28696477
-0.28711784
-0.28733133
-0.28762464
-0.28801262
-0.28849887
-0.28907178
-0.28970585
-0.2903676
-0.29102269
-0.29164204
-0.29220567
-0.29270491
-0.2931407
-0.29352328
-0.29387803
-0.29423303
-0.29460923
-0.29503374
-0.29552843
-0.29611499
-0.29677879
-0.29751293
-0.29816129
-0.2986045
-0.29817443
-0.29648948
-0.29124709
-0.28224572
-0.26405177
-0.24439044
-0.21333946
-0.18897725
-0.13468394
-0.095431724
-0.070727924
-0.28689607
-0.28690289
-0.28691113
-0.2869197
-0.28692911
-0.2869395
-0.28695095
-0.28696353
-0.28697731
-0.2869924
-0.28700887
-0.28702681
-0.28704628
-0.28706736
-0.28709009
-0.28711452
-0.28714067
-0.28716855
-0.28719816
-0.28722948
-0.28726252
-0.28729735
-0.28733412
-0.28737323
-0.28741544
-0.28746215
-0.28751581
-0.28758054
-0.28766292
-0.28777302
-0.28792513
-0.28813737
-0.28842908
-0.28881528
-0.28930017
-0.28987314
-0.29051007
-0.29117898
-0.29184718
-0.29248734
-0.2930815
-0.29362324
-0.29411636
-0.29457536
-0.29503016
-0.29551451
-0.29605825
-0.29669981
-0.29747521
-0.29842469
-0.299555
-0.30088355
-0.30226902
-0.30357845
-0.30402153
-0.30294726
-0.29743189
-0.28581602
-0.26168562
-0.23254419
-0.18974101
-0.15461987
-0.099383897
-0.072553653
-0.065606329
-0.28779606
-0.28780253
-0.28781032
-0.28781849
-0.28782744
-0.28783734
-0.28784825
-0.28786024
-0.28787339
-0.28788778
-0.28790349
-0.28792061
-0.28793919
-0.28795931
-0.28798101
-0.28800434
-0.28802931
-0.28805593
-0.28808421
-0.28811413
-0.2881457
-0.288179
-0.28821419
-0.28825168
-0.28829224
-0.28833729
-0.28838928
-0.28845228
-0.2885328
-0.28864073
-0.28879006
-0.28899863
-0.28928551
-0.28966582
-0.29014447
-0.29071211
-0.29134631
-0.29201692
-0.29269314
-0.2933496
-0.29397045
-0.29455162
-0.29509974
-0.29563376
-0.29618793
-0.29680183
-0.29751461
-0.29837668
-0.2994391
-0.30076264
-0.30237868
-0.30433425
-0.30650801
-0.30876427
-0.31020185
-0.30989523
-0.30409987
-0.28998517
-0.25979499
-0.22054214
-0.16680547
-0.12290615
-0.068009369
-0.053590087
-0.062114006
-0.28876138
-0.2887674
-0.28877462
-0.28878224
-0.2887906
-0.28879986
-0.28881006
-0.28882127
-0.28883358
-0.28884706
-0.28886178
-0.28887782
-0.28889524
-0.28891411
-0.28893446
-0.28895634
-0.28897977
-0.28900476
-0.2890313
-0.28905939
-0.28908905
-0.28912035
-0.28915347
-0.28918882
-0.28922718
-0.28926997
-0.28931959
-0.28938005
-0.28945769
-0.28956213
-0.28970695
-0.28990945
-0.29018832
-0.2905587
-0.29102624
-0.2915831
-0.29220882
-0.29287543
-0.29355428
-0.29422211
-0.2948653
-0.29548214
-0.29608212
-0.29668875
-0.29734022
-0.29808219
-0.29896334
-0.3000465
-0.30139849
-0.30310239
-0.30521717
-0.3078254
-0.31082833
-0.31410475
-0.31666302
-0.31730389
-0.31145617
-0.2946732
-0.2579727
-0.20882074
-0.14458912
-0.093863532
-0.041197878
-0.039721785
-0.061215416
-0.28978407
-0.28978954
-0.28979606
-0.28980301
-0.28981066
-0.28981912
-0.28982845
-0.28983872
-0.28984999
-0.28986234
-0.28987584
-0.28989055
-0.28990654
-0.28992386
-0.28994256
-0.28996267
-0.2899842
-0.29000718
-0.29003159
-0.29005744
-0.29008475
-0.2901136
-0.29014417
-0.29017688
-0.2902125
-0.29025243
-0.29029902
-0.29035616
-0.29042997
-0.29052968
-0.29066832
-0.2908625
-0.29113034
-0.29148692
-0.29193863
-0.29247932
-0.2930908
-0.29374755
-0.29442335
-0.29509722
-0.29575786
-0.29640593
-0.29705383
-0.29772937
-0.29847455
-0.2993412
-0.30038743
-0.30168881
-0.30332815
-0.30541227
-0.30802996
-0.31130217
-0.31515883
-0.31951031
-0.32329819
-0.32504094
-0.31925815
-0.29967833
-0.25619027
-0.19613794
-0.1230396
-0.067570691
-0.019675145
-0.029694788
-0.06153698
-0.29085401
-0.29085886
-0.29086462
-0.29087079
-0.29087758
-0.29088511
-0.29089341
-0.29090256
-0.29091262
-0.29092364
-0.2909357
-0.29094885
-0.29096316
-0.29097866
-0.29099541
-0.29101343
-0.29103274
-0.29105335
-0.29107526
-0.29109847
-0.29112302
-0.29114898
-0.29117655
-0.29120614
-0.29123851
-0.29127502
-0.29131797
-0.29137106
-0.29144015
-0.29153399
-0.29166494
-0.29184876
-0.29210282
-0.292442
-0.29287343
-0.29339276
-0.29398429
-0.29462527
-0.29529213
-0.29596635
-0.29663901
-0.29731311
-0.29800406
-0.29874347
-0.29957717
-0.3005629
-0.30176797
-0.30328055
-0.3051992
-0.30765519
-0.31076758
-0.31469462
-0.31940348
-0.32485626
-0.32994633
-0.33288625
-0.32719089
-0.30455513
-0.25365456
-0.18383872
-0.10279891
-0.044629323
-0.0026374987
-0.023721479
-0.06157201
-0.29195911
-0.29196325
-0.29196818
-0.29197346
-0.29197929
-0.29198576
-0.29199291
-0.29200079
-0.29200946
-0.29201898
-0.2920294
-0.29204078
-0.29205317
-0.29206661
-0.29208114
-0.29209679
-0.29211357
-0.29213149
-0.29215056
-0.29217078
-0.29219219
-0.29221487
-0.29223902
-0.29226506
-0.29229372
-0.29232631
-0.29236504
-0.29241343
-0.29247701
-0.29256397
-0.29268589
-0.29285756
-0.29309545
-0.29341404
-0.29382115
-0.29431425
-0.29488033
-0.29549964
-0.2961515
-0.29682002
-0.29749871
-0.29819295
-0.29892098
-0.29971797
-0.30063315
-0.30172999
-0.30308422
-0.3047962
-0.30697909
-0.30978831
-0.31336925
-0.31791476
-0.32344193
-0.32997288
-0.3363677
-0.34042686
-0.33455147
-0.30838087
-0.25054037
-0.17167066
-0.0840867
-0.026175487
0.0083874965
-0.020356871
-0.058623423
-0.29308564
-0.293089
-0.29309302
-0.29309733
-0.2931021
-0.29310741
-0.29311328
-0.29311977
-0.29312692
-0.29313478
-0.29314341
-0.29315283
-0.29316311
-0.29317427
-0.29318636
-0.29319938
-0.29321337
-0.29322832
-0.29324425
-0.29326117
-0.2932791
-0.29329816
-0.29331853
-0.29334061
-0.29336514
-0.29339337
-0.29342737
-0.29347047
-0.29352782
-0.29360704
-0.2937188
-0.29387683
-0.29409652
-0.29439184
-0.2947711
-0.29523356
-0.29576901
-0.29636088
-0.29699158
-0.29764803
-0.29832624
-0.29903392
-0.29979209
-0.30063892
-0.30162651
-0.30282393
-0.30431385
-0.306208
-0.30863197
-0.31176254
-0.31576133
-0.3208571
-0.32712877
-0.33464518
-0.34220132
-0.34708383
-0.34037793
-0.31039378
-0.24599244
-0.16080837
-0.071025541
-0.014458375
0.012662183
-0.020293525
-0.055242512
-0.29421812
-0.29422067
-0.29422371
-0.294227
-0.29423064
-0.2942347
-0.29423922
-0.29424422
-0.29424975
-0.29425584
-0.29426253
-0.29426987
-0.29427789
-0.29428661
-0.29429607
-0.29430628
-0.29431727
-0.29432904
-0.29434159
-0.29435495
-0.29436915
-0.2943843
-0.29440058
-0.2944184
-0.29443845
-0.29446192
-0.29449076
-0.29452807
-0.29457861
-0.29464935
-0.29475006
-0.29489329
-0.29509324
-0.29536313
-0.29571162
-0.29613961
-0.29663965
-0.29719851
-0.29780188
-0.29843964
-0.29911032
-0.29982396
-0.30060432
-0.30149156
-0.30254051
-0.3038252
-0.30543321
-0.30748623
-0.31011877
-0.31352005
-0.31785802
-0.32340885
-0.33030579
-0.33861138
-0.34698206
-0.35207537
-0.34343633
-0.30920355
-0.2411184
-0.15664314
-0.071929097
-0.020183982
0.0042587157
-0.020036127
-0.05586015
-0.29534079
-0.29534249
-0.29534453
-0.29534675
-0.29534923
-0.29535201
-0.29535511
-0.29535857
-0.29536241
-0.29536666
-0.29537135
-0.29537651
-0.29538217
-0.29538835
-0.29539507
-0.29540234
-0.29541019
-0.29541861
-0.29542762
-0.29543724
-0.2954475
-0.29545852
-0.29547048
-0.29548376
-0.29549903
-0.29551739
-0.29554068
-0.29557173
-0.2956149
-0.29567651
-0.29576537
-0.29589287
-0.29607188
-0.2963147
-0.29663016
-0.29702048
-0.29748092
-0.29800154
-0.29857149
-0.2991837
-0.29983933
-0.3005507
-0.30134404
-0.30226079
-0.30335802
-0.30471361
-0.30641761
-0.30859984
-0.31139668
-0.3149951
-0.31957068
-0.32543731
-0.33277626
-0.34154333
-0.35018451
-0.35421056
-0.34248895
-0.30392427
-0.23506149
-0.15504414
-0.079877737
-0.035213827
-0.01191352
-0.026509061
-0.05710014
-0.29643647
-0.29643732
-0.29643836
-0.29643951
-0.29644082
-0.29644232
-0.29644401
-0.29644591
-0.29644805
-0.29645045
-0.29645312
-0.29645608
-0.29645935
-0.29646295
-0.29646689
-0.29647118
-0.29647583
-0.29648085
-0.29648624
-0.29649203
-0.29649825
-0.29650501
-0.2965125
-0.29652107
-0.29653134
-0.29654434
-0.29656175
-0.29658616
-0.29662151
-0.29667351
-0.29675
-0.29686154
-0.29701915
-0.29723369
-0.29751437
-0.29786435
-0.29828143
-0.2987589
-0.29928937
-0.29986901
-0.30050156
-0.30120166
-0.30199745
-0.30293136
-0.3040616
-0.30546836
-0.30724147
-0.30951659
-0.31241519
-0.31611162
-0.32079984
-0.32682165
-0.33432926
-0.34316728
-0.35104134
-0.35274375
-0.33672379
-0.29451551
-0.22754448
-0.15575161
-0.090086439
-0.04950774
-0.026490725
-0.035394421
-0.055160547
-0.29749045
-0.29749048
-0.29749055
-0.29749067
-0.29749084
-0.29749108
-0.29749139
-0.29749179
-0.29749227
-0.29749285
-0.29749354
-0.29749435
-0.29749528
-0.29749635
-0.29749755
-0.29749889
-0.29750038
-0.29750202
-0.29750381
-0.29750577
-0.29750794
-0.29751042
-0.29751337
-0.29751713
-0.29752225
-0.29752968
-0.29754093
-0.29755832
-0.29758536
-0.29762713
-0.2976902
-0.29778496
-0.29791948
-0.29810479
-0.29835004
-0.29865808
-0.29902904
-0.29945915
-0.29994448
-0.30048444
-0.30108549
-0.30176452
-0.30255092
-0.30348792
-0.30463351
-0.30606813
-0.30787865
-0.31020015
-0.31311718
-0.31680529
-0.32147065
-0.32743149
-0.3348017
-0.34300801
-0.34908972
-0.34709325
-0.32595334
-0.2825631
-0.22000231
-0.15669701
-0.098971188
-0.062225561
-0.039536221
-0.041868415
-0.056051286
-0.29848614
-0.29848542
-0.29848459
-0.29848374
-0.29848286
-0.29848194
-0.29848096
-0.29847994
-0.29847888
-0.29847776
-0.29847659
-0.29847537
-0.29847409
-0.29847276
-0.29847137
-0.29846991
-0.29846837
-0.29846677
-0.29846509
-0.29846333
-0.29846154
-0.29845979
-0.29845821
-0.29845709
-0.29845692
-0.2984585
-0.29846314
-0.29847288
-0.29849073
-0.29852112
-0.29856726
-0.2986537
-0.2987726
-0.29892126
-0.29912894
-0.29939225
-0.29971389
-0.30009229
-0.30052668
-0.3010196
-0.3015802
-0.3022274
-0.30299121
-0.30391512
-0.30505553
-0.30648975
-0.30830085
-0.31060416
-0.31344593
-0.31700216
-0.32146702
-0.3271329
-0.33396451
-0.34078071
-0.34403481
-0.3368377
-0.31187146
-0.26984856
-0.21289503
-0.1572289
-0.10638959
-0.072278772
-0.050497404
-0.048468238
-0.056529968
-0.29941372
-0.29941232
-0.2994107
-0.299409
-0.29940718
-0.29940522
-0.2994031
-0.29940082
-0.29939836
-0.29939572
-0.29939289
-0.29938984
-0.29938657
-0.29938306
-0.29937931
-0.2993753
-0.29937101
-0.29936643
-0.29936155
-0.29935636
-0.29935088
-0.29934516
-0.29933931
-0.29933355
-0.2993283
-0.29932424
-0.29932251
-0.29932483
-0.29933383
-0.29935384
-0.29938769
-0.29944232
-0.29953015
-0.29965643
-0.2998316
-0.30005159
-0.30032342
-0.30064745
-0.30102596
-0.30146467
-0.30197543
-0.30257893
-0.3033051
-0.30419687
-0.3053074
-0.30670921
-0.30847258
-0.31067675
-0.31334376
-0.31665473
-0.32076606
-0.32585357
-0.33169722
-0.3363559
-0.33509051
-0.32287975
-0.29665484
-0.25602529
-0.20742583
-0.15698476
-0.11211369
-0.080640141
-0.05947138
-0.054049229
-0.05763086
-0.30026085
-0.3002589
-0.30025662
-0.30025422
-0.30025163
-0.3002488
-0.30024573
-0.3002424
-0.30023878
-0.30023487
-0.30023063
-0.30022604
-0.30022108
-0.30021574
-0.30020997
-0.30020377
-0.3001971
-0.30018994
-0.30018225
-0.30017401
-0.30016522
-0.30015588
-0.30014606
-0.3001359
-0.3001257
-0.30011599
-0.30010769
-0.30010223
-0.30010178
-0.30010911
-0.30013399
-0.30016753
-0.30022605
-0.30032214
-0.30045363
-0.30063067
-0.30085064
-0.30111704
-0.30143451
-0.30181148
-0.30226214
-0.3028085
-0.30348021
-0.30431679
-0.3053674
-0.30669711
-0.30834387
-0.31036084
-0.31276401
-0.31565346
-0.31915539
-0.32362028
-0.32784736
-0.32896524
-0.3229336
-0.30784627
-0.28080899
-0.24445812
-0.200468
-0.15663862
-0.11652021
-0.087335859
-0.066790723
-0.059041028
-0.058829999
-0.30102329
-0.30102094
-0.30101817
-0.30101525
-0.30101209
-0.30100862
-0.30100484
-0.30100072
-0.30099623
-0.30099134
-0.30098603
-0.30098026
-0.30097401
-0.30096723
-0.3009599
-0.30095197
-0.30094341
-0.30093416
-0.30092417
-0.30091341
-0.3009018
-0.30088932
-0.30087596
-0.30086175
-0.30084686
-0.30083162
-0.30081667
-0.30080307
-0.30079257
-0.30078757
-0.30079337
-0.30080871
-0.30084346
-0.30091157
-0.30100202
-0.30112819
-0.30129227
-0.30149652
-0.301747
-0.30205389
-0.30243287
-0.30290645
-0.30350134
-0.30425453
-0.30520753
-0.30641073
-0.30785375
-0.30961833
-0.31159369
-0.31407016
-0.31705665
-0.32029334
-0.32195772
-0.31856845
-0.30961347
-0.29249056
-0.26603228
-0.23370485
-0.19466926
-0.15565271
-0.11969195
-0.092619819
-0.07278165
-0.06303552
-0.060047845
-0.30169659
-0.30169401
-0.30169097
-0.30168775
-0.30168425
-0.30168041
-0.3016762
-0.30167161
-0.30166659
-0.30166111
-0.30165514
-0.30164864
-0.30164156
-0.30163387
-0.30162551
-0.30161643
-0.30160657
-0.30159587
-0.30158424
-0.30157158
-0.30155781
-0.3015428
-0.30152644
-0.30150864
-0.30148935
-0.30146867
-0.30144687
-0.30142458
-0.30140292
-0.30138371
-0.30136993
-0.30136492
-0.30137208
-0.30140339
-0.30145633
-0.30153332
-0.3016405
-0.30177994
-0.30195827
-0.30218633
-0.30248034
-0.30286152
-0.30335271
-0.30398729
-0.30479795
-0.30580401
-0.30698475
-0.30840748
-0.31000293
-0.31224464
-0.31411198
-0.31548724
-0.31306343
-0.30730263
-0.29582473
-0.27690889
-0.25359341
-0.22351792
-0.18877843
-0.15419602
-0.12181446
-0.096649752
-0.077440725
-0.066468173
-0.061229053
-0.3022853
-0.30228269
-0.30227961
-0.30227635
-0.30227278
-0.30226887
-0.30226457
-0.30225987
-0.30225472
-0.30224908
-0.30224292
-0.30223619
-0.30222885
-0.30222083
-0.30221208
-0.30220253
-0.3021921
-0.3021807
-0.3021682
-0.30215447
-0.30213934
-0.3021226
-0.30210403
-0.30208335
-0.30206032
-0.30203472
-0.30200644
-0.30197562
-0.30194277
-0.301909
-0.30187625
-0.30184737
-0.30182592
-0.30181688
-0.30182468
-0.30185069
-0.30189775
-0.30196824
-0.3020678
-0.30220617
-0.30239841
-0.30266167
-0.30301321
-0.3034856
-0.30410336
-0.30484644
-0.30577466
-0.30688869
-0.30824389
-0.30945543
-0.30968449
-0.3078642
-0.30336693
-0.29506178
-0.28096232
-0.26435509
-0.2414668
-0.2144276
-0.1833981
-0.15235845
-0.12303032
-0.099582498
-0.081076385
-0.069141106
-0.062250543
-0.30279501
-0.30279259
-0.30278973
-0.30278669
-0.30278337
-0.30277971
-0.30277569
-0.30277128
-0.30276644
-0.30276113
-0.3027553
-0.30274892
-0.30274193
-0.30273425
-0.30272583
-0.30271658
-0.30270639
-0.30269514
-0.30268267
-0.30266878
-0.30265321
-0.30263567
-0.30261575
-0.30259302
-0.30256694
-0.30253695
-0.30250251
-0.30246317
-0.30241878
-0.30236962
-0.30231672
-0.30226201
-0.30220836
-0.30215954
-0.30211896
-0.30208893
-0.30207096
-0.3020663
-0.3020778
-0.30211151
-0.30217949
-0.30229034
-0.30247046
-0.30274197
-0.30312456
-0.30364846
-0.3044072
-0.30524642
-0.3058603
-0.30558318
-0.30346229
-0.29926702
-0.29294184
-0.28161021
-0.26878106
-0.25202901
-0.23093096
-0.2060694
-0.17803753
-0.15009634
-0.1234237
-0.10155177
-0.083697792
-0.071289123
-0.063093428
-0.30323861
-0.30323661
-0.30323425
-0.30323173
-0.30322897
-0.30322593
-0.30322258
-0.3032189
-0.30321484
-0.30321037
-0.30320545
-0.30320003
-0.30319404
-0.30318743
-0.3031801
-0.30317196
-0.30316288
-0.30315269
-0.30314119
-0.3031281
-0.30311308
-0.30309568
-0.30307536
-0.30305142
-0.30302303
-0.30298925
-0.30294901
-0.30290126
-0.30284507
-0.30277984
-0.30270559
-0.30262323
-0.30253468
-0.30244281
-0.30235054
-0.30225996
-0.30217124
-0.30208343
-0.30199451
-0.30190473
-0.30182029
-0.3017626
-0.30171882
-0.30178688
-0.30198418
-0.30243035
-0.30293253
-0.30312569
-0.30240112
-0.29999277
-0.29580203
-0.29025383
-0.28141377
-0.269843
-0.2574068
-0.24101599
-0.22107968
-0.1982358
-0.17284647
-0.14752029
-0.12313842
-0.10270544
-0.085520066
-0.072853224
-0.063699788
-0.30363332
-0.30363199
-0.30363041
-0.30362873
-0.30362689
-0.30362484
-0.30362258
-0.30362007
-0.3036173
-0.30361421
-0.30361079
-0.30360696
-0.30360268
-0.30359787
-0.30359243
-0.30358624
-0.30357915
-0.30357095
-0.30356136
-0.30355004
-0.30353653
-0.30352024
-0.30350041
-0.30347609
-0.30344613
-0.30340912
-0.30336349
-0.30330749
-0.3032394
-0.30315769
-0.30306132
-0.30295007
-0.30282488
-0.3026877
-0.30254055
-0.30238477
-0.30221811
-0.30203662
-0.30183024
-0.30159291
-0.30135086
-0.30106829
-0.30091022
-0.30081545
-0.3009633
-0.30119552
-0.3010518
-0.30004502
-0.29736472
-0.29312658
-0.28792651
-0.27999488
-0.2701227
-0.25949296
-0.24647178
-0.23065693
-0.21197263
-0.19086357
-0.16768818
-0.14461936
-0.12223407
-0.10312558
-0.086590945
-0.073954313
-0.064070523
-0.3040039
-0.3040035
-0.30400301
-0.30400248
-0.30400189
-0.30400123
-0.30400047
-0.3039996
-0.30399859
-0.30399743
-0.30399607
-0.30399447
-0.30399256
-0.30399026
-0.30398746
-0.30398401
-0.30397972
-0.30397433
-0.30396751
-0.30395879
-0.30394759
-0.30393316
-0.3039145
-0.30389039
-0.30385929
-0.30381936
-0.30376844
-0.30370413
-0.30362386
-0.30352518
-0.30340587
-0.30326469
-0.30310169
-0.30291753
-0.30271278
-0.30248726
-0.3022345
-0.30194834
-0.30161407
-0.30122791
-0.3008232
-0.30046294
-0.30022801
-0.30008355
-0.30001842
-0.29955691
-0.29829859
-0.29545325
-0.29109269
-0.2860781
-0.2787143
-0.26973676
-0.26047526
-0.24918802
-0.23630464
-0.22106778
-0.20340297
-0.18382172
-0.16257511
-0.1414533
-0.1208126
-0.10292566
-0.087038874
-0.074569814
-0.064183516
-0.30438391
-0.30438466
-0.30438554
-0.30438645
-0.30438743
-0.30438848
-0.3043896
-0.30439077
-0.30439198
-0.3043932
-0.30439442
-0.30439557
-0.30439659
-0.30439738
-0.30439782
-0.30439773
-0.30439686
-0.30439489
-0.30439141
-0.30438583
-0.30437742
-0.30436523
-0.30434803
-0.30432429
-0.30429211
-0.30424919
-0.30419284
-0.30412003
-0.3040275
-0.30391198
-0.30377055
-0.30359855
-0.30339727
-0.30316675
-0.30290382
-0.3026073
-0.30226505
-0.30188434
-0.30141292
-0.30093288
-0.30045655
-0.30009119
-0.29979614
-0.29939349
-0.29867325
-0.2971495
-0.29415903
-0.28966874
-0.28474317
-0.27776568
-0.26924749
-0.26060493
-0.25070194
-0.2394716
-0.22668343
-0.21196591
-0.19527751
-0.17704896
-0.15746022
-0.13803312
-0.1189261
-0.10217049
-0.086920685
-0.074780665
-0.064044087
-0.30482004
-0.30482211
-0.30482454
-0.3048271
-0.30482987
-0.30483287
-0.30483611
-0.30483959
-0.3048433
-0.30484722
-0.30485132
-0.30485555
-0.30485982
-0.30486404
-0.30486803
-0.30487158
-0.30487439
-0.30487605
-0.30487605
-0.30487367
-0.30486801
-0.3048579
-0.30484188
-0.30481811
-0.30478433
-0.30473786
-0.30467554
-0.30459378
-0.30448894
-0.30435969
-0.30418851
-0.30398022
-0.30374756
-0.30347114
-0.30315234
-0.30278943
-0.30236297
-0.30189384
-0.30139472
-0.30086632
-0.30037869
-0.29995481
-0.29935757
-0.29833094
-0.29660442
-0.29345986
-0.28877416
-0.2839049
-0.27721728
-0.26891415
-0.26060513
-0.25150189
-0.24144999
-0.23015308
-0.21752335
-0.2033331
-0.18750791
-0.17047201
-0.15233136
-0.13438904
-0.11663755
-0.10093789
-0.086312215
-0.074581984
-0.063642384
-0.3053726
-0.30537603
-0.30538007
-0.30538433
-0.30538894
-0.30539395
-0.30539937
-0.3054052
-0.30541143
-0.30541806
-0.30542504
-0.3054323
-0.30543976
-0.30544727
-0.30545462
-0.30546154
-0.30546765
-0.30547244
-0.30547527
-0.30547526
-0.30547132
-0.30546206
-0.30544573
-0.30542018
-0.30538282
-0.30533059
-0.30525975
-0.305166
-0.3050516
-0.30489696
-0.30470055
-0.30447701
-0.30420912
-0.30389222
-0.30352595
-0.30310119
-0.30263505
-0.30211345
-0.30160391
-0.30108053
-0.30050419
-0.29975573
-0.29855211
-0.29649436
-0.29345971
-0.28844742
-0.28350311
-0.27710668
-0.26887049
-0.26070345
-0.25208521
-0.24269873
-0.23244384
-0.22116451
-0.20873579
-0.19503802
-0.1800076
-0.16403777
-0.14716436
-0.13053295
-0.11398828
-0.099273537
-0.085260185
-0.07402447
-0.062988512
-0.30611694
-0.30612157
-0.30612701
-0.30613274
-0.30613894
-0.30614567
-0.30615295
-0.30616077
-0.30616912
-0.30617799
-0.30618731
-0.30619701
-0.30620696
-0.30621697
-0.30622678
-0.30623603
-0.30624426
-0.30625083
-0.30625495
-0.30625556
-0.30625138
-0.30624075
-0.30622167
-0.30619172
-0.30614801
-0.30608701
-0.30600417
-0.30589754
-0.30576595
-0.30560562
-0.3053958
-0.30513235
-0.30482953
-0.30447429
-0.30407567
-0.30362629
-0.30312417
-0.30259509
-0.30205089
-0.30140353
-0.30052294
-0.29914588
-0.29690526
-0.29356267
-0.28877925
-0.28372611
-0.27742226
-0.269204
-0.26104225
-0.25270151
-0.2437073
-0.2340741
-0.2237026
-0.21246037
-0.20024797
-0.18702452
-0.17271552
-0.15769796
-0.14194421
-0.12648027
-0.1110171
-0.097228404
-0.083813252
-0.073118672
-0.062078325
-0.30714929
-0.30715469
-0.30716104
-0.30716771
-0.3071749
-0.3071827
-0.3071911
-0.3072001
-0.30720967
-0.30721977
-0.30723033
-0.30724123
-0.30725229
-0.30726326
-0.30727382
-0.30728351
-0.30729175
-0.30729776
-0.30730058
-0.30729897
-0.30729141
-0.30727601
-0.30725052
-0.30721221
-0.30715783
-0.3070832
-0.30698428
-0.30687819
-0.30674483
-0.30653723
-0.30627623
-0.30598893
-0.30566429
-0.30528865
-0.30484141
-0.30435857
-0.30384519
-0.30326126
-0.30256822
-0.30160328
-0.30008989
-0.29771937
-0.2942166
-0.28938148
-0.284087
-0.27808098
-0.26976927
-0.26169032
-0.25349698
-0.24471244
-0.23544094
-0.22561389
-0.21514626
-0.20396804
-0.19198749
-0.17921336
-0.16556737
-0.15141041
-0.13665365
-0.12223814
-0.10775245
-0.094835344
-0.082007555
-0.071889303
-0.060920737
-0.30855123
-0.30855687
-0.30856348
-0.3085704
-0.30857783
-0.30858584
-0.30859442
-0.30860353
-0.30861314
-0.30862315
-0.30863347
-0.3086439
-0.30865422
-0.30866409
-0.30867306
-0.30868058
-0.30868588
-0.30868803
-0.30868584
-0.30867784
-0.30866224
-0.30863686
-0.30859876
-0.30854423
-0.30847763
-0.30840624
-0.3083119
-0.30814125
-0.30792428
-0.30770231
-0.30743704
-0.30711835
-0.30673774
-0.30630818
-0.30583916
-0.3053099
-0.30471277
-0.30397855
-0.30294705
-0.30134887
-0.29888955
-0.29532423
-0.29042732
-0.28499366
-0.27896634
-0.27115014
-0.26248428
-0.25455014
-0.24588146
-0.23678633
-0.22726242
-0.21726142
-0.20673388
-0.19563799
-0.1838941
-0.17154879
-0.15851381
-0.14513862
-0.13127777
-0.11781274
-0.10421792
-0.092126433
-0.079872689
-0.070353673
-0.059516984
-0.31042253
-0.31042781
-0.31043396
-0.31044035
-0.31044716
-0.31045441
-0.31046208
-0.31047009
-0.31047837
-0.31048677
-0.31049512
-0.31050315
-0.31051054
-0.31051684
-0.31052146
-0.31052365
-0.31052249
-0.31051677
-0.31050508
-0.31048562
-0.31045599
-0.31041327
-0.3103597
-0.31029775
-0.31021481
-0.31008445
-0.30990945
-0.30971275
-0.30948467
-0.30920642
-0.3088778
-0.30849632
-0.30806715
-0.30758671
-0.30704796
-0.3064311
-0.30566199
-0.30457588
-0.30291634
-0.3004096
-0.29683337
-0.29196537
-0.28646826
-0.28048773
-0.27264479
-0.26419327
-0.25606604
-0.247372
-0.23830138
-0.22889417
-0.2191234
-0.20897671
-0.19840997
-0.18741074
-0.17590786
-0.16397254
-0.15150577
-0.13884842
-0.12580121
-0.11320608
-0.10043095
-0.089124024
-0.077434211
-0.068528397
-0.057873217
-0.31286896
-0.31287334
-0.31287839
-0.31288355
-0.31288892
-0.3128945
-0.31290021
-0.31290594
-0.31291151
-0.31291673
-0.31292131
-0.31292488
-0.31292696
-0.31292694
-0.31292403
-0.31291725
-0.31290537
-0.31288689
-0.31285995
-0.31282273
-0.31277221
-0.31271013
-0.31262886
-0.31251323
-0.31236405
-0.31218837
-0.3119811
-0.31173045
-0.31143255
-0.31108361
-0.31068503
-0.31023688
-0.30973463
-0.30917431
-0.30852689
-0.30771188
-0.30657217
-0.30485924
-0.30231441
-0.29875919
-0.29395611
-0.28840649
-0.28243858
-0.27468702
-0.26632088
-0.25805223
-0.24917991
-0.24007531
-0.23066764
-0.22096516
-0.21097843
-0.20070773
-0.19012355
-0.17923475
-0.16797538
-0.15643502
-0.1445014
-0.13250942
-0.12020921
-0.1084182
-0.096404744
-0.085847461
-0.074711648
-0.066428115
-0.05599336
-0.31603011
-0.31603304
-0.3160363
-0.31603947
-0.31604255
-0.31604547
-0.31604808
-0.31605018
-0.31605152
-0.31605177
-0.31605051
-0.31604719
-0.31604114
-0.31603151
-0.31601722
-0.31599697
-0.31596915
-0.31593182
-0.31588259
-0.31581875
-0.3157374
-0.31563483
-0.31550221
-0.31533894
-0.31514549
-0.31491247
-0.31463426
-0.31430677
-0.31392904
-0.31350073
-0.31301975
-0.31248451
-0.31188557
-0.31118935
-0.31031359
-0.30910271
-0.30733156
-0.30473919
-0.30119575
-0.29649479
-0.29086092
-0.28488705
-0.27721669
-0.26878412
-0.26038905
-0.25146705
-0.24223164
-0.23272586
-0.22295649
-0.21297132
-0.20278187
-0.19240607
-0.18182275
-0.17105669
-0.16004444
-0.14888806
-0.13746044
-0.12609248
-0.11448664
-0.10344668
-0.09214862
-0.082310624
-0.071721867
-0.06406517
-0.053884252
-0.32015645
-0.320157
-0.32015737
-0.32015732
-0.32015674
-0.32015543
-0.32015316
-0.32014962
-0.32014442
-0.32013708
-0.32012699
-0.32011338
-0.32009531
-0.32007163
-0.32004092
-0.32000145
-0.31995115
-0.31988759
-0.31980783
-0.31970789
-0.31958452
-0.31943403
-0.31925098
-0.31903069
-0.31876769
-0.31845753
-0.31809754
-0.31768551
-0.31721896
-0.31669657
-0.31611525
-0.31546124
-0.31469598
-0.3137349
-0.3124276
-0.3105627
-0.30790664
-0.30430572
-0.29969493
-0.29397074
-0.28793121
-0.28031089
-0.27177977
-0.26323496
-0.25422118
-0.24483293
-0.23513838
-0.2252136
-0.21510263
-0.20484957
-0.19447776
-0.1840176
-0.1734544
-0.16282512
-0.1520658
-0.14128721
-0.13034607
-0.11957055
-0.10861857
-0.09828748
-0.087668823
-0.07852435
-0.068478012
-0.061451178
-0.051550519
-0.32556002
-0.32555671
-0.3255524
-0.32554723
-0.32554084
-0.32553292
-0.32552309
-0.32551092
-0.32549584
-0.32547716
-0.32545405
-0.32542547
-0.32539018
-0.32534665
-0.32529306
-0.32522723
-0.32514658
-0.32504809
-0.32492828
-0.32478317
-0.32460834
-0.3243989
-0.3241498
-0.32385643
-0.3235148
-0.32312088
-0.3226711
-0.32216312
-0.32159431
-0.32095753
-0.32023376
-0.31937854
-0.3183037
-0.31686292
-0.31485632
-0.3120705
-0.3083463
-0.30363446
-0.29785812
-0.29161711
-0.28405767
-0.27538672
-0.26666888
-0.25750566
-0.2479178
-0.23800415
-0.22784146
-0.21750786
-0.2070576
-0.1965487
-0.1860122
-0.17548803
-0.1649651
-0.15448858
-0.14399139
-0.13358973
-0.1231231
-0.11291761
-0.1025899
-0.092934992
-0.082969171
-0.074495828
-0.064991358
-0.058593554
-0.048999753
-0.33263071
-0.33262153
-0.33261018
-0.33259732
-0.3325823
-0.33256461
-0.33254374
-0.33251906
-0.33248979
-0.33245503
-0.33241364
-0.33236429
-0.33230537
-0.33223495
-0.3321508
-0.33205024
-0.3319302
-0.33178711
-0.33161693
-0.33141527
-0.33117754
-0.33089892
-0.33057455
-0.33019948
-0.3297692
-0.32927988
-0.32872745
-0.32810585
-0.32740302
-0.32659319
-0.32562466
-0.32440501
-0.32278992
-0.32059073
-0.31760658
-0.31368648
-0.30876079
-0.30280841
-0.29621478
-0.28866722
-0.27982331
-0.27085788
-0.26148112
-0.25162231
-0.24141292
-0.23093889
-0.22028423
-0.20953241
-0.19874995
-0.18800128
-0.17732201
-0.16675809
-0.15629918
-0.14599548
-0.1357743
-0.12575461
-0.11575807
-0.10610874
-0.096385619
-0.087382625
-0.078051559
-0.070229464
-0.061270666
-0.055494131
-0.046247609
-0.34175384
-0.34173638
-0.3417151
-0.34169149
-0.34166449
-0.34163332
-0.3415973
-0.34155561
-0.34150723
-0.34145098
-0.34138544
-0.34130896
-0.3412196
-0.34111498
-0.34099242
-0.34084891
-0.34068095
-0.34048461
-0.34025564
-0.33998934
-0.33968071
-0.33932466
-0.33891611
-0.33844998
-0.3379208
-0.33732182
-0.33664274
-0.33586526
-0.33495563
-0.33385383
-0.33246155
-0.33063521
-0.32819281
-0.32494847
-0.32075343
-0.31554349
-0.30930445
-0.3023016
-0.29451193
-0.28544648
-0.27609814
-0.26637896
-0.25611416
-0.24549841
-0.2346113
-0.2235416
-0.21237892
-0.2012104
-0.19010765
-0.1791395
-0.16834334
-0.157768
-0.14740126
-0.13729513
-0.1273692
-0.11774271
-0.10821935
-0.099120332
-0.089991156
-0.081623272
-0.072917232
-0.065730002
-0.057326823
-0.052176052
-0.04327146
-0.35334408
-0.35331572
-0.35328144
-0.35324382
-0.35320132
-0.35315288
-0.35309761
-0.35303442
-0.35296199
-0.35287874
-0.35278365
-0.35267743
-0.35255397
-0.35240505
-0.35223417
-0.35204112
-0.35181864
-0.35156221
-0.35126732
-0.35092909
-0.35054214
-0.35010066
-0.3495982
-0.3490269
-0.34837614
-0.34762975
-0.34676137
-0.3457273
-0.34445728
-0.34284537
-0.34074638
-0.33798473
-0.33438405
-0.3298106
-0.32418507
-0.31754008
-0.31006683
-0.30183978
-0.29238872
-0.2825649
-0.27233522
-0.26152967
-0.25038562
-0.23897007
-0.22737243
-0.21569024
-0.20401618
-0.19244128
-0.18103967
-0.16988134
-0.15900254