/*--------------------------------*- C++ -*----------------------------------*\
  =========                 |
  \\      /  F ield         | OpenFOAM: The Open Source CFD Toolbox
   \\    /   O peration     | Website:  https://openfoam.org
    \\  /    A nd           | Version:  13
     \\/     M anipulation  |
\*---------------------------------------------------------------------------*/
FoamFile
{
    format      ascii;
    class       volScalarField;
    location    "11.89602";
    object      k;
}
// * * * * * * * * * * * * * * * * * * * * * * * * * * * * * * * * * * * * * //

dimensions      [0 2 -2 0 0 0 0];

internalField   nonuniform List<scalar> 
17140
(
7.1247975e-11
2.2388557e-09
1.8307743e-08
7.8734121e-08
2.4228551e-07
6.1137877e-07
1.3556252e-06
2.746885e-06
5.2106761e-06
9.4006508e-06
1.6305128e-05
2.7397178e-05
4.4841987e-05
7.177577e-05
0.00011266671
0.00017375467
0.00026353381
0.00039317619
0.00057667695
0.00083032091
0.0011708454
0.0016115136
0.0021554991
0.0027869969
0.0034627737
0.0041099552
0.0046382985
0.0049519041
0.0050743687
0.0050874376
0.0049963522
0.0048562144
0.0047075621
0.004565068
0.0044305459
0.0043030608
0.0041821794
0.0040679411
0.003960425
0.0038596457
0.0037653934
0.003677053
0.0035930247
0.0035091439
0.0034162394
0.0033000074
0.003160076
0.003095786
0.003067922
0.0030541359
0.0030617475
0.0030880573
0.0031501151
0.0032486261
0.0033582973
0.0034486683
0.0035392257
0.0036068953
0.0036201128
0.0033086735
0.0028795663
0.0024546285
0.0019901583
0.0016037967
0.0012741524
7.0499724e-11
2.2153433e-09
1.8115525e-08
7.7907875e-08
2.3974469e-07
6.0497276e-07
1.3414359e-06
2.7181709e-06
5.156296e-06
9.3027457e-06
1.6135765e-05
2.7113581e-05
4.43799e-05
7.1040518e-05
0.00011152161
0.000172007
0.00026091959
0.00038934712
0.00057119681
0.00082268372
0.0011605339
0.0015981191
0.0021389143
0.0027676617
0.0034418945
0.0040895569
0.0046207406
0.0049384468
0.0050638549
0.005079677
0.0049916878
0.004853204
0.0047057033
0.0045645191
0.0044317643
0.0043066093
0.0041889098
0.0040789512
0.0039771722
0.00388399
0.0038001229
0.0037263903
0.0036609709
0.0035995732
0.0035353686
0.0034510513
0.0033760346
0.00336067
0.0033740036
0.0034388194
0.0035299826
0.0036564088
0.0037940833
0.0039442803
0.004060644
0.004152752
0.0042108457
0.0042355957
0.004119978
0.0035514135
0.0031017752
0.0025762639
0.0020848363
0.0016875284
0.0013251486
6.8772807e-11
2.1610777e-09
1.7671783e-08
7.5999596e-08
2.3387292e-07
5.901585e-07
1.3085972e-06
2.6516609e-06
5.0302205e-06
9.0755356e-06
1.5742301e-05
2.6453974e-05
4.3303852e-05
6.932617e-05
0.00010884811
0.00016792111
0.00025479939
0.00038037084
0.000558334
0.00080473897
0.0011362882
0.0015666212
0.0020999541
0.0027223788
0.003393336
0.0040428401
0.00458187
0.0049111707
0.0050452069
0.005068537
0.0049880769
0.0048544243
0.0047108613
0.0045739663
0.0044464268
0.0043283344
0.0042201685
0.0041231026
0.0040388162
0.0039677378
0.0039118174
0.0038820007
0.0038720663
0.0038777034
0.0038969988
0.0039128451
0.0039495839
0.0040818759
0.0042652078
0.0045288425
0.0048251817
0.005156831
0.0054267836
0.0056227911
0.0057440987
0.0057699996
0.005444839
0.0050330078
0.0046362741
0.0035575327
0.0027507335
0.0020248292
0.0015110187
0.0011249958
0.00082413538
6.6052328e-11
2.075591e-09
1.6972741e-08
7.2993384e-08
2.2462267e-07
5.6681976e-07
1.25686e-06
2.5468679e-06
4.831559e-06
8.7174713e-06
1.512214e-05
2.5414115e-05
4.1607025e-05
6.6621847e-05
0.00010462878
0.0001614688
0.0002451267
0.00036616906
0.00053795438
0.00077625441
0.0010977062
0.0015163327
0.0020374712
0.0026492967
0.0033142214
0.0039655074
0.0045162219
0.0048678768
0.0050176444
0.0050524463
0.0049851971
0.0048608129
0.0047252231
0.0045974733
0.004481728
0.0043788152
0.0042901541
0.0042185106
0.0041751268
0.0041570133
0.0041570136
0.0042135738
0.0043105039
0.0044615824
0.0046560825
0.0048414669
0.0051338805
0.005572056
0.0061096948
0.0067633837
0.0074604203
0.008169664
0.0087134656
0.0090689706
0.0092548466
0.0090152843
0.0081233203
0.0065871169
0.0054483831
0.0037467589
0.0025607916
0.0017186634
0.0011677471
0.0008147548
0.0005766867
6.2380668e-11
1.9602152e-09
1.6029288e-08
6.8936079e-08
2.1213801e-07
5.3531978e-07
1.1870285e-06
2.4054177e-06
4.5633832e-06
8.2340612e-06
1.4284748e-05
2.4009702e-05
3.9314615e-05
6.2966758e-05
9.8922738e-05
0.00015273603
0.00023202131
0.00034689934
0.00051024825
0.00073742806
0.0010449317
0.0014472216
0.0019510562
0.0025473413
0.0032024701
0.0038541457
0.0044187401
0.0048022362
0.0049791216
0.0050298426
0.0049819524
0.0048719691
0.0047486635
0.0046348052
0.0045367833
0.0044572492
0.0044085457
0.0043880155
0.004387006
0.0044388518
0.0045416992
0.004723418
0.0049894101
0.0053598936
0.0058098524
0.0062712151
0.0070221475
0.0079525037
0.0091034786
0.010421954
0.011833354
0.013224077
0.014316692
0.014957188
0.015222066
0.014313632
0.012552225
0.0093190565
0.0064393271
0.0038558797
0.0022542888
0.001329498
0.00082571121
0.00057022222
0.00042257082
5.7857344e-11
1.8180772e-09
1.4866995e-08
6.3937623e-08
1.9675716e-07
4.9651172e-07
1.1009932e-06
2.2311364e-06
4.2329372e-06
7.6383337e-06
1.3252617e-05
2.2278262e-05
3.6487421e-05
5.8456806e-05
9.1877424e-05
0.00014194368
0.0002158048
0.00032301481
0.00047582897
0.00068904827
0.00097890864
0.0013603059
0.0018416322
0.0024170819
0.0030580072
0.0037078481
0.0042875446
0.0047106459
0.0049281063
0.0049994913
0.0049763933
0.0048861693
0.0047794664
0.0046839227
0.0046130705
0.0045767259
0.004566093
0.0045886793
0.004664749
0.004810903
0.0050425852
0.0053909905
0.005881955
0.0065390568
0.0073258427
0.0082550965
0.0096131406
0.01123872
0.013221494
0.015435369
0.017791257
0.020075023
0.021952951
0.022993035
0.023360121
0.021424856
0.017870328
0.012487059
0.0071272285
0.003748074
0.0019007858
0.0010347286
0.00064071289
0.00045355584
0.00035073969
5.2641681e-11
1.6541835e-09
1.35268e-08
5.8174072e-08
1.7902185e-07
4.5176222e-07
1.0017831e-06
2.0301569e-06
3.8518402e-06
6.9512109e-06
1.2061927e-05
2.0280319e-05
3.3223863e-05
5.3248068e-05
8.3734626e-05
0.00012945777
0.00019701823
0.00029529447
0.00043578438
0.00063257897
0.00090151775
0.0012578623
0.0017117467
0.0022610828
0.0028830569
0.0035281372
0.0041232256
0.0045892208
0.0048553278
0.0049579197
0.0049650382
0.0049001048
0.0048143524
0.0047461661
0.0047133039
0.0047065442
0.0047391774
0.0048280423
0.0049912562
0.0052507429
0.00563542
0.0061877634
0.0069523435
0.0079557141
0.0091460316
0.010655765
0.012685369
0.015092121
0.017948431
0.02107313
0.024334874
0.027450578
0.03011737
0.031596119
0.032108462
0.029234703
0.023122996
0.014499966
0.0073988709
0.0032982965
0.0014693581
0.00075509267
0.00047617943
0.0003675427
0.00030466658
4.6921003e-11
1.4744205e-09
1.2056834e-08
5.1852406e-08
1.5956892e-07
4.0267781e-07
8.9295857e-07
1.8096873e-06
3.4337469e-06
6.1972753e-06
1.0755183e-05
1.8086962e-05
2.9639525e-05
4.7523789e-05
7.4778115e-05
0.00011570772
0.00017629577
0.0002646499
0.00039138358
0.0005697177
0.00081491257
0.0011424265
0.0015640622
0.0020816084
0.0026786436
0.0033136622
0.0039207094
0.0044235625
0.0047523232
0.0049048811
0.0049436553
0.0049096711
0.0048512176
0.0048169791
0.0048093027
0.0048395948
0.0049267058
0.0050876557
0.0053454926
0.0057305337
0.0062844974
0.0070635981
0.0081264154
0.0094933854
0.011097245
0.013200143
0.015868703
0.019003282
0.022620049
0.026499569
0.030461946
0.034178728
0.037287868
0.038992043
0.039551067
0.035799721
0.026466952
0.015272488
0.0067929545
0.0025979471
0.0010687283
0.00057597429
0.00039747766
0.00032771878
0.00028244237
4.0900302e-11
1.2852294e-09
1.0509765e-08
4.5199114e-08
1.3909527e-07
3.510166e-07
7.78416e-07
1.5776171e-06
2.9936055e-06
5.4034473e-06
9.3789511e-06
1.5776129e-05
2.5861239e-05
4.1485333e-05
6.5320336e-05
0.00010116757
0.00015434022
0.00023209676
0.00034405115
0.00050239005
0.00072157338
0.0010169877
0.0014018418
0.0018816794
0.0024467083
0.0030642572
0.0036767948
0.0042121608
0.0046054363
0.0048205245
0.0048989102
0.0049048672
0.0048844546
0.004875391
0.0048959777
0.0049678175
0.0051091185
0.0053419019
0.0056952989
0.0062080382
0.0069327753
0.0079357144
0.0092795864
0.010967567
0.012974983
0.015594095
0.018795357
0.022510037
0.026691926
0.031099959
0.035507905
0.039558784
0.042622209
0.044067798
0.044113801
0.039100079
0.027588222
0.014341036
0.0053751619
0.0018430474
0.0007565009
0.00044232011
0.0003374143
0.00029523787
0.00025885656
3.4798273e-11
1.0934827e-09
8.9417957e-09
3.8455894e-08
1.1834459e-07
2.9865496e-07
6.6231502e-07
1.3423713e-06
2.5473876e-06
4.5985113e-06
7.9830785e-06
1.3431378e-05
2.202529e-05
3.5349728e-05
5.5699472e-05
8.6353486e-05
0.00013192299
0.00019876237
0.00029539304
0.00043281494
0.00062445006
0.00088527293
0.0012294764
0.0016659688
0.0021914941
0.0027828002
0.0033922384
0.0039535962
0.0044016824
0.0046931738
0.004836595
0.0048857367
0.004895495
0.0049159062
0.00496656
0.0050774054
0.0052714157
0.0055732311
0.0060165496
0.0066464587
0.0075228506
0.0087176895
0.010291877
0.012233922
0.014583785
0.017585673
0.021168177
0.025272439
0.029800252
0.034489407
0.039053982
0.043055822
0.045687197
0.046724677
0.045401766
0.039586246
0.025694663
0.011195009
0.0035971262
0.0012174498
0.0005543921
0.00037077192
0.00030824203
0.00027645004
0.00024152738
2.8833443e-11
9.060469e-10
7.409065e-09
3.1864122e-08
9.8059658e-08
2.4746735e-07
5.4881208e-07
1.1123718e-06
2.111066e-06
3.811275e-06
6.6175035e-06
1.1136543e-05
1.8268695e-05
2.9335808e-05
4.6257885e-05
7.1790829e-05
0.00010983511
0.00016581424
0.00024709483
0.00036336318
0.00052677029
0.00075149232
0.001052143
0.0014403217
0.0019187814
0.0024738047
0.0030688887
0.0036459513
0.0041398514
0.004502827
0.0047235117
0.0048340812
0.0048816248
0.0049257796
0.0050126661
0.0051594778
0.0053924319
0.0057454376
0.0062574558
0.0069793972
0.007975033
0.0093170166
0.011054655
0.013165453
0.015765805
0.019001809
0.022795771
0.027080189
0.031716411
0.03642486
0.040859931
0.044452197
0.046420858
0.046542633
0.0439905
0.036063673
0.020213996
0.0073762543
0.0022305205
0.00080449673
0.00042180639
0.00031698553
0.00027651707
0.00025190358
0.0002222551
2.3209017e-11
7.2930778e-10
5.9638043e-09
2.5648511e-08
7.8932008e-08
1.9919863e-07
4.417761e-07
8.9545894e-07
1.6995173e-06
3.0685871e-06
5.3288181e-06
8.969964e-06
1.4719787e-05
2.3649198e-05
3.7318723e-05
5.7978567e-05
8.8834145e-05
0.00013438324
0.0002008139
0.00029641312
0.00043185946
0.00062014041
0.00087564046
0.0012117397
0.0016362331
0.0021444735
0.0027119939
0.0032915271
0.0038213007
0.0042463412
0.0045415774
0.0047212085
0.0048275741
0.0049037496
0.0050079352
0.0051799999
0.0054547807
0.0058577501
0.0064301364
0.0072206017
0.0082927506
0.0097106085
0.011515283
0.013721497
0.016420487
0.019695809
0.023481605
0.027700024
0.03219196
0.036675544
0.040796067
0.043873401
0.044940411
0.043866275
0.039787275
0.029043872
0.0134214
0.004142179
0.0013128722
0.00054185668
0.00033994241
0.00028615093
0.000253727
0.00023098648
0.00020533045
1.8099663e-11
5.6875407e-10
4.6508981e-09
2.0002103e-08
6.1555762e-08
1.5534834e-07
3.4453325e-07
6.9837649e-07
1.3255449e-06
2.3935769e-06
4.1572151e-06
6.9993568e-06
1.1489807e-05
1.8468844e-05
2.9164742e-05
4.5356547e-05
6.9594606e-05
0.00010548956
0.00015807155
0.00023419725
0.00034293047
0.00049572365
0.00070606655
0.00098805315
0.0013531455
0.0018045838
0.0023299947
0.0028953571
0.0034467226
0.0039253681
0.0042918318
0.004542457
0.0047065631
0.0048317921
0.0049643234
0.0051526851
0.0054359296
0.0058474796
0.0064283136
0.0072279716
0.0083058379
0.0097212063
0.011515596
0.013715307
0.016397024
0.019620685
0.02331703
0.027392006
0.031662008
0.03581348
0.039376131
0.041406757
0.041157941
0.039003557
0.033151671
0.019948352
0.0073037693
0.0022329094
0.00077342835
0.00038827483
0.00028861927
0.00025851516
0.00022957296
0.00021064135
0.00018899121
1.3638218e-11
4.285599e-10
3.5044792e-09
1.5071696e-08
4.6382743e-08
1.1705708e-07
2.5961439e-07
5.2625837e-07
9.9890462e-07
1.8038904e-06
3.133417e-06
5.2766255e-06
8.6643624e-06
1.3933232e-05
2.201647e-05
3.4271429e-05
5.265554e-05
7.9963437e-05
0.00012013478
0.00017862994
0.00026283968
0.00038242977
0.0005494021
0.00077746698
0.0010800947
0.0014665068
0.001935297
0.0024670469
0.0030205117
0.0035394797
0.0039729234
0.0042970517
0.0045244036
0.0046938454
0.0048556796
0.0050619215
0.0053517219
0.0057656357
0.0063445227
0.0071341924
0.0081901136
0.0095668651
0.011305654
0.013438509
0.016018981
0.019074208
0.022516407
0.026223649
0.029980816
0.033447291
0.036088839
0.036768347
0.035707997
0.032291209
0.024010099
0.011237549
0.0035810672
0.0011525296
0.00047733449
0.00030268629
0.00026046054
0.0002328621
0.00020623927
0.00019257194
0.0001751953
9.9038223e-12
3.1121218e-10
2.5448844e-09
1.0944758e-08
3.3682226e-08
8.5004847e-08
1.8852917e-07
3.8216978e-07
7.2542935e-07
1.3101017e-06
2.2758964e-06
3.8331336e-06
6.2955494e-06
1.0127478e-05
1.6011306e-05
2.4943156e-05
3.836714e-05
5.8360647e-05
8.7883687e-05
0.00013110106
0.00019377097
0.00028365621
0.00041083697
0.00058766594
0.00082789657
0.0011442858
0.0015439441
0.0020214162
0.0025516919
0.0030888734
0.0035770671
0.0039768213
0.0042767694
0.0045002391
0.0046919626
0.0049050976
0.0051869052
0.0055803331
0.0061264102
0.0068709374
0.0078603983
0.0091397382
0.0107481
0.012718419
0.015071941
0.017797059
0.020815589
0.023983086
0.027054999
0.029718172
0.031201685
0.030827996
0.028927589
0.024115566
0.01423111
0.0051578969
0.0016682774
0.00061327199
0.00032978822
0.00025656645
0.00023140977
0.00020455211
0.00018552009
0.00017700123
0.00016262237
6.9170427e-12
2.1735723e-10
1.7773999e-09
7.6440322e-09
2.3524285e-08
5.9368902e-08
1.3167233e-07
2.6691617e-07
5.0666379e-07
9.1504462e-07
1.5896912e-06
2.6776516e-06
4.3984526e-06
7.077404e-06
1.1193507e-05
1.7448036e-05
2.6862069e-05
4.0913769e-05
6.1728564e-05
9.2335913e-05
0.0001370016
0.00020162741
0.00029416796
0.00042492804
0.00060645005
0.0008524731
0.0011752138
0.001580261
0.0020593377
0.0025838397
0.0031058232
0.0035731186
0.0039509984
0.0042415307
0.0044751938
0.0047006554
0.0049697179
0.0053284417
0.0058196697
0.0064855453
0.0073675206
0.0085033936
0.00992466
0.011655094
0.013697312
0.016016469
0.018519399
0.021042446
0.02331916
0.025103302
0.025204728
0.024243744
0.021449867
0.015020746
0.0065898299
0.0022356626
0.00078876992
0.0003684759
0.00025953284
0.00023576241
0.00020491344
0.00018591785
0.00017184253
0.00016437681
0.00015378871
4.6404894e-12
1.4582009e-10
1.1924165e-09
5.1281914e-09
1.5781793e-08
3.9828747e-08
8.8334323e-08
1.7906357e-07
3.3989941e-07
6.1386553e-07
1.0664706e-06
1.7964044e-06
2.9510667e-06
4.7490541e-06
7.5126491e-06
1.1714643e-05
1.8045598e-05
2.7509972e-05
4.1562284e-05
6.2297175e-05
9.2708128e-05
0.00013702514
0.00020112366
0.00029295339
0.00042284392
0.00060338081
0.00084830542
0.0011696545
0.0015724374
0.0020472624
0.0025643097
0.0030756732
0.0035310122
0.0039025539
0.0041958609
0.0044473369
0.0047064392
0.0050269809
0.0054526393
0.0060228678
0.0067735217
0.0077346567
0.0089285548
0.010368871
0.01204375
0.01389922
0.015832643
0.017652451
0.019168646
0.019750538
0.019252557
0.017576469
0.013695242
0.0072933539
0.0028016371
0.00098465486
0.00041911409
0.00026274464
0.00022959536
0.0002045437
0.00018385961
0.00017102364
0.00016007207
0.00015296321
0.00014475355
2.9904679e-12
9.397073e-11
7.6842698e-10
3.3047408e-09
1.0170137e-08
2.5666284e-08
5.6923319e-08
1.1538798e-07
2.1902538e-07
3.9555447e-07
6.8717926e-07
1.1574815e-06
1.9014355e-06
3.0599303e-06
4.8408048e-06
7.5492914e-06
1.1632044e-05
1.7740721e-05
2.6823484e-05
4.0255758e-05
6.0024551e-05
8.8982182e-05
0.00013118187
0.00019229134
0.00028003845
0.00040454884
0.00057827102
0.00081494408
0.0011268167
0.0015193999
0.0019841787
0.0024925897
0.0029979754
0.0034520795
0.0038283594
0.0041334843
0.0044136292
0.0047011638
0.0050568825
0.005523027
0.0061318373
0.0069061878
0.0078576811
0.0089867045
0.010271195
0.011647045
0.012995971
0.014166138
0.01483017
0.014622292
0.013655954
0.011321281
0.0071313887
0.0031571234
0.0011475759
0.00046982544
0.00026937761
0.00022221693
0.00021218264
0.00018903736
0.00017066092
0.00015886721
0.00014988841
0.0001452868
0.00013813119
1.8540425e-12
5.8260324e-11
4.764113e-10
2.0488742e-09
6.3052352e-09
1.5912266e-08
3.5289973e-08
7.1533676e-08
1.3577792e-07
2.4520015e-07
4.2594976e-07
7.1741406e-07
1.1784154e-06
1.896199e-06
2.9994604e-06
4.6772317e-06
7.2062879e-06
1.0990962e-05
1.6621017e-05
2.495566e-05
3.7244862e-05
5.5302503e-05
8.1747958e-05
0.00012033006
0.00017633288
0.00025702645
0.00037204587
0.00053343297
0.00075478066
0.0010487592
0.0014222827
0.001869542
0.0023657126
0.0028678722
0.0033287279
0.0037154872
0.0040418174
0.0043416988
0.0046537777
0.0050271373
0.0054988713
0.006090083
0.0068047615
0.0076345861
0.0085451349
0.0094727508
0.010292792
0.01088407
0.010817336
0.010279617
0.0088587888
0.0063542438
0.0031920972
0.0012733943
0.000514374
0.00027715928
0.00021530703
0.00020843169
0.0001876382
0.00016816316
0.00015682792
0.00014974329
0.00014278793
0.00013782788
0.00013195101
1.1091902e-12
3.4854518e-11
2.8501489e-10
1.2257422e-09
3.7720846e-09
9.5193221e-09
2.1111357e-08
4.2791943e-08
8.1219755e-08
1.466652e-07
2.5475882e-07
4.2903591e-07
7.046296e-07
1.1336223e-06
1.7927951e-06
2.7948573e-06
4.3047455e-06
6.5633447e-06
9.9221171e-06
1.4893795e-05
2.2226654e-05
3.3013002e-05
4.8846093e-05
7.2042395e-05
0.00010594481
0.00015531034
0.00022675044
0.00032911728
0.00047363278
0.00067333783
0.00094112075
0.0012855883
0.0017048234
0.0021801469
0.0026753415
0.0031440205
0.0035562519
0.0039089605
0.0042259359
0.00454817
0.0049136699
0.0053489989
0.0058613568
0.0064263716
0.0070264957
0.0075575467
0.008013458
0.0080074803
0.0077156132
0.0068635668
0.0053667985
0.0030083753
0.0013027979
0.00053205618
0.0002799825
0.00021076965
0.0001987328
0.00018991011
0.00016892725
0.00015854877
0.00015029538
0.00014247356
0.00013581749
0.00013176979
0.00012708894
6.4311969e-13
2.0208998e-11
1.652543e-10
7.1069434e-10
2.1870643e-09
5.5192497e-09
1.2239984e-08
2.4809205e-08
4.708608e-08
8.5021675e-08
1.476701e-07
2.486585e-07
4.0831776e-07
6.567647e-07
1.0383567e-06
1.6181322e-06
2.4911392e-06
3.7959856e-06
5.7346117e-06
8.6012821e-06
1.2825309e-05
1.9034203e-05
2.814695e-05
4.1510699e-05
6.1097371e-05
8.9776748e-05
0.00013167424
0.00019258843
0.0002803752
0.00040510762
0.00057868495
0.0008134355
0.0011190495
0.0014974259
0.0019372318
0.0024105801
0.0028801043
0.0033146717
0.0036980834
0.0040391183
0.0043659002
0.0046979945
0.0050511134
0.005435745
0.0057765064
0.0060935304
0.006108039
0.0059426146
0.0054169648
0.00445862
0.0026680834
0.0012170873
0.000523253
0.00027630619
0.00020584853
0.00019179655
0.00018944925
0.00017303517
0.00015850111
0.0001480305
0.00014013959
0.00013556286
0.00013071788
0.00012719822
0.00012338901
3.6315086e-13
1.1411427e-11
9.3314117e-11
4.0130631e-10
1.2349553e-09
3.1164771e-09
6.9112377e-09
1.4007949e-08
2.658489e-08
4.8000325e-08
8.3361914e-08
1.4035368e-07
2.3043269e-07
3.7055665e-07
5.8567433e-07
9.123147e-07
1.4037654e-06
2.1375636e-06
3.2263784e-06
4.8339112e-06
7.1982842e-06
1.0666679e-05
1.5746904e-05
2.3184257e-05
3.4075509e-05
5.0035498e-05
7.3432786e-05
0.00010770498
0.00015774335
0.00023026641
0.00033401651
0.00047939652
0.00067738397
0.00093725138
0.0012632596
0.0016499224
0.0020791499
0.0025242337
0.0029570835
0.0033579476
0.0037224922
0.0040330739
0.0043276832
0.0045800928
0.0048122803
0.0048282576
0.0047110269
0.0043348622
0.0036203284
0.0021493546
0.0010204153
0.00048164439
0.00026762169
0.00019936521
0.00018532474
0.00018603442
0.00017324335
0.00015468912
0.00014641309
0.00014053235
0.0001352698
0.00012986153
0.00012514169
0.00012237036
0.00011928086
2.0171705e-13
6.3386283e-12
5.1832483e-11
2.2290979e-10
6.8596357e-10
1.731044e-09
3.8387653e-09
7.7803334e-09
1.4765282e-08
2.6658055e-08
4.6293721e-08
7.7935947e-08
1.2793902e-07
2.0570116e-07
3.2503583e-07
5.0614084e-07
7.7842616e-07
1.1845803e-06
1.7864348e-06
2.6734705e-06
3.9753115e-06
5.8800391e-06
8.6614307e-06
1.2719704e-05
1.8642642e-05
2.7296861e-05
3.9962003e-05
5.8521983e-05
8.5724983e-05
0.00012550653
0.00018333588
0.00026645719
0.00038367657
0.00054438046
0.00075656727
0.0010242006
0.0013449351
0.0017077863
0.0020946265
0.0024824092
0.0028518584
0.0031856784
0.0034487085
0.0036772586
0.0037262763
0.0036365146
0.0033509784
0.0026916823
0.0015265349
0.00077384316
0.00040780575
0.00024837418
0.00019148417
0.00017821777
0.00017964848
0.00016918744
0.00015307733
0.00014625241
0.00014102396
0.00013522822
0.00012978159
0.00012585946
0.00012203193
0.00011953959
0.00011701273
1.1337848e-13
3.5627322e-12
2.9133268e-11
1.2528941e-10
3.8555096e-10
9.7292901e-10
2.1575099e-09
4.3726224e-09
8.2977494e-09
1.4979977e-08
2.6010837e-08
4.3782521e-08
7.1857605e-08
1.1550143e-07
1.8244526e-07
2.8397996e-07
4.3652181e-07
6.6384902e-07
1.000318e-06
1.4954887e-06
2.2207397e-06
3.2789663e-06
4.8187254e-06
7.055012e-06
1.0300553e-05
1.5013597e-05
2.1867589e-05
3.185515e-05
4.6437049e-05
6.774391e-05
9.8825272e-05
0.00014391976
0.00020865116
0.00030002391
0.0004256608
0.00059231458
0.00080298404
0.0010553215
0.0013407751
0.0016445396
0.0019470822
0.0022254975
0.0024535832
0.0025810308
0.0025299419
0.0023074545
0.0017104882
0.0009803784
0.00055180763
0.00032482488
0.00022187981
0.00018140069
0.0001710119
0.00017248208
0.00016519498
0.00015143904
0.00014484821
0.00013965544
0.00013348305
0.0001285406
0.00012444595
0.00012076769
0.00011754202
0.00011553571
0.00011356673
7.0508343e-14
2.2156093e-12
1.8117541e-11
7.7915436e-11
2.397662e-10
6.0503682e-10
1.3416675e-09
2.7190782e-09
5.1596759e-09
9.3142594e-09
1.617171e-08
2.7217696e-08
4.4663152e-08
7.1771758e-08
1.1332737e-07
1.7629885e-07
2.707825e-07
4.1134266e-07
6.1890222e-07
9.234197e-07
1.3676921e-06
2.0127885e-06
2.9458866e-06
4.2917234e-06
6.2288909e-06
9.0125844e-06
1.3009161e-05
1.8748277e-05
2.7004121e-05
3.8904305e-05
5.6081611e-05
8.086119e-05
0.00011645223
0.00016701315
0.00023770857
0.00033417448
0.00046152902
0.00062202194
0.00081308081
0.0010257518
0.0012441572
0.0014452365
0.0015904496
0.0015640919
0.0013906954
0.00094418947
0.00058722119
0.00037096106
0.00025243854
0.00019383299
0.00017082506
0.00016403369
0.00016572085
0.00016145438
0.00015054611
0.00014411755
0.00013869595
0.00013286281
0.00012864552
0.00012515345
0.00012147309
0.00011823307
0.00011534699
0.00011359012
0.00011194706
5.5544185e-14
1.745387e-12
1.4272485e-11
6.1379982e-11
1.8888374e-10
4.7664237e-10
1.0569678e-09
2.142137e-09
4.0649965e-09
7.3384133e-09
1.2741762e-08
2.1446026e-08
3.5193787e-08
5.6556827e-08
8.9302876e-08
1.3891491e-07
2.1332217e-07
3.2392305e-07
4.8700676e-07
7.2571529e-07
1.0727307e-06
1.5739306e-06
2.2933298e-06
3.3197595e-06
4.7759728e-06
6.8314288e-06
9.7213111e-06
1.3772426e-05
1.943635e-05
2.7348928e-05
3.8413772e-05
5.3904538e-05
7.5644491e-05
0.00010611367
0.000148555
0.00020682243
0.00028480862
0.00038525402
0.00050743574
0.00064422992
0.00077892858
0.00086865022
0.00084082742
0.00069732212
0.00047995592
0.00033814101
0.00024472215
0.0001949657
0.00016992644
0.00015944714
0.00015835868
0.00016081824
0.00015875723
0.00015065319
0.00014430235
0.00013857279
0.00013321416
0.0001294178
0.00012535943
0.00012119611
0.00011734768
0.00011451207
0.00011193171
0.00011049942
0.00010964733
5.6195276e-14
1.7658492e-12
1.4439912e-11
6.2100898e-11
1.9110627e-10
4.8226588e-10
1.0694863e-09
2.1676471e-09
4.11377e-09
7.4273428e-09
1.2898152e-08
2.1713432e-08
3.5640936e-08
5.7291057e-08
9.0489929e-08
1.4080712e-07
2.1629635e-07
3.2852636e-07
4.9400021e-07
7.3608388e-07
1.0875837e-06
1.594121e-06
2.3184418e-06
3.3457619e-06
4.7900709e-06
6.8014924e-06
9.575187e-06
1.336233e-05
1.8483143e-05
2.535034e-05
3.451262e-05
4.6723006e-05
6.3029768e-05
8.4877719e-05
0.00011415524
0.00015304587
0.00020335803
0.0002646603
0.00033113008
0.00038921928
0.00041168696
0.00038363806
0.00030453692
0.00024187624
0.00019369036
0.0001678806
0.00015170186
0.00014926627
0.00015146004
0.00015355764
0.00015835391
0.00015755
0.00015241767
0.00014460991
0.0001385411
0.00013362427
0.00012979162
0.00012524321
0.00012117267
0.00011792599
0.00011521722
0.00011268994
0.00011030629
0.00010909472
0.00010828357
6.1501157e-14
1.9325815e-12
1.5803457e-11
6.7966182e-11
2.0916167e-10
5.2785156e-10
1.1706479e-09
2.3728761e-09
4.5037419e-09
8.1325668e-09
1.4125306e-08
2.3784389e-08
3.9050205e-08
6.2789703e-08
9.9207145e-08
1.5442438e-07
2.3729328e-07
3.605204e-07
5.422014e-07
8.0787424e-07
1.193196e-06
1.7473085e-06
2.5368654e-06
3.6505908e-06
5.2037568e-06
7.3414971e-06
1.023976e-05
1.4103755e-05
1.9166526e-05
2.5681295e-05
3.3909296e-05
4.4117798e-05
5.6600429e-05
7.1718848e-05
8.9808961e-05
0.00011061787
0.00013347296
0.00015552853
0.00017238738
0.00017220239
0.00015647054
0.00013962656
0.00012625937
0.00011710138
0.00011769443
0.00012462474
0.00013368716
0.00014622894
0.00015370234
0.00015731495
0.00015695561
0.00015304813
0.00014390926
0.00013828185
0.00013431555
0.00013038571
0.00012586455
0.0001223357
0.00011913164
0.00011608429
0.00011266682
0.00010996863
0.00010794895
0.00010710934
0.00010668163
5.8949144e-14
1.852389e-12
1.5147727e-11
6.5146405e-11
2.0048572e-10
5.0596279e-10
1.1221226e-09
2.2745637e-09
4.3172511e-09
7.7960309e-09
1.3541174e-08
2.2801427e-08
3.7437033e-08
6.0195946e-08
9.5106262e-08
1.4802908e-07
2.2742915e-07
3.4543434e-07
5.192657e-07
7.7311948e-07
1.140556e-06
1.6673729e-06
2.4147764e-06
3.4622882e-06
4.9094718e-06
6.8748503e-06
9.489678e-06
1.2883686e-05
1.7162315e-05
2.2383647e-05
2.8526154e-05
3.5490468e-05
4.3102082e-05
5.1117351e-05
5.9147124e-05
6.6633908e-05
7.2288062e-05
7.3811948e-05
7.0939137e-05
6.8986793e-05
6.8881571e-05
7.2831097e-05
8.0163006e-05
8.776604e-05
0.00010446161
0.00013036931
0.00015091064
0.00015610556
0.00015785348
0.00015719728
0.00015341609
0.00014389095
0.00013910967
0.00013531435
0.00013109843
0.00012647127
0.00012319619
0.00011962602
0.00011617293
0.00011319208
0.0001106578
0.00010869513
0.00010686697
0.00010612801
0.0001057549
4.5178758e-14
1.4196739e-12
1.1609195e-11
4.992765e-11
1.5364809e-10
3.8774953e-10
8.5991641e-10
1.7429682e-09
3.3079854e-09
5.97284e-09
1.0372813e-08
1.7462709e-08
2.8663544e-08
4.6071812e-08
7.2755567e-08
1.131692e-07
1.7372722e-07
2.6358481e-07
3.9567575e-07
5.8804859e-07
8.6550594e-07
1.2614657e-06
1.8197936e-06
2.5960653e-06
3.6572715e-06
5.0784143e-06
6.93399e-06
9.2825082e-06
1.2146375e-05
1.548083e-05
1.9156896e-05
2.2964637e-05
2.6624574e-05
2.9861755e-05
3.2262613e-05
3.3395124e-05
3.3253303e-05
3.3374076e-05
3.5708919e-05
4.065765e-05
4.6684677e-05
5.9151116e-05
7.4813206e-05
9.8616965e-05
0.00013737826
0.00015308035
0.00015806331
0.00015884005
0.00015783354
0.0001537807
0.00014430093
0.00013951416
0.0001357302
0.00013106733
0.00012717582
0.00012402097
0.00012046243
0.00011717493
0.00011452072
0.00011184498
0.00010914325
0.0001069866
0.0001051507
0.00010453795
0.00010422574
2.7873724e-14
8.7588812e-13
7.1624059e-12
3.0802807e-11
9.4790088e-11
2.392026e-10
5.3044379e-10
1.0750473e-09
2.0400422e-09
3.6827422e-09
6.3940091e-09
1.0760648e-08
1.7654749e-08
2.8360591e-08
4.4753222e-08
6.9546845e-08
1.0663524e-07
1.6154914e-07
2.4205403e-07
3.5890117e-07
5.2671467e-07
7.6493449e-07
1.0986175e-06
1.5587109e-06
2.1811043e-06
3.0035018e-06
4.0589452e-06
5.3651916e-06
6.9108561e-06
8.6393494e-06
1.044493e-05
1.2178647e-05
1.3670119e-05
1.4761269e-05
1.549682e-05
1.6577817e-05
1.8693285e-05
2.1495845e-05
2.7332176e-05
3.6781065e-05
5.1613144e-05
7.2296194e-05
0.00010177187
0.0001387824
0.00015553176
0.00016002719
0.00016017862
0.00015893232
0.00015443499
0.00014491332
0.00014018758
0.00013605038
0.00013189529
0.00012830616
0.00012515927
0.00012113437
0.00011813044
0.000115227
0.00011231278
0.00010959945
0.00010727619
0.0001055203
0.00010411148
0.00010377985
0.00010346296
1.4510229e-14
4.5596039e-13
3.7284949e-12
1.6034513e-11
4.9341487e-11
1.245058e-10
2.7607375e-10
5.5944749e-10
1.061442e-09
1.9157003e-09
3.3250286e-09
5.593513e-09
9.1723291e-09
1.4724492e-08
2.321539e-08
3.6037695e-08
5.5180716e-08
8.345475e-08
1.2477873e-07
1.8453173e-07
2.6995079e-07
3.9052209e-07
5.5825147e-07
7.8760186e-07
1.0947643e-06
1.4958385e-06
2.0034808e-06
2.6220158e-06
3.3421594e-06
4.1376364e-06
4.9694291e-06
5.8040463e-06
6.6610638e-06
7.7819689e-06
9.2500391e-06
1.1803127e-05
1.5920072e-05
2.2401514e-05
3.3719147e-05
5.0847027e-05
7.3432036e-05
0.00010297893
0.00013752547
0.00015651658
0.00016220222
0.00016216968
0.00016060733
0.00015533287
0.00014601501
0.0001410965
0.00013672629
0.00013260374
0.00012931691
0.00012549471
0.00012184259
0.00011891573
0.00011615548
0.00011317516
0.0001107934
0.00010854287
0.00010634519
0.00010461998
0.0001031475
0.00010277799
0.00010226433
7.022984e-15
2.206855e-13
1.8045821e-12
7.7605063e-12
2.387978e-11
6.0253472e-11
1.3359191e-10
2.7068373e-10
5.1348586e-10
9.265447e-10
1.6077283e-09
2.7036218e-09
4.4314207e-09
7.1097633e-09
1.1201649e-08
1.7373333e-08
2.6573672e-08
4.0138475e-08
5.9923239e-08
8.8464144e-08
1.2915956e-07
1.8645071e-07
2.6595883e-07
3.7451023e-07
5.1995712e-07
7.1075091e-07
9.5532983e-07
1.2618063e-06
1.6392706e-06
2.0986611e-06
2.6774976e-06
3.4645823e-06
4.6282512e-06
6.432091e-06
9.2931118e-06
1.4048284e-05
2.1673912e-05
3.3821232e-05
5.1006548e-05
7.3364609e-05
0.00010192935
0.00013493504
0.00015717795
0.00016446294
0.00016468336
0.00016278964
0.00015679282
0.00014750344
0.00014243178
0.00013759437
0.00013351885
0.00013006532
0.00012638938
0.00012282685
0.00012026477
0.00011695477
0.00011419103
0.00011167476
0.00010924097
0.00010681167
0.00010478827
0.00010325535
0.0001020647
0.00010179232
0.00010130124
4.0962843e-15
1.2871883e-13
1.0525528e-12
4.5264084e-12
1.392793e-11
3.5142053e-11
7.7913253e-11
1.5786238e-10
2.994554e-10
5.4033488e-10
9.3759152e-10
1.5767791e-09
2.5847768e-09
4.1479966e-09
6.5379325e-09
1.014666e-08
1.5535606e-08
2.3501673e-08
3.5165595e-08
5.2088102e-08
7.6419222e-08
1.1108979e-07
1.6005661e-07
2.2862831e-07
3.2393934e-07
4.5573933e-07
6.3789025e-07
8.9147003e-07
1.251632e-06
1.7776408e-06
2.5732337e-06
3.8159335e-06
5.8107363e-06
9.0346503e-06
1.4161723e-05
2.2165231e-05