/*--------------------------------*- C++ -*----------------------------------*\
  =========                 |
  \\      /  F ield         | OpenFOAM: The Open Source CFD Toolbox
   \\    /   O peration     | Website:  https://openfoam.org
    \\  /    A nd           | Version:  13
     \\/     M anipulation  |
\*---------------------------------------------------------------------------*/
FoamFile
{
    format      ascii;
    class       volScalarField;
    location    "11.89602";
    object      pPrime2Mean;
}
// * * * * * * * * * * * * * * * * * * * * * * * * * * * * * * * * * * * * * //

dimensions      [0 4 -4 0 0 0 0];

internalField   nonuniform List<scalar> 
17140
(
26063.861
26063.863
26063.864
26063.864
26063.864
26063.863
26063.861
26063.857
26063.853
26063.846
26063.837
26063.825
26063.808
26063.787
26063.76
26063.725
26063.68
26063.623
26063.549
26063.454
26063.333
26063.177
26062.977
26062.721
26062.392
26061.971
26061.43
26060.739
26059.86
26058.747
26057.343
26055.576
26053.36
26050.591
26047.141
26042.858
26037.56
26031.037
26023.044
26013.298
26001.478
25987.219
25970.107
25949.675
25925.402
25896.709
25862.958
25823.455
25777.438
25724.089
25662.522
25591.783
25510.846
25418.613
25313.903
25195.454
25061.913
24911.822
24743.604
24555.562
24345.784
24112.165
23852.358
23563.854
23244.043
26064.53
26064.531
26064.532
26064.532
26064.532
26064.531
26064.529
26064.525
26064.52
26064.514
26064.504
26064.492
26064.475
26064.454
26064.426
26064.39
26064.344
26064.286
26064.21
26064.114
26063.991
26063.833
26063.631
26063.373
26063.042
26062.618
26062.076
26061.384
26060.506
26059.395
26057.992
26056.228
26054.016
26051.251
26047.805
26043.525
26038.232
26031.714
26023.727
26013.988
26002.176
25987.926
25970.825
25950.406
25926.147
25897.47
25863.738
25824.254
25778.259
25724.935
25663.395
25592.688
25511.789
25419.597
25314.934
25196.54
25063.058
24913.033
24744.888
24556.928
24347.243
24113.729
23854.041
23565.673
23245.999
26066.182
26066.183
26066.184
26066.184
26066.184
26066.182
26066.18
26066.176
26066.171
26066.163
26066.153
26066.14
26066.122
26066.1
26066.07
26066.033
26065.985
26065.923
26065.845
26065.746
26065.619
26065.457
26065.251
26064.989
26064.654
26064.228
26063.684
26062.992
26062.115
26061.006
26059.608
26057.85
26055.644
26052.886
26049.448
26045.176
26039.892
26033.385
26025.409
26015.685
26003.892
25989.664
25972.589
25952.2
25927.977
25899.34
25865.652
25826.216
25780.275
25727.011
25665.54
25594.912
25514.104
25422.015
25317.469
25199.207
25065.873
24916.012
24748.048
24560.291
24350.834
24117.577
23858.177
23570.137
23250.794
26068.852
26068.853
26068.854
26068.854
26068.853
26068.851
26068.849
26068.844
26068.838
26068.83
26068.818
26068.804
26068.785
26068.76
26068.729
26068.689
26068.638
26068.574
26068.492
26068.389
26068.258
26068.092
26067.881
26067.615
26067.277
26066.848
26066.304
26065.613
26064.739
26063.635
26062.243
26060.492
26058.295
26055.545
26052.117
26047.857
26042.586
26036.094
26028.139
26018.439
26006.674
25992.481
25975.448
25955.108
25930.941
25902.367
25868.75
25829.392
25783.537
25730.371
25669.012
25598.514
25517.853
25425.932
25321.578
25203.533
25070.441
24920.849
24753.182
24565.757
24356.671
24123.831
23864.899
23577.389
23258.577
26072.575
26072.576
26072.577
26072.576
26072.575
26072.573
26072.569
26072.564
26072.558
26072.548
26072.536
26072.52
26072.5
26072.474
26072.441
26072.398
26072.345
26072.278
26072.193
26072.086
26071.952
26071.782
26071.569
26071.3
26070.96
26070.53
26069.987
26069.298
26068.428
26067.329
26065.944
26064.201
26062.012
26059.273
26055.857
26051.611
26046.358
26039.888
26031.96
26022.292
26010.568
25996.423
25979.447
25959.175
25935.085
25906.598
25873.078
25833.827
25788.093
25735.064
25673.864
25603.548
25523.095
25431.413
25327.329
25209.589
25076.84
24927.627
24760.381
24573.425
24364.864
24132.611
23874.336
23587.571
23269.505
26077.384
26077.385
26077.385
26077.384
26077.383
26077.38
26077.376
26077.371
26077.363
26077.353
26077.341
26077.324
26077.303
26077.275
26077.241
26077.198
26077.143
26077.074
26076.988
26076.879
26076.743
26076.572
26076.358
26076.088
26075.748
26075.32
26074.779
26074.094
26073.229
26072.136
26070.757
26069.022
26066.843
26064.115
26060.712
26056.484
26051.253
26044.811
26036.916
26027.291
26015.618
26001.535
25984.633
25964.446
25940.455
25912.079
25878.682
25839.57
25793.994
25741.144
25680.151
25610.072
25529.892
25438.521
25334.791
25217.45
25085.148
24936.433
24769.739
24583.398
24375.524
24144.037
23886.618
23600.825
23283.736
26083.324
26083.324
26083.324
26083.323
26083.321
26083.318
26083.314
26083.308
26083.301
26083.29
26083.277
26083.26
26083.238
26083.211
26083.176
26083.132
26083.078
26083.009
26082.922
26082.814
26082.678
26082.508
26082.295
26082.027
26081.69
26081.265
26080.728
26080.048
26079.188
26078.101
26076.73
26075.002
26072.833
26070.117
26066.729
26062.522
26057.317
26050.908
26043.054
26033.481
26021.87
26007.863
25991.051
25970.969
25947.096
25918.855
25885.609
25846.67
25801.29
25748.664
25687.929
25618.146
25538.306
25447.323
25344.034
25227.191
25095.447
24947.352
24781.35
24595.779
24388.764
24158.233
23901.882
23617.299
23301.433
26090.445
26090.446
26090.445
26090.444
26090.442
26090.439
26090.435
26090.429
26090.421
26090.41
26090.397
26090.38
26090.359
26090.332
26090.297
26090.254
26090.201
26090.133
26090.048
26089.942
26089.809
26089.642
26089.432
26089.168
26088.835
26088.414
26087.882
26087.208
26086.354
26085.273
26083.908
26082.188
26080.029
26077.325
26073.955
26069.77
26064.595
26058.225
26050.42
26040.907
26029.371
26015.453
25998.746
25978.786
25955.054
25926.972
25893.909
25855.177
25810.034
25757.68
25697.256
25627.833
25548.404
25457.889
25355.132
25238.889
25107.817
24960.474
24795.311
24610.675
24404.698
24175.324
23920.264
23637.145
23322.761
26098.81
26098.81
26098.809
26098.808
26098.806
26098.802
26098.798
26098.792
26098.784
26098.774
26098.761
26098.744
26098.723
26098.697
26098.664
26098.622
26098.57
26098.505
26098.423
26098.32
26098.19
26098.027
26097.822
26097.562
26097.234
26096.819
26096.292
26095.623
26094.775
26093.7
26092.341
26090.629
26088.48
26085.79
26082.439
26078.28
26073.138
26066.811
26059.062
26049.618
26038.166
26024.351
26007.764
25987.945
25964.374
25936.477
25903.627
25865.14
25820.278
25768.246
25708.192
25639.193
25560.25
25470.289
25368.158
25252.624
25122.347
24975.893
24811.725
24628.194
24423.446
24195.439
23941.905
23660.517
23347.892
26108.483
26108.482
26108.481
26108.48
26108.478
26108.474
26108.47
26108.464
26108.456
26108.446
26108.433
26108.417
26108.397
26108.371
26108.339
26108.299
26108.249
26108.186
26108.106
26108.006
26107.88
26107.721
26107.52
26107.265
26106.942
26106.531
26106.008
26105.344
26104.501
26103.431
26102.079
26100.374
26098.236
26095.561
26092.231
26088.099
26082.995
26076.716
26069.028
26059.661
26048.304
26034.603
26018.152
25998.49
25975.101
25947.415
25914.81
25876.607
25832.071
25780.415
25720.791
25652.286
25573.908
25484.589
25383.188
25268.475
25139.119
24993.698
24830.683
24648.442
24445.13
24218.712
23966.951
23687.574
23376.996
26119.522
26119.521
26119.52
26119.519
26119.516
26119.513
26119.508
26119.502
26119.494
26119.484
26119.472
26119.456
26119.436
26119.411
26119.38
26119.341
26119.293
26119.231
26119.154
26119.056
26118.933
26118.777
26118.579
26118.328
26118.008
26117.6
26117.08
26116.419
26115.58
26114.515
26113.168
26111.473
26109.346
26106.688
26103.38
26099.279
26094.215
26087.989
26080.368
26071.086
26059.833
26046.257
26029.954
26010.466
25987.28
25959.832
25927.505
25889.625
25845.462
25794.236
25735.108
25667.172
25589.443
25500.862
25400.296
25286.523
25158.224
25013.987
24852.303
24671.542
24469.876
24245.277
23995.548
23718.474
23410.248
26131.982
26131.981
26131.98
26131.978
26131.975
26131.971
26131.966
26131.96
26131.952
26131.942
26131.93
26131.914
26131.894
26131.87
26131.839
26131.8
26131.752
26131.692
26131.615
26131.519
26131.397
26131.242
26131.046
26130.795
26130.477
26130.07
26129.553
26128.894
26128.057
26126.996
26125.656
26123.97
26121.857
26119.218
26115.935
26111.868
26106.848
26100.68
26093.132
26083.942
26072.802
26059.361
26043.218
26023.92
26000.958
25973.774
25941.758
25904.242
25860.502
25809.767
25751.205
25683.917
25606.927
25519.185
25419.567
25306.861
25179.761
25036.873
24876.699
24697.614
24497.808
24275.273
24027.846
23753.382
23447.822
26145.9
26145.899
26145.898
26145.896
26145.893
26145.889
26145.884
26145.877
26145.869
26145.859
26145.846
26145.83
26145.81
26145.785
26145.754
26145.715
26145.667
26145.606
26145.529
26145.433
26145.31
26145.156
26144.959
26144.708
26144.39
26143.984
26143.467
26142.809
26141.975
26140.92
26139.588
26137.914
26135.816
26133.198
26129.944
26125.914
26120.943
26114.838
26107.37
26098.278
26087.259
26073.963
26057.994
26038.901
26016.186
25989.295
25957.625
25920.514
25877.251
25827.07
25769.148
25702.592
25626.434
25539.636
25441.084
25329.579
25203.827
25062.453
24903.973
24726.776
24529.058
24308.839
24063.996
23792.459
23489.894
26161.312
26161.311
26161.309
26161.307
26161.304
26161.3
26161.294
26161.288
26161.279
26161.269
26161.255
26161.239
26161.218
26161.193
26161.161
26161.122
26161.072
26161.01
26160.933
26160.835
26160.711
26160.555
26160.357
26160.106
26159.786
26159.38
26158.863
26158.208
26157.379
26156.33
26155.009
26153.348
26151.27
26148.677
26145.455
26141.467
26136.55
26130.513
26123.131
26114.146
26103.255
26090.115
26074.332
26055.465
26033.019
26006.452
25975.165
25938.508
25895.778
25846.217
25789.01
25723.271
25648.043
25562.298
25464.935
25354.768
25230.521
25090.838
24934.25
24759.153
24563.758
24346.117
24104.148
23835.87
23536.638
26178.253
26178.252
26178.251
26178.248
26178.245
26178.241
26178.235
26178.228
26178.22
26178.209
26178.195
26178.178
26178.157
26178.131
26178.098
26178.058
26178.007
26177.944
26177.865
26177.766
26177.641
26177.483
26177.283
26177.031
26176.71
26176.304
26175.79
26175.138
26174.314
26173.274
26171.965
26170.322
26168.267
26165.703
26162.518
26158.577
26153.72
26147.758
26140.47
26131.598
26120.846
26107.872
26092.292
26073.67
26051.521
26025.309
25994.448
25958.296
25916.157
25867.285
25810.87
25746.036
25671.838
25587.26
25491.214
25382.529
25259.951
25122.142
24967.644
24794.868
24602.041
24387.248
24148.455
23883.776
23588.227
26196.771
26196.77
26196.769
26196.767
26196.763
26196.759
26196.753
26196.746
26196.737
26196.726
26196.712
26196.695
26196.674
26196.647
26196.614
26196.573
26196.521
26196.457
26196.377
26196.277
26196.15
26195.991
26195.791
26195.538
26195.217
26194.812
26194.301
26193.654
26192.837
26191.809
26190.515
26188.892
26186.862
26184.331
26181.189
26177.3
26172.509
26166.629
26159.441
26150.692
26140.088
26127.295
26111.935
26093.581
26071.758
26045.941
26015.55
25979.953
25938.468
25890.354
25834.811
25770.973
25697.907
25614.613
25520.015
25412.964
25292.225
25156.478
25004.277
24834.047
24644.038
24432.373
24197.067
23936.34
23644.833
26216.928
26216.927
26216.925
26216.923
26216.92
26216.916
26216.91
26216.903
26216.894
26216.883
26216.869
26216.852
26216.83
26216.803
26216.77
26216.728
26216.677
26216.612
26216.532
26216.431
26216.304
26216.145
26215.944
26215.691
26215.372
26214.97
26214.462
26213.821
26213.014
26211.997
26210.72
26209.119
26207.117
26204.623
26201.525
26197.694
26192.975
26187.183
26180.103
26171.486
26161.044
26148.448
26133.328
26115.268
26093.804
26068.42
26038.545
26003.56
25962.79
25915.506
25860.916
25798.167
25726.34
25644.45
25551.438
25446.176
25327.451
25193.958
25044.267
24876.814
24689.883
24481.633
24250.134
23993.722
23706.625
26238.792
26238.791
26238.789
26238.787
26238.784
26238.78
26238.775
26238.768
26238.759
26238.748
26238.734
26238.717
26238.696
26238.669
26238.636
26238.594
26238.543
26238.478
26238.398
26238.297
26238.171
26238.013
26237.813
26237.562
26237.246
26236.847
26236.343
26235.709
26234.911
26233.907
26232.647
26231.069
26229.097
26226.641
26223.593
26219.824
26215.18
26209.483
26202.52
26194.046
26183.778
26171.397
26156.541
26138.805
26117.734
26092.822
26063.512
26029.194
25989.205
25942.823
25889.27
25827.706
25757.228
25676.865
25585.581
25482.27
25365.738
25234.697
25087.727
24923.292
24739.705
24535.168
24307.805
24056.08
23773.768
26262.431
26262.43
26262.429
26262.427
26262.424
26262.421
26262.415
26262.409
26262.4
26262.39
26262.376
26262.359
26262.338
26262.312
26262.279
26262.239
26262.188
26262.124
26262.045
26261.946
26261.821
26261.664
26261.467
26261.219
26260.907
26260.512
26260.015
26259.389
26258.601
26257.611
26256.368
26254.812
26252.871
26250.454
26247.457
26243.752
26239.191
26233.595
26226.757
26218.436
26208.358
26196.212
26181.645
26164.263
26143.621
26119.225
26090.529
26056.936
26017.791
25972.387
25919.958
25859.678
25790.66
25711.953
25622.542
25521.348
25407.192
25278.804
25134.776
24973.604
24793.635
24593.114
24370.226
24123.568
23846.423
26287.906
26287.906
26287.905
26287.903
26287.9
26287.896
26287.892
26287.885
26287.877
26287.867
26287.854
26287.838
26287.817
26287.792
26287.76
26287.721
26287.671
26287.609
26287.532
26287.434
26287.312
26287.159
26286.966
26286.722
26286.415
26286.028
26285.539
26284.923
26284.147
26283.171
26281.947
26280.416
26278.505
26276.13
26273.185
26269.548
26265.072
26259.582
26252.877
26244.723
26234.852
26222.962
26208.711
26191.714
26171.539
26147.703
26119.672
26086.862
26048.63
26004.281
25953.064
25894.168
25826.724
25749.802
25662.419
25563.511
25451.92
25326.385
25185.527
25027.87
24851.8
24655.607
24437.538
24196.338
23924.748
26315.261
26315.261
26315.26
26315.258
26315.256
26315.253
26315.248
26315.242
26315.235
26315.225
26315.213
26315.197
26315.178
26315.153
26315.123
26315.085
26315.037
26314.978
26314.903
26314.809
26314.691
26314.542
26314.354
26314.118
26313.819
26313.441
26312.964
26312.361
26311.601
26310.645
26309.445
26307.942
26306.067
26303.735
26300.846
26297.279
26292.891
26287.514
26280.95
26272.974
26263.327
26251.716
26237.809
26221.231
26201.561
26178.33
26151.017
26119.049
26081.798
26038.582
25988.665
25931.254
25865.5
25790.504
25705.304
25608.856
25500.019
25377.546
25240.089
25086.207
24914.324
24722.777
24509.881
24274.535
24008.891
26344.535
26344.534
26344.534
26344.532
26344.53
26344.527
26344.523
26344.517
26344.51
26344.501
26344.49
26344.475
26344.457
26344.434
26344.406
26344.37
26344.325
26344.268
26344.197
26344.107
26343.994
26343.852
26343.672
26343.444
26343.156
26342.791
26342.329
26341.745
26341.007
26340.077
26338.907
26337.441
26335.609
26333.328
26330.501
26327.01
26322.717
26317.458
26311.044
26303.26
26293.854
26282.544
26269.009
26252.885
26233.761
26211.182
26184.639
26153.573
26117.372
26075.366
26026.837
25971.012
25907.073
25834.148
25751.291
25657.481
25551.585
25432.389
25298.573
25148.732
24981.331
24794.754
24587.388
24358.3
24098.995
26375.763
26375.763
26375.762
26375.761
26375.759
26375.756
26375.753
26375.748
26375.741
26375.733
26375.722
26375.709
26375.692
26375.671
26375.645
26375.611
26375.569
26375.517
26375.45
26375.366
26375.26
26375.125
26374.955
26374.739
26374.464
26374.116
26373.673
26373.112
26372.402
26371.504
26370.373
26368.952
26367.173
26364.956
26362.202
26358.798
26354.61
26349.481
26343.231
26335.652
26326.506
26315.522
26302.386
26286.748
26268.21
26246.329
26220.61
26190.508
26155.423
26114.702
26067.648
26013.521
25951.528
25880.821
25800.468
25709.469
25606.712
25491.014
25361.084
25215.557
25052.939
24871.661
24670.188
24447.769
24195.194
26408.997
26408.997
26408.996
26408.995
26408.994
26408.991
26408.988
26408.984
26408.978
26408.97
26408.961
26408.949
26408.934
26408.914
26408.89
26408.859
26408.821
26408.772
26408.71
26408.632
26408.533
26408.408
26408.248
26408.044
26407.785
26407.454
26407.034
26406.499
26405.82
26404.961
26403.875
26402.509
26400.795
26398.652
26395.986
26392.686
26388.62
26383.639
26377.571
26370.219
26361.355
26350.719
26338.011
26322.892
26304.98
26283.844
26259.001
26229.916
26196.007
26156.646
26111.166
26058.853
25998.945
25930.597
25852.915
25764.905
25665.491
25553.516
25427.724
25286.791
25129.263
24953.619
24758.406
24543.072
24297.614
26444.293
26444.293
26444.293
26444.292
26444.291
26444.289
26444.286
26444.282
26444.277
26444.27
26444.261
26444.25
26444.236
26444.219
26444.197
26444.169
26444.133
26444.088
26444.031
26443.959
26443.867
26443.749
26443.6
26443.408
26443.164
26442.852
26442.453
26441.946
26441.301
26440.482
26439.447
26438.14
26436.498
26434.441
26431.878
26428.698
26424.777
26419.969
26414.11
26407.01
26398.454
26388.193
26375.942
26361.378
26344.132
26323.781
26299.854
26271.836
26239.171
26201.259
26157.459
26107.085
26049.385
25983.554
25908.701
25823.868
25728.006
25619.989
25498.595
25362.54
25210.414
25040.743
24852.158
24644.335
24406.377
26481.713
26481.714
26481.713
26481.713
26481.711
26481.71
26481.707
26481.703
26481.699
26481.693
26481.685
26481.675
26481.662
26481.645
26481.625
26481.598
26481.565
26481.523
26481.469
26481.401
26481.314
26481.203
26481.061
26480.879
26480.648
26480.351
26479.973
26479.492
26478.879
26478.102
26477.117
26475.874
26474.31
26472.349
26469.9
26466.859
26463.103
26458.492
26452.867
26446.048
26437.829
26427.975
26416.217
26402.243
26385.692
26366.161
26343.198
26316.312
26284.972
26248.605
26206.59
26158.269
26102.916
26039.746
25967.896
25886.433
25794.338
25690.52
25573.79
25442.904
25296.499
25133.144
24951.558
24751.678
24521.598
26521.306
26521.306
26521.306
26521.306
26521.304
26521.303
26521.3
26521.297
26521.292
26521.286
26521.279
26521.269
26521.256
26521.241
26521.22
26521.195
26521.162
26521.121
26521.069
26521.003
26520.919
26520.812
26520.675
26520.501
26520.278
26519.995
26519.634
26519.176
26518.594
26517.856
26516.923
26515.745
26514.262
26512.402
26510.077
26507.187
26503.612
26499.219
26493.854
26487.345
26479.495
26470.081
26458.844
26445.488
26429.673
26411.011
26389.071
26363.387
26333.456
26298.723
26258.603
26212.454
26159.586
26099.233
26030.561
25952.667
25864.562
25765.192
25653.4
25527.983
25387.62
25230.929
25056.714
24865.216
24643.396
26563.094
26563.094
26563.094
26563.093
26563.092
26563.09
26563.088
26563.084
26563.08
26563.074
26563.066
26563.056
26563.043
26563.027
26563.007
26562.981
26562.948
26562.907
26562.855
26562.789
26562.705
26562.6
26562.466
26562.296
26562.08
26561.807
26561.462
26561.024
26560.471
26559.772
26558.89
26557.778
26556.38
26554.626
26552.434
26549.705
26546.326
26542.168
26537.082
26530.905
26523.447
26514.499
26503.819
26491.125
26476.091
26458.35
26437.496
26413.09
26384.648
26351.647
26313.53
26269.683
26219.437
26162.062
26096.751
26022.632
25938.75
25844.083
25737.512
25617.869
25483.879
25334.202
25167.731
24985.056
24771.897
26607.072
26607.072
26607.072
26607.072
26607.07
26607.068
26607.066
26607.062
26607.057
26607.051
26607.043
26607.032
26607.019
26607.002
26606.981
26606.954
26606.921
26606.879
26606.826
26606.76
26606.677
26606.572
26606.44
26606.273
26606.064
26605.801
26605.47
26605.053
26604.529
26603.869
26603.04
26601.996
26600.686
26599.042
26596.987
26594.426
26591.252
26587.339
26582.549
26576.722
26569.684
26561.235
26551.148
26539.156
26524.952
26508.19
26488.488
26465.435
26438.572
26407.405
26371.404
26329.983
26282.507
26228.275
26166.515
26096.386
26016.965
25927.267
25826.206
25712.654
25585.374
25443.067
25284.719
25111.307
24907.237
26653.211
26653.212
26653.211
26653.21
26653.209
26653.207
26653.204
26653.2
26653.195
26653.189
26653.18
26653.169
26653.156
26653.139
26653.117
26653.09
26653.056
26653.014
26652.961
26652.895
26652.813
26652.71
26652.581
26652.42
26652.219
26651.968
26651.653
26651.26
26650.768
26650.15
26649.376
26648.404
26647.184
26645.654
26643.739
26641.352
26638.388
26634.732
26630.251
26624.796
26618.202
26610.284
26600.827
26589.58
26576.257
26560.532
26542.055
26520.435
26495.238
26466.007
26432.238
26393.378
26348.823
26297.907
26239.892
26173.973
26099.263
26014.809
25919.56
25812.426
25692.205
25557.631
25407.795
25244.108
25049.557
26701.478
26701.478
26701.478
26701.477
26701.475
26701.473
26701.47
26701.466
26701.461
26701.455
26701.446
26701.436
26701.422
26701.406
26701.385
26701.359
26701.326
26701.285
26701.234
26701.171
26701.092
26700.994
26700.872
26700.721
26700.532
26700.297
26700.004
26699.639
26699.183
26698.612
26697.898
26697.001
26695.874
26694.46
26692.689
26690.479
26687.734
26684.344
26680.185
26675.121
26668.998
26661.641
26652.85
26642.393
26630
26615.376
26598.193
26578.082
26554.648
26527.458
26496.041
26459.88
26418.402
26370.979
26316.912
26255.434
26185.692
26106.769
26017.648
25917.273
25804.473
25678.008
25537.091
25383.641
25199.006
26751.849
26751.849
26751.849
26751.848
26751.847
26751.845
26751.842
26751.839
26751.834
26751.828
26751.82
26751.81
26751.798
26751.783
26751.764
26751.74
26751.71
26751.672
26751.626
26751.568
26751.497
26751.407
26751.296
26751.159
26750.987
26750.774
26750.509
26750.178
26749.764
26749.246
26748.595
26747.777
26746.747
26745.453
26743.829
26741.801
26739.281
26736.167
26732.346
26727.692
26722.063
26715.297
26707.209
26697.582
26686.172
26672.709
26656.886
26638.369
26616.792
26591.752
26562.812
26529.49
26491.251
26447.506
26397.596
26340.796
26276.291
26203.2
26120.54
26027.285
25922.29
25804.327
25672.713
25529.915
25355.988
26804.322
26804.322
26804.321
26804.321
26804.32
26804.318
26804.316
26804.312
26804.308
26804.303
26804.297
26804.288
26804.278
26804.265
26804.248
26804.228
26804.202
26804.17
26804.13
26804.08
26804.018
26803.941
26803.845
26803.725
26803.576
26803.389
26803.156
26802.863
26802.496
26802.033
26801.45
26800.713
26799.783
26798.611
26797.139
26795.3
26793.012
26790.186
26786.718
26782.493
26777.382
26771.236
26763.884
26755.13
26744.753
26732.507
26718.117
26701.277
26681.651
26658.871
26632.535
26602.198
26567.364
26527.486
26481.95
26430.075
26371.088
26304.147
26228.301
26142.553
26045.784
25936.736
25814.725
25683.304
25520.634
26858.903
26858.903
26858.902
26858.902
26858.901
26858.9
26858.898
26858.895
26858.892
26858.888
26858.882
26858.875
26858.867
26858.856
26858.842
26858.825
26858.804
26858.778
26858.745
26858.704
26858.652
26858.588
26858.507
26858.406
26858.28
26858.121
26857.92
26857.667
26857.346
26856.94
26856.425
26855.772
26854.944
26853.899
26852.585
26850.942
26848.898
26846.372
26843.273
26839.497
26834.928
26829.429
26822.847
26815.006
26805.712
26794.744
26781.857
26766.775
26749.197
26728.788
26705.183
26677.977
26646.72
26610.906
26569.968
26523.275
26470.1
26409.645
26340.99
26263.172
26175.079
26075.308
25963.352
25843.995
25693.099
26915.59
26915.59
26915.59
26915.589
26915.588
26915.587
26915.585
26915.583
26915.58
26915.577
26915.572
26915.567
26915.56
26915.551
26915.539
26915.525
26915.508
26915.486
26915.459
26915.425
26915.382
26915.328
26915.261
26915.177
26915.07
26914.935
26914.765
26914.548
26914.273
26913.922
26913.474
26912.906
26912.184
26911.271
26910.122
26908.683
26906.894
26904.683
26901.97
26898.664
26894.659
26889.834
26884.055
26877.169
26869.007
26859.377
26848.062
26834.82
26819.384
26801.457
26780.712
26756.788
26729.28
26697.733
26661.627
26620.382
26573.328
26519.715
26458.662
26389.23
26310.261
26220.378
26118.781
26012.149
25873.932
26974.356
26974.355
26974.355
26974.355
26974.354
26974.353
26974.351
26974.349
26974.346
26974.343
26974.339
26974.334
26974.327
26974.319
26974.308
26974.296
26974.28
26974.26
26974.236
26974.206
26974.168
26974.122
26974.063
26973.99
26973.899
26973.784
26973.638
26973.454
26973.22
26972.922
26972.543
26972.06
26971.447
26970.671
26969.694
26968.47
26966.947
26965.065
26962.755
26959.936
26956.517
26952.394
26947.453
26941.564
26934.583
26926.348
26916.673
26905.352
26892.151
26876.817
26859.062
26838.571
26814.989
26787.914
26756.88
26721.364
26680.756
26634.363
26581.352
26520.776
26451.575
26372.136
26281.372
26188.074
26063.688
27035.13
27035.129
27035.129
27035.128
27035.127
27035.126
27035.124
27035.122
27035.119
27035.115
27035.111
27035.105
27035.098
27035.09
27035.079
27035.067
27035.051
27035.031
27035.008
27034.978
27034.943
27034.899
27034.846
27034.781
27034.7
27034.6
27034.476
27034.321
27034.127
27033.88
27033.568
27033.172
27032.669
27032.033
27031.233
27030.23
27028.983
27027.442
27025.549
27023.234
27020.422
27017.03
27012.96
27008.11
27002.361
26995.58
26987.613
26978.291
26967.42
26954.787
26940.151
26923.247
26903.771
26881.377
26855.661
26826.162
26792.337
26753.553
26709.048
26657.945
26599.14
26530.937
26451.805
26372.387
26262.803
27097.805
27097.805
27097.804
27097.803
27097.802
27097.8
27097.798
27097.796
27097.792
27097.788
27097.783
27097.777
27097.769
27097.76
27097.748
27097.734
27097.717
27097.697
27097.673
27097.643
27097.608
27097.565
27097.515
27097.455
27097.383
27097.297
27097.192
27097.065
27096.907
27096.71
27096.463
27096.152
27095.758
27095.263
27094.641
27093.865
27092.901
27091.709
27090.243
27088.449
27086.268
27083.633
27080.472
27076.704
27072.238
27066.969
27060.779
27053.535
27045.086
27035.263
27023.878
27010.714
26995.523
26978.019
26957.866
26934.669
26907.969
26877.228
26841.763
26800.752
26753.154
26697.209
26631.067
26566.078
26471.256
27162.235
27162.235
27162.234
27162.233
27162.232
27162.23
27162.228
27162.225
27162.221
27162.217
27162.211
27162.205
27162.197
27162.187
27162.175
27162.161
27162.144
27162.123
27162.099
27162.07
27162.036
27161.997
27161.951
27161.897
27161.835
27161.763
27161.677
27161.576
27161.454
27161.305
27161.121
27160.892
27160.608
27160.254
27159.814
27159.268
27158.592
27157.757
27156.73
27155.472
27153.942
27152.094
27149.876
27147.232
27144.098
27140.399
27136.053
27130.965
27125.03
27118.126
27110.116
27100.839
27090.107
27077.699
27063.356
27046.767
27027.556
27005.284
26979.406
26949.233
26913.813
26871.428
26820.211
26769.382
26690.419
27228.268
27228.267
27228.266
27228.265
27228.264
27228.262
27228.26
27228.257
27228.253
27228.249
27228.244
27228.238
27228.23
27228.221
27228.21
27228.198
27228.183
27228.165
27228.144
27228.119
27228.091
27228.058
27228.02
27227.977
27227.927
27227.87
27227.804
27227.727
27227.638
27227.532
27227.408
27227.262
27227.088
27226.877
27226.621
27226.308
27225.924
27225.453
27224.876
27224.17
27223.313
27222.279
27221.04
27219.562
27217.808
27215.735
27213.298
27210.443
27207.112
27203.236
27198.73
27193.493
27187.398
27180.297
27172.013
27162.324
27150.967
27137.617
27121.868
27103.242
27080.995
27053.781
27020.016
26985.494
26926.092
27298.747
27298.746
27298.745
27298.743
27298.742
27298.74
27298.738
27298.735
27298.732
27298.728
27298.724
27298.719
27298.713
27298.706
27298.697
27298.687
27298.675
27298.661
27298.645
27298.626
27298.604
27298.579
27298.55
27298.517
27298.48
27298.438
27298.392
27298.34
27298.284
27298.223
27298.161
27298.098
27298.037
27297.979
27297.92
27297.859
27297.793
27297.72
27297.634
27297.531
27297.41
27297.267
27297.097
27296.891
27296.64
27296.336
27295.975
27295.548
27295.044
27294.449
27293.741
27292.884
27291.823
27290.492
27288.8
27286.639
27283.857
27280.28
27275.666
27269.763
27262.166
27252.138
27239.658
27228.319
27206.663
27372.89
27372.889
27372.888
27372.886
27372.885
27372.884
27372.882
27372.88
27372.877
27372.874
27372.871
27372.867
27372.863
27372.858
27372.852
27372.845
27372.837
27372.827
27372.816
27372.804
27372.789
27372.772
27372.753
27372.732
27372.709
27372.684
27372.66
27372.637
27372.62
27372.613
27372.622
27372.655
27372.721
27372.827
27372.98
27373.191
27373.47
27373.824
27374.262
27374.802
27375.465
27376.27
27377.236
27378.383
27379.734
27381.32
27383.175
27385.338
27387.852
27390.759
27394.101
27397.916
27402.229
27407.062
27412.425
27418.326
27424.747
27431.674
27439.057
27446.898
27455.161
27463.781
27473.532
27486.155
27495.697
27446.902
27446.901
27446.9
27446.899
27446.898
27446.896
27446.895
27446.894
27446.892
27446.891
27446.889
27446.888
27446.886
27446.884
27446.882
27446.88
27446.877
27446.874
27446.871
27446.868
27446.864
27446.86
27446.855
27446.849
27446.845
27446.842
27446.843
27446.854
27446.879
27446.927
27447.01
27447.141
27447.334
27447.602
27447.963
27448.435
27449.038
27449.8
27450.75
27451.925
27453.365
27455.112
27457.21
27459.709
27462.664
27466.142
27470.221
27474.986
27480.532
27486.959
27494.373
27502.886
27512.61
27523.657
27536.14
27550.184
27565.908
27583.464
27603.001
27624.757
27648.983
27676.097
27707.013
27742.786
27782.744
27520.456
27520.455
27520.454
27520.453
27520.452
27520.451
27520.451
27520.45
27520.45
27520.45
27520.451
27520.451
27520.452
27520.454
27520.456
27520.459
27520.463
27520.468
27520.474
27520.48
27520.488
27520.497
27520.508
27520.52
27520.536
27520.557
27520.587
27520.633
27520.704
27520.811
27520.969
27521.196
27521.514
27521.943
27522.508
27523.236
27524.164
27525.332
27526.788
27528.589
27530.796
27533.475
27536.694
27540.534
27545.084
27550.449
27556.747
27564.11
27572.684
27582.628
27594.111
27607.322
27622.456
27639.722
27659.335
27681.538
27706.587
27734.793
27766.495
27802.146
27842.245
27887.541
27939.112
27998.294
28066.915
27593.231
27593.23
27593.229
27593.229
27593.228
27593.228
27593.228
27593.229
27593.23
27593.231
27593.234
27593.237
27593.241
27593.246
27593.253
27593.261
27593.271
27593.283
27593.298
27593.314
27593.334
27593.356
27593.382
27593.413
27593.45
27593.496
27593.558
27593.642
27593.76
27593.928
27594.165
27594.495
27594.944
27595.537
27596.309
27597.298
27598.551
27600.125
27602.085
27604.506
27607.47
27611.068
27615.395
27620.562
27626.694
27633.931
27642.432
27652.376
27663.961
27677.402
27692.935
27710.82
27731.338
27754.791
27781.5
27811.821
27846.148
27884.943
27928.726
27978.151
28033.964
28097.186
28169.15
28251.604
28347.08
27664.961
27664.961
27664.96
27664.96
27664.96
27664.96
27664.961
27664.962
27664.965
27664.968
27664.972
27664.977
27664.984
27664.992
27665.003
27665.015
27665.031
27665.049
27665.071
27665.096
27665.125
27665.16
27665.2
27665.247
27665.304
27665.375
27665.466
27665.589
27665.757
27665.989
27666.309
27666.744
27667.325
27668.087
27669.07
27670.322
27671.903
27673.883
27676.343
27679.378
27683.089
27687.592