/*--------------------------------*- C++ -*----------------------------------*\
  =========                 |
  \\      /  F ield         | OpenFOAM: The Open Source CFD Toolbox
   \\    /   O peration     | Website:  https://openfoam.org
    \\  /    A nd           | Version:  13
     \\/     M anipulation  |
\*---------------------------------------------------------------------------*/
FoamFile
{
    format      ascii;
    class       surfaceScalarField;
    location    "0.004";
    object      CrankNicolson:ddtCorrDdt0(phi);
}
// * * * * * * * * * * * * * * * * * * * * * * * * * * * * * * * * * * * * * //

dimensions      [1 0 -2 0 0 0 0];

internalField   nonuniform List<scalar> 
999
(
-1.74391e-08
-3.26908e-08
1.32942e-08
-3.9636e-08
6.47786e-08
-3.73384e-08
1.88599e-09
-3.02279e-08
1.03823e-08
1.95203e-08
-1.15111e-08
-1.30888e-08
1.44641e-08
9.57498e-09
7.79126e-09
1.40693e-08
-6.09927e-09
2.12762e-09
-3.27661e-08
-8.58332e-10
3.34229e-09
4.67121e-08
-5.40871e-08
5.9954e-08
-3.43109e-08
-5.54012e-09
-3.72435e-08
2.12906e-08
1.19604e-08
-5.50039e-09
1.05525e-08
5.03615e-09
7.15782e-09
-1.75268e-08
-1.98734e-09
1.03871e-08
-2.49164e-08
1.52401e-08
-8.29988e-09
-1.80563e-08
2.74607e-08
-2.21679e-08
1.53132e-08
-2.5509e-08
2.7336e-08
-1.42529e-08
2.69096e-10
-1.37043e-08
3.52421e-08
-8.001e-09
-7.17851e-09
-2.77731e-08
-3.20938e-08
-4.0372e-08
2.11494e-08
-2.06474e-09
-1.01938e-08
-9.68391e-09
-5.77441e-09
-7.59075e-09
-1.22576e-08
3.33743e-09
3.49357e-08
-6.88832e-09
3.57052e-08
-1.50793e-08
2.49019e-09
-2.38041e-08
-2.6455e-08
3.7288e-08
-1.47416e-08
-3.89233e-08
1.01195e-08
-4.1108e-09
1.95081e-08
1.60084e-08
-3.54884e-08
-2.74125e-08
-1.52785e-08
-8.99439e-09
-5.89553e-09
-3.06637e-08
-2.86735e-08
2.01938e-09
3.21057e-08
2.71524e-08
7.56028e-09
6.18986e-09
-1.35799e-08
5.16198e-10
5.19325e-08
4.85194e-08
1.40266e-08
-9.9925e-09
-2.37145e-08
-5.22049e-08
-5.15866e-08
-5.12695e-08
-2.33803e-08
-1.36579e-08
-1.68558e-08
-1.8498e-08
-1.84071e-08
5.20325e-08
-3.89757e-09
-2.64671e-08
-2.51056e-09
4.00834e-09
1.89184e-08
1.6077e-08
2.15143e-09
2.331e-08
-8.31795e-09
2.92209e-09
-1.24753e-08
-1.70343e-08
-3.25515e-08
-2.90833e-08
-7.12941e-09
-1.0889e-09
-7.1259e-08
1.30211e-08
7.88558e-09
-7.53966e-09
2.33144e-08
4.93062e-08
-4.35487e-09
-9.23328e-09
-1.19356e-08
1.87891e-08
-6.32331e-09
-5.27204e-10
3.0706e-09
-2.61697e-08
-4.62645e-08
-4.17236e-08
-1.60593e-08
-1.2342e-08
1.24258e-08
2.53743e-08
2.46024e-08
1.60613e-08
3.62724e-09
5.01857e-08
-1.35207e-08
1.20936e-08
-3.95621e-08
9.65787e-09
1.61892e-08
-2.95737e-08
-8.73327e-09
1.59849e-08
-2.69178e-08
-2.14204e-08
-6.51675e-08
-9.05084e-10
5.95553e-09
1.95758e-08
1.19395e-08
-9.15158e-10
4.65316e-08
-2.88393e-08
-3.2506e-09
-1.75609e-08
3.87073e-10
-6.8694e-09
1.51943e-08
-9.86746e-10
2.49911e-08
2.54666e-09
1.26811e-08
5.07856e-09
-2.20368e-09
-1.77724e-08
1.16745e-08
-3.55372e-09
2.47611e-08
3.58133e-08
4.42434e-08
2.05906e-08
1.13782e-08
-1.0958e-08
3.07583e-08
-2.50792e-08
-6.9795e-09
-2.37277e-08
2.00449e-08
7.3627e-09
-3.7556e-09
-3.62787e-08
-1.03036e-08
-1.09555e-08
-7.72588e-09
-2.59879e-08
-2.31781e-08
-3.91967e-08
-1.23962e-08
3.44836e-08
1.52316e-08
2.82115e-08
-2.95855e-08
-6.81992e-09
1.19992e-08
1.9844e-09
6.80222e-09
-1.96483e-08
1.13543e-08
1.68088e-08
-2.77265e-08
-4.06744e-08
1.95972e-08
-3.65731e-09
4.30522e-08
-3.88306e-08
1.87658e-08
2.19287e-08
7.06045e-10
2.74518e-09
5.17683e-08
6.82078e-08
3.55332e-08
3.86213e-08
-3.06894e-08
6.17786e-08
-2.28464e-08
-6.12079e-09
-1.27426e-08
-3.21268e-08
-8.54986e-08
-3.86781e-08
-3.0203e-08
7.86264e-09
-1.7935e-08
-2.87346e-08
-2.75227e-09
2.60485e-09
1.86267e-08
4.22897e-08
3.87418e-09
6.42358e-08
-1.38811e-08
-3.91955e-08
3.51423e-08
-3.43059e-08
-1.04512e-08
-4.95796e-09
2.02905e-09
1.66407e-08
2.80854e-08
4.3089e-08
6.42469e-09
9.24994e-09
-6.54417e-09
-1.06383e-08
4.5075e-09
3.5654e-08
5.08802e-08
-5.41217e-09
-5.45611e-09
1.31998e-08
-6.09672e-10
1.30611e-08
-1.11161e-08
2.80302e-08
-3.16491e-08
3.95671e-08
-1.80355e-08
5.12075e-09
-1.24067e-08
-5.7719e-09
1.54647e-08
-3.02287e-08
1.12702e-08
-1.91763e-08
-1.67983e-08
-4.47908e-09
1.59987e-08
-2.8817e-08
2.33251e-08
6.87866e-11
-5.46838e-09
4.36004e-09
1.14326e-08
-2.70129e-08
1.8229e-08
4.24845e-09
3.36729e-08
-3.15112e-08
7.91687e-10
1.50968e-08
-1.68373e-08
6.4547e-08
3.51182e-08
-6.52041e-09
5.21662e-08
6.85283e-08
2.78093e-07
6.27301e-07
1.37717e-06
3.07647e-06
6.79161e-06
1.48643e-05
3.22126e-05
6.92294e-05
0.00014762
0.000311702
0.000652587
0.00135379
0.00278267
0.00566599
0.0114272
0.0228229
0.0451327
0.0883526
0.171186
0.328205
0.622524
1.16789
2.16656
3.97333
7.20166
12.8967
22.8115
39.8398
68.6772
116.808
195.939
324.013
527.944
847.176
1338.06
2078.88
3175.07
4763.71
7015.92
10135.3
14350.3
19898.3
27000.6
35829.2
46468.3
58878.6
72871
88101.3
104088
120260
136012
150777
164081
175615
185293
193177
199409
204175
207672
210090
211600
212354
212482
212092
211275
210105
208645
206944
205045
202980
200778
198462
196051
193559
191000
188385
185722
183020
180285
177522
174737
171933
169116
166287
163452
160612
157770
154929
152092
149261
146438
143625
140824
138038
135267
132514
129780
127067
124375
121707
119064
116446
113854
111290
108755
106248
103771
101324
98908.3
96523.6
94170.5
91849.4
89560.6
87304.3
85080.8
82890.1
80732.3
78607.7
76516.1
74457.7
72432.5
70440.3
68481.3
66555.2
64662
62801.6
60973.9
59178.7
57416
55685.4
53987
52320.4
50685.5
49082.1
47510
45968.9
44458.8
42979.3
41530.1
40111.2
38722.1
37362.8
36032.9
34732.3
33460.5
32217.5
31002.9
29816.5
28657.9
27527.1
26423.6
25347.3
24297.8
23274.9
22278.4
21307.9
20363.2
19444
18550.1
17681.1
16836.9
16017.1
15221.5
14449.8
13701.8
12977.1
12275.6
11596.8
10940.7
10306.8
9694.99
9104.95
8536.42
7989.14
7462.84
6957.26
6472.13
6007.2
5562.2
5136.87
4730.97
4344.21
3976.35
3627.12
3296.24
2983.48
2688.56
2411.22
2151.19
1908.21
1682
1472.28
1278.76
1101.17
939.204
792.56
660.914
543.924
441.224
352.427
277.111
214.814
165.017
127.13
100.466
84.2192
77.4349
78.9743
87.4717
101.285
118.448
136.629
153.127
164.933
168.89
162.012
141.971
107.731
60.2254
2.84971
-58.3658
-115.139
-158.155
-178.913
-171.68
-134.863
-71.379
11.9784
105.753
199.224
281.301
341.519
371.059
363.779
317.291
234.034
122.091
-4.70536
-127.807
-226.565
-280.921
-276.275
-207.853
-82.9927
79.7415
254.362
412.739
529.563
586.245
571.569
484.899
336.936
149.192
-48.2609
-220.991
-336.022
-368.773
-307.259
-157.842
54.5997
291.313
508.063
664.615
732.678
701.288
577.213
386.118
167.509
-32.8481
-171.854
-218.126
-159.782
-6.61235
209.603
442.474
642.59
769.37
800.407
735.427
597.107
425.634
269.021
171.405
162.014
247.58
411.156
616.067
816.527
970.703
1052.25
1057.33
1005.03
932.266
882.844
894.819
989.91
1168.33
1409.7
1680.32
1943.86
2171.98
2353.29
2502.36
2676.36
3009.41
3775.48
5483.14
8989.6
15598.8
27087
45586.4
73266.9
111799
161663
221472
287591
354291
414573
461473
489439
495345
478862
442222
389576
326190
257699
189518
126409
72166.2
29356
-879.289
-18898.2
-26417.3
-26115.3
-21052
-14063.8
-7310.55
-2074.57
1190.03
2640.96
2771.02
2159.7
1302.52
529.31
-3.43868
-274.175
-340.242
-286.148
-188.028
-96.7897
-36.1904
-9.46746
-8.58468
-22.1456
-40.3042
-56.7201
-68.4846
-75.105
-77.3677
-76.4984
-73.7036
-69.9939
-66.1453
-62.6988
-59.9596
-58.006
-56.7268
-55.8947
-55.2612
-54.6428
-53.9706
-53.2894
-52.7133
-52.3616
-52.3048
-52.543
-53.0209
-53.6639
-54.4236
-55.3112
-56.3853
-57.7098
-59.3477
-61.3393
-63.5728
-65.8279
-68.1023
-70.3633
-72.0122
-73.2278
-75.7463
-78.5568
-78.565
-81.9099
-93.4181
-91.4011
-75.2402
-103.315
-131.928
-23.4266
0.030738
-296.218
-114.011
656.759
-312.443
-1637.82
2352.37
3795.64
-7821.56
-2523.47
28228.7
-6275.86
-66276.3
80614.6
154640
-302449
-173403
1.10423e+06
-103429
-3.16182e+06
3.60749e+06
9.94777e+06
4.69309e+06
1.10771e+06
182624
29529.8
4878.05
807.366
133.594
22.1019
3.65637
0.604872
0.100064
0.0165535
0.00273843
0.000453019
7.49415e-05
1.23914e-05
2.06638e-06
3.24153e-07
6.43971e-08
9.92044e-09
1.70339e-09
-5.45175e-09
2.67249e-09
-6.69629e-09
4.34207e-09
1.54429e-09
2.00433e-09
-1.5411e-09
4.38276e-10
4.99609e-09
-7.99839e-10
1.11705e-10
2.65628e-09
-5.13148e-09
-1.27114e-09
-5.65843e-10
-1.30302e-09
7.94945e-10
6.8762e-10
2.59717e-09
-4.57015e-09
3.83545e-10
4.48632e-09
1.15627e-11
5.01426e-10
2.5473e-09
8.69911e-11
-1.24195e-09
-2.9443e-10
-5.44803e-10
-2.35934e-09
-2.34474e-09
-5.91137e-10
-3.3297e-09
-2.4754e-09
2.17724e-09
-3.80106e-09
7.08932e-10
1.91016e-09
-2.04777e-09
-3.62308e-10
-1.01369e-09
-3.8741e-09
-1.85628e-09
1.60477e-09
-4.28206e-09
4.33105e-09
-5.46063e-09
1.68326e-09
1.61412e-10
-3.92166e-09
2.33675e-09
-1.98732e-09
1.37674e-09
1.58865e-09
7.06102e-10
-1.47095e-09
2.78296e-09
-6.57154e-09
-5.49837e-09
-3.1153e-09
-3.35632e-09
-5.01637e-09
-3.78368e-09
-1.13662e-09
-4.16793e-09
-7.51398e-10
1.83589e-09
2.83574e-09
3.15791e-09
2.25976e-09
-7.11918e-10
-1.96985e-10
-8.73835e-10
-2.33757e-10
-7.17122e-10
-5.93827e-10
-1.77357e-09
1.5831e-09
3.49827e-09
-1.4389e-09
-1.60401e-09
-3.39729e-10
-1.55034e-09
-7.7357e-11
-2.30684e-09
2.9487e-10
-1.13488e-09
-1.17158e-09
-1.55626e-09
-3.79945e-09
-3.15271e-09
-2.41397e-09
7.57696e-10
-4.01341e-10
3.8115e-09
2.96447e-09
-3.55656e-09
-2.84024e-09
-4.08e-09
2.81482e-09
1.29918e-09
5.53201e-09
-8.62366e-10
4.59593e-09
-1.80215e-11
-2.12862e-09
-9.59426e-10
8.98334e-10
3.77137e-11
-3.55574e-10
1.09464e-09
8.67937e-11
-1.84735e-09
-1.90117e-09
-8.11682e-10
-1.67544e-09
-3.72513e-09
-1.2872e-09
6.18123e-10
2.52086e-09
-6.60538e-10
1.89445e-09
6.42954e-09
2.7141e-09
-4.72248e-10
-2.58913e-09
-3.76907e-09
2.022e-11
3.05738e-09
2.90625e-09
3.45037e-09
2.2797e-09
-6.03334e-10
-5.53287e-09
-3.29345e-09
-2.72018e-09
3.49843e-10
-1.48014e-09
-2.2282e-09
-4.74153e-10
-2.64596e-09
1.88873e-09
2.32951e-09
3.04094e-09
-2.97109e-10
7.17298e-10
-2.48395e-09
2.51003e-10
-2.74973e-09
3.37745e-09
2.60159e-10
2.7992e-09
-6.78768e-11
5.70987e-09
2.11877e-09
1.55554e-09
4.22966e-10
3.48842e-09
-1.55896e-09
3.91706e-09
-3.24308e-09
8.74472e-09
-1.37747e-09
-4.80417e-09
-6.1726e-09
-4.6209e-09
-3.15901e-09
-6.48305e-09
-2.40827e-09
-1.16602e-10
-4.10673e-10
-1.82975e-09
-2.74662e-09
2.95327e-09
-9.35229e-10
-2.89475e-10
2.24802e-09
3.1259e-09
3.40448e-09
-3.38672e-09
2.24435e-09
2.47249e-09
3.77605e-09
-3.97596e-10
-3.03401e-09
-6.74266e-10
-3.07903e-09
-6.49299e-10
-1.19608e-09
-1.31226e-09
-5.63634e-09
-1.67739e-09
-7.18733e-10
2.86621e-09
1.22992e-09
-1.88633e-09
8.9686e-10
1.93464e-10
1.5552e-09
-8.19125e-10
3.75698e-09
1.58525e-09
-2.39742e-09
1.03763e-09
4.30376e-10
2.7686e-09
-1.27637e-11
-6.65464e-10
3.72111e-09
2.02849e-09
-1.1198e-09
-1.17419e-09
4.80447e-09
-3.04854e-09
6.04133e-09
6.17798e-11
3.05434e-09
4.59553e-09
4.17373e-10
-2.01349e-09
-8.15499e-09
-6.86645e-09
-5.29768e-09
-5.86994e-09
-5.45057e-11
-8.17048e-10
-6.8914e-10
-4.34748e-09
-1.67032e-09
-5.54593e-10
3.79822e-09
5.62528e-10
-1.13181e-09
-2.34724e-09
-2.30904e-10
-4.66105e-09
-1.70954e-09
3.63014e-10
2.07188e-09
-3.2178e-10
-2.61572e-10
-2.16538e-09
-1.40898e-09
4.10783e-09
3.30567e-09
2.23029e-09
-1.68637e-09
-4.8394e-10
-3.02016e-09
-2.45754e-09
-2.44183e-10
2.3193e-10
-9.15598e-10
7.59134e-10
4.17135e-09
2.57088e-09
-3.5765e-09
-1.89314e-09
1.39266e-09
-2.77945e-10
)
;

boundaryField
{
    sides
    {
        type            calculated;
        value           nonuniform List<scalar> 2(-1.51513e-09 1.1275e-08);
    }
    empty
    {
        type            empty;
    }
}


// ************************************************************************* //
