/*--------------------------------*- C++ -*----------------------------------*\
  =========                 |
  \\      /  F ield         | OpenFOAM: The Open Source CFD Toolbox
   \\    /   O peration     | Website:  https://openfoam.org
    \\  /    A nd           | Version:  13
     \\/     M anipulation  |
\*---------------------------------------------------------------------------*/
FoamFile
{
    format      ascii;
    class       volScalarField;
    location    "0.004";
    object      CrankNicolson:ddt0(rho,e);
}
// * * * * * * * * * * * * * * * * * * * * * * * * * * * * * * * * * * * * * //

dimensions      [1 -1 -3 0 0 0 0];

internalField   nonuniform List<scalar> 
1000
(
3.9169e-07
-1.19211e-06
-1.16598e-06
-2.09323e-06
-7.71965e-07
-7.96843e-09
-1.40406e-06
4.80073e-07
-4.11341e-06
-2.73481e-06
2.42236e-06
1.17192e-06
1.91933e-06
-5.43959e-07
1.4946e-08
-2.62997e-06
1.52203e-06
9.46442e-07
3.28565e-06
9.05941e-08
-2.36398e-06
1.909e-06
2.28075e-06
-1.57977e-06
-1.03907e-06
2.09752e-06
-2.44422e-06
-1.64282e-07
3.87413e-06
-1.88997e-06
3.20516e-06
-2.94663e-07
-1.07779e-07
-1.41172e-07
1.09082e-06
2.28044e-06
1.77698e-06
1.10075e-06
9.65723e-08
3.51557e-06
-1.30929e-06
1.19387e-06
-2.38528e-06
1.12549e-06
-2.25373e-08
-1.95344e-06
-1.10211e-06
-2.35951e-07
1.69818e-06
-3.94459e-07
-2.74868e-06
7.32469e-07
-1.58865e-10
-2.69963e-06
-2.78821e-06
1.18261e-06
-8.20061e-07
7.14439e-07
-6.90767e-10
1.64081e-07
8.15451e-07
1.29341e-06
2.04137e-07
-2.49394e-07
1.43588e-06
2.30379e-06
-3.65817e-07
-4.41254e-06
-4.63231e-07
1.68174e-07
3.68399e-07
-2.75487e-06
4.58057e-06
3.53778e-06
-1.63196e-06
9.30047e-07
-3.56155e-07
2.17846e-06
4.68625e-07
2.1253e-06
-1.06675e-06
-1.3931e-06
-8.25209e-07
-1.17324e-07
-9.00571e-07
-3.29509e-06
-2.55936e-06
-1.72096e-06
2.8887e-06
-9.25728e-07
-2.79745e-06
1.40777e-07
1.78393e-06
1.84619e-06
-1.96256e-06
-3.15351e-06
1.32708e-07
-2.36462e-06
-2.10919e-06
-2.39334e-06
2.6996e-06
-2.61551e-07
-4.95405e-07
-1.89517e-06
-1.00788e-06
3.28267e-06
8.34024e-08
-2.9977e-08
-1.4719e-07
1.27234e-06
9.69838e-07
-8.04777e-07
1.2583e-06
-3.6621e-06
-3.21016e-07
7.3312e-07
-3.09866e-07
-1.61009e-06
-1.97276e-06
-9.03415e-08
9.53793e-07
6.14614e-07
2.19383e-06
9.58238e-07
-4.07998e-07
4.80151e-07
3.73036e-06
-1.6815e-06
9.53082e-07
6.4979e-07
1.87869e-07
1.49228e-07
-1.48308e-07
8.37041e-08
-3.05516e-07
2.41119e-06
6.07149e-08
-2.06741e-06
1.02726e-06
-4.36381e-07
6.80956e-07
-1.5969e-06
2.7935e-06
1.74716e-06
-1.81084e-07
2.19967e-06
4.54313e-07
2.52305e-06
1.22163e-08
3.819e-07
-5.72072e-07
-2.23742e-08
2.43707e-06
2.23396e-06
3.46076e-07
-2.75202e-06
1.5558e-06
-6.09621e-07
1.6281e-06
-3.0637e-06
-1.58694e-06
-1.35124e-06
3.92032e-07
-4.07324e-07
-4.24207e-07
-2.55882e-07
-4.32873e-06
-1.15365e-06
-1.01897e-06
2.69191e-07
-7.24822e-07
4.31126e-07
-7.23583e-07
1.72235e-06
-3.28061e-06
-5.14667e-07
1.37808e-06
2.16019e-06
-6.39822e-08
-5.75406e-07
2.93177e-06
-3.25153e-07
6.83256e-07
1.33315e-06
-1.18188e-06
-1.63766e-06
-6.85263e-07
-4.34761e-07
-7.25354e-09
1.72212e-06
1.93976e-06
-7.72989e-07
2.87367e-06
-1.07534e-06
-2.37118e-06
-2.6194e-07
-8.23201e-07
1.83487e-06
-1.08916e-06
-1.13782e-06
1.76939e-06
2.19468e-06
9.29949e-08
1.09155e-06
9.75058e-09
1.88196e-06
6.19596e-07
-1.53645e-06
-8.91972e-09
-1.05025e-07
-1.39433e-06
-1.96977e-07
2.77348e-07
3.04402e-07
-2.27294e-06
1.75631e-06
7.55373e-07
-1.34862e-06
-2.48645e-06
6.06551e-07
1.91681e-06
-1.06653e-06
1.80734e-06
8.16755e-07
-3.01564e-07
6.2349e-07
-2.3942e-06
1.35715e-06
-2.52319e-07
-2.25955e-06
2.53725e-06
-2.18201e-07
1.24071e-07
1.28779e-07
-1.40169e-06
-2.72951e-07
-5.39546e-07
1.42079e-06
-1.81499e-06
1.26342e-06
-6.08055e-07
3.05448e-07
-1.39325e-06
-4.43491e-07
1.57111e-06
2.0653e-06
1.69071e-06
8.4045e-07
-8.24359e-07
1.23782e-06
2.66549e-06
-4.01285e-06
7.30123e-08
-1.16711e-06
-1.05098e-06
-5.24099e-06
-2.30419e-06
-3.62752e-07
-1.39865e-06
1.81805e-06
-2.73232e-07
-3.29391e-06
-1.15425e-06
-7.87515e-07
2.27855e-06
-8.78029e-07
2.34587e-06
-7.30158e-07
1.54603e-06
-2.514e-06
-1.78379e-07
1.36341e-07
-1.02255e-06
6.50305e-07
7.51244e-07
3.19574e-06
-9.24816e-07
2.57047e-06
6.30975e-07
6.42519e-07
5.86423e-07
-1.35273e-06
-1.33584e-06
1.36499e-06
-4.03948e-06
-1.16175e-06
-4.39127e-06
1.16231e-10
2.67652e-06
-2.04637e-06
1.09139e-06
-2.23735e-06
-9.95247e-07
-3.33398e-06
-2.14827e-06
-1.49271e-06
-3.27239e-06
-1.18927e-05
-2.82269e-05
-6.71125e-05
-0.000146112
-0.000328594
-0.000717053
-0.00155273
-0.00332079
-0.00705318
-0.0148425
-0.0309552
-0.0639756
-0.130987
-0.265652
-0.533593
-1.06129
-2.08979
-4.0732
-7.85677
-14.9945
-28.3077
-52.8512
-97.5606
-178.011
-320.959
-571.676
-1005.56
-1746.12
-2992.19
-5057.99
-8430.52
-13849
-22410.3
-35703.5
-55969.2
-86274.9
-130683
-194373
-283656
-405823
-568733
-780100
-1.04646e+06
-1.37189e+06
-1.7567e+06
-2.19634e+06
-2.68082e+06
-3.1951e+06
-3.72025e+06
-4.23547e+06
-4.72049e+06
-5.15774e+06
-5.53443e+06
-5.84518e+06
-6.09069e+06
-6.27536e+06
-6.40554e+06
-6.48835e+06
-6.53079e+06
-6.53939e+06
-6.51988e+06
-6.47722e+06
-6.41561e+06
-6.33852e+06
-6.24885e+06
-6.14895e+06
-6.04079e+06
-5.92595e+06
-5.80575e+06
-5.68125e+06
-5.55335e+06
-5.42277e+06
-5.29013e+06
-5.15593e+06
-5.02059e+06
-4.88449e+06
-4.74794e+06
-4.6112e+06
-4.4745e+06
-4.33807e+06
-4.20207e+06
-4.06667e+06
-3.93204e+06
-3.79829e+06
-3.66557e+06
-3.53398e+06
-3.40363e+06
-3.27463e+06
-3.14705e+06
-3.021e+06
-2.89654e+06
-2.77376e+06
-2.6527e+06
-2.53345e+06
-2.41604e+06
-2.30054e+06
-2.18697e+06
-2.07539e+06
-1.96583e+06
-1.85832e+06
-1.75288e+06
-1.64954e+06
-1.54831e+06
-1.44921e+06
-1.35225e+06
-1.25744e+06
-1.16477e+06
-1.07427e+06
-985918
-899722
-815675
-733772
-654006
-576369
-500848
-427434
-356114
-286873
-219698
-154573
-91482.5
-30408.9
28664.7
85756.3
140884
194067
245324
294674
342138
387735
431486
473411
513530
551865
588437
623265
656373
687779
717507
745577
772010
796827
820051
841701
861800
880369
897428
913000
927104
939762
950996
960825
969271
976354
982096
986517
989636
991475
992054
991393
989513
986433
982173
976753
970192
962511
953729
943865
932939
920970
907976
893978
878994
863044
846145
828317
809579
789949
769446
748090
725898
702889
679084
654500
629157
603076
576275
548777
520601
491770
462309
432241
401596
370402
338695
306514
273906
240926
207645
174148
140543
106971
73610.8
40694.3
8522.61
-22516.3
-51926.7
-79083.7
-103216
-123401
-138577
-147602
-149363
-142961
-127970
-104743
-74703.5
-40499.3
-5896.82
24645.7
46405.5
55365.6
49266.7
28357.6
-4502.98
-44453.1
-85660.3
-122354
-149583
-163653
-161737
-142594
-106746
-56644.6
3224.49
66428.9
125021
170439
194807
192786
161542
103147
24828.1
-62136.1
-144668
-210561
-250550
-259773
-237328
-186213
-113661
-30221.4
51556.2
118899
160808
170240
145243
89376.4
12288.9
-72112.9
-148630
-204027
-229569
-222674
-186006
-127744
-59996
3546.73
50258
71034.4
62326.3
26269
-29171.6
-91933.9
-148820
-188655
-204805
-196379
-167896
-128375
-89056.9
-60684.4
-50963.1
-62743.3
-93726.6
-137005
-183063
-222508
-248650
-259219
-256619
-247185
-239276
-240892
-257529
-290911
-338919
-396514
-457438
-516000
-568578
-615180
-662659
-731818
-871045
-1.17794e+06
-1.8273e+06
-3.09902e+06
-5.3938e+06
-9.2206e+06
-1.51394e+07
-2.36495e+07
-3.50294e+07
-4.91595e+07
-6.53842e+07
-8.24847e+07
-9.88077e+07
-1.12545e+08
-1.22082e+08
-1.26309e+08
-1.24797e+08
-1.1782e+08
-1.0623e+08
-9.12637e+07
-7.43332e+07
-5.6852e+07
-4.01078e+07
-2.51754e+07
-1.28494e+07
-3.58929e+06
2.51533e+06
5.7357e+06
6.6355e+06
5.94636e+06
4.41732e+06
2.68081e+06
1.17046e+06
103074
-486533
-682296
-620210
-435598
-231733
-69055.5
30613.2
72042.6
73072.3
53755.8
29893.8
10748.5
-341.796
-3981.11
-2587.36
1194.14
5340.69
8689.19
10807.8
11733.4
11724.9
11094.9
10121.6
9017.5
7927.75
6938.76
6089.81
5384.68
4803.47
4314.05
3882.18
3478.71
3083.34
2685.22
2281.55
1875.27
1472.85
1082.16
710.743
364.471
46.7983
-241.145
-498.669
-723.081
-909.456
-1050.3
-1133.67
-1152.3
-1120.32
-1058.39
-974.032
-918.694
-981.126
-1084.45
-1095.48
-1299.61
-1774.88
-1530.42
-935.56
-2512.12
-3507.91
1247.61
627.506
-11396.8
1866.91
32266.7
-17695.3
-54785.4
130846
126402
-367802
46360.5
1.23249e+06
-650661
-2.50307e+06
4.53267e+06
5.25985e+06
-1.46165e+07
-1.43241e+06
4.90005e+07
-1.3197e+07
-1.03274e+08
2.59547e+08
2.49794e+08
9.40918e+06
-8.59817e+06
-1.17475e+06
-173627
-29027
-4843.19
-803.29
-132.969
-21.9998
-3.63951
-0.602084
-0.0996029
-0.0164768
-0.00272685
-0.00045051
-7.43703e-05
-1.28893e-05
-1.65672e-06
6.65362e-07
4.71514e-07
1.27338e-07
2.24378e-08
1.6252e-07
2.93098e-07
-2.2782e-07
2.34607e-07
1.03215e-07
-2.12878e-07
-5.19412e-08
5.61791e-07
-5.11456e-07
2.36775e-07
-1.75859e-07
-3.25852e-07
3.82902e-08
2.23848e-07
-8.34684e-07
7.40553e-07
-6.92452e-08
6.22338e-07
1.3912e-08
5.43215e-07
9.94442e-07
-1.1391e-07
2.63234e-07
1.62786e-07
3.48685e-07
3.45313e-08
5.57268e-07
1.08749e-07
8.52163e-08
-7.41197e-08
2.78211e-07
1.12645e-07
-5.93948e-07
-6.72429e-08
4.59411e-07
3.91414e-07
-1.17915e-08
-5.384e-07
3.35455e-08
6.46076e-07
-6.68281e-07
4.034e-07
-2.60082e-07
8.00184e-07
-2.29938e-07
8.35874e-08
-3.07029e-08
-5.62115e-07
-1.88253e-07
-1.92909e-08
-2.90779e-07
3.78591e-07
-9.29917e-08
5.21554e-07
-4.14862e-07
7.90623e-07
2.88555e-07
-8.35451e-08
3.49337e-07
2.81349e-07
1.44344e-07
-1.50648e-07
1.56067e-07
-2.10494e-07
6.63536e-08
-3.15587e-07
-1.56056e-07
1.52122e-07
1.36993e-08
6.39693e-08
-1.97452e-07
-5.97041e-10
-2.72559e-07
-3.71852e-07
-4.11986e-07
-6.59909e-07
9.64122e-08
4.0917e-07
1.03329e-07
-4.09347e-07
-5.56569e-07
4.06615e-07
7.53468e-07
-1.10267e-07
-4.02213e-07
-1.77332e-07
-2.3431e-07
-2.20607e-07
9.29257e-08
2.4714e-08
1.83316e-07
2.95817e-08
7.46721e-07
-5.15814e-07
-4.4021e-07
-1.55186e-07
-1.16051e-06
-2.00628e-07
-3.22351e-08
-6.13272e-07
-9.6979e-07
-6.65888e-07
3.7978e-07
5.43569e-07
-6.82121e-07
5.94012e-07
-1.13229e-09
4.69162e-10
-1.55332e-07
-1.52337e-08
1.49752e-07
1.10053e-06
-2.04286e-07
-2.74315e-07
6.33173e-07
-1.11027e-07
-5.71945e-08
6.49539e-07
6.53323e-09
9.17925e-07
6.90518e-07
-2.92006e-07
1.95682e-07
-4.85167e-07
-1.71073e-08
-1.84848e-07
-6.12947e-08
2.65387e-07
3.32634e-07
-2.77856e-07
-1.83661e-07
-2.86688e-07
9.49622e-08
-4.52227e-08
8.75374e-08
-9.6526e-07
1.50943e-09
1.29298e-08
-1.02891e-08
-6.88677e-08
-1.72963e-07
-1.41878e-07
-2.52086e-07
3.79378e-07
2.39043e-07
-6.84731e-07
1.02311e-06
8.77464e-08
-8.6889e-08
3.53422e-07
5.89117e-07
8.88568e-07
1.1476e-07
1.85993e-07
2.07258e-07
2.30122e-07
-3.41695e-08
-3.97967e-07
-3.97342e-07
-1.22489e-07
-5.58063e-07
2.30168e-07
1.88658e-07
-7.46578e-07
-4.23682e-07
-3.73035e-08
-2.7251e-07
-1.36023e-07
-1.41204e-08
-5.52939e-07
-2.31509e-07
-4.81283e-07
4.66301e-07
3.87499e-07
-3.1574e-08
-1.58067e-07
1.03904e-06
2.51039e-07
3.36781e-07
-4.94603e-07
-5.97541e-07
8.77555e-09
-8.48596e-07
1.69219e-08
-7.66604e-07
-7.40656e-07
-2.75372e-07
2.7803e-07
3.87884e-07
-5.60648e-07
1.99133e-07
-1.79799e-08
3.75069e-07
4.01363e-07
1.17538e-08
5.81698e-07
-1.15722e-06
-6.94133e-08
-6.30788e-07
-2.21717e-09
-3.76473e-07
1.33728e-07
-1.516e-06
-5.9822e-07
-9.91541e-08
-8.81246e-07
6.30669e-08
-3.62124e-07
4.63872e-07
9.90086e-08
8.78353e-08
-4.32563e-07
-9.44571e-07
-1.15925e-07
-1.45765e-07
5.74732e-07
5.97289e-07
5.40467e-07
-2.95057e-08
-8.20957e-07
-6.41162e-07
-1.2652e-08
-6.36502e-07
2.8614e-08
5.83224e-07
3.76624e-07
9.81108e-08
6.8277e-07
-3.56667e-07
1.47626e-07
1.66957e-07
2.60991e-07
-8.52603e-07
-6.39362e-07
3.38563e-08
1.72002e-07
2.52148e-07
-6.90418e-07
3.50149e-07
6.63866e-08
4.05198e-07
5.22317e-08
-2.85155e-07
3.27155e-08
6.4957e-09
-1.3429e-07
8.1005e-07
-1.15491e-07
2.56195e-07
-3.87914e-09
-1.65367e-08
-2.19565e-07
1.10263e-07
-3.17328e-08
1.72442e-07
-7.1039e-07
-6.95146e-08
2.72966e-07
6.29982e-07
)
;

boundaryField
{
    sides
    {
        type            calculated;
        value           nonuniform List<scalar> 2(6.29982e-07 3.9169e-07);
    }
    empty
    {
        type            empty;
    }
}


// ************************************************************************* //
