/*--------------------------------*- C++ -*----------------------------------*\
  =========                 |
  \\      /  F ield         | OpenFOAM: The Open Source CFD Toolbox
   \\    /   O peration     | Website:  https://openfoam.org
    \\  /    A nd           | Version:  13
     \\/     M anipulation  |
\*---------------------------------------------------------------------------*/
FoamFile
{
    format      ascii;
    class       volScalarField;
    location    "0.004";
    object      mag(U);
}
// * * * * * * * * * * * * * * * * * * * * * * * * * * * * * * * * * * * * * //

dimensions      [0 1 -1 0 0 0 0];

internalField   nonuniform List<scalar> 
1000
(
2.38745e-12
2.30479e-12
2.30479e-12
1.97415e-12
2.08598e-12
1.86717e-12
2.27562e-12
1.99846e-12
2.18809e-12
1.62891e-12
1.94984e-12
1.70185e-12
2.00332e-12
1.71158e-12
1.87204e-12
1.76506e-12
1.73103e-12
1.61433e-12
1.79424e-12
1.94984e-12
2.04222e-12
1.74561e-12
2.00818e-12
1.96442e-12
1.85259e-12
2.09571e-12
1.96442e-12
1.92552e-12
1.82827e-12
1.99846e-12
1.66295e-12
1.96442e-12
1.838e-12
1.97415e-12
1.80882e-12
1.65323e-12
1.71644e-12
2.03736e-12
1.89635e-12
2.13461e-12
1.96442e-12
1.93039e-12
1.80396e-12
1.52194e-12
1.76506e-12
1.50249e-12
1.93525e-12
1.78937e-12
1.97415e-12
1.65323e-12
1.84772e-12
1.43928e-12
1.59488e-12
1.16212e-12
1.09405e-12
9.57899e-13
1.14267e-12
9.72486e-13
1.10377e-12
1.08918e-12
1.11836e-12
1.02111e-12
1.15726e-12
1.23992e-12
1.40524e-12
1.39552e-12
1.25937e-12
1.26909e-12
1.21075e-12
1.37607e-12
1.30799e-12
1.17185e-12
1.16698e-12
1.5268e-12
1.29341e-12
1.24965e-12
1.20588e-12
1.20102e-12
1.1913e-12
1.64836e-12
1.6046e-12
1.89635e-12
2.01305e-12
2.09085e-12
1.97415e-12
1.86717e-12
1.58515e-12
1.57543e-12
1.59002e-12
1.61919e-12
1.43442e-12
1.60946e-12
1.38579e-12
1.24478e-12
1.27396e-12
9.57899e-13
9.96799e-13
8.31476e-13
5.34868e-13
1.94497e-13
3.98719e-13
2.28534e-13
3.06333e-13
3.06333e-13
5.3973e-13
7.0019e-13
9.96799e-13
8.41201e-13
8.94687e-13
6.71016e-13
5.83492e-13
5.3973e-13
5.2028e-13
5.68905e-13
4.18169e-13
4.42481e-13
3.84132e-13
1.16698e-13
1.02111e-13
4.52206e-13
3.01471e-13
5.25143e-13
5.34868e-13
5.0083e-13
4.71656e-13
3.88995e-13
3.54958e-13
3.7927e-13
3.93857e-13
2.72296e-13
2.18809e-13
2.52846e-13
2.04222e-13
1.7991e-13
1.11836e-13
4.37619e-14
3.4037e-13
5.15418e-13
3.11196e-13
4.71656e-13
3.35508e-13
5.34868e-13
6.07804e-13
1.10863e-12
1.10377e-12
1.2302e-12
1.12808e-12
8.89825e-13
9.96799e-13
8.89825e-13
8.65513e-13
8.36338e-13
6.85603e-13
6.07804e-13
4.13307e-13
3.01471e-13
9.72486e-15
6.8074e-14
1.02111e-13
2.57709e-13
3.88995e-14
1.41011e-13
1.06974e-13
3.88995e-13
3.4037e-14
1.36148e-13
6.8074e-14
2.43122e-13
5.83492e-14
5.30005e-13
3.98719e-13
7.34227e-13
4.32756e-13
6.75878e-13
5.68905e-13
8.12026e-13
7.3909e-13
3.4037e-13
1.55598e-13
1.6046e-13
3.88995e-14
2.91746e-14
1.50735e-13
1.6046e-13
1.45873e-13
9.23862e-14
8.75238e-14
1.70185e-13
6.32116e-14
4.13307e-13
4.18169e-13
7.82852e-13
7.48815e-13
1.01139e-12
1.02111e-12
1.21075e-12
1.0357e-12
9.96799e-13
8.16889e-13
9.72486e-13
8.55788e-13
1.00652e-12
7.05053e-13
5.05693e-13
4.18169e-13
7.24502e-13
6.07804e-13
5.73767e-13
4.18169e-13
2.86883e-13
2.47984e-13
3.4037e-14
2.47984e-13
3.11196e-13
4.66793e-13
2.67434e-13
3.93857e-13
3.98719e-13
4.76518e-13
2.23672e-13
5.83492e-13
5.44592e-13
3.98719e-13
2.04222e-13
3.7927e-13
2.86883e-13
7.14777e-13
5.2028e-13
7.0019e-13
2.43122e-13
2.72296e-13
2.43122e-13
1.9936e-13
9.72486e-15
1.9936e-13
3.5982e-13
5.34868e-13
5.10555e-13
8.9955e-13
1.06974e-12
1.22047e-12
1.14753e-12
1.14753e-12
1.0357e-12
8.31476e-13
3.20921e-13
2.04222e-13
1.75048e-13
3.64682e-13
1.02111e-13
1.94497e-13
2.96608e-13
1.02111e-13
2.91746e-13
2.91746e-14
5.34868e-14
5.5918e-13
5.83492e-13
8.26613e-13
1.02597e-12
9.77349e-13
6.51566e-13
9.09275e-13
7.24502e-13
7.73127e-13
6.85603e-13
6.32116e-13
7.73127e-13
5.5918e-13
6.95328e-13
7.05053e-13
7.3909e-13
7.05053e-13
8.02301e-13
7.29365e-13
6.22391e-13
6.27254e-13
6.66153e-13
6.90465e-13
5.44592e-13
4.47344e-13
5.88354e-13
6.07804e-13
7.09915e-13
6.95328e-13
7.43952e-13
8.94687e-13
6.8074e-13
7.3909e-13
7.05053e-13
8.70375e-13
9.48174e-13
1.29827e-12
1.35176e-12
1.47818e-12
1.94497e-12
3.04874e-12
5.67446e-12
1.131e-11
2.44191e-11
5.3088e-11
1.16489e-10
2.54004e-10
5.5193e-10
1.18904e-09
2.54142e-09
5.38593e-09
1.13156e-08
2.35647e-08
4.86337e-08
9.94541e-08
2.01495e-07
4.04374e-07
8.03734e-07
1.58188e-06
3.08243e-06
5.94547e-06
1.13493e-05
2.14364e-05
4.00535e-05
7.40182e-05
0.000135252
0.000244311
0.000436138
0.000769246
0.0013401
0.00230519
0.00391403
0.00655752
0.0108365
0.0176562
0.0283521
0.0448496
0.0698581
0.107091
0.161494
0.239452
0.348925
0.499472
0.702083
0.968802
1.3121
1.74403
2.27529
2.91429
3.66632
4.5331
5.51269
6.59972
7.7862
9.06258
10.4188
11.8452
13.3328
14.8735
16.4602
18.087
19.7487
21.441
23.1604
24.9036
26.6682
28.452
30.2533
32.0704
33.902
35.7471
37.6046
39.4737
41.3537
43.2438
45.1435
47.0523
48.9695
50.8949
52.8278
54.768
56.7151
58.6687
60.6285
62.5941
64.5653
66.5417
68.5231
70.5092
72.4998
74.4946
76.4934
78.496
80.5022
82.5117
84.5244
86.5402
88.5587
90.58
92.6038
94.6301
96.6586
98.6892
100.722
102.756
104.793
106.831
108.871
110.912
112.955
114.999
117.045
119.091
121.139
123.188
125.239
127.29
129.342
131.395
133.449
135.504
137.559
139.615
141.672
143.73
145.788
147.847
149.906
151.966
154.026
156.087
158.148
160.21
162.271
164.334
166.396
168.459
170.522
172.585
174.648
176.712
178.776
180.839
182.903
184.967
187.03
189.094
191.158
193.221
195.285
197.348
199.411
201.474
203.536
205.598
207.66
209.721
211.782
213.842
215.902
217.961
220.019
222.076
224.133
226.189
228.243
230.297
232.349
234.401
236.45
238.498
240.545
242.59
244.632
246.673
248.711
250.746
252.779
254.808
256.834
258.856
260.874
262.888
264.896
266.898
268.894
270.883
272.863
274.835
276.796
278.745
280.682
282.602
284.506
286.389
288.248
290.081
291.881
293.645
295.365
297.033
298.64
300.174
301.622
302.967
304.188
305.262
306.161
306.851
307.296
307.453
307.279
306.728
305.761
304.35
302.488
300.199
297.548
294.654
291.682
288.841
286.362
284.467
283.331
283.048
283.618
284.949
286.872
289.173
291.624
294.005
296.118
297.8
298.93
299.434
299.288
298.524
297.229
295.545
293.66
291.788
290.149
288.935
288.281
288.238
288.771
289.765
291.052
292.439
293.733
294.769
295.426
295.642
295.418
294.815
293.948
292.966
292.028
291.281
290.832
290.731
290.964
291.461
292.112
292.788
293.369
293.76
293.909
293.811
293.507
293.076
292.613
292.211
291.947
291.86
291.949
292.176
292.477
292.78
293.018
293.144
293.144
293.031
292.845
292.639
292.465
292.36
292.344
292.408
292.527
292.661
292.775
292.839
292.843
292.795
292.714
292.629
292.565
292.538
292.551
292.594
292.648
292.695
292.721
292.719
292.696
292.664
292.639
292.632
292.649
292.689
292.745
292.807
292.866
292.919
292.962
292.995
293.014
293.011
292.979
292.911
292.81
292.687
292.557
292.433
292.326
292.248
292.206
292.206
292.246
292.319
292.411
292.505
292.587
292.649
292.688
292.704
292.704
292.693
292.679
292.666
292.656
292.65
292.648
292.648
292.65
292.652
292.653
292.654
292.655
292.655
292.655
292.655
292.655
292.655
292.655
292.656
292.656
292.656
292.656
292.656
292.657
292.657
292.657
292.657
292.658
292.658
292.658
292.658
292.659
292.659
292.659
292.659
292.66
292.66
292.66
292.661
292.661
292.661
292.661
292.662
292.662
292.662
292.663
292.663
292.664
292.664
292.665
292.665
292.666
292.666
292.667
292.667
292.668
292.668
292.669
292.67
292.67
292.671
292.671
292.672
292.672
292.672
292.673
292.672
292.668
292.67
292.671
292.646
292.634
292.671
292.618
292.46
292.583
292.726
291.933
291.567
293.263
291.684
285.505
290.707
293.941
237.6
115.019
28.7403
5.18494
0.874555
0.144082
0.0238098
0.0039384
0.000651531
0.000107783
1.78306e-05
2.9497e-06
4.87967e-07
8.07229e-08
1.33528e-08
2.20759e-09
3.64051e-10
5.89522e-11
8.60165e-12
3.16059e-13
9.968e-13
1.15726e-12
1.59002e-12
1.48304e-12
1.62892e-12
1.21075e-12
1.61919e-12
1.55112e-12
1.90608e-12
1.72617e-12
1.84773e-12
2.12489e-12
1.9936e-12
2.23672e-12
1.9936e-12
2.31452e-12
2.00819e-12
2.16865e-12
2.11516e-12
2.07626e-12
2.02764e-12
2.10544e-12
1.86231e-12
1.76993e-12
1.54139e-12
1.37121e-12
1.27882e-12
1.51222e-12
1.70672e-12
1.33231e-12
1.47818e-12
1.57543e-12
1.78938e-12
1.90121e-12
1.94498e-12
1.67754e-12
1.65809e-12
1.73589e-12
1.97415e-12
1.77965e-12
2.16379e-12
1.76507e-12
2.02764e-12
1.9158e-12
1.93039e-12
1.86231e-12
1.60947e-12
1.81855e-12
1.53167e-12
1.74075e-12
1.93039e-12
1.94011e-12
1.99846e-12
2.2659e-12
2.15892e-12
2.29021e-12
1.84773e-12
1.73589e-12
1.28855e-12
1.22533e-12
9.23863e-13
7.87715e-13
3.35508e-13
1.55598e-13
3.06334e-13
4.91106e-13
4.42482e-13
5.25143e-13
4.1817e-13
3.69545e-13
3.40371e-13
1.89635e-13
1.75048e-13
2.57709e-13
7.29366e-14
2.91746e-13
1.65323e-13
1.7991e-13
2.77159e-13
4.42482e-13
7.92578e-13
1.04542e-12
8.21752e-13
1.13781e-12
7.5854e-13
8.99551e-13
7.82853e-13
7.73128e-13
4.23032e-13
7.48816e-13
7.68265e-13
3.84133e-13
3.45233e-13
9.72488e-15
4.81381e-13
1.11836e-13
1.45873e-14
3.84133e-13
1.31286e-13
7.29366e-14
4.95969e-13
1.75048e-13
4.57069e-13
4.08445e-13
6.95329e-13
6.22392e-13
9.7735e-13
9.14139e-13
1.06487e-12
7.19641e-13
1.00652e-12
7.29366e-13
7.48816e-13
7.53678e-13
1.04056e-12
7.68265e-13
8.07165e-13
8.84964e-13
5.10556e-13
7.73128e-13
4.13307e-13
1.02111e-13
2.86884e-13
3.88995e-14
9.23863e-14
4.08445e-13
2.91746e-13
1.45873e-13
2.28535e-13
2.91746e-13
2.77159e-13
4.47344e-13
3.74408e-13
6.1753e-13
6.75879e-13
1.36148e-12
9.968e-13
1.3858e-12
9.14139e-13
1.08432e-12
7.68265e-13
7.82853e-13
1.08919e-12
8.36339e-13
1.01139e-12
7.53678e-13
4.66794e-13
6.56429e-13
5.34868e-13
9.09276e-13
8.21752e-13
6.66154e-13
7.09916e-13
8.12027e-13
7.7799e-13
1.17671e-12
1.34203e-12
1.09405e-12
1.06974e-12
9.72488e-13
1.22533e-12
1.1135e-12
1.38093e-12
1.21075e-12
1.46359e-12
1.47818e-12
1.01139e-12
1.06487e-12
5.54318e-13
4.42482e-13
2.52847e-13
2.91746e-13
1.7991e-13
1.94498e-13
3.54958e-13
3.50096e-13
3.74408e-13
2.04222e-13
1.06974e-13
2.52847e-13
4.52207e-13
6.90466e-13
6.95329e-13
8.60652e-13
8.99551e-13
7.92578e-13
8.99551e-13
1.22047e-12
1.54139e-12
1.52194e-12
1.52681e-12
1.09405e-12
9.87075e-13
7.43953e-13
4.23032e-13
3.5982e-13
5.73768e-13
5.88355e-13
2.82021e-13
1.21561e-13
1.45873e-14
3.40371e-13
2.57709e-13
5.20281e-13
5.49456e-13
7.05054e-13
8.80101e-13
1.09405e-12
1.39552e-12
1.50736e-12
1.69213e-12
1.50249e-12
1.7991e-12
1.66782e-12
1.85259e-12
2.09571e-12
2.32425e-12
2.64517e-12
2.74728e-12
2.84453e-12
2.89315e-12
2.31938e-12
2.3437e-12
1.58029e-12
1.66295e-12
1.33231e-12
1.69699e-12
1.45873e-12
1.54626e-12
1.50249e-12
1.57543e-12
2.0325e-12
1.40524e-12
2.16865e-12
1.96443e-12
2.24645e-12
1.55598e-12
1.93039e-12
1.33231e-12
1.66782e-12
1.40038e-12
1.49763e-12
1.36635e-12
1.29827e-12
1.05029e-12
9.04414e-13
7.87715e-13
1.2302e-12
1.12809e-12
1.40524e-12
8.41202e-13
8.65514e-13
5.15419e-13
7.7799e-13
6.71017e-13
9.09276e-13
7.9744e-13
6.27255e-13
6.80741e-13
7.68265e-13
8.26615e-13
9.19001e-13
)
;

boundaryField
{
    sides
    {
        type            calculated;
        value           nonuniform List<scalar> 2(9.19001e-13 2.38745e-12);
    }
    empty
    {
        type            empty;
    }
}


// ************************************************************************* //
