/*--------------------------------*- C++ -*----------------------------------*\
  =========                 |
  \\      /  F ield         | OpenFOAM: The Open Source CFD Toolbox
   \\    /   O peration     | Website:  https://openfoam.org
    \\  /    A nd           | Version:  13
     \\/     M anipulation  |
\*---------------------------------------------------------------------------*/
FoamFile
{
    format      ascii;
    class       volScalarField;
    location    "0.004";
    object      p;
}
// * * * * * * * * * * * * * * * * * * * * * * * * * * * * * * * * * * * * * //

dimensions      [1 -1 -2 0 0 0 0];

internalField   nonuniform List<scalar> 
1000
(
100000
100000
100000
100000
100000
100000
100000
100000
100000
100000
100000
100000
100000
100000
100000
100000
100000
100000
100000
100000
100000
100000
100000
100000
100000
100000
100000
100000
100000
100000
100000
100000
100000
100000
100000
100000
100000
100000
100000
100000
100000
100000
100000
100000
100000
100000
100000
100000
100000
100000
100000
100000
100000
100000
100000
100000
100000
100000
100000
100000
100000
100000
100000
100000
100000
100000
100000
100000
100000
100000
100000
100000
100000
100000
100000
100000
100000
100000
100000
100000
100000
100000
100000
100000
100000
100000
100000
100000
100000
100000
100000
100000
100000
100000
100000
100000
100000
100000
100000
100000
100000
100000
100000
100000
100000
100000
100000
100000
100000
100000
100000
100000
100000
100000
100000
100000
100000
100000
100000
100000
100000
100000
100000
100000
100000
100000
100000
100000
100000
100000
100000
100000
100000
100000
100000
100000
100000
100000
100000
100000
100000
100000
100000
100000
100000
100000
100000
100000
100000
100000
100000
100000
100000
100000
100000
100000
100000
100000
100000
100000
100000
100000
100000
100000
100000
100000
100000
100000
100000
100000
100000
100000
100000
100000
100000
100000
100000
100000
100000
100000
100000
100000
100000
100000
100000
100000
100000
100000
100000
100000
100000
100000
100000
100000
100000
100000
100000
100000
100000
100000
100000
100000
100000
100000
100000
100000
100000
100000
100000
100000
100000
100000
100000
100000
100000
100000
100000
100000
100000
100000
100000
100000
100000
100000
100000
100000
100000
100000
100000
100000
100000
100000
100000
100000
100000
100000
100000
100000
100000
100000
100000
100000
100000
100000
100000
100000
100000
100000
100000
100000
100000
100000
100000
100000
100000
100000
100000
100000
100000
100000
100000
100000
100000
100000
100000
100000
100000
100000
100000
100000
100000
100000
100000
100000
100000
100000
100000
100000
100000
100000
100000
100000
100000
100000
100000
100000
100000
100000
100000
100000
100000
100000
100000
100000
100000
100000
100000
100000
100000
100000
100000
100000
100000
100000
100000
100000
100000
100000
100000
100000
100000
100000
100000
100000
100000
100000
100000
100000
100000
100000
100000
100000
99999.9
99999.8
99999.7
99999.5
99999.2
99998.6
99997.6
99996
99993.5
99989.6
99983.5
99974.3
99960.6
99940.4
99911.6
99871
99815.2
99740
99640.9
99513.3
99352.8
99155.4
98918.3
98639.5
98318.9
97957.3
97557.3
97122.3
96656.1
96163
95646.7
95111
94559.1
93993.7
93417.1
92831.5
92238.5
91639.5
91035.7
90428.1
89817.5
89204.7
88590.2
87974.6
87358.3
86741.6
86124.9
85508.5
84892.6
84277.5
83663.4
83050.4
82438.7
81828.5
81220
80613.2
80008.3
79405.4
78804.6
78206
77609.8
77015.9
76424.6
75835.8
75249.6
74666.2
74085.5
73507.7
72932.8
72360.8
71791.8
71225.8
70662.9
70103.2
69546.5
68993
68442.7
67895.6
67351.8
66811.2
66273.8
65739.8
65209
64681.5
64157.3
63636.4
63118.8
62604.6
62093.6
61586
61081.7
60580.6
60082.9
59588.5
59097.4
58609.5
58125
57643.7
57165.6
56690.9
56219.4
55751.1
55286.1
54824.2
54365.6
53910.2
53458
53008.9
52563.1
52120.3
51680.8
51244.3
50811
50380.8
49953.6
49529.6
49108.6
48690.7
48275.9
47864
47455.2
47049.5
46646.7
46246.9
45850
45456.2
45065.2
44677.3
44292.2
43910.1
43530.9
43154.6
42781.1
42410.6
42042.9
41678.1
41316.1
40957
40600.7
40247.3
39896.7
39548.9
39203.9
38861.7
38522.4
38185.9
37852.2
37521.3
37193.3
36868.1
36545.8
36226.3
35909.7
35596.1
35285.4
34977.6
34672.9
34371.2
34072.7
33777.3
33485.3
33196.5
32911.3
32629.6
32351.8
32077.8
31808.1
31542.8
31282.2
31026.7
30776.9
30533.2
30296.2
30066.8
29846
29634.8
29434.7
29247.3
29074.8
28919.5
28784.2
28672.5
28588.4
28536.2
28521.2
28548.6
28623.9
28751.6
28935.3
29175.5
29469.1
29807.6
30176.2
30553.6
30913.5
31226.6
31464.8
31606.1
31638.8
31563.6
31393.2
31149.9
30861
30555.5
30260.9
30001
29795.5
29658.4
29598.3
29617.3
29711.1
29868.9
30073.2
30301.3
30527.2
30724.6
30870.3
30948.5
30953.1
30888.8
30769.9
30616.8
30452.8
30300.4
30178.9
30102
30076.9
30103
30173
30273.3
30386.7
30494.7
30580.7
30632.4
30644.2
30617.8
30561.5
30487.9
30411.6
30346.2
30302.2
30285.3
30295.9
30329.3
30376.8
30427.9
30472.2
30501.5
30511.4
30502.1
30477.7
30445.2
30412.6
30387
30373.2
30372.9
30384.6
30404
30425.7
30444.2
30455.3
30457.3
30450.9
30438.9
30425.1
30413.5
30406.7
30406
30410.7
30418.7
30427.2
30433.7
30436.6
30435.6
30431.6
30426.4
30421.8
30419.3
30419.2
30421.3
30424.4
30427.2
30428.7
30428.7
30427.4
30425.6
30424.2
30423.6
30424
30424.8
30425.5
30425.7
30425.3
30424.8
30424.6
30424.7
30425.1
30425.4
30425.7
30425.8
30426
30426.2
30426.4
30426.6
30426.6
30426.6
30426.5
30426.4
30426.3
30426.2
30426.1
30426.1
30426.1
30426.1
30426.2
30426.2
30426.3
30426.3
30426.3
30426.3
30426.3
30426.3
30426.4
30426.4
30426.4
30426.4
30426.4
30426.4
30426.5
30426.5
30426.5
30426.5
30426.5
30426.6
30426.6
30426.6
30426.6
30426.7
30426.7
30426.7
30426.7
30426.7
30426.8
30426.8
30426.8
30426.9
30426.9
30426.9
30427
30427
30427
30427.1
30427.1
30427.2
30427.2
30427.3
30427.3
30427.4
30427.4
30427.5
30427.5
30427.6
30427.6
30427.7
30427.7
30427.8
30427.8
30427.9
30428
30428
30428.1
30428.2
30428.2
30428.3
30428.4
30428.4
30428.4
30428.6
30428.4
30427.8
30428.6
30429.4
30425.9
30424.8
30432.8
30425.7
30400.3
30427.3
30464
30337.4
30287.4
30632.9
30435.5
29404.2
30451
32197.6
25273.2
15175.1
11051.3
10179
10029.3
10004.8
10000.8
10000.1
10000
10000
10000
10000
10000
10000
10000
10000
10000
10000
10000
10000
10000
10000
10000
10000
10000
10000
10000
10000
10000
10000
10000
10000
10000
10000
10000
10000
10000
10000
10000
10000
10000
10000
10000
10000
10000
10000
10000
10000
10000
10000
10000
10000
10000
10000
10000
10000
10000
10000
10000
10000
10000
10000
10000
10000
10000
10000
10000
10000
10000
10000
10000
10000
10000
10000
10000
10000
10000
10000
10000
10000
10000
10000
10000
10000
10000
10000
10000
10000
10000
10000
10000
10000
10000
10000
10000
10000
10000
10000
10000
10000
10000
10000
10000
10000
10000
10000
10000
10000
10000
10000
10000
10000
10000
10000
10000
10000
10000
10000
10000
10000
10000
10000
10000
10000
10000
10000
10000
10000
10000
10000
10000
10000
10000
10000
10000
10000
10000
10000
10000
10000
10000
10000
10000
10000
10000
10000
10000
10000
10000
10000
10000
10000
10000
10000
10000
10000
10000
10000
10000
10000
10000
10000
10000
10000
10000
10000
10000
10000
10000
10000
10000
10000
10000
10000
10000
10000
10000
10000
10000
10000
10000
10000
10000
10000
10000
10000
10000
10000
10000
10000
10000
10000
10000
10000
10000
10000
10000
10000
10000
10000
10000
10000
10000
10000
10000
10000
10000
10000
10000
10000
10000
10000
10000
10000
10000
10000
10000
10000
10000
10000
10000
10000
10000
10000
10000
10000
10000
10000
10000
10000
10000
10000
10000
10000
10000
10000
10000
10000
10000
10000
10000
10000
10000
10000
10000
10000
10000
10000
10000
10000
10000
10000
10000
10000
10000
10000
10000
10000
10000
10000
10000
10000
10000
10000
10000
10000
10000
10000
10000
10000
10000
10000
10000
10000
10000
10000
10000
10000
10000
10000
10000
10000
)
;

boundaryField
{
    sides
    {
        type            zeroGradient;
    }
    empty
    {
        type            empty;
    }
}


// ************************************************************************* //
