/*--------------------------------*- C++ -*----------------------------------*\
  =========                 |
  \\      /  F ield         | OpenFOAM: The Open Source CFD Toolbox
   \\    /   O peration     | Website:  https://openfoam.org
    \\  /    A nd           | Version:  13
     \\/     M anipulation  |
\*---------------------------------------------------------------------------*/
FoamFile
{
    format      ascii;
    class       surfaceScalarField;
    location    "0.004";
    object      phi_0;
}
// * * * * * * * * * * * * * * * * * * * * * * * * * * * * * * * * * * * * * //

dimensions      [1 0 -1 0 0 0 0];

internalField   nonuniform List<scalar> 
999
(
-9.5034e-12
-9.01317e-12
-8.53319e-12
-8.04833e-12
-7.97196e-12
-7.90881e-12
-8.63037e-12
-8.39071e-12
-7.80139e-12
-6.84174e-12
-7.32536e-12
-7.34613e-12
-7.51759e-12
-7.23428e-12
-7.38698e-12
-6.94379e-12
-6.43967e-12
-6.69706e-12
-7.39568e-12
-8.21583e-12
-7.77546e-12
-7.69533e-12
-8.0387e-12
-7.64305e-12
-7.88804e-12
-8.51434e-12
-7.10609e-12
-7.55031e-12
-8.19507e-12
-6.87821e-12
-7.39427e-12
-7.43248e-12
-7.65388e-12
-7.53095e-12
-6.80272e-12
-6.60017e-12
-7.63167e-12
-7.72531e-12
-8.06991e-12
-8.57664e-12
-7.75976e-12
-7.83269e-12
-6.06385e-12
-6.71181e-12
-6.51394e-12
-6.82409e-12
-7.5045e-12
-7.33082e-12
-7.47483e-12
-7.35069e-12
-6.14824e-12
-6.23689e-12
-5.06532e-12
-4.26473e-12
-3.78708e-12
-4.62161e-12
-4.16017e-12
-4.01202e-12
-4.63841e-12
-4.10605e-12
-4.24567e-12
-4.39675e-12
-4.73896e-12
-5.57571e-12
-5.87677e-12
-5.30923e-12
-5.04587e-12
-4.46101e-12
-5.51409e-12
-5.52577e-12
-5.02084e-12
-4.23381e-12
-5.35541e-12
-6.30201e-12
-4.66336e-12
-5.02105e-12
-4.82851e-12
-3.91736e-12
-5.6609e-12
-6.43757e-12
-6.60942e-12
-7.39196e-12
-8.23711e-12
-7.99626e-12
-8.16043e-12
-6.80144e-12
-6.52268e-12
-6.03894e-12
-6.5704e-12
-6.1345e-12
-6.69142e-12
-6.35715e-12
-5.37358e-12
-5.19614e-12
-3.86572e-12
-3.73911e-12
-3.42286e-12
-2.20114e-12
-1.24815e-12
-9.95229e-13
-9.56572e-13
-1.09199e-12
-1.13115e-12
-1.90491e-12
-2.49235e-12
-3.54224e-12
-3.48378e-12
-3.58915e-12
-3.35352e-12
-2.522e-12
-2.29612e-12
-1.95138e-12
-2.54424e-12
-1.65671e-12
-1.85728e-12
-1.32363e-12
-9.76977e-13
2.93964e-13
1.34644e-12
2.0173e-12
1.37631e-12
2.59595e-12
1.92533e-12
2.06993e-12
1.61076e-12
1.35793e-12
1.17591e-12
1.76658e-12
1.40476e-12
9.23205e-13
9.13932e-13
9.70775e-13
8.81819e-13
1.09719e-12
4.55054e-13
-4.22505e-13
-1.79239e-12
-1.69431e-12
-1.68327e-12
-1.69894e-12
-2.03905e-12
-2.03115e-12
-3.80114e-12
-4.66386e-12
-4.91575e-12
-4.88925e-12
-3.82044e-12
-3.80298e-12
-3.84878e-12
-3.67746e-12
-2.9544e-12
-3.06632e-12
-2.69854e-12
-1.72913e-12
-1.25078e-12
-4.2847e-13
-4.29341e-14
-2.36665e-13
6.15326e-13
9.50441e-13
4.30573e-13
9.80822e-13
1.15814e-12
9.52764e-13
3.1365e-13
3.26886e-13
8.8061e-13
3.41561e-13
1.0557e-12
2.09296e-12
2.09707e-12
2.39536e-12
2.05688e-12
2.3243e-12
3.00657e-12
2.96836e-12
2.05283e-12
7.37051e-13
-4.7939e-13
-5.69221e-13
-2.69247e-13
-3.54001e-13
-5.75618e-13
-5.679e-13
-2.01057e-13
-4.75726e-13
-4.0304e-13
-3.75129e-13
-7.49024e-13
-1.6005e-12
-2.36147e-12
-2.56741e-12
-3.5779e-12
-3.86839e-12
-4.46951e-12
-4.54528e-12
-3.5462e-12
-3.9918e-12
-3.55281e-12
-4.25075e-12
-3.5992e-12
-3.27597e-12
-2.45021e-12
-1.72207e-12
-2.52074e-12
-2.37635e-12
-2.68965e-12
-1.71043e-12
-1.50664e-12
-9.57586e-13
-3.26638e-13
-6.68659e-13
-1.03149e-12
-1.89548e-12
-1.2208e-12
-1.64719e-12
-1.29554e-12
-2.50645e-12
-1.4162e-12
-2.16529e-12
-2.60861e-12
-2.34294e-12
-1.32849e-12
-1.13032e-12
-1.40976e-12
-2.2141e-12
-2.20275e-12
-2.15064e-12
-1.58114e-12
-4.12633e-13
-8.51171e-13
-6.30941e-13
-3.88944e-13
7.37244e-13
1.12588e-12
1.86028e-12
1.71979e-12
2.71493e-12
3.83376e-12
4.30855e-12
4.93322e-12
4.83014e-12
4.20561e-12
4.30051e-12
2.28566e-12
8.57882e-13
5.50464e-13
7.14449e-13
9.11203e-13
-7.44528e-13
-1.4717e-12
-6.07132e-13
-9.61007e-13
-4.88069e-13
-1.42007e-14
1.20162e-12
2.1874e-12
2.33555e-12
3.86141e-12
4.28863e-12
2.88102e-12
3.38384e-12
3.03807e-12
3.04809e-12
2.56727e-12
2.68641e-12
2.79995e-12
3.14572e-12
2.15862e-12
2.84074e-12
2.69157e-12
3.06082e-12
3.04536e-12
3.2385e-12
2.93549e-12
2.2441e-12
2.78573e-12
2.89411e-12
2.4019e-12
1.79877e-12
2.04899e-12
2.07828e-12
3.2044e-12
2.46889e-12
3.11295e-12
2.9559e-12
3.10235e-12
2.85407e-12
2.74494e-12
3.67991e-12
2.99506e-12
4.22031e-12
4.87836e-12
5.57653e-12
5.84817e-12
7.99254e-12
1.251e-11
2.28376e-11
4.61832e-11
1.0077e-10
2.19688e-10
4.81823e-10
1.05346e-09
2.28803e-09
4.93245e-09
1.05448e-08
2.23542e-08
4.69787e-08
9.78596e-08
2.02012e-07
4.13202e-07
8.37316e-07
1.68069e-06
3.34108e-06
6.57672e-06
1.28168e-05
2.47236e-05
4.71981e-05
8.91512e-05
0.000166581
0.000307836
0.00056248
0.00101597
0.0018135
0.00319818
0.00557063
0.00958042
0.0162629
0.0272389
0.0449981
0.0732888
0.117634
0.18599
0.289532
0.443553
0.668372
0.99014
1.44135
2.06079
2.89278
3.98539
5.38768
7.14612
9.30048
11.8799
14.8999
18.3603
22.2456
26.5263
31.1621
36.1074
41.316
46.7441
52.3519
58.1044
63.9711
69.9263
75.9483
82.0188
88.1226
94.247
100.381
106.517
112.646
118.762
124.86
130.935
136.984
143.003
148.989
154.94
160.852
166.725
172.555
178.343
184.085
189.781
195.429
201.029
206.579
212.077
217.524
222.918
228.259
233.546
238.778
243.954
249.075
254.139
259.147
264.097
268.99
273.825
278.603
283.322
287.983
292.585
297.129
301.615
306.042
310.41
314.721
318.973
323.166
327.302
331.38
335.4
339.362
343.267
347.115
350.906
354.64
358.318
361.939
365.505
369.015
372.47
375.869
379.214
382.505
385.741
388.923
392.053
395.129
398.152
401.122
404.041
406.908
409.723
412.487
415.2
417.863
420.476
423.04
425.554
428.018
430.435
432.803
435.123
437.395
439.621
441.799
443.931
446.017
448.057
450.052
452.001
453.906
455.767
457.583
459.356
461.086
462.773
464.417
466.019
467.58
469.098
470.576
472.013
473.409
474.766
476.082
477.359
478.597
479.797
480.958
482.081
483.167
484.215
485.226
486.2
487.138
488.041
488.907
489.739
490.535
491.297
492.024
492.718
493.378
494.004
494.598
495.159
495.688
496.185
496.65
497.084
497.487
497.859
498.201
498.514
498.796
499.05
499.275
499.471
499.639
499.78
499.894
499.982
500.044
500.081
500.094
500.084
500.053
500.002
499.935
499.853
499.76
499.661
499.561
499.465
499.38
499.312
499.265
499.245
499.25
499.278
499.323
499.375
499.421
499.451
499.456
499.431
499.375
499.292
499.19
499.08
498.973
498.881
498.818
498.792
498.81
498.876
498.985
499.129
499.29
499.45
499.586
499.678
499.711
499.68
499.588
499.448
499.279
499.106
498.952
498.836
498.776
498.777
498.839
498.95
499.093
499.243
499.374
499.465
499.5
499.474
499.394
499.275
499.14
499.011
498.911
498.854
498.848
498.889
498.965
499.057
499.144
499.207
499.231
499.213
499.157
499.076
498.985
498.905
498.847
498.821
498.826
498.854
498.893
498.928
498.946
498.938
498.904
498.85
498.784
498.719
498.664
498.625
498.602
498.589
498.578
498.559
498.525
498.471
498.4
498.316
498.226
498.134
498.044
497.952
497.846
497.699
497.461
497.049
496.325
495.087
493.059
489.898
485.223
478.663
469.938
458.928
445.736
430.709
414.41
397.55
380.893
365.168
350.989
338.808
328.887
321.3
315.948
312.589
310.875
310.396
310.731
311.495
312.38
313.173
313.762
314.12
314.276
314.29
314.226
314.135
314.053
313.995
313.965
313.956
313.96
313.97
313.98
313.987
313.992
313.994
313.994
313.994
313.994
313.995
313.996
313.997
313.999
314.001
314.004
314.006
314.007
314.009
314.011
314.012
314.014
314.015
314.016
314.018
314.019
314.02
314.021
314.022
314.023
314.024
314.025
314.026
314.027
314.028
314.029
314.03
314.031
314.032
314.032
314.033
314.034
314.035
314.037
314.038
314.039
314.04
314.041
314.043
314.044
314.045
314.047
314.048
314.049
314.051
314.052
314.052
314.054
314.059
314.055
314.046
314.064
314.069
314.001
314.012
314.16
313.968
313.597
314.265
314.623
312.108
312.327
318.564
312.059
296.13
323.708
346.545
215.375
68.8143
14.0517
2.28612
0.372897
0.0616533
0.0102033
0.00168821
0.000279292
4.62036e-05
7.64345e-06
1.26445e-06
2.09177e-07
3.46037e-08
5.72403e-09
9.46455e-10
1.56069e-10
2.53794e-11
3.7642e-12
-7.39529e-14
-5.87968e-13
-5.74617e-13
-6.40996e-13
-8.09632e-13
-7.50072e-13
-7.37497e-13
-6.42516e-13
-8.44867e-13
-8.89568e-13
-9.20085e-13
-8.93347e-13
-9.9945e-13
-1.05071e-12
-1.02049e-12
-1.03041e-12
-1.07573e-12
-1.05093e-12
-1.04029e-12
-1.06924e-12
-1.06027e-12
-1.04849e-12
-1.00507e-12
-1.02435e-12
-8.92926e-13
-9.24436e-13
-6.74899e-13
-6.39939e-13
-7.29048e-13
-8.1684e-13
-8.29199e-13
-5.93567e-13
-7.77657e-13
-8.06996e-13
-9.24604e-13
-9.94772e-13
-8.94867e-13
-7.74025e-13
-8.10407e-13
-9.66227e-13
-9.26168e-13
-9.40914e-13
-9.96523e-13
-9.81965e-13
-8.90068e-13
-1.00219e-12
-9.40029e-13
-8.36946e-13
-8.51467e-13
-8.67034e-13
-7.5456e-13
-8.96217e-13
-9.74497e-13
-9.84543e-13
-1.04624e-12
-1.06925e-12
-1.16049e-12
-1.05265e-12
-8.86219e-13
-7.47738e-13
-6.42569e-13
-4.3233e-13
-4.17475e-13
-2.44199e-13
-7.89169e-14
8.11062e-14
2.2873e-13
2.35237e-13
3.12932e-13
1.71891e-13
2.38015e-13
1.07348e-13
1.76657e-13
-2.1568e-14
4.01879e-14
7.67829e-14
1.1705e-13
4.3532e-14
-1.03914e-13
-9.21178e-14
-1.59451e-13
-3.50506e-13
-4.82165e-13
-4.33503e-13
-4.545e-13
-4.97106e-13
-4.39749e-13
-3.69084e-13
-4.44135e-13
-2.53094e-13
-2.42165e-13
-3.96092e-13
-2.7025e-13
-1.58799e-13
-7.57626e-14
-8.56498e-14
-1.94425e-13
-5.38617e-14
9.66239e-14
8.79905e-14
-8.10106e-15
-1.22852e-13
-1.88139e-13
-1.53076e-13
-2.389e-13
-2.9072e-13
-3.91069e-13
-3.55604e-13
-4.5334e-13
-5.09032e-13
-4.36554e-13
-4.41113e-13
-4.34986e-13
-3.38577e-13
-3.94365e-13
-4.03282e-13
-4.95294e-13
-3.36795e-13
-4.45272e-13
-3.45916e-13
-2.78866e-13
-2.93826e-13
-1.67544e-13
3.73886e-14
5.20515e-14
-4.20648e-14
-1.23353e-13
-2.39476e-13
-5.99252e-14
-9.62947e-14
-1.35791e-13
-1.50188e-13
-1.93083e-13
-2.47822e-13
-2.5025e-13
-2.74113e-13
-4.86098e-13
-6.00786e-13
-5.78784e-13
-5.89588e-13
-4.39882e-13
-4.99967e-13
-3.44237e-13
-4.88977e-13
-4.57668e-13
-5.21997e-13
-4.45543e-13
-3.20706e-13
-2.33212e-13
-3.05232e-13
-3.77757e-13
-4.84007e-13
-3.53381e-13
-3.55754e-13
-4.08939e-13
-3.974e-13
-5.37223e-13
-6.36372e-13
-6.67416e-13
-5.23003e-13
-5.04849e-13
-5.73136e-13
-6.12929e-13
-6.26759e-13
-5.91498e-13
-7.3451e-13
-7.20051e-13
-6.03661e-13
-4.90191e-13
-3.10739e-13
-2.50138e-13
-1.21895e-13
-1.35467e-13
-8.64644e-14
-1.11994e-13
-1.35317e-13
-1.42303e-13
-2.00126e-13
-1.74397e-13
-8.02899e-14
-9.26182e-14
-2.14589e-13
-2.98481e-13
-3.66697e-13
-4.09724e-13
-4.6907e-13
-4.46526e-13
-3.82551e-13
-4.82395e-13
-7.04843e-13
-7.90893e-13
-7.45784e-13
-6.48633e-13
-5.21633e-13
-3.92314e-13
-2.85754e-13
-1.62836e-13
-2.5447e-13
-3.50075e-13
-2.12942e-13
-1.31493e-13
-1.85469e-14
-1.40367e-13
-1.67934e-13
-1.67301e-13
-2.78193e-13
-3.36701e-13
-3.84899e-13
-5.31495e-13
-6.14311e-13
-7.6306e-13
-8.13511e-13
-8.49287e-13
-8.1197e-13
-8.58718e-13
-8.67445e-13
-9.87697e-13
-1.13261e-12
-1.28108e-12
-1.33208e-12
-1.427e-12
-1.48659e-12
-1.27283e-12
-1.15852e-12
-8.55361e-13
-7.57074e-13
-6.92559e-13
-7.6675e-13
-7.28697e-13
-7.49133e-13
-7.26979e-13
-7.85829e-13
-8.90502e-13
-9.08833e-13
-8.54612e-13
-1.04281e-12
-1.10969e-12
-9.25369e-13
-8.20032e-13
-7.73306e-13
-7.88669e-13
-7.04728e-13
-7.45474e-13
-7.14624e-13
-6.30019e-13
-6.0914e-13
-5.49804e-13
-3.95321e-13
-5.13497e-13
-5.69557e-13
-6.94777e-13
-5.05624e-13
-4.14476e-13
-3.24749e-13
-2.93413e-13
-3.32958e-13
-4.58504e-13
-4.5209e-13
-4.07597e-13
-2.73399e-13
-3.82577e-13
-3.67533e-13
-4.98887e-13
)
;

boundaryField
{
    sides
    {
        type            calculated;
        value           nonuniform List<scalar> 2(-4.65661e-13 9.42964e-12);
    }
    empty
    {
        type            empty;
    }
}


// ************************************************************************* //
