/*--------------------------------*- C++ -*----------------------------------*\
  =========                 |
  \\      /  F ield         | OpenFOAM: The Open Source CFD Toolbox
   \\    /   O peration     | Website:  https://openfoam.org
    \\  /    A nd           | Version:  13
     \\/     M anipulation  |
\*---------------------------------------------------------------------------*/
FoamFile
{
    format      ascii;
    class       volScalarField;
    location    "0.004";
    object      rho;
}
// * * * * * * * * * * * * * * * * * * * * * * * * * * * * * * * * * * * * * //

dimensions      [1 -3 0 0 0 0 0];

internalField   nonuniform List<scalar> 
1000
(
0.997575
0.997575
0.997575
0.997575
0.997575
0.997575
0.997575
0.997575
0.997575
0.997575
0.997575
0.997575
0.997575
0.997575
0.997575
0.997575
0.997575
0.997575
0.997575
0.997575
0.997575
0.997575
0.997575
0.997575
0.997575
0.997575
0.997575
0.997575
0.997575
0.997575
0.997575
0.997575
0.997575
0.997575
0.997575
0.997575
0.997575
0.997575
0.997575
0.997575
0.997575
0.997575
0.997575
0.997575
0.997575
0.997575
0.997575
0.997575
0.997575
0.997575
0.997575
0.997575
0.997575
0.997575
0.997575
0.997575
0.997575
0.997575
0.997575
0.997575
0.997575
0.997575
0.997575
0.997575
0.997575
0.997575
0.997575
0.997575
0.997575
0.997575
0.997575
0.997575
0.997575
0.997575
0.997575
0.997575
0.997575
0.997575
0.997575
0.997575
0.997575
0.997575
0.997575
0.997575
0.997575
0.997575
0.997575
0.997575
0.997575
0.997575
0.997575
0.997575
0.997575
0.997575
0.997575
0.997575
0.997575
0.997575
0.997575
0.997575
0.997575
0.997575
0.997575
0.997575
0.997575
0.997575
0.997575
0.997575
0.997575
0.997575
0.997575
0.997575
0.997575
0.997575
0.997575
0.997575
0.997575
0.997575
0.997575
0.997575
0.997575
0.997575
0.997575
0.997575
0.997575
0.997575
0.997575
0.997575
0.997575
0.997575
0.997575
0.997575
0.997575
0.997575
0.997575
0.997575
0.997575
0.997575
0.997575
0.997575
0.997575
0.997575
0.997575
0.997575
0.997575
0.997575
0.997575
0.997575
0.997575
0.997575
0.997575
0.997575
0.997575
0.997575
0.997575
0.997575
0.997575
0.997575
0.997575
0.997575
0.997575
0.997575
0.997575
0.997575
0.997575
0.997575
0.997575
0.997575
0.997575
0.997575
0.997575
0.997575
0.997575
0.997575
0.997575
0.997575
0.997575
0.997575
0.997575
0.997575
0.997575
0.997575
0.997575
0.997575
0.997575
0.997575
0.997575
0.997575
0.997575
0.997575
0.997575
0.997575
0.997575
0.997575
0.997575
0.997575
0.997575
0.997575
0.997575
0.997575
0.997575
0.997575
0.997575
0.997575
0.997575
0.997575
0.997575
0.997575
0.997575
0.997575
0.997575
0.997575
0.997575
0.997575
0.997575
0.997575
0.997575
0.997575
0.997575
0.997575
0.997575
0.997575
0.997575
0.997575
0.997575
0.997575
0.997575
0.997575
0.997575
0.997575
0.997575
0.997575
0.997575
0.997575
0.997575
0.997575
0.997575
0.997575
0.997575
0.997575
0.997575
0.997575
0.997575
0.997575
0.997575
0.997575
0.997575
0.997575
0.997575
0.997575
0.997575
0.997575
0.997575
0.997575
0.997575
0.997575
0.997575
0.997575
0.997575
0.997575
0.997575
0.997575
0.997575
0.997575
0.997575
0.997575
0.997575
0.997575
0.997575
0.997575
0.997575
0.997575
0.997575
0.997575
0.997575
0.997575
0.997575
0.997575
0.997575
0.997575
0.997575
0.997575
0.997575
0.997575
0.997575
0.997575
0.997575
0.997575
0.997575
0.997575
0.997575
0.997575
0.997575
0.997575
0.997575
0.997575
0.997575
0.997575
0.997575
0.997575
0.997575
0.997575
0.997575
0.997575
0.997575
0.997575
0.997575
0.997575
0.997575
0.997575
0.997575
0.997575
0.997575
0.997575
0.997575
0.997575
0.997575
0.997575
0.997575
0.997574
0.997574
0.997574
0.997574
0.997573
0.997573
0.997571
0.997569
0.997564
0.997557
0.997546
0.997528
0.9975
0.997457
0.997392
0.997294
0.99715
0.996945
0.996656
0.996258
0.995722
0.995016
0.994107
0.992962
0.991554
0.989861
0.987869
0.985576
0.982987
0.98012
0.976998
0.973648
0.970099
0.966378
0.962511
0.95852
0.954425
0.950241
0.945984
0.941666
0.937296
0.932882
0.928432
0.923952
0.919447
0.91492
0.910376
0.905818
0.901248
0.896668
0.892081
0.887489
0.882893
0.878294
0.873695
0.869096
0.864498
0.859903
0.855311
0.850724
0.846142
0.841566
0.836997
0.832436
0.827883
0.823339
0.818805
0.814282
0.809769
0.805268
0.800779
0.796302
0.791839
0.787388
0.782951
0.778529
0.77412
0.769727
0.765348
0.760985
0.756637
0.752305
0.747988
0.743688
0.739405
0.735138
0.730887
0.726653
0.722436
0.718236
0.714054
0.709888
0.70574
0.701609
0.697495
0.693399
0.68932
0.685259
0.681216
0.67719
0.673182
0.669192
0.665219
0.661264
0.657327
0.653408
0.649507
0.645623
0.641757
0.637909
0.634079
0.630266
0.626472
0.622695
0.618936
0.615195
0.611472
0.607766
0.604078
0.600408
0.596756
0.593121
0.589505
0.585905
0.582324
0.578761
0.575215
0.571686
0.568176
0.564683
0.561208
0.557751
0.554311
0.550889
0.547485
0.544098
0.540729
0.537378
0.534045
0.530729
0.527431
0.524152
0.52089
0.517646
0.51442
0.511212
0.508023
0.504852
0.501699
0.498565
0.49545
0.492353
0.489276
0.486218
0.48318
0.480161
0.477163
0.474185
0.471229
0.468294
0.465381
0.462492
0.459626
0.456784
0.453969
0.45118
0.44842
0.44569
0.442992
0.440328
0.437703
0.435117
0.432577
0.430087
0.427651
0.425278
0.422976
0.420754
0.418625
0.416604
0.414707
0.412956
0.411377
0.409999
0.408859
0.407997
0.40746
0.4073
0.407573
0.408331
0.409625
0.411484
0.413917
0.416887
0.420306
0.424023
0.427824
0.431442
0.434586
0.436976
0.438394
0.438722
0.437967
0.436256
0.433809
0.430901
0.427821
0.424844
0.422214
0.42013
0.418738
0.418124
0.418314
0.419263
0.420861
0.422929
0.425237
0.427522
0.429517
0.430989
0.431777
0.43182
0.431167
0.429959
0.428404
0.426737
0.425186
0.423948
0.423163
0.422903
0.423165
0.423873
0.424889
0.426038
0.427133
0.428003
0.428525
0.428639
0.428364
0.427785
0.427029
0.426245
0.425571
0.425115
0.424935
0.425037
0.425371
0.425849
0.426364
0.426809
0.427099
0.427192
0.427086
0.426826
0.426483
0.426138
0.425863
0.425709
0.425694
0.4258
0.425985
0.426193
0.426367
0.426465
0.426467
0.426382
0.426238
0.426073
0.425929
0.425834
0.4258
0.425819
0.42587
0.425923
0.425952
0.42594
0.425883
0.42579
0.425679
0.425568
0.425473
0.425396
0.425329
0.425253
0.425132
0.424908
0.424499
0.423778
0.422562
0.420608
0.417618
0.413267
0.407254
0.399365
0.38954
0.377915
0.364834
0.35081
0.33646
0.322431
0.30932
0.297617
0.287667
0.279653
0.273604
0.269405
0.266832
0.265576
0.265292
0.265631
0.266282
0.267002
0.267629
0.268084
0.268351
0.268461
0.268463
0.268407
0.268334
0.26827
0.268227
0.268205
0.268199
0.268203
0.268211
0.268219
0.268224
0.268227
0.268229
0.268229
0.268229
0.268229
0.268229
0.26823
0.268231
0.268233
0.268234
0.268236
0.268237
0.268239
0.26824
0.268241
0.268242
0.268243
0.268244
0.268245
0.268246
0.268246
0.268247
0.268248
0.268248
0.268249
0.26825
0.26825
0.268251
0.268251
0.268252
0.268252
0.268253
0.268253
0.268254
0.268254
0.268255
0.268255
0.268255
0.268256
0.268256
0.268257
0.268257
0.268258
0.268259
0.268259
0.26826
0.26826
0.268261
0.268261
0.268262
0.268263
0.268263
0.268263
0.268265
0.268263
0.26826
0.268266
0.268269
0.268246
0.268244
0.268296
0.268236
0.268085
0.268292
0.268472
0.267606
0.267488
0.269726
0.267865
0.261647
0.270209
0.280083
0.233448
0.165774
0.134156
0.12633
0.12496
0.12474
0.124704
0.124698
0.124697
0.124697
0.124697
0.124697
0.124697
0.124697
0.124697
0.124697
0.124697
0.124697
0.124697
0.124697
0.124697
0.124697
0.124697
0.124697
0.124697
0.124697
0.124697
0.124697
0.124697
0.124697
0.124697
0.124697
0.124697
0.124697
0.124697
0.124697
0.124697
0.124697
0.124697
0.124697
0.124697
0.124697
0.124697
0.124697
0.124697
0.124697
0.124697
0.124697
0.124697
0.124697
0.124697
0.124697
0.124697
0.124697
0.124697
0.124697
0.124697
0.124697
0.124697
0.124697
0.124697
0.124697
0.124697
0.124697
0.124697
0.124697
0.124697
0.124697
0.124697
0.124697
0.124697
0.124697
0.124697
0.124697
0.124697
0.124697
0.124697
0.124697
0.124697
0.124697
0.124697
0.124697
0.124697
0.124697
0.124697
0.124697
0.124697
0.124697
0.124697
0.124697
0.124697
0.124697
0.124697
0.124697
0.124697
0.124697
0.124697
0.124697
0.124697
0.124697
0.124697
0.124697
0.124697
0.124697
0.124697
0.124697
0.124697
0.124697
0.124697
0.124697
0.124697
0.124697
0.124697
0.124697
0.124697
0.124697
0.124697
0.124697
0.124697
0.124697
0.124697
0.124697
0.124697
0.124697
0.124697
0.124697
0.124697
0.124697
0.124697
0.124697
0.124697
0.124697
0.124697
0.124697
0.124697
0.124697
0.124697
0.124697
0.124697
0.124697
0.124697
0.124697
0.124697
0.124697
0.124697
0.124697
0.124697
0.124697
0.124697
0.124697
0.124697
0.124697
0.124697
0.124697
0.124697
0.124697
0.124697
0.124697
0.124697
0.124697
0.124697
0.124697
0.124697
0.124697
0.124697
0.124697
0.124697
0.124697
0.124697
0.124697
0.124697
0.124697
0.124697
0.124697
0.124697
0.124697
0.124697
0.124697
0.124697
0.124697
0.124697
0.124697
0.124697
0.124697
0.124697
0.124697
0.124697
0.124697
0.124697
0.124697
0.124697
0.124697
0.124697
0.124697
0.124697
0.124697
0.124697
0.124697
0.124697
0.124697
0.124697
0.124697
0.124697
0.124697
0.124697
0.124697
0.124697
0.124697
0.124697
0.124697
0.124697
0.124697
0.124697
0.124697
0.124697
0.124697
0.124697
0.124697
0.124697
0.124697
0.124697
0.124697
0.124697
0.124697
0.124697
0.124697
0.124697
0.124697
0.124697
0.124697
0.124697
0.124697
0.124697
0.124697
0.124697
0.124697
0.124697
0.124697
0.124697
0.124697
0.124697
0.124697
0.124697
0.124697
0.124697
0.124697
0.124697
0.124697
0.124697
0.124697
0.124697
0.124697
0.124697
0.124697
0.124697
0.124697
0.124697
0.124697
0.124697
0.124697
0.124697
0.124697
0.124697
0.124697
0.124697
0.124697
0.124697
0.124697
0.124697
0.124697
0.124697
0.124697
0.124697
0.124697
0.124697
0.124697
0.124697
0.124697
0.124697
0.124697
0.124697
0.124697
)
;

boundaryField
{
    sides
    {
        type            calculated;
        value           nonuniform List<scalar> 2(0.124697 0.997575);
    }
    empty
    {
        type            empty;
    }
}


// ************************************************************************* //
