/*--------------------------------*- C++ -*----------------------------------*\
  =========                 |
  \\      /  F ield         | OpenFOAM: The Open Source CFD Toolbox
   \\    /   O peration     | Website:  https://openfoam.org
    \\  /    A nd           | Version:  13
     \\/     M anipulation  |
\*---------------------------------------------------------------------------*/
FoamFile
{
    format      ascii;
    class       volVectorField;
    location    "0.004";
    object      U_0;
}
// * * * * * * * * * * * * * * * * * * * * * * * * * * * * * * * * * * * * * //

dimensions      [0 1 -1 0 0 0 0];

internalField   nonuniform List<vector> 
1000
(
(-2.37287e-12 0 0)
(-2.25131e-12 0 0)
(-2.28048e-12 0 0)
(-1.94497e-12 0 0)
(-2.12488e-12 0 0)
(-1.8769e-12 0 0)
(-2.22213e-12 0 0)
(-1.95956e-12 0 0)
(-2.17351e-12 0 0)
(-1.67268e-12 0 0)
(-1.9547e-12 0 0)
(-1.67268e-12 0 0)
(-2.01791e-12 0 0)
(-1.72616e-12 0 0)
(-1.91094e-12 0 0)
(-1.80396e-12 0 0)
(-1.72616e-12 0 0)
(-1.59974e-12 0 0)
(-1.75534e-12 0 0)
(-1.90121e-12 0 0)
(-2.04222e-12 0 0)
(-1.81855e-12 0 0)
(-1.9936e-12 0 0)
(-1.95956e-12 0 0)
(-1.89635e-12 0 0)
(-2.05681e-12 0 0)
(-1.90607e-12 0 0)
(-1.90607e-12 0 0)
(-1.8769e-12 0 0)
(-1.99846e-12 0 0)
(-1.66295e-12 0 0)
(-1.97901e-12 0 0)
(-1.838e-12 0 0)
(-1.98387e-12 0 0)
(-1.77965e-12 0 0)
(-1.64836e-12 0 0)
(-1.68726e-12 0 0)
(-2.02277e-12 0 0)
(-1.90121e-12 0 0)
(-2.12488e-12 0 0)
(-1.98387e-12 0 0)
(-1.94497e-12 0 0)
(-1.78937e-12 0 0)
(-1.50249e-12 0 0)
(-1.77479e-12 0 0)
(-1.50735e-12 0 0)
(-1.92066e-12 0 0)
(-1.76993e-12 0 0)
(-1.9936e-12 0 0)
(-1.70185e-12 0 0)
(-1.82827e-12 0 0)
(-1.38579e-12 0 0)
(-1.5268e-12 0 0)
(-1.06001e-12 0 0)
(-1.06001e-12 0 0)
(-9.87074e-13 0 0)
(-1.13781e-12 0 0)
(-9.57899e-13 0 0)
(-1.08918e-12 0 0)
(-1.08432e-12 0 0)
(-1.07946e-12 0 0)
(-1.00652e-12 0 0)
(-1.21561e-12 0 0)
(-1.28368e-12 0 0)
(-1.449e-12 0 0)
(-1.42469e-12 0 0)
(-1.23506e-12 0 0)
(-1.23506e-12 0 0)
(-1.16212e-12 0 0)
(-1.39552e-12 0 0)
(-1.33717e-12 0 0)
(-1.10377e-12 0 0)
(-1.12808e-12 0 0)
(-1.54625e-12 0 0)
(-1.32258e-12 0 0)
(-1.30799e-12 0 0)
(-1.18643e-12 0 0)
(-1.10863e-12 0 0)
(-1.13781e-12 0 0)
(-1.63864e-12 0 0)
(-1.5657e-12 0 0)
(-1.84286e-12 0 0)
(-1.95956e-12 0 0)
(-2.05681e-12 0 0)
(-1.9936e-12 0 0)
(-1.94011e-12 0 0)
(-1.61919e-12 0 0)
(-1.59488e-12 0 0)
(-1.58515e-12 0 0)
(-1.60946e-12 0 0)
(-1.49277e-12 0 0)
(-1.74561e-12 0 0)
(-1.47332e-12 0 0)
(-1.25937e-12 0 0)
(-1.22047e-12 0 0)
(-8.41201e-13 0 0)
(-8.55788e-13 0 0)
(-7.3909e-13 0 0)
(-4.37619e-13 0 0)
(-1.50735e-13 0 0)
(-3.69545e-13 0 0)
(-1.75048e-13 0 0)
(-2.67434e-13 0 0)
(-3.54958e-13 0 0)
(-5.88354e-13 0 0)
(-6.90465e-13 0 0)
(-9.67624e-13 0 0)
(-8.26613e-13 0 0)
(-9.38449e-13 0 0)
(-7.1964e-13 0 0)
(-5.88354e-13 0 0)
(-5.5918e-13 0 0)
(-5.34868e-13 0 0)
(-5.64042e-13 0 0)
(-4.08444e-13 0 0)
(-4.08444e-13 0 0)
(-3.5982e-13 0 0)
(-4.86243e-14 0 0)
(1.65323e-13 0 0)
(4.91106e-13 0 0)
(3.7927e-13 0 0)
(5.78629e-13 0 0)
(5.2028e-13 0 0)
(5.0083e-13 0 0)
(4.76518e-13 0 0)
(3.01471e-13 0 0)
(2.91746e-13 0 0)
(4.13307e-13 0 0)
(4.32756e-13 0 0)
(2.62571e-13 0 0)
(1.7991e-13 0 0)
(2.67434e-13 0 0)
(2.04222e-13 0 0)
(2.28534e-13 0 0)
(2.23672e-13 0 0)
(4.37619e-14 0 0)
(-2.82021e-13 0 0)
(-5.0083e-13 0 0)
(-3.20921e-13 0 0)
(-5.30005e-13 0 0)
(-3.84132e-13 0 0)
(-5.54317e-13 0 0)
(-6.22391e-13 0 0)
(-1.19616e-12 0 0)
(-1.1524e-12 0 0)
(-1.23992e-12 0 0)
(-1.09891e-12 0 0)
(-8.55788e-13 0 0)
(-1.02597e-12 0 0)
(-8.84963e-13 0 0)
(-8.21751e-13 0 0)
(-8.50926e-13 0 0)
(-6.8074e-13 0 0)
(-5.49455e-13 0 0)
(-3.01471e-13 0 0)
(-2.04222e-13 0 0)
(-4.86243e-15 0 0)
(-9.72486e-14 0 0)
(6.32116e-14 0 0)
(2.33397e-13 0 0)
(6.8074e-14 0 0)
(2.04222e-13 0 0)
(1.36148e-13 0 0)
(4.13307e-13 0 0)
(-4.86243e-15 0 0)
(1.21561e-13 0 0)
(3.4037e-14 0 0)
(2.43122e-13 0 0)
(4.86243e-14 0 0)
(5.10555e-13 0 0)
(4.08444e-13 0 0)
(7.05053e-13 0 0)
(4.23032e-13 0 0)
(6.85603e-13 0 0)
(6.02942e-13 0 0)
(8.02301e-13 0 0)
(7.14777e-13 0 0)
(2.67434e-13 0 0)
(5.83492e-14 0 0)
(-2.43122e-13 0 0)
(-1.06974e-13 0 0)
(1.45873e-14 0 0)
(-1.75048e-13 0 0)
(-1.41011e-13 0 0)
(-1.02111e-13 0 0)
(-6.32116e-14 0 0)
(-7.77989e-14 0 0)
(-2.04222e-13 0 0)
(-4.37619e-14 0 0)
(-3.5982e-13 0 0)
(-3.64682e-13 0 0)
(-7.48815e-13 0 0)
(-7.24502e-13 0 0)
(-9.77349e-13 0 0)
(-9.67624e-13 0 0)
(-1.15726e-12 0 0)
(-9.91936e-13 0 0)
(-1.01139e-12 0 0)
(-8.65513e-13 0 0)
(-1.04056e-12 0 0)
(-8.75238e-13 0 0)
(-9.28725e-13 0 0)
(-6.95328e-13 0 0)
(-5.34868e-13 0 0)
(-4.47344e-13 0 0)
(-7.0019e-13 0 0)
(-6.02942e-13 0 0)
(-6.07804e-13 0 0)
(-4.13307e-13 0 0)
(-2.04222e-13 0 0)
(-2.23672e-13 0 0)
(4.37619e-14 0 0)
(-2.96608e-13 0 0)
(-3.20921e-13 0 0)
(-4.37619e-13 0 0)
(-3.01471e-13 0 0)
(-4.13307e-13 0 0)
(-4.08444e-13 0 0)
(-5.44592e-13 0 0)
(-3.74407e-13 0 0)
(-7.09915e-13 0 0)
(-6.46703e-13 0 0)
(-4.27894e-13 0 0)
(-2.28534e-13 0 0)
(-4.13307e-13 0 0)
(-2.62571e-13 0 0)
(-6.95328e-13 0 0)
(-4.71656e-13 0 0)
(-5.5918e-13 0 0)
(-1.02111e-13 0 0)
(-1.65323e-13 0 0)
(-2.23672e-13 0 0)
(-1.7991e-13 0 0)
(4.86243e-14 0 0)
(2.43122e-13 0 0)
(3.64682e-13 0 0)
(4.86243e-13 0 0)
(4.27894e-13 0 0)
(8.41201e-13 0 0)
(9.91936e-13 0 0)
(1.15726e-12 0 0)
(1.21561e-12 0 0)
(1.17185e-12 0 0)
(1.05515e-12 0 0)
(8.801e-13 0 0)
(3.25783e-13 0 0)
(1.75048e-13 0 0)
(1.36148e-13 0 0)
(3.11196e-13 0 0)
(1.45873e-14 0 0)
(-2.47984e-13 0 0)
(-3.06333e-13 0 0)
(-1.16698e-13 0 0)
(-2.77159e-13 0 0)
(3.4037e-14 0 0)
(1.44961e-26 0 0)
(4.66793e-13 0 0)
(5.2028e-13 0 0)
(8.16889e-13 0 0)
(1.0357e-12 0 0)
(9.62762e-13 0 0)
(6.36979e-13 0 0)
(9.19e-13 0 0)
(7.09915e-13 0 0)
(7.58539e-13 0 0)
(6.56428e-13 0 0)
(6.12666e-13 0 0)
(7.97439e-13 0 0)
(5.68905e-13 0 0)
(7.0019e-13 0 0)
(6.75878e-13 0 0)
(7.68264e-13 0 0)
(7.24502e-13 0 0)
(8.02301e-13 0 0)
(7.68264e-13 0 0)
(6.51566e-13 0 0)
(6.27254e-13 0 0)
(6.75878e-13 0 0)
(6.75878e-13 0 0)
(5.15418e-13 0 0)
(4.42481e-13 0 0)
(5.88354e-13 0 0)
(6.17529e-13 0 0)
(7.1964e-13 0 0)
(7.0019e-13 0 0)
(7.29365e-13 0 0)
(8.6065e-13 0 0)
(6.66153e-13 0 0)
(7.73127e-13 0 0)
(7.0019e-13 0 0)
(8.6065e-13 0 0)
(8.801e-13 0 0)
(1.16698e-12 0 0)
(1.29827e-12 0 0)
(1.41497e-12 0 0)
(1.73103e-12 0 0)
(2.49929e-12 0 0)
(4.30325e-12 0 0)
(8.26613e-12 0 0)
(1.7709e-11 0 0)
(3.82187e-11 0 0)
(8.39645e-11 0 0)
(1.8344e-10 0 0)
(4.0013e-10 0 0)
(8.65202e-10 0 0)
(1.85678e-09 0 0)
(3.95147e-09 0 0)
(8.33701e-09 0 0)
(1.74363e-08 0 0)
(3.61427e-08 0 0)
(7.42359e-08 0 0)
(1.51073e-07 0 0)
(3.04552e-07 0 0)
(6.08091e-07 0 0)
(1.20236e-06 0 0)
(2.35386e-06 0 0)
(4.56173e-06 0 0)
(8.74977e-06 0 0)
(1.66071e-05 0 0)
(3.11837e-05 0 0)
(5.79168e-05 0 0)
(0.000106371 0 0)
(0.00019314 0 0)
(0.000346612 0 0)
(0.000614633 0 0)
(0.00107662 0 0)
(0.00186232 0 0)
(0.00318013 0 0)
(0.00535901 0 0)
(0.00890871 0 0)
(0.0146038 0 0)
(0.0235971 0 0)
(0.0375667 0 0)
(0.0588982 0 0)
(0.0908971 0 0)
(0.138018 0 0)
(0.206086 0 0)
(0.302469 0 0)
(0.436149 0 0)
(0.617639 0 0)
(0.858689 0 0)
(1.17175 0 0)
(1.56919 0 0)
(2.06242 0 0)
(2.66086 0 0)
(3.37109 0 0)
(4.19627 0 0)
(5.13582 0 0)
(6.1856 0 0)
(7.33846 0 0)
(8.58525 0 0)
(9.91598 0 0)
(11.3207 0 0)
(12.79 0 0)
(14.3156 0 0)
(15.8898 0 0)
(17.5064 0 0)
(19.1598 0 0)
(20.8455 0 0)
(22.5594 0 0)
(24.2985 0 0)
(26.0599 0 0)
(27.8413 0 0)
(29.6408 0 0)
(31.4568 0 0)
(33.2878 0 0)
(35.1328 0 0)
(36.9905 0 0)
(38.8602 0 0)
(40.741 0 0)
(42.6322 0 0)
(44.5333 0 0)
(46.4436 0 0)
(48.3626 0 0)
(50.2899 0 0)
(52.2251 0 0)
(54.1676 0 0)
(56.1172 0 0)
(58.0734 0 0)
(60.0359 0 0)
(62.0044 0 0)
(63.9786 0 0)
(65.9582 0 0)
(67.9429 0 0)
(69.9324 0 0)
(71.9264 0 0)
(73.9248 0 0)
(75.9273 0 0)
(77.9336 0 0)
(79.9436 0 0)
(81.9571 0 0)
(83.9738 0 0)
(85.9936 0 0)
(88.0163 0 0)
(90.0417 0 0)
(92.0698 0 0)
(94.1003 0 0)
(96.1332 0 0)
(98.1682 0 0)
(100.205 0 0)
(102.244 0 0)
(104.285 0 0)
(106.328 0 0)
(108.372 0 0)
(110.418 0 0)
(112.466 0 0)
(114.515 0 0)
(116.565 0 0)
(118.616 0 0)
(120.669 0 0)
(122.723 0 0)
(124.778 0 0)
(126.834 0 0)
(128.891 0 0)
(130.949 0 0)
(133.008 0 0)
(135.067 0 0)
(137.128 0 0)
(139.189 0 0)
(141.251 0 0)
(143.313 0 0)
(145.376 0 0)
(147.44 0 0)
(149.504 0 0)
(151.569 0 0)
(153.634 0 0)
(155.7 0 0)
(157.766 0 0)
(159.833 0 0)
(161.9 0 0)
(163.967 0 0)
(166.035 0 0)
(168.103 0 0)
(170.171 0 0)
(172.239 0 0)
(174.307 0 0)
(176.376 0 0)
(178.445 0 0)
(180.513 0 0)
(182.582 0 0)
(184.651 0 0)
(186.72 0 0)
(188.789 0 0)
(190.858 0 0)
(192.926 0 0)
(194.995 0 0)
(197.063 0 0)
(199.131 0 0)
(201.199 0 0)
(203.267 0 0)
(205.334 0 0)
(207.401 0 0)
(209.467 0 0)
(211.533 0 0)
(213.598 0 0)
(215.663 0 0)
(217.727 0 0)
(219.791 0 0)
(221.853 0 0)
(223.915 0 0)
(225.976 0 0)
(228.036 0 0)
(230.095 0 0)
(232.153 0 0)
(234.209 0 0)
(236.264 0 0)
(238.317 0 0)
(240.369 0 0)
(242.419 0 0)
(244.466 0 0)
(246.512 0 0)
(248.555 0 0)
(250.596 0 0)
(252.634 0 0)
(254.668 0 0)
(256.7 0 0)
(258.727 0 0)
(260.75 0 0)
(262.769 0 0)
(264.782 0 0)
(266.79 0 0)
(268.791 0 0)
(270.785 0 0)
(272.77 0 0)
(274.747 0 0)
(276.713 0 0)
(278.668 0 0)
(280.609 0 0)
(282.535 0 0)
(284.443 0 0)
(286.332 0 0)
(288.196 0 0)
(290.034 0 0)
(291.84 0 0)
(293.608 0 0)
(295.333 0 0)
(297.006 0 0)
(298.618 0 0)
(300.158 0 0)
(301.61 0 0)
(302.959 0 0)
(304.185 0 0)
(305.264 0 0)
(306.166 0 0)
(306.861 0 0)
(307.309 0 0)
(307.469 0 0)
(307.297 0 0)
(306.747 0 0)
(305.781 0 0)
(304.369 0 0)
(302.505 0 0)
(300.212 0 0)
(297.557 0 0)
(294.658 0 0)
(291.68 0 0)
(288.835 0 0)
(286.353 0 0)
(284.456 0 0)
(283.32 0 0)
(283.04 0 0)
(283.616 0 0)
(284.953 0 0)
(286.881 0 0)
(289.188 0 0)
(291.644 0 0)
(294.027 0 0)
(296.139 0 0)
(297.819 0 0)
(298.943 0 0)
(299.44 0 0)
(299.285 0 0)
(298.511 0 0)
(297.207 0 0)
(295.516 0 0)
(293.626 0 0)
(291.754 0 0)
(290.12 0 0)
(288.915 0 0)
(288.272 0 0)
(288.242 0 0)
(288.788 0 0)
(289.792 0 0)
(291.086 0 0)
(292.474 0 0)
(293.765 0 0)
(294.793 0 0)
(295.439 0 0)
(295.642 0 0)
(295.404 0 0)
(294.791 0 0)
(293.917 0 0)
(292.933 0 0)
(291.999 0 0)
(291.26 0 0)
(290.823 0 0)
(290.734 0 0)
(290.98 0 0)
(291.485 0 0)
(292.14 0 0)
(292.815 0 0)
(293.39 0 0)
(293.771 0 0)
(293.909 0 0)
(293.8 0 0)
(293.489 0 0)
(293.054 0 0)
(292.591 0 0)
(292.195 0 0)
(291.939 0 0)
(291.861 0 0)
(291.958 0 0)
(292.191 0 0)
(292.495 0 0)
(292.796 0 0)
(293.028 0 0)
(293.147 0 0)
(293.139 0 0)
(293.021 0 0)
(292.833 0 0)
(292.627 0 0)
(292.456 0 0)
(292.357 0 0)
(292.346 0 0)
(292.415 0 0)
(292.536 0 0)
(292.671 0 0)
(292.781 0 0)
(292.841 0 0)
(292.841 0 0)
(292.789 0 0)
(292.707 0 0)
(292.623 0 0)
(292.561 0 0)
(292.538 0 0)
(292.554 0 0)
(292.599 0 0)
(292.653 0 0)
(292.699 0 0)
(292.721 0 0)
(292.718 0 0)
(292.693 0 0)
(292.662 0 0)
(292.639 0 0)
(292.635 0 0)
(292.657 0 0)
(292.701 0 0)
(292.76 0 0)
(292.823 0 0)
(292.883 0 0)
(292.934 0 0)
(292.975 0 0)
(293.004 0 0)
(293.016 0 0)
(293.005 0 0)
(292.962 0 0)
(292.885 0 0)
(292.776 0 0)
(292.649 0 0)
(292.519 0 0)
(292.398 0 0)
(292.299 0 0)
(292.23 0 0)
(292.201 0 0)
(292.213 0 0)
(292.265 0 0)
(292.345 0 0)
(292.439 0 0)
(292.531 0 0)
(292.608 0 0)
(292.664 0 0)
(292.695 0 0)
(292.706 0 0)
(292.701 0 0)
(292.689 0 0)
(292.675 0 0)
(292.662 0 0)
(292.654 0 0)
(292.649 0 0)
(292.648 0 0)
(292.649 0 0)
(292.651 0 0)
(292.652 0 0)
(292.654 0 0)
(292.655 0 0)
(292.655 0 0)
(292.655 0 0)
(292.655 0 0)
(292.655 0 0)
(292.655 0 0)
(292.655 0 0)
(292.655 0 0)
(292.656 0 0)
(292.656 0 0)
(292.656 0 0)
(292.656 0 0)
(292.657 0 0)
(292.657 0 0)
(292.657 0 0)
(292.657 0 0)
(292.658 0 0)
(292.658 0 0)
(292.658 0 0)
(292.658 0 0)
(292.659 0 0)
(292.659 0 0)
(292.659 0 0)
(292.659 0 0)
(292.66 0 0)
(292.66 0 0)
(292.66 0 0)
(292.661 0 0)
(292.661 0 0)
(292.661 0 0)
(292.661 0 0)
(292.662 0 0)
(292.662 0 0)
(292.662 0 0)
(292.663 0 0)
(292.663 0 0)
(292.663 0 0)
(292.664 0 0)
(292.664 0 0)
(292.665 0 0)
(292.665 0 0)
(292.666 0 0)
(292.666 0 0)
(292.667 0 0)
(292.668 0 0)
(292.668 0 0)
(292.669 0 0)
(292.669 0 0)
(292.67 0 0)
(292.67 0 0)
(292.671 0 0)
(292.672 0 0)
(292.672 0 0)
(292.672 0 0)
(292.673 0 0)
(292.673 0 0)
(292.67 0 0)
(292.668 0 0)
(292.673 0 0)
(292.661 0 0)
(292.633 0 0)
(292.652 0 0)
(292.663 0 0)
(292.523 0 0)
(292.476 0 0)
(292.732 0 0)
(292.407 0 0)
(291.483 0 0)
(292.415 0 0)
(293.295 0 0)
(288.046 0 0)
(286.211 0 0)
(296.27 0 0)
(273.568 0 0)
(173.59 0 0)
(57.7311 0 0)
(11.4178 0 0)
(1.97115 0 0)
(0.326073 0 0)
(0.0538184 0 0)
(0.00889989 0 0)
(0.00147226 0 0)
(0.000243556 0 0)
(4.02915e-05 0 0)
(6.6654e-06 0 0)
(1.10265e-06 0 0)
(1.8241e-07 0 0)
(3.01749e-08 0 0)
(4.99066e-09 0 0)
(8.24261e-10 0 0)
(1.35224e-10 0 0)
(2.11127e-11 0 0)
(2.27562e-12 0 0)
(-8.02302e-13 0 0)
(-1.20102e-12 0 0)
(-1.12809e-12 0 0)
(-1.54139e-12 0 0)
(-1.42469e-12 0 0)
(-1.60947e-12 0 0)
(-1.25937e-12 0 0)
(-1.6435e-12 0 0)
(-1.56084e-12 0 0)
(-1.9158e-12 0 0)
(-1.76993e-12 0 0)
(-1.89149e-12 0 0)
(-2.13461e-12 0 0)
(-1.99846e-12 0 0)
(-2.20755e-12 0 0)
(-1.93525e-12 0 0)
(-2.29507e-12 0 0)
(-1.97415e-12 0 0)
(-2.15406e-12 0 0)
(-2.13947e-12 0 0)
(-2.12002e-12 0 0)
(-1.99846e-12 0 0)
(-2.0714e-12 0 0)
(-1.89635e-12 0 0)
(-1.81855e-12 0 0)
(-1.55598e-12 0 0)
(-1.39552e-12 0 0)
(-1.308e-12 0 0)
(-1.49763e-12 0 0)
(-1.69699e-12 0 0)
(-1.31286e-12 0 0)
(-1.45387e-12 0 0)
(-1.51708e-12 0 0)
(-1.75048e-12 0 0)
(-1.86231e-12 0 0)
(-1.91094e-12 0 0)
(-1.67754e-12 0 0)
(-1.63378e-12 0 0)
(-1.70672e-12 0 0)
(-1.98874e-12 0 0)
(-1.77479e-12 0 0)
(-2.13461e-12 0 0)
(-1.74075e-12 0 0)
(-1.98388e-12 0 0)
(-1.87204e-12 0 0)
(-1.92553e-12 0 0)
(-1.82341e-12 0 0)
(-1.61433e-12 0 0)
(-1.81369e-12 0 0)
(-1.49277e-12 0 0)
(-1.7602e-12 0 0)
(-1.90121e-12 0 0)
(-1.93039e-12 0 0)
(-1.99846e-12 0 0)
(-2.24645e-12 0 0)
(-2.19782e-12 0 0)
(-2.32911e-12 0 0)
(-1.85259e-12 0 0)
(-1.75048e-12 0 0)
(-1.25937e-12 0 0)
(-1.09891e-12 0 0)
(-8.12027e-13 0 0)
(-7.39091e-13 0 0)
(-2.43122e-13 0 0)
(-5.83493e-14 0 0)
(3.50096e-13 0 0)
(5.5918e-13 0 0)
(4.86244e-13 0 0)
(5.25143e-13 0 0)
(3.7927e-13 0 0)
(3.11196e-13 0 0)
(2.91746e-13 0 0)
(1.6046e-13 0 0)
(-1.45873e-13 0 0)
(2.86884e-13 0 0)
(9.23863e-14 0 0)
(2.91746e-13 0 0)
(-1.6046e-13 0 0)
(-1.45873e-13 0 0)
(-2.86884e-13 0 0)
(-4.91106e-13 0 0)
(-8.1689e-13 0 0)
(-1.02597e-12 0 0)
(-7.9744e-13 0 0)
(-1.12809e-12 0 0)
(-7.53678e-13 0 0)
(-8.84964e-13 0 0)
(-7.73128e-13 0 0)
(-7.68265e-13 0 0)
(-3.88995e-13 0 0)
(-7.19641e-13 0 0)
(-7.05054e-13 0 0)
(-3.11196e-13 0 0)
(-2.91746e-13 0 0)
(1.45873e-14 0 0)
(-4.81381e-13 0 0)
(-1.50736e-13 0 0)
(-9.72488e-14 0 0)
(3.93858e-13 0 0)
(-5.34868e-14 0 0)
(3.40371e-14 0 0)
(-4.86244e-13 0 0)
(-2.04222e-13 0 0)
(-5.20281e-13 0 0)
(-4.57069e-13 0 0)
(-7.39091e-13 0 0)
(-6.66154e-13 0 0)
(-9.38451e-13 0 0)
(-8.94689e-13 0 0)
(-1.06487e-12 0 0)
(-7.34228e-13 0 0)
(-1.00652e-12 0 0)
(-7.34228e-13 0 0)
(-7.63403e-13 0 0)
(-7.39091e-13 0 0)
(-1.00652e-12 0 0)
(-7.48816e-13 0 0)
(-7.82853e-13 0 0)
(-8.26615e-13 0 0)
(-4.57069e-13 0 0)
(-7.68265e-13 0 0)
(-4.42482e-13 0 0)
(-9.72488e-14 0 0)
(2.67434e-13 0 0)
(-2.43122e-14 0 0)
(-1.70185e-13 0 0)
(-4.3762e-13 0 0)
(-2.72297e-13 0 0)
(-7.29366e-14 0 0)
(-1.65323e-13 0 0)
(-3.20921e-13 0 0)
(-3.35508e-13 0 0)
(-5.20281e-13 0 0)
(-4.3762e-13 0 0)
(-6.07805e-13 0 0)
(-6.12667e-13 0 0)
(-1.27882e-12 0 0)
(-9.579e-13 0 0)
(-1.3469e-12 0 0)
(-8.99551e-13 0 0)
(-1.05515e-12 0 0)
(-7.48816e-13 0 0)
(-7.68265e-13 0 0)
(-1.0746e-12 0 0)
(-8.80101e-13 0 0)
(-1.06487e-12 0 0)
(-7.5854e-13 0 0)
(-4.76519e-13 0 0)
(-6.51567e-13 0 0)
(-5.20281e-13 0 0)
(-8.89826e-13 0 0)
(-8.36339e-13 0 0)
(-6.85604e-13 0 0)
(-7.34228e-13 0 0)
(-8.41202e-13 0 0)
(-8.31477e-13 0 0)
(-1.25937e-12 0 0)
(-1.38093e-12 0 0)
(-1.09405e-12 0 0)
(-1.12809e-12 0 0)
(-9.968e-13 0 0)
(-1.2302e-12 0 0)
(-1.12809e-12 0 0)
(-1.41983e-12 0 0)
(-1.27396e-12 0 0)
(-1.43442e-12 0 0)
(-1.3858e-12 0 0)
(-9.19001e-13 0 0)
(-9.87075e-13 0 0)
(-4.47344e-13 0 0)
(-3.40371e-13 0 0)
(-2.28535e-13 0 0)
(-2.91746e-13 0 0)
(-1.55598e-13 0 0)
(-1.65323e-13 0 0)
(-3.45233e-13 0 0)
(-3.45233e-13 0 0)
(-3.54958e-13 0 0)
(-2.33397e-13 0 0)
(-1.70185e-13 0 0)
(-3.16059e-13 0 0)
(-4.52207e-13 0 0)
(-7.09916e-13 0 0)
(-7.24503e-13 0 0)
(-9.09276e-13 0 0)
(-9.48176e-13 0 0)
(-7.63403e-13 0 0)
(-8.41202e-13 0 0)
(-1.16699e-12 0 0)
(-1.52681e-12 0 0)
(-1.49763e-12 0 0)
(-1.51708e-12 0 0)
(-1.04056e-12 0 0)
(-9.14139e-13 0 0)
(-7.05054e-13 0 0)
(-4.3762e-13 0 0)
(-3.9872e-13 0 0)
(-5.83493e-13 0 0)
(-6.02942e-13 0 0)
(-2.91746e-13 0 0)
(-1.45873e-13 0 0)
(-1.94498e-14 0 0)
(-3.54958e-13 0 0)
(-3.16059e-13 0 0)
(-5.10556e-13 0 0)
(-5.30006e-13 0 0)
(-7.14779e-13 0 0)
(-9.14139e-13 0 0)
(-1.13295e-12 0 0)
(-1.38093e-12 0 0)
(-1.55112e-12 0 0)
(-1.73589e-12 0 0)
(-1.53167e-12 0 0)
(-1.76993e-12 0 0)
(-1.69699e-12 0 0)
(-1.86231e-12 0 0)
(-2.13461e-12 0 0)
(-2.3826e-12 0 0)
(-2.68407e-12 0 0)
(-2.81049e-12 0 0)
(-2.91746e-12 0 0)
(-2.86398e-12 0 0)
(-2.227e-12 0 0)
(-2.20268e-12 0 0)
(-1.43442e-12 0 0)
(-1.53653e-12 0 0)
(-1.26423e-12 0 0)
(-1.67268e-12 0 0)
(-1.44414e-12 0 0)
(-1.50249e-12 0 0)
(-1.45387e-12 0 0)
(-1.53653e-12 0 0)
(-2.06654e-12 0 0)
(-1.45873e-12 0 0)
(-2.19296e-12 0 0)
(-1.93039e-12 0 0)
(-2.23672e-12 0 0)
(-1.49277e-12 0 0)
(-1.86231e-12 0 0)
(-1.3469e-12 0 0)
(-1.6824e-12 0 0)
(-1.3858e-12 0 0)
(-1.48791e-12 0 0)
(-1.33231e-12 0 0)
(-1.25937e-12 0 0)
(-1.08919e-12 0 0)
(-9.87075e-13 0 0)
(-8.41202e-13 0 0)
(-1.22047e-12 0 0)
(-1.09405e-12 0 0)
(-1.36635e-12 0 0)
(-7.87715e-13 0 0)
(-8.36339e-13 0 0)
(-5.15419e-13 0 0)
(-7.5854e-13 0 0)
(-6.66154e-13 0 0)
(-9.62763e-13 0 0)
(-8.75239e-13 0 0)
(-6.32117e-13 0 0)
(-6.27255e-13 0 0)
(-7.48816e-13 0 0)
(-8.46064e-13 0 0)
(-9.43313e-13 0 0)
)
;

boundaryField
{
    sides
    {
        type            calculated;
        value           nonuniform List<vector> 2((-9.43313e-13 0 0) (-2.37287e-12 0 0));
    }
    empty
    {
        type            empty;
    }
}


// ************************************************************************* //
