/*--------------------------------*- C++ -*----------------------------------*\
  =========                 |
  \\      /  F ield         | OpenFOAM: The Open Source CFD Toolbox
   \\    /   O peration     | Website:  https://openfoam.org
    \\  /    A nd           | Version:  13
     \\/     M anipulation  |
\*---------------------------------------------------------------------------*/
FoamFile
{
    format      ascii;
    class       volScalarField;
    location    "32.400683";
    object      omega;
}
// * * * * * * * * * * * * * * * * * * * * * * * * * * * * * * * * * * * * * //

dimensions      [0 0 -1 0 0 0 0];

internalField   nonuniform List<scalar> 
17140
(
4528389.9
731657.66
224626.36
95289.483
48487.718
27617.63
16960.868
10985.504
7400.0204
5136.0758
3649.0765
2641.4119
1941.1519
1444.3748
1085.8694
823.40955
628.91557
483.28459
373.26336
289.49924
225.29354
175.78582
137.40903
107.51911
84.139085
65.779839
51.313159
39.880987
30.830125
23.664787
18.011112
13.588346
10.182036
7.6174576
5.7375065
4.3931089
3.4479424
2.788257
2.3277148
2.0052781
1.7795484
1.6229266
1.5170074
1.4498193
1.4137281
1.4006711
1.4036626
1.4224613
1.4545532
1.4982398
1.5528872
1.6188103
1.6969013
1.7871293
1.8871906
1.9947737
2.1082148
2.2204824
2.3177034
2.3853016
2.4385522
2.5207915
2.6777263
2.8632851
2.8196883
4528420.9
731663.27
224628.42
95290.545
48488.356
27618.054
16961.17
10985.73
7400.1957
5136.2165
3649.1924
2641.5096
1941.236
1444.4488
1085.9356
823.4701
628.97189
483.33786
373.31452
289.549
225.34243
175.83417
137.45698
107.56663
84.185945
65.825636
51.357324
39.922818
30.868838
23.699594
18.041313
13.613444
10.201872
7.6323093
5.7480561
4.4002842
3.4527015
2.7914272
2.329936
2.0070119
1.7811274
1.6246014
1.5189778
1.4523616
1.4169643
1.4044952
1.4085823
1.4288506
1.4627478
1.508852
1.5668372
1.6374726
1.7222354
1.821422
1.9329884
2.0562425
2.1911472
2.3293378
2.449549
2.5236697
2.5597028
2.5770916
2.6030055
2.6542623
2.6016251
4528451.2
731668.24
224629.96
95291.203
48488.697
27618.253
16961.298
10985.818
7400.2613
5136.269
3649.2373
2641.5504
1941.2752
1444.4879
1085.9759
823.51237
629.01682
483.38593
373.36604
289.60414
225.40123
175.8965
137.52255
107.63496
84.256371
65.897292
51.429139
39.993525
30.93699
23.763605
18.099545
13.664373
10.24437
7.6659792
5.7734189
4.4186325
3.4656752
2.8005959
2.3365824
2.0120985
1.7853563
1.6284934
1.5229358
1.4568589
1.4223436
1.4107541
1.4163227
1.4386127
1.4751368
1.5247609
1.587577
1.6649785
1.7591388
1.870486
1.9975471
2.1424962
2.3078683
2.485343
2.6392672
2.727756
2.7535948
2.7267949
2.6473568
2.5711863
2.4761859
4528483
731673.42
224631.57
95291.891
48489.051
27618.461
16961.432
10985.913
7400.3333
5136.3279
3649.2891
2641.5989
1941.3227
1444.5364
1086.0266
823.56633
629.0748
483.4485
373.43365
289.67706
225.47956
175.98018
137.6113
107.72828
84.353521
65.99724
51.530563
40.094782
31.036108
23.858291
18.187263
13.742564
10.310891
7.7197012
5.8146521
4.4490107
3.4875293
2.8162708
2.3480434
2.0208423
1.7924824
1.6348157
1.5290772
1.4634735
1.4300755
1.4195562
1.4271532
1.4520865
1.4921673
1.5465785
1.6159543
1.7024903
1.8090606
1.9358723
2.0829447
2.2568975
2.463523
2.6931021
2.897062
3.0096899
3.0280574
2.9645027
2.806222
2.6224836
2.4875049
4528516.9
731678.92
224633.27
95292.612
48489.422
27618.68
16961.576
10986.015
7400.4128
5136.3947
3649.3493
2641.6564
1941.3803
1444.5959
1086.0896
823.63384
629.1477
483.52749
373.51921
289.76954
225.57913
176.08679
137.72469
107.84793
84.478606
66.126606
51.662672
40.227664
31.16731
23.984847
18.305754
13.849381
10.402827
7.7948135
5.872953
4.4924169
3.5190526
2.839056
2.3647795
2.0336007
1.8027941
1.6438205
1.5376678
1.4725854
1.4402288
1.4311623
1.4413411
1.469726
1.5144513
1.575137
1.6531192
1.7515812
1.8738457
2.0196169
2.192344
2.4048458
2.6673198
2.9693864
3.2438685
3.395745
3.4010135
3.2944874
3.0676412
2.8036805
2.6223604
4528552.1
731684.6
224635.01
95293.357
48489.809
27618.909
16961.727
10986.125
7400.4995
5136.4689
3649.4175
2641.7227
1941.4477
1444.6663
1086.1646
823.71466
629.2353
483.62263
373.62251
289.88139
225.69975
176.21619
137.86262
107.99386
84.631655
66.285512
51.825707
40.392558
31.33116
24.144044
18.456016
13.986036
10.521549
7.892739
5.9496685
4.5500208
3.5611953
2.8696943
2.3873647
2.0508229
1.8166555
1.6558169
1.5489722
1.4843835
1.4532093
1.4459553
1.4593639
1.492142
1.5428129
1.6115716
1.7006623
1.8143914
1.9558321
2.1246811
2.3307783
2.5949282
2.9336236
3.3362864
3.7104938
3.9231254
3.8993425
3.7329857
3.4262977
3.106305
2.9157869
4528588.7
731690.45
224636.8
95294.127
48490.212
27619.15
16961.886
10986.241
7400.5932
5136.5503
3649.4934
2641.7975
1941.5242
1444.7469
1086.2509
823.808
629.33675
483.73305
373.74258
290.01161
225.84042
176.36736
138.0241
108.16512
84.811815
66.473228
52.019107
40.589121
31.527582
24.336126
18.638646
14.153492
10.66833
8.0149423
6.0462818
4.6231707
3.6150874
2.9090874
2.4165065
2.07307
1.8345263
1.6712006
1.5633446
1.4991791
1.4694799
1.4644402
1.4818513
1.5201591
1.5783796
1.657464
1.7608336
1.8938152
2.0581153
2.2557732
2.5063114
2.8406024
3.2844689
3.8270945
4.3371714
4.6298245
4.5581184
4.2898916
3.8842973
3.4941082
3.2730858
4528626.6
731696.51
224638.65
95294.924
48490.631
27619.4
16962.054
10986.365
7400.6934
5136.6384
3649.5764
2641.8798
1941.6091
1444.8368
1086.3474
823.91264
629.45071
483.85729
373.87788
290.15856
225.9994
176.53854
138.20734
108.35995
85.017375
66.688164
52.241462
40.816194
31.755751
24.560676
18.853711
14.352334
10.844246
8.1628579
6.1643775
4.7133887
3.682052
2.9583181
2.4530698
2.1010374
1.8569851
1.6904832
1.5812822
1.5174956
1.4895204
1.4872818
1.5096519
1.5549117
1.622731
1.715081
1.8368747
1.993688
2.1852366
2.4205946
2.7316831
3.162536
3.7518893
4.4824029
5.1595025
5.521965
5.3627709
4.9289118
4.3985223
3.954853
3.6360496
4528664.7
731702.76
224640.58
95295.753
48491.063
27619.66
16962.229
10986.495
7400.7994
5136.7323
3649.6653
2641.9687
1941.7012
1444.9344
1086.4526
824.02689
629.5753
483.99331
374.02621
290.3199
226.17425
176.72714
138.40969
108.57568
85.245701
66.927782
52.490412
41.071685
32.013945
24.81646
19.100577
14.58261
11.050029
8.3377802
6.3055749
4.8223457
3.7636097
3.0186692
2.4981016
2.1355817
1.8847556
1.7143151
1.6034421
1.5400349
1.5139388
1.5154011
1.5439385
1.5979974
1.6781443
1.7877725
1.9334573
2.1190978
2.34457
2.631705
3.0269299
3.5921321
4.379244
5.330479
6.1171228
6.1459667
5.7377808
5.2202035
4.7009265
4.3076294
3.8941308
4528704.9
731709.27
224642.59
95296.614
48491.511
27619.93
16962.411
10986.631
7400.9106
5136.8311
3649.7592
2642.0627
1941.7987
1445.0381
1086.5644
824.14853
629.70811
484.13846
374.1847
290.49255
226.36168
176.92975
138.62759
108.80867
85.493132
67.18848
52.762507
41.352412
32.299382
25.101246
19.377713
14.843621
11.285869
8.5407011
6.4714173
4.9518056
3.8614651
3.0916367
2.5528573
2.1777523
1.9187387
1.7435043
1.6306666
1.5676719
1.5436843
1.5500655
1.5863716
1.6517324
1.748008
1.8806255
2.0570867
2.2774136
2.548658
2.9097487
3.4244299
4.1788385
5.2213955
6.3325781
6.5867923
6.3266728
5.4927643
4.8221124
4.4958905
4.2402259
3.7863942
4528746.8
731716.01
224644.67
95297.507
48491.978
27620.21
16962.6
10986.772
7401.0259
5136.9335
3649.8566
2642.1601
1941.8999
1445.1457
1086.6805
824.27486
629.84615
484.28949
374.34981
290.67269
226.55761
177.14204
138.85653
109.05425
85.754917
67.465506
53.053101
41.653962
32.608042
25.411587
19.682453
15.133675
11.551165
8.7720831
6.663199
5.1035201
3.9774635
3.1789283
2.6188246
2.2288315
1.9600704
1.7791124
1.6640131
1.6015207
1.5802547
1.5930276
1.6393722
1.7195822
1.8375368
2.0014022
2.2164603
2.4811011
2.8192413
3.2898637
3.9797495
5.0070207
6.3303121
6.9699047
6.712346
5.7311973
3.8591942
2.7051383
2.5533049
2.6549411
2.196669
4528789.6
731722.96
224646.82
95298.429
48492.461
27620.5
16962.795
10986.917
7401.1438
5137.0379
3649.9556
2642.259
1942.0024
1445.2545
1086.798
824.40267
629.98588
484.4425
374.51732
290.85576
226.75715
177.35878
139.091
109.30667
86.02514
67.75286
53.356223
41.970541
32.934481
25.742609
20.010737
15.449782
11.844208
9.0315531
6.8817096
5.279053
4.1134974
3.2824346
2.6977364
2.2903747
2.0101858
1.8225549
1.7048893
1.6431731
1.6257025
1.6469148
1.7066052
1.8069164
1.9550075
2.1613723
2.4242808
2.7523412
3.1950397
3.8352525
4.7950369
6.2175355
7.3335064
7.1711049
6.3095238
3.9206179
2.0320755
1.2802109
1.0315656
0.9991159
0.77339306
4528834.7
731730.23
224649.06
95299.387
48492.961
27620.799
16962.995
10987.065
7401.2634
5137.143
3650.0545
2642.3572
1942.1037
1445.3619
1086.9136
824.52838
630.12333
484.59312
374.68241
291.03651
226.95463
177.57392
139.32456
109.55916
86.296731
68.043278
53.664529
42.29487
33.271682
26.087796
20.356839
15.787331
12.1618
9.3175105
7.1268781
5.4795075
4.2713367
3.4041513
2.7915609
2.3642468
2.0708866
1.8756778
1.7552741
1.6949149
1.6830439
1.7157563
1.793841
1.9224252
2.1138244
2.375691
2.7024987
3.1338359
3.7484951
4.6666762
6.0667637
7.649327
7.7092644
7.0017401
4.6906918
2.1925031
1.1800934
0.75161728
0.54435864
0.47178338
0.35172134
4528880.1
731737.65
224651.35
95300.374
48493.477
27621.106
16963.199
10987.214
7401.3829
5137.2466
3650.151
2642.4521
1942.201
1445.4645
1087.0237
824.64801
630.25408
484.73648
374.83975
291.20913
227.14374
177.78065
139.5499
109.80395
86.561539
68.328276
53.96931
42.618162
33.610969
26.438832
20.713121
16.139742
12.498831
9.6266533
7.3973128
5.7051343
4.4523503
3.5460229
2.9024489
2.4526506
2.1444406
1.9409465
1.8179828
1.760155
1.7569378
1.805946
1.9105802
2.0807705
2.3352018
2.668313
3.0991647
3.7089052
4.6229514
6.0265202
7.9039167
8.26975
7.7152101
5.7524817
2.6165525
1.3192672
0.76670456
0.51789077
0.37915741
0.30629107
0.22867521
4528926.9
731745.31
224653.72
95301.396
48494.009
27621.422
16963.407
10987.364
7401.5006
5137.3471
3650.2429
2642.5413
1942.2915
1445.5591
1087.1248
824.75749
630.37359
484.86753
374.98377
291.36749
227.31778
177.97167
139.75916
110.0326
86.810569
68.598377
54.260692
42.930279
33.942129
26.785684
21.070063
16.498413
12.848107
9.9537027
7.6898616
5.9548342
4.6570869
3.7096718
3.0326139
2.5581371
2.2337071
2.021686
1.8970631
1.8443605
1.8549157
1.9280033
2.0732898
2.3082928
2.6518149
3.0918134
3.7109719
4.646949
6.1110627
8.2176649
8.811888
8.3736577
6.788641
3.1795936
1.5534435
0.86814954
0.55737389
0.40292706
0.30326882
0.24433
0.18698118
4528977.9
731753.51
224656.22
95302.46
48494.557
27621.745
16963.617
10987.513
7401.6156
5137.4427
3650.3283
2642.6224
1942.3723
1445.6426
1087.2132
824.85271
630.47724
484.98113
375.10874
291.50527
227.46979
178.13938
139.94405
110.23614
87.034173
68.84328
54.527785
43.21984
34.253439
27.116506
21.41601
16.852344
13.199844
10.290504
7.9986402
6.2253189
4.8846234
3.8959601
3.1841173
2.6836046
2.3423326
2.1224014
1.9986803
1.9565985
1.9887212
2.1009699
2.3121307
2.6533231
3.1227236
3.7579662
4.7366111
6.3017423
8.6382272
9.3870607
9.0069037
7.5676157
3.9037568
1.8945786
0.99574372
0.61159832
0.42768845
0.32635644
0.25271367
0.20646141
0.1629977
4529031.7
731762.02
224658.81
95303.564
48495.125
27622.076
16963.829
10987.66
7401.7258
5137.5315
3650.405
2642.6929
1942.4406
1445.7117
1087.2853
824.92953
630.56043
485.07212
375.20896
291.61613
227.59278
178.27607
140.09611
110.40533
87.22231
69.052144
54.75897
43.474513
34.531967
27.417942
21.737432
17.188131
13.541164
10.625669
8.3146556
6.5105398
5.131906
4.104445
3.3585812
2.832355
2.4752733
2.2501663
2.1329137
2.1113404
2.1794472
2.359783
2.6850565
3.1950636
3.8715371
4.9056422
6.5980859
9.1830758
10.027507
9.6724033
8.3119745
4.6963512
2.2298338
1.1200564
0.66545113
0.4549817
0.33831303
0.2637547
0.20599451
0.1707523
0.13926
4529085.9
731770.71
224661.48
95304.702
48495.708
27622.413
16964.041
10987.804
7401.8299
5137.6117
3650.4708
2642.7503
1942.4936
1445.7631
1087.3373
824.98387
630.61853
485.13533
375.2786
291.69358
227.67952
178.37372
140.20648
110.53041
87.364282
69.213298
54.941595
43.680676
34.763179
27.67467
22.018448
17.489783
13.856752
10.945275
8.6259763
6.8013125
5.3931284
4.3328039
3.556903
3.0082858
2.6396203
2.4161593
2.3169334
2.3331545
2.4675703
2.7724699
3.3031998
4.0649707
5.1780224
7.0211101
9.8478142
10.736377
10.382493
9.0407295
5.4403602
2.5430027
1.2820026
0.7475826
0.51006626
0.3783636
0.28751105
0.22564866
0.17956101
0.15265402
0.12839573
4529139.6
731779.58
224664.22
95305.862
48496.301
27622.753
16964.253
10987.943
7401.9265
5137.6817
3650.5239
2642.7925
1942.5289
1445.7942
1087.3663
825.01217
630.64751
485.1662
375.31255
291.73187
227.72357
178.42514
140.26714
110.60247
87.450195
69.31582
55.063671
43.825272
34.932977
27.871616
22.243156
17.740782
14.129739
11.23266
8.9172959
7.0849915
5.6593688
4.576529
3.7793098
3.2166751
2.8465672
2.6395312
2.5819059
2.6672193
2.9357407
3.474824
4.3351854
5.5697122
7.5839125
10.590455
11.505692
11.136673
9.7667332
6.136744
2.8920217
1.4637244
0.84290878
0.56629661
0.41056114
0.31093061
0.24442236
0.19877374
0.16284324
0.14018379
0.11928204
4529196.7
731788.85
224667.07
95307.068
48496.914
27623.101
16964.464
10988.078
7402.0147
5137.7405
3650.5629
2642.8178
1942.5444
1445.8026
1087.3693
825.01124
630.64373
485.16056
375.30602
291.7255
227.71858
178.423
140.26968
110.61197
87.469396
69.347975
55.112499
43.894793
35.027124
27.993595
22.395365
17.92401
14.342313
11.469879
9.1714638
7.3465707
5.9194084
4.8297597
4.0266931
3.4667332
3.1162147
2.9562293
2.9834564
3.2094644
3.7484302
4.7022539
6.0913152
8.2836797
11.418898
12.335113
11.940337
10.513233
6.802176
3.2596633
1.6633888
0.95088407
0.62920644
0.44933603
0.33762564
0.26474209
0.21236008
0.17432209
0.14409528
0.12594947
0.11112883
4529258.1
731798.62
224670.04
95308.322
48497.546
27623.454
16964.675
10988.207
7402.0939
5137.7867
3650.5864
2642.8246
1942.5384
1445.7862
1087.3442
824.9787
630.60463
485.11568
375.25615
291.67152
227.66155
178.36425
140.21087
110.55518
87.417187
69.303455
55.079363
43.877384
35.030588
28.024005
22.458105
18.022786
14.477609
11.640022
9.3721809
7.5717194
6.1629599
5.0888982
4.3052828
3.7785904
3.48892
3.4377479
3.6263334
4.1619874
5.2051196
6.7560538
9.1264352
12.327673
13.229328
12.801077
11.295749
7.4719804
3.6483642
1.8813274
1.0739715
0.70081565
0.49355979
0.3696618
0.29119807
0.23387099
0.18922064
0.15666396
0.13254111
0.11949505
0.10669208
4529319.5
731808.55
224673.09
95309.608
48498.192
27623.811
16964.883
10988.33
7402.1627
5137.8195
3650.5932
2642.8117
1942.5094
1445.7435
1087.2893
824.91254
630.52795
485.02907
375.16018
291.56688
227.54915
178.24534
140.08712
110.42876
87.290898
69.180752
54.964394
43.774934
34.945887
27.962427
22.425521
18.025632
14.523335
11.731927
9.509574
7.7532393
6.3882209
5.3617431
4.6385011
4.2001988
4.0516077
4.2059389
4.7487771
5.8810241
7.6033728
10.117916
13.313731
14.190802
13.723818
12.124758
8.1577605
4.072267
2.125462
1.2156877
0.78184724
0.5435143
0.40666719
0.31865713
0.25228162
0.20315211
0.16834872
0.14455402
0.12547774
0.11294425
0.10175997
4529381.2
731818.67
224676.21
95310.926
48498.851
27624.173
16965.089
10988.446
7402.2213
5137.8387
3650.5833
2642.7787
1942.4571
1445.6741
1087.2042
824.81249
630.41348
484.90055
375.018
291.41157
227.3815
178.0665
139.89872
110.23306
87.090883
68.980215
54.768013
43.588275
34.775331
27.815017
22.308747
17.947015
14.489826
11.752116
9.591246
7.9031935
6.6164553
5.6859319
5.0913785
4.8410739
4.9629529
5.5244329
6.7593744
8.6548765
11.256457
14.382072
15.222958
14.713229
13.00807
8.8716917
4.5565568
2.4179344
1.3785991
0.87079803
0.59982138
0.44778198
0.34796158
0.27371762
0.22191258
0.18458944
0.15584922
0.13356891
0.11626709
0.10680548
0.09822398
4529447.3
731829.36
224679.48
95312.293
48499.532
27624.542
16965.295
10988.556
7402.2708
5137.8454
3650.5579
2642.7273
1942.3834
1445.5802
1087.0914
824.68148
630.26461
484.73407
374.8342
291.21088
227.16464
177.8346
139.65348
109.97687
86.826953
68.712745
54.502273
43.330677
34.533442
27.597494
22.125198
17.807815
14.405937
11.735042
9.6559173
8.0707375
6.9153199
6.1596242
5.8107572
5.9080591
6.5045379
7.8404874
9.9107526
12.541032
15.537034
16.330981
15.774318
13.950331
9.6244706
5.1048304
2.7417732
1.5451494
0.96045786
0.6625071
0.4951404
0.38120529
0.29919463
0.24204926
0.19952766
0.16640096
0.14141541
0.12400033
0.11146406
0.10389839
0.095881635
4529517.1
731840.53
224682.9
95313.723
48500.24
27624.924
16965.505
10988.665
7402.3148
5137.8437
3650.5214
2642.6626
1942.2941
1445.4685
1086.9585
824.52809
630.09109
484.54067
374.6212
290.97877
226.9142
177.5671
139.3708
109.68166
86.522843
68.40446
54.195833
43.033539
34.254611
27.347597
21.916524
17.654427
14.323981
11.743458
9.7866471
8.364124
7.4286754
6.978355
7.0544327
7.693929
9.1368163
11.35451
13.981035
16.793359
17.521126
16.912157
14.958119
10.415652
5.7159601
3.0935828
1.7267181
1.0687811
0.74361484
0.55201365
0.41948749
0.32766828
0.26431865
0.21615128
0.17977359
0.15276051
0.1334502
0.11898401
0.10724311
0.099807964
0.093040516
4529588.1
731851.96
224686.4
95315.2
48500.97
27625.317
16965.721
10988.777
7402.3589
5137.8404
3650.4821
2642.5939
1942.2
1445.3514
1086.8197
824.36845
629.91112
484.34078
374.40189
290.74073
226.65852
177.29536
139.08527
109.38548
86.220198
68.100825
53.898198
42.750664
33.997326
27.129178
21.75297
17.564309
14.334888
11.897569
10.133347
8.9727402
8.3976555
8.4403631
9.1039594
10.636712
12.976832
15.60823
18.186219
18.799912
18.131964
16.034032
11.261366
6.3824062
3.4778142
1.9312816
1.1977701
0.83365423
0.60955484
0.45777511
0.35897215
0.28891616
0.23529018
0.19474304
0.16528912
0.14294753
0.12553653
0.1119419
0.1025469
0.09688612
0.091356968
4529661.3
731863.83
224690.03
95316.73
48501.731
27625.729
16965.95
10988.9
7402.4135
5137.8477
3650.454
2642.5375
1942.1196
1445.2498
1086.6986
824.22901
629.75423
484.16729
374.21272
290.53708
226.44197
177.06808
138.85017
109.14644
85.982273
67.870567
53.683936
42.56281
33.848567
27.03669
21.740687
17.669584
14.603476
12.386665
10.921235
10.165846
10.136335
10.793416
12.355737
14.756244
17.466761
19.765464
20.190731
19.434759
17.179572
12.163019
7.1091709
3.9067845
2.1681084
1.3454105
0.93199523
0.67315553
0.50647824
0.39879281
0.31915779
0.25715531
0.21198471
0.17850866
0.15302956
0.1328165
0.1181955
0.10806249
0.10036969
0.095082941
0.089710071
4529737.4
731876.13
224693.82
95318.319
48502.526
27626.168
16966.202
10989.044
7402.4905
5137.8793
3650.453
2642.5116
1942.0738
1445.1874
1086.6219
824.13977
629.65402
484.05759
374.09518
290.41361
226.31491
176.94038
138.72559
109.02981
85.879875
67.790634
53.637453
42.564873
33.920859
27.20735
22.047362
18.159029
15.338398
13.450667
12.423265
12.239769
12.839752
14.355608
16.733583
19.500472
21.599351
21.727683
20.838213
18.365088
13.130295
7.9013497
4.3831724
2.432784
1.5062202
1.0364479
0.74686048
0.56348716
0.44187947
0.34892504
0.28054757
0.23106636
0.19403699
0.16462508
0.14256548
0.12637858
0.11445542
0.10455254
0.097186178
0.092430872
0.0882239
4529816
731888.84
224697.73
95319.975
48503.363
27626.638
16966.484
10989.219
7402.6006
5137.9476
3650.4933
2642.5325
1942.0812
1445.1852
1086.6133
824.12748
629.64045
484.0452
374.08666
290.41206
226.32412
176.965
138.7715
109.1045
85.99299
67.954684
53.868841
42.885222
34.358523
27.800694
22.846176
19.228548
16.763611
15.337346
14.900833
15.355189
16.720027
18.995589
21.701
23.626716
23.46025
22.368285
19.559632
14.169621
8.7560752
4.9037676
2.7248679
1.6832377
1.1560707
0.83503148
0.63119954
0.48901577
0.38426254
0.30988453
0.25544468
0.21162104
0.17819129
0.15325758
0.1350907
0.12026812
0.10883705
0.10067299
0.095076029
0.091221425
0.087269143
4529897.8
731902.1
224701.79
95321.705
48504.247
27627.147
16966.803
10989.433
7402.7528
5138.0631
3650.587
2642.6142
1942.1576
1445.2615
1086.6937
824.21583
629.74045
484.16077
374.2221
290.5723
226.51494
177.19342
139.04611
109.43606
86.39522
68.445357
54.471423
43.630317
35.285718
28.960977
24.305101
21.068415
19.085611
18.254806
18.471278
19.561316
21.615821
24.154853
25.840296
25.389169
24.043052
20.813377
15.284835
9.664462
5.4661524
3.0473125
1.8829071
1.2925459
0.93564259
0.70410339
0.54105892
0.42387016
0.34343072
0.28055496
0.2309024
0.19340564
0.16616489
0.14438263
0.12737308
0.11460641
0.10580316
0.098876242
0.093503036
0.089511499
0.0862336
4529983.7
731915.9
224706.02
95323.513
48505.179
27627.693
16967.157
10989.683
7402.9453
5138.224
3650.7325
2642.755
1942.3016
1445.4151
1086.8625
824.40501
629.95541
484.40726
374.50656
290.90216
226.89897
177.64216
139.5725
110.05618
87.129591
69.31975
55.518347
44.890949
36.811865
30.817139
26.569647
23.831884
22.44156
22.283903
23.008193
24.701244
26.86684
28.220649
27.602601
25.889899
22.124246
16.44763
10.604426
6.0643242
3.4050425
2.1083107
1.4462112
1.0463898
0.78553919
0.60185473
0.47294152
0.38112937
0.31005546
0.25406759
0.21294967
0.18042236
0.15532161
0.1357829
0.1222841
0.11138811
0.10280835
0.096026927
0.091472843
0.0883438
0.085496037
4530071.7
731930.11
224710.41
95325.389
48506.154
27628.273
16967.541
10989.964
7403.1713
5138.4227
3650.9213
2642.9459
1942.504
1445.6366
1087.1103
824.68634
630.27776
484.77895
374.93706
291.40248
227.48219
178.32399
140.37209
110.99696
88.24014
70.635417
57.082417
46.756201
39.041608
33.484394
29.752666
27.602745
26.845286
27.177818
28.319404
29.989759
30.737431
29.877424
27.792328
23.56948
17.675596
11.57845
6.7098717
3.809967
2.366071
1.6176546
1.1698374
0.87787314
0.67401762
0.52864322
0.42297973
0.34139839
0.28129346
0.23404664
0.19699908
0.16789098
0.14675861
0.13034995
0.11716914
0.10666974
0.099622943
0.094314976
0.090424013
0.087376661
0.084811297
4530163.2
731944.94
224714.97
95327.343
48507.178
27628.892
16967.963
10990.284
7403.4408
5138.6705
3651.1664
2643.2021
1942.7819
1445.9459
1087.4601
825.08589
630.73733
485.30996
375.55266
292.11809
228.31609
179.29809
141.51268
112.33579
89.815331
72.492495
59.274873
49.345275
42.093325
37.061864
33.900335
32.319169
32.049409
32.518282
33.593707
33.426844
32.266953
29.708133
25.04953
18.887533
12.523444
7.3815822
4.2561341
2.6516413
1.805333
1.3055367
0.98303923
0.75591684
0.59178528
0.46986326
0.37931161
0.31226012
0.25984787
0.21628152
0.18395659
0.15855396
0.13944025
0.12364253
0.11272496
0.10447431
0.098139258
0.092827128
0.089077996
0.086331154
0.084146545
4530257.7
731960.23
224719.69
95329.387
48508.266
27629.566
16968.439
10990.664
7403.7759
5138.9932
3651.4976
2643.5573
1943.1738
1446.3862
1087.9603
825.65812
631.3949
486.06799
376.42864
293.13259
229.49351
180.66749
143.10877
114.19976
91.995535
75.041181
62.23867
52.782199
46.05019
41.556336
38.891629
37.658836
37.450771
37.343178
36.469622
34.599002
31.545028
26.499497
20.073622
13.482188
8.1314209
4.7835918
2.9891778
2.0223424
1.461838
1.1038359
0.85020988
0.66356643
0.52588801
0.42356298
0.34788221
0.28709006
0.23948643
0.2015604
0.17292572
0.14985729
0.13290962
0.11987065
0.11000951
0.10147042
0.095537036
0.091118696
0.088067633
0.085715574
0.08373056
4530355.2
731976.03
224724.58
95331.529
48509.43
27630.31
16968.988
10991.122
7404.2008
5139.4186
3651.9469
2644.0482
1943.7215
1447.0047
1088.6641
826.46271
632.31733
487.12784
377.64868
294.53965
231.11945
182.55032
145.29298
116.73359
94.924597
78.398725
66.057752
57.091604
50.840193
46.751792
44.334784
42.968157
41.664939
39.689549
37.185161
33.511263
28.023587
21.306153
14.519077
8.9781804
5.3782226
3.355463
2.2508198
1.627485
1.2347836
0.95375668
0.74547693
0.59028866
0.47505508
0.3869903
0.31883266
0.26570193
0.2241967
0.18937433
0.1636003
0.1430167
0.12801542
0.11512331
0.10607202
0.099136327
0.094298018
0.090195066
0.087263489
0.084940384
0.083143185
4530457.6
731992.58
224729.72
95333.792
48510.682
27631.135
16969.621
10991.675
7404.7334
5139.9679
3652.5384
2644.7022
1944.4558
1447.8365
1089.611
827.54381
633.55401
488.54457
379.27382
296.40583
233.26359
185.01253
148.1147
119.95717
98.5906
82.541327
70.675926
62.109779
56.138934
52.070363
49.113199
46.364193
43.377578
40.110701
35.660342
29.64056
22.610757
15.641636
9.9070378
6.0327566
3.7650253
2.5181128
1.8277167
1.3928413
1.077958
0.84306066
0.66740634
0.53448764
0.43363792
0.35572347
0.29693973
0.24877226
0.20990381
0.17848097
0.15558506
0.13671682
0.12282431
0.11210599
0.10432173
0.097638866
0.092732809
0.088939419
0.086297685
0.084386157
0.082800196
4530563.2
732009.72
224735.08
95336.176
48512.025
27632.05
16970.351
10992.336
7405.389
5140.658
3653.2914
2645.5407
1945.4004
1448.907
1090.8278
828.92899
635.13169
490.34118
381.31813
298.72883
235.89759
187.98947
151.46288
123.69489
102.71917
87.039818
75.461099
66.997892
60.768792
55.888885
51.63248
47.611957
43.396921
38.039546
31.426965
24.068652
16.904796
10.954963
6.7862342
4.2531783
2.8396526
2.0561827
1.5622875
1.2087933
0.9480071
0.7519107
0.6020242
0.48687057
0.39938563
0.3310986
0.27701343
0.23284023
0.19837195
0.1697254
0.14883691
0.13166235
0.11956357
0.10881955
0.10134275
0.095391942
0.091421246
0.088117164
0.08582654
0.083921161
0.082384233
4530672.5
732027.47
224740.63
95338.675
48513.459
27633.052
16971.175
10993.102
7406.1645
5141.4849
3654.2003
2646.5564
1946.5452
1450.2024
1092.296
830.59267
637.01515
492.46987
383.71803
301.42471
238.90995
191.32954
155.12492
127.64511
106.88069
91.273724
79.584973
70.709155
63.691364
57.809372
52.484254
47.031559
40.700709
33.45914
25.742701
18.346504
12.142771
7.6543688
4.8255997
3.2097761
2.3077674
1.749312
1.3616721
1.0767322
0.85708715
0.68548898
0.55292355
0.45080735
0.37206768
0.30927856
0.26090865
0.22075235
0.18827178
0.16173888
0.14294193
0.12699083
0.11540414
0.10630117
0.10004543
0.094420116
0.09049838
0.087320579
0.085097795
0.083432149
0.08209516
4530784.7
732045.8
224746.39
95341.285
48514.977
27634.13
16972.076
10993.951
7407.0314
5142.4143
3655.2242
2647.7013
1947.8344
1451.6585
1093.9413
832.4499
639.1069
494.81771
386.34028
304.33345
242.10613
194.79586
158.81636
131.47728
110.71734
94.91517
82.757897
73.159433
65.214818
58.213123
51.284128
43.863711
35.903541
27.746991
20.044939
13.530158
8.6847799
5.5186015
3.6556764
2.6060374
1.9713504
1.54204
1.2232739
0.97262292
0.77633481
0.62535982
0.50890072
0.41806433
0.34765567
0.29157536
0.24674988
0.20888083
0.17943121
0.15518906
0.13784446
0.12316367
0.11314996
0.10407334
0.097780286
0.092672968
0.08931189
0.086461313
0.08455149
0.083060307
0.081758107
4530901
732061.37
224749.49
95341.786
48514.937
27634.038
16972.08
10994.105
7407.3548
5142.9194
3655.9203
2648.5975
1948.9412
1452.9877
1095.5054
834.26157
641.17718
497.1538
388.94225
307.18919
245.18493
198.04051
162.13456
134.73412
113.73184
97.46597
84.600197
74.090193
64.96516
56.304672
47.636821
38.841271
30.144749
22.054312
15.167181
9.9169161
6.3616433
4.1953117
2.9582636
2.2250938
1.7418463
1.3848302
1.1050713
0.88680733
0.71660989
0.58241085
0.4765886
0.39362684
0.32883329
0.27599066
0.23465476
0.19990554
0.17216964
0.14932162
0.1335361
0.11969888
0.10984481
0.10195116
0.096787991
0.091956191
0.088783705
0.086058366
0.084210135
0.082714874
0.081532898
4531685.4
732195.45
224794.63
95363.181
48527.086
27641.829
16977.551
10998.238
7410.6821
5145.7515
3658.4531
2650.9621
1951.2295
1455.267
1097.8259
836.65985
643.67767
499.76771
391.66489
309.99557
248.02418
200.82998
164.7553
137.03051
115.51842
98.557739
84.771035
72.956823
62.241383
52.083054
42.259117
32.869698
24.27864
16.95729
11.272297
7.3062744
4.8066519
3.3561344
2.5072677
1.9624143
1.5668701
1.2584631
1.0142464
0.81857376
0.66215325
0.53956027
0.44405944
0.36895399
0.30993204
0.26209791
0.22378343
0.19062281
0.16506482
0.14408046
0.12937313
0.11655092
0.10815575
0.10040294
0.094949505
0.090541489
0.087727107
0.08526662
0.083665936
0.082323886
0.081334566
4531684.6
732191.77
224791.66
95361.008
48525.611
27640.86
16976.957
10997.944
7410.6408
5145.936
3658.8476
2651.5581
1952.0228
1456.2551
1099.0054
838.02428
645.21343
501.45019
393.45346
311.82812
249.81191
202.45379
166.06677
137.86445
115.66287
97.707897
82.646273
69.47436
57.513275
46.41031
36.128328
26.886907
19.032922
12.857262
8.4368146
5.5559527
3.844309
2.8422871
2.2149603
1.7722121
1.4300613
1.1556997
0.93369333
0.75685549
0.61791281
0.50804358
0.42034891
0.35062446
0.29561072
0.24996664
0.21402116
0.18339072
0.1594052
0.13941412
0.1259962
0.11386991
0.10538509
0.098348204
0.094118721
0.089940024
0.087274985
0.084926011
0.083421258
0.08207511
0.081174028
4531684.8
732191.89
224791.78
95361.171
48525.824
27641.126
16977.283
10998.335
7411.1045
5146.4786
3659.4752
2652.2762
1952.8351
1457.1621
1100.003
839.10085
646.34708
502.60499
394.57564
312.84302
250.62346
202.93689
166.05802
137.13849
114.00558
94.99143
78.845272
64.689322
51.996675
40.563445
30.447959
21.861687
15.018169
9.9827246
6.5817864
4.49177
3.2603362
2.5139074
2.0107749
1.6302373
1.324128
1.0746504
0.87353795
0.71183918
0.58166387
0.47821242
0.39671294
0.3322688
0.28129148
0.23934587
0.2059112
0.17644769
0.15398337
0.13536863
0.12271904
0.11131816
0.10406268
0.097452724
0.092839094
0.088821639
0.086459314
0.084296155
0.082954927
0.081768824
0.080993382
4531684.9
732191.97
224791.84
95361.25
48525.926
27641.256
16977.444
10998.532
7411.3404
5146.757
3659.7989
2652.6462
1953.2498
1457.616
1100.4844
839.58978
646.81217
503
394.83527
312.87744
250.30957
202.12858
164.60326
134.91665
110.93295
91.051764
74.12111
59.38354
46.429518
35.133562
25.557652
17.826366
11.994366
7.9233784
5.3343889
3.7928677
2.8821548
2.2963085
1.8664053
1.5225017
1.2404127
1.0096255
0.82179877
0.67083516
0.55119643
0.45633941
0.38028518
0.31940393
0.27116189
0.23065442
0.19884288
0.17122682
0.14999492
0.13201788
0.12030266
0.10949204
0.10207468
0.095796358
0.091947547
0.088432252
0.086165539
0.084071735
0.082788129
0.081619035
0.080874654
4531686.1
732192.08
224791.86
95361.244
48525.919
27641.25
16977.441
10998.534
7411.3483
5146.7714
3659.8191
2652.6691
1953.2689
1457.6195
1100.4531
839.49441
646.61043
502.63397
394.22975
311.94126
248.94308
200.22883
162.07693
131.69924
107.01287
86.494576
69.0861
54.123227
41.264121
30.39994
21.542323
14.703392
9.7820093
6.5303041
4.5401935
3.3665264
2.6429013
2.1407187
1.7517387
1.4342454
1.1719408
0.95628279
0.78129471
0.64016811
0.52628097
0.43525311