/*--------------------------------*- C++ -*----------------------------------*\
  =========                 |
  \\      /  F ield         | OpenFOAM: The Open Source CFD Toolbox
   \\    /   O peration     | Website:  https://openfoam.org
    \\  /    A nd           | Version:  13
     \\/     M anipulation  |
\*---------------------------------------------------------------------------*/
FoamFile
{
    format      ascii;
    class       volScalarField;
    location    "47.897469";
    object      k;
}
// * * * * * * * * * * * * * * * * * * * * * * * * * * * * * * * * * * * * * //

dimensions      [0 2 -2 0 0 0 0];

internalField   nonuniform List<scalar> 
17140
(
7.3586522e-12
2.3123443e-10
1.8908812e-09
8.1320422e-09
2.5025411e-08
6.3154075e-08
1.4005693e-07
2.8388404e-07
5.387995e-07
9.7290723e-07
1.6898094e-06
2.8453757e-06
4.6719568e-06
7.5131894e-06
1.1873789e-05
1.8490436e-05
2.8432116e-05
4.3241211e-05
6.513021e-05
9.7252964e-05
0.00014407306
0.00021185337
0.00030928545
0.00044825688
0.00064470066
0.00091935329
0.0012980197
0.0018105547
0.0024872574
0.0033511209
0.0044055463
0.0056215097
0.0069346984
0.0082623782
0.0095331223
0.010707449
0.01177811
0.012758726
0.013672574
0.014546607
0.015409086
0.016289422
0.017219225
0.018232385
0.019363383
0.020647966
0.02212462
0.023831558
0.025804756
0.028073835
0.030655028
0.033534991
0.036653421
0.039909449
0.043158173
0.045992989
0.047437269
0.045769736
0.037437859
0.021555204
0.012336657
0.020776864
0.050348617
0.050745543
0.020144554
7.4318331e-12
2.3353405e-10
1.9096912e-09
8.2129866e-09
2.5274741e-08
6.3784058e-08
1.4145616e-07
2.8672523e-07
5.4420296e-07
9.826865e-07
1.7068373e-06
2.874126e-06
4.7193007e-06
7.5895592e-06
1.1994868e-05
1.86796e-05
2.8723928e-05
4.3686391e-05
6.5802628e-05
9.8259333e-05
0.00014556615
0.00021404949
0.00031248679
0.00045287808
0.00065129687
0.00092864208
0.0013108802
0.0018279724
0.0025101696
0.0033801128
0.0044404139
0.0056608811
0.0069761008
0.0083029533
0.0095705458
0.010740355
0.011805891
0.012781045
0.013689312
0.014557434
0.015413241
0.01628572
0.017206023
0.018207507
0.019324127
0.020591268
0.022047048
0.023729485
0.025674754
0.027914307
0.030470235
0.033343942
0.036506666
0.039921249
0.04358295
0.04739934
0.050563538
0.051448569
0.047174269
0.035156433
0.025197964
0.033853828
0.053040025
0.042952103
0.018362275
7.452021e-12
2.3416841e-10
1.9148788e-09
8.2353076e-09
2.534351e-08
6.3957934e-08
1.418428e-07
2.8751158e-07
5.457015e-07
9.8540513e-07
1.7115842e-06
2.8821657e-06
4.7325854e-06
7.6110679e-06
1.2029104e-05
1.8733307e-05
2.8807133e-05
4.3813874e-05
6.5995997e-05
9.8549884e-05
0.00014599871
0.00021468741
0.00031341795
0.00045422149
0.00065320802
0.00093131355
0.0013145299
0.0018328082
0.0025163097
0.0033874471
0.0044484223
0.0056685015
0.0069818102
0.0083051428
0.0095679601
0.010732256
0.0117919
0.012760896
0.013662501
0.014523143
0.015370287
0.016232472
0.01714032
0.018126454
0.019224089
0.020467958
0.021895474
0.023544096
0.025449914
0.027645944
0.030160041
0.033009011
0.036201259
0.039777164
0.043863481
0.048615476
0.053879684
0.057544329
0.05737355
0.049218828
0.039964585
0.045461439
0.053768147
0.039243535
0.021731585
7.4130881e-12
2.32945e-10
1.9048747e-09
8.1922922e-09
2.5211205e-08
6.3624346e-08
1.4110392e-07
2.860163e-07
5.4286895e-07
9.8030185e-07
1.7027431e-06
2.867321e-06
4.7082879e-06
7.5721291e-06
1.1967797e-05
1.8638226e-05
2.8661567e-05
4.3593515e-05
6.5665715e-05
9.8059219e-05
0.00014527564
0.0002136298
0.00031188206
0.00045200685
0.00065003839
0.0009268146
0.0013082068
0.0018240301
0.0025043159
0.0033713934
0.0044274757
0.0056419599
0.0069491883
0.0082661709
0.0095225068
0.010680219
0.01173309
0.012694922
0.013588644
0.01444029
0.015276856
0.016126341
0.017018734
0.017985769
0.019059675
0.020274239
0.021665775
0.023270718
0.025124607
0.027261561
0.029714709
0.032516023
0.035713211
0.039426151
0.043913016
0.049618825
0.056657582
0.0638756
0.067691748
0.063711102
0.054319833
0.054119054
0.054656807
0.041431398
0.026090418
7.3110786e-12
2.2973951e-10
1.8786627e-09
8.0795712e-09
2.4864384e-08
6.2749373e-08
1.3916431e-07
2.82087e-07
5.3541622e-07
9.6685482e-07
1.6794079e-06
2.8280671e-06
4.6439062e-06
7.4687212e-06
1.1804595e-05
1.8384466e-05
2.8272032e-05
4.3002223e-05
6.4777042e-05
9.673556e-05
0.00014332044
0.00021076467
0.00030771669
0.00044600095
0.00064145694
0.00091468153
0.0012912713
0.0018007738
0.0024730491
0.0033304948
0.0043757806
0.0055791515
0.0068758824
0.0081835106
0.0094315433
0.010581521
0.01162667
0.012580299
0.013464872
0.014305944
0.015129968
0.015964313
0.016838219
0.017782353
0.018827699
0.020006767
0.021354315
0.022905195
0.024693744
0.026754415
0.029124414
0.031849559
0.035016044
0.038818806
0.043642652
0.050066224
0.05881508
0.06927649
0.077674235
0.079033725
0.069659542
0.063605198
0.058478469
0.049532117
0.02922095
7.1440858e-12
2.2449202e-10
1.8357525e-09
7.8950355e-09
2.4296548e-08
6.1316609e-08
1.3598757e-07
2.7564985e-07
5.2320299e-07
9.4481041e-07
1.6411376e-06
2.7636602e-06
4.5382174e-06
7.2988748e-06
1.1536382e-05
1.796717e-05
2.7631052e-05
4.2028611e-05
6.3312814e-05
9.4553256e-05
0.00014009509
0.00020603608
0.00030084006
0.0004360851
0.00062729253
0.00089466932
0.0012633752
0.0017625491
0.0024218278
0.0032638205
0.0042921005
0.0054785003
0.0067599925
0.0080550068
0.0092927467
0.010433738
0.011470159
0.012414507
0.013288628
0.014117517
0.014927008
0.015743755
0.016596129
0.017513542
0.018525455
0.019662739
0.020958086
0.022444108
0.024153128
0.026118817
0.02838046
0.030995766
0.034084764
0.037901887
0.042932871
0.049922896
0.059693167
0.072308359
0.086106169
0.092543906
0.086351597
0.076900287
0.068768032
0.058818403
0.030656657
6.9123345e-12
2.1720961e-10
1.7762021e-09
7.6389337e-09
2.3508461e-08
5.9327962e-08
1.3157788e-07
2.6671318e-07
5.0624485e-07
9.1419617e-07
1.5879789e-06
2.6741768e-06
4.3913431e-06
7.0627786e-06
1.1163443e-05
1.7386762e-05
2.6739238e-05
4.0673546e-05
6.1274217e-05
9.1513864e-05
0.00013560151
0.0001994461
0.00029125385
0.00042225916
0.00060754008
0.00086676136
0.0012244775
0.0017092659
0.0023504685
0.0031710243
0.0041758333
0.0053390584
0.0066001885
0.0078789952
0.0091042214
0.010234845
0.011261462
0.012195417
0.013057761
0.013872838
0.014665803
0.015462506
0.01629031
0.017177198
0.018150828
0.01924004
0.020474907
0.021885093
0.023499992
0.025351117
0.027477476
0.029947293
0.032904539
0.036638492
0.041693724
0.048910713
0.059353477
0.072930953
0.090039465
0.10226315
0.10097725
0.092455796
0.0840932
0.065022248
0.028161675
6.6182179e-12
2.0796745e-10
1.7006261e-09
7.3139088e-09
2.2508254e-08
5.6803943e-08
1.259807e-07
2.5536902e-07
4.8471622e-07
8.7532659e-07
1.5204771e-06
2.5605332e-06
4.2047841e-06
6.7628392e-06
1.0689569e-05
1.6649118e-05
2.5605581e-05
3.895061e-05
5.8681537e-05
8.7647345e-05
0.00012988343
0.00019105785
0.00027904785
0.00040464872
0.00058237146
0.00083118604
0.0011748688
0.0016412701
0.0022593398
0.0030524208
0.0040271128
0.0051606282
0.0063958396
0.0076544242
0.008864607
0.0099833013
0.010998956
0.011921373
0.012770601
0.013570237
0.014344696
0.015118953
0.01591918
0.016771803
0.017702403
0.018737384
0.019903646
0.021227215
0.0227337
0.024451062
0.026416985
0.028709645
0.031480572
0.035023645
0.039879623
0.046847918
0.057025902
0.07039494
0.089261862
0.10550389
0.10909978
0.1038048
0.093519342
0.062577061
0.021833571
6.266375e-12
1.9691131e-10
1.6102159e-09
6.9250844e-09
2.1311697e-08
5.3784344e-08
1.1928423e-07
2.4179613e-07
4.5895625e-07
8.2881377e-07
1.4396946e-06
2.4245173e-06
3.9814733e-06
6.4037675e-06
1.0122194e-05
1.5765793e-05
2.42478e-05
3.6886659e-05
5.5575034e-05
8.3013435e-05
0.00012302861
0.00018099881
0.00026440515
0.00038351316
0.0005521481
0.00078843609
0.0011152014
0.0015593898
0.0021494294
0.0029090816
0.0038469367
0.004943916
0.0061471756
0.0073810054
0.0085732054
0.0096781646
0.010681582
0.011591271
0.012426036
0.013208606
0.013962597
0.014712067
0.015481843
0.016296546
0.017179567
0.018154455
0.019244453
0.020471399
0.021856581
0.023423699
0.025212421
0.027307456
0.029849224
0.033105077
0.03751544
0.043573173
0.052000554
0.06297135
0.080961249
0.099445588
0.10646507
0.10294307
0.090519515
0.04828331
0.013097062
5.8637122e-12
1.8425824e-10
1.5067472e-09
6.4800971e-09
1.9942288e-08
5.032846e-08
1.1161998e-07
2.2626105e-07
4.2947077e-07
7.7557101e-07
1.3472176e-06
2.2687989e-06
3.725793e-06
5.9926073e-06
9.4724408e-06
1.4754089e-05
2.2692462e-05
3.4522005e-05
5.2015237e-05
7.7702116e-05
0.00011516949
0.00016946206
0.00024760418
0.00035924915
0.00051742675
0.00073927859
0.0010465062
0.0014649635
0.0020223921
0.0027429111
0.0036372798
0.0046906826
0.005855461
0.0070593823
0.0082301259
0.0093192016
0.010308938
0.01120465
0.012023597
0.0127875
0.0135191
0.014241465
0.014978028
0.015751395
0.01658258
0.017492019
0.018498973
0.019620877
0.020874838
0.022282479
0.02389339
0.025788241
0.028085392
0.030988125
0.034645468
0.038701673
0.042682177
0.047950366
0.061034681
0.079066511
0.088196143
0.085835942
0.068285102
0.022608786
0.0060012908
5.4192912e-12
1.7029298e-10
1.3925482e-09
5.9889602e-09
1.843084e-08
4.6514058e-08
1.0316044e-07
2.0911338e-07
3.9692337e-07
7.1679656e-07
1.2451272e-06
2.0968826e-06
3.4434969e-06
5.5386097e-06
8.7549254e-06
1.3636753e-05
2.0974507e-05
3.1909713e-05
4.8081896e-05
7.1832083e-05
0.0001064811
0.00015670322
0.00022901454
0.00033238507
0.00047895281
0.00068474748
0.0009701861
0.0013598389
0.0018805614
0.0025566855
0.0034011754
0.0044038782
0.0055231714
0.0066913179
0.0078364496
0.0089070204
0.0098813795
0.01076176
0.011563511
0.012307161
0.013014491
0.013707504
0.014408175
0.015137065
0.015912592
0.016751984
0.017670509
0.018681588
0.019799539
0.021053293
0.022504939
0.024220245
0.0262907
0.028761545
0.030978483
0.030980263
0.027351504
0.022985964
0.026052197
0.037463979
0.047113793
0.045319742
0.025521633
0.0075959029
0.0021244725
4.9440211e-12
1.5535834e-10
1.2704219e-09
5.4637285e-09
1.6814454e-08
4.2434769e-08
9.4113252e-08
1.9077411e-07
3.6211317e-07
6.5393364e-07
1.1359306e-06
1.9129905e-06
3.1415182e-06
5.0529246e-06
7.9872677e-06
1.2441217e-05
1.9136098e-05
2.9113846e-05
4.3871358e-05
6.5546876e-05
9.7175344e-05
0.00014303232
0.00020908553
0.0003035652
0.00043763883
0.00062611592
0.00088798302
0.0012463371
0.0017269193
0.0023540427
0.0031427509
0.0040877455
0.0051541655
0.0062799006
0.007394424
0.0084432232
0.0094001268
0.01026364
0.011046748
0.011768551
0.012449765
0.013111261
0.01377348
0.014455017
0.015171603
0.015937363
0.016764082
0.017662394
0.018648692
0.01977396
0.021099648
0.022674131
0.024514292
0.026113233
0.025191798
0.019254268
0.0099588734
0.0068147262
0.0073557183
0.0098426512
0.012348411
0.011678726
0.0065658971
0.0021165444
0.00065815317
4.4501742e-12
1.3983995e-10
1.1435222e-09
4.9179664e-09
1.5134877e-08
3.8195957e-08
8.4712123e-08
1.7171699e-07
3.2593951e-07
5.8860656e-07
1.0224496e-06
1.7218755e-06
2.8276632e-06
4.5481088e-06
7.1893153e-06
1.1198391e-05
1.7224756e-05
2.6206649e-05
3.9492358e-05
5.9008629e-05
8.7491877e-05
0.00012880052
0.00018832711
0.00027352298
0.00039452785
0.00056484718
0.00080191443
0.0011271764
0.0015650137
0.0021394121
0.0028671987
0.0037478688
0.0047538316
0.0058297627
0.0069076917
0.0079305986
0.0088674081
0.0097122137
0.010475089
0.011173388
0.011826635
0.012454504
0.01307585
0.013707371
0.014362302
0.015052047
0.015786247
0.016575147
0.017449484
0.018483152
0.019719584
0.021163146
0.022493278
0.021799255
0.016531455
0.0069036115
0.0031682802
0.0019744682
0.001967122
0.0023135515
0.0025829983
0.0023457893
0.0015138216
0.00060550232
0.00024699403
3.9507658e-12
1.2414678e-10
1.0151931e-09
4.3660556e-09
1.3436366e-08
3.3909328e-08
7.5204832e-08
1.5244436e-07
2.8935609e-07
5.2253797e-07
9.0767729e-07
1.5285793e-06
2.5102135e-06
4.0374856e-06
6.3821329e-06
9.9410897e-06
1.5290954e-05
2.3264893e-05
3.5060511e-05
5.2389897e-05
7.7686051e-05
0.00011438261
0.00016728478
0.00024304523
0.00035074341
0.00050252631
0.00071418297
0.0010053574
0.0013988235
0.0019178727
0.0025806613
0.0033911367
0.0043291728
0.005347285
0.0063815512
0.0073733621
0.0082866413
0.0091104155
0.0098512033
0.010524198
0.011147539
0.011739632
0.012317749
0.012896723
0.013487702
0.014100142
0.014743925
0.0154333
0.016229847
0.017202424
0.01835487
0.019473065
0.019110464
0.015184526
0.0061553899
0.0022767351
0.0010383302
0.0006331752
0.00057350782
0.00057006373
0.00055763052
0.00048462601
0.00036134325
0.00021650991
0.00013950614
3.4588035e-12
1.086876e-10
8.8877738e-10
3.8223726e-09
1.1763171e-08
2.9686563e-08
6.58391e-08
1.3345849e-07
2.5331647e-07
4.5745029e-07
7.9460663e-07
1.3381439e-06
2.1974518e-06
3.5343826e-06
5.5867963e-06
8.702153e-06
1.3385221e-05
2.0365474e-05
3.0691702e-05
4.5863788e-05
6.801436e-05
0.00010015569
0.00014650862
0.00021292795
0.00030742704
0.00044077346
0.00062705871
0.00088400867
0.0012325648
0.00169493
0.002290009
0.0030255825
0.0038887859
0.0048407472
0.0058232285
0.0067774502
0.0076626768
0.0084623537
0.0091787401
0.009824348
0.01041563
0.010969606
0.011501983
0.012025753
0.012550433
0.013084579
0.013641248
0.014248339
0.014996735
0.015905221
0.016815438
0.016632423
0.013724599
0.0059409584
0.0020536403
0.00078767922
0.00039335599
0.00026179722
0.00023120566
0.00021101853
0.00018961038
0.00017230093
0.00015175766
0.00012810145
0.00011126932
2.9865042e-12
9.384632e-11
7.6741468e-10
3.300422e-09
1.0156856e-08
2.5632573e-08
5.6847645e-08
1.1523119e-07
2.1871648e-07
3.9496191e-07
6.8604993e-07
1.1553078e-06
1.8971638e-06
3.0513296e-06
4.8231239e-06
7.5124733e-06
1.155511e-05
1.7580798e-05
2.6495132e-05
3.95936e-05
5.8719101e-05
8.6476639e-05
0.00012652064
0.00018392913
0.00026567099
0.00038114897
0.00054274777
0.0007662085
0.0010704574
0.0014762254
0.0020025086
0.0026600636
0.0034426501
0.0043203321
0.005242091
0.0061508385
0.0070021034
0.0077735434
0.0084624714
0.0090780925
0.0096347391
0.010147795
0.01063138
0.011096556
0.011551506
0.012004718
0.012473118
0.013017228
0.013707994
0.014414939
0.014272088
0.012002132
0.005562451
0.0019653019
0.00071640508
0.0003227489
0.00020026243
0.00015807145
0.00014349701
0.00013255575
0.00012201051
0.00011484175
0.000109917
0.00010583876
0.00010286928
2.5445307e-12
7.9957989e-11
6.5384473e-10
2.8119855e-09
8.6536798e-09
2.1838876e-08
4.8433483e-08
9.8174121e-08
1.8633773e-07
3.3648479e-07
5.8446094e-07
9.8420524e-07
1.6161428e-06
2.5992608e-06
4.1084139e-06
6.3990203e-06
9.8421495e-06
1.4974131e-05
2.2566286e-05
3.3722262e-05
5.0012646e-05
7.3658901e-05
0.00010778047
0.00015671868
0.00022644557
0.00032504872
0.00046324272
0.00065477436
0.00091643506
0.0012671517
0.0017253483
0.0023037408
0.0030016788
0.00379788
0.0046496956
0.0055038142
0.0063135892
0.0070511946
0.0077084676
0.008290615
0.0088092687
0.0092777318
0.0097081888
0.01010952
0.010488274
0.010852674
0.011222658
0.011692569
0.012191202
0.012023795
0.010101469
0.0048754245
0.001822431
0.00067767051
0.00029852778
0.00018029245
0.00014281655
0.00012812948
0.00011945551
0.00011162897
0.0001044782
9.9830592e-05
9.8436868e-05
9.90924e-05
9.8872531e-05
2.1412804e-12
6.7286462e-11
5.5022485e-10
2.3663417e-09
7.2821998e-09
1.8377553e-08
4.0756509e-08
8.2611473e-08
1.567958e-07
2.8313107e-07
4.9177249e-07
8.280932e-07
1.3597411e-06
2.1867923e-06
3.4562999e-06
5.3830561e-06
8.279093e-06
1.2595399e-05
1.8980579e-05
2.8362792e-05
4.2063201e-05
6.1951296e-05
9.0654216e-05
0.00013183259
0.00019053187
0.00027360604
0.0003901805
0.00055205804
0.00077385301
0.0010724441
0.001465087
0.0019654059
0.0025769854
0.0032863046
0.0040595104
0.0048490301
0.0056081418
0.0063044985
0.0069242855
0.0074680391
0.0079439475
0.0083625051
0.0087329938
0.0090613263
0.0093505255
0.0096041404
0.0098526005
0.010113569
0.0098668147
0.0081565296
0.0039723644
0.0015845059
0.00062224289
0.00028201442
0.00017160763
0.00013744761
0.0001252707
0.00011867114
0.00011251704
0.00010634146
9.9240713e-05
9.5317906e-05
9.4634783e-05
9.5705436e-05
9.5000421e-05
1.7825199e-12
5.6012944e-11
4.5803686e-10
1.9698645e-09
6.0620339e-09
1.5298126e-08
3.3926588e-08
6.8766054e-08
1.3051383e-07
2.3566543e-07
4.0931399e-07
6.8921269e-07
1.1316434e-06
1.819859e-06
2.8761794e-06
4.4792504e-06
6.8885659e-06
1.0479143e-05
1.579029e-05
2.3593743e-05
3.4988086e-05
5.1528174e-05
7.5399965e-05
0.0001096518
0.00015849108
0.00022764668
0.00032477569
0.00045984602
0.00064533687
0.0008959467
0.0012272893
0.0016528966
0.0021790932
0.0027985799
0.003486082
0.004201091
0.0048990474
0.0055447195
0.0061190188
0.0066172754
0.0070432878
0.0074034792
0.0077027311
0.0079412861
0.0081140154
0.0082177248
0.0082299139
0.0078545986
0.006250635
0.0030288387
0.0012865763
0.0005412779
0.00026079922
0.00016466107
0.00013424357
0.00012430808
0.00011929698
0.00011440535
0.00010874952
0.00010318725
9.6839169e-05
9.3355638e-05
9.1524866e-05
9.1866192e-05
9.1575733e-05
1.4710468e-12
4.6225374e-11
3.7800024e-10
1.6256479e-09
5.0027051e-09
1.2624634e-08
2.7997054e-08
5.6746018e-08
1.0769723e-07
1.94459e-07
3.3773055e-07
5.6865114e-07
9.3363735e-07
1.5013406e-06
2.3726132e-06
3.6947254e-06
5.6815607e-06
8.6421661e-06
1.30209e-05
1.945352e-05
2.8844918e-05
4.2475725e-05
6.214648e-05
9.0368789e-05
0.00013061162
0.00018760484
0.00026768608
0.00037914257
0.00053243224
0.00074005299
0.0010156622
0.0013718894
0.0018163652
0.0023462674
0.0029436147
0.0035753701
0.0042010883
0.0047847114
0.0053028432
0.0057453364
0.0061104134
0.0063984395
0.0066070853
0.0067257986
0.0067294237
0.0066128803
0.0060966584
0.0044766515
0.0021866452
0.00098413627
0.00044726076
0.00023343382
0.00015656523
0.00013120473
0.00012322089
0.00011969091
0.00011472791
0.00010835657
0.00010280534
9.8302604e-05
9.3699766e-05
9.0608456e-05
8.9186726e-05
8.9365632e-05
8.8963404e-05
1.2066356e-12
3.7916664e-11
3.1005699e-10
1.3334428e-09
4.1034486e-09
1.0355153e-08
2.2963654e-08
4.6542788e-08
8.8329803e-08
1.5948279e-07
2.7697234e-07
4.6632558e-07
7.6558877e-07
1.2310252e-06
1.9452747e-06
3.0289894e-06
4.6573558e-06
7.0834417e-06
1.067101e-05
1.5940335e-05
2.3631666e-05
3.4792221e-05
5.0893795e-05
7.3988757e-05
0.00010691133
0.00015352659
0.00021901789
0.00031017738
0.00043561447
0.00060571006
0.00083201572
0.0011256599
0.001494324
0.0019378264
0.0024436859
0.0029857143
0.0035286142
0.0040374076
0.0044857413
0.0048579485
0.0051451001
0.0053391304
0.005424141
0.0053771272
0.0051708093
0.0046050926
0.0030490298
0.0014999498
0.00071868701
0.00035547319
0.00020403475
0.00014707963
0.00012793636
0.00012180848
0.00011969798
0.00011475886
0.00010824686
0.00010351726
9.9386767e-05
9.5733448e-05
9.1774772e-05
8.9303064e-05
8.7677924e-05
8.7487105e-05
8.6466203e-05
9.8622662e-13
3.0990648e-11
2.5342049e-10
1.0898658e-09
3.3538515e-09
8.4634014e-09
1.8768104e-08
3.8038216e-08
7.2187291e-08
1.303318e-07
2.2633579e-07
3.8105116e-07
6.2555199e-07
1.0057838e-06
1.5892192e-06
2.4743444e-06
3.8041219e-06
5.785001e-06
8.7136112e-06
1.3013994e-05
1.9289101e-05
2.8391266e-05
4.1517304e-05
6.033435e-05
8.7141874e-05
0.0001250717
0.00017831873
0.00025237525
0.00035420403
0.00049222013
0.00067585442
0.00091436265
0.0012145177
0.0015771175
0.001993141
0.0024417502
0.0028927259
0.0033133609
0.0036755686
0.0039581844
0.0041436476
0.0042109019
0.0041391862
0.0038861934
0.0033031909
0.001964382
0.0010111573
0.00050932732
0.00027630241
0.00017648524
0.00013735555
0.00012432144
0.00012033524
0.00011894524
0.00011514145
0.00010900934
0.00010462109
0.00010120227
9.7508377e-05
9.4007814e-05
9.0540947e-05
8.7953681e-05
8.617416e-05
8.5777714e-05
8.4753324e-05
8.0424015e-13
2.5271999e-11
2.0665708e-10
8.8875122e-10
2.7349387e-09
6.9014908e-09
1.5304184e-08
3.101697e-08
5.8860924e-08
1.0626773e-07
1.8453822e-07
3.106673e-07
5.0997798e-07
8.1990644e-07
1.295418e-06
2.0167226e-06
3.1002148e-06
4.7139069e-06
7.0990685e-06
1.0600354e-05
1.5707372e-05
2.3111398e-05
3.3781573e-05
4.9065207e-05
7.0815987e-05
0.00010155076
0.00014462797
0.00020442484
0.00028646111
0.00039736737
0.00054452365
0.00073511535
0.00097433078
0.0012626059
0.0015924671
0.001946531
0.0022986685
0.0026186813
0.0028774956
0.0030485361
0.003104636
0.0030268421
0.0027697098
0.0021919606
0.0012704345
0.00066292692
0.00035714998
0.00021447892
0.00015241465
0.0001285122
0.00012028844
0.0001188935
0.00011819901
0.00011605773
0.00011054336
0.00010604276
0.00010239284
9.8615018e-05
9.4874618e-05
9.1563081e-05
8.8510742e-05
8.6494594e-05
8.5006129e-05
8.4383995e-05
8.327112e-05
6.5322699e-13
2.0526644e-11
1.6785277e-10
7.2186751e-10
2.2213768e-09
5.6054818e-09
1.2430074e-08
2.5191527e-08
4.7804838e-08
8.6304569e-08
1.4986632e-07
2.5228756e-07
4.1412449e-07
6.6576131e-07
1.0517997e-06
1.6373072e-06
2.5166672e-06
3.8260456e-06
5.760835e-06
8.5998731e-06
1.2738731e-05
1.8734887e-05
2.736799e-05
3.9718389e-05
5.7266107e-05
8.2009359e-05
0.0001165949
0.0001644391
0.00022979459
0.00031767927
0.00043353076
0.00058239537
0.00076745392
0.00098783701
0.0012361344
0.001496729
0.0017463631
0.0019571138
0.0020994723
0.0021431489
0.0020694989
0.0018379806
0.0013420483
0.00077361172
0.00042929351
0.0002501796
0.00016678015
0.00013341907
0.00011981276
0.00011704211
0.00011769592
0.00011826249
0.00011697868
0.00011257918
0.00010691193
0.00010311883
9.9454118e-05
9.6018504e-05
9.2761357e-05
8.9950416e-05
8.7559124e-05
8.5642505e-05
8.3933066e-05
8.302869e-05
8.1968773e-05
5.2484106e-13
1.6492317e-11
1.3486283e-10
5.7999016e-10
1.7847754e-09
4.5037166e-09
9.9868183e-09
2.0239593e-08
3.8407085e-08
6.9336781e-08
1.2039876e-07
2.0267444e-07
3.3267119e-07
5.3478402e-07
8.4481326e-07
1.3149666e-06
2.0209332e-06
3.0718262e-06
4.6240533e-06
6.9004909e-06
1.0216681e-05
1.5016085e-05
2.1916553e-05
3.1769859e-05
4.5734831e-05
6.5361442e-05
9.2676761e-05
0.00013025177
0.00018120826
0.00024909535
0.0003375277
0.00044944613
0.00058587786
0.00074421189
0.00091636611
0.0010876499
0.0012371563
0.0013396283
0.0013671847
0.0013034291
0.0011091471
0.00076118966
0.00045233673
0.00026982017
0.00017447008
0.0001324071
0.0001157112
0.00011272466
0.00011396054
0.00011747165
0.00011909982
0.00011808442
0.00011420438
0.00010749239
0.00010389767
0.00010065378
9.7400168e-05
9.4381223e-05
9.1397324e-05
8.881348e-05
8.6195409e-05
8.4394895e-05
8.2847887e-05
8.2027298e-05
8.093997e-05
4.1138574e-13
1.292716e-11
1.0570941e-10
4.5461262e-10
1.3989525e-09
3.530107e-09
7.8278055e-09
1.5863871e-08
3.0103115e-08
5.4344308e-08
9.436251e-08
1.5883971e-07
2.6070642e-07
4.1906623e-07
6.6194277e-07
1.0301792e-06
1.5829399e-06
2.4054173e-06
3.6195327e-06
5.3986293e-06
7.9873609e-06
1.1728096e-05
1.7095059e-05
2.4736805e-05
3.5526073e-05
5.0612689e-05
7.1469035e-05
9.9907035e-05
0.00013802942
0.00018805629
0.00025194763
0.00033073381
0.00042350141
0.00052614195
0.00063019111
0.00072230743
0.00078475578
0.00079664002
0.0007455038
0.00060419044
0.00040846673
0.00025701129
0.00016691963
0.00012296439
0.00010460452
0.00010173751
0.00010492884
0.00011145136
0.00011955996
0.00012047029
0.00011947899
0.00011572667
0.00010854082
0.00010509279
0.00010184794
9.867219e-05
9.5516632e-05
9.2461669e-05
8.9569815e-05
8.7045443e-05
8.500099e-05
8.348045e-05
8.1945139e-05
8.1000723e-05
8.0010696e-05
3.0797174e-13
9.6775339e-12
7.9136159e-11
3.403313e-10
1.0472763e-09
2.6426677e-09
5.8598849e-09
1.1875451e-08
2.2534141e-08
4.0678773e-08
7.063038e-08
1.1888341e-07
1.9510697e-07
3.1357915e-07
4.9523032e-07
7.7053577e-07
1.1835815e-06
1.7977287e-06
2.703421e-06
4.0287906e-06
5.9538016e-06
8.7286221e-06
1.2696619e-05
1.8321544e-05
2.621674e-05
3.7170906e-05
5.2159366e-05
7.2321185e-05
9.8870626e-05
0.0001328988
0.0001750143
0.00022480265
0.00028008981
0.00033621058
0.00038549699
0.0004173007
0.00041846897
0.00038359195
0.00029818832
0.000206478
0.00014176201
0.00010427187
8.7503642e-05
8.4070208e-05
8.8389159e-05
9.8450552e-05
0.00011377999
0.00012076401
0.00012197697
0.00012099731
0.0001172663
0.00010982962
0.00010609342
0.00010273997
9.960035e-05
9.6589172e-05
9.3545833e-05
9.0759219e-05
8.8215843e-05
8.620736e-05
8.4152229e-05
8.2570549e-05
8.107393e-05
8.0170561e-05
7.9265791e-05
2.1433862e-13
6.7352562e-12
5.507616e-11
2.3685825e-10
7.2885941e-10
1.8391533e-09
4.0780605e-09
8.2641672e-09
1.5680793e-08
2.8305087e-08
4.9141297e-08
8.2702707e-08
1.3570458e-07
2.1805453e-07
3.4425884e-07
5.3540465e-07
8.2192881e-07
1.2474432e-06
1.873944e-06
2.7887716e-06
4.113668e-06
6.0161265e-06
8.7228119e-06
1.2533945e-05
1.7835877e-05
2.5106246e-05
3.490178e-05
4.7812948e-05
6.4362862e-05
8.4825382e-05
0.00010895304
0.0001355933
0.00016231604
0.0001851238
0.00019843377
0.00019560013
0.00017419057
0.00013607164
0.00010128239
7.812284e-05
6.6357236e-05
6.3682773e-05
6.7529887e-05
7.764579e-05
9.7960794e-05
0.00011660055
0.00012258055
0.0001235777
0.00012262617
0.00011905664
0.00011119622
0.00010730864
0.00010364098
0.00010069233
9.7779508e-05
9.4841872e-05
9.1987504e-05
8.9491554e-05
8.7131519e-05
8.4939517e-05
8.3073465e-05
8.168765e-05
8.0278047e-05
7.9437163e-05
7.8583547e-05
1.346226e-13
4.2303018e-12
3.4592293e-11
1.4876479e-10
4.5777007e-10
1.15507e-09
2.5610856e-09
5.1896834e-09
9.8462273e-09
1.7770992e-08
3.0847484e-08
5.1903102e-08
8.5140255e-08
1.3675025e-07
2.1578061e-07
3.3534902e-07
5.143231e-07
7.7961043e-07
1.1692198e-06
1.7362433e-06
2.5538379e-06
3.7210896e-06
5.369235e-06
7.6669475e-06
1.0822099e-05
1.5075426e-05
2.0678818e-05
2.7848242e-05
3.6680755e-05
4.7027553e-05
5.8327137e-05
6.9436966e-05
7.851984e-05
8.3042891e-05
8.064448e-05
7.1402025e-05
5.9613584e-05
4.9982046e-05
4.3702488e-05
4.3910889e-05
4.7707651e-05
5.5628103e-05
7.2446317e-05
0.00010048129
0.00011764866
0.0001242854
0.00012525907
0.00012433054
0.00012086785
0.00011282285
0.0001085857
0.00010476207
0.00010164269
9.8873623e-05
9.5917878e-05
9.3149082e-05
9.0532833e-05
8.8031578e-05
8.5750423e-05
8.402202e-05
8.2312864e-05
8.0964106e-05
7.958993e-05
7.8783262e-05
7.7988614e-05
7.4150912e-14
2.330072e-12
1.9053498e-11
8.1938614e-11
2.5212881e-10
6.3615292e-10
1.410407e-09
2.8576854e-09
5.4209888e-09
9.7820974e-09
1.6975449e-08
2.8551991e-08
4.6813161e-08
7.5142196e-08
1.1846866e-07
1.8391192e-07
2.8165885e-07
4.261367e-07
6.3753683e-07
9.4371459e-07
1.3824123e-06
2.003587e-06
2.8713174e-06
4.0642512e-06
5.6727606e-06
7.7899583e-06
1.0492787e-05
1.3809002e-05
1.766792e-05
2.1838757e-05
2.5871576e-05
2.9067975e-05
3.0510301e-05
2.9949112e-05
2.8256243e-05
2.656291e-05
2.5497217e-05
2.6954054e-05
3.0168577e-05
3.7735266e-05
4.972812e-05
7.2793343e-05
0.00010222954
0.00011814223
0.00012544991
0.00012689619
0.00012601488
0.00012276794
0.00011459171
0.00011007863
0.00010594423
0.00010275409
9.9803134e-05
9.7099287e-05
9.4345006e-05
9.1711058e-05
8.9074367e-05
8.69197e-05
8.4973195e-05
8.3140836e-05
8.1482713e-05
8.0213137e-05
7.890305e-05
7.8154996e-05
7.7489764e-05
3.5134444e-14
1.1040409e-12
9.0278985e-12
3.8823111e-11
1.1945512e-10
3.0137845e-10
6.6810983e-10
1.3534757e-09
2.5669735e-09
4.630718e-09
8.0328192e-09
1.3503857e-08
2.2125455e-08
3.5482822e-08
5.5876377e-08
8.6610674e-08
1.3238064e-07
1.9977315e-07
2.9789175e-07
4.3908564e-07
6.3970934e-07
9.2073724e-07
1.3078879e-06
1.8306635e-06
2.5194016e-06
3.3991122e-06
4.4790511e-06
5.7376734e-06
7.1052077e-06
8.4503322e-06
9.5821781e-06
1.0363414e-05
1.0980034e-05
1.1735577e-05
1.2959683e-05
1.4937827e-05
1.7696199e-05
2.3748076e-05
3.4067384e-05
4.9865536e-05
7.3787163e-05
0.00010083322
0.00011618582
0.00012620053
0.00012848264
0.00012770127
0.00012477772
0.00011682371
0.00011170545
0.00010732226
0.00010387412
0.00010084844
9.8094656e-05
9.5576976e-05
9.279374e-05
9.02361e-05
8.7990547e-05
8.5864549e-05
8.3857125e-05
8.228576e-05
8.0786456e-05
7.9576438e-05
7.8375263e-05
7.7742188e-05
7.6993367e-05
1.4591221e-14
4.5850363e-13
3.7492074e-12
1.6122457e-11
4.9604796e-11
1.2513987e-10
2.7738218e-10
5.6183116e-10
1.0653009e-09
1.9211327e-09
3.331095e-09
5.5966117e-09
9.1628186e-09
1.4679941e-08
2.3087479e-08
3.5727391e-08
5.4492204e-08
8.2011644e-08
1.2187483e-07
1.788713e-07
2.592087e-07
3.7062367e-07
5.22244e-07
7.2399043e-07
9.8528837e-07
1.3129287e-06
1.7083528e-06
2.1655781e-06
2.6728538e-06
3.2301766e-06
3.8922813e-06
4.7229269e-06
5.7770157e-06
7.4731006e-06
1.0249651e-05
1.4532107e-05
2.2202199e-05
3.4043131e-05
5.0510508e-05
7.2124655e-05
9.6551864e-05
0.00011424732
0.00012715077
0.00013012755
0.00012946343
0.00012694871
0.00011932815
0.00011343143
0.00010867541
0.00010516748
0.00010191846
9.9180974e-05
9.6596684e-05
9.4047542e-05
9.1411833e-05
8.9130505e-05
8.6775053e-05
8.4835369e-05
8.3127976e-05
8.1584662e-05
8.0103598e-05
7.9006452e-05
7.7772549e-05
7.7148942e-05
7.6569449e-05
6.267817e-15
1.9695498e-13
1.6105034e-12
6.9254804e-12
2.1307757e-11
5.375311e-11
1.1914549e-10
2.4131931e-10
4.5755199e-10
8.2508916e-10
1.4305351e-09
2.40324e-09
3.9341875e-09
6.3023286e-09
9.9107738e-09
1.5335668e-08
2.3390735e-08
3.521002e-08
5.2349944e-08
7.6908849e-08
1.1165728e-07
1.6016721e-07
2.2692792e-07
3.1745736e-07
4.3849592e-07
5.9858732e-07
8.0994293e-07
1.0914308e-06
1.4772257e-06
2.028421e-06
2.8419685e-06
4.0831596e-06
6.0457505e-06
9.2740375e-06
1.4431601e-05
2.2521222e-05
3.4063691e-05
4.9535699e-05
6.9608583e-05
9.286738e-05
0.00011391827
0.00012822539
0.00013193926
0.00013137853
0.00012916273
0.00012207627
0.00011513724
0.00011034926
0.00010662778
0.0001032297
0.00010024226
9.7669246e-05
9.5132949e-05
9.2728078e-05
9.0162693e-05
8.7855274e-05
8.5834222e-05
8.4034735e-05
8.2294358e-05
8.0858507e-05
7.9517565e-05
7.8404609e-05
7.7387549e-05
7.6864013e-05
7.6180552e-05
4.3638549e-15
1.3712679e-13
1.121306e-12
4.8220682e-12
1.4837623e-11
3.7437103e-11
8.3001156e-11
1.6817106e-10
3.1901362e-10
5.7564221e-10
9.9891592e-10
1.6800876e-09
2.7546111e-09
4.4217762e-09
6.9724606e-09
1.0828116e-08
1.6595243e-08
2.5141201e-08
3.7699642e-08
5.6017877e-08
8.2565997e-08
1.2084255e-07
1.7584323e-07
2.5482776e-07
3.686707e-07
5.3401763e-07
7.7709803e-07
1.140506e-06
1.6948251e-06
2.5562964e-06
3.9129197e-06
6.0602229e-06
9.4393698e-06
1.4689041e-05
2.2499423e-05
3.3466717e-05
4.8287751e-05
6.7735263e-05
9.092031e-05
0.00011337097
0.0001290854
0.00013386171
0.00013345835
0.0001314673
0.00012485141
0.00011703396
0.00011223342
0.00010827866