/*--------------------------------*- C++ -*----------------------------------*\
  =========                 |
  \\      /  F ield         | OpenFOAM: The Open Source CFD Toolbox
   \\    /   O peration     | Website:  https://openfoam.org
    \\  /    A nd           | Version:  13
     \\/     M anipulation  |
\*---------------------------------------------------------------------------*/
FoamFile
{
    format      ascii;
    class       volScalarField;
    location    "47.897469";
    object      pMean;
}
// * * * * * * * * * * * * * * * * * * * * * * * * * * * * * * * * * * * * * //

dimensions      [0 2 -2 0 0 0 0];

internalField   nonuniform List<scalar> 
17140
(
0.79884082
0.79877502
0.79869565
0.79861478
0.79852745
0.79843238
0.79832952
0.79821865
0.79809957
0.79797211
0.79783612
0.79769142
0.79753771
0.79737441
0.79720043
0.79701389
0.79681164
0.79658868
0.79633744
0.79604679
0.79570086
0.79527758
0.79474645
0.79406581
0.79318701
0.79206927
0.79068671
0.78900957
0.78698522
0.78454457
0.78161085
0.77809738
0.77390926
0.76894683
0.76310944
0.75630027
0.7484314
0.73942993
0.72924804
0.71787832
0.70537307
0.69186917
0.67762408
0.66303796
0.64867839
0.63528138
0.62359252
0.61436295
0.60834257
0.60614008
0.60816983
0.61466028
0.62572619
0.64109386
0.66051169
0.68300087
0.70829337
0.73464184
0.76345843
0.79180326
0.82470361
0.85177269
0.88525842
0.90167745
0.93046783
0.79781596
0.79775139
0.79767352
0.79759422
0.79750857
0.79741527
0.79731427
0.79720542
0.79708852
0.7969634
0.79682992
0.79668793
0.79653716
0.79637705
0.7962066
0.79602396
0.79582608
0.79560806
0.79536244
0.79507822
0.79473969
0.79432492
0.79380367
0.7931346
0.79226874
0.79116447
0.78979595
0.7881339
0.7861255
0.78370129
0.78078428
0.77728758
0.77311596
0.76816923
0.76234619
0.75554937
0.74769012
0.73869474
0.72851455
0.71714121
0.70462618
0.69110582
0.67683682
0.66222145
0.64783539
0.63439809
0.62266684
0.61342177
0.60739265
0.60517564
0.60719972
0.61369584
0.62476494
0.64014501
0.65958188
0.68208883
0.70739411
0.73375596
0.76248731
0.79054025
0.82316479
0.8500798
0.88378851
0.90052031
0.92997045
0.79528329
0.79522183
0.79514786
0.79507232
0.79499063
0.7949016
0.79480524
0.7947014
0.7945898
0.79447034
0.79434295
0.79420752
0.79406385
0.79391148
0.79374953
0.79357631
0.79338897
0.79318285
0.79295078
0.79268207
0.79236136
0.79196715
0.79146977
0.79082865
0.78999419
0.78892292
0.78758816
0.78596113
0.78398973
0.78160422
0.77872677
0.77527004
0.77113792
0.76622906
0.76044089
0.75367431
0.74583879
0.73685866
0.72668323
0.71530217
0.70276516
0.68920813
0.67488833
0.66021549
0.64577206
0.63226308
0.6204597
0.61115775
0.60509209
0.60285347
0.60485438
0.61131717
0.62234988
0.63769371
0.6570869
0.67954332
0.70478086
0.73104915
0.75963905
0.7876324
0.82021997
0.84748022
0.88164113
0.89888512
0.92928191
0.79129025
0.79123378
0.79116601
0.79109635
0.79102096
0.79093879
0.79084981
0.79075382
0.79065062
0.79054017
0.79042248
0.79029746
0.79016498
0.79002478
0.78987616
0.78971768
0.78954678
0.78935918
0.78914813
0.78890345
0.78861035
0.78824798
0.78778755
0.78718971
0.78640443
0.78538545
0.78410362
0.78253063
0.78061651
0.77829148
0.7754761
0.77208241
0.76801301
0.76316483
0.75743311
0.75071625
0.7429209
0.73396834
0.72380475
0.71241675
0.69985182
0.68624536
0.67185624
0.65710472
0.64257934
0.62897269
0.61707864
0.60770246
0.601585
0.59931193
0.6012794
0.60769132
0.61865001
0.63390253
0.65318673
0.67550464
0.70057458
0.72667142
0.75511513
0.7832134
0.81616626
0.84416595
0.87912417
0.89712218
0.92851454
0.78596495
0.78591521
0.78585579
0.78579413
0.78572729
0.78565438
0.78557531
0.78548992
0.78539813
0.78529989
0.78519525
0.78508419
0.78496676
0.78484286
0.78471199
0.78457304
0.78442381
0.78426052
0.78407697
0.78386366
0.78360656
0.78328569
0.78287342
0.782332
0.78161185
0.78066324
0.7794521
0.77795037
0.77611197
0.77386741
0.77113514
0.76782631
0.76384199
0.75907691
0.75342362
0.74677726
0.73904079
0.73013155
0.71999168
0.7086039
0.696013
0.68235379
0.66788912
0.65305212
0.63843033
0.62471945
0.61273253
0.60328032
0.59711715
0.59481607
0.59675232
0.60310554
0.61397363
0.62910661
0.64823401
0.67035115
0.69522737
0.72116584
0.74962538
0.77804899
0.81167774
0.84071394
0.87660829
0.89540389
0.92768786
0.77951979
0.77947832
0.77942913
0.77937735
0.77932107
0.77925959
0.77919281
0.77912059
0.77904288
0.77895967
0.77887106
0.77877718
0.77867819
0.77857411
0.77846473
0.77834923
0.77822588
0.77809142
0.77794032
0.77776387
0.77754897
0.77727673
0.77692085
0.77644552
0.77580332
0.77494072
0.77381537
0.7723991
0.77065156
0.76850403
0.76587299
0.76266829
0.75878936
0.7541285
0.7485751
0.74202058
0.73436357
0.72551669
0.71541717
0.70404308
0.69143607
0.67773063
0.66319574
0.64827785
0.63356064
0.61975673
0.60768705
0.59817004
0.59197381
0.58966218
0.5915841
0.59789066
0.60867347
0.62367605
0.64262084
0.66450647
0.68914895
0.71497375
0.74366233
0.77278211
0.80731906
0.83761998
0.87440781
0.89389311
0.92688077
0.77224272
0.77221068
0.77217271
0.77213239
0.7720884
0.7720402
0.7719877
0.77193078
0.77186943
0.77180368
0.77173367
0.77165962
0.77158179
0.77150035
0.77141531
0.77132617
0.77123162
0.77112895
0.77101335
0.77087696
0.77070773
0.77048806
0.77019314
0.76978925
0.76923176
0.76846557
0.76743979
0.76612127
0.76447407
0.76243462
0.75991872
0.75683345
0.75307677
0.74853854
0.74310494
0.73666334
0.7291076
0.72034503
0.71030726
0.69896723
0.68636322
0.67262993
0.65804465
0.64306325
0.62827111
0.61439719
0.60225907
0.59268926
0.58647183
0.58416487
0.58608966
0.59237211
0.60309265
0.61799088
0.6367798
0.65846972
0.68292634
0.70878043
0.73790323
0.7680225
0.80372472
0.83529285
0.8727433
0.89266944
0.92586044
0.76448283
0.7644611
0.76443523
0.76440754
0.76437714
0.76434362
0.76430691
0.76426694
0.7642237
0.76417726
0.76412779
0.76407556
0.76402087
0.76396403
0.76390518
0.76384411
0.76377984
0.76371018
0.76363099
0.76353528
0.7634121
0.76324519
0.76301142
0.76267917
0.76220673
0.76154144
0.76062539
0.75941265
0.7578697
0.75594349
0.75355056
0.75059484
0.74697281
0.74257197
0.73727547
0.73096661
0.72353431
0.71488027
0.70493008
0.69365131
0.68107879
0.66734855
0.6527474
0.63773264
0.62289944
0.6089842
0.59679211
0.58717391
0.5809374
0.5786457
0.58059265
0.58687449
0.5975648
0.61240151
0.63109466
0.65268091
0.67709127
0.7031675
0.73298601
0.76431695
0.80128462
0.83397751
0.87167115
0.89179039
0.92489442
0.75662923
0.75661833
0.75660516
0.75659079
0.75657472
0.75655674
0.75653677
0.75651476
0.75649074
0.75646478
0.75643707
0.75640787
0.7563775
0.75634631
0.75631451
0.75628203
0.75624815
0.75621106
0.75616719
0.75611033
0.75603056
0.75591297
0.75573615
0.75547069
0.75507761
0.75450758
0.75370252
0.75260422
0.751168
0.74935109
0.74708137
0.74425919
0.74077802
0.73652436
0.73137862
0.72522027
0.71793341
0.70941407
0.69958193
0.68839927
0.67589786
0.66221555
0.64764759
0.63264821
0.6178248
0.60390626
0.5916813
0.582024
0.57577528
0.57350228
0.57547343
0.58177139
0.5924716
0.60729976
0.62597316
0.64755622
0.67208894
0.69865938
0.72946993
0.76236551
0.80055019
0.83396663
0.87149526
0.89144569
0.92371535
0.74908354
0.74908349
0.74908305
0.74908208
0.7490805
0.74907824
0.74907525
0.74907151
0.74906705
0.74906196
0.7490564
0.7490506
0.74904485
0.74903943
0.74903455
0.74903015
0.74902559
0.7490193
0.74900807
0.7489863
0.74894494
0.74887026
0.7487425
0.74853438
0.74820968
0.74772225
0.7470166
0.74603191
0.7447091
0.74299679
0.74083752
0.73814485
0.73480758
0.73070712
0.72572202
0.71972918
0.71260879
0.70425227
0.69457416
0.6835323
0.67115625
0.65758603
0.6431202
0.62821119
0.61347122
0.59960786
0.58739921
0.57774315
0.57150269
0.56924556
0.57124876
0.57759121
0.58833156
0.60319508
0.62190599
0.64361877
0.6685427
0.69608395
0.72833328
0.76264225
0.80147204
0.83497276
0.8715601
0.8910461
0.92235027
0.7422263
0.74223657
0.74224828
0.74226015
0.74227248
0.74228538
0.74229882
0.74231281
0.7423274
0.74234267
0.74235876
0.74237582
0.74239406
0.74241366
0.7424347
0.74245701
0.74247989
0.74250177
0.74251959
0.74252812
0.74251892
0.74247922
0.74239062
0.74222776
0.74195698
0.74153527
0.74091014
0.74002165
0.73880724
0.73720589
0.73515328
0.73257227
0.72936587
0.7254175
0.72060023
0.71478788
0.70785795
0.69969818
0.69021991
0.67937819
0.66720183
0.65383287
0.6395626
0.62484749
0.61029788
0.59659066
0.58449807
0.57491904
0.56872314
0.56650315
0.56853102
0.57487582
0.58563641
0.60054859
0.61937653
0.64141711
0.66707183
0.6958191
0.7293736
0.76462731
0.80333958
0.8362562
0.87184903
0.89099076
0.92071103
0.73638232
0.73640181
0.73642441
0.73644783
0.73647275
0.73649942
0.73652787
0.73655814
0.7365903
0.73662444
0.73666066
0.73669907
0.73673974
0.73678273
0.73682793
0.73687497
0.73692294
0.7369701
0.73701334
0.73704748
0.73706441
0.73705199
0.73699283
0.73686309
0.73663127
0.7362573
0.73569201
0.73487736
0.73375041
0.73224679
0.73029898
0.72783093
0.72474963
0.72094567
0.71629709
0.71067802
0.7039646
0.69604305
0.68682222
0.67625623
0.66437363
0.65131634
0.63736909
0.62298615
0.60875663
0.59533822
0.58349115
0.574089
0.56800311
0.5657831
0.56774053
0.5740106
0.58472661
0.59966937
0.61869092
0.64125086
0.6677571
0.6976594
0.73218901
0.76785024
0.80614869
0.83844498
0.87254637
0.89129022
0.91912089
0.73178635
0.73181335
0.73184487
0.73187783
0.73191321
0.73195142
0.73199254
0.73203666
0.73208389
0.73213436
0.73218814
0.7322453
0.73230586
0.73236971
0.73243659
0.73250588
0.73257646
0.73264632
0.73271213
0.73276862
0.73280774
0.73281765
0.73278159
0.73267676
0.73247328
0.73213332
0.7316109
0.73085218
0.72979453
0.72837024
0.72651447
0.72415286
0.72119547
0.71754061
0.71307096
0.70766377
0.70119692
0.69355902
0.68466375
0.67446243
0.66298291
0.65036357
0.63688547
0.62298667
0.60922275
0.59623003
0.58475447
0.57563861
0.56964761
0.56737137
0.56918747
0.57532634
0.58594958
0.6009447
0.6202542
0.64336658
0.67076247
0.70163626
0.73687403
0.77249569
0.80991616
0.84085162
0.87356705
0.89144446
0.91730214
0.7285564
0.72858871
0.7286266
0.72866644
0.72870947
0.72875621
0.72880681
0.72886143
0.72892025
0.72898344
0.72905111
0.72912334
0.72920012
0.72928128
0.72936644
0.72945485
0.7295452
0.72963529
0.7297216
0.72979873
0.72985863
0.72988962
0.72987531
0.72979354
0.72961539
0.72930463
0.72881727
0.72810203
0.72710154
0.72575477
0.72397112
0.7217093
0.71888062
0.71538191
0.71110538
0.70593709
0.69976308
0.69247473
0.68397923
0.67423845
0.66328021
0.65123453
0.63836886
0.62509333
0.61193347
0.59949326
0.58849515
0.57966502
0.57375647
0.57140259
0.57304188
0.57899316
0.58953519
0.60462676
0.62420657
0.64787363
0.67604904
0.70778282
0.74311522
0.77817205
0.81403715
0.84388102
0.87447649
0.89154506
0.91565124
0.7266731
0.72670819
0.72674956
0.72679319
0.72684054
0.72689224
0.72694849
0.72700954
0.72707567
0.72714709
0.72722403
0.7273066
0.72739487
0.7274887
0.72758773
0.72769121
0.72779784
0.7279054
0.72801043
0.72810759
0.72818903
0.72824338
0.72825475
0.7282016
0.72805584
0.72778199
0.72733751
0.72667322
0.72573285
0.72445782
0.72280538
0.72065111
0.71791727
0.71459266
0.71053761
0.70564533
0.6998054
0.69291765
0.68490356
0.67572823
0.66540954
0.65406845
0.64194706
0.6294174
0.6169688
0.60517552
0.59465112
0.58609589
0.58027379
0.57780579
0.57924633
0.58503715
0.59552248
0.6106767
0.63048196
0.65476135
0.68376926
0.71576755
0.750607
0.78453428
0.81882539
0.84677181
0.87551131
0.89152769
0.91406258
0.72600076
0.72603608
0.72607807
0.72612226
0.72617041
0.72622324
0.72628102
0.72634407
0.72641275
0.72648737
0.72656827
0.72665569
0.72674981
0.72685064
0.72695799
0.72707131
0.72718949
0.72731064
0.72743167
0.72754775
0.72765165
0.7277329
0.72777663
0.72776238
0.72766313
0.72744453
0.72706473
0.72647481
0.7256196
0.72444109
0.72288102
0.7208492
0.7183298
0.71518997
0.71135465
0.70677386
0.70132704
0.69492184
0.68748782
0.67897768
0.66941095
0.65888946
0.64761921
0.63593151
0.62426665
0.6131142
0.60304764
0.59476574
0.58898764
0.58641828
0.58769757
0.593373
0.60379447
0.61897078
0.63917926
0.66417733
0.69341815
0.72515166
0.75898946
0.79139332
0.82354881
0.8497326
0.87650416
0.89165342
0.91281806
0.72628911
0.72632238
0.72636233
0.72640411
0.72644983
0.72650024
0.72655565
0.72661643
0.72668302
0.72675585
0.72683533
0.72692187
0.72701581
0.72711738
0.72722664
0.72734338
0.72746691
0.7275959
0.72772799
0.72785931
0.72798383
0.72809258
0.7281726
0.72820561
0.7281667
0.72802338
0.72773452
0.72725124
0.72651894
0.72547874
0.72406697
0.7222407
0.7199179
0.71702455
0.71353459
0.70930958
0.70430929
0.6984614
0.69168616
0.68393689
0.67522044
0.66560903
0.65527252
0.64448539
0.63360327
0.62307582
0.61345699
0.60539448
0.59966713
0.5970239
0.59820651
0.60377543
0.61411452
0.62955447
0.65034279
0.67549786
0.70447295
0.73560831
0.76782494
0.79831807
0.82834389
0.85261191
0.87767481
0.89195748
0.91190007
0.72725446
0.72728385
0.72731942
0.72735645
0.72739712
0.72744218
0.72749197
0.72754688
0.72760739
0.727674
0.72774723
0.7278276
0.72791561
0.72801173
0.72811632
0.72822954
0.72835128
0.72848091
0.72861705
0.72875717
0.72889699
0.72902977
0.72914538
0.72922904
0.72925997
0.7292095
0.72904063
0.72870727
0.72815472
0.72732309
0.726147
0.72456979
0.72253031
0.71997959
0.71683473
0.71307664
0.70864985
0.70342444
0.69738274
0.69047619
0.68268792
0.67405909
0.66470571
0.65482513
0.64471926
0.63479943
0.62557456
0.61772296
0.61205715
0.60939435
0.61047446
0.61595682
0.62649922
0.64243135
0.66326726
0.6882143
0.71680263
0.74641791
0.77680667
0.8051933
0.8329699
0.85562117
0.87906894
0.89254867
0.91141724
0.72859435
0.72861872
0.72864834
0.72867912
0.72871308
0.72875088
0.72879286
0.72883941
0.72889102
0.72894822
0.72901157
0.72908165
0.72915911
0.72924458
0.72933866
0.72944189
0.72955466
0.72967705
0.72980869
0.72994841
0.73009389
0.73024099
0.73038295
0.7305094
0.73060493
0.73064776
0.73060755
0.73044437
0.73010874
0.7295423
0.72868018
0.72745851
0.72581192
0.72369428
0.72105311
0.7178463
0.71401255
0.70953929
0.70435725
0.69837938
0.69159362
0.68399766
0.67564574
0.66667457
0.6573282
0.64796445
0.63910907
0.63143942
0.62585485
0.62311627
0.62418904
0.6298466
0.64083717
0.65677551
0.67748532
0.70228439
0.7294988
0.75737341
0.78568183
0.81179461
0.83770556
0.85877935
0.88076622
0.89345181
0.91135518
0.73006301
0.73008192
0.73010481
0.73012885
0.73015547
0.73018525
0.73021847
0.73025552
0.73029685
0.73034296
0.73039441
0.7304518
0.73051581
0.73058715
0.73066659
0.73075489
0.73085281
0.73096098
0.73107982
0.73120936
0.73134894
0.73149684
0.73164966
0.73180152
0.73194302
0.73205983
0.73213121
0.73212813
0.73201182
0.73173336
0.73123458
0.73045154
0.72931883
0.72777684
0.72577208
0.72326309
0.72021897
0.71660983
0.7123498
0.70738678
0.7016657
0.695135
0.68779986
0.67972214
0.67108597
0.66223821
0.65368413
0.64619384
0.6405893
0.63791572
0.6391733
0.64529401
0.6563645
0.67225799
0.69304812
0.71677841
0.74221542
0.76814771
0.79417022
0.81843338
0.84251695
0.86215217
0.88278792
0.89471163
0.9117544
0.73147416
0.73148788
0.73150442
0.73152202
0.7315416
0.7315636
0.73158826
0.73161593
0.73164698
0.73168186
0.73172106
0.73176516
0.73181478
0.73187063
0.73193352
0.7320043
0.73208391
0.7321733
0.73227341
0.73238505
0.73250874
0.73264454
0.73279171
0.73294818
0.73310991
0.73326983
0.73341672
0.7335341
0.73359832
0.73357702
0.73342831
0.73310094
0.73253747
0.73167718
0.7304625
0.72883862
0.72674811
0.72414202
0.72095863
0.71712568
0.71254239
0.70712011
0.70079609
0.69356793
0.68558496
0.67715625
0.66884556
0.66143187
0.65594045
0.65351682
0.655274
0.66163098
0.67273419
0.68898232
0.7090397
0.73103009
0.7547553
0.77849677
0.80261508
0.82503831
0.84748294
0.8657664
0.8851621
0.89633678
0.91260285
0.73273248
0.73274176
0.73275288
0.73276492
0.73277837
0.73279354
0.73281064
0.73282993
0.73285172
0.73287635
0.73290427
0.73293597
0.73297203
0.73301307
0.73305972
0.73311275
0.73317311
0.73324179
0.73331983
0.73340838
0.73350872
0.73362219
0.73374974
0.73389182
0.73404823
0.73421761
0.73439698
0.73458095
0.73476064
0.7349225
0.73504668
0.73510564
0.73506387
0.73487599
0.73448785
0.73383774
0.7328543
0.73145481
0.72953856
0.72698868
0.72365895
0.71939536
0.71407848
0.7076451
0.70020974
0.6920917
0.68393327
0.67668887
0.6714869
0.66962937
0.67180759
0.67837251
0.69018916
0.70605028
0.72449032
0.74507984
0.7667948
0.78864725
0.81092006
0.83170315
0.85262518
0.86964122
0.88789878
0.89834873
0.91391553
0.73380188
0.7338075
0.73381428
0.73382165
0.73382993
0.73383932
0.73384996
0.73386203
0.73387574
0.73389143
0.73390951
0.73393013
0.73395337
0.73397963
0.73400981
0.73404503
0.73408636
0.73413487
0.73419164
0.73425744
0.73433283
0.73441919
0.73451892
0.73463452
0.73476831
0.7349229
0.73510105
0.73530531
0.73553845
0.73580255
0.73609836
0.73642554
0.73677859
0.73714343
0.73749135
0.73777242
0.73790736
0.73777923
0.73723832
0.7360991
0.73412229
0.73108442
0.72675692
0.72108624
0.71410634
0.70626169
0.69835894
0.69142306
0.68684682
0.68568986
0.68830453
0.69600739
0.7078481
0.72254292
0.73964251
0.75859143
0.77841754
0.7985497
0.8191914
0.83844631
0.85796506
0.87379775
0.89100134
0.90074826
0.91568398
0.73472214
0.73472454
0.73472746
0.73473066
0.73473429
0.73473846
0.73474331
0.73474894
0.7347555
0.73476316
0.73477207
0.73478235
0.73479433
0.73480862
0.73482595
0.7348469
0.73487171
0.73490071
0.73493493
0.73497613
0.73502611
0.73508572
0.73515643
0.73524091
0.73534294
0.73546858
0.73562477
0.73581844
0.73605897
0.73635928
0.73673524
0.7372089
0.73780212
0.73852979
0.73940106
0.74040155
0.74146943
0.74248239
0.74324349
0.74347504
0.74284647
0.74100847
0.73768996
0.73271458
0.72622926
0.71880818
0.71128799
0.70521254
0.70180467
0.70139431
0.70554571
0.71371086
0.72468829
0.7383115
0.75434486
0.77133422
0.7896897
0.8082981
0.82743683
0.84528988
0.86351497
0.87823948
0.89447373
0.90353961
0.91790323
0.73552284
0.73552167
0.73552031
0.73551886
0.73551732
0.73551581
0.73551448
0.73551335
0.73551248
0.73551194
0.73551192
0.73551303
0.73551528
0.73551732
0.73551863
0.73552063
0.73552481
0.73553273
0.7355465
0.7355674
0.73559584
0.73563168
0.73567592
0.73573278
0.73580758
0.73590613
0.73603681
0.73621085
0.7364428
0.73675072
0.73715804
0.7376981
0.73840802
0.73932596
0.74049434
0.74192595
0.74359265
0.74538203
0.74710849
0.7484345
0.74895652
0.74819991
0.7458054
0.74160341
0.73576674
0.7290939
0.72290268
0.71858133
0.71617482
0.71763403
0.7226548
0.73029765
0.74065744
0.75343841
0.76788768
0.78371625
0.8007008
0.81790933
0.83568911
0.85224919
0.86928309
0.88297351
0.8983126
0.90672182
0.92056884
0.73621903
0.73621362
0.73620725
0.73620056
0.73619333
0.73618544
0.73617691
0.73616788
0.73615841
0.73614848
0.73613813
0.73612745
0.73611646
0.73610528
0.7360942
0.73608367
0.73607457
0.73606804
0.7360648
0.73606631
0.73607533
0.73609335
0.73612065
0.7361603
0.73621769
0.73629858
0.73641089
0.73656668
0.73678332
0.73708202
0.73748958
0.73803804
0.73876802
0.7397332
0.7409891
0.74257278
0.74450486
0.74670195
0.74897615
0.75101467
0.75232679
0.75240208
0.75081734
0.74744311
0.7429143
0.73811678
0.73405741
0.73094055
0.73065357
0.73339384
0.73817333
0.74589287
0.75577653
0.76754017
0.78104657
0.79569634
0.81145779
0.8274209
0.84396274
0.8593362
0.87527561
0.88800097
0.90251468
0.91029292
0.92367315
0.73663126
0.73662174
0.73661054
0.73659873
0.73658587
0.73657155
0.73655555
0.73653834
0.73652085
0.73650311
0.73648462
0.73646528
0.73644523
0.73642452
0.73640318
0.73638151
0.73635998
0.73633923
0.73632043
0.73630568
0.73629763
0.73629885
0.73631101
0.73633559
0.73637835
0.73644889
0.73655489
0.73670377
0.73690945
0.7371991
0.73759871
0.73813409
0.7388539
0.7398094
0.74106251
0.74266762
0.74462428
0.74691244
0.74934512
0.75162206
0.75330026
0.75395843
0.75339862
0.75163493
0.74912578
0.7464897
0.74399122
0.74309757
0.74466082
0.74751489
0.75290498
0.76043386
0.76996122
0.78102263
0.79364593
0.8073257
0.82202044
0.83685644
0.85227713
0.86656244
0.88149614
0.89332238
0.90707356
0.91424607
0.927207
0.73657756
0.7365655
0.73655133
0.73653638
0.73652018
0.73650256
0.73648344
0.73646272
0.73644043
0.73641668
0.73639155
0.73636517
0.73633773
0.73630952
0.73628093
0.73625252
0.73622501
0.73619934
0.7361766
0.7361581
0.73614646
0.73614616
0.73615965
0.73618536
0.73622598
0.73629197
0.73639301
0.73653746
0.73673753
0.73700601
0.73737231
0.73787511
0.73854884
0.73943894
0.74058502
0.74204179
0.74385711
0.746007
0.74838666
0.75076511
0.75287812
0.75445743
0.75523709
0.75523402
0.7548169
0.75388893
0.75349931
0.7548924
0.75704724
0.76087438
0.76679525
0.77420943
0.78335457
0.79391494
0.8058476
0.81867265
0.83241615
0.84624236
0.8606483
0.87393721
0.88794688
0.8989373
0.91198495
0.91858411
0.9311632
0.73576827
0.73575677
0.73574324
0.73572896
0.73571351
0.7356967
0.73567852
0.73565894
0.73563797
0.73561563
0.73559202
0.73556726
0.73554156
0.7355152
0.7354886
0.73546233
0.7354371
0.73541367
0.73539325
0.73537796
0.73536976
0.73537021
0.73538184
0.73540788
0.73545287
0.73552355
0.73562504
0.73576008
0.73594483
0.73621207
0.73657262
0.7370381
0.73764996
0.73845268
0.73950902
0.7408609
0.74254542
0.7445892
0.7469571
0.74957251
0.75225747
0.75480176
0.75697506
0.75881229
0.75996442
0.76089754
0.76296965
0.76547012
0.76865165
0.77350651
0.77963872
0.78717935
0.79617073
0.8063407
0.81768154
0.82977279
0.84268351
0.85560404
0.86909224
0.88146907
0.89463102
0.90484473
0.91724205
0.92329768
0.93552426
0.73430446
0.73429573
0.73428548
0.73427466
0.73426298
0.73425031
0.73423663
0.73422196
0.73420632
0.73418976
0.73417237
0.73415431
0.7341358
0.73411718
0.73409891
0.7340816
0.73406601
0.73405313
0.73404428
0.73404101
0.73404501
0.73405866
0.7340852
0.73412786
0.73418699
0.73426472
0.73437303
0.73453462
0.73475007
0.73501367
0.7353561
0.73581879
0.73643456
0.73722457
0.73822961
0.73952986
0.74118777
0.7432529
0.74577899
0.74877533
0.75216446
0.75573534
0.75931979
0.76239568
0.76500998
0.76827009
0.77173947
0.77525396
0.77977168
0.78526123
0.79187759
0.79960334
0.80849229
0.81836375
0.82922504
0.84068297
0.85285822
0.86496634
0.87762471
0.88916786
0.90155142
0.91104366
0.92283825
0.92837938
0.94028599
0.73226185
0.73225649
0.73225023
0.73224368
0.73223667
0.73222916
0.73222117
0.73221276
0.732204
0.73219501
0.73218595
0.73217704
0.73216856
0.7321609
0.73215466
0.73215059
0.73214966
0.73215307
0.73216226
0.73217909
0.73220592
0.73224528
0.7322975
0.73236511
0.7324526
0.73257318
0.73274104
0.73294987
0.73321152
0.73355071
0.73397102
0.73449275
0.73515419
0.73599645
0.73706923
0.73843726
0.74018899
0.74243823
0.74531208
0.74886451
0.75302113
0.75761902
0.76212802
0.76621705
0.77080376
0.77553425
0.77993345
0.78480435
0.79029212
0.79652105
0.80359599
0.81154072
0.82041917
0.83007292
0.84053621
0.85144753
0.86297574
0.87435423
0.88626283
0.89703922
0.90870811
0.91752863
0.92876996
0.9338109
0.94546042
0.7297846
0.72978184
0.7297787
0.72977552
0.72977227
0.72976898
0.72976574
0.72976266
0.7297599
0.72975768
0.72975627
0.72975602
0.72975743
0.72976109
0.72976779
0.72977851
0.72979451
0.72981735
0.72984899
0.72989145
0.72994657
0.73001689
0.73010766
0.73022917
0.73038747
0.73058292
0.73082598
0.73112373
0.73148027
0.73191479
0.73244635
0.73309409
0.73388413
0.73485021
0.73605485
0.73759255
0.73959568
0.74223522
0.74565759
0.74988545
0.75486983
0.76018704
0.76534539
0.77102722
0.77697734
0.78247342
0.78811244
0.79410641
0.80049076
0.8074002
0.8149465
0.82314348
0.83205304
0.84154455
0.85167972
0.86211697
0.87307205
0.88379266
0.89502074
0.90509109
0.91610605
0.92429576
0.93503319
0.93958543
0.95101674
0.72676629
0.72676526
0.72676425
0.72676344
0.72676291
0.72676278
0.72676321
0.72676441
0.72676663
0.72677024
0.72677565
0.72678344
0.72679429
0.7268091
0.72682896
0.72685525
0.72688969
0.7269344
0.72699186
0.72706475
0.7271572
0.72727449
0.72742411
0.7276105
0.72783692
0.72811205
0.72844521
0.72884681
0.72932772
0.72989962
0.73057748
0.73137786
0.73233022
0.73349149
0.7349477
0.73682837
0.73931004
0.74257454
0.74669484
0.75169205
0.75736738
0.7631279
0.76956703
0.7764363
0.78303683
0.78961494
0.79637736
0.80329958
0.81049495
0.81805192
0.82605366
0.83450836
0.84348224
0.85285594
0.86271608
0.87273793
0.88318229
0.89330672
0.90391499
0.9133336
0.92374945
0.93134135
0.94162213
0.94569872
0.95693852
0.72294724
0.72294815
0.72294953
0.72295139
0.72295396
0.72295744
0.7229621
0.72296823
0.72297627
0.7229867
0.72300017
0.72301747
0.72303957
0.72306769
0.72310332
0.72314831
0.72320489
0.72327577
0.7233642
0.72347443
0.72361154
0.72378004
0.72398628
0.72423755
0.72454135
0.72490717
0.72534444
0.7258638
0.72647618
0.72719283
0.72803041
0.72902146
0.73021605
0.73169057
0.7335704
0.73602277
0.73922503
0.74328994
0.74823377
0.75404555
0.76017141
0.76704282
0.77455542
0.78201489
0.78949809
0.79708321
0.80473439
0.81250476
0.82044602
0.82860038
0.8370351
0.84574577
0.85479865
0.8640819
0.87370607
0.88335816
0.89334171
0.90292138
0.91296056
0.9217762
0.93163593
0.93867243
0.94852588
0.95214563
0.9632189
0.71793835
0.71794264
0.71794811
0.71795448
0.71796217
0.71797151
0.71798289
0.71799675
0.71801368
0.71803436
0.71805967
0.71809066
0.71812862
0.71817514
0.71823212
0.71830189
0.71838722
0.71849148
0.71861861
0.71877327
0.71896089
0.71918776
0.7194612
0.71978906
0.72018073
0.72064597
0.72119402
0.72183627
0.72258859
0.72347332
0.7245217
0.72578285
0.72733655
0.72930286
0.73183763
0.73510559
0.73922766
0.74423521
0.75013536
0.75654109
0.76366915
0.77167182
0.77978384
0.78801186
0.79635045
0.80478435
0.81328348
0.82183419
0.83045588
0.83916211
0.84799974
0.8569518
0.86608623
0.87529427
0.88470808
0.89402359
0.90358486
0.91266134
0.92217359
0.93042576
0.93977057
0.94627944
0.95573745
0.95891514
0.96983569
0.71134625
0.71135607
0.7113682
0.71138181
0.71139763
0.71141617
0.71143795
0.7114636
0.71149388
0.71152972
0.71157225
0.71162283
0.71168311
0.71175504
0.71184099
0.71194374
0.71206662
0.71221358
0.71238929
0.71259892
0.71284868
0.713146
0.7134984
0.71391419
0.71440284
0.71497616
0.71564956
0.71644097
0.71737448
0.71848657
0.71983354
0.72150014
0.72360579
0.72629835
0.72973122
0.73401916
0.73920384
0.74528405
0.75201308
0.75938961
0.76775168
0.77641678
0.78523744
0.7943337
0.80354399
0.81282302
0.82211643
0.83138934
0.840637
0.84984723
0.85905165
0.86822228
0.87742864
0.88656361
0.89577978
0.90477998
0.91394586
0.92255082
0.93156746
0.93929582
0.9481473
0.95416903
0.96324112
0.96600655
0.97676068
0.70281063
0.70282844
0.70285013
0.70287407
0.7029014
0.70293288
0.70296919
0.70301114
0.70305974
0.70311618
0.70318187
0.7032585
0.70334805
0.70345298
0.70357598
0.70371976
0.70388857
0.70408807
0.70432286
0.70459769
0.7049191
0.70529532
0.70573614
0.70625207
0.70685533
0.7075618
0.70839268
0.70937789
0.71056144
0.71200791
0.71380958
0.71608914
0.71899355
0.72266743
0.72722212
0.73269777
0.73908733
0.74621072
0.75396725
0.76270787
0.77192862
0.78136899
0.79114852
0.80112305
0.81119277
0.82128347
0.83132944
0.84127485
0.85109493
0.86075956
0.87028893
0.87964631
0.88890417
0.8979568
0.90697599
0.91567057
0.92445696
0.93261368
0.94115954
0.94839068
0.95677344
0.96233836
0.97102947
0.9733821
0.9840184
0.69195335
0.69198166
0.69201588
0.69205332
0.69209564
0.6921439
0.69219891
0.69226169
0.69233344
0.69241536
0.69250829
0.69261386
0.6927385
0.69288664
0.69305547
0.69324754
0.69347027
0.69372894
0.69402927
0.69437796
0.69478247
0.69525166
0.69579694
0.69643272
0.69717778
0.69805796
0.69910994
0.7003863
0.70196162
0.70393767
0.70644362
0.70962685
0.71362999
0.71855399
0.72444877
0.73128042
0.73890806
0.74719185
0.75643271
0.76624039
0.77634615
0.78683444
0.79757321
0.80845867
0.81939023
0.83027568
0.84103716
0.85160505
0.86194211
0.87200616
0.88181039
0.89131263
0.9005897
0.90953861
0.91834917
0.92673759
0.93515006
0.94287142
0.95095991
0.95772058
0.96565001
0.97080431
0.97910311
0.98120586
0.99150454
0.6786189
0.67866151
0.67870896
0.67875675
0.67880996
0.67887497
0.67895687
0.67905211
0.67915369
0.67926419
0.67939
0.67953418
0.67969921
0.67988814
0.68010433
0.68035158
0.6806358
0.68096343
0.68133947
0.68177169
0.68227148
0.68285212
0.68353075
0.68433061
0.68528385
0.68643547
0.68784812
0.68960708
0.69182311
0.69463078
0.69817594
0.70259618
0.70798533
0.71438781
0.72178148
0.72998121
0.73889429
0.7487554
0.75925616
0.77010405
0.78137427
0.79293899
0.80468462
0.81650438
0.82829071
0.83994273
0.85137462
0.86250864
0.87330017
0.88370051
0.89371992
0.90331473
0.91256717
0.92137904
0.92995692
0.93802581
0.94605747
0.95334806
0.96098243
0.96728698
0.97476177
0.97952704
0.98740385
0.98913991
0.99909462
0.66278611
0.66284425
0.66290371
0.66296343
0.66303377
0.66311574
0.66321012
0.66331981
0.6634478
0.66359635
0.66376835
0.66396533
0.66418607
0.6644305
0.66470169
0.66500583
0.66535125
0.66574587
0.66619804
0.66671859
0.66732164
0.66802611
0.66885791
0.66985313
0.67106225
0.67255519
0.67442652
0.67679857
0.67981953
0.68365273
0.68845106
0.69433345
0.70134363
0.70946563
0.71848224
0.72835213
0.73913383
0.75058911
0.76238081
0.77458655
0.78709773
0.79980054
0.8125895
0.82535246
0.83797945
0.85036441
0.86241767
0.87405818
0.88523854
0.89590812
0.90607844
0.91570735
0.92488445
0.93351896
0.94183219
0.94956109
0.95719739
0.96405344
0.97123241
0.97709829
0.98412279
0.98859085
0.99606534
0.99798238
1.0082323
0.64408746
0.64415684
0.64424195
0.64433424
0.64443678
0.64455151
0.64467952
0.644822
0.64498068
0.64515802
0.64535674
0.64557969
0.64583027
0.64611258
0.64643163
0.64679356
0.64720607
0.647679
0.64822517
0.64886166
0.64961157
0.65050655
0.65159004
0.65292143
0.65458075
0.65667293
0.65932979
0.66270715
0.66697361
0.67228788
0.67876989
0.68647954
0.69536088
0.70530396
0.7162475
0.72814973
0.74071695
0.75360641
0.76690557
0.7805117
0.79430921
0.80819376
0.82205044
0.83576153
0.84921205
0.86229402
0.87491613
0.88699816
0.89849298
0.90935328
0.91959289
0.92917804
0.93820517
0.94659592
0.95458373
0.96192214
0.96911738
0.97550601
0.98219415
0.98760319
0.99413017
0.99831568
1.0051406
1.0077305
1.0152807
0.62415595
0.62424168
0.62434643
0.62445478
0.62457429
0.62470756
0.62485582
0.62502078
0.62520454
0.62540958
0.62563882
0.6258958
0.62618485
0.62651138
0.62688229
0.62730651
0.62779582
0.62836592
0.62903799
0.6298408
0.63081346
0.63200895
0.63349819
0.63537424
0.63775557
0.64078647
0.64463208