/*--------------------------------*- C++ -*----------------------------------*\
  =========                 |
  \\      /  F ield         | OpenFOAM: The Open Source CFD Toolbox
   \\    /   O peration     | Website:  https://openfoam.org
    \\  /    A nd           | Version:  13
     \\/     M anipulation  |
\*---------------------------------------------------------------------------*/
FoamFile
{
    format      ascii;
    class       volScalarField;
    location    "1.601597";
    object      p;
}
// * * * * * * * * * * * * * * * * * * * * * * * * * * * * * * * * * * * * * //

dimensions      [0 2 -2 0 0 0 0];

internalField   nonuniform List<scalar> 
17140
(
-0.36184366
-0.3620016
-0.36219155
-0.36238329
-0.36258941
-0.36281282
-0.36305368
-0.36331248
-0.36358977
-0.36388593
-0.36420116
-0.36453562
-0.3648896
-0.36526389
-0.36566027
-0.36608242
-0.36653702
-0.36703534
-0.36759505
-0.36824242
-0.36901445
-0.36996077
-0.37114503
-0.37264576
-0.37455589
-0.37697239
-0.37999392
-0.38373273
-0.38830363
-0.39380814
-0.40032971
-0.40791619
-0.41655531
-0.42613918
-0.43641417
-0.44691749
-0.45688253
-0.46511259
-0.4700945
-0.47005966
-0.45960686
-0.43813557
-0.40381773
-0.35049865
-0.28173866
-0.201319
-0.11843005
-0.042953306
0.016163244
0.056208761
0.077806992
0.085582142
0.084268867
0.077755018
0.068690742
0.058618168
0.048447746
0.038733525
0.029813904
0.021955683
0.015318698
0.0098034054
0.0055643859
0.0019901082
-0.00019755115
-0.36557042
-0.36572609
-0.36591307
-0.36610217
-0.36630551
-0.36652591
-0.36676354
-0.36701887
-0.36729241
-0.36758447
-0.36789521
-0.36822468
-0.36857306
-0.36894096
-0.36932998
-0.36974354
-0.37018802
-0.37067435
-0.37121984
-0.37185041
-0.37260272
-0.37352623
-0.37468453
-0.37615627
-0.3780348
-0.38041805
-0.38340583
-0.38711126
-0.3916507
-0.39712795
-0.40362909
-0.41120537
-0.41984891
-0.42945768
-0.43978598
-0.45037973
-0.4604846
-0.46893625
-0.47417229
-0.47400384
-0.4641401
-0.44325087
-0.40857563
-0.3553357
-0.28619628
-0.20512588
-0.12152331
-0.045349564
0.01420973
0.054541604
0.07627485
0.084173553
0.083002223
0.076658912
0.067777476
0.057882834
0.047873552
0.038295875
0.029488806
0.021714379
0.015140419
0.0096695901
0.0054651764
0.0019131061
-0.00025084252
-0.3744686
-0.37461873
-0.37479866
-0.37498142
-0.37517808
-0.37539129
-0.37562121
-0.37586828
-0.37613291
-0.37641529
-0.37671543
-0.37703318
-0.37736843
-0.37772144
-0.37809333
-0.37848695
-0.37890798
-0.37936655
-0.37987912
-0.38047074
-0.38117736
-0.38204793
-0.3831459
-0.38455027
-0.38635526
-0.38866113
-0.39157044
-0.39519837
-0.39966499
-0.40507956
-0.41153444
-0.41908899
-0.42774553
-0.437415
-0.44786785
-0.45866712
-0.46907695
-0.47795636
-0.48368621
-0.48395982
-0.47537601
-0.45518984
-0.42012857
-0.36698458
-0.29693585
-0.21428231
-0.12895502
-0.051104591
0.009556438
0.050574145
0.072644767
0.080846085
0.080016149
0.074076367
0.065623294
0.056144548
0.046512365
0.037255545
0.02871371
0.021140275
0.014717405
0.0093544512
0.0052318298
0.0017323408
-0.0003814224
-0.38846654
-0.38860784
-0.38877657
-0.3889492
-0.38913517
-0.38933687
-0.38955449
-0.38978837
-0.39003878
-0.39030578
-0.39058911
-0.39088832
-0.39120292
-0.39153259
-0.39187777
-0.39224045
-0.39262525
-0.3930411
-0.39350315
-0.39403517
-0.39467196
-0.39546172
-0.39646772
-0.39776945
-0.39946256
-0.40165092
-0.40444151
-0.40795286
-0.41231094
-0.41763382
-0.42402395
-0.431554
-0.44024317
-0.45002351
-0.46069133
-0.47183941
-0.48276413
-0.4923547
-0.49896794
-0.50023831
-0.49298485
-0.47388505
-0.439165
-0.38583105
-0.31438177
-0.22914028
-0.14101504
-0.060431752
0.0020688151
0.044198542
0.066865081
0.075591922
0.075333356
0.07004234
0.062260306
0.053424491
0.044372492
0.035611003
0.027478476
0.020221778
0.01403785
0.008847304
0.0048559597
0.0014430476
-0.00058523357
-0.40727039
-0.40739954
-0.40755294
-0.4077116
-0.40788281
-0.40806864
-0.40826928
-0.40848498
-0.40871586
-0.40896174
-0.4092221
-0.40949612
-0.40978277
-0.41008112
-0.41039072
-0.41071247
-0.41104972
-0.41140985
-0.41180639
-0.41226143
-0.41280835
-0.41349435
-0.41438251
-0.41555304
-0.41710347
-0.4191426
-0.42178348
-0.42514936
-0.42937438
-0.43458875
-0.44090895
-0.44842617
-0.45718322
-0.46714182
-0.47813442
-0.48979589
-0.50146922
-0.51208493
-0.52000247
-0.52282985
-0.517362
-0.49981489
-0.46594773
-0.4123972
-0.33909603
-0.25020087
-0.15811467
-0.073627479
-0.0084543573
0.035278124
0.058877596
0.068421441
0.069007394
0.064626195
0.057752646
0.049770683
0.041483507
0.033377876
0.025785518
0.018956847
0.013098336
0.0081449581
0.0043344871
0.0010402022
-0.00087434778
-0.43033277
-0.43044652
-0.43058059
-0.43072141
-0.43087379
-0.43103937
-0.43121836
-0.4314109
-0.43161695
-0.43183608
-0.43206749
-0.43230995
-0.4325619
-0.43282168
-0.43308796
-0.43336045
-0.43364105
-0.43393549
-0.43425544
-0.43462114
-0.43506431
-0.43563106
-0.43638425
-0.43740504
-0.43879334
-0.44066399
-0.44313772
-0.44634432
-0.4504281
-0.45553474
-0.46179882
-0.4693355
-0.47821838
-0.48844828
-0.49990597
-0.5122833
-0.52498628
-0.53700375
-0.54672176
-0.55172715
-0.54870063
-0.53340744
-0.50097457
-0.44734271
-0.3718049
-0.27811973
-0.18077132
-0.091119318
-0.022307837
0.023641218
0.048609415
0.059348567
0.061105973
0.057915442
0.052182707
0.045247362
0.037887477
0.030580177
0.023645144
0.017346189
0.011895182
0.0072424597
0.003663546
0.0005235399
-0.0012385544
-0.45684524
-0.45694075
-0.45705333
-0.4571725
-0.45730193
-0.45744294
-0.45759568
-0.45776018
-0.45793621
-0.45812315
-0.4583199
-0.45852487
-0.45873602
-0.45895102
-0.45916767
-0.45938457
-0.45960226
-0.4598248
-0.46006203
-0.46033231
-0.46066567
-0.46110712
-0.46171938
-0.46258477
-0.46380607
-0.4655051
-0.46781184
-0.47086422
-0.47481905
-0.47984058
-0.48608567
-0.49369893
-0.50279212
-0.51341501
-0.52550976
-0.53884223
-0.552902
-0.56675898
-0.57885477
-0.58676546
-0.58701374
-0.57488824
-0.54470882
-0.49136003
-0.41330529
-0.31362742
-0.20952758
-0.11333598
-0.039786584
0.0091267126
0.036004927
0.048405528
0.051713068
0.050011064
0.045644899
0.039930899
0.033637041
0.02724981
0.021078037
0.015399223
0.010431949
0.0061403841
0.0028414569
-0.00011219956
-0.0016937336
-0.48574282
-0.48581725
-0.48590543
-0.48599938
-0.486102
-0.48621432
-0.48633641
-0.4864682
-0.48660931
-0.48675893
-0.48691575
-0.48707791
-0.48724297
-0.48740813
-0.48757049
-0.48772778
-0.48787938
-0.48802798
-0.48818181
-0.48835756
-0.48858377
-0.48890445
-0.48938236
-0.49010134
-0.4911674
-0.49270841
-0.49486613
-0.49779138
-0.50165289
-0.50663419
-0.51292065
-0.52069106
-0.53010271
-0.5412643
-0.55419311
-0.56874764
-0.58452486
-0.60070476
-0.61582101
-0.62745984
-0.63197788
-0.62414961
-0.59731083
-0.54490467
-0.46423271
-0.35737033
-0.24473566
-0.14052417
-0.061072798
-0.0083461981
0.021073543
0.035664168
0.040933181
0.041022866
0.038238527
0.033903369
0.028795787
0.023426741
0.018110629
0.013129974
0.0087148105
0.0048409222
0.0018697613
-0.00086267379
-0.0022241586
-0.51571963
-0.51577045
-0.51583124
-0.51589682
-0.51596922
-0.51604916
-0.51613665
-0.51623151
-0.51633325
-0.51644096
-0.5165532
-0.51666795
-0.5167826
-0.51689408
-0.51699914
-0.51709498
-0.51718029
-0.51725683
-0.51733172
-0.51742043
-0.51755039
-0.51776497
-0.51812716
-0.51872255
-0.51966076
-0.52107554
-0.5231215
-0.52596452
-0.52978607
-0.53479097
-0.5411964
-0.54921981
-0.55907047
-0.5709251
-0.58488896
-0.60093107
-0.61878073
-0.63776229
-0.65654138
-0.67275293
-0.68260235
-0.68032627
-0.6581333
-0.60766182
-0.52456239
-0.40943819
-0.28631141
-0.17259997
-0.086075649
-0.028692385
0.0039401518
0.021262662
0.028902556
0.03107142
0.030066294
0.027245693
0.023432045
0.019160481
0.014775818
0.010558955
0.006755386
0.0033499592
0.00074972943
-0.0017319899
-0.0028477023
-0.54528089
-0.54530619
-0.54533735
-0.54537211
-0.5454116
-0.54545621
-0.54550588
-0.54556036
-0.54561909
-0.5456811
-0.54574495
-0.54580863
-0.54586959
-0.54592478
-0.545971
-0.54600542
-0.54602659
-0.546036
-0.54604035
-0.54605456
-0.54610558
-0.54623656
-0.5465111
-0.54701668
-0.54786675
-0.54920108
-0.55118464
-0.55400102
-0.55784921
-0.56295265
-0.56955935
-0.57793028
-0.58832975
-0.60100895
-0.61617105
-0.63391094
-0.65411039
-0.67626913
-0.69922361
-0.72069836
-0.73678419
-0.74119004
-0.7249367
-0.67770083
-0.59275425
-0.46873672
-0.33334956
-0.20902186
-0.1143193
-0.051589922
-0.015123661
0.0054205362
0.01579425
0.020289881
0.02123256
0.020041275
0.017608482
0.01450405
0.011109715
0.0077103506
0.0045686079
0.001676581
-0.00051177797
-0.0027114616
-0.0035437285
-0.57282583
-0.57282473
-0.57282512
-0.57282776
-0.57283283
-0.57284036
-0.57285023
-0.57286211
-0.57287543
-0.57288922
-0.57290214
-0.57291235
-0.57291755
-0.57291507
-0.57290214
-0.57287643
-0.57283698
-0.57278577
-0.57272985
-0.57268445
-0.57267676
-0.57275038
-0.5729698
-0.57342447
-0.57423152
-0.57553664
-0.57751352
-0.58036196
-0.58429823
-0.58956417
-0.59643665
-0.60522022
-0.61623627
-0.62981092
-0.64624751
-0.66576947
-0.68842155
-0.71389483
-0.74121719
-0.76822778
-0.79095391
-0.80263171
-0.7931983
-0.75059936
-0.66485943
-0.53287221
-0.38358716
-0.24874483
-0.14491731
-0.07644871
-0.035697075
-0.011564878
0.0018166408
0.0088252012
0.011842447
0.012377609
0.011389973
0.0095109551
0.0071515908
0.0046121661
0.0021730409
-0.00016781645
-0.0019096177
-0.0038028595
-0.0043293277
-0.59677164
-0.59674454
-0.5967145
-0.59668522
-0.5966559
-0.5966262
-0.59659592
-0.59656471
-0.59653193
-0.5964967
-0.59645781
-0.59641374
-0.59636261
-0.59630237
-0.59623102
-0.59614717
-0.59605092
-0.59594536
-0.59583863
-0.59574695
-0.5956984
-0.59573741
-0.59592962
-0.59636665
-0.59716911
-0.59848776
-0.60050313
-0.60342587
-0.6074934
-0.61297067
-0.62014743
-0.62936363
-0.64098891
-0.65542049
-0.67305484
-0.69423823
-0.7191697
-0.74771776
-0.77909749
-0.81126612
-0.84023445
-0.85890461
-0.85636765
-0.81932488
-0.73453067
-0.59683046
-0.43433516
-0.28901234
-0.17662781
-0.10248279
-0.057244261
-0.029338762
-0.012794343
-0.0031645985
0.0020100262
0.0043373192
0.004847334
0.0042347489
0.0029425614
0.0012947764
-0.00040990525
-0.0021682527
-0.0034321071
-0.0049934743
-0.0051803159
-0.61571332
-0.61566235
-0.61560423
-0.61554529
-0.61548379
-0.61541901
-0.61535069
-0.61527837
-0.61520139
-0.61511892
-0.61502991
-0.61493316
-0.61482729
-0.61471096
-0.61458312
-0.61444356
-0.61429378
-0.61413838
-0.61398712
-0.6138578
-0.61377993
-0.61379934
-0.61398311
-0.61442455
-0.61524717
-0.61660344
-0.61866956
-0.62178384
-0.62598549
-0.63158843
-0.63901127
-0.64858729
-0.66071321
-0.67583594
-0.69442084
-0.71691069
-0.74362784
-0.77458376
-0.8091474
-0.84538056
-0.87932338
-0.90377587
-0.90729461
-0.87636847
-0.79488303
-0.65482269
-0.48334685
-0.32768123
-0.20796889
-0.12869587
-0.079132875
-0.047504998
-0.027782427
-0.015509847
-0.0081456346
-0.0039916952
-0.0019489909
-0.001270319
-0.0014747271
-0.0022093953
-0.0031567716
-0.0043086209
-0.0050704112
-0.006281954
-0.0061126711
-0.62859693
-0.62852574
-0.62844367
-0.62835916
-0.62826964
-0.62817406
-0.62807201
-0.62796292
-0.62784607
-0.62772064
-0.62758572
-0.62744035
-0.62728364
-0.62711489
-0.62693399
-0.6267419
-0.62654151
-0.62633901
-0.62614582
-0.62598129
-0.62587633
-0.62587787
-0.6260538
-0.62649785
-0.62733498
-0.6287315
-0.63085163
-0.6337773
-0.6381224
-0.64410417
-0.65164774
-0.66143719
-0.67382655
-0.68931128
-0.70839676
-0.73158912
-0.75928753
-0.79159847
-0.82800757
-0.86667968
-0.90377738
-0.93219238
-0.94069034
-0.91602843
-0.83966448
-0.70088263
-0.51942148
-0.36013648
-0.23664191
-0.15397079
-0.10070395
-0.065652072
-0.04288568
-0.028036027
-0.018500795
-0.012514446
-0.0089297286
-0.0069492749
-0.0060566607
-0.0058664074
-0.006041957
-0.0065695342
-0.0068090571
-0.0076523243
-0.0071001562
-0.63483336
-0.63474756
-0.6346479
-0.63454429
-0.6344335
-0.63431414
-0.63418565
-0.63404731
-0.63389825
-0.63373757
-0.63356437
-0.63337777
-0.6331771
-0.63296207
-0.63273309
-0.63249185
-0.6322421
-0.63199094
-0.63175063
-0.63154112
-0.63139345
-0.63135397
-0.63148931
-0.6318914
-0.632682
-0.63401754
-0.63608037
-0.63910645
-0.64342727
-0.64894943
-0.65652586
-0.66653275
-0.67895255
-0.69443743
-0.71349205
-0.73665341
-0.76436163
-0.79677832
-0.83346117
-0.87271569
-0.91089856
-0.9412174
-0.95334532
-0.93455397
-0.86462397
-0.72857785
-0.54923565
-0.38715777
-0.26231554
-0.17760801
-0.12140492
-0.083399436
-0.057850296
-0.04056031
-0.028922557
-0.021136818
-0.016023932
-0.012746482
-0.0107589
-0.0096412035
-0.0090388038
-0.0089313234
-0.0086358722
-0.0091002618
-0.0081551662
-0.63449045
-0.63439685
-0.63428711
-0.63417241
-0.63404889
-0.63391483
-0.6337695
-0.63361199
-0.63344125
-0.63325622
-0.63305585
-0.63283919
-0.63260554
-0.63235464
-0.63208703
-0.63180457
-0.6315112
-0.63121413
-0.63092554
-0.63066491
-0.63046217
-0.63036181
-0.63042766
-0.6307483
-0.6314421
-0.63266089
-0.63458502
-0.6374707
-0.64144366
-0.647078
-0.65469784
-0.6639696
-0.67580617
-0.69069329
-0.70901287
-0.73129209
-0.75796217
-0.78920091
-0.82461443
-0.86267573
-0.90001681
-0.93047122
-0.94497948
-0.931742
-0.86848812
-0.73951802
-0.56913489
-0.40546907
-0.28366703
-0.19876765
-0.14070868
-0.10038654
-0.072418099
-0.052897035
-0.039277904
-0.029761174
-0.023158964
-0.018605762
-0.015536639
-0.013497781
-0.012119034
-0.011371498
-0.010532126
-0.010607618
-0.0092491661
-0.6282896
-0.62819426
-0.62808025
-0.62796248
-0.62783486
-0.62769531
-0.62754302
-0.62737692
-0.62719577
-0.62699828
-0.6267832
-0.62654934
-0.62629576
-0.62602194
-0.62572808
-0.6254156
-0.62508785
-0.62475115
-0.62441627
-0.62410059
-0.62383095
-0.62364742
-0.62360805
-0.62379433
-0.62431698
-0.62532105
-0.62698546
-0.62955063
-0.63322148
-0.63823422
-0.6447683
-0.65340993
-0.66441611
-0.67808308
-0.69503903
-0.71565209
-0.74033732
-0.76928496
-0.8021599
-0.83764032
-0.87275221
-0.90217761
-0.91839586
-0.90988286
-0.85243224
-0.73124266
-0.56834648
-0.41684896
-0.30024666
-0.21697454
-0.15826154
-0.11630043
-0.086352466
-0.064872228
-0.049435735
-0.038289934
-0.030261651
-0.024470631
-0.020344891
-0.017399705
-0.015254013
-0.013867803
-0.01248277
-0.012167214
-0.01039256
-0.61725953
-0.61716914
-0.6170593
-0.61694695
-0.61682444
-0.61668947
-0.6165412
-0.6163784
-0.61619966
-0.61600346
-0.61578825
-0.6155525
-0.6152948
-0.61501397
-0.61470938
-0.61438129
-0.61403138
-0.61366366
-0.61328559
-0.61290987
-0.61255674
-0.61225722
-0.61205723
-0.6120226
-0.61224481
-0.61284675
-0.61398593
-0.61586075
-0.61869947
-0.62275947
-0.6283669
-0.63585193
-0.64534988
-0.65743394
-0.6724168
-0.69068861
-0.71264634
-0.73849067
-0.76798443
-0.8000771
-0.83229008
-0.86028432
-0.87798903
-0.8730157
-0.82070919
-0.70892351
-0.55936315
-0.42063064
-0.31192188
-0.23202422
-0.17374304
-0.1308799
-0.099450258
-0.076324042
-0.059271785
-0.0466281
-0.037259434
-0.030284781
-0.025138731
-0.021310179
-0.018414075
-0.016395628
-0.014466736
-0.013759031
-0.011557111
-0.60304996
-0.60297024
-0.60287299
-0.6027729
-0.602663
-0.60254114
-0.60240638
-0.60225741
-0.60209272
-0.60191063
-0.60170938
-0.60148712
-0.60124194
-0.60097202
-0.60067577
-0.60035204
-0.60000059
-0.59962257
-0.59922146
-0.59880423
-0.59838314
-0.59797811
-0.59761997
-0.59735475
-0.59724894
-0.59739561
-0.59792065
-0.59898777
-0.60080167
-0.60360078
-0.6076701
-0.6132931
-0.62083301
-0.63060366
-0.64294929
-0.65826649
-0.67692032
-0.69914771
-0.72486492
-0.75329343
-0.78260739
-0.80943685
-0.82850346
-0.82564664
-0.77711739
-0.67469482
-0.54108009
-0.41809892
-0.31924152
-0.24388285
-0.18700524
-0.14395907
-0.11154607
-0.087112379
-0.06867283
-0.054685803
-0.04408179
-0.035992705
-0.02987371
-0.025192583
-0.021569838
-0.018930913
-0.016466954
-0.015372068
-0.01274624
-0.58707235
-0.58700668
-0.58692631
-0.58684307
-0.58675105
-0.58664834
-0.586534
-0.58640677
-0.58626512
-0.58610738
-0.58593169
-0.58573601
-0.58551813
-0.58527571
-0.58500633
-0.58470761
-0.58437742
-0.58401417
-0.58361728
-0.58318788
-0.58272977
-0.58225093
-0.58176553
-0.58129682
-0.58088109
-0.58057305
-0.58045259
-0.5806326
-0.58126725
-0.58255643
-0.5847534
-0.588147
-0.59308251
-0.59991204
-0.60903114
-0.62085322
-0.63578047
-0.65413724
-0.67604511
-0.70101033
-0.72805048
-0.75429238
-0.77445535
-0.77217564
-0.72528501
-0.6330125
-0.51779856
-0.41125992
-0.32285739
-0.25273582
-0.19804115
-0.15544118
-0.12252101
-0.097123852
-0.077540457
-0.062380963
-0.050661767
-0.041540433
-0.034506154
-0.029010501
-0.024691393
-0.021448087
-0.018462086
-0.016985054
-0.013935385
-0.57073022
-0.57068033
-0.57061906
-0.57055515
-0.57048397
-0.57040397
-0.57031427
-0.57021372
-0.57010093
-0.56997434
-0.56983215
-0.56967233
-0.56949256
-0.5692902
-0.56906234
-0.56880569
-0.56851669
-0.56819152
-0.56782621
-0.5674168
-0.56695964
-0.56645182
-0.56589186
-0.56528091
-0.56462473
-0.56393699
-0.56324473
-0.56259672
-0.56207535
-0.56181078
-0.56199698
-0.56290146
-0.56487121
-0.56832327
-0.57373449
-0.58162717
-0.59253182
-0.60696235
-0.62522713
-0.64736522
-0.67303918
-0.69905283
-0.71980173
-0.71555538
-0.67095566
-0.591327
-0.49262258
-0.40124671
-0.32345075
-0.25891006
-0.20691954
-0.16529374
-0.13230069
-0.10627277
-0.085792938
-0.069640979
-0.056937279
-0.04687632
-0.038993639
-0.03272819
-0.02774938
-0.023922579
-0.020432944
-0.01858488
-0.01510642
-0.5549509
-0.55491702
-0.55487521
-0.5548312
-0.55478171
-0.55472557
-0.55466205
-0.5545902
-0.55450885
-0.55441663
-0.55431197
-0.554193
-0.55405749
-0.55390284
-0.55372593
-0.55352306
-0.55328983
-0.553021
-0.55271027
-0.55235007
-0.55193119
-0.55144237
-0.55086983
-0.55019678
-0.54940324
-0.5484668
-0.54736522
-0.54608315
-0.54462845
-0.54304102
-0.54141997
-0.53997395
-0.53902866
-0.53904449
-0.54061252
-0.54443145
-0.55127358
-0.56189881
-0.57702369
-0.59718255
-0.62220184
-0.64804604
-0.66788264
-0.65792664
-0.61644876
-0.54921094
-0.46984885
-0.38993899
-0.32165403
-0.26280325
-0.21381264
-0.17354969
-0.14085549
-0.11450299
-0.093366674
-0.076404033
-0.062852241
-0.051951805
-0.043295278
-0.036310665
-0.030714522
-0.026328312
-0.022360781
-0.020142176
-0.01628169
-0.54039955
-0.54038111
-0.5403581
-0.54033339
-0.54030504
-0.54027229
-0.54023456
-0.54019113
-0.54014107
-0.54008331
-0.5400165
-0.53993905
-0.53984895
-0.5397438
-0.53962066
-0.53947556
-0.53930358
-0.53909886
-0.53885379
-0.53855858
-0.53820051
-0.53776296
-0.53722406
-0.53655499
-0.5357182
-0.53466575
-0.53333977
-0.53168023
-0.52961459
-0.52709089
-0.52414482
-0.52089626
-0.51760221
-0.51472556
-0.51294483
-0.51314761
-0.51637886
-0.52369989
-0.53631788
-0.555449
-0.57957529
-0.60380682
-0.61892741
-0.60464158
-0.56745079
-0.51057212
-0.44483075
-0.37815705
-0.31808152
-0.26471972
-0.21891715
-0.18028562
-0.14819091
-0.1217844
-0.10021551
-0.082619497
-0.068357301
-0.05672208
-0.047372113
-0.039724313
-0.033558236
-0.028642168
-0.024220504
-0.021676292
-0.017309733
-0.52747801
-0.52747392
-0.52746838
-0.52746158
-0.52745286
-0.52744182
-0.52742805
-0.52741102
-0.52739004
-0.5273643
-0.52733271
-0.5272939
-0.52724639
-0.52718859
-0.52711644
-0.52702447
-0.52690935
-0.52676603
-0.52658544
-0.52635631
-0.52606409
-0.52568929
-0.52520581
-0.52457866
-0.52376124
-0.52269232
-0.52129302
-0.5194711
-0.51712969
-0.5141713
-0.51052657
-0.50625105
-0.50153898
-0.496812
-0.49276713
-0.490432
-0.49096603
-0.49619183
-0.5076566
-0.52533021
-0.54660997
-0.56633951
-0.57211039
-0.55713026
-0.52132971
-0.47974192
-0.42222945
-0.36628586
-0.31341674
-0.26508452
-0.22245232
-0.18561468
-0.15434365
-0.12810997
-0.10630966
-0.088247841
-0.073410197
-0.06114657
-0.051187366
-0.042936862
-0.036253108
-0.030835735
-0.025995618
-0.023109234
-0.018234388
-0.51671024
-0.51671857
-0.51672809
-0.51673672
-0.51674484
-0.51675237
-0.51675901
-0.51676439
-0.51676805
-0.51676932
-0.51676734
-0.51676092
-0.51674847
-0.51672781
-0.516696
-0.51664946
-0.51658336
-0.51649111
-0.51636402
-0.51619069
-0.51595594
-0.51563945
-0.51521395
-0.5146433
-0.51387977
-0.51286184
-0.51150577
-0.50970759
-0.50736867
-0.50433657
-0.50054259
-0.49602098
-0.49088931
-0.48552039
-0.48061535
-0.47719687
-0.47697429
-0.48132385
-0.4909973
-0.50564345
-0.52229682
-0.53556773
-0.53397657
-0.5193026
-0.48387649
-0.45023277
-0.40264494
-0.35475776
-0.30806863
-0.26426312
-0.2246538
-0.18966958
-0.159372
-0.13349119
-0.11163356
-0.093259861
-0.077975662
-0.06518927
-0.054706698
-0.045918472
-0.038772917
-0.032890671
-0.02767551
-0.024482667
-0.019183426
-0.5087152
-0.50873235
-0.50875253
-0.50877206
-0.50879203
-0.5088126
-0.50883354
-0.50885458
-0.50887538
-0.5088954
-0.5089139
-0.5089298
-0.50894161
-0.5089473
-0.5089441
-0.50892833
-0.50889512
-0.50883802
-0.50874854
-0.50861554
-0.50842434
-0.50815548
-0.50778292
-0.50727446
-0.50660064
-0.50569557
-0.50444673
-0.5027671
-0.50064128
-0.49795799
-0.49454276
-0.49043219
-0.48580978
-0.48096601
-0.47656431
-0.47360265
-0.47307821
-0.47613869
-0.48335609
-0.49361148
-0.50380269
-0.50752606
-0.50125801
-0.48529807
-0.45889215
-0.42551107
-0.38548785
-0.34388833
-0.30232964
-0.26251382
-0.22572145
-0.19257835
-0.16334409
-0.13795242
-0.11618314
-0.097635425
-0.082024946
-0.068818736
-0.057898208
-0.048640752
-0.04109087
-0.034780597
-0.029233919
-0.025724689
-0.019903363
-0.50425836
-0.50427845
-0.50430168
-0.50432504
-0.50434932
-0.50437466
-0.50440094
-0.50442795
-0.50445542
-0.5044829
-0.50450974
-0.50453498
-0.50455729
-0.5045748
-0.50458501
-0.50458456
-0.50456905
-0.50453268
-0.50446796
-0.50436518
-0.50421177
-0.50399145
-0.50368342
-0.50326088
-0.50268411
-0.50190762
-0.50093964
-0.49975303
-0.49806606
-0.49578305
-0.49302372
-0.48981831
-0.48626301
-0.48253796
-0.47904606
-0.4764708
-0.47569933
-0.47740152
-0.48139547
-0.48654969
-0.48970769
-0.48704755
-0.47821085
-0.45681156
-0.43520698
-0.40544226
-0.37073422
-0.33391895
-0.29653859
-0.26012164
-0.22586149
-0.19447444
-0.16633589
-0.14152734
-0.11996328
-0.10136199
-0.085535097
-0.072007914
-0.060732463
-0.051077832
-0.043180434
-0.036491493
-0.030667961
-0.026900716
-0.020476222
-0.50360633
-0.50362315
-0.50364239
-0.50366197
-0.50368235
-0.50370364
-0.50372573
-0.50374844
-0.50377152
-0.50379459
-0.50381708
-0.50383817
-0.50385672
-0.50387116
-0.50387942
-0.50387873
-0.50386553
-0.50383522
-0.50378198
-0.50369841
-0.50357511
-0.50339941
-0.50315977
-0.50283781
-0.502443
-0.50194983
-0.50119865
-0.50012823
-0.4988646
-0.49736027
-0.49545061
-0.49315604
-0.49052032
-0.48768265
-0.48497095
-0.48278278
-0.48149116
-0.48121439
-0.48143766
-0.48138817
-0.47754105
-0.47001408
-0.45788571
-0.43974416
-0.41666609
-0.38919434
-0.35804864
-0.32480553
-0.29077934
-0.25723203
-0.22521772
-0.19546879
-0.16841898
-0.14425298
-0.12298465
-0.10443283
-0.088488074
-0.074733581
-0.063182574
-0.053204172
-0.045016097
-0.037993305
-0.031985592
-0.027846407
-0.020898847
-0.50601587
-0.50602574
-0.50603693
-0.50604814
-0.5060596
-0.50607131
-0.5060831
-0.50609477
-0.50610603
-0.50611647
-0.50612552
-0.50613241
-0.50613609
-0.50613519
-0.50612792
-0.506112
-0.50608453
-0.50604183
-0.50597896
-0.50589116
-0.50578096
-0.50562921
-0.50545651
-0.50524454
-0.50486313
-0.5043382
-0.50377019
-0.50307561
-0.50217149
-0.50105038
-0.49966823
-0.49800949
-0.49610585
-0.49402321
-0.49184703
-0.48962794
-0.48728917
-0.48459472
-0.48113027
-0.47581197
-0.46842854
-0.45717118
-0.44081542
-0.4231962
-0.40115599
-0.37557261
-0.3470177
-0.31652242
-0.28515772
-0.25398622
-0.22391969
-0.19566176
-0.16966074
-0.14616716
-0.12526131
-0.10684536
-0.090869784
-0.076975781
-0.065223937
-0.05499592
-0.046572108
-0.039268309
-0.033128031
-0.028532668
-0.020856967
-0.51057981
-0.51058243
-0.51058508
-0.51058726
-0.51058889
-0.51058979
-0.51058973
-0.51058837
-0.5105853
-0.51057998
-0.5105717
-0.51055956
-0.51054238
-0.51051869
-0.51048664
-0.51044392
-0.51038768
-0.51031439
-0.51022003
-0.51010284
-0.50995355
-0.50977586
-0.50956995
-0.50929112
-0.50891839
-0.50847337
-0.50795311
-0.50732943
-0.50658286
-0.50570224
-0.50467024
-0.50346728
-0.50207375
-0.50040827
-0.4983161
-0.49546886
-0.4915836
-0.4865081
-0.47978429
-0.47055688
-0.45988137
-0.44541245
-0.4295975
-0.41071961
-0.38887051
-0.36431682
-0.33744763
-0.30896171
-0.27967331
-0.25044713
-0.22204941
-0.19512866
-0.17011727
-0.14730429
-0.12680806
-0.1085995
-0.092669142
-0.078717045
-0.066833907
-0.056428492
-0.047822336
-0.040297346
-0.034046913
-0.029009511
-0.021575138
-0.51689477
-0.51689114
-0.51688632
-0.51688043
-0.51687306
-0.51686387
-0.51685247
-0.51683838
-0.51682099
-0.51679955
-0.51677309
-0.51674044
-0.51670011
-0.5166503
-0.51658877
-0.51651283
-0.51641924
-0.51630427
-0.51616401
-0.51599292
-0.51577651
-0.51551746
-0.51521634
-0.51485781
-0.51444346
-0.51396606
-0.51342177
-0.51281326
-0.51214077
-0.51139489
-0.51057554
-0.50961441
-0.50839867
-0.50653317
-0.50370353
-0.49999485
-0.49464832
-0.48713474
-0.47749558
-0.46640037
-0.45257931
-0.43678137
-0.41937427
-0.40007013
-0.37843463
-0.3546194
-0.32895944
-0.30197414
-0.27430069
-0.24665106
-0.21966471
-0.19392685
-0.16983387
-0.14769382
-0.12763865
-0.10969629
-0.093877289
-0.079942351
-0.067992707
-0.05748008
-0.048743203
-0.041046181
-0.034670566
-0.028932711
-0.022705753
-0.52516405
-0.52515443
-0.52514238
-0.52512854
-0.52511219
-0.52509279
-0.52506977
-0.52504247
-0.52501004
-0.52497146
-0.52492548
-0.52487056
-0.52480485
-0.52472607
-0.52463151
-0.52451795
-0.52438164
-0.52421825
-0.52402296
-0.5237905
-0.52351539
-0.52319324
-0.52281871
-0.52238733
-0.5218996
-0.52136092
-0.52077507
-0.52014675
-0.51948676
-0.51878188
-0.51800754
-0.51680591
-0.51499008
-0.51286276
-0.50949963
-0.50388129
-0.49631423
-0.48663194
-0.47518942
-0.46172278
-0.44630658
-0.42991301
-0.41149215
-0.39146646
-0.36968379
-0.34621972
-0.32132878
-0.29541576
-0.26897594
-0.24259234
-0.21679038
-0.19209106
-0.16884216
-0.14735806
-0.12776409
-0.11013663
-0.094486612
-0.08063829
-0.068682337
-0.058133466
-0.04932014
-0.041599882
-0.035037878
-0.030651361
-0.021861922
-0.53603553
-0.53601882
-0.53599822
-0.535975
-0.53594809
-0.5359167
-0.5358801
-0.5358374
-0.53578753
-0.53572917
-0.53566077
-0.53558043
-0.53548592
-0.53537456
-0.53524319
-0.53508818
-0.53490534
-0.53469003
-0.53443723
-0.53414175
-0.53379858
-0.53340371
-0.53295515
-0.53245277
-0.53189844
-0.53129583
-0.53064528
-0.52999832
-0.52929822
-0.52838575
-0.52717319
-0.52573077
-0.52365667
-0.52005162
-0.51459094
-0.50719108
-0.49768179
-0.486013
-0.47298774
-0.45760188
-0.44135991
-0.42367492
-0.40450619
-0.38394509
-0.36196276
-0.33866345
-0.31426846
-0.28911954
-0.26361521
-0.2382421
-0.21342889
-0.18963777
-0.16716082
-0.14631144
-0.12719156
-0.10992042
-0.094490375
-0.080793232
-0.068886462
-0.058362623
-0.049503721
-0.041719325
-0.034987311
-0.030649087
-0.021645535
-0.55021152
-0.55018568
-0.5501541
-0.55011898
-0.55007874
-0.55003235
-0.5499789
-0.54991726
-0.54984611
-0.54976385
-0.54966862
-0.54955821
-0.54943002
-0.54928103
-0.54910776
-0.54890625
-0.54867211
-0.54840067
-0.54808721
-0.54772718
-0.54731665
-0.54685258
-0.54633223
-0.54575611
-0.54514171
-0.54447875
-0.54375107
-0.5429179
-0.54187995
-0.54063585
-0.53904317
-0.53659446
-0.53282217
-0.52746843
-0.5201744
-0.51080849
-0.49935224
-0.48637163
-0.47118308
-0.4550014
-0.4373561
-0.41860531
-0.39857633
-0.37735694
-0.35501809
-0.33168321
-0.30755215
-0.28292135
-0.25811561
-0.23354664
-0.20955965
-0.18656497
-0.16479543
-0.14456003
-0.12592369
-0.10904571
-0.093882051
-0.080397104
-0.06859589
-0.058156799
-0.049324463
-0.041456559
-0.034841805
-0.02972579
-0.022772832
-0.568097
-0.56805979
-0.56801463
-0.56796485
-0.56790833
-0.56784376
-0.56777002
-0.56768578
-0.56758943
-0.56747914
-0.56735273
-0.56720773
-0.56704124
-0.56684999
-0.56663027
-0.56637804
-0.56608894
-0.56575827
-0.565381
-0.56495262
-0.56447174
-0.56393892
-0.56334117
-0.56268441
-0.56194549
-0.56108495
-0.56011858
-0.55900061
-0.55756864
-0.55559887
-0.55280645
-0.54882186
-0.54326631
-0.53582417
-0.52635024
-0.51489085
-0.5016091
-0.48680284
-0.47038851
-0.45284638
-0.43401836
-0.41411034
-0.39316272
-0.37125076
-0.3484706
-0.32497154
-0.30094176
-0.27664803
-0.25236067
-0.22843473
-0.20514404
-0.1828548
-0.16173937
-0.14210158
-0.12395841
-0.10750865
-0.092654913
-0.079442283
-0.067797388
-0.057514321
-0.048723137
-0.040900403
-0.034187783
-0.028886381
-0.021440579
-0.59021734
-0.59016688
-0.59010599
-0.59003935
-0.58996425
-0.58987909
-0.58978257
-0.58967314
-0.58954899
-0.58940804
-0.58924789
-0.5890658
-0.58885869
-0.58862304
-0.58835476
-0.58804951
-0.58770363
-0.58731176
-0.58686544
-0.58636629
-0.58582092
-0.58518255
-0.5844267
-0.58359441
-0.58266945
-0.58157632
-0.58022434
-0.57848781
-0.57616161
-0.57296584
-0.5685636
-0.56259837
-0.55478864
-0.54498326
-0.53319512
-0.51960175
-0.50447542
-0.48768093
-0.47000023
-0.4509844
-0.43091759
-0.40989785
-0.38799721
-0.36533288
-0.34203327
-0.31826621
-0.29421444
-0.27012394
-0.24622176
-0.22281876
-0.20012663
-0.17847434
-0.15797391
-0.13892485
-0.12128771
-0.10530169
-0.090800852
-0.077919808
-0.066483099
-0.056426321
-0.047722804
-0.040035079
-0.033337121
-0.027960087
-0.022030182
-0.61640414
-0.61633807
-0.61625962
-0.6161743
-0.61607874
-0.61597104
-0.61584976
-0.61571322
-0.61555939
-0.61538595
-0.61519027
-0.61496954
-0.61472028
-0.61443591
-0.61411238
-0.61375662
-0.61336747
-0.61290767
-0.61236006
-0.61175299
-0.61108809
-0.61034223
-0.60946883
-0.60841377
-0.60713887
-0.60555438
-0.60350854
-0.60079736
-0.59715103
-0.59224772
-0.58576078
-0.57742023
-0.56709326
-0.55474374
-0.5405957
-0.52492512
-0.50768856
-0.48933823
-0.46985534
-0.44934226
-0.42791494
-0.40568058
-0.3827574
-0.35928389
-0.33540595
-0.31130145
-0.28714655
-0.26317039
-0.23956378
-0.21660214
-0.19444235
-0.17338188
-0.15347365
-0.13501413
-0.11790143
-0.10241663
-0.088312475
-0.075821802
-0.064645028
-0.054888432
-0.04631661
-0.038928542
-0.032215868
-0.027625942
-0.021550099
-0.64621337
-0.64613154
-0.64603291
-0.64592913
-0.64581358
-0.64568381
-0.64553825
-0.64537504
-0.64519221
-0.64498745
-0.64475792
-0.64449716
-0.64419753
-0.64387456
-0.64354134
-0.64316876
-0.64273433
-0.64221708
-0.64158192
-0.64083756
-0.64000042
-0.63903084
-0.63785889
-0.63641112
-0.63458329
-0.63221835