/*--------------------------------*- C++ -*----------------------------------*\
  =========                 |
  \\      /  F ield         | OpenFOAM: The Open Source CFD Toolbox
   \\    /   O peration     | Website:  https://openfoam.org
    \\  /    A nd           | Version:  13
     \\/     M anipulation  |
\*---------------------------------------------------------------------------*/
FoamFile
{
    format      ascii;
    class       surfaceScalarField;
    location    "1.601597";
    object      phi;
}
// * * * * * * * * * * * * * * * * * * * * * * * * * * * * * * * * * * * * * //

dimensions      [0 3 -1 0 0 0 0];

internalField   nonuniform List<scalar> 
34068
(
-2.5403191e-07
1.8824667e-07
6.5785241e-08
-1.1234126e-06
6.4427482e-07
2.2510589e-07
-2.8056188e-06
1.2466843e-06
4.3552189e-07
-5.5486587e-06
2.0329118e-06
7.1012804e-07
-9.6623921e-06
3.0487879e-06
1.0649455e-06
-1.5531735e-05
4.3499223e-06
1.5194203e-06
-2.3631934e-05
6.0032397e-06
2.0969594e-06
-3.4545898e-05
8.0884974e-06
2.8254664e-06
-4.8983407e-05
1.069968e-05
3.7378287e-06
-6.7801779e-05
1.3946078e-05
4.8722941e-06
-9.2027176e-05
1.7952759e-05
6.272638e-06
-0.0001228753
2.2860126e-05
7.9880022e-06
-0.00016176962
2.8822076e-05
1.0072243e-05
-0.00021035456
3.6002309e-05
1.2582631e-05
-0.00027050054
4.4568277e-05
1.5577697e-05
-0.00034429707
5.46824e-05
1.9114137e-05
-0.00043403032
6.6490536e-05
2.3242706e-05
-0.00054214193
8.0108263e-05
2.8003347e-05
-0.00067116843
9.5606469e-05
3.342003e-05
-0.00082366393
0.00011299916
3.9496346e-05
-0.0010021148
0.00013223759
4.6213267e-05
-0.0012088614
0.00015321577
5.3530863e-05
-0.0014460485
0.00017579161
6.1395508e-05
-0.0017156256
0.0001998243
6.9752801e-05
-0.0020194115
0.00022522176
7.8564122e-05
-0.0023592149
0.00025198212
8.7821278e-05
-0.0027369722
0.00028020624
9.755104e-05
-0.0031548341
0.00031005972
0.00010780214
-0.0036151718
0.00034171288
0.00011862486
-0.0041204555
0.0003752453
0.00013003837
-0.0046729977
0.00041054575
0.00014199649
-0.005274559
0.00044721061
0.00015435066
-0.0059257963
0.00048443424
0.00016680307
-0.0066255454
0.00052089571
0.00017885342
-0.0073699423
0.00055463444
0.00018976246
-0.0081512764
0.00058280034
0.0001985338
-0.0089560526
0.00060099551
0.00020378063
-0.0097612759
0.00060204543
0.00020317794
-0.010528235
0.00057454708
0.00019241206
-0.011197842
0.00050404458
0.00016556276
-0.011705465
0.00038554247
0.00012208057
-0.01195348
0.00019404999
5.3964069e-05
-0.011809368
-9.6212695e-05
-4.7899135e-05
-0.011150383
-0.0004773029
-0.00018168156
-0.0098577012
-0.00094775374
-0.00034492831
-0.0078565429
-0.0014747041
-0.00052645423
-0.0051464075
-0.0020028282
-0.00070730716
-0.0018094904
-0.0024699358
-0.00086698127
0.0020083127
-0.002828895
-0.00098890819
0.006149769
-0.003069565
-0.0010718913
0.010499309
-0.0032233559
-0.0011261841
0.015007778
-0.0033393365
-0.0011691324
0.019686342
-0.003462028
-0.0012165358
0.024582674
-0.0036183082
-0.0012780241
0.029752525
-0.0038142508
-0.0013555997
0.035239152
-0.0040412803
-0.0014453476
0.041066257
-0.0042862316
-0.0015408735
0.047244574
-0.0045410041
-0.0016373122
0.05378721
-0.0048085187
-0.0017341179
0.06072495
-0.0051021069
-0.0018356326
0.068115774
-0.0054414912
-0.001949333
0.076046676
-0.0058473073
-0.0020835953
0.08462432
-0.0063333497
-0.0022442941
0.093973712
-0.0069133187
-0.0024360729
-0.0075954066
0.10422888
-0.0026597573
-2.5485236e-07
4.4309903e-07
-1.1271015e-06
1.516524e-06
-2.8149411e-06
2.9345239e-06
-5.5673923e-06
4.785363e-06
-9.6956203e-06
7.1770159e-06
-1.5586229e-05
1.0240532e-05
-2.3716653e-05
1.4133663e-05
-3.4672628e-05
1.9044473e-05
-4.916762e-05
2.5194672e-05
-6.8063738e-05
3.2842196e-05
-9.2393408e-05
4.2282429e-05
-0.00012338048
5.3847199e-05
-0.00016245904
6.7900634e-05
-0.00021128724
8.4830514e-05
-0.00027175315
0.00010503418
-0.00034596872
0.00012889797
-0.00043624811
0.00015676993
-0.00054506724
0.0001889274
-0.00067500348
0.00022554271
-0.00082865788
0.00026665356
-0.0010085685
0.00031214818
-0.0012171295
0.00036177686
-0.0014565384
0.00041520046
-0.0017287919
0.00047207782
-0.002035748
0.00053217785
-0.0023792457
0.00059547978
-0.0027612457
0.00066220623
-0.0031839229
0.00073273693
-0.0036496779
0.00080746787
-0.0041610197
0.00088658713
-0.0047203149
0.00096984097
-0.0053294038
0.0010562995
-0.005989061
0.0011440914
-0.0066982489
0.0012300837
-0.0074530871
0.0013094727
-0.0082454286
0.0013751418
-0.0090607939
0.0014163607
-0.0098749871
0.0014162386
-0.01065032
0.0013498796
-0.011334521
0.0011882461
-0.011850633
0.00090165435
-0.012090644
0.00043406143
-0.011931429
-0.00025542849
-0.011239307
-0.0011694241
-0.0098905321
-0.002296529
-0.0078102531
-0.0035549831
-0.0050039437
-0.0048091377
-0.0015628805
-0.0059109989
0.0023469241
-0.0067386996
0.0065661641
-0.007288805
0.010975499
-0.0076326907
0.015528141
-0.0078919788
0.020241017
-0.0081749038
0.025168615
-0.0085459057
0.030373444
-0.0090190803
0.035904802
-0.0095726378
0.041791112
-0.010172542
0.048045932
-0.010795824
0.054683183
-0.01144577
0.061732866
-0.01215179
0.069251631
-0.012960255
0.077325182
-0.013920859
0.08605952
-0.015067687
0.095579373
-0.016433172
-0.01803605
0.10602002
-2.5021595e-07
6.9331498e-07
-1.1069163e-06
2.3732244e-06
-2.7651589e-06
4.5927665e-06
-5.4701e-06
7.490304e-06
-9.5281786e-06
1.1235095e-05
-1.5320294e-05
1.6032646e-05
-2.3317069e-05
2.2130438e-05
-3.4096292e-05
2.9823696e-05
-4.83623e-05
3.946068e-05
-6.6967056e-05
5.1446952e-05
-9.0932079e-05
6.6247452e-05
-0.00012147015
8.4385273e-05
-0.00016000495
0.00010643543
-0.00020818624
0.00013301181
-0.00026789742
0.00016474536
-0.00034125171
0.00020225226
-0.00043057307
0.00024609129
-0.00053835832
0.00029671265
-0.00066721888
0.00035440326
-0.000819804
0.00041923868
-0.00099871274
0.00049105692
-0.0012064092
0.00056947334
-0.0014451621
0.00065395334
-0.0017170319
0.00074394762
-0.0020239239
0.0008390698
-0.0023677034
0.0009392593
-0.0027503404
0.0010448433
-0.003174014
0.0011564105
-0.0036411367
0.0012745906
-0.0041542509
0.0013997013
-0.0047157886
0.0015313787
-0.0053277039
0.0016682148
-0.0059909552
0.0018073427
-0.0067047566
0.001943885
-0.0074654598
0.0020701759
-0.0082649142
0.0021745963
-0.0090882263
0.0022396727
-0.0099111164
0.0022391288
-0.010696933
0.0021356957
-0.011390044
0.0018813579
-0.011903981
0.0014155913
-0.012132843
0.00066292316
-0.011948509
-0.00043976235
-0.011199109
-0.0019188246
-0.0097545899
-0.0037410479
-0.0075403173
-0.0057692556
-0.0045752097
-0.0077742453
-0.00097577231
-0.0095104363
0.0030682543
-0.010782726
0.0073771159
-0.011597667
0.011830701
-0.012086276
0.016389684
-0.012450962
0.021083981
-0.012869201
0.025981782
-0.013443707
0.031158162
-0.01419546
0.036673592
-0.015088067
0.04256588
-0.01606483
0.0488549
-0.017084844
0.055556667
-0.018147537
0.062699339
-0.019294463
0.070335664
-0.020596579
0.078546986
-0.022132181
0.087435743
-0.023956444
0.097124368
-0.026121797
-0.028658873
0.10774719
-2.3975263e-07
9.3306761e-07
-1.0611677e-06
3.1946394e-06
-2.6519484e-06
6.1835472e-06
-5.2481135e-06
1.0086469e-05
-9.144854e-06
1.5131835e-05
-1.4709341e-05
2.1597133e-05
-2.2395675e-05
2.9816772e-05
-3.2761956e-05
4.0189977e-05
-4.648951e-05
5.3188235e-05
-6.4403856e-05
6.9361298e-05
-8.7496916e-05
8.9340513e-05
-0.00011694932
0.00011383767
-0.00015415127
0.00014363739
-0.00020071967
0.00017958021
-0.0002585084
0.00022253409
-0.00032960823
0.00027335209
-0.00041633207
0.00033281513
-0.00052118186
0.00040156243
-0.00064679451
0.00048001591
-0.00079586754
0.00056831171
-0.00097107042
0.0006662598
-0.0011749542
0.00077335715
-0.0014098803
0.00088887936
-0.0016779925
0.0010120598
-0.0019812549
0.0011423323
-0.0023215583
0.0012795627
-0.0027008678
0.0014241528
-0.0031213463
0.001576889
-0.0035854028
0.0017386471
-0.0040956128
0.0019099112
-0.0046544971
0.002090263
-0.0052641684
0.0022778861
-0.0059258295
0.0024690038
-0.0066390425
0.002657098
-0.0074006167
0.0028317501
-0.0082029381
0.0029769177
-0.0090316351
0.0030683698
-0.0098626392
0.0030701329
-0.010658027
0.002931084
-0.011359045
0.002582376
-0.01187881
0.0019353554
-0.012102508
0.00088662135
-0.011884765
-0.00065750509
-0.011062629
-0.0027409609
-0.0094921594
-0.0053115173
-0.0070977346
-0.0081636804
-0.0039188697
-0.01095311
-0.00010628606
-0.01332302
0.0041076823
-0.014996695
0.0085215136
-0.016011498
0.01301224
-0.016577001
0.017553172
-0.016991895
0.022194105
-0.017510133
0.027022235
-0.018271837
0.032128086
-0.019301312
0.037584875
-0.020544856
0.043441715
-0.021921669
0.049727428
-0.023370557
0.056462221
-0.024882329
0.063673096
-0.026505338
0.071408123
-0.028331607
0.079742785
-0.030466843
0.088774343
-0.032988002
0.098621999
-0.035969452
-0.039455023
0.10941815
-2.2312544e-07
1.1561931e-06
-9.8835807e-07
3.9598721e-06
-2.4715313e-06
7.6667204e-06
-4.8938931e-06
1.2508831e-05
-8.5323957e-06
1.8770338e-05
-1.3731916e-05
2.6796653e-05
-2.0919532e-05
3.7004388e-05
-3.0621066e-05
4.989151e-05
-4.3479734e-05
6.6046903e-05
-6.0276952e-05
8.6158515e-05
-8.1954555e-05
0.00011101812
-0.00010963788
0.000141521
-0.00014465801
0.00017865752
-0.00018857152
0.00022349371
-0.00024317453
0.00027713711
-0.00031050785
0.0003406854
-0.00039284849
0.00041515577
-0.00049268378
0.00050139772
-0.00061266397
0.0005999961
-0.00075553261
0.00071118035
-0.00092403797
0.00083476516
-0.0011208364
0.00097015563
-0.0013484068
0.0011164497
-0.0016090015
0.0012726545
-0.0019046613
0.0014379921
-0.0022373056
0.0016122071
-0.0026088823
0.0017957295
-0.0030215165
0.0019895232
-0.0034775939
0.0021947244
-0.0039797208
0.0024120382
-0.0045305374
0.0026410796
-0.0051323868
0.0028797355
-0.0057868338
0.0031234508
-0.0064939626
0.0033642269
-0.0072513016
0.0035890891
-0.0080521686
0.0037777847
-0.0088832452
0.0038994464
-0.0097212307
0.0039081184
-0.010527906
0.0037377593
-0.011242801
0.0032972708
-0.01177521
0.0024677642
-0.011999121
0.0011105323
-0.01175188
-0.00090474596
-0.010851228
-0.0036416126
-0.0091350279
-0.0070277173
-0.0065262248
-0.010772484
-0.0030933575
-0.014385977
0.00097103848
-0.017387416
0.0053822473
-0.019407903
0.0099119651
-0.020541216
0.014435323
-0.02110036
0.018943573
-0.021500145
0.023511596
-0.022078156
0.028248722
-0.023008963
0.033261391
-0.024313981
0.038634306
-0.025917771
0.044427038
-0.027714401
0.050678604
-0.029622124
0.057416108
-0.031619833
0.064668026
-0.033757256
0.072478878
-0.036142459
0.080918005
-0.03890597
0.090076473
-0.04214647
0.10006952
-0.0459625
-0.050411828
0.11102633
-2.000611e-07
1.3562542e-06
-8.8724461e-07
4.6470556e-06
-2.220756e-06
9.0002318e-06
-4.4011097e-06
1.4689185e-05
-7.6796301e-06
2.2048858e-05
-1.2369755e-05
3.1486779e-05
-1.8860419e-05
4.3495052e-05
-2.7631597e-05
5.8662689e-05
-3.9272268e-05
7.7687573e-05
-5.4500563e-05
0.00010138681
-7.4185966e-05
0.00013070352
-9.9372977e-05
0.00016670801
-0.00013130516
0.0002105897
-0.0001714478
0.00026363636
-0.00022150685
0.00032719616
-0.00028344065
0.0004026192
-0.00035946018
0.0004911753
-0.00045201277
0.0005939503
-0.00056374452
0.00071172785
-0.00069743822
0.00084487405
-0.00085592691
0.00099325385
-0.001041991
0.0011562198
-0.0012582554
0.001332714
-0.0015071127
0.0015215119
-0.0017907059
0.0017215852
-0.0021109929
0.0019324941
-0.0024698931
0.0021546296
-0.0028694718
0.0023891019
-0.0033120556
0.0026373082
-0.0038002595
0.0029002421
-0.0043368505
0.0031776707
-0.0049244567
0.0034673417
-0.0055651176
0.0037641117
-0.0062596217
0.004058731
-0.0070064845
0.0043359518
-0.0078003337
0.004571634
-0.0086294179
0.0047285306
-0.0094718768
0.0047505773
-0.010290086
0.0045559682
-0.011022616
0.0040298007
-0.011574239
0.0030193877
-0.01180701
0.0013433035
-0.011538283
-0.0011734734
-0.010560086
-0.0046198098
-0.0086872187
-0.0089005843
-0.0058420994
-0.013617603
-0.0021356319
-0.018092445
0.0021954356
-0.021718483
0.0068104914
-0.024022959
0.011452112
-0.025182836
0.015999053
-0.0256473
0.020465913
-0.025967005
0.024954936
-0.02656718
0.029596623
-0.027650649
0.034510701
-0.029228059
0.039790452
-0.031197523
0.045503732
-0.03342768
0.051699655
-0.035818047
0.058414611
-0.038334789
0.06568214
-0.041024785
0.073545741
-0.04400606
0.08206934
-0.047429569
0.091337493
-0.051414623
0.10146144
-0.056086449
-0.06151668
0.1125663
-1.7042492e-07
1.5266791e-06
-7.5717385e-07
5.2338045e-06
-1.8978702e-06
1.0140928e-05
-3.7661065e-06
1.6557421e-05
-6.5798549e-06
2.4862607e-05
-1.0611593e-05
3.5518516e-05
-1.6200366e-05
4.9083825e-05
-2.3766092e-05
6.6228415e-05
-3.3826279e-05
8.774776e-05
-4.7015309e-05
0.00011457584
-6.4106252e-05
0.00014779446
-8.6035033e-05
0.00018863679
-0.00011392604
0.0002384807
-0.00014911843
0.00029882875
-0.00019319057
0.00037126831
-0.00024797997
0.0004574086
-0.00031559418
0.00055878952
-0.00039840738
0.0006767635
-0.0004990359
0.00081235638
-0.00062028763
0.00096612578
-0.00076508125
0.0011380475
-0.00093633812
0.0013274766
-0.0011368605
0.0015332364
-0.0013692212
0.0017538726
-0.0016357016
0.0019880656
-0.0019383164
0.0022351089
-0.0022789474
0.0024952606
-0.0026595683
0.0027697227
-0.0030823908
0.0030601307
-0.0035499734
0.0033678247
-0.0040651673
0.0036928645
-0.0046308771
0.0040330515
-0.0052496563
0.0043828909
-0.0059230952
0.0047321699
-0.0066508654
0.005063722
-0.0074291663
0.0053499349
-0.008248208
0.0055475722
-0.0090882077
0.005590577
-0.0099130957
0.0053808561
-0.010661323
0.0047780277
-0.011233712
0.0035917769
-0.011480732
0.0015903241
-0.011198057
-0.0014561488
-0.010147024
-0.0056708429
-0.0081141793
-0.010933429
-0.0050223278
-0.016709454
-0.0010442102
-0.022070563
0.0035367451
-0.026299439
0.0083321926
-0.028818407
0.013058622
-0.029909266
0.017607993
-0.030196672
0.022025064
-0.030384076
0.026439011
-0.030981126
0.030995578
-0.032207217
0.035820757
-0.034053238
0.041011686
-0.036388451
0.046642263
-0.039058257
0.052771136
-0.04194692
0.059445569
-0.045009222
0.066707431
-0.048286647
0.074602348
-0.051900978
0.083190465
-0.056017686
0.092550304
-0.060774462
0.10278944
-0.066325583
-0.072754807
0.11402757
-1.3430393e-07
1.660983e-06
-5.9846069e-07
5.6979612e-06
-1.5035384e-06
1.1046006e-05
-2.989952e-06
1.8043835e-05
-5.2345203e-06
2.7107175e-05
-8.4590344e-06
3.8743031e-05
-1.2940674e-05
5.3565465e-05
-1.902462e-05
7.231236e-05
-2.7139081e-05
9.5862221e-05
-3.7813239e-05
0.00012525
-5.1698242e-05
0.00016167947
-6.9591371e-05
0.00020652992
-9.2463421e-05
0.00026135275
-0.00012148828
0.0003278536
-0.00015807382
0.00040785385
-0.000203891
0.00050322578
-0.00026089763
0.00061579615
-0.00033135073
0.0007472166
-0.0004177999
0.00089880554
-0.00052305252
0.0010713784
-0.00065010377
0.0012650987
-0.00080202756
0.0014794004
-0.00098183585
0.0017130447
-0.0011923289
0.0019643656
-0.0014359781
0.0022317149
-0.0017148934
0.0025140242
-0.00203092
0.0028112872
-0.0023858682
0.003124671
-0.0027817556
0.0034560181
-0.0032209712
0.0038070403
-0.0037063246
0.0041782179
-0.0042408798
0.0045676067
-0.0048276055
0.0049696166
-0.0054688194
0.0053733838
-0.0061653041
0.0057602067
-0.0069148295
0.0060994603
-0.0077096596
0.0063424023
-0.0085323853
0.0064133027
-0.009349156
0.0061976269
-0.010099246
0.0055281173
-0.010681028
0.0041735596
-0.010935531
0.0018448263
-0.010639646
-0.0017520333
-0.0095231668
-0.0067873222
-0.0073387845
-0.013117811
-0.0040061371
-0.020042102
0.00021673721
-0.026293437
0.0049994281
-0.03108213
0.0099188492
-0.033737828
0.014676273
-0.03466669
0.019190941
-0.03471134
0.023545176
-0.034738311
0.02789193
-0.03532788
0.032382529
-0.036697815
0.037138799
-0.038809509
0.042255044
-0.041504696
0.047808907
-0.044612121
0.05386815
-0.048006163
0.060491728
-0.051632801
0.067731945
-0.055526863
0.075639505
-0.059808538
0.084273177
-0.064651358
0.093707011
-0.070208297
0.1040456
-0.076664175
-0.084111181
0.11540198
-9.2162025e-08
1.753145e-06
-4.1307765e-07
6.0188769e-06
-1.0424991e-06
1.1675427e-05
-2.0816718e-06
1.9083007e-05
-3.6587107e-06
2.8684214e-05
-5.9353023e-06
4.1019622e-05
-9.1150794e-06
5.6745242e-05
-1.3453972e-05
7.6651253e-05
-1.9273136e-05
0.00010168139
-2.6974863e-05
0.00013295173
-3.7062135e-05
0.00017176674
-5.0162342e-05
0.00021963013
-6.705565e-05
0.00027824606
-8.8707813e-05
0.00034950577
-0.00011630736
0.00043545339
-0.00015130489
0.00053822332
-0.00019545143
0.00065994268
-0.00025082933
0.0008025945
-0.00031986801
0.00096784422
-0.00040533175
0.0011568421
-0.0005102671
0.0013700341
-0.00063790007
0.0016070334
-0.00079148027
0.0018666249
-0.00097408972
0.0021469751
-0.0011884576
0.0024460827
-0.0014368452
0.0027624119
-0.0017210721
0.003095514
-0.0020427238
0.0034463227
-0.0024035047
0.003816799
-0.0028054559
0.0042089915
-0.0032511018
0.0046238638
-0.0037434038
0.0050599087
-0.0042854588
0.0055116717
-0.0048799843
0.0059679093
-0.0055284904
0.0064087128
-0.0062298757
0.0068008456
-0.0069779763
0.0070905028
-0.0077573684
0.0071926948
-0.0085362062
0.0069764647
-0.0092550554
0.0062469665
-0.009811891
0.0047303952
-0.010044686
0.002077621
-0.0097209861
-0.0020757329
-0.0085488071
-0.0079595012
-0.00624288
-0.015423738
-0.002702637
-0.023582345
0.0017080682
-0.030704142
0.0066126119
-0.035986673
0.011567948
-0.038693163
0.016278605
-0.039377347
0.02070788
-0.039140615
0.024980796
-0.039011226
0.029266945
-0.039614029
0.033711505
-0.041142375
0.038421526
-0.04351953
0.043481554
-0.046564723
0.048970127
-0.050100694
0.054963442
-0.053999478
0.061532377
-0.058201735
0.068740411
-0.062734898
0.076645354
-0.067713481
0.085307243
-0.073313247
0.094797662
-0.079698716
0.10521856
-0.08708507
-0.095567649
0.11667502
-4.5008858e-08
1.7981539e-06
-2.0535587e-07
6.1792239e-06
-5.2530608e-07
1.1995378e-05
-1.061637e-06
1.9619338e-05
-1.8870785e-06
2.9509655e-05
-3.0947802e-06
4.2227324e-05
-4.8041888e-06
5.8454651e-05
-7.1687004e-06
7.9015764e-05
-1.0385805e-05
0.00010489849
-1.4710247e-05
0.00013727617
-2.0471408e-05
0.0001775279
-2.809547e-05
0.00022725419
-3.8133885e-05
0.00028828448
-5.1298716e-05
0.0003626706
-6.8505362e-05
0.00045266004
-9.0922042e-05
0.00056064
-0.00012002338
0.00068904402
-0.0001576432
0.00084021431
-0.00020601633
0.0010162174
-0.00026779646
0.0012186223
-0.00034603122
0.0014482688
-0.00044407562
0.0017050778
-0.00056543145
0.0019879807
-0.00071351719
0.0022950608
-0.00089140538
0.0026239709
-0.0011015998
0.0029726063
-0.0013459515
0.0033398658
-0.0016257965
0.0037261677
-0.0019423393
0.0041333419
-0.0022970299
0.0045636821
-0.002691773
0.0050186068
-0.0031289789
0.0054971147
-0.0036113476
0.0059940403
-0.0041413648
0.0064979265
-0.0047204808
0.0069878289
-0.0053477306
0.0074280953
-0.0060173401
0.0077601124
-0.0067144471
0.0078898019
-0.0074077426
0.0076697602
-0.0080388334
0.0068780573
-0.0085081672
0.005199729
-0.0086598429
0.0022292967
-0.0082708804
-0.0024646955
-0.0070490284
-0.0091813532
-0.0046752919
-0.017797475
-0.0010104876
-0.027247149
0.0034975458
-0.035212176
0.0084133766
-0.040902504
0.013290356
-0.043570143
0.017860005
-0.043946996
0.022146094
-0.043426704
0.026316197
-0.043181329
0.030544413
-0.043842245
0.034957109
-0.045555072
0.039638671
-0.048201091
0.044659393
-0.051585446
0.050095496
-0.055536797
0.056030038
-0.05993402
0.062545173
-0.064716869
0.069715194
-0.069904919
0.077605928
-0.075604215
0.086280973
-0.081988292
0.095811302
-0.089229044
0.10629679
-0.097570561
-0.10710525
0.1178344
5.3740921e-09
1.7927798e-06
1.6992277e-08
6.1676057e-06
2.9092396e-08
1.1983277e-05
3.3253406e-08
1.9615177e-05
1.7138647e-08
2.952577e-05
-3.7432292e-08
4.2281895e-05
-1.5742265e-07
5.8574641e-05
-3.8305281e-07
7.9241394e-05
-7.7440207e-07
0.00010528984
-1.4211097e-06
0.00013792288
-2.4562625e-06
0.00017856305
-4.0760695e-06
0.000228874
-6.5667146e-06
0.00029077512
-1.0340643e-05
0.00036644453
-1.5983192e-05
0.00045830259
-2.4311031e-05
0.00056896784
-3.6441067e-05
0.00070117406
-5.3865483e-05
0.00085763873
-7.8524591e-05
0.0010408765
-0.00011286176
0.0012529594
-0.00015983824
0.0014952453
-0.00022287902
0.0017681186
-0.00030572341
0.0020708251
-0.00041216787
0.0024015053
-0.00054572748
0.0027575305
-0.00070928769
0.0031361665
-0.00090487358
0.0035354517
-0.0011336099
0.003954904
-0.0013960254
0.0043957574
-0.001692606
0.0048602627
-0.0020242221
0.005350223
-0.0023921909
0.0058650835
-0.0027980899
0.0063999393
-0.003243261
0.0069430975
-0.0037279506
0.0074725185
-0.0042499064
0.0079500512
-0.004801898
0.0083121039
-0.0053673251
0.008455229
-0.0059134723
0.0082159073
-0.0063825087
0.0073470937
-0.0066808659
0.0054980862
-0.0066699054
0.0022183362
-0.0061570389
-0.002977562
-0.0048786835
-0.010459708
-0.0024976742
-0.020178484
0.0011590757
-0.030903899
0.0056491614
-0.039702261
0.010433998
-0.045687341
0.01509841
-0.048234556
0.019424986
-0.048273572
0.02351088
-0.047512598
0.027557053
-0.047227502
0.031725174
-0.048010366
0.036110949
-0.049940847
0.04077239
-0.052862533
0.045764747
-0.056577802
0.051159316
-0.060931366
0.05704329
-0.065817994
0.063508027
-0.071181606
0.070637512
-0.077034404
0.078505649
-0.083472352
0.087181
-0.090663643
0.096735084
-0.098783129
0.10726666
-0.10810214
-0.11870358
0.11886498
5.6522332e-08
1.7362575e-06
2.4321293e-07
5.9809151e-06
5.9414967e-07
1.1632341e-05
1.1510498e-06
1.9058277e-05
1.9644191e-06
2.8712401e-05
3.0943544e-06
4.1151959e-05
4.6108942e-06
5.7058101e-05
6.593253e-06
7.7259036e-05
9.1273477e-06
0.00010275574
1.2300585e-05
0.00013474964
1.6192466e-05
0.00017467117
2.0859361e-05
0.0002242071
2.631094e-05
0.00028532354
3.2475773e-05
0.00036027969
3.9153264e-05
0.0004516251
4.5949374e-05
0.00056217173
5.2195301e-05
0.00069492813
5.685071e-05
0.00085298332
5.8398716e-05
0.0010393285
5.4747776e-05
0.0012566104
4.3165122e-05
0.001506828
2.0277849e-05
0.0017910058
-1.7818661e-05
0.0021089216
-7.5309148e-05
0.0024589958
-0.00015625382
0.0028384752
-0.00026408115
0.0032439938
-0.00040114581
0.0036725163
-0.0005687037
0.0041224619
-0.00076665731
0.004593711
-0.00099414653
0.0050877519
-0.0012503871
0.0056064636
-0.0015348154
0.0061495117
-0.0018471127
0.0067122367
-0.0021865111
0.0072824958
-0.0025508083
0.0078368158
-0.0029347968
0.0083340396
-0.0033277287
0.0087050359
-0.0037092866
0.0088367869
-0.0040441253
0.008550746
-0.004275474
0.0075784424
-0.0043202741
0.0055428863
-0.0040666757
0.0019647377
-0.0033690867
-0.0036751509
-0.0020154299
-0.011813365
0.00032060884
-0.022514523
0.0038464273
-0.034429717
0.0081838127
-0.044039647
0.012691953
-0.050195481
0.016993369
-0.052535972
0.020978164
-0.052258367
0.024815632
-0.051350066
0.028719906
-0.051131775
0.03282066
-0.05211112
0.037174477
-0.054294665
0.041813724
-0.05750178
0.04678079
-0.061544868
0.052140962
-0.066291537
0.057981859
-0.071658892
0.064400434
-0.07760018
0.071488663
-0.084122633
0.079328106
-0.091311795
0.087992818
-0.099328355
0.097555752
-0.10834606
0.108116
-0.11866239
-0.1303434
0.11975583
1.0494136e-07
1.6313161e-06
4.5797076e-07
5.6278857e-06
1.1317933e-06
1.0958518e-05
2.2169392e-06
1.7973131e-05
3.8252934e-06
2.7104047e-05
6.0938784e-06
3.8883374e-05
9.1885936e-06
5.3963386e-05
1.3307574e-05
7.3140055e-05
1.8683408e-05
9.7379911e-05
2.5583243e-05
0.0001278498
3.4305348e-05
0.00016594907
4.5169866e-05
0.00021334258
5.8501389e-05
0.00027199202
7.4599545e-05
0.00034418154
9.3693833e-05
0.00043253081
0.00011587842
0.00053998714
0.00014102339
0.00066978317
0.00016866092
0.00082534579
0.00019785075
0.0010101386
0.00022703588
0.0012274253
0.00025391366
0.0014799502
0.00027536154
0.001769558
0.00028747301
0.0020968102
0.00028576092
0.0024607079
0.00026555925
0.0028586768
0.00022258457
0.0032869685
0.00015364604
0.0037414549
5.6275178e-05
0.0042198327
-6.6013462e-05
0.0047159996
-0.00021242603
0.0052341645
-0.00038069023
0.0057747278
-0.0005680368
0.0063368583
-0.00077128393
0.0069154838
-0.00098625987
0.0074974718
-0.0012070235
0.0080575794
-0.0014239806
0.0085509967
-0.0016215867
0.008902642
-0.0017749156
0.0089901158
-0.0018461474
0.0086219777
-0.0017816481
0.0075139432
-0.0015126709
0.0052739091
-0.00096113581
0.0014132026
-4.0390707e-05
-0.004595896
0.0014085048
-0.013262261
0.0036647176
-0.024770736
0.006981448
-0.037746448
0.011052167
-0.048110366
0.015154292
-0.054297606
0.018953704
-0.056335384
0.022516642
-0.055821306
0.026073595
-0.054907019
0.029822582
-0.054880762
0.033843818
-0.056132356
0.038152178
-0.058603025
0.042758447
-0.062108049
0.047695949
-0.06648237
0.053024396
-0.071619985
0.058827724
-0.077462219
0.065203934
-0.083976391
0.07225072
-0.091169419
0.080056537
-0.099117613
0.088700814
-0.10797263
0.098258688
-0.11790394
0.10883073
-0.12923443
-0.14200457
0.1204919
1.4732531e-07
1.4839908e-06
6.4666925e-07
5.1285418e-06
1.605624e-06
9.9995633e-06
3.158961e-06
1.6419794e-05
5.4744846e-06
2.4788523e-05
8.7596095e-06
3.559825e-05
1.3268625e-05
4.945437e-05
1.9310164e-05
6.7098517e-05
2.7254525e-05
8.943555e-05
3.7539695e-05
0.00011756463
5.06748e-05
0.00015281396
6.7238833e-05
0.00019677855
8.7871747e-05
0.00025135911
0.00011325394
0.00031879934
0.00014406922
0.00040171553
0.0001809453
0.00050311106
0.00022436602
0.00062636245
0.00027454981
0.00077516201
0.00033129361
0.00095339482
0.0003937884
0.0011649305
0.0004604259
0.0014133127
0.00052863561
0.0017013482
0.00059481396
0.0020306318
0.00065442669
0.0024010951
0.00070237137
0.0028107322
0.00073363829
0.0032557016
0.00074406414
0.003731029
0.00073139033
0.0042325065
0.00069422601
0.0047531639
0.00063568036
0.0052927101
0.00056394426
0.0058464639
0.00048381663
0.0064169859
0.00040167845
0.006997622
0.00032527557
0.0075738747
0.00026499242
0.0081178626
0.00023531355
0.0085806756
0.0002571069
0.0088808486
0.00035957084
0.0088876518
0.00058166066
0.0083998879
0.00097154709
0.0071240568
0.0015810713
0.004664385
0.0024509577
0.00054331618
0.0036086512
-0.0057535895
0.005179451
-0.014833061
0.0074188311
-0.027010116
0.010483729
-0.040811345
0.01417783
-0.051804467
0.017711964
-0.057831739
0.020921557
-0.059544977
0.024024886
-0.058924635
0.027291922
-0.058174055
0.030877117
-0.058465958
0.034803105
-0.060058343
0.039046948
-0.062846869
0.043603785
-0.066664886
0.048502356
-0.071380941
0.053797409
-0.076915038
0.05956575
-0.08323056
0.065902012
-0.090312653
0.072906798
-0.098174205
0.08067431
-0.10688512
0.089288932
-0.11658725
0.098828634
-0.12744364
0.10939635
-0.13980214
-0.15366651
0.12105828
1.7942183e-07
1.304569e-06
7.9048482e-07
4.5174788e-06
1.9685914e-06
8.8214568e-06
3.8840069e-06
1.4504379e-05
6.7496983e-06
2.1922832e-05
1.0830498e-05
3.151745e-05
1.6453429e-05
4.3831439e-05
2.4019264e-05
5.9532682e-05
3.4014713e-05
7.94401e-05
4.7024663e-05
0.00010455468
6.3743173e-05
0.00013609545
8.4981462e-05
0.00017554026
0.0001116697
0.00022467087
0.00014484918
0.00028561986
0.00018564871
0.000360916
0.00023523879
0.00045352097
0.00029475469
0.00056684655
0.00036518047
0.00070473623
0.00044718551
0.00087138978
0.00054091354
0.0010712024
0.00064573313
0.0013084931
0.00075998082
0.0015871006
0.00088075668
0.0019098559
0.0010038667
0.0022779851
0.0011240331
0.0026905657
0.001235505
0.0031442297
0.001333241
0.0036332931
0.0014157018
0.0041500457
0.0014781228
0.0046907429
0.0015241842
0.0052466487
0.0015582934
0.0058123548
0.0015902775
0.0063850018
0.0016338112
0.0069540883
0.0017012096
0.0075064763
0.0018076834
0.0080113887
0.0019725885
0.0084157705
0.0022212151
0.008632222
0.0025858503
0.0085230167
0.0031052828
0.0078804555
0.0038201267
0.0064092129
0.0047629446
0.0037215671
0.005938094
-0.0006318333
0.0073201796
-0.0071356751
0.0090393746
-0.016552256
0.011359506
-0.029330247
0.014211571
-0.04366341
0.017335159
-0.054928055
0.020243225
-0.060739805
0.02284171
-0.062143462
0.025485587
-0.061568512
0.028470407
-0.061158875
0.03188663
-0.061882181
0.035699739
-0.063871452
0.039857547
-0.067004678
0.044346805
-0.071154144
0.04919461
-0.076228745
0.054450756
-0.082171183
0.060183211
-0.088963016
0.066479808
-0.09660925
0.073440988
-0.10513538
0.081165045
-0.11460918
0.089740706
-0.12516292
0.099248878
-0.13695181
0.1097954
-0.15034867
-0.16530712
0.12143601
1.9830663e-07
1.1062623e-06
8.7628474e-07
3.8395007e-06
2.1874747e-06
7.5102668e-06
4.3255427e-06
1.236631e-05
7.5336815e-06
1.8714693e-05
1.211567e-05
2.6935462e-05
1.8448872e-05
3.7498237e-05
2.699909e-05
5.0982464e-05
3.8337181e-05
6.8102009e-05
5.3157076e-05
8.9734787e-05
7.2294246e-05
0.00011695828
9.6743222e-05
0.00015109128
0.00012767181
0.00019374228
0.00016642812
0.00024686355
0.00021453547
0.00031280865
0.00027366735
0.00039438909
0.00034559309
0.00049492081
0.00043208204
0.00061824728
0.00053475449
0.00076871733
0.00065486764
0.00095108929
0.00079303546
0.0011703253
0.00094889627
0.0014312397
0.0011207739
0.0017379783
0.00130542
0.002093339
0.0014979734
0.0024980124
0.0016922977
0.0029499053
0.0018818035
0.0034437873
0.0020602254
0.0039716238
0.002226544
0.0045244243
0.0023850058
0.005088187
0.0025382277
0.0056591328
0.0026956468
0.0062275827
0.0028693554
0.0067803797
0.0030803756
0.0072954561
0.003350041
0.0077417233
0.003702719
0.0080630925
0.0041675952
0.0081673458
0.004778534
0.0079120779
0.0055718319
0.0070871575
0.0065791561
0.0054018887
0.0078134317
0.0024872914
0.009243199
-0.0020616005
0.010826068
-0.0087185437
0.012739714
-0.018465902
0.015233496
-0.031824029
0.01801273
-0.046442644
0.02055715
-0.057472476
0.022701186
-0.062883841
0.024658766
-0.064101042
0.026875255
-0.063785001
0.029599362
-0.063882981
0.032844451
-0.065127269
0.036527124
-0.067554126
0.040578775
-0.071056328
0.04498397
-0.075559339
0.049768474
-0.081013249
0.054977192
-0.087379902
0.060669303
-0.094655127
0.066923861
-0.10286381
0.07383826
-0.11204978
0.081512803
-0.12228373
0.090039831
-0.13368994
0.099502659
-0.14641464
0.11001039
-0.16085639
-0.17690489
0.12160816
2.0379779e-07
9.0246456e-07
9.0286452e-07
3.1404339e-06
2.2584825e-06
6.1546488e-06
4.4746092e-06
1.0150184e-05
7.8081042e-06
1.5381198e-05
1.258103e-05
2.2162536e-05
1.9195269e-05
3.0883998e-05
2.8149721e-05
4.2028012e-05
4.006024e-05
5.6191489e-05
5.5682139e-05
7.4112888e-05
7.5935055e-05
9.6705365e-05
0.00010192915
0.00012509719
0.00013499117
0.00016068026
0.00017668738
0.00020516733
0.00022883904
0.00026065699
0.00029352367
0.00032970447
0.00037305232
0.00041539215
0.00046991029
0.00052138931
0.00058664433
0.00065198329
0.00072567919
0.00081205442
0.00088904766
0.0010069568
0.0010780295
0.0012422579