/*--------------------------------*- C++ -*----------------------------------*\
  =========                 |
  \\      /  F ield         | OpenFOAM: The Open Source CFD Toolbox
   \\    /   O peration     | Website:  https://openfoam.org
    \\  /    A nd           | Version:  13
     \\/     M anipulation  |
\*---------------------------------------------------------------------------*/
FoamFile
{
    format      ascii;
    class       volScalarField;
    location    "17.802386";
    object      nut;
}
// * * * * * * * * * * * * * * * * * * * * * * * * * * * * * * * * * * * * * //

dimensions      [0 2 -1 0 0 0 0];

internalField   nonuniform List<scalar> 
17140
(
6.7356196e-17
1.3099879e-14
3.4891742e-13
3.5371982e-12
2.1390406e-11
9.4760074e-11
3.4212414e-10
1.0703851e-09
3.014948e-09
7.8408859e-09
1.9159739e-08
4.4546457e-08
9.9467519e-08
2.1481501e-07
4.5116905e-07
9.2548871e-07
1.8605408e-06
3.6755208e-06
7.15047e-06
1.3720986e-05
2.5997917e-05
4.8660678e-05
8.9925288e-05
0.00016375749
0.0002926518
0.00050971689
0.00085695164
0.0013758371
0.0020905101
0.0029920452
0.0040346459
0.0048580763
0.0052064988
0.005583635
0.0059731752
0.0063665887
0.0067977185
0.0072936184
0.0078768263
0.0085784208
0.0094145615
0.01037123
0.01136505
0.011904146
0.011998805
0.012089941
0.012174966
0.012260143
0.012325604
0.012338904
0.0123102
0.01220088
0.011993737
0.011651211
0.011138302
0.010458486
0.009648223
0.0087980238
0.0079391712
0.0071732659
0.0065117365
0.0059471176
0.0053895496
0.0048295954
0.0040849196
6.6772561e-17
1.298636e-14
3.4589415e-13
3.506559e-12
2.1205214e-11
9.3940134e-11
3.3916565e-10
1.0611351e-09
2.98891e-09
7.7732076e-09
1.8994432e-08
4.4162193e-08
9.8609373e-08
2.1296055e-07
4.4726923e-07
9.174721e-07
1.8443741e-06
3.6434439e-06
7.0877104e-06
1.359971e-05
2.5766276e-05
4.8223529e-05
8.9112028e-05
0.00016227384
0.00029002321
0.00050526258
0.0008498783
0.0013655512
0.0020771263
0.0029768795
0.0040204958
0.0049412255
0.0052855231
0.0056591466
0.006061892
0.0064726506
0.0069222902
0.0074417711
0.008051913
0.0087792451
0.0096326985
0.010582685
0.011534312
0.011989009
0.012109243
0.01223128
0.012361755
0.01250076
0.012628665
0.01273195
0.012808308
0.012817842
0.012760061
0.012608863
0.01230608
0.011847563
0.01123691
0.010512282
0.0096945613
0.0088365564
0.007998401
0.007187739
0.0064460438
0.0057412908
0.0049944618
6.5488952e-17
1.2736713e-14
3.3924475e-13
3.4391511e-12
2.07976e-11
9.2134532e-11
3.3264727e-10
1.0407432e-09
2.9314756e-09
7.6238375e-09
1.8629386e-08
4.3313186e-08
9.6712499e-08
2.0885998e-07
4.3864419e-07
8.9974181e-07
1.8086259e-06
3.5725498e-06
6.9491146e-06
1.3332189e-05
2.5256027e-05
4.7262186e-05
8.7326659e-05
0.00015902171
0.00028426619
0.00049550101
0.00083432666
0.0013427601
0.0020470074
0.002941711
0.0039855594
0.0050893496
0.0054319732
0.0057983625
0.0062188219
0.0066574992
0.0071386418
0.0076939887
0.0083441062
0.0091044439
0.009961796
0.010877915
0.011757605
0.012107513
0.012264575
0.012438538
0.012636911
0.012852897
0.013079775
0.013310009
0.013536843
0.013744347
0.013933709
0.014083775
0.014139024
0.014061177
0.013839806
0.013449999
0.012900322
0.012149928
0.011229532
0.01008465
0.0087266785
0.0072130406
0.0056976242
6.3503306e-17
1.235053e-14
3.289587e-13
3.3348763e-12
2.0167047e-11
8.9341333e-11
3.225633e-10
1.009196e-09
2.8426193e-09
7.3927438e-09
1.8064612e-08
4.1999678e-08
9.3777964e-08
2.0251683e-07
4.2530432e-07
8.7232603e-07
1.7533689e-06
3.4630177e-06
6.7351125e-06
1.2919423e-05
2.4469425e-05
4.5781528e-05
8.4579124e-05
0.00015401943
0.00027540871
0.00048045695
0.00081026116
0.0013072074
0.0019993031
0.002884247
0.0039239435
0.0050525843
0.0056710869
0.0060448413
0.0064692617
0.0069414114
0.0074685078
0.0080710921
0.0087677857
0.0095559099
0.010399898
0.011254729
0.012038775
0.012245144
0.012453078
0.01269465
0.012968665
0.01327848
0.013622371
0.013996342
0.014395393
0.014814994
0.015258606
0.01570791
0.016133768
0.016485921
0.016623393
0.016558535
0.016314438
0.015742837
0.014801614
0.013265202
0.010900958
0.0079098697
0.0057953954
6.0831386e-17
1.1830878e-14
3.1511773e-13
3.1945633e-12
1.9318561e-11
8.5582666e-11
3.0899346e-10
9.6674198e-10
2.723039e-09
7.0817345e-09
1.7304514e-08
4.0231885e-08
8.9828556e-08
1.9398038e-07
4.0735338e-07
8.3543887e-07
1.6790375e-06
3.3157183e-06
6.4474281e-06
1.2364791e-05
2.3413014e-05
4.3794002e-05
8.0892384e-05
0.00014730696
0.0002635125
0.00046020376
0.00077771126
0.0012587419
0.0019334876
0.002803585
0.00383554
0.0049679078
0.0060124378
0.0064408118
0.0068655218
0.007363976
0.007935838
0.008587214
0.0093250916
0.010138509
0.010960229
0.011716369
0.012155945
0.012390468
0.012660792
0.012969311
0.013324536
0.013732754
0.014195479
0.014710274
0.015272818
0.015881733
0.016545038
0.017082509
0.01783382
0.018674562
0.019166714
0.019360193
0.019330933
0.018922483
0.017958603
0.016047858
0.012300686
0.0081973671
0.0052385011
5.7497452e-17
1.1182474e-14
2.9784745e-13
3.0194845e-12
1.8259825e-11
8.0892527e-11
2.9206029e-10
9.1376396e-10
2.5738106e-09
6.6936034e-09
1.635591e-08
3.8025654e-08
8.4899689e-08
1.8332729e-07
3.8495324e-07
7.894151e-07
1.5863127e-06
3.1320171e-06
6.0887679e-06
1.1673597e-05
2.209706e-05
4.1319127e-05
7.6302458e-05
0.00013894724
0.0002486769
0.00043486805
0.0007367619
0.0011972187
0.0018488366
0.0026978781
0.0037163299
0.0048474134
0.0060204116
0.0069604958
0.0074827055
0.0080247893
0.0086369219
0.0093296901
0.010091664
0.01088114
0.011631328
0.011986954
0.012247142
0.012534539
0.012862091
0.013237083
0.013671244
0.014172307
0.014743351
0.015381444
0.016080428
0.016536012
0.016886221
0.01746673
0.018382223
0.019693766
0.02123103
0.021613518
0.021701202
0.021367871
0.020322402
0.017871578
0.012930357
0.0075137593
0.0044073673
5.352623e-17
1.0410127e-14
2.7727596e-13
2.8109379e-12
1.6998685e-11
7.5305625e-11
2.7188892e-10
8.5065271e-10
2.3960327e-09
6.231202e-09
1.5225755e-08
3.5397132e-08
7.9027404e-08
1.7063548e-07
3.5826798e-07
7.345929e-07
1.475879e-06
2.9132796e-06
5.6618184e-06
1.0851053e-05
2.0531493e-05
3.837535e-05
7.0842153e-05
0.00012899406
0.00023097585
0.00040450974
0.00068733316
0.0011221165
0.0017438502
0.0025638844
0.003560371
0.0046814789
0.0058585614
0.0070218996
0.0081091951
0.0089383632
0.009623857
0.010362645
0.011012154
0.011402036
0.01172517
0.01201916
0.01232048
0.012657638
0.01303753
0.013473922
0.013978494
0.014559456
0.015219987
0.01595472
0.016377459
0.016649408
0.017094711
0.017802035
0.018828742
0.020226791
0.022070904
0.023182322
0.023283552
0.022853655
0.021531076
0.018575558
0.01226845
0.0060888538
0.0034040269
4.8955797e-17
9.5212413e-15
2.5360038e-13
2.5709218e-12
1.5547222e-11
6.8875449e-11
2.4867228e-10
7.7801119e-10
2.1914021e-09
5.6989383e-09
1.3924812e-08
3.2371343e-08
7.2267615e-08
1.5602592e-07
3.2755257e-07
6.7149822e-07
1.3488025e-06
2.6616337e-06
5.1707715e-06
9.9053104e-06
1.8731932e-05
3.4991995e-05
6.4564796e-05
0.00011753913
0.00021055169
0.00036930635
0.00062953378
0.0010331908
0.0016174139
0.0023989663
0.0033629756
0.0044633353
0.0056336507
0.0068018482
0.0079021472
0.0088833055
0.009714004
0.010386248
0.010917891
0.011343535
0.011696133
0.012020765
0.012364878
0.012743893
0.013170303
0.013658901
0.014220837
0.014863892
0.0155901
0.016230036
0.016413382
0.016778826
0.017334368
0.018127799
0.019207234
0.020603581
0.022470476
0.023995722
0.023971072
0.023322589
0.021653092
0.017867733
0.010048759
0.0044333558
0.0025819458
4.3870332e-17
8.5321853e-15
2.2725662e-13
2.3038556e-12
1.3932165e-11
6.1720452e-11
2.2283823e-10
6.9717893e-10
1.9636953e-09
5.1066483e-09
1.2477167e-08
2.900444e-08
6.4746192e-08
1.3977193e-07
2.9338521e-07
6.0132857e-07
1.2075205e-06
2.3819708e-06
4.6253261e-06
8.8553983e-06
1.6735327e-05
3.1239942e-05
5.7604071e-05
0.00010482806
0.00018783639
0.0003299655
0.00056439805
0.00093170689
0.0014706858
0.0022036801
0.0031238216
0.0041923097
0.0053468078
0.0065153405
0.0076296455
0.0086352855
0.0094982581
0.010208451
0.010779603
0.01124177
0.011630055
0.011988453
0.012367707
0.012781876
0.01324609
0.013774866
0.014378171
0.015062663
0.01582865
0.01619991
0.016450127
0.016892347
0.017511673
0.018333738
0.019397342
0.020752745
0.022731942
0.024002573
0.023736512
0.022745254
0.020489936
0.015243356
0.006855183
0.0030341258
0.001911529
3.8414745e-17
7.4711471e-15
1.9899561e-13
2.0173524e-12
1.2199564e-11
5.4044695e-11
1.9512395e-10
6.1046417e-10
1.7194211e-09
4.4712832e-09
1.0924319e-08
2.5393162e-08
5.6679894e-08
1.2234375e-07
2.5675951e-07
5.2613817e-07
1.0562046e-06
2.0826364e-06
4.0419738e-06
7.733559e-06
1.4604096e-05
2.7238767e-05
5.0186093e-05
9.1280341e-05
0.00016358522
0.00028778286
0.00049398845
0.00082061063
0.0013073102
0.0019818179
0.0028461705
0.0038707169
0.0049993254
0.0061619915
0.0072888315
0.0083216927
0.0092221319
0.0099755384
0.010591086
0.011092657
0.011517019
0.011913645
0.012325003
0.012761587
0.013253039
0.013808344
0.014435368
0.015139077
0.01591797
0.016117081
0.016424568
0.016891559
0.017513054
0.018302746
0.019285143
0.020643043
0.022739222
0.023167542
0.022588955
0.021006424
0.01793506
0.010712717
0.0038802584
0.0021628356
0.001439463
3.2786503e-17
6.3765295e-15
1.6984014e-13
1.7217811e-12
1.0412127e-11
4.6126066e-11
1.6653316e-10
5.2100891e-10
1.4674358e-09
3.8158976e-09
9.3226758e-09
2.1668869e-08
4.836266e-08
1.0437799e-07
2.1901741e-07
4.48693e-07
9.0044951e-07
1.7747708e-06
3.4426011e-06
6.5822975e-06
1.2419919e-05
2.3143806e-05
4.2602745e-05
7.7435794e-05
0.00013877311
0.00024445451
0.0004210869
0.00070408065
0.0011328486
0.0017397418
0.00253612
0.0035032618
0.0045936745
0.0057414673
0.006876301
0.0079362365
0.0088772153
0.0096783578
0.0103427
0.010889291
0.01135241
0.011782309
0.012221997
0.01268724
0.0131921
0.013754053
0.014382716
0.015081783
0.015792647
0.015945622
0.016265303
0.01670972
0.017271862
0.017945727
0.018813137
0.020261641
0.021845049
0.021543201
0.020451259
0.018114568
0.013698253
0.005476968
0.002381517
0.0014973632
0.001075459
2.7210523e-17
5.2920751e-15
1.4095532e-13
1.4289535e-12
8.6412903e-12
3.8281061e-11
1.3820873e-10
4.3238955e-10
1.2178161e-09
3.1667071e-09
7.7363252e-09
1.7980654e-08
4.0127647e-08
8.6594827e-08
1.8167338e-07
3.7210467e-07
7.4652426e-07
1.4707937e-06
2.8514609e-06
5.4483814e-06
1.0271969e-05
1.9123272e-05
3.5167843e-05
6.3872245e-05
0.00011444515
0.00020181954
0.0003487891
0.00058697259
0.00095416578
0.0014859076
0.002202478
0.0030974249
0.0041345075
0.0052546621
0.0063889348
0.0074721667
0.0084540577
0.0093060606
0.010023473
0.010620438
0.011127063
0.011589666
0.012049918
0.01252736
0.01304417
0.013610948
0.014232836
0.014909261
0.01548811
0.015634597
0.015896365
0.016243745
0.016669386
0.017191704
0.018063269
0.019582625
0.019894465
0.019129737
0.017279282
0.014071252
0.0074437616
0.0026912393
0.0015982555
0.0011116306
0.00082392177
2.1910712e-17
4.2613331e-15
1.1350121e-13
1.1506315e-12
6.9581844e-12
3.0824784e-11
1.1128824e-10
3.4816507e-10
9.805858e-10
2.5497774e-09
6.2289493e-09
1.4476533e-08
3.2305208e-08
6.9707235e-08
1.4622344e-07
2.994383e-07
6.0058118e-07
1.1828366e-06
2.2921062e-06
4.3769145e-06
8.245566e-06
1.5336772e-05
2.8176886e-05
5.1131179e-05
9.1582128e-05
0.00016162553
0.00028012165
0.00047426553
0.00077878482
0.0012303696
0.0018567445
0.0026641341
0.0036299782
0.0047053325
0.0058254185
0.0069233692
0.007942768
0.0088464501
0.0096204175
0.010271938
0.010824758
0.011322518
0.011802462
0.012288079
0.012799018
0.013347362
0.013936981
0.014564732
0.01499738
0.015088767
0.015241528
0.015446131
0.015716959
0.016174812
0.017172291
0.017963394
0.017335423
0.015854986
0.013104839
0.0083995977
0.003067623
0.0014996852
0.0010609004
0.00077396312
0.0006587298
1.7081753e-17
3.3221651e-15
8.848623e-14
8.9703771e-13
5.4246246e-12
2.4031063e-11
8.6760244e-11
2.7142764e-10
7.6445181e-10
1.9877414e-09
4.8558122e-09
1.1284858e-08
2.5181497e-08
5.4331881e-08
1.1395896e-07
2.3333247e-07
4.6789766e-07
9.2125839e-07
1.7845324e-06
3.4059204e-06
6.4120589e-06
1.1916642e-05
2.1872944e-05
3.9655859e-05
7.0988708e-05
0.00012532787
0.00021769171
0.00037049614
0.00061411504
0.0009840191
0.0015127952
0.0022182709
0.0030931228
0.0041020652
0.0051883373
0.0062861569
0.0073342183
0.0082865299
0.0091186327
0.0098285198
0.010433636
0.01096536
0.01146465
0.011955652
0.012455123
0.012975039
0.013517634
0.014076307
0.014303723
0.014293911
0.014301867
0.014353608
0.014536413
0.015087089
0.01602613
0.015380648
0.014053899
0.011685934
0.0080582194
0.0032470422
0.0013373517
0.0009661349
0.00075890038
0.00061774873
0.00060215718
1.2867348e-17
2.5025201e-15
6.6654814e-14
6.7571851e-13
4.0862446e-12
1.8102031e-11
6.5354333e-11
2.0445906e-10
5.7583751e-10
1.497289e-09
3.657643e-09
8.5001404e-09
1.8966966e-08
4.0921499e-08
8.5825732e-08
1.7571332e-07
3.5230917e-07
6.9354359e-07
1.3430792e-06
2.5624158e-06
4.8215894e-06
8.954767e-06
1.6422897e-05
2.9748408e-05
5.3214801e-05
9.3941675e-05
0.00016340169
0.00027922063
0.00046653384
0.00075730999
0.0011856247
0.0017781695
0.0025426136
0.0034602347
0.0044868478
0.0055620401
0.006622386
0.007614038
0.0085015534
0.0092716175
0.0099320077
0.010500686
0.011017517
0.01151194
0.011996256
0.012476859
0.012956808
0.013426845
0.013383646
0.013249888
0.013117854
0.013082943
0.01331662
0.013907225
0.0134648
0.012163938
0.010009767
0.0068796764
0.003000073
0.0011740436
0.00080960216
0.00065175811
0.00056050333
0.00053750877
0.00060261038
9.3502027e-18
1.818484e-15
4.843543e-14
4.9101757e-13
2.9693097e-12
1.3154023e-11
4.7490412e-11
1.4857234e-10
4.1843814e-10
1.088018e-09
2.6578478e-09
6.1766405e-09
1.3782258e-08
2.9735059e-08
6.2363035e-08
1.2767418e-07
2.5597896e-07
5.0387681e-07
9.7566966e-07
1.8611009e-06
3.5009253e-06
6.4991409e-06
1.1912055e-05
2.1561192e-05
3.8539782e-05
6.8005962e-05
0.00011835577
0.0002027771
0.00034087113
0.00055938028
0.00089031209
0.0013648156
0.0020031035
0.0028038906
0.0037399652
0.0047617788
0.0058084243
0.0068208924
0.0077533266
0.0085797066
0.009295098
0.0099113203
0.010443006
0.010930077
0.011398326
0.011830195
0.012231879
0.012475935
0.012246875
0.012004024
0.011805231
0.011808244
0.012041954
0.011646783
0.010341052
0.0082773117
0.0054156109
0.0024545146
0.0010160987
0.00064050423
0.00053518688
0.00048436602
0.00049358154
0.00054338396
0.00064013396
6.5469437e-18
1.2732895e-15
3.391413e-14
3.4380664e-13
2.0790882e-12
9.2103643e-12
3.325258e-11
1.0403008e-10
2.9299088e-10
7.6183545e-10
1.8610506e-09
4.324985e-09
9.6507004e-09
2.0821709e-08
4.3670477e-08
8.94091e-08
1.7926923e-07
3.5290016e-07
6.8336831e-07
1.3035757e-06
2.4521053e-06
4.5515296e-06
8.339994e-06
1.5088526e-05
2.6953143e-05
4.7531708e-05
8.2711963e-05
0.00014187766
0.00023940536
0.00039601109
0.00063885369
0.00099872799
0.0015030972
0.0021662002
0.0029794873
0.0039103063
0.0049067085
0.0059094925
0.0068649519
0.0077345628
0.008499521
0.0091602027
0.0097225107
0.010198166
0.010625296
0.01099837
0.011305067
0.011264019
0.010959548
0.01068179
0.010518046
0.010470937
0.0099038215
0.0085877305
0.0066148059
0.0039674062
0.0018052061
0.00079544302
0.00050198077
0.00044023316
0.00041583554
0.0004389996
0.00049403822
0.00057345723
0.00068348301
4.4163177e-18
8.5891238e-16
2.2877159e-14
2.3191858e-13
1.4024739e-12
6.2129824e-12
2.243112e-11
7.0175854e-11
1.9764552e-10
5.1392472e-10
1.2554633e-09
2.9177034e-09
6.5107487e-09
1.4047895e-08
2.9465635e-08
6.0333216e-08
1.2098882e-07
2.3821958e-07
4.6141266e-07
8.8043975e-07
1.6566815e-06
3.0759542e-06
5.6371942e-06
1.0198387e-05
1.8212801e-05
3.2102711e-05
5.583625e-05
9.5782352e-05
0.00016188169
0.00026901102
0.00043802646
0.00069536476
0.0010696711
0.0015846076
0.0022493158
0.0030502582
0.0039516235
0.0049013964
0.0058433677
0.0067289446
0.0075250555
0.0082165402
0.0088029864
0.0092803529
0.0096551751
0.0099482698
0.010138309
0.0099628651
0.0096389248
0.0093738393
0.0091116328
0.0082911321
0.0068737994
0.0050248857
0.0026691993
0.0012131416
0.0005698404
0.00037765487
0.00035877048
0.00035888546
0.00039206326
0.0004488092
0.00052921094
0.00060347658
0.00070597989
2.8730646e-18
5.5877074e-16
1.4882863e-14
1.5087599e-13
9.1238979e-13
4.0419226e-12
1.4592928e-11
4.5654558e-11
1.285849e-10
3.3435764e-10
8.1682258e-10
1.8983733e-09
4.236385e-09
9.1413506e-09
1.9176297e-08
3.9271385e-08
7.8770535e-08
1.5514248e-07
3.0062238e-07
5.7393226e-07
1.0806463e-06
2.0079752e-06
3.6830643e-06
6.6686844e-06
1.191661e-05
2.1008851e-05
3.6529288e-05
6.2629267e-05
0.00010584237
0.0001761501
0.0002881615
0.00046186559
0.00072189884
0.0010939893
0.0015980214
0.0022389773
0.0030007009
0.0038457745
0.0047235604
0.0055810674
0.0063734362
0.0070698143
0.0076534447
0.0081159804
0.0084339139
0.0086222557
0.0086765404
0.0085475945
0.0082486048
0.0076688228
0.0067529464
0.0053266468
0.0034752499
0.0016498406
0.00078118302
0.00038330053
0.00027557668
0.00028296115
0.00030611139
0.00035056534
0.00041074341
0.00048141007
0.0005607607
0.00064672937
0.00076079488
1.807216e-18
3.5147807e-16
9.3616176e-15
9.4904109e-14
5.7391427e-13
2.5424826e-12
9.1794701e-12
2.8718807e-11
8.0887519e-11
2.1033667e-10
5.1386354e-10
1.1943294e-09
2.6654428e-09
5.7521339e-09
1.2068328e-08
2.4720037e-08
4.959797e-08
9.7725201e-08
1.8946753e-07
3.6198205e-07
6.8219583e-07
1.2690357e-06
2.3307736e-06
4.2264323e-06
7.564447e-06
1.3357421e-05
2.3258534e-05
3.9908506e-05
6.7435469e-05
0.00011215946
0.00018359852
0.00029533906
0.00046553067
0.00071596178
0.0010686198
0.0015392905
0.0021297583
0.0028219464
0.0035786406
0.0043507967
0.0050877276
0.0057456128
0.0062911056
0.0066978895
0.0069395506
0.0069999227
0.0069195954
0.0066543222
0.0060891771
0.0051875541
0.0039087789
0.0021625705
0.0010038584
0.00047740712
0.00025035992
0.00019999802
0.00022063401
0.00025817281
0.00031197672
0.00037554312
0.00043868354
0.00051338147
0.00059772157
0.00067103778
0.00077876925
1.1041838e-18
2.1474827e-16
5.7198214e-15
5.7985252e-14
3.5065674e-13
1.5534525e-12
5.6087335e-12
1.7547823e-11
4.9425475e-11
1.2852877e-10
3.1401762e-10
7.2989116e-10
1.6290757e-09
3.5160382e-09
7.3781216e-09
1.511654e-08
3.033991e-08
5.9808382e-08
1.160305e-07
2.2187302e-07
4.1862654e-07
7.7988482e-07
1.4349714e-06
2.6076114e-06
4.6781987e-06
8.2814145e-06
1.4455155e-05
2.4861563e-05
4.2106188e-05
7.017683e-05
0.00011494835
0.0001848825
0.00029178332
0.00045121141
0.00068110938
0.00099873144
0.0014150923
0.0019282703
0.0025185491
0.0031491031
0.0037722099
0.0043377168
0.0047990993
0.0051129885
0.0052610169
0.0052281083
0.0050150021
0.0045310514
0.0036816161
0.0025464311
0.0011883388
0.00056639953
0.00028497896
0.0001592666
0.00014749422
0.00017378553
0.00021875842
0.00027844863
0.00030613915
0.00032956348
0.00036715081
0.0004388188
0.00053474379
0.00071406166
0.00082405615
6.6075816e-19
1.2850819e-16
3.4228174e-15
3.4699264e-14
2.0984023e-13
9.2963269e-13
3.3565119e-12
1.0501706e-11
2.958041e-11
7.6926263e-11
1.8795535e-10
4.3691069e-10
9.7525986e-10
2.1051959e-09
4.4184169e-09
9.0549676e-09
1.8180558e-08
3.5857149e-08
6.9613216e-08
1.3324254e-07
2.5172682e-07
4.6976092e-07
8.6624791e-07
1.5784037e-06
2.8407933e-06
5.0466169e-06
8.8405695e-06
1.5253804e-05
2.5904225e-05
4.3276765e-05
7.1097378e-05
0.0001147599
0.00018159706
0.00028110358
0.00042487718
0.00062667484
0.00089804256
0.0012440626
0.0016579486
0.0021174596
0.0025854881
0.0030148594
0.0033543747
0.0035542897
0.0036125346
0.0034722695
0.0030816275
0.0023918489
0.0014026864
0.0006168562
0.00031443228
0.00016348878
0.00010118557
0.00011162994
0.00014060779
0.00018821382
0.00025055814
0.00022562313
0.00023951289
0.0002629091
0.00030378669
0.00037547484
0.00047384676
0.00069229388
0.00083420216
3.9418063e-19
7.6662582e-17
2.04191e-15
2.0700246e-14
1.2518433e-13
5.5460402e-13
2.0025109e-12
6.2656544e-12
1.7649643e-11
4.590263e-11
1.1216472e-10
2.607609e-10
5.8214498e-10
1.2568452e-09
2.6385039e-09
5.4089341e-09
1.0864503e-08
2.1439616e-08
4.1654064e-08
7.9808914e-08
1.5098689e-07
2.8228867e-07
5.2182146e-07
9.5381258e-07
1.7233609e-06
3.0756278e-06
5.415269e-06
9.3940975e-06
1.6030484e-05
2.6870969e-05
4.4206635e-05
7.1375065e-05
0.00011313082
0.00017584571
0.0002673089
0.00039508435
0.00056664194
0.00078697857
0.0010553583
0.0013590196
0.0016720021
0.0019562793
0.0021650572
0.0022465816
0.0021776327
0.0018906586
0.001352071
0.00065253702
0.00030919661
0.00016520239
9.3541236e-05
6.6592666e-05
8.3923181e-05
0.00011583681
0.00016510068
0.00019852355
0.00017404147
0.00018206815
0.00019514752
0.00021970844
0.0002619532
0.00033594098
0.00043478596
0.0006145361
0.00077997712
2.4371162e-19
4.7398492e-17
1.2624629e-15
1.2798576e-14
7.7400793e-14
3.4292094e-13
1.2382492e-12
3.8746144e-12
1.0915255e-11
2.8390899e-11
6.9382572e-11
1.6132441e-10
3.6021884e-10
7.7788207e-10
1.633483e-09
3.3499154e-09
6.7321577e-09
1.3294203e-08
2.5852512e-08
4.9593493e-08
9.3973831e-08
1.7606363e-07
3.2634397e-07
5.9860483e-07
1.0864157e-06
1.9497371e-06
3.4562471e-06
6.042192e-06
1.0395778e-05
1.7559235e-05
2.9043736e-05
4.6955849e-05
7.4149292e-05
0.00011441177
0.00017286262
0.00025541437
0.00036751398
0.00051114982
0.00068310264
0.00087383892
0.0010645387
0.0012224234
0.0012910519
0.0012414649
0.0010290154
0.00063666326
0.00029197963
0.00015351729
8.5688522e-05
5.3330175e-05
4.6166041e-05
6.4852543e-05
9.8438209e-05
0.00014800149
0.00015497301
0.00014175168
0.00014765914
0.00015391537
0.00016831199
0.00019378695
0.00023458714
0.00029801034
0.00039197244
0.00058907476
0.00077646819
1.6688252e-19
3.2456348e-17
8.6448191e-16
8.7640679e-15
5.3003415e-14
2.3484213e-13
8.4805455e-13
2.6539269e-12
7.4774104e-12
1.9452126e-11
4.7547174e-11
1.1058071e-10
2.4698629e-10
5.3354886e-10
1.1208846e-09
2.2998788e-09
4.6248661e-09
9.1400059e-09
1.7791852e-08
3.4174992e-08
6.486829e-08
1.2180688e-07
2.2644516e-07
4.169295e-07
7.6026667e-07
1.3724266e-06
2.4502136e-06
4.3188515e-06
7.4969477e-06
1.2775026e-05
2.1294176e-05
3.4604883e-05
5.469634e-05
8.3983571e-05
0.00012515839
0.00018134901
0.00025543998
0.00034940205
0.000460144
0.00057480078
0.00066723621
0.00069659993
0.00064439394
0.00048259907
0.00026023285
0.00013252929
7.5158288e-05
4.5101498e-05
3.184655e-05
3.4031577e-05
5.3259506e-05
8.682898e-05
0.00013549843
0.00012779494
0.00012312847
0.00012781548
0.00013079517
0.00013811292
0.00015256378
0.00017655366
0.00021422764
0.00027993827
0.00037370035
0.00054554033
0.00075805285
1.3299349e-19
2.5865435e-17
6.8893608e-16
6.9845274e-15
4.2242711e-14
1.8717633e-13
6.7598618e-13
2.1157103e-12
5.9619502e-12
1.5512938e-11
3.7928496e-11
8.823959e-11
1.9716777e-10
4.2614749e-10
8.9582431e-10
1.8395373e-09
3.7027499e-09
7.3263665e-09
1.4282135e-08
2.7481879e-08
5.2276171e-08
9.8420288e-08
1.8355991e-07
3.3934454e-07
6.2194927e-07
1.1296811e-06
2.0313924e-06
3.6095599e-06
6.3191998e-06
1.0855527e-05
1.8206999e-05
2.9654796e-05
4.6687853e-05
7.0844139e-05
0.00010350786
0.00014564082
0.00019713111
0.00025513803
0.00031162425
0.00034890348
0.00034194027
0.00029351014
0.00019291938
0.00010213096
5.8172484e-05
3.6436447e-05
2.4405198e-05
2.0189387e-05
2.6779272e-05
4.5349166e-05
7.8788758e-05
0.00012519662
0.00011451803
0.00011444607
0.00011906581
0.00012007299
0.000123577
0.00013111084
0.0001448864
0.00016812712
0.00020435234
0.00026095674
0.00035050148
0.00052688032
0.00075034321
1.1848365e-19
2.3043494e-17
6.1377649e-16
6.2226489e-15
3.7635939e-14
1.6677161e-13
6.0233593e-13
1.8853799e-12
5.3135868e-12
1.3828309e-11
3.3817371e-11
7.8698453e-11
1.7591521e-10
3.8039676e-10
8.0013613e-10
1.6442982e-09
3.3129013e-09
6.562712e-09
1.2812014e-08
2.4696962e-08
4.7080898e-08
8.8873201e-08
1.6628074e-07
3.0855199e-07
5.6796851e-07
1.0367907e-06
1.874855e-06
3.3514254e-06
5.9014147e-06
1.0181632e-05
1.7085668e-05
2.7643604e-05
4.275152e-05
6.2791698e-05
8.7275799e-05
0.0001142493
0.00014081844
0.00016079983
0.0001658157
0.00014746222
0.00011013945
6.8632629e-05
3.9749652e-05
2.5348293e-05
1.7467468e-05
1.3804161e-05
1.3907973e-05
2.1846289e-05
4.0205938e-05
7.1580096e-05
0.00011668786
0.00011232739
0.00011432584
0.00011746023
0.0001174761
0.00011848919
0.00012221508
0.00012953954
0.00014224392
0.00016257279
0.00019530967
0.00025429755
0.00034092181
0.00051093693
0.00075947611
1.0445932e-19
2.0315962e-17
5.4112876e-16
5.4861591e-15
3.318179e-14
1.4703642e-13
5.3106822e-13
1.6623538e-12
4.6852353e-12
1.2193816e-11
2.9822735e-11
6.941024e-11
1.5517648e-10
3.3561618e-10
7.0611433e-10
1.451514e-09
2.9255375e-09
5.7978313e-09
1.132434e-08
2.1841222e-08
4.1661216e-08
7.8688733e-08
1.4730463e-07
2.7345899e-07
5.0350843e-07
9.1913571e-07
1.6613859e-06
2.9657233e-06
5.203925e-06
8.9108923e-06
1.4737502e-05
2.3238443e-05
3.4455106e-05
4.7343171e-05
5.9785831e-05
6.9693792e-05
7.3587622e-05
6.9132041e-05
5.5507412e-05
3.7618646e-05
2.4262813e-05
1.5529383e-05
1.1154925e-05
8.9794957e-06
8.2143642e-06
1.0401019e-05
1.8729277e-05
3.6588514e-05
6.7002217e-05
0.00010897903
0.00011963118
0.00012148387
0.00012132624
0.00011943665
0.00011902273
0.00012020623
0.00012388381
0.00013079078
0.00014228458
0.00016268108
0.00019447508
0.00024801812
0.00033391062
0.00049794606
0.00076125372
8.114576e-20
1.5781776e-17
4.2035693e-16
4.2617028e-15
2.5775578e-14
1.1421498e-13
4.1250857e-13
1.2911733e-12
3.6388435e-12
9.4696315e-12
2.3157418e-11
5.3888914e-11
1.2045196e-10
2.6044424e-10
5.4776364e-10
1.125474e-09
2.266986e-09
4.4889869e-09
8.7582395e-09
1.6867309e-08
3.2111554e-08
6.0497317e-08
1.1287239e-07
2.0862125e-07
3.8191827e-07
6.9189409e-07
1.2380395e-06
2.1804998e-06
3.7577102e-06
6.2782028e-06
1.0035598e-05
1.5096687e-05
2.0950803e-05
2.625227e-05
2.9682883e-05
2.9700843e-05
2.5821164e-05
1.9376596e-05
1.3151581e-05
8.7679026e-06
6.333701e-06
5.2884391e-06
4.9263932e-06
5.7205346e-06
8.3306131e-06
1.6522737e-05
3.4354134e-05
6.4304016e-05
0.00010277983
0.00013582829
0.00013468286
0.000129296
0.00012494625
0.00012252061
0.00012164319
0.00012300317
0.00012695568
0.00013415662
0.00014548477
0.00016349783
0.0001924402
0.00024585836
0.00032944587
0.00050183425
0.0007700307
5.2749164e-20
1.0259e-17
2.7325287e-16
2.7702726e-15
1.6754592e-14
7.4237916e-14
2.6810288e-13
8.3908188e-13
2.3643718e-12
6.1516811e-12
1.5039303e-11
3.4984275e-11
7.8157354e-11
1.6888223e-10
3.5488323e-10
7.283396e-10
1.4648801e-09
2.8950814e-09
5.634253e-09
1.0815544e-08
2.0503659e-08
3.8418649e-08
7.1178972e-08
1.3038222e-07
2.3595694e-07
4.21233e-07
7.3976761e-07
1.2722817e-06
2.1274868e-06
3.421831e-06
5.210897e-06
7.356905e-06
9.3831429e-06
1.0574886e-05
1.0366339e-05
8.796579e-06
6.5741299e-06
4.7241258e-06
3.5234244e-06
2.8081181e-06
2.8686817e-06
3.2987705e-06
4.2249658e-06
7.2406721e-06
1.6008668e-05
3.3673276e-05
6.121701e-05
9.6768573e-05
0.00013535722
0.00015504502
0.00014242451
0.00013381071
0.00012827444
0.00012477833
0.0001244145
0.00012654793
0.00013106654
0.00013815803
0.00014862775
0.00016711036
0.00019558011
0.00024846255
0.00033304801
0.00049758589
0.00077450428
2.8544418e-20
5.5514954e-18
1.478652e-16
1.4990425e-15
9.0658144e-15
4.016693e-14
1.4504376e-13
4.5387569e-13
1.2786678e-12
3.3259194e-12
8.1278932e-12
1.889726e-11
4.2188855e-11
9.1078935e-11
1.9116189e-10
3.9171545e-10
7.8623404e-10
1.5497269e-09
3.0055907e-09
5.7437661e-09
1.0825914e-08
2.0133992e-08
3.6945385e-08
6.6842724e-08
1.1906157e-07
2.0826499e-07
3.563297e-07
5.9266889e-07
9.4946866e-07
1.4455856e-06
2.0534004e-06
2.6582436e-06
3.0554394e-06
3.0537581e-06
2.7280677e-06
2.2507539e-06
1.8191189e-06
1.549632e-06
1.5568223e-06
1.7877714e-06
2.3794899e-06
3.5632336e-06
7.1478673e-06
1.5773044e-05
3.2170553e-05
5.8287201e-05
9.109815e-05
0.00012569657
0.00016115402
0.0001594586
0.00014523574
0.00013564463
0.00012950321
0.00012732456
0.0001276216
0.00013012055
0.00013465211
0.00014248335
0.00015372315
0.00017166613
0.00019867235
0.00024969281
0.0003305673
0.00050791917
0.00078734606
1.30399e-20
2.5360754e-18
6.7548174e-17
6.8477859e-16
4.1411572e-15
1.8346315e-14
6.6241039e-14
2.0724798e-13
5.837233e-13
1.5178143e-12
3.7075988e-12
8.6150267e-12
1.9218273e-11
4.1446139e-11
8.6871069e-11
1.7769228e-10
3.5582454e-10
6.9922642e-10
1.3507457e-09
2.5680786e-09
4.8081909e-09
8.8654111e-09
1.6087208e-08
2.868853e-08
5.015723e-08
8.5651813e-08
1.4207594e-07
2.2709795e-07
3.4586122e-07
4.9430775e-07
6.5061785e-07
7.7251034e-07
8.2841886e-07
8.3347284e-07
8.1154314e-07
7.9977503e-07
8.2599923e-07
9.5798562e-07
1.3317528e-06
2.0580068e-06
3.520173e-06
7.1529844e-06
1.4969746e-05
3.0534345e-05
5.5076269e-05
8.5208886e-05
0.00011655078
0.00014906305
0.00017679753
0.00015821751
0.00014476686
0.00013602254
0.00013165445
0.00012961628
0.00013010317
0.00013305469
0.00013872616
0.00014717981
0.00015838897
0.00017673792
0.00020334856
0.00025593658
0.00033935602
0.00051356239
0.00079601216
5.197563e-21
1.0108497e-18
2.6923598e-17
2.729336e-16
1.6504583e-15
7.3112703e-15
2.6394492e-14
8.2564698e-14
2.3248658e-13
6.0430505e-13
1.4754533e-12
3.4262423e-12
7.6369302e-12
1.6452092e-11
3.4435192e-11
7.0307695e-11
1.4045627e-10
2.7516322e-10
5.294478e-10
1.0014604e-09
1.8626907e-09
3.4054136e-09
6.1124655e-09
1.0749371e-08
1.8462527e-08
3.0828941e-08
4.9735584e-08
7.6890772e-08
1.1281127e-07
1.555885e-07
2.0201717e-07
2.5077192e-07
2.9836659e-07
3.4739485e-07
4.2040371e-07
5.3678122e-07
7.586775e-07
1.1993733e-06
1.9710683e-06
3.4564761e-06
6.7427056e-06
1.3850104e-05
2.8665809e-05
5.1806198e-05
7.9366768e-05
0.00010785331
0.00013810642
0.00017160057
0.00016910634
0.00015374574
0.00014277662
0.00013615513
0.00013191883
0.00013077649
0.00013221084
0.00013625024
0.00014214108
0.00015140892
0.00016360273
0.00018258883
0.0002093341
0.00026063913
0.00034148801
0.00052499469
0.00080930003
2.1019772e-21
4.088032e-19
1.088824e-17
1.1037559e-16
6.6742721e-16
2.9564166e-15
1.0672055e-14
3.3379351e-14
9.3975545e-14
2.4422423e-13
5.961459e-13
1.3839328e-12
3.0835908e-12
6.6399746e-12
1.3890449e-11
2.834268e-11
5.6578871e-11
1.1074567e-10
2.12879e-10
4.0223121e-10
7.4730347e-10
1.364802e-09
2.4478125e-09
4.3041196e-09
7.4027496e-09
1.2416468e-08
2.0241892e-08
3.198867e-08
4.9056356e-08
7.3406692e-08
1.0696645e-07
1.5254596e-07
2.1673297e-07
3.1241542e-07
4.5565018e-07
7.1665012e-07
1.1496855e-06
1.8812731e-06
3.2866601e-06
6.3058473e-06
1.2969218e-05
2.7250421e-05