/*--------------------------------*- C++ -*----------------------------------*\
  =========                 |
  \\      /  F ield         | OpenFOAM: The Open Source CFD Toolbox
   \\    /   O peration     | Website:  https://openfoam.org
    \\  /    A nd           | Version:  13
     \\/     M anipulation  |
\*---------------------------------------------------------------------------*/
FoamFile
{
    format      ascii;
    class       volScalarField;
    location    "0.02";
    object      p;
}
// * * * * * * * * * * * * * * * * * * * * * * * * * * * * * * * * * * * * * //

dimensions      [1 -1 -2 0 0 0 0];

internalField   nonuniform List<scalar> 
1000
(
43361.8
43339.9
43315.8
43296.1
43278
43259.6
43239.5
43218.7
43198
43177.5
43157.1
43136.7
43116.2
43096
43076.3
43057.4
43039.1
43021.6
43004.9
42988.8
42973.4
42958.6
42944.2
42930.2
42916.4
42902.9
42889.4
42876.1
42862.6
42849.2
42835.4
42821.2
42808
42794.1
42778.1
42767.7
42761
42737
42727.5
42732.4
42717.1
42687
42682.7
42695.2
42663
42631.9
42627.2
42651.8
42627.2
42576.3
42564.1
42601.6
42610.8
42531.3
42501.9
42472.4
42485.4
42591.6
42559.8
42416.9
42369.8
42437.3
42581.4
42514.9
42340.2
42291.8
42423.9
42564.3
42437.7
42273.3
42227.4
42393.5
42538.9
42391.3
42226.9
42173.3
42308.1
42503.1
42411.3
42195.4
42135.9
42191.4
42442.6
42450.2
42183.4
42107.1
42067.4
42302.7
42452.1
42284.7
42059.5
42064.2
42329.8
42371.3
42079.7
41995.1
42227.3
42346.3
42084
41943.3
41934
42226.6
42288.7
42002.3
41922.6
41865.4
41854.6
42159.4
42214.4
41908.6
41821.6
41748.3
41807.2
42100.2
42030
41858.2
41934.6
41921.4
41741
41911.7
42128.7
41871.6
41662.2
41870.7
42061.8
41783.3
41654.3
41917.4
41936.4
41691.3
41662.5
41587.1
41575
41932.7
41952.1
41587.5
41487.3
41452.7
41824.3
41971.6
41611.7
41432.3
41414.8
41805.1
41916.3
41525.8
41358.8
41462.1
41850.3
41788.6
41390
41292.7
41599.7
41861.1
41562.8
41288.4
41296.6
41718.7
41782.1
41350.3
41198.6
41387.2
41761.3
41592.5
41212.7
41131
41487
41731.5
41370.2
41112.3
41103.7
41547.4
41641.7
41184.7
41015.4
41110.3
41555.2
41495.7
41043.6
40919.6
41125.6
41526.4
41331.2
40932.4
40827.3
41109.4
41466
41181.9
40830.7
40734.5
41065
41389
41051.6
40736.8
40640
40987.8
41311.3
40958
40641.5
40555.1
40964.9
41221.5
40809
40596.4
40490.8
40629.6
41132
41012.8
40564.6
40450.9
40493.2
41035.9
41092.6
40550.4
40398.4
40832.6
41091.5
40631.1
40393.1
40803
41030.1
40552.8
40391.8
40856.6
40945.7
40436.8
40421.4
40903.7
40812.8
40365.8
40231.3
40396.5
40939.7
40877.8
40301.3
40208.5
40722.5
40885.5
40328
40174.5
40668.7
40790.7
40234.3
40157.3
40677
40670.1
40116.7
40158.4
40680.6
40526.1
40009.2
40172.8
40663.8
40376.3
39918.2
40177
40624.8
40247.5
39841
40160
40572.5
40147.8
39769.9
40113.7
40513.7
40069.1
39696.3
40047.1
40453.8
40011.4
39620
39955.2
40382.7
39964.2
39553
39840.3
40307.8
39950.7
39480
39696.9
40218.5
39966.3
39422.9
39512.3
40088.7
40021.1
39394
39316.1
39886.3
40053.9
39433.3
39184.9
39609.5
39997.2
39539.4
39102.1
39284.1
39848.6
39685.8
39068.5
39020.8
39600.6
39740.4
39097.2
38854
39273.9
39666.9
39210.4
38758.7
38906.5
39477.2
39352.5
38710
38612.2
39158.5
39382.3
38767.5
38444
38700.9
39221.4
38960.8
38361.6
38281.3
38831.2
39060.5
38434.9
38101
38200.4
38795.1
38757.3
38066.9
37862.6
38137
38658.6
38393.6
37780.3
37632.3
38032.9
38463.6
38037
37527.4
37401
37860.9
38240
37735.9
37276.1
37160.2
37639
37997.6
37471.2
37029.6
36907.5
37366.6
37749.2
37251.5
36786
36653.3
37069.8
37495.1
37057.1
36548.2
36401.6
36735.1
37233.4
36906.8
36317.5
36160.3
36430.3
36970.8
36718
36094.2
35929.4
36065.8
36670
36580.4
35924.4
35760.5
35625.2
36033
36469.7
36044.7
35586
35454.3
35373.2
35931.2
36183.5
35570.3
35253.5
35109.2
35248.7
35848.6
35760.9
35081.7
34902.5
34815.2
35344.1
35649.2
35072.2
34678.8
34538.5
34864.4
35360
35047.6
34455.9
34297.2
34466.6
35046.7
34933.8
34245.2
34055.6
34190.1
34782.5
34698.8
34010.2
33819.7
33913.1
34509.1
34512.6
33802
33587.1
33912.9
34376.5
34024.5
33460.2
33489.9
34055
34075.2
33396.5
33219.7
33672.5
33985.7
33430.5
33031.7
33153.6
33722
33638.9
32964.7
32795.6
33200.6
33600
33153.4
32659.4
32712.9
33286
33279.8
32610.7
32395
32548.7
33126.7
32986.3
32459
32362.3
32208.8
32327.5
32895.2
32757
32163.1
32010.5
31940.7
32490.4
32777.5
32210.1
31826
31782
32357.6
32565.2
31940.5
31624.9
31913.9
32383.2
32062.2
31527.1
31612.4
32159.1
32076.2
31444.2
31402.9
31944
31984.4
31396.8
31211
31099.4
31569.7
31944.5
31481.7
31088.5
30953.2
31128.6
31718.4
31606.7
31001.3
30838.1
30828.1
31437.6
31593.8
30984.4
30721.3
30648.2
31206.6
31483.6
30949.3
30603.7
30510.7
31032.3
31362
30875
30496.9
30396.5
30907
31251.5
30782.9
30395
30295.1
30808.8
31153
30691.2
30309.3
30208.5
30719.3
31073.5
30621.5
30241.8
30134
30637.2
31007.7
30573
30183.3
30074.3
30569.3
30952.9
30534.5
30137.3
30025.9
30515.1
30907
30496.9
30094.9
29981.7
30458.1
30860.5
30467.1
30053
29934.6
30384.8
30812
30446.3
30013.5
29888.6
30304.2
30757.3
30428.1
29984.6
29847.4
30175.1
30707.1
30475.1
29972.1
29824.4
30094.2
30663.2
30487.5
29964.4
29818.4
29990.7
30605.1
30542.1
29973.2
29810.7
29905
30545.6
30566.1
29994.3
29811.1
29835.1
30486.2
30583.6
30042.1
29850.7
29766.9
30324.1
30682.5
30271.6
29835.8
30069.4
30570.4
30356.6
29931.3
30164.5
30494.6
30157.6
29915.9
30335.8
30518.3
30025.7
29862.8
30384.8
30575.9
30040.3
29834.5
30329.3
30571.3
30076.7
29848.9
30320.1
30550.7
30063.2
29853
30335.3
30558.9
30059.3
29838.8
30323.4
30580.5
30093.4
29835.7
30290.4
30591.5
30142.1
29834.5
30237.8
30611.3
30204.6
29856.2
30242
30550.8
30177.5
29947.9
29848
29853
30483
30619.9
30070.3
29812.8
29942
30536
30439.1
30073.5
30059.2
29935.5
29989.9
30570
30524.5
30016.8
29871.2
29878.1
30528.8
30660.8
30126
29919.4
29824.3
30345.9
30719.2
30323.2
29949.9
29834.7
30241.9
30722.8
30445.6
29971.3
29846.2
30257.4
30732.5
30453.9
29964.8
29860.7
30376.8
30754
30366.3
29922.7
29958.9
30588.4
30705.6
30129
29874.4
30206.4
30712.9
30493.2
29971.6
29871.2
30416.3
30733.7
30287.2
29920.3
29899.9
30523.6
30713.9
30175.9
29887.5
29956.5
30597.6
30655.4
30080.1
29868.6
29983
30615.8
30627.4
30050.4
29856.4
30002.8
30623.6
30594.6
30024.8
29848.2
29993.6
30618.3
30606.2
30023.6
29830.6
30065.3
30644.2
30514.3
29975
29818.9
30075
30653.7
30554.8
29959.4
29818.9
30313.8
30666
30255.9
29905.4
29795.5
30260.4
30695.6
30379.2
29892.3
29834.9
30423.4
30686.6
30184.1
29845.9
30201.8
30627
30310.3
29907.6
29796.2
30279.2
30670.8
30295.5
29926
29804.8
30098.5
30660.9
30495.7
29959.5
29816.8
30114.8
30668.8
30521.4
29952.3
29831.2
30340.8
30708.1
30319.2
29883.9
29987.6
30602.3
30626.6
30032.2
29871.6
30387.4
30705.2
30258.1
29892.4
30204.7
30676.7
30425.8
29941.7
29901.2
30511.3
30707.7
30184.8
29913.6
29933.6
30576.8
30740.7
30172.4
29902
30304.2
30719.7
30395.6
29949.5
29947
30577
30709.1
30165.9
29935.2
29937.2
30580
30771.8
30226.1
29912.5
30146.2
30719.3
30606.7
30015
30001.9
30589
30657.3
30121.1
29922
30007.7
30647.8
30655.7
30124.9
29978.8
29876.4
30377.8
30758.4
30363.7
30015.6
29892.1
30108.4
30715.6
30617.3
30066.8
29911.5
30044
30678.9
30674.1
30103
29914.8
30050.9
30683.8
30665.3
30100.4
29919
30050.5
30687.4
30675.2
30113.5
29930.9
30038.8
30679.5
30705
30136
29940.8
30075
30707.5
30712
30130.6
29939.2
30203.9
30774.3
30653.8
30084.8
29954.8
30455.8
30838.9
30469.6
30028.9
30089.9
30724.5
30808.9
30229.7
30014.6
30456.4
30873.3
30552.1
30087.1
30202.5
30813.6
30811.7
30232.4
30114.3
30679.2
30925.4
30430.6
30133.7
30534.7
30958.6
30645.7
30197.9
30410.6
30963.6
30820.7
30289.9
30347.3
30947.8
30958.2
30400.4
30331.4
30920.6
31059.8
30528
30352
30887
31139.9
30670.4
30395.3
30847.1
31206.5
30819.1
30455.3
30811.2
31261.7
30972
30532.5
30780.2
31305.1
31122.7
30623.8
30760.1
31336
31263.5
30727.3
30757.2
31356.1
31390.6
30843.8
30770.3
31361.7
31503.4
30975
30809.4
31361.3
31582.8
31098.7
30874.7
31371
31659.2
31236.6
30899.9
31200.4
31738.4
31550.8
31081.4
30941.8
31333.3
31853.8
31669.5
31125.7
31044.8
31643.6
31940.7
31498.6
31115
31364.9
31931.9
31810.6
31244.8
31257.7
31870.7
31948.3
31386
31254.8
31817.7
32013.7
31491.4
31277.4
31781.7
32055.2
31578.5
31297.3
31745.2
32085
31659.6
31317.3
31698.2
32106
31746
31335.6
31623
32110.1
31848.8
31360.5
31526.9
32085
31959.7
31399.6
31427.6
32022.9
32062
31474.5
31349.2
31907.1
32125.5
31591.5
31318.1
31744.2
32135.2
31747.4
31320.2
31570.9
32099.1
31896.6
31351.5
31433
32034.2
31999.8
31389.9
31343.1
31958.1
32056.6
31432.3
31306.3
31901.4
32071.7
31418.6
)
;

boundaryField
{
    sides
    {
        type            zeroGradient;
    }
    empty
    {
        type            empty;
    }
}


// ************************************************************************* //
