/*--------------------------------*- C++ -*----------------------------------*\
  =========                 |
  \\      /  F ield         | OpenFOAM: The Open Source CFD Toolbox
   \\    /   O peration     | Website:  https://openfoam.org
    \\  /    A nd           | Version:  13
     \\/     M anipulation  |
\*---------------------------------------------------------------------------*/
FoamFile
{
    format      ascii;
    class       volScalarField;
    location    "0.02";
    object      p_0;
}
// * * * * * * * * * * * * * * * * * * * * * * * * * * * * * * * * * * * * * //

dimensions      [1 -1 -2 0 0 0 0];

internalField   nonuniform List<scalar> 
1000
(
43366.1
43344.1
43320
43300.3
43282.2
43263.8
43243.8
43223
43202.2
43181.7
43161.3
43140.9
43120.4
43100.1
43080.4
43061.4
43043.1
43025.6
43008.8
42992.8
42977.3
42962.5
42948.1
42934.1
42920.3
42906.8
42893.3
42879.9
42866.5
42853.1
42839.2
42825.2
42812
42797.8
42782
42771.9
42764.5
42740.4
42731.9
42737.4
42719.1
42691.1
42687.9
42699.9
42664.2
42635.9
42632.7
42657.6
42627.3
42579.8
42569.5
42609.5
42611.3
42532.4
42505.4
42475.4
42497
42600.4
42553.3
42417.1
42373
42454.9
42589.8
42503.8
42340.1
42296.8
42444.7
42570.6
42423.5
42273.8
42233.5
42416.4
42544.8
42375.6
42227.5
42176.4
42334.1
42512.6
42394.1
42194.5
42136.2
42215.8
42457.4
42438.7
42176.1
42107.3
42077.9
42328.5
42459.4
42261.7
42058
42084.7
42349.5
42361.1
42067.1
42005.9
42253.9
42343.8
42066.2
41942.3
41954.2
42250.2
42279.5
41991
41924.4
41862.9
41876.6
42183.8
42202.4
41896.5
41822.3
41745.6
41839.1
42114.9
42013.1
41862.7
41948.2
41908.5
41741.9
41947.9
42132.2
41841.9
41667.6
41907.2
42060.3
41758.4
41670.6
41944
41919.7
41687.4
41665.1
41578.9
41604.1
41960.8
41928.6
41574.2
41484.1
41474.2
41861.2
41964.4
41582.4
41428.3
41441.3
41840
41902.7
41498.8
41355.1
41507.4
41872.6
41752.4
41377.4
41301.2
41648.9
41865
41521
41282.8
41331.6
41752.7
41758.3
41325.9
41197.3
41441.5
41778.3
41545.8
41204.4
41144.2
41538.7
41730.2
41326.8
41106.4
41138.1
41587.1
41618.3
41155.4
41009.7
41162.4
41583.3
41451.7
41028.1
40917.9
41186.4
41544.1
41277.9
40923.9
40830.6
41172.1
41476.3
41127.1
40824.3
40741.8
41128
41394.1
40997.7
40730.7
40648.8
41052.1
41314.9
40902.9
40634.5
40570.6
41026.8
41212.6
40765.8
40592
40483.5
40695.5
41160
40957.4
40552.1
40442
40547
41078.4
41053.6
40515
40416.2
40897.8
41079
40577.8
40409.7
40866.9
41010
40506
40422.4
40910.4
40906.7
40404
40473.2
40940.2
40756.4
40350.1
40223.6
40472.4
40973.3
40817.4
40273
40242.2
40785
40853.2
40280.5
40207.3
40729.4
40750.8
40193.5
40204.2
40727.4
40612.5
40088.7
40223.1
40716.2
40454
39994.7
40250.4
40683.7
40298.7
39914.2
40260.1
40632.7
40170.1
39842.9
40244.9
40574
40071.3
39774.3
40199.4
40513.4
39991.4
39700.9
40134.2
40454.3
39931.7
39623.1
40044
40386.7
39882.4
39551.4
39930.1
40321.1
39863.9
39471.9
39785.5
40244.3
39878.5
39405.3
39589.3
40133.3
39946.9
39360.7
39362.1
39956
40016
39372.2
39197.7
39700.8
39998.2
39451
39093
39373.8
39884.3
39598.9
39041
39074.7
39667.8
39696.1
39036.8
38866.9
39367.1
39669.6
39118.1
38747.7
38994.2
39518
39267.1
38678.3
38653.3
39236.2
39354
38692.9
38441
38797.2
39249.2
38863.3
38339.2
38323.3
38910.5
39033.1
38357.5
38088.9
38284.5
38846.3
38679.7
38025.2
37860.5
38237.1
38687.4
38292.6
37758.3
37644
38132.5
38474.8
37934.3
37511.7
37422.7
37957.1
38240.5
37636.7
37261.8
37184.9
37734.3
37994.9
37373.3
37015.7
36928.5
37464.5
37751.4
37150.1
36772
36667.3
37171.4
37505.1
36952.4
36533.3
36405.6
36840
37256.2
36799.7
36298.5
36157.8
36534.6
37001.7
36613.8
36071.7
35918
36159.9
36717.9
36493.9
35892.4
35747.8
35636
36138
36478
35945.5
35575.4
35439.5
35415
36019
36156.7
35489.9
35242.6
35098.3
35343.5
35897.1
35671.7
35046.1
34888.7
34851.3
35436.4
35634.3
34977.8
34665.8
34542.3
34970.4
35384
34938.2
34436.1
34288.2
34564.6
35091.9
34839.2
34208.5
34044.4
34284
34832
34607.5
33971.3
33807
34000.1
34564.7
34435.8
33748.2
33591.5
34015.7
34394.3
33914.1
33440.9
33563.1
34115.3
34001.7
33343.4
33245.6
33765.1
33970.3
33333.8
33019.6
33244
33770.1
33548.1
32923
32809.9
33302.2
33604.3
33044.8
32643
32791.8
33343.3
33201.5
32561.4
32382.5
32646.4
33166.7
32899.6
32440.6
32352.5
32190.9
32420.5
32938.5
32662.3
32135.1
31995.3
31981.6
32581.6
32758.4
32113.5
31809.2
31834.5
32439.1
32530.5
31854
31624.6
32016
32401.1
31954.3
31508.1
31696.3
32206.5
31986.1
31404.7
31463.7
32007
31916.9
31350.8
31195.6
31120.9
31671.7
31938.2
31384.9
31074.6
30941.1
31230.2
31759.4
31514.3
30967.7
30820.9
30891.5
31512
31547.3
30912.9
30703.9
30688.2
31297.4
31461.6
30859.6
30586.4
30540.2
31130
31349.7
30779.1
30478.8
30422.8
31006.6
31241.3
30686
30376.6
30321.3
30908.4
31142.4
30595.5
30290.9
30232
30820.8
31064.5
30525.3
30222.9
30155.9
30740.1
31000.4
30476.1
30164.2
30093.5
30673.8
30947.9
30436.8
30117.8
30043.7
30620.4
30902.2
30399.4
30075.4
29997.9
30563.8
30858.2
30368.3
30033.5
29946
30493.1
30814.1
30345.8
29993.6
29894.6
30414.3
30764.4
30327.3
29964.1
29843.3
30287.5
30726.1
30375
29946.6
29814.5
30204.9
30689.2
30391.2
29935.8
29801.7
30093.2
30645.1
30458.1
29933.4
29790.8
29994.9
30596.7
30496.5
29944.5
29789.8
29908.9
30550.2
30527.4
29986.5
29831.5
29796.2
30423.7
30678.8
30165.4
29823.5
30168.6
30587.2
30267.6
29924.6
30243.4
30484.9
30083
29940.7
30408.9
30477.4
29957.8
29901.7
30462
30534.3
29965.6
29863.1
30413.1
30539.6
29998.1
29875.9
30401.2
30517.6
29987.7
29882.2
30415.8
30524.5
29982.4
29865.7
30408.5
30551.2
30011.4
29855.4
30380.1
30571.3
30054.3
29843.4
30335.6
30602
30110
29864.3
30331.2
30532.3
30111.7
29936.4
29826.7
29920
30550
30572.4
30000.5
29793.1
30036.3
30570.2
30370
30062.1
30052.1
29903.1
30072
30614.6
30447.4
29980.9
29849.8
29946.1
30597
30612.3
30064.7
29900.8
29844.2
30448.8
30712.3
30229.7
29931.2
29836.5
30354.2
30734.1
30344.7
29947.3
29849.6
30368.3
30743.7
30351.2
29938.8
29883.1
30477.8
30751.1
30262.9
29899.7
30033.6
30649.7
30654.5
30056.4
29870.5
30315.3
30731.4
30391.9
29940.8
29901.9
30510.1
30720.1
30193
29898.6
29957.8
30598.5
30676.6
30097.4
29867.2
30039
30652.6
30593.1
30022.5
29849.3
30075.6
30663.8
30555.4
29999.4
29838.2
30100.8
30666.5
30516.2
29980.2
29830.1
30091
30662.1
30530.1
29974
29817.6
30172.4
30674.6
30422
29941.2
29807.6
30183.9
30685.2
30463.8
29916.4
29838.4
30412.1
30655.5
30166.2
29886.4
29807.2
30367.8
30702.8
30274.2
29867.1
29879.9
30507.8
30663.2
30090.8
29847.1
30302.9
30629.5
30217.7
29886
29810.5
30383.1
30665.9
30204.1
29908.3
29795.3
30210.7
30685.8
30400.6
29928.5
29808
30226
30695
30425.3
29915.5
29852.8
30440.3
30705
30216.5
29862.5
30076.7
30650.3
30556.7
29974
29898.5
30480.1
30690.3
30162.3
29888.2
30307.6
30689.5
30327.7
29913.4
29954.7
30587.7
30670.7
30109.4
29892.3
30004.9
30644.4
30698.6
30091.4
29908.5
30406.4
30722.7
30296.3
29924.6
30012
30644.5
30660.5
30101.1
29914.5
30002.1
30652.3
30737.4
30140.6
29899.8
30251.8
30750.8
30513.3
29974.3
30067.7
30647.2
30598.4
30066.8
29901.1
30095.8
30697.6
30586.5
30083.4
29960.9
29894
30481
30750
30274.5
29999.2
29877.4
30215.4
30749.5
30529.5
30031
29892.5
30140.1
30724.2
30600
30054.6
29896.2
30147.1
30727.9
30589.4
30054.4
29900.2
30146
30732.1
30600.6
30067.1
29911.3
30130.6
30728.7
30635.5
30083.9
29921.5
30171.4
30752.8
30639.1
30078.7
29927.2
30313.1
30803.1
30561.2
30045.5
29973.5
30556.8
30837.5
30367
30005.1
30170.6
30779.9
30751.9
30162.2
30023.7
30560
30877.3
30449.2
30063.7
30292.9
30857.8
30737.1
30178
30155.6
30760.5
30896.7
30344.2
30137.4
30637.3
30962.4
30544.7
30180.1
30510.9
30990.3
30727.2
30255
30427
30994.8
30887.2
30347.3
30386.4
30986.5
31012
30458.3
30384.3
30969.1
31112.5
30586.6
30408.3
30942.1
31196.2
30725
30452.7
30913.1
31266.5
30873.6
30516.1
30881.1
31324.7
31027.8
30594.9
30851.2
31370.3
31179.9
30685.5
30832
31405.3
31323.9
30788.5
30824.4
31427.2
31456
30905.6
30844.8
31439.3
31549.5
31021.2
30899.1
31455.5
31639.4
31149.6
30888.9
31307.3
31756.2
31458.9
31052.5
30939.8
31445.2
31872.1
31570.8
31090.8
31082.9
31730.7
31926.4
31401.5
31100.5
31469.8
31959.3
31718.6
31205.8
31328.1
31926.6
31888.5
31324.2
31297.4
31892.6
31975.2
31416.1
31303.3
31867.2
32029.7
31494.4
31312.5
31837.8
32070.9
31568.3
31321.2
31796.8
32104.4
31648.7
31327.6
31724.1
32123.5
31749.2
31339.5
31621.5
32117
31868.3
31363.6
31501.3
32076.2
31995.1
31417.6
31391
31985.9
32091.5
31510
31328.5
31843.2
32131.8
31647.6
31309.6
31672.2
32121.3
31798
31323.5
31515.5
32079
31923.1
31343.6
31394.9
32023.2
32014.6
31364.7
31319.7
31983.6
32077.1
31361.1
)
;

boundaryField
{
    sides
    {
        type            calculated;
        value           nonuniform List<scalar> 2(31361.1 43366.1);
    }
    empty
    {
        type            empty;
    }
}


// ************************************************************************* //
