/*--------------------------------*- C++ -*----------------------------------*\
  =========                 |
  \\      /  F ield         | OpenFOAM: The Open Source CFD Toolbox
   \\    /   O peration     | Website:  https://openfoam.org
    \\  /    A nd           | Version:  13
     \\/     M anipulation  |
\*---------------------------------------------------------------------------*/
FoamFile
{
    format      ascii;
    class       surfaceScalarField;
    location    "0.02";
    object      phi;
}
// * * * * * * * * * * * * * * * * * * * * * * * * * * * * * * * * * * * * * //

dimensions      [1 0 -1 0 0 0 0];

internalField   nonuniform List<scalar> 
999
(
39.5456
41.0715
42.5978
44.1242
45.6503
47.1758
48.7008
50.2252
51.7482
53.269
54.7862
56.2981
57.803
59.2991
60.7852
62.2607
63.725
65.1784
66.6213
68.0549
69.4805
70.8997
72.3135
73.7236
75.1312
76.5362
77.9416
79.346
80.7531
82.163
83.5682
84.9906
86.43
87.7822
89.2029
90.7573
92.0221
93.2671
94.8683
96.6675
97.4084
98.8635
100.717
102.453
102.906
104.368
106.366
108.497
108.536
109.795
111.719
114.62
114.864
115.207
116.468
117.521
121.652
124.933
122.663
122.659
123.751
130.147
133.342
129.361
129.239
130.906
138.544
141.048
135.863
136.05
138.059
146.476
148.84
143.064
143.285
144.241
153.704
157.356
151.168
150.765
150.792
159.484
165.021
161.227
158.359
158.458
161.907
171.486
174.403
165.982
165.356
172.48
179.844
176.587
171.721
175.279
185.139
184.67
177.914
177.516
184.449
193.296
190.432
185.999
186.663
185.748
193.313
202.439
198.618
193.856
194.122
193.062
204.398
210.108
203.972
205.404
210.522
205.987
205.821
219.079
220.938
209.857
211.393
224.896
224.962
215.553
221.009
231.059
225.322
223.621
224.652
221.615
231.598
242.258
234.319
229.049
227.922
235.017
248.894
247.096
235.917
234.478
243.401
256.541
252.463
242.086
240.511
256.643
265.291
252.605
247.676
250.056
268.358
270.561
254.913
252.799
264.777
277.671
269.904
260.414
259.452
279.169
286.052
269.114
265.899
269.86
289.211
289.737
273.316
271.123
282.729
297.817
290.399
278.996
276.666
295.168
306.124
290.704
284.554
283.363
305.516
312.811
293.379
290.096
290.51
313.692
318.417
298.071
295.672
297.394
320.861
323.811
303.53
301.3
303.512
327.491
329.944
309.182
306.679
311.184
334.494
332.471
315.827
314.303
311.179
334.784
346.013
326.106
321.12
317.701
336.346
352.76
339.843
326.007
331.175
355.797
352.698
332.304
337.07
361.233
355.351
337.269
347.112
367.821
354.771
341.67
359.549
374.262
354.036
347.808
344.406
371.666
384.88
363.873
352.664
363.413
387.301
377.157
358.589
369.084
392.382
379.338
363.137
378.938
398.721
378.81
367.186
389.892
404.633
378.539
371.884
400.005
409.098
380.248
377.451
408.111
412.835
383.621
382.922
414.543
416.985
387.921
388.083
420.152
421.986
392.385
392.596
425.178
427.329
396.969
396.633
429.808
433.232
402.157
400.19
433.472
440.281
407.642
403.427
435.852
447.116
414.822
407.287
434.585
452.488
426.431
412.967
427.987
454.889
443.201
419.258
422.145
456.67
459.161
425.493
421.027
453.572
468.409
437.073
425.905
443.93
470.01
456.072
432.251
435.102
470.44
473.622
438.386
433.279
464.969
481.736
451.186
438.38
451.456
481.417
473.519
444.304
441.763
477.438
489.633
453.574
444.58
458.018
488.657
481.22
450.722
445.444
475.548
496.099
469.119
452.204
449.907
487.251
499.886
462.406
453.6
455.998
493.936
500.419
461.133
455.092
461.027
497.984
500.706
462.341
456.891
463.873
500.618
502.263
464.163
458.896
464.534
502.282
505.671
466.341
460.984
464.09
503.2
509.381
468.947
463.199
462.824
502.787
513.6
472.886
465.283
462.742
502.122
515.822
476.745
467.55
462.229
496.724
516.663
485.377
471.914
467.215
469.131
509.84
515.451
476.694
472.521
466.912
480.307
515.055
507.866
475.388
471.307
466.126
501.201
521.492
489.082
474.081
468.819
480.129
516.671
514.046
476.193
471.25
470.781
511.761
523.193
481.149
473.06
468.361
505.095
524.292
489.548
474.081
468.681
503.662
524.578
491.211
474.768
468.997
501.091
524.069
497.214
474.58
474.238
514.372
523.671
480.671
472.113
498.495
523.549
497.749
475.398
482.908
519.908
517.105
477.861
472.002
505.879
526.504
493.057
475.391
478.576
518.941
523.454
480.089
472.705
501.651
525.725
497.722
476.705
470.578
507.742
525.53
492.38
484.238
480.753
472.516
507.72
526.952
490.913
478.853
472.938
486.163
523.336
519.165
479.46
472.624
490.586
524.153
513.926
477.908
475.8
516.173
525.756
483.027
474.077
505.657
526.5
492.687
475.337
496.963
523.727
499.443
479.63
473.684
479.394
520.983
521.418
481.72
476.175
470.064
509.308
527.678
492.484
477.931
470.878
493.301
524.503
509.259
478.996
472.124
484.977
522.627
517.049
479.704
472.881
481.601
521.935
520.051
480.395
473.26
480.696
521.816
520.729
480.748
473.439
480.844
521.997
520.728
481.184
473.907
480.257
522.162
521.503
481.751
474.305
479.967
522.443
522.405
482.462
474.936
479.573
522.655
523.467
483.226
475.517
479.613
523.006
523.862
483.7
475.899
479.431
523.013
524.814
484.202
476.382
478.108
522.579
526.031
484.953
476.896
476.612
521.62
526.935
485.932
477.555
473.686
518.944
528.839
488.979
478.222
472.379
516.445
529.062
491.215
479.012
471.051
510.851
528.797
496.995
479.763
470.951
504.983
527.391
501.966
480.45
471.577
498.341
526.163
506.134
482.273
474.788
483.285
524.809
526.126
482.553
475.646
515.165
524.187
488.48
483.591
515.737
514.227
483.097
490.583
521.415
507.592
478.736
491.513
524.183
510.473
478.749
487.38
522.591
512.783
479.633
487.689
521.855
511.32
479.354
488.322
522.231
511.242
478.784
486.74
522.415
513.558
479.122
484.242
521.647
516.37
479.792
480.715
521.022
520.053
480.908
481.589
518.589
513.474
485.775
481.226
472.612
496.527
525.288
509.16
479.573
470.635
506.924
522.849
495.671
490.382
488.218
474.235
505.217
525.398
496.018
480.47
471.771
495.982
525.328
508.64
482.445
475.16
480.046
522.846
522.74
484.14
476.693
474.81
520.592
527.4
486.789
476.853
475.596
520.899
527.686
486.429
475.609
481.486
523.423
524.979
482.703
472.726
500.059
526.339
508.929
478.208
474.363
518.319
527.906
487.764
474.768
483.952
523.148
520.548
481.5
472.584
492.691
524.525
512.662
479.585
470.748
501.571
525.544
503.194
478.537
469.847
505.135
526.17
499.816
477.847
469.402
507.136
526.234
496.904
477.666
469.27
506.765
526.104
497.993
476.656
469.746
511.993
526.207
490.416
475.975
469.659
512.768
527.199
492.492
474.086
478.883
519.749
518.223
481.051
473.546
475.343
519.587
524.879
482.452
471.793
486.78
522.293
516.051
477.126
475.169
516.446
519.873
482.096
473.378
476.124
519.145
519.732
482.033
474.962
469.204
513.984
526.006
488.771
475.575
470.024
514.48
526.869
489.607
473.858
479.452
520.773
522.199
480.186
470.419
504.278
525.28
499.951
474.959
482.706
521.396
518.328
478.636
474.658
516.227
523.673
484.424
472.338
490.751
523.231
511.317
479.556
470.692
496.418
525.255
511.581
477.422
477.394
519.287
522.939
482.656
472.092
495.109
524.068
507.428
479.909
471.451
494.353
525.101
514.47
478.588
471.746
513.391
527.941
492.158
474.189
497.949
523.357
502.102
478.934
469.813
502.955
524.915
499.384
481.252
474.298
478.305
521.084
520.339
483.44
476.9
469.542
511.513
527.046
493.386
478.02
469.399
506.186
526.158
498.845
477.973
469.431
506.333
525.887
497.668
477.869
469.276
505.799
525.579
497.911
477.941
469.196
504.013
525.52
500.184
477.822
469.031
505.949
525.848
499.163
476.859
470.177
513.488
526.889
491.274
474.514
478.939
520.768
522.799
480.988
470.572
500.488
524.483
504.493
475.905
476.728
519.305
523.298
481.727
470.957
505.351
524.736
497.499
474.119
487.562
521.776
513.246
477.272
476.112
518.04
521.936
481.162
472.098
511.485
524.297
488.038
472.333
502.136
522.757
496.878
473.815
493.015
521.172
504.894
475.47
485.382
519.804
511.639
476.852
479.24
518.454
516.92
478.401
474.928
516.187
520.473
480.994
472.348
512.254
522.214
485.088
471.713
506.591
522.269
490.618
472.172
499.684
521.146
497.068
473.294
492.061
519.907
503.781
474.616
485.715
518.509
507.907
475.729
482.595
517.685
512.371
476.737
470.311
512.701
521.756
485.693
473.769
470.546
515.507
524.55
486.225
471.556
483.484
519.729
516.838
477.238
469.674
510.698
523.412
488.324
471.308
496.682
520.793
499.66
473.591
487.591
518.978
506.522
475.182
482.593
517.95
510.605
475.908
479.262
517.146
514.193
476.943
476.006
515.852
517.721
478.49
473.15
513.21
520.862
481.557
471.429
507.79
522.548
487.722
471.859
498.68
521.639
497.678
473.555
487.23
520.027
509.501
475.713
477.223
517.452
518.731
478.411
472.233
512.033
522.999
484.69
471.906
502.672
522.464
494.198
474.025
491.861
519.718
505.871
477.119
479.529
513.998
519.025
)
;

boundaryField
{
    sides
    {
        type            calculated;
        value           nonuniform List<scalar> 2(493.898 -38.0194);
    }
    empty
    {
        type            empty;
    }
}


// ************************************************************************* //
