/*--------------------------------*- C++ -*----------------------------------*\
  =========                 |
  \\      /  F ield         | OpenFOAM: The Open Source CFD Toolbox
   \\    /   O peration     | Website:  https://openfoam.org
    \\  /    A nd           | Version:  13
     \\/     M anipulation  |
\*---------------------------------------------------------------------------*/
FoamFile
{
    format      ascii;
    class       volScalarField;
    location    "0.02";
    object      rho;
}
// * * * * * * * * * * * * * * * * * * * * * * * * * * * * * * * * * * * * * //

dimensions      [1 -3 0 0 0 0 0];

internalField   nonuniform List<scalar> 
1000
(
0.549854
0.549594
0.549316
0.549084
0.548869
0.548654
0.548428
0.548203
0.547989
0.547788
0.547596
0.54741
0.547228
0.547049
0.546874
0.546703
0.546538
0.54638
0.546227
0.546081
0.545941
0.545807
0.545676
0.545549
0.545424
0.545301
0.545179
0.545058
0.544936
0.544814
0.544688
0.54456
0.54444
0.544314
0.54417
0.544078
0.544018
0.543798
0.543711
0.543754
0.543611
0.543342
0.543304
0.543416
0.543119
0.542839
0.542797
0.54302
0.542788
0.542332
0.542222
0.542566
0.542641
0.541922
0.54166
0.541394
0.541526
0.542487
0.542181
0.540897
0.540472
0.541101
0.542391
0.541761
0.540192
0.539754
0.54097
0.542219
0.541045
0.539575
0.539163
0.540692
0.541984
0.540621
0.539153
0.53867
0.539923
0.541666
0.540801
0.538869
0.53833
0.538866
0.541126
0.541162
0.538753
0.538071
0.537725
0.539879
0.541208
0.539652
0.537643
0.537713
0.540118
0.540454
0.537808
0.537066
0.539191
0.540229
0.537829
0.536574
0.536513
0.539168
0.539687
0.537086
0.536377
0.53585
0.535784
0.53855
0.538999
0.536224
0.535446
0.534772
0.535355
0.53799
0.537309
0.535777
0.536486
0.536325
0.534701
0.536302
0.53822
0.535839
0.533983
0.535917
0.537596
0.535033
0.533915
0.536318
0.536427
0.534215
0.533956
0.533255
0.533197
0.536442
0.536546
0.533249
0.532349
0.532065
0.535462
0.536735
0.533437
0.53184
0.53172
0.535278
0.536221
0.532657
0.531169
0.532178
0.535665
0.535024
0.531437
0.530573
0.533423
0.535727
0.532953
0.53051
0.530636
0.534465
0.53496
0.531034
0.52968
0.531471
0.534809
0.533183
0.529783
0.52906
0.532353
0.534499
0.531156
0.528862
0.528832
0.532872
0.53364
0.529469
0.527955
0.528899
0.532905
0.532264
0.528192
0.527075
0.529042
0.532625
0.530748
0.527182
0.526233
0.528888
0.532055
0.529374
0.526245
0.525379
0.528473
0.531336
0.528176
0.525376
0.524503
0.527756
0.530615
0.527306
0.524487
0.523719
0.527527
0.529764
0.52595
0.524064
0.523088
0.52446
0.528983
0.527773
0.523744
0.522705
0.523177
0.528107
0.528509
0.523566
0.522241
0.526274
0.528524
0.524257
0.522175
0.525988
0.527943
0.523534
0.522169
0.526448
0.527131
0.522483
0.522457
0.526841
0.525878
0.521847
0.520621
0.522249
0.527139
0.52644
0.521229
0.520451
0.525187
0.526537
0.521422
0.520116
0.52468
0.525648
0.520549
0.519963
0.524712
0.524495
0.519477
0.519975
0.524708
0.523138
0.518481
0.520109
0.524514
0.521736
0.517638
0.520131
0.524119
0.520534
0.516919
0.519956
0.523602
0.519602
0.516252
0.519521
0.523045
0.518855
0.515552
0.518892
0.52249
0.518316
0.514833
0.518031
0.521822
0.517862
0.514199
0.516966
0.521132
0.51771
0.513497
0.515623
0.520307
0.517833
0.512944
0.513892
0.519123
0.518336
0.512639
0.512018
0.517289
0.518673
0.512937
0.510742
0.514757
0.518182
0.513843
0.509933
0.511745
0.516844
0.515173
0.509585
0.509246
0.514602
0.515727
0.509785
0.507634
0.511622
0.515104
0.510762
0.506713
0.508211
0.513393
0.512062
0.506221
0.505399
0.510501
0.512404
0.50666
0.503765
0.506279
0.510975
0.508386
0.502965
0.502287
0.507431
0.509389
0.503534
0.50053
0.501589
0.507035
0.506499
0.500164
0.498301
0.501001
0.505711
0.503062
0.497492
0.496135
0.499995
0.503846
0.499712
0.495108
0.493956
0.498354
0.501723
0.496883
0.492731
0.491675
0.49625
0.499432
0.494384
0.49039
0.48927
0.493678
0.497103
0.492298
0.488074
0.486852
0.490888
0.494712
0.490437
0.485816
0.484448
0.487718
0.492258
0.489006
0.483599
0.482127
0.484829
0.489767
0.487197
0.481463
0.479896
0.481334
0.486941
0.485892
0.479799
0.478269
0.477009
0.480993
0.484962
0.480793
0.476592
0.475322
0.474622
0.479974
0.482188
0.476304
0.473393
0.472011
0.473497
0.479096
0.478053
0.471696
0.470003
0.469232
0.47435
0.477085
0.471483
0.467853
0.466524
0.469794
0.474371
0.471197
0.465709
0.464196
0.465971
0.471397
0.470114
0.463645
0.461848
0.463289
0.46886
0.467849
0.461354
0.459548
0.460588
0.466227
0.466064
0.459306
0.457308
0.460589
0.464893
0.461325
0.456058
0.456465
0.461853
0.461844
0.455367
0.453766
0.458228
0.461077
0.45561
0.451888
0.453216
0.45861
0.457601
0.451185
0.449606
0.453651
0.457347
0.45286
0.448226
0.448877
0.45438
0.454112
0.447691
0.445636
0.447294
0.452795
0.451238
0.446237
0.445291
0.443772
0.445093
0.450518
0.448964
0.443311
0.441836
0.441224
0.446645
0.449263
0.443626
0.44
0.439657
0.44531
0.447158
0.440996
0.438032
0.441016
0.445451
0.44212
0.437042
0.438035
0.443298
0.442276
0.436188
0.435929
0.441212
0.441403
0.435688
0.433906
0.432848
0.437594
0.441087
0.436414
0.432688
0.431341
0.433243
0.438926
0.437622
0.43178
0.430186
0.430212
0.436215
0.43756
0.431536
0.429033
0.42839
0.433961
0.43651
0.43116
0.427869
0.427001
0.432253
0.435334
0.430404
0.426801
0.425864
0.431019
0.434244
0.429493
0.425792
0.424851
0.430043
0.433271
0.428578
0.42493
0.42398
0.429162
0.432477
0.427882
0.424249
0.423233
0.428345
0.431826
0.427392
0.423663
0.422632
0.427667
0.431282
0.427
0.423197
0.422141
0.427123
0.430821
0.426618
0.422768
0.421688
0.426549
0.430354
0.426299
0.422338
0.421192
0.425807
0.429869
0.426091
0.421935
0.420722
0.42502
0.429322
0.425901
0.421644
0.420291
0.423729
0.428848
0.42636
0.421503
0.420047
0.42292
0.428422
0.42649
0.421412
0.419967
0.421869
0.427837
0.427029
0.421468
0.419869
0.42098
0.427267
0.42728
0.421661
0.419875
0.420254
0.426686
0.427475
0.42211
0.420262
0.4195
0.425135
0.428518
0.424293
0.420117
0.422615
0.427447
0.425157
0.421061
0.423527
0.426665
0.423205
0.420956
0.425202
0.426839
0.421913
0.420458
0.425689
0.427406
0.422048
0.420147
0.425157
0.427372
0.422395
0.42029
0.425052
0.427172
0.422272
0.420336
0.425203
0.427254
0.422228
0.420191
0.425112
0.427471
0.422563
0.420163
0.424782
0.427608
0.423043
0.420136
0.424286
0.427819
0.42365
0.42035
0.424313
0.427207
0.423423
0.421232
0.420214
0.420405
0.426649
0.427827
0.422351
0.419864
0.421327
0.427121
0.425993
0.42246
0.422305
0.421041
0.421771
0.427452
0.426817
0.421857
0.420424
0.420634
0.427079
0.428205
0.422892
0.420907
0.420018
0.425323
0.428847
0.42479
0.421214
0.420095
0.424309
0.428906
0.425985
0.421417
0.42021
0.424458
0.428997
0.426062
0.421349
0.42038
0.42562
0.429186
0.425193
0.420928
0.42143
0.427642
0.42863
0.422903
0.420468
0.42394
0.428806
0.426441
0.421408
0.42048
0.425988
0.428963
0.42441
0.4209
0.420804
0.427007
0.428723
0.423327
0.420555
0.421403
0.427697
0.428085
0.422408
0.420354
0.421664
0.427858
0.427785
0.422111
0.420229
0.421863
0.427916
0.42744
0.421863
0.42014
0.421761
0.427856
0.427548
0.421836
0.419961
0.42248
0.428084
0.426602
0.421368
0.41984
0.42257
0.428175
0.427006
0.421196
0.419883
0.424925
0.428236
0.424047
0.420692
0.419637
0.424409
0.428549
0.425247
0.420556
0.420085
0.425976
0.428416
0.423339
0.420123
0.423822
0.427879
0.424583
0.420715
0.419655
0.424592
0.428299
0.424441
0.420905
0.419704
0.422809
0.428234
0.426413
0.421213
0.419822
0.422966
0.428307
0.42666
0.421127
0.420003
0.425177
0.428648
0.424645
0.420458
0.421659
0.427672
0.427731
0.421882
0.420399
0.425618
0.428607
0.424046
0.42056
0.42383
0.428358
0.425695
0.42103
0.420737
0.426814
0.428595
0.423356
0.420747
0.421091
0.427443
0.4289
0.423221
0.420672
0.424804
0.428771
0.4254
0.421099
0.42121
0.427452
0.428583
0.423186
0.420962
0.421112
0.427484
0.429216
0.42375
0.420747
0.423247
0.428794
0.427488
0.421726
0.421754
0.427542
0.428053
0.422756
0.420821
0.421838
0.428119
0.428008
0.4228
0.42138
0.420423
0.425525
0.429113
0.425088
0.421757
0.420524
0.422868
0.428754
0.427586
0.422239
0.420713
0.422207
0.428404
0.428171
0.422576
0.420741
0.422269
0.428445
0.428071
0.422551
0.420783
0.422262
0.428476
0.428172
0.422668
0.420888
0.422133
0.428399
0.428469
0.422879
0.420983
0.422495
0.428666
0.428528
0.422821
0.420972
0.423787
0.429295
0.427915
0.422384
0.421172
0.426264
0.429894
0.426074
0.421851
0.422609
0.428832
0.429502
0.423771
0.421747
0.426277
0.430235
0.426899
0.42243
0.423743
0.429705
0.429503
0.423821
0.422786
0.428441
0.430702
0.425726
0.422928
0.427048
0.43108
0.427826
0.423532
0.425823
0.431162
0.429562
0.424426
0.425164
0.43104
0.430956
0.425493
0.424967
0.430799
0.432
0.426726
0.425134
0.430497
0.432824
0.428107
0.425535
0.430129
0.433504
0.429556
0.426106
0.429793
0.434068
0.431055
0.426851
0.429487
0.434518
0.43255
0.427743
0.429281
0.434844
0.433953
0.428749
0.429226
0.435075
0.435238
0.429889
0.429324
0.435163
0.436383
0.431168
0.429688
0.435189
0.437195
0.432376
0.430332
0.435303
0.437977
0.433719
0.430541
0.433686
0.438809
0.4368
0.432313
0.430973
0.435008
0.439949
0.437969
0.432756
0.432061
0.438005
0.440772
0.436323
0.432691
0.43533
0.440752
0.439387
0.433945
0.434234
0.440208
0.440799
0.4353
0.434169
0.439735
0.441486
0.436317
0.434381
0.439411
0.441923
0.437171
0.434565
0.439085
0.442234
0.437967
0.434764
0.438646
0.442477
0.438813
0.434943
0.437926
0.442556
0.439828
0.435184
0.436991
0.442353
0.440942
0.435562
0.43601
0.441789
0.441996
0.43629
0.435202
0.44072
0.442692
0.43741
0.434866
0.43918
0.442851
0.438915
0.434879
0.43752
0.442552
0.440394
0.43519
0.436154
0.441976
0.44146
0.435559
0.435241
0.441289
0.4421
0.435964
0.434842
0.440785
0.44232
0.43581
)
;

boundaryField
{
    sides
    {
        type            calculated;
        value           nonuniform List<scalar> 2(0.43581 0.549854);
    }
    empty
    {
        type            empty;
    }
}


// ************************************************************************* //
