/*--------------------------------*- C++ -*----------------------------------*\
  =========                 |
  \\      /  F ield         | OpenFOAM: The Open Source CFD Toolbox
   \\    /   O peration     | Website:  https://openfoam.org
    \\  /    A nd           | Version:  13
     \\/     M anipulation  |
\*---------------------------------------------------------------------------*/
FoamFile
{
    format      ascii;
    class       volVectorField;
    location    "0.02";
    object      U;
}
// * * * * * * * * * * * * * * * * * * * * * * * * * * * * * * * * * * * * * //

dimensions      [0 1 -1 0 0 0 0];

internalField   nonuniform List<vector> 
1000
(
(17.2874 0 0)
(18.0741 0 0)
(19.1053 0 0)
(19.8538 0 0)
(20.445 0 0)
(21.0675 0 0)
(21.7721 0 0)
(22.5098 0 0)
(23.235 0 0)
(23.9347 0 0)
(24.6197 0 0)
(25.3092 0 0)
(26.0102 0 0)
(26.7152 0 0)
(27.4148 0 0)
(28.1048 0 0)
(28.7873 0 0)
(29.4656 0 0)
(30.1416 0 0)
(30.8147 0 0)
(31.4839 0 0)
(32.149 0 0)
(32.8105 0 0)
(33.4695 0 0)
(34.1269 0 0)
(34.783 0 0)
(35.4383 0 0)
(36.0928 0 0)
(36.7468 0 0)
(37.4005 0 0)
(38.0529 0 0)
(38.7035 0 0)
(39.3452 0 0)
(39.9515 0 0)
(40.5324 0 0)
(41.1372 0 0)
(41.7434 0 0)
(42.3198 0 0)
(42.9355 0 0)
(43.6153 0 0)
(44.256 0 0)
(44.8684 0 0)
(45.5425 0 0)
(46.2491 0 0)
(46.8928 0 0)
(47.5136 0 0)
(48.215 0 0)
(48.969 0 0)
(49.6477 0 0)
(50.2726 0 0)
(50.9848 0 0)
(51.8062 0 0)
(52.563 0 0)
(53.1716 0 0)
(53.7828 0 0)
(54.4344 0 0)
(55.221 0 0)
(56.1303 0 0)
(56.7868 0 0)
(57.2201 0 0)
(57.781 0 0)
(58.6692 0 0)
(59.6625 0 0)
(60.2456 0 0)
(60.5952 0 0)
(61.1821 0 0)
(62.1737 0 0)
(63.1736 0 0)
(63.6636 0 0)
(63.9892 0 0)
(64.6247 0 0)
(65.6751 0 0)
(66.6935 0 0)
(67.1568 0 0)
(67.472 0 0)
(68.0755 0 0)
(69.1006 0 0)
(70.2057 0 0)
(70.7464 0 0)
(71.0295 0 0)
(71.5367 0 0)
(72.465 0 0)
(73.6326 0 0)
(74.3376 0 0)
(74.6112 0 0)
(75.0012 0 0)
(75.7394 0 0)
(76.8655 0 0)
(77.9004 0 0)
(78.2972 0 0)
(78.5309 0 0)
(79.2811 0 0)
(80.432 0 0)
(81.197 0 0)
(81.4553 0 0)
(81.9625 0 0)
(83.0458 0 0)
(83.9512 0 0)
(84.2695 0 0)
(84.5724 0 0)
(85.3674 0 0)
(86.5475 0 0)
(87.3632 0 0)
(87.6594 0 0)
(88.0529 0 0)
(88.6429 0 0)
(89.4839 0 0)
(90.6609 0 0)
(91.44 0 0)
(91.6779 0 0)
(92.005 0 0)
(92.5569 0 0)
(93.4776 0 0)
(94.6373 0 0)
(95.3217 0 0)
(95.7943 0 0)
(96.5615 0 0)
(97.255 0 0)
(97.8075 0 0)
(98.7768 0 0)
(99.7862 0 0)
(100.148 0 0)
(100.492 0 0)
(101.504 0 0)
(102.496 0 0)
(102.859 0 0)
(103.344 0 0)
(104.381 0 0)
(105.137 0 0)
(105.503 0 0)
(106.014 0 0)
(106.604 0 0)
(107.443 0 0)
(108.644 0 0)
(109.364 0 0)
(109.552 0 0)
(109.886 0 0)
(110.681 0 0)
(111.931 0 0)
(112.865 0 0)
(113.078 0 0)
(113.288 0 0)
(114.077 0 0)
(115.339 0 0)
(116.202 0 0)
(116.374 0 0)
(116.631 0 0)
(117.59 0 0)
(118.852 0 0)
(119.438 0 0)
(119.544 0 0)
(120.021 0 0)
(121.2 0 0)
(122.3 0 0)
(122.593 0 0)
(122.736 0 0)
(123.526 0 0)
(124.816 0 0)
(125.594 0 0)
(125.718 0 0)
(126.032 0 0)
(127.095 0 0)
(128.337 0 0)
(128.789 0 0)
(128.873 0 0)
(129.425 0 0)
(130.65 0 0)
(131.703 0 0)
(131.932 0 0)
(132.061 0 0)
(132.836 0 0)
(134.134 0 0)
(134.947 0 0)
(135.052 0 0)
(135.278 0 0)
(136.226 0 0)
(137.513 0 0)
(138.091 0 0)
(138.138 0 0)
(138.484 0 0)
(139.552 0 0)
(140.774 0 0)
(141.169 0 0)
(141.195 0 0)
(141.637 0 0)
(142.771 0 0)
(143.933 0 0)
(144.234 0 0)
(144.267 0 0)
(144.771 0 0)
(145.94 0 0)
(147.054 0 0)
(147.296 0 0)
(147.339 0 0)
(147.877 0 0)
(149.067 0 0)
(150.175 0 0)
(150.408 0 0)
(150.454 0 0)
(151.043 0 0)
(152.289 0 0)
(153.318 0 0)
(153.521 0 0)
(153.671 0 0)
(154.177 0 0)
(155.219 0 0)
(156.547 0 0)
(157.091 0 0)
(157.149 0 0)
(157.479 0 0)
(158.42 0 0)
(159.809 0 0)
(160.572 0 0)
(160.612 0 0)
(161.005 0 0)
(162.264 0 0)
(163.311 0 0)
(163.487 0 0)
(163.8 0 0)
(164.979 0 0)
(165.962 0 0)
(166.14 0 0)
(166.577 0 0)
(167.802 0 0)
(168.612 0 0)
(168.748 0 0)
(169.367 0 0)
(170.609 0 0)
(171.214 0 0)
(171.309 0 0)
(171.678 0 0)
(172.753 0 0)
(174.153 0 0)
(174.73 0 0)
(174.712 0 0)
(175.221 0 0)
(176.546 0 0)
(177.446 0 0)
(177.527 0 0)
(177.939 0 0)
(179.19 0 0)
(180.03 0 0)
(180.129 0 0)
(180.659 0 0)
(181.925 0 0)
(182.602 0 0)
(182.679 0 0)
(183.369 0 0)
(184.639 0 0)
(185.158 0 0)
(185.245 0 0)
(186.078 0 0)
(187.308 0 0)
(187.692 0 0)
(187.811 0 0)
(188.771 0 0)
(189.954 0 0)
(190.233 0 0)
(190.38 0 0)
(191.42 0 0)
(192.551 0 0)
(192.744 0 0)
(192.887 0 0)
(193.987 0 0)
(195.168 0 0)
(195.356 0 0)
(195.45 0 0)
(196.481 0 0)
(197.65 0 0)
(197.891 0 0)
(198.035 0 0)
(199.073 0 0)
(200.219 0 0)
(200.432 0 0)
(200.529 0 0)
(201.545 0 0)
(202.769 0 0)
(203.037 0 0)
(203.073 0 0)
(203.993 0 0)
(205.285 0 0)
(205.666 0 0)
(205.652 0 0)
(206.411 0 0)
(207.753 0 0)
(208.319 0 0)
(208.265 0 0)
(208.766 0 0)
(210.092 0 0)
(210.947 0 0)
(210.941 0 0)
(211.163 0 0)
(212.342 0 0)
(213.48 0 0)
(213.629 0 0)
(213.629 0 0)
(214.522 0 0)
(215.837 0 0)
(216.27 0 0)
(216.171 0 0)
(216.702 0 0)
(218.013 0 0)
(218.793 0 0)
(218.741 0 0)
(218.927 0 0)
(220.058 0 0)
(221.159 0 0)
(221.275 0 0)
(221.218 0 0)
(222.032 0 0)
(223.31 0 0)
(223.739 0 0)
(223.591 0 0)
(223.989 0 0)
(225.22 0 0)
(226.07 0 0)
(226.01 0 0)
(226.016 0 0)
(226.944 0 0)
(228.138 0 0)
(228.397 0 0)
(228.2 0 0)
(228.616 0 0)
(229.827 0 0)
(230.654 0 0)
(230.563 0 0)
(230.472 0 0)
(231.233 0 0)
(232.489 0 0)
(232.96 0 0)
(232.737 0 0)
(232.822 0 0)
(233.78 0 0)
(234.958 0 0)
(235.176 0 0)
(234.916 0 0)
(235.151 0 0)
(236.218 0 0)
(237.286 0 0)
(237.346 0 0)
(237.089 0 0)
(237.427 0 0)
(238.548 0 0)
(239.53 0 0)
(239.509 0 0)
(239.254 0 0)
(239.618 0 0)
(240.745 0 0)
(241.702 0 0)
(241.654 0 0)
(241.393 0 0)
(241.747 0 0)
(242.851 0 0)
(243.835 0 0)
(243.812 0 0)
(243.533 0 0)
(243.836 0 0)
(244.901 0 0)
(245.933 0 0)
(245.954 0 0)
(245.656 0 0)
(245.887 0 0)
(246.886 0 0)
(247.986 0 0)
(248.102 0 0)
(247.783 0 0)
(247.921 0 0)
(248.855 0 0)
(249.996 0 0)
(250.171 0 0)
(249.843 0 0)
(249.9 0 0)
(250.695 0 0)
(251.878 0 0)
(252.231 0 0)
(251.943 0 0)
(251.887 0 0)
(252.264 0 0)
(253.292 0 0)
(254.278 0 0)
(254.278 0 0)
(253.996 0 0)
(254.086 0 0)
(254.598 0 0)
(255.698 0 0)
(256.44 0 0)
(256.265 0 0)
(256.016 0 0)
(256.187 0 0)
(256.942 0 0)
(258.073 0 0)
(258.387 0 0)
(258.043 0 0)
(257.932 0 0)
(258.363 0 0)
(259.443 0 0)
(260.243 0 0)
(260.071 0 0)
(259.737 0 0)
(259.941 0 0)
(260.851 0 0)
(261.876 0 0)
(261.92 0 0)
(261.509 0 0)
(261.546 0 0)
(262.322 0 0)
(263.449 0 0)
(263.702 0 0)
(263.301 0 0)
(263.221 0 0)
(263.934 0 0)
(265.066 0 0)
(265.355 0 0)
(264.961 0 0)
(264.856 0 0)
(265.515 0 0)
(266.65 0 0)
(267.026 0 0)
(266.641 0 0)
(266.567 0 0)
(267.41 0 0)
(268.387 0 0)
(268.38 0 0)
(267.999 0 0)
(268.395 0 0)
(269.463 0 0)
(269.869 0 0)
(269.526 0 0)
(269.556 0 0)
(270.488 0 0)
(271.256 0 0)
(271.059 0 0)
(270.747 0 0)
(271.311 0 0)
(272.376 0 0)
(272.629 0 0)
(272.208 0 0)
(272.206 0 0)
(273.093 0 0)
(273.969 0 0)
(273.848 0 0)
(273.448 0 0)
(273.876 0 0)
(274.924 0 0)
(275.267 0 0)
(274.865 0 0)
(274.692 0 0)
(275.34 0 0)
(276.367 0 0)
(276.56 0 0)
(276.239 0 0)
(276.194 0 0)
(276.353 0 0)
(276.994 0 0)
(277.993 0 0)
(278.165 0 0)
(277.732 0 0)
(277.576 0 0)
(277.944 0 0)
(278.97 0 0)
(279.668 0 0)
(279.37 0 0)
(278.919 0 0)
(279.23 0 0)
(280.248 0 0)
(280.829 0 0)
(280.465 0 0)
(280.163 0 0)
(280.815 0 0)
(281.702 0 0)
(281.649 0 0)
(281.214 0 0)
(281.57 0 0)
(282.496 0 0)
(282.682 0 0)
(282.242 0 0)
(282.383 0 0)
(283.271 0 0)
(283.606 0 0)
(283.214 0 0)
(282.948 0 0)
(283.181 0 0)
(284.095 0 0)
(284.851 0 0)
(284.622 0 0)
(284.131 0 0)
(284.117 0 0)
(284.766 0 0)
(285.774 0 0)
(285.896 0 0)
(285.366 0 0)
(285.126 0 0)
(285.528 0 0)
(286.535 0 0)
(286.988 0 0)
(286.554 0 0)
(286.14 0 0)
(286.388 0 0)
(287.326 0 0)
(287.947 0 0)
(287.607 0 0)
(287.111 0 0)
(287.269 0 0)
(288.17 0 0)
(288.868 0 0)
(288.571 0 0)
(288.041 0 0)
(288.163 0 0)
(289.05 0 0)
(289.756 0 0)
(289.468 0 0)
(288.937 0 0)
(289.05 0 0)
(289.927 0 0)
(290.628 0 0)
(290.336 0 0)
(289.796 0 0)
(289.892 0 0)
(290.755 0 0)
(291.464 0 0)
(291.174 0 0)
(290.62 0 0)
(290.699 0 0)
(291.542 0 0)
(292.251 0 0)
(291.961 0 0)
(291.388 0 0)
(291.435 0 0)
(292.245 0 0)
(292.953 0 0)
(292.662 0 0)
(292.066 0 0)
(292.089 0 0)
(292.876 0 0)
(293.567 0 0)
(293.26 0 0)
(292.64 0 0)
(292.623 0 0)
(293.363 0 0)
(294.041 0 0)
(293.736 0 0)
(293.097 0 0)
(293.039 0 0)
(293.751 0 0)
(294.463 0 0)
(294.176 0 0)
(293.508 0 0)
(293.416 0 0)
(294.096 0 0)
(294.822 0 0)
(294.573 0 0)
(293.91 0 0)
(293.751 0 0)
(294.354 0 0)
(295.148 0 0)
(294.986 0 0)
(294.308 0 0)
(294.075 0 0)
(294.593 0 0)
(295.39 0 0)
(295.276 0 0)
(294.549 0 0)
(294.19 0 0)
(294.569 0 0)
(295.358 0 0)
(295.34 0 0)
(294.623 0 0)
(294.192 0 0)
(294.511 0 0)
(295.345 0 0)
(295.471 0 0)
(294.829 0 0)
(294.347 0 0)
(294.59 0 0)
(295.431 0 0)
(295.669 0 0)
(295.077 0 0)
(294.551 0 0)
(294.604 0 0)
(295.342 0 0)
(295.92 0 0)
(295.477 0 0)
(294.815 0 0)
(295.089 0 0)
(295.715 0 0)
(295.541 0 0)
(295.018 0 0)
(295.199 0 0)
(295.571 0 0)
(295.269 0 0)
(294.962 0 0)
(295.368 0 0)
(295.598 0 0)
(295.077 0 0)
(294.828 0 0)
(295.384 0 0)
(295.65 0 0)
(295.063 0 0)
(294.715 0 0)
(295.239 0 0)
(295.58 0 0)
(295.053 0 0)
(294.689 0 0)
(295.174 0 0)
(295.485 0 0)
(294.965 0 0)
(294.629 0 0)
(295.131 0 0)
(295.442 0 0)
(294.908 0 0)
(294.554 0 0)
(295.066 0 0)
(295.423 0 0)
(294.904 0 0)
(294.506 0 0)
(294.992 0 0)
(295.401 0 0)
(294.929 0 0)
(294.465 0 0)
(294.899 0 0)
(295.383 0 0)
(294.968 0 0)
(294.473 0 0)
(294.859 0 0)
(295.269 0 0)
(294.9 0 0)
(294.37 0 0)
(294.147 0 0)
(294.343 0 0)
(295.096 0 0)
(295.332 0 0)
(294.696 0 0)
(294.118 0 0)
(294.399 0 0)
(295.111 0 0)
(295.09 0 0)
(294.578 0 0)
(294.334 0 0)
(294.204 0 0)
(294.447 0 0)
(295.123 0 0)
(295.126 0 0)
(294.464 0 0)
(294.018 0 0)
(294.207 0 0)
(294.994 0 0)
(295.248 0 0)
(294.64 0 0)
(294.047 0 0)
(294.034 0 0)
(294.7 0 0)
(295.258 0 0)
(294.843 0 0)
(294.117 0 0)
(293.952 0 0)
(294.514 0 0)
(295.185 0 0)
(294.892 0 0)
(294.117 0 0)
(293.894 0 0)
(294.457 0 0)
(295.119 0 0)
(294.813 0 0)
(294.03 0 0)
(293.872 0 0)
(294.51 0 0)
(295.061 0 0)
(294.615 0 0)
(293.865 0 0)
(293.951 0 0)
(294.686 0 0)
(294.872 0 0)
(294.188 0 0)
(293.68 0 0)
(294.118 0 0)
(294.794 0 0)
(294.546 0 0)
(293.757 0 0)
(293.596 0 0)
(294.241 0 0)
(294.715 0 0)
(294.212 0 0)
(293.482 0 0)
(293.535 0 0)
(294.266 0 0)
(294.566 0 0)
(293.945 0 0)
(293.305 0 0)
(293.501 0 0)
(294.255 0 0)
(294.378 0 0)
(293.686 0 0)
(293.141 0 0)
(293.416 0 0)
(294.188 0 0)
(294.24 0 0)
(293.514 0 0)
(293.011 0 0)
(293.323 0 0)
(294.097 0 0)
(294.103 0 0)
(293.368 0 0)
(292.9 0 0)
(293.224 0 0)
(294.003 0 0)
(294.025 0 0)
(293.289 0 0)
(292.828 0 0)
(293.222 0 0)
(293.972 0 0)
(293.857 0 0)
(293.1 0 0)
(292.739 0 0)
(293.167 0 0)
(293.934 0 0)
(293.836 0 0)
(293.05 0 0)
(292.778 0 0)
(293.384 0 0)
(293.903 0 0)
(293.468 0 0)
(292.767 0 0)
(292.66 0 0)
(293.283 0 0)
(293.924 0 0)
(293.574 0 0)
(292.802 0 0)
(292.754 0 0)
(293.468 0 0)
(293.881 0 0)
(293.324 0 0)
(292.773 0 0)
(293.189 0 0)
(293.768 0 0)
(293.454 0 0)
(292.767 0 0)
(292.65 0 0)
(293.286 0 0)
(293.87 0 0)
(293.495 0 0)
(292.802 0 0)
(292.609 0 0)
(293.108 0 0)
(293.87 0 0)
(293.732 0 0)
(292.988 0 0)
(292.669 0 0)
(293.156 0 0)
(293.922 0 0)
(293.785 0 0)
(293.024 0 0)
(292.813 0 0)
(293.455 0 0)
(294.025 0 0)
(293.609 0 0)
(292.915 0 0)
(293.098 0 0)
(293.864 0 0)
(293.95 0 0)
(293.255 0 0)
(292.973 0 0)
(293.588 0 0)
(294.075 0 0)
(293.603 0 0)
(293.042 0 0)
(293.418 0 0)
(294.052 0 0)
(293.807 0 0)
(293.102 0 0)
(293.094 0 0)
(293.826 0 0)
(294.163 0 0)
(293.597 0 0)
(292.988 0 0)
(293.162 0 0)
(293.969 0 0)
(294.25 0 0)
(293.614 0 0)
(293.143 0 0)
(293.626 0 0)
(294.214 0 0)
(293.878 0 0)
(293.176 0 0)
(293.239 0 0)
(293.99 0 0)
(294.241 0 0)
(293.636 0 0)
(293.06 0 0)
(293.219 0 0)
(294.015 0 0)
(294.335 0 0)
(293.715 0 0)
(293.123 0 0)
(293.476 0 0)
(294.214 0 0)
(294.104 0 0)
(293.37 0 0)
(293.307 0 0)
(293.958 0 0)
(294.111 0 0)
(293.492 0 0)
(292.981 0 0)
(293.243 0 0)
(294.03 0 0)
(294.125 0 0)
(293.474 0 0)
(292.972 0 0)
(292.971 0 0)
(293.624 0 0)
(294.17 0 0)
(293.766 0 0)
(293.074 0 0)
(292.84 0 0)
(293.262 0 0)
(294.042 0 0)
(293.969 0 0)
(293.225 0 0)
(292.799 0 0)
(293.124 0 0)
(293.909 0 0)
(293.944 0 0)
(293.223 0 0)
(292.74 0 0)
(293.054 0 0)
(293.829 0 0)
(293.849 0 0)
(293.129 0 0)
(292.654 0 0)
(292.965 0 0)
(293.736 0 0)
(293.766 0 0)
(293.051 0 0)
(292.56 0 0)
(292.843 0 0)
(293.629 0 0)
(293.697 0 0)
(292.979 0 0)
(292.465 0 0)
(292.76 0 0)
(293.537 0 0)
(293.574 0 0)
(292.835 0 0)
(292.365 0 0)
(292.767 0 0)
(293.499 0 0)
(293.358 0 0)
(292.563 0 0)
(292.292 0 0)
(292.882 0 0)
(293.427 0 0)
(292.987 0 0)
(292.234 0 0)
(292.326 0 0)
(293.05 0 0)
(293.178 0 0)
(292.454 0 0)
(292.008 0 0)
(292.502 0 0)
(293.057 0 0)
(292.653 0 0)
(291.906 0 0)
(292.023 0 0)
(292.707 0 0)
(292.696 0 0)
(291.93 0 0)
(291.67 0 0)
(292.254 0 0)
(292.57 0 0)
(291.956 0 0)
(291.401 0 0)
(291.794 0 0)
(292.31 0 0)
(291.901 0 0)
(291.184 0 0)
(291.355 0 0)
(291.947 0 0)
(291.741 0 0)
(290.975 0 0)
(290.944 0 0)
(291.53 0 0)
(291.511 0 0)
(290.762 0 0)
(290.54 0 0)
(291.083 0 0)
(291.223 0 0)
(290.524 0 0)
(290.131 0 0)
(290.597 0 0)
(290.867 0 0)
(290.244 0 0)
(289.709 0 0)
(290.083 0 0)
(290.459 0 0)
(289.924 0 0)
(289.273 0 0)
(289.54 0 0)
(289.996 0 0)
(289.571 0 0)
(288.833 0 0)
(288.975 0 0)
(289.479 0 0)
(289.18 0 0)
(288.394 0 0)
(288.403 0 0)
(288.925 0 0)
(288.756 0 0)
(287.953 0 0)
(287.824 0 0)
(288.34 0 0)
(288.301 0 0)
(287.515 0 0)
(287.239 0 0)
(287.727 0 0)
(287.824 0 0)
(287.089 0 0)
(286.68 0 0)
(287.112 0 0)
(287.306 0 0)
(286.634 0 0)
(286.154 0 0)
(286.538 0 0)
(286.809 0 0)
(286.203 0 0)
(285.542 0 0)
(285.801 0 0)
(286.346 0 0)
(286.035 0 0)
(285.185 0 0)
(284.821 0 0)
(285.241 0 0)
(285.843 0 0)
(285.515 0 0)
(284.619 0 0)
(284.383 0 0)
(284.952 0 0)
(285.317 0 0)
(284.704 0 0)
(283.956 0 0)
(284.17 0 0)
(284.785 0 0)
(284.576 0 0)
(283.762 0 0)
(283.656 0 0)
(284.243 0 0)
(284.308 0 0)
(283.58 0 0)
(283.277 0 0)
(283.799 0 0)
(284.025 0 0)
(283.391 0 0)
(282.981 0 0)
(283.446 0 0)
(283.773 0 0)
(283.215 0 0)
(282.74 0 0)
(283.166 0 0)
(283.571 0 0)
(283.083 0 0)
(282.547 0 0)
(282.924 0 0)
(283.419 0 0)
(283.02 0 0)
(282.421 0 0)
(282.718 0 0)
(283.297 0 0)
(283.019 0 0)
(282.364 0 0)
(282.538 0 0)
(283.19 0 0)
(283.083 0 0)
(282.4 0 0)
(282.407 0 0)
(283.082 0 0)
(283.183 0 0)
(282.531 0 0)
(282.327 0 0)
(282.96 0 0)
(283.3 0 0)
(282.742 0 0)
(282.316 0 0)
(282.822 0 0)
(283.373 0 0)
(282.992 0 0)
(282.409 0 0)
(282.73 0 0)
(283.402 0 0)
(283.233 0 0)
(282.587 0 0)
(282.689 0 0)
(283.388 0 0)
(283.438 0 0)
(282.814 0 0)
(282.709 0 0)
(283.354 0 0)
(283.614 0 0)
(283.085 0 0)
(282.737 0 0)
(283.231 0 0)
(283.634 0 0)
(283.371 0 0)
)
;

boundaryField
{
    sides
    {
        type            zeroGradient;
    }
    empty
    {
        type            empty;
    }
}


// ************************************************************************* //
