/*--------------------------------*- C++ -*----------------------------------*\
  =========                 |
  \\      /  F ield         | OpenFOAM: The Open Source CFD Toolbox
   \\    /   O peration     | Website:  https://openfoam.org
    \\  /    A nd           | Version:  13
     \\/     M anipulation  |
\*---------------------------------------------------------------------------*/
FoamFile
{
    format      ascii;
    class       volScalarField;
    location    "15.600334";
    object      pPrime2Mean;
}
// * * * * * * * * * * * * * * * * * * * * * * * * * * * * * * * * * * * * * //

dimensions      [0 4 -4 0 0 0 0];

internalField   nonuniform List<scalar> 
17140
(
19957.27
19957.271
19957.272
19957.272
19957.271
19957.269
19957.267
19957.263
19957.257
19957.25
19957.24
19957.227
19957.211
19957.19
19957.163
19957.129
19957.087
19957.033
19956.965
19956.88
19956.773
19956.639
19956.471
19956.258
19955.991
19955.655
19955.23
19954.693
19954.016
19953.162
19952.087
19950.737
19949.045
19946.931
19944.299
19941.034
19936.998
19932.032
19925.948
19918.533
19909.538
19898.684
19885.656
19870.096
19851.61
19829.755
19804.048
19773.96
19738.913
19698.283
19651.389
19597.498
19535.819
19465.499
19385.622
19295.205
19193.186
19078.425
18949.688
18805.657
18644.898
18465.879
18266.862
18045.956
17801.124
19957.765
19957.766
19957.766
19957.766
19957.766
19957.764
19957.761
19957.757
19957.751
19957.744
19957.734
19957.721
19957.705
19957.684
19957.657
19957.623
19957.58
19957.526
19957.459
19957.373
19957.267
19957.132
19956.964
19956.752
19956.485
19956.15
19955.726
19955.191
19954.515
19953.663
19952.59
19951.243
19949.553
19947.442
19944.813
19941.55
19937.517
19932.553
19926.473
19919.061
19910.07
19899.222
19886.2
19870.648
19852.17
19830.327
19804.633
19774.559
19739.53
19698.919
19652.047
19598.182
19536.532
19466.244
19386.405
19296.031
19194.06
19079.353
18950.675
18806.71
18646.023
18467.085
18268.158
18047.355
17802.626
19958.991
19958.991
19958.992
19958.992
19958.99
19958.989
19958.986
19958.982
19958.976
19958.969
19958.959
19958.946
19958.93
19958.909
19958.882
19958.848
19958.806
19958.752
19958.684
19958.6
19958.494
19958.36
19958.193
19957.982
19957.717
19957.383
19956.962
19956.429
19955.757
19954.909
19953.84
19952.497
19950.813
19948.708
19946.083
19942.826
19938.798
19933.84
19927.766
19920.362
19911.382
19900.547
19887.54
19872.007
19853.552
19831.736
19806.074
19776.037
19741.049
19700.485
19653.667
19599.864
19538.285
19468.08
19388.334
19298.063
19196.21
19081.634
18953.103
18809.298
18648.789
18470.047
18271.34
18050.786
17806.309
19960.986
19960.986
19960.987
19960.987
19960.985
19960.983
19960.981
19960.977
19960.971
19960.964
19960.954
19960.941
19960.925
19960.904
19960.877
19960.844
19960.801
19960.749
19960.682
19960.598
19960.493
19960.361
19960.194
19959.986
19959.723
19959.392
19958.974
19958.446
19957.779
19956.936
19955.874
19954.538
19952.861
19950.762
19948.146
19944.896
19940.876
19935.927
19929.865
19922.475
19913.511
19902.696
19889.715
19874.213
19855.794
19834.022
19808.411
19778.433
19743.514
19703.026
19656.296
19602.593
19541.131
19471.058
19391.463
19301.363
19199.701
19085.339
18957.045
18813.502
18653.281
18474.859
18276.509
18056.361
17812.287
19963.79
19963.79
19963.79
19963.79
19963.789
19963.787
19963.784
19963.78
19963.774
19963.767
19963.757
19963.745
19963.728
19963.707
19963.681
19963.648
19963.606
19963.553
19963.488
19963.405
19963.301
19963.17
19963.006
19962.8
19962.54
19962.212
19961.798
19961.275
19960.614
19959.779
19958.724
19957.396
19955.729
19953.64
19951.033
19947.793
19943.785
19938.85
19932.803
19925.432
19916.493
19905.707
19892.762
19877.302
19858.935
19837.223
19811.684
19781.789
19746.963
19706.583
19659.977
19606.416
19545.116
19475.23
19395.846
19305.985
19204.591
19090.53
18962.57
18819.396
18659.581
18481.609
18283.763
18064.185
17820.681
19967.434
19967.435
19967.435
19967.434
19967.433
19967.431
19967.428
19967.424
19967.418
19967.411
19967.401
19967.388
19967.372
19967.351
19967.325
19967.292
19967.251
19967.199
19967.134
19967.052
19966.949
19966.821
19966.659
19966.455
19966.198
19965.875
19965.466
19964.95
19964.296
19963.469
19962.424
19961.106
19959.45
19957.373
19954.778
19951.552
19947.559
19942.642
19936.617
19929.272
19920.364
19909.617
19896.717
19881.314
19863.013
19841.38
19815.932
19786.144
19751.439
19711.2
19664.754
19611.379
19550.292
19480.647
19401.538
19311.988
19210.944
19097.273
18969.748
18827.056
18667.772
18490.39
18293.202
18074.369
17831.609
19971.954
19971.954
19971.954
19971.953
19971.952
19971.95
19971.947
19971.942
19971.937
19971.929
19971.919
19971.906
19971.89
19971.87
19971.844
19971.811
19971.771
19971.719
19971.655
19971.574
19971.473
19971.346
19971.187
19970.987
19970.734
19970.415
19970.013
19969.503
19968.859
19968.042
19967.008
19965.702
19964.058
19961.995
19959.416
19956.207
19952.234
19947.339
19941.342
19934.03
19925.162
19914.462
19901.619
19886.285
19868.067
19846.531
19821.197
19791.538
19756.986
19716.919
19670.674
19617.53
19556.707
19487.363
19408.595
19319.43
19218.819
19105.634
18978.65
18836.556
18677.937
18501.292
18304.927
18087.023
17845.197
19977.385
19977.385
19977.384
19977.384
19977.382
19977.38
19977.376
19977.372
19977.366
19977.358
19977.348
19977.336
19977.32
19977.299
19977.274
19977.242
19977.201
19977.151
19977.088
19977.009
19976.91
19976.785
19976.629
19976.432
19976.185
19975.872
19975.476
19974.975
19974.34
19973.534
19972.513
19971.221
19969.592
19967.545
19964.984
19961.795
19957.846
19952.979
19947.014
19939.742
19930.921
19920.279
19907.506
19892.254
19874.135
19852.714
19827.516
19798.015
19763.644
19723.789
19677.786
19624.919
19564.414
19495.432
19417.074
19328.372
19228.283
19115.682
18989.348
18847.979
18690.165
18514.413
18319.041
18102.261
17861.57
19983.771
19983.771
19983.77
19983.77
19983.768
19983.765
19983.762
19983.758
19983.751
19983.744
19983.734
19983.721
19983.705
19983.685
19983.66
19983.628
19983.589
19983.539
19983.477
19983.4
19983.303
19983.181
19983.028
19982.836
19982.593
19982.287
19981.898
19981.406
19980.781
19979.987
19978.979
19977.702
19976.089
19974.06
19971.519
19968.354
19964.432
19959.598
19953.672
19946.446
19937.681
19927.106
19914.414
19899.259
19881.254
19859.97
19834.931
19805.616
19771.46
19731.852
19686.135
19633.597
19573.467
19504.911
19427.035
19338.879
19239.402
19127.488
19001.921
18861.405
18704.54
18529.844
18335.65
18120.201
17880.856
19991.16
19991.16
19991.159
19991.158
19991.156
19991.153
19991.15
19991.145
19991.139
19991.131
19991.121
19991.108
19991.093
19991.073
19991.048
19991.017
19990.979
19990.93
19990.87
19990.794
19990.699
19990.581
19990.431
19990.243
19990.005
19989.705
19989.324
19988.841
19988.225
19987.443
19986.448
19985.186
19983.59
19981.579
19979.061
19975.923
19972.032
19967.234
19961.353
19954.18
19945.479
19934.981
19922.382
19907.338
19889.466
19868.338
19843.482
19814.381
19780.474
19741.155
19695.77
19643.612
19583.916
19515.853
19438.536
19351.009
19252.242
19141.121
19016.44
18876.914
18721.155
18547.69
18354.867
18140.963
17903.187
19999.6
19999.6
19999.599
19999.598
19999.596
19999.593
19999.589
19999.585
19999.578
19999.57
19999.56
19999.548
19999.532
19999.513
19999.488
19999.458
19999.42
19999.372
19999.313
19999.239
19999.147
19999.031
19998.885
19998.701
19998.468
19998.173
19997.799
19997.323
19996.717
19995.944
19994.962
19993.714
19992.135
19990.145
19987.651
19984.54
19980.683
19975.928
19970.095
19962.982
19954.353
19943.942
19931.448
19916.53
19898.809
19877.857
19853.209
19824.352
19790.73
19751.74
19706.736
19655.014
19595.814
19528.316
19451.637
19364.83
19266.872
19156.659
19032.993
18894.603
18740.113
18568.058
18376.803
18164.667
17928.694
20009.138
20009.137
20009.137
20009.135
20009.133
20009.13
20009.126
20009.121
20009.115
20009.107
20009.097
20009.084
20009.069
20009.049
20009.025
20008.995
20008.958
20008.912
20008.854
20008.781
20008.69
20008.577
20008.433
20008.253
20008.024
20007.734
20007.365
20006.896
20006.297
20005.534
20004.562
20003.328
20001.766
19999.796
19997.327
19994.247
19990.427
19985.716
19979.937
19972.89
19964.341
19954.029
19941.653
19926.876
19909.321
19888.568
19864.153
19835.571
19802.271
19763.655
19719.082
19667.854
19609.218
19542.359
19466.403
19380.412
19283.37
19174.182
19051.665
18914.561
18761.508
18591.049
18401.571
18191.439
17957.511
20019.811
20019.811
20019.81
20019.809
20019.806
20019.803
20019.799
20019.794
20019.788
20019.78
20019.77
20019.758
20019.742
20019.723
20019.699
20019.67
20019.633
20019.587
20019.53
20019.459
20019.369
20019.257
20019.116
20018.937
20018.712
20018.426
20018.061
20017.597
20017.004
20016.249
20015.288
20014.067
20012.521
20010.573
20008.129
20005.082
20001.301
19996.638
19990.919
19983.945
19975.485
19965.28
19953.034
19938.414
19921.045
19900.512
19876.359
19848.084
19815.144
19776.949
19732.861
19682.189
19624.186
19558.044
19482.899
19397.821
19301.805
19193.768
19072.539
18936.88
18785.442
18616.777
18429.288
18221.403
17989.771
20031.657
20031.656
20031.655
20031.654
20031.651
20031.649
20031.645
20031.639
20031.633
20031.625
20031.616
20031.603
20031.588
20031.569
20031.545
20031.516
20031.479
20031.434
20031.378
20031.307
20031.219
20031.108
20030.968
20030.791
20030.568
20030.284
20029.923
20029.463
20028.875
20028.128
20027.176
20025.968
20024.439
20022.512
20020.096
20017.083
20013.345
20008.734
20003.08
19996.186
19987.824
19977.739
19965.637
19951.189
19934.025
19913.737
19889.874
19861.942
19829.404
19791.677
19748.13
19698.077
19640.777
19575.435
19501.192
19417.131
19322.257
19215.5
19095.71
18961.662
18812.019
18645.345
18460.07
18254.684
18025.607
20044.708
20044.707
20044.706
20044.705
20044.702
20044.699
20044.695
20044.69
20044.684
20044.676
20044.666
20044.654
20044.639
20044.62
20044.596
20044.568
20044.531
20044.487
20044.431
20044.361
20044.273
20044.163
20044.024
20043.849
20043.626
20043.345
20042.986
20042.53
20041.948
20041.207
20040.265
20039.07
20037.559
20035.656
20033.269
20030.292
20026.599
20022.046
20016.462
20009.654
20001.4
19991.445
19979.502
19965.243
19948.307
19928.289
19904.748
19877.196
19845.104
19807.896
19764.947
19715.578
19659.057
19594.598
19521.354
19438.417
19344.804
19239.466
19121.267
18989.002
18841.341
18676.867
18494.033
18291.408
18065.151
20059.002
20059.001
20059
20058.999
20058.996
20058.993
20058.99
20058.985
20058.978
20058.971
20058.961
20058.949
20058.933
20058.915
20058.892
20058.863
20058.827
20058.783
20058.727
20058.658
20058.57
20058.461
20058.323
20058.149
20057.928
20057.648
20057.291
20056.838
20056.262
20055.528
20054.596
20053.415
20051.923
20050.043
20047.687
20044.75
20041.107
20036.614
20031.107
20024.395
20016.257
20006.446
19994.676
19980.626
19963.94
19944.221
19921.035
19893.902
19862.301
19825.665
19783.373
19734.756
19679.092
19615.604
19543.456
19461.753
19369.53
19265.753
19149.308
19018.998
18873.514
18711.448
18531.294
18331.698
18108.535
20074.586
20074.586
20074.585
20074.583
20074.581
20074.578
20074.574
20074.569
20074.563
20074.555
20074.546
20074.534
20074.519
20074.5
20074.478
20074.449
20074.413
20074.369
20074.313
20074.244
20074.157
20074.048
20073.91
20073.737
20073.517
20073.239
20072.884
20072.434
20071.862
20071.136
20070.215
20069.048
20067.574
20065.72
20063.397
20060.5
20056.91
20052.484
20047.06
20040.452
20032.442
20022.787
20011.206
19997.386
19980.975
19961.585
19938.789
19912.117
19881.055
19845.043
19803.47
19755.675
19700.948
19638.521
19567.572
19487.22
19396.518
19294.453
19179.923
19051.749
18908.636
18749.199
18571.966
18375.677
18155.887
20091.511
20091.511
20091.509
20091.508
20091.506
20091.503
20091.5
20091.495
20091.488
20091.481
20091.471
20091.46
20091.444
20091.426
20091.403
20091.374
20091.339
20091.295
20091.239
20091.17
20091.083
20090.974
20090.837
20090.664
20090.444
20090.166
20089.814
20089.367
20088.799
20088.08
20087.168
20086.015
20084.561
20082.732
20080.443
20077.59
20074.057
20069.702
20064.368
20057.872
20050.002
20040.517
20029.143
20015.573
19999.464
19980.434
19958.066
19931.896
19901.422
19866.09
19825.3
19778.401
19724.693
19663.42
19593.776
19514.897
19425.853
19325.651
19213.204
19087.35
18946.81
18790.225
18616.166
18423.466
18207.333
20109.828
20109.828
20109.827
20109.825
20109.823
20109.82
20109.817
20109.812
20109.806
20109.799
20109.789
20109.777
20109.762
20109.744
20109.72
20109.692
20109.656
20109.612
20109.556
20109.486
20109.399
20109.289
20109.151
20108.978
20108.758
20108.481
20108.13
20107.685
20107.122
20106.409
20105.507
20104.367
20102.931
20101.129
20098.875
20096.069
20092.594
20088.317
20083.081
20076.706
20068.985
20059.685
20048.537
20035.241
20019.46
20000.823
19978.921
19953.299
19923.462
19888.868
19848.927
19802.999
19750.395
19690.373
19622.143
19544.86
19457.617
19359.434
19249.242
19125.894
18988.134
18834.632
18664.003
18475.183
18262.997
20129.579
20129.578
20129.577
20129.576
20129.574
20129.571
20129.568
20129.563
20129.557
20129.55
20129.54
20129.528
20129.513
20129.494
20129.471
20129.442
20129.406
20129.36
20129.305
20129.234
20129.146
20129.036
20128.898
20128.723
20128.504
20128.228
20127.878
20127.436
20126.877
20126.171
20125.278
20124.152
20122.736
20120.96
20118.741
20115.984
20112.572
20108.377
20103.245
20097.001
20089.444
20080.343
20069.439
20056.44
20041.017
20022.807
20001.409
19976.379
19947.232
19913.437
19874.413
19829.532
19778.119
19719.446
19652.744
19577.189
19491.892
19395.888
19288.124
19167.472
19032.705
18882.522
18715.587
18530.944
18322.999
20150.793
20150.793
20150.792
20150.791
20150.789
20150.786
20150.783
20150.778
20150.772
20150.764
20150.755
20150.743
20150.728
20150.709
20150.686
20150.656
20150.62
20150.574
20150.518
20150.447
20150.359
20150.248
20150.11
20149.936
20149.717
20149.442
20149.095
20148.657
20148.104
20147.406
20146.524
20145.414
20144.02
20142.272
20140.093
20137.386
20134.043
20129.935
20124.914
20118.81
20111.427
20102.542
20091.903
20079.224
20064.188
20046.44
20025.587
20001.196
19972.792
19939.855
19901.816
19858.061
19807.926
19750.706
19685.652
19611.962
19528.757
19435.095
19329.933
19212.175
19080.618
18933.997
18771.023
18590.86
18387.456
20173.489
20173.489
20173.488
20173.487
20173.485
20173.483
20173.48
20173.475
20173.469
20173.462
20173.452
20173.44
20173.425
20173.407
20173.383
20173.354
20173.318
20173.273
20173.216
20173.146
20173.059
20172.949
20172.812
20172.64
20172.424
20172.152
20171.81
20171.379
20170.834
20170.148
20169.282
20168.192
20166.823
20165.109
20162.973
20160.324
20157.054
20153.041
20148.139
20142.185
20134.989
20126.336
20115.981
20103.648
20089.028
20071.776
20051.509
20027.804
20000.198
19968.179
19931.194
19888.64
19839.876
19784.218
19720.94
19649.25
19568.29
19477.129
19374.753
19260.09
19131.968
18989.155
18830.416
18655.041
18456.476
20197.68
20197.68
20197.68
20197.679
20197.677
20197.675
20197.671
20197.667
20197.661
20197.654
20197.645
20197.634
20197.619
20197.601
20197.579
20197.551
20197.515
20197.472
20197.417
20197.349
20197.263
20197.157
20197.023
20196.856
20196.645
20196.38
20196.046
20195.625
20195.093
20194.423
20193.578
20192.513
20191.177
20189.505
20187.422
20184.838
20181.651
20177.741
20172.969
20167.177
20160.182
20151.777
20141.728
20129.766
20115.592
20098.871
20079.231
20056.259
20029.502
19998.46
19962.595
19921.325
19874.031
19820.051
19758.674
19689.122
19610.558
19522.067
19422.664
19311.303
19186.844
19048.089
18893.863
18723.59
18530.163
20223.386
20223.386
20223.385
20223.384
20223.383
20223.38
20223.377
20223.373
20223.369
20223.361
20223.353
20223.343
20223.329
20223.312
20223.291
20223.265
20223.232
20223.191
20223.139
20223.074
20222.994
20222.892
20222.764
20222.604
20222.402
20222.147
20221.826
20221.419
20220.905
20220.256
20219.437
20218.405
20217.11
20215.488
20213.467
20210.961
20207.869
20204.076
20199.447
20193.832
20187.055
20178.918
20169.195
20157.63
20143.932
20127.777
20108.803
20086.608
20060.745
20030.74
19996.067
19956.171
19910.45
19858.267
19798.914
19731.645
19655.629
19569.982
19473.743
19365.898
19245.336
19110.894
18961.459
18796.608
18608.616
20250.636
20250.636
20250.636
20250.635
20250.633
20250.632
20250.629
20250.626
20250.621
20250.615
20250.608
20250.598
20250.586
20250.571
20250.552
20250.527
20250.497
20250.459
20250.412
20250.353
20250.278
20250.183
20250.064
20249.913
20249.722
20249.48
20249.174
20248.785
20248.293
20247.67
20246.883
20245.89
20244.642
20243.079
20241.132
20238.715
20235.732
20232.072
20227.605
20222.185
20215.646
20207.797
20198.424
20187.281
20174.09
20158.533
20140.259
20118.878
20093.966
20065.059
20031.66
19993.231
19949.191
19898.914
19841.721
19776.873
19703.567
19620.943
19528.066
19423.954
19307.527
19177.657
19033.296
18874.192
18691.928
20279.476
20279.476
20279.475
20279.475
20279.474
20279.472
20279.47
20279.467
20279.463
20279.458
20279.451
20279.443
20279.433
20279.419
20279.402
20279.38
20279.354
20279.32
20279.277
20279.223
20279.154
20279.067
20278.957
20278.816
20278.638
20278.41
20278.121
20277.753
20277.285
20276.691
20275.939
20274.99
20273.797
20272.302
20270.436
20268.121
20265.261
20261.748
20257.46
20252.255
20245.975
20238.439
20229.443
20218.75
20206.09
20191.161
20173.625
20153.107
20129.199
20101.464
20069.423
20032.552
19990.297
19942.046
19887.141
19824.864
19754.434
19675.017
19585.706
19485.548
19373.5
19248.464
19109.459
18956.434
18780.191
20309.954
20309.954
20309.954
20309.953
20309.952
20309.951
20309.949
20309.947
20309.944
20309.939
20309.933
20309.926
20309.916
20309.904
20309.889
20309.87
20309.846
20309.815
20309.776
20309.726
20309.664
20309.583
20309.482
20309.351
20309.184
20308.971
20308.699
20308.351
20307.908
20307.346
20306.632
20305.731
20304.597
20303.175
20301.399
20299.194
20296.468
20293.119
20289.026
20284.056
20278.057
20270.858
20262.262
20252.043
20239.946
20225.681
20208.924
20189.319
20166.482
20139.994
20109.388
20074.172
20033.807
19987.705
19935.223
19875.668
19808.286
19732.266
19646.729
19550.756
19443.332
19323.396
19190.033
19043.423
18873.495
20342.108
20342.108
20342.108
20342.108
20342.107
20342.106
20342.104
20342.102
20342.099
20342.095
20342.089
20342.082
20342.074
20342.063
20342.049
20342.031
20342.009
20341.98
20341.944
20341.898
20341.839
20341.764
20341.668
20341.546
20341.389
20341.188
20340.931
20340.604
20340.186
20339.655
20338.982
20338.132
20337.061
20335.718
20334.04
20331.954
20329.372
20326.196
20322.313
20317.595
20311.896
20305.055
20296.884
20287.171
20275.671
20262.109
20246.179
20227.545
20205.844
20180.67
20151.586
20118.123
20079.757
20035.925
19986.008
19929.335
19865.177
19792.752
19711.205
19619.648
19517.102
19402.533
19275.097
19135.24
18971.938
20375.955
20375.955
20375.955
20375.954
20375.954
20375.953
20375.951
20375.949
20375.946
20375.942
20375.937
20375.93
20375.921
20375.911
20375.897
20375.88
20375.858
20375.831
20375.796
20375.751
20375.696
20375.624
20375.533
20375.416
20375.268
20375.078
20374.835
20374.527
20374.134
20373.636
20373.005
20372.208
20371.204
20369.944
20368.368
20366.407
20363.977
20360.986
20357.324
20352.872
20347.493
20341.033
20333.315
20324.139
20313.273
20300.458
20285.404
20267.799
20247.296
20223.514
20196.042
20164.427
20128.174
20086.74
20039.533
19985.906
19925.157
19856.528
19779.194
19692.295
19594.883
19485.956
19364.738
19231.97
19075.624
20411.485
20411.485
20411.485
20411.485
20411.484
20411.482
20411.481
20411.478
20411.475
20411.471
20411.466
20411.459
20411.451
20411.44
20411.427
20411.409
20411.388
20411.361
20411.327
20411.283
20411.229
20411.159
20411.072
20410.961
20410.82
20410.64
20410.412
20410.123
20409.756
20409.292
20408.704
20407.963
20407.029
20405.856
20404.386
20402.556
20400.286
20397.487
20394.059
20389.888
20384.847
20378.792
20371.556
20362.949
20352.756
20340.731
20326.606
20310.089
20290.852
20268.542
20242.769
20213.105
20179.08
20140.177
20095.829
20045.418
19988.267
19923.647
19850.758
19768.766
19676.754
19573.745
19459.046
19333.722
19184.657
20448.675
20448.675
20448.675
20448.674
20448.674
20448.672
20448.67
20448.668
20448.665
20448.661
20448.655
20448.649
20448.64
20448.629
20448.616
20448.599
20448.578
20448.551
20448.518
20448.476
20448.424
20448.357
20448.274
20448.169
20448.036
20447.868
20447.656
20447.387
20447.048
20446.619
20446.077
20445.394
20444.534
20443.451
20442.093
20440.399
20438.294
20435.696
20432.513
20428.639
20423.956
20418.328
20411.602
20403.599
20394.116
20382.927
20369.785
20354.416
20336.516
20315.758
20291.775
20264.167
20232.489
20196.254
20154.922
20107.902
20054.546
19994.155
19925.952
19849.129
19762.792
19665.99
19558.12
19440.623
19299.162
20487.499
20487.499
20487.499
20487.498
20487.497
20487.496
20487.494
20487.492
20487.489
20487.485
20487.48
20487.473
20487.465
20487.455
20487.442
20487.426
20487.406
20487.38
20487.349
20487.31
20487.261
20487.199
20487.121
20487.024
20486.901
20486.747
20486.552
20486.307
20485.998
20485.609
20485.117
20484.495
20483.711
20482.722
20481.48
20479.927
20477.994
20475.607
20472.68
20469.117
20464.81
20459.633
20453.445
20446.077
20437.344
20427.039
20414.934
20400.772
20384.281
20365.156
20343.06
20317.616
20288.408
20254.981
20216.824
20173.378
20124.025
20068.092
20004.83
19933.453
19853.087
19762.789
19662.038
19552.692
19419.434
20527.933
20527.933
20527.933
20527.932
20527.932
20527.931
20527.929
20527.927
20527.924
20527.92
20527.916
20527.91
20527.903
20527.893
20527.882
20527.868
20527.85
20527.827
20527.799
20527.764
20527.72
20527.665
20527.596
20527.509
20527.4
20527.262
20527.089
20526.871
20526.596
20526.249
20525.809
20525.252
20524.547
20523.656
20522.533
20521.125
20519.371
20517.203
20514.544
20511.309
20507.396
20502.693
20497.069
20490.37
20482.427
20473.051
20462.031
20449.143
20434.134
20416.727
20396.612
20373.442
20346.833
20316.357
20281.541
20241.86
20196.723
20145.492
20087.441
20021.808
19947.735
19864.251
19770.843
19670.217
19545.557
20569.964
20569.964
20569.964
20569.963
20569.963
20569.962
20569.961
20569.959
20569.957
20569.954
20569.95
20569.945
20569.939
20569.932
20569.922
20569.91
20569.895
20569.877
20569.853
20569.824
20569.787
20569.741
20569.682
20569.608
20569.515
20569.397
20569.248
20569.061
20568.822
20568.519
20568.135
20567.645
20567.021
20566.228
20565.227
20563.969
20562.4
20560.46
20558.083
20555.189
20551.69
20547.484
20542.449
20536.451
20529.334
20520.93
20511.054
20499.502
20486.05
20470.446
20452.41
20431.628
20407.746
20380.372
20349.068
20313.347
20272.655
20226.381
20173.831
20114.264
20046.821
19970.439
19884.726
19793.327
19677.667
20613.576
20613.576
20613.576
20613.576
20613.575
20613.574
20613.573
20613.572
20613.57
20613.568
20613.565
20613.562
20613.557
20613.552
20613.545
20613.536
20613.525
20613.512
20613.494
20613.471
20613.443
20613.407
20613.36
20613.302
20613.227
20613.13
20613.007
20612.85
20612.65
20612.392
20612.062
20611.638
20611.096
20610.404
20609.526
20608.423
20607.047
20605.347
20603.263
20600.726
20597.659
20593.97
20589.551
20584.282
20578.029
20570.645
20561.965
20551.814
20539.993
20526.279
20510.422
20492.142
20471.119
20447
20419.385
20387.829
20351.818
20310.777
20264.042
20210.885
20150.427
20081.604
20003.815
19922.156
19816.177
20658.756
20658.756
20658.756
20658.755
20658.755
20658.755
20658.754
20658.753
20658.752
20658.75
20658.749
20658.747
20658.744
20658.74
20658.736
20658.73
20658.723
20658.714
20658.702
20658.687
20658.667
20658.641
20658.607
20658.563
20658.505
20658.43
20658.332
20658.205
20658.039
20657.826
20657.548
20657.19
20656.728
20656.137
20655.387
20654.445
20653.269
20651.818
20650.039
20647.875
20645.256
20642.103
20638.324
20633.817
20628.466
20622.145
20614.717
20606.031
20595.916
20584.179
20570.602
20554.938
20536.909
20516.2
20492.457
20465.279
20434.198
20398.682
20358.093
20311.715
20258.727
20197.892
20128.394
20056.938
19961.515
20705.47
20705.47
20705.47
20705.47
20705.47
20705.47
20705.469
20705.469
20705.468
20705.467
20705.467
20705.465
20705.464
20705.462
20705.46
20705.457
20705.453
20705.449
20705.441
20705.432
20705.42
20705.403
20705.38
20705.348
20705.305
20705.249
20705.173
20705.072
20704.939
20704.765
20704.538
20704.244
20703.863
20703.375
20702.757
20701.98
20701.013
20699.819
20698.356
20696.576
20694.421
20691.824
20688.71
20684.994
20680.58
20675.37
20669.248
20662.092
20653.758
20644.085
20632.887
20619.957
20605.056
20587.917
20568.232
20545.65
20519.758
20490.061
20455.987
20416.851
20371.816
20319.576
20258.986
20198.15
20114.019
20753.672
20753.672
20753.672
20753.671
20753.671
20753.671
20753.67
20753.671
20753.67
20753.67
20753.669
20753.669
20753.668
20753.668
20753.666
20753.665
20753.663
20753.661
20753.656
20753.651
20753.643
20753.632
20753.616
20753.593
20753.562
20753.519
20753.46
20753.381
20753.277
20753.14
20752.96
20752.728
20752.428
20752.046
20751.561
20750.954
20750.201
20749.273
20748.136
20746.752
20745.075
20743.054
20740.628
20737.733
20734.296
20730.241
20725.482
20719.919
20713.441
20705.916
20697.198
20687.118
20675.482
20662.071
20646.632
20628.861
20608.418
20584.877
20557.72
20526.307
20489.847
20446.983
20396.338
20346.535
20273.685
20803.271
20803.271
20803.271
20803.27
20803.27
20803.27
20803.27
20803.269
20803.269
20803.268
20803.268
20803.267
20803.267
20803.267
20803.266
20803.264
20803.263
20803.261
20803.258
20803.254
20803.249
20803.24
20803.228
20803.211
20803.186
20803.153
20803.108
20803.048
20802.969
20802.866
20802.734
20802.564
20802.346
20802.07
20801.722
20801.29
20800.756
20800.1
20799.297
20798.32
20797.136
20795.708
20793.995
20791.951
20789.528
20786.675
20783.331
20779.424
20774.872
20769.58
20763.437
20756.316
20748.078
20738.556
20727.552
20714.829
20700.108
20683.046
20663.227
20640.107
20612.966
20580.478
20541.251
20502.273
20441.564
20854.165
20854.164
20854.164
20854.163
20854.163
20854.162
20854.162
20854.161
20854.16
20854.159
20854.159
20854.158
20854.156
20854.155
20854.154
20854.152
20854.15
20854.148
20854.144
20854.14
20854.134
20854.126
20854.114
20854.1
20854.079
20854.052
20854.017
20853.973
20853.917
20853.847
20853.76
20853.652
20853.52
20853.352
20853.144
20852.888
20852.577
20852.198
20851.736
20851.178
20850.502
20849.686
20848.709
20847.547
20846.176
20844.569
20842.691
20840.499
20837.943
20834.966
20831.496
20827.455
20822.751
20817.279
20810.902
20803.451
20794.735
20784.493
20772.421
20758.139
20741.079
20720.2
20694.322
20667.829
20622.159
20908.517
20908.516
20908.516
20908.515
20908.514
20908.514
20908.513
20908.512
20908.51
20908.508
20908.507
20908.505
20908.503
20908.5
20908.498
20908.494
20908.49
20908.485
20908.479
20908.473
20908.464
20908.453
20908.44
20908.424
20908.405
20908.382
20908.355
20908.324
20908.29
20908.252
20908.21
20908.166
20908.117
20908.064
20908.008
20907.946
20907.878
20907.802
20907.715
20907.613
20907.491
20907.345
20907.174
20906.978
20906.756
20906.506
20906.221
20905.89
20905.499
20905.029
20904.458
20903.758
20902.896
20901.828
20900.489
20898.793
20896.629
20893.86
20890.302
20885.756
20879.908
20872.181
20862.579
20853.809
20837.028
20965.694
20965.692
20965.692
20965.691
20965.69
20965.689
20965.687
20965.686
20965.684
20965.682
20965.68
20965.677
20965.674
20965.67
20965.666
20965.661
20965.655
20965.648
20965.639
20965.629
20965.618
20965.605
20965.59
20965.574
20965.556
20965.538
20965.52
20965.505
20965.495
20965.493
20965.503
20965.529
20965.575
20965.647
20965.75
20965.895
20966.09
20966.342
20966.655
20967.04
20967.51
20968.079
20968.77
20969.605
20970.609
20971.806
20973.219
20974.871
20976.786
20978.991
20981.514
20984.384
20987.628
20991.268
20995.319
20999.786
21004.656
21009.919
21015.536
21021.504
21027.793
21034.339
21041.748
21051.323
21058.522
21022.752
21022.752
21022.751
21022.75
21022.748
21022.747
21022.746
21022.744
21022.742
21022.74
21022.738
21022.735
21022.732
21022.728
21022.724
21022.719
21022.713
21022.706
21022.698
21022.689
21022.679
21022.668
21022.656
21022.644
21022.633
21022.625
21022.622
21022.628
21022.647
21022.685
21022.748
21022.844
21022.983
21023.174
21023.432
21023.775
21024.218
21024.78
21025.482
21026.348
21027.406
21028.69
21030.243
21032.111
21034.341
21036.986
21040.099
21043.737
21047.967
21052.859
21058.495
21064.96
21072.342
21080.731
21090.219
21100.908
21112.89
21126.28
21141.194
21157.808
21176.311
21197.014
21220.623
21247.929
21278.422
21079.45
21079.45
21079.448
21079.447
21079.447
21079.445
21079.444
21079.443
21079.441
21079.439
21079.437
21079.434
21079.432
21079.429
21079.426
21079.422
21079.417
21079.413
21079.407
21079.402
21079.395
21079.389
21079.383
21079.378
21079.377
21079.382
21079.397
21079.425
21079.473
21079.55
21079.665
21079.829
21080.057
21080.367
21080.779
21081.315
21082.003
21082.874
21083.96
21085.3
21086.939
21088.934
21091.344
21094.238
21097.689
21101.774
21106.579
21112.197
21118.735
21126.312
21135.059
21145.119
21156.641
21169.785
21184.722
21201.644
21220.754
21242.288
21266.507
21293.752
21324.402
21359.023
21398.444
21443.679
21496.128
21135.517
21135.516
21135.515
21135.514
21135.514
21135.513
21135.511
21135.51
21135.509
21135.508
21135.507
21135.506
21135.504
21135.503
21135.501
21135.5
21135.498
21135.497
21135.496
21135.496
21135.495
21135.496
21135.5
21135.506
21135.519
21135.54
21135.575
21135.629
21135.711
21135.831
21136.002
21136.24
21136.563
21136.993
21137.557
21138.288
21139.221
21140.397
21141.863
21143.674
21145.892
21148.59
21151.851
21155.763
21160.421
21165.933
21172.414
21179.997
21188.829
21199.076
21210.918
21224.553
21240.193
21258.068
21278.43
21301.558
21327.762
21357.395
21390.855
21428.638
21471.314
21519.657
21574.692
21637.751
21710.773
21190.739
21190.737
21190.737
21190.736
21190.736
21190.734
21190.734
21190.734
21190.733
21190.733
21190.733
21190.733
21190.733
21190.734
21190.735
21190.736
21190.739
21190.742
21190.745
21190.75
21190.758
21190.767
21190.781
21190.801
21190.829
21190.869
21190.927
21191.012
21191.132
21191.301
21191.534
21191.849
21192.27
21192.822
21193.542
21194.467
21195.644
21197.125
21198.969
21201.246
21204.037