/*--------------------------------*- C++ -*----------------------------------*\
  =========                 |
  \\      /  F ield         | OpenFOAM: The Open Source CFD Toolbox
   \\    /   O peration     | Website:  https://openfoam.org
    \\  /    A nd           | Version:  13
     \\/     M anipulation  |
\*---------------------------------------------------------------------------*/
FoamFile
{
    format      ascii;
    class       volScalarField;
    location    "2.001638";
    object      pMean;
}
// * * * * * * * * * * * * * * * * * * * * * * * * * * * * * * * * * * * * * //

dimensions      [0 2 -2 0 0 0 0];

internalField   nonuniform List<scalar> 
17140
(
24.263675
24.263595
24.263499
24.263402
24.263298
24.263185
24.263065
24.262936
24.262798
24.262652
24.262496
24.262333
24.262162
24.261983
24.261797
24.261603
24.261401
24.261188
24.260961
24.26071
24.260426
24.260092
24.259686
24.259183
24.258549
24.257751
24.256755
24.255523
24.254019
24.252216
24.250097
24.247666
24.244949
24.242014
24.238972
24.236001
24.233353
24.231375
24.230522
24.231357
24.234531
24.240753
24.250637
24.264222
24.281107
24.299819
24.317217
24.329351
24.331985
24.322352
24.299659
24.265144
24.220679
24.168013
24.108146
24.041335
23.96745
23.885799
23.7958
23.696175
23.586187
23.463988
23.328627
23.178044
23.009997
24.261618
24.261539
24.261444
24.261348
24.261246
24.261135
24.261016
24.260889
24.260753
24.260609
24.260456
24.260295
24.260127
24.259951
24.259768
24.259579
24.259382
24.259175
24.258954
24.258711
24.258436
24.258112
24.257719
24.257228
24.256608
24.255824
24.254841
24.253622
24.252129
24.250335
24.248222
24.245791
24.243069
24.240122
24.237061
24.234061
24.231375
24.229347
24.228434
24.229199
24.232303
24.238469
24.248308
24.261948
24.278979
24.297878
24.315569
24.328038
24.330984
24.321604
24.299096
24.264721
24.220385
24.167848
24.108113
24.041431
23.967671
23.886134
23.796245
23.696718
23.586831
23.46472
23.329467
23.178977
23.011088
24.256675
24.256599
24.256508
24.256416
24.256317
24.25621
24.256095
24.255972
24.255841
24.255702
24.255555
24.2554
24.255238
24.25507
24.254896
24.254716
24.25453
24.254337
24.254131
24.253906
24.253652
24.253352
24.252985
24.252523
24.251934
24.251183
24.250232
24.249042
24.247576
24.245802
24.243702
24.241274
24.238543
24.235571
24.232466
24.229401
24.226625
24.224483
24.223431
24.224042
24.226991
24.233017
24.242765
24.256497
24.273833
24.293221
24.311616
24.324891
24.328588
24.31982
24.297762
24.263727
24.219704
24.16748
24.108061
24.041687
23.968223
23.886962
23.797337
23.698046
23.588401
23.466502
23.331503
23.181206
23.013606
24.24885
24.248778
24.248693
24.248606
24.248512
24.248411
24.248303
24.248187
24.248063
24.247932
24.247793
24.247647
24.247496
24.247339
24.247178
24.247013
24.246844
24.24667
24.246487
24.246289
24.246065
24.245801
24.245473
24.245055
24.244513
24.243809
24.242906
24.241762
24.240337
24.238596
24.236517
24.234095
24.23135
24.228338
24.225165
24.221995
24.219075
24.216747
24.215467
24.215817
24.218502
24.224301
24.23393
24.247772
24.265538
24.285709
24.305219
24.319788
24.324706
24.31694
24.295627
24.26216
24.218655
24.166942
24.108029
24.042143
23.969146
23.888318
23.799109
23.700195
23.590935
23.469377
23.334791
23.184833
23.017768
24.238232
24.238166
24.238088
24.238008
24.237922
24.237829
24.237729
24.237622
24.237507
24.237386
24.237259
24.237125
24.236987
24.236845
24.236701
24.236555
24.236408
24.236259
24.236105
24.235941
24.235757
24.235537
24.23526
24.234899
24.234417
24.233776
24.232935
24.231851
24.230479
24.228781
24.22673
24.224314
24.221548
24.21848
24.215208
24.21189
24.208765
24.206168
24.204556
24.204524
24.206808
24.21225
24.221673
24.235619
24.253927
24.27515
24.296188
24.312565
24.319213
24.312884
24.292653
24.26002
24.217269
24.166284
24.108076
24.042859
23.970498
23.890257
23.801615
23.703218
23.594494
23.473411
23.339394
23.189884
23.023496
24.225034
24.224976
24.224908
24.224836
24.224759
24.224676
24.224586
24.22449
24.224387
24.224279
24.224165
24.224046
24.223924
24.2238
24.223675
24.223551
24.22343
24.22331
24.223189
24.223064
24.222925
24.222756
24.222538
24.222241
24.221829
24.221261
24.220493
24.219478
24.218167
24.216518
24.214495
24.21208
24.209279
24.206131
24.202722
24.1992
24.195792
24.192825
24.190755
24.190187
24.191899
24.196815
24.205897
24.219885
24.238809
24.26133
24.28431
24.303038
24.311975
24.307566
24.288804
24.257311
24.21558
24.165556
24.108261
24.043894
23.972333
23.892832
23.804907
23.707167
23.59913
23.47866
23.345385
23.196478
23.031028
24.209587
24.209538
24.209479
24.209418
24.209352
24.20928
24.209202
24.209119
24.209031
24.208937
24.208839
24.208737
24.208634
24.208529
24.208427
24.208327
24.208233
24.208144
24.20806
24.207976
24.207884
24.20777
24.207614
24.207385
24.207047
24.206556
24.205864
24.20492
24.203672
24.202068
24.200065
24.197637
24.194776
24.191512
24.187916
24.184121
24.180337
24.176881
24.174199
24.172912
24.173842
24.178016
24.186573
24.200503
24.220081
24.244125
24.26946
24.291105
24.302927
24.300953
24.284081
24.254069
24.213645
24.164828
24.108655
24.045319
23.97472
23.896106
23.809045
23.712104
23.604907
23.48519
23.352828
23.204647
23.040304
24.192347
24.192308
24.192261
24.192211
24.192157
24.192098
24.192035
24.191967
24.191894
24.191817
24.191737
24.191654
24.191571
24.191488
24.191409
24.191336
24.19127
24.191213
24.191165
24.191121
24.191076
24.191015
24.190917
24.190754
24.190488
24.19007
24.189449
24.188569
24.187373
24.1858
24.183799
24.181331
24.178378
24.174951
24.171105
24.166955
24.16269
24.158608
24.155147
24.152937
24.152855
24.156051
24.16388
24.177635
24.1979
24.223671
24.251747
24.276855
24.292144
24.293118
24.278555
24.250367
24.211544
24.164179
24.109333
24.047202
23.977724
23.900142
23.814091
23.718088
23.611887
23.493069
23.361804
23.214511
23.051544
24.173881
24.173852
24.173818
24.173781
24.173741
24.173696
24.173649
24.173597
24.173542
24.173483
24.173423
24.173361
24.1733
24.17324
24.173186
24.173139
24.173101
24.173075
24.17306
24.173054
24.173051
24.173036
24.17299
24.172884
24.172677
24.172321
24.171757
24.170925
24.16976
24.168195
24.166167
24.163624
24.160534
24.15689
24.152727
24.148136
24.143284
24.138443
24.134039
24.130717
24.129415
24.131432
24.138378
24.151898
24.172915
24.200592
24.231713
24.260672
24.279953
24.284271
24.272388
24.246337
24.209391
24.163707
24.110382
24.049622
23.981415
23.905008
23.820112
23.725186
23.620139
23.502364
23.372376
23.226108
23.064714
24.154844
24.154826
24.154805
24.154782
24.154757
24.154729
24.154697
24.154664
24.154627
24.154589
24.154549
24.15451
24.154471
24.154436
24.154407
24.154386
24.154375
24.154378
24.154393
24.154419
24.15445
24.154472
24.154466
24.154402
24.154238
24.153924
24.153396
24.152587
24.151425
24.149837
24.147747
24.14509
24.141817
24.137904
24.133362
24.128257
24.12273
24.117029
24.111569
24.107014
24.104381
24.105142
24.111194
24.124559
24.146459
24.176169
24.210418
24.243335
24.266794
24.274683
24.265821
24.242158
24.207324
24.163521
24.11189
24.052655
23.985868
23.910772
23.827176
23.733466
23.629732
23.513149
23.384633
23.239558
23.080016
24.135946
24.135941
24.135934
24.135925
24.135915
24.135903
24.13589
24.135875
24.135858
24.135841
24.135824
24.135807
24.135792
24.135782
24.135778
24.135782
24.135797
24.135825
24.135865
24.135917
24.135973
24.136022
24.136042
24.136003
24.135862
24.135566
24.13505
24.134238
24.13305
24.131404
24.129219
24.126412
24.122919
24.118699
24.113739
24.108082
24.101843
24.095251
24.088721
24.082947
24.079048
24.078687
24.084052
24.097502
24.120471
24.152228
24.189392
24.225926
24.253298
24.265011
24.259184
24.238055
24.205504
24.163743
24.113956
24.056387
23.991157
23.917508
23.835354
23.742999
23.640739
23.525496
23.398641
23.254908
23.097436
24.117903
24.117909
24.117916
24.117921
24.117927
24.117931
24.117935
24.117939
24.117943
24.117947
24.117952
24.117958
24.117968
24.117982
24.118003
24.118032
24.118071
24.118122
24.118184
24.118256
24.11833
24.118395
24.118428
24.118398
24.118263
24.117965
24.117435
24.116594
24.115356
24.11363
24.111323
24.108348
24.104624
24.100089
24.094716
24.088525
24.081616
24.074211
24.066737
24.059944
24.055061
24.053944
24.059034
24.072922
24.097095
24.130666
24.170202
24.209797
24.241192
24.256097
24.252846
24.234284
24.204108
24.164504
24.116682
24.060904
23.997363
23.925291
23.844719
23.753857
23.653233
23.539483
23.414491
23.272268
23.117169
24.101392
24.10141
24.101429
24.101448
24.101468
24.101488
24.101509
24.101531
24.101554
24.101578
24.101605
24.101634
24.101668
24.101706
24.101751
24.101804
24.101867
24.101939
24.102021
24.10211
24.102198
24.102272
24.102311
24.102282
24.102141
24.101829
24.101275
24.100394
24.099088
24.097271
24.094851
24.091715
24.087776
24.082962
24.077234
24.070603
24.063162
24.055143
24.047007
24.03957
24.03418
24.032845
24.038162
24.052779
24.078078
24.113008
24.154382
24.196843
24.230765
24.248088
24.247147
24.231098
24.203318
24.165939
24.120179
24.066299
24.004568
23.934197
23.855346
23.766114
23.66729
23.555186
23.432256
23.291699
23.139228
24.086982
24.087008
24.087039
24.08707
24.087102
24.087136
24.087172
24.08721
24.087251
24.087294
24.087341
24.087392
24.087447
24.087509
24.087577
24.087654
24.087739
24.087833
24.087935
24.08804
24.088141
24.088225
24.08827
24.088241
24.088094
24.087768
24.087189
24.086272
24.084928
24.083055
24.080525
24.077255
24.073167
24.068167
24.062213
24.055316
24.047579
24.039261
24.030868
24.023293
24.017973
24.016995
24.022999
24.038494
24.064687
24.100585
24.143564
24.186998
24.22215
24.241347
24.242449
24.228749
24.20332
24.168191
24.124559
24.072669
24.012859
23.944307
23.867314
23.779848
23.682989
23.572685
23.452035
23.313304
23.163782
24.075066
24.0751
24.075139
24.075179
24.075221
24.075266
24.075315
24.075366
24.075421
24.075481
24.075545
24.075614
24.07569
24.075772
24.075863
24.075961
24.076069
24.076186
24.076309
24.076435
24.076556
24.076659
24.076722
24.076713
24.076587
24.076282
24.075725
24.074838
24.073518
24.071638
24.069081
24.065769
24.061606
24.056528
24.050515
24.043582
24.035853
24.027622
24.019442
24.012272
24.007594
24.007509
24.014528
24.030906
24.057769
24.09446
24.137355
24.180674
24.216584
24.23639
24.239143
24.227482
24.204296
24.171404
24.129941
24.080114
24.022323
23.955701
23.880701
23.795134
23.700411
23.592051
23.473908
23.337155
23.19085
24.065879
24.065917
24.065962
24.066008
24.066057
24.06611
24.066167
24.066228
24.066294
24.066365
24.066443
24.066527
24.066619
24.066718
24.066827
24.066946
24.067075
24.067214
24.067362
24.067513
24.067662
24.067795
24.067893
24.067924
24.067843
24.067594
24.067103
24.066277
24.064997
24.063156
24.060667
24.057441
24.053406
24.048508
24.042706
24.036039
24.028677
24.020951
24.013468
24.007215
24.003689
24.004877
24.01303
24.030279
24.057669
24.093812
24.135838
24.178776
24.21378
24.233624
24.237398
24.227485
24.206416
24.175717
24.136441
24.088735
24.033052
23.968465
23.895586
23.812053
23.719638
23.61337
23.497962
23.363361
23.220584
24.059317
24.059358
24.059406
24.059455
24.059507
24.059564
24.059626
24.059692
24.059765
24.059844
24.05993
24.060024
24.060127
24.06024
24.060363
24.060498
24.060645
24.060804
24.060975
24.061154
24.061334
24.061505
24.061651
24.061743
24.061741
24.061591
24.061213
24.060517
24.059416
24.057807
24.055593
24.052688
24.04901
24.044502
24.039159
24.03307
24.026432
24.019615
24.013254
24.008345
24.006301
24.008908
24.018296
24.03628
24.063228
24.098331
24.13947
24.180568
24.213923
24.232987
24.237339
24.228935
24.209834
24.181266
24.144178
24.098634
24.045137
23.982681
23.912052
23.830682
23.740746
23.636726
23.524273
23.392
23.253026
24.055248
24.055288
24.055335
24.055384
24.055436
24.055494
24.055556
24.055624
24.055699
24.05578
24.05587
24.055969
24.056077
24.056197
24.056329
24.056475
24.056637
24.056814
24.057007
24.057217
24.057438
24.057663
24.057879
24.058066
24.058194
24.05821
24.058052
24.057644
24.056888
24.05568
24.053917
24.051503
24.04837
24.044492
24.039903
24.034709
24.029133
24.023572
24.018667
24.015358
24.014916
24.019043
24.029513
24.047568
24.073785
24.107981
24.147176
24.185876
24.216645
24.234488
24.239102
24.23197
24.214688
24.188176
24.153264
24.109911
24.058669
23.998435
23.93018
23.851102
23.763814
23.6622
23.55293
23.42316
23.288321
24.053224
24.053262
24.053306
24.053352
24.053402
24.053456
24.053516
24.053582
24.053654
24.053734
24.053822
24.053919
24.054028
24.054149
24.054284
24.054435
24.054603
24.054792
24.055003
24.055237
24.055495
24.055774
24.056067
24.056361
24.056635
24.056861
24.056985
24.056935
24.056632
24.055977
24.054867
24.053213
24.050947
24.048049
24.044557
24.040593
24.036399
24.032378
24.029134
24.027513
24.028742
24.034223
24.045288
24.063207
24.088748
24.121499
24.158454
24.193837
24.221761
24.238051
24.242732
24.236697
24.221097
24.196564
24.163805
24.122664
24.073736
24.015809
23.950048
23.873389
23.788919
23.689868
23.584016
23.456912
23.326533
24.052847
24.05288
24.05292
24.052961
24.053005
24.053055
24.053109
24.05317
24.053236
24.05331
24.053393
24.053485
24.053589
24.053705
24.053837
24.053985
24.054154
24.054347
24.054567
24.054817
24.055103
24.055427
24.055789
24.056188
24.056614
24.05705
24.057467
24.057823
24.058053
24.058078
24.057809
24.057157
24.05605
24.054453
24.052396
24.04999
24.047465
24.045188
24.043701
24.043842
24.046586
24.053033
24.064496
24.082189
24.106846
24.138084
24.172136
24.203981
24.228786
24.243679
24.248268
24.243195
24.22916
24.20653
24.1759
24.136985
24.090428
24.034888
23.971737
23.897621
23.816138
23.719808
23.617613
23.493351
23.367789
24.05368
24.053708
24.053742
24.053777
24.053816
24.053858
24.053906
24.053959
24.054018
24.054084
24.054158
24.054242
24.054336
24.054444
24.054567
24.054708
24.05487
24.055059
24.05528
24.055538
24.05584
24.056195
24.056611
24.057096
24.057655
24.058289
24.058992
24.059747
24.060521
24.061268
24.061923
24.062411
24.06266
24.062619
24.062282
24.061718
24.061099
24.060726
24.061142
24.06294
24.066911
24.074153
24.085849
24.103239
24.127139
24.156614
24.187479
24.215696
24.237587
24.251211
24.255735
24.251522
24.238958
24.218166
24.18964
24.152962
24.108828
24.05575
23.995323
23.923871
23.845548
23.752094
23.653796
23.532555
23.41215
24.055372
24.055395
24.055422
24.055451
24.055483
24.055519
24.055558
24.055603
24.055653
24.05571
24.055773
24.055846
24.055929
24.056025
24.056135
24.056263
24.056414
24.056592
24.056803
24.057057
24.057363
24.057736
24.058188
24.058735
24.059396
24.060188
24.061129
24.062228
24.06349
24.064905
24.066443
24.068059
24.069695
24.071291
24.072802
24.074235
24.075686
24.077403
24.079657
24.082939
24.088084
24.095994
24.10797
24.125435
24.148835
24.176176
24.203969
24.228611
24.248285
24.260596
24.265117
24.261714
24.250551
24.231545
24.205104
24.170676
24.129014
24.078472
24.020878
23.952211
23.877218
23.786798
23.692645
23.574609
23.459723
24.057644
24.057661
24.057682
24.057704
24.057729
24.057757
24.057788
24.057824
24.057864
24.057909
24.057961
24.058021
24.058091
24.058174
24.058271
24.058386
24.058524
24.05869
24.058891
24.059136
24.059437
24.059811
24.06028
24.060865
24.061595
24.062501
24.063619
24.064985
24.066632
24.068585
24.070859
24.073445
24.076311
24.079406
24.082666
24.086048
24.089539
24.09317
24.097165
24.102006
24.108279
24.117111
24.130068
24.148102
24.170829
24.195962
24.221074
24.24276
24.26048
24.271831
24.276403
24.27379
24.263988
24.246733
24.222366
24.190203
24.151062
24.103126
24.048472
23.982707
23.911214
23.823988
23.734231
23.619577
23.510529
24.060231
24.060243
24.060258
24.060274
24.060293
24.060313
24.060337
24.060364
24.060395
24.060431
24.060472
24.060521
24.060579
24.060646
24.060727
24.060824
24.060945
24.061094
24.061281
24.061517
24.061816
24.062194
24.062671
24.063277
24.064049
24.06503
24.066271
24.067823
24.069744
24.072089
24.074902
24.07821
24.082024
24.086299
24.090968
24.095935
24.101125
24.106526
24.112212
24.118583
24.126541
24.137198
24.151745
24.170435
24.192484
24.215704
24.238091
24.257993
24.2741
24.284815
24.289557
24.28776
24.279306
24.263782
24.241488
24.211608
24.17504
24.129779
24.078168
24.015422
23.947602
23.86373
23.778617
23.667512
23.564646
24.062779
24.062787
24.062797
24.062808
24.06282
24.062834
24.062851
24.06287
24.062892
24.062919
24.062951
24.06299
24.063037
24.063095
24.063166
24.063255
24.063365
24.063503
24.063677
24.063899
24.064184
24.064553
24.065029
24.065643
24.066438
24.06747
24.068796
24.070473
24.072569
24.075164
24.078332
24.08212
24.086548
24.091612
24.097264
24.103415
24.109949
24.116823
24.124315
24.132919
24.143231
24.156256
24.172452
24.191867
24.213008
24.235067
24.255569
24.274096
24.289143
24.299512
24.304558
24.303626
24.296531
24.282738
24.262526
24.234954
24.201008
24.158491
24.110027
24.050419
23.986438
23.906084
23.825854
23.71846
23.622191
24.064901
24.064905
24.064911
24.064918
24.064926
24.064935
24.064947
24.064961
24.064978
24.064999
24.065024
24.065055
24.065094
24.065142
24.065203
24.065281
24.065379
24.065506
24.065671
24.065885
24.066164
24.06653
24.067011
24.06764
24.068457
24.069515
24.070876
24.07261
24.074803
24.077539
24.080879
24.084892
24.089657
24.095191
24.101463
24.108455
24.116223
24.124886
24.134634
24.145786
24.15886
24.174431
24.192328
24.2122
24.233048
24.253798
24.273529
24.291114
24.305572
24.315879
24.321383
24.321391
24.315688
24.30364
24.285531
24.260294
24.229022
24.189319
24.144102
24.087755
24.027772
23.951108
23.875983
23.772497
23.68326
24.066064
24.066068
24.066073
24.066079
24.066086
24.066095
24.066105
24.066118
24.066134
24.066153
24.066176
24.066206
24.066242
24.066288
24.066346
24.06642
24.066516
24.066639
24.066799
24.067008
24.067283
24.067645
24.068121
24.068746
24.069564
24.070629
24.072001
24.073755
24.075969
24.078731
24.08215
24.086319
24.091301
24.097177
24.104066
24.112089
24.121338
24.131963
24.144162
24.158075
24.17402
24.191782
24.211281
24.231584
24.252545
24.272783
24.29198
24.309129
24.323401
24.333902
24.340024
24.34106
24.336797
24.326523
24.310545
24.287677
24.259135
24.222314
24.180443
24.127483
24.071644
23.998838
23.929025
23.829605
23.747885
24.066137
24.066143
24.066151
24.06616
24.066169
24.066181
24.066195
24.066211
24.06623
24.066253
24.066281
24.066314
24.066355
24.066406
24.066468
24.066547
24.066646
24.066774
24.066937
24.067149
24.067425
24.067787
24.068263
24.068885
24.069698
24.070756
24.072123
24.073895
24.076167
24.079007
24.082517
24.08685
24.092157
24.098598
24.106341
24.115589
24.126543
24.139401
24.154174
24.170791
24.189146
24.208819
24.229451
24.250663
24.271607
24.291996
24.311117
24.328234
24.342654
24.353585
24.360484
24.362646
24.359882
24.351419
24.337608
24.317147
24.291391
24.257522
24.219102
24.169656
24.118076
24.04933
23.985041
23.890001
23.816137
24.065322
24.065332
24.065344
24.065357
24.065372
24.065389
24.065409
24.065431
24.065458
24.065489
24.065525
24.065567
24.065618
24.06568
24.065754
24.065845
24.065958
24.066099
24.066277
24.066505
24.0668
24.067182
24.067677
24.068319
24.069166
24.070293
24.071749
24.0736
24.075963
24.078966
24.082745
24.087466
24.093321
24.100537
24.109381
24.120136
24.13304
24.148143
24.165235
24.18427
24.204574
24.225935
24.247759
24.269631
24.291126
24.311806
24.331156
24.348551
24.363388
24.374956
24.38278
24.386165
24.384966
24.378357
24.366756
24.348743
24.325834
24.294991
24.260112
24.214297
24.167123
24.102624
24.04403
23.953653
23.887855
24.064075
24.064089
24.064106
24.064124
24.064145
24.064168
24.064195
24.064225
24.064259
24.064299
24.064346
24.0644
24.064464
24.064539
24.064629
24.064738
24.064872
24.065036
24.065242
24.065501
24.065831
24.066254
24.066806
24.067525
24.06846
24.069676
24.071251
24.073281
24.075885
24.079202
24.083398
24.08868
24.095301
24.103567
24.113814
24.126326
24.141235
24.158481
24.177814
24.198743
24.220753
24.243477
24.266391
24.289006
24.311159
24.332395
24.352257
24.370189
24.38567
24.398056
24.40694
24.411643
24.412073
24.407366
24.398019
24.382498
24.3625
24.334746
24.30351
24.261473
24.21883
24.158765
24.106002
24.020541
23.96294
24.062603
24.062621
24.062642
24.062665
24.062691
24.06272
24.062753
24.062791
24.062835
24.062884
24.062942
24.063009
24.063087
24.063179
24.063289
24.06342
24.063579
24.063773
24.064014
24.064316
24.064698
24.065188
24.065818
24.06663
24.067684
24.069052
24.070822
24.073106
24.076039
24.079789
24.084564
24.090622
24.098304
24.107959
24.119869
24.134291
24.151303
24.17063
24.191907
24.214321
24.237835
24.261747
24.285572
24.309132
24.33209
24.354055
24.374621
24.393284
24.409588
24.42294
24.433
24.439106
24.44123
24.43847
24.431423
24.418441
24.401419
24.37682
24.349355
24.311135
24.273167
24.217685
24.171024
24.0905
24.041807
24.060964
24.060986
24.061012
24.06104
24.061071
24.061106
24.061147
24.061193
24.061245
24.061305
24.061374
24.061455
24.061548
24.061658
24.061788
24.061943
24.06213
24.062357
24.062637
24.062986
24.063425
24.063983
24.064698
24.065621
24.066817
24.068367
24.070377
24.072979
24.07634
24.080661
24.086209
24.093349
24.102405
24.113652
24.127474
24.144024
24.163076
24.184286
24.207105
24.231142
24.255892
24.280816
24.305731
24.330277
24.354151
24.376988
24.398414
24.417962
24.43523
24.449667
24.460999
24.468582
24.472459
24.471692
24.46699
24.456592
24.44261
24.421224
24.397623
24.36328
24.33021
24.279343
24.239133
24.163484
24.124288
24.05904
24.059066
24.059097
24.059131
24.059168
24.059211
24.05926
24.059315
24.059378
24.059449
24.059532
24.059627
24.059738
24.059868
24.06002
24.060202
24.060419
24.060682
24.061005
24.061405
24.061907
24.062543
24.063356
24.064405
24.065765
24.067536
24.069843
24.072844
24.076752
24.08185
24.088483
24.096937
24.107531
24.120734
24.136743
24.155393
24.176413
24.199389
24.223648
24.249086
24.27499
24.301091
24.327109
24.352713
24.377596
24.401411
24.42381
24.444354
24.46269
24.478301
24.490981
24.500101
24.50578
24.507047
24.504735
24.496962
24.48608
24.467968
24.448335
24.41794
24.390007
24.343686
24.310372
24.239604
24.210222
24.056817
24.056849
24.056887
24.056927
24.056973
24.057024
24.057082
24.057148
24.057222
24.057307
24.057405
24.057517
24.057646
24.057797
24.057973
24.058182
24.058431
24.058732
24.059099
24.059553
24.060121
24.060842
24.061766
24.062962
24.064516
24.066554
24.069239
24.072795
24.077486
24.083579
24.091394
24.101414
24.114058
24.129455
24.147625
24.168353
24.191259
24.21579
24.241688
24.26834
24.295474
24.32279
24.34996
24.376677
24.40264
24.427511
24.450963
24.47258
24.492055
24.508905
24.522986
24.533688
24.54121
24.544548
24.544664
24.539554
24.531822
24.517043
24.50146
24.475118
24.452429
24.410892
24.384588
24.31888
24.299513
24.054325
24.054363
24.054409
24.054458
24.054513
24.054574
24.054643
24.05472
24.054808
24.054907
24.055021
24.055151
24.0553
24.055473
24.055676
24.055914
24.056197
24.056538
24.056955
24.057469
24.058114
24.058933
24.059991
24.06137
24.0632
24.065641
24.068854
24.073076
24.078641
24.085961
24.095448
24.107456
24.122241
24.139887
24.160249
24.182993
24.207664
24.233839
24.261154
24.289151
24.317594
24.346148
24.374517
24.402397
24.429492
24.45547
24.480023
24.502758
24.523413
24.54154
24.557056
24.569368
24.578758
24.584195
24.586768
24.584354
24.579819
24.568431
24.556985
24.534737
24.517519
24.480721
24.461749
24.401194
24.392083
24.051766
24.051811
24.051866
24.051924
24.051988
24.05206
24.052141
24.052231
24.052333
24.052448
24.052578
24.052727
24.052897
24.053094
24.053323
24.053593
24.053913
24.054298
24.054771
24.055359
24.056102
24.057061
24.058314
24.059955
24.062111
24.064978
24.068841
24.074015
24.080857
24.089772
24.101155
24.115318
24.132407
24.152345
24.174862
24.199549
24.225929
24.253743
24.282451
24.311846
24.341605
24.37143
24.40103
24.430102
24.458355
24.485462
24.511134
24.535003
24.556853
24.576272
24.593235
24.60717
24.61844
24.625988
24.631038
24.631347
24.630043
24.622096
24.614823
24.596873
24.585033
24.553284
24.541533
24.48649
24.487421
24.049599
24.049652
24.049717
24.049785
24.04986
24.049943
24.050036
24.05014
24.050256
24.050387
24.050536
24.050705
24.0509
24.051124
24.051384
24.051686
24.052042
24.052483
24.053035
24.053721
24.054574
24.055676
24.057146
24.059118
24.061766
24.065328
24.070107
24.076467
24.08482
24.095581
24.109097
24.125573
24.145018
24.167218
24.191804
24.218314
24.24645
24.275731
24.305919
24.336698
24.367786
24.398893
24.429729
24.459997
24.489405
24.517634
24.544413
24.569407
24.592441
24.613146
24.631551
24.647104
24.660248
24.669908
24.677437
24.680485
24.682432
24.677997
24.674985
24.661378
24.655071
24.628512
24.623968
24.574355
24.585767
24.048417
24.048479
24.048553
24.04863
24.048715
24.04881
24.048915
24.049033
24.049165
24.049312
24.049478
24.049668
24.049891
24.050146
24.050428
24.050753
24.051151
24.05165
24.052284
24.053096
24.054142
24.055509
24.057328
24.059769
24.063061
24.067494
24.073424
24.081255
24.091405
24.104256
24.120068
24.138922
24.160701
24.185044
24.211546
24.239866
24.269594
24.300398
24.332009
24.364146
24.396534
24.42889
24.460927
24.492348
24.522864
24.552166
24.580006
24.606082
24.630262
24.65222
24.672033
24.689174
24.704159
24.71591
24.725902
24.731719
24.73694
24.736053
24.737314
24.728222
24.727507
24.706447
24.708738
24.666049
24.684711
24.04949
24.049559
24.04964
24.049725
24.049821
24.049935
24.050064
24.050195
24.05033
24.050482
24.050658
24.050864
24.051104
24.051385
24.051717
24.052113
24.052594
24.053192
24.053949
24.054924
24.056201
24.057898
24.060175
24.063244
24.067376
24.072909
24.080233
24.089764
24.101896
24.116943
24.135046
24.156167
24.180042
24.206267
24.234687
24.264742
24.296016
24.328279
24.361259
24.394691
24.428312
24.461842
24.495
24.527488
24.559023
24.58931
24.618129
24.645214
24.670476
24.693628
24.714796
24.733488
24.750271
24.764082
24.776503
24.785074
24.793546
24.796265
24.801785
24.797282
24.802095
24.786773
24.796049
24.759237
24.788014
24.05369
24.053765
24.053854
24.053949
24.054052
24.054166
24.054293
24.054434
24.054592
24.05477
24.054972
24.055202
24.055469
24.055782
24.056155
24.056607
24.057166
24.057872
24.058778
24.059962
24.06153
24.063628
24.066449
24.070247
24.075337
24.082091
24.090922
24.102241
24.116401
24.133632
24.15394
24.177218
24.203192
24.23149
24.261595
24.293146
24.325848
24.359436
24.393666
24.428284
24.463032
24.497633
24.531804
24.56525
24.597698
24.628873
24.658585
24.686605
24.712877
24.737153
24.759611
24.779787
24.798304
24.814137
24.828936
24.84026
24.851954
24.858314
24.868104
24.868408
24.878675
24.870066
24.885244
24.859205
24.892415
24.063564
24.063643
24.063737
24.063836
24.063946
24.064067
24.064202
24.064352
24.06452
24.06471
24.064928
24.065179
24.065474
24.065826
24.066252
24.06678
24.067444
24.068298
24.06941
24.070881
24.072843
24.075474
24.079005
24.083729
24.089994
24.098196
24.108745
24.122019
24.138304
24.15771
24.180178
24.205653
24.233494
24.263394
24.294785
24.32759
24.361514
24.396269
24.431613
24.467286
24.50303
24.538568
24.573612
24.607877
24.641099
24.673046
24.703549
24.732429
24.759647
24.785015
24.80871
24.830363
24.850611
24.868502
24.885734
24.899902
24.914943
24.925143
24.939387
24.944805
24.960725
24.959452
24.980714
24.969679
25.000318
24.082788
24.082869
24.082967
24.083067
24.083178
24.0833
24.083437
24.083589
24.083762
24.08396
24.084189
24.084457
24.084779
24.085171
24.085657
24.086272
24.087063
24.088096
24.089462
24.091282
24.093719
24.096984
24.101344
24.107119
24.11468
24.124424
24.136733
24.151926
24.170192
24.191545
24.216043
24.243004
24.272094
24.303072
24.335726
24.36966
24.404602
24.440319
24.476548
24.51305
24.54954
24.585749
24.621397
24.656215
24.689968
24.722454
24.753541
24.783088
24.811081
24.83738
24.862185
24.885207
24.90708
24.92701
24.946582
24.963678
24.98196
24.996247
25.01479
25.025835
25.04719
25.05377
25.081337
25.082815
25.117816
24.11111
24.11119
24.111286
24.111385
24.111494
24.111615
24.111751
24.111904
24.112079
24.112282
24.11252
24.112805
24.113154
24.113588
24.114139
24.114849
24.115778
24.117008
24.118647
24.120841
24.123779
24.1277
24.132895
24.139705
24.148506
24.159675
24.173556
24.190394
24.210289
24.233269
24.258964
24.286914
24.317226
24.349328
24.382864
24.417581
24.453225
24.489564
24.526341
24.563306
24.600189
24.636717
24.672625
24.707668
24.741644
24.774389
24.8058
24.835776
24.864319
24.891347
24.917057
24.941276
24.964598
24.986427
25.008175
25.028107
25.049451
25.067811
25.090411
25.107217
25.133489
25.148295
25.181214
25.194782
25.234387
24.150867
24.150943
24.151033
24.151128
24.151231
24.151347
24.151478
24.151627
24.151799
24.152002
24.152245
24.152543
24.152914
24.153387
24.154
24.154803
24.155869
24.157293
24.159203
24.161763
24.165183
24.169724
24.175694
24.183437
24.193322
24.205696
24.220847
24.238953
24.260058
24.284031
24.310537
24.339506
24.370409
24.402957
24.436877
24.471911
24.507819
24.544358
24.581271
24.618298
24.655172
24.691626
24.727417
24.76233
24.796199
24.828897
24.860346
24.890481
24.919322
24.946842
24.973242
24.99846
25.023038
25.046595
25.070337
25.092956
25.117177
25.139486
25.165955
25.188391
25.219478
25.242335
25.28073
25.30562
25.351578
24.201975
24.202044
24.202126
24.202213
24.202309
24.202416
24.202539
24.20268
24.202846
24.203046
24.203291
24.203597
24.203989
24.204499
24.20517
24.206064
24.207263
24.208875
24.211043
24.213948
24.217817
24.222921
24.229575
24.23812
24.2489
24.262225
24.278331
24.297337
24.319216
24.343798
24.370855
24.400048
24.431086
24.463677
24.497562
24.532501
24.568253
24.604571
24.641193
24.677858
24.714302
24.750277
24.785562
24.819982
24.853404
24.885734
24.916919
24.946928
24.975801
25.00357
25.030442
25.056458
25.082108
25.107206
25.132775
25.157909
25.184857
25.210952
25.241153
25.269028
25.304848
25.335368
25.379278
25.414643
25.467256
24.264917
24.264978
24.26505
24.265127
24.265213
24.26531
24.265421
24.265552
24.265709
24.265901
24.266143
24.266454
24.266861
24.267399
24.268121
24.269093
24.270408
24.272184
24.274575
24.277775
24.282018
24.287582
24.294777
24.303929
24.315356
24.329326
24.34602
24.365504
24.38771
24.412455
24.439479
24.468504
24.499247
24.531448
24.564865
24.599268
24.634419
24.670071
24.705958