/*--------------------------------*- C++ -*----------------------------------*\
  =========                 |
  \\      /  F ield         | OpenFOAM: The Open Source CFD Toolbox
   \\    /   O peration     | Website:  https://openfoam.org
    \\  /    A nd           | Version:  13
     \\/     M anipulation  |
\*---------------------------------------------------------------------------*/
FoamFile
{
    format      ascii;
    class       volScalarField;
    location    "19.896567";
    object      yPlus;
}
// * * * * * * * * * * * * * * * * * * * * * * * * * * * * * * * * * * * * * //

dimensions      [];

internalField   uniform 0;

boundaryField
{
    inlet
    {
        type            calculated;
        value           uniform 0;
    }
    outlet
    {
        type            calculated;
        value           uniform 0;
    }
    cylinder
    {
        type            calculated;
        value           nonuniform List<scalar> 
132
(
5.2663044e-07
5.2285584e-07
5.1636409e-07
5.0689919e-07
4.9427138e-07
4.7837454e-07
4.5921576e-07
4.3692868e-07
4.1177116e-07
3.8411486e-07
3.5442924e-07
3.232693e-07
2.9125744e-07
2.590491e-07
2.2732153e-07
1.9674421e-07
1.6793926e-07
1.4144251e-07
1.1766442e-07
9.6878166e-08
7.9230755e-08
6.478245e-08
5.3529819e-08
4.5367037e-08
3.9862093e-08
3.609311e-08
3.2798888e-08
2.8875712e-08
2.3976153e-08
1.8496883e-08
1.3189707e-08
8.718587e-09
5.4826174e-09
3.6921621e-09
3.3405556e-09
3.8451193e-09
4.7323122e-09
5.8802877e-09
7.2968554e-09
9.0206109e-09
1.1134175e-08
1.3737639e-08
1.6626432e-08
1.9763069e-08
2.3068557e-08
2.6464077e-08
2.9874472e-08
3.3237559e-08
3.6505879e-08
3.9644111e-08
4.2627654e-08
4.5442212e-08
4.8072351e-08
5.050491e-08
5.2762077e-08
5.4827561e-08
5.6702897e-08
5.8380247e-08
5.9878638e-08
6.1191232e-08
6.2326508e-08
6.3265316e-08
6.4023707e-08
6.4590583e-08
6.4980707e-08
6.5182731e-08
5.277642e-07
5.2635609e-07
5.2234887e-07
5.154146e-07
5.0537499e-07
4.9200895e-07
4.7518432e-07
4.549016e-07
4.3130862e-07
4.046974e-07
3.7549241e-07
3.4423376e-07
3.1155828e-07
2.7817748e-07
2.4484799e-07
2.1233578e-07
1.8138553e-07
1.5267107e-07
1.267368e-07
1.039747e-07
8.461565e-08
6.8757548e-08
5.6362096e-08
4.7211183e-08
4.0726514e-08
3.588508e-08
3.1483246e-08
2.665209e-08
2.1278574e-08
1.5817087e-08
1.0898767e-08
7.0175314e-09
4.4619195e-09
3.3585881e-09
3.4636682e-09
4.1516731e-09
5.130454e-09
6.35884e-09
7.8593656e-09
9.6714384e-09
1.1872751e-08
1.4559334e-08
1.7510449e-08
2.0687288e-08
2.4009337e-08
2.7398257e-08
3.0784638e-08
3.4111165e-08
3.7333622e-08
4.042139e-08
4.3350057e-08
4.6110204e-08
4.868263e-08
5.1052998e-08
5.3272488e-08
5.5282114e-08
5.71106e-08
5.8739194e-08
6.019522e-08
6.1463811e-08
6.2552994e-08
6.345017e-08
6.416536e-08
6.4688941e-08
6.5031378e-08
6.5194059e-08
)
;
    }
    frontAndBack
    {
        type            empty;
    }
}


// ************************************************************************* //
