/*--------------------------------*- C++ -*----------------------------------*\
  =========                 |
  \\      /  F ield         | OpenFOAM: The Open Source CFD Toolbox
   \\    /   O peration     | Website:  https://openfoam.org
    \\  /    A nd           | Version:  13
     \\/     M anipulation  |
\*---------------------------------------------------------------------------*/
FoamFile
{
    format      ascii;
    class       volScalarField;
    location    "7.598737";
    object      pPrime2Mean;
}
// * * * * * * * * * * * * * * * * * * * * * * * * * * * * * * * * * * * * * //

dimensions      [0 4 -4 0 0 0 0];

internalField   nonuniform List<scalar> 
17140
(
40789.022
40789.024
40789.026
40789.026
40789.026
40789.024
40789.021
40789.016
40789.008
40788.998
40788.984
40788.965
40788.94
40788.907
40788.864
40788.81
40788.739
40788.649
40788.534
40788.386
40788.196
40787.953
40787.641
40787.241
40786.728
40786.069
40785.223
40784.144
40782.772
40781.034
40778.84
40776.079
40772.617
40768.29
40762.896
40756.199
40747.914
40737.709
40725.199
40709.94
40691.427
40669.082
40642.249
40610.19
40572.079
40526.998
40473.942
40411.816
40339.434
40255.525
40158.743
40047.635
39920.641
39776.098
39612.2
39427.001
39218.394
38984.091
38721.537
38427.914
38100.108
37734.773
37328.284
36876.771
36376.236
40790.07
40790.072
40790.074
40790.075
40790.074
40790.072
40790.069
40790.064
40790.056
40790.046
40790.031
40790.011
40789.986
40789.952
40789.909
40789.853
40789.781
40789.689
40789.572
40789.421
40789.229
40788.983
40788.667
40788.264
40787.747
40787.085
40786.237
40785.157
40783.786
40782.05
40779.859
40777.103
40773.647
40769.325
40763.938
40757.247
40748.969
40738.772
40726.271
40711.024
40692.523
40670.193
40643.378
40611.34
40573.252
40528.198
40475.171
40413.074
40340.725
40256.855
40160.113
40049.052
39922.115
39777.636
39613.81
39428.692
39220.175
38985.973
38723.532
38430.039
38102.38
37737.211
37330.91
36879.61
36379.291
40792.664
40792.666
40792.668
40792.668
40792.667
40792.665
40792.661
40792.655
40792.647
40792.635
40792.619
40792.599
40792.571
40792.536
40792.49
40792.431
40792.356
40792.26
40792.138
40791.983
40791.785
40791.532
40791.21
40790.8
40790.278
40789.611
40788.761
40787.68
40786.311
40784.579
40782.395
40779.649
40776.203
40771.892
40766.517
40759.839
40751.575
40741.395
40728.914
40713.692
40695.221
40672.927
40646.154
40614.166
40576.135
40531.145
40478.188
40416.167
40343.9
40260.122
40163.484
40052.542
39925.742
39781.42
39617.773
39432.854
39224.56
38990.609
38728.451
38435.276
38107.977
37743.211
37337.364
36886.58
36386.781
40796.856
40796.858
40796.859
40796.859
40796.858
40796.855
40796.85
40796.844
40796.834
40796.821
40796.804
40796.781
40796.751
40796.713
40796.664
40796.601
40796.522
40796.421
40796.293
40796.132
40795.927
40795.668
40795.339
40794.923
40794.395
40793.725
40792.874
40791.795
40790.429
40788.705
40786.531
40783.796
40780.363
40776.066
40770.707
40764.048
40755.805
40745.651
40733.202
40718.019
40699.596
40677.358
40650.654
40618.745
40580.805
40535.917
40483.072
40421.173
40349.04
40265.411
40168.943
40058.195
39931.621
39787.558
39624.203
39439.612
39231.682
38998.141
38736.445
38443.79
38117.073
37752.961
37347.848
36897.899
36398.939
40802.7
40802.701
40802.702
40802.702
40802.7
40802.696
40802.691
40802.683
40802.673
40802.658
40802.639
40802.614
40802.583
40802.542
40802.49
40802.424
40802.34
40802.235
40802.103
40801.936
40801.725
40801.46
40801.127
40800.706
40800.175
40799.504
40798.654
40797.579
40796.219
40794.503
40792.34
40789.617
40786.198
40781.918
40776.579
40769.942
40761.728
40751.609
40739.204
40724.075
40705.717
40683.558
40656.947
40625.148
40587.333
40542.585
40489.893
40428.164
40356.218
40272.8
40176.572
40066.1
39939.843
39796.144
39633.204
39449.077
39241.665
39008.705
38747.661
38455.738
38129.842
37766.649
37362.568
36913.793
36416.01
40810.247
40810.248
40810.248
40810.247
40810.245
40810.241
40810.235
40810.226
40810.215
40810.199
40810.179
40810.153
40810.12
40810.077
40810.023
40809.955
40809.87
40809.762
40809.627
40809.457
40809.244
40808.977
40808.642
40808.22
40807.69
40807.021
40806.175
40805.105
40803.753
40802.046
40799.893
40797.183
40793.779
40789.517
40784.2
40777.591
40769.413
40759.339
40746.99
40731.928
40713.654
40691.597
40665.106
40633.446
40595.79
40551.219
40498.724
40437.214
40365.512
40282.37
40186.456
40076.344
39950.503
39807.282
39644.885
39461.367
39254.636
39022.439
38762.251
38471.286
38146.461
37784.467
37381.733
36934.489
36438.245
40819.566
40819.567
40819.567
40819.565
40819.563
40819.558
40819.551
40819.542
40819.53
40819.514
40819.493
40819.467
40819.433
40819.39
40819.335
40819.267
40819.181
40819.073
40818.938
40818.768
40818.556
40818.291
40817.957
40817.538
40817.011
40816.347
40815.508
40814.446
40813.103
40811.406
40809.263
40806.565
40803.177
40798.934
40793.641
40787.065
40778.93
40768.909
40756.628
40741.65
40723.478
40701.544
40675.199
40643.709
40606.245
40561.89
40509.637
40448.398
40377.001
40294.204
40198.682
40089.021
39963.699
39821.074
39659.357
39476.602
39270.726
39039.484
38780.367
38490.599
38167.109
37806.612
37405.556
36960.222
36465.903
40830.737
40830.737
40830.737
40830.735
40830.732
40830.727
40830.72
40830.71
40830.698
40830.682
40830.661
40830.635
40830.601
40830.558
40830.505
40830.437
40830.353
40830.247
40830.114
40829.948
40829.74
40829.479
40829.151
40828.738
40828.217
40827.56
40826.729
40825.676
40824.342
40822.654
40820.523
40817.837
40814.464
40810.242
40804.977
40798.438
40790.351
40780.393
40768.19
40753.31
40735.258
40713.469
40687.296
40656.004
40618.766
40574.666
40522.703
40461.792
40390.765
40308.386
40213.342
40104.227
39979.534
39837.631
39676.734
39494.904
39290.064
39059.984
38802.166
38513.848
38191.974
37833.285
37434.258
36991.23
36499.245
40843.852
40843.852
40843.851
40843.849
40843.845
40843.84
40843.833
40843.823
40843.811
40843.795
40843.775
40843.749
40843.716
40843.675
40843.623
40843.558
40843.476
40843.374
40843.245
40843.084
40842.881
40842.626
40842.305
40841.9
40841.387
40840.738
40839.916
40838.871
40837.547
40835.868
40833.746
40831.073
40827.716
40823.517
40818.282
40811.785
40803.752
40793.864
40781.75
40766.981
40749.067
40727.443
40701.465
40670.399
40633.42
40589.616
40537.992
40477.469
40406.882
40325.001
40230.524
40122.06
39998.112
39857.063
39697.137
39516.403
39312.795
39084.092
38827.808
38541.206
38221.245
37864.693
37468.063
37027.758
36538.537
40859.013
40859.013
40859.011
40859.009
40859.005
40859
40858.992
40858.983
40858.971
40858.955
40858.935
40858.91
40858.878
40858.838
40858.788
40858.725
40858.646
40858.547
40858.423
40858.267
40858.07
40857.821
40857.507
40857.109
40856.603
40855.961
40855.146
40854.109
40852.792
40851.122
40849.01
40846.35
40843.01
40838.834
40833.634
40827.181
40819.207
40809.397
40797.381
40782.737
40764.975
40743.535
40717.774
40686.959
40650.271
40606.804
40555.571
40495.495
40425.42
40344.123
40250.312
40142.609
40019.533
39879.48
39720.684
39541.225
39339.049
39111.949
38857.461
38572.854
38255.116
37901.047
37507.2
37070.053
36584.05
40876.31
40876.31
40876.308
40876.305
40876.301
40876.295
40876.288
40876.278
40876.266
40876.251
40876.231
40876.206
40876.175
40876.136
40876.088
40876.026
40875.95
40875.854
40875.733
40875.581
40875.388
40875.144
40874.835
40874.442
40873.942
40873.305
40872.495
40871.463
40870.152
40868.49
40866.388
40863.741
40860.421
40856.272
40851.107
40844.703
40836.794
40827.067
40815.16
40800.65
40783.054
40761.814
40736.288
40705.75
40669.384
40626.294
40575.501
40515.935
40446.447
40365.823
40272.784
40165.966
40043.9
39904.994
39747.495
39569.499
39368.971
39143.719
38891.296
38608.975
38293.786
37942.561
37551.899
37118.369
36636.055
40895.828
40895.826
40895.824
40895.821
40895.817
40895.811
40895.803
40895.794
40895.781
40895.765
40895.745
40895.721
40895.69
40895.651
40895.603
40895.543
40895.467
40895.372
40895.252
40895.102
40894.911
40894.669
40894.362
40893.972
40893.474
40892.84
40892.032
40891.004
40889.698
40888.043
40885.952
40883.32
40880.021
40875.902
40870.777
40864.426
40856.587
40846.952
40835.16
40820.796
40803.377
40782.35
40757.078
40726.838
40690.825
40648.152
40597.849
40538.856
40470.034
40390.183
40298.035
40192.236
40071.329
39933.733
39777.711
39601.379
39402.729
39179.572
38929.484
38649.756
38337.455
37989.451
37602.396
37172.957
36694.825
40917.625
40917.623
40917.621
40917.618
40917.613
40917.607
40917.599
40917.589
40917.576
40917.559
40917.539
40917.514
40917.483
40917.444
40917.395
40917.334
40917.258
40917.163
40917.043
40916.892
40916.7
40916.458
40916.151
40915.76
40915.263
40914.629
40913.822
40912.797
40911.496
40909.849
40907.771
40905.157
40901.883
40897.797
40892.717
40886.425
40878.662
40869.125
40857.458
40843.248
40826.018
40805.217
40780.215
40750.298
40714.67
40672.456
40622.696
40564.342
40496.273
40417.302
40326.169
40221.527
40101.933
39965.818
39811.461
39637.008
39440.467
39219.668
38972.201
38695.385
38386.326
38041.938
37658.926
37234.075
36760.635
40941.755
40941.754
40941.752
40941.748
40941.743
40941.737
40941.728
40941.718
40941.704
40941.688
40941.667
40941.641
40941.609
40941.569
40941.519
40941.457
40941.38
40941.283
40941.161
40941.008
40940.815
40940.571
40940.261
40939.869
40939.37
40938.736
40937.93
40936.908
40935.613
40933.977
40931.915
40929.324
40926.08
40922.032
40917.003
40910.775
40903.096
40893.664
40882.13
40868.084
40851.053
40830.492
40805.779
40776.211
40741.004
40699.295
40650.135
40592.498
40525.276
40447.293
40357.299
40253.959
40135.837
40001.377
39848.881
39676.526
39482.343
39264.179
39019.629
38746.056
38440.606
38100.239
37721.726
37301.977
36833.759
40968.28
40968.278
40968.276
40968.272
40968.267
40968.26
40968.252
40968.241
40968.227
40968.21
40968.188
40968.162
40968.129
40968.088
40968.037
40967.973
40967.894
40967.795
40967.671
40967.516
40967.32
40967.074
40966.762
40966.367
40965.866
40965.232
40964.429
40963.412
40962.126
40960.503
40958.46
40955.895
40952.687
40948.684
40943.711
40937.555
40929.967
40920.651
40909.26
40895.388
40878.569
40858.264
40833.862
40804.672
40769.927
40728.774
40680.284
40623.444
40557.164
40480.282
40391.557
40289.662
40173.172
40040.548
39890.12
39720.094
39528.527
39313.271
39071.948
38801.96
38500.499
38164.578
37791.031
37376.918
36914.467
40997.271
40997.27
40997.267
40997.263
40997.258
40997.252
40997.243
40997.232
40997.218
40997.201
40997.179
40997.152
40997.118
40997.076
40997.025
40996.96
40996.88
40996.779
40996.654
40996.496
40996.299
40996.05
40995.736
40995.34
40994.839
40994.207
40993.407
40992.397
40991.122
40989.515
40987.495
40984.962
40981.791
40977.838
40972.929
40966.854
40959.366
40950.174
40938.935
40925.25
40908.657
40888.627
40864.563
40835.788
40801.549
40761.012
40713.264
40657.307
40592.07
40516.402
40429.073
40328.768
40214.075
40083.473
39935.325
39767.868
39579.176
39367.119
39129.34
38863.291
38566.214
38235.174
37867.079
37459.151
37003.028
41028.827
41028.826
41028.824
41028.82
41028.815
41028.809
41028.8
41028.789
41028.775
41028.758
41028.736
41028.709
41028.675
41028.633
41028.581
41028.516
41028.435
41028.334
41028.208
41028.049
41027.851
41027.602
41027.288
41026.892
41026.393
41025.763
41024.969
41023.967
41022.705
41021.116
41019.121
41016.619
41013.49
41009.593
41004.752
40998.763
40991.383
40982.324
40971.249
40957.764
40941.416
40921.687
40897.992
40869.672
40835.993
40796.137
40749.205
40694.22
40630.126
40555.786
40469.983
40371.414
40258.683
40130.296
39984.649
39820.007
39634.458
39425.892
39191.986
38930.243
38637.955
38312.247
37950.103
37548.927
37099.705
41063.057
41063.056
41063.054
41063.051
41063.046
41063.04
41063.031
41063.021
41063.007
41062.99
41062.968
41062.941
41062.908
41062.866
41062.814
41062.75
41062.669
41062.568
41062.442
41062.285
41062.087
41061.839
41061.526
41061.133
41060.637
41060.012
41059.225
41058.232
41056.983
41055.413
41053.442
41050.973
41047.889
41044.047
41039.28
41033.384
41026.118
41017.203
41006.304
40993.035
40976.953
40957.552
40934.264
40906.448
40873.384
40834.274
40788.237
40734.315
40671.466
40598.568
40514.42
40417.734
40307.135
40181.164
40038.247
39876.666
39694.533
39489.761
39260.066
39003.007
38715.927
38396.014
38040.336
37646.493
37204.759
41100.068
41100.068
41100.066
41100.063
41100.058
41100.052
41100.044
41100.034
41100.021
41100.004
41099.983
41099.957
41099.924
41099.883
41099.832
41099.769
41099.689
41099.59
41099.466
41099.31
41099.115
41098.87
41098.561
41098.172
41097.682
41097.064
41096.286
41095.304
41094.07
41092.518
41090.571
41088.135
41085.095
41081.312
41076.619
41070.819
41063.677
41054.914
41044.203
41031.168
41015.377
40996.338
40973.499
40946.235
40913.845
40875.551
40830.489
40777.72
40716.218
40644.878
40562.515
40467.861
40359.573
40236.225
40096.264
39938.004
39759.562
39558.895
39333.761
39081.773
38800.331
38486.689
38138.006
37752.091
37318.442
41139.954
41139.953
41139.952
41139.949
41139.945
41139.939
41139.932
41139.922
41139.909
41139.893
41139.873
41139.848
41139.816
41139.777
41139.727
41139.665
41139.588
41139.491
41139.369
41139.217
41139.026
41138.786
41138.483
41138.102
41137.62
41137.013
41136.247
41135.281
41134.064
41132.535
41130.616
41128.215
41125.219
41121.495
41116.88
41111.18
41104.165
41095.562
41085.053
41072.272
41056.798
41038.157
41015.811
40989.152
40957.499
40920.091
40876.087
40824.562
40764.509
40694.841
40614.394
40521.927
40416.134
40295.619
40158.853
40004.163
39829.702
39633.46
39413.246
39166.728
38891.367
38584.483
38243.335
37865.956
37440.999
41182.783
41182.782
41182.781
41182.778
41182.775
41182.769
41182.762
41182.753
41182.741
41182.726
41182.707
41182.683
41182.653
41182.615
41182.567
41182.508
41182.433
41182.34
41182.223
41182.076
41181.891
41181.658
41181.365
41180.994
41180.525
41179.933
41179.185
41178.24
41177.049
41175.549
41173.665
41171.307
41168.365
41164.706
41160.172
41154.576
41147.693
41139.259
41128.965
41116.457
41101.33
41083.124
41061.316
41035.318
41004.466
40968.017
40925.15
40874.959
40816.455
40748.572
40670.173
40580.054
40476.949
40359.481
40226.152
40075.294
39905.107
39713.621
39498.696
39258.058
38989.228
38689.602
38356.539
37988.319
37572.664
41228.614
41228.614
41228.613
41228.61
41228.607
41228.602
41228.596
41228.587
41228.576
41228.562
41228.545
41228.522
41228.494
41228.458
41228.413
41228.357
41228.286
41228.198
41228.086
41227.946
41227.77
41227.547
41227.265
41226.908
41226.457
41225.885
41225.161
41224.245
41223.088
41221.629
41219.793
41217.491
41214.615
41211.034
41206.595
41201.114
41194.373
41186.118
41176.054
41163.841
41149.09
41131.355
41110.134
41084.852
41054.864
41019.447
40977.797
40929.027
40872.169
40806.183
40729.97
40642.373
40542.15
40427.953
40298.291
40151.539
39985.928
39799.538
39590.28
39355.941
39094.107
38802.246
38477.828
38119.397
37713.658
41277.504
41277.504
41277.503
41277.501
41277.498
41277.494
41277.488
41277.48
41277.47
41277.457
41277.441
41277.42
41277.394
41277.361
41277.32
41277.268
41277.202
41277.12
41277.015
41276.884
41276.718
41276.507
41276.241
41275.902
41275.472
41274.926
41274.232
41273.352
41272.238
41270.83
41269.056
41266.825
41264.032
41260.55
41256.225
41250.879
41244.301
41236.248
41226.438
41214.546
41200.201
41182.979
41162.389
41137.875
41108.812
41074.494
41034.135
40986.866
40931.748
40867.78
40793.907
40709.014
40611.867
40501.156
40375.405
40233.033
40072.311
39891.367
39688.164
39460.554
39206.188
38922.608
38607.403
38259.404
37864.192
41329.533
41329.532
41329.532
41329.53
41329.527
41329.524
41329.519
41329.512
41329.503
41329.491
41329.476
41329.457
41329.434
41329.404
41329.366
41329.318
41329.257
41329.181
41329.085
41328.963
41328.808
41328.611
41328.36
41328.041
41327.635
41327.117
41326.457
41325.619
41324.554
41323.206
41321.503
41319.358
41316.667
41313.303
41309.117
41303.934
41297.551
41289.732
41280.21
41268.677
41254.78
41238.109
41218.193
41194.498
41166.416
41133.257
41094.25
41048.558
40995.282
40933.467
40862.101
40780.076
40686.214
40579.201
40457.614
40319.91
40164.398
39989.258
39792.509
39572.068
39325.652
39050.877
38745.459
38408.543
38024.464
41384.787
41384.787
41384.787
41384.786
41384.783
41384.78
41384.776
41384.77
41384.762
41384.751
41384.738
41384.721
41384.699
41384.672
41384.637
41384.593
41384.538
41384.468
41384.378
41384.265
41384.121
41383.937
41383.702
41383.403
41383.019
41382.53
41381.905
41381.109
41380.096
41378.812
41377.186
41375.136
41372.557
41369.329
41365.305
41360.315
41354.162
41346.621
41337.433
41326.303
41312.893
41296.815
41277.621
41254.791
41227.735
41195.781
41158.194
41114.176
41062.866
41003.348
40934.642
40855.671
40765.282
40662.2
40545.037
40412.293
40262.322
40093.356
39903.47
39690.647
39452.67
39187.231
38892.178
38567.011
38194.663
41443.368
41443.368
41443.368
41443.367
41443.365
41443.363
41443.359
41443.353
41443.346
41443.336
41443.324
41443.308
41443.288
41443.263
41443.23
41443.189
41443.137
41443.071
41442.987
41442.88
41442.744
41442.57
41442.347
41442.063
41441.699
41441.234
41440.641
41439.885
41438.923
41437.702
41436.157
41434.205
41431.75
41428.672
41424.83
41420.06
41414.169
41406.941
41398.126
41387.442
41374.567
41359.129
41340.695
41318.771
41292.791
41262.115
41226.038
41183.804
41134.584
41077.507
41011.612
40935.879
40849.167
40750.249
40637.78
40510.3
40366.211
40203.801
40021.197
39816.45
39587.411
39331.846
39047.736
38734.996
38374.97
41505.355
41505.355
41505.355
41505.354
41505.352
41505.349
41505.346
41505.34
41505.333
41505.324
41505.312
41505.297
41505.278
41505.253
41505.221
41505.181
41505.13
41505.066
41504.984
41504.88
41504.748
41504.58
41504.365
41504.092
41503.743
41503.298
41502.732
41502.012
41501.098
41499.94
41498.475
41496.626
41494.299
41491.381
41487.735
41483.204
41477.601
41470.717
41462.311
41452.111
41439.807
41425.046
41407.42
41386.462
41361.628
41332.307
41297.84
41257.504
41210.5
41156.002
41093.093
41020.771
40937.949
40843.44
40735.942
40614.04
40476.186
40320.721
40145.832
39949.628
39730.034
39484.887
39212.304
38912.677
38565.571
41570.784
41570.784
41570.784
41570.783
41570.781
41570.779
41570.775
41570.769
41570.762
41570.752
41570.74
41570.724
41570.704
41570.679
41570.647
41570.606
41570.555
41570.49
41570.408
41570.305
41570.174
41570.008
41569.798
41569.531
41569.193
41568.765
41568.222
41567.535
41566.666
41565.569
41564.185
41562.441
41560.247
41557.496
41554.057
41549.777
41544.479
41537.959
41529.985
41520.299
41508.606
41494.571
41477.811
41457.881
41434.266
41406.392
41373.639
41335.308
41290.658
41238.89
41179.126
41110.41
41031.699
40941.852
40839.612
40723.612
40592.356
40444.241
40277.508
40090.33
39880.696
39646.517
39386.046
39100.221
38766.662
41639.642
41639.642
41639.642
41639.641
41639.639
41639.636
41639.631
41639.626
41639.618
41639.608
41639.595
41639.578
41639.557
41639.531
41639.498
41639.456
41639.403
41639.337
41639.254
41639.15
41639.019
41638.854
41638.647
41638.386
41638.057
41637.644
41637.124
41636.469
41635.646
41634.611
41633.309
41631.671
41629.613
41627.033
41623.806
41619.787
41614.805
41608.666
41601.15
41592.009
41580.966
41567.707
41551.871
41533.038
41510.722
41484.389
41453.45
41417.248
41375.087
41326.202
41269.758
41204.848
41130.475
41045.55
40948.865
40839.103
40714.822
40574.473
40416.352
40238.695
40039.553
39816.899
39569.131
39297.8
38978.457
41711.881
41711.881
41711.88
41711.879
41711.877
41711.873
41711.869
41711.863
41711.854
41711.844
41711.83
41711.813
41711.792
41711.765
41711.731
41711.688
41711.635
41711.569
41711.486
41711.382
41711.252
41711.09
41710.888
41710.635
41710.319
41709.923
41709.429
41708.811
41708.036
41707.066
41705.849
41704.321
41702.403
41699.998
41696.989
41693.238
41688.584
41682.841
41675.804
41667.239
41656.888
41644.456
41629.604
41611.935
41591.001
41566.304
41537.287
41503.34
41463.804
41417.958
41365.016
41304.12
41234.323
41154.589
41063.764
40960.589
40843.672
40711.521
40562.487
40394.865
40206.76
39996.201
39761.746
39505.628
39201.175
41787.445
41787.445
41787.444
41787.443
41787.441
41787.437
41787.433
41787.426
41787.418
41787.408
41787.395
41787.378
41787.357
41787.33
41787.297
41787.256
41787.204
41787.14
41787.06
41786.96
41786.836
41786.682
41786.49
41786.251
41785.954
41785.583
41785.122
41784.547
41783.829
41782.931
41781.806
41780.394
41778.621
41776.396
41773.61
41770.134
41765.816
41760.486
41753.95
41745.993
41736.372
41724.815
41711.003
41694.57
41675.102
41652.132
41625.145
41593.576
41556.808
41514.166
41464.914
41408.247
41343.271
41269.006
41184.358
41088.129
40978.982
40855.481
40716.029
40558.976
40382.476
40184.6
39964.096
39723.994
39435.05
41866.305
41866.304
41866.304
41866.302
41866.3
41866.297
41866.293
41866.287
41866.28
41866.27
41866.258
41866.243
41866.223
41866.199
41866.169
41866.131
41866.084
41866.025
41865.952
41865.861
41865.747
41865.607
41865.432
41865.215
41864.945
41864.608
41864.19
41863.668
41863.016
41862.199
41861.172
41859.882
41858.259
41856.219
41853.661
41850.466
41846.496
41841.593
41835.581
41828.26
41819.41
41808.774
41796.06
41780.931
41763.003
41741.852
41717.006
41687.943
41654.088
41614.818
41569.45
41517.232
41457.33
41388.822
41310.679
41221.769
41120.813
41006.434
40877.086
40731.168
40566.876
40382.297
40176.346
39952.91
39680.715
41948.456
41948.455
41948.455
41948.454
41948.452
41948.449
41948.445
41948.44
41948.434
41948.426
41948.415
41948.402
41948.385
41948.365
41948.338
41948.306
41948.265
41948.215
41948.152
41948.073
41947.975
41947.853
41947.702
41947.512
41947.276
41946.981
41946.613
41946.151
41945.571
41944.84
41943.918
41942.754
41941.285
41939.433
41937.109
41934.204
41930.594
41926.137
41920.672
41914.02
41905.976
41896.308
41884.744
41870.982
41854.674
41835.437
41812.841
41786.409
41755.616
41719.89
41678.602
41631.06
41576.491
41514.037
41442.739
41361.534
41269.21
41164.45
41045.759
40911.583
40760.158
40589.526
40398.595
40192.962
39938.374
42033.911
42033.911
42033.91
42033.909
42033.907
42033.905
42033.902
42033.898
42033.893
42033.886
42033.877
42033.866
42033.853
42033.836
42033.814
42033.787
42033.754
42033.712
42033.66
42033.594
42033.513
42033.411
42033.284
42033.124
42032.923
42032.671
42032.354
42031.953
42031.446
42030.802
42029.986
42028.95
42027.638
42025.982
42023.9
42021.297
42018.063
42014.073
42009.181
42003.229
41996.029
41987.371
41977.012
41964.681
41950.072
41932.84
41912.601
41888.927
41861.344
41829.335
41792.327
41749.691
41700.721
41644.629
41580.528
41507.43
41424.199
41329.585
41222.143
41100.372
40962.518
40806.4
40631.197
40444.44
40208.271
42122.666
42122.665
42122.665
42122.664
42122.662
42122.66
42122.658
42122.654
42122.65
42122.644
42122.637
42122.628
42122.616
42122.602
42122.584
42122.561
42122.534
42122.499
42122.455
42122.401
42122.333
42122.248
42122.142
42122.007
42121.838
42121.624
42121.353
42121.008
42120.57
42120.012
42119.3
42118.393
42117.243
42115.79
42113.961
42111.675
42108.836
42105.334
42101.044
42095.823
42089.503
42081.899
42072.799
42061.965
42049.129
42033.993
42016.219
41995.429
41971.205
41943.084
41910.558
41873.061
41829.961
41780.548
41724.009
41659.437
41585.783
41501.873
41406.324
41297.672
41174.091
41033.443
40874.444
40707.601
40491.265
42214.676
42214.676
42214.675
42214.674
42214.673
42214.671
42214.668
42214.665
42214.66
42214.655
42214.648
42214.639
42214.629
42214.616
42214.599
42214.579
42214.553
42214.522
42214.483
42214.435
42214.375
42214.301
42214.208
42214.091
42213.945
42213.762
42213.529
42213.234
42212.859
42212.382
42211.773
42210.997
42210.013
42208.769
42207.205
42205.25
42202.825
42199.835
42196.173
42191.711
42186.308
42179.803
42172.014
42162.74
42151.756
42138.807
42123.603
42105.822
42085.102
42061.042
42033.199
42001.078
41964.126
41921.714
41873.112
41817.506
41753.936
41681.323
41598.355
41503.559
41395.259
41270.953
41128.9
40982.921
40788.223
42309.831
42309.83
42309.829
42309.828
42309.827
42309.824
42309.821
42309.818
42309.813
42309.807
42309.8
42309.791
42309.78
42309.766
42309.749
42309.728
42309.703
42309.672
42309.634
42309.587
42309.53
42309.461
42309.375
42309.27
42309.14
42308.98
42308.78
42308.529
42308.213
42307.813
42307.305
42306.661
42305.845
42304.815
42303.524
42301.913
42299.917
42297.458
42294.444
42290.77
42286.319
42280.956
42274.532
42266.885
42257.83
42247.158
42234.631
42219.981
42202.91
42183.083
42160.125
42133.621
42103.096
42068.011
42027.732
41981.543
41928.586
41867.879
41798.22
41718.245
41626.21
41519.485
41395.63
41271.372
41099.831
42407.962
42407.961
42407.96
42407.958
42407.956
42407.953
42407.95
42407.946
42407.94
42407.934
42407.925
42407.915
42407.903
42407.888
42407.869
42407.847
42407.82
42407.787
42407.748
42407.701
42407.644
42407.576
42407.495
42407.398
42407.281
42407.14
42406.968
42406.758
42406.496
42406.17
42405.759
42405.243
42404.593
42403.78
42402.765
42401.505
42399.95
42398.036
42395.69
42392.831
42389.366
42385.188
42380.186
42374.233
42367.187
42358.883
42349.14
42337.746
42324.469
42309.044
42291.175
42270.528
42246.711
42219.28
42187.708
42151.381
42109.573
42061.452
42005.936
41941.753
41867.253
41779.707
41676.178
41574.499
41426.056
42508.836
42508.835
42508.834
42508.832
42508.83
42508.826
42508.823
42508.818
42508.812
42508.805
42508.796
42508.785
42508.772
42508.757
42508.738
42508.715
42508.687
42508.654
42508.615
42508.569
42508.515
42508.45
42508.375
42508.287
42508.184
42508.063
42507.919
42507.747
42507.537
42507.28
42506.964
42506.574
42506.091
42505.496
42504.763
42503.862
42502.755
42501.398
42499.74
42497.72
42495.272
42492.325
42488.799
42484.607
42479.647
42473.803
42466.947
42458.932
42449.591
42438.736
42426.154
42411.591
42394.754
42375.3
42352.822
42326.835
42296.748
42261.879
42221.364
42174.141
42118.695
42052.369
41972.194
41892.672
41769.043
42612.211
42612.21
42612.208
42612.207
42612.204
42612.201
42612.197
42612.193
42612.187
42612.18
42612.172
42612.161
42612.149
42612.135
42612.118
42612.097
42612.073
42612.044
42612.01
42611.97
42611.923
42611.869
42611.806
42611.733
42611.647
42611.548
42611.431
42611.293
42611.131
42610.938
42610.711
42610.446
42610.133
42609.759
42609.312
42608.773
42608.123
42607.336
42606.382
42605.225
42603.831
42602.16
42600.166
42597.799
42595
42591.703
42587.837
42583.32
42578.057
42571.944
42564.847
42556.609
42547.032
42535.885
42522.889
42507.701
42489.904
42468.997
42444.334
42415.179
42380.347
42337.761
42284.897
42230.891
42137.876
42722.534
42722.533
42722.531
42722.529
42722.526
42722.523
42722.52
42722.516
42722.511
42722.505
42722.498
42722.489
42722.479
42722.468
42722.454
42722.437
42722.418
42722.395
42722.368
42722.336
42722.299
42722.256
42722.205
42722.147
42722.079
42722.001
42721.911
42721.809
42721.694
42721.568
42721.434
42721.296
42721.159
42721.022
42720.883
42720.738
42720.587
42720.424
42720.238
42720.025
42719.783
42719.506
42719.187
42718.814
42718.369
42717.843
42717.228
42716.511
42715.676
42714.7
42713.55
42712.17
42710.473
42708.356
42705.679
42702.272
42697.895
42692.282
42685.043
42675.798
42663.893
42648.201
42628.647
42610.914
42576.989
42838.573
42838.571
42838.569
42838.567
42838.565
42838.563
42838.56
42838.556
42838.552
42838.548
42838.542
42838.536
42838.529
42838.521
42838.511
42838.499
42838.486
42838.469
42838.45
42838.428
42838.401
42838.37
42838.333
42838.291
42838.243
42838.189
42838.13
42838.071
42838.014
42837.97
42837.947
42837.958
42838.018
42838.139
42838.332
42838.616
42839.004
42839.508
42840.143
42840.938
42841.923
42843.132
42844.593
42846.338
42848.404
42850.837
42853.693
42857.034
42860.923
42865.431
42870.622
42876.555
42883.27
42890.803
42899.168
42908.378
42918.404
42929.229
42940.765
42953.027
42965.942
42979.431
42994.672
43014.435
43029.343
42954.386
42954.384
42954.383
42954.381
42954.379
42954.377
42954.375
42954.373
42954.37
42954.368
42954.365
42954.362
42954.359
42954.356
42954.352
42954.348
42954.343
42954.337
42954.33
42954.321
42954.311
42954.298
42954.282
42954.262
42954.241
42954.218
42954.199
42954.188
42954.197
42954.238
42954.33
42954.495
42954.756
42955.134
42955.654
42956.345
42957.241
42958.385
42959.823
42961.613
42963.817
42966.503
42969.738
42973.6
42978.178
42983.576
42989.916
42997.331
43005.969
43015.988
43027.554
43040.842
43056.027
43073.286
43092.794
43114.749
43139.336
43166.794
43197.35
43231.389
43269.285
43311.716
43360.081
43416.07
43478.585
43069.459
43069.458
43069.456
43069.455
43069.454
43069.453
43069.452
43069.451
43069.451
43069.451
43069.451
43069.452
43069.453
43069.456
43069.459
43069.462
43069.467
43069.473
43069.479
43069.485
43069.492
43069.499
43069.506
43069.514
43069.523
43069.537
43069.562
43069.607
43069.688
43069.822
43070.033
43070.351
43070.809
43071.439
43072.278
43073.374
43074.78
43076.562
43078.795
43081.566
43084.973
43089.119
43094.111
43100.075
43107.153
43115.507
43125.321
43136.804
43150.184
43165.71
43183.647
43204.288
43227.943
43254.936
43285.605
43320.329
43359.509
43403.634
43453.229
43509.011
43571.751
43642.634
43723.325
43815.947
43923.323
43183.296
43183.294
43183.293
43183.292
43183.291
43183.291
43183.291
43183.292
43183.294
43183.296
43183.3
43183.305
43183.311
43183.319
43183.329
43183.341
43183.355
43183.371
43183.391
43183.413
43183.437
43183.465
43183.495
43183.53
43183.572
43183.627
43183.7
43183.806
43183.962
43184.193
43184.531
43185.012
43185.674
43186.564
43187.731
43189.238
43191.156
43193.576
43196.6
43200.344
43204.94
43210.527
43217.256
43225.3
43234.856
43246.143
43259.409
43274.935
43293.029
43314.029
43338.306
43366.266
43398.348
43435.026
43476.801
43524.231
43577.932
43638.628
43707.131
43784.469
43871.8
43970.737
44083.344
44212.384
44361.792
43295.482
43295.48
43295.479
43295.479
43295.479
43295.48
43295.481
43295.483
43295.487
43295.492
43295.498
43295.506
43295.516
43295.529
43295.545
43295.564
43295.586
43295.612
43295.643
43295.678
43295.718
43295.764
43295.816
43295.877
43295.951
43296.043
43296.165
43296.333
43296.568
43296.902
43297.372
43298.019
43298.894
43300.051
43301.552
43303.473
43305.908
43308.966
43312.776
43317.484