/*--------------------------------*- C++ -*----------------------------------*\
  =========                 |
  \\      /  F ield         | OpenFOAM: The Open Source CFD Toolbox
   \\    /   O peration     | Website:  https://openfoam.org
    \\  /    A nd           | Version:  13
     \\/     M anipulation  |
\*---------------------------------------------------------------------------*/
FoamFile
{
    format      ascii;
    class       surfaceScalarField;
    location    "3.397293";
    object      phi;
}
// * * * * * * * * * * * * * * * * * * * * * * * * * * * * * * * * * * * * * //

dimensions      [0 3 -1 0 0 0 0];

internalField   nonuniform List<scalar> 
34068
(
-3.4453356e-07
2.4867991e-07
9.5853653e-08
-1.5237788e-06
8.5121187e-07
3.2803333e-07
-3.8036965e-06
1.6457544e-06
6.3416341e-07
-7.5145225e-06
2.6786431e-06
1.0321829e-06
-1.3063689e-05
4.0055237e-06
1.5436424e-06
-2.0950469e-05
5.6925727e-06
2.1942079e-06
-3.17824e-05
7.817768e-06
3.0141623e-06
-4.6293245e-05
1.0471992e-05
4.0388541e-06
-6.5362092e-05
1.3759826e-05
5.3090207e-06
-9.0032821e-05
1.779982e-05
6.8709092e-06
-0.00012153281
2.2723912e-05
8.7760735e-06
-0.00016128924
2.8675717e-05
1.1080719e-05
-0.00021094092
3.5807251e-05
1.384443e-05
-0.00027234289
4.4273791e-05
1.7128171e-05
-0.00034756093
5.4226639e-05
2.0991402e-05
-0.00043885326
6.5803905e-05
2.5488431e-05
-0.00054863736
7.9119976e-05
3.0664126e-05
-0.00067944222
9.4255202e-05
3.6549658e-05
-0.0008338499
0.00011124847
4.3159207e-05
-0.0010144359
0.00013009669
5.0489273e-05
-0.0012237244
0.00015076607
5.8522422e-05
-0.0014641815
0.00017321963
6.7237473e-05
-0.0017382717
0.00019746304
7.6627234e-05
-0.002048601
0.00022360603
8.6723235e-05
-0.0023981389
0.00025191798
9.7619906e-05
-0.0027904598
0.00028283805
0.00010948288
-0.0032298439
0.00031686989
0.00012251419
-0.0037215038
0.00035466868
0.00013699121
-0.0042716931
0.00039695062
0.00015323875
-0.0048877891
0.00044447842
0.00017161752
-0.0055783477
0.00049805468
0.00019250396
-0.0063531547
0.00055854309
0.00021626387
-0.0072232618
0.00062688418
0.00024322295
-0.0082009689
0.00070407122
0.00027363583
-0.0092996747
0.0007910536
0.00030765227
-0.010533489
0.00088854525
0.00034526947
-0.011916464
0.00099671955
0.00038625473
-0.013461262
0.0011147719
0.00043002681
-0.015177092
0.0012403422
0.00047548716
-0.017066666
0.0013687966
0.00052077735
-0.019122148
0.0014925048
0.00056297739
-0.021320647
0.0016006246
0.00059787487
-0.023618192
0.0016781228
0.00061942201
-0.025944003
0.001705496
0.00062031483
-0.028193581
0.0016591276
0.00059045021
-0.030216791
0.0015065378
0.00051667199
-0.031811838
0.0012091585
0.00038588878
-0.032764952
0.00075458555
0.00019852879
-0.032851923
0.00013340892
-4.6438391e-05
-0.031825848
-0.00066946459
-0.00035661071
-0.029366243
-0.0017134672
-0.00074613787
-0.02500143
-0.0031052947
-0.0012595181
-0.018277183
-0.0048358842
-0.001888363
-0.0090982553
-0.0066517
-0.0025272272
0.0021309972
-0.0081782096
-0.003051043
0.014287751
-0.0088917462
-0.0032650074
0.026043705
-0.0086291409
-0.0031268129
0.036332468
-0.0075753257
-0.0027134379
0.044702096
-0.0061785702
-0.0021910574
0.051616075
-0.0051115182
-0.0018024614
0.058279385
-0.0049243732
-0.0017389359
0.065949035
-0.0056579486
-0.0020117017
0.075309698
-0.006888527
-0.0024721359
0.086314981
-0.008082708
-0.002922575
-0.0089781947
0.098541193
-0.0032480175
-3.4212988e-07
5.9080979e-07
-1.5132899e-06
2.0223719e-06
-3.7778366e-06
3.910301e-06
-7.4642805e-06
6.365087e-06
-1.2978137e-05
9.5193799e-06
-2.0816636e-05
1.3531071e-05
-3.1585251e-05
1.8586383e-05
-4.6015844e-05
2.4902585e-05
-6.4986048e-05
3.273003e-05
-8.9539138e-05
4.235291e-05
-0.00012090333
5.4088105e-05
-0.00016050883
6.8281217e-05
-0.00021000065
8.5299066e-05
-0.00027124434
0.00010551748
-0.00034632192
0.00012930422
-0.00043751482
0.00015699681
-0.00054727186
0.00018887702
-0.00067816202
0.00022514536
-0.00083281562
0.00026590206
-0.0010138627
0.00031114374
-0.0012238845
0.00036078792
-0.0014654014
0.00041473657
-0.0017409229
0.00047298453
-0.0020530843
0.00053576737
-0.0024048693
0.00060370296
-0.0027998569
0.00067782572
-0.0032423545
0.00075936749
-0.0037375963
0.0008499105
-0.0042918683
0.00095122257
-0.0049126021
0.0010652123
-0.0056084347
0.0011938872
-0.0063892538
0.0013393622
-0.0072662317
0.0015038621
-0.0082518014
0.0016896409
-0.0093594956
0.0018987478
-0.010603534
0.0021325834
-0.011998006
0.0023911918
-0.013555479
0.0026722447
-0.015284834
0.0029696975
-0.01718815
0.0032721126
-0.019256562
0.003560917
-0.021465459
0.0038095218
-0.023768591
0.0039812541
-0.026092062
0.0040289676
-0.028323017
0.003890082
-0.030304305
0.0034878264
-0.031843598
0.0027484508
-0.032720341
0.0016313287
-0.032696347
0.00010941519
-0.031538694
-0.0018271173
-0.028935521
-0.0043166401
-0.024421707
-0.0076191095
-0.017537882
-0.011719709
-0.0082088907
-0.015980691
0.0031323417
-0.019519442
0.015391988
-0.021151392
0.027336442
-0.020573595
0.037947674
-0.018186558
0.046695582
-0.014926478
0.053862803
-0.012278739
0.060541465
-0.011603035
0.068037751
-0.013154234
0.077174381
-0.016025158
0.088032398
-0.018940725
-0.021200935
0.10025514
-3.2716575e-07
9.1797554e-07
-1.4476841e-06
3.1428902e-06
-3.6153391e-06
6.077956e-06
-7.1458882e-06
9.8956362e-06
-1.2429632e-05
1.4803124e-05
-1.99459e-05
2.1047339e-05
-3.0279397e-05
2.891988e-05
-4.4138373e-05
3.8761561e-05
-6.2374141e-05
5.0965798e-05
-8.6001493e-05
6.5980262e-05
-0.00011621885
8.4305465e-05
-0.00015442683
0.0001064892
-0.00020224303
0.00013311526
-0.00026151061
0.00016478506
-0.00033429749
0.00020209109
-0.00042288308
0.0002455824
-0.0005297299
0.00029572384
-0.00065743907
0.00035285453
-0.00080869196
0.00041715495
-0.00098618565
0.00048863744
-0.0011925767
0.00056717899
-0.0014304557
0.00065261549
-0.0017023791
0.00074490797
-0.0020109859
0.00084437416
-0.0023592129
0.00095192995
-0.0027505558
0.0010691686
-0.0031893263
0.001198138
-0.0036806502
0.0013412344
-0.0042307133
0.0015012857
-0.0048468696
0.0016813686
-0.0055376989
0.0018847165
-0.0063130422
0.0021147055
-0.0071840195
0.0023748394
-0.008162982
0.0026686034
-0.0092633192
0.002999085
-0.010498993
0.0033682567
-0.011883632
0.0037758308
-0.013429008
0.0042176208
-0.015142699
0.0046833893
-0.017024788
0.0051542008
-0.019063554
0.0055996833
-0.021230245
0.0059762125
-0.023473247
0.0062242566
-0.025711306
0.0062670263
-0.027825182
0.0060039578
-0.029656065
0.0053187102
-0.031003516
0.0040959012
-0.03163474
0.0022625527
-0.031331974
-0.00019335111
-0.029890535
-0.0032685554
-0.027037189
-0.0071699861
-0.022326282
-0.012330017
-0.015284485
-0.018761507
-0.0058832635
-0.025381912
0.0053687124
-0.030771418
0.01740808
-0.03319076
0.029144675
-0.03231019
0.039780549
-0.028822431
0.048891369
-0.024037299
0.056553669
-0.019941039
0.063509868
-0.018559233
0.070908588
-0.020552954
0.079682222
-0.024798792
0.090143441
-0.029401944
-0.033176857
0.10211936
-2.9916234e-07
1.2171379e-06
-1.3247306e-06
4.1684585e-06
-3.3104124e-06
8.0636378e-06
-6.5475926e-06
1.3132816e-05
-1.1397313e-05
1.9652844e-05
-1.8304172e-05
2.7954198e-05
-2.7812255e-05
3.8427964e-05
-4.0582951e-05
5.1532256e-05
-5.7414584e-05
6.7797432e-05
-7.9263271e-05
8.7828948e-05
-0.00010726431
0.00011230651
-0.00014275274
0.00014197762
-0.0001872813
0.00017764383
-0.00024263334
0.0002201371
-0.0003108275
0.00027028525
-0.00039411086
0.00032886576
-0.0004949371
0.00039655008
-0.00061592741
0.00047384484
-0.00075981452
0.00056104206
-0.0009293749
0.00065819781
-0.0011273616
0.00076516565
-0.0013564581
0.00088171203
-0.0016192823
0.0010077321
-0.0019184655
0.0011435574
-0.0022568334
0.0012902978
-0.0026377136
0.0014500489
-0.003065342
0.0016257664
-0.0035446117
0.0018205041
-0.0040814384
0.0020381124
-0.0046829431
0.0022828733
-0.00535749
0.0025592634
-0.0061146911
0.0028719066
-0.0069653915
0.0032255398
-0.0079215785
0.0036247904
-0.0089961247
0.0040736312
-0.010202227
0.0045743587
-0.011552363
0.0051259669
-0.013056569
0.0057218268
-0.014719841
0.0063466613
-0.016538578
0.0069729381
-0.018496117
0.0075572217
-0.020557355
0.0080374513
-0.022663348
0.0083302489
-0.024724641
0.0083283202
-0.026616085
0.0078954015
-0.028173517
0.0068761418
-0.029191593
0.0051139775
-0.029439546
0.002510506
-0.028723973
-0.00090892406
-0.026895076
-0.0050974527
-0.023747255
-0.010317808
-0.0188569
-0.017220371
-0.011710891
-0.025907516
-0.0023399149
-0.034752888
0.008654469
-0.041765802
0.020216511
-0.044752802
0.031343535
-0.043437213
0.04148694
-0.038965837
0.050532279
-0.033082638
0.058603567
-0.028012327
0.06611151
-0.026067177
0.07380782
-0.028249264
0.082481943
-0.033472915
0.09259805
-0.039518051
-0.044808126
0.10422932
-2.5828757e-07
1.4754255e-06
-1.1451058e-06
5.0552767e-06
-2.8645542e-06
9.7830862e-06
-5.6719563e-06
1.5940219e-05
-9.8848766e-06
2.3865765e-05
-1.5896104e-05
3.3965425e-05
-2.4188675e-05
4.6720535e-05
-3.535315e-05
6.2696732e-05
-5.0106909e-05
8.2551191e-05
-6.9315511e-05
0.00010703755
-9.4015246e-05
0.00013700624
-0.00012543629
0.00017339867
-0.00016502458
0.00021723211
-0.00021446057
0.0002695731
-0.00027567158
0.00033149626
-0.00035083418
0.00040402836
-0.00044236219
0.00048807809
-0.00055287669
0.00058435934
-0.00068515549
0.00069332087
-0.00084206385
0.00081510618
-0.0010264747
0.00094957647
-0.0012411965
0.0010964338
-0.0014889371
0.0012554728
-0.0017723393
0.0014269596
-0.0020941293
0.0016120879
-0.0024574029
0.0018133224
-0.0028659595
0.002034323
-0.0033244123
0.0022789569
-0.0038383172
0.0025520172
-0.0044143864
0.0028589425
-0.0050605515
0.0032054285
-0.0057859627
0.0035973178
-0.0066009177
0.0040404949
-0.0075167002
0.0045405729
-0.0085452283
0.0051021592
-0.0096983629
0.0057274933
-0.010986682
0.0064142856
-0.01241751
0.0071526555
-0.013992055
0.0079212063
-0.015701645
0.0086825279
-0.017523293
0.0093788693
-0.019414815
0.0099289738
-0.021310531
0.010225965
-0.023116273
0.010134062
-0.024705806
0.0094849342
-0.025913819
0.0080841551
-0.026528687
0.005728845
-0.026314852
0.0022966716
-0.025097503
-0.0021262731
-0.022803479
-0.0073914769
-0.019342776
-0.013778511
-0.01432358
-0.022239568
-0.0071528916
-0.033078204
0.0020747195
-0.043980499
0.012648936
-0.052340019
0.023552118
-0.055655984
0.033849249
-0.053734344
0.043203832
-0.04832042
0.051811909
-0.041690715
0.060001974
-0.036202393
0.068046152
-0.034111354
0.076286033
-0.036489145
0.085179615
-0.042366498
0.095159696
-0.049498132
-0.056144849
0.10649642
-2.0551257e-07
1.680938e-06
-9.1293719e-07
5.7627014e-06
-2.287754e-06
1.1157903e-05
-4.538084e-06
1.8190549e-05
-7.9243906e-06
2.7252071e-05
-1.2771056e-05
3.881209e-05
-1.9480155e-05
5.3429634e-05
-2.8547556e-05
7.1764133e-05
-4.0581703e-05
9.4585338e-05
-5.6324893e-05
0.00012278074
-7.6677035e-05
0.00015735838
-0.00010272134
0.00019944298
-0.00013575092
0.00025026169
-0.0001772943
0.00031111648
-0.00022913747
0.00038333942
-0.00029333821
0.0004682291
-0.00037222807
0.00056696795
-0.00046839583
0.0006805271
-0.00058464739
0.00080957243
-0.00072393905
0.00095439784
-0.00088928665
0.0011149241
-0.0010836643
0.0012908114
-0.0013099188
0.0014817273
-0.0015707409
0.0016877817
-0.0018687336
0.0019100807
-0.0022066317
0.0021512205
-0.0025876631
0.0024153543
-0.0030161594
0.0027074532
-0.0034971152
0.003032973
-0.0040365508
0.0033983782
-0.0046417185
0.0038105962
-0.0053210459
0.0042766452
-0.0060839844
0.0048034333
-0.0069407579
0.0053973464
-0.0079018942
0.0060632956
-0.0089773827
0.0068029817
-0.010175256
0.0076121591
-0.01149941
0.0084768093
-0.012946572
0.009368368
-0.014502587
0.010238543
-0.016138506
0.011014789
-0.017807083
0.01159755
-0.019440392
0.011859275
-0.020947011
0.011640681
-0.022206864
0.010744786
-0.023056483
0.0089337743
-0.02326942
0.0059417822
-0.022582667
0.0016099182
-0.020808274
-0.0039006659
-0.017964745
-0.010235006
-0.014146927
-0.017596329
-0.0090257376
-0.027360757
-0.0019079546
-0.040195987
0.007061336
-0.05294979
0.017074307
-0.062352989
0.027128236
-0.065709913
0.036442103
-0.063048211
0.044912109
-0.056790427
0.052969287
-0.049747892
0.061104361
-0.044337468
0.069545309
-0.042552302
0.078331614
-0.045275449
0.087589894
-0.051624778
0.097616979
-0.059525217
-0.06730737
0.1087795
-1.4265933e-07
1.8235974e-06
-6.3609998e-07
6.256142e-06
-1.5992492e-06
1.2121052e-05
-3.1831618e-06
1.9774461e-05
-5.5789504e-06
2.964786e-05
-9.0275447e-06
4.2260685e-05
-1.3831592e-05
5.8233681e-05
-2.036995e-05
7.8302492e-05
-2.9115146e-05
0.00010333053
-4.0654155e-05
0.00013431975
-5.5712762e-05
0.00017241699
-7.5183581e-05
0.0002189138
-0.00010015702
0.00027523513
-0.00013195459
0.00034291405
-0.0001721617
0.00042354653
-0.00022265672
0.00051872412
-0.00028563062
0.00062994185
-0.00036358963
0.00075848611
-0.00045933217
0.00090531496
-0.00057589186
0.0010709575
-0.00071644184
0.001255474
-0.00088416472
0.0014585343
-0.0010821107
0.0016796733
-0.0013130846
0.0019187555
-0.0015796143
0.0021766103
-0.0018840796
0.0024556859
-0.0022291057
0.0027603804
-0.0026182595
0.003096607
-0.0030559561
0.0034706696
-0.0035473724
0.0038897945
-0.0040987548
0.0043619786
-0.0047174941
0.0048953845
-0.0054118896
0.0054978288
-0.0061907718
0.0061762286
-0.0070629037
0.0069354275
-0.0080360022
0.0077760802
-0.009115182
0.0086913389
-0.010300671
0.0096622987
-0.011584837
0.010652534
-0.012948896
0.011602602
-0.014360119
0.012426012
-0.015770425
0.013007857
-0.017116427
0.013205277
-0.018318084
0.012842338
-0.01926874
0.011695443
-0.019807527
0.0094725615
-0.019678412
0.0058126666
-0.018562207
0.00049371319
-0.016216602
-0.0062462702
-0.012760492
-0.013691116
-0.0085224426
-0.021834378
-0.0032571899
-0.03262601
0.0037559559
-0.047209133
0.012392744
-0.061586578
0.021710088
-0.071670332
0.030743012
-0.074742837
0.03895602
-0.071261219
0.046541525
-0.064375932
0.054097831
-0.057304198
0.062158117
-0.052397754
0.070875387
-0.051269572
0.080089166
-0.054489228
0.089692788
-0.0612284
0.099855358
-0.069687787
-0.078415364
0.11096335
-7.2489764e-08
1.8960871e-06
-3.2661697e-07
6.5102692e-06
-8.2864571e-07
1.2623081e-05
-1.6647882e-06
2.0610604e-05
-2.9469907e-06
3.0930062e-05
-4.8203289e-06
4.4134023e-05
-7.4725013e-06
6.0885853e-05
-1.1145988e-05
8.1975979e-05
-1.6153375e-05
0.00010833792
-2.2896727e-05
0.0001410631
-3.1891592e-05
0.00018141185
-4.3796246e-05
0.00023081845
-5.9446743e-05
0.00029088563
-7.9897082e-05
0.00036336439
-0.00010646371
0.00045011316
-0.00014077069
0.0005530311
-0.0001847906
0.00067396176
-0.00024087244
0.00081456794
-0.00031174447
0.000976187
-0.00040047778
0.0011596908
-0.00051039745
0.0013653937
-0.00064493434
0.0015930712
-0.00080742794
0.0018421669
-0.0010009175
0.0021122451
-0.001227992
0.0024036849
-0.0014907857
0.0027184796
-0.0017912295
0.0030608242
-0.0021316961
0.0034370737
-0.0025158088
0.0038547822
-0.0029479082
0.0043218939
-0.0034330175
0.0048470879
-0.0039770772
0.0054394443
-0.0045868672
0.0061076188
-0.0052695309
0.0068588922
-0.0060318108
0.0076977075
-0.0068789613
0.0086232306
-0.0078131452
0.0096255228
-0.0088312061
0.01068036
-0.0099219937
0.011743321
-0.011063819
0.012744427
-0.01222309
0.013585283
-0.013355086
0.014139853
-0.014406017
0.014256207
-0.015311393
0.013747715
-0.015978978
0.012363027
-0.016245497
0.0097390804
-0.015817429
0.0053845991
-0.014291793
-0.0010319227
-0.011405422
-0.0091326416
-0.007392224
-0.017704314
-0.0027522094
-0.026474393
0.0027098017
-0.038088021
0.0096293204
-0.054128651
0.017873262
-0.069830519
0.026349381
-0.080146452
0.034230198
-0.082623654
0.041296543
-0.078327564
0.048069163
-0.071148552
0.055239824
-0.064474859
0.063267154
-0.060425083
0.072172155
-0.060174573
0.081664962
-0.063982035
0.091521666
-0.071085105
0.10183668
-0.080002805
-0.089558535
0.11297985
1.2139837e-09
1.8948731e-06
-1.0375237e-09
6.5125207e-06
-1.6806515e-08
1.263885e-05
-6.2759684e-08
2.0656557e-05
-1.6540823e-07
3.1032711e-05
-3.6569827e-07
4.4334313e-05
-7.2548889e-07
6.1245644e-05
-1.3364691e-06
8.2586959e-05
-2.3324971e-06
0.00010933395
-3.9062152e-06
0.00014263682
-6.3312485e-06
0.00018383689
-9.9911953e-06
0.0002344784
-1.5416729e-05
0.00029631116
-2.3331339e-05
0.000371279
-3.4706231e-05
0.00046148805
-5.0822091e-05
0.00056914696
-7.3333538e-05
0.00069647321
-0.00010432723
0.00084556163
-0.00014636063
0.0010182204
-0.00020246096
0.0012157912
-0.00027606123
0.001438994
-0.00037085313
0.0016878631
-0.00049055058
0.0019618643
-0.00063858703
0.0022602815
-0.00081781429
0.0025829121
-0.0010303236
0.0029309888
-0.0012775412
0.0033080418
-0.0015606912
0.0037202237
-0.0018816754
0.0041757664
-0.0022436093
0.0046838278
-0.0026504302
0.0052539088
-0.0031065053
0.0058955193
-0.0036167615
0.0066178751
-0.0041863332
0.0074284639
-0.0048197001
0.0083310743
-0.0055195969
0.0093231274
-0.0062854889
0.010391415
-0.0071114687
0.011506339
-0.007984026
0.012615879
-0.0088802856
0.013640687
-0.0097677464
0.014472744
-0.010606263
0.01497837
-0.011350315
0.015000259
-0.011944601
0.014342001
-0.012300271
0.012718697
-0.012243588
0.0096823971
-0.011457861
0.0045988731
-0.0095092838
-0.0029805003
-0.0061663004
-0.012475625
-0.0018153168
-0.022055298
0.0030617601
-0.03135147
0.0086989748
-0.043725236
0.01555801
-0.060987687
0.023322408
-0.077594917
0.030837275
-0.087661318
0.037444657
-0.089231036
0.043416284
-0.084299191
0.049515777
-0.077248046
0.056431191
-0.071390273
0.064458606
-0.068452498
0.073467775
-0.069183743
0.083100942
-0.073615201
0.093111053
-0.081095215
0.10356402
-0.090455773
-0.10078881
0.1147943
7.3729719e-08
1.8211434e-06
3.1994836e-07
6.2663021e-06
7.8503054e-07
1.2173768e-05
1.5225506e-06
1.9919037e-05
2.5928701e-06
2.9962391e-05
4.0617906e-06
4.2865392e-05
5.9977205e-06
5.9309714e-05
8.4667291e-06
8.0117951e-05
1.1524395e-05
0.00010627628
1.5203406e-05
0.00013895781
1.9495005e-05
0.00017954529
2.4322821e-05
0.00022965058
2.9506516e-05
0.00029112747
3.4713411e-05
0.00036607211
3.9396463e-05
0.000456805
4.2718296e-05
0.00056582513
4.3463989e-05
0.00069572752
3.9949184e-05
0.00084907644
2.9938145e-05
0.0010282314
1.0593389e-05
0.0012351359
-2.1512111e-05
0.0014710995
-7.0283455e-05
0.0017366344
-0.00013986167
0.0020314425
-0.00023424876
0.0023546686
-0.00035685148
0.0027055149
-0.00051006769
0.0030842051
-0.00069511008
0.0034930842
-0.00091230056
0.0039374142
-0.0011618465
0.0044253124
-0.0014447075
0.0049666888
-0.0017627825
0.0055719838
-0.0021188914
0.0062516281
-0.0025162599
0.0070152436
-0.0029578414
0.0078700454
-0.0034456812
0.0088189141
-0.003980023
0.0098574692
-0.0045578934
0.010969285
-0.0051712536
0.0121197
-0.005805195
0.01324982
-0.0064365938
0.014272085
-0.0070339922
0.015070142
-0.0075588919
0.015503269
-0.0079657572
0.015407124
-0.0081940113
0.014570255
-0.0081446865
0.012669372
-0.007634902
0.0091726125
-0.006376348
0.0033403191
-0.0039635124
-0.0053933359
-0.00030366819
-0.016135469
0.0040380806
-0.026397046
0.0088905304
-0.036203919
0.014618494
-0.049453199
0.021415547
-0.06778474
0.028572119
-0.084751489
0.034970985
-0.094060184
0.040299565
-0.094559617
0.045313779
-0.089313404
0.050920746
-0.082855013
0.057691862
-0.078161389
0.065717845
-0.076478482
0.074743888
-0.078209786
0.08440548
-0.083276793
0.094489665
-0.0911794
0.10505922
-0.10102533
-0.11212796
0.11639837
1.3978857e-07
1.6813548e-06
6.1312631e-07
5.7929643e-06
1.5191045e-06
1.126779e-05
2.9774272e-06
1.8460714e-05
5.1309575e-06
2.7808861e-05
8.1478673e-06
3.9848483e-05
1.2222929e-05
5.5234652e-05
1.757721e-05
7.4763669e-05
2.4455269e-05
9.9398224e-05
3.3118392e-05
0.00013029468
4.3832133e-05
0.00016883155
5.68456e-05
0.00021663712
7.2359888e-05
0.00027561318
9.0481828e-05
0.00034795017
0.00011116029
0.00043612653
0.00013410167
0.00054288376
0.00015866419
0.00067116499
0.00018373499
0.00082400564
0.00020760017
0.0010043662
0.00022783005
0.0012149061
0.00024121515
0.0014577144
0.00024380263
0.001734047
0.00023108766
0.0020441575
0.00019840237
0.0023873539
0.00014149333
0.0027624239
5.7185643e-05
0.0031685127
-5.6095585e-05
0.0036063654
-0.00019824521
0.0040795638
-0.00036802661
0.0045950938
-0.00056408532
0.0051627475
-0.00078581279
0.0057937113
-0.0010334892
0.0064993045
-0.0013078592
0.0072896136
-0.0016094734
0.0081716597
-0.0019381581
0.0091475987
-0.002291897
0.010211208
-0.0026655325
0.011342921
-0.003049343
0.01250351
-0.0034274957
0.013627973
-0.0037765824
0.014621172
-0.0040646051
0.015358165
-0.0042498783
0.015688542
-0.0042776359
0.015434881
-0.004069869
0.014362489
-0.0035096872
0.01210919
-0.0024250202
0.0080879455
-0.00057926414
0.0014945631
0.0022480733
-0.0082206733
0.0059156963
-0.019803092
0.010018138
-0.030499489
0.014647056
-0.040832837
0.020403285
-0.055209428
0.027084172
-0.074465627
0.033463275
-0.091130593
0.038621523
-0.099218432
0.042765971
-0.098704065
0.047023735
-0.093571168
0.052320173
-0.08815145
0.059014642
-0.084855858
0.067003494
-0.084467334
0.075964649
-0.08717094
0.085575981
-0.092888125
0.095680767
-0.10128419
0.10634232
-0.11168688
-0.12357984
0.1177942
1.9407912e-07
1.4872757e-06
8.5497107e-07
5.1320724e-06
2.1266379e-06
9.9961228e-06
4.1856218e-06
1.640173e-05
7.2465288e-06
2.4747954e-05
1.1567665e-05
3.5527347e-05
1.7456647e-05
4.934567e-05
2.5275243e-05
6.6945073e-05
3.5442649e-05
8.9230819e-05
4.8435857e-05
0.00011730148
6.4785172e-05
0.00015248223
8.5062427e-05
0.00019635986
0.00010985824
0.00025081737
0.00013974415
0.00031806426
0.00017521452
0.00040065616
0.00021660276
0.00050149551
0.00026396759
0.00062380017
0.00031694753
0.0007710257
0.00037458885
0.00094672493
0.0004351633
0.0011543316
0.00049600882
0.0013968689
0.00055344855
0.0016766072
0.00060286438
0.0019947417
0.00063900603
0.0023512122
0.00065658867
0.0027448413
0.00065114255
0.0031739589
0.00061993351
0.0036375744
0.00056261291
0.0041368844
0.00048117101
0.0046765357
0.00037904235
0.0052648762
0.00025984214
0.0059129115
0.00012662327
0.0066325234
-1.8208436e-05
0.0074344453
-0.00017250316
0.0083259544
-0.00033336431
0.0093084599
-0.00049634522
0.010374189
-0.00065406116
0.011500637
-0.00079529559
0.012644745
-0.00090339024
0.013736067
-0.00095426759
0.014672049
-0.00091400107
0.015317898
-0.00073477982
0.015509321
-0.00034857453
0.015048676
0.00033939746
0.013674517
0.0014604805
0.010988107
0.0031643821
0.0063840439
0.0055752755
-0.00091633038
0.0087122038
-0.011357602
0.012225078
-0.023315966
0.015849113
-0.034123524
0.020211864
-0.045195588
0.026017161
-0.061014726
0.03245318
-0.080901646
0.037845962
-0.096523375
0.041717298
-0.10308977
0.044852486
-0.10183925
0.048594076
-0.097312757
0.053727521
-0.093284895
0.060364352
-0.09149269
0.068261621
-0.092364603
0.077094418
-0.096003737
0.086609147
-0.10240285
0.096701485
-0.11137652
0.10743012
-0.12241551
-0.13513323
0.1189835
2.3186866e-07
1.2554071e-06
1.0243917e-06
4.3395493e-06
2.5546042e-06
8.4659104e-06
5.0416217e-06
1.3914713e-05
8.7546599e-06
2.1034916e-05
1.402199e-05
3.0260017e-05
2.1240583e-05
4.2127077e-05
3.088614e-05
5.7299516e-05
4.3522764e-05
7.6594195e-05
5.9811223e-05
0.00010101302
8.0514175e-05
0.00013177928
0.00010649569
0.00017037835
0.00013871182
0.00021860123
0.00017818721
0.00027858887
0.00022597153
0.00035287184
0.00028306839
0.00044439865
0.00035032821
0.00055654035
0.00042829765
0.00069305626
0.00051702282
0.00085799976
0.00061581137
0.001055543
0.00072297742
0.0012897028
0.0008356183
0.0015639664
0.00094950606
0.0018808539
0.0010592078
0.0022415105
0.0011585526
0.0026454965
0.001241512
0.0030909995
0.0013034162
0.0035756703
0.001342204
0.0040980966
0.001359188
0.0046595517
0.0013588253
0.0052652389
0.0013475054
0.0059242314
0.0013321404
0.0066478884
0.0013188724
0.0074477133
0.0013145498
0.0083302771
0.0013248701
0.0092981396
0.0013568629
0.010342196
0.0014212878
0.011436212
0.0015305415
0.012535491
0.0017022415
0.013564367
0.0019616431
0.014412648
0.0023448098
0.014934731
0.0029046839
0.014949447
0.0037182619
0.014235098
0.0048917884
0.01250099
0.0065533841
0.0093265116
0.0088115031
0.0041259249
0.01168701
-0.0037918376
0.014966712
-0.014637304
0.018124967
-0.026474221
0.021218721
-0.037217278
0.025482967
-0.049459834
0.031422204
-0.066953962
0.037361392
-0.086840833
0.041594314
-0.1007563
0.044219559
-0.10571501
0.046599624
-0.10421932
0.050063547
-0.10077668
0.055129085
-0.098350433
0.061689104
-0.098052709
0.069440902
-0.1001164
0.078106516
-0.10466935
0.087502821
-0.11179916
0.097561319
-0.12143502
0.10833125
-0.13318544
-0.1467677
0.11996573
2.500018e-07
1.0054053e-06
1.1071212e-06
3.48243e-06
2.7667107e-06
6.8063209e-06
5.4722666e-06
1.1209157e-05
9.5254353e-06
1.6981747e-05
1.5297549e-05
2.4487903e-05
2.3242771e-05
3.4181854e-05
3.3912627e-05
4.662966e-05
4.7971717e-05
6.2535105e-05
6.6213764e-05
8.277097e-05
8.9576888e-05
0.00010841616
0.00011915608
0.00014079916
0.00015620979
0.00018154752
0.00020215611
0.00023264255
0.00025855207
0.00029647587
0.00032704746
0.00037590326
0.00040930226
0.00047428556
0.00050685488
0.00059550363
0.00062092954
0.0007439251
0.0007521752
0.00092429738
0.00090034183
0.0011415362
0.0010639243
0.0014003839
0.0012398435
0.0017049347
0.0014232844
0.0020580696
0.0016078582
0.0024609227
0.0017862596
0.0029125981
0.0019515078
0.0034104221
0.0020986375
0.0039509669
0.0022263752
0.004531814
0.0023380827
0.0051535313
0.0024414116
0.0058209025
0.0025467372
0.0065425629
0.0026653221
0.0073291284
0.0028081735
0.0081874256
0.0029868494
0.0091194637
0.0032093529
0.010119693
0.0034941441
0.011151421
0.0038523178
0.012177317
0.0043054149
0.01311127
0.0048793265
0.013838736
0.0056107405
0.014203317
0.0065542124
0.014005975
0.0077882983
0.013001012
0.0094156168
0.010873672
0.011543536
0.0071985927
0.014227679
0.0014417819
0.017391667
-0.0069558257
0.020583578
-0.017829214
0.023217882
-0.029108525
0.025957887
-0.039957282
0.030470375
-0.053972322
0.036527701
-0.073011289
0.041656744
-0.091969877
0.044598847
-0.1036984
0.046164536
-0.1072807
0.048090025
-0.10614481
0.05146206
-0.10414872
0.056491952
-0.10338032
0.062934467
-0.10449522
0.070501817
-0.10768375
0.078984433
-0.11315197
0.088254302
-0.12106903
0.098261779
-0.1314425
0.10904677
-0.14397044
-0.15845866
0.12073773
2.4776216e-07
7.5764309e-07
1.0995604e-06
2.6306317e-06
2.7530406e-06
5.1528407e-06
5.4560805e-06
8.5061167e-06
9.5179116e-06
1.2919916e-05
1.532233e-05
1.8683485e-05
2.3343119e-05
2.6161065e-05
3.4161996e-05
3.5810783e-05
4.8488963e-05
4.8208138e-05
6.718496e-05
6.4074973e-05
9.128618e-05
8.4314938e-05
0.00012202893
0.00011005641
0.00016087264
0.00014270381
0.00020951796
0.00018399723
0.00026991382
0.00023608002
0.00034424578
0.0003015713
0.00043489363
0.00038363771
0.00054434358
0.00048605369
0.00067503534
0.00061323334
0.0008291259
0.00077020683
0.0010081545
0.0009625076
0.0012126109
0.0011959275
0.0014414422
0.0014761033
0.0016915906
0.0018079212
0.001957727
0.0021947862
0.0022324205
0.0026379046
0.0025069905
0.0031358521
0.0027731693
0.0036847881
0.0030253809
0.0042796024
0.0032629868
0.0049159254
0.0034915615
0.0055923278
0.0037225794
0.006311545
0.0039722832
0.0070794246
0.0042568971
0.0079028117
0.0045947809
0.0087815799
0.0050023143
0.0097121592
0.0054942463
0.010659489
0.0060858864
0.011585677
0.0068065903
0.012390566
0.0076831347
0.012962192
0.0087515609
0.013134891
0.010063302
0.012694234
0.011689013
0.011375301
0.013713863
0.0088488212
0.016208297
0.0047041585
0.019163542
-0.0015134627
0.022375051
-0.010167335
0.025186889
-0.020641052
0.027281441
-0.031203077
0.030141287
-0.042817129
0.03526841
-0.059099445
0.041172232
-0.07891511
0.045129986
-0.09592763
0.046790443
-0.10535886
0.047651143
-0.1081414
0.049407462
-0.10790113
0.052793385
-0.10753464
0.057769647
-0.10835659
0.064053998
-0.11077958
0.07141893
-0.11504868
0.079717875
-0.12145091
0.088857622
-0.13020878
0.098797231
-0.14138211
0.1095717
-0.15474491
-0.17018048
0.12129353
2.2730982e-07
5.3033327e-07
1.0108911e-06
1.8470505e-06
2.5356713e-06
3.6280605e-06
5.0348934e-06
6.0068946e-06
8.8014181e-06
9.1533914e-06
1.4201347e-05
1.3283556e-05
2.1690431e-05
1.867198e-05
3.1833605e-05
2.566761e-05
4.5328043e-05
3.47137e-05
6.3030074e-05
4.6372942e-05
8.5985965e-05
6.1359047e-05
0.00011546634
8.0576035e-05
0.00015300334
0.00010516681
0.00020042836
0.00013657221
0.0002599069
0.00017660148
0.00033396412
0.00022751408
0.00042549143
0.0002921104
0.00053771919
0.00037382593
0.00067413554
0.00047681698
0.00083832405
0.00060601831
0.0010336909
0.00076714078
0.0012630538
0.00096656464
0.0015280848
0.0012110723
0.0018286406
0.0015073654
0.002162092
0.0018613349
0.002522871
0.0022771256
0.0029025637
0.0027561594
0.0032909052
0.0032964466
0.0036778782
0.0038926294
0.0040566823
0.0045371214
0.0044267429
0.0052222672
0.0047955679
0.0059427199
0.0051783353
0.0066966572
0.0055957257
0.0074854214
0.0060702877
0.0083070179
0.0066357529
0.009146694
0.0073124901
0.0099827514
0.0081234385
0.010774729
0.0090872928
0.011426712
0.010235626
0.011813858
0.011606077
0.01176444
0.013243823
0.011056488
0.0152033
0.0094158245
0.017538623
0.0065134977
0.020265091
0.0019776912
0.023299068
-0.0045474404
0.02627032
-0.013138587
0.028496271
-0.022867004
0.030393451
-0.033100257
0.034065003
-0.04648868
0.039869425
-0.064903867
0.045095076
-0.084140761
0.047637585
-0.09847014
0.048262744
-0.10598402
0.048794073
-0.10867273
0.050596692
-0.10970374
0.054026445
-0.11096439
0.058912392
-0.11324253
0.065014962
-0.11688215
0.072177411
-0.12221113
0.080297807
-0.12957131
0.089302578
-0.13921355
0.099156772
-0.1512363
0.10989609
-0.16548423
-0.18190773
0.12162334
1.9348332e-07
3.3684995e-07
8.62231e-07
1.1783028e-06
2.1667124e-06
2.3235791e-06
4.3104276e-06
3.8631794e-06
7.5504331e-06
5.9133858e-06
1.2210276e-05
8.6237135e-06
1.8695813e-05
1.2186443e-05
2.7514505e-05
1.6848918e-05
3.9298829e-05
2.2929377e-05
5.4834436e-05
3.0837335e-05
7.5093797e-05
4.1099686e-05
0.0001012758
5.4394032e-05
0.00013485165
7.1590957e-05
0.00017761665
9.3807208e-05
0.00023174646
0.00012247167
0.00029985458
0.00015940596
0.0003850447
0.00020692028
0.00049094731
0.00026792332
0.00062172301
0.00034604128
0.00078200708
0.00044573425
0.00097675929
0.00057238857
0.0012109752
0.00073234877
0.0014892132
0.00093283427
0.0018149093
0.0011816693
0.0021894998
0.0014867444
0.002611473
0.0018551524
0.0030756182
0.0022920142
0.0035729022
0.0027991626
0.0040914762
0.0033740554