/*--------------------------------*- C++ -*----------------------------------*\
  =========                 |
  \\      /  F ield         | OpenFOAM: The Open Source CFD Toolbox
   \\    /   O peration     | Website:  https://openfoam.org
    \\  /    A nd           | Version:  13
     \\/     M anipulation  |
\*---------------------------------------------------------------------------*/
FoamFile
{
    format      ascii;
    class       volSymmTensorField;
    location    "3.397293";
    object      UPrime2Mean;
}
// * * * * * * * * * * * * * * * * * * * * * * * * * * * * * * * * * * * * * //

dimensions      [0 2 -2 0 0 0 0];

internalField   nonuniform List<symmTensor> 
17140
(
(3.7968122e-12 -1.5735576e-10 -1.6382605e-26 6.8447817e-09 2.8379045e-25 8.8243206e-40)
(5.7897496e-10 -6.0988198e-09 -8.1040864e-27 6.4528798e-08 6.1869225e-26 7.5702248e-42)
(5.1458768e-09 -3.1578886e-08 1.3749344e-24 1.9444502e-07 -6.5747602e-24 3.2988738e-38)
(2.4011465e-08 -9.9647403e-08 -3.0116947e-24 4.1481864e-07 1.016754e-23 3.9848926e-38)
(7.9834788e-08 -2.436976e-07 6.1266629e-25 7.461783e-07 -1.5666947e-24 5.4426564e-40)
(2.1776385e-07 -5.1274585e-07 -3.2167625e-24 1.2111135e-06 6.4999438e-24 5.8253803e-39)
(5.2134066e-07 -9.7612991e-07 -8.238918e-24 1.8337103e-06 1.3493001e-23 1.6495996e-38)
(1.1372314e-06 -1.7292271e-06 5.8914186e-24 2.638748e-06 -7.9536176e-24 3.9272339e-39)
(2.3130308e-06 -2.9001443e-06 2.7450204e-23 3.6504049e-06 -3.0923405e-23 4.2015759e-38)
(4.4535934e-06 -4.6569505e-06 9.3723754e-23 4.8905076e-06 -8.8907458e-23 2.5233269e-37)
(8.2030006e-06 -7.2148565e-06 -1.9001982e-22 6.3762212e-06 1.5284024e-22 5.5367569e-37)
(1.45611e-05 -1.0842445e-05 2.28141e-22 8.1172214e-06 -1.5642026e-22 4.385984e-37)
(2.5045087e-05 -1.5865597e-05 4.6464092e-23 1.0112473e-05 -2.7265464e-23 1.0243008e-38)
(4.1907532e-05 -2.266734e-05 -3.4589167e-22 1.2346898e-05 1.7424149e-22 3.2639413e-37)
(6.8422123e-05 -3.1681665e-05 5.0074492e-23 1.4788396e-05 -2.1701826e-23 4.0050915e-39)
(0.00010924637 -4.3379588e-05 -5.1270892e-22 1.7385993e-05 1.9145197e-22 2.499251e-37)
(0.0001708656 -5.8246576e-05 2.4458781e-23 2.0069993e-05 -7.8761913e-24 3.4390063e-40)
(0.00026211735 -7.6752769e-05 -6.9713965e-24 2.2755067e-05 1.9369907e-24 1.7088844e-41)
(0.00039478949 -9.9321015e-05 -6.2326305e-22 2.5347134e-05 1.494046e-22 8.5197672e-38)
(0.00058428442 -0.00012630198 1.010127e-21 2.7754091e-05 -2.0888498e-22 1.4141783e-37)
(0.00085036045 -0.00015797027 -6.0243732e-22 2.9899276e-05 1.074342e-22 3.2289679e-38)
(0.0012179926 -0.00019455649 1.4089413e-22 3.1735455e-05 -2.1659463e-23 1.1542199e-39)
(0.0017184828 -0.00023632587 1.2594312e-21 3.3255393e-05 -1.6683911e-22 6.1292534e-38)
(0.0023911831 -0.00028370416 -1.5063896e-21 3.4494651e-05 1.7189668e-22 5.9425973e-38)
(0.0032855547 -0.00033739709 -2.8451042e-21 3.5525484e-05 2.7956953e-22 1.4656188e-37)
(0.0044630578 -0.00039842212 2.6833209e-21 3.6437927e-05 -2.2697921e-22 9.2013527e-38)
(0.006005165 -0.0004681527 1.5315914e-20 3.7303593e-05 -1.1144462e-21 2.1578407e-36)
(0.0080169678 -0.0005481814 2.0786442e-21 3.8173934e-05 -1.299366e-22 2.9149546e-38)
(0.010630022 -0.00064002559 -2.0849849e-20 3.9067896e-05 1.1171554e-21 2.1922582e-36)
(0.01401524 -0.00074502693 -5.5357126e-21 3.9964552e-05 2.5335138e-22 1.1732905e-37)
(0.018386564 -0.00086404511 -2.2294184e-20 4.0815525e-05 8.6736283e-22 1.4682308e-36)
(0.024009821 -0.00099726473 3.2944717e-20 4.1553054e-05 -1.0829404e-21 2.5093083e-36)
(0.031209268 -0.0011440115 -9.5916367e-21 4.2103453e-05 2.6437047e-22 1.6863889e-37)
(0.040373309 -0.0013024235 -5.0942376e-21 4.2386506e-05 1.1656225e-22 3.824541e-38)
(0.051957232 -0.0014691619 -5.5426012e-20 4.2322821e-05 1.0395822e-21 3.6823484e-36)
(0.066480358 -0.0016388715 2.6775037e-20 4.183014e-05 -4.0429188e-22 7.0853184e-37)
(0.084512517 -0.0018033159 -4.4194879e-20 4.0815551e-05 5.2383615e-22 1.6103243e-36)
(0.10664283 -0.0019502372 -3.2565739e-20 3.9175086e-05 2.9123655e-22 7.3898741e-37)
(0.13341824 -0.0020619082 -1.613077e-20 3.6805848e-05 1.0179532e-22 1.5525029e-37)
(0.16523761 -0.0021127904 5.2477677e-20 3.3609557e-05 -2.0403659e-22 1.4279982e-36)
(0.20218538 -0.0020686535 1.054548e-19 2.9586197e-05 -1.713864e-22 5.0855795e-36)
(0.24377875 -0.0018866063 1.0091064e-19 2.4942127e-05 5.4738277e-23 4.1790766e-36)
(0.28866762 -0.0015202646 4.5948717e-20 2.0277481e-05 1.2256999e-22 7.9325565e-37)
(0.33441955 -0.00092661128 -2.3038758e-19 1.6688289e-05 -1.1036353e-21 1.8668329e-35)
(0.37719465 -9.0958096e-05 -1.7099523e-19 1.5918754e-05 -1.1878957e-21 9.8945064e-36)
(0.4118544 0.00092957692 4.192789e-20 2.0013148e-05 3.8218914e-22 5.9101064e-37)
(0.43385487 0.0021263111 -2.7918056e-19 2.9540347e-05 -3.177164e-21 2.6956857e-35)
(0.43506696 0.0033250942 -9.0739484e-20 4.4714037e-05 -1.2437811e-21 3.0631054e-36)
(0.41705796 0.0042958093 8.6524607e-20 6.3307154e-05 1.3835692e-21 3.1278613e-36)
(0.3777375 0.0049485696 1.9331091e-19 8.2052827e-05 3.5399161e-21 1.8416478e-35)
(0.32146975 0.0051768882 -1.0588855e-19 9.7345321e-05 -2.1875975e-21 6.8571505e-36)
(0.25377232 0.0049589134 -5.7866648e-20 0.00010628341 -1.3344048e-21 2.6820662e-36)
(0.18303803 0.0042884743 1.2729792e-19 0.00010536983 3.2337083e-21 1.7896645e-35)
(0.11924094 0.0032716125 4.954366e-20 9.1966685e-05 1.3596948e-21 3.9231561e-36)
(0.070232959 0.0021606198 2.8610294e-20 6.8092936e-05 8.2668678e-22 1.9567243e-36)
(0.038767149 0.0012329905 -1.8135856e-20 4.1241433e-05 -5.3578247e-22 1.1870884e-36)
(0.021645546 0.00063596931 3.9785562e-20 2.050517e-05 1.1777271e-21 8.4990525e-36)
(0.013308345 0.00032560763 2.7450746e-20 8.8637882e-06 8.1210413e-22 5.8403476e-36)
(0.0092596516 0.00018618175 5.7646923e-21 4.0941484e-06 1.7449171e-22 3.6159897e-37)
(0.0069629012 0.00012473953 -1.2509465e-20 2.5726568e-06 -4.0324095e-22 2.3755852e-36)
(0.0052983472 9.3327931e-05 -8.1377215e-21 1.9922121e-06 -2.9327767e-22 1.4428515e-36)
(0.0038927327 7.2220012e-05 -2.434491e-20 1.6466981e-06 -1.0174909e-21 1.9626755e-35)
(0.0026810805 5.0913018e-05 -2.7654815e-21 1.2639555e-06 -1.3934127e-22 4.2045717e-37)
(0.0018325138 3.1568474e-05 1.6771329e-20 8.4700604e-07 1.0808903e-21 2.9685724e-35)
(0.0012984139 1.5751149e-05 -8.1351171e-21 4.4350707e-07 -8.1881479e-22 1.7736918e-35)
(3.5788337e-10 -8.3509472e-09 2.2676735e-26 1.9498881e-07 -4.5651361e-25 7.146249e-41)
(5.7454593e-09 -1.0277068e-07 -7.5359565e-24 1.8389399e-06 1.2098359e-22 9.0836647e-37)
(2.5901048e-08 -3.7886778e-07 1.3124178e-23 5.5437364e-06 -1.7234498e-22 7.1903915e-37)
(8.0767912e-08 -9.775951e-07 -6.0226123e-24 1.1836381e-05 6.5753335e-23 5.3412424e-38)
(2.0645674e-07 -2.0974712e-06 -1.9353894e-23 2.1315849e-05 1.7849609e-22 2.2779318e-37)
(4.6710429e-07 -4.0222184e-06 5.4785955e-23 3.4646604e-05 -4.3186382e-22 8.3107489e-37)
(9.721033e-07 -7.1458161e-06 -8.1798325e-23 5.2546518e-05 5.553059e-22 9.0222294e-37)
(1.9022724e-06 -1.2002922e-05 1.0056833e-23 7.5765611e-05 -5.910791e-23 6.9801299e-39)
(3.5490756e-06 -1.9304611e-05 -4.302161e-23 0.0001050528 2.1976445e-22 6.7936821e-38)
(6.3720863e-06 -2.9977425e-05 -9.81629e-25 0.00014110837 4.3713078e-24 1.9374639e-41)
(1.108143e-05 -4.5202805e-05 -2.5818533e-22 0.00018452055 1.004539e-21 7.5422974e-37)
(1.8753637e-05 -6.6452466e-05 5.4075001e-22 0.00023568609 -1.8415713e-21 1.8989035e-36)
(3.0990906e-05 -9.5513236e-05 5.8332597e-23 0.00029471772 -1.7411153e-22 1.2907709e-38)
(5.0134627e-05 -0.00013449257 -7.4580199e-22 0.00036134565 1.9527423e-21 1.2516542e-36)
(7.9543915e-05 -0.00018579473 2.9446715e-22 0.00043482612 -6.7666697e-22 1.1736067e-37)
(0.0001239482 -0.00025205868 2.3867426e-22 0.00051387673 -4.8141516e-22 4.6964846e-38)
(0.00018987948 -0.00033605354 -1.9187599e-21 0.0005966649 3.3965339e-21 1.871437e-36)
(0.00028618458 -0.00044053798 7.8639769e-21 0.00068087903 -1.2211604e-20 1.961955e-35)
(0.00042461336 -0.00056810747 -6.1476266e-21 0.00076390701 8.3692619e-21 7.5770584e-36)
(0.0006204807 -0.00072107767 9.1223629e-21 0.00084313213 -1.08799e-20 1.0683359e-35)
(0.00089341482 -0.00090147564 -1.6548527e-20 0.00091632563 1.72781e-20 2.2837515e-35)
(0.0012682358 -0.0011112173 4.9368811e-21 0.00098207171 -4.5093933e-21 1.3410104e-36)
(0.0017760888 -0.0013525351 2.4517325e-21 0.0010401204 -1.9580978e-21 2.2191477e-37)
(0.0024561775 -0.0016286869 -9.5662099e-21 0.0010915483 6.6777515e-21 2.3071964e-36)
(0.0033579393 -0.0019446609 4.0660549e-20 0.0011386309 -2.4803461e-20 2.9012461e-35)
(0.004542636 -0.0023073214 7.1018624e-21 0.0011843337 -3.7858483e-21 6.2774867e-37)
(0.0060915369 -0.0027260987 -4.2684756e-20 0.0012312833 1.9882649e-20 1.6411249e-35)
(0.008109579 -0.0032123171 5.5068532e-20 0.0012816501 -2.2405051e-20 2.012179e-35)
(0.010727455 -0.0037775895 -8.6499047e-21 0.001336693 3.0715826e-21 3.7246155e-37)
(0.014114966 -0.0044339724 -9.6148522e-20 0.0013965483 2.9755979e-20 3.5012213e-35)
(0.018484373 -0.0051923394 1.1252589e-20 0.0014604677 -3.029494e-21 3.7108208e-37)
(0.024099118 -0.00606171 9.6831687e-20 0.0015270117 -2.2630412e-20 2.1530714e-35)
(0.031280448 -0.0070483019 2.7307346e-21 0.0015942589 -5.5283992e-22 1.3534371e-38)
(0.040413138 -0.0081542403 -8.9758095e-20 0.0016598307 1.5685376e-20 1.1834532e-35)
(0.05194815 -0.0093755812 1.1088221e-19 0.0017207726 -1.6676243e-20 1.4723563e-35)
(0.066400299 -0.010699327 -5.50103e-20 0.0017733078 7.090666e-21 2.990217e-36)
(0.084334688 -0.01209859 7.0925653e-20 0.0018124525 -7.788723e-21 4.156738e-36)
(0.10633532 -0.013525298 2.4580085e-19 0.0018315544 -2.2815366e-20 4.2230037e-35)
(0.13294445 -0.014900102 5.9621485e-20 0.0018219823 -4.621653e-21 2.1290348e-36)
(0.16455568 -0.016099451 2.5048484e-19 0.0017732416 -1.5910199e-20 3.2678673e-35)
(0.20124508 -0.016943294 -3.4197659e-19 0.0016744044 1.7270827e-20 5.3790481e-35)
(0.24251596 -0.017190406 -3.3242843e-19 0.0015178221 1.2691721e-20 4.5630643e-35)
(0.28699582 -0.016553162 -5.9456302e-20 0.0013049728 1.5614869e-21 1.3357613e-36)
(0.33217641 -0.014738913 4.9000925e-19 0.0010524206 -7.0317185e-21 8.5176765e-35)
(0.37410852 -0.01153469 -2.3559255e-19 0.00079778953 5.8569694e-22 1.896137e-35)
(0.40770329 -0.006936026 -8.1544873e-20 0.00059794834 -7.7597239e-22 2.2608152e-36)
(0.42736417 -0.0010743265 4.2752951e-20 0.0004979554 9.3512998e-22 6.4289836e-37)
(0.42855801 0.005137104 1.2784491e-19 0.0005587091 4.345823e-21 6.1819848e-36)
(0.4090165 0.010777638 -5.8497784e-20 0.00076992039 -2.6807742e-21 1.4596657e-36)
(0.36899144 0.015336278 9.6782121e-20 0.0010721836 5.5756315e-21 4.7259403e-36)
(0.31242104 0.018080762 5.179694e-19 0.0013972806 3.5827506e-20 1.6864173e-34)
(0.24510886 0.018738417 2.1420071e-20 0.0016689939 1.7245936e-21 3.7879594e-37)
(0.17534156 0.017091484 -8.1208588e-20 0.0017916236 -7.3788672e-21 7.5635667e-36)
(0.11300423 0.013465959 1.4859018e-19 0.0016666208 1.4660262e-20 3.6822043e-35)
(0.065642469 0.009020041 -1.0263237e-19 0.0012905034 -1.048676e-20 2.6397358e-35)
(0.035566037 0.0051005953 2.3451343e-19 0.00079486988 2.3490259e-20 2.0896664e-34)
(0.019415602 0.0025225879 5.4306488e-20 0.00038447395 5.0955962e-21 1.672561e-35)
(0.011720088 0.0011893667 -1.2618414e-19 0.00014830452 -1.0865863e-20 1.3057738e-34)
(0.008113778 0.000621173 1.7970863e-20 5.7096151e-05 1.4596125e-21 3.7135676e-36)
(0.0061482335 0.00039890852 1.7312022e-20 3.4791942e-05 1.4247318e-21 4.7815397e-36)
(0.0047632371 0.00030535246 2.9017284e-21 2.8864059e-05 2.6304419e-22 1.9088258e-37)
(0.0035958375 0.00025400621 -3.1387025e-20 2.5565908e-05 -3.2997959e-21 3.3524125e-35)
(0.0025571732 0.00019446916 4.7717257e-20 2.1745474e-05 6.0412582e-21 1.2702495e-34)
(0.0018001782 0.00012839177 1.0386207e-20 1.6427714e-05 1.6553674e-21 1.1380372e-35)
(0.001296326 6.6994625e-05 1.1059595e-20 9.8343191e-06 2.6804832e-21 3.1425425e-35)
(3.072346e-09 -4.3862594e-08 3.3736025e-24 6.2625559e-07 -4.5671543e-23 2.172096e-37)
(3.4916442e-08 -4.5417846e-07 -5.3331196e-24 5.9081252e-06 6.6254299e-23 8.2981536e-38)
(1.2410048e-07 -1.486933e-06 -2.4768659e-24 1.7817313e-05 2.8177706e-23 5.8670949e-39)
(3.1497265e-07 -3.4621352e-06 3.5918008e-24 3.8058794e-05 -3.736708e-23 5.2724478e-39)
(6.7635512e-07 -6.8100204e-06 -2.4995677e-23 6.8575491e-05 2.378797e-22 1.2374066e-37)
(1.3166023e-06 -1.2117032e-05 -2.5731041e-24 0.00011152982 2.2397529e-23 6.8359219e-40)
(2.4032904e-06 -2.0167942e-05 -4.4403071e-23 0.00016926831 3.5308004e-22 1.1151897e-37)
(4.1919049e-06 -3.1996065e-05 -6.347722e-23 0.00024425667 4.6028755e-22 1.2931356e-37)
(7.0673916e-06 -4.8941649e-05 6.7925076e-22 0.00033897722 -4.4825316e-21 8.6260611e-36)
(1.160314e-05 -7.2714895e-05 -7.8594667e-22 0.0004557803 4.7104598e-21 6.8645888e-36)
(1.8643383e-05 -0.00010545882 4.8347238e-22 0.00059668403 -2.6260816e-21 1.5686165e-36)
(2.9416545e-05 -0.00014980485 9.0456492e-22 0.0007631212 -4.4435654e-21 3.3583171e-36)
(4.56883e-05 -0.00020891042 -2.2775434e-21 0.00095564085 1.0097109e-20 1.315999e-35)
(6.9964338e-05 -0.00028646537 -3.5616862e-22 0.0011735858 1.4219897e-21 2.0074091e-37)
(0.00010575254 -0.00038665083 1.7291517e-21 0.0014147857 -6.2034784e-21 2.975913e-36)
(0.00015789382 -0.00051403716 1.4877797e-21 0.001675328 -4.7855585e-21 1.3963218e-36)
(0.00023296853 -0.00067341517 -2.1490411e-21 0.0019494905 6.1835716e-21 1.8609048e-36)
(0.00033978305 -0.00086957282 9.6407362e-21 0.0022299334 -2.4757206e-20 2.4116145e-35)
(0.00048993715 -0.0011070558 -7.0218652e-21 0.0025082362 1.6056022e-20 8.3126429e-36)
(0.00069847905 -0.0013899942 4.2523023e-21 0.0027758228 -8.6381915e-21 2.0004689e-36)
(0.00098466705 -0.0017221127 -1.7437414e-20 0.0030252199 3.1402118e-20 2.233152e-35)
(0.0013728844 -0.0021070565 -5.4733232e-21 0.0032514603 8.720465e-21 1.4794369e-36)
(0.0018938106 -0.002549134 1.366515e-20 0.0034532994 -1.9228185e-20 6.2922592e-36)
(0.0025861658 -0.0030545379 -2.4398392e-20 0.0036338337 3.027186e-20 1.3901953e-35)
(0.0034991494 -0.0036327085 -1.1297449e-20 0.0038001919 1.2343216e-20 2.1003922e-36)
(0.0046933428 -0.004296301 1.5816836e-20 0.0039621065 -1.5202119e-20 2.955414e-36)
(0.0062493006 -0.0050630018 1.0383497e-19 0.0041287962 -8.7701769e-20 9.2975097e-35)
(0.0082712941 -0.0059536197 5.3907161e-20 0.0043072685 -3.9966333e-20 1.8607663e-35)
(0.01088776 -0.0069894907 -3.0661443e-20 0.0045021653 1.9927807e-20 4.5469031e-36)
(0.014265698 -0.0081932975 3.719538e-20 0.0047146395 -2.1155966e-20 5.1217631e-36)
(0.018613222 -0.009585748 -2.6207881e-20 0.0049427832 1.3020476e-20 1.980561e-36)
(0.024188175 -0.011184645 -1.6655497e-19 0.0051824012 7.2132428e-20 6.2964819e-35)
(0.031304514 -0.013003156 6.2292111e-20 0.0054275586 -2.3464294e-20 7.0311169e-36)
(0.04033813 -0.015047736 2.0684367e-19 0.0056707537 -6.7602484e-20 6.2636515e-35)
(0.051729727 -0.017314488 -7.6409859e-20 0.0059023394 2.1601657e-20 6.9992645e-36)
(0.065982289 -0.019783702 -1.179732e-19 0.0061096538 2.8750448e-20 1.3803683e-35)
(0.083648267 -0.022411061 2.2425616e-19 0.0062756107 -4.687445e-20 4.1791162e-35)
(0.10529869 -0.025114087 7.4703153e-20 0.0063769424 -1.3300158e-20 3.931191e-36)
(0.13146183 -0.027752819 -1.4413013e-19 0.0063827501 2.1620988e-20 1.2583007e-35)
(0.16251517 -0.030105384 -6.2276186e-20 0.0062546877 7.7464345e-21 2.0469535e-36)
(0.19851092 -0.031843131 3.2016568e-19 0.0059511208 -3.2200889e-20 4.7812877e-35)
(0.23891258 -0.032519193 -9.6107287e-20 0.0054393473 7.4744073e-21 3.881316e-36)
(0.28228253 -0.031592558 -1.459272e-19 0.0047157242 8.1422021e-21 8.2080406e-36)
(0.32598344 -0.028506382 -4.0354569e-19 0.0038289453 1.3705087e-20 5.8947678e-35)
(0.36594917 -0.022849651 7.8294057e-19 0.0029016401 -9.331962e-21 2.1448395e-34)
(0.39695815 -0.014606875 -5.0810947e-19 0.0021280214 -5.2637225e-21 9.0228379e-35)
(0.41369517 -0.0042969284 -1.2588671e-19 0.0017050863 -4.1392436e-21 5.7489679e-36)
(0.41196617 0.0067741858 -4.7882011e-19 0.0017864025 -2.655528e-20 9.0114275e-35)
(0.38958331 0.01701509 -5.3801853e-19 0.0023641417 -4.1805373e-20 1.2927787e-34)
(0.34801175 0.025103901 -2.4890083e-20 0.0032705183 -2.4783406e-21 3.3164197e-37)
(0.29151666 0.030029068 9.3962555e-20 0.0042774923 1.139408e-20 5.9129227e-36)
(0.22595515 0.031284409 -5.9861589e-19 0.005138326 -8.5271358e-20 3.1740327e-34)
(0.1592375 0.028524876 -2.1459662e-19 0.0055465765 -3.4712629e-20 5.7098621e-35)
(0.1007947 0.022348638 -1.8099069e-19 0.0051773788 -3.185521e-20 5.956595e-35)
(0.057395781 0.014840353 -4.8065613e-20 0.0040182337 -8.742169e-21 6.343273e-36)
(0.030397033 0.0082892187 -2.9904725e-19 0.002481398 -5.2899726e-20 3.7376458e-34)
(0.016170925 0.0040153138 9.648372e-20 0.0012002108 1.5768228e-20 5.8126817e-35)
(0.009520393 0.0018186716 -2.4251692e-20 0.00045234584 -3.5629995e-21 5.3101078e-36)
(0.0064992388 0.00089963938 -1.6708891e-19 0.00015910793 -2.2585872e-20 3.5331296e-34)
(0.0049342339 0.00055904445 -5.6275333e-20 9.0934143e-05 -7.5569465e-21 5.5348111e-35)
(0.0038931008 0.00042591461 5.6371009e-20 7.6281798e-05 8.2750555e-21 7.8068376e-35)
(0.003048477 0.00036234852 1.5939662e-19 6.7546714e-05 2.7153476e-20 9.2128165e-34)
(0.0022837059 0.0002902903 -4.0161416e-20 5.8576645e-05 -8.2562225e-21 9.393908e-35)
(0.0016993862 0.00020315579 -4.7677693e-20 4.6707072e-05 -1.2281059e-20 2.4402291e-34)
(0.0012757313 0.00011229889 -1.3350546e-20 2.9677998e-05 -5.1282188e-21 4.47589e-35)
(1.2107009e-08 -1.2308753e-07 -2.2202933e-23 1.2514102e-06 2.197946e-22 2.4360122e-36)
(1.2456363e-07 -1.2130015e-06 7.2196207e-23 1.1812459e-05 -6.8553915e-22 4.3138523e-36)
(4.0754776e-07 -3.8113307e-06 -4.3606849e-23 3.5644233e-05 3.957971e-22 5.6380325e-37)
(9.5149481e-07 -8.5140662e-06 6.9460592e-24 7.6188602e-05 -6.0119117e-23 6.660359e-39)
(1.884243e-06 -1.6088525e-05 -1.8944006e-22 0.00013738127 1.5607351e-21 2.6017872e-36)
(3.3897634e-06 -2.7530855e-05 2.6127661e-22 0.00022362091 -2.0447639e-21 2.7836951e-36)
(5.7307827e-06 -4.4119762e-05 -5.1633708e-22 0.00033970758 3.8281971e-21 6.4006351e-36)
(9.2802005e-06 -6.7478485e-05 3.1139754e-22 0.0004907225 -2.1804661e-21 1.4156422e-36)
(1.4564853e-05 -9.9645339e-05 1.4998021e-21 0.00068183478 -9.8854702e-21 2.0440086e-35)
(2.2325259e-05 -0.00014314762 -4.528791e-22 0.00091801584 2.8000832e-21 1.1801574e-36)
(3.359645e-05 -0.00020107337 -2.1520252e-21 0.0012036498 1.2437235e-20 1.708886e-35)
(4.9816143e-05 -0.00027713205 8.1561491e-22 0.0015420333 -4.390203e-21 1.5892322e-36)
(7.296759e-05 -0.00037569146 6.7406246e-23 0.0019347766 -3.3669123e-22 7.0810095e-39)
(0.00010576557 -0.0005017753 -3.2528623e-21 0.0023811418 1.5021776e-20 1.0812625e-35)
(0.00015189494 -0.00066100476 1.2506575e-20 0.0028773929 -5.3195761e-20 1.0534921e-34)
(0.00021631031 -0.00085946762 -9.4093905e-21 0.0034162749 3.6721532e-20 3.9476742e-35)
(0.00030560712 -0.0011035136 -1.0955739e-22 0.0039867907 3.9078748e-22 3.5579654e-39)
(0.00042847234 -0.0013994907 7.7453012e-21 0.0045744731 -2.5152556e-20 1.1884213e-35)
(0.00059622307 -0.0017534744 -2.3865216e-20 0.0051623458 7.0285914e-20 7.5824037e-35)
(0.00082345283 -0.0021710951 1.3606704e-20 0.0057326864 -3.6203837e-20 1.6679692e-35)
(0.0011288093 -0.0026576085 2.4389054e-20 0.0062695299 -5.8409972e-20 3.6568605e-35)
(0.0015359579 -0.0032183771 1.1799824e-20 0.0067615684 -2.5347072e-20 5.8998487e-36)
(0.0020748115 -0.0038598847 -6.9286028e-20 0.0072048117 1.3305602e-19 1.4189211e-34)
(0.002783289 -0.0045913574 -4.2681703e-20 0.0076041375 7.305739e-20 3.8054547e-35)
(0.0037099078 -0.0054267358 3.227467e-20 0.0079729928 -4.9107718e-20 1.5608114e-35)
(0.0049146164 -0.0063846201 -2.1871061e-20 0.008331054 2.9513911e-20 5.2181489e-36)
(0.0064763823 -0.0074907734 9.4491527e-20 0.0086985883 -1.1285562e-19 7.2093707e-35)
(0.0084975678 -0.0087748307 -3.1092593e-20 0.0090896823 3.2799222e-20 5.8652257e-36)
(0.011103968 -0.01026766 9.5432937e-20 0.009514915 -8.8735538e-20 4.2136033e-35)
(0.014457588 -0.012001952 -6.1076797e-20 0.0099780964 4.9947811e-20 1.3352721e-35)
(0.018760247 -0.014007922 4.2575376e-20 0.010476357 -3.0554272e-20 5.0850856e-36)
(0.024260945 -0.016311796 -1.7513206e-19 0.011001941 1.1004127e-19 6.8332075e-35)
(0.031262297 -0.01893363 2.8083363e-20 0.011543326 -1.5412345e-20 1.412883e-36)
(0.04012625 -0.021884384 -1.647433e-19 0.012085432 7.8774505e-20 3.9507567e-35)
(0.051276955 -0.025161015 1.7461577e-19 0.012608615 -7.2529812e-20 3.6511439e-35)
(0.065198212 -0.028738474 6.1603892e-20 0.01308651 -2.2154022e-20 3.7751924e-36)
(0.082421381 -0.032556975 -8.4279456e-19 0.013482789 2.6101817e-19 5.954552e-34)
(0.1034943 -0.036501968 -2.400258e-19 0.013747143 6.3616597e-20 4.1108475e-35)
(0.12891913 -0.040375106 2.1586357e-19 0.013811612 -4.8467164e-20 2.8677885e-35)
(0.15904013 -0.043856619 -2.2859254e-19 0.013590176 4.283101e-20 2.809951e-35)
(0.19385973 -0.046466621 6.2932955e-20 0.012987315 -9.6094083e-21 1.886473e-36)
(0.23276112 -0.047545094 4.1755223e-19 0.011923641 -4.988458e-20 7.5026663e-35)
(0.27417628 -0.046286588 -2.0312724e-20 0.01038092 1.7660908e-21 1.6400439e-37)
(0.31524984 -0.04185892 -1.52154e-19 0.0084562303 8.3483491e-21 8.6476302e-36)
(0.35171116 -0.033672234 7.566371e-20 0.0064147048 -1.660959e-21 2.075844e-36)
(0.37830999 -0.021769967 -3.7944756e-20 0.0046834369 -3.9274213e-22 5.2207691e-37)
(0.38997058 -0.0070812705 -1.0707698e-19 0.0037103199 -4.7749619e-21 4.3792601e-36)
(0.3831001 0.0084731223 1.5781778e-18 0.0038021525 1.2398767e-19 1.0438549e-33)
(0.35682965 0.022605136 -1.6507735e-19 0.0049231512 -1.850883e-20 1.3076278e-35)
(0.31380388 0.033432596 1.3845857e-19 0.0067119059 2.011825e-20 1.1135669e-35)
(0.25877114 0.039810385 -1.1514442e-18 0.00868674 -2.0506092e-19 9.7810557e-34)
(0.19725204 0.04121321 5.4243263e-19 0.010360014 1.1411244e-19 2.9089015e-34)
(0.13624889 0.037249107 3.7342081e-19 0.011128623 8.9557404e-20 1.9453455e-34)
(0.084331962 0.028823487 2.9119861e-19 0.010333547 7.6054711e-20 1.7463798e-34)
(0.047056343 0.018894741 2.2594513e-19 0.007981182 6.0787916e-20 1.5925521e-34)
(0.024557209 0.010443542 2.8549191e-19 0.0049189371 7.4231403e-20 3.8543163e-34)
(0.012993304 0.0050301554 -4.6457107e-19 0.0023865799 -1.1050302e-19 1.513838e-33)
(0.0076254561 0.0022583236 2.3680252e-19 0.00090327796 5.0045832e-20 5.644676e-34)
(0.0051641917 0.0010801516 3.0208933e-19 0.00030387024 5.7983907e-20 1.2818597e-33)
(0.0038958565 0.00064070662 -1.8781197e-19 0.00015737444 -3.5346563e-20 6.8322743e-34)
(0.0030893365 0.00047512231 -5.046661e-20 0.00012981495 -1.0302326e-20 6.9130909e-35)
(0.002477192 0.0004026229 -3.6338752e-20 0.00011419003 -8.5969678e-21 5.2415395e-35)
(0.0019452552 0.0003295024 1.4728319e-19 9.865979e-05 4.2064297e-20 1.3574229e-33)
(0.0015394093 0.00024230984 8.0804909e-20 8.1716508e-05 2.8808148e-20 7.3237363e-34)
(0.0012210889 0.00014227659 -2.358422e-21 5.5076081e-05 -1.243489e-21 1.4214384e-36)
(3.2305023e-08 -2.5337696e-07 2.5843313e-23 1.9873173e-06 -1.9953832e-22 1.207811e-36)
(3.1920108e-07 -2.4479422e-06 -1.717532e-22 1.87734e-05 1.295831e-21 9.312678e-36)
(1.0075674e-06 -7.5580276e-06 2.2897161e-22 5.6696178e-05 -1.6835439e-21 6.1882787e-36)
(2.2636484e-06 -1.6569956e-05 -1.2412373e-22 0.00012129816 8.8787137e-22 8.8355113e-37)
(4.3086421e-06 -3.0712964e-05 -6.0596909e-23 0.00021894582 4.2102169e-22 1.152822e-37)
(7.4402488e-06 -5.1520171e-05 6.8108206e-22 0.00035679378 -4.5878964e-21 8.5333176e-36)
(1.2057865e-05 -8.0887806e-05 -2.2021113e-22 0.00054270692 1.4348471e-21 5.4719366e-37)
(1.8695854e-05 -0.00012113978 -5.8724205e-22 0.00078509078 3.6911837e-21 2.4658494e-36)
(2.8068076e-05 -0.00017509813 -5.5915159e-23 0.0010926109 3.3804078e-22 1.450762e-38)
(4.1126368e-05 -0.00024615287 -5.843574e-22 0.001473766 3.3870528e-21 1.0461437e-36)
(5.9137032e-05 -0.0003383252 1.0001547e-21 0.0019362942 -5.5391352e-21 2.0492963e-36)
(8.3780246e-05 -0.00045631453 -8.4557465e-22 0.0024863941 4.4586673e-21 9.8868453e-37)
(0.0001172787 -0.00060551787 -3.7764302e-21 0.0031277722 1.8887737e-20 1.3401307e-35)
(0.00016256204 -0.00079200534 -1.3264963e-22 0.0038605598 6.2681358e-22 1.1288917e-38)
(0.0002234761 -0.0010224386 4.2070017e-21 0.0046802033 -1.8704035e-20 7.7894569e-36)
(0.00030504741 -0.0013039227 3.5859617e-21 0.0055765037 -1.4935705e-20 3.8931497e-36)
(0.000413813 -0.0016437899 -3.7056149e-21 0.0065330648 1.4394161e-20 2.8685016e-36)
(0.0005582315 -0.0020493423 4.2600437e-22 0.0075274746 -1.5361209e-21 2.6257168e-38)
(0.00074919288 -0.0025276153 1.0342142e-20 0.0085325624 -3.4454235e-20 1.0751489e-35)
(0.0010006534 -0.0030852723 1.5004949e-20 0.0095189853 -4.5960793e-20 1.5807841e-35)
(0.0013304317 -0.0037287878 -2.0308032e-20 0.010459134 5.6917261e-20 2.0355421e-35)
(0.0017612258 -0.0044651075 -2.4111163e-20 0.011331921 6.153948e-20 2.0329507e-35)
(0.002321915 -0.0053029002 3.8065764e-20 0.012127486 -8.8071761e-20 3.6244629e-35)
(0.003049333 -0.0062544659 -5.4924999e-20 0.012850407 1.1469724e-19 5.4573054e-35)
(0.0039908215 -0.0073380995 -1.1023403e-19 0.013520016 2.0693333e-19 1.6093975e-34)
(0.005205804 -0.0085786604 2.9878963e-19 0.014167381 -5.0240636e-19 8.774848e-34)
(0.0067706255 -0.01000888 -1.8787096e-19 0.014827035 2.8205515e-19 2.6106406e-34)
(0.0087845112 -0.011666633 3.1588575e-19 0.015523353 -4.2215888e-19 5.6305438e-34)
(0.011370624 -0.013592601 -4.4537149e-19 0.01627593 5.283123e-19 8.6523374e-34)
(0.0146836 -0.015828097 5.5807742e-19 0.017093609 -5.8595219e-19 1.0638604e-33)
(0.018916812 -0.018412282 -6.4466027e-19 0.017973643 5.9746166e-19 1.1255336e-33)
(0.024307194 -0.021379132 1.2069511e-19 0.018904826 -9.8469738e-20 3.1656482e-35)
(0.031141964 -0.024755206 4.6204053e-19 0.01986923 -3.3095631e-19 3.760802e-34)
(0.039763767 -0.028555997 -2.8772724e-19 0.02084264 1.8042822e-19 1.1956891e-34)
(0.050573462 -0.032779926 9.8970374e-20 0.021792885 -5.4161035e-20 1.1724616e-35)
(0.064027597 -0.037397986 3.1645561e-20 0.022675743 -1.5055983e-20 1.0045666e-36)
(0.080625985 -0.042336928 4.2604409e-19 0.023428902 -1.7546427e-19 1.539097e-34)
(0.10087977 -0.04745233 1.5086875e-19 0.023964211 -5.3439455e-20 1.6505727e-35)
(0.12524579 -0.052488504 1.6442128e-19 0.02415997 -4.9600135e-20 1.6976814e-35)
(0.15400651 -0.057026 1.745391e-19 0.023858925 -4.4174297e-20 1.680598e-35)
(0.18707001 -0.060426063 -9.4812633e-19 0.02288206 1.9668523e-19 4.4181121e-34)
(0.22366996 -0.061801208 4.3957323e-19 0.021074173 -7.1910024e-20 8.6085305e-35)
(0.26201011 -0.060065809 7.3167494e-20 0.018387897 -8.8534327e-21 2.2009904e-36)
(0.29893968 -0.054124551 -8.6863592e-19 0.014993041 6.7133872e-20 2.9560775e-34)
(0.32998854 -0.043288851 -4.459497e-19 0.011377699 1.4886361e-20 7.6385106e-35)
(0.35004134 -0.027805746 2.1744807e-19 0.0083146342 2.5525673e-21 1.8531086e-35)
(0.35465882 -0.0091506185 7.6850783e-19 0.0065921018 4.4276994e-20 2.4507017e-34)
(0.34149583 0.01007174 -3.1639976e-19 0.006683155 -3.2958214e-20 4.632571e-35)
(0.31132295 0.026941007 8.5610363e-19 0.0084658155 1.2878792e-19 3.9407432e-34)
(0.26801393 0.039287249 4.1921206e-19 0.011283183 8.22807e-20 1.1580478e-34)
(0.21658147 0.046176745 5.0753816e-19 0.014328685 1.227023e-19 2.187271e-34)
(0.1616575 0.047275664 1.1670548e-18 0.016865231 3.3480186e-19 1.5619682e-33)
(0.10883317 0.042183064 -7.5098445e-19 0.017961879 -2.46385e-19 9.2225075e-34)
(0.065555788 0.032097702 1.9994712e-19 0.016539371 7.1417393e-20 9.6725082e-35)
(0.035833756 0.020695776 -2.7709644e-19 0.012664497 -1.0135168e-19 2.8108467e-34)
(0.018636199 0.011326437 -2.1327821e-19 0.007752665 -7.4670344e-20 2.4939855e-34)
(0.010084503 0.0054865467 -6.8570998e-20 0.0037542981 -2.1707178e-20 3.7515932e-35)
(0.0061057314 0.0025118218 -5.2141048e-19 0.0014340066 -1.4511642e-19 3.059709e-33)
(0.0041906549 0.001200646 -1.1849767e-19 0.00047900492 -2.9743192e-20 2.1819701e-34)
(0.0031441527 0.00068091891 2.2971117e-19 0.00022746169 5.6176712e-20 1.1287264e-33)
(0.0024790579 0.00048323381 7.3041656e-20 0.00017950463 1.9269702e-20 1.6031149e-34)
(0.002006105 0.00040106291 -4.5100767e-20 0.00015711642 -1.3752399e-20 8.9294959e-35)
(0.001631454 0.00032754708 -7.455127e-20 0.00013401239 -2.7461593e-20 3.8163159e-34)
(0.0013647178 0.00024835781 -8.7871616e-20 0.00011324841 -4.0217536e-20 9.2514442e-34)
(0.0011492885 0.00015369174 4.5458533e-21 7.9983134e-05 3.0229255e-21 5.3797137e-36)
(6.7612202e-08 -4.294428e-07 1.1680624e-22 2.7276397e-06 -7.3418667e-22 1.1213042e-35)
(6.5496058e-07 -4.1100761e-06 8.1469578e-23 2.5792213e-05 -5.0517697e-22 9.7704352e-37)
(2.0304867e-06 -1.2582923e-05 -1.0649625e-22 7.7978307e-05 6.5012782e-22 6.4048536e-37)
(4.4720244e-06 -2.7329961e-05 -5.5709502e-22 0.00016703073 3.3447115e-21 8.7307886e-36)
(8.3343869e-06 -5.0158686e-05 4.075676e-22 0.00030189656 -2.4038128e-21 2.6202752e-36)
(1.4071628e-05 -8.3259213e-05 -7.5725364e-22 0.0004927002 4.3815134e-21 5.4267877e-36)
(2.2263823e-05 -0.00012926445 4.1330813e-22 0.00075067252 -2.3420152e-21 1.015645e-36)
(3.36503e-05 -0.0001913094 1.2212026e-22 0.0010879583 -6.7631958e-22 5.7592357e-38)
(4.9172552e-05 -0.00027309151 -8.4696156e-22 0.0015172804 4.5738085e-21 1.8442405e-36)
(7.0028299e-05 -0.00037892332 -2.2161485e-21 0.0020514063 1.1640221e-20 8.561105e-36)
(9.7740095e-05 -0.00051377194 -1.3415134e-22 0.0027023838 6.8344618e-22 2.1555393e-38)
(0.00013424211 -0.00068327535 5.2705208e-21 0.0034805092 -2.5965611e-20 2.3106781e-35)
(0.00018199016 -0.0008937256 -8.7137697e-21 0.0043930282 4.1378119e-20 4.4181852e-35)
(0.00024410173 -0.0011520084 1.6766154e-20 0.0054426057 -7.6468439e-20 1.1506448e-34)
(0.00032453378 -0.0014654894 -5.2092133e-21 0.00662568 2.273242e-20 7.8472294e-36)
(0.00042830906 -0.0018418437 1.3132633e-20 0.0079309144 -5.4608627e-20 3.5354833e-35)
(0.00056180799 -0.0022888473 -1.8805769e-20 0.009338085 7.4184671e-20 5.1550992e-35)
(0.00073313994 -0.0028141528 1.4437933e-20 0.010817861 -5.3776179e-20 2.1671272e-35)
(0.00095262801 -0.003425137 -2.6906333e-21 0.012333001 9.4151886e-21 5.3873919e-37)
(0.0012334376 -0.0041289249 -1.2837575e-20 0.013841436 4.1983438e-20 8.8144929e-36)
(0.0015923888 -0.0049327371 3.6584813e-20 0.015301398 -1.1121707e-19 5.1731248e-35)
(0.0020510203 -0.0058447505 -6.0299096e-20 0.016678204 1.6946349e-19 1.0224673e-34)
(0.0026369658 -0.0068755843 7.6210752e-20 0.017951516 -1.9692783e-19 1.1980315e-34)