/*--------------------------------*- C++ -*----------------------------------*\
  =========                 |
  \\      /  F ield         | OpenFOAM: The Open Source CFD Toolbox
   \\    /   O peration     | Website:  https://openfoam.org
    \\  /    A nd           | Version:  13
     \\/     M anipulation  |
\*---------------------------------------------------------------------------*/
FoamFile
{
    format      ascii;
    class       volScalarField;
    location    "3713";
    object      p;
}
// * * * * * * * * * * * * * * * * * * * * * * * * * * * * * * * * * * * * * //

dimensions      [0 2 -2 0 0 0 0];

internalField   nonuniform List<scalar> 
9536
(
-1.1974756
-1.1968408
-1.1960786
-1.1952697
-1.1943372
-1.1932673
-1.1920413
-1.1906357
-1.1890236
-1.1871745
-1.1850532
-1.1826198
-1.1798287
-1.1766283
-1.1729601
-1.1687583
-1.1639488
-1.1584489
-1.1521665
-1.145
-1.136838
-1.1275593
-1.1170341
-1.1051244
-1.0916868
-1.0765744
-1.0596416
-1.040748
-1.0197656
-0.996585
-0.97112392
-0.94333541
-0.91321604
-0.88081321
-0.8462309
-0.80963192
-0.77123999
-0.73132898
-0.69023327
-0.64829115
-0.60594025
-0.563453
-0.52146998
-0.47982171
-0.43991054
-0.39991476
-0.36408375
-0.325187
-0.29657291
-0.25562875
-0.23939714
-0.19127027
-1.197502
-1.1968662
-1.1961029
-1.1952927
-1.1943587
-1.1932871
-1.1920591
-1.1906512
-1.1890365
-1.1871843
-1.1850594
-1.1826218
-1.179826
-1.1766201
-1.1729456
-1.1687366
-1.1639188
-1.1584095
-1.1521165
-1.1449381
-1.1367628
-1.1274696
-1.1169284
-1.1050015
-1.0915455
-1.0764137
-1.0594606
-1.0405463
-1.0195429
-0.99634152
-0.97086032
-0.94305278
-0.91291596
-0.88049771
-0.84590249
-0.8092935
-0.77089476
-0.73098039
-0.68988479
-0.64794626
-0.60560209
-0.56312498
-0.52115332
-0.47952214
-0.43962309
-0.39965129
-0.36383239
-0.32495863
-0.29637761
-0.25539546
-0.23936342
-0.19081366
-1.1975952
-1.1969558
-1.1961885
-1.1953738
-1.1944346
-1.1933571
-1.1921223
-1.1907068
-1.1890834
-1.1872213
-1.1850853
-1.182635
-1.1798249
-1.1766029
-1.1729104
-1.1686811
-1.1638408
-1.1583064
-1.1519855
-1.1447765
-1.1365676
-1.1272377
-1.116657
-1.1046879
-1.0911869
-1.0760081
-1.0590063
-1.0400423
-1.0189889
-0.99573834
-0.97020968
-0.94235755
-0.91218019
-0.87972663
-0.84510236
-0.80847151
-0.77005877
-0.73013874
-0.68904585
-0.64711847
-0.60479294
-0.56234254
-0.52040143
-0.47881139
-0.43894801
-0.39902813
-0.36325117
-0.32441678
-0.29593778
-0.25483976
-0.23930199
-0.18978286
-1.1977143
-1.1970689
-1.1962947
-1.1954723
-1.1945243
-1.1934369
-1.1921909
-1.1907625
-1.1891247
-1.1872462
-1.1850917
-1.1826207
-1.1797872
-1.1765391
-1.1728173
-1.1685553
-1.1636787
-1.1581041
-1.1517389
-1.1444812
-1.1362191
-1.1268317
-1.1161888
-1.1041532
-1.0905818
-1.0753292
-1.0582509
-1.0392089
-1.0180772
-0.99474949
-0.96914652
-0.94122475
-0.9109843
-0.87847603
-0.84380713
-0.8071432
-0.76871
-0.72878289
-0.68769637
-0.64578883
-0.6034952
-0.56108911
-0.51919927
-0.47767526
-0.43787295
-0.39803308
-0.36233082
-0.32355035
-0.29524824
-0.25394912
-0.23921431
-0.18813503
-1.1978549
-1.1972011
-1.1964174
-1.1955843
-1.1946241
-1.1935227
-1.1922609
-1.1908146
-1.1891564
-1.187255
-1.1850746
-1.1825743
-1.179708
-1.176423
-1.17266
-1.168352
-1.1634243
-1.1577931
-1.1513655
-1.1440394
-1.1357027
-1.1262343
-1.1155044
-1.1033758
-1.0897063
-1.074351
-1.0571668
-1.0380168
-1.0167771
-0.99334315
-0.96763819
-0.93962116
-0.90929475
-0.87671235
-0.8419835
-0.8052758
-0.76681649
-0.72688194
-0.68580672
-0.64392907
-0.60168231
-0.55933968
-0.51752389
-0.47609247
-0.43637874
-0.39664847
-0.36105591
-0.32234506
-0.29429688
-0.25271189
-0.23909257
-0.18585754
-1.1979716
-1.197307
-1.196511
-1.195664
-1.194688
-1.1935687
-1.1922866
-1.1908172
-1.1891329
-1.1872019
-1.1849881
-1.1824503
-1.1795417
-1.1762093
-1.1723933
-1.1680263
-1.163033
-1.1573292
-1.1508217
-1.1434079
-1.1349757
-1.1254038
-1.1145626
-1.1023154
-1.0885205
-1.0730342
-1.0557147
-1.0364272
-1.0150498
-0.99148083
-0.96564647
-0.93750887
-0.90707408
-0.87439875
-0.8395954
-0.80283422
-0.7643443
-0.72440325
-0.68334581
-0.6415097
-0.5993267
-0.55706828
-0.51535146
-0.47404092
-0.43444534
-0.3948559
-0.35940998
-0.32078617
-0.29306969
-0.25111744
-0.23892381
-0.18294111
-1.1980213
-1.1973434
-1.1965324
-1.1956686
-1.1946733
-1.1935321
-1.1922251
-1.1907275
-1.1890112
-1.1870441
-1.1847894
-1.1822056
-1.1792454
-1.175855
-1.1719741
-1.1675349
-1.1624613
-1.1566686
-1.1500631
-1.142542
-1.1339928
-1.1242943
-1.113317
-1.1009248
-1.0869769
-1.0713309
-1.0538468
-1.034392
-1.0128477
-0.98911528
-0.96312466
-0.93484199
-0.90427738
-0.87149149
-0.83660048
-0.79977767
-0.7612544
-0.7213097
-0.68027858
-0.63849775
-0.59639781
-0.5542463
-0.51265595
-0.47149666
-0.43205099
-0.39263568
-0.35737504
-0.31885847
-0.2915504
-0.24915658
-0.2386894
-0.17938248
-1.1979337
-1.1972402
-1.1964117
-1.1955278
-1.1945099
-1.1933428
-1.1920064
-1.1904756
-1.1887216
-1.1867118
-1.184409
-1.181771
-1.1787498
-1.1752911
-1.1713338
-1.1668093
-1.161641
-1.1557436
-1.1490229
-1.1413753
-1.1326885
-1.1228409
-1.1117036
-1.0991409
-1.0850132
-1.0691797
-1.0515025
-1.031852
-1.0101124
-0.98618923
-0.96001682
-0.93156602
-0.90085178
-0.8679395
-0.83294965
-0.79605919
-0.75750214
-0.71755909
-0.67656542
-0.63485614
-0.59286146
-0.55084177
-0.50940837
-0.46843315
-0.42917149
-0.38996616
-0.35493085
-0.31654551
-0.28971977
-0.24682089
-0.23836426
-0.1751844
-1.1976254
-1.196914
-1.1960656
-1.1951587
-1.1941147
-1.192918
-1.1915479
-1.1899789
-1.1881816
-1.1861229
-1.1837649
-1.1810647
-1.1779734
-1.1744363
-1.1703913
-1.165769
-1.1604921
-1.1544746
-1.1476215
-1.139829
-1.1309842
-1.1209659
-1.1096452
-1.0968874
-1.082554
-1.0665063
-1.0486088
-1.0287352
-1.0067737
-0.98263434
-0.95625656
-0.92761672
-0.89673539
-0.86368341
-0.82858622
-0.79162497
-0.75303668
-0.71310363
-0.67216171
-0.63054331
-0.58867963
-0.54681905
-0.50557664
-0.46482114
-0.42577997
-0.3868235
-0.35205481
-0.31382943
-0.28755552
-0.24410251
-0.23791685
-0.17035542
-1.1969883
-1.1962569
-1.1953861
-1.1944535
-1.1933802
-1.1921502
-1.1907423
-1.1891303
-1.1872845
-1.1851709
-1.1827509
-1.1799808
-1.176811
-1.1731858
-1.1690424
-1.1643105
-1.1589118
-1.1527595
-1.1457581
-1.1378031
-1.1287815
-1.118572
-1.1070461
-1.0940701
-1.079507
-1.0632203
-1.0450775
-1.0249558
-1.0027481
-0.97836966
-0.95176574
-0.92291895
-0.89185624
-0.85865461
-0.8234451
-0.78641352
-0.74780026
-0.70788933
-0.66701728
-0.62551271
-0.58380999
-0.54213838
-0.50112518
-0.46062828
-0.42184661
-0.38318138
-0.34872167
-0.31069057
-0.28503221
-0.24099382
-0.23730936
-0.16491026
-1.1958917
-1.1951381
-1.194243
-1.1932819
-1.1921763
-1.1909097
-1.1894601
-1.1878009
-1.1859016
-1.1837274
-1.1812391
-1.1783921
-1.1751359
-1.1714138
-1.167162
-1.1623094
-1.1567766
-1.1504761
-1.1433116
-1.1351781
-1.1259622
-1.1155428
-1.1037919
-1.0905767
-1.0757623
-1.0592143
-1.0408038
-1.0204121
-0.99793721
-0.97330032
-0.94645322
-0.9173855
-0.88613122
-0.85277426
-0.81745185
-0.78035492
-0.7417275
-0.7018554
-0.66107584
-0.61971234
-0.57820567
-0.53675536
-0.49601475
-0.45581889
-0.41733824
-0.37901067
-0.34490329
-0.30710706
-0.28212099
-0.23748698
-0.23649783
-0.15886336
-1.1941782
-1.1934006
-1.1924794
-1.1914874
-1.1903469
-1.1890405
-1.1875458
-1.1858354
-1.1838781
-1.1816385
-1.1790762
-1.1761459
-1.1727961
-1.1689691
-1.1646001
-1.1596169
-1.1539392
-1.1474785
-1.1401378
-1.1318115
-1.122386
-1.1117403
-1.0997469
-1.0862746
-1.07119
-1.0543619
-1.035665
-1.0149853
-0.99222642
-0.96731616
-0.94021353
-0.91091584
-0.87946497
-0.84595231
-0.81052183
-0.77336999
-0.73474468
-0.69493352
-0.65427437
-0.61308419
-0.57181497
-0.53062009
-0.49020153
-0.4503535
-0.41221793
-0.37427904
-0.34056833
-0.30305431
-0.27878943
-0.23357342
-0.23542863
-0.15220526
-1.1916601
-1.190857
-1.1899083
-1.1888833
-1.1877055
-1.1863567
-1.1848139
-1.183049
-1.1810299
-1.1787204
-1.1760793
-1.1730603
-1.1696109
-1.1656722
-1.1611784
-1.1560563
-1.1502245
-1.1435935
-1.1360657
-1.1275349
-1.1178871
-1.1070016
-1.0947519
-1.0810078
-1.0656385
-1.0485157
-1.0295182
-1.0085374
-0.98548312
-0.96029017
-0.93292555
-0.90339495
-0.87174874
-0.83808643
-0.80255921
-0.76536946
-0.72676897
-0.68704728
-0.64654248
-0.60556365
-0.56458053
-0.52367532
-0.48363603
-0.44418853
-0.4064445
-0.36895053
-0.33568192
-0.29850451
-0.2750016
-0.22924533
-0.23405268
-0.14512681
-1.1881215
-1.1872916
-1.1863142
-1.1852545
-1.1840376
-1.1826443
-1.181051
-1.1792288
-1.1771449
-1.1747621
-1.1720384
-1.1689264
-1.1653725
-1.1613168
-1.1566923
-1.1514247
-1.1454316
-1.1386227
-1.1308993
-1.1221549
-1.1122753
-1.1011401
-1.0886237
-1.0745976
-1.0589334
-1.0415063
-1.0221998
-1.0009107
-0.97755569
-0.95207738
-0.92445129
-0.89469214
-0.86285935
-0.8290611
-0.79345621
-0.7562532
-0.71770777
-0.67811148
-0.63780155
-0.59707819
-0.55643788
-0.51585807
-0.47627906
-0.43727787
-0.39997267
-0.3629852
-0.33020531
-0.29342589
-0.27071752
-0.2244937
-0.23236009
-0.13794022
-1.1833066
-1.1824491
-1.1814425
-1.1803469
-1.1790895
-1.1776503
-1.1760048
-1.1741234
-1.1719725
-1.1695141
-1.1667051
-1.1634971
-1.1598355
-1.1556592
-1.1509002
-1.1454829
-1.139324
-1.1323321
-1.1244081
-1.1154447
-1.105328
-1.0939378
-1.0811495
-1.0668367
-1.0508735
-1.0331391
-1.0135217
-0.99192458
-0.9682714
-0.94251319
-0.91463458
-0.88465988
-0.85265815
-0.81874662
-0.78309207
-0.74590935
-0.70745784
-0.66803133
-0.62796377
-0.58755027
-0.54734474
-0.50714153
-0.46815703
-0.42957122
-0.39275365
-0.35633913
-0.32409545
-0.2877814
-0.26588836
-0.21928143
-0.23018178
-0.13015838
-1.176934
-1.1760484
-1.1750126
-1.1738804
-1.1725819
-1.171096
-1.1693975
-1.167456
-1.1652371
-1.162702
-1.1598065
-1.1565011
-1.1527303
-1.1484318
-1.1435365
-1.1379678
-1.1316413
-1.1244648
-1.1163384
-1.1071547
-1.0967995
-1.0851535
-1.0720933
-1.0574945
-1.0412344
-1.0231963
-1.0032738
-0.98137667
-0.95743642
-0.93141288
-0.90330029
-0.87313305
-0.84099023
-0.80699849
-0.7713328
-0.73421445
-0.69590636
-0.6567055
-0.61693901
-0.57691705
-0.5372988
-0.49716037
-0.45831275
-0.42085964
-0.38470016
-0.34895928
-0.31730439
-0.28152925
-0.26046231
-0.21357647
-0.22742084
-0.1216426
-1.1686678
-1.1677541
-1.1666897
-1.1655209
-1.1641813
-1.1626488
-1.1608974
-1.1588961
-1.1566095
-1.1539979
-1.1510162
-1.1476141
-1.1437348
-1.1393151
-1.1342847
-1.1285661
-1.1220739
-1.1147152
-1.1063895
-1.0969892
-1.0864004
-1.0745045
-1.0611796
-1.0463037
-1.0297575
-1.0114287
-0.99121665
-0.96903802
-0.94483256
-0.91856937
-0.89025275
-0.85992755
-0.8276832
-0.793656
-0.75802899
-0.72102944
-0.68292211
-0.64400249
-0.6045654
-0.56489766
-0.52519227
-0.48603384
-0.44837211
-0.41205532
-0.3758292
-0.34079909
-0.30978235
-0.27462326
-0.25438571
-0.20735653
-0.22402717
-0.11280523
-1.1581609
-1.1572199
-1.1561281
-1.1549235
-1.1535437
-1.1519658
-1.1501628
-1.148103
-1.1457504
-1.1430643
-1.1399988
-1.1365025
-1.1325177
-1.1279803
-1.1228189
-1.116955
-1.1103025
-1.1027679
-1.0942501
-1.0846416
-1.073829
-1.0616945
-1.0481182
-1.0329807
-1.0161664
-0.99756779
-0.97709057
-0.95465871
-0.9302206
-0.90375496
-0.87527649
-0.84484078
-0.81254779
-0.77854358
-0.74301963
-0.70620999
-0.66838448
-0.62984737
-0.59090085
-0.55203949
-0.51276664
-0.47488806
-0.43766857
-0.40153553
-0.36629574
-0.33179125
-0.30147161
-0.26701106
-0.24759961
-0.20058837
-0.21991492
-0.10365579
-1.1449803
-1.1440134
-1.142896
-1.1416572
-1.1402392
-1.138618
-1.136766
-1.1346507
-1.1322354
-1.1294787
-1.1263338
-1.1227484
-1.1186641
-1.1140157
-1.1087311
-1.1027311
-1.0959288
-1.0882303
-1.0795345
-1.0697339
-1.0587158
-1.0463638
-1.03256
-1.017188
-1.0001362
-0.98130233
-0.96059833
-0.93795594
-0.91333242
-0.8867164
-0.85813322
-0.82764934
-0.79537532
-0.76146685
-0.72612337
-0.68958466
-0.65212345
-0.61404426
-0.57564893
-0.53735091
-0.49927429
-0.46227765
-0.42528098
-0.38898184
-0.35538223
-0.32181384
-0.29229321
-0.25863237
-0.24003966
-0.19323047
-0.21498962
-0.094193961
-1.1287304
-1.1277392
-1.1265991
-1.1253286
-1.1238756
-1.1222145
-1.1203174
-1.1181512
-1.1156784
-1.1128569
-1.1096394
-1.1059726
-1.1017974
-1.0970479
-1.0916514
-1.0855279
-1.0785902
-1.0707441
-1.0618884
-1.0519163
-1.0407159
-1.0281726
-1.0141708
-0.9985974
-0.98134543
-0.96231823
-0.94143467
-0.91863461
-0.89388454
-0.86718323
-0.8385667
-0.80811219
-0.77594057
-0.74221666
-0.70714719
-0.67097652
-0.63397859
-0.59645297
-0.55869313
-0.52104901
-0.4836725
-0.44680497
-0.411315
-0.37643505
-0.34352779
-0.3108789
-0.28219154
-0.24942549
-0.2316374
-0.185234
-0.20915365
-0.084440899
-1.1088535
-1.1078407
-1.1066763
-1.1053786
-1.1038946
-1.1021985
-1.1002618
-1.0980509
-1.0955278
-1.0926499
-1.0893691
-1.0856319
-1.0813783
-1.076542
-1.0710499
-1.0648217
-1.0577701
-1.0498008
-1.0408134
-1.0307016
-1.0193552
-1.0066613
-0.99250727
-0.97678379
-0.95938841
-0.94023035
-0.91923544
-0.89635166
-0.87155476
-0.84485362
-0.81629492
-0.78596661
-0.75399961
-0.72056751
-0.68588376
-0.65019662
-0.61378082
-0.57693172
-0.539941
-0.50312866
-0.46671396
-0.43095209
-0.39631644
-0.36247556
-0.33049394
-0.29887789
-0.27108763
-0.2393191
-0.22231892
-0.17654211
-0.20230392
-0.074407339
-1.0849563
-1.0839258
-1.0827413
-1.0814213
-1.0799121
-1.0781874
-1.0762183
-1.073971
-1.071407
-1.0684832
-1.0651514
-1.0613572
-1.0570407
-1.0521352
-1.0465671
-1.0402562
-1.0331154
-1.0250506
-1.0159622
-1.005745
-0.99429057
-0.98148846
-0.96722933
-0.95140801
-0.93392744
-0.91470334
-0.89366921
-0.87078181
-0.84602653
-0.81942248
-0.79102678
-0.76093748
-0.72929476
-0.69627991
-0.66211188
-0.62704155
-0.59134302
-0.55530617
-0.51921783
-0.48337372
-0.44801507
-0.41336438
-0.37980651
-0.34713567
-0.31621354
-0.28572689
-0.25890206
-0.22823637
-0.21200581
-0.16709049
-0.19433385
-0.064095654
-1.0562702
-1.0552267
-1.0540275
-1.0526911
-1.0511634
-1.0494179
-1.0474255
-1.045152
-1.0425589
-1.0396029
-1.0362354
-1.0324022
-1.0280433
-1.0230918
-1.0174747
-1.011112
-1.0039172
-0.99579742
-0.98665408
-0.97638403
-0.96488101
-0.95203771
-0.93774848
-0.92191265
-0.90443857
-0.88524828
-0.86428255
-0.84150635
-0.81691413
-0.79053475
-0.76243532
-0.73272362
-0.70154864
-0.66909876
-0.63559756
-0.60129744
-0.5664706
-0.53140039
-0.49636634
-0.46164452
-0.42747703
-0.39406454
-0.36172596
-0.33033387
-0.30058888
-0.2713331
-0.24554931
-0.21609472
-0.20061562
-0.15680793
-0.18513391
-0.053497756
-1.022568
-1.0215175
-1.0203103
-1.0189652
-1.0174276
-1.015671
-1.0136664
-1.0113793
-1.0087714
-1.0057992
-1.0024143
-0.99856263
-0.99418414
-0.98921254
-0.98357511
-0.97719255
-0.96997919
-0.96184336
-0.95268811
-0.94241236
-0.9309125
-0.91808464
-0.90382741
-0.88804542
-0.87065342
-0.8515809
-0.83077722
-0.80821673
-0.78390381
-0.7578773
-0.73021388
-0.70102996
-0.67048166
-0.63876244
-0.60609841
-0.57274132
-0.5389594
-0.5050278
-0.47121595
-0.43778205
-0.40495833
-0.37292834
-0.34195473
-0.31195991
-0.28351691
-0.25559979
-0.23093971
-0.20280719
-0.188063
-0.1456177
-0.17459213
-0.042593755
-0.98266175
-0.98161081
-0.98040312
-0.97905774
-0.97752
-0.97576363
-0.97375959
-0.97147385
-0.96886808
-0.96589935
-0.96251962
-0.9586754
-0.9543074
-0.94935026
-0.9437324
-0.93737598
-0.93019713
-0.92210636
-0.91300936
-0.90280819
-0.891403
-0.87869417
-0.86458525
-0.84898634
-0.83181822
-0.81301696
-0.79253901
-0.77036629
-0.74651124
-0.72102106
-0.69398081
-0.66551478
-0.6357857
-0.60499159
-0.57336025
-0.54114167
-0.50859855
-0.47599631
-0.44359191
-0.41162571
-0.38031394
-0.34982313
-0.32036887
-0.29190207
-0.26489188
-0.23842737
-0.2149809
-0.18828425
-0.17426132
-0.13343973
-0.1625943
-0.031350909
-0.93689275
-0.93584964
-0.93465118
-0.93331612
-0.9317903
-0.93004776
-0.92805976
-0.92579267
-0.92320866
-0.92026535
-0.91691537
-0.91310602
-0.90877894
-0.90386988
-0.89830857
-0.8920187
-0.88491824
-0.87691988
-0.8679319
-0.85785948
-0.84660652
-0.8340779
-0.82018259
-0.80483717
-0.78797005
-0.76952607
-0.74947143
-0.7277984
-0.70452979
-0.67972253
-0.65346999
-0.62590274
-0.59718732
-0.56752274
-0.5371347
-0.50626774
-0.47517571
-0.44411149
-0.41331673
-0.38301271
-0.35339582
-0.32461402
-0.2968426
-0.27004634
-0.24460633
-0.21971506
-0.19758
-0.17243641
-0.15912524
-0.12019414
-0.14902446
-0.019723275
-0.8830694
-0.88204279
-0.88086329
-0.87954958
-0.87804844
-0.87633444
-0.87437949
-0.87215075
-0.8696113
-0.86671985
-0.86343033
-0.85969157
-0.85544701
-0.85063452
-0.84518632
-0.83902905
-0.83208407
-0.82426798
-0.8154936
-0.80567116
-0.79471017
-0.78252163
-0.76902096
-0.75413134
-0.73778778
-0.71994149
-0.70056467
-0.67965532
-0.65724174
-0.63338621
-0.60818727
-0.58178014
-0.55433469
-0.52605112
-0.49715319
-0.46787975
-0.43847489
-0.4091777
-0.38021265
-0.35178066
-0.3240559
-0.29716609
-0.27125047
-0.24627821
-0.22255335
-0.19936337
-0.17864644
-0.15517769
-0.14257436
-0.10580663
-0.13376327
-0.0076427028
-0.82314834
-0.82214909
-0.82100134
-0.81972297
-0.81826227
-0.81659455
-0.81469255
-0.81252438
-0.81005425
-0.80724211
-0.8040433
-0.80040825
-0.79628221
-0.79160505
-0.78631125
-0.78032998
-0.7735854
-0.7659973
-0.75748205
-0.74795397
-0.73732725
-0.72551842
-0.71244934
-0.69805091
-0.68226717
-0.66505977
-0.64641251
-0.62633551
-0.60486885
-0.58208499
-0.5580899
-0.53302254
-0.50705242
-0.4803751
-0.45320573
-0.4257709
-0.39829908
-0.37101075
-0.34410931
-0.31777259
-0.29215008
-0.26734729
-0.24347011
-0.2204858
-0.19862952
-0.1772772
-0.15809566
-0.13643023
-0.12453825
-0.090215569
-0.11667861
0.0049951854
-0.75238008
-0.75141883
-0.75031459
-0.74908504
-0.74768049
-0.74607736
-0.74424966
-0.74216707
-0.73979554
-0.73709712
-0.73402956
-0.73054608
-0.72659516
-0.72212044
-0.71706072
-0.71135012
-0.70491848
-0.69769196
-0.68959406
-0.68054691
-0.67047304
-0.65929764
-0.64695122
-0.63337281
-0.61851359
-0.60234085
-0.58484227
-0.56603004
-0.54594483
-0.52465873
-0.50227691
-0.47893715
-0.45480699
-0.4300784
-0.40496021
-0.379669
-0.35441925
-0.32941353
-0.30483401
-0.28083499
-0.25754066
-0.23503345
-0.21338819
-0.19256657
-0.17274182
-0.15337303
-0.13585713
-0.1161339
-0.10496986
-0.073397335
-0.097668934
0.01815699
-0.67695167
-0.67604145
-0.67499645
-0.67383264
-0.67250313
-0.67098563
-0.66925553
-0.66728411
-0.66503918
-0.66248479
-0.65958093
-0.65628329
-0.65254307
-0.64830686
-0.64351665
-0.63811
-0.63202046
-0.62517816
-0.61751091
-0.60894556
-0.59940991
-0.5888352
-0.57715904
-0.56432898
-0.55030641
-0.53507069
-0.51862317
-0.50099065
-0.48222799
-0.46241936
-0.44167796
-0.42014406
-0.39798141
-0.37537181
-0.35250832
-0.3295871
-0.30679868
-0.28431915
-0.26230262
-0.24087474
-0.22013084
-0.20012764
-0.1809095
-0.16242953
-0.14480499
-0.12757332
-0.11186768
-0.094240303
-0.08384528
-0.055385911
-0.076686716
0.031900111
-0.58567877
-0.58483293
-0.58386131
-0.58277988
-0.58154503
-0.58013624
-0.57853102
-0.57670312
-0.57462322
-0.57225868
-0.56957331
-0.56652721
-0.56307665
-0.55917404
-0.55476801
-0.54980367
-0.54422307
-0.53796582
-0.53097012
-0.52317402
-0.51451707
-0.50494235
-0.49439889
-0.48284441
-0.47024846
-0.45659567
-0.44188922
-0.42615414
-0.40944021
-0.39182401
-0.3734096
-0.35432726
-0.33473
-0.31478777
-0.29467976
-0.27458553
-0.25467585
-0.23510406
-0.21599918
-0.19746062
-0.17955699
-0.16232102
-0.1457701
-0.12984908
-0.11462718
-0.099716966
-0.086001217
-0.070651824
-0.061096644
-0.03612935
-0.052819941
0.050067126
-0.49502387
-0.49425301
-0.49336892
-0.49238448
-0.49126028
-0.48997768
-0.48851616
-0.48685183
-0.48495794
-0.48280474
-0.48035922
-0.47758495
-0.47444198
-0.47088681
-0.46687246
-0.4623487
-0.45726253
-0.45155881
-0.4451813
-0.43807398
-0.43018282
-0.42145803
-0.41185669
-0.4013458
-0.38990562
-0.37753303
-0.36424471
-0.35007964
-0.33510073
-0.3193951
-0.3030728
-0.286264
-0.26911459
-0.25178025
-0.23441953
-0.21718606
-0.20022081
-0.18364494
-0.16755418
-0.15201498
-0.13706425
-0.12270697
-0.10893236
-0.095674722
-0.082960258
-0.070473519
-0.058865081
-0.045941158
-0.037347439
-0.016584692
-0.02645462
0.063463312
-0.38201343
-0.38134574
-0.38057994
-0.37972745
-0.37875419
-0.37764417
-0.37637982
-0.3749407
-0.37330402
-0.37144445
-0.36933402
-0.36694194
-0.36423459
-0.36117555
-0.35772571
-0.35384356
-0.34948563
-0.34460717
-0.33916305
-0.33310903
-0.32640326
-0.31900818
-0.31089274
-0.30203489
-0.29242427
-0.28206493
-0.27097795
-0.25920359
-0.2468027
-0.23385704
-0.22046807
-0.20675413
-0.19284579
-0.17887967
-0.16499119
-0.15130697
-0.13793757
-0.1249714
-0.1124704
-0.10046791
-0.088969446
-0.077953139
-0.067382645
-0.057183684
-0.047347675
-0.037635994
-0.028499105
-0.018443641
-0.011512885
0.0030227614
-0.0027826681
0.027982297
-0.25234174
-0.25179014
-0.25114951
-0.25044678
-0.24964376
-0.24872841
-0.24768675
-0.24650235
-0.24515695
-0.24363042
-0.24190063
-0.2399434
-0.23773256
-0.23524002
-0.23243595
-0.22928911
-0.22576735
-0.22183824
-0.21746996
-0.21263237
-0.20729842
-0.2014457
-0.19505828
-0.18812861
-0.18065955
-0.17266624
-0.16417773
-0.15523807
-0.14590678
-0.13625836
-0.12638063
-0.11637194
-0.10633701
-0.096381657
-0.086606579
-0.077100955
-0.067936393
-0.059162093
-0.05080185
-0.042853248
-0.035289659
-0.028062554
-0.021112878
-0.014356941
-0.007763543
-0.0011447081
0.0051906348
0.01225902
0.017297391
0.027445671
0.025458015
0.045540785
-0.12347776
-0.12305481
-0.12256983
-0.12203042
-0.12141529
-0.12071464
-0.11991787
-0.11901267
-0.11798545
-0.11682125
-0.11550372
-0.11401514
-0.1123364
-0.11044717
-0.1083261
-0.10595112
-0.10329988
-0.10035033
-0.097081569
-0.093474764
-0.089514399
-0.085189687
-0.080496171
-0.075437461
-0.070026974
-0.064289532
-0.058262597
-0.051996857
-0.045555894
-0.03901469
-0.03245681
-0.025970341
-0.019642784
-0.013555354
-0.0077772123
-0.0023602104
0.0026652943
0.0072930591
0.011541666
0.015453206
0.019089582
0.022528331
0.025851644
0.029155253
0.032486111
0.035999958
0.039481459
0.043576218
0.046405284
0.052607156
0.051156889
0.063128343
0.018403218
0.018681735
0.019001115
0.019355737
0.019759473
0.02021842
0.020739095
0.021328952
0.02199614
0.02274943
0.02359823
0.02455249
0.025622587
0.026819149
0.028152796
0.029633788
0.031271589
0.033074298
0.035047957
0.037195749
0.039517085
0.04200659
0.044653124
0.047438792
0.05033816
0.053317714
0.056335742
0.059342732
0.06228241
0.065093527
0.067712473
0.070076704
0.072128978
0.073822106
0.075123834
0.076021211
0.076523794
0.076665085
0.076501865
0.076111301
0.075585802
0.075027376
0.074536454
0.074218672
0.074127912
0.074405072
0.074896377
0.075950155
0.076334389
0.079083829
0.077098377
0.083373559
0.16228055
0.16240299
0.1625428
0.16269755
0.16287296
0.16307122
0.16329462
0.16354565
0.16382684
0.16414073
0.16448976
0.16487618
0.16530183
0.16576803
0.16627525
0.16682278
0.16740839
0.16802778
0.16867405
0.16933707
0.17000275
0.17065233
0.17126164
0.17180054
0.17223244
0.17251432
0.17259713
0.17242698
0.17194716
0.17110103
0.16983586
0.16810723
0.16588381
0.16315179
0.1599187
0.15621585
0.15209928
0.14764871
0.14296451
0.13816283
0.13336894
0.12871027
0.12430503
0.12026989
0.11665808
0.11362175
0.11104075
0.10899031
0.10672721
0.10627389
0.10294257
0.10479586
0.31315335
0.3131098
0.31305908
0.31300144
0.31293402
0.31285486
0.31276161
0.31265131
0.31252041
0.31236457
0.31217852
0.31195592
0.31168908
0.31136875
0.31098379
0.31052088
0.30996411
0.30929458
0.30848998
0.30752422
0.30636696
0.30498347
0.30333441
0.30137605
0.29906072
0.29633778
0.29315507
0.28946098
0.28520714
0.28035164
0.27486278
0.2687231
0.26193345
0.25451664
0.24652029
0.23801811
0.22910947
0.21991667
0.21058009
0.20125145
0.19208562
0.1832323
0.17482426
0.166988
0.15976407
0.15336075
0.14766635
0.14243361
0.13734082
0.13387002
0.12869823
0.12690049
0.46551666
0.46529902
0.46504822
0.46476778
0.4644458
0.46407601
0.4636513
0.46316316
0.46260178
0.46195585
0.46121232
0.46035619
0.45937026
0.45823482
0.45692735
0.45542222
0.45369037
0.45169901
0.44941133
0.44678635
0.44377881
0.44033927
0.43641447
0.43194798
0.42688132
0.42115558
0.41471363
0.40750312
0.39947999
0.39061273
0.38088682
0.37030929
0.35891265
0.3467579
0.33393588
0.32056667
0.30679678
0.29279418
0.27874116
0.26482572
0.25123199
0.23813029
0.2256667
0.21397754
0.20307485
0.19331077
0.18457013
0.17601618
0.16776715
0.16152353
0.15421195
0.14920377
0.62026656
0.61986949
0.61941265
0.61890264
0.6183183
0.61764889
0.61688235
0.6160044
0.61499874
0.61384675
0.61252727
0.61101625
0.60928646
0.60730717
0.60504381
0.60245771
0.59950577
0.59614032
0.59230901
0.58795483
0.58301645
0.57742876
0.5711238
0.56403218
0.55608503
0.54721656
0.53736724
0.52648761
0.51454259
0.50151611
0.48741568
0.47227671
0.45616587
0.43918315
0.42146201
0.40316728
0.38449054
0.36564307
0.34684683
0.32832381
0.31028512
0.29291842
0.27638274
0.26081234
0.24612398
0.23299967
0.22101498
0.20908609
0.1986124
0.1890737
0.1793446
0.17136093
0.77412042
0.77354071
0.77287404
0.77213038
0.77127906
0.77030486
0.76919074
0.7679166
0.76645958
0.76479379
0.76288989
0.76071483
0.75823139
0.75539793
0.75216799
0.74849005
0.74430733
0.73955767
0.73417367
0.72808296
0.72120884
0.71347126
0.70478832
0.69507825
0.68426216
0.67226729
0.65903113
0.64450605
0.62866449
0.61150419
0.59305339
0.57337513
0.55257025
0.53077853
0.50817729
0.48497737
0.46141629
0.43774902
0.41423676
0.39113433
0.36867752
0.34706613
0.32646601
0.3069267
0.28818484
0.2721938
0.25713343
0.24174064
0.22897674
0.21591553
0.20382835
0.19306378
0.92624489
0.92548222
0.92460544
0.92362774
0.92250901
0.92122949
0.91976715
0.91809604
0.91618675
0.91400604
0.91151641
0.90867568
0.90543664
0.90174662
0.89754717
0.89277382
0.88735593
0.88121671
0.87427354
0.86643849
0.85761936
0.84772108
0.83664786
0.82430583
0.81060659
0.7954714
0.77883613
0.76065681
0.7409154
0.71962567
0.6968384
0.67264553
0.6471826
0.62062878
0.59320414
0.56516393
0.53678975
0.50837835
0.48022856
0.45262711
0.42583547
0.40007137
0.37552273
0.35212628
0.33062365
0.31102263
0.29133411
0.27327744
0.25740414
0.24197584
0.22744485
0.21406425
1.0742019
1.0732585
1.0721741
1.0709652
1.0695824
1.0680014
1.0661952
1.0641322
1.0617766
1.0590879
1.0560205
1.0525234
1.0485397
1.0440059
1.0388518
1.0330005
1.0263678
1.018863
1.0103886
1.000842
0.99011594
0.97810122
0.96468881
0.94977339
0.93325758
0.91505694
0.89510575
0.87336339
0.84982086
0.82450717
0.79749484
0.76890398
0.73890416
0.70771339
0.67559392
0.64284462
0.60979023
0.57676813
0.54411369
0.51214525
0.48115162
0.45137678
0.42304865
0.39622098
0.37177562
0.34754396
0.32389961
0.30414243
0.28509951
0.26702245
0.25001912
0.23414599
1.2164947
1.2153756
1.2140895
1.2126559
1.2110163
1.2091423
1.207002
1.2045582
1.2017688
1.1985864
1.1949576
1.1908227
1.1861153
1.1807614
1.1746797
1.1677809
1.1599678
1.1511359
1.1411737
1.1299638
1.117385
1.103314
1.0876293
1.0702147
1.0509644
1.029789
1.006622
0.98142687
0.95420434
0.92499914
0.8939057
0.86107194
0.82670053
0.79104686
0.75441335
0.71714014
0.67959243
0.64214528
0.60516723
0.56900367
0.53396278
0.50029884
0.46823027
0.43781402
0.40946518
0.38252672
0.35671019
0.33337576
0.31141775
0.29074769
0.27133931
0.25310463
1.3510643
1.3497773
1.3482983
1.34665
1.3447651
1.342611
1.3401514
1.3373437
1.3341399
1.3304859
1.3263208
1.321577
1.3161786
1.3100421
1.3030753
1.2951772
1.2862385
1.2761417
1.2647618
1.251968
1.2376255
1.2215983
1.2037529
1.1839631
1.1621155
1.1381162
1.1118979
1.0834282
1.052717
1.019824
0.98486451
0.94801282
0.90950311
0.86962628
0.82872286
0.78717197
0.74537682
0.7037477
0.66268391
0.62255592
0.58369024
0.54635326
0.51076084
0.47699877
0.44527891
0.41529347
0.38686801
0.36066465
0.33604198
0.31290361
0.2912048
0.27075455
1.4762523
1.4748079
1.4731481
1.4712983
1.4691833
1.4667666
1.4640076
1.4608588
1.4572664
1.4531701
1.4485024
1.4431876
1.4371416
1.4302714
1.4224749
1.4136404
1.4036469
1.3923648
1.3796568
1.3653792
1.3493848
1.3315257
1.3116574
1.2896446
1.2653668
1.2387261
1.2096552
1.1781256
1.1441566
1.1078222
1.0692573
1.0286613
0.98629786
0.94249083
0.89761598
0.85208829
0.80634576
0.7608307
0.71597018
0.67215702
0.62973374
0.5889772
0.5501016
0.51321254
0.47843868
0.44562591
0.41464384
0.38580383
0.35871053
0.33326267
0.30942516
0.28692608
1.5902965
1.5887078
1.5868779
1.584844
1.5825179
1.5798602
1.5768265
1.5733646
1.5694157
1.5649139
1.559785
1.5539465
1.5473066
1.5397639
1.5312068
1.5215139
1.5105538
1.4981858
1.4842611
1.4686248
1.4511181
1.4315824
1.4098634
1.3858174
1.3593177
1.3302632
1.2985862
1.2642625
1.2273196
1.1878448
1.1459914
1.1019813
1.0561052
1.0087171
0.96022468
0.91107544
0.86173876
0.81268571
0.76436814
0.71719874
0.67153421
0.62766069
0.58579258
0.5460467
0.50851113
0.47310641
0.43973162
0.40850583
0.37916985
0.35161311
0.3258234
0.30146539
1.6916583
1.6899392
1.6879371
1.6857416
1.6832273
1.6803541
1.6770747
1.6733331
1.6690656
1.6642012
1.6586603
1.6523539
1.6451834
1.6370397
1.6278032
1.6173437
1.6055203
1.5921827
1.5771719
1.5603228
1.5414666
1.520435
1.4970651
1.4712059
1.4427254
1.4115193
1.3775203
1.3407077
1.3011167
1.2588467
1.2140671
1.1670204
1.1180212
1.0674502
1.0157435
0.96337715
0.91084816
0.85865277
0.80726446
0.75711316
0.70856784
0.6619227
0.61739353
0.57510393
0.53512254
0.49740498
0.46186733
0.42852682
0.39719924
0.36776591
0.34023985
0.31423529
1.7789132
1.7770811
1.7749277
1.772593
1.7699159
1.7668564
1.7633648
1.7593813
1.7548384
1.7496606
1.7437635
1.7370526
1.7294232
1.72076
1.7109361
1.6998138
1.6872441
1.6730681
1.6571184
1.6392207
1.6191979
1.5968734
1.5720769
1.5446511
1.5144596
1.4813957
1.4453925
1.4064325
1.3645577
1.319878
1.272577
1.2229148
1.1712266
1.1179159
1.0634431
1.0083088
0.95303348
0.89813477
0.84410442
0.79138693
0.74036165
0.69132951
0.64450821
0.60002542
0.55794071
0.51822585
0.48080653
0.44564695
0.4126044
0.38155469
0.35253381
0.32511589
1.8507524
1.8488266
1.8465464
1.8440968
1.8412852
1.8380716
1.8344045
1.830221
1.8254505
1.8200138
1.8138223
1.8067773
1.7987691
1.789677
1.7793683
1.7676991
1.7545137
1.7396465
1.7229226
1.7041609
1.6831768
1.6597871
1.6338155
1.6050996
1.573499
1.5389052
1.5012513
1.4605227
1.4167669
1.3701023
1.3207243
1.2689075
1.2150043
1.159437
1.102686
1.0452722
0.9877351
0.93060991
0.8744033
0.81957156
0.76650251
0.71550248
0.66679116
0.62049866
0.57668041
0.5353156