/*--------------------------------*- C++ -*----------------------------------*\
  =========                 |
  \\      /  F ield         | OpenFOAM: The Open Source CFD Toolbox
   \\    /   O peration     | Website:  https://openfoam.org
    \\  /    A nd           | Version:  13
     \\/     M anipulation  |
\*---------------------------------------------------------------------------*/
FoamFile
{
    format      ascii;
    class       surfaceScalarField;
    location    "3713";
    object      phi;
}
// * * * * * * * * * * * * * * * * * * * * * * * * * * * * * * * * * * * * * //

dimensions      [0 3 -1 0 0 0 0];

internalField   nonuniform List<scalar> 
18914
(
2.1893236e-09
-1.4640986e-09
-7.2522542e-10
1.0071414e-08
-5.2721417e-09
-2.6099582e-09
2.6150683e-08
-1.0757674e-08
-5.3216174e-09
5.3825664e-08
-1.8521492e-08
-9.1535172e-09
9.7688157e-08
-2.9366631e-08
-1.4495897e-08
1.6391841e-07
-4.4363479e-08
-2.1866817e-08
2.6080762e-07
-6.4936478e-08
-3.1952777e-08
3.9944786e-07
-9.29783e-08
-4.5661988e-08
5.946421e-07
-1.3100017e-07
-6.4194108e-08
8.6610298e-07
-1.8232949e-07
-8.9131411e-08
1.2400299e-06
-2.513691e-07
-1.225578e-07
1.7511809e-06
-3.4393711e-07
-1.6721388e-07
2.4455907e-06
-4.6771114e-07
-2.2669857e-07
3.3841298e-06
-6.3280825e-07
-3.0573073e-07
4.6471569e-06
-8.5253942e-07
-4.1048768e-07
6.3405878e-06
-1.1443891e-06
-5.4904194e-07
8.6037922e-06
-1.5312821e-06
-7.3192288e-07
1.1619844e-05
-2.0432165e-06
-9.7283616e-07
1.5628781e-05
-2.7193579e-06
-1.2895811e-06
2.0944707e-05
-3.6107131e-06
-1.705215e-06
2.797775e-05
-4.7835236e-06
-2.2495215e-06
3.7262141e-05
-6.3235418e-06
-2.9608514e-06
4.9491934e-05
-8.3413817e-06
-3.8884123e-06
6.5566181e-05
-1.0979155e-05
-5.0950933e-06
8.6645718e-05
-1.4418622e-05
-6.6609171e-06
0.00011422403
-1.8891102e-05
-8.6872153e-06
0.00015021501
-2.4689368e-05
-1.1301622e-05
0.00019706074
-3.2181777e-05
-1.4663973e-05
0.00025786272
-4.1828802e-05
-1.8973196e-05
0.00033654012
-5.4202151e-05
-2.447525e-05
0.00043801888
-7.0006595e-05
-3.1472169e-05
0.00056845575
-9.0104612e-05
-4.0332267e-05
0.00073550126
-0.00011554396
-5.1501561e-05
0.00094860614
-0.00014758839
-6.5516508e-05
0.0012193761
-0.00018775177
-8.3018219e-05
0.0015619806
-0.00023783613
-0.0001047684
0.0019936222
-0.00029997432
-0.00013166738
0.0025350749
-0.00037667823
-0.00016477451
0.0032113005
-0.00047089341
-0.00020533216
0.0040521533
-0.0005860621
-0.00025479081
0.0050931912
-0.00072619285
-0.00031484506
0.0063765902
-0.00089594502
-0.0003874541
0.0079522165
-0.0011007147
-0.00047491169
0.0098787704
-0.0013467153
-0.00057983876
0.012225258
-0.0016412055
-0.00070528187
0.015072256
-0.0019921869
-0.00085481126
0.018513974
-0.0024093798
-0.0010323384
0.022659971
-0.0029032239
-0.0012427725
0.027635656
-0.0034850808
-0.0014906044
0.033595203
-0.004175606
-0.0017839409
0.040684953
-0.0049660154
-0.0021237335
-0.0059694297
0.049189782
-0.0025353983
2.2428081e-09
-3.7069115e-09
1.0316974e-08
-1.3346323e-08
2.678709e-08
-2.7227814e-08
5.5134338e-08
-4.686877e-08
1.0006233e-07
-7.4294659e-08
1.6790196e-07
-1.1220315e-07
2.6714672e-07
-1.6418128e-07
4.0915965e-07
-2.3499127e-07
6.0910565e-07
-3.3094619e-07
8.871798e-07
-4.6040364e-07
1.2702232e-06
-6.3441244e-07
1.7938458e-06
-8.6755961e-07
2.5052109e-06
-1.1790762e-06
3.4666814e-06
-1.5942787e-06
4.7605861e-06
-2.1464442e-06
6.4954356e-06
-2.879239e-06
8.8140107e-06
-3.849858e-06
1.1903859e-05
-5.1330667e-06
1.6010877e-05
-6.8263774e-06
2.1456814e-05
-9.056652e-06
2.866176e-05
-1.1988471e-05
3.8172888e-05
-1.5834672e-05
5.070102e-05
-2.0869515e-05
6.7166866e-05
-2.7445004e-05
8.8759146e-05
-3.601091e-05
0.00011700712
-4.713909e-05
0.00015387041
-6.1552671e-05
0.00020184928
-8.0160665e-05
0.00026411894
-0.00010409847
0.00034469148
-0.0001347747
0.00044860943
-0.00017392457
0.00058217503
-0.00022367024
0.00075321935
-0.00028658834
0.00097141601
-0.00036578513
0.0012486444
-0.00046498024
0.0015994081
-0.00058860001
0.0020413162
-0.00074188249
0.0025956338
-0.00093099597
0.0032879146
-0.0011631744
0.0041487234
-0.0014468711
0.0052144664
-0.0017919362
0.0065283334
-0.0022098124
0.0081413901
-0.0027137717
0.01011377
-0.0033190955
0.012516155
-0.0040435907
0.01543114
-0.0049071717
0.018955219
-0.0059334573
0.023200828
-0.0071488309
0.028296331
-0.0085805813
0.034400214
-0.010279485
0.041662146
-0.012227942
-0.014681687
0.050374412
2.3063027e-09
-6.0132184e-09
1.060894e-08
-2.1648975e-08
2.7544831e-08
-4.4163728e-08
5.6693253e-08
-7.6017221e-08
1.0289003e-07
-1.2049147e-07
1.7264374e-07
-1.8195689e-07
2.746857e-07
-2.6622328e-07
4.206963e-07
-3.8100191e-07
6.2626309e-07
-5.3651301e-07
9.1214251e-07
-7.4628308e-07
1.3059196e-06
-1.0281896e-06
1.8441887e-06
-1.4058286e-06
2.5754124e-06
-1.9102999e-06
3.5636671e-06
-2.5825334e-06
4.8935345e-06
-3.4763118e-06
6.6764841e-06
-4.662189e-06
9.0591747e-06
-6.2325495e-06
1.2234225e-05
-8.3081186e-06
1.6454148e-05
-1.1046302e-05
2.2049308e-05
-1.4651814e-05
2.945098e-05
-1.9390145e-05
3.9220822e-05
-2.5604516e-05
5.2088357e-05
-3.3737052e-05
6.8998369e-05
-4.435502e-05
9.1170459e-05
-5.8183008e-05
0.00012017336
-7.6142e-05
0.00015801694
-9.9396267e-05
0.00020726522
-0.00012940895
0.00027117387
-0.00016800713
0.00035385615
-0.00021745699
0.00046048119
-0.00028054962
0.00059750881
-0.00036069789
0.00077296544
-0.000462045
0.00099676558
-0.00058958531
0.0012810843
-0.00074929904
0.0016407869
-0.00094830259
0.002093922
-0.0011950177
0.0026622885
-0.0014993625
0.0033720847
-0.0018729707
0.0042546527
-0.0023294392
0.0053473318
-0.0028846154
0.0066944341
-0.0035569147
0.0083483624
-0.0043677001
0.010370861
-0.0053415944
0.012834517
-0.0065072466
0.015824232
-0.0078968869
0.019439166
-0.0095483905
0.023795084
-0.011504748
0.029023987
-0.013809484
0.035289161
-0.016544658
0.042745244
-0.019684024
-0.02362741
0.051690969
2.3806444e-09
-8.3938669e-09
1.0950758e-08
-3.0219103e-08
2.8431874e-08
-6.1644867e-08
5.8517653e-08
-1.0610303e-07
1.06198e-07
-1.6817186e-07
1.7818798e-07
-2.5394691e-07
2.8349485e-07
-3.7153019e-07
4.3416678e-07
-5.3167388e-07
6.4627972e-07
-7.4862599e-07
9.4123721e-07
-1.0412406e-06
1.3474805e-06
-1.4344328e-06
1.902733e-06
-1.9610811e-06
2.6569454e-06
-2.6645123e-06
3.6761482e-06
-3.6017362e-06
5.047489e-06
-4.8476527e-06
6.8857957e-06
-6.5004961e-06
9.3421158e-06
-8.6888703e-06
1.2614792e-05
-1.1580796e-05
1.6963783e-05
-1.5395295e-05
2.2729121e-05
-2.0417154e-05
3.0354595e-05
-2.7015622e-05
4.0418022e-05
-3.5667945e-05
5.3669722e-05
-4.6988756e-05
7.1081168e-05
-6.176647e-05
9.3906083e-05
-8.1007928e-05
0.00012375667
-0.0001059926
0.00016269799
-0.00013833759
0.00021336378
-0.00018007476
0.00027909754
-0.00023374091
0.00036412259
-0.00030248205
0.00047374541
-0.00039017246
0.00061459657
-0.00050154908
0.0007949137
-0.00064236216
0.0010248716
-0.00081954327
0.0013169649
-0.0010413924
0.0016864496
-0.0013177873
0.0021518507
-0.0016604188
0.002735546
-0.0020830579
0.0034644356
-0.0026018604
0.004370711
-0.0032357146
0.0054927368
-0.0040066412
0.0068760645
-0.0049402426
0.0085745843
-0.0060662199
0.010651844
-0.007418854
0.013182585
-0.0090379879
0.01625433
-0.010968632
0.019969329
-0.013263389
0.024447146
-0.015982565
0.029824204
-0.019186542
0.036269038
-0.022989491
0.043943104
-0.027358088
-0.032834809
0.053150504
2.4662554e-09
-1.0860127e-08
1.134427e-08
-3.9097132e-08
2.9452785e-08
-7.9753406e-08
6.0616857e-08
-1.3726713e-07
1.1000317e-07
-2.175582e-07
1.8456369e-07
-3.2850748e-07
2.9362195e-07
-4.805885e-07
4.4964681e-07
-6.8769878e-07
6.6927252e-07
-9.6825174e-07
9.7464184e-07
-1.3466099e-06
1.3951716e-06
-1.8549626e-06
1.9698711e-06
-2.5357806e-06
2.7503808e-06
-3.445022e-06
3.8049496e-06
-4.656305e-06
5.2236277e-06
-6.266331e-06
7.1250369e-06
-8.4019056e-06
9.6651704e-06
-1.1229005e-05
1.3048804e-05
-1.4964431e-05
1.7544245e-05
-1.9890738e-05
2.3502333e-05
-2.6375243e-05
3.1380811e-05
-3.4894102e-05
4.1775458e-05
-4.6062595e-05
5.5459651e-05
-6.0672952e-05
7.343435e-05
-7.9741173e-05
9.6990881e-05
-0.00010456446
0.0001277892
-0.00013679093
0.0001679548
-0.0001785032
0.00022019758
-0.00023231756
0.00028795666
-0.0003015
0.00037557489
-0.00039010031
0.00048850763
-0.00050310523
0.00063357008
-0.00064661155
0.00081922802
-0.00082802014
0.0010559372
-0.0010562525
0.001356537
-0.0013419922
0.0017367051
-0.0016979555
0.0022154817
-0.0021391955
0.0028158717
-0.002683448
0.003565538
-0.0033515267
0.0044975984
-0.0041677751
0.0056515407
-0.0051605836
0.0070742819
-0.0063629839
0.0088213591
-0.0078132972
0.01095833
-0.0095558244
0.01356236
-0.011642018
0.016723925
-0.014130197
0.020548821
-0.017088285
0.025160918
-0.020594662
0.030701881
-0.024727504
0.037346008
-0.029633618
0.045263417
-0.035275495
-0.042334044
0.054762653
2.5639458e-09
-1.3424077e-08
1.1793228e-08
-4.8326428e-08
3.0617336e-08
-9.8577538e-08
6.3010965e-08
-1.6966079e-07
1.1434198e-07
-2.6888926e-07
1.918317e-07
-4.0599724e-07
3.0516275e-07
-5.939196e-07
4.6728165e-07
-8.4981774e-07
6.9545563e-07
-1.1964258e-06
1.0126644e-06
-1.6638188e-06
1.4494284e-06
-2.2917266e-06
2.0462093e-06
-3.1325615e-06
2.8565542e-06
-4.2553668e-06
3.9512093e-06
-5.7509602e-06
5.4234896e-06
-7.7386114e-06
7.3962742e-06
-1.037469e-05
1.0031095e-05
-1.3863826e-05
1.3539921e-05
-1.8473257e-05
1.8200371e-05
-2.4551191e-05
2.4375313e-05
-3.2550187e-05
3.2537976e-05
-4.3056769e-05
4.3304034e-05
-5.6828656e-05
5.747232e-05
-7.4841241e-05
7.6076283e-05
-9.8345141e-05
0.00010044854
-0.00012893673
0.00013230136
-0.00016864376
0.00017382623
-0.00022002808
0.00022781603
-0.00028630738
0.00029781374
-0.00037149773
0.00038829177
-0.00048057837
0.00050486646
-0.00061967995
0.00065455231
-0.00079629742
0.00084606104
-0.0010195289
0.001090151
-0.0013003425
0.0014000327
-0.001651874
0.0017918387
-0.0020897615
0.0022851643
-0.0026325212
0.0029036928
-0.0033019765
0.0036759133
-0.0041237473
0.0046359514
-0.0051278132
0.0058245212
-0.0063491535
0.007290038
-0.0078285007
0.0090898538
-0.0096131129
0.011291753
-0.011757723
0.01397561
-0.014325875
0.017235206
-0.017389793
0.021180358
-0.021033437
0.025939783
-0.025354086
0.031661224
-0.030448944
0.038525315
-0.036497708
0.04671263
-0.043462809
-0.052156753
0.05653534
2.6743074e-09
-1.6098389e-08
1.2300363e-08
-5.7952498e-08
3.1932623e-08
-1.1820982e-07
6.5714584e-08
-2.0344278e-07
1.1924091e-07
-3.2241562e-07
2.0003628e-07
-4.8679266e-07
3.1818792e-07
-7.1207129e-07
4.8717955e-07
-1.0188094e-06
7.2499027e-07
-1.4342365e-06
1.0555395e-06
-1.9943681e-06
1.5105868e-06
-2.746774e-06
2.1322218e-06
-3.7541964e-06
2.9761265e-06
-5.0992715e-06
4.1158407e-06
-6.8906744e-06
5.6483258e-06
-9.2710966e-06
7.7012086e-06
-1.2427574e-05
1.0442193e-05
-1.6604811e-05
1.4091239e-05
-2.2122305e-05
1.8936301e-05
-2.9396254e-05
2.5353563e-05
-3.8967452e-05
3.3833374e-05
-5.1536584e-05
4.5013332e-05
-6.8008617e-05
5.9720278e-05
-8.9548191e-05
7.9023292e-05
-0.00011764816
0.00010430018
-0.00015421363
0.00013732031
-0.0002016639
0.00018034701
-0.0002630548
0.00023626325
-0.00034222364
0.00030872452
-0.00044395902
0.00040234324
-0.00057419711
0.00052290935
-0.00074024608
0.0006776519
-0.00095104001
0.00087554705
-0.0012174241
0.0011276781
-0.0015524736
0.0014476546
-0.0019718505
0.0018520971
-0.0024942041
0.0023611989
-0.0031416231
0.0029993734
-0.0039401511
0.003796003
-0.004920377
0.0047863047
-0.006118115
0.0060123257
-0.0075751745
0.0075241178
-0.0093402928
0.0093810209
-0.011470016
0.011653272
-0.014029975
0.014423749
-0.017096351
0.017789902
-0.020755945
0.021866059
-0.025109594
0.026786342
-0.030274368
0.032705416
-0.036368018
0.039810861
-0.043603153
0.048295404
-0.05194735
-0.062335443
0.058474094
2.7979886e-09
-1.8896382e-08
1.2868637e-08
-6.8023161e-08
3.3406328e-08
-1.3874754e-07
6.8743423e-08
-2.3877991e-07
1.2472832e-07
-3.7840055e-07
2.0922493e-07
-5.7128932e-07
3.3277241e-07
-8.3561882e-07
5.0945443e-07
-1.1954915e-06
7.5804416e-07
-1.6828263e-06
1.1035096e-06
-2.3398335e-06
1.5789898e-06
-3.2222543e-06
2.2283868e-06
-4.4035934e-06
3.109757e-06
-5.9806417e-06
4.2997428e-06
-8.0806603e-06
5.8993511e-06
-1.0870705e-05
8.0414719e-06
-1.4569695e-05
1.0900635e-05
-1.9463975e-05
1.4705635e-05
-2.5927306e-05
1.9755825e-05
-3.4446447e-05
2.6442056e-05
-4.5653686e-05
3.5273492e-05
-6.0368024e-05
4.6911789e-05
-7.9646917e-05
6.2214436e-05
-0.00010485084
8.2289442e-05
-0.00013772317
0.00010856386
-0.00018048805
0.00014286911
-0.00023596916
0.00018754644
-0.00030773214
0.00024557627
-0.0004002535
0.00032073553
-0.00051911831
0.00041778741
-0.00067124902
0.00054270842
-0.00086516713
0.00070295784
-0.0011112895
0.00090779517
-0.0014222615
0.0011686518
-0.0018133303
0.0014995638
-0.0023027627
0.0019176751
-0.0029123154
0.002443819
-0.0036677671
0.0031031934
-0.0045995256
0.0039261409
-0.0057433245
0.0049490554
-0.0071410296
0.0062154263
-0.0088415454
0.0077770829
-0.010901949
0.0096955279
-0.013388461
0.012043681
-0.016378128
0.01490772
-0.01996039
0.018389135
-0.024237359
0.022607254
-0.029327713
0.027702176
-0.03536929
0.033836307
-0.042502148
0.041204812
-0.050971657
0.050014109
-0.060756646
-0.072902711
0.060581378
2.935431e-09
-2.1831817e-08
1.3500084e-08
-7.8587829e-08
3.5043786e-08
-1.6029126e-07
7.2108521e-08
-2.7584468e-07
1.3082417e-07
-4.3711624e-07
2.1943105e-07
-6.5989626e-07
3.4896923e-07
-9.6515705e-07
5.3418735e-07
-1.3807097e-06
7.9473778e-07
-1.9433768e-06
1.1567485e-06
-2.7018444e-06
1.6548851e-06
-3.7203908e-06
2.3350518e-06
-5.0837601e-06
3.2579265e-06
-6.9035165e-06
4.5035748e-06
-9.3263087e-06
6.1774633e-06
-1.2544594e-05
8.4182739e-06
-1.6810506e-05
1.1408043e-05
-2.2453745e-05
1.5385268e-05
-2.9904533e-05
2.06618e-05
-3.9722982e-05
2.7644555e-05
-5.2636443e-05
3.6863259e-05
-6.9586731e-05
4.9005815e-05
-9.1789478e-05
6.4963102e-05
-0.00012080813
8.5885431e-05
-0.00015864551
0.00011325325
-0.00020785588
0.00014896514
-0.00027168106
0.00019544648
-0.0003542135
0.00025578265
-0.00046058969
0.00033388108
-0.00059721677
0.00043466667
-0.00077203465
0.00056431565
-0.00099481615
0.00073053332
-0.0012775072
0.00094288156
-0.0016346098
0.0012131628
-0.0020836116
0.0015558682
-0.0026454682
0.001988699
-0.0033451462
0.0025331719
-0.00421224
0.0032153223
-0.005281676
0.0040665207
-0.006594523
0.0051244236
-0.0081989325
0.0064340701
-0.010151192
0.0080492086
-0.012517088
0.010033676
-0.015372929
0.012463304
-0.018807755
0.015427866
-0.022924953
0.019033253
-0.027842746
0.023404274
-0.033698734
0.028687568
-0.040652583
0.035054061
-0.048868641
0.042707145
-0.05862474
0.051868268
-0.069917768
-0.083890319
0.062855877
3.0869802e-09
-2.4918802e-08
1.4196345e-08
-8.9697209e-08
3.6849002e-08
-1.8294395e-07
7.5818077e-08
-3.1481378e-07
1.3754346e-07
-4.9884167e-07
2.3067948e-07
-7.5303233e-07
3.6681773e-07
-1.1012954e-06
5.6143751e-07
-1.5753295e-06
8.3515827e-07
-2.2170977e-06
1.2153824e-06
-3.0820685e-06
1.7384505e-06
-4.2434591e-06
2.4524643e-06
-5.797774e-06
3.4209764e-06
-7.8720286e-06
4.7278017e-06
-1.0633134e-05
6.4832858e-06
-1.4300078e-05
8.832447e-06
-1.9159667e-05
1.196552e-05
-2.5586819e-05
1.6131588e-05
-3.4070602e-05
2.1656126e-05
-4.5247523e-05
2.8963521e-05
-5.9943842e-05
3.8605848e-05
-7.9229063e-05
5.1299487e-05
-0.00010448312
6.7971468e-05
-0.00013748012
8.9817825e-05
-0.00018049187
0.00011837662
-0.00023641468
0.00015561872
-0.00030892317
0.00020405986
-0.00040265465
0.00026689795
-0.00052342781
0.00034818
-0.00067849886
0.00045300349
-0.00087685819
0.00058775743
-0.0011295701
0.00076040877
-0.0014501586
0.00098084054
-0.0018550416
0.001261249
-0.0023640201
0.0016166077
-0.003000827
0.0020652092
-0.0037937478
0.0026292953
-0.0047763261
0.0033357912
-0.005988172
0.0042171612
-0.007475893
0.0053124067
-0.009294178
0.0066682217
-0.011507007
0.0083404116
-0.014189278
0.010395311
-0.017427828
0.012911882
-0.021324325
0.015983781
-0.025996852
0.019721645
-0.031580608
0.024256213
-0.038233302
0.029741202
-0.046137573
0.036356772
-0.05548421
0.044315166
-0.066583134
0.053853967
-0.079456568
-0.09532811
0.065291759
3.2527672e-09
-2.8171574e-08
1.4957873e-08
-1.0140233e-07
3.8823517e-08
-2.0680962e-07
7.9875106e-08
-3.5586541e-07
1.4489131e-07
-5.6385791e-07
2.42979e-07
-8.5112006e-07
3.8633134e-07
-1.2446478e-06
5.9122579e-07
-1.7802241e-06
8.7933631e-07
-2.5052083e-06
1.2794545e-06
-3.4821868e-06
1.8297467e-06
-4.7937514e-06
2.5807084e-06
-6.5487357e-06
3.5990192e-06
-8.8903395e-06
4.9725729e-06
-1.2006688e-05
6.8170195e-06
-1.6144525e-05
9.2842542e-06
-2.1626902e-05
1.2573408e-05
-2.8875973e-05
1.6945032e-05
-3.8442228e-05
2.2739347e-05
-5.104184e-05
3.0399633e-05
-6.7604131e-05
4.0502093e-05
-8.9331527e-05
5.3793802e-05
-0.00011777484
7.1240697e-05
-0.00015492702
9.4087937e-05
-0.00020333912
0.00012393536
-0.00026626212
0.00016283122
-0.00034781904
0.00021338775
-0.0004532112
0.00027892279
-0.00058896288
0.00036363183
-0.00076320793
0.00047279556
-0.00098602195
0.00061302837
-0.001269803
0.00079257396
-0.0016297042
0.0010216546
-0.0020841223
0.001312882
-0.0026552475
0.0016817384
-0.0033696835
0.0021471397
-0.0042591491
0.0027320922
-0.0053612787
0.0034644605
-0.0067205403
0.0043778645
-0.008389297
0.0055127288
-0.010429042
0.0069174999
-0.012911778
0.0086501702
-0.015921948
0.010779718
-0.019557376
0.013388446
-0.023933053
0.016574153
-0.029182559
0.020452533
-0.035458988
0.025160663
-0.042941432
0.030859828
-0.051836737
0.037740032
-0.062364414
0.046022974
-0.074866075
0.055963241
-0.089396834
-0.10724283
0.067877965
3.4326543e-09
-3.1604232e-08
1.5784197e-08
-1.1375389e-07
4.0965762e-08
-2.3199121e-07
8.4276579e-08
-3.9917626e-07
1.5286237e-07
-6.3244375e-07
2.5632027e-07
-9.5457801e-07
4.0749532e-07
-1.3958229e-06
6.2352915e-07
-1.996258e-06
9.2723695e-07
-2.8089161e-06
1.3489134e-06
-3.9038633e-06
1.9287007e-06
-5.3735387e-06
2.7196791e-06
-7.3397142e-06
3.791907e-06
-9.9625675e-06
5.2376822e-06
-1.3452463e-05
7.1783742e-06
-1.8085217e-05
9.7732914e-06
-2.422182e-05
1.3231145e-05
-3.2333827e-05
1.7824827e-05
-4.303591e-05
2.3910404e-05
-5.712742e-05
3.1951442e-05
-7.5645172e-05
4.2550006e-05
-9.9930096e-05
5.6486033e-05
-0.00013171087
7.4767062e-05
-0.00017320806
9.8690681e-05
-0.00022726274
0.00012992255
-0.000297494
0.00017059318
-0.00038848969
0.00022341726
-0.0005060353
0.00029183964
-0.00065738529
0.00038021271
-0.00085158105
0.00049401042
-0.0010998197
0.00064008446
-0.0014158771
0.00082696936
-0.0018165892
0.0010652433
-0.0023223963
0.0013679534
-0.0029579576
0.0017511148
-0.0037528449
0.0022342957
-0.0047423301
0.0028413028
-0.0059682858
0.0036009844
-0.0074802219
0.0045481725
-0.0093364851
0.0057247847
-0.011605655
0.0071811079
-0.014368101
0.0089774361
-0.017718276
0.011185517
-0.021765457
0.013891178
-0.026638713
0.017196583
-0.032487964
0.021222752
-0.039485157
0.026113438
-0.047832117
0.032037898
-0.057761197
0.039196476
-0.069522992
0.047820892
-0.083490491
0.058183468
-0.099759409
-0.11965715
0.07059778
3.6262369e-09
-3.5230474e-08
1.6673367e-08
-1.2680103e-07
4.3270931e-08
-2.5858879e-07
8.9012481e-08
-4.4491784e-07
1.6143851e-07
-7.0486982e-07
2.7067291e-07
-1.0638125e-06
4.3026136e-07
-1.5554114e-06
6.5827383e-07
-2.2242705e-06
9.7875056e-07
-3.1293929e-06
1.4236002e-06
-4.348713e-06
2.0350817e-06
-5.9850203e-06
2.8690501e-06
-8.1736827e-06
3.9991848e-06
-1.1092702e-05
5.5224963e-06
-1.4975775e-05
7.5664786e-06
-2.0129199e-05
1.0298369e-05
-2.6953711e-05
1.3937114e-05
-3.5972573e-05
1.8768782e-05
-4.786758e-05
2.5166342e-05
-6.3524982e-05
3.3614962e-05
-8.4093795e-05
4.4744237e-05
-0.00011105938
5.9369035e-05
-0.00014633567
7.8541023e-05
-0.00019238005
0.00010361335
-0.00025233507
0.00013632127
-0.00033020193
0.00017888217
-0.0004310506
0.00023411866
-0.00056127181
0.00030560915
-0.00072887581
0.0003978707
-0.00094384265
0.00051657961
-0.0012185287
0.00066883558
-0.0015681331
0.00086347648
-0.0020112301
0.0011114512
-0.0025703711
0.0014262597
-0.0032727661
0.0018244704
-0.0041510557
0.002326329
-0.0052441887
0.0029564731
-0.0065984299
0.0037447719
-0.0082685208
0.0047273172
-0.01031903
0.0059475785
-0.012825916
0.0074577594
-0.015878282
0.0093205403
-0.019581057
0.011610535
-0.024055452
0.014417262
-0.02944544
0.017847398
-0.035918099
0.022027513
-0.043665272
0.027108267
-0.05291287
0.033267189
-0.063920119
0.04071529
-0.076971092
0.04969487
-0.092470072
0.060496984
-0.11056152
-0.13259885
0.073438686
3.8327675e-09
-3.9063245e-08
1.762192e-08
-1.405902e-07
4.5729762e-08
-2.8669666e-07
9.4063666e-08
-4.9325177e-07
1.7058488e-07
-7.8139107e-07
2.8597876e-07
-1.1792064e-06
4.5453731e-07
-1.72397e-06
6.9531808e-07
-2.4650513e-06
1.0336662e-06
-3.4677412e-06
1.5032079e-06
-4.8182548e-06
2.1484543e-06
-6.6302667e-06
3.0282081e-06
-9.0534365e-06
4.2199964e-06
-1.2284491e-05
5.8258382e-06
-1.6581617e-05
7.9797237e-06
-2.2283085e-05
1.0857299e-05
-2.9831286e-05
1.4688359e-05
-3.9803634e-05
1.9772918e-05
-5.295214e-05
2.6501827e-05
-7.0253892e-05
3.538309e-05
-9.2975061e-05
4.7075348e-05
-0.00012275164
6.2430277e-05
-0.00016169061
8.2546007e-05
-0.00021249579
0.00010883405
-0.00027862312
0.00014310271
-0.0003644706
0.00018766032
-0.00047560823
0.00024544229
-0.0006190538
0.0003201663
-0.00080359985
0.0004165208
-0.0010401972
0.00054039219
-0.0013424001
0.00069913721
-0.0017268782
0.00090190745
-0.0022140004
0.0011600344
-0.0028284981
0.0014874847
-0.0036002165
0.0019013966
-0.0045649675
0.0024227121
-0.0057655043
0.0030769222
-0.00725264
0.0038949451
-0.0090865438
0.0049141677
-0.011338253
0.0061796554
-0.014091404
0.0077455999
-0.017444226
0.009677092
-0.021512549
0.012051673
-0.026430033
0.014962731
-0.032356498
0.018521452
-0.03947682
0.02286015
-0.04800397
0.028136486
-0.058189206
0.034536403
-0.070320036
0.042281672
-0.08471636
0.051625588
-0.10181399
0.062879502
-0.12181544
-0.14609122
0.076371871
4.0510752e-09
-4.3114325e-08
1.8624493e-08
-1.5516363e-07
4.8328652e-08
-3.1640084e-07
9.9402496e-08
-5.4432565e-07
1.8025133e-07
-8.6223995e-07
3.0215352e-07
-1.3011086e-06
4.8018855e-07
-1.9020051e-06
7.3445713e-07
-2.71932e-06
1.0916807e-06
-3.8249648e-06
1.5872939e-06
-5.3138681e-06
2.2681846e-06
-7.3111574e-06
3.1962602e-06
-9.9815121e-06
4.4530989e-06
-1.3541329e-05
6.1459882e-06
-1.8274506e-05
8.4157519e-06
-2.4552849e-05
1.1446872e-05
-3.2862407e-05
1.5480534e-05
-4.3837296e-05
2.0831389e-05
-5.8302996e-05
2.7909026e-05
-7.7331531e-05
3.7245353e-05
-0.00010231139
4.9529393e-05
-0.00013503568
6.565127e-05
-0.00017781249
8.6757566e-05
-0.00023360209
0.00011432058
-0.00030618615
0.00015022452
-0.00040037455
0.00019687208
-0.0005222558
0.00025731546
-0.0006794972
0.00033541627
-0.00088170069
0.0004360396
-0.0011408206
0.00056528795
-0.0014716485
0.00073078178
-0.0018923721
0.00094199387
-0.0024252126
0.0012106467
-0.003097151
0.0015511827
-0.0039407525
0.00198132
-0.0049951049
0.0025227089
-0.0063068932
0.0032017067
-0.0079316378
0.0040502949
-0.0099351321
0.0051071737
-0.012395132
0.0064190307
-0.015403261
0.0080421324
-0.019067328
0.010043877
-0.023514293
0.012504751
-0.028890907
0.015522328
-0.035374074
0.019211915
-0.043166407
0.023711868
-0.052503923
0.029186727
-0.063664065
0.035830769
-0.076964078
0.043876257
-0.092761847
0.053587066
-0.1115248
0.065292641
-0.13352101
-0.16012106
0.079322489
4.2794689e-09
-4.7393798e-08
1.9673454e-08
-1.7055763e-07
5.1047538e-08
-3.4777495e-07
1.0498727e-07
-5.9826541e-07
1.903627e-07
-9.4761542e-07
3.1907123e-07
-1.4298172e-06
5.0701562e-07
-2.0899495e-06
7.7538551e-07
-2.98769e-06
1.152339e-06
-4.2019184e-06
1.6752008e-06
-5.83673e-06
2.3933354e-06
-8.0292921e-06
3.3718889e-06
-1.0960066e-05
4.6966628e-06
-1.4866103e-05
6.4804311e-06
-2.0058274e-05
8.8711339e-06
-2.6943551e-05
1.2062445e-05
-3.6053718e-05
1.6307388e-05
-4.8082239e-05
2.1935818e-05
-6.3931427e-05
2.9376766e-05
-8.4772481e-05
3.9186918e-05
-0.00011212155
5.2086746e-05
-0.00014793551
6.9006124e-05
-0.00019473187
9.1141639e-05
-0.00025573761
0.00012002824
-0.00033507275
0.0001576282
-0.00043797452
0.00020644109
-0.00057106871
0.00026963873
-0.00074269486
0.00035122981
-0.00096329178
0.00045625946
-0.0012458502
0.00059104998
-0.0016064391
0.00076348922
-0.0020648113
0.00098337496
-0.0026450984
0.0012628242
-0.0033766003
0.0016167586
-0.004294687
0.0020634793
-0.0054418256
0.0026253465
-0.0068687604
0.0033295849
-0.0086358762
0.0042092371
-0.010814784
0.0053043049
-0.0134902
0.0066630839
-0.016762039
0.0083440434
-0.020748287
0.010416563
-0.025586813
0.012964618
-0.031438961
0.016089412
-0.038498868
0.019910054
-0.046987049
0.024571492
-0.05716536
0.030244615
-0.069337188
0.037131708
-0.083851171
0.045474886
-0.10110502
0.055547585
-0.12159749
0.067694021
-0.14566745
-0.17466101
0.08223397
4.5159116e-09
-5.1909713e-08
2.0759258e-08
-1.8680099e-07
5.3861873e-08
-3.8087759e-07
1.1076767e-07
-6.5517124e-07
2.0082716e-07
-1.0376749e-06
3.3657842e-07
-1.5655685e-06
5.3477442e-07
-2.2881456e-06
8.1773038e-07
-3.270646e-06
1.2150881e-06
-4.5992761e-06
1.7661235e-06
-6.3877655e-06
2.522756e-06
-8.7859246e-06
3.553473e-06
-1.1990783e-05
4.948426e-06
-1.6261056e-05
6.8260452e-06
-2.1935893e-05
9.3415915e-06
-2.9459098e-05
1.2698195e-05
-3.9410322e-05
1.7161048e-05
-5.2545092e-05
2.3075609e-05
-6.9845989e-05
3.0890852e-05
-9.2587725e-05
4.1188845e-05
-0.00012241954
5.4722237e-05
-0.00016146891
7.2461498e-05
-0.00021247114
9.5654235e-05
-0.00027893035
0.00012589915
-0.00036531767
0.00016523788
-0.00047731325
0.00021626819
-0.00062209904
0.0002822829
-0.00080870958
0.00036743902
-0.0010484479
0.00047696291
-0.0013553742
0.00061739726
-0.0017468735
0.00079689746
-0.0022443116
0.0010255853
-0.0028737862
0.0013159701
-0.0036669852
0.0016834488
-0.0046621657
0.0021468991
-0.0059052759
0.0027293821
-0.0074512434
0.0034589751
-0.0093654693
0.0043697566
-0.011725566
0.0055029621
-0.014623405
0.00690833
-0.018167407
0.0086466504
-0.022486608
0.010789758
-0.02772992
0.013424974
-0.034074176
0.01665499
-0.041728884
0.020604872
-0.050936931
0.025425194
-0.061985681
0.031292485
-0.075204478
0.038416514
-0.090975201
0.047048329
-0.10973684
0.057469736
-0.1320189
0.070037198
-0.15823491
-0.18968584
0.085062023
4.7574389e-09
-5.6667156e-08
2.1868364e-08
-2.0391192e-07
5.6736371e-08
-4.1574561e-07
1.1667167e-07
-7.1510656e-07
2.1151464e-07
-1.132518e-06
3.5445712e-07
-1.7085111e-06
5.6311961e-07
-2.4968082e-06
8.6096499e-07
-3.5684914e-06
1.2791469e-06
-5.0174582e-06
1.8589291e-06
-6.9675478e-06
2.6548349e-06
-9.5818304e-06
3.738751e-06
-1.3074699e-05
5.2052575e-06
-1.7727563e-05
7.178532e-06
-2.3909168e-05
9.8212761e-06
-3.2101842e-05
1.3346217e-05
-4.2935262e-05
1.8030892e-05
-5.7229767e-05
2.4236571e-05
-7.605167e-05
3.2432412e-05
-0.00010078357
4.3226145e-05
-0.00013321328
5.7402889e-05
-0.00017564565
7.5974039e-05
-0.00023104229
0.0001002385
-0.00030319482
0.00013185901
-0.00039693818
0.00017295662
-0.00051841087
0.00022622725
-0.00067536968
0.00029508421
-0.00087756655
0.0003838319
-0.0011371956
0.00049787599
-0.0014694183
0.00064397669
-0.0018929742
0.00083055236
-0.0024308873
0.0010680423
-0.0031112762
0.0013693389
-0.0039682818
0.0017503017
-0.0050431286
0.0022303683
-0.0063853425
0.0028332803
-0.0080541554
0.0035879472
-0.010120136
0.0045294775
-0.012667096
0.0057004099
-0.015794337
0.0071524039
-0.019619401
0.0089469643
-0.024281168
0.011157028
-0.029939984
0.013874373
-0.03679152
0.017206785
-0.045061296
0.021283514
-0.05501366
0.02625643
-0.066958597
0.032309156
-0.081257204
0.039658064
-0.098324109
0.048561854
-0.11864063
0.059309267
-0.14276631
0.072266562
-0.1711922
-0.2051566
0.087737328
5.0009583e-09
-6.1668118e-08
2.2986524e-08
-2.218975e-07
5.9634217e-08
-4.5239333e-07
1.2262279e-07
-7.7809516e-07
2.2228633e-07
-1.2321815e-06
3.7247437e-07
-1.8586991e-06
5.9168071e-07
-2.7160145e-06
9.0452187e-07
-3.8813327e-06
1.3436724e-06
-5.4566087e-06
1.9523912e-06
-7.5762667e-06
2.7878163e-06
-1.0417256e-05
3.9252456e-06
-1.4212128e-05
5.4636979e-06
-1.9266015e-05
7.5331075e-06
-2.5978578e-05
1.0303623e-05
-3.4872357e-05
1.3997569e-05
-4.6629208e-05
1.8904805e-05
-6.2137004e-05
2.5402381e-05
-8.2549245e-05
3.397955e-05
-0.00010936074
4.5269566e-05
-0.00014450329
6.0089782e-05
-0.00019046587
7.9492153e-05
-0.00025044467
0.00010482632
-0.00032852899
0.00013781815
-0.00042993002
0.00018066691
-0.00056125964
0.00023616473
-0.00073086752
0.00030784281
-0.00094924465
0.00040014911
-0.001229502
0.00051866336
-0.0015879326
0.00067035597
-0.0020446668
0.0008638983
-0.0026244297
0.0011100337
-0.0033574116
0.0014220196
-0.0042802677
0.0018161544
-0.0054372634
0.0023124043
-0.0068815924
0.0029351496
-0.0086769008
0.0037140744
-0.010899061
0.0046852283
-0.01363825
0.0058922862
-0.017001395
0.0073879896
-0.021115104
0.009235222
-0.0261284
0.011511558
-0.03221632
0.014309619
-0.03958958
0.017738398
-0.048490076
0.021931487
-0.059206748
0.027045852
-0.072072962
0.033269717
-0.087481069
0.04082456
-0.10587895
0.049974939
-0.12779101
0.061014699
-0.15380607
0.074317016
-0.18449452
-0.22101626
0.090176675
5.241798e-09
-6.690992e-08
2.4092357e-08
-2.4074807e-07
6.249985e-08
-4.9080084e-07
1.2850746e-07
-8.441028e-07
2.3293702e-07
-1.3366111e-06
3.9028777e-07
-2.0160499e-06
6.199148e-07
-2.9456416e-06
9.4757382e-07
-4.2089918e-06
1.4074389e-06
-5.9164738e-06
2.0447382e-06
-8.2135661e-06
2.919184e-06
-1.1291701e-05
4.1094338e-06
-1.5402378e-05
5.718873e-06
-2.0875454e-05
7.8831023e-06
-2.8142807e-05
1.077958e-05
-3.7768834e-05
1.4640049e-05
-5.0489678e-05
1.9766456e-05
-6.7263411e-05
2.6551278e-05
-8.9334068e-05
3.5503431e-05
-0.00011831289
4.7281049e-05
-0.00015628091
6.2732902e-05
-0.00020591773
8.295031e-05
-0.00027066208
0.00010933208
-0.00035491077
0.00014366507
-0.00046426302
0.00018822381
-0.00060581839
0.00024589274
-0.00078853645
0.00032031557
-0.0010236675
0.00041607672
-0.0013252631
0.00053892052
-0.0017107764
0.00069601502
-0.0022017614
0.00089626818
-0.0028246829
0.0011507058
-0.0036118493
0.0014729225
-0.0046024844
0.0018796191
-0.00584396
0.0023912431
-0.0073932164
0.0030327518
-0.0093184095
0.0038345211
-0.01170083
0.0048334262
-0.014637155
0.0060741131
-0.018242082
0.0076104545
-0.022651446
0.0095074523
-0.028025398
0.011844335
-0.034553203
0.014714636
-0.04245988
0.018231305
-0.052006745
0.022529647
-0.06350509
0.027770376
-0.077313691
0.034145211
-0.093855903