/*--------------------------------*- C++ -*----------------------------------*\
  =========                 |
  \\      /  F ield         | OpenFOAM: The Open Source CFD Toolbox
   \\    /   O peration     | Website:  https://openfoam.org
    \\  /    A nd           | Version:  13
     \\/     M anipulation  |
\*---------------------------------------------------------------------------*/
FoamFile
{
    format      ascii;
    class       volVectorField;
    location    "3713";
    object      U;
}
// * * * * * * * * * * * * * * * * * * * * * * * * * * * * * * * * * * * * * //

dimensions      [0 1 -1 0 0 0 0];

internalField   nonuniform List<vector> 
9536
(
(2.1213456e-08 -8.322708e-07 5.5147585e-25)
(3.2677805e-07 -2.6149013e-06 -3.5883432e-25)
(1.0294462e-06 -4.6563617e-06 -1.2785397e-25)
(2.3198806e-06 -6.9950586e-06 -1.4704515e-24)
(4.4120789e-06 -9.677011e-06 3.293916e-24)
(7.6169435e-06 -1.2754333e-05 -3.0687065e-25)
(1.2345876e-05 -1.6286334e-05 -8.7169105e-26)
(1.9146338e-05 -2.03402e-05 -1.0854875e-24)
(2.8744865e-05 -2.499172e-05 -1.0125348e-24)
(4.2102463e-05 -3.0325989e-05 -5.502416e-25)
(6.0486332e-05 -3.6437999e-05 2.0673342e-24)
(8.556234e-05 -4.343309e-05 -3.3849732e-24)
(0.00011951366 -5.1427133e-05 4.3273007e-24)
(0.0001651922 -6.0546348e-05 2.6464333e-24)
(0.00022631082 -7.0926555e-05 -4.492085e-24)
(0.00030768564 -8.2711689e-05 -2.5644993e-24)
(0.00041553911 -9.6051287e-05 3.0587799e-24)
(0.00055787573 -0.00011109665 -3.3705526e-24)
(0.00074494279 -0.00012799525 -5.9230443e-24)
(0.00098978838 -0.00014688308 -2.9038714e-24)
(0.001308927 -0.00016787426 1.0427432e-23)
(0.001723119 -0.00019104772 7.5034468e-24)
(0.0022582638 -0.00021643033 -1.2715714e-23)
(0.0029463942 -0.00024397626 -1.1805613e-23)
(0.0038267443 -0.00027354267 1.9533364e-23)
(0.0049468421 -0.00030486189 -5.8612002e-24)
(0.00636355 -0.00033751123 -1.9388085e-23)
(0.0081439458 -0.00037088189 1.1192691e-23)
(0.010365907 -0.00040414959 -2.1379753e-24)
(0.013118235 -0.00043625016 2.3213785e-23)
(0.016500132 -0.00046586431 -1.5529443e-23)
(0.020619871 -0.00049141594 2.8047862e-23)
(0.025592515 -0.00051108841 9.2166881e-23)
(0.031536617 -0.0005228619 -6.8065452e-23)
(0.038569951 -0.00052457342 1.4141821e-22)
(0.046804448 -0.00051399783 8.3737538e-23)
(0.056340609 -0.00048894599 1.6641341e-23)
(0.067261961 -0.00044737191 -1.7241483e-22)
(0.079629629 -0.0003874794 -1.543224e-22)
(0.09347868 -0.00030782369 -4.002153e-22)
(0.10881358 -0.00020737602 2.7307338e-22)
(0.12561074 -8.5597092e-05 2.7736266e-22)
(0.14380946 5.7547906e-05 -6.57948e-22)
(0.16333527 0.00022183153 -1.4839967e-22)
(0.18405445 0.00040576661 -7.8346535e-22)
(0.20588438 0.00060987259 -1.1944283e-22)
(0.22857077 0.00082969635 -1.3352165e-22)
(0.25215992 0.0010685168 1.270073e-21)
(0.27607466 0.0013172347 -1.1927296e-21)
(0.30088393 0.0015795161 1.7064544e-22)
(0.32515419 0.0018581282 -3.8769219e-22)
(0.35064282 0.0020893845 2.52038e-22)
(3.0600838e-07 -5.8149725e-06 1.6575967e-24)
(1.2223454e-06 -1.8271567e-05 -5.3398384e-25)
(2.6252972e-06 -3.2532733e-05 -1.0041038e-24)
(4.7192658e-06 -4.8869793e-05 -4.3392474e-24)
(7.7342435e-06 -6.759659e-05 2.9558741e-24)
(1.1999512e-05 -8.907058e-05 3.2313318e-24)
(1.7947621e-05 -0.00011369952 2.5968258e-24)
(2.6150347e-05 -0.00014194735 -5.1164143e-24)
(3.7362149e-05 -0.00017434051 2.450128e-24)
(5.2576079e-05 -0.00021147468 8.3852535e-24)
(7.3096062e-05 -0.00025402156 -1.2068614e-23)
(0.00010063 -0.00030273557 8.0852499e-24)
(0.0001374091 -0.00035846018 1.2325533e-24)
(0.00018634002 -0.00042213327 -1.3640078e-23)
(0.0002511979 -0.00049479103 1.0017061e-23)
(0.00033686944 -0.00057756955 -1.4470357e-23)
(0.00044965676 -0.00067170294 1.8118528e-23)
(0.00059765382 -0.00077851681 -3.8329409e-23)
(0.00079120778 -0.0008994154 3.7740934e-23)
(0.0010434773 -0.0010358604 -1.3214568e-23)
(0.001371098 -0.0011893396 5.1659192e-23)
(0.0017949619 -0.0013613222 -8.5761392e-23)
(0.0023411088 -0.0015531998 9.1863483e-23)
(0.003041719 -0.0017662099 -4.027382e-23)
(0.0039361786 -0.0020013414 4.7442566e-23)
(0.0050721676 -0.0022592212 -5.3205949e-23)
(0.0065066952 -0.0025399859 6.339719e-23)
(0.0083069747 -0.0028431414 -5.4762753e-23)
(0.010551 -0.0031674202 3.7974555e-23)
(0.01332766 -0.0035106471 7.2631794e-23)
(0.016736213 -0.0038696309 -1.8116941e-22)
(0.020884943 -0.0042400979 5.4170593e-23)
(0.025888876 -0.0046166866 1.4099543e-23)
(0.031866484 -0.0049930205 1.9851924e-22)
(0.038935406 -0.0053618677 -4.9275363e-22)
(0.047207404 -0.0057153862 -2.1192641e-22)
(0.056782779 -0.0060454468 -8.7785259e-23)
(0.067744845 -0.0063439991 1.1357922e-22)
(0.080154524 -0.006603472 3.393822e-22)
(0.094046703 -0.0068171039 7.4838705e-22)
(0.10942572 -0.0069793266 -3.6725918e-22)
(0.12626791 -0.0070857682 3.901812e-23)
(0.14451263 -0.0071338809 1.3064006e-21)
(0.1640854 -0.0071214733 -4.6330262e-22)
(0.1848529 -0.0070503873 1.505814e-21)
(0.20673258 -0.0069173077 9.5799673e-22)
(0.22947058 -0.0067316252 -1.1723235e-21)
(0.2531143 -0.0064839945 -8.0912674e-22)
(0.27708387 -0.0061927075 3.2228062e-23)
(0.30195941 -0.005859396 -4.1777456e-21)
(0.32627738 -0.0054384023 -2.8792059e-21)
(0.35187633 -0.0052100113 -4.0310709e-22)
(9.5262698e-07 -1.0902647e-05 3.2110183e-24)
(3.2560695e-06 -3.425787e-05 -9.3491587e-25)
(6.2499372e-06 -6.0995524e-05 -3.9441323e-24)
(1.017018e-05 -9.1624903e-05 4.3871107e-24)
(1.5283327e-05 -0.00012673313 1.5377664e-25)
(2.1960709e-05 -0.0001669892 -7.1611938e-24)
(3.0683288e-05 -0.00021315638 6.5754694e-24)
(4.2078528e-05 -0.00026610331 7.2297693e-24)
(5.6964878e-05 -0.00032681612 -5.9339562e-24)
(7.6408838e-05 -0.00039641119 1.8530707e-25)
(0.00010179853 -0.00047614822 -1.805647e-23)
(0.0001349382 -0.0005674433 1.4044187e-23)
(0.00017816913 -0.00067188137 -7.0886238e-24)
(0.00023452344 -0.00079122719 1.1313753e-23)
(0.00030791888 -0.00092743377 -8.3764711e-24)
(0.00040340372 -0.001082647 -1.0595963e-23)
(0.00052746242 -0.0012592041 -3.8930239e-24)
(0.00068839372 -0.0014596243 8.2682443e-23)
(0.0008967734 -0.0016865883 -4.3450209e-23)
(0.0011660135 -0.0019429028 -8.3014097e-24)
(0.001513028 -0.0022314475 1.1795651e-23)
(0.0019590113 -0.0025550989 -7.3870613e-23)
(0.0025303275 -0.0029166272 6.8496868e-23)
(0.0032594988 -0.0033185633 -1.0461078e-23)
(0.0041862643 -0.003763032 -5.6903623e-23)
(0.0053586595 -0.0042515529 -1.3286437e-22)
(0.0068340393 -0.0047848109 7.4782015e-23)
(0.0086799385 -0.0053624053 -5.844061e-24)
(0.010974632 -0.0059825922 -3.0663438e-23)
(0.013807229 -0.0066420395 1.4100737e-23)
(0.017277131 -0.0073356239 2.5710473e-22)
(0.021492673 -0.0080562994 -2.2263272e-22)
(0.026568827 -0.008795073 -1.0430899e-22)
(0.032623898 -0.0095411134 1.5675353e-22)
(0.039775259 -0.010282013 5.6579119e-22)
(0.048134312 -0.011004201 6.4668337e-22)
(0.057800939 -0.011693496 -2.8244484e-22)
(0.068858011 -0.012335737 2.3493062e-22)
(0.081366024 -0.012917474 1.0512544e-23)
(0.095359505 -0.013426544 -6.3385521e-22)
(0.11084255 -0.013852756 1.0236133e-22)
(0.12779138 -0.01418787 -6.1581557e-22)
(0.14614549 -0.014426727 -1.1372657e-21)
(0.16583055 -0.014564781 4.179441e-22)
(0.18671406 -0.014604065 -9.1268049e-22)
(0.2087139 -0.014538668 -1.2187485e-21)
(0.23157701 -0.014382526 -2.1280784e-21)
(0.25535374 -0.014120758 -9.5456304e-22)
(0.27945792 -0.013780167 -1.6615926e-21)
(0.30449498 -0.013367855 5.3268431e-21)
(0.32893499 -0.012797154 4.6485989e-21)
(0.35479467 -0.012556052 -2.6629025e-21)
(1.9883472e-06 -1.6098926e-05 -7.2103854e-25)
(6.5136612e-06 -5.0584992e-05 -4.0789448e-24)
(1.205593e-05 -9.0064244e-05 1.4601208e-23)
(1.8901642e-05 -0.00013528827 -9.7479154e-24)
(2.7375824e-05 -0.00018712261 4.2180063e-26)
(3.7917137e-05 -0.00024655354 -7.9363208e-24)
(5.1084075e-05 -0.00031470627 1.9617232e-23)
(6.7593275e-05 -0.00039286135 -9.7190505e-24)
(8.8365658e-05 -0.00048247259 -1.1290561e-23)
(0.00011458534 -0.00058518591 6.8298655e-25)
(0.00014777524 -0.00070285878 7.9265848e-24)
(0.00018989388 -0.00083757963 8.9293879e-26)
(0.00024345872 -0.00099168641 1.3474377e-23)
(0.00031170264 -0.0011677831 1.5781433e-23)
(0.00039877152 -0.0013687528 -4.7314815e-23)
(0.00050997197 -0.0015977646 1.16082e-23)
(0.00065207987 -0.0018582731 -6.4313346e-24)
(0.00083372106 -0.0021540048 1.2604174e-23)
(0.0010658363 -0.0024889296 1.7668685e-23)
(0.0013622419 -0.0028672112 1.8705091e-23)
(0.0017402959 -0.0032931303 -3.4247903e-23)
(0.0022216749 -0.0037709764 8.1448062e-23)
(0.0028332601 -0.0043048997 -1.5480876e-22)
(0.003608119 -0.0048987196 8.6894749e-23)
(0.0045865542 -0.0055556851 -3.6753109e-24)
(0.0058171684 -0.0062781876 -7.7214323e-23)
(0.0073578691 -0.0070674299 -3.8549453e-23)
(0.0092767056 -0.0079230635 7.5918285e-23)
(0.011652403 -0.008842815 -3.912977e-22)
(0.014574426 -0.0098221307 4.1006283e-22)
(0.018142412 -0.010853879 -1.9394246e-22)
(0.022464779 -0.011928156 1.8891442e-22)
(0.027656421 -0.013032242 -2.0420475e-22)
(0.033835386 -0.014150753 -3.2434119e-22)
(0.04111863 -0.015266002 -8.101575e-23)
(0.049616997 -0.016358592 -6.481125e-22)
(0.059429715 -0.017408194 6.3193604e-22)
(0.070638962 -0.018394446 8.4787855e-22)
(0.083304576 -0.019297948 -4.3680674e-22)
(0.097460528 -0.020101074 8.8617541e-22)
(0.11311055 -0.020788949 7.1419e-22)
(0.13023071 -0.021349452 6.6819274e-22)
(0.14876076 -0.02177473 1.7309543e-21)
(0.16862662 -0.022057952 4.2442805e-22)
(0.18969707 -0.022201201 -2.3892909e-21)
(0.21189082 -0.022196095 1.4366939e-21)
(0.23495595 -0.022060882 2.1274281e-21)
(0.25894771 -0.021775152 4.2771306e-21)
(0.28326983 -0.021374751 1.9256583e-21)
(0.30856756 -0.020869112 -7.8655645e-21)
(0.33320724 -0.020140181 2.5415814e-21)
(0.35948225 -0.019857208 4.8785455e-21)
(3.4436479e-06 -2.1402744e-05 -1.8224963e-24)
(1.1090804e-05 -6.7249324e-05 1.4143974e-23)
(2.0213493e-05 -0.00011973195 -1.5798957e-23)
(3.1169055e-05 -0.0001798487 9.5404232e-24)
(4.4364523e-05 -0.00024874832 2.3713781e-24)
(6.0332926e-05 -0.00032773968 6.427376e-26)
(7.9741383e-05 -0.00041831582 -1.6226335e-23)
(0.00010343145 -0.0005221757 1.2465603e-23)
(0.00013246757 -0.0006412479 -1.4286331e-23)
(0.00016819853 -0.00077771558 -3.9450086e-24)
(0.00021233595 -0.00093404225 7.849439e-24)
(0.00026705423 -0.0011129974 1.6887676e-23)
(0.0003351173 -0.0013176813 -1.1655061e-23)
(0.00042003879 -0.0015515466 -2.1436232e-23)
(0.00052628346 -0.0018184157 4.5819985e-23)
(0.00065951888 -0.0021224904 -7.0652715e-24)
(0.00082692785 -0.0024683507 1.0539581e-23)
(0.0010375927 -0.0028609375 2.6652435e-23)
(0.001302963 -0.0033055153 -1.2476569e-22)
(0.0016374184 -0.0038076065 2.4910243e-22)
(0.002058935 -0.0043728915 -8.6764843e-23)
(0.0025898601 -0.0050070659 7.3018641e-24)
(0.003257793 -0.0057156466 -1.4189303e-22)
(0.0040965578 -0.0065037205 2.2619714e-22)
(0.0051472381 -0.0073756311 -3.4064704e-22)
(0.0064592222 -0.0083346011 2.7312161e-22)
(0.008091182 -0.0093822997 -1.3988931e-22)
(0.010111878 -0.010518368 2.6276676e-23)
(0.012600654 -0.011739929 1.4090236e-22)
(0.015647468 -0.013041122 1.3819155e-22)
(0.019352274 -0.014412716 3.2231819e-23)
(0.023823607 -0.015841849 1.4106093e-22)
(0.029176242 -0.017311976 2.0398874e-22)
(0.035527874 -0.018803056 3.7022414e-23)
(0.042994874 -0.020292032 5.6441765e-22)
(0.051687311 -0.021753591 6.8336341e-22)
(0.061703508 -0.023161182 -5.2066371e-22)
(0.073124686 -0.024488183 -1.4469459e-21)
(0.086009777 -0.025709192 -7.9970673e-22)
(0.10039199 -0.026801092 -1.0202964e-21)
(0.11627456 -0.027744292 -7.3083828e-22)
(0.13363337 -0.028522801 5.4125457e-23)
(0.15240852 -0.029125995 -6.1729747e-22)
(0.17252633 -0.02954485 -1.383476e-21)
(0.19385727 -0.029781379 -3.6070934e-21)
(0.21632133 -0.029824769 1.23031e-21)
(0.23966805 -0.029697515 8.5705349e-22)
(0.26395952 -0.029373147 -3.7509548e-21)
(0.28858561 -0.028898299 -2.5499212e-21)
(0.31424553 -0.028278266 1.5353659e-20)
(0.33916511 -0.027380954 -6.4535031e-21)
(0.36601133 -0.027011625 3.1078519e-21)
(5.3527776e-06 -2.6812358e-05 2.2196228e-24)
(1.7095018e-05 -8.4245008e-05 7.5122196e-24)
(3.0913904e-05 -0.00014998749 -2.6725195e-23)
(4.7259427e-05 -0.00022528822 5.5571252e-25)
(6.6645856e-05 -0.00031158344 7.5802882e-24)
(8.9729552e-05 -0.00041050934 9.1237224e-24)
(0.00011731955 -0.00052393191 1.5505315e-23)
(0.00015042056 -0.00065397403 -2.1832261e-23)
(0.00019028435 -0.00080304493 -7.4165943e-24)
(0.00023847455 -0.00097387123 -1.6001386e-23)
(0.00029694888 -0.0011695289 5.0331806e-24)
(0.0003681631 -0.0013934751 7.5666366e-24)
(0.00045520217 -0.0016495785 2.211601e-23)
(0.00056194521 -0.0019421466 -3.8340505e-23)
(0.00069327179 -0.0022759464 9.485629e-23)
(0.00085531872 -0.0026562162 -2.7050051e-23)
(0.0010557973 -0.0030886636 9.5987265e-23)
(0.0013043822 -0.0035794438 -4.6988143e-23)
(0.0016131828 -0.0041351118 -9.1319372e-23)
(0.0019973084 -0.0047625408 -3.5635242e-23)
(0.0024755344 -0.0054687968 -4.4921992e-23)
(0.0030710744 -0.0062609606 4.879659e-23)
(0.0038124546 -0.0071458867 1.1170009e-22)
(0.0047344738 -0.0081298909 -1.0284687e-23)
(0.0058792199 -0.0092183609 1.0142164e-23)
(0.0072970899 -0.010415289 -7.6627225e-23)
(0.0090477343 -0.011722738 -1.861815e-22)
(0.011200822 -0.013140252 2.5792611e-22)
(0.013836486 -0.014664255 5.0871963e-23)
(0.017045305 -0.016287475 9.2341887e-23)
(0.020927629 -0.017998469 -3.8761801e-22)
(0.025592128 -0.01978131 2.1796688e-22)
(0.03115341 -0.021615515 1.057153e-22)
(0.037728699 -0.023476291 -7.4407236e-22)
(0.045433602 -0.025335121 -1.4365733e-21)
(0.054377177 -0.027160709 -1.241331e-21)
(0.064656572 -0.028920228 -6.5733798e-22)
(0.076351772 -0.030580766 1.534248e-21)
(0.089520536 -0.032110902 2.6371449e-21)
(0.1041951 -0.033482026 1.8481534e-22)
(0.12037805 -0.034669833 -1.0883636e-22)
(0.13804506 -0.035654503 -3.1803798e-21)
(0.15713661 -0.036422571 1.7156225e-21)
(0.17757962 -0.036962942 -2.7209535e-21)
(0.19924667 -0.037277448 3.0524494e-21)
(0.22205944 -0.037352822 -6.1433435e-21)
(0.24576922 -0.037215882 -5.2456636e-22)
(0.27044679 -0.03683309 -4.2912085e-21)
(0.29546466 -0.036264693 -3.4691198e-21)
(0.32158911 -0.035502275 -8.5763391e-21)
(0.34687055 -0.034424379 9.6998112e-21)
(0.37444178 -0.033909 -8.9901098e-21)
(7.753619e-06 -3.2322119e-05 2.5156408e-24)
(2.4645186e-05 -0.00010155403 -1.6919838e-23)
(4.4368571e-05 -0.00018079824 6.7707777e-24)
(6.748982e-05 -0.00027155691 1.749384e-23)
(9.4657518e-05 -0.00037555743 8.2228538e-24)
(0.00012668241 -0.00049476723 -1.8066097e-23)
(0.00016455108 -0.00063142942 8.4017582e-25)
(0.00020947224 -0.00078809516 -7.5259823e-24)
(0.00026293174 -0.00096765884 -1.055109e-23)
(0.00032676158 -0.001173395 4.9377341e-24)
(0.00040322657 -0.0014089963 2.5148405e-23)
(0.00049513337 -0.0016786116 3.3506266e-23)
(0.00060596703 -0.0019868812 -2.2262626e-23)
(0.00074006172 -0.0023389694 -4.7296925e-23)
(0.00090281308 -0.0027405883 1.1504333e-22)
(0.0011009411 -0.0031980113 -1.0062002e-22)
(0.0013428132 -0.0037180688 6.4654106e-23)
(0.0016388387 -0.0043081216 -4.0894572e-23)
(0.0020019443 -0.0049760018 9.7964917e-23)
(0.0024481416 -0.0057299135 -1.5959713e-22)
(0.0029971935 -0.006578281 -1.0309732e-22)
(0.0036733825 -0.0075295341 -2.5646662e-23)
(0.0045063751 -0.0085918181 2.1568208e-22)
(0.005532168 -0.0097726189 -8.0832148e-23)
(0.0067940805 -0.011078297 -9.770873e-23)
(0.0083437425 -0.012513532 1.8884207e-22)
(0.010241998 -0.014080679 1.9870291e-22)
(0.012559617 -0.015779078 -2.1257829e-22)
(0.015377689 -0.017604332 1.6663663e-22)
(0.018787529 -0.019547635 -6.6187037e-22)
(0.022889956 -0.021595205 4.4745752e-23)
(0.027793775 -0.023727923 3.8863337e-25)
(0.033613367 -0.02592126 4.81176e-22)
(0.040465347 -0.028145572 7.016101e-22)
(0.048464355 -0.030366808 1.8225691e-21)
(0.057718187 -0.032547636 1.0106797e-21)
(0.068322528 -0.03464893 2.2071912e-21)
(0.080355825 -0.036631487 3.0531118e-22)
(0.093874387 -0.038457886 -3.2993759e-21)
(0.10890926 -0.040094063 1.5335803e-21)
(0.12546218 -0.04151103 2.2239242e-21)
(0.14350862 -0.042685217 2.6559183e-21)
(0.16298948 -0.043600254 -3.6401922e-21)
(0.18383239 -0.04424313 1.6439811e-21)
(0.20591247 -0.044615411 2.6515376e-21)
(0.22915349 -0.044701273 2.431503e-21)
(0.2533088 -0.044532075 -1.0661258e-22)
(0.27845944 -0.044065771 -2.9706098e-21)
(0.30395756 -0.043380018 1.3675205e-20)
(0.33064785 -0.042440246 -6.7676124e-21)
(0.3563738 -0.041167147 -8.923126e-21)
(0.38481795 -0.040430945 4.4167916e-22)
(1.068803e-05 -3.7923242e-05 -6.4108567e-25)
(3.3872631e-05 -0.00011914848 -1.1935793e-23)
(6.0810956e-05 -0.00021211391 1.4230733e-23)
(9.2210245e-05 -0.00031857811 4.75564e-24)
(0.00012888249 -0.00044056249 -1.7873261e-23)
(0.0001718261 -0.0005803686 2.1636682e-24)
(0.00022224337 -0.00074061963 1.7252553e-23)
(0.00028159066 -0.00092429793 -1.762481e-23)
(0.00035163786 -0.0011347857 9.573268e-25)
(0.00043454222 -0.0013759078 -1.4217916e-23)
(0.00053294057 -0.0016519753 1.8628022e-23)
(0.00065006419 -0.0019678294 4.0441769e-23)
(0.00078988184 -0.0023288816 1.9268073e-23)
(0.00095727727 -0.0027411507 -8.1819382e-23)
(0.0011582687 -0.0032112891 7.4826271e-24)
(0.0014002787 -0.0037465968 9.6125641e-24)
(0.0016924644 -0.0043550151 2.6455245e-23)
(0.002046118 -0.0050450925 -6.9197422e-23)
(0.0024751467 -0.0058259139 1.1475273e-22)
(0.0029966432 -0.0067069821 8.6935652e-23)
(0.0036315516 -0.0076980378 2.6225935e-23)
(0.0044054293 -0.0088088068 6.6020878e-23)
(0.0053493021 -0.01004866 1.86438e-22)
(0.0065005893 -0.011426173 -3.6073981e-22)
(0.0079040697 -0.012948587 3.2437611e-22)
(0.0096128296 -0.014621157 -2.6577849e-22)
(0.011689117 -0.016446411 9.8488218e-23)
(0.014204993 -0.018423348 4.9765752e-22)
(0.017242652 -0.020546611 -2.9704857e-23)
(0.02089426 -0.022805708 -6.3795397e-22)
(0.025261154 -0.025184378 2.1318097e-22)
(0.030452261 -0.027660176 1.5264843e-22)
(0.036581648 -0.030204409 -4.6556406e-22)
(0.043765166 -0.032782492 -9.7077667e-23)
(0.052116267 -0.035354777 9.9130483e-22)
(0.061741209 -0.037877869 -2.1348227e-21)
(0.072733901 -0.04030635 -2.6518411e-21)
(0.085170942 -0.04259476 -1.3589e-21)
(0.09910689 -0.04469974 -1.6438675e-21)
(0.11457135 -0.046581845 2.1792795e-21)
(0.13156505 -0.048207484 -3.5890154e-21)
(0.15006322 -0.049549449 -1.2854426e-23)
(0.17000715 -0.050588396 5.2033348e-21)
(0.19132535 -0.051309621 2.5286806e-21)
(0.21389587 -0.051714346 -3.6082809e-21)
(0.23764486 -0.051784028 -1.7226172e-21)
(0.2623281 -0.051554908 7.1339895e-22)
(0.28803803 -0.05097463 1.4352418e-20)
(0.3141042 -0.050142864 1.0442672e-21)
(0.34145868 -0.048983957 -2.0412614e-21)
(0.36771118 -0.047498299 -3.6253815e-21)
(0.39716616 -0.04645193 1.3703496e-20)
(1.420162e-05 -4.3601837e-05 4.0797479e-24)
(4.4920407e-05 -0.00013698445 9.2245834e-24)
(8.0495302e-05 -0.00024385578 -7.3785342e-24)
(0.00012180174 -0.00036623267 3.0378262e-23)
(0.00016984633 -0.00050643223 -2.5103854e-23)
(0.0002258508 -0.00066709183 -2.2117772e-23)
(0.00029127401 -0.00085121616 2.1510974e-23)
(0.00036786657 -0.0010622198 -1.1887833e-23)
(0.00045773559 -0.0013039734 -4.7990259e-23)
(0.00056342421 -0.0015808518 1.0294908e-22)
(0.00068801007 -0.0018977833 -5.7842813e-23)
(0.00083522716 -0.0022602984 -1.0284614e-22)
(0.0010096162 -0.0026745752 9.4931857e-23)
(0.0012167101 -0.0031474791 2.2516263e-23)
(0.0014632613 -0.0036865921 4.8052737e-23)
(0.00175752 -0.0043002256 -5.7330028e-23)
(0.0021095722 -0.0049974105 7.8349855e-24)
(0.0025317462 -0.0057878555 8.0750336e-23)
(0.0030390988 -0.0066818626 3.5291858e-24)
(0.0036499874 -0.0076901871 -2.6806619e-22)
(0.0043867342 -0.0088238287 4.0820478e-22)
(0.0052763824 -0.010093739 -5.4557814e-22)
(0.0063515359 -0.011510427 5.1492954e-22)
(0.0076512625 -0.01308346 -1.5268267e-22)
(0.0092220257 -0.014820839 7.1884326e-23)
(0.011118587 -0.016728262 -1.9191996e-22)
(0.013404801 -0.018808282 3.0972669e-22)
(0.016154196 -0.021059396 -7.7795398e-22)
(0.019450214 -0.02347512 1.1684798e-22)
(0.02338596 -0.026043113 8.4726276e-22)
(0.02806332 -0.02874447 -2.9764671e-22)
(0.03359131 -0.031553282 -2.6191006e-22)
(0.040083574 -0.034436574 -6.9604994e-22)
(0.047655014 -0.037354733 -7.7665442e-22)
(0.05641765 -0.040262475 1.7374735e-21)
(0.0664759 -0.043110339 1.2595606e-21)
(0.077921571 -0.045846655 -1.4829522e-21)
(0.090829079 -0.048419783 5.9947314e-22)
(0.10525091 -0.050780533 2.5075706e-21)
(0.121215 -0.052884195 -4.0182896e-21)
(0.13872081 -0.054692695 1.2240697e-21)
(0.15774334 -0.056175353 -7.9006482e-21)
(0.17822418 -0.057309776 3.0576587e-21)
(0.20009284 -0.058079857 8.7143089e-22)
(0.22323071 -0.058486421 -1.7841503e-22)
(0.24756648 -0.058507985 -4.1900006e-21)
(0.27285873 -0.058186121 6.5617843e-21)
(0.299212 -0.057456106 -5.9094825e-22)
(0.32593184 -0.056444818 -3.1386369e-21)
(0.35404368 -0.055018589 1.9922984e-20)
(0.3809027 -0.053300024 2.0025986e-20)
(0.41149218 -0.051840479 -4.6047455e-21)
(1.8343706e-05 -4.9338372e-05 -4.545838e-24)
(5.7943157e-05 -0.00015500033 -1.074647e-23)
(0.00010369636 -0.0002759136 2.0576861e-23)
(0.0001566759 -0.00041435402 -4.1185137e-23)
(0.00021811652 -0.00057293478 2.8265565e-23)
(0.00028950142 -0.00075462906 2.4578742e-23)
(0.0003725896 -0.00096282262 1.2363451e-23)
(0.00046947569 -0.0012013612 -4.2192618e-23)
(0.00058266064 -0.0014746016 -2.6788428e-23)
(0.00071513776 -0.0017874655 1.2757527e-22)
(0.00087049846 -0.0021454933 -4.7567899e-23)
(0.0010530619 -0.0025548977 -1.3630042e-22)
(0.0012680337 -0.0030226135 3.2772608e-23)
(0.0015217004 -0.0035563396 1.3600761e-22)
(0.0018216655 -0.0041645691 -2.1033366e-22)
(0.0021771372 -0.0048566015 1.483627e-22)
(0.002599274 -0.0056425271 -1.4322327e-22)
(0.0031015995 -0.0065331762 2.7112115e-22)
(0.0037004928 -0.0075400187 -1.3269229e-22)
(0.0044157632 -0.0086750023 1.7982262e-22)
(0.0052713115 -0.0099503116 -2.6821276e-22)
(0.0062958774 -0.011378033 3.2023001e-22)
(0.007523862 -0.012969712 -3.9949497e-22)
(0.0089962041 -0.014735778 1.5158074e-22)
(0.010761271 -0.016684852 1.7909384e-22)
(0.012875711 -0.018822916 -6.7958218e-23)
(0.015405173 -0.021152373 -2.2073793e-23)
(0.018424816 -0.023671036 3.9865317e-22)
(0.022019449 -0.0263711 -1.1647036e-22)
(0.026283184 -0.029238192 -2.8478805e-22)
(0.031318465 -0.032250594 -8.0340831e-22)
(0.037234329 -0.035378776 1.8470581e-21)
(0.044143859 -0.03858537 -1.6382005e-21)
(0.052160804 -0.041825666 1.9762007e-21)
(0.061395474 -0.045048716 -1.519338e-22)
(0.071950126 -0.048199026 -1.0732159e-21)
(0.083914111 -0.051218757 -6.1355658e-22)
(0.097359307 -0.054050212 3.8380129e-22)
(0.11233581 -0.056638522 1.4804815e-21)
(0.12886959 -0.05893387 -1.5150861e-21)
(0.1469586 -0.060893884 8.0258797e-22)
(0.16657766 -0.06248462 4.4796708e-21)
(0.1876684 -0.063680545 -7.3328816e-21)
(0.21016148 -0.064464552 4.6545814e-22)
(0.23394201 -0.064837028 4.3422366e-21)
(0.25894119 -0.064773281 9.7493969e-21)
(0.2849209 -0.064320762 -3.2231508e-22)
(0.31199773 -0.063400186 -1.6699211e-21)
(0.33945305 -0.062171176 5.4151887e-21)
(0.36840795 -0.060423749 -1.1725446e-20)
(0.39594977 -0.058448825 -1.6514708e-21)
(0.42777898 -0.056460703 -1.0077579e-20)
(2.3166805e-05 -5.5106023e-05 -7.5945427e-24)
(7.3105514e-05 -0.00017311161 2.2637701e-24)
(0.00013070654 -0.00030813646 -1.1156104e-23)
(0.00019727067 -0.00046271467 -9.6783679e-24)
(0.0002742966 -0.00063975416 3.4816275e-23)
(0.00036356979 -0.000842562 2.3837154e-23)
(0.00046719586 -0.0010749022 -9.0707766e-23)
(0.00058766642 -0.0013410477 1.1326873e-23)
(0.00072793632 -0.0016458365 8.3782459e-23)
(0.00089151722 -0.0019947297 -4.2958645e-23)
(0.0010825913 -0.0023938708 -2.1955813e-23)
(0.0013061498 -0.0028501426 -3.5193143e-23)
(0.0015681609 -0.0033712206 7.2189478e-23)
(0.0018757739 -0.0039656169 -1.4205024e-22)
(0.0022375653 -0.0046427103 -1.3870829e-23)
(0.0026638359 -0.0054127555 1.2565187e-22)
(0.0031669661 -0.0062868614 -8.9314939e-23)
(0.0037618371 -0.0072769291 -6.5770246e-23)
(0.004466327 -0.0083955342 3.0657073e-22)
(0.0053018864 -0.0096557404 4.9133018e-23)
(0.0062941959 -0.011070826 3.1056237e-23)
(0.0074739019 -0.012653903 -2.0441599e-23)
(0.0088774182 -0.014417423 -4.8734884e-22)
(0.010547771 -0.016372535 4.0881666e-22)
(0.012535441 -0.018528311 -4.2240966e-23)
(0.014899158 -0.020890831 1.9326102e-22)
(0.017706544 -0.023462151 -4.9138367e-22)
(0.021034525 -0.026239189 2.3317736e-22)
(0.02496937 -0.029212615 9.983555e-22)
(0.029606243 -0.032365814 -7.4412508e-22)
(0.035048117 -0.035674072 1.0270544e-21)
(0.041403957 -0.039104093 -8.5091137e-22)
(0.048786116 -0.042614 1.1426495e-21)
(0.057306944 -0.046153931 -1.1870077e-21)
(0.067074741 -0.049667282 -4.5047839e-22)
(0.07818925 -0.053092593 6.4208092e-23)
(0.090736997 -0.056365978 4.1868358e-21)
(0.10478694 -0.05942386 1.8686289e-21)
(0.12038644 -0.062205903 -1.8368105e-21)
(0.13755924 -0.064657386 2.4434615e-21)
(0.15630146 -0.066731876 -6.1592484e-21)
(0.17658783 -0.068392436 -6.6428842e-22)
(0.19835954 -0.069610298 4.2231314e-21)
(0.22154872 -0.070367852 -3.6642035e-21)
(0.24604438 -0.070665066 3.2577814e-21)
(0.2717801 -0.070473716 -4.0814265e-21)
(0.2985215 -0.069847761 -1.9628141e-20)
(0.32639661 -0.068691174 3.9017591e-21)
(0.35466344 -0.067201939 -9.0660999e-21)
(0.3845373 -0.065074813 1.233787e-21)
(0.41283283 -0.062817111 -1.6027279e-20)
(0.44598477 -0.060173985 1.16512e-20)
(2.8726093e-05 -6.086959e-05 7.5767295e-24)
(9.05804e-05 -0.00019120752 -1.2328822e-23)
(0.0001618329 -0.00034032671 5.4875191e-24)
(0.00024404574 -0.00051101708 2.0868009e-23)
(0.0003390198 -0.00070647774 2.4539723e-23)
(0.00044888626 -0.00093034528 -3.2144252e-23)
(0.00057614682 -0.0011867563 -6.0618389e-23)
(0.00072374616 -0.001480404 4.1206771e-23)
(0.00089515673 -0.0018165981 2.886045e-23)
(0.0010944805 -0.0022013283 -5.2661549e-23)
(0.0013265715 -0.0026413262 1.2039373e-22)
(0.0015971843 -0.0031441271 -3.7213039e-23)
(0.0019131516 -0.0037181246 5.090712e-23)
(0.0022825992 -0.004372616 -8.1605205e-23)
(0.0027152032 -0.0051178311 -1.3053559e-22)
(0.0032224965 -0.0059649372 1.2388262e-22)
(0.0038182335 -0.0069260092 -4.7406832e-23)
(0.0045188193 -0.0080139551 6.1336665e-23)
(0.0053438099 -0.0092423788 -1.1315487e-22)
(0.0063164876 -0.010625367 4.5667357e-23)
(0.0074645126 -0.012177182 4.3835633e-23)
(0.0088206446 -0.013911834 -1.8071993e-22)
(0.01042352 -0.015842528 2.7137145e-22)
(0.012318457 -0.017980962 -1.4935441e-22)
(0.01455825 -0.020336471 -3.49679e-22)
(0.017203886 -0.022915023 1.3858539e-24)
(0.02032511 -0.025718103 -8.7464892e-23)
(0.024000729 -0.028741506 7.8135248e-22)
(0.028318541 -0.031974143 -1.0929929e-21)
(0.033374762 -0.035396948 1.2379875e-21)
(0.039272836 -0.038982018 -2.7320371e-22)
(0.046121521 -0.042692138 -4.3953365e-22)
(0.054032232 -0.046480828 -1.6154875e-21)
(0.063115647 -0.050293038 -3.6301625e-22)
(0.073477717 -0.054066546 -1.9974123e-21)
(0.085215298 -0.057734032 -6.3835232e-22)
(0.098411687 -0.061225745 1.1457574e-21)
(0.11313254 -0.064472455 1.7194039e-21)
(0.12942211 -0.067408639 -3.2514676e-21)
(0.14730163 -0.069974909 3.8198745e-21)
(0.166765 -0.072121099 1.7540632e-21)
(0.18778711 -0.07380755 7.5309004e-21)
(0.21030775 -0.075002264 2.8721787e-21)
(0.23426125 -0.075687643 -6.5075269e-21)
(0.25954029 -0.075863393 -5.1397802e-22)
(0.28608067 -0.075497363 -4.5772652e-21)
(0.3136522 -0.074650729 1.9094185e-20)
(0.34239288 -0.073208711 -5.1389249e-21)
(0.37153952 -0.071413089 1.5857437e-20)
(0.40239596 -0.068844628 6.4337411e-21)
(0.431509 -0.066275068 -1.5164094e-20)
(0.46604027 -0.062838505 -2.2317037e-20)
(3.5078334e-05 -6.6583741e-05 -1.4998197e-23)
(0.00011054569 -0.00020914552 3.4030897e-23)
(0.00019739119 -0.00037223033 -4.7949338e-24)
(0.00029747365 -0.00055887923 7.6826141e-24)
(0.00041293685 -0.00077257646 -4.6074292e-23)
(0.00054630375 -0.0010172808 7.6647377e-24)
(0.00070052451 -0.0012974924 2.9623351e-23)
(0.00087905628 -0.0016183134 -1.0301072e-23)
(0.0010859562 -0.0019855123 3.3255913e-23)
(0.0013259922 -0.00240559 2.1210003e-23)
(0.0016047753 -0.0028858468 -5.2784631e-23)
(0.0019289185 -0.0034344451 -4.4411834e-23)
(0.0023062256 -0.0040604665 -4.6655601e-23)
(0.002745917 -0.0047739568 2.7127923e-23)
(0.0032588984 -0.0055859522 8.7430169e-23)
(0.0038580779 -0.0065084783 -6.6367986e-23)
(0.0045587398 -0.0075545111 2.1319919e-22)
(0.0053789813 -0.0087378871 4.5490116e-23)
(0.0063402155 -0.010073146 -2.0057694e-22)
(0.0074677461 -0.011575287 4.2692964e-23)
(0.0087914097 -0.013259426 -1.6384792e-23)
(0.01034628 -0.015140322 -4.494271e-22)
(0.012173415 -0.017231764 5.7636743e-22)
(0.014320619 -0.019545805 1.6173828e-23)
(0.016843177 -0.022091825 4.5414247e-24)
(0.019804492 -0.024875454 -2.5512797e-22)
(0.023276553 -0.027897357 7.8268814e-22)
(0.027340129 -0.03115196 -8.7838071e-22)
(0.032084573 -0.034626172 -2.0517676e-22)
(0.037607123 -0.038298249 -1.4162856e-22)
(0.044011587 -0.042136909 -5.6642919e-22)
(0.051406342 -0.046100874 6.8805615e-22)
(0.059901616 -0.05013898 1.1835889e-21)
(0.0696061 -0.054190985 -1.7837473e-21)
(0.080623028 -0.058189119 1.7237303e-21)
(0.093045962 -0.062060367 -3.5036602e-21)
(0.10695455 -0.065729343 -5.1815862e-21)
(0.12241073 -0.069121463 -2.939316e-21)
(0.13945527 -0.07216636 -5.4855811e-22)
(0.15810661 -0.074800269 -3.5174519e-21)
(0.178356 -0.076969695 3.4437835e-21)
(0.20017888 -0.078632427 -4.4176968e-21)
(0.22351181 -0.079753649 -3.285362e-21)
(0.24829333 -0.080316028 2.5826909e-21)
(0.27441827 -0.080319485 -1.1826227e-20)
(0.30182489 -0.079727424 1.7836503e-20)
(0.33028737 -0.078609013 6.9510829e-21)
(0.35995159 -0.076829072 1.7222901e-21)
(0.39003639 -0.074678192 -2.6213871e-20)
(0.42192438 -0.071605691 -5.9877732e-22)
(0.45191104 -0.06869344 1.0338601e-20)
(0.48785445 -0.064322018 2.989884e-20)
(4.2280776e-05 -7.2191913e-05 4.6516199e-24)
(0.0001331807 -0.00022674783 -1.9582241e-23)
(0.00023769957 -0.00040353059 4.9018865e-23)
(0.00035803035 -0.00060582512 -4.1703737e-23)
(0.00049670274 -0.00083739157 -2.4491685e-23)
(0.0006566802 -0.0011025 2.6220963e-23)
(0.00084141657 -0.001406001 1.2086664e-23)
(0.0010549439 -0.0017533903 2.6105448e-23)
(0.0013019744 -0.0021508756 -5.5213334e-23)
(0.0015880212 -0.0026054473 -3.3300088e-23)
(0.0019195412 -0.0031249463 8.9806114e-23)
(0.0023041046 -0.00371813 6.5416457e-23)
(0.0027505965 -0.0043947291 -1.1187447e-22)
(0.0032694537 -0.0051654909 1.128206e-22)