/*--------------------------------*- C++ -*----------------------------------*\
  =========                 |
  \\      /  F ield         | OpenFOAM: The Open Source CFD Toolbox
   \\    /   O peration     | Website:  https://openfoam.org
    \\  /    A nd           | Version:  13
     \\/     M anipulation  |
\*---------------------------------------------------------------------------*/
FoamFile
{
    format      ascii;
    class       volVectorField;
    location    "7.599476";
    object      UMean;
}
// * * * * * * * * * * * * * * * * * * * * * * * * * * * * * * * * * * * * * //

dimensions      [0 1 -1 0 0 0 0];

internalField   nonuniform List<vector> 
17140
(
(-3.3388615e-06 0.00014097739 -4.9346836e-22)
(-4.3901827e-05 0.00043350404 -4.1574017e-23)
(-0.0001316157 0.00075283366 2.7467674e-21)
(-0.00028504676 0.0011004944 -3.020878e-21)
(-0.00052076913 0.0014780881 3.5333041e-22)
(-0.00086161579 0.0018869455 -1.1569565e-21)
(-0.0013356407 0.0023280539 -1.9491636e-21)
(-0.0019767327 0.0028019148 9.5280949e-22)
(-0.0028256792 0.0033083808 3.1216135e-21)
(-0.0039312084 0.0038464603 7.6669153e-21)
(-0.0053510087 0.004414097 -1.1389908e-20)
(-0.0071526853 0.0050079287 1.0172283e-20)
(-0.0094145626 0.0056230362 1.5603451e-21)
(-0.012226202 0.006252698 -8.8590026e-21)
(-0.015688476 0.0068881868 9.8721989e-22)
(-0.019912993 0.0075186406 -7.8584786e-21)
(-0.025020702 0.008131079 2.9479471e-22)
(-0.031139459 0.0087106158 -6.5496391e-23)
(-0.038400489 0.0092409542 -4.7335037e-21)
(-0.046933754 0.009705229 6.186156e-21)
(-0.056862553 0.010087229 -3.0002419e-21)
(-0.068297922 0.010372956 5.7887223e-22)
(-0.081333657 0.010552363 4.2873489e-21)
(-0.096044052 0.010620945 -4.3012386e-21)
(-0.11248814 0.01058071 -6.8918278e-21)
(-0.1307055 0.010440188 5.5778553e-21)
(-0.15070789 0.010212627 2.7525867e-20)
(-0.17254582 0.0099106913 3.2497765e-21)
(-0.19626104 0.0095467843 -2.8766621e-20)
(-0.22185866 0.0091315693 -6.7490377e-21)
(-0.24937789 0.008671742 -2.4232976e-20)
(-0.27883396 0.0081709667 3.2105529e-20)
(-0.31022419 0.007630505 -8.3961282e-21)
(-0.34351725 0.0070497893 -4.0428282e-21)
(-0.37864153 0.0064269067 -3.9856904e-20)
(-0.41547036 0.0057583443 1.7615321e-20)
(-0.4538029 0.0050387039 -2.6607824e-20)
(-0.49333784 0.0042605045 -1.8062829e-20)
(-0.53363846 0.00341356 -8.2824172e-21)
(-0.5740889 0.0024859598 2.5185655e-20)
(-0.61384336 0.0014635181 4.7495501e-20)
(-0.65177336 0.0003328916 4.3034241e-20)
(-0.68641141 -0.0009165356 1.874549e-20)
(-0.7159337 -0.002287503 -9.0655112e-20)
(-0.7381927 -0.0037683432 -6.5915294e-20)
(-0.75076455 -0.0053182619 1.6112591e-20)
(-0.75119914 -0.0068841767 -1.0879962e-19)
(-0.7371081 -0.0084052562 -3.6748359e-20)
(-0.70623258 -0.0098042149 3.7274892e-20)
(-0.65772893 -0.010975201 9.0953088e-20)
(-0.59122347 -0.01187043 -5.5935403e-20)
(-0.50666189 -0.012482735 -3.5347657e-20)
(-0.40555032 -0.01271537 9.2099204e-20)
(-0.28906199 -0.012576765 4.3601164e-20)
(-0.158797 -0.012127893 3.1158533e-20)
(-0.017242884 -0.011297909 -2.4450865e-20)
(0.1314172 -0.010022608 6.632116e-20)
(0.28024356 -0.0082617581 5.5327988e-20)
(0.42113512 -0.0061229734 1.3829205e-20)
(0.54635964 -0.0037821367 -3.5486899e-20)
(0.65128691 -0.0015290883 -2.7633978e-20)
(0.73489073 0.00042999237 -1.0176804e-19)
(0.79976548 0.0019999951 -1.4873112e-20)
(0.84843569 0.0032319926 1.2478438e-19)
(0.88493786 0.0040822989 -9.6357826e-20)
(-3.439371e-05 0.00080325872 1.4022075e-22)
(-0.00013862646 0.0024709248 -1.4395687e-20)
(-0.00029505712 0.0042924663 1.2814055e-20)
(-0.00052214903 0.0062778083 -3.4950411e-21)
(-0.00083656649 0.0084365132 -7.2226925e-21)
(-0.0012610234 0.010776866 1.3808722e-20)
(-0.0018233008 0.013305351 -1.4405932e-20)
(-0.002556829 0.016025902 1.2690151e-21)
(-0.0035017069 0.018938993 -3.9662513e-21)
(-0.0047056991 0.02204058 -6.6761487e-23)
(-0.0062252121 0.025320882 -1.3283175e-20)
(-0.00812621 0.028763051 2.1152704e-20)
(-0.010484987 0.032341769 1.7512862e-21)
(-0.013388669 0.03602189 -1.733621e-20)
(-0.016935289 0.03975728 5.3435116e-21)
(-0.021233266 0.043490097 3.4056795e-21)
(-0.026400078 0.047150802 -2.1686119e-20)
(-0.032559977 0.050659311 7.0973382e-20)
(-0.039840637 0.053927701 -4.465456e-20)
(-0.048368761 0.056864847 5.3765435e-20)
(-0.058264951 0.059383204 -7.9869553e-20)
(-0.069638363 0.06140752 1.969557e-20)
(-0.082581947 0.062884601 8.1681149e-21)
(-0.097170119 0.063792357 -2.6836806e-20)
(-0.11346269 0.064145477 9.7160442e-20)
(-0.13150233 0.063995329 1.4553098e-20)
(-0.15130119 0.063419535 -7.6102067e-20)
(-0.17291044 0.062494365 8.582265e-20)
(-0.19637491 0.061291491 -1.1936927e-20)
(-0.22169821 0.059872296 -1.1705068e-19)
(-0.24891868 0.058276567 1.2262852e-20)
(-0.27805014 0.056525417 9.4150085e-20)
(-0.30908772 0.054625374 2.3191772e-21)
(-0.34199719 0.052571898 -7.1089262e-20)
(-0.37670308 0.050350931 7.9856686e-20)
(-0.41307381 0.047937805 -3.6133371e-20)
(-0.45090191 0.045294908 4.2887197e-20)
(-0.48987767 0.042369302 1.3678454e-19)
(-0.52955363 0.039090593 3.0679028e-20)
(-0.56930067 0.035370996 1.2035725e-19)
(-0.60825628 0.031107818 -1.5461733e-19)
(-0.64527016 0.026191312 -1.4206064e-19)
(-0.67885004 0.020520397 -2.4168966e-20)
(-0.70713847 0.014025814 1.9385364e-19)
(-0.72794055 0.0066997371 -9.1088793e-20)
(-0.73880065 -0.0013772271 -3.1416353e-20)
(-0.73713122 -0.010046174 1.688431e-20)
(-0.72052822 -0.019041192 5.2195338e-20)
(-0.68714037 -0.02788567 -2.5482732e-20)
(-0.63578138 -0.036129054 4.601824e-20)
(-0.56615798 -0.043518774 2.7703805e-19)
(-0.47889298 -0.049751309 1.324757e-20)
(-0.37512629 -0.054712766 -5.9893968e-20)
(-0.25617889 -0.058493667 1.3358771e-19)
(-0.12386154 -0.060992135 -1.1434092e-19)
(0.019196588 -0.061811493 3.252713e-19)
(0.16863667 -0.060276925 9.2821355e-20)
(0.31726991 -0.055810344 -2.6159958e-19)
(0.45684347 -0.04861727 4.4250076e-20)
(0.57965752 -0.03954909 5.0343328e-20)
(0.68147709 -0.03007935 1.0051479e-20)
(0.7615763 -0.021461572 -1.3296978e-19)
(0.82262916 -0.014329457 2.5850683e-19)
(0.86731647 -0.0086623206 7.7238015e-20)
(0.89993952 -0.0044677337 1.2827757e-19)
(-0.00010153806 0.0014499417 7.7265235e-21)
(-0.00034328046 0.0044609545 -4.3429166e-21)
(-0.00064792836 0.0077506859 -1.1552852e-21)
(-0.0010336532 0.011337603 1.096041e-21)
(-0.0015172555 0.015239369 -5.3131646e-21)
(-0.002121106 0.019471473 -3.9488497e-22)
(-0.0028722921 0.024046274 -5.0545502e-21)
(-0.0038031331 0.028971666 -5.4507758e-21)
(-0.0049521003 0.034249453 4.4612845e-20)
(-0.0063647166 0.03987345 -3.9891392e-20)
(-0.0080944382 0.045827295 1.912476e-20)
(-0.010203484 0.052082032 2.8079762e-20)
(-0.012763543 0.058593555 -5.5831478e-20)
(-0.015856242 0.065300107 -6.929609e-21)
(-0.019573246 0.072120089 2.6862781e-20)
(-0.024015829 0.078950621 1.8540852e-20)
(-0.029293742 0.085667387 -2.1602172e-20)
(-0.035523235 0.092126485 7.8602686e-20)
(-0.042824114 0.098169041 -4.6739417e-20)
(-0.051315889 0.10362935 2.3250719e-20)
(-0.061113208 0.10834694 -7.8967096e-20)
(-0.072321085 0.1121823 -2.0689279e-20)
(-0.085030566 0.11503476 4.3497757e-20)
(-0.09931625 0.11685941 -6.595109e-20)
(-0.11523946 0.11767831 -2.6132617e-20)
(-0.13284902 0.11758106 3.173032e-20)
(-0.15215866 0.11670808 1.8135947e-19)
(-0.17321984 0.1152031 8.2578769e-20)
(-0.19608312 0.1131949 -4.1694423e-20)
(-0.22074957 0.1107979 4.472425e-20)
(-0.24725412 0.10808809 -2.8421754e-20)
(-0.27560721 0.1051055 -1.6134863e-19)
(-0.30579848 0.10186265 5.4454392e-20)
(-0.33778654 0.098351141 1.6369432e-19)
(-0.37148663 0.094544368 -5.5332344e-20)
(-0.40675526 0.090395825 -7.7801113e-20)
(-0.44336957 0.085835026 1.3571641e-19)
(-0.48100008 0.08076247 4.1548489e-20)
(-0.51917418 0.075046057 -7.4762138e-20)
(-0.55723065 0.068519849 -3.023181e-20)
(-0.59426598 0.060989217 1.4550024e-19)
(-0.62907783 0.052243663 -4.1596411e-20)
(-0.6601097 0.042085618 -6.0307153e-20)
(-0.68543154 0.030374532 -1.6095004e-19)
(-0.70276695 0.017080556 3.0676134e-19)
(-0.70959383 0.0023347459 -1.9856422e-19)
(-0.70334182 -0.013530782 -4.9972459e-20)
(-0.68171481 -0.0299684 -1.9878535e-19)
(-0.64295498 -0.046226011 -2.3917835e-19)
(-0.58608894 -0.061495183 -1.2229444e-20)
(-0.51118549 -0.075155043 5.1765961e-20)
(-0.41918484 -0.086800397 -3.8240325e-19)
(-0.31144733 -0.096296899 -1.6406317e-19)
(-0.18963422 -0.10369239 -1.6961052e-19)
(-0.055694734 -0.10882542 -5.5844499e-20)
(0.087649368 -0.11096937 -4.3486669e-19)
(0.23589299 -0.10881999 1.7275404e-19)
(0.38152889 -0.10125317 -5.2630756e-20)
(0.51618876 -0.088632515 -4.3168743e-19)
(0.63242868 -0.072614688 -1.7109939e-19)
(0.72687411 -0.055887125 2.0312085e-19)
(0.79926112 -0.040665116 6.9702508e-19)
(0.85270056 -0.028091271 -2.2231675e-19)
(0.89027086 -0.018243214 -3.5777368e-19)
(0.91667164 -0.011020541 -1.5310999e-19)
(-0.00020232271 0.0020571417 -2.581716e-20)
(-0.00065047023 0.0063306869 3.1220707e-20)
(-0.0011775615 0.011001748 -1.1292681e-20)
(-0.0018013284 0.016097354 1.2283019e-21)
(-0.0025387685 0.021643387 -2.4292426e-20)
(-0.003411729 0.027662888 2.5153974e-20)
(-0.0044462455 0.034174692 -3.8186819e-20)
(-0.0056729546 0.04119156 1.7989659e-20)
(-0.0071278676 0.048717915 6.8478659e-20)
(-0.008853118 0.056747152 -1.6496329e-20)
(-0.0108977 0.065258544 -6.2945246e-20)
(-0.013318165 0.074213776 1.9266938e-20)
(-0.01617922 0.083553253 1.2940007e-21)
(-0.019554142 0.093192399 -5.0739779e-20)
(-0.0235249 0.10301835 1.5942237e-19)
(-0.028181854 0.11288755 -9.8360544e-20)
(-0.033622901 0.12262519 -9.4214473e-22)
(-0.03995193 0.13202719 5.507383e-20)
(-0.047276512 0.14086626 -1.4089698e-19)
(-0.05570483 0.14890287 6.7063874e-20)
(-0.065341989 0.15590197 1.0094382e-19)
(-0.076286128 0.16165531 4.1259953e-20)
(-0.088624776 0.16600749 -2.0645441e-19)
(-0.10243234 0.16888131 -1.0908123e-19)
(-0.1177721 0.1702958 7.1441053e-20)
(-0.13470057 0.17036916 -4.2089268e-20)
(-0.15323692 0.16929994 1.5985463e-19)
(-0.17343123 0.16730561 -4.6431409e-20)
(-0.19534031 0.16456689 1.2668733e-19)
(-0.21896527 0.16125441 -7.2501553e-20)
(-0.24433343 0.15748588 4.5241104e-20)
(-0.27145089 0.15332297 -1.681159e-19)
(-0.30029844 0.14878569 2.4469151e-20)
(-0.33082373 0.14386193 -1.2997598e-19)
(-0.36292774 0.1385121 1.2584544e-19)
(-0.39644873 0.13266719 4.0397038e-20)
(-0.43114067 0.12622266 -5.1231267e-19)
(-0.46664453 0.11903116 -1.346546e-19)
(-0.50245048 0.11089666 1.1277851e-19)
(-0.53785057 0.10157273 -1.1164488e-19)
(-0.57188329 0.090769263 2.8706722e-20)
(-0.60327599 0.078172742 1.8219127e-19)
(-0.63039285 0.063488238 -8.6002476e-21)
(-0.65122154 0.046507666 -6.1365881e-20)
(-0.66341616 0.027191364 3.0098411e-20)
(-0.66444329 0.0057501796 -1.4571318e-20)
(-0.6518138 -0.017303888 -4.33011e-20)
(-0.62340627 -0.041129164 6.7519607e-19)
(-0.57776283 -0.064608651 -7.5450397e-20)
(-0.51433658 -0.086567268 7.0331687e-20)
(-0.43363372 -0.10607519 -6.6446184e-19)
(-0.33698768 -0.12258826 3.6640907e-19)
(-0.22609865 -0.13602802 3.0236177e-19)
(-0.10284709 -0.14652127 2.9004532e-19)
(0.030736821 -0.15387007 2.8035331e-19)
(0.17189284 -0.15702372 4.4114948e-19)
(0.31601989 -0.15398132 -8.8186771e-19)
(0.45520306 -0.14305701 5.4249894e-19)
(0.58105726 -0.12486896 8.2163357e-19)
(0.68684644 -0.101989 -6.0040088e-19)
(0.77025247 -0.078305952 -1.9116335e-19)
(0.83192027 -0.056912515 -1.6642079e-19)
(0.87575038 -0.039443459 8.4455117e-19)
(0.90539821 -0.025951451 6.1960474e-19)
(0.92554246 -0.016266998 -2.7197455e-20)
(-0.0003316415 0.0026012714 1.8124665e-20)
(-0.0010447351 0.008007975 -4.5691585e-20)
(-0.0018574238 0.013920963 3.7266049e-20)
(-0.0027869212 0.020375749 -1.4090542e-20)
(-0.0038505088 0.027406493 -5.0935626e-21)
(-0.0050694052 0.035044177 4.3868344e-20)
(-0.0064683442 0.04331486 -1.1124563e-20)
(-0.0080758599 0.052237388 -2.3649414e-20)
(-0.009924865 0.061820572 -1.818162e-21)
(-0.012053204 0.072059828 -1.5471572e-20)
(-0.014504198 0.082933258 2.1716572e-20)
(-0.017327159 0.094397224 -1.514043e-20)
(-0.020577837 0.10638155 -5.5983264e-20)
(-0.024318738 0.11878459 -1.6312735e-21)
(-0.028619249 0.13146868 4.3206187e-20)
(-0.033555462 0.14425656 3.0786482e-20)
(-0.039209639 0.1569298 -2.6673436e-20)
(-0.045669189 0.16923052 2.5889877e-21)
(-0.053025131 0.18086785 5.2922981e-20)
(-0.061370012 0.19153082 6.5115171e-20)
(-0.070795391 0.20090876 -7.5142828e-20)
(-0.081389126 0.20871943 -7.6508467e-20)
(-0.09323276 0.21474288 1.0423288e-19)
(-0.10639939 0.21885603 -1.3057697e-19)
(-0.12095432 0.22105925 -2.2897051e-19)
(-0.13696007 0.2214846 5.4639606e-19)
(-0.154451 0.22037853 -3.0426605e-19)
(-0.17346945 0.21803384 4.5527677e-19)
(-0.19407514 0.21468365 -5.7443432e-19)
(-0.21628213 0.21055757 6.4697854e-19)
(-0.24010094 0.20582195 -6.7463034e-19)
(-0.26553374 0.20056442 1.1463853e-19)
(-0.29254953 0.19481512 3.9819144e-19)
(-0.32108165 0.18855902 -2.2628531e-19)
(-0.35101283 0.18174332 7.1326041e-20)
(-0.38215818 0.1742757 2.1130827e-20)
(-0.41424259 0.16601651 2.602272e-19)
(-0.44687067 0.15676915 8.5179208e-20)
(-0.4794876 0.14627195 8.6039628e-20)
(-0.51133042 0.13419549 8.620509e-20)
(-0.54137166 0.12015192 -4.4163828e-19)
(-0.56826274 0.10372234 1.9469952e-19)
(-0.59028823 0.084515447 3.0683516e-20)
(-0.60536659 0.06226238 -3.5905873e-19)
(-0.61112937 0.036935081 -1.8203182e-19)
(-0.60511155 0.0088604472 9.013211e-20)
(-0.58503097 -0.021226428 3.2566379e-19)
(-0.54909307 -0.052168482 -1.4272586e-19)
(-0.49624395 -0.082490209 4.1434758e-19)
(-0.42635612 -0.11064346 2.2602908e-19)
(-0.34030747 -0.13541826 3.1409949e-19)
(-0.23975781 -0.15619808 8.4427146e-19)
(-0.12669984 -0.17298513 -6.5664343e-19)
(-0.0032764202 -0.18602112 2.1361508e-19)
(0.12829977 -0.19514232 -3.7127485e-19)
(0.26517818 -0.19898579 -3.5310937e-19)
(0.40262886 -0.19477492 -1.3779625e-19)
(0.53222362 -0.18026087 -1.2611935e-18)
(0.64585702 -0.15649035 -3.3877828e-19)
(0.73799912 -0.127042 7.7189235e-19)
(0.80771168 -0.096975213 2.9055996e-19)
(0.85706122 -0.0701697 -2.1692889e-19)
(0.89096653 -0.048612704 -4.4788645e-19)
(0.91341836 -0.03221038 -6.9627618e-19)
(0.9291153 -0.020735941 5.3021967e-20)
(-0.00048175349 0.0030599489 5.502557e-20)
(-0.001502599 0.0094242717 1.4728552e-20)
(-0.00264718 0.016389689 -1.1933666e-20)
(-0.0039321984 0.023999963 -4.4084334e-20)
(-0.0053753318 0.032297474 2.4169789e-20)
(-0.0069971604 0.041321485 -3.4819917e-20)
(-0.0088210124 0.051106082 1.5082957e-20)
(-0.0108731 0.061677586 3.5972058e-21)
(-0.01318287 0.073051306 -2.0397166e-20)
(-0.015783325 0.085227655 -4.4053685e-20)
(-0.018711332 0.098187544 -2.213966e-21)
(-0.022007906 0.11188712 7.286401e-20)
(-0.025718454 0.12625195 -1.0120746e-19)
(-0.02989295 0.14117087 1.6424699e-19)
(-0.034585998 0.15649006 -4.3183223e-20)
(-0.039856757 0.172008 9.2393075e-20)
(-0.045768693 0.18747247 -1.1266604e-19)
(-0.052389093 0.20258108 7.388716e-20)
(-0.059788364 0.21698717 -1.1811573e-20)
(-0.068039079 0.23031323 -4.8501579e-20)
(-0.07721483 0.24217357 1.1951478e-19)
(-0.087389012 0.25220692 -1.7123722e-19)
(-0.098633595 0.26011753 1.8916008e-19)
(-0.11101793 0.26571922 3.296188e-20)
(-0.12460831 0.26897276 -3.2949724e-19)
(-0.13947079 0.27000295 3.3837068e-19)
(-0.15566142 0.26908465 -2.2346878e-19)
(-0.17321118 0.26657694 2.5429066e-19)
(-0.19218265 0.26278969 2.4316027e-20)
(-0.2126135 0.25799932 1.5310542e-20)
(-0.23448948 0.25242738 -1.0484792e-19)
(-0.25780908 0.24619727 6.9379424e-21)
(-0.28252738 0.23935381 -4.0318382e-19)
(-0.30856091 0.23188106 1.1035926e-19)
(-0.33577098 0.22371328 3.324805e-19)
(-0.36394613 0.21473435 -1.5659919e-19)
(-0.39277826 0.20476886 1.2994139e-19)
(-0.42183135 0.19357011 -1.313115e-19)
(-0.45050166 0.1808097 -7.3688993e-19)
(-0.47796822 0.16607397 4.1015239e-19)
(-0.50313698 0.14887572 1.0089535e-19)
(-0.52458834 0.12869102 -5.7448836e-19)
(-0.54054539 0.1050376 3.3623482e-20)
(-0.54890059 0.077601241 7.0731945e-20)
(-0.54735051 0.04639502 7.6531514e-19)
(-0.53362891 0.011895114 1.7718535e-19)
(-0.50580607 -0.024918186 -2.7833058e-19)
(-0.46251022 -0.062581664 -2.8427619e-19)
(-0.40303504 -0.09928827 -4.0425418e-19)
(-0.32745208 -0.13314189 -5.0004529e-19)
(-0.23680919 -0.16264494 -3.0628206e-19)
(-0.13303083 -0.18708468 -4.788089e-19)
(-0.01844825 -0.20655472 1.6450211e-19)
(0.10436879 -0.22146169 -1.0204722e-18)
(0.23280131 -0.2317671 -6.9091639e-20)
(0.36374621 -0.23587766 -5.8995331e-20)
(0.49224491 -0.23017709 -3.2829864e-20)
(0.60943511 -0.21190482 1.361537e-18)
(0.70804961 -0.18272994 5.3309067e-19)
(0.78413403 -0.14729851 -8.1973987e-19)
(0.83875265 -0.11175731 -1.1731964e-18)
(0.87566446 -0.080617639 -5.2407626e-19)
(0.90067653 -0.056007481 -1.6982927e-19)
(0.91765835 -0.037567868 9.9175407e-19)
(0.93087055 -0.024877768 -2.4920647e-19)
(-0.00064246055 0.003413766 -1.0351122e-20)
(-0.0019936194 0.010519798 -2.4918225e-20)
(-0.0034942051 0.018304192 6.0175646e-20)
(-0.0051611397 0.026818371 -2.2399872e-21)
(-0.0070123862 0.036112723 -2.9344729e-20)
(-0.0090679974 0.046234967 -1.2947088e-20)
(-0.011349962 0.05722792 -9.5721879e-21)
(-0.013882186 0.069126749 1.889437e-20)
(-0.016690599 0.081955476 -9.8008766e-20)
(-0.019803225 0.095722737 7.4147972e-20)
(-0.023250217 0.1104167 -3.5951337e-21)
(-0.027063876 0.12599913 -4.5178859e-20)
(-0.031278632 0.14239869 1.6980475e-19)
(-0.03593101 0.15950366 -1.7017912e-19)
(-0.041059563 0.17715459 2.2830098e-20)
(-0.046704806 0.19513755 1.4231876e-19)
(-0.052909159 0.21317916 -1.3507785e-19)
(-0.059716934 0.23094513 4.773645e-20)
(-0.067174407 0.24804433 -9.3839941e-20)
(-0.075330028 0.26404117 1.2208054e-19)
(-0.08423474 0.27847854 2.3261427e-19)
(-0.093942521 0.29091307 -2.3392702e-19)
(-0.10451088 0.30096195 -3.4815876e-19)
(-0.11600117 0.30835638 6.8245168e-19)
(-0.12847809 0.31299126 -5.5572591e-19)
(-0.1420098 0.31495526 3.2719117e-19)
(-0.15666748 0.31452449 -8.5533259e-20)
(-0.17249022 0.31210757 2.0448597e-19)
(-0.18953325 0.3081168 -2.1184043e-19)
(-0.20784859 0.30286349 -2.8824909e-19)
(-0.22742099 0.29662793 1.9367197e-19)
(-0.24823014 0.28958515 3.2336003e-19)
(-0.27021955 0.28180143 -2.8776475e-20)
(-0.29328642 0.27326397 -1.2076403e-20)
(-0.31726847 0.26389542 -2.1343056e-19)
(-0.34192491 0.25355608 9.3193627e-20)
(-0.36691199 0.24203482 3.4380567e-19)
(-0.39175086 0.22903495 1.7407075e-19)
(-0.41578728 0.21416131 -2.6834881e-19)
(-0.43814307 0.19691635 2.1327097e-19)
(-0.45766307 0.17671473 -1.8213991e-19)
(-0.47287279 0.15293245 6.1008819e-20)
(-0.48197104 0.12500903 2.3386636e-19)
(-0.48289821 0.092611689 -5.6190614e-19)
(-0.4735361 0.055830252 -3.3474202e-19)
(-0.45196931 0.015314934 -2.1796041e-19)
(-0.41673823 -0.027724378 6.8718061e-19)
(-0.36686848 -0.071602187 4.4578983e-19)
(-0.30174832 -0.11427347 5.2362764e-19)
(-0.22134291 -0.15348398 9.1561081e-19)
(-0.12680874 -0.18735359 -3.181192e-19)
(-0.020388848 -0.21498825 6.6758268e-20)
(0.0951426 -0.23654029 5.3482292e-19)
(0.21662165 -0.25260417 1.5754719e-18)
(0.34090602 -0.26337355 1.0421664e-18)
(0.46452113 -0.26715607 4.1180366e-19)
(0.58197991 -0.25956455 1.2047691e-18)
(0.6844053 -0.23740907 -8.1948774e-19)
(0.76579807 -0.2031897 8.6373981e-20)
(0.82443365 -0.16263906 1.325041e-18)
(0.86387672 -0.12282147 8.9541717e-19)
(0.88950008 -0.088607092 4.071101e-20)
(0.90749782 -0.062004309 -1.4263811e-18)
(0.92093025 -0.042280484 1.5192856e-19)
(0.9331207 -0.028778967 -2.1484166e-19)
(-0.00080197979 0.0036474316 -4.0695621e-20)
(-0.0024815476 0.011247278 2.0765324e-20)
(-0.0043362463 0.019581961 -2.8065814e-20)
(-0.0063835604 0.028709735 -1.5962124e-20)
(-0.0086418007 0.038688486 4.4583067e-20)
(-0.011130674 0.049574278 4.1662765e-20)
(-0.013871041 0.061419086 -4.2810027e-20)
(-0.016884746 0.074268059 5.159055e-21)
(-0.020194481 0.088155953 1.1972091e-21)
(-0.023823593 0.10310277 8.5318781e-20)
(-0.027795833 0.11910841 -9.3900172e-21)
(-0.032135075 0.13614633 -1.7325199e-19)
(-0.036864996 0.15415614 1.3917024e-19)
(-0.042008752 0.17303542 -4.8266866e-21)
(-0.047588698 0.19263097 -9.4451378e-20)
(-0.053626194 0.21273018 -8.1962817e-21)
(-0.060141592 0.23305382 2.1045179e-20)
(-0.067154521 0.25325166 9.5893529e-20)
(-0.074684563 0.27290357 -1.778882e-19)
(-0.082752449 0.29152888 3.1717763e-19)
(-0.091381936 0.30860741 -6.9494108e-20)
(-0.10060204 0.32361473 5.1863438e-20)
(-0.11044974 0.33607235 -4.3427131e-20)
(-0.12097225 0.34560921 1.8266875e-21)
(-0.13222797 0.35202453 -2.6634735e-19)
(-0.14428519 0.35533476 -2.7004426e-19)
(-0.15721946 0.35578337 5.4309315e-19)
(-0.17109925 0.35379788 9.1738871e-20)
(-0.18596201 0.34987885 -3.2384376e-19)
(-0.20185899 0.34442929 -1.1649223e-19)
(-0.218806 0.33775753 -2.6670514e-19)
(-0.23675086 0.33010028 3.0420671e-19)
(-0.25562663 0.32156549 1.3446548e-19)
(-0.27530814 0.31215029 -3.1528333e-19)
(-0.29560738 0.30176835 1.3375923e-19)
(-0.31625226 0.29025765 6.414841e-20)
(-0.33686139 0.27737231 -1.8974117e-19)
(-0.35691164 0.26276719 -5.0102127e-19)
(-0.37569812 0.24598254 -1.535952e-19)
(-0.39228782 0.22643996 1.0294003e-19)
(-0.40547424 0.20346228 2.4601123e-19)
(-0.41375263 0.17633819 2.5580899e-19)
(-0.41534668 0.14445287 2.8409982e-19)
(-0.40833266 0.10749161 5.9715836e-19)
(-0.39089202 0.06565913 -1.7216638e-20)
(-0.36156488 0.019781609 2.5180974e-19)
(-0.31936621 -0.028779945 -1.3753913e-18)
(-0.26353231 -0.078274812 -3.8167308e-19)
(-0.19324074 -0.12651454 -4.3612138e-19)
(-0.10842554 -0.17081415 -1.2132921e-18)
(-0.010600905 -0.20877594 1.4252396e-18)
(0.097568388 -0.23926639 -3.1968835e-19)
(0.21284459 -0.26243003 -1.0335964e-18)
(0.33151581 -0.27904942 -1.2753579e-18)
(0.45014196 -0.28962282 -1.6200598e-19)
(0.56489502 -0.29240401 4.1303285e-19)
(0.66937829 -0.28244944 6.6664762e-19)
(0.75508359 -0.25642261 -2.8334369e-19)
(0.81777686 -0.21779141 5.0686379e-19)
(0.85869677 -0.17324083 -4.1546223e-19)
(0.88409117 -0.13056026 -1.4003167e-19)
(0.90041784 -0.094589472 -4.1023602e-19)
(0.91347032 -0.066969215 1.7814916e-18)
(0.92485288 -0.046570397 5.9645944e-20)
(0.93666725 -0.032500794 7.0293083e-19)
(-0.00094750785 0.0037513639 3.8059292e-20)
(-0.0029270909 0.0115768 7.7008857e-21)
(-0.0051056481 0.020170228 -8.4662881e-21)
(-0.0075013049 0.029595606 -4.1636601e-20)
(-0.010132862 0.039917416 4.9971706e-20)
(-0.013019904 0.051199534 -4.2472615e-20)
(-0.016182487 0.063503066 -2.0320448e-20)
(-0.019640835 0.076883775 1.0915442e-21)
(-0.023414971 0.091388662 1.7208695e-20)
(-0.027524277 0.10705171 9.8063366e-20)
(-0.031986964 0.12388855 -1.6506655e-19)
(-0.03681947 0.14188998 1.9893769e-19)
(-0.042035814 0.16101427 -5.8640519e-20)
(-0.047646924 0.1811782 -7.9942342e-20)
(-0.053660037 0.20224721 1.2328034e-19)
(-0.060078232 0.22402502 -2.4460856e-19)
(-0.066900272 0.24624381 2.9879185e-19)
(-0.074120895 0.26855652 4.739376e-21)
(-0.081731829 0.29053373 1.7472971e-19)
(-0.089723706 0.31166829 -7.0232825e-19)
(-0.098089088 0.33139175 1.7249911e-19)
(-0.10682656 0.34910647 7.2477934e-19)
(-0.11594562 0.36423565 -3.4840555e-19)
(-0.12547152 0.37629011 -4.2286939e-19)
(-0.13544867 0.38494332 1.082302e-19)
(-0.14594048 0.39009789 5.7602424e-19)
(-0.15702435 0.39191876 -8.8735234e-19)
(-0.16878108 0.39080935 9.9915091e-19)
(-0.18127017 0.38731698 -7.9766788e-19)
(-0.19452113 0.38197195 1.5471837e-19)
(-0.20855546 0.37515638 -2.6865864e-19)
(-0.22333719 0.36713771 -3.8681528e-19)
(-0.23876681 0.35807606 1.5385151e-19)
(-0.25470224 0.34799824 4.0050049e-20)
(-0.27092637 0.33681894 5.8145272e-19)
(-0.28713213 0.32435758 -1.1373149e-19)
(-0.30289806 0.31033571 2.9507859e-19)
(-0.31765506 0.29436215 -2.5266867e-19)
(-0.33064715 0.27591695 1.4986984e-19)
(-0.34088952 0.25434803 9.8995773e-20)
(-0.34713565 0.2288991 8.5686276e-20)
(-0.3478772 0.19879323 8.4898994e-20)
(-0.34141095 0.1633956 -5.2119605e-19)
(-0.3260193 0.12245227 -4.129025e-19)
(-0.30023744 0.07631126 1.1564194e-19)
(-0.26305787 0.025943093 -7.471229e-20)
(-0.21383803 -0.027264314 3.0815793e-19)
(-0.15178859 -0.081665343 -6.159272e-19)
(-0.076000257 -0.13494541 -7.1899958e-19)
(0.013034228 -0.18390431 -2.099131e-19)
(0.11315604 -0.22561897 -5.5190627e-19)
(0.22136546 -0.25865729 1.7776306e-20)
(0.33419816 -0.28311324 2.6916329e-19)
(0.44770901 -0.29998754 1.3159458e-18)
(0.55863023 -0.31005575 -6.5994646e-19)
(0.66270724 -0.31142002 2.6806723e-19)
(0.75238685 -0.29880085 -7.7679898e-19)
(0.81976403 -0.26903527 1.3013986e-18)
(0.86314397 -0.22666365 -7.4052007e-19)
(0.88726217 -0.17956592 2.5378092e-19)
(0.90065681 -0.13550772 -1.5627367e-21)
(0.91001746 -0.098989676 1.9544745e-19)
(0.9198777 -0.071123022 7.2587313e-19)
(0.93001751 -0.050447061 -1.3610079e-18)
(0.94141583 -0.03595048 1.3817059e-18)
(-0.0010662673 0.0037229248 -8.4684257e-20)
(-0.003291145 0.011499511 -4.3950029e-20)
(-0.0057348546 0.020052399 6.9037306e-20)
(-0.0084161746 0.029449756 -1.8184931e-21)
(-0.011354486 0.039761318 -6.252275e-20)
(-0.014569475 0.051057713 -3.2728687e-20)
(-0.01808077 0.06340851 6.9087129e-20)
(-0.021907536 0.076879983 -1.1362212e-20)
(-0.026067909 0.091532028 1.6058784e-19)
(-0.030578339 0.10741426 -3.1386845e-20)
(-0.035452804 0.12456099 -8.067407e-22)
(-0.040701911 0.14298496 1.1631487e-19)
(-0.04633191 0.16266968 -3.7466512e-19)
(-0.052343647 0.18356018 1.7567245e-19)
(-0.058731548 0.2055524 3.1710278e-19)
(-0.06548275 0.22848137 -3.4095794e-19)
(-0.072576553 0.25210895 4.240909e-20)
(-0.079984442 0.2761126 -2.438953e-19)
(-0.087670992 0.30007723 -1.8371334e-19)
(-0.095596055 0.32349368 5.8709955e-19)
(-0.10371844 0.3457679 -4.4851635e-19)
(-0.11200153 0.36624626 6.0153926e-19)
(-0.12042026 0.38426107 -7.2107055e-20)
(-0.12896894 0.39919781 3.0045877e-19)
(-0.13766787 0.41057902 -6.6637486e-19)
(-0.14656616 0.41815007 1.609182e-19)
(-0.15573778 0.4219413 4.1358353e-19)
(-0.16526886 0.42227515 -1.0163227e-18)
(-0.17523585 0.41969588 4.4836545e-19)
(-0.18568265 0.41482183 4.8930901e-19)
(-0.19660803 0.40817178 -4.0961386e-19)
(-0.20797677 0.40008724 -5.5232027e-20)
(-0.2196963 0.39077183 2.8135284e-19)
(-0.23159103 0.38028577 -1.572589e-19)
(-0.24341556 0.36855348 2.4398235e-19)
(-0.25482631 0.35538615 -8.6648115e-19)
(-0.26535917 0.3404798 4.5994269e-19)
(-0.27439591 0.32340349 2.7971419e-19)
(-0.28112771 0.30358399 5.7988047e-19)
(-0.2845207 0.28030736 7.8668302e-20)
(-0.28329943 0.25275695 -6.2946522e-19)
(-0.27597529 0.22011829 2.5482019e-19)
(-0.26095387 0.18177267 3.7765421e-19)
(-0.23675398 0.13755993 5.8100674e-20)
(-0.20224599 0.087978529 -3.7200302e-19)
(-0.1567691 0.034100956 -3.2772655e-19)
(-0.099867681 -0.022785446 9.9931663e-19)
(-0.030754009 -0.081193204 5.3067285e-19)
(0.050864211 -0.13864458 1.1566526e-18)
(0.14340705 -0.19146353 4.0789989e-19)
(0.24409714 -0.23634431 1.5930259e-19)
(0.34988929 -0.27165108 1.1883223e-18)
(0.45741113 -0.29735198 4.6873998e-19)
(0.56313998 -0.31452823 -1.5795773e-18)
(0.66430719 -0.32408228 1.2662038e-18)
(0.75584021 -0.32375198 -1.1584701e-18)
(0.82899155 -0.30821316 5.5290752e-19)
(0.87705388 -0.27506851 -2.6412995e-18)
(0.9015844 -0.23042617 -1.3025847e-18)
(0.91082323 -0.18222229 5.1775942e-19)
(0.91485763 -0.13821258 7.9605711e-19)
(0.91944297 -0.10214922 1.3117885e-18)
(0.92725344 -0.07458486 2.2830053e-19)
(0.93631489 -0.053892113 1.765962e-19)
(0.94690447 -0.039073174 -1.8467475e-18)
(-0.0011468979 0.0035675374 -1.5302179e-21)
(-0.0035388372 0.011031138 8.2059816e-20)
(-0.0061634595 0.019254242 -9.6791988e-20)
(-0.0090401061 0.028307374 -4.6611064e-20)
(-0.012188731 0.038263718 9.3435426e-20)
(-0.015629283 0.049199 3.0295106e-20)
(-0.019381307 0.061189832 -1.4711517e-19)
(-0.023463491 0.074311953 1.5856579e-19)
(-0.027892946 0.088637662 3.3515248e-20)
(-0.032684391 0.10423249 1.3364328e-19)
(-0.037849154 0.12115078 -3.5592313e-19)
(-0.04339403 0.13942999 -4.3521011e-21)
(-0.049319974 0.15908349 3.2218823e-19)
(-0.055620685 0.18009156 -3.476804e-19)
(-0.062281138 0.20239057 2.5048639e-19)
(-0.069276194 0.22586029 9.3589134e-20)
(-0.076569473 0.25030979 -1.9731463e-19)
(-0.08411279 0.27546286 1.7996381e-19)
(-0.091846533 0.30094486 2.4254559e-19)
(-0.099701426 0.32627407 -5.2315972e-21)
(-0.10760242 0.35086183 -3.9387155e-19)
(-0.11547478 0.37402747 2.4764164e-19)
(-0.12325292 0.39503416 -1.4044927e-19)
(-0.13089079 0.41314998 -6.916523e-19)
(-0.13837243 0.42773385 -2.354351e-19)
(-0.14571938 0.43833644 6.5114432e-19)
(-0.15299059 0.44479229 -6.6192603e-20)
(-0.16027116 0.44726873 7.6031636e-19)
(-0.16764891 0.44623667 -4.5728666e-19)
(-0.17518347 0.44234511 2.4533755e-19)
(-0.182883 0.43623689 -3.6112065e-19)
(-0.19070127 0.4284015 -8.9373372e-20)
(-0.19852651 0.41911775 4.5619443e-19)
(-0.20616619 0.40848976 -4.7729675e-19)
(-0.21334702 0.39646654 -7.102046e-19)
(-0.21968993 0.38285706 7.1254644e-20)
(-0.22468589 0.36733664 7.8941047e-19)
(-0.22766558 0.34944102 -1.0242904e-18)
(-0.2277657 0.32855483 2.2387169e-19)
(-0.22390682 0.30391837 -4.848406e-19)
(-0.21479639 0.27467763 7.6047129e-20)
(-0.19898788 0.24000994 -7.7241473e-19)
(-0.17502209 0.19934219 -3.7299804e-19)
(-0.14164871 0.15262467 -4.6797381e-19)
(-0.098010321 0.10048942 1.8980852e-18)
(-0.043690738 0.04405991 6.2404464e-19)
(0.021589544 -0.015500559 -8.3392196e-19)
(0.098177338 -0.076798751 6.8238677e-19)
(0.18508958 -0.13719126 5.7479453e-19)
(0.27963797 -0.19275647 -6.5230019e-19)
(0.3786871 -0.24010554 -3.4338496e-19)
(0.47945626 -0.27748793 -8.0966207e-19)
(0.57911615 -0.30459165 -3.9310536e-19)
(0.67518421 -0.32244557 1.3414634e-18)
(0.76506002 -0.33172464 7.512613e-19)
(0.8424727 -0.32969644 1.2069535e-19)
(0.89764419 -0.31145342 -4.130408e-21)
(0.92596928 -0.27581958 6.5348287e-19)
(0.93318721 -0.22975802 -9.2834136e-19)
(0.93036015 -0.18196937 -1.1803198e-18)
(0.92782912 -0.13919121 -3.2523842e-19)
(0.92932123 -0.10429089 -2.430063e-18)
(0.9355874 -0.077370936 -1.8989956e-18)
(0.9433472 -0.056826792 -4.7915326e-19)
(0.95270684 -0.041788246 -2.5301879e-19)
(-0.0011808786 0.0032990766 5.1895971e-20)
(-0.0036438733 0.010213315 3.4587976e-20)
(-0.0063457098 0.017846374 -7.1966195e-20)
(-0.0093060733 0.026268989 1.2341461e-19)
(-0.012545341 0.035555567 3.0914241e-20)
(-0.016083748 0.045784681 -1.3258329e-19)
(-0.019940988 0.057037778 6.7854482e-22)
(-0.024135743 0.069397982 -7.9525951e-20)
(-0.028684891 0.082948173 2.3771009e-20)
(-0.033602583 0.097768423 -5.3215322e-22)