/*--------------------------------*- C++ -*----------------------------------*\
  =========                 |
  \\      /  F ield         | OpenFOAM: The Open Source CFD Toolbox
   \\    /   O peration     | Website:  https://openfoam.org
    \\  /    A nd           | Version:  13
     \\/     M anipulation  |
\*---------------------------------------------------------------------------*/
FoamFile
{
    format      ascii;
    class       volScalarField;
    location    "16.996015";
    object      k;
}
// * * * * * * * * * * * * * * * * * * * * * * * * * * * * * * * * * * * * * //

dimensions      [0 2 -2 0 0 0 0];

internalField   nonuniform List<scalar> 
17140
(
1.1973854e-10
3.7626e-09
3.0768003e-08
1.3232268e-07
4.0720622e-07
1.0276106e-06
2.2788461e-06
4.6186403e-06
8.7645366e-06
1.5821513e-05
2.7466758e-05
4.6214839e-05
7.5794386e-05
0.00012167661
0.00019180495
0.00029758063
0.00045515226
0.00068702412
0.001023906
0.0015065291
0.00218677
0.0031267731
0.0043938229
0.0060477729
0.0081180098
0.010570898
0.013279876
0.016025801
0.018551038
0.020645391
0.022254526
0.02342441
0.024128509
0.024454905
0.024545716
0.024508375
0.024396459
0.024279479
0.024184899
0.024134225
0.024118587
0.024127656
0.024170554
0.024237232
0.024299166
0.024341058
0.024332907
0.024127287
0.023748583
0.023196888
0.02240623
0.021304348
0.019962491
0.018453522
0.016839479
0.015338925
0.014033584
0.013115518
0.012492963
0.012160113
0.011977177
0.011490573
0.010173645
0.0084101668
0.0062559177
1.1845054e-10
3.7221269e-09
3.0437117e-08
1.3090024e-07
4.0283108e-07
1.0165758e-06
2.2543903e-06
4.5691106e-06
8.6706289e-06
1.5652178e-05
2.7173199e-05
4.5721816e-05
7.4987792e-05
0.00012038601
0.00018977955
0.00029445711
0.00045041354
0.00067994969
0.0010135189
0.0014915525
0.002165622
0.0030976515
0.0043549626
0.0059979766
0.0080575184
0.010502473
0.013209569
0.015962569
0.018505058
0.020626485
0.022268253
0.023472031
0.024229529
0.024610396
0.024747446
0.024765382
0.024721563
0.024691035
0.024689189
0.024746134
0.024860345
0.025031443
0.025263047
0.025548385
0.025875763
0.026237324
0.026605569
0.026931004
0.027176605
0.027311942
0.027332094
0.026981097
0.02624938
0.025159496
0.02365097
0.021930814
0.020057644
0.018433762
0.017110509
0.016264959
0.015782205
0.015116579
0.013782086
0.011705758
0.0087561818
1.1563035e-10
3.6335064e-09
2.9712434e-08
1.277836e-07
3.9323991e-07
9.9237166e-07
2.2007157e-06
4.4603331e-06
8.4642406e-06
1.5279725e-05
2.6526948e-05
4.4635384e-05
7.3208372e-05
0.00011753514
0.00018529883
0.00028753489
0.00043988977
0.00066419909
0.00099032117
0.0014579752
0.0021179726
0.0030316065
0.0042660458
0.0058826113
0.0079148109
0.010336513
0.013031186
0.015788751
0.018355465
0.020519317
0.02221136
0.023465385
0.024300524
0.024764765
0.024986392
0.025084305
0.025136458
0.025212377
0.025346905
0.025562996
0.025868912
0.026270985
0.026774925
0.027381655
0.028091526
0.028905235
0.029804331
0.030809704
0.031934625
0.03311514
0.034312015
0.035307385
0.035850365
0.036022504
0.035564108
0.03460118
0.033033539
0.031078271
0.028999727
0.026993185
0.025266488
0.022942626
0.019259282
0.01450211
0.0099458293
1.1129075e-10
3.497141e-09
2.8597326e-08
1.229879e-07
3.7848182e-07
9.5512944e-07
2.1181309e-06
4.2929728e-06
8.1467134e-06
1.4706727e-05
2.5532746e-05
4.2963991e-05
7.0470742e-05
0.00011314865
0.00017840327
0.00027687887
0.00042368224
0.00063992588
0.00095453774
0.0014061124
0.0020442388
0.0029291444
0.0041276065
0.0057020893
0.0076899086
0.010072266
0.012742824
0.015501099
0.018097745
0.020318665
0.022076704
0.023397883
0.024323178
0.024900442
0.025231263
0.02543252
0.025602409
0.025814244
0.026111755
0.02652117
0.027058169
0.027735022
0.028562556
0.029550229
0.030708128
0.032042908
0.033542932
0.035275863
0.037248372
0.039434492
0.041759075
0.044095379
0.046251272
0.047910571
0.048721964
0.048912043
0.048284981
0.046620435
0.044066724
0.04054812
0.036375417
0.030500077
0.022036349
0.014822574
0.0086424604
1.0554047e-10
3.3164475e-09
2.7119738e-08
1.1663332e-07
3.5892673e-07
9.0578265e-07
2.0087063e-06
4.0712249e-06
7.7260053e-06
1.394754e-05
2.4215483e-05
4.0749426e-05
6.6843205e-05
0.00010733559
0.00016926346
0.0002627506
0.00040218427
0.00060770931
0.000907002
0.0013371303
0.0019459954
0.0027922938
0.0039420877
0.0054590648
0.0073852212
0.0097111624
0.012344067
0.015096767
0.017726655
0.020017649
0.021854034
0.023254921
0.024289036
0.02498779
0.025444988
0.025773649
0.026079705
0.026444186
0.026919443
0.027538168
0.028322792
0.029291431
0.030461045
0.031848452
0.033470838
0.035337128
0.037452882
0.039892972
0.042643104
0.045677485
0.048937303
0.052334419
0.055747837
0.058813414
0.061059467
0.062162483
0.062416603
0.061350978
0.058713566
0.054134688
0.047418575
0.0367768
0.023070186
0.012894302
0.0063114988
9.8540048e-11
3.0964701e-09
2.5320915e-08
1.0889723e-07
3.3512025e-07
8.457076e-07
1.8754919e-06
3.8012658e-06
7.2138207e-06
1.3023251e-05
2.2611666e-05
3.8052874e-05
6.2425559e-05
0.00010025497
0.00015812735
0.0002455291
0.00037596368
0.00056838208
0.00084890587
0.0012526858
0.0018254608
0.0026238754
0.0037128108
0.0051569781
0.0070034698
0.0092537685
0.011831346
0.014565787
0.017223192
0.019584181
0.021515988
0.023017714
0.024159905
0.024991025
0.025592913
0.026065385
0.026518511
0.027041547
0.027695974
0.028522438
0.029550183
0.030803586
0.032305203
0.034076585
0.036137811
0.038497511
0.041181898
0.044243513
0.047657721
0.051395158
0.055404451
0.059602311
0.063851488
0.067897944
0.071303886
0.073218129
0.073933956
0.073318093
0.070659506
0.065399677
0.056293903
0.039642352
0.021997108
0.010280657
0.0042985757
9.0488219e-11
2.8434541e-09
2.3251925e-08
9.9999245e-08
3.077382e-07
7.7660956e-07
1.7222686e-06
3.4907547e-06
6.6246841e-06
1.1960048e-05
2.076668e-05
3.4950498e-05
5.734223e-05
9.2105396e-05
0.0001453055
0.00022569066
0.00034573719
0.00052300175
0.00078177634
0.0011549284
0.0016855674
0.0024277294
0.0034445316
0.0048012608
0.0065501185
0.0087044612
0.011206595
0.013906902
0.016584012
0.019016421
0.021059999
0.022673466
0.02391945
0.024889482
0.025629208
0.026257204
0.026862124
0.027540777
0.028363977
0.029380957
0.0306286
0.032138338
0.033937552
0.036050366
0.038497169
0.041285461
0.044445382
0.048006147
0.051938283
0.056205189
0.060756233
0.06550924
0.070323527
0.074955728
0.079020926
0.08144861
0.08234692
0.081737138
0.07881883
0.072770028
0.060621844
0.03966555
0.018204791
0.0070179087
0.0025364587
8.1618195e-11
2.5647275e-09
2.097269e-08
9.0197057e-08
2.7757354e-07
7.0048917e-07
1.5534714e-06
3.1486753e-06
5.9756296e-06
1.0788646e-05
1.873375e-05
3.1531626e-05
5.1739186e-05
8.3119996e-05
0.00013116273
0.00020379559
0.0003123498
0.00047281894
0.00070742707
0.0010464272
0.0015298513
0.0022085456
0.0031431628
0.0043988378
0.0060323822
0.0080692784
0.01047244
0.013116775
0.015797751
0.018292656
0.020442268
0.022189125
0.023561173
0.024645089
0.025533925
0.026288868
0.027044673
0.02787003
0.028842314
0.030020362
0.031450015
0.033170634
0.035214719
0.037608881
0.040373674
0.043512055
0.047036373
0.050960735
0.055252127
0.059862342
0.064738531
0.069799779
0.074904779
0.079808546
0.084095831
0.0866475
0.087433785
0.086386276
0.082671774
0.075661488
0.061125532
0.033810988
0.012722913
0.0041321972
0.0014967666
7.2193178e-11
2.2685606e-09
1.8550832e-08
7.9781475e-08
2.4552111e-07
6.1960424e-07
1.3741055e-06
2.785167e-06
5.2858839e-06
9.5437154e-06
1.657298e-05
2.789718e-05
4.5781463e-05
7.3562627e-05
0.00011611261
0.0001804804
0.00027676425
0.00041926454
0.00062794517
0.00093016239
0.0013624605
0.001971913
0.0028159151
0.0039584587
0.0054599394
0.0073573964
0.0096352192
0.012196285
0.014858554
0.0174022
0.019651051
0.021526148
0.02303914
0.024255983
0.025265762
0.026158607
0.027016282
0.02795395
0.029048488
0.030352066
0.031920028
0.033803362
0.036038101
0.038651014
0.041659587
0.045055341
0.04882946
0.052979244
0.05746937
0.062236449
0.067221451
0.072343979
0.077461111
0.082323117
0.086465943
0.088752233
0.089088827
0.087250558
0.082676722
0.074477606
0.054828201
0.023999692
0.0073981272
0.0023605143
0.0008854721
6.2490454e-11
1.9636674e-09
1.6057616e-08
6.9058969e-08
2.1252395e-07
5.3633413e-07
1.1894463e-06
2.4109178e-06
4.5757185e-06
8.261822e-06
1.434778e-05
2.4153684e-05
3.9643378e-05
6.3712258e-05
0.00010059295
0.00015642018
0.00024000421
0.00036386519
0.00054556792
0.00080934915
0.0011879095
0.0017239887
0.0024708676
0.0034901657
0.0048442999
0.0065803612
0.0087038517
0.011148163
0.013760067
0.016329548
0.018664654
0.020659099
0.022302617
0.02364879
0.024781021
0.025792196
0.026771916
0.027800965
0.028963707
0.030340947
0.032007176
0.034013578
0.036386116
0.039148248
0.042311272
0.045861207
0.049775207
0.054009823
0.058539029
0.063280962
0.068165561
0.073107596
0.077957705
0.082458281
0.086060624
0.087825452
0.08731694
0.084472549
0.07866025
0.067937687
0.041151329
0.013338883
0.0039987118
0.0013111145
0.00054253072
5.2806052e-11
1.6593497e-09
1.3569097e-08
5.8356599e-08
1.7958849e-07
4.5321874e-07
1.0051261e-06
2.037342e-06
3.8667899e-06
6.9820484e-06
1.2125969e-05
2.0415172e-05
3.3511766e-05
5.3868377e-05
8.5074836e-05
0.0001323435
0.00020317909
0.00030828478
0.00046275252
0.00068755601
0.001011282
0.0014718463
0.0021175686
0.0030063258
0.0042005591
0.0057550053
0.0076944991
0.0099840442
0.01250555
0.015068772
0.017472096
0.019579031
0.021350474
0.022822931
0.024071623
0.025185775
0.026257113
0.027376841
0.028627858
0.030088359
0.03181949
0.033873545
0.036294627
0.03910694
0.042319828
0.04591493
0.049846706
0.054049386
0.058480067
0.063063172
0.06769736
0.072274239
0.076616003
0.080413901
0.083065876
0.083816458
0.082332444
0.078053807
0.070719267
0.054849116
0.022939879
0.0067450779
0.0020349621
0.0007234598
0.00035051455
4.3451474e-11
1.3653962e-09
1.1165328e-08
4.8018681e-08
1.477744e-07
3.7293213e-07
8.2707535e-07
1.6764601e-06
3.1819119e-06
5.7455855e-06
9.9790728e-06
1.6802026e-05
2.7584125e-05
4.4348165e-05
7.0058462e-05
0.00010902674
0.00016747669
0.00025431637
0.00038217023
0.00056870844
0.00083825977
0.0012235645
0.0017672492
0.0025220909
0.0035483121
0.0049051322
0.0066334065
0.0087286672
0.0111128
0.013627144
0.016072133
0.018282715
0.020183136
0.02178467
0.023150579
0.024365491
0.025520151
0.026705613
0.028008395
0.029508808
0.031278284
0.033366436
0.035814124
0.038643742
0.041856283
0.045419273
0.04927389
0.053330065
0.057510169
0.06173371
0.065873957
0.069794728
0.073289358
0.076010542
0.077492784
0.077040713
0.074286102
0.068352862
0.058145181
0.033655363
0.010426622
0.0030701753
0.00099210914
0.0004162442
0.00024730567
3.4730434e-11
1.0913507e-09
8.9243554e-09
3.8380904e-08
1.1811477e-07
2.9808177e-07
6.6107733e-07
1.3399966e-06
2.543343e-06
4.5926372e-06
7.9769446e-06
1.3431914e-05
2.2053739e-05
3.5462564e-05
5.6035356e-05
8.723531e-05
0.0001340734
0.00020374672
0.00030650499
0.00045679418
0.0006746997
0.00098763227
0.0014320137
0.0020543464
0.0029103879
0.0040601896
0.0055558695
0.007419631
0.009614842
0.012025504
0.014470979
0.016767122
0.018796675
0.020534443
0.022023669
0.023340992
0.02457445
0.025814225
0.027147962
0.028656594
0.030411296
0.032466702
0.034862368
0.03761883
0.040735522
0.044165319
0.047827336
0.051608505
0.055392205
0.059116031
0.062615833
0.065707125
0.06812642
0.069541559
0.069617993
0.067911634
0.063336931
0.055701766
0.039267663
0.014028272
0.0042214454
0.0013146331
0.00049887393
0.00026967551
0.00019868457
2.6904984e-11
8.4544764e-10
6.9135143e-09
2.9732854e-08
9.1500857e-08
2.3091719e-07
5.1212215e-07
1.03807e-06
1.9702969e-06
3.5579222e-06
6.1799435e-06
1.0406602e-05
1.7087984e-05
2.7481339e-05
4.343309e-05
6.7637496e-05
0.00010400154
0.00015815457
0.00023815017
0.00035541276
0.00052597317
0.00077199677
0.0011234965
0.0016198764
0.002310472
0.0032524575
0.0045034635
0.0061057366
0.0080608433
0.010302275
0.012687261
0.015031928
0.017181089
0.019062236
0.020685725
0.022112889
0.023426099
0.024713384
0.026061891
0.027553299
0.029258321
0.03123381
0.033518931
0.036131661
0.039064853
0.042259558
0.04562424
0.049031719
0.052325469
0.055421862
0.058124
0.060184452
0.061317079
0.061337364
0.060072143
0.056562703
0.050181055
0.038751796
0.016459427
0.0051712207
0.0016110049
0.00057962444
0.00028596274
0.0002038486
0.00017561194
2.0161563e-11
6.3354582e-10
5.1807151e-09
2.2280588e-08
6.856687e-08
1.7303922e-07
3.837612e-07
7.7788231e-07
1.4764541e-06
2.6661719e-06
4.6310969e-06
7.7987139e-06
1.2806508e-05
2.0597802e-05
3.2559131e-05
5.0716247e-05
7.801226e-05
0.00011869946
0.00017888579
0.00026728574
0.00039622859
0.00058296318
0.00085124264
0.0012330295
0.0017698532
0.0025127743
0.0035190055
0.0048422484
0.0065138832
0.0085160956
0.010758829
0.013084764
0.015322732
0.01734674
0.019118473
0.020670126
0.02207199
0.023407976
0.024763304
0.02621937
0.027847625
0.029704085
0.031827701
0.03423445
0.036912037
0.03979316
0.042768513
0.04570324
0.048401388
0.050743091
0.052485469
0.053344999
0.053169357
0.05195459
0.048920704
0.043550338
0.034685834
0.016540826
0.0055113897
0.0017699428
0.0006323021
0.000300383
0.00020047872
0.0001758797
0.00016123447
1.4592428e-11
4.5854432e-10
3.7496661e-09
1.6126075e-08
4.9626667e-08
1.2524018e-07
2.7775261e-07
5.6300048e-07
1.0685941e-06
1.9296558e-06
3.3517882e-06
5.6444388e-06
9.2691676e-06
1.490922e-05
2.3569458e-05
3.6719397e-05
5.6497138e-05
8.5998695e-05
0.00012968575
0.00019395461
0.00028791799
0.00042445318
0.00062155112
0.00090393268
0.0013047262
0.0018666383
0.0026413926
0.0036852399
0.005047473
0.0067496589
0.0087588887
0.010970534
0.013224935
0.015365558
0.017289662
0.018984699
0.020494429
0.021891739
0.023257776
0.024671854
0.026205917
0.027916434
0.029839741
0.03198983
0.034351608
0.036853509
0.039358387
0.041725206
0.043723549
0.045175088
0.045811614
0.045523634
0.044263557
0.041389246
0.036675668
0.029271674
0.014802649
0.0054079117
0.0017888446
0.00064650259
0.00030239704
0.00020190268
0.00016948337
0.00016257694
0.00015044788
1.0192148e-11
3.2027236e-10
2.6189692e-09
1.1263295e-08
3.4661732e-08
8.7473505e-08
1.9399381e-07
3.9321896e-07
7.4633455e-07
1.3477055e-06
2.3409169e-06
3.9420795e-06
6.4735615e-06
1.0412647e-05
1.646152e-05
2.5647662e-05
3.9467467e-05
6.0091095e-05
9.0653463e-05
0.00013566516
0.0002015873
0.00029762329
0.00043678192
0.00063724379
0.00092398556
0.0013304235
0.0018994381
0.0026824321
0.0037340885
0.0050997914
0.0067940801
0.0087751917
0.010932763
0.013110694
0.015167924
0.017016802
0.018658128
0.020140546
0.021535256
0.022916834
0.024354603
0.0259055
0.027605109
0.029463717
0.031462708
0.033531684
0.03550753
0.037211671
0.038402246
0.038841915
0.038498138
0.037246093
0.034529291
0.030190054
0.023686719
0.012207939
0.0048089206
0.0017276475
0.00063832724
0.00030023217
0.00019851236
0.0001685979
0.00015616623
0.0001508963
0.00014165216
6.8697057e-12
2.1586974e-10
1.7652337e-09
7.5916493e-09
2.3362489e-08
5.8957982e-08
1.307525e-07
2.6502759e-07
5.0301722e-07
9.0831162e-07
1.5776627e-06
2.656683e-06
4.3625686e-06
7.0168871e-06
1.1092766e-05
1.7282659e-05
2.6595498e-05
4.049572e-05
6.1101827e-05
9.1469122e-05
0.0001359903
0.00020095805
0.00029534349
0.00043184556
0.00062824375
0.00090900501
0.0013068893
0.0018638872
0.0026301036
0.0036582408
0.0049908013
0.0066389101
0.0085584698
0.010640421
0.012735223
0.014716214
0.016508678
0.018108656
0.019563833
0.020938951
0.022298274
0.023695545
0.025165222
0.026714558
0.028320183
0.029909785
0.031313459
0.032273135
0.03256613
0.032189299
0.030942525
0.028431143
0.024441466
0.018477237
0.0095010691
0.0039377371
0.0015303656
0.00060887644
0.00029434959
0.00019590716
0.00016518025
0.00015469336
0.00014560905
0.00014146162
0.00013472964
4.4729485e-12
1.4055533e-10
1.1493627e-09
4.9429925e-09
1.5211463e-08
3.8387649e-08
8.5132333e-08
1.725557e-07
3.2750065e-07
5.9136006e-07
1.0271056e-06
1.7294969e-06
2.8398548e-06
4.5673736e-06
7.2197911e-06
1.1247445e-05
1.7306471e-05
2.6349392e-05
3.9754866e-05
5.9513385e-05
8.8492536e-05
0.00013081446
0.00019238863
0.00028165291
0.00041057706
0.00059596074
0.00086098052
0.001236743
0.0017632012
0.0024880533
0.0034614317
0.0047237565
0.006285921
0.0081074332
0.010087776
0.012091282
0.013991955
0.015727334
0.017281518
0.01869155
0.020009406
0.021281783
0.022538956
0.023783331
0.024983472
0.026057811
0.026844283
0.027010203
0.026609234
0.02537758
0.023041339
0.01944996
0.013889996
0.0070166262
0.0030356402
0.0012565151
0.00054391652
0.00028078243
0.00019129454
0.00016253259
0.00015104722
0.00014367244
0.00013764848
0.00013462046
0.00012803731
2.819973e-12
8.8613163e-11
7.2461529e-10
3.1163009e-09
9.5900017e-09
2.4201176e-08
5.3670462e-08
1.087837e-07
2.0646071e-07
3.727898e-07
6.4745378e-07
1.0901559e-06
1.7899135e-06
2.8784578e-06
4.5495041e-06
7.0864153e-06
1.0901869e-05
1.6594703e-05
2.5031403e-05
3.7462927e-05
5.5692297e-05
8.2314816e-05
0.00012106143
0.00017728602
0.00025864689
0.00037603484
0.00054477808
0.00078607696
0.0011284345
0.0016085145
0.0022702278
0.0031600706
0.0043162522
0.0057512439
0.0074324274
0.0092743046
0.011154846
0.012960534
0.014612094
0.016094673
0.017417802
0.018611569
0.019694394
0.020661042
0.021463569
0.021997611
0.022058112
0.021663045
0.02050162
0.01826149
0.015084003
0.0099560997
0.0049183191
0.0022186984
0.00097883342
0.00045902071
0.00025869694
0.00018444798
0.00015875876
0.00014797933
0.00014052699
0.00013635295
0.00013119893
0.00012815775
0.00012340681
1.7283886e-12
5.4311857e-11
4.4412335e-10
1.9100063e-09
5.8777731e-09
1.4832985e-08
3.2894566e-08
6.66726e-08
1.2653562e-07
2.2846892e-07
3.967839e-07
6.6804962e-07
1.0967751e-06
1.7635949e-06
2.7870289e-06
4.3403435e-06
6.675695e-06
1.0158683e-05
1.5317814e-05
2.2915371e-05
3.4049114e-05
5.0298392e-05
7.3934204e-05
0.00010822056
0.00015784407
0.00022951739
0.00033280417
0.00048119259
0.00069337348
0.00099451035
0.0014169519
0.0019993556
0.002782735
0.0038017541
0.0050699531
0.0065637759
0.0082145987
0.0099207315
0.011574141
0.01309595
0.014440236
0.015592332
0.016543389
0.017270357
0.017676324
0.017624113
0.01720301
0.016117759
0.014059229
0.011084294
0.0066205672
0.0032616377
0.0015471992
0.00073075199
0.00037651224
0.00023191058
0.00017663885
0.00015465833
0.00014476587
0.00013796082
0.00013349124
0.00012953676
0.00012525189
0.00012339092
0.00011931636
1.037126e-12
3.2590025e-11
2.6649761e-10
1.1461043e-09
3.5269686e-09
8.900543e-09
1.9738335e-08
4.0006509e-08
7.5925996e-08
1.3708678e-07
2.3807185e-07
4.0081244e-07
6.5798956e-07
1.0579293e-06
1.6716272e-06
2.6028032e-06
4.0022723e-06
6.0884622e-06
9.1767075e-06
1.3721103e-05
2.0374396e-05
3.0073877e-05
4.4164805e-05
6.4577979e-05
9.4084842e-05
0.00013666162
0.00019800158
0.00028621589
0.00041274972
0.00059346758
0.0008497105
0.0012088343
0.0017032907
0.002367051
0.0032284409
0.0042991541
0.0055618451
0.0069631595
0.0084190212
0.0098335609
0.011118514
0.012203505
0.013031813
0.013533649
0.013505177
0.013138755
0.012143865
0.010352013
0.0075008946
0.0042215691
0.0021279841
0.0010435154
0.00053144533
0.00030371556
0.00020761088
0.00016802833
0.00015166381
0.00014220363
0.0001354122
0.00013081516
0.00012700961
0.00012391344
0.00012090169
0.00011830569
0.0001148784
6.1808576e-13
1.9422351e-11
1.5882184e-10
6.8303241e-10
2.1019369e-09
5.304398e-09
1.1763375e-08
2.3842595e-08
4.524949e-08
8.169902e-08
1.4188085e-07
2.3886132e-07
3.9210685e-07
6.3039323e-07
9.9597541e-07
1.5505459e-06
2.3837311e-06
3.6251887e-06
5.4618158e-06
8.1622294e-06
1.211162e-05
1.7861455e-05
2.6200518e-05
3.8256665e-05
5.5642744e-05
8.0665584e-05
0.00011662321
0.00016822121
0.00024213826
0.00034775467
0.00049800128
0.00071016067
0.0010062199
0.0014119387
0.0019537018
0.002651849
0.0035122883
0.0045174933
0.0056220653
0.0067532546
0.0078206965
0.0087241918
0.0093778374
0.009541446
0.0093065777
0.0085545699
0.0069312476
0.0044950299
0.0024802733
0.0013268531
0.00069559872
0.00038519745
0.00024591192
0.00018641201
0.00016094721
0.00014912678
0.00014102497
0.00013460057
0.00013034771
0.00012618459
0.00012273943
0.00011963064
0.00011643693
0.00011511511
0.00011209391
3.7638013e-13
1.1827142e-11
9.6713839e-11
4.1593102e-10
1.2799796e-09
3.2301664e-09
7.1635472e-09
1.4519735e-08
2.7556807e-08
4.9755667e-08
8.6409138e-08
1.4547578e-07
2.3881195e-07
3.8394226e-07
6.0659392e-07
9.4431265e-07
1.4516085e-06
2.2072595e-06
3.3246561e-06
4.9664288e-06
7.3651426e-06
1.0852612e-05
1.5901282e-05
2.3182901e-05
3.3651747e-05
4.8662703e-05
7.0138309e-05
0.00010080267
0.00014450381
0.00020664197
0.0002947025
0.00041884761
0.00059241386
0.0008319655
0.0011563519
0.0015839037
0.0021267733
0.0027833446
0.003530045
0.0043176193
0.0050702765
0.0056883063
0.0059968643
0.0058714968
0.0053236128
0.0040186886
0.0024834856
0.0014212722
0.00079146461
0.00045451767
0.00028412621
0.00020349843
0.00016945456
0.0001549171
0.00014739144
0.00014089265
0.00013495013
0.0001302701
0.00012566781
0.0001220977
0.0001186283
0.00011593492
0.00011304518
0.00011102424
0.00010883924
2.4514738e-13
7.7033683e-12
6.299279e-11
2.7091142e-10
8.3371287e-10
2.1040214e-09
4.6662698e-09
9.4584848e-09
1.7952194e-08
3.2416141e-08
5.6300512e-08
9.4793824e-08
1.5562631e-07
2.5022394e-07
3.9535969e-07
6.1550937e-07
9.4619762e-07
1.4387326e-06
2.1668878e-06
3.2363075e-06
4.797671e-06
7.0650243e-06
1.0341403e-05
1.505469e-05
2.180715e-05
3.1444003e-05
4.5147968e-05
6.4569123e-05
9.200178e-05
0.00013062041
0.00018478114
0.00026037596
0.00036515268
0.00050895925
0.00070333581
0.00096022797
0.0012889061
0.0016907603
0.0021516237
0.0026321192
0.0030589673
0.0033030245
0.003226198
0.0028399146
0.002009435
0.0012739195
0.00077108639
0.00046678344
0.0002988581
0.00021388248
0.00017439232
0.00015597038
0.00014989756
0.00014607852
0.00014154898
0.00013554942
0.00013039642
0.00012560456
0.00012225748
0.00011854622
0.00011560421
0.0001128754
0.0001104513
0.00010901089
0.00010680977
1.771782e-13
5.56755e-12
4.5527774e-11
1.9580264e-10
6.0258546e-10
1.5207913e-09
3.3729809e-09
6.8375152e-09
1.2978844e-08
2.3438597e-08
4.0714154e-08
6.8562644e-08
1.1258407e-07
1.8105924e-07
2.8614878e-07
4.4560138e-07
6.851774e-07
1.0420745e-06
1.5697416e-06
2.3446113e-06
3.4754572e-06
5.1163239e-06
7.4842519e-06
1.0883041e-05
1.5735363e-05
2.2625152e-05
3.2353234e-05
4.6010016e-05
6.5069588e-05
9.150871e-05
0.00012795218
0.00017783757
0.0002455689
0.00033656119
0.00045692616
0.00061240872
0.00080593959
0.0010329555
0.0012742843
0.001487797
0.001597565
0.0015343646
0.0012725676
0.00090985632
0.00061110291
0.00040464737
0.0002725894
0.00020306162
0.00016779772
0.00015212642
0.0001466654
0.00014547677
0.0001448635
0.00014239857
0.00013640924
0.00013058234
0.00012608497
0.00012260273
0.00011891628
0.00011587782
0.00011311377
0.00011063262
0.00010781919
0.00010617575
0.00010446011
1.3959125e-13
4.3864427e-12
3.5869633e-11
1.5426753e-10
4.7477141e-10
1.1982599e-09
2.6577697e-09
5.3880494e-09
1.0228409e-08
1.8473654e-08
3.2094263e-08
5.4055918e-08
8.8781016e-08
1.4281226e-07
2.2576251e-07
3.5166812e-07
5.4090761e-07
8.2290709e-07
1.2399322e-06
1.8523538e-06
2.7458927e-06
4.0414505e-06
5.9082324e-06
8.5809522e-06
1.23818e-05
1.7747565e-05
2.5261745e-05
3.5690588e-05
5.0022189e-05
6.9501547e-05
9.5653804e-05
0.00013028177
0.00017541777
0.00023315152
0.00030511792
0.00039133875
0.00048869986
0.0005865504
0.0006646575
0.00068829048
0.00063865914
0.00051077554
0.0003873941
0.00028187327
0.00020835754
0.00016732964
0.00014131572
0.00013641463
0.00013870872
0.00014069791
0.00014406457
0.00014477771
0.00014306959
0.00013742827
0.00013092206
0.00012666088
0.00012313768
0.00011931298
0.00011637197
0.00011330641
0.00011060231
0.00010798178
0.00010607788
0.00010480862
0.00010319725
1.1040291e-13
3.4692455e-12
2.8369434e-11
1.2201149e-10
3.7550404e-10
9.4773423e-10
2.1021346e-09
4.2617214e-09
8.090493e-09
1.4612903e-08
2.5388167e-08
4.2763217e-08
7.0238008e-08
1.129905e-07
1.7862737e-07
2.7825174e-07
4.2797231e-07
6.5102077e-07
9.8069553e-07
1.4644065e-06
2.1691488e-06
3.1887635e-06
4.6533076e-06
6.7406943e-06
9.6903456e-06
1.3817845e-05
1.9528068e-05
2.7321839e-05
3.7789816e-05
5.1584881e-05
6.9363084e-05
9.1676799e-05
0.00011883127
0.00015059174
0.00018585307
0.00022206525
0.00025467738
0.00027533827
0.000271378
0.00024192322
0.00020096572
0.00016032672
0.00013288132
0.00011330142
0.00010459603
0.00010956672
0.00011645936
0.00013065871
0.00014053618
0.00014557049
0.00014584189
0.00014400086
0.00013811128
0.0001312512
0.0001274005
0.00012369352
0.0001199776
0.00011691815
0.00011389863
0.00011111796
0.00010878784
0.00010665903
0.00010432448
0.00010270066
0.00010136718
7.9425301e-14
2.4958199e-12
2.0409299e-11
8.777597e-11
2.7013703e-10
6.8178419e-10
1.5121929e-09
3.0655787e-09
5.8193725e-09
1.0509994e-08
1.8257879e-08
3.0748704e-08
5.0494644e-08
8.120895e-08
1.2833982e-07
1.9982624e-07
3.071596e-07
4.668602e-07
7.0250486e-07
1.0474651e-06
1.5485216e-06
2.2704827e-06
3.3018124e-06
4.7609854e-06
6.8027379e-06
9.6224509e-06
1.3455568e-05
1.8567435e-05
2.5227233e-05
3.3659498e-05
4.3970072e-05
5.6041469e-05
6.9406183e-05
8.3148458e-05
9.5776259e-05
0.0001046854
0.00010721197
0.00010166867
9.055275e-05
8.026029e-05
7.2520768e-05
6.6645414e-05
6.9203032e-05
7.5938711e-05
8.7682332e-05
0.0001082162
0.00013475249
0.00014513384
0.00014726311
0.00014712123
0.00014504187
0.00013853856
0.00013199601
0.00012833223
0.0001244004
0.00012065195
0.00011758035
0.00011441765
0.00011181584
0.00010930455
0.00010684946
0.0001044916
0.00010255615
0.00010156008
0.00010048754
4.9303305e-14
1.5492799e-12
1.2668999e-11
5.4485793e-11
1.676791e-10
4.2317588e-10
9.3853487e-10
1.9024473e-09
3.6109206e-09
6.5202839e-09
1.1324319e-08
1.9065805e-08
3.1296837e-08
5.0307766e-08
7.9451779e-08
1.2360121e-07
1.8978248e-07
2.8804798e-07
4.32653e-07
6.4360706e-07
9.4865162e-07
1.3856583e-06
2.0053096e-06
2.873671e-06
4.0738218e-06
5.7050436e-06
7.8772201e-06
1.0697333e-05
1.4243913e-05
1.8528263e-05
2.3442547e-05
2.8710114e-05
3.3837383e-05
3.8093215e-05
4.0523758e-05
4.0436603e-05
3.8731423e-05
3.7014517e-05
3.5793653e-05
3.714449e-05
4.1879306e-05
4.7763682e-05
6.0782349e-05
8.0154035e-05
0.00011368264
0.00013884597
0.00014771991
0.0001496554
0.00014899468
0.00014648635
0.00013931726
0.00013288067
0.00012927363
0.00012509053
0.00012145542
0.00011827956
0.00011515647
0.00011248191
0.00010994914
0.00010735012
0.00010536821
0.00010344862
0.00010163512
0.00010038993
9.924896e-05
2.6119455e-14
8.2076213e-13
6.711602e-12
2.8864088e-11
8.8825109e-11
2.2415535e-10
4.970916e-10
1.0074873e-09
1.9118973e-09
3.4514866e-09
5.9925439e-09
1.0084893e-08
1.6545503e-08
2.657726e-08
4.1936191e-08
6.5164406e-08
9.9910318e-08
1.5136126e-07
2.2681449e-07
3.3640634e-07
4.9399919e-07
7.1817852e-07
1.0332206e-06
1.4697307e-06
2.0643983e-06
2.8579655e-06
3.8901702e-06
5.1901672e-06
6.761466e-06
8.5625936e-06
1.0486787e-05
1.2348258e-05
1.3889031e-05
1.4894249e-05
1.5515163e-05
1.6199535e-05
1.7434189e-05
1.9696729e-05
2.2673845e-05
2.9452423e-05
3.992759e-05
5.7753063e-05
8.3275425e-05
0.00011797392
0.00014026951
0.00014987091
0.00015185303
0.00015097002
0.00014799789
0.00014030556
0.00013402859
0.00013031405
0.00012603797
0.00012243064
0.00011913425
0.00011589115
0.0001132057
0.00011052144
0.00010813774
0.00010605516
0.00010394187
0.00010178159
0.00010012292
9.9114237e-05
9.830357e-05
1.2085592e-14
3.7976969e-13
3.105453e-12
1.3355055e-11
4.1096316e-11
1.03701e-10
2.2994356e-10
4.6596781e-10
8.8407313e-10
1.5955364e-09
2.7691758e-09
4.6580216e-09
7.6373201e-09
1.2258198e-08
1.9322634e-08
2.9986838e-08
4.5901437e-08
6.9397462e-08
1.0372569e-07
1.5335144e-07
2.2429378e-07
3.2447162e-07
4.6397308e-07
6.5509146e-07
9.1187351e-07
1.2488029e-06
1.6782437e-06
2.2063593e-06
2.8279459e-06
3.5222706e-06
4.2540382e-06
4.9879724e-06
5.7772485e-06
6.7738599e-06
8.0605103e-06
9.763259e-06
1.28613e-05
1.7730906e-05
2.6055555e-05
3.9472141e-05
5.9177884e-05
8.4814669e-05
0.00011591517
0.00013867974
0.00015127175
0.00015411758
0.00015313704
0.00014993591
0.0001420256
0.00013571847
0.00013161496
0.00012713217
0.00012354413
0.00012003488
0.00011677927
0.00011401456
0.00011134376
0.00010891552
0.00010675215
0.00010444613
0.00010253058
0.00010084708
9.9399441e-05
9.8448001e-05
9.7595237e-05
5.4037839e-15
1.6980468e-13
1.3885156e-12
5.9712027e-12
1.8373851e-11
4.6360707e-11
1.0278856e-10
2.0826687e-10
3.9507048e-10
7.1284153e-10
1.2368302e-09
2.0797082e-09
3.4083566e-09
5.4674944e-09
8.6125566e-09
1.3354819e-08
2.0422263e-08
3.0839848e-08
4.6032223e-08
6.7949764e-08
9.9213967e-08
1.4326957e-07
2.0451735e-07
2.8838555e-07
4.0128719e-07
5.5043017e-07
7.4354984e-07
9.8868571e-07
1.293678e-06
1.6707075e-06
2.1544939e-06
2.8268822e-06
3.7815136e-06
5.20684e-06
7.416642e-06
1.1016824e-05
1.6867889e-05
2.6235724e-05
3.99925e-05
5.9092833e-05
8.338039e-05
0.00011245234
0.00013774481
0.00015286183
0.00015648943
0.00015553061
0.00015235629
0.00014439382
0.00013776625
0.00013309153
0.00012830553
0.00012474135
0.00012114843
0.00011781901
0.00011496682
0.00011212007
0.00010967321
0.00010735584
0.00010520598
0.00010329372
0.0001015562
9.9730808e-05
9.818529e-05
9.7385903e-05
9.6678779e-05
3.1813101e-15
9.9967298e-14
8.1744755e-13
3.5153732e-12
1.0817058e-11
2.7293444e-11
6.0513901e-11
1.2261376e-10
2.3260235e-10
4.1973178e-10
7.2837744e-10
1.2250595e-09
2.0084735e-09
3.2237164e-09
5.0823036e-09
7.8900929e-09
1.2085863e-08
1.8294049e-08
2.7395985e-08
4.0625037e-08
5.9692361e-08
8.6952426e-08
1.2562291e-07
1.8008689e-07
2.5633783e-07
3.627033e-07
5.1115999e-07
7.1991645e-07
1.0174209e-06
1.4507739e-06
2.0971338e-06
3.0903111e-06
4.6506423e-06
7.1297242e-06
1.105392e-05
1.7226441e-05
2.6560629e-05
3.991043e-05
5.8254048e-05
8.2187913e-05
0.00011069379
0.00013801835
0.00015460547
0.00015903361
0.00015818998
0.00015525462
0.00014728236
0.00014009216
0.00013475867
0.00012980756
0.00012613687
0.00012247431
0.00011905876
0.00011598053
0.00011305123
0.00011054884
0.00010824986
0.00010603597
0.0001040802
0.00010213408
0.00010032714
9.8792609e-05
9.756841e-05
9.6876556e-05
9.6166362e-05
3.2873236e-15
1.0329884e-13
8.4469918e-13
3.632654e-12
1.1178405e-11
2.8207104e-11
6.2546259e-11
1.2675206e-10
2.4050955e-10
4.3414739e-10
7.5375318e-10
1.268579e-09
2.0817127e-09