/*--------------------------------*- C++ -*----------------------------------*\
  =========                 |
  \\      /  F ield         | OpenFOAM: The Open Source CFD Toolbox
   \\    /   O peration     | Website:  https://openfoam.org
    \\  /    A nd           | Version:  13
     \\/     M anipulation  |
\*---------------------------------------------------------------------------*/
FoamFile
{
    format      ascii;
    class       volScalarField;
    location    "16.996015";
    object      nut;
}
// * * * * * * * * * * * * * * * * * * * * * * * * * * * * * * * * * * * * * //

dimensions      [0 2 -1 0 0 0 0];

internalField   nonuniform List<scalar> 
17140
(
2.6441747e-17
5.1425717e-15
1.369745e-13
1.3886556e-12
8.398416e-12
3.72114e-11
1.3438044e-10
4.205552e-10
1.1850096e-09
3.0831529e-09
7.5376725e-09
1.7535195e-08
3.9179962e-08
8.4678596e-08
1.7800161e-07
3.6550497e-07
7.356656e-07
1.4554342e-06
2.8366608e-06
5.4565288e-06
1.0374105e-05
1.951565e-05
3.6348903e-05
6.7025835e-05
0.00012218882
0.00021937901
0.00038484079
0.00065072191
0.0010411363
0.0015473368
0.0017383474
0.0018741521
0.0019935939
0.0020930931
0.0021864883
0.002283059
0.0023890486
0.0025146614
0.0026680802
0.0028584654
0.0030920706
0.0033745551
0.0037133898
0.0041104922
0.0045590579
0.0050476815
0.0055458954
0.0055679146
0.0054907726
0.0053780897
0.0052176193
0.0049883529
0.0047119816
0.0043973067
0.0040524735
0.003722969
0.003422216
0.0031953295
0.0030115999
0.002892366
0.0028100395
0.002665901
0.0023945406
0.0020716921
0.0017204419
2.6157141e-17
5.0872156e-15
1.3550019e-13
1.3737121e-12
8.3080641e-12
3.6811169e-11
1.3293538e-10
4.1603333e-10
1.1722685e-09
3.0499993e-09
7.4565925e-09
1.734646e-08
3.8757837e-08
8.3764862e-08
1.7607653e-07
3.6153944e-07
7.276493e-07
1.4394835e-06
2.8053428e-06
5.3957341e-06
1.025726e-05
1.9293148e-05
3.5929286e-05
6.6243986e-05
0.00012075841
0.00021684273
0.00038058889
0.00064426107
0.0010328141
0.0015393035
0.0017676504
0.0019091127
0.0020357186
0.0021431887
0.0022441372
0.0023505157
0.0024692452
0.0026114525
0.0027842043
0.0029975562
0.0032579214
0.0035700379
0.003936596
0.0043548309
0.0048151841
0.0053016034
0.0057867522
0.0060402214
0.0060635955
0.0060583473
0.0060237357
0.0059144323
0.0057369409
0.0054935683
0.0051763132
0.0048252158
0.0044391294
0.0040892243
0.0037924961
0.0035644814
0.0034024838
0.0032282682
0.0029407381
0.0026053547
0.0021948363
2.5534193e-17
4.9660596e-15
1.3227312e-13
1.3409949e-12
8.1101821e-12
3.5934304e-11
1.2976824e-10
4.0611903e-10
1.1443229e-09
2.9772543e-09
7.2786228e-09
1.6932045e-08
3.7830665e-08
8.175741e-08
1.7184656e-07
3.5282613e-07
7.1003914e-07
1.4044594e-06
2.7366288e-06
5.2624915e-06
1.0001527e-05
1.8806933e-05
3.5013704e-05
6.4539679e-05
0.00011763894
0.00021129239
0.00037119546
0.00062967855
0.0010131277
0.0015179027
0.0018149347
0.0019647906
0.0021017779
0.0022219174
0.0023360076
0.0024570046
0.002594365
0.0027592483
0.0029610547
0.0032084744
0.0035068716
0.0038576031
0.0042575397
0.0046984005
0.0051661762
0.0056403515
0.0060975012
0.0065207396
0.0068582526
0.0070306946
0.0071944401
0.0073108615
0.0073382756
0.0073010943
0.0071537538
0.0069225544
0.0065865083
0.0061829299
0.0057518468
0.0053121963
0.004903465
0.0044176942
0.0037532551
0.0030263633
0.0024274251
2.4575724e-17
4.7796496e-15
1.2730797e-13
1.290657e-12
7.8057329e-12
3.4585269e-11
1.2489595e-10
3.9086811e-10
1.1013389e-09
2.8653769e-09
7.0049582e-09
1.6294921e-08
3.6405576e-08
7.8672863e-08
1.6534963e-07
3.3944989e-07
6.8302232e-07
1.3507701e-06
2.6313987e-06
5.0586802e-06
9.6108801e-06
1.8065308e-05
3.3619234e-05
6.1947118e-05
0.00011289581
0.0002028425
0.00035682897
0.00060714053
0.0009820701
0.0014827672
0.0018875638
0.0020460901
0.0021936966
0.0023320475
0.0024646393
0.0026059726
0.0027684523
0.0029643659
0.0032041138
0.0034949626
0.0038388733
0.0042319882
0.0046657257
0.0051278186
0.0056017754
0.0060653345
0.0064957268
0.0069039218
0.0073017011
0.0077185617
0.0082126198
0.0088066361
0.0091171465
0.0093351405
0.0094030445
0.0093738301
0.0092105233
0.0088693999
0.008370869
0.0076755253
0.0068407301
0.005699665
0.0042008306
0.0031195159
0.0022984851
2.3305747e-17
4.5326559e-15
1.2072918e-13
1.2239601e-12
7.4023501e-12
3.2797897e-11
1.1844076e-10
3.7066361e-10
1.0443976e-09
2.7171854e-09
6.6425096e-09
1.5451233e-08
3.4518852e-08
7.4590243e-08
1.567535e-07
3.2175975e-07
6.4731287e-07
1.2798567e-06
2.4925304e-06
4.7899947e-06
9.0964952e-06
1.7090023e-05
3.1787734e-05
5.8545417e-05
0.0001066736
0.00019174048
0.00033786074
0.00057706862
0.00093983989
0.0014334907
0.0019899616
0.0021586052
0.0023179604
0.0024783262
0.0026347862
0.0028035605
0.0029988401
0.0032341806
0.0035202278
0.0038612182
0.0042528622
0.004685339
0.005147216
0.0056263226
0.0061077309
0.006570374
0.0069940865
0.0073979626
0.007812326
0.0082804431
0.0088443039
0.0095559369
0.010460339
0.011262231
0.011598518
0.011752854
0.011769969
0.011561875
0.011082259
0.010226866
0.008942732
0.0068905771
0.0044865802
0.002892421
0.0019370346
2.1759725e-17
4.2319753e-15
1.1272043e-13
1.1427663e-12
6.9112914e-12
3.0622063e-11
1.105828e-10
3.460692e-10
9.7508727e-10
2.5368145e-09
6.2013944e-09
1.4424551e-08
3.2223276e-08
6.9624015e-08
1.4629995e-07
3.0025533e-07
6.0392494e-07
1.1937471e-06
2.3240268e-06
4.4642496e-06
8.473471e-06
1.5909929e-05
2.957356e-05
5.4434752e-05
9.9149665e-05
0.00017827562
0.00031468083
0.00053973214
0.00088578113
0.0013664778
0.0019543211
0.0023162042
0.0024908349
0.0026692945
0.0028559764
0.0030600718
0.0032970045
0.0035804992
0.0039202576
0.0043147368
0.004750481
0.0052130218
0.0056923304
0.0061801779
0.0066667114
0.0071355288
0.007570625
0.007984153
0.0084153805
0.0089143615
0.0095226897
0.010284185
0.011251523
0.01244591
0.01351548
0.013848196
0.013990002
0.0139242
0.013509152
0.012558603
0.010806776
0.0076136382
0.0044579392
0.0025576278
0.0015956832
1.9981549e-17
3.8861445e-15
1.035091e-13
1.0493807e-12
6.3465e-12
2.8119554e-11
1.0154523e-10
3.1778358e-10
8.9537802e-10
2.3293941e-09
5.6941696e-09
1.3244142e-08
2.9584413e-08
6.39164e-08
1.3428942e-07
2.755577e-07
5.5411935e-07
1.0949632e-06
2.1308711e-06
4.0911905e-06
7.7606977e-06
1.4561339e-05
2.704588e-05
4.9745214e-05
9.0563477e-05
0.00016287133
0.00028798288
0.00049612185
0.00082104832
0.0012830505
0.0018659361
0.0025109244
0.0027369376
0.0029316034
0.0031457745
0.0033903904
0.0036772823
0.0040159238
0.0044123894
0.0048605108
0.0053374304
0.0058263449
0.0063194184
0.0068101147
0.0072918301
0.0077530832
0.0081925273
0.0086134892
0.0090581647
0.0095807953
0.010217065
0.01100444
0.011986099
0.013203825
0.014701059
0.015512232
0.01575213
0.015751702
0.015329153
0.014240145
0.011840838
0.0078269286
0.0038882093
0.0020341461
0.0011892731
1.8022726e-17
3.5051799e-15
9.3361972e-14
9.4650796e-13
5.7243335e-12
2.5362848e-11
9.1589789e-11
2.8662595e-10
8.0757853e-10
2.1009332e-09
5.1355363e-09
1.1944241e-08
2.6678881e-08
5.7633381e-08
1.21072e-07
2.4838899e-07
4.993586e-07
9.8642173e-07
1.9188061e-06
3.6820031e-06
6.9797598e-06
1.3085544e-05
2.4282955e-05
4.4623338e-05
8.1184021e-05
0.00014600337
0.00025854759
0.00044732758
0.00074662403
0.0011826111
0.0017506348
0.0024026689
0.0030557443
0.0033026957
0.0035540472
0.0038410593
0.0041783256
0.0045749218
0.0050272571
0.0055174205
0.0060248114
0.0065366539
0.0070438615
0.0075337572
0.0079969805
0.0084300543
0.0088362544
0.0092425676
0.0096791554
0.010208329
0.01085558
0.011648248
0.012626586
0.013829185
0.015282059
0.016679207
0.016951276
0.016906316
0.016329005
0.014989736
0.012091116
0.0068818111
0.0029351311
0.001473581
0.0009188953
1.5941383e-17
3.1003858e-15
8.2580092e-14
8.3720025e-13
5.0632512e-12
2.2433729e-11
8.1011803e-11
2.535205e-10
7.1429291e-10
1.8582081e-09
4.5420661e-09
1.0563422e-08
2.359295e-08
5.0961691e-08
1.0704109e-07
2.1955958e-07
4.4128087e-07
8.7138257e-07
1.6942333e-06
3.2491179e-06
6.154562e-06
1.1528113e-05
2.1370906e-05
3.9230252e-05
7.1308496e-05
0.00012820691
0.00022729611
0.00039480052
0.00066443299
0.0010669965
0.0016093711
0.0022567831
0.0029404849
0.0035898173
0.0041113104
0.0044594658
0.0048463867
0.0052983656
0.0057838868
0.0061445078
0.0065180089
0.0069249255
0.0073823726
0.0078864147
0.0084420997
0.0090563561
0.0094545753
0.0098100608
0.010216455
0.010727308
0.011363829
0.012140152
0.013091015
0.014252401
0.015645369
0.017286491
0.017505355
0.017311295
0.016498966
0.014811725
0.010921468
0.0050461105
0.0019607457
0.0010719359
0.00072450187
1.3798747e-17
2.6836716e-15
7.1480725e-14
7.2467386e-13
4.3827034e-12
1.9418368e-11
7.0122448e-11
2.19441e-10
6.1826485e-10
1.6083572e-09
3.931211e-09
9.1422893e-09
2.0417374e-08
4.4097592e-08
9.2609631e-08
1.8991867e-07
3.8159915e-07
7.5324516e-07
1.4638061e-06
2.8054033e-06
5.3097385e-06
9.9357709e-06
1.8397592e-05
3.3729681e-05
6.1238676e-05
0.00011002925
0.00019519251
0.00034013953
0.00057680585
0.00093879138
0.0014434859
0.0020711038
0.0027620991
0.003442373
0.0040562986
0.004583459
0.0050338599
0.0054322562
0.0058070786
0.0061787885
0.0065676648
0.0069955045
0.0074751569
0.0080037553
0.0085874015
0.0092301547
0.0099277006
0.01023481
0.010599451
0.01107379
0.011677848
0.012412974
0.013314535
0.014395799
0.01577389
0.017314532
0.017371495
0.016932594
0.015747206
0.013456258
0.0082734435
0.0029458684
0.001325575
0.0008042713
0.00060598495
1.1660191e-17
2.2677506e-15
6.0402448e-14
6.1236084e-13
3.7034456e-12
1.6408734e-11
5.9253867e-11
1.8542698e-10
5.224235e-10
1.3590016e-09
3.3216046e-09
7.7241967e-09
1.7249037e-08
3.7250533e-08
7.8218137e-08
1.6037152e-07
3.2213768e-07
6.3562527e-07
1.2345909e-06
2.3645043e-06
4.4713681e-06
8.357925e-06
1.54559e-05
2.8295085e-05
5.1296517e-05
9.2064043e-05
0.00016331946
0.00028526565
0.00048691805
0.00080250354
0.0012578881
0.0018492357
0.0025312185
0.0032319829
0.0038859693
0.0044584861
0.0049484714
0.0053809517
0.0057813233
0.0061725548
0.006576044
0.0070143611
0.0075013296
0.0080367302
0.0086288884
0.0092812007
0.009987124
0.01046321
0.010783088
0.01121493
0.01177298
0.012448118
0.013267283
0.014252971
0.015661221
0.01672165
0.016554616
0.0157121
0.014085794
0.010787139
0.0047016187
0.0016533267
0.00093277405
0.00061891139
0.00052848612
9.5945004e-18
1.8660009e-15
4.9701626e-14
5.0387465e-13
3.0473329e-12
1.350166e-11
4.8755737e-11
1.525728e-10
4.2985253e-10
1.1181647e-09
2.732862e-09
6.3547735e-09
1.4189886e-08
3.064083e-08
6.4329674e-08
1.3186888e-07
2.6481021e-07
5.2231023e-07
1.0139752e-06
1.9406543e-06
3.6665902e-06
6.8458765e-06
1.2642138e-05
2.3106352e-05
4.1817073e-05
7.4935264e-05
0.00013284022
0.00023233382
0.00039861701
0.00066432646
0.0010607526
0.0015991281
0.0022525265
0.0029583348
0.0036453524
0.0042642674
0.0048006017
0.0052672041
0.0056933063
0.0061023622
0.0065203704
0.0069699629
0.0074641985
0.0080059458
0.0086012181
0.0092519137
0.0099497154
0.010528855
0.010782208
0.011144853
0.011616848
0.012187236
0.012876162
0.013824791
0.015271461
0.015544823
0.015024682
0.013718723
0.011362772
0.0066066996
0.0022376431
0.00097960049
0.00063163291
0.00049908743
0.00049773886
7.6687352e-18
1.4914651e-15
3.9725684e-14
4.0273771e-13
2.4356695e-12
1.0791542e-11
3.8968952e-11
1.2194529e-10
3.4355788e-10
8.9366637e-10
2.1840974e-09
5.0784688e-09
1.1339175e-08
2.4482807e-08
5.139419e-08
1.053331e-07
2.1146906e-07
4.169549e-07
8.090607e-07
1.5474711e-06
2.9212218e-06
5.448105e-06
1.0046658e-05
1.8331023e-05
3.3110579e-05
5.9219588e-05
0.00010483772
0.0001834013
0.00031578055
0.00053110935
0.0008624273
0.0013328764
0.0019357697
0.0026251763
0.003331615
0.003993229
0.0045784005
0.0050859505
0.0055420618
0.0059710184
0.0063993821
0.0068511544
0.0073410486
0.0078746291
0.0084573269
0.0090895008
0.0097588873
0.010360784
0.010529244
0.010798537
0.011158826
0.011603227
0.012203815
0.013219763
0.014119113
0.013808799
0.012799067
0.010990145
0.0075222535
0.0028038582
0.00101329
0.00061741436
0.00048889192
0.00045394163
0.00050622987
5.9407586e-18
1.1553965e-15
3.0774341e-14
3.1198849e-13
1.8868314e-12
8.3598024e-12
3.0187544e-11
9.4464587e-11
2.6613179e-10
6.9224889e-10
1.6917847e-09
3.9335721e-09
8.7823403e-09
1.8960738e-08
3.9797934e-08
8.1554161e-08
1.6369597e-07
3.2266747e-07
6.2585465e-07
1.1963943e-06
2.256764e-06
4.2045694e-06
7.7430463e-06
1.4103792e-05
2.5423315e-05
4.5370668e-05
8.0164521e-05
0.00014012187
0.00024169684
0.0004092347
0.00067396106
0.0010658821
0.0015966835
0.0022427659
0.0029462896
0.0036392998
0.0042727388
0.0048300065
0.0053175868
0.0057714697
0.0062112402
0.0066618668
0.0071404695
0.0076560079
0.0082113857
0.0088070616
0.0094291995
0.0099649678
0.010044556
0.010200273
0.010432821
0.010772013
0.01141867
0.012476093
0.012302233
0.011516872
0.010000416
0.0073003156
0.0031325658
0.0010954975
0.00054670049
0.0004150121
0.00040078321
0.00044952292
0.00054606774
4.4517306e-18
8.6580043e-16
2.3060828e-14
2.3378872e-13
1.4138928e-12
6.2643654e-12
2.2620668e-11
7.0785108e-11
1.9941743e-10
5.1870434e-10
1.2676263e-09
2.9472589e-09
6.5799404e-09
1.4205007e-08
2.9813506e-08
6.108762e-08
1.2259775e-07
2.4160826e-07
4.684945e-07
8.9520925e-07
1.6876272e-06
3.1415431e-06
5.7785898e-06
1.0509006e-05
1.8905526e-05
3.3659711e-05
5.9328956e-05
0.00010351301
0.00017855059
0.0003034882
0.00050504382
0.00081443732
0.0012561909
0.0018299849
0.0024993024
0.0032012901
0.0038742305
0.0044812324
0.005015436
0.0054909992
0.0059473562
0.0063975141
0.0068601217
0.0073507583
0.0078672408
0.0084123734
0.008970087
0.0093580929
0.0093479444
0.0093851788
0.0095118956
0.0098708473
0.010624588
0.010735222
0.010043651
0.0087401715
0.0065300787
0.0030238982
0.0010733903
0.00045032011
0.00034731552
0.00035082135
0.00040143175
0.00047971703
0.00057493116
3.2220135e-18
6.2663724e-16
1.6690637e-14
1.6920788e-13
1.0233212e-12
4.5338823e-12
1.6371759e-11
5.1230362e-11
1.4432545e-10
3.7539849e-10
9.1739225e-10
2.132905e-09
4.7617063e-09
1.0279387e-08
2.1573514e-08
4.4201664e-08
8.8702938e-08
1.7479317e-07
3.3888481e-07
6.473955e-07
1.2199974e-06
2.269711e-06
4.1712084e-06
7.5759425e-06
1.3604527e-05
2.4165777e-05
4.248033e-05
7.3921405e-05
0.00012729749
0.00021658971
0.0003626668
0.00059327246
0.00093788799
0.0014145892
0.0020129364
0.0026886254
0.0033788255
0.0040296233
0.0046145752
0.0051284571
0.0055938752
0.006047221
0.006496063
0.0069539699
0.0074259013
0.0079079833
0.0083849789
0.0085648805
0.0084735556
0.0084303195
0.0085715584
0.0090579309
0.009241571
0.0085703967
0.0073902857
0.0054932754
0.0025787368
0.00098035304
0.00038480374
0.00027364188
0.00028575987
0.00034051549
0.0004224621
0.00051427553
0.00061617293
2.2504034e-18
4.3767254e-16
1.1657508e-14
1.181823e-13
7.147304e-13
3.1666376e-12
1.1434588e-11
3.57807e-11
1.007998e-10
2.621826e-10
6.4070848e-10
1.4896044e-09
3.3254983e-09
7.1788953e-09
1.5066424e-08
3.086955e-08
6.1949186e-08
1.2207587e-07
2.366801e-07
4.52136e-07
8.5194992e-07
1.584595e-06
2.910689e-06
5.2819497e-06
9.4719808e-06
1.6791294e-05
2.9438589e-05
5.1068493e-05
8.7684871e-05
0.00014895887
0.00024989938
0.00041220829
0.00066336299
0.0010300624
0.0015244428
0.0021290119
0.0027964533
0.003467117
0.004094211
0.0046570027
0.0051504537
0.0055998262
0.0060320133
0.0064565958
0.0068764892
0.0072892873
0.0076713777
0.0076283389
0.0075078897
0.0075045297
0.0077883422
0.0078618812
0.0071903214
0.0060625607
0.0043793687
0.0020095516
0.00081474031
0.00033221406
0.00021063571
0.0002267374
0.00029115976
0.00038144281
0.00047267393
0.00054596105
0.00064268356
1.5167974e-18
2.9499624e-16
7.8572847e-15
7.9655954e-14
4.8173329e-13
2.1343264e-12
7.7069137e-12
2.4116027e-11
6.7938055e-11
1.7670697e-10
4.3182438e-10
1.0039591e-09
2.2413162e-09
4.8384966e-09
1.0154937e-08
2.0807638e-08
4.176077e-08
8.2304119e-08
1.5959996e-07
3.0495646e-07
5.7476259e-07
1.0692483e-06
1.9641547e-06
3.5633514e-06
6.3851079e-06
1.1302748e-05
1.9771365e-05
3.4192403e-05
5.8493702e-05
9.9022869e-05
0.00016582128
0.00027413505
0.00044538338
0.00070557233
0.0010781847
0.0015709545
0.0021632283
0.0028079576
0.0034501999
0.004049029
0.0045829084
0.0050481858
0.0054629231
0.0058438401
0.0061991936
0.0065310922
0.0067732569
0.0066479929
0.0065964385
0.0067635343
0.0065689442
0.0059023878
0.0048303884
0.003305977
0.0014543046
0.00061697628
0.00026611338
0.00016303306
0.00018410794
0.0002468583
0.00033670725
0.00041911773
0.0004905454
0.00057468141
0.00068524227
9.8759342e-19
1.9207321e-16
5.1159019e-15
5.1864145e-14
3.1365659e-13
1.3896549e-12
5.0179313e-12
1.570174e-11
4.4233663e-11
1.1505133e-10
2.8115426e-10
6.5366574e-10
1.4593177e-09
3.1504453e-09
6.6124957e-09
1.3550482e-08
2.7199933e-08
5.3619053e-08
1.0400797e-07
1.9881613e-07
3.7491044e-07
6.9788482e-07
1.2828311e-06
2.3287461e-06
4.1744677e-06
7.3878048e-06
1.2906801e-05
2.2262978e-05
3.7943022e-05
6.3940401e-05
0.00010659008
0.00017571566
0.00028589601
0.00045706318
0.0007126193
0.0010727155
0.0015422451
0.0021010101
0.0027048861
0.0033040937
0.0038615748
0.0043504154
0.0047669431
0.0051151695
0.0054003182
0.005626006
0.00578027
0.0057351766
0.0056631327
0.0053316581
0.0047022319
0.0037173289
0.0023321226
0.00098120599
0.00043381492
0.00019739671
0.00012486786
0.00014996048
0.00020972314
0.00029793764
0.00037923205
0.00045097888
0.00053055504
0.00060836482
0.00070871143
6.2262101e-19
1.2109111e-16
3.225279e-15
3.2697287e-14
1.9774159e-13
8.7609165e-13
3.1634882e-12
9.8989299e-12
2.7886411e-11
7.2532312e-11
1.7725014e-10
4.1210063e-10
9.2004512e-10
1.9863358e-09
4.1694853e-09
8.5453496e-09
1.7156617e-08
3.3830878e-08
6.5651567e-08
1.2556861e-07
2.3696545e-07
4.4151975e-07
8.1248858e-07
1.4767166e-06
2.6503408e-06
4.6955549e-06
8.2092985e-06
1.4159578e-05
2.4087954e-05
4.0426424e-05
6.6992485e-05
0.00010975216
0.00017771583
0.0002838994
0.00044557857
0.00068240101
0.0010105194
0.0014331856
0.0019317162
0.0024680594
0.0029967376
0.0034821161
0.0038929212
0.0042157308
0.0044422393
0.0045573957
0.0045561049
0.004444148
0.0041446974
0.0035621652
0.0027012243
0.0015022444
0.0006175216
0.00028560048
0.00013911551
9.4932294e-05
0.00012224773
0.00017971549
0.00026398913
0.00029493031
0.00031745226
0.00038436701
0.00046137331
0.00062307374
0.00075493079
3.8160524e-19
7.4216919e-17
1.9767776e-15
2.0040197e-14
1.2119591e-13
5.3695672e-13
1.9389027e-12
6.0670621e-12
1.7091646e-11
4.4455462e-11
1.0863878e-10
2.525866e-10
5.6393842e-10
1.2175912e-09
2.5560772e-09
5.2394824e-09
1.0521852e-08
2.0755088e-08
4.0297025e-08
7.7127824e-08
1.456878e-07
2.7178168e-07
5.0090035e-07
9.1204787e-07
1.6401854e-06
2.9117836e-06
5.0998497e-06
8.8074652e-06
1.4992826e-05
2.515465e-05
4.1593018e-05
6.7760055e-05
0.00010880554
0.00017249094
0.00026951865
0.00041350296
0.00061911528
0.00089749646
0.0012489289
0.0016569432
0.0020882211
0.0025020315
0.0028609266
0.0031320056
0.0032825407
0.0032899302
0.0031983633
0.0029553247
0.002478453
0.001771155
0.00085812699
0.00036398872
0.00017796529
9.4120419e-05
7.1890928e-05
9.9765391e-05
0.00015554497
0.00023555139
0.00021259839
0.00022974026
0.00026580947
0.00031834327
0.00039605352
0.00056785894
0.00074578719
2.2898054e-19
4.4533528e-17
1.186156e-15
1.2025025e-14
7.2723081e-14
3.2219926e-13
1.163437e-12
3.6405559e-12
1.0255966e-11
2.6676132e-11
6.5191399e-11
1.5157507e-10
3.3842946e-10
7.3074838e-10
1.5342172e-09
3.1453765e-09
6.318064e-09
1.2467388e-08
2.4218903e-08
4.6389494e-08
8.7717155e-08
1.6386687e-07
3.0256327e-07
5.5217249e-07
9.9569556e-07
1.7729284e-06
3.1144152e-06
5.3915293e-06
9.1918451e-06
1.5429805e-05
2.5507938e-05
4.1541203e-05
6.6596755e-05
0.00010490712
0.00016233865
0.0002467658
0.00036767824
0.00053401449
0.00075062204
0.0010133716
0.0013051671
0.0015962207
0.0018499878
0.0020277615
0.0020938976
0.0020609725
0.0018881679
0.0015502262
0.0010102058
0.00045642871
0.00021089333
0.00010731157
6.2448932e-05
5.5317272e-05
8.3275159e-05
0.00013650905
0.00019348682
0.00015370576
0.00016739161
0.0001899829
0.00022135274
0.00027662615
0.00034787478
0.00048508247
0.00065785171
1.3646141e-19
2.6539836e-17
7.0689159e-16
7.1663431e-15
4.3339669e-14
1.9201757e-13
6.9336838e-13
2.1696782e-12
6.1124144e-12
1.589902e-11
3.8855528e-11
9.0346346e-11
2.0173389e-10
4.3562993e-10
9.1472981e-10
1.8756844e-09
3.7686741e-09
7.4395954e-09
1.4460071e-08
2.7719035e-08
5.2471161e-08
9.8170607e-08
1.8162777e-07
3.323377e-07
6.0125427e-07
1.0747943e-06
1.896325e-06
3.2980659e-06
5.6459964e-06
9.5015851e-06
1.5707421e-05
2.5509512e-05
4.0753024e-05
6.4057078e-05
9.9003532e-05
0.00014966082
0.00022075365
0.00031692702
0.00044202209
0.00059468002
0.00076587006
0.00093686761
0.0010841037
0.0011659018
0.0011827031
0.0010857513
0.00085113929
0.00049789053
0.00022554105
0.00011741057
6.4340297e-05
4.1665296e-05
4.3829428e-05
7.1446077e-05
0.00012239801
0.0001377146
0.00011858408
0.00013094918
0.00014634153
0.00016562223
0.00019463285
0.00024209877
0.00031587528
0.00046159949
0.00063602376
8.3096261e-20
1.6161063e-17
4.3045228e-16
4.3638695e-15
2.6391487e-14
1.1693005e-13
4.2223997e-13
1.3213087e-12
3.7225416e-12
9.6832258e-12
2.3666394e-11
5.5033669e-11
1.2289891e-10
2.6543347e-10
5.5747149e-10
1.1434359e-09
2.2982845e-09
4.5392405e-09
8.8287357e-09
1.6939566e-08
3.2105449e-08
6.0167218e-08
1.115642e-07
2.0473615e-07
3.7180849e-07
6.6782596e-07
1.1852085e-06
2.0753772e-06
3.579056e-06
6.0652688e-06
1.0077232e-05
1.6385875e-05
2.6061119e-05
4.056565e-05
6.1903968e-05
9.2815825e-05
0.0001362325
0.00019465916
0.00026832933
0.00035544445
0.00044982348
0.00053976641
0.0006033495
0.00061913739
0.00056399765
0.00040920415
0.00022531386
0.00011182545
6.3040129e-05
3.8262623e-05
2.8656426e-05
3.6269941e-05
6.31092e-05
0.00011163147
0.00010783319
9.9783606e-05
0.00011101187
0.00011960857
0.00013009275
0.00014716782
0.00017501157
0.00022370892
0.00028746969
0.00041016976
0.00058071362
5.4122188e-20
1.052602e-17
2.8036305e-16
2.8423114e-15
1.7189847e-14
7.6163635e-14
2.7504274e-13
8.6073845e-13
2.4251593e-12
6.3090474e-12
1.5421613e-11
3.5866873e-11
8.0111851e-11
1.730648e-10
3.6358612e-10
7.4604714e-10
1.500308e-09
2.9651823e-09
5.7723049e-09
1.1088068e-08
2.1046973e-08
3.9520086e-08
7.3462927e-08
1.3524792e-07
2.466226e-07
4.4525908e-07
7.9521964e-07
1.4028337e-06
2.43903e-06
4.1677238e-06
6.9775238e-06
1.1411005e-05
1.8187446e-05
2.8218696e-05
4.2588809e-05
6.2596654e-05
8.967202e-05
0.00012517521
0.00016946782
0.00021983863
0.00026883656
0.00030243214
0.00030406619
0.00026397383
0.00017502853
9.5740776e-05
5.3838639e-05
3.3345722e-05
2.3108778e-05
2.0681802e-05
3.1444445e-05
5.6917773e-05
0.00010289807
9.062712e-05
9.0369847e-05
9.865991e-05
0.00010425609
0.00011019406
0.00012080953
0.00013821864
0.00016535754
0.00020742269
0.00027424988
0.00040146057
0.00057448513
3.9115742e-20
7.6074813e-18
2.0262809e-16
2.0542652e-15
1.2424204e-14
5.5050737e-14
1.9881226e-13
6.2223136e-13
1.7533596e-12
4.562044e-12
1.1153437e-11
2.5946461e-11
5.7971531e-11
1.252836e-10
2.6333115e-10
5.4065572e-10
1.0880654e-09
2.1523964e-09
4.1948215e-09
8.0693111e-09
1.5344237e-08
2.8877443e-08
5.3835107e-08
9.9473047e-08
1.8220446e-07
3.3075872e-07
5.9457103e-07
1.0567374e-06
1.8525338e-06
3.1926747e-06
5.3867275e-06
8.8569952e-06
1.4132077e-05
2.1815715e-05
3.2533248e-05
4.6860752e-05
6.5168556e-05
8.7217805e-05
0.00011132697
0.00013312459
0.00014390037
0.00013497705
0.00010659038
6.7833018e-05
3.945601e-05
2.5585567e-05
1.7776562e-05
1.464513e-05
1.5933154e-05
2.7596804e-05
5.2330975e-05
9.5176559e-05
8.2650841e-05
8.7279519e-05
9.3949971e-05
9.7089954e-05
0.00010145373
0.00010810399
0.00011839299
0.00013502794
0.00015969059
0.00020249775
0.00026230994
0.00037575205
0.00055032538
3.0817149e-20
5.9935233e-18
1.5964056e-16
1.6184746e-15
9.7887832e-15
4.3375098e-14
1.5665551e-13
4.903312e-13
1.3818347e-12
3.5958984e-12
8.7930313e-12
2.0460379e-11
4.5728315e-11
9.8863418e-11
2.0790213e-10
4.2711745e-10
8.6023706e-10
1.703346e-09
3.3236116e-09
6.4027781e-09
1.2197042e-08
2.3004372e-08
4.2997997e-08
7.9697637e-08
1.4652875e-07
2.671802e-07
4.8278457e-07
8.6309755e-07
1.52251e-06
2.6392649e-06
4.470726e-06
7.3492828e-06
1.163931e-05
1.7647373e-05
2.5498667e-05
3.4997222e-05
4.5450722e-05
5.525929e-05
6.182352e-05
6.1262416e-05
5.26995e-05
3.759164e-05
2.4746507e-05
1.6246642e-05
1.2107024e-05
1.0134944e-05
9.696388e-06
1.2992058e-05
2.5053572e-05
4.8698932e-05
8.9484029e-05
8.3461876e-05
8.8056695e-05
9.3791001e-05
9.543217e-05
9.841885e-05
0.00010300481
0.00010945211
0.0001196257
0.00013506214
0.00015837003
0.00019644733
0.0002571043
0.00037735577
0.00055400533
2.4372916e-20
4.7402089e-18
1.2625824e-16
1.2800448e-15
7.7419889e-15
3.4306087e-14
1.2390438e-13
3.878334e-13
1.0930306e-12
2.8445374e-12
6.9563307e-12
1.6188408e-11
3.618582e-11
7.8247061e-11
1.6458477e-10
3.3821893e-10
6.8141602e-10
1.3497867e-09
2.634893e-09
5.0784343e-09
9.6791173e-09
1.8264749e-08
3.4155874e-08
6.3336526e-08
1.1648786e-07
2.1243846e-07
3.8379909e-07
6.8559976e-07
1.2066627e-06
2.0815042e-06
3.4927201e-06
5.6456062e-06
8.6923081e-06
1.260074e-05
1.7006462e-05
2.1197569e-05
2.4299128e-05
2.5060124e-05
2.2647297e-05
1.7808837e-05
1.2921496e-05
9.0641899e-06
6.9924052e-06
6.0683525e-06
5.9328968e-06
7.2702783e-06
1.1081604e-05
2.2844793e-05
4.6438661e-05
8.524011e-05
9.1177333e-05
9.2238193e-05
9.566751e-05
9.6853517e-05
9.8999103e-05
0.00010174595
0.00010612375
0.00011312792
0.00012270564
0.00013771126
0.00015972148
0.00019898558
0.00025625977
0.0003663094
0.00054681611
1.7533891e-20
3.4101081e-18
9.0830056e-17
9.2085781e-16
5.5694805e-15
2.4678823e-14
8.9130577e-14
2.7897601e-13
7.8619288e-13
2.0458575e-12
5.0026521e-12
1.1640367e-11
2.6015073e-11
5.6241166e-11
1.1826138e-10
2.4292638e-10
4.8916396e-10
9.6826749e-10
1.8883349e-09
3.6349384e-09
6.9163607e-09
1.3022649e-08
2.4282431e-08
4.4856319e-08
8.2085224e-08
1.4870637e-07
2.6630263e-07
4.7017769e-07
8.1495663e-07
1.3773019e-06
2.2472723e-06
3.4953184e-06
5.1040463e-06
6.8771779e-06
8.4071425e-06
9.2311466e-06
8.9538321e-06
7.6536865e-06
5.9594097e-06
4.597631e-06
3.7105874e-06
3.2391948e-06
3.4414936e-06
4.0518999e-06
5.6346086e-06
1.0127608e-05
2.2469496e-05
4.5037408e-05
8.0674792e-05
0.00010343165
0.00010065649
0.00010065394
0.0001008201
0.00010179734
0.00010259511
0.0001052633
0.00011027385
0.00011731774
0.00012723881
0.00014232318
0.00016334215
0.00019956668
0.00025608884
0.0003716872
0.00055459922
1.0883977e-20
2.1167859e-18
5.6381405e-17
5.7159987e-16
3.4570128e-15
1.5317543e-14
5.531706e-14
1.7312254e-13
4.8781293e-13
1.2691568e-12
3.1026152e-12
7.2168189e-12
1.6121625e-11
3.4832284e-11
7.3187299e-11
1.5018642e-10
3.0202422e-10
5.9682056e-10
1.1613662e-09
2.2291894e-09
4.2259637e-09
7.9192356e-09
1.4676489e-08
2.6899852e-08
4.8734555e-08
8.7165773e-08
1.5357395e-07
2.6557798e-07
4.4827007e-07
7.3239886e-07
1.1447152e-06
1.683927e-06
2.2851788e-06
2.7995519e-06
3.0451906e-06
2.9274308e-06
2.5670535e-06
2.1682961e-06
1.8407244e-06
1.7274664e-06
1.884564e-06
2.2135552e-06
3.0576914e-06
4.9753505e-06
1.0320752e-05
2.1917211e-05
4.3069309e-05
7.6460826e-05
0.00011882796
0.00011470119
0.00011072829
0.00010743836
0.00010592946
0.00010490832
0.00010601863
0.00010941164
0.00011451869
0.00012232364
0.00013243925
0.00014741125
0.00016836073
0.00020586269
0.00026081148
0.0003761772
0.00056122933
5.7659049e-21
1.1213886e-18
2.9868372e-17
3.0280158e-16
1.8312541e-15
8.1134719e-15
2.9297597e-14
9.1677583e-14
2.5827096e-13
6.7176846e-13
1.641628e-12
3.8166663e-12
8.5206535e-12
1.8394447e-11
3.8607491e-11
7.9114531e-11
1.5880905e-10
3.1307714e-10
6.0736679e-10
1.1612325e-09
2.1902696e-09
4.077828e-09
7.4945405e-09
1.3590575e-08
2.4288788e-08
4.2693858e-08
7.3572922e-08
1.2369348e-07
2.0143637e-07
3.145397e-07
4.6446607e-07
6.3735592e-07
7.9721682e-07
8.9810259e-07
9.2724307e-07
9.1699513e-07
8.9580321e-07
9.0346739e-07
9.5128197e-07
1.223631e-06
1.7207536e-06
2.7414967e-06
4.9561908e-06
1.0257662e-05
2.083201e-05
4.1006016e-05
7.206254e-05
0.00011072342
0.00013690795
0.00012595452
0.00011766846
0.00011240201
0.00010905205
0.00010849542
0.00010993226
0.00011333837
0.00011901475
0.00012718754
0.00013781517
0.00015396798
0.00017455637
0.00021083213
0.00026520004
0.00038054868
0.00056748119
2.6678589e-21
5.188606e-19
1.3819801e-17
1.4009969e-16
8.4723978e-16
3.7534436e-15
1.3552014e-14
4.2399678e-14
1.1941965e-13
3.1051773e-13
7.5851539e-13
1.7625464e-12
3.9320947e-12
8.4808628e-12
1.7779045e-11
3.6376803e-11
7.2875242e-11
1.4329905e-10
2.7708416e-10
5.2752444e-10
9.8961741e-10
1.829741e-09
3.3332471e-09
5.9769126e-09
1.0530542e-08
1.8179635e-08
3.0627815e-08
5.0066711e-08
7.8794928e-08
1.182144e-07
1.6718841e-07
2.208084e-07
2.7443797e-07
3.2737521e-07
3.7996077e-07
4.3287414e-07
5.2488702e-07
6.7329955e-07
9.9685921e-07
1.5801535e-06
2.6540181e-06
4.8136924e-06
9.5891436e-06
1.9369211e-05
3.8751488e-05
6.7601292e-05
0.0001025281
0.00013851141
0.0001479591
0.00013229834
0.00012227252
0.00011547024
0.00011245708
0.00011185366
0.00011334957
0.00011739509
0.00012335128
0.00013230678
0.0001436987
0.00016013516
0.00018106783
0.00021857831
0.00027279615
0.0003938904
0.00057943648
1.1928453e-21
2.3199106e-19
6.1790081e-18
6.2638935e-17
3.7878634e-16
1.6779805e-15
6.0578124e-15
1.8950155e-14
5.3363449e-14
1.3872274e-13
3.3875699e-13
7.8684517e-13
1.754489e-12
3.7816946e-12
7.9214056e-12
1.6191089e-11
3.2395032e-11
6.3599288e-11
1.2273398e-10
2.3309821e-10
4.3598144e-10
8.0318832e-10
1.4568444e-09
2.5990786e-09
4.5530837e-09
7.8128847e-09
1.3089695e-08
2.1323241e-08
3.3583515e-08
5.0919743e-08
7.4554545e-08
1.0653698e-07
1.4817044e-07
2.0311498e-07
2.8080528e-07
3.9875871e-07
5.8245765e-07
9.2440012e-07
1.4881009e-06
2.5046802e-06
4.4996063e-06
8.8253069e-06
1.8101111e-05
3.6441656e-05
6.3054598e-05
9.4455579e-05
0.00012770354
0.00016301644
0.00015113134
0.00013498578
0.00012400895
0.00011807804
0.00011509581
0.00011476027
0.00011679752
0.00012103464
0.00012756353
0.00013720425
0.0001491651
0.00016699905
0.00018858668
0.00022646959
0.00027958831
0.00040108764
0.00058611266
7.02236e-22
1.3657477e-19
3.6376326e-18
3.6876085e-17
2.2299434e-16
9.8783699e-16
3.566279e-15
1.1156276e-14
3.1417243e-14
8.1678263e-14
1.9948354e-13
4.6345158e-13
1.0337441e-12
2.229291e-12
4.6730144e-12
9.5613009e-12
1.9157698e-11
3.7686085e-11
7.2925603e-11