/*--------------------------------*- C++ -*----------------------------------*\
  =========                 |
  \\      /  F ield         | OpenFOAM: The Open Source CFD Toolbox
   \\    /   O peration     | Website:  https://openfoam.org
    \\  /    A nd           | Version:  13
     \\/     M anipulation  |
\*---------------------------------------------------------------------------*/
FoamFile
{
    format      ascii;
    class       volScalarField;
    location    "16.996015";
    object      p;
}
// * * * * * * * * * * * * * * * * * * * * * * * * * * * * * * * * * * * * * //

dimensions      [0 2 -2 0 0 0 0];

internalField   nonuniform List<scalar> 
17140
(
-0.15977658
-0.15986785
-0.15997862
-0.16009187
-0.16021503
-0.16035013
-0.16049746
-0.16065752
-0.16083084
-0.16101792
-0.16121912
-0.16143479
-0.1616652
-0.1619107
-0.16217181
-0.16244944
-0.16274526
-0.16306223
-0.1634054
-0.16378313
-0.16420889
-0.16470397
-0.16530151
-0.16605267
-0.1670355
-0.16836407
-0.17019179
-0.17272007
-0.17615866
-0.18009162
-0.18374701
-0.18743722
-0.19177184
-0.19681104
-0.20270931
-0.20962935
-0.21771965
-0.22712124
-0.23795008
-0.25028135
-0.26414214
-0.27950986
-0.29631539
-0.3144494
-0.33377905
-0.35419579
-0.37543609
-0.39744939
-0.42003732
-0.44302156
-0.46588896
-0.4878731
-0.50791391
-0.52515373
-0.53812553
-0.54602831
-0.54678316
-0.53921767
-0.51809059
-0.47524319
-0.39728169
-0.27756504
-0.10879635
0.02258365
0.12133882
-0.16235696
-0.16244581
-0.16255353
-0.16266386
-0.16278389
-0.16291558
-0.16305923
-0.16321532
-0.16338438
-0.16356687
-0.16376316
-0.16397356
-0.16419833
-0.16443778
-0.16469237
-0.16496298
-0.16525118
-0.16555983
-0.16589384
-0.16626137
-0.16667564
-0.16715757
-0.16773976
-0.16847257
-0.16943276
-0.17073272
-0.17252401
-0.17500428
-0.17838264
-0.18230202
-0.18601328
-0.18972324
-0.19404079
-0.19907855
-0.20497623
-0.21189872
-0.21999497
-0.22940206
-0.24023183
-0.25255408
-0.26639066
-0.28171483
-0.29846006
-0.3165247
-0.33577939
-0.35610727
-0.37732512
-0.39918874
-0.42160902
-0.44438606
-0.46704477
-0.48877413
-0.50853941
-0.52542634
-0.53768436
-0.5445868
-0.5449605
-0.53682856
-0.51466172
-0.47175317
-0.39408422
-0.27626217
-0.10969193
0.019778861
0.1180133
-0.16624797
-0.16633204
-0.16643378
-0.16653835
-0.16665219
-0.16677714
-0.1669135
-0.16706173
-0.16722236
-0.1673958
-0.16758242
-0.16778247
-0.16799619
-0.16822384
-0.16846581
-0.16872287
-0.16899646
-0.16928923
-0.16960582
-0.16995402
-0.17034652
-0.17080348
-0.17135641
-0.17205395
-0.1729703
-0.17421437
-0.17593393
-0.1783194
-0.18157675
-0.18545552
-0.18925036
-0.19297946
-0.19724376
-0.20225406
-0.20812294
-0.21501697
-0.22308501
-0.23246052
-0.24324839
-0.25551068
-0.26926287
-0.28447853
-0.30109993
-0.31903745
-0.33816838
-0.35835849
-0.37945741
-0.40118099
-0.42345039
-0.44606144
-0.46851715
-0.48998771
-0.50949822
-0.52607645
-0.53807398
-0.5445836
-0.54443026
-0.53638021
-0.51462955
-0.4730505
-0.39774624
-0.28292179
-0.11825619
0.01136226
0.11022884
-0.17137955
-0.17145656
-0.17154951
-0.17164556
-0.17175022
-0.17186516
-0.1719907
-0.17212726
-0.17227535
-0.17243534
-0.17260756
-0.17279224
-0.17298955
-0.17319969
-0.17342296
-0.17365998
-0.173912
-0.17418138
-0.17447237
-0.17479221
-0.17515277
-0.17557311
-0.17608304
-0.17672868
-0.17758029
-0.17874147
-0.18035394
-0.18259671
-0.18566695
-0.18946308
-0.1933466
-0.19711067
-0.20129269
-0.20625139
-0.21206509
-0.21889745
-0.22689932
-0.23619996
-0.24689576
-0.25904021
-0.27264563
-0.28769275
-0.30413759
-0.32190478
-0.34087983
-0.36091198
-0.3818269
-0.40337858
-0.42548961
-0.44788501
-0.47007393
-0.49142153
-0.51087355
-0.52721966
-0.53894193
-0.54521824
-0.54530097
-0.53785935
-0.51743862
-0.47862351
-0.40728631
-0.29646432
-0.13273183
-0.0026447691
0.097363164
-0.17761259
-0.17768046
-0.17776206
-0.17784705
-0.1779398
-0.17804174
-0.17815319
-0.17827458
-0.17840632
-0.1785488
-0.17870227
-0.17886692
-0.17904287
-0.17923024
-0.17942921
-0.17964023
-0.17986432
-0.18010349
-0.18036148
-0.18064482
-0.18096437
-0.1813377
-0.18179247
-0.1823715
-0.18313998
-0.18419449
-0.18566851
-0.18772629
-0.19054942
-0.19421057
-0.19818703
-0.20200425
-0.20607427
-0.21094555
-0.21667311
-0.22340719
-0.2312999
-0.24047535
-0.25102241
-0.26298719
-0.2763864
-0.29121514
-0.30744555
-0.3250129
-0.34380606
-0.36365856
-0.38436713
-0.40571625
-0.42758826
-0.44966678
-0.47151691
-0.49264636
-0.5120864
-0.52856807
-0.54029378
-0.54641134
-0.54683082
-0.54051143
-0.52207319
-0.48675698
-0.42055798
-0.31404686
-0.15183158
-0.020933396
0.080127151
-0.18476208
-0.18481902
-0.18488706
-0.18495877
-0.18503718
-0.18512348
-0.18521797
-0.18532106
-0.18543312
-0.18555446
-0.18568531
-0.18582581
-0.18597603
-0.186136
-0.18630579
-0.18648569
-0.18667647
-0.18687978
-0.18709882
-0.18733934
-0.18761108
-0.18792995
-0.18832117
-0.18882386
-0.18949751
-0.1904304
-0.19174611
-0.1935977
-0.19614832
-0.19952648
-0.20346496
-0.20740463
-0.2114581
-0.21616756
-0.22176673
-0.22836
-0.23609334
-0.24508822
-0.25542726
-0.26715354
-0.28029973
-0.29487831
-0.31087249
-0.32821975
-0.34680656
-0.36644827
-0.38690573
-0.40798491
-0.42958301
-0.45138206
-0.47290329
-0.49358544
-0.51270164
-0.52937765
-0.54157418
-0.54783784
-0.54872564
-0.54370753
-0.52751217
-0.49596806
-0.4353942
-0.33308321
-0.17270933
-0.04089736
0.059562356
-0.19256815
-0.19261271
-0.19266562
-0.19272219
-0.19278423
-0.19285265
-0.19292776
-0.19300991
-0.19309941
-0.19319654
-0.19330147
-0.1934143
-0.19353505
-0.19366368
-0.19380018
-0.19394469
-0.19409774
-0.19426064
-0.19443604
-0.1946289
-0.19484777
-0.19510678
-0.19542846
-0.19584788
-0.19641827
-0.19721854
-0.19836026
-0.19998528
-0.20224108
-0.20524666
-0.20901419
-0.21309242
-0.21716259
-0.2216728
-0.22711513
-0.23353329
-0.24106353
-0.24982646
-0.2598975
-0.27131841
-0.28416263
-0.29846233
-0.31420533
-0.33132447
-0.34970187
-0.36912296
-0.38930099
-0.41006632
-0.43134878
-0.45283035
-0.47402708
-0.49436893
-0.51309242
-0.5294426
-0.54212899
-0.54908272
-0.5505242
-0.54683265
-0.53283658
-0.50493005
-0.44923865
-0.35109418
-0.19245472
-0.064518697
0.037668675
-0.20074682
-0.20077805
-0.20081524
-0.20085521
-0.20089925
-0.20094805
-0.20100187
-0.201061
-0.20112568
-0.20119614
-0.20127252
-0.20135488
-0.2014432
-0.20153742
-0.20163747
-0.2017434
-0.20185558
-0.20197504
-0.20210402
-0.20224675
-0.20241071
-0.20260834
-0.20285959
-0.20319549
-0.20366314
-0.20433207
-0.20530092
-0.20669849
-0.20866556
-0.21131149
-0.2146738
-0.21864295
-0.22288527
-0.22733975
-0.23245665
-0.23859953
-0.2458588
-0.25433018
-0.26406917
-0.27516871
-0.28773881
-0.30180584
-0.31734272
-0.33427136
-0.35245589
-0.37160237
-0.39142688
-0.41182238
-0.43275448
-0.45390246
-0.47476786
-0.49477631
-0.51319419
-0.5291836
-0.54181883
-0.54957952
-0.55192736
-0.54954915
-0.53748169
-0.51262102
-0.46090503
-0.36461644
-0.21177688
-0.08411454
0.015512126
-0.20896661
-0.20898375
-0.20900436
-0.20902677
-0.20905177
-0.20907978
-0.20911101
-0.20914567
-0.20918397
-0.20922606
-0.20927204
-0.20932197
-0.20937581
-0.20943351
-0.209495
-0.20956032
-0.20962979
-0.20970431
-0.20978584
-0.20987812
-0.20998775
-0.21012578
-0.21030986
-0.21056741
-0.21093982
-0.21148793
-0.21229804
-0.21348458
-0.21518008
-0.21750036
-0.22049412
-0.22411282
-0.22821878
-0.23274308
-0.23776948
-0.24358979
-0.25048336
-0.2586402
-0.26811004
-0.27896491
-0.29127587
-0.30508635
-0.32034955
-0.33698611
-0.35486432
-0.37375866
-0.39322884
-0.41312798
-0.4336585
-0.45444335
-0.47496701
-0.49464613
-0.51276191
-0.52851635
-0.54077738
-0.54914953
-0.55265166
-0.55139569
-0.54082633
-0.51808983
-0.46826514
-0.37208874
-0.2224779
-0.094416768
-0.0074184735
-0.21688511
-0.21688785
-0.21689148
-0.21689592
-0.21690137
-0.21690802
-0.216916
-0.21692546
-0.21693652
-0.21694929
-0.21696385
-0.21698023
-0.21699843
-0.21701844
-0.21704026
-0.217064
-0.21709006
-0.21711938
-0.21715384
-0.21719697
-0.21725485
-0.21733751
-0.21746086
-0.21764933
-0.21793945
-0.21838449
-0.21905967
-0.22006578
-0.22152459
-0.22355637
-0.22623768
-0.22956421
-0.23345801
-0.23785132
-0.24282768
-0.24854353
-0.25521457
-0.26306527
-0.27224693
-0.28281383
-0.29477936
-0.30818482
-0.3230066
-0.3391824
-0.35659384
-0.3751291
-0.39434496
-0.41383087
-0.43388183
-0.45428256
-0.47444626
-0.49378832
-0.51159964
-0.52705347
-0.53893409
-0.5477806
-0.55240453
-0.55195214
-0.54233513
-0.52081606
-0.46937179
-0.37291707
-0.23176551
-0.10637869
-0.026964859
-0.22415005
-0.22413867
-0.22412562
-0.22411235
-0.22409853
-0.22408405
-0.224069
-0.22405342
-0.22403738
-0.22402092
-0.22400407
-0.22398689
-0.22396939
-0.22395165
-0.22393376
-0.223916
-0.22389893
-0.22388365
-0.22387218
-0.22386803
-0.22387706
-0.22390867
-0.22397745
-0.22410545
-0.22432517
-0.22468331
-0.22524518
-0.2260984
-0.22735191
-0.2291231
-0.23150806
-0.23454737
-0.23821828
-0.24247993
-0.24735301
-0.25294675
-0.25945021
-0.26704988
-0.27588544
-0.28602987
-0.29755165
-0.31049404
-0.32484568
-0.34054896
-0.3574849
-0.37550116
-0.39438756
-0.41359062
-0.43319424
-0.4532132
-0.47300681
-0.49199817
-0.50950254
-0.52455973
-0.53622257
-0.54533407
-0.55087522
-0.55080413
-0.54148975
-0.51908424
-0.46373573
-0.36759058
-0.23553017
-0.11737833
-0.042576623
-0.23043646
-0.23041193
-0.23038334
-0.23035352
-0.2303216
-0.23028726
-0.23025047
-0.2302112
-0.2301694
-0.23012506
-0.23007818
-0.23002877
-0.22997689
-0.22992267
-0.22986634
-0.22980835
-0.22974946
-0.22969104
-0.22963532
-0.22958602
-0.22954897
-0.22953326
-0.22955261
-0.22962727
-0.22978645
-0.23007135
-0.23053868
-0.2312639
-0.23234214
-0.23388201
-0.23598673
-0.23872768
-0.24212483
-0.24616875
-0.25087256
-0.25630756
-0.26260713
-0.26992993
-0.27841977
-0.28817944
-0.29928423
-0.31177625
-0.3256542
-0.34086842
-0.35731498
-0.37483626
-0.39325672
-0.41213014
-0.4314032
-0.45104295
-0.47045877
-0.48908496
-0.50621004
-0.52065364
-0.53244414
-0.54182065
-0.54774579
-0.54754237
-0.53773725
-0.51060585
-0.45222628
-0.3549741
-0.23095951
-0.12777524
-0.056056045
-0.23548045
-0.23544452
-0.23540241
-0.23535814
-0.23531039
-0.23525856
-0.23520255
-0.23514221
-0.23507742
-0.23500805
-0.23493403
-0.23485534
-0.23477202
-0.23468425
-0.23459233
-0.23449686
-0.2343988
-0.23429974
-0.23420221
-0.23411014
-0.23402953
-0.23396938
-0.2339429
-0.2339691
-0.23407478
-0.23429693
-0.23468536
-0.23530543
-0.23623944
-0.23758415
-0.23944025
-0.24189795
-0.2450091
-0.24879585
-0.25327782
-0.25850657
-0.26458045
-0.27163102
-0.27979255
-0.28917415
-0.29985339
-0.3118795
-0.32526215
-0.33996252
-0.35589211
-0.37291017
-0.39081259
-0.40935622
-0.42835043
-0.44760525
-0.46663267
-0.48485543
-0.50146129
-0.51544194
-0.52722883
-0.53697508
-0.54256684
-0.54184701
-0.52884685
-0.49662059
-0.43396557
-0.34060561
-0.2269039
-0.1348518
-0.067122174
-0.23910916
-0.23906431
-0.23901156
-0.23895586
-0.23889548
-0.23882963
-0.2387581
-0.23868064
-0.238597
-0.23850693
-0.23841028
-0.23830693
-0.23819689
-0.23808027
-0.23795742
-0.23782898
-0.23769602
-0.23756028
-0.23742446
-0.23729266
-0.23717099
-0.23706841
-0.23699777
-0.23697719
-0.23703176
-0.23719538
-0.23751286
-0.23804186
-0.23885422
-0.24003491
-0.24167276
-0.24389981
-0.24673992
-0.2502288
-0.25445504
-0.25944704
-0.26527286
-0.27204012
-0.27986556
-0.28885832
-0.29910023
-0.31064341
-0.32350974
-0.33767381
-0.35306262
-0.36955801
-0.38693198
-0.40513848
-0.42387498
-0.4427342
-0.46135211
-0.47908599
-0.49504157
-0.5088974
-0.52073404
-0.5302496
-0.53510065
-0.53223353
-0.51404862
-0.4772289
-0.41129805
-0.32219721
-0.22346974
-0.14018259
-0.07651044
-0.24126953
-0.24121876
-0.24115891
-0.24109548
-0.24102648
-0.24095095
-0.24086858
-0.240779
-0.24068183
-0.24057671
-0.24046334
-0.2403415
-0.24021107
-0.24007207
-0.23992476
-0.2397697
-0.23960795
-0.2394412
-0.23927216
-0.2391049
-0.23894545
-0.23880256
-0.23868866
-0.2386211
-0.2386236
-0.23872787
-0.23897522
-0.23941804
-0.24012078
-0.24116124
-0.24261686
-0.24455017
-0.247131
-0.25041956
-0.25434872
-0.25905489
-0.26459161
-0.2710496
-0.27852089
-0.28710395
-0.29688617
-0.30792558
-0.32025022
-0.33385329
-0.34868227
-0.36463586
-0.38149988
-0.39935665
-0.41783451
-0.43629441
-0.45445136
-0.47155993
-0.48710783
-0.50084513
-0.51272539
-0.52131312
-0.52463447
-0.51756601
-0.49426228
-0.45277166
-0.38738969
-0.30500566
-0.21756184
-0.14469045
-0.084217011
-0.24202604
-0.24197273
-0.24190969
-0.24184268
-0.24176955
-0.24168923
-0.24160133
-0.24150535
-0.24140082
-0.24128723
-0.24116414
-0.24103118
-0.24088806
-0.24073462
-0.24057093
-0.24039737
-0.24021476
-0.24002458
-0.23982925
-0.2396325
-0.23943993
-0.2392597
-0.23910345
-0.23898744
-0.23893387
-0.23897238
-0.23914151
-0.23948993
-0.24007692
-0.24097247
-0.24225698
-0.2440027
-0.24628207
-0.2491221
-0.25281255
-0.25729829
-0.26250148
-0.26860666
-0.27568823
-0.28382932
-0.2931127
-0.30361009
-0.31536063
-0.32837396
-0.34262515
-0.35802141
-0.37442457
-0.39190802
-0.41008766
-0.42813218
-0.44579667
-0.46240719
-0.47779135
-0.49132497
-0.50259955
-0.50974716
-0.50998616
-0.49820358
-0.46999461
-0.42712255
-0.36178633
-0.29028648
-0.21169983
-0.14738124
-0.090457064
-0.24156028
-0.2415076
-0.24144476
-0.24137833
-0.24130564
-0.24122552
-0.24113752
-0.24104108
-0.24093561
-0.24082049
-0.24069514
-0.24055901
-0.24041162
-0.2402526
-0.24008174
-0.2398991
-0.23970514
-0.23950088
-0.23928817
-0.23907008
-0.23885133
-0.23863897
-0.23844325
-0.23827865
-0.23816518
-0.2381298
-0.23820791
-0.23844457
-0.23889511
-0.23962455
-0.24070621
-0.24222236
-0.24422047
-0.24682421
-0.2501488
-0.25413391
-0.25898489
-0.26469415
-0.27133082
-0.27897863
-0.28771454
-0.29761763
-0.30874544
-0.32112845
-0.33477678
-0.34960366
-0.36559316
-0.38268666
-0.40054035
-0.41818276
-0.4353759
-0.45176278
-0.46697513
-0.48000223
-0.49020889
-0.4950231
-0.49203975
-0.47481566
-0.44322005
-0.39880879
-0.3415539
-0.27515834
-0.20608539
-0.14909763
-0.095454589
-0.24013265
-0.24008347
-0.24002434
-0.23996223
-0.23989407
-0.23981869
-0.2397356
-0.23964421
-0.23954384
-0.23943379
-0.23931337
-0.23918187
-0.23903863
-0.23888304
-0.2387146
-0.238533
-0.23833824
-0.23813074
-0.23791161
-0.23768294
-0.23744822
-0.23721293
-0.2369853
-0.23677728
-0.23660578
-0.23649404
-0.23647325
-0.23658394
-0.23687706
-0.23741406
-0.23826512
-0.2395092
-0.24121972
-0.24348247
-0.24639621
-0.25008456
-0.25433387
-0.25941752
-0.26550547
-0.2725624
-0.28066485
-0.28990403
-0.30034741
-0.31205045
-0.32505529
-0.33932179
-0.35492454
-0.37165775
-0.38906056
-0.40638134
-0.42338999
-0.43962218
-0.45440991
-0.46655425
-0.47515752
-0.47692866
-0.46830994
-0.44848105
-0.41533273
-0.37256895
-0.32106713
-0.2625149
-0.20041434
-0.14963805
-0.099270943
-0.23805656
-0.23801317
-0.23796061
-0.23790571
-0.23784532
-0.23777828
-0.23770413
-0.23762227
-0.23753197
-0.23743252
-0.23732313
-0.237203
-0.23707133
-0.2369273
-0.23677015
-0.23659923
-0.23641404
-0.2362144
-0.2360006
-0.23577363
-0.23553556
-0.23528998
-0.23504265
-0.23480236
-0.234582
-0.23439986
-0.23428121
-0.23425991
-0.23437992
-0.23469627
-0.23527461
-0.2361901
-0.23752121
-0.2393587
-0.2417437
-0.24476887
-0.24852326
-0.25302038
-0.25830071
-0.264627
-0.27197542
-0.28045338
-0.29013816
-0.30111087
-0.3134452
-0.32714901
-0.34228998
-0.35862039
-0.37571968
-0.3928483
-0.4098155
-0.42572536
-0.44002727
-0.45107954
-0.45745994
-0.45531301
-0.44275711
-0.42199207
-0.38666009
-0.35019808
-0.30218933
-0.25018731
-0.19454698
-0.1493425
-0.10208772
-0.2356247
-0.23558852
-0.23554436
-0.23549851
-0.23544794
-0.2353916
-0.23532906
-0.23525974
-0.23518296
-0.235098
-0.23500406
-0.2349003
-0.23478585
-0.23465978
-0.23452114
-0.23436901
-0.23420253
-0.23402097
-0.23382389
-0.23361127
-0.23338377
-0.2331431
-0.23289245
-0.2326372
-0.23238569
-0.23215036
-0.23194908
-0.23180664
-0.23175647
-0.23184223
-0.23211854
-0.23265097
-0.23351238
-0.23478535
-0.23653639
-0.23886123
-0.24186804
-0.24550829
-0.25004185
-0.25543347
-0.26179034
-0.26934495
-0.27814539
-0.28830855
-0.29992952
-0.31304454
-0.3276873
-0.3436908
-0.36069376
-0.37789574
-0.39470555
-0.41051253
-0.42432209
-0.43351277
-0.43742795
-0.43208642
-0.41728165
-0.39388791
-0.36387246
-0.3283676
-0.28503901
-0.2389335
-0.18867014
-0.14825913
-0.10397993
-0.233116
-0.23308745
-0.23305262
-0.23301647
-0.23297647
-0.23293176
-0.23288195
-0.23282653
-0.23276487
-0.23269632
-0.23262013
-0.2325355
-0.23244156
-0.23233735
-0.23222187
-0.23209406
-0.23195283
-0.23179712
-0.23162596
-0.23143856
-0.23123447
-0.23101382
-0.23077759
-0.23052802
-0.23026923
-0.23000788
-0.22975413
-0.22952278
-0.22933475
-0.22921872
-0.22921284
-0.22936629
-0.22973927
-0.23040353
-0.23143517
-0.23291928
-0.23493732
-0.23759709
-0.241012
-0.24522213
-0.25045269
-0.25686049
-0.26459826
-0.27383379
-0.28470372
-0.2972709
-0.31158235
-0.32735828
-0.34445517
-0.3613576
-0.37873595
-0.39468403
-0.40686691
-0.41335623
-0.41375507
-0.40347619
-0.39083558
-0.36823202
-0.34044849
-0.30868607
-0.26927456
-0.22808254
-0.18263859
-0.14652147
-0.10507081
-0.23069646
-0.23067556
-0.2306507
-0.23062385
-0.23059401
-0.23056062
-0.23052331
-0.23048162
-0.23043507
-0.23038307
-0.230325
-0.23026015
-0.23018773
-0.2301069
-0.23001669
-0.22991608
-0.22980395
-0.22967913
-0.22954038
-0.22938649
-0.2292163
-0.22902885
-0.22882347
-0.22859999
-0.228359
-0.22810222
-0.22783312
-0.22755699
-0.22728185
-0.22702021
-0.22678995
-0.22661658
-0.22653591
-0.22659736
-0.22686483
-0.22742044
-0.22835996
-0.22979877
-0.23186365
-0.23473268
-0.23858001
-0.24363488
-0.25014232
-0.25833526
-0.26841645
-0.28054483
-0.29458733
-0.31045305
-0.32777751
-0.34558626
-0.36359148
-0.37790115
-0.38741759
-0.39127105
-0.38740069
-0.38029018
-0.36199871
-0.34540613
-0.31993374
-0.29047362
-0.2545696
-0.21779107
-0.17655937
-0.14421871
-0.10543108
-0.22850247
-0.22848828
-0.22847128
-0.22845288
-0.22843237
-0.22840936
-0.22838355
-0.22835463
-0.2283222
-0.22828583
-0.22824502
-0.22819925
-0.22814792
-0.22809032
-0.22802561
-0.22795275
-0.22787068
-0.22777836
-0.22767462
-0.22755816
-0.22742755
-0.22728122
-0.22711746
-0.22693436
-0.22672993
-0.22650442
-0.22625616
-0.22597761
-0.22566624
-0.22532286
-0.22494527
-0.22453405
-0.22409662
-0.22364821
-0.22322175
-0.22287799
-0.22271131
-0.22285688
-0.22348842
-0.22482315
-0.22711983
-0.23067802
-0.23585404
-0.24297938
-0.25235973
-0.26408659
-0.27859136
-0.29494439
-0.31333171
-0.33158929
-0.34767431
-0.35941032
-0.36634448
-0.3665742
-0.36389394
-0.35596493
-0.3416787
-0.32413871
-0.30028
-0.2734593
-0.24079662
-0.20785661
-0.17037814
-0.14141149
-0.10514001
-0.22650683
-0.22649877
-0.22648911
-0.22647859
-0.22646684
-0.22645359
-0.22643866
-0.22642185
-0.22640293
-0.22638163
-0.22635685
-0.22632751
-0.22629352
-0.226255
-0.22621207
-0.22616529
-0.22611549
-0.22606075
-0.2259963
-0.22592079
-0.22583451
-0.22573545
-0.225621
-0.22548822
-0.22533436
-0.22515571
-0.22494518
-0.22469415
-0.22439429
-0.22403237
-0.22359015
-0.22304663
-0.22238076
-0.2215789
-0.22063296
-0.21956641
-0.218447
-0.21741087
-0.21666259
-0.21648752
-0.21723654
-0.21933843
-0.22320961
-0.22928781
-0.23804484
-0.25010844
-0.26505791
-0.28208345
-0.30014481
-0.31686787
-0.33022639
-0.33964837
-0.34310443
-0.34475487
-0.34164369
-0.33323216
-0.31959725
-0.30377227
-0.28211723
-0.25756983
-0.2278082
-0.19828687
-0.16414392
-0.13817759
-0.10426702
-0.22473792
-0.22473629
-0.22473428
-0.22473199
-0.22472931
-0.22472618
-0.22472245
-0.22471765
-0.22471107
-0.22469902
-0.22467989
-0.22466269
-0.22465813
-0.22466736
-0.22467682
-0.22466554
-0.22462846
-0.2245812
-0.22453819
-0.22449979
-0.22445835
-0.2244081
-0.22434616
-0.22426753
-0.22416717
-0.22403863
-0.22387328
-0.22366285
-0.22339244
-0.22304067
-0.22257544
-0.22196726
-0.22118573
-0.22017642
-0.21890213
-0.21736174
-0.21558877
-0.21370233
-0.21190672
-0.21052711
-0.20997656
-0.21067263
-0.21340362
-0.2189411
-0.22781389
-0.24006072
-0.25454019
-0.27125286
-0.28748193
-0.30109638
-0.31227875
-0.3199851
-0.32295386
-0.32410331
-0.31951307
-0.31227932
-0.30020168
-0.28511476
-0.2650084
-0.24260667
-0.21549631
-0.18899665
-0.15784029
-0.13456685
-0.10287384
-0.22309839
-0.22310346
-0.2231094
-0.22311555
-0.22312191
-0.22312933
-0.22314157
-0.22315811
-0.22316812
-0.22316715
-0.22316385
-0.22316432
-0.22316816
-0.22317441
-0.22318265
-0.22319203
-0.22320373
-0.22321825
-0.22323139
-0.22324068
-0.22324874
-0.22325213
-0.22322976
-0.22316825
-0.22308819
-0.22299894
-0.22287746
-0.22270596
-0.22247317
-0.22215692
-0.22172312
-0.22112528
-0.22032629
-0.21926805
-0.21788354
-0.21611556
-0.21398191
-0.21161391
-0.2091767
-0.20698996
-0.20550149
-0.20559826
-0.20807827
-0.21333567
-0.22168573
-0.2329513
-0.24631103
-0.26095964
-0.27408085
-0.28525858
-0.29686039
-0.30109527
-0.30525514
-0.30303175
-0.29977909
-0.29268368
-0.28126598
-0.26728038
-0.24889075
-0.22848199
-0.20376541
-0.17996338
-0.15148827
-0.13063047
-0.1010176
-0.22189984
-0.22191207
-0.22192647
-0.22194167
-0.22195813
-0.22197602
-0.22199547
-0.22201718
-0.22204176
-0.22206877
-0.22209758
-0.2221279
-0.22215949
-0.222192
-0.22222497
-0.22225797
-0.22229002
-0.22231639
-0.22233273
-0.2223413
-0.22234819
-0.22236
-0.22237096
-0.22236848
-0.22235607
-0.22233576
-0.22227282
-0.22212242
-0.22188672
-0.2215736
-0.22115088
-0.22057219
-0.2197589
-0.21864616
-0.21720845
-0.21541408
-0.21327546
-0.2108402
-0.20827206
-0.20601435
-0.20446613
-0.20424702
-0.20610673
-0.21048154
-0.2176438
-0.22744492
-0.23908781
-0.250782
-0.26098438
-0.27256037
-0.28027848
-0.28506261
-0.2853171
-0.28490439
-0.28111072
-0.27422398
-0.26371562
-0.25066232
-0.23369398
-0.21508862
-0.19253988
-0.17114406
-0.14508634
-0.12640797
-0.098745459
-0.22122433
-0.22124273
-0.22126439
-0.22128729
-0.22131214
-0.22133926
-0.22136871
-0.22140058
-0.22143491
-0.22147174
-0.22151104
-0.22155275
-0.22159673
-0.22164275
-0.22169043
-0.2217393
-0.22178868
-0.22183767
-0.22188473
-0.22192758
-0.22196323
-0.22198923
-0.22200524
-0.22200056
-0.22195402
-0.22188248
-0.22181647
-0.22171948
-0.22154169
-0.22129232
-0.22092266
-0.2203523
-0.21966836
-0.218861
-0.21769322
-0.21613633
-0.21420814
-0.21194091
-0.2096102
-0.20739234
-0.20568363
-0.20513901
-0.2062332
-0.20959046
-0.21535974
-0.2233697
-0.23255346
-0.2411927
-0.25091579
-0.25955111
-0.2642935
-0.26787337
-0.26901211
-0.26753194
-0.26353883
-0.25689731
-0.24699697
-0.23485818
-0.21926648
-0.20233112
-0.18174948
-0.16251383
-0.13864289
-0.12193485
-0.096099743
-0.22160897
-0.2216285
-0.2216515
-0.22167584
-0.22170227
-0.22173112
-0.22176248
-0.22179643
-0.22183304
-0.22187236
-0.22191436
-0.22195897
-0.22200603
-0.22205527
-0.22210631
-0.22215863
-0.22221152
-0.22226408
-0.2223152
-0.22236355
-0.22240752
-0.22244515
-0.222474
-0.22249091
-0.22249108
-0.22246875
-0.22242383
-0.2223436
-0.22219166
-0.22194764
-0.22165615
-0.22132179
-0.22081522
-0.22004413
-0.21902586
-0.21779586
-0.21626153
-0.21434453
-0.21218528
-0.21001928
-0.2081773
-0.20712671
-0.20746854
-0.209658
-0.21386249
-0.22001325
-0.22642041
-0.23330621
-0.24082639
-0.24637176
-0.25044243
-0.25294106
-0.25291012
-0.25113314
-0.24700102
-0.24052332
-0.231231
-0.21994043
-0.20556631
-0.19014192
-0.17134145
-0.15404639
-0.13216058
-0.11724151
-0.093116962
-0.22294112
-0.22295711
-0.22297596
-0.22299592
-0.22301761
-0.22304131
-0.22306709
-0.22309502
-0.22312516
-0.22315754
-0.22319215
-0.22322893
-0.22326773
-0.22330833
-0.22335043
-0.22339359
-0.22343721
-0.22348057
-0.22352276
-0.22356264
-0.22359883
-0.22362971
-0.22365346
-0.2236684
-0.22367145
-0.22364673
-0.22359585
-0.22354034
-0.22350735
-0.22344102
-0.22320512
-0.22283463
-0.22243385
-0.22190614
-0.22111755
-0.22004889
-0.21867258
-0.21695669
-0.21495138
-0.2127999
-0.21077163
-0.20929251
-0.2088806
-0.20990129
-0.21269128
-0.21642256
-0.22042671
-0.22588617
-0.23097905
-0.23473907
-0.23724162
-0.23847701
-0.23796371
-0.23568696
-0.23134843
-0.22502719
-0.2162346
-0.20572591
-0.19247937
-0.17844223
-0.16126244
-0.14571993
-0.1256421
-0.1123528
-0.08982967
-0.22512242
-0.22513251
-0.2251444
-0.22515698
-0.22517065
-0.22518557
-0.22520177
-0.22521929
-0.22523814
-0.22525832
-0.22527978
-0.22530242
-0.22532611
-0.22535062
-0.22537565
-0.22540079
-0.22542553
-0.22544925
-0.22547107
-0.2254899
-0.22550463
-0.22551356
-0.22551509
-0.22551578
-0.2255067
-0.22550507
-0.22552138
-0.22545391
-0.22528364
-0.22512991
-0.22497414
-0.22471631
-0.22434217
-0.22381591
-0.22308338
-0.22211141
-0.22084774
-0.21925254
-0.21732514
-0.21514353
-0.21291184
-0.21099989
-0.20981817
-0.20969792
-0.21078473
-0.212522
-0.21572228
-0.21899092
-0.22150399
-0.22358008
-0.2248279
-0.22503205
-0.22372993
-0.22099129
-0.2164877
-0.21029582
-0.20196248
-0.19217864
-0.17995323
-0.16717765
-0.15147179
-0.13751502
-0.11908971
-0.10729236
-0.086266354
-0.2277487
-0.22775349
-0.2277591
-0.22776498
-0.2277713
-0.2277781
-0.22778537
-0.22779308
-0.22780115
-0.22780952
-0.22781806
-0.22782658
-0.22783485
-0.22784254
-0.22784925
-0.22785444
-0.22785743
-0.22785742
-0.22785338
-0.22784415
-0.22782801
-0.22780312
-0.22777186
-0.22774427
-0.22769633
-0.22759575
-0.22747244
-0.22735331
-0.22720268
-0.226999
-0.22673818
-0.22639926
-0.22596845
-0.225414
-0.22469463
-0.22376483
-0.22256464
-0.22102429
-0.21909028
-0.21679148
-0.21430936
-0.21194341
-0.21000726
-0.20905036
-0.20881175
-0.20962085
-0.210583
-0.21119456
-0.21229349
-0.21296666
-0.21296775
-0.21214751
-0.21017685
-0.20699778
-0.20231648
-0.1962383
-0.18831101
-0.17919334
-0.16790578
-0.1562864
-0.14192793
-0.12941277
-0.11250374
-0.10207808
-0.082452259
-0.2307619
-0.23076353
-0.23076534
-0.23076709
-0.23076878
-0.23077036
-0.23077173
-0.23077277
-0.23077331
-0.23077315
-0.23077202
-0.23076956
-0.23076533
-0.23075878
-0.23074921
-0.23073575
-0.23071734
-0.23069269
-0.23066021
-0.23061807
-0.23056455
-0.23049722
-0.23041236
-0.23029896
-0.2301599
-0.22999813
-0.22980268
-0.22957278
-0.22930074
-0.22897933
-0.22860626
-0.22816905
-0.22765102
-0.2270316
-0.2262745
-0.22532102
-0.2240807
-0.22244516
-0.22032962
-0.2177758
-0.21493362
-0.21201319
-0.20967098
-0.20789093
-0.20635044
-0.20510314
-0.20434016
-0.20382536
-0.20336372
-0.20267284
-0.20155052
-0.19981461
-0.19717334
-0.19357341
-0.18873263
-0.18275972
-0.17520702
-0.16670799
-0.15628117
-0.14572059
-0.13259698
-0.12139639
-0.10588453
-0.096726521
-0.078411875
-0.23427751
-0.23427732
-0.23427689
-0.23427611
-0.23427487
-0.23427301
-0.23427035
-0.23426666
-0.23426164
-0.23425493
-0.23424605
-0.23423444
-0.23421936
-0.23419994
-0.23417509
-0.23414348
-0.2341035
-0.23405321
-0.23399032
-0.23391216
-0.23381561
-0.23369676
-0.23355201
-0.23337735
-0.23316832
-0.23291981
-0.23262604
-0.23228454
-0.2318951
-0.23145394
-0.23095642
-0.23039862
-0.22977014
-0.22904653
-0.22817678
-0.22707224
-0.22560965
-0.22366306
-0.22117284
-0.21821075
-0.21482213
-0.21162149
-0.20871086
-0.20561201
-0.20258367
-0.20014403
-0.19811824
-0.19620279
-0.19442912
-0.19257234
-0.19042797
-0.18785173
-0.18460576
-0.18062672
-0.17564232
-0.16977278
-0.16256808
-0.15464518
-0.14501535
-0.13543032
-0.12344533
-0.11344892
-0.099231254
-0.091251906
-0.074165815
-0.23875575
-0.23875306
-0.23874957
-0.23874538
-0.23874021
-0.23873381
-0.23872587
-0.23871604
-0.23870387
-0.2386888
-0.23867014
-0.23864707
-0.23861856
-0.23858335
-0.23853996
-0.23848656
-0.23842099
-0.23834068
-0.23824263
-0.23812337
-0.23797895
-0.23780495
-0.23759655
-0.23734859
-0.23705609
-0.23671495
-0.23632198
-0.23587367
-0.23536753
-0.23480311
-0.23417878
-0.23348785
-0.23271061
-0.23180243
-0.23068172
-0.22922919
-0.22731085
-0.22482976
-0.22179003
-0.21820811
-0.21441998
-0.21078383
-0.20653641
-0.20225281
-0.19822726
-0.19475472
-0.19148019
-0.18840957
-0.1854793
-0.18255697
-0.17949239
-0.17616657
-0.17237078
-0.16805362
-0.16295186
-0.15719216
-0.15032087
-0.14294144
-0.13405516
-0.12537274
-0.11444357
-0.10555345
-0.09254217
-0.085659975
-0.069732966
-0.24456878
-0.24456149
-0.24455247
-0.24454223
-0.24453025
-0.2445161
-0.24449937
-0.24447955
-0.24445599
-0.24442792
-0.24439443
-0.2443544
-0.24430647
-0.24424903
-0.24418015
-0.24409756
-0.24399855
-0.24387999
-0.24373827
-0.24356924
-0.24336828
-0.24313044
-0.24285066
-0.24252384
-0.24214492
-0.24170911
-0.24121264
-0.24065297
-0.24002789
-0.23933391
-0.23856224
-0.23769143
-0.23667685
-0.23544024
-0.23386859
-0.23183148
-0.22922257
-0.22600757
-0.22218515
-0.2179266
-0.21369722
-0.20866704
-0.2033385
-0.19826221
-0.19347164
-0.18886535
-0.18449518
-0.18034194
-0.17637172
-0.1725074
-0.16862633
-0.16463802
-0.16036218
-0.15575952
-0.15057326
-0.14493736
-0.13839316
-0.13153249
-0.12334754
-0.11550621
-0.10556397
-0.097693704
-0.085816426
-0.079957099
-0.065145382
-0.25208689
-0.25207251
-0.25205498
-0.25203551
-0.25201323
-0.25198748
-0.2519577
-0.25192319
-0.2518831
-0.25183642
-0.25178195
-0.25171827
-0.25164367
-0.25155617
-0.2514534
-0.25133261
-0.25119062
-0.25102382
-0.25082814
-0.25059905
-0.25033165
-0.25002068
-0.24966063
-0.24924612
-0.24877213
-0.24823402
-0.24762738
-0.2469473
-0.24618626
-0.24533005
-0.24435097
-0.2431987
-0.24179252
-0.24002029
-0.23775622
-0.23489172
-0.23137898
-0.22720557
-0.22248832
-0.2176169
-0.21196366
-0.20574533
-0.19976076
-0.19388285
-0.1880571
-0.18243956
-0.1770582
-0.17192665
-0.16703137
-0.16232948
-0.15773021
-0.15316851
-0.14848428
-0.14365234
-0.13842145
-0.132931
-0.126717
-0.12035959
-0.11284431
-0.1057927
-0.096781313
-0.089853599
-0.07905211
-0.074154349
-0.060367519
-0.26164215
-0.26161809
-0.26158902
-0.26155711
-0.26152104
-0.26147989
-0.26143289
-0.2613791
-0.26131742
-0.26124659
-0.2611651
-0.26107118
-0.26096282
-0.26083769
-0.26069309
-0.26052589
-0.26033254
-0.26010901
-0.25985084
-0.25955315
-0.25921072
-0.2588181
-0.25836961
-0.25785948
-0.25728163
-0.2566292
-0.25589331
-0.2550605
-0.25410848
-0.25299984
-0.25167454
-0.25004451
-0.24799563
-0.24540174
-0.24216074
-0.23820986
-0.23354419
-0.22825539
-0.22271495
-0.21645119
-0.209486
-0.20260455
-0.19573409
-0.18880826
-0.18201492
-0.17542755
-0.1691019
-0.16307546
-0.15735197
-0.15191614
-0.14669882
-0.14165527
-0.13664142
-0.13164419
-0.1264161
-0.1211004
-0.11522831
-0.1093669
-0.10249955
-0.096195095