/*--------------------------------*- C++ -*----------------------------------*\
  =========                 |
  \\      /  F ield         | OpenFOAM: The Open Source CFD Toolbox
   \\    /   O peration     | Website:  https://openfoam.org
    \\  /    A nd           | Version:  13
     \\/     M anipulation  |
\*---------------------------------------------------------------------------*/
FoamFile
{
    format      ascii;
    class       volSymmTensorField;
    location    "10.197974";
    object      UPrime2Mean;
}
// * * * * * * * * * * * * * * * * * * * * * * * * * * * * * * * * * * * * * //

dimensions      [0 2 -2 0 0 0 0];

internalField   nonuniform List<symmTensor> 
17140
(
(2.0311571e-12 -8.6027128e-11 -5.9976847e-27 3.9252851e-09 1.1845728e-25 2.9436168e-40)
(3.3382962e-10 -3.1675693e-09 -3.2507878e-27 3.7066844e-08 2.6615315e-26 2.5245251e-42)
(3.0146557e-09 -1.6286717e-08 5.6662312e-25 1.1173297e-07 -2.8783825e-24 1.1001121e-38)
(1.4157739e-08 -5.1153565e-08 -1.2609091e-24 2.3832971e-07 4.4910664e-24 1.328888e-38)
(4.7206022e-08 -1.2462747e-07 2.5896062e-25 4.284697e-07 -6.9473103e-25 1.8150279e-40)
(1.2886485e-07 -2.6119291e-07 -1.3676908e-24 6.9480101e-07 2.8843168e-24 1.942663e-39)
(3.0834068e-07 -4.9509547e-07 -3.5142869e-24 1.0506622e-06 5.9801596e-24 5.5011399e-39)
(6.715379e-07 -8.7280369e-07 2.5160158e-24 1.5095979e-06 -3.5163787e-24 1.3096705e-39)
(1.3624945e-06 -1.4557608e-06 1.1719503e-23 2.0846187e-06 -1.3625275e-23 1.401164e-38)
(2.6148636e-06 -2.3231273e-06 3.9952738e-23 2.7872218e-06 -3.9011031e-23 8.4149606e-38)
(4.7969735e-06 -3.5741633e-06 -8.0794119e-23 3.6261321e-06 6.6739295e-23 1.8464443e-37)
(8.4746698e-06 -5.3297433e-06 9.6669098e-23 4.6057976e-06 -6.7930371e-23 1.4626839e-37)
(1.4496527e-05 -7.7323317e-06 1.9605699e-23 5.7247142e-06 -1.1769798e-23 3.4159722e-39)
(2.4105856e-05 -1.0943617e-05 -1.4523889e-22 6.9737403e-06 7.4724363e-23 1.0885115e-37)
(3.9083014e-05 -1.5139057e-05 2.091265e-23 8.3346479e-06 -9.2421469e-24 1.335697e-39)
(6.1919479e-05 -2.04989e-05 -2.12866e-22 9.7792954e-06 8.0934818e-23 8.3351056e-38)
(9.6021689e-05 -2.7195911e-05 1.0090788e-23 1.126985e-05 -3.3040933e-24 1.1469395e-40)
(0.0001459395 -3.5381397e-05 -2.8592006e-24 1.2760492e-05 8.0643781e-25 5.6994326e-42)
(0.00021761184 -4.517295e-05 -2.5383397e-22 1.4200975e-05 6.1704092e-23 2.8415372e-38)
(0.0003186246 -5.6649235e-05 4.0870807e-22 1.5542038e-05 -8.5606123e-23 4.7167238e-38)
(0.00045848826 -6.9858656e-05 -2.4222111e-22 1.6742158e-05 4.3706556e-23 1.0769919e-38)
(0.00064896488 -8.4847819e-05 5.6300288e-23 1.7774718e-05 -8.7514335e-24 3.8499014e-40)
(0.00090458016 -0.00010171142 5.0055307e-22 1.863392e-05 -6.7017722e-23 2.0444864e-38)
(0.0012435765 -0.00012066141 -5.9580198e-22 1.9337568e-05 6.8726486e-23 1.9822972e-38)
(0.001688082 -0.00014210603 -1.1206085e-21 1.9925795e-05 1.1142707e-22 4.8891081e-38)
(0.0022662747 -0.00016657959 1.0532616e-21 2.0456122e-05 -9.0357531e-23 3.0695595e-38)
(0.0030168647 -0.00019475786 5.9973608e-21 2.0983686e-05 -4.441021e-22 7.1987965e-37)
(0.003988205 -0.00022753964 8.1288705e-22 2.1534541e-05 -5.195568e-23 9.7249799e-39)
(0.0052419551 -0.0002657413 -8.1485e-21 2.2132913e-05 4.4933048e-22 7.314112e-37)
(0.0068596167 -0.00031015352 -2.1646007e-21 2.2786118e-05 1.027991e-22 3.9146154e-38)
(0.0089438565 -0.00036147799 -8.7295592e-21 2.3482455e-05 3.5614277e-22 4.8987895e-37)
(0.011624246 -0.0004202029 1.2930115e-20 2.4197735e-05 -4.5157044e-22 8.3725528e-37)
(0.015061793 -0.00048656535 -3.7776136e-21 2.4900376e-05 1.1242573e-22 5.6269228e-38)
(0.019453827 -0.00056041934 -2.0150435e-21 2.55521e-05 5.0807551e-23 1.2761413e-38)
(0.025038505 -0.00064113622 -2.2049375e-20 2.6112484e-05 4.6761836e-22 1.2287181e-36)
(0.032098249 -0.0007274312 1.0722521e-20 2.6539376e-05 -1.8939085e-22 2.3642399e-37)
(0.040960667 -0.00081710319 -1.7842865e-20 2.6787996e-05 2.5914627e-22 5.373432e-37)
(0.051995514 -0.00090675013 -1.3272715e-20 2.6814022e-05 1.5566895e-22 2.4659296e-37)
(0.065604806 -0.00099148036 -6.6478451e-21 2.6581974e-05 6.1354969e-23 5.1806187e-38)
(0.08220328 -0.0010642883 2.1904825e-20 2.6064978e-05 -1.527366e-22 4.7651898e-37)
(0.10218717 -0.0011160892 4.4693608e-20 2.5280291e-05 -2.2022196e-22 1.6970633e-36)
(0.12588844 -0.0011355033 4.35472e-20 2.4309118e-05 -1.3272322e-22 1.3945773e-36)
(0.15351616 -0.001109941 2.026344e-20 2.3338621e-05 -2.6332659e-23 2.647157e-37)
(0.18511925 -0.0010266692 -1.0436489e-19 2.2682783e-05 -3.4881777e-23 6.2298797e-36)
(0.22053686 -0.00087537595 -8.0040968e-20 2.2776747e-05 -1.5106191e-22 3.3019863e-36)
(0.25938484 -0.00065383862 2.0435811e-20 2.3956904e-05 6.872119e-23 1.9723474e-37)
(0.30113947 -0.00035742444 -1.4293711e-19 2.6245469e-05 -6.8249312e-22 8.9963217e-36)
(0.3449007 2.2163167e-05 -4.9409552e-20 2.9248192e-05 -3.0311609e-22 1.022272e-36)
(0.38940236 0.00049918197 5.0649094e-20 3.234917e-05 3.7785829e-22 1.043903e-36)
(0.43304357 0.0010809589 1.2324746e-19 3.5369244e-05 1.07824e-21 6.1464788e-36)
(0.47325761 0.0017628179 -7.4467001e-20 3.8894431e-05 -7.4443278e-22 2.2885907e-36)
(0.50646988 0.0025722624 -4.5479966e-20 4.3721766e-05 -5.1302126e-22 8.9514958e-37)
(0.52817136 0.0035033477 1.1300438e-19 5.0286351e-05 1.4326242e-21 5.9730511e-36)
(0.53425143 0.0044162255 5.000459e-20 5.9855884e-05 7.0678969e-22 1.3093471e-36)
(0.52166613 0.0052115712 3.2708981e-20 7.1918039e-05 5.1367424e-22 6.5303854e-37)
(0.48770669 0.005840039 -2.3130101e-20 8.5743565e-05 -4.0412008e-22 3.9617351e-37)
(0.43242003 0.0061493223 5.4417236e-20 9.9092479e-05 1.0602669e-21 2.8363149e-36)
(0.35919514 0.0060064594 3.8669573e-20 0.00010826276 8.3776507e-22 1.9490024e-36)
(0.27680943 0.005331655 7.9886396e-21 0.00010767568 1.9107935e-22 1.2066767e-37)
(0.19713334 0.0042552327 -1.6579163e-20 9.5221586e-05 -4.3229169e-22 7.927395e-37)
(0.13002932 0.0030080066 -1.0179518e-20 7.2198706e-05 -2.8527215e-22 4.8148055e-37)
(0.081165903 0.0019174523 -2.9084576e-20 4.7426926e-05 -8.6548723e-22 6.5494623e-36)
(0.048385113 0.0011202077 -3.2426768e-21 2.7652345e-05 -1.0289381e-22 1.4030742e-37)
(0.028404224 0.00061631387 2.0419394e-20 1.4797543e-05 7.0163033e-22 9.9062369e-36)
(0.016115506 0.00033525037 -1.1351164e-20 8.2234387e-06 -4.692338e-22 5.9188985e-36)
(2.0477328e-10 -4.7778127e-09 9.06681e-27 1.1152028e-07 -1.8743624e-25 2.3838473e-41)
(3.3197418e-09 -5.9076634e-08 -3.1127993e-24 1.0521862e-06 5.1117731e-23 3.0292285e-37)
(1.5043071e-08 -2.1815489e-07 5.5095738e-24 3.1687902e-06 -7.4121159e-23 2.3978603e-37)
(4.706094e-08 -5.6305692e-07 -2.5529986e-24 6.7532126e-06 2.8551798e-23 1.7812059e-38)
(1.205208e-07 -1.2071154e-06 -8.2495783e-24 1.2129652e-05 7.7849883e-23 7.5964941e-38)
(2.7286851e-07 -2.3108284e-06 2.3418387e-23 1.9648071e-05 -1.8851809e-22 2.7714908e-37)
(5.6772017e-07 -4.0947967e-06 -3.4998234e-23 2.9673947e-05 2.4207314e-22 3.0087638e-37)
(1.1096779e-06 -6.8547749e-06 4.3010594e-24 4.257255e-05 -2.5692853e-23 2.3277638e-39)
(2.0662807e-06 -1.0978626e-05 -1.8371191e-23 5.8686506e-05 9.5144898e-23 2.2655941e-38)
(3.6997163e-06 -1.6963571e-05 -4.1823311e-25 7.8305848e-05 1.8835369e-24 6.4612016e-42)
(6.4116e-06 -2.5431699e-05 -1.0962598e-22 0.00010163043 4.3029527e-22 2.5152696e-37)
(1.0804735e-05 -3.7140811e-05 2.2870048e-22 0.00012872564 -7.8377567e-22 6.3326643e-37)
(1.7766185e-05 -5.2986752e-05 2.4558715e-23 0.00015947446 -7.3580976e-23 4.3046322e-39)
(2.8575839e-05 -7.399245e-05 -3.1239515e-22 0.00019353123 8.1899188e-22 4.1742188e-37)
(4.5043822e-05 -0.00010127898 1.2265905e-22 0.00023028599 -2.8151788e-22 3.9139766e-38)
(6.9678296e-05 -0.00013601548 9.8830598e-23 0.0002688511 -1.986085e-22 1.5662979e-38)
(0.0001058826 -0.000179349 -7.8961171e-22 0.00030808446 1.3891951e-21 6.2414237e-37)
(0.00015817757 -0.00023232253 3.2155855e-21 0.00034666297 -4.9510526e-21 6.5434326e-36)
(0.00023244334 -0.00029580025 -2.4976386e-21 0.00038321414 3.3638219e-21 2.5271252e-36)
(0.00033617849 -0.00037043196 3.6827557e-21 0.0004165025 -4.3360547e-21 3.5632389e-36)
(0.00047878477 -0.00045669745 -6.6398404e-21 0.00044564859 6.8308375e-21 7.6172522e-36)
(0.00067190708 -0.00055506863 1.9693968e-21 0.00047033654 -1.7696632e-21 4.4729633e-37)
(0.00092995596 -0.00066632281 9.7284081e-22 0.00049095032 -7.634845e-22 7.4022573e-38)
(0.0012710637 -0.00079200115 -3.7783105e-21 0.0005085842 2.5902243e-21 7.6962417e-37)
(0.0017173773 -0.00093463244 1.5995548e-20 0.00052490921 -9.5850204e-21 9.6782062e-36)
(0.0022968782 -0.0010979255 2.7851334e-21 0.00054179666 -1.4602668e-21 2.0941765e-37)
(0.0030480734 -0.0012868198 -1.6699364e-20 0.00056062667 7.6683354e-21 5.4749997e-36)
(0.0040192667 -0.0015071832 2.1515948e-20 0.00058250028 -8.6583518e-21 6.7131201e-36)
(0.0052715065 -0.0017652276 -3.3774686e-21 0.00060813935 1.1915825e-21 1.2426572e-37)
(0.0068856432 -0.0020676929 -3.7569405e-20 0.00063773849 1.161706e-20 1.1681652e-35)
(0.0089633078 -0.0024212064 4.4026323e-21 0.00067109695 -1.1925813e-21 1.2381248e-37)
(0.011632578 -0.00283212 3.7984068e-20 0.00070771616 -9.0060501e-21 7.1839666e-36)
(0.015052461 -0.0033062528 1.0760778e-21 0.00074688771 -2.2316447e-22 4.5161044e-39)
(0.019417632 -0.0038484739 -3.5488378e-20 0.0007877178 6.4271166e-21 3.948871e-36)
(0.024962701 -0.004462089 4.4083882e-20 0.00082911599 -6.964744e-21 4.9129351e-36)
(0.03196559 -0.0051480096 -2.2019396e-20 0.00086977254 3.030037e-21 9.9778543e-37)
(0.04074804 -0.0059035032 2.8612067e-20 0.00090812932 -3.421116e-21 1.3870452e-36)
(0.051671956 -0.0067204922 1.0009949e-19 0.00094237014 -1.0370718e-20 1.4091764e-35)
(0.065129305 -0.0075834752 2.4549924e-20 0.00097050722 -2.1944853e-21 7.1044872e-37)
(0.081521641 -0.0084670783 1.0445664e-19 0.00099061902 -8.0034425e-21 1.0904818e-35)
(0.10122775 -0.0093342189 -1.4475307e-19 0.0010014629 9.4201948e-21 1.7949952e-35)
(0.12455682 -0.01013601 -1.4326633e-19 0.0010034996 7.8190033e-21 1.522721e-35)
(0.15168881 -0.010815414 -2.6201288e-20 0.0010001022 1.1779636e-21 4.4576188e-37)
(0.18263155 -0.011314838 2.2150169e-19 0.00099823205 -7.9344209e-21 2.8424596e-35)
(0.21716694 -0.011584593 -1.1007923e-19 0.0010078351 3.0148502e-21 6.3277982e-36)
(0.25486449 -0.011595753 -3.9692632e-20 0.0010381845 7.7064817e-22 7.5449729e-37)
(0.29504778 -0.011317503 2.1851996e-20 0.001089345 -2.5513557e-22 2.145541e-37)
(0.33681524 -0.01071297 6.9446973e-20 0.0011452035 -3.0566413e-22 2.0631602e-36)
(0.37896311 -0.0097281401 -3.4170173e-20 0.001178169 -8.8629126e-23 4.8715437e-37)
(0.41967432 -0.0082428838 6.1547547e-20 0.0011668607 5.7693959e-22 1.5772794e-36)
(0.45628706 -0.0060965999 3.6319589e-19 0.0011064349 5.8307189e-21 5.6284689e-35)
(0.48529674 -0.0031727488 1.675613e-20 0.0010153362 3.8346207e-22 1.2642442e-37)
(0.50276337 0.00046257794 -7.1788918e-20 0.00093105718 -2.1437018e-21 2.5243618e-36)
(0.50483134 0.0045329008 1.4912985e-19 0.00089688832 5.5685243e-21 1.2289293e-35)
(0.48826802 0.0087640329 -1.1648024e-19 0.00092742664 -5.3072743e-21 8.8098972e-36)
(0.45129701 0.01278787 2.9510638e-19 0.0010212073 1.6186487e-20 6.973897e-35)
(0.39436596 0.015978523 7.3184598e-20 0.001168327 4.7797168e-21 5.5817348e-36)
(0.32135091 0.017566369 -1.7341336e-19 0.0013293312 -1.3326194e-20 4.3575434e-35)
(0.24133568 0.016893786 2.4105769e-20 0.0014174022 2.1354058e-21 1.2392512e-36)
(0.16606743 0.014206156 2.174827e-20 0.0013533142 2.1735707e-21 1.5956127e-36)
(0.10466544 0.010372296 3.3639227e-21 0.0011125171 3.6957811e-22 6.369758e-38)
(0.061543852 0.0067271839 -3.3876147e-20 0.00079483944 -4.0051778e-21 1.1187045e-35)
(0.033873698 0.0039500246 4.8917946e-20 0.00050815785 6.209637e-21 4.2388531e-35)
(0.017964506 0.0021778163 1.0629137e-20 0.0003050951 1.4687646e-21 3.7976791e-36)
(0.00893555 0.0011221983 1.2167239e-20 0.00017742257 2.0056928e-21 1.0486827e-35)
(1.7858564e-09 -2.5497365e-08 1.3670386e-24 3.6405187e-07 -1.868838e-23 7.2456825e-38)
(2.0333977e-08 -2.6431116e-07 -2.2239229e-24 3.4358566e-06 2.7899652e-23 2.7672768e-38)
(7.2292149e-08 -8.6497865e-07 -1.0492415e-24 1.0350707e-05 1.2078561e-23 1.9565667e-39)
(1.8338696e-07 -2.0115193e-06 1.5344522e-24 2.2068114e-05 -1.6173702e-23 1.758265e-39)
(3.9336127e-07 -3.9490432e-06 -1.0720513e-23 3.9657012e-05 1.0342563e-22 4.1265312e-38)
(7.6443843e-07 -7.0081952e-06 -1.1047825e-24 6.4275721e-05 9.7473339e-24 2.2796636e-40)
(1.3923006e-06 -1.1626515e-05 -1.9049827e-23 9.714014e-05 1.534489e-22 3.7189745e-38)
(2.4218743e-06 -1.8372783e-05 -2.7179499e-23 0.00013947396 1.9946826e-22 4.312407e-38)
(4.0699525e-06 -2.7974128e-05 2.900038e-22 0.00019243703 -1.9347251e-21 2.8766672e-36)
(6.656861e-06 -4.1343107e-05 -3.3435371e-22 0.00025702881 2.0230558e-21 2.289251e-36)
(1.0650024e-05 -5.9601477e-05 2.0481374e-22 0.00033396596 -1.1213763e-21 5.2311584e-37)
(1.6722815e-05 -8.4095921e-05 3.8139409e-22 0.00042353676 -1.8852415e-21 1.1199678e-36)
(2.5832393e-05 -0.00011639948 -9.5531264e-22 0.00052544119 4.2535426e-21 4.3887686e-36)
(3.9320339e-05 -0.00015829138 -1.485643e-22 0.00063863374 5.9448382e-22 6.6946384e-38)
(5.9039149e-05 -0.00021170776 7.1699956e-22 0.00076119684 -2.5725443e-21 9.9246742e-37)
(8.7506644e-05 -0.00027865867 6.1312684e-22 0.00089028396 -1.9678916e-21 4.6567984e-37)
(0.00012808858 -0.00036111365 -8.8005376e-22 0.0010221798 2.5208557e-21 6.2063045e-37)
(0.0001852081 -0.00046087047 3.9228379e-21 0.0011525251 -1.0004866e-20 8.0431304e-36)
(0.00026457964 -0.00057943806 -2.8391099e-21 0.0012767376 6.4323759e-21 2.7724643e-36)
(0.00037346975 -0.00071798848 1.7087325e-21 0.0013906232 -3.4315798e-21 6.6722131e-37)
(0.00052099637 -0.00087744557 -6.9656346e-21 0.0014911102 1.2375069e-20 7.4485013e-36)
(0.00071849525 -0.001058775 -2.174415e-21 0.0015769653 3.4115092e-21 4.9347043e-37)
(0.00098005817 -0.00126353 5.4016679e-21 0.0016492909 -7.4740147e-21 2.0988737e-36)
(0.0013234856 -0.0014946563 -9.6025991e-21 0.001711603 1.1705805e-20 4.6373693e-36)
(0.0017708673 -0.0017569631 -4.4304842e-21 0.0017694102 4.7556063e-21 7.0066955e-37)
(0.0023496049 -0.0020572499 6.1841076e-21 0.0018290025 -5.8451618e-21 9.8593097e-37)
(0.0030975939 -0.002404732 4.0517666e-20 0.001895139 -3.3722228e-20 3.1017826e-35)
(0.0040628695 -0.0028102419 2.1013079e-20 0.0019716152 -1.539807e-20 6.2080068e-36)
(0.0053049029 -0.0032851387 -1.1947329e-20 0.0020610366 7.7072381e-21 1.5170105e-36)
(0.0069028486 -0.0038419796 1.4506366e-20 0.0021642629 -8.2337702e-21 1.7088632e-36)
(0.0089557435 -0.00449311 -1.023375e-20 0.0022808251 5.1076811e-21 6.6082029e-37)
(0.011588081 -0.0052505307 -6.5216039e-20 0.0024092768 2.8599435e-20 2.1008982e-35)
(0.014953978 -0.0061253831 2.4475692e-20 0.0025474284 -9.4230423e-21 2.3460615e-36)
(0.019241628 -0.0071272891 8.1643809e-20 0.0026924684 -2.7571546e-20 2.0900205e-35)
(0.024677198 -0.0082631987 -3.0321017e-20 0.0028408545 8.9712812e-21 2.335498e-36)
(0.031527428 -0.009535842 -4.713382e-20 0.0029882324 1.2205439e-20 4.6060567e-36)
(0.040099543 -0.010941467 9.0302457e-20 0.0031293227 -2.0428522e-20 1.3945176e-35)
(0.050736671 -0.012466692 3.0360324e-20 0.0032578654 -5.9861687e-21 1.3118059e-36)
(0.063806133 -0.014084507 -5.9192747e-20 0.0033668502 1.0132818e-20 4.1988768e-36)
(0.079677441 -0.015749851 -2.5893885e-20 0.0034493942 3.8291116e-21 6.8306341e-37)
(0.098687548 -0.017395811 1.3508269e-19 0.0035006514 -1.7132192e-20 1.5955244e-35)
(0.1210907 -0.018933273 -4.1222572e-20 0.0035213673 4.4266651e-21 1.2951966e-36)
(0.14699693 -0.02025719 -6.3964072e-20 0.0035220882 5.7394375e-21 2.7390904e-36)
(0.17632181 -0.021261353 -1.8157117e-19 0.0035259804 1.3290885e-20 1.9671686e-35)
(0.20874256 -0.021857887 3.6370924e-19 0.0035669708 -2.0929603e-20 7.1577236e-35)
(0.24371412 -0.022000808 -2.4571329e-19 0.003676184 1.0510051e-20 3.0111408e-35)
(0.2805003 -0.021662418 -6.4052356e-20 0.0038502438 1.849548e-21 1.91863e-36)
(0.31817717 -0.020799029 -2.5860172e-19 0.0040348719 3.9369276e-21 3.0074537e-35)
(0.35550034 -0.019297464 -3.1256679e-19 0.0041388876 7.0618016e-22 4.3145786e-35)
(0.39068775 -0.016936312 -1.5811691e-20 0.0040780354 -1.5533182e-22 1.1068817e-37)
(0.42121185 -0.013443665 6.5576372e-20 0.0038324317 1.4878157e-21 1.9734698e-36)
(0.44381075 -0.0086368453 -4.6539785e-19 0.003469559 -1.656239e-20 1.0593499e-34)
(0.45489054 -0.0026050581 -1.8815442e-19 0.0031131072 -9.1907303e-21 1.9056888e-35)
(0.45106979 0.0042436744 -1.7979869e-19 0.0028900425 -1.1352914e-20 1.9880118e-35)
(0.42990208 0.011371098 -5.3742085e-20 0.0028648914 -4.2531852e-21 2.1170269e-36)
(0.39041188 0.018117212 -3.6781812e-19 0.003048788 -3.5803243e-20 1.2473746e-34)
(0.33359671 0.023488836 1.2583782e-19 0.0034159517 1.4881135e-20 1.9398364e-35)
(0.26371352 0.026161601 -3.1749746e-20 0.0038597199 -4.509385e-21 1.7720525e-36)
(0.18999284 0.025030897 -2.0979446e-19 0.0041156798 -3.4958672e-20 1.1790328e-34)
(0.12367602 0.020616162 -6.4867822e-20 0.0039260429 -1.2406144e-20 1.8469878e-35)
(0.072480921 0.014535031 5.8224987e-20 0.0032164508 1.2466404e-20 2.6051539e-35)
(0.038637164 0.0089396188 1.4743701e-19 0.002278801 3.4638218e-20 3.0743311e-34)
(0.018692484 0.0048670254 -3.3750171e-20 0.0014346217 -8.6908647e-21 3.1347705e-35)
(0.0084189068 0.0024081194 -3.7938444e-20 0.00083854322 -1.0888756e-20 8.1431462e-35)
(0.0034709216 0.0010497369 -1.0644735e-20 0.00046024208 -3.7377331e-21 1.4936286e-35)
(7.0526931e-09 -7.1707892e-08 -9.0045804e-24 7.2909445e-07 8.9574693e-23 8.1260599e-37)
(7.2579363e-08 -7.0691269e-07 3.0112417e-23 6.885328e-06 -2.8748101e-22 1.4385889e-36)
(2.371993e-07 -2.2187851e-06 -1.8488268e-23 2.0755294e-05 1.6897692e-22 1.88018e-37)
(5.5272466e-07 -4.9472043e-06 2.9706686e-24 4.4282398e-05 -2.5921112e-23 2.2211096e-39)
(1.0917901e-06 -9.3244136e-06 -8.1327746e-23 7.9640739e-05 6.7604821e-22 8.676504e-37)
(1.9580129e-06 -1.5904299e-05 1.1223195e-22 0.00012919877 -8.8660574e-22 9.2831513e-37)
(3.2981233e-06 -2.5388257e-05 -2.2148221e-22 0.00019546066 1.6577986e-21 2.1345081e-36)
(5.3185437e-06 -3.8653472e-05 1.3321013e-22 0.00028097157 -9.4158853e-22 4.7209502e-37)
(8.3082515e-06 -5.6783534e-05 6.3924842e-22 0.00038817994 -4.2519434e-21 6.8164793e-36)
(1.266954e-05 -8.1097589e-05 -1.9218214e-22 0.00051924863 1.1984757e-21 3.935674e-37)
(1.895901e-05 -0.00011317429 -9.0870735e-22 0.00067581282 5.2930627e-21 5.6989459e-36)
(2.7941461e-05 -0.00015486486 3.425271e-22 0.00085868715 -1.856451e-21 5.2999466e-37)
(4.0659687e-05 -0.00020828802 2.8141805e-23 0.0010675378 -1.4137055e-22 2.3614696e-39)
(5.8523339e-05 -0.00027579869 -1.3498066e-21 0.0013005508 6.2602736e-21 3.6059751e-36)
(8.3420079e-05 -0.00035992295 5.1567163e-21 0.0015541492 -2.1992763e-20 3.5134016e-35)
(0.00011785135 -0.00046325449 -3.8544562e-21 0.0018228376 1.5056045e-20 1.3165693e-35)
(0.00016509549 -0.00058831796 -4.4586178e-23 0.00209927 1.5886867e-22 1.1866195e-39)
(0.0002293998 -0.00073741777 3.1314758e-21 0.002374644 -1.0137464e-20 3.9635865e-36)
(0.00031620385 -0.00091251222 -9.5875038e-21 0.002639499 2.8087217e-20 2.5289174e-35)
(0.00043240323 -0.0011151832 5.4329034e-21 0.0028849272 -1.4348034e-20 5.56323e-36)
(0.00058666785 -0.0013467846 9.6822737e-21 0.0031040828 -2.2967751e-20 1.2197202e-35)
(0.0007898442 -0.0016088522 4.6598837e-21 0.0032937188 -9.8957503e-21 1.9679183e-36)
(0.0010555137 -0.0019038312 -2.7232488e-20 0.0034553445 5.1620314e-20 4.7330343e-35)
(0.0014009275 -0.0022361484 -1.6708428e-20 0.0035955567 2.8199873e-20 1.269417e-35)
(0.0018479751 -0.0026130748 1.2592133e-20 0.0037252913 -1.8885985e-20 5.2067215e-36)
(0.0024231989 -0.0030443547 -8.5121899e-21 0.0038576232 1.1330131e-20 1.7407955e-36)
(0.0031634739 -0.0035434929 3.6711016e-20 0.0040031824 -4.3322445e-20 2.4051605e-35)
(0.0041162391 -0.0041261458 -1.2070589e-20 0.0041697976 1.2615726e-20 1.9568016e-36)
(0.0053386378 -0.0048083733 3.7050912e-20 0.0043633406 -3.4266097e-20 1.40582e-35)
(0.0069070024 -0.0056082008 -2.3733281e-20 0.0045861426 1.9403498e-20 4.4551032e-36)
(0.0089164057 -0.0065432948 1.6575108e-20 0.0048376158 -1.1967295e-20 1.6966718e-36)
(0.011485757 -0.0076307918 -6.8361877e-20 0.0051150464 4.3544834e-20 2.2799911e-35)
(0.014761653 -0.0088866003 1.100054e-20 0.0054140776 -6.1754744e-21 4.7143478e-37)
(0.018922319 -0.01032441 -6.4834505e-20 0.0057289017 3.2047353e-20 1.3182693e-35)
(0.024180821 -0.011954098 6.9097747e-20 0.006052136 -3.0038092e-20 1.2183122e-35)
(0.030786672 -0.013779365 2.4544673e-20 0.0063745453 -9.374389e-21 1.2597294e-36)
(0.03902482 -0.01579442 -3.3825308e-19 0.0066847579 1.1325e-19 1.9869592e-34)
(0.049209527 -0.017979338 -9.7192735e-20 0.0069691699 2.8471098e-20 1.3717552e-35)
(0.061670963 -0.02029414 8.8290217e-20 0.0072124005 -2.2548197e-20 9.5696406e-36)
(0.076730918 -0.022672074 -9.4601633e-20 0.0073990767 2.0965224e-20 9.3767301e-36)
(0.094665247 -0.025014021 2.6404312e-20 0.0075180454 -5.0428307e-21 6.2951695e-37)
(0.11565134 -0.027188001 1.7815548e-19 0.0075699829 -2.9022502e-20 2.5036759e-35)
(0.13970637 -0.029039626 -8.8498795e-21 0.0075771495 1.2117947e-21 5.4729985e-38)
(0.16663485 -0.030416716 -6.7969872e-20 0.0075904059 7.6583737e-21 2.8858474e-36)
(0.19601338 -0.031209048 3.4776786e-20 0.0076855979 -3.0904121e-21 6.9272218e-37)
(0.22723555 -0.03138222 -1.8271002e-20 0.0079298502 1.2578223e-21 1.7423859e-37)
(0.25957145 -0.030939118 -5.4082904e-20 0.0083108466 2.5506649e-21 1.4615075e-36)
(0.29215889 -0.029853304 8.4734154e-19 0.0087059595 -2.2808601e-20 3.4837323e-34)
(0.32386901 -0.027964397 -9.5268188e-20 0.0089075541 6.862692e-22 4.3640932e-36)
(0.3530347 -0.024925885 8.7207258e-20 0.0087251994 9.9365273e-22 3.7165269e-36)
(0.37723405 -0.02032593 -7.9951322e-19 0.0081209555 -2.4090807e-20 3.2644668e-34)
(0.39338169 -0.013933397 4.1996036e-19 0.0072550886 2.0689471e-20 9.7086201e-35)
(0.39824817 -0.0059259025 3.2533976e-19 0.0064006269 2.263351e-20 6.4926819e-35)
(0.38911213 0.0031133218 2.8612174e-19 0.0058148058 2.6259112e-20 5.8285378e-35)
(0.36440711 0.01242752 2.4789352e-19 0.0056333061 2.8969969e-20 5.3150194e-35)
(0.32394932 0.021135355 3.4057437e-19 0.0058862338 4.9742222e-20 1.2863122e-34)
(0.26930991 0.027960508 -5.7813681e-19 0.0065273971 -1.0418777e-19 5.0520507e-34)
(0.20498377 0.031134922 2.9127703e-19 0.0073546924 6.3957078e-20 1.8837185e-34)
(0.14021794 0.029263724 3.4811495e-19 0.0078274426 9.1300468e-20 4.277676e-34)
(0.085290529 0.0233001 -1.9447016e-19 0.0074121947 -5.9450803e-20 2.2799626e-34)
(0.045853162 0.015659924 -4.5745992e-20 0.0060011454 -1.5879138e-20 2.3069108e-35)
(0.021882347 0.0090188093 -2.8705742e-20 0.0041751147 -1.1066125e-20 1.7491047e-35)
(0.0092635852 0.0044947482 1.030821e-19 0.0025582946 4.3867394e-20 4.5297662e-34)
(0.0036410606 0.0019766613 5.2178378e-20 0.0014381216 2.4723652e-20 2.4439648e-34)
(0.0014122046 0.00073620739 -1.5020073e-21 0.00075050178 -8.6536045e-22 4.7434523e-37)
(1.8739799e-08 -1.4699371e-07 1.0446318e-23 1.1530134e-06 -8.088507e-23 4.0290246e-37)
(1.8512551e-07 -1.420401e-06 -7.1381444e-23 1.0898305e-05 5.4044545e-22 3.1056063e-36)
(5.83418e-07 -4.3798937e-06 9.6779382e-23 3.288176e-05 -7.149477e-22 2.0636787e-36)
(1.3075228e-06 -9.5821763e-06 -5.2939713e-23 7.0225369e-05 3.8087354e-22 2.9464862e-37)
(2.4809198e-06 -1.7710795e-05 -2.594677e-23 0.00012644116 1.8147413e-22 3.8444627e-38)
(4.267757e-06 -2.9604795e-05 2.917742e-22 0.0002053821 -1.9797906e-21 2.8457193e-36)
(6.8856544e-06 -4.6284741e-05 -9.4182851e-23 0.00031116054 6.1844844e-22 1.8248037e-37)
(1.0622254e-05 -6.8978856e-05 -2.5039341e-22 0.00044801025 1.5866556e-21 8.223238e-37)
(1.585717e-05 -9.9149499e-05 -2.3744435e-23 0.00062008174 1.4474335e-22 4.8380897e-39)
(2.3090351e-05 -0.00013851547 -2.469486e-22 0.00083115569 1.4433395e-21 3.4887589e-37)
(3.2978634e-05 -0.00018906645 4.2035606e-22 0.0010842684 -2.3472464e-21 6.8341829e-37)
(4.6382439e-05 -0.00025306382 -3.5326849e-22 0.0013812489 1.8775467e-21 3.2971774e-37)
(6.4425165e-05 -0.00033302172 -1.5677222e-21 0.0017221875 7.8990843e-21 4.4692548e-36)
(8.8567712e-05 -0.00043166078 -5.4704554e-23 0.0021048769 2.6022296e-22 3.7648248e-39)
(0.00012070153 -0.00055182945 1.7230236e-21 0.0025243043 -7.7041685e-21 2.5977908e-36)
(0.00016326402 -0.00069639273 1.4585292e-21 0.0029723135 -6.1022504e-21 1.2983868e-36)
(0.00021937998 -0.0008680947 -1.4968334e-21 0.0034375914 5.8323282e-21 9.5667693e-37)
(0.00029303539 -0.0010694203 1.7090357e-22 0.0039061576 -6.1717288e-22 8.7572162e-39)
(0.00038929134 -0.0013025019 4.1224127e-21 0.0043625077 -1.37296e-20 3.5858921e-36)
(0.00051455101 -0.0015691422 5.9443751e-21 0.0047914718 -1.8168396e-20 5.2724528e-36)
(0.00067689953 -0.001871046 -7.9995721e-21 0.0051806577 2.2329084e-20 6.7894274e-36)
(0.00088654622 -0.0022103474 -9.4491416e-21 0.0055230894 2.3975239e-20 6.781009e-36)
(0.0011564087 -0.0025904704 1.4851253e-20 0.0058193931 -3.4104339e-20 1.2090011e-35)
(0.001503015 -0.0030173646 -2.1348691e-20 0.0060787441 4.4196683e-20 1.8204456e-35)
(0.0019478116 -0.0035008199 -4.2721277e-20 0.0063179691 7.9460727e-20 5.36883e-35)
(0.0025165434 -0.0040535772 1.155445e-19 0.0065587051 -1.9256817e-19 2.927335e-34)
(0.0032445498 -0.0046933809 -7.255448e-20 0.0068207302 1.0811639e-19 8.709553e-35)
(0.0041780006 -0.0054401101 1.2194502e-19 0.007116432 -1.6214549e-19 1.8785134e-34)
(0.0053716338 -0.0063142824 -1.7200754e-19 0.0074565039 2.0372095e-19 2.8867638e-34)
(0.0068976717 -0.0073387183 2.1580828e-19 0.0078461427 -2.273023e-19 3.5495615e-34)
(0.0088460904 -0.0085358557 -2.4981173e-19 0.0082851207 2.3363664e-19 3.7554247e-34)
(0.011328434 -0.0099271934 4.6904182e-20 0.0087693901 -3.8896725e-20 1.0562616e-35)
(0.014481483 -0.011532537 1.8025139e-19 0.0092918589 -1.3237119e-19 1.2548682e-34)
(0.018470405 -0.01336866 -1.1276732e-19 0.0098427589 7.3237273e-20 3.98972e-35)
(0.023491157 -0.015447265 3.9000288e-20 0.010409487 -2.236942e-20 3.9122614e-36)
(0.029771093 -0.017771823 1.2548909e-20 0.010976036 -6.347001e-21 3.3520614e-37)
(0.037566637 -0.020333183 1.7023732e-19 0.011522487 -7.582261e-20 5.1357809e-35)
(0.047155716 -0.02310345 6.0807002e-20 0.01202481 -2.3796466e-20 5.5078475e-36)
(0.058822487 -0.026028025 6.6903431e-20 0.012455526 -2.2922814e-20 5.6650889e-36)
(0.072831305 -0.029016841 7.1813027e-20 0.012786873 -2.1438779e-20 5.6081289e-36)
(0.089387492 -0.031937195 -3.9520617e-19 0.012998251 1.0209388e-19 1.4743281e-34)
(0.10858394 -0.034614349 1.8614914e-19 0.013090227 -4.1201464e-20 2.8727016e-35)
(0.130343 -0.036848878 3.1648187e-20 0.013102939 -5.9385434e-21 7.3450731e-37)
(0.15437543 -0.038458761 -3.8476598e-19 0.013130798 5.9512104e-20 9.8647952e-35)
(0.18020915 -0.039346542 -2.0414753e-19 0.013313646 2.5370788e-20 2.5491185e-35)
(0.20726711 -0.039532957 1.0385218e-19 0.01376548 -9.894944e-21 6.184306e-36)
(0.23494292 -0.039085316 3.8653953e-19 0.014447541 -2.5958041e-20 8.1787453e-35)
(0.26253907 -0.037981893 -1.69907e-19 0.01511919 6.8597408e-21 1.5460688e-35)
(0.2890313 -0.035958498 4.9544025e-19 0.015394613 -6.7633803e-21 1.3151958e-34)
(0.31274729 -0.032489304 2.6490722e-19 0.014941532 3.1797826e-21 3.8649816e-35)
(0.33122231 -0.0270083 3.539736e-19 0.0137256 1.3254802e-20 7.3001271e-35)
(0.34144896 -0.019271682 9.0545497e-19 0.012065736 5.8068501e-20 5.2131742e-34)
(0.34055912 -0.0096138391 -6.5369486e-19 0.010452511 -6.0462782e-20 3.0780632e-34)
(0.32658874 0.0011329034 1.9520852e-19 0.0093171039 2.4221977e-20 3.2282492e-35)
(0.29899802 0.011974986 -2.9823967e-19 0.0088801279 -4.7793837e-20 9.3810446e-35)
(0.25854981 0.021884134 -2.4540334e-19 0.0091780841 -4.9857509e-20 8.3233576e-35)
(0.20741477 0.029429406 -8.0306634e-20 0.010126458 -2.0476745e-20 1.252015e-35)
(0.15024951 0.03253678 -5.8700474e-19 0.011400314 -1.8527694e-19 1.0210763e-33)
(0.096149591 0.029749592 -1.2194191e-19 0.012089851 -4.6672667e-20 7.2814332e-35)
(0.053740264 0.022646241 2.0824841e-19 0.011322311 9.4023273e-20 3.7666132e-34)
(0.026025633 0.014328452 5.7273619e-20 0.0090077944 2.9573729e-20 5.3496505e-35)
(0.011051458 0.0076591459 -3.062597e-20 0.0061183923 -1.7509779e-20 2.9797896e-35)
(0.0042290284 0.0035017514 -4.4961857e-20 0.0036340169 -2.7912888e-20 1.2735165e-34)
(0.001672659 0.0014151695 -4.9652029e-20 0.0019598975 -3.3130765e-20 3.0872527e-34)
(0.00082877094 0.00051028083 2.60174e-21 0.0009792464 1.9996731e-21 1.7952435e-36)
(3.8875565e-08 -2.4694497e-07 4.6938428e-23 1.5686444e-06 -2.9557453e-22 3.7404577e-36)
(3.764875e-07 -2.3640022e-06 3.3656811e-23 1.4843902e-05 -2.0923355e-22 3.258263e-37)
(1.1651037e-06 -7.2278686e-06 -4.4760709e-23 4.4839837e-05 2.7422954e-22 2.1359045e-37)
(2.5592835e-06 -1.5665342e-05 -2.3635841e-22 9.5891139e-05 1.4254959e-21 2.9115659e-36)
(4.753488e-06 -2.8668103e-05 1.7363648e-22 0.0001729083 -1.0296169e-21 8.7381741e-37)
(7.9926474e-06 -4.7416123e-05 -3.2279667e-22 0.00028132602 1.8791651e-21 1.809745e-36)
(1.2584771e-05 -7.3300519e-05 1.7588694e-22 0.00042701283 -1.0034253e-21 3.3870177e-37)
(1.8916103e-05 -0.0001079425 5.1804708e-23 0.00061610562 -2.8901622e-22 1.9206206e-38)
(2.7470519e-05 -0.0001532095 -3.5776409e-22 0.00085475679 1.9472535e-21 6.1502925e-37)
(3.8853488e-05 -0.00021122288 -9.3136812e-22 0.0011487688 4.9326643e-21 2.8550246e-36)
(5.382208e-05 -0.00028435439 -5.6057092e-23 0.001503104 2.8805703e-22 7.1885031e-39)
(7.3322351e-05 -0.00037520577 2.1884477e-21 0.0019212621 -1.0876873e-20 7.7059195e-36)
(9.8536207e-05 -0.00048656711 -3.5939196e-21 0.0024045401 1.7217615e-20 1.4734396e-35)
(0.00013094049 -0.0006213502 6.8665855e-21 0.0029512204 -3.15914e-20 3.8373713e-35)
(0.00017238161 -0.00078249505 -2.1180829e-21 0.0035557786 9.3206879e-21 2.6170613e-36)
(0.00022517026 -0.00097285383 5.3010094e-21 0.0042082607 -2.2215577e-20 1.1791048e-35)
(0.00029220416 -0.0011950694 -7.5362599e-21 0.0048940444 2.9938395e-20 1.719285e-35)
(0.00037712519 -0.0014514722 5.7452659e-21 0.0055942424 -2.1528166e-20 7.2277625e-36)
(0.00048452728 -0.0017440523 -1.0634716e-21 0.0062870089 3.7392398e-21 1.7968339e-37)
(0.00062023016 -0.0020745742 -5.0422494e-21 0.0069499083 1.654611e-20 2.9399396e-36)
(0.00079164012 -0.0024449159 1.4287287e-20 0.0075632778 -4.3515003e-20 1.7254694e-35)
(0.0010082298 -0.0028577201 -2.3428534e-20 0.0081141397 6.5865757e-20 3.4105015e-35)