/*--------------------------------*- C++ -*----------------------------------*\
  =========                 |
  \\      /  F ield         | OpenFOAM: The Open Source CFD Toolbox
   \\    /   O peration     | Website:  https://openfoam.org
    \\  /    A nd           | Version:  13
     \\/     M anipulation  |
\*---------------------------------------------------------------------------*/
FoamFile
{
    format      ascii;
    class       volScalarField;
    location    "45.697649";
    object      nut;
}
// * * * * * * * * * * * * * * * * * * * * * * * * * * * * * * * * * * * * * //

dimensions      [0 2 -1 0 0 0 0];

internalField   nonuniform List<scalar> 
17140
(
1.2430934e-18
2.4176524e-16
6.4395064e-15
6.5283374e-14
3.9481592e-13
1.7492651e-12
6.3167117e-12
1.9767336e-11
5.5694616e-11
1.4489406e-10
3.5420741e-10
8.2394944e-10
1.8409169e-09
3.9787175e-09
8.364185e-09
1.7177918e-08
3.4586324e-08
6.8463823e-08
1.3355361e-07
2.5723399e-07
4.8998129e-07
9.2426013e-07
1.7284651e-06
3.2076104e-06
5.911264e-06
1.0824249e-05
1.9700101e-05
3.5635478e-05
6.4035771e-05
0.00011417184
0.00020147517
0.00035038842
0.00059653836
0.00098535913
0.0015636297
0.00236358
0.003386775
0.0045977407
0.0059303273
0.0073023824
0.0086319652
0.0098485857
0.010889173
0.011747163
0.012474408
0.013050612
0.013509379
0.01388622
0.014210525
0.014502071
0.014772651
0.015036849
0.015313202
0.015591536
0.01585247
0.016072822
0.015996101
0.015212645
0.012405806
0.0057845113
0.0020171947
0.0017256338
0.0034883268
0.010429466
0.012507167
1.2147892e-18
2.3626027e-16
6.2928864e-15
6.379716e-14
3.858299e-13
1.7094644e-12
6.1730437e-12
1.9317947e-11
5.4429104e-11
1.4160358e-10
3.4616848e-10
8.0526201e-10
1.7991946e-09
3.888615e-09
8.1749283e-09
1.6789586e-08
3.3805226e-08
6.691931e-08
1.305443e-07
2.5144552e-07
4.7897163e-07
9.035264e-07
1.6897603e-06
3.1359213e-06
5.7793659e-06
1.0582697e-05
1.9259686e-05
3.483749e-05
6.2602081e-05
0.00011162296
0.00019701303
0.00034273247
0.00058380809
0.00096518136
0.0015335585
0.0023220834
0.0033342692
0.0045369721
0.0058660046
0.0072403879
0.0085784606
0.0098102682
0.010870466
0.011748532
0.012499402
0.013101099
0.013586766
0.01399226
0.01434778
0.014674033
0.014982899
0.015286072
0.015593963
0.015481886
0.015101246
0.015458274
0.015677206
0.014133622
0.010062483
0.0037338406
0.0020929376
0.0015100928
0.0029929513
0.0086584474
0.013806867
1.1776836e-18
2.2904367e-16
6.1006687e-15
6.1848492e-14
3.7404531e-13
1.657255e-12
5.9845295e-12
1.8728084e-11
5.2767383e-11
1.3728113e-10
3.3560354e-10
7.8069028e-10
1.7443045e-09
3.7700029e-09
7.9256189e-09
1.6277643e-08
3.2774598e-08
6.4879363e-08
1.2656512e-07
2.4378121e-07
4.6437112e-07
8.7597897e-07
1.6382226e-06
3.0401818e-06
5.602598e-06
1.0258471e-05
1.8668892e-05
3.3767786e-05
6.0679989e-05
0.00010820063
0.00019099167
0.00033234637
0.00056644943
0.00093746727
0.0014920018
0.002264306
0.0032602328
0.0044493994
0.0057700614
0.0071427526
0.0084861581
0.0097306493
0.010808842
0.011705443
0.012476813
0.013101834
0.013610996
0.014040078
0.014419671
0.014770887
0.015105066
0.015429944
0.015590313
0.014533158
0.013833023
0.013581216
0.014116959
0.013155219
0.0083189664
0.0034809046
0.0027963187
0.0015336427
0.0025643166
0.0062826195
0.014212757
1.1321156e-18
2.2018129e-16
5.8646145e-15
5.9455396e-14
3.5957281e-13
1.5931356e-12
5.7530013e-12
1.800359e-11
5.0726256e-11
1.3197136e-10
3.2262423e-10
7.505e-10
1.6768549e-09
3.6242301e-09
7.6191697e-09
1.5648245e-08
3.1507224e-08
6.2370137e-08
1.2166896e-07
2.3434695e-07
4.4639012e-07
8.4203342e-07
1.5746608e-06
2.9220521e-06
5.3845955e-06
9.8586885e-06
1.7940076e-05
3.2447241e-05
5.8302486e-05
0.00010395409
0.00018349909
0.00031938409
0.00054470662
0.00090262724
0.0014395183
0.0021908184
0.0031649923
0.0043349989
0.0056420766
0.0070086305
0.008353898
0.0096077981
0.010702172
0.011615337
0.012404331
0.013049872
0.013578489
0.014026098
0.014423738
0.014792213
0.01514116
0.015472825
0.014768946
0.013577749
0.01262731
0.012038573
0.01195672
0.012629097
0.0074558543
0.0043279017
0.0035903342
0.0016949956
0.0019296307
0.0048669207
0.013952336
1.0788825e-18
2.0982816e-16
5.5888547e-15
5.6659766e-14
3.4266579e-13
1.518229e-12
5.4825152e-12
1.7157163e-11
4.8341521e-11
1.2576748e-10
3.0745873e-10
7.1522327e-10
1.5980388e-09
3.4538867e-09
7.2610573e-09
1.4912721e-08
3.0026117e-08
5.943767e-08
1.1594673e-07
2.2332038e-07
4.253724e-07
8.0234921e-07
1.5003641e-06
2.7839979e-06
5.1297773e-06
9.3911782e-06
1.7087196e-05
3.0899793e-05
5.5511644e-05
9.8961135e-05
0.00017467424
0.00030408575
0.00051898304
0.00086128197
0.0013768974
0.0021024111
0.0030492163
0.0041941439
0.0054819645
0.0068373609
0.0081803046
0.0094400842
0.010548204
0.011475663
0.012279275
0.012942041
0.013485947
0.013946646
0.014354799
0.014730461
0.01508083
0.015403949
0.013959487
0.012706464
0.011609757
0.010873491
0.010574658
0.011503687
0.0074373862
0.0056511942
0.0040788764
0.0018579251
0.0014617726
0.0041147071
0.012571914
1.0191541e-18
1.9821178e-16
5.2794478e-15
5.3522997e-14
3.2369526e-13
1.4341771e-12
5.178991e-12
1.6207292e-11
4.5665134e-11
1.1880423e-10
2.9043507e-10
6.7561909e-10
1.5095407e-09
3.2625849e-09
6.8588067e-09
1.4086367e-08
2.8361738e-08
5.6141602e-08
1.0951368e-07
2.1092218e-07
4.0173927e-07
7.5773295e-07
1.4168414e-06
2.628791e-06
4.8432366e-06
8.8652497e-06
1.6127058e-05
2.9156349e-05
5.236531e-05
9.3328932e-05
0.00016471264
0.00028679624
0.00048984378
0.000814234
0.0013051572
0.002000255
0.0029140535
0.0040277256
0.0052901396
0.0066287179
0.007964412
0.0092258956
0.010344656
0.011283845
0.012098581
0.012774452
0.013328854
0.013796715
0.014208032
0.014581774
0.014921933
0.014703318
0.013222797
0.011926049
0.010794582
0.01001969
0.0098425358
0.010963856
0.0083926819
0.006805095
0.0042658724
0.0019063101
0.0011809357
0.0033691447
0.0098149411
9.5415322e-19
1.8557001e-16
4.9427301e-15
5.0109352e-14
3.0305027e-13
1.3427067e-12
4.8486807e-12
1.5173607e-11
4.2752633e-11
1.1122682e-10
2.7191035e-10
6.3252409e-10
1.4132456e-09
3.0544375e-09
6.4211549e-09
1.318733e-08
2.6551042e-08
5.2555877e-08
1.0251528e-07
1.9743363e-07
3.7602376e-07
7.0917135e-07
1.3258981e-06
2.4597228e-06
4.5309678e-06
8.2918604e-06
1.507995e-05
2.7254642e-05
4.8932803e-05
8.7182692e-05
0.00015383466
0.00026788882
0.00045788769
0.00076239666
0.0012255746
0.0018859204
0.0027611656
0.0038372179
0.0050676089
0.0063830164
0.0077056842
0.0089637507
0.010089081
0.011037267
0.011858743
0.012542365
0.013101441
0.013569473
0.013975523
0.014337293
0.014655859
0.013965491
0.012522236
0.0112081
0.010111882
0.0094067996
0.0095334205
0.011211934
0.0097291282
0.0075578351
0.0040734705
0.0017160611
0.00091934218
0.0025655621
0.0064714678
8.8514115e-19
1.7214811e-16
4.585233e-15
4.6485043e-14
2.8113121e-13
1.2455911e-12
4.4979833e-12
1.4076117e-11
3.966034e-11
1.031816e-10
2.5224185e-10
5.86768e-10
1.3110039e-09
2.833435e-09
5.9564717e-09
1.223276e-08
2.4628495e-08
4.8748634e-08
9.5084506e-08
1.8311164e-07
3.4871916e-07
6.576083e-07
1.2293319e-06
2.2801965e-06
4.1993771e-06
7.6829995e-06
1.3968125e-05
2.5235556e-05
4.5288631e-05
8.0656838e-05
0.00014227921
0.00024777774
0.00042380535
0.00070684926
0.0011396892
0.0017613675
0.0025927417
0.0036247312
0.0048160662
0.0061012372
0.0074041488
0.008652448
0.0097784775
0.010733081
0.011555877
0.012240258
0.012796218
0.013255508
0.013645616
0.013983276
0.014269038
0.013230372
0.011788786
0.010473025
0.0094580696
0.0089697027
0.0096077134
0.012092317
0.010124089
0.0074923199
0.0033690335
0.0013657517
0.00072927083
0.0019132379
0.0064394998
8.1352004e-19
1.5821873e-16
4.2142174e-15
4.2723683e-14
2.5838329e-13
1.1448029e-12
4.1340215e-12
1.293711e-11
3.6451052e-11
9.4831951e-11
2.3182898e-10
5.3928003e-10
1.204892e-09
2.6040666e-09
5.4741999e-09
1.1242067e-08
2.263322e-08
4.4797453e-08
8.7373029e-08
1.6824927e-07
3.2038593e-07
6.0410679e-07
1.1291452e-06
2.0939631e-06
3.8554548e-06
7.0516265e-06
1.2815482e-05
2.3142935e-05
4.1512713e-05
7.3895771e-05
0.00013030358
0.00022691116
0.00038834909
0.00064878496
0.0010492477
0.0016289035
0.0024114862
0.0033930467
0.0045379798
0.0057851712
0.0070606333
0.0082916579
0.0094109028
0.010366872
0.01118336
0.011861664
0.012405235
0.012844228
0.013204901
0.013502292
0.013735833
0.012392378
0.010917368
0.0096246581
0.0087794925
0.0087601833
0.010115725
0.012176884
0.0091665606
0.00628293
0.0022617043
0.0010286983
0.00060799733
0.0013184551
0.0050595344
7.4073478e-19
1.4406297e-16
3.8371725e-15
3.8901198e-14
2.3526568e-13
1.0423764e-12
3.7641431e-12
1.1779584e-11
3.3189574e-11
8.6346501e-11
2.110841e-10
4.9101974e-10
1.0970547e-09
2.3709707e-09
4.9840972e-09
1.0235309e-08
2.0605652e-08
4.0782495e-08
7.953754e-08
1.5314906e-07
2.9160227e-07
5.4976198e-07
1.0273968e-06
1.9048678e-06
3.5063422e-06
6.4109397e-06
1.1646299e-05
2.1021226e-05
3.7685958e-05
6.7045625e-05
0.00011816859
0.0002057456
0.00035229344
0.00058945539
0.00095613449
0.0014911136
0.0022205747
0.0031456211
0.0042366562
0.0054375346
0.0066769041
0.0078820134
0.0089856254
0.0099340355
0.010735482
0.011396016
0.011914816
0.01231772
0.012627972
0.012857174
0.013005476
0.011337733
0.0098187062
0.0086284972
0.0081890919
0.0089991578
0.011123418
0.010407154
0.0074049295
0.0040221376
0.001348805
0.0007794545
0.00053030587
0.00080723655
0.0026858278
6.6820364e-19
1.2995663e-16
3.4614446e-15
3.5092063e-14
2.1222878e-13
9.4030756e-13
3.395556e-12
1.0626099e-11
2.9939483e-11
7.7890687e-11
1.9041175e-10
4.4292849e-10
9.8959632e-10
2.1386974e-09
4.4957354e-09
9.2321587e-09
1.8585441e-08
3.6782347e-08
7.1731585e-08
1.3810736e-07
2.629341e-07
4.9564484e-07
9.2609762e-07
1.7166611e-06
3.1589938e-06
5.773767e-06
1.0484128e-05
1.8913456e-05
3.3886552e-05
6.024749e-05
0.00010612629
0.00018472445
0.00031639893
0.0005301136
0.0008622925
0.0013507686
0.0020235726
0.0028865482
0.0039162647
0.0050620467
0.0062557355
0.0074249273
0.0085020152
0.0094305606
0.010205411
0.010832423
0.011306955
0.01164982
0.01187847
0.011999103
0.011748098
0.0099746537
0.0084999956
0.0076974377
0.0081178303
0.0098020258
0.0098519737
0.0075638268
0.0051943047
0.0017649376
0.00081066902
0.00056469808
0.00045651431
0.00051169251
0.0013288011
5.9725815e-19
1.1615868e-16
3.0939301e-15
3.1366195e-14
1.8969547e-13
8.4046997e-13
3.035027e-12
9.4978337e-12
2.6760464e-11
6.9619825e-11
1.7019172e-10
3.9589001e-10
8.8449196e-10
1.9115174e-09
4.0180972e-09
8.2510774e-09
1.6609784e-08
3.2870711e-08
6.4099098e-08
1.2340181e-07
2.3491122e-07
4.4275703e-07
8.2712624e-07
1.5328417e-06
2.8198856e-06
5.1520302e-06
9.3508025e-06
1.6859421e-05
3.0186649e-05
5.363139e-05
9.4409117e-05
0.00016425835
0.0002813776
0.00047195637
0.0007696344
0.001210708
0.0018243123
0.0026204668
0.0035818094
0.0046634786
0.0058010147
0.0069227455
0.0079599967
0.0088529403
0.0095858566
0.010158776
0.010562903
0.01081192
0.010915304
0.010872944
0.010103803
0.0083638256
0.0072679171
0.0073038255
0.0086971842
0.0080113918
0.0064770033
0.0046801109
0.0020895427
0.0007863551
0.00055435115
0.00044582741
0.00039907998
0.00040993556
0.00077684134
5.2909187e-19
1.0290126e-16
2.7408132e-15
2.7786297e-14
1.6804499e-13
7.4454407e-13
2.6886245e-12
8.4137816e-12
2.3706038e-11
6.1673184e-11
1.5076454e-10
3.5069668e-10
7.8351257e-10
1.6932596e-09
3.5592345e-09
7.3086081e-09
1.4712005e-08
2.9113588e-08
5.6768919e-08
1.0928076e-07
2.0800717e-07
3.919929e-07
7.3215772e-07
1.3565239e-06
2.4947701e-06
4.5562928e-06
8.2656164e-06
1.4894175e-05
2.6649613e-05
4.7311245e-05
8.3220657e-05
0.00014470836
0.00024786228
0.00041606929
0.00067995113
0.0010737052
0.0016267285
0.0023524051
0.0032390313
0.0042476462
0.0053178363
0.0063789424
0.0073604976
0.0081986671
0.008869588
0.0093623863
0.0096636282
0.0097774332
0.0097017897
0.0094448607
0.0081832964
0.0068516024
0.0065563338
0.0069791829
0.006055511
0.0047123116
0.0034450133
0.0017418669
0.00066874398
0.00044153044
0.00038082305
0.00035831916
0.00037613297
0.00041723204
0.00057846829
4.647209e-19
9.0381948e-17
2.4073561e-15
2.4405708e-14
1.475999e-13
6.5395912e-13
2.3615103e-12
7.3900977e-12
2.0821729e-11
5.4169211e-11
1.3241981e-10
3.0802223e-10
6.8816371e-10
1.4871783e-09
3.1259897e-09
6.418805e-09
1.2920405e-08
2.5567002e-08
4.9850335e-08
9.5954692e-08
1.8262285e-07
3.4410853e-07
6.4260574e-07
1.1903305e-06
2.1884792e-06
3.9953992e-06
7.2446631e-06
1.3046839e-05
2.3327866e-05
4.1380974e-05
7.2728526e-05
0.00012637268
0.00021638138
0.00036337899
0.00059482503
0.00094232484
0.0014346593
0.0020875562
0.0028942156
0.003821309
0.0048125408
0.0057983437
0.0067056827
0.007466664
0.0080499529
0.0084307779
0.0085904885
0.0085231494
0.0082199895
0.0077524049
0.0063545065
0.0057949429
0.0054235453
0.0044424622
0.0031828241
0.0022392437
0.0011068144
0.0005256172
0.00034278439
0.00030131348
0.00029695465
0.00032273003
0.00037243068
0.00045889885
0.00053941236
4.0495293e-19
7.8757864e-17
2.0977437e-15
2.1266858e-14
1.2861685e-13
5.6985223e-13
2.0577909e-12
6.4396332e-12
1.8143748e-11
4.7202122e-11
1.1538787e-10
2.6840251e-10
5.9964254e-10
1.2958607e-09
2.7238013e-09
5.5928345e-09
1.1257458e-08
2.2275416e-08
4.3430012e-08
8.3590354e-08
1.590754e-07
2.9970106e-07
5.5958424e-07
1.0363223e-06
1.9047961e-06
3.4762451e-06
6.3004266e-06
1.1339874e-05
2.0261588e-05
3.591217e-05
6.3060068e-05
0.00010947834
0.00018734179
0.00031461688
0.00051555527
0.00081878447
0.0012516252
0.0018309869
0.0025538795
0.0033919071
0.0042925672
0.005187161
0.0059994355
0.0066576344
0.0071223515
0.0073555675
0.0073341631
0.0070485277
0.0065247674
0.0057415679
0.0049899871
0.0041723681
0.0031714597
0.0021271175
0.001299019
0.00065054356
0.00033780874
0.00025601698
0.00023838702
0.00024498066
0.00028258831
0.0003391233
0.00037238717
0.00048039426
0.00053536911
3.5037103e-19
6.8142428e-17
1.8149981e-15
1.8400395e-14
1.1128119e-13
4.9304466e-13
1.7804318e-12
5.571668e-12
1.5698238e-11
4.0839924e-11
9.9834939e-11
2.3222409e-10
5.188125e-10
1.1211722e-09
2.3565879e-09
4.8387378e-09
9.7393341e-09
1.927079e-08
3.7570163e-08
7.2307237e-08
1.3759163e-07
2.5919628e-07
4.8388477e-07
8.9595699e-07
1.6463821e-06
3.0036478e-06
5.4415549e-06
9.7886836e-06
1.7478041e-05
3.0952878e-05
5.4300095e-05
9.4176592e-05
0.00016101879
0.00027029535
0.00044310204
0.00070483375
0.0010806057
0.0015872921
0.0022243308
0.0029670902
0.0037660368
0.0045526921
0.0052470907
0.0057754535
0.0060872968
0.0061394486
0.0059092856
0.0054047122
0.0047701213
0.004049033
0.0031734435
0.0022488155
0.0014111453
0.00072499053
0.00037205839
0.00020481851
0.00017219278
0.00018069921
0.00020060566
0.00024545883
0.00028783463
0.00029083727
0.00032282531
0.00041288745
0.00045568972
3.0132898e-19
5.8604439e-17
1.560951e-15
1.5824876e-14
9.5705121e-14
4.2403346e-13
1.5312277e-12
4.7918176e-12
1.3501018e-11
3.5123752e-11
8.5861522e-11
1.9972059e-10
4.4619514e-10
9.6423856e-10
2.0267128e-09
4.1613585e-09
8.3757607e-09
1.6572312e-08
3.2308054e-08
6.2176709e-08
1.1830645e-07
2.2284623e-07
4.1597282e-07
7.7008486e-07
1.4147727e-06
2.5803486e-06
4.6728859e-06
8.4017092e-06
1.4991809e-05
2.6528191e-05
4.6492069e-05
8.0544807e-05
0.00013755738
0.00023070268
0.000378057
0.00060166391
0.0009238324
0.0013602166
0.0019111011
0.0025540135
0.0032410597
0.003902917
0.0044565336
0.0048271996
0.004957089
0.0048092508
0.004379481
0.0037562235
0.0031164177
0.0023661376
0.0015775108
0.00091669542
0.00043746677
0.0002147546
0.00012310895
0.00011323147
0.000129134
0.00016066879
0.00020973425
0.00025850232
0.00023424928
0.00024592849
0.00029144651
0.00036367867
0.00041590238
2.5795317e-19
5.0168436e-17
1.336255e-15
1.3546919e-14
8.1928662e-14
3.6299582e-13
1.3108178e-12
4.1020801e-12
1.1557709e-11
3.006821e-11
7.3503254e-11
1.7097472e-10
3.8197462e-10
8.2545641e-10
1.7350055e-09
3.56239e-09
7.1701201e-09
1.4186609e-08
2.765644e-08
5.3222907e-08
1.012648e-07
1.9073315e-07
3.5599615e-07
6.5896584e-07
1.2104139e-06
2.2070898e-06
3.9956076e-06
7.1807558e-06
1.2805449e-05
2.2641423e-05
3.9640063e-05
6.8589156e-05
0.00011697423
0.00019589927
0.00032062133
0.00050983512
0.00078260034
0.0011522639
0.0016182869
0.0021584185
0.0027247195
0.0032458214
0.0036387148
0.0038283252
0.0037675621
0.003436673
0.002892737
0.002314403
0.0017068609
0.001081356
0.00056166067
0.00026407284
0.00013136477
7.5999896e-05
7.5254623e-05
9.3023254e-05
0.00012751099
0.00017932362
0.00023150925
0.00019620861
0.00018829763
0.00021324279
0.00024635727
0.00032260287
0.00038080008
2.2014182e-19
4.2814614e-17
1.1403829e-15
1.1561179e-14
6.9919471e-14
3.0978828e-13
1.1186836e-12
3.5008301e-12
9.8637241e-12
2.5661333e-11
6.2730803e-11
1.45918e-10
3.2599736e-10
7.0449204e-10
1.4807603e-09
3.0403715e-09
6.1194428e-09
1.2107733e-08
2.3603537e-08
4.5422703e-08
8.6421564e-08
1.6276948e-07
3.0378522e-07
5.6227224e-07
1.0326727e-06
1.8826474e-06
3.4073433e-06
6.1211905e-06
1.0909908e-05
1.9274904e-05
3.3710056e-05
5.8247058e-05
9.9162246e-05
0.00016572344
0.00027060442
0.00042923571
0.00065711353
0.00096433672
0.0013478823
0.0017836335
0.002221832
0.0025901265
0.0028086373
0.002816914
0.0025893003
0.0021609395
0.0016735131
0.0011932365
0.00071497091
0.0003307687
0.00016181815
8.1412869e-05
4.9299589e-05
5.1929281e-05
6.9760924e-05
0.00010381755
0.00015461677
0.00021411162
0.00017164987
0.00015771399
0.00016328411
0.00018397978
0.0002205085
0.00028621646
0.00035766875
1.8756859e-19
3.6479556e-17
9.7164636e-16
9.8505395e-15
5.957401e-14
2.6395209e-13
9.531679e-13
2.9828794e-12
8.4044362e-12
2.1865043e-11
5.3451001e-11
1.2433348e-10
2.7777801e-10
6.0029492e-10
1.2617645e-09
2.590748e-09
5.2145305e-09
1.0317405e-08
2.0113521e-08
3.8706658e-08
7.3643388e-08
1.3870086e-07
2.588574e-07
4.7909089e-07
8.7982356e-07
1.6037625e-06
2.9019563e-06
5.2115229e-06
9.2839132e-06
1.6390009e-05
2.8633358e-05
4.9395614e-05
8.390327e-05
0.00013980415
0.000227422
0.00035904696
0.00054638807
0.00079548019
0.001099295
0.0014300811
0.0017357221
0.0019463399
0.0019973986
0.0018582096
0.0015466388
0.0011733915
0.00080921334
0.00045277916
0.00020336067
9.823332e-05
5.152534e-05
3.3019626e-05
3.7482987e-05
5.4655001e-05
8.692545e-05
0.00013534471
0.00019220388
0.00016763044
0.00014472068
0.00013865444
0.00014430376
0.00017037115
0.00020711787
0.00027051109
0.0003435858
1.596875e-19
3.1057073e-17
8.2721699e-16
8.3863247e-15
5.0718854e-14
2.2471872e-13
8.1149474e-13
2.5395382e-12
7.1553526e-12
1.8615589e-11
4.5507913e-11
1.0585818e-10
2.365049e-10
5.1110908e-10
1.0743222e-09
2.2059182e-09
4.4400512e-09
8.7852095e-09
1.7126894e-08
3.295978e-08
6.2710274e-08
1.1811004e-07
2.2042692e-07
4.0795071e-07
7.4912443e-07
1.3653376e-06
2.4699658e-06
4.4340612e-06
7.894249e-06
1.3923981e-05
2.4292007e-05
4.1822934e-05
7.0835922e-05
0.00011753673
0.00019007932
0.00029772535
0.00044821554
0.00064282939
0.00086943392
0.001096089
0.0012709826
0.0013366481
0.0012615629
0.0010517335
0.00078548424
0.00052913545
0.00027524859
0.00012256838
6.1181743e-05
3.3110009e-05
2.2928374e-05
2.8130778e-05
4.4047711e-05
7.4045943e-05
0.00011884686
0.0001732877
0.00017363741
0.00014444416
0.00012972913
0.00012860029
0.00013523298
0.00015311578
0.00018790722
0.00025489447
0.00034274083
1.3574827e-19
2.6401213e-17
7.0320651e-16
7.1291124e-15
4.3115556e-14
1.9103155e-13
6.8984793e-13
2.1588615e-12
6.0828072e-12
1.5825355e-11
3.8687257e-11
8.999339e-11
2.0106309e-10
4.34523e-10
9.1335932e-10
1.8754496e-09
3.7749714e-09
7.4694403e-09
1.4562126e-08
2.8024619e-08
5.3321302e-08
1.0042697e-07
1.8742196e-07
3.4684914e-07
6.368534e-07
1.1604857e-06
2.0986776e-06
3.7654922e-06
6.6982484e-06
1.1798967e-05
2.0543813e-05
3.5265288e-05
5.9470905e-05
9.8066091e-05
0.00015717846
0.00024307219
0.00035935603
0.00050217953
0.00065431382
0.000782117
0.00084227494
0.00080659745
0.00067557814
0.00049872006
0.0003261025
0.00016098879
7.2049408e-05
3.7738412e-05
2.1847432e-05
1.6520116e-05
2.1830941e-05
3.6099899e-05
6.2742326e-05
0.00010440521
0.00015683027
0.00017501491
0.00014934587
0.00013253975
0.00012486615
0.00012307311
0.00013061772
0.0001528108
0.00018543066
0.00024780469
0.00034242503
1.1482952e-19
2.2332791e-17
5.9484241e-16
6.0305191e-15
3.6471495e-14
1.6159399e-13
5.8354489e-13
1.8261935e-12
5.1454998e-12
1.3386866e-11
3.2726228e-11
7.6127535e-11
1.7008552e-10
3.6758031e-10
7.7265612e-10
1.5865563e-09
3.193517e-09
6.3189998e-09
1.2319349e-08
2.3708358e-08
4.5108075e-08
8.4954067e-08
1.5853175e-07
2.9333916e-07
5.3846753e-07
9.8081233e-07
1.7726457e-06
3.1775031e-06
5.6442225e-06
9.92106e-06
1.7219367e-05
2.9420795e-05
4.9277431e-05
8.0459654e-05
0.00012715203
0.00019262427
0.00027638398
0.00036995414
0.00045353899
0.0004987246
0.00048394371
0.00040771829
0.00029885573
0.00018796831
9.1199525e-05
4.2502723e-05
2.3112519e-05
1.4648576e-05
1.2234614e-05
1.747562e-05
2.995466e-05
5.4146135e-05
9.3416422e-05
0.00014391484
0.00016813818
0.00015322321
0.00014031372
0.00013028495
0.00012276537
0.0001241676
0.00013097047
0.00015092566
0.00018785691
0.00025474237
0.00035710656
9.593254e-20
1.8657583e-17
4.9695192e-16
5.0381043e-15
3.0469525e-14
1.3500089e-13
4.8751134e-13
1.525654e-12
4.2986834e-12
1.1183696e-11
2.7340143e-11
6.3598203e-11
1.4209159e-10
3.0707936e-10
6.4547722e-10
1.3253927e-09
2.6677775e-09
5.2785543e-09
1.0290415e-08
1.9802182e-08
3.7671633e-08
7.0935948e-08
1.3233716e-07
2.4477267e-07
4.4905463e-07
8.1725387e-07
1.4752292e-06
2.6396976e-06
4.6769732e-06
8.1907865e-06
1.4141384e-05
2.3978857e-05
3.972546e-05
6.3854515e-05
9.8620814e-05
0.00014449134
0.00019757436
0.00024708261
0.00027631676
0.00027117041
0.00022976201
0.00016760877
0.00010152648
4.9827724e-05
2.446158e-05
1.437441e-05
9.904514e-06
9.344723e-06
1.4024527e-05
2.5256697e-05
4.7075867e-05
8.3688647e-05
0.00012987389
0.00015770199
0.00015231169
0.0001457824
0.00013798052
0.0001299208
0.00012617958
0.00012787584
0.00013642992
0.00015562655
0.000188806
0.00025705234
0.00037384059
7.8174083e-20
1.5203807e-17
4.0495931e-16
4.1054778e-15
2.4829094e-14
1.1000929e-13
3.972592e-13
1.243199e-12
3.5027913e-12
9.1129094e-12
2.2277365e-11
5.1819979e-11
1.1577306e-10
2.5019172e-10
5.2587361e-10
1.0797324e-09
2.1731131e-09
4.2992699e-09
8.3799153e-09
1.6121995e-08
3.0660535e-08
5.7708031e-08
1.0759196e-07
1.9883051e-07
3.6432976e-07
6.6194948e-07
1.1921164e-06
2.1262486e-06
3.7504199e-06
6.5272156e-06
1.1171047e-05
1.8710761e-05
3.0460074e-05
4.772837e-05
7.1044734e-05
9.8744061e-05
0.00012540971
0.00014212361
0.00014079493
0.00011993303
8.6426798e-05
5.0787766e-05
2.5612492e-05
1.3784943e-05
8.8545861e-06
6.9727448e-06
7.0999092e-06
1.1443906e-05
2.1203971e-05
4.1329622e-05
7.5615182e-05
0.0001173163
0.00014406204
0.00014555252
0.0001449444
0.00014253558
0.00013690123
0.00013274498
0.00013027001
0.00013357763
0.0001415414
0.00016326575
0.0002003467
0.00026866266
0.00039000062
6.1066915e-20
1.1876693e-17
3.1634014e-16
3.2070477e-15
1.9395448e-14
8.5933715e-14
3.1031391e-13
9.7108798e-13
2.7360247e-12
7.1178257e-12
1.739941e-11
4.0470921e-11
9.0411072e-11
1.9536475e-10
4.1058357e-10
8.4288193e-10
1.6960591e-09
3.3545253e-09
6.5360067e-09
1.2568174e-08
2.3885697e-08
4.4915536e-08
8.3637988e-08
1.5430601e-07
2.8210938e-07
5.1100941e-07
9.1651793e-07
1.6256469e-06
2.8459215e-06
4.902364e-06
8.2718852e-06
1.3580808e-05
2.1490475e-05
3.2346651e-05
4.5496825e-05
5.8481095e-05
6.699087e-05
6.6893385e-05
5.730654e-05
4.0932134e-05
2.3995191e-05
1.2927259e-05
7.5640968e-06
5.552337e-06
4.9000723e-06
5.6001657e-06
9.2394691e-06
1.8043612e-05
3.7590022e-05
6.8066023e-05
0.00010616995
0.00013078587
0.00013525687
0.00013941781
0.00014172948
0.0001404383
0.00013762134
0.00013545933
0.00013536238
0.00014042314
0.00015083435
0.0001722931
0.00020931923
0.00028412514
0.00041786423
4.4763733e-20
8.7059404e-18
2.3188563e-16
2.3508389e-15
1.4217156e-14
6.2989603e-14
2.2745488e-13
7.1176574e-13
2.005293e-12
5.2164856e-12
1.2750579e-11
2.9654642e-11
6.623869e-11
1.4310633e-10
3.0068584e-10
6.1708562e-10
1.2412095e-09
2.4536071e-09
4.7772975e-09
9.1778195e-09
1.742096e-08
3.2705747e-08
6.0770677e-08
1.1179712e-07
2.0361795e-07
3.6697456e-07
6.5377485e-07
1.1492207e-06
1.9875851e-06
3.3677559e-06
5.5553257e-06
8.8401852e-06
1.3395686e-05
1.8989714e-05
2.4622293e-05
2.8453586e-05
2.8598216e-05
2.4643982e-05
1.7474285e-05
1.0554279e-05
6.3017557e-06
4.1847576e-06
3.5279304e-06
3.5335742e-06
4.3762882e-06
7.5947585e-06
1.6293697e-05
3.3708721e-05
6.1526509e-05
9.6079014e-05
0.00012015106
0.00012507802
0.00013063889
0.00013613005
0.00013789492
0.00013806017
0.00013747176
0.00013832664
0.00014070089
0.00014790065
0.00015914131
0.00018291854
0.00022097195
0.00029655443
0.00043908886
3.0073399e-20
5.8488661e-18
1.5578608e-16
1.5793354e-15
9.5511899e-15
4.2315782e-14
1.5279602e-13
4.781128e-13
1.3469117e-12
3.5034545e-12
8.5623229e-12
1.991038e-11
4.4463152e-11
9.6032499e-11
2.0169861e-10
4.1372613e-10
8.3161191e-10
1.6424696e-09
3.1942677e-09
6.1272763e-09
1.1607311e-08
2.1734149e-08
4.0245097e-08
7.370163e-08
1.3343362e-07
2.3859351e-07
4.2064676e-07
7.2924311e-07
1.2380923e-06
2.0461703e-06
3.2631082e-06
4.9588914e-06
7.0587339e-06
9.2041397e-06
1.07083e-05
1.0805533e-05
9.4189904e-06
6.8358649e-06
4.4831992e-06
3.0184871e-06
2.3614749e-06
2.279853e-06
2.582054e-06
3.4892015e-06
6.6645085e-06
1.4898382e-05
3.0266978e-05
5.5371527e-05
8.6714533e-05
0.00011227565
0.00011607463
0.00012123869
0.00012740357
0.0001314819
0.0001341305
0.0001366437
0.00013852225
0.00014166948
0.00014586586
0.00015518679
0.00016866671
0.00019441172
0.00023523428
0.00031612465
0.00046725087
1.8089706e-20
3.5181981e-18
9.370771e-17
9.4998351e-16
5.7449929e-15
2.54518e-14
9.1897651e-14
2.8753381e-13
8.0993648e-13
2.1064201e-12
5.147012e-12
1.196548e-11
2.6711685e-11
5.7666297e-11
1.2104514e-10
2.4809439e-10
4.9817091e-10
9.82586e-10
1.9075674e-09
3.6507005e-09
6.8949884e-09
1.2859874e-08
2.3690526e-08
4.3094228e-08
7.7336386e-08
1.366974e-07
2.3736332e-07
4.0330176e-07
6.6663749e-07
1.0630237e-06
1.6159175e-06
2.3036016e-06
3.0146326e-06
3.5289042e-06
3.5882121e-06
3.1945107e-06
2.5126871e-06
1.895725e-06
1.478571e-06
1.3700992e-06
1.5316349e-06
1.9022823e-06
2.9364485e-06
6.1694127e-06
1.3381147e-05
2.7072249e-05
4.9866609e-05
7.8325969e-05
0.00010674694
0.00010864482
0.00011219636
0.00011818727
0.00012282646
0.00012747962
0.00013162755
0.00013536157
0.00013892505
0.00014401679
0.00015086131
0.00016258901
0.00017829125
0.00020667781
0.00024787714
0.00033232168
0.00049021681
9.5464717e-21
1.8566543e-18
4.9451939e-17
5.013222e-16
3.0316348e-15
1.3430247e-14
4.8488306e-14
1.5169611e-13
4.2723912e-13
1.1109016e-12
2.7137208e-12
6.3063639e-12
1.4071371e-11
3.0358127e-11
6.3669167e-11
1.3035034e-10
2.6135882e-10
5.1451543e-10
9.9637833e-10
1.9006818e-09
3.5746202e-09
6.6304466e-09
1.2127456e-08
2.1855559e-08
3.8747234e-08
6.7407061e-08
1.14629e-07
1.8948942e-07
3.0208004e-07
4.5927091e-07
6.5595908e-07
8.6313203e-07
1.0217959e-06
1.0733976e-06
1.0298635e-06
9.3234854e-07
8.2932364e-07
7.8842434e-07
8.3791238e-07
1.0790697e-06
1.5524374e-06
2.7333597e-06
5.7160658e-06
1.1936115e-05
2.4053847e-05
4.467867e-05
7.0649302e-05
0.00010097118
0.00010239098
0.00010422844
0.00010937101
0.00011400539
0.00011897168
0.00012431606
0.00012901642
0.00013434003
0.00013968339
0.00014716558
0.00015570362
0.0001697464
0.0001873155
0.00021813285
0.00026214562
0.00035256163
0.00051647826
4.3832121e-21
8.5247168e-19
2.2705365e-17
2.3017201e-16
1.3918573e-15
6.1655678e-15
2.2257839e-14
6.9623946e-14
1.9605098e-13
5.096309e-13
1.2444756e-12
2.8906e-12
6.445611e-12
1.3894153e-11
2.9107191e-11
5.9504297e-11
1.19082e-10
2.3384722e-10
4.5140185e-10
8.5751495e-10
1.6040729e-09
2.9547007e-09
5.3558929e-09
9.5405114e-09
1.6661644e-08
2.8427337e-08
4.7143228e-08
7.5455073e-08
1.1544861e-07
1.6678457e-07
2.2417845e-07
2.7737242e-07
3.1943696e-07
3.5130705e-07
3.8220845e-07
4.121276e-07
4.5550363e-07
5.9422619e-07
8.7924334e-07
1.429204e-06
2.5894804e-06
5.1363663e-06
1.0446463e-05
2.1347023e-05
4.0128743e-05
6.3872946e-05
9.1651975e-05
9.6938935e-05
9.7339154e-05
0.00010156067
0.00010553511
0.00011034685
0.00011555687
0.00012131057
0.0001271511
0.00013355575
0.00014039743
0.00014929688
0.00016010181
0.00017646647
0.00019676312
0.00023077791
0.00027627065
0.00037063046
0.00053622862
1.8264719e-21
3.5522183e-19
9.4611514e-18
9.5908663e-17
5.7993777e-16
2.5687975e-15
9.2724662e-15
2.9000628e-14
8.1645049e-14
2.1217643e-13
5.179262e-13
1.2024242e-12
2.679512e-12
5.7711314e-12
1.207699e-11
2.4654687e-11
4.9251196e-11
9.6494745e-11
1.8572072e-10
3.5149543e-10
6.5441638e-10
1.1983026e-09
2.1560753e-09
3.8055405e-09
6.5720274e-09
1.1064559e-08
1.8073812e-08
2.8479884e-08
4.3029848e-08
6.2124984e-08
8.5800813e-08
1.1322031e-07
1.4456412e-07
1.8824584e-07
2.4763217e-07
3.3342423e-07
5.0393194e-07
8.0750531e-07
1.3386969e-06
2.3806684e-06
4.5575453e-06
9.2165394e-06
1.9234706e-05
3.6041643e-05
5.7528725e-05
8.2804492e-05
9.2082251e-05
9.1331033e-05
9.4616467e-05
9.7874241e-05
0.00010198248
0.00010685907
0.00011246728
0.00011887939
0.00012521438
0.00013273284
0.00014093392
0.00015194593
0.00016451314
0.0001831352
0.00020514459
0.00024163493
0.00028925872
0.00038914412
0.0005541142
8.6008358e-22
1.6727351e-19
4.455238e-18
4.5163067e-17
2.7308936e-16
1.2096243e-15
4.3662941e-15
1.3655981e-14
3.8445459e-14
9.991157e-14
2.4389142e-13
5.6624857e-13
1.2619516e-12
2.7183876e-12
5.6899881e-12
1.1620156e-11
2.3225962e-11
4.554376e-11
8.776762e-11
1.6641983e-10
3.1069463e-10
5.7121499e-10
1.033883e-09
1.8408117e-09
3.2201439e-09
5.5254411e-09
9.2834034e-09
1.5248493e-08
2.4473014e-08
3.8387057e-08
5.8780938e-08
8.8143217e-08
1.3067413e-07
1.9567631e-07
2.955138e-07
4.68432e-07
7.5073388e-07
1.2347794e-06
2.1658497e-06
4.0978902e-06
8.2862024e-06
1.7318665e-05
3.2261964e-05
5.1806344e-05
7.5100871e-05
8.7397144e-05
8.5889321e-05
8.8390973e-05
9.0882021e-05
9.4309517e-05
9.8443565e-05
0.00010372105
0.00010969962
0.00011641754
0.00012353551
0.00013212618
0.00014164064
0.00015394912
0.00016827277
0.00018897919
0.00021375034
0.00025337736
0.00030329384
0.00040764484
0.00057046666
6.9836848e-22
1.3582274e-19
3.6176173e-18
3.667336e-17
2.2176908e-16
9.8241289e-16
3.5467356e-15
1.1095442e-14
3.1247657e-14
8.1245333e-14
1.9845773e-13
4.6118048e-13