/*--------------------------------*- C++ -*----------------------------------*\
  =========                 |
  \\      /  F ield         | OpenFOAM: The Open Source CFD Toolbox
   \\    /   O peration     | Website:  https://openfoam.org
    \\  /    A nd           | Version:  13
     \\/     M anipulation  |
\*---------------------------------------------------------------------------*/
FoamFile
{
    format      ascii;
    class       volScalarField;
    location    "6.802478";
    object      k;
}
// * * * * * * * * * * * * * * * * * * * * * * * * * * * * * * * * * * * * * //

dimensions      [0 2 -2 0 0 0 0];

internalField   nonuniform List<scalar> 
17140
(
2.7353693e-11
8.595464e-10
7.0287118e-09
3.0226831e-08
9.3010009e-08
2.3467517e-07
5.20276e-07
1.0540397e-06
1.9990354e-06
3.6056627e-06
6.2524047e-06
1.0503275e-05
1.718728e-05
2.7505574e-05
4.3170728e-05
6.6577852e-05
0.00010099573
0.00015074257
0.00022126862
0.00031900204
0.00045072933
0.00062221183
0.00083577265
0.001086878
0.0013604336
0.0016285534
0.0018524665
0.0019804759
0.0020259373
0.0020203775
0.0019671669
0.0018962829
0.001824813
0.0017582231
0.0016968408
0.0016401815
0.0015879078
0.0015397549
0.0014955091
0.0014550406
0.0014183377
0.0013855523
0.0013568259
0.0013314269
0.0013066
0.0012840313
0.0012742188
0.0012740716
0.0013066018
0.0013445708
0.0014070174
0.0014739367
0.0015504078
0.0016241487
0.0016913147
0.0017292415
0.0017585582
0.0017409178
0.0016208
0.0014401624
0.0012440947
0.0010574247
0.00089232312
0.0007584053
0.00063496073
2.7045854e-11
8.4987312e-10
6.9496292e-09
2.9886886e-08
9.196459e-08
2.3203931e-07
5.1443729e-07
1.0422235e-06
1.9766554e-06
3.565365e-06
6.1826825e-06
1.0386494e-05
1.6996932e-05
2.7202543e-05
4.2698439e-05
6.5856319e-05
9.991495e-05
0.00014915654
0.00021899275
0.00031581884
0.0004464097
0.00061656098
0.00082870707
0.0010785296
0.0013512581
0.0016193973
0.0018445086
0.0019746161
0.0020213903
0.0020172978
0.001964967
0.0018943524
0.0018228627
0.0017561795
0.0016947104
0.0016379796
0.0015856193
0.0015373827
0.0014930602
0.0014525293
0.0014157809
0.0013829867
0.0013542746
0.001328776
0.0013033017
0.0012775553
0.0012654448
0.0012625163
0.0012802062
0.0013009827
0.0013330848
0.001354454
0.0013739087
0.0013805278
0.0013808844
0.0013600035
0.0013194558
0.00128848
0.0011848107
0.0010590185
0.00092930093
0.00079470234
0.00066241452
0.00054680807
0.00044767159
2.6310696e-11
8.2677194e-10
6.7607265e-09
2.9074534e-08
8.9465078e-08
2.2573349e-07
5.0046028e-07
1.0139174e-06
1.9230026e-06
3.4686779e-06
6.0152481e-06
1.0105783e-05
1.6538903e-05
2.6472539e-05
4.1559279e-05
6.411359e-05
9.7300506e-05
0.0001453132
0.00021346671
0.00030807141
0.00043586655
0.00060272058
0.00081132524
0.0010578728
0.0013283706
0.0015962744
0.0018240329
0.0019605826
0.0020114496
0.002010558
0.0019603724
0.0018903214
0.0018188487
0.0017519901
0.0016902313
0.0016331097
0.0015803523
0.001531752
0.001487112
0.0014463191
0.0014093058
0.0013762499
0.0013472606
0.0013210015
0.0012929605
0.0012564873
0.001237477
0.0012285061
0.0012226338
0.0012172465
0.0012078548
0.0011871542
0.0011502831
0.0010870996
0.0010092129
0.00094161173
0.00083211609
0.00078351838
0.00071796527
0.00065585058
0.00059243713
0.00051686805
0.00043938786
0.00036637294
0.00031209999
2.5151489e-11
7.9034574e-10
6.4628628e-09
2.7793607e-08
8.5523812e-08
2.1579038e-07
4.7842092e-07
9.6928277e-07
1.8383978e-06
3.3162059e-06
5.7511907e-06
9.6630306e-06
1.5816357e-05
2.5320681e-05
3.9761234e-05
6.1361631e-05
9.3169477e-05
0.00013923541
0.00020471833
0.00029578875
0.00041912073
0.00058068636
0.00078357326
0.0010247778
0.0012915539
0.0015589098
0.0017907893
0.0019379542
0.0019961024
0.0020004979
0.0019532151
0.0018841332
0.0018124509
0.0017449655
0.001682457
0.0016244803
0.0015707665
0.0015213319
0.0014760803
0.0014351037
0.0013987118
0.0013673391
0.0013412113
0.0013188682
0.0012929228
0.001257571
0.0012402262
0.0012286804
0.0012202717
0.0012108907
0.0011948332
0.0011616506
0.0010982827
0.001005423
0.00088002432
0.00077506909
0.00063291781
0.00055629695
0.00050653224
0.00047216679
0.00043547108
0.00038705359
0.00033849963
0.00029607622
0.00026747017
2.3598936e-11
7.4155931e-10
6.0639277e-09
2.6078032e-08
8.0245158e-08
2.0247313e-07
4.4890208e-07
9.0949863e-07
1.7250711e-06
3.1119557e-06
5.3974196e-06
9.0697487e-06
1.4847914e-05
2.3776277e-05
3.7349238e-05
5.76675e-05
8.7619005e-05
0.00013105904
0.00019292948
0.00027920024
0.00039643735
0.00055072267
0.00074563869
0.00097922416
0.0012403773
0.0015061666
0.0017424982
0.0019032603
0.0019732971
0.0019834168
0.0019423664
0.0018749857
0.0018028832
0.0017341184
0.0016702544
0.0016112084
0.0015568695
0.001507129
0.0014622264
0.0014225319
0.0013886474
0.0013611954
0.0013402805
0.0013213909
0.0012962635
0.0012698509
0.0012596604
0.0012568217
0.001262218
0.0012745794
0.0012835383
0.001287504
0.0012229912
0.0010834209
0.00087598814
0.00072016739
0.00055098594
0.00044951158
0.00040191952
0.00037546373
0.00035037413
0.00032218117
0.000292238
0.00027007804
0.00025324805
2.1709608e-11
6.8219031e-10
5.578457e-09
2.3990315e-08
7.3821421e-08
1.8626686e-07
4.1297883e-07
8.3674147e-07
1.5871455e-06
2.8633501e-06
4.9667683e-06
8.3474011e-06
1.3668468e-05
2.1894647e-05
3.4408965e-05
5.3160859e-05
8.0840687e-05
0.00012105989
0.00017848534
0.00025882473
0.000368485
0.00051364461
0.00069844894
0.00092218227
0.0011757673
0.0014388777
0.0016799922
0.0018568765
0.0019413007
0.0019596664
0.0019262488
0.0018618796
0.0017894381
0.0017196755
0.0016549761
0.0015953214
0.0015407017
0.0014913346
0.0014477754
0.0014106372
0.0013806203
0.0013581225
0.0013429305
0.0013296643
0.0013122103
0.0013042041
0.0013088192
0.0013347319
0.0013756995
0.001431199
0.0014726432
0.0014904521
0.0014315433
0.0012520574
0.00095774572
0.00069729658
0.00049208218
0.00037295391
0.00032848328
0.00031027748
0.00030189187
0.00028975424
0.00027208122
0.00026100684
0.00024816278
1.9548375e-11
6.1427715e-10
5.0231183e-09
2.1602123e-08
6.6473049e-08
1.6772741e-07
3.7188221e-07
7.5350121e-07
1.429332e-06
2.5788561e-06
4.4738442e-06
7.5203484e-06
1.2317475e-05
1.973803e-05
3.1036149e-05
4.7985259e-05
7.304391e-05
0.00010953375
0.00016178757
0.00023517965
0.00033588153
0.00047010416
0.00064253698
0.0008537848
0.0010970105
0.0013548483
0.0015987434
0.0017922785
0.0018972169
0.0019276758
0.0019049707
0.001845224
0.0017737
0.001703377
0.001638
0.0015780307
0.001523679
0.0014754326
0.0014339655
0.00139993
0.0013737152
0.0013588486
0.0013517907
0.0013505024
0.0013503904
0.00136485
0.0013976489
0.0014507088
0.0015168197
0.0015966084
0.0016607373
0.001690194
0.001623131
0.0013721118
0.001002246
0.00067627373
0.00043733936
0.00032024663
0.00028421678
0.00027572806
0.00027774923
0.00027382659
0.00026373746
0.00025757108
0.00024255168
1.7203027e-11
5.405784e-10
4.4204681e-09
1.9010458e-08
5.8498507e-08
1.4760774e-07
3.2728102e-07
6.6315695e-07
1.2580336e-06
2.2700073e-06
3.9386053e-06
6.622013e-06
1.0849377e-05
1.7392975e-05
2.7365366e-05
4.2345532e-05
6.4533792e-05
9.6924798e-05
0.00014346636
0.00020913285
0.00029978037
0.00042157061
0.00057968427
0.00077608191
0.001006375
0.0012566158
0.0015019174
0.0017095225
0.0018396647
0.0018863042
0.0018780517
0.0018255664
0.0017560914
0.0016855565
0.0016196695
0.001559583
0.001505699
0.0014586013
0.0014188611
0.0013875992
0.0013706895
0.0013645302
0.0013678998
0.0013850543
0.0013992438
0.0014358106
0.0014889601
0.0015576551
0.0016393936
0.0017389066
0.0018282129
0.0018696833
0.0017647882
0.0014265556
0.0010126071
0.00062348945
0.00037652609
0.00027329141
0.0002491038
0.00025359287
0.00026599447
0.00026471474
0.0002601585
0.00025270793
0.00023178019
1.4769855e-11
4.6411982e-10
3.7952475e-09
1.6321715e-08
5.0225151e-08
1.2673365e-07
2.8100539e-07
5.694143e-07
1.080272e-06
1.9494515e-06
3.3829398e-06
5.6890562e-06
9.3239073e-06
1.4954496e-05
2.3544451e-05
3.646689e-05
5.5646136e-05
8.3722292e-05
0.00012421592
0.00018163831
0.00026143994
0.00036961477
0.00051170102
0.00069090679
0.00090528409
0.0011444708
0.001387563
0.0016046348
0.0017602637
0.0018335154
0.0018428559
0.0018021892
0.0017372019
0.0016673745
0.0016011416
0.0015409008
0.0014873751
0.0014411768
0.0014028663
0.0013799236
0.0013710222
0.0013709923
0.0013871615
0.0014204544
0.0014484778
0.0015033682
0.0015703489
0.001650204
0.0017440907
0.0018561274
0.0019504743
0.0019942286
0.0018234564
0.0014179529
0.00093999875
0.00054020194
0.0003170893
0.00024048231
0.0002320827
0.00024463756
0.00026025834
0.00026028664
0.00025572708
0.00024367171
0.00021496484
1.2345439e-11
3.8793631e-10
3.1722738e-09
1.3642607e-08
4.1981323e-08
1.0593349e-07
2.3489149e-07
4.7599197e-07
9.0309602e-07
1.6298923e-06
2.8288487e-06
4.7583677e-06
7.8012675e-06
1.2518553e-05
1.9723152e-05
3.0578395e-05
4.6724419e-05
7.0430563e-05
0.00010475958
0.00015370505
0.00022222013
0.00031598943
0.00044071504
0.00060063676
0.00079609843
0.0010203977
0.0012570685
0.0014798828
0.0016580631
0.0017627985
0.0017968057
0.0017737191
0.0017157568
0.0016473834
0.0015810556
0.0015207051
0.0014674466
0.0014221153
0.0013888884
0.0013728709
0.0013686379
0.0013749083
0.0014049219
0.0014465617
0.0014880664
0.0015588974
0.0016377462
0.0017280515
0.0018336009
0.0019574276
0.0020263195
0.002036641
0.0017803775
0.0013053733
0.00082173381
0.00044806511
0.00026987693
0.00022114302
0.00022285033
0.00024218664
0.00025686319
0.00025611195
0.00024639329
0.00022563233
0.00019803402
1.002371e-11
3.1497954e-10
2.5756832e-09
1.1076934e-08
3.4086418e-08
8.601318e-08
1.907261e-07
3.8651003e-07
7.3337177e-07
1.3237145e-06
2.2978083e-06
3.8660242e-06
6.3404824e-06
1.0179568e-05
1.6049561e-05
2.4908124e-05
3.811382e-05
5.756284e-05
8.5846005e-05
0.00012640159
0.00018360634
0.00026269209
0.00036929862
0.00050839892
0.00068233896
0.00088798486
0.0011136756
0.0013378303
0.0015318715
0.0016670408
0.0017294838
0.0017332776
0.0016919706
0.0016297387
0.0015638589
0.0015028878
0.0014494777
0.0014051169
0.001375962
0.0013636074
0.0013618628
0.001372828
0.0014092315
0.0014612282
0.0015202431
0.0016015559
0.001690499
0.00179047
0.0019015708
0.0020022586
0.0020495839
0.0019640771
0.0016453375
0.0011389228
0.00067946235
0.0003566657
0.00023699328
0.00021012307
0.00021811491
0.0002441932
0.00025250772
0.00024841584
0.00022877927
0.00020741313
0.00018207264
7.8869281e-12
2.4783443e-10
2.0266163e-09
8.7156326e-09
2.6820287e-08
6.7678831e-08
1.5007493e-07
3.0414147e-07
5.7712004e-07
1.0417864e-06
1.8086855e-06
3.0437681e-06
4.9936042e-06
8.0210764e-06
1.2655264e-05
1.9659951e-05
3.0125372e-05
4.5586482e-05
6.8166345e-05
0.0001007318
0.00014702516
0.00021169345
0.00030007076
0.00041748701
0.00056782285
0.00075112521
0.00096054979
0.0011798746
0.0013839983
0.0015447598
0.0016415503
0.0016733311
0.0016535386
0.0016025009
0.0015408706
0.0014808352
0.0014277557
0.0013842668
0.0013572589
0.0013469315
0.0013471532
0.0013644602
0.0014035393
0.0014582011
0.0015244642
0.0016182972
0.0017189515
0.0018234236
0.0019236133
0.0019920367
0.0019742841
0.0018307594
0.0014215113
0.00094837828
0.00053409229
0.00028382652
0.00021207079
0.00020485381
0.00021991982
0.00024507916
0.00024504004
0.00023447076
0.00020760445
0.00018967557
0.00016832837
5.9992376e-12
1.8851666e-10
1.5415562e-09
6.6295932e-09
2.0401096e-08
5.1481085e-08
1.1415936e-07
2.3136273e-07
4.3904326e-07
7.9260514e-07
1.3762544e-06
2.316513e-06
3.8016182e-06
6.109151e-06
9.6449908e-06
1.4997508e-05
2.3011533e-05
3.4886488e-05
5.2300964e-05
7.7559519e-05
0.00011374265
0.00016481145
0.00023556747
0.00033129283
0.00045681378
0.00061471235
0.0008026209
0.0010102104
0.0012176803
0.001398494
0.0015278253
0.0015937288
0.0016009225
0.0015673032
0.0015129512
0.0014552645
0.0014025066
0.0013595332
0.0013323842
0.0013218504
0.0013233717
0.0013439788
0.0013854588
0.0014432644
0.0015146977
0.0016102248
0.0017124782
0.0018151615
0.0019017888
0.001914614
0.0018491146
0.0016134723
0.0011876168
0.00076018856
0.00040286458
0.00023704938
0.0001975907
0.0002026766
0.00022685802
0.00023935282
0.00023392623
0.00021173777
0.00019047319
0.00017552456
0.00015690092
4.4014824e-12
1.3830966e-10
1.1309978e-09
4.8639501e-09
1.4967768e-08
3.7770662e-08
8.3757695e-08
1.6975302e-07
3.2214362e-07
5.8160532e-07
1.0099886e-06
1.700295e-06
2.7910496e-06
4.4868799e-06
7.0877611e-06
1.1030172e-05
1.6944226e-05
2.5731395e-05
3.8667031e-05
5.7529039e-05
8.4745969e-05
0.00012353972
0.00017800311
0.00025299351
0.00035364105
0.00048419243
0.00064593803
0.00083430686
0.0010361057
0.0012291715
0.0013875364
0.0014906379
0.0015320407
0.0015231086
0.0014827239
0.0014289521
0.0013769886
0.0013332749
0.0013039337
0.0012910461
0.0012921751
0.0013098087
0.0013499738
0.0014076485
0.0014837055
0.0015786097
0.0016786696
0.0017741792
0.0018251764
0.001791337
0.0016709234
0.0013546494
0.00097682831
0.00058428562
0.00029675485
0.00020518848
0.00019108148
0.00020283306
0.00022984678
0.00022982757
0.00021490792
0.00019251428
0.00017568166
0.00016317018
0.00014774155
3.1087702e-12
9.7688174e-11
7.9882335e-10
3.4354028e-09
1.0571728e-08
2.6677506e-08
5.9158734e-08
1.1989974e-07
2.2754209e-07
4.1082792e-07
7.1347681e-07
1.2012648e-06
1.9722522e-06
3.1714925e-06
5.0120732e-06
7.8050149e-06
1.2001373e-05
1.8250727e-05
2.7480793e-05
4.1002313e-05
6.0640034e-05
8.8881259e-05
0.00012901283
0.00018517793
0.00026221853
0.00036508118
0.00049749267
0.00065968319
0.00084539085
0.001039457
0.0012186327
0.0013573496
0.0014399618
0.0014642638
0.0014486148
0.0014046494
0.0013537203
0.0013086638
0.00127574
0.0012582249
0.0012564257
0.0012674391
0.0012998179
0.0013518341
0.0014199296
0.0015065575
0.0015961485
0.0016754498
0.0016686093
0.0016085645
0.0014225044
0.001122822
0.00077703282
0.00041923088
0.00023493081
0.0001870107
0.00018934457
0.00021144891
0.00022215399
0.00021408955
0.00019113379
0.00017612529
0.00016342244
0.00015294348
0.00014008473
2.1114815e-12
6.634994e-11
5.4256136e-10
2.3333245e-09
7.1803058e-09
1.8119327e-08
4.0180589e-08
8.1436203e-08
1.5454864e-07
2.7904334e-07
4.8462628e-07
8.1600547e-07
1.3398713e-06
2.1549672e-06
3.4065668e-06
5.3072004e-06
8.1661688e-06
1.2431231e-05
1.8746758e-05
2.8033249e-05
4.1592532e-05
6.1239423e-05
8.9450726e-05
0.00012950023
0.00018550612
0.00026224732
0.00036451351
0.00049568691
0.00065535708
0.00083631045
0.0010223948
0.0011899575
0.0013150007
0.0013843803
0.0013981605
0.0013804677
0.0013364432
0.0012893924
0.0012512607
0.0012273399
0.0012199894
0.0012245546
0.0012427597
0.0012824938
0.0013366943
0.0013979047
0.001471574
0.001497319
0.001472151
0.0013866592
0.0011759491
0.00092923678
0.00057398523
0.00028813399
0.00019592258
0.00017937068
0.00019086687
0.00021398189
0.00021029295
0.00018974019
0.00017387644
0.00016324499
0.00015302152
0.00014428903
0.00013375051
1.3791075e-12
4.3336249e-11
3.5437188e-10
1.5239988e-09
4.6897643e-09
1.1834458e-08
2.6243418e-08
5.3188645e-08
1.0094008e-07
1.8224997e-07
3.1652048e-07
5.3295563e-07
8.7512983e-07
1.4075912e-06
2.2253843e-06
3.4677523e-06
5.3377999e-06
8.1306004e-06
1.2273109e-05
1.8380214e-05
2.7331974e-05
4.0376737e-05
5.9261513e-05
8.6381256e-05
0.00012491594
0.00017888153
0.00025295036
0.00035180271
0.00047870599
0.00063313036
0.00080776184
0.00098650408
0.0011462174
0.0012640764
0.0013277916
0.0013379774
0.0013197851
0.0012787373
0.001236946
0.0012040343
0.0011853847
0.0011835614
0.001190283
0.0012099365
0.0012455668
0.0012820253
0.0013202893
0.0013151464
0.0012787841
0.0011628625
0.001006883
0.0007308402
0.00037869476
0.0002189531
0.0001759879
0.00017810463
0.00019777009
0.00020315864
0.00018924632
0.00017183571
0.0001612548
0.00015188019
0.00014404136
0.00013681778
0.00012829579
8.6747595e-13
2.7259039e-11
2.2290403e-10
9.5861047e-10
2.9498948e-09
7.4439044e-09
1.6507008e-08
3.3454958e-08
6.348867e-08
1.1462731e-07
1.9907063e-07
3.3518006e-07
5.5035053e-07
8.8516427e-07
1.3993889e-06
2.1806306e-06
3.3568073e-06
5.1141121e-06
7.7228266e-06
1.1574239e-05
1.7232945e-05
2.550964e-05
3.7559348e-05
5.5007101e-05
8.0094479e-05
0.00011582002
0.00016600654
0.00023515318
0.00032784606
0.00044743269
0.00059376162
0.00076033507
0.00093230643
0.0010877663
0.0012036801
0.0012684001
0.0012833266
0.0012668676
0.0012316391
0.001196888
0.0011692911
0.0011532906
0.0011498417
0.0011545679
0.001166686
0.0011864575
0.0011909593
0.0011795139
0.00113608
0.0010284937
0.00084721134
0.00048624787
0.00025154299
0.00018043889
0.00016911104
0.00018165988
0.00019998713
0.00019234317
0.00017241082
0.00015992103
0.00015045859
0.00014285046
0.00013643559
0.00013066334
0.00012389465
5.2708868e-13
1.6562907e-11
1.3543884e-10
5.8246035e-10
1.7923727e-09
4.5229177e-09
1.0029526e-08
2.032655e-08
3.8573265e-08
6.9640162e-08
1.2093538e-07
2.0360584e-07
3.3427752e-07
5.375713e-07
8.4973501e-07
1.3238847e-06
2.0375701e-06
3.1037049e-06
4.6863696e-06
7.023656e-06
1.0460603e-05
1.5496316e-05
2.2850332e-05
3.3553367e-05
4.9065201e-05
7.141427e-05
0.00010333458
0.0001483441
0.00021064837
0.00029466922
0.00040389462
0.00053888822
0.00069469826
0.00085881774
0.0010114694
0.0011319055
0.0012063025
0.001229623
0.0012182404
0.0011946458
0.0011696449
0.0011499827
0.0011373256
0.0011321274
0.0011331333
0.0011348448
0.0011309145
0.0011085771
0.00104611
0.00090579091
0.00058303525
0.00028584212
0.00018678708
0.00016434604
0.00016955828
0.00018734244
0.00018470534
0.00017023513
0.00015809167
0.0001500434
0.00014294093
0.00013628424
0.00012999299
0.00012554599
0.00012029212
3.1082694e-13
9.7672291e-12
7.9868867e-11
3.4347856e-10
1.0569616e-09
2.6671387e-09
5.9142693e-09
1.1986013e-08
2.2744842e-08
4.1061514e-08
7.1301412e-08
1.2003079e-07
1.9703889e-07
3.1681374e-07
5.0066949e-07
7.7981181e-07
1.199757e-06
1.8267131e-06
2.756815e-06
4.1295258e-06
6.1471194e-06
9.1029846e-06
1.3422524e-05
1.972143e-05
2.8886467e-05
4.2182072e-05
6.1379207e-05
8.8886545e-05
0.00012783111
0.00018198765
0.00025541267
0.00035159351
0.0004717995
0.00061291253
0.00076542879
0.00091342413
0.0010405315
0.0011335623
0.0011734385
0.0011732131
0.0011646021
0.0011519493
0.001139192
0.0011343404
0.0011318024
0.00112528
0.0011067458
0.0010541018
0.00092790071
0.00063058695
0.00031170447
0.00019305574
0.00016101554
0.00016201145
0.00017789071
0.0001848331
0.00017466578
0.00015995909
0.0001505925
0.00014274215
0.00013523801
0.00012950003
0.0001249856
0.00012098865
0.00011700944
1.789594e-13
5.6235067e-12
4.5984666e-11
1.9775806e-10
6.0854333e-10
1.5355854e-09
3.4050479e-09
6.9006037e-09
1.3094244e-08
2.3637984e-08
4.1043253e-08
6.9086188e-08
1.1339343e-07
1.8228641e-07
2.8799572e-07
4.4840622e-07
6.8956509e-07
1.0492912e-06
1.5823832e-06
2.3681612e-06
3.5214349e-06
5.2085094e-06
7.670578e-06
1.1257788e-05
1.6478273e-05
2.4067093e-05
3.5079305e-05
5.1004828e-05
7.3889253e-05
0.00010641568
0.00015185455
0.00021375041
0.00029524391
0.00039792769
0.00052018524
0.00065545784
0.00079276527
0.00092036288
0.0010375675
0.001099723
0.0011232801
0.0011266165
0.001126958
0.0011267126
0.0011182833
0.0010915107
0.0010362052
0.00090801159
0.00060786457
0.00031057435
0.00019204863
0.00015862421
0.00015550754
0.00016588046
0.00018067387
0.00017312912
0.00015711968
0.00014841126
0.00014147823
0.00013562672
0.00013072739
0.00012618884
0.00012145983
0.00011797746
0.00011434903
1.0179803e-13
3.1988359e-12
2.6157569e-11
1.1249095e-10
3.461566e-10
8.7347654e-10
1.9368436e-09
3.9250879e-09
7.4478224e-09
1.3444349e-08
2.3342261e-08
3.9287304e-08
6.4475105e-08
1.0362822e-07
1.6368055e-07
2.547576e-07
3.9158066e-07
5.954758e-07
8.9725639e-07
1.3413719e-06
1.9919063e-06
2.9412981e-06
4.3230812e-06
6.330556e-06
9.2441078e-06
1.3470801e-05
1.9600342e-05
2.8480989e-05
4.131485e-05
5.9762988e-05
8.6027516e-05
0.00012282657
0.00017316526
0.00023969298
0.00032384925
0.00042463148
0.00053782568
0.00065636939
0.0007728573
0.00088552281
0.00098018766
0.0010305551
0.0010526997
0.0010476033
0.0010224131
0.00095652353
0.00081489146
0.00050041757
0.00027732629
0.00018438197
0.00015476402
0.00014993674
0.00015869495
0.00017302108
0.00016871351
0.00015720177
0.00014967663
0.00014341011
0.00013745096
0.00013161853
0.00012610199
0.00012181801
0.00011810792
0.00011507146
0.00011199974
5.8912862e-14
1.8512394e-12
1.5137961e-11
6.510074e-11
2.0032586e-10
5.0548569e-10
1.1208355e-09
2.2713391e-09
4.3096428e-09
7.7789953e-09
1.3504814e-08
2.2727266e-08
3.7292429e-08
5.9926974e-08
9.4631432e-08
1.4724167e-07
2.2622687e-07
3.4382672e-07
5.176692e-07
7.7307362e-07
1.1463361e-06
1.6894388e-06
2.476961e-06
3.615979e-06
5.2605652e-06
7.6329297e-06
1.1053967e-05
1.5986393e-05
2.3093192e-05
3.331055e-05
4.7927272e-05
6.8662714e-05
9.7629313e-05
0.0001372107
0.00018957896
0.00025590256
0.00033531549
0.00042499063
0.00051856933
0.00061404992
0.00069879854
0.00077414818
0.000815934
0.00080291305
0.00074886922
0.00060803034
0.00036597595
0.0002309962
0.00016804967
0.00014725382
0.00014515533
0.00015356711
0.00016759573
0.00016643577
0.00015877
0.00015098507
0.000144177
0.00013794242
0.00013233142
0.00012766133
0.00012315549
0.00011927282
0.00011549211
0.00011261431
0.00011010193
3.7399975e-14
1.1752326e-12
9.6101142e-12
4.1328109e-11
1.2717201e-10
3.2088851e-10
7.1149778e-10
1.4417663e-09
2.7354528e-09
4.9371732e-09
8.5703627e-09
1.4421079e-08
2.3658567e-08
3.8007891e-08
5.9996077e-08
9.3301635e-08
1.4325001e-07
2.175129e-07
3.2709266e-07
4.8770911e-07
7.2175495e-07
1.0610518e-06
1.5506129e-06
2.254058e-06
3.2611494e-06
4.6990076e-06
6.7480238e-06
9.6644249e-06
1.3812179e-05
1.9706084e-05
2.8065484e-05
3.9870378e-05
5.6391855e-05
7.9188046e-05
0.00010996774
0.00015031136
0.00020101197
0.00026167984
0.00032869981
0.00039994311
0.00046326271
0.00052311089
0.00052444091
0.00049049932
0.00037527789
0.00025063972
0.00017810515
0.00014831883
0.00013687551
0.00013927781
0.00014857906
0.00016308881
0.00016434588
0.0001607101
0.00015190289
0.00014450363
0.00013843482
0.00013320743
0.00012843236
0.00012393405
0.00011995459
0.00011666304
0.00011350101
0.00011084365
0.00010859162
2.894392e-14
9.0951594e-13
7.4373189e-12
3.1984109e-11
9.8418942e-11
2.4833461e-10
5.5061878e-10
1.1157482e-09
2.1168726e-09
3.8206648e-09
6.6321691e-09
1.1159623e-08
1.830764e-08
2.9410427e-08
4.6421236e-08
7.2180214e-08
1.1079085e-07
1.6814552e-07
2.5265404e-07
3.7624573e-07
5.5573709e-07
8.1468394e-07
1.1858764e-06
1.7147047e-06
2.4637635e-06
3.5186027e-06
4.9957297e-06
7.0541979e-06
9.9114393e-06
1.3865385e-05
1.9323621e-05
2.6847665e-05
3.718496e-05
5.1293445e-05
7.0301722e-05
9.5374343e-05
0.00012743018
0.0001665945
0.00021101012
0.00025659976
0.00029561546
0.00030085304
0.00027728805
0.00021106297
0.00016178738
0.00013555611
0.00012432088
0.00012626698
0.00013183954
0.00014773521
0.00016028337
0.00016388703
0.00016124794
0.00015246538
0.00014510061
0.00013992354
0.00013526438
0.00013050357
0.00012590113
0.00012184618
0.00011789435
0.0001145198
0.00011134353
0.00010909193
0.00010740659
2.7565398e-14
8.6619942e-13
7.0831547e-12
3.046136e-11
9.3734555e-11
2.365192e-10
5.2443558e-10
1.062736e-09
2.0164174e-09
3.6396706e-09
6.3187226e-09
1.0633808e-08
1.7448307e-08
2.8036247e-08
4.4263582e-08
6.8844242e-08
1.0569906e-07
1.6045443e-07
2.4112748e-07
3.5905496e-07
5.3013126e-07
7.7642534e-07
1.128239e-06
1.6266649e-06
2.3266285e-06
3.3004186e-06
4.6417935e-06
6.4705134e-06
8.9382503e-06
1.2237276e-05
1.6614618e-05
2.2393309e-05
2.999642e-05
3.9960308e-05
5.2907898e-05
6.9419032e-05
8.9698777e-05
0.00011284463
0.00013573404
0.00015266964
0.00015219042
0.00013757389
0.00011700723
0.00010439008
0.00010111292
0.00010447132
0.00011148085
0.00012773145
0.00015064189
0.00015963615
0.00016286323
0.00016103115
0.00015335128
0.00014615223
0.00014138942
0.00013642193
0.00013117418
0.00012641795
0.00012235467
0.00011869125
0.00011529663
0.00011264633
0.00010981875
0.00010767801
0.00010615397
2.7894226e-14
8.7653357e-13
7.1677095e-12
3.0825467e-11
9.4857399e-11
2.3936169e-10
5.3076742e-10
1.0756481e-09
2.0411212e-09
3.684738e-09
6.3980046e-09
1.0769384e-08
1.7674986e-08
2.8408362e-08
4.4865058e-08
6.9803129e-08
1.0720763e-07
1.62795e-07
2.4470145e-07
3.6440535e-07
5.3793348e-07
7.8738735e-07
1.1427904e-06
1.6441643e-06
2.3436352e-06
3.3070905e-06
4.6148691e-06
6.3610058e-06
8.6510252e-06
1.159619e-05
1.530999e-05
1.9906861e-05
2.551018e-05
3.2231509e-05
4.0084431e-05
4.8990864e-05
5.8286878e-05
6.6594116e-05
7.1360503e-05
7.0867283e-05
6.7770885e-05
6.6888447e-05
7.0196332e-05
7.6279797e-05
8.5626393e-05
0.00010037478
0.00013199402
0.00015224872
0.00015956332
0.00016222514
0.00016117696
0.00015514869
0.00014715297
0.00014232978
0.00013711776
0.00013220684
0.0001281046
0.00012434953
0.00012068783
0.0001172438
0.000113923
0.00011106836
0.00010837534
0.00010670965
0.0001054208
2.5012129e-14
7.8596826e-13
6.4271383e-12
2.7640738e-11
8.5058338e-11
2.1463933e-10
4.7596069e-10
9.646107e-10
1.8304925e-09
3.3046432e-09
5.7382785e-09
9.6592975e-09
1.5853575e-08
2.5481185e-08
4.0241391e-08
6.2604928e-08
9.6137642e-08
1.4594547e-07
2.1927558e-07
3.2630918e-07
4.811724e-07
7.0316244e-07
1.0181224e-06
1.4597834e-06
2.0707121e-06
2.9022564e-06
4.0126007e-06
5.4618942e-06
7.304053e-06
9.5773717e-06
1.229188e-05
1.5413108e-05
1.8860915e-05
2.2507058e-05
2.6193863e-05
2.9700341e-05
3.2515083e-05
3.3841114e-05
3.4617381e-05
3.7054767e-05
4.1968601e-05
4.7987069e-05
5.9440196e-05
7.4424095e-05
9.8607063e-05
0.00013576335
0.00015368967
0.00016030728
0.00016231527
0.0001612418
0.00015680405
0.00014756715
0.00014278779
0.00013802913
0.00013377407
0.00012974391
0.00012561645
0.00012152195
0.00011796629
0.00011479559
0.00011193324
0.00010950285
0.00010700429
0.00010551136
0.00010440435
1.8485898e-14
5.8089088e-13
4.7501335e-12
2.0428471e-11
6.2863902e-11
1.5863222e-10
3.5176179e-10
7.1288717e-10
1.35276e-09
2.4420303e-09
4.2400133e-09
7.1362591e-09
1.1710239e-08
1.8816446e-08
2.9704778e-08
4.6189194e-08
7.0881166e-08
1.0750779e-07
1.613361e-07
2.3972266e-07
3.5279509e-07
5.142426e-07
7.4213174e-07
1.0595579e-06
1.4947801e-06
2.0802757e-06
2.8499546e-06
3.8340495e-06
5.0501774e-06
6.4930927e-06
8.1267994e-06
9.8762314e-06
1.16435e-05
1.331542e-05
1.4779024e-05
1.5963689e-05
1.7218828e-05
1.9452473e-05
2.2555414e-05
2.8120773e-05
3.7188764e-05
5.0804984e-05
7.0568307e-05
0.00010060106
0.00013574285
0.00015384559
0.00016122073
0.00016280743
0.00016191445
0.00015801733
0.0001485107
0.000143752
0.00013924969
0.00013509437
0.00013062768
0.0001263897
0.0001225497
0.00011925975
0.00011616253
0.00011325245
0.00011052419
0.00010822684
0.00010600509
0.00010474547
0.00010374342
1.1335318e-14
3.5619439e-13
2.9126986e-12
1.2526225e-11
3.8545854e-11
9.7264803e-11
2.1567232e-10
4.3705714e-10
8.2927026e-10
1.4968067e-09
2.5983448e-09
4.3720344e-09
7.1716989e-09
1.1518259e-08
1.8172123e-08
2.8233969e-08
4.3283126e-08
6.5564105e-08
9.823187e-08
1.456631e-07
2.1383083e-07
3.1071826e-07
4.4670657e-07
6.3480379e-07
8.9048285e-07
1.2307732e-06
1.6721773e-06
2.2271678e-06
2.8990382e-06
3.6771563e-06
4.5348743e-06
5.4331262e-06
6.3345058e-06
7.2305883e-06
8.2814687e-06
9.8353523e-06
1.2248802e-05
1.6042075e-05
2.1898604e-05
3.2080627e-05
4.8064427e-05
6.9998398e-05
9.9767883e-05
0.00013301525
0.00015281873
0.00016205056
0.00016388211
0.00016302948
0.00015929547
0.00014974303
0.0001446851
0.00014009022
0.00013589338
0.0001316157
0.00012772631
0.00012421866
0.00012087287
0.00011768671
0.00011464622
0.00011185514
0.00010932007
0.00010710396
0.00010503285
0.0001039574
0.00010293866
6.1476347e-15
1.9317937e-13
1.5796688e-12
6.7933478e-12
2.0904042e-11
5.2746223e-11
1.169512e-10
2.3697987e-10
4.4959001e-10
8.1135937e-10
1.4081382e-09
2.3686465e-09
3.8838837e-09
6.2345983e-09
9.8297839e-09
1.5259974e-08
2.3369916e-08
3.5355695e-08
5.2891102e-08
7.8285881e-08
1.14673e-07
1.6621092e-07
2.3826696e-07
3.375184e-07
4.7186868e-07
6.5004471e-07
8.8074636e-07
1.1714677e-06
1.5273888e-06
1.951729e-06
2.4500881e-06
3.0422799e-06
3.7929417e-06
4.86273e-06
6.47597e-06
9.0168005e-06
1.3108161e-05
1.9800044e-05
3.0742042e-05
4.6858215e-05
6.8562977e-05
9.6896853e-05
0.00012875268
0.00015233118
0.00016337749
0.00016556591
0.00016461985
0.00016088393
0.00015127651
0.00014589845
0.00014099299
0.00013686912
0.00013292559
0.00012917634
0.00012539796
0.0001218499
0.00011841207
0.00011538055
0.00011261649
0.0001101279
0.00010782625
0.00010589327
0.00010405304
0.00010322193
0.00010230143
3.4769749e-15
1.0925814e-13
8.9342212e-13
3.8421009e-12
1.1822384e-11
2.9829823e-11
6.6136652e-11
1.3400466e-10
2.5420716e-10
4.5870967e-10
7.9600103e-10
1.3387592e-09
2.1947912e-09
3.5225209e-09
5.5527142e-09
8.6186286e-09
1.3197317e-08
1.9965313e-08
2.9872223e-08
4.4235532e-08
6.4858887e-08
9.4173813e-08
1.3540192e-07
1.9273093e-07
2.7150804e-07
3.7847755e-07
5.2219136e-07
7.1393652e-07
9.6991107e-07
1.3156984e-06
1.7969688e-06
2.4970051e-06
3.5604328e-06
5.2427625e-06
7.9775758e-06
1.2394592e-05
1.9349255e-05
3.0140796e-05
4.5606247e-05
6.6653784e-05
9.4329998e-05
0.00012575353
0.00015247312
0.00016511824
0.00016769455
0.00016664637
0.00016288854
0.0001532511
0.00014752332
0.00014225256
0.00013800999
0.00013419902
0.00013039261
0.00012652007
0.00012295928
0.00011976491
0.00011684877
0.00011421356
0.00011164902
0.00010928019
0.00010709913
0.0001052085
0.00010343815
0.00010258559
0.00010161173
2.7882073e-15
8.761483e-14
7.1644337e-13
3.0810286e-12
9.4805531e-12
2.3921162e-11
5.3037254e-11
1.0746682e-10
2.0387879e-10
3.6793696e-10
6.3860437e-10
1.0743561e-09
1.762095e-09
2.8298733e-09
4.4649403e-09
6.9391958e-09
1.0644871e-08
1.6144255e-08
2.4238611e-08
3.606334e-08
5.3219271e-08
7.7954869e-08
1.1342302e-07
1.6405451e-07
2.3612866e-07
3.3870463e-07
4.8525552e-07
6.9675427e-07
1.0073877e-06
1.4725536e-06
2.1841567e-06
3.2960615e-06
5.060572e-06
7.8833393e-06
1.2337938e-05
1.9306183e-05
2.9810592e-05
4.4741679e-05
6.5373227e-05
9.2543425e-05
0.00012369968
0.00015172303
0.00016668025
0.00017012034
0.00016907576
0.00016544609
0.00015600477
0.00014962179
0.00014384883
0.00013932231
0.00013533072
0.00013155885
0.00012780378
0.000124343
0.00012108286
0.00011810667
0.00011515375
0.00011254299
0.00010999968
0.00010777285
0.00010580557
0.00010410718
0.00010267441
0.00010206865
0.000101067
3.3534108e-15
1.0537554e-13
8.6168006e-13
3.7056441e-12
1.1402696e-11