/*--------------------------------*- C++ -*----------------------------------*\
  =========                 |
  \\      /  F ield         | OpenFOAM: The Open Source CFD Toolbox
   \\    /   O peration     | Website:  https://openfoam.org
    \\  /    A nd           | Version:  13
     \\/     M anipulation  |
\*---------------------------------------------------------------------------*/
FoamFile
{
    format      ascii;
    class       volScalarField;
    location    "37.402192";
    object      nut;
}
// * * * * * * * * * * * * * * * * * * * * * * * * * * * * * * * * * * * * * //

dimensions      [0 2 -1 0 0 0 0];

internalField   nonuniform List<scalar> 
17140
(
1.1908787e-18
2.3161014e-16
6.1690096e-15
6.2540453e-14
3.7821789e-13
1.6756542e-12
6.0505324e-12
1.8932898e-11
5.3338585e-11
1.3874942e-10
3.3914349e-10
7.8879532e-10
1.7620897e-09
3.8076613e-09
8.0029539e-09
1.6432251e-08
3.3076294e-08
6.5454926e-08
1.2763924e-07
2.4574088e-07
4.67859e-07
8.8200875e-07
1.6482675e-06
3.0561037e-06
5.626007e-06
1.0288346e-05
1.8695041e-05
3.3754654e-05
6.0528756e-05
0.00010766945
0.00018954255
0.00032889044
0.00055901726
0.00092302481
0.0014667939
0.0022249888
0.003205677
0.0043825268
0.0056987796
0.0070794629
0.008445826
0.0097279735
0.010873745
0.011836013
0.012618119
0.013284602
0.013824929
0.014271411
0.014660063
0.015020811
0.015375039
0.015736628
0.016119118
0.0165443
0.017026146
0.017547761
0.01807451
0.01848932
0.018317018
0.016896537
0.013638425
0.0099370236
0.010580665
0.016531543
0.020036915
1.1983387e-18
2.3306082e-16
6.2076549e-15
6.2932397e-14
3.8058967e-13
1.6861695e-12
6.0885301e-12
1.9051896e-11
5.3674123e-11
1.3962305e-10
3.4128094e-10
7.9377166e-10
1.7732178e-09
3.8317332e-09
8.0536019e-09
1.6536354e-08
3.328605e-08
6.5870388e-08
1.2845003e-07
2.4730276e-07
4.7083354e-07
8.8761637e-07
1.6587432e-06
3.0755135e-06
5.6617049e-06
1.0353561e-05
1.8813451e-05
3.3968399e-05
6.0912182e-05
0.0001083519
0.00019074538
0.00033097596
0.00056253426
0.00092867755
0.0014752428
0.0022365186
0.0032198179
0.0043978157
0.0057127711
0.0070889829
0.0084473508
0.0097179971
0.010848337
0.011792545
0.012556472
0.013202794
0.013719501
0.014140647
0.014501549
0.014831403
0.015151044
0.01547474
0.015820214
0.016220859
0.016708055
0.017302183
0.018025355
0.018860095
0.01949982
0.019085834
0.017011171
0.014145141
0.01432736
0.01839778
0.018430226
1.1976961e-18
2.3293581e-16
6.204324e-15
6.2898634e-14
3.8038552e-13
1.6852653e-12
6.085267e-12
1.9041692e-11
5.3645398e-11
1.3954839e-10
3.410986e-10
7.933479e-10
1.7722716e-09
3.8296882e-09
8.0492984e-09
1.6527491e-08
3.326811e-08
6.5834552e-08
1.2837912e-07
2.4716329e-07
4.7055999e-07
8.8707982e-07
1.6576887e-06
3.0734355e-06
5.6576007e-06
1.0345454e-05
1.8797498e-05
3.3937276e-05
6.0852363e-05
0.00010823944
0.00019054011
0.00033061368
0.00056191391
0.00092763962
0.0014735225
0.0022336204
0.0032148312
0.0043892547
0.0056985092
0.0070663157
0.0084131889
0.009669155
0.010780753
0.011703643
0.012446161
0.013067101
0.013554288
0.013942607
0.014266284
0.014553219
0.014822951
0.015089528
0.015375775
0.01572777
0.016191393
0.016818468
0.017695059
0.018890188
0.020284986
0.020962614
0.020210312
0.018066607
0.017547932
0.019503869
0.015954506
1.1879799e-18
2.310461e-16
6.1539898e-15
6.2388346e-14
3.7729947e-13
1.6715924e-12
6.0358936e-12
1.8887185e-11
5.3210071e-11
1.3841582e-10
3.3832975e-10
7.8690626e-10
1.7578763e-09
3.7985659e-09
7.9838393e-09
1.6392954e-08
3.2996934e-08
6.5296925e-08
1.2732809e-07
2.4513295e-07
4.6667725e-07
8.7971769e-07
1.6438292e-06
3.0475027e-06
5.609332e-06
1.0256042e-05
1.8632669e-05
3.3635097e-05
6.0302368e-05
0.00010724864
0.00018878229
0.00032756507
0.00055679507
0.00091940406
0.0014609264
0.0022153343
0.0031894846
0.0043553499
0.0056542632
0.0070095563
0.0083413561
0.0095793786
0.010668838
0.011566929
0.012284455
0.012874374
0.013325798
0.013673192
0.013949325
0.014180187
0.01438325
0.014572003
0.01477647
0.015054095
0.015456199
0.016055914
0.017016022
0.018477063
0.020439392
0.022300626
0.0228641
0.021544641
0.020241627
0.020043628
0.015477229
1.1687741e-18
2.2731083e-16
6.0544992e-15
6.1379722e-14
3.7119967e-13
1.644567e-12
5.9383035e-12
1.858179e-11
5.2349613e-11
1.3617722e-10
3.3285698e-10
7.7417443e-10
1.7294256e-09
3.7370608e-09
7.8544923e-09
1.612716e-08
3.2461357e-08
6.4235567e-08
1.2525451e-07
2.411308e-07
4.590329e-07
8.6524621e-07
1.6166418e-06
2.9967608e-06
5.5151717e-06
1.0082221e-05
1.8313422e-05
3.3051996e-05
5.9244643e-05
0.00010534824
0.00018541623
0.00032173049
0.00054699855
0.00090365812
0.0014369492
0.0021809122
0.0031427656
0.0042948436
0.0055785779
0.0069170822
0.0082300563
0.0094467121
0.010510474
0.011379975
0.012068658
0.012621702
0.013030529
0.013328332
0.013545922
0.013706786
0.013825713
0.013916393
0.014019641
0.01419737
0.014494552
0.015000795
0.015904073
0.017483561
0.019843992
0.022760206
0.024545698
0.024450081
0.022825229
0.020907466
0.016372587
1.1399296e-18
2.2170096e-16
5.9050786e-15
5.9864906e-14
3.6203852e-13
1.6039781e-12
5.7917361e-12
1.8123129e-11
5.1057334e-11
1.328152e-10
3.2463792e-10
7.5505402e-10
1.6867002e-09
3.644701e-09
7.6602707e-09
1.5728098e-08
3.1657356e-08
6.2642595e-08
1.2214318e-07
2.3512803e-07
4.4757316e-07
8.4356635e-07
1.5759468e-06
2.9208888e-06
5.3745543e-06
9.8230094e-06
1.7838074e-05
3.2185115e-05
5.7674331e-05
0.00010252983
0.00018042667
0.00031308063
0.00053246505
0.00088028075
0.0014013568
0.0021299439
0.003074031
0.0042068312
0.0054702893
0.0067874919
0.0080776787
0.0092693743
0.010303742
0.011140361
0.011796102
0.012306237
0.012665215
0.012904372
0.013052078
0.013128856
0.013146765
0.013123018
0.013112181
0.013165123
0.013310597
0.01364747
0.014391095
0.015861978
0.018309552
0.021861308
0.024926418
0.026046806
0.025028753
0.022429976
0.018269728
1.1015664e-18
2.1423988e-16
5.706351e-15
5.7850215e-14
3.4985426e-13
1.5499952e-12
5.5968034e-12
1.7513121e-11
4.9338642e-11
1.2834387e-10
3.1370705e-10
7.2962547e-10
1.6298805e-09
3.521878e-09
7.4020022e-09
1.5197478e-08
3.058841e-08
6.0524983e-08
1.1800794e-07
2.2715186e-07
4.3235119e-07
8.1478167e-07
1.5219456e-06
2.8202771e-06
5.1882376e-06
9.4798759e-06
1.7209461e-05
3.1039884e-05
5.5601678e-05
9.8812215e-05
0.00017384659
0.00030166877
0.00051326946
0.0008493532
0.0013541916
0.0020623565
0.0029830082
0.0040907779
0.0053285754
0.0066196794
0.0078828439
0.0090457584
0.010047252
0.010845542
0.011464356
0.011925343
0.012226976
0.012398327
0.012464955
0.012444254
0.012346993
0.012201412
0.012070815
0.011974853
0.011924777
0.012021697
0.012481919
0.013690773
0.015971353
0.019603305
0.023509644
0.02590152
0.025724763
0.023575155
0.018655211
1.0540995e-18
2.0500822e-16
5.4604632e-15
5.5357418e-14
3.3477856e-13
1.483202e-12
5.3556125e-12
1.6758359e-11
4.7212126e-11
1.2281159e-10
3.0018271e-10
6.9816425e-10
1.5595826e-09
3.3699251e-09
7.0824949e-09
1.4541083e-08
2.9266205e-08
5.7905969e-08
1.128944e-07
2.1729082e-07
4.1353741e-07
7.7921789e-07
1.4552572e-06
2.6960981e-06
4.9584331e-06
9.0569796e-06
1.6435378e-05
2.9630832e-05
5.3053515e-05
9.4244134e-05
0.00016576195
0.00028763929
0.00048963602
0.00081118499
0.0012958138
0.001978475
0.0028698704
0.0039466036
0.005153043
0.0064129139
0.00764444
0.0087740538
0.0097373354
0.010495984
0.011071479
0.011476706
0.011713465
0.011808132
0.01178328
0.01165354
0.011433525
0.011171919
0.010919275
0.010653987
0.010378115
0.010189058
0.010280111
0.011018335
0.012732323
0.016050136
0.02032715
0.023506739
0.024191418
0.022528033
0.016784157
9.9825266e-19
1.9414672e-16
5.1711622e-15
5.2424504e-14
3.1704126e-13
1.4046165e-12
5.0718408e-12
1.5870352e-11
4.4710211e-11
1.1630275e-10
2.8427124e-10
6.6115059e-10
1.4768801e-09
3.1911648e-09
6.7066372e-09
1.3768969e-08
2.7711035e-08
5.4825853e-08
1.0688149e-07
2.0569781e-07
3.9142516e-07
7.3743339e-07
1.3769379e-06
2.5503395e-06
4.6888663e-06
8.5612771e-06
1.5528762e-05
2.7981904e-05
5.0073795e-05
8.8905175e-05
0.00015631351
0.00027123147
0.0004619467
0.0007663317
0.001226936
0.0018790783
0.0027353169
0.0037747791
0.004943834
0.0061669696
0.0073619121
0.0084537102
0.0093747778
0.010087862
0.010615307
0.010958353
0.01112298
0.011132861
0.011007749
0.010760922
0.01042335
0.010062142
0.0096846729
0.0092408186
0.008735835
0.0082575633
0.0079493268
0.0080388664
0.0088321631
0.011203286
0.015163384
0.018775606
0.019850691
0.018465378
0.012033998
9.3505576e-19
1.8185576e-16
4.8437877e-15
4.9105606e-14
2.9696968e-13
1.3156892e-12
4.7507258e-12
1.4865491e-11
4.1879087e-11
1.0893753e-10
2.6626651e-10
6.1926828e-10
1.3833015e-09
2.988903e-09
6.2813852e-09
1.2895442e-08
2.5951751e-08
5.1341885e-08
1.0008126e-07
1.9258954e-07
3.6642948e-07
6.902166e-07
1.2884753e-06
2.3857923e-06
4.3847494e-06
8.0024622e-06
1.4507571e-05
2.6126194e-05
4.6723078e-05
8.2904845e-05
0.00014569533
0.00025277773
0.00043074099
0.00071560159
0.0011486451
0.001765448
0.0025806498
0.0035764273
0.0047017348
0.0058822094
0.0070351657
0.0080841317
0.0089582615
0.0096204933
0.010094184
0.010368719
0.01045452
0.010372886
0.0101414
0.0097763563
0.0093440683
0.0088989458
0.0083958673
0.0077843148
0.0070817557
0.0063511205
0.0056384361
0.0050364181
0.0048759135
0.0058970581
0.0086996559
0.011954473
0.012994353
0.011540295
0.0055676725
8.6582679e-19
1.6839166e-16
4.4851665e-15
4.5469931e-14
2.7498234e-13
1.2182744e-12
4.3989641e-12
1.3764734e-11
3.8777805e-11
1.0086957e-10
2.4654416e-10
5.7339134e-10
1.2808003e-09
2.7673635e-09
5.8156255e-09
1.193877e-08
2.4025188e-08
4.7527111e-08
9.2636557e-08
1.7824204e-07
3.3907843e-07
6.3856914e-07
1.1917556e-06
2.2059877e-06
4.0526591e-06
7.3927298e-06
1.3394319e-05
2.4105073e-05
4.3076875e-05
7.6379539e-05
0.00013414951
0.00023269546
0.00039670542
0.00066004731
0.0010624076
0.0016394004
0.0024078445
0.0033534288
0.0044283053
0.0055597202
0.0066647136
0.0076651052
0.0084871105
0.0090936135
0.0095067005
0.0097065878
0.0097077281
0.0095298712
0.0091899981
0.0087196987
0.0082253944
0.007702871
0.0070826397
0.0063368983
0.0054901369
0.0045397403
0.0035366157
0.002553638
0.001620692
0.0018065044
0.0025953312
0.0039625768
0.004621991
0.0040674061
0.0030281714
7.9212892e-19
1.5405841e-16
4.1033943e-15
4.1599555e-14
2.5157564e-13
1.1145713e-12
4.0244972e-12
1.2592933e-11
3.5476389e-11
9.2281049e-11
2.255496e-10
5.2455607e-10
1.1716924e-09
2.5315537e-09
5.3198896e-09
1.0920599e-08
2.1974971e-08
4.346801e-08
8.4716382e-08
1.6298164e-07
3.099956e-07
5.8367223e-07
1.0889998e-06
2.0150747e-06
3.7003051e-06
6.7463381e-06
1.2215259e-05
2.1966642e-05
3.9222783e-05
6.9487326e-05
0.00012195706
0.00021147192
0.00036065152
0.00060093972
0.00097004995
0.001503293
0.0022196005
0.0031085228
0.0041260202
0.005201487
0.0062519089
0.0071969156
0.0079605562
0.0085083964
0.0088513173
0.0089709789
0.0088827294
0.0086065403
0.0081623369
0.0076205459
0.0070861816
0.0064879174
0.0057716336
0.0049341522
0.0039693752
0.0029087296
0.0018384168
0.00083913455
0.0005522537
0.00067612511
0.0010759769
0.0016428564
0.0021388681
0.002593404
0.0021058662
7.1570876e-19
1.3919572e-16
3.707521e-15
3.758623e-14
2.2730447e-13
1.0070385e-12
3.636203e-12
1.137787e-11
3.2053115e-11
8.3375627e-11
2.0378073e-10
4.7392077e-10
1.0585662e-09
2.2870692e-09
4.8059455e-09
9.8651086e-09
1.9849821e-08
3.9261116e-08
7.6509294e-08
1.4717214e-07
2.7987554e-07
5.2683982e-07
9.8267429e-07
1.8176523e-06
3.3362134e-06
6.0790127e-06
1.0999258e-05
1.9763641e-05
3.5256606e-05
6.2400844e-05
0.00010942519
0.00018964267
0.00032348184
0.00053972153
0.00087370926
0.0013599949
0.0020193585
0.0028453862
0.0037984033
0.0048105649
0.0057992167
0.0066811193
0.0073800381
0.0078630302
0.0081276237
0.0081611703
0.0079799593
0.0076063671
0.0070714505
0.0065032088
0.0059310903
0.0052627088
0.0044763819
0.0035587578
0.0025413246
0.0016084783
0.00064215631
0.00030892988
0.00026626063
0.00039829232
0.0006632608
0.00095152178
0.0012148496
0.0014633518
0.0012734088
6.3841535e-19
1.2416316e-16
3.3071229e-15
3.3527029e-14
2.0275588e-13
8.9827693e-13
3.2434732e-12
1.0148935e-11
2.8590791e-11
7.4368725e-11
1.8176415e-10
4.2271046e-10
9.4415893e-10
2.0398266e-09
4.2862329e-09
8.7978541e-09
1.7701207e-08
3.5008366e-08
6.8214278e-08
1.3119715e-07
2.4944985e-07
4.6945423e-07
8.7536969e-07
1.6185416e-06
2.9693004e-06
5.407155e-06
9.7763375e-06
1.7550752e-05
3.1277409e-05
5.5298336e-05
9.6871363e-05
0.00016776393
0.00028614489
0.00047794051
0.00077574944
0.0012128077
0.0018112633
0.0025686664
0.0034501236
0.0043911543
0.0053098714
0.0061206288
0.0067473217
0.0071569191
0.0073352215
0.0072767097
0.0070003808
0.0065341068
0.0059393764
0.0053736574
0.0047575268
0.0040299734
0.0031785994
0.0022287309
0.0014327557
0.0005672438
0.00023467361
0.00016419378
0.00018299393
0.00026123477
0.00038347352
0.00052020448
0.0006509278
0.00075736289
0.00075467852
5.6210596e-19
1.0932199e-16
2.9118223e-15
2.9519509e-14
1.7851988e-13
7.9090059e-13
2.8557474e-12
8.9356666e-12
2.5172638e-11
6.5476851e-11
1.6002915e-10
3.7215633e-10
8.3122136e-10
1.795771e-09
3.7732506e-09
7.7445058e-09
1.558082e-08
3.081209e-08
6.0030981e-08
1.1544128e-07
2.1945131e-07
4.1289818e-07
7.6967313e-07
1.422547e-06
2.6084296e-06
4.7470204e-06
8.5761486e-06
1.538179e-05
2.7382361e-05
4.8354208e-05
8.4606112e-05
0.00014638181
0.00024958169
0.00041716348
0.00067864024
0.0010653274
0.0016000503
0.0022839452
0.003087071
0.0039488318
0.0047885661
0.0055192047
0.0060650515
0.0063904501
0.0064743034
0.0063182374
0.0059470015
0.0053987512
0.0047948892
0.0042269072
0.0035654638
0.0027822037
0.0019119566
0.0012105031
0.00049584554
0.00019898905
0.00012133641
0.00012494656
0.00015707362
0.00022086326
0.00030269237
0.00037972982
0.00047241221
0.00055588228
0.00062034447
4.8853578e-19
9.5013587e-17
2.5307138e-15
2.5655878e-14
1.5515415e-13
6.8738027e-13
2.4819472e-12
7.7659828e-12
2.1877308e-11
5.6904601e-11
1.3907582e-10
3.2342154e-10
7.2235187e-10
1.5605172e-09
3.2787992e-09
6.7292919e-09
1.3537421e-08
2.6768765e-08
5.2147475e-08
1.0026645e-07
1.9056857e-07
3.5846894e-07
6.6800662e-07
1.2341545e-06
2.2618497e-06
4.1136778e-06
7.4260563e-06
1.3306178e-05
2.3660266e-05
4.1727239e-05
7.2911843e-05
0.0001259951
0.00021466181
0.00035887164
0.00058480093
0.00092124193
0.0013908356
0.0019975839
0.0027163148
0.003490635
0.0042415345
0.0048818044
0.0053369047
0.0055652255
0.005547318
0.0052901582
0.0048297941
0.0042295038
0.0036592893
0.0030689438
0.0023654544
0.0015869221
0.00096105384
0.00040547025
0.00016653125
9.5600807e-05
9.6946718e-05
0.00012291804
0.00017116185
0.00023567145
0.00030494689
0.00037130248
0.00045277805
0.00052460909
0.00062767966
4.1926351e-19
8.1541101e-17
2.1718706e-15
2.2017971e-14
1.3315354e-13
5.8990842e-13
2.1299894e-12
6.6646562e-12
1.8774594e-11
4.8833527e-11
1.1934791e-10
2.7753813e-10
6.1985578e-10
1.3390461e-09
2.8133452e-09
5.7736962e-09
1.1614234e-08
2.2963866e-08
4.4730281e-08
8.5992836e-08
1.6341013e-07
3.0731094e-07
5.7250247e-07
1.0573031e-06
1.9367807e-06
3.5202655e-06
6.3498117e-06
1.1366595e-05
2.0187415e-05
3.5553185e-05
6.2029223e-05
0.00010702913
0.00018213558
0.0003043761
0.00049645093
0.000784089
0.0011887957
0.0017164015
0.0023458742
0.0030250209
0.0036769479
0.0042155494
0.0045662282
0.0046866409
0.0045618635
0.0042067844
0.0036771574
0.0030955841
0.0025548874
0.0019341536
0.0012683957
0.00071560211
0.00030908405
0.00013269837
7.467849e-05
7.7545147e-05
0.00010058413
0.00014629937
0.00020622618
0.00027249508
0.0003392707
0.00040667388
0.00048778001
0.00057478532
0.00068804016
3.5555892e-19
6.9151425e-17
1.8418675e-15
1.8672443e-14
1.1292119e-13
5.0027106e-13
1.806323e-12
5.6518674e-12
1.5921349e-11
4.1411526e-11
1.0120693e-10
2.3534691e-10
5.2561121e-10
1.1354153e-09
2.3854149e-09
4.8952173e-09
9.8464577e-09
1.9466977e-08
3.791489e-08
7.2880766e-08
1.3847021e-07
2.6035241e-07
4.8488688e-07
8.9517359e-07
1.6390335e-06
2.9773147e-06
5.366358e-06
9.59689e-06
1.7023956e-05
2.9938565e-05
5.2146857e-05
8.9819071e-05
0.00015259955
0.00025473055
0.00041541857
0.00065694039
0.00099873014
0.0014471469
0.0019841845
0.0025614051
0.003104448
0.0035285732
0.00376067
0.0037685118
0.0035356482
0.0031037502
0.00256204
0.0020543362
0.0015254694
0.00097153067
0.00049913325
0.00022070901
9.9704813e-05
5.6813578e-05
6.1511656e-05
8.2967535e-05
0.00012607538
0.00018784661
0.0002568997
0.00031027986
0.0003745121
0.00048138221
0.00057102758
0.00064480796
0.00073567054
2.9830284e-19
5.8015857e-17
1.5452673e-15
1.5665558e-14
9.4736839e-14
4.1970753e-13
1.515423e-12
4.7416172e-12
1.3357014e-11
3.4741171e-11
8.4903525e-11
1.9743062e-10
4.4091919e-10
9.5243405e-10
2.0009059e-09
4.1059465e-09
8.2583795e-09
1.6326024e-08
3.1794394e-08
6.1108539e-08
1.1608596e-07
2.1822325e-07
4.0632332e-07
7.4989138e-07
1.3724484e-06
2.4916884e-06
4.4878277e-06
8.0182881e-06
1.4206688e-05
2.4946792e-05
4.3374045e-05
7.4555313e-05
0.00012639504
0.00021057622
0.00034294117
0.00054208495
0.00082452571
0.0011957265
0.001639151
0.0021091018
0.0025338477
0.0028315871
0.0029381794
0.0028339713
0.0025120167
0.0020557077
0.0015958881
0.0011570318
0.00070833678
0.00032851745
0.00015137693
7.1639507e-05
4.2370135e-05
4.8171982e-05
6.8090657e-05
0.00010853101
0.00016857835
0.00020661195
0.00021289806
0.0002469399
0.00032519811
0.0005284608
0.00061738686
0.00067968902
0.00077870361
2.479688e-19
4.8226561e-17
1.2845264e-15
1.3022211e-14
7.8751079e-14
3.4888504e-13
1.2596984e-12
3.9414443e-12
1.1102824e-11
2.8877699e-11
7.0572678e-11
1.6410304e-10
3.6648026e-10
7.9161463e-10
1.6629924e-09
3.4123875e-09
6.8630525e-09
1.3566732e-08
2.6418682e-08
5.077147e-08
9.6436946e-08
1.8125729e-07
3.3742416e-07
6.2256419e-07
1.1389999e-06
2.0668508e-06
3.720201e-06
6.6409412e-06
1.1752578e-05
2.0605943e-05
3.5757473e-05
6.1318116e-05
0.00010366945
0.00017220389
0.00027962086
0.00044077653
0.00066862926
0.0009663451
0.0013170352
0.0016764124
0.0019758698
0.0021405777
0.0021300903
0.0019276843
0.0015743225
0.0011926872
0.00083749047
0.00048768171
0.00021305811
0.00010003435
5.0042088e-05
3.1299292e-05
3.7309687e-05
5.5435784e-05
9.2646958e-05
0.00014889461
0.00016613736
0.00016316533
0.00018120999
0.00022479964
0.00032109378
0.00057507966
0.00066175626
0.00073362234
0.00081604462
2.0457428e-19
3.978693e-17
1.0597348e-15
1.0743319e-14
6.4969457e-14
2.8782819e-13
1.039238e-12
3.2516257e-12
9.1595578e-12
2.382312e-11
5.8219258e-11
1.3537535e-10
3.0231883e-10
6.530081e-10
1.3717765e-09
2.8147354e-09
5.6608279e-09
1.1189683e-08
2.1788584e-08
4.1870376e-08
7.9522776e-08
1.4944898e-07
2.7816766e-07
5.1312596e-07
9.3850943e-07
1.7023501e-06
3.0623635e-06
5.462165e-06
9.6553199e-06
1.6901706e-05
2.9266657e-05
5.0047619e-05
8.4317937e-05
0.00013946278
0.00022531765
0.0003530724
0.00053167266
0.00076077379
0.001021454
0.0012699884
0.0014431911
0.0014861275
0.0013806577
0.0011357844
0.00084436565
0.00057531148
0.00031150454
0.00013527813
6.5230871e-05
3.441136e-05
2.3206096e-05
2.8926652e-05
4.5133244e-05
7.9514511e-05
0.00013170289
0.00013999338
0.00013303464
0.0001414479
0.00016571377
0.0002141524
0.00031580121
0.00061497557
0.00072474611
0.00077826528
0.00084990607
1.6768595e-19
3.2612645e-17
8.6864575e-16
8.8061012e-15
5.3254174e-14
2.3592637e-13
8.5183679e-13
2.6652601e-12
7.5077658e-12
1.9526819e-11
4.7719474e-11
1.1095941e-10
2.4779049e-10
5.3521983e-10
1.124321e-09
2.3069425e-09
4.639487e-09
9.1705764e-09
1.7856401e-08
3.4312604e-08
6.5164936e-08
1.2245638e-07
2.2790107e-07
4.2033191e-07
7.6860163e-07
1.3936521e-06
2.5057025e-06
4.4657499e-06
7.8848553e-06
1.3779261e-05
2.3801263e-05
4.0559716e-05
6.8011491e-05
0.00011179681
0.00017916617
0.0002777834
0.00041231866
0.00057810686
0.00075342309
0.00089647977
0.00095637797
0.00091218473
0.00076101134
0.00055935223
0.00036901488
0.00018743712
8.1801385e-05
4.164885e-05
2.3527945e-05
1.7418785e-05
2.2695483e-05
3.7462192e-05
6.8411019e-05
0.00011621478
0.00012529782
0.00011728014
0.00012144568
0.00013580982
0.0001629037
0.00021221649
0.00031709335
0.00062309129
0.00075153614
0.00080412707
0.00087292467
1.3647843e-19
2.6543195e-17
7.069842e-16
7.1672171e-15
4.3343125e-14
1.9201824e-13
6.9330074e-13
2.1692218e-12
6.1104622e-12
1.5892556e-11
3.8837992e-11
9.0307563e-11
2.0167103e-10
4.3560211e-10
9.1505443e-10
1.8775522e-09
3.775925e-09
7.4635789e-09
1.4532474e-08
2.7924849e-08
5.3031816e-08
9.9650386e-08
1.854394e-07
3.4196286e-07
6.251383e-07
1.1330563e-06
2.0358652e-06
3.6248302e-06
6.3906327e-06
1.1143544e-05
1.9187387e-05
3.2547925e-05
5.4217367e-05
8.8299826e-05
0.00013969645
0.00021271214
0.00030774202
0.00041586783
0.00051400344
0.00056769838
0.00055360736
0.00046885441
0.00034305974
0.00021677935
0.00010578316
4.8293344e-05
2.5831531e-05
1.6091757e-05
1.3144423e-05
1.8300365e-05
3.1361319e-05
5.9165593e-05
0.00010184641
0.00011717093
0.00010920963
0.00011101556
0.00012026568
0.00013702009
0.00016571601
0.00021819609
0.00032302388
0.00058836514
0.00078857928
0.00084122785
0.00089665241
1.0985368e-19
2.1365045e-17
5.6906307e-16
5.7690125e-15
3.4887621e-14
1.5455886e-13
5.5805051e-13
1.7460489e-12
4.9184394e-12
1.2792284e-11
3.1261691e-11
7.269114e-11
1.6233151e-10
3.5063187e-10
7.3656392e-10
1.5113229e-09
3.0394098e-09
6.0077461e-09
1.1697651e-08
2.2476982e-08
4.268357e-08
8.0197837e-08
1.4921667e-07
2.7509504e-07
5.0269241e-07
9.1054223e-07
1.6344452e-06
2.9057653e-06
5.1114617e-06
8.8835533e-06
1.5222174e-05
2.5641515e-05
4.2287532e-05
6.7882844e-05
0.00010517567
0.00015538916
0.00021524066
0.00027337856
0.00031012576
0.00030822239
0.0002644575
0.00019304254
0.00011701822
5.7594362e-05
2.7739117e-05
1.6032382e-05
1.0934315e-05
1.0112001e-05
1.4750883e-05
2.6657013e-05
5.0919742e-05
8.9676416e-05
0.00011312119
0.0001063555
0.00010708233
0.00011271753
0.00012373326
0.00014153806
0.0001716783
0.000224328
0.00032259499
0.00053475165
0.00082424561
0.00086461024
0.00091620789
8.6656449e-20
1.6853504e-17
4.4889727e-16
4.5508059e-15
2.7520652e-14
1.2192199e-13
4.4021287e-13
1.3773583e-12
3.8798891e-12
1.0091173e-11
2.4660825e-11
5.7342669e-11
1.28056e-10
2.7659741e-10
5.8103836e-10
1.1921918e-09
2.3975505e-09
4.7388409e-09
9.2263478e-09
1.7726485e-08
3.3656851e-08
6.3221692e-08
1.1758628e-07
2.166596e-07
3.9558232e-07
7.1565715e-07
1.2823341e-06
2.2738649e-06
3.98488e-06
6.8880314e-06
1.1710669e-05
1.9505712e-05
3.165448e-05
4.9633967e-05
7.4320598e-05
0.0001045242
0.00013501547
0.0001558731
0.00015701115
0.00013601565
9.8603769e-05
5.7752557e-05
2.9153198e-05
1.5544831e-05
9.8632221e-06
7.6592789e-06
7.6916495e-06
1.2079418e-05
2.2462238e-05
4.4374586e-05
7.9949008e-05
0.00011210346
0.0001061496
0.00010615802
0.00010905978
0.00011677476
0.00012879482
0.00014809157
0.00017903605
0.00023090744
0.00032074683
0.00049032497
0.00072378344
0.00086037816
0.00090894855
6.5989194e-20
1.2834004e-17
3.4183686e-16
3.4654548e-15
2.0957083e-14
9.2844135e-14
3.3522421e-13
1.0488647e-12
2.954549e-12
7.6844335e-12
1.8779088e-11
4.3665567e-11
9.751062e-11
2.1061328e-10
4.4240586e-10
9.0767493e-10
1.8251795e-09
3.606976e-09
7.0211102e-09
1.3485397e-08
2.5593183e-08
4.804514e-08
8.9282229e-08
1.6430902e-07
2.9949273e-07
5.4054026e-07
9.6535793e-07
1.703887e-06
2.9666742e-06
5.0814079e-06
8.5289289e-06
1.3948774e-05
2.2045377e-05
3.3278615e-05
4.7198993e-05
6.1516828e-05
7.1698893e-05
7.2775713e-05
6.3416047e-05
4.5637693e-05
2.6812404e-05
1.4440671e-05
8.4316206e-06
6.1335139e-06
5.3823451e-06
6.0493621e-06
9.8044286e-06
1.9114625e-05
4.0028437e-05
7.1745155e-05
0.00011301469
0.00010743607
0.00010634583
0.00010772235
0.00011332342
0.00012151527
0.0001342304
0.00015416782
0.00018549677
0.00023607094
0.0003178265
0.00045401322
0.00062110493
0.00076441149
0.00088268138
4.7513935e-20
9.2408136e-18
2.4613118e-16
2.4952111e-15
1.5089568e-14
6.6849573e-14
2.4136625e-13
7.5518946e-13
2.1272588e-12
5.5326096e-12
1.3519998e-11
3.1435345e-11
7.0193754e-11
1.5159564e-10
3.183894e-10
6.5310188e-10
1.3129154e-09
2.5936496e-09
5.0460538e-09
9.6851953e-09
1.8363705e-08
3.4429608e-08
6.387025e-08
1.1726845e-07
2.1307529e-07
3.829246e-07
6.7990072e-07
1.1905786e-06
2.0505949e-06
3.4601167e-06
5.6868869e-06
9.02947e-06
1.3688344e-05
1.9490338e-05
2.5501185e-05
2.9845069e-05
3.036442e-05
2.6563958e-05
1.898998e-05
1.1537418e-05
6.930893e-06
4.5976143e-06
3.8703731e-06
3.8479544e-06
4.7313012e-06
8.0758865e-06
1.7247965e-05
3.5767443e-05
6.493294e-05
0.00010246526
0.00010855689
0.00010658869
0.00010680847
0.00011107542
0.00011649221
0.00012527563
0.00013891534
0.00015994607
0.00019161385
0.00024094302
0.00031432861
0.00042666572
0.00055535829
0.00070561043
0.00085825545
3.1558503e-20
6.1376965e-18
1.6347861e-16
1.6572943e-15
1.0022258e-14
4.439985e-14
1.603062e-13
5.0155229e-13
1.4127363e-12
3.674034e-12
8.9774135e-12
2.087083e-11
4.6595874e-11
1.0060914e-10
2.1124036e-10
4.3313322e-10
8.7024106e-10
1.7178967e-09
3.3389929e-09
6.4004564e-09
1.2114848e-08
2.2662167e-08
4.1913792e-08
7.6647792e-08
1.3852859e-07
2.4719469e-07
4.3475955e-07
7.5163292e-07
1.272295e-06
2.0965027e-06
3.3353247e-06
5.0631778e-06
7.2162075e-06
9.4504984e-06
1.1074209e-05
1.125544e-05
9.9037217e-06
7.269552e-06
4.8252638e-06
3.2699323e-06
2.5679692e-06
2.4758617e-06
2.8072209e-06
3.7677656e-06
7.0902807e-06
1.5801105e-05
3.2117058e-05
5.8636553e-05
9.2370117e-05
0.00010890696
0.00010624598
0.00010586407
0.00010905302
0.00011295558
0.00011926913
0.00012914417
0.00014369238
0.00016531317
0.00019680181
0.0002437592
0.0003098701
0.00040696893
0.00051471914
0.00066111977
0.00084012121
1.8837775e-20
3.6636862e-18
9.7582532e-17
9.8925156e-16
5.9822596e-15
2.6501419e-14
9.5679669e-14
2.9933597e-13
8.4307473e-13
2.1922786e-12
5.3558952e-12
1.2448682e-11
2.7784364e-11
5.9967501e-11
1.2584136e-10
2.5784623e-10
5.1757492e-10
1.0204608e-09
1.9802135e-09
3.7877776e-09
7.1495749e-09
1.3325225e-08
2.4527008e-08
4.4570527e-08
7.9888175e-08
1.4100194e-07
2.4441735e-07
4.1447147e-07
6.8364058e-07
1.0878633e-06
1.6509536e-06
2.352055e-06
3.0809437e-06
3.6157391e-06
3.69254e-06
3.3106421e-06
2.6414747e-06
2.0170838e-06
1.5855655e-06
1.4791782e-06
1.6561027e-06
2.0577714e-06
3.1615398e-06
6.5894648e-06
1.4245049e-05
2.8729848e-05
5.2769014e-05
8.3096601e-05
0.00010812822
0.00010552044
0.00010456675
0.00010700693
0.00010974907
0.00011461754
0.00012168046
0.00013219745
0.00014732746
0.00016945
0.0002006063
0.00024621292
0.00030707434
0.00039266591
0.00048633532
0.00063195805
0.00082399588
9.8773814e-21
1.9210111e-18
5.1165945e-17
5.1869135e-16
3.1365715e-15
1.3894379e-14
5.0160244e-14
1.5691177e-13
4.4187746e-13
1.1488087e-12
2.8058871e-12
6.5194121e-12
1.4543917e-11
3.1370843e-11
6.5777364e-11
1.3463073e-10
2.698615e-10
5.3107844e-10
1.0280703e-09
1.9603062e-09
3.6849602e-09
6.8312408e-09
1.2486399e-08
2.2484656e-08
3.9825028e-08
6.9204577e-08
1.1753153e-07
1.9399801e-07
3.0877476e-07
4.6874015e-07
6.6873935e-07
8.7970964e-07
1.042459e-06
1.1011692e-06
1.0656855e-06
9.7626554e-07
8.8020738e-07
8.4475325e-07
9.0194513e-07
1.1665218e-06
1.6791868e-06
2.9470877e-06
6.1325251e-06
1.2733457e-05
2.5547719e-05
4.7368084e-05
7.5005858e-05
0.00010665423
0.00010453069
0.00010283056
0.00010455657
0.00010650577
0.00011024675
0.00011571239
0.00012350883
0.00013494737
0.00015078421
0.0001733496
0.00020427923
0.00024809659
0.0003037435
0.00038198738
0.00046638873
0.0006127092
0.00081103719
4.5089556e-21
8.7692674e-19
2.3356659e-17
2.3677145e-16
1.4317207e-15
6.3418286e-15
2.2892503e-14
7.1602664e-14
2.0160047e-13
5.2398904e-13
1.2793484e-12
2.9711083e-12
6.6239106e-12
1.4275582e-11
2.9899526e-11
6.110893e-11
1.2225981e-10
2.4001503e-10
4.6315193e-10
8.7950515e-10
1.6445102e-09
3.0277265e-09
5.4852391e-09
9.7647293e-09
1.7040855e-08
2.9050566e-08
4.8133956e-08
7.6971929e-08
1.176818e-07
1.6996016e-07
2.2859703e-07
2.8391937e-07
3.3002847e-07
3.6664857e-07
4.0330183e-07
4.377997e-07
4.9044239e-07
6.4217272e-07
9.5275776e-07
1.5483931e-06
2.7955132e-06
5.5166101e-06
1.1160229e-05
2.2691334e-05
4.2584051e-05
6.7759002e-05
9.6709359e-05
0.00010263686
0.00010002017
0.00010140382
0.00010290562
0.00010587557
0.00011019722
0.00011648814
0.00012508525
0.00013707053
0.00015336795
0.00017627013
0.0002066165
0.00024902879
0.00030164556
0.00037491584
0.00045367358
0.00059923405
0.0007973293
1.8764852e-21
3.649486e-19
9.7201972e-18
9.8533568e-17
5.957942e-16
2.6389154e-15
9.5249761e-15
2.9788029e-14
8.3853862e-14
2.1789272e-13
5.3181391e-13
1.2344967e-12
2.750571e-12
5.9232199e-12
1.2393118e-11
2.5295429e-11
5.0521532e-11
9.8964184e-11
1.9043575e-10
3.6034875e-10
6.7077671e-10
1.2280668e-09
2.2093865e-09
3.8995383e-09
6.7351825e-09
1.1343506e-08
1.854443e-08
2.9266384e-08
4.4339811e-08
6.4343386e-08
8.9440431e-08
1.1867194e-07
1.533445e-07
2.0107851e-07
2.6635719e-07
3.6008965e-07
5.4638151e-07
8.7515275e-07
1.4492177e-06
2.5686918e-06
4.8932659e-06
9.8459317e-06
2.0445675e-05
3.8263794e-05
6.1008322e-05
8.7500129e-05
9.9367631e-05
9.6251946e-05
9.762761e-05
9.8912137e-05
0.0001012784
0.00010477358
0.00010996422
0.00011689362
0.00012600896
0.00013876547
0.00015559662
0.00017870558
0.00020883843
0.00025031745
0.00029996487
0.000369342
0.00044356375
0.00059019849
0.00078506006
8.9610657e-22
1.7427945e-19
4.6418342e-18
4.7054385e-17
2.8452217e-16
1.2602387e-15
4.5488642e-15
1.4226492e-14
4.0050033e-14
1.0407715e-13
2.540492e-13
5.8980893e-13
1.3144157e-12
2.8313417e-12
5.9264e-12
1.2103244e-11
2.419303e-11
4.7445506e-11
9.1449582e-11
1.7345097e-10
3.2395745e-10
5.95957e-10
1.0795756e-09
1.9244092e-09
3.3717368e-09
5.797911e-09
9.7684037e-09
1.6102556e-08
2.5956294e-08
4.0889086e-08
6.2884539e-08
9.4706194e-08
1.4107753e-07
2.1171639e-07
3.2041396e-07
5.0764518e-07
8.1306892e-07
1.3346511e-06
2.3339348e-06
4.3964602e-06
8.8472351e-06
1.8401758e-05
3.4237894e-05
5.4922047e-05
7.9412131e-05
9.5260565e-05
9.2245402e-05
9.3361342e-05
9.4375536e-05
9.6313465e-05
9.9179934e-05
0.00010357008
0.00010933727
0.00011682655
0.00012669494
0.00013993406
0.0001571228
0.00018059677
0.00021031358
0.00025068999
0.00029846586
0.00036597163
0.00043801373
0.00058515006
0.00077384835
7.4394573e-22
1.4468688e-19
3.853715e-18
3.9066864e-17
2.362439e-16
1.0465418e-15
3.7782929e-15
1.1819998e-14
3.3288814e-14
8.6554564e-14
2.114334e-13
4.9135431e-13
1.0964333e-12
2.365851e-12
4.963233e-12