/*--------------------------------*- C++ -*----------------------------------*\
  =========                 |
  \\      /  F ield         | OpenFOAM: The Open Source CFD Toolbox
   \\    /   O peration     | Website:  https://openfoam.org
    \\  /    A nd           | Version:  13
     \\/     M anipulation  |
\*---------------------------------------------------------------------------*/
FoamFile
{
    format      ascii;
    class       volVectorField;
    location    "37.402192";
    object      UMean;
}
// * * * * * * * * * * * * * * * * * * * * * * * * * * * * * * * * * * * * * //

dimensions      [0 1 -1 0 0 0 0];

internalField   nonuniform List<vector> 
17140
(
(-1.8064889e-06 8.2679887e-05 -8.4738501e-23)
(-2.0928743e-05 0.00025483469 -6.7233511e-24)
(-6.2006201e-05 0.00044342707 4.4453832e-22)
(-0.0001334659 0.00064949809 -4.8898342e-22)
(-0.00024312089 0.00087413545 5.7204108e-23)
(-0.00040159042 0.0011183321 -1.8731267e-22)
(-0.00062195976 0.0013829481 -3.1562297e-22)
(-0.00092005899 0.0016686493 1.5444028e-22)
(-0.0013149868 0.0019758323 5.0598151e-22)
(-0.0018296243 0.0023045337 1.2432107e-21)
(-0.0024911646 0.0026543248 -1.8484466e-21)
(-0.0033316335 0.0030241925 1.6521817e-21)
(-0.0043883735 0.0034124089 2.5345067e-22)
(-0.0057044352 0.003816395 -1.4427482e-21)
(-0.0073288136 0.0042325901 1.6095682e-22)
(-0.0093164455 0.0046563368 -1.2844059e-21)
(-0.011727878 0.0050818085 4.8518684e-23)
(-0.014628521 0.0055019981 -1.0526351e-23)
(-0.018087401 0.0059088021 -7.800922e-22)
(-0.022175399 0.0062932305 1.0243038e-21)
(-0.026963005 0.0066457693 -4.9833759e-22)
(-0.032517779 0.0069569097 9.7154422e-23)
(-0.038901772 0.0072178286 7.2033555e-22)
(-0.046169537 0.0074211971 -7.2570586e-22)
(-0.054367892 0.007562067 -1.169394e-21)
(-0.06353568 0.0076388142 9.5375854e-22)
(-0.073702569 0.0076539355 4.7284846e-21)
(-0.084896665 0.0076139257 5.5864114e-22)
(-0.097144957 0.0075287769 -5.002882e-21)
(-0.1104771 0.0074100475 -1.1768124e-21)
(-0.12492075 0.0072654992 -4.254302e-21)
(-0.1404937 0.0070973361 5.6754953e-21)
(-0.15721221 0.0069041084 -1.4874742e-21)
(-0.17508301 0.0066825759 -7.220401e-22)
(-0.19410222 0.0064283766 -7.116558e-21)
(-0.21425071 0.0061360948 3.1634534e-21)
(-0.23548752 0.0057996101 -4.7699475e-21)
(-0.25774066 0.0054123887 -3.2347977e-21)
(-0.28089624 0.0049677642 -1.4778219e-21)
(-0.30478629 0.0044602671 4.4946636e-21)
(-0.32917757 0.003886911 8.4291838e-21)
(-0.35376091 0.0032483914 7.5948633e-21)
(-0.37813898 0.0025474806 3.2900587e-21)
(-0.40182036 0.0017865727 -1.5706232e-20)
(-0.42421955 0.00096651123 -1.1296204e-20)
(-0.44465487 8.9386722e-05 2.7337425e-21)
(-0.46242657 -0.00084502561 -1.8245331e-20)
(-0.47686426 -0.0018410965 -6.0838776e-21)
(-0.48718756 -0.0028965349 6.0980978e-21)
(-0.49283867 -0.003981317 1.4716383e-20)
(-0.49329446 -0.0050544875 -8.9725615e-21)
(-0.48814447 -0.0060780019 -5.6330549e-21)
(-0.47691984 -0.0070290309 1.4642994e-20)
(-0.45928753 -0.0078519289 6.9369559e-21)
(-0.43467017 -0.008418976 4.9894876e-21)
(-0.40277387 -0.0085593766 -3.9306503e-21)
(-0.36298783 -0.0080737886 1.0903321e-20)
(-0.3150839 -0.0067215412 9.2619206e-21)
(-0.25776667 -0.004307044 2.3825655e-21)
(-0.19144593 -0.00088593683 -6.2142404e-21)
(-0.11328225 0.0029027055 -5.0122958e-21)
(-0.026682057 0.0050505404 -1.9002472e-20)
(0.072770595 0.0031867878 -2.8597542e-21)
(0.17012898 -0.0024246932 2.4397426e-20)
(0.28005411 -0.0095813731 -1.9301842e-20)
(-1.6573393e-05 0.00038757311 2.4023369e-23)
(-6.614864e-05 0.0011941107 -2.327115e-21)
(-0.00014013459 0.0020770959 2.0715209e-21)
(-0.00024702836 0.0030414643 -5.6518881e-22)
(-0.00039466622 0.0040920507 -1.1679528e-21)
(-0.00059363942 0.0052332156 2.233203e-21)
(-0.00085693577 0.0064686349 -2.3306314e-21)
(-0.0012002181 0.0078009974 2.0536962e-22)
(-0.001642311 0.0092316276 -6.4209742e-22)
(-0.0022057063 0.010760047 -1.069903e-23)
(-0.0029170702 0.012383465 -2.1529761e-21)
(-0.0038077441 0.014096212 3.4323068e-21)
(-0.0049142127 0.015889118 2.8442783e-22)
(-0.0062784833 0.017748892 -2.8198011e-21)
(-0.0079483179 0.019657539 8.7112572e-22)
(-0.0099772402 0.021591895 5.5633686e-22)
(-0.01242423 0.023523405 -3.5489262e-21)
(-0.015353018 0.025418267 1.1652131e-20)
(-0.018830915 0.027238129 -7.3572512e-21)
(-0.022927131 0.028941475 8.8905274e-21)
(-0.027710646 0.030485866 -1.3267452e-20)
(-0.033247781 0.031831026 3.288158e-21)
(-0.03959973 0.032942639 1.3717848e-21)
(-0.04682061 0.033796422 -4.5242887e-21)
(-0.054957182 0.034381806 1.6484038e-20)
(-0.06404888 0.034704444 2.4741921e-21)
(-0.074125842 0.034786183 -1.3072204e-20)
(-0.085216693 0.034659819 1.4817864e-20)
(-0.097349022 0.034362943 -2.0906454e-21)
(-0.11055215 0.033929263 -2.0450875e-20)
(-0.12485319 0.033384605 2.1656943e-21)
(-0.14026895 0.032745152 1.660301e-20)
(-0.15681443 0.032019522 3.9330189e-22)
(-0.17449454 0.031211681 -1.263926e-20)
(-0.19330289 0.030321161 1.4253532e-20)
(-0.21321727 0.029341966 -6.453145e-21)
(-0.23419289 0.028262044 7.7037261e-21)
(-0.25615312 0.027063751 2.4491318e-20)
(-0.27897854 0.025725087 5.4617981e-21)
(-0.30249515 0.024222238 2.1388632e-20)
(-0.32646258 0.022532664 -2.7413428e-20)
(-0.35056285 0.020636696 -2.4964276e-20)
(-0.37438767 0.018517281 -4.1721127e-21)
(-0.39742965 0.016159255 3.3610561e-20)
(-0.41907966 0.01355315 -1.5523051e-20)
(-0.43863131 0.010706986 -5.2750816e-21)
(-0.45533663 0.0076487932 2.847142e-21)
(-0.4684823 0.0044087667 8.623999e-21)
(-0.47737021 0.0010339074 -4.1636776e-21)
(-0.4813661 -0.0023912902 7.4195107e-21)
(-0.47994685 -0.0058000288 4.4348271e-20)
(-0.47268818 -0.0091420435 2.1185011e-21)
(-0.45916859 -0.012378797 -9.5141797e-21)
(-0.43903771 -0.015463895 2.1219392e-20)
(-0.41182436 -0.018292483 -1.8264205e-20)
(-0.37724148 -0.020708289 5.2475528e-20)
(-0.33465368 -0.022543353 1.517015e-20)
(-0.28391943 -0.023606798 -4.3770637e-20)
(-0.22379293 -0.023725763 7.5167659e-21)
(-0.15466249 -0.023020349 8.858188e-21)
(-0.073813964 -0.021929015 1.8311929e-21)
(0.015262021 -0.022369236 -2.4722972e-20)
(0.11779821 -0.0255667 4.9577228e-20)
(0.21786554 -0.031900688 1.5012587e-20)
(0.33008648 -0.038474318 2.5670277e-20)
(-4.8035079e-05 0.00068612752 1.3233593e-21)
(-0.00016229813 0.0021140867 -7.001998e-22)
(-0.00030622307 0.0036775448 -1.8625293e-22)
(-0.00048825656 0.00538538 1.7677348e-22)
(-0.00071632981 0.0072462336 -8.5682124e-22)
(-0.0010009238 0.0092679471 -6.3562951e-23)
(-0.0013547829 0.011457162 -8.1533053e-22)
(-0.0017931561 0.013818774 -8.7941696e-22)
(-0.0023342173 0.016355306 7.2042093e-21)
(-0.0029995676 0.019066117 -6.4456466e-21)
(-0.0038146693 0.021946494 3.0926617e-21)
(-0.0048093193 0.024986643 4.5441489e-21)
(-0.0060180782 0.02817059 -9.0471365e-21)
(-0.0074806286 0.031475053 -1.1236662e-21)
(-0.0092420001 0.034868391 4.367433e-21)
(-0.0113526 0.038309755 3.0203367e-21)
(-0.013867967 0.04174865 -3.5283349e-21)
(-0.016848169 0.045125164 1.2875699e-20)
(-0.020356779 0.048371154 -7.6861567e-21)
(-0.024459401 0.051412714 3.8359411e-21)
(-0.029221768 0.054174156 -1.309309e-20)
(-0.034707565 0.056583585 -3.4465169e-21)
(-0.040976178 0.058579775 7.2867565e-21)
(-0.048080828 0.060119593 -1.110329e-20)
(-0.056068166 0.061184672 -4.4143552e-21)
(-0.064978777 0.061785738 5.4163288e-21)
(-0.074843764 0.061962338 3.1074067e-20)
(-0.085693014 0.061773334 1.4202447e-20)
(-0.097554705 0.061283648 -7.2609165e-21)
(-0.11045741 0.06054994 7.7613293e-21)
(-0.12442775 0.05961692 -5.0231809e-21)
(-0.13948018 0.058515458 -2.8417677e-20)
(-0.15562697 0.057264642 9.635609e-21)
(-0.17286916 0.055875721 2.9025192e-20)
(-0.19119513 0.054352113 -9.9123586e-21)
(-0.2105759 0.052687368 -1.3892419e-20)
(-0.23095822 0.050863653 2.423059e-20)
(-0.25225509 0.048852181 7.375642e-21)
(-0.27433454 0.046615552 -1.3327022e-20)
(-0.29700759 0.044111351 -5.3848816e-21)
(-0.32001593 0.04129656 2.5668884e-20)
(-0.34301907 0.038129832 -7.3760521e-21)
(-0.36557997 0.034572101 -1.0540706e-20)
(-0.38715549 0.03058837 -2.7732611e-20)
(-0.40709168 0.026157317 5.2420465e-20)
(-0.4246381 0.02129426 -3.3492922e-20)
(-0.43902522 0.016067157 -8.2387989e-21)
(-0.44949814 0.010558091 -3.270002e-20)
(-0.4553496 0.0048465531 -3.8879291e-20)
(-0.45597486 -0.0009281643 -1.9476824e-21)
(-0.45090442 -0.006644292 8.159926e-21)
(-0.43977117 -0.012236486 -6.063094e-20)
(-0.42221614 -0.017682606 -2.5944101e-20)
(-0.39791234 -0.022953039 -2.6853222e-20)
(-0.36644888 -0.027957477 -8.8696576e-21)
(-0.32756992 -0.0325582 -7.0000974e-20)
(-0.28070352 -0.036608062 2.8114724e-20)
(-0.22578412 -0.039962044 -8.8197504e-21)
(-0.16148266 -0.0424744 -7.3668601e-20)
(-0.088315956 -0.044332195 -2.9925664e-20)
(-0.0034814584 -0.045712884 3.6704825e-20)
(0.089340814 -0.048622173 1.2941383e-19)
(0.19561073 -0.052900894 -4.2610884e-20)
(0.29758727 -0.059592264 -6.9568169e-20)
(0.41035348 -0.064823434 -3.0464786e-20)
(-9.5224681e-05 0.000968317 -4.4092937e-21)
(-0.00030648127 0.0029841132 5.0128253e-21)
(-0.00055528535 0.0051918509 -1.8133368e-21)
(-0.0008499753 0.007604357 1.9729612e-22)
(-0.0011986091 0.010234108 -3.9015406e-21)
(-0.001611524 0.013092523 4.041316e-21)
(-0.00210109 0.016189414 -6.1360971e-21)
(-0.002681905 0.019532245 2.8927637e-21)
(-0.003371188 0.023125217 1.1013676e-20)
(-0.0041891692 0.026968173 -2.6556899e-21)
(-0.0051595031 0.031055316 -1.0137736e-20)
(-0.0063096453 0.035373782 3.106911e-21)
(-0.0076712448 0.039902063 2.096173e-22)
(-0.0092804587 0.044608379 -8.2012405e-21)
(-0.011178169 0.049449118 2.5819303e-20)
(-0.01341004 0.054367544 -1.5966998e-20)
(-0.016026357 0.059293044 -1.5308843e-22)
(-0.01908157 0.06414127 8.9914507e-21)
(-0.022633498 0.068815645 -2.3085692e-20)
(-0.026742146 0.073210643 1.103604e-20)
(-0.031468163 0.077217288 1.6685041e-20)
(-0.036871035 0.080730997 6.8464447e-21)
(-0.043007185 0.083661427 -3.4475504e-20)
(-0.049928276 0.085943345 -1.8303019e-20)
(-0.057680631 0.08754658 1.2083478e-20)
(-0.066306183 0.088482672 -7.1351919e-21)
(-0.075837813 0.088805457 2.7322116e-20)
(-0.086307206 0.088599072 -7.9721318e-21)
(-0.09774288 0.087954805 2.1889595e-20)
(-0.11017289 0.086953835 -1.2614055e-20)
(-0.12362334 0.085660474 7.8805421e-21)
(-0.13810513 0.084121215 -2.9498765e-20)
(-0.1536264 0.082366311 4.3288837e-21)
(-0.17018248 0.080414428 -2.2961849e-20)
(-0.18775422 0.078272948 2.2331174e-20)
(-0.20630285 0.075935072 7.1132938e-21)
(-0.22576265 0.073377273 -9.1215031e-20)
(-0.24603132 0.070559678 -2.3903496e-20)
(-0.26695852 0.067429209 2.0043163e-20)
(-0.28833357 0.063924524 -1.9779606e-20)
(-0.30987232 0.059981248 5.0250391e-21)
(-0.33120258 0.055534982 3.1919561e-20)
(-0.351849 0.050523208 -1.5097732e-21)
(-0.37122344 0.044891037 -1.0482413e-20)
(-0.38862291 0.038608875 5.2121924e-21)
(-0.40326552 0.031708725 -2.2822265e-21)
(-0.4143812 0.024295832 -7.0799125e-21)
(-0.42119647 0.01650704 1.1080436e-19)
(-0.42304279 0.0084878953 -1.2252541e-20)
(-0.41939494 0.000439804 1.1286167e-20)
(-0.40987607 -0.0074768504 -1.0564098e-19)
(-0.39419539 -0.015187304 5.7956095e-20)
(-0.37204826 -0.022686892 4.7594977e-20)
(-0.34314435 -0.029969276 4.5736101e-20)
(-0.30710946 -0.036963806 4.4472945e-20)
(-0.26374814 -0.043560585 7.0805745e-20)
(-0.2125188 -0.049633595 -1.4343333e-19)
(-0.1533681 -0.055124269 8.9901484e-20)
(-0.084878185 -0.059887413 1.3973905e-19)
(-0.0076523925 -0.064185436 -1.0458422e-19)
(0.08139797 -0.067925111 -3.4434288e-20)
(0.17808303 -0.073124198 -3.1202388e-20)
(0.2869727 -0.078025063 1.6058304e-19)
(0.38922011 -0.084546019 1.2005141e-19)
(0.49919932 -0.087673939 -5.4590435e-21)
(-0.00015605969 0.0012241443 3.0837982e-21)
(-0.00049239562 0.0037735586 -7.295501e-21)
(-0.00087647404 0.0065669971 5.9509312e-21)
(-0.0013165053 0.0096211824 -2.2504098e-21)
(-0.001820741 0.012952433 -8.1355151e-22)
(-0.0023993349 0.016575881 7.0088753e-21)
(-0.0030641905 0.020504779 -1.7785468e-21)
(-0.0038291013 0.024749587 -3.7815694e-21)
(-0.0047100665 0.029316833 -2.9105191e-22)
(-0.005725592 0.034207751 -2.4768826e-21)
(-0.0068970079 0.039416678 3.4791517e-21)
(-0.008248779 0.044929217 -2.4284368e-21)
(-0.0098088097 0.050720222 -8.9886339e-21)
(-0.011608703 0.056751661 -2.6114946e-22)
(-0.013683957 0.062970518 6.9638645e-21)
(-0.016074042 0.069306986 4.9728434e-21)
(-0.018822337 0.075673239 -4.3188933e-21)
(-0.021975843 0.081963311 4.2284852e-22)
(-0.025584667 0.088054575 8.6335363e-21)
(-0.029701208 0.09381153 1.0661796e-20)
(-0.03437908 0.099092386 -1.2363613e-20)
(-0.039671802 0.10375882 -1.2654616e-20)
(-0.045631386 0.10768861 1.7339721e-20)
(-0.052306962 0.11078989 -2.1840751e-20)
(-0.059744059 0.11301488 -3.8495431e-20)
(-0.067985418 0.11436956 9.2483586e-20)
(-0.077067374 0.11491623 -5.182328e-20)
(-0.087022976 0.11476123 7.794349e-20)
(-0.0978807 0.11402186 -9.8948748e-20)
(-0.10966984 0.11280656 1.1203303e-19)
(-0.12241484 0.11119908 -1.1742709e-19)
(-0.13612295 0.10926275 2.0102882e-20)
(-0.15079667 0.1070403 6.9910608e-20)
(-0.16642443 0.10455828 -3.9893263e-20)
(-0.18297778 0.10182826 1.2631152e-20)
(-0.20040577 0.098843078 3.7848929e-21)
(-0.21862733 0.095573605 4.6142518e-20)
(-0.2375215 0.091969021 1.502775e-20)
(-0.25691598 0.087960718 1.5086984e-20)
(-0.27657475 0.083468114 1.5189934e-20)
(-0.29618372 0.078404545 -7.7523921e-20)
(-0.31533503 0.072681023 3.3983397e-20)
(-0.33351268 0.0662108 5.1745473e-21)
(-0.35008499 0.058920479 -6.1530909e-20)
(-0.36431183 0.050779223 -3.0751465e-20)
(-0.37540854 0.041847733 1.514159e-20)
(-0.38263022 0.032281706 5.3803627e-20)
(-0.38524981 0.022267601 -2.3403061e-20)
(-0.38267007 0.012027282 6.6992622e-20)
(-0.37445915 0.0018269554 3.6100366e-20)
(-0.360313 -0.0081378198 4.9714017e-20)
(-0.33999503 -0.017800757 1.3252705e-19)
(-0.31321784 -0.027189796 -1.0283739e-19)
(-0.27969283 -0.036325932 3.3259652e-20)
(-0.23906387 -0.045149454 -5.8505317e-20)
(-0.19117948 -0.053569616 -5.6144382e-20)
(-0.13552111 -0.061497676 -2.2127038e-20)
(-0.072033585 -0.068976374 -2.0812694e-19)
(0.00087868226 -0.075839092 -5.7474087e-20)
(0.082471191 -0.082479671 1.3446477e-19)
(0.17619211 -0.088370446 5.1987307e-20)
(0.27643257 -0.095418137 -4.0461663e-20)
(0.38644915 -0.10043144 -8.5707689e-20)
(0.48734813 -0.10594144 -1.344829e-19)
(0.59103886 -0.10623719 1.0774199e-20)
(-0.00022733926 0.0014440256 9.3191982e-21)
(-0.00071030512 0.0044530258 2.335395e-21)
(-0.0012530355 0.007752046 -1.8932341e-21)
(-0.00186362 0.011361587 -6.9933097e-21)
(-0.0025505659 0.015301754 3.8346637e-21)
(-0.0033238494 0.019591492 -5.5261267e-21)
(-0.0041948726 0.024247773 2.3946032e-21)
(-0.0051765388 0.029284558 5.7126668e-22)
(-0.0062834728 0.034711484 -3.2415178e-21)
(-0.0075322178 0.040532294 -7.0056805e-21)
(-0.0089414488 0.046742955 -3.5124301e-22)
(-0.010532181 0.053329489 1.1611269e-20)
(-0.012327971 0.060265545 -1.6147852e-20)
(-0.014355105 0.067509766 2.6253022e-20)
(-0.016642736 0.07500316 -6.9169098e-21)
(-0.019222984 0.082666646 1.4830803e-20)
(-0.022130937 0.090399251 -1.8142505e-20)
(-0.025404549 0.098077408 1.1937114e-20)
(-0.029084418 0.10555609 -1.9181188e-21)
(-0.033213387 0.11267258 -7.9058007e-21)
(-0.037836006 0.11925363 1.9569781e-20)
(-0.04299784 0.12512658 -2.8192996e-20)
(-0.048744673 0.13013435 3.1317739e-20)
(-0.055121656 0.13415303 5.4690169e-21)
(-0.062172604 0.1371097 -5.5182166e-20)
(-0.069940206 0.13899614 5.6993587e-20)
(-0.078464998 0.1398742 -3.7892119e-20)
(-0.08778099 0.13986559 4.3332329e-20)
(-0.097918377 0.1391157 4.0930747e-21)
(-0.10890773 0.13776123 2.574767e-21)
(-0.12077027 0.13590587 -1.8205447e-20)
(-0.13351173 0.13363146 1.1568446e-21)
(-0.147127 0.13099515 -7.0487636e-20)
(-0.16159701 0.12803225 1.9433053e-20)
(-0.17688269 0.12475879 5.8472344e-20)
(-0.19291947 0.12116748 -2.764314e-20)
(-0.20960937 0.11722401 2.300585e-20)
(-0.22681125 0.11286717 -2.3152289e-20)
(-0.24432956 0.10801322 -1.2987874e-19)
(-0.26190151 0.10256212 7.209345e-20)
(-0.27918216 0.096404001 1.7594612e-20)
(-0.2957288 0.089424643 -9.9599332e-20)
(-0.31098964 0.081513875 6.0063875e-21)
(-0.32430165 0.072584043 1.2237599e-20)
(-0.33491376 0.062612965 1.2910282e-19)
(-0.34208449 0.051701957 2.9560341e-20)
(-0.34511428 0.04006288 -4.5822436e-20)
(-0.34337281 0.02792849 -4.630019e-20)
(-0.33633409 0.015596379 -6.4986335e-20)
(-0.32361878 0.0033873766 -7.9296546e-20)
(-0.30494583 -0.0084756247 -4.8020434e-20)
(-0.28009997 -0.019939626 -7.4967687e-20)
(-0.24878342 -0.031069658 2.5731399e-20)
(-0.21069655 -0.041909215 -1.5904423e-19)
(-0.16547855 -0.052400272 -1.0670944e-20)
(-0.11299871 -0.062474065 -9.3876038e-21)
(-0.052708591 -0.07207501 -5.0636913e-21)
(0.015488135 -0.081385604 2.2369432e-19)
(0.093391887 -0.090172178 8.9672357e-20)
(0.18001684 -0.099013516 -1.4122924e-19)
(0.27856853 -0.10670675 -2.0895877e-19)
(0.38172889 -0.11490947 -9.6059762e-20)
(0.49104442 -0.11937376 -3.2244036e-20)
(0.58824277 -0.12306041 1.91061e-19)
(0.68249874 -0.11970516 -4.9216539e-20)
(-0.00030479627 0.0016194287 -1.7438364e-21)
(-0.00094738146 0.0049962353 -3.9207944e-21)
(-0.001662789 0.0087013662 9.4698402e-21)
(-0.0024592171 0.012758851 -3.529204e-22)
(-0.0033454233 0.017192464 -4.6202144e-21)
(-0.0043312562 0.022024994 -2.0388992e-21)
(-0.005427643 0.027277371 -1.5079239e-21)
(-0.0066465989 0.032967548 2.9780875e-21)
(-0.0080013412 0.039109096 -1.5456712e-20)
(-0.0095063757 0.045709475 1.1704067e-20)
(-0.011177592 0.052767972 -5.6735865e-22)
(-0.013032345 0.060273257 -7.1455022e-21)
(-0.015089544 0.06820061 2.6897547e-20)
(-0.017369728 0.076508847 -2.7004544e-20)
(-0.019895134 0.085137126 3.6329487e-21)
(-0.022689761 0.094001836 2.2690232e-20)
(-0.025779423 0.10299401 -2.1603193e-20)
(-0.029191794 0.11197779 7.6665427e-21)
(-0.032956446 0.12079083 -1.5124484e-20)
(-0.037104888 0.12924742 1.9768057e-20)
(-0.041670587 0.13714556 3.7856737e-20)
(-0.046688977 0.14427869 -3.8288797e-20)
(-0.052197409 0.1504523 -5.7295704e-20)
(-0.058235013 0.15550467 1.1300404e-19)
(-0.064842332 0.1593288 -9.2584105e-20)
(-0.072061048 0.16189121 5.4830409e-20)
(-0.079934111 0.16324156 -1.4441065e-20)
(-0.088499068 0.16350689 3.4677754e-20)
(-0.097788799 0.16285973 -3.6213492e-20)
(-0.10783195 0.1614647 -4.9442449e-20)
(-0.11864955 0.15945032 3.3459369e-20)
(-0.13024701 0.15691737 5.595003e-20)
(-0.14261009 0.15393934 -5.0496989e-21)
(-0.15571195 0.15056223 -2.1387026e-21)
(-0.16950221 0.14680745 -3.7387035e-20)
(-0.18390213 0.14266836 1.6334294e-20)
(-0.19879652 0.13810629 6.0344818e-20)
(-0.21402399 0.13305049 3.0446293e-20)
(-0.22936572 0.12740244 -4.6979853e-20)
(-0.24453264 0.12104269 3.7371435e-20)
(-0.25915069 0.11383797 -3.1596541e-20)
(-0.27274715 0.10564968 1.0745321e-20)
(-0.28474509 0.096347256 4.0104803e-20)
(-0.29447112 0.085836759 -9.537291e-20)
(-0.30119924 0.074117445 -5.6350314e-20)
(-0.30426907 0.061337178 -3.6217875e-20)
(-0.30305973 0.047756617 1.1226137e-19)
(-0.29703429 0.033650103 7.1994641e-20)
(-0.28569627 0.019364236 8.3527321e-20)
(-0.26864674 0.0052724962 1.4434739e-19)
(-0.24560189 -0.0083652002 -4.9420468e-20)
(-0.21635351 -0.021505395 1.0401793e-20)
(-0.18057967 -0.03425385 8.2640593e-20)
(-0.13797238 -0.04667806 2.4383604e-19)
(-0.088148311 -0.058711932 1.6244868e-19)
(-0.030986083 -0.070313011 6.492606e-20)
(0.034244425 -0.081448607 1.9302205e-19)
(0.10768517 -0.092458301 -1.3341602e-19)
(0.19116246 -0.1030028 1.4050007e-20)
(0.28338981 -0.11369324 2.27557e-19)
(0.38638203 -0.12267709 1.5902018e-19)
(0.4916607 -0.13110035 7.6037986e-21)
(0.59813512 -0.13428743 -2.6858593e-19)
(0.68863192 -0.13535315 2.8598548e-20)
(0.77053451 -0.12788427 -4.2296442e-20)
(-0.00038337221 0.0017433941 -6.8165893e-21)
(-0.0011881758 0.005381655 3.2395731e-21)
(-0.0020790952 0.009377408 -4.3792368e-21)
(-0.0030646633 0.013757842 -2.4910476e-21)
(-0.0041538914 0.018550166 6.9598364e-21)
(-0.00535658 0.023780942 6.5058938e-21)
(-0.0066832648 0.029475186 -6.6882466e-21)
(-0.0081451639 0.035655254 8.0606545e-22)
(-0.0097541826 0.042339401 1.8718327e-22)
(-0.011522888 0.04954 1.3355408e-20)
(-0.013464474 0.05726137 -1.4727448e-21)
(-0.015592712 0.06549716 -2.7183594e-20)
(-0.017921902 0.074227329 2.1869143e-20)
(-0.02046681 0.083414702 -7.6078479e-22)
(-0.023242636 0.09300125 -1.4904036e-20)
(-0.026264995 0.1029043 -1.2976012e-21)
(-0.02954996 0.11301304 3.3415292e-21)
(-0.03311419 0.12318596 1.5283557e-20)
(-0.036975175 0.13324997 -2.8469748e-20)
(-0.041151632 0.14300241 5.0999423e-20)
(-0.045664093 0.15221711 -1.1240167e-20)
(-0.050535605 0.16065575 8.42649e-21)
(-0.055792556 0.16808527 -7.115996e-21)
(-0.061465414 0.17430077 2.8726791e-22)
(-0.067589092 0.17915163 -4.4103722e-20)
(-0.074202728 0.18256608 -4.5000319e-20)
(-0.081348957 0.18456719 9.104138e-20)
(-0.089071081 0.1852729 1.5449773e-20)
(-0.097404267 0.18487125 -5.4967359e-20)
(-0.10637459 0.18356177 -1.9898196e-20)
(-0.11600523 0.18150412 -4.5611527e-20)
(-0.1263009 0.17881493 5.239853e-20)
(-0.13724116 0.17558723 2.3224407e-20)
(-0.14878922 0.17188124 -5.4743631e-20)
(-0.16088354 0.16772521 2.333051e-20)
(-0.17343156 0.16311471 1.0973388e-20)
(-0.18630134 0.15800806 -3.3307224e-20)
(-0.19931188 0.15232606 -8.7576665e-20)
(-0.21222198 0.14595624 -2.667183e-20)
(-0.22471774 0.13876021 1.7954641e-20)
(-0.23639932 0.13058251 4.2632753e-20)
(-0.24677149 0.12126294 4.3922226e-20)
(-0.25524619 0.11065669 4.8375532e-20)
(-0.26116314 0.098673737 1.0082079e-19)
(-0.26385706 0.085346631 -2.7188838e-21)
(-0.26276256 0.070872409 4.1858283e-20)
(-0.25735363 0.055539312 -2.2332416e-19)
(-0.24713718 0.039640353 -6.1160604e-20)
(-0.23158144 0.023547177 -6.9228233e-20)
(-0.21026235 0.0076942989 -1.9015809e-19)
(-0.18292106 -0.0076031798 2.2090712e-19)
(-0.14934965 -0.022311527 -4.9201119e-20)
(-0.10919209 -0.036574971 -1.5853798e-19)
(-0.062110235 -0.050478941 -1.962758e-19)
(-0.0076700636 -0.063947611 -2.5284317e-20)
(0.05433525 -0.076985245 6.4413762e-20)
(0.12483491 -0.089568884 1.0574725e-19)
(0.20391594 -0.10216392 -4.5477912e-20)
(0.29332636 -0.11425935 8.3891278e-20)
(0.39147807 -0.12635252 -7.1667487e-20)
(0.49847662 -0.13595357 -2.4796256e-20)
(0.60436783 -0.14357784 -7.5101246e-20)
(0.70524254 -0.14449968 3.3497461e-19)
(0.78555904 -0.14235027 1.1251322e-20)
(0.85194095 -0.13053451 1.3879841e-19)
(-0.00045750696 0.0018111162 6.3371659e-21)
(-0.0014155417 0.0055943369 1.1907213e-21)
(-0.0024724164 0.0097538966 -1.3094275e-21)
(-0.0036370442 0.014319665 -6.4409324e-21)
(-0.004918751 0.019321906 7.7325656e-21)
(-0.0063273819 0.024790712 -6.5746928e-21)
(-0.0078732067 0.030755152 -3.1467648e-21)
(-0.0095668145 0.037242215 1.6925105e-22)
(-0.011419013 0.044275414 2.6686952e-21)
(-0.01344069 0.051873043 1.5220044e-20)
(-0.015642659 0.060045999 -2.5647738e-20)
(-0.018035467 0.068795136 3.0952397e-20)
(-0.020629192 0.078108087 -9.139643e-21)
(-0.02343324 0.087955574 -1.2483465e-20)
(-0.026456152 0.098287272 1.9298135e-20)
(-0.029705465 0.10902735 -3.8400957e-20)
(-0.033187671 0.1200701 4.7064244e-20)
(-0.036908327 0.13127605 7.4691093e-22)
(-0.040872402 0.14246959 2.7752788e-20)
(-0.045084919 0.15343912 -1.1213231e-19)
(-0.049551976 0.1639413 2.769743e-20)
(-0.054282139 0.17371087 1.1702621e-19)
(-0.059288131 0.18247745 -5.6621524e-20)
(-0.064588603 0.18998954 -6.9140074e-20)
(-0.070209564 0.196044 1.7822153e-20)
(-0.076184872 0.20051664 9.5331264e-20)
(-0.082555237 0.20338634 -1.4782509e-19)
(-0.089365358 0.20474334 1.674066e-19)
(-0.096657024 0.20477233 -1.3444031e-19)
(-0.10445815 0.20370331 2.6240428e-20)
(-0.11278521 0.2017411 -4.5714831e-20)
(-0.12164529 0.19902726 -6.6088569e-20)
(-0.13101803 0.19566508 2.6577583e-20)
(-0.14085529 0.19173348 7.0268316e-21)
(-0.15108554 0.18727364 1.0068145e-19)
(-0.16160194 0.18228584 -1.9903258e-20)
(-0.17225651 0.176727 5.1286189e-20)
(-0.18284941 0.17051077 -4.367419e-20)
(-0.19311804 0.16351193 2.6240748e-20)
(-0.2027254 0.15557459 1.7053831e-20)
(-0.21124962 0.14652385 1.461325e-20)
(-0.21818093 0.13618303 1.4518242e-20)
(-0.22293376 0.12440167 -8.811992e-20)
(-0.22487947 0.11110508 -6.8771481e-20)
(-0.22343527 0.096366689 1.9327624e-20)
(-0.21811298 0.080428417 -1.203351e-20)
(-0.20846286 0.06357719 4.999765e-20)
(-0.19397276 0.046095096 -9.7863421e-20)
(-0.17408417 0.028372231 -1.1270075e-19)
(-0.14843973 0.010916459 -3.2396604e-20)
(-0.11683775 -0.0059053104 -8.498141e-20)
(-0.079036551 -0.022067003 2.7143752e-21)
(-0.034598235 -0.0377493 4.1184651e-20)
(0.01688814 -0.053059207 2.008096e-19)
(0.075975479 -0.067906692 -1.0130914e-19)
(0.14304083 -0.082341553 4.1400963e-20)
(0.21902189 -0.096317232 -1.2336455e-19)
(0.30410637 -0.11034572 2.1107146e-19)
(0.40010758 -0.12374113 -1.2342744e-19)
(0.50457451 -0.13655021 4.3571849e-20)
(0.61464809 -0.14577136 -5.3801059e-23)
(0.7183067 -0.15148332 3.5798009e-20)
(0.80975765 -0.14936449 1.3618625e-19)
(0.87578941 -0.14374842 -2.6051919e-19)
(0.9234199 -0.1281675 2.7148757e-19)
(-0.0005214713 0.0018204711 -1.4018188e-20)
(-0.0016119223 0.0056274821 -6.7363044e-21)
(-0.0028123908 0.0098185803 1.0583792e-20)
(-0.0041321846 0.014425695 -2.7884444e-22)
(-0.0055809851 0.019481591 -9.5907533e-21)
(-0.0071687729 0.025019456 -5.0223692e-21)
(-0.0089057023 0.031072143 1.0607703e-20)
(-0.010801953 0.03767123 -1.745423e-21)
(-0.012867535 0.044845757 2.4690567e-20)
(-0.015112058 0.052620609 -4.8305949e-21)
(-0.017544454 0.061014457 -1.2402127e-22)
(-0.020172656 0.070037185 1.7946386e-20)
(-0.02300325 0.079686743 -5.7911972e-20)
(-0.026041096 0.089945343 2.7211398e-20)
(-0.02928897 0.10077507 4.9242957e-20)
(-0.032747239 0.11211289 -5.3107987e-20)
(-0.03641366 0.12386543 6.6245342e-21)
(-0.040283363 0.13590379 -3.8277772e-20)
(-0.044349145 0.14805939 -2.8967411e-20)
(-0.04860219 0.1601218 9.305216e-20)
(-0.053033335 0.17184026 -7.1493448e-20)
(-0.057634997 0.18293076 9.6455753e-20)
(-0.062403651 0.19309067 -1.1643135e-20)
(-0.067342724 0.20202194 4.8783598e-20)
(-0.072465288 0.20946254 -1.0892421e-19)
(-0.077795838 0.21522234 2.6458388e-20)
(-0.083370061 0.21921632 6.8396491e-20)
(-0.089231679 0.22148419 -1.69137e-19)
(-0.09542555 0.22218492 7.5113725e-20)
(-0.1019875 0.22155725 8.2333075e-20)
(-0.10893279 0.21985021 -6.9351394e-20)
(-0.11625862 0.21725648 -9.3388349e-21)
(-0.12394851 0.21390337 4.8055102e-20)
(-0.13195181 0.20987751 -2.6998537e-20)
(-0.1401829 0.2052315 4.1952857e-20)
(-0.1485245 0.19997689 -1.4945605e-19)
(-0.15681334 0.19407356 7.9333517e-20)
(-0.16483056 0.18743064 4.8174869e-20)
(-0.17229215 0.17991223 9.9529621e-20)
(-0.17883932 0.17134749 1.3122245e-20)
(-0.18403203 0.16154621 -1.0770712e-19)
(-0.18735274 0.15032198 4.3390556e-20)
(-0.18822826 0.13752813 6.3899005e-20)
(-0.18607153 0.12311562 1.0042591e-20)
(-0.18037796 0.10719865 -6.105597e-20)
(-0.17070678 0.09005049 -5.3196761e-20)
(-0.15664317 0.071936946 1.6008143e-19)
(-0.13764883 0.053117934 8.3935194e-20)
(-0.11325719 0.034008479 1.8062528e-19)
(-0.083258825 0.01517949 6.303581e-20)
(-0.047482031 -0.0029783329 2.4352608e-20)
(-0.0055839136 -0.020465251 1.7991515e-19)
(0.04301814 -0.037487058 7.0907096e-20)
(0.098885889 -0.054154414 -2.3954701e-19)
(0.16277902 -0.070346143 1.9373066e-19)
(0.23513798 -0.086108563 -1.7986271e-19)
(0.31704315 -0.10136247 8.7366762e-20)
(0.40941274 -0.11657623 -4.274968e-19)
(0.51334681 -0.13075077 -2.1671341e-19)
(0.62417761 -0.14339512 8.9045092e-20)
(0.7348242 -0.15116563 1.4127922e-19)
(0.83145719 -0.1540208 2.3892891e-19)
(0.90807772 -0.14853006 4.2828185e-20)
(0.95483363 -0.13977463 3.3619962e-20)
(0.98112259 -0.12150478 -3.6279367e-19)
(-0.00056991105 0.0017724721 -2.5194965e-22)
(-0.0017608696 0.0054838622 1.2473776e-20)
(-0.0030705141 0.0095757104 -1.4716657e-20)
(-0.0045085163 0.014081243 -7.0891794e-21)
(-0.0060849156 0.019034991 1.4215541e-20)
(-0.0078098961 0.024472579 4.6113233e-21)
(-0.0096936388 0.030430093 -2.2404991e-20)
(-0.011746148 0.036943317 2.4165207e-20)
(-0.013976984 0.044046667 5.1120786e-21)
(-0.016394954 0.0517718 2.0405673e-20)
(-0.01900774 0.060145779 -5.4411347e-20)
(-0.021821463 0.069188718 -6.6750382e-22)
(-0.024840193 0.07891082 4.9422509e-20)
(-0.028065417 0.089308669 -5.3451685e-20)
(-0.031495478 0.10036078 3.8613387e-20)
(-0.035125045 0.11202233 1.4472761e-20)
(-0.038944671 0.12421923 -3.0625328e-20)
(-0.042940546 0.13684185 2.8053893e-20)
(-0.047094569 0.149739 3.7984815e-20)
(-0.051384923 0.1627132 -8.2424766e-22)
(-0.055787359 0.17551887 -6.2375682e-20)
(-0.06027732 0.18786548 3.944871e-20)
(-0.06483304 0.19942823 -2.2508594e-20)
(-0.069439373 0.20986819 -1.1161255e-19)
(-0.074091947 0.2188631 -3.8195751e-20)
(-0.078800645 0.2261467 1.0638494e-19)
(-0.083591013 0.23155052 -1.0871491e-20)
(-0.088502139 0.23503707 1.2566028e-19)
(-0.093579717 0.23671057 -7.6065727e-20)
(-0.098864348 0.2367913 4.0970791e-20)
(-0.10437822 0.23555291 -6.0663857e-20)
(-0.1101196 0.23324636 -1.5048626e-20)
(-0.11605908 0.23004851 7.7341407e-20)
(-0.12213993 0.22606803 -8.1308768e-20)
(-0.12827684 0.22137231 -1.2098098e-19)
(-0.13434125 0.21598174 1.2636588e-20)
(-0.14015391 0.20985939 1.3524038e-19)
(-0.14547823 0.20291222 -1.7550249e-19)
(-0.15000933 0.19499729 3.8451025e-20)
(-0.15336837 0.18593345 -8.2769585e-20)
(-0.15510087 0.17552097 1.2799041e-20)
(-0.15468756 0.16357094 -1.3046269e-19)
(-0.15157312 0.1499484 -6.2613946e-20)
(-0.1452159 0.13463318 -7.721537e-20)
(-0.13515735 0.11777901 3.0971566e-19)
(-0.12099263 0.099672447 1.0008551e-19)
(-0.10231932 0.080559163 -1.3261593e-19)
(-0.078650662 0.060686657 1.0710275e-19)
(-0.049722458 0.040495593 8.8904065e-20)
(-0.015455425 0.020573385 -9.9866793e-20)
(0.024367942 0.0012850768 -5.2031341e-20)
(0.070265093 -0.017412737 -1.2173751e-19)
(0.12304448 -0.035711399 -5.9122903e-20)
(0.18352767 -0.053692289 2.026284e-19)
(0.25263427 -0.071165028 1.1468066e-19)
(0.33101189 -0.088158045 1.8531054e-20)
(0.4206858 -0.1045292 -7.0570991e-22)
(0.52284291 -0.1204814 1.0563572e-19)
(0.6359543 -0.13456614 -1.5525802e-19)
(0.7511907 -0.14564229 -2.0327446e-19)
(0.85688359 -0.15066222 -5.7491614e-20)
(0.93904963 -0.15026478 -4.4222347e-19)
(0.9931806 -0.14198402 -3.5599543e-19)
(1.0157882 -0.13144549 -9.1461595e-20)
(1.0207935 -0.11283738 -4.9324707e-20)
(-0.00059842135 0.0016715365 8.5023032e-21)
(-0.0018488034 0.0051766827 5.2192297e-21)