/*--------------------------------*- C++ -*----------------------------------*\
  =========                 |
  \\      /  F ield         | OpenFOAM: The Open Source CFD Toolbox
   \\    /   O peration     | Website:  https://openfoam.org
    \\  /    A nd           | Version:  13
     \\/     M anipulation  |
\*---------------------------------------------------------------------------*/
FoamFile
{
    format      ascii;
    class       volScalarField;
    location    "5.302468";
    object      nut;
}
// * * * * * * * * * * * * * * * * * * * * * * * * * * * * * * * * * * * * * //

dimensions      [0 2 -1 0 0 0 0];

internalField   nonuniform List<scalar> 
17140
(
7.9000316e-18
1.53645e-15
4.092353e-14
4.1487053e-13
2.5088759e-12
1.1114685e-11
4.0130209e-11
1.2555797e-10
3.5366985e-10
9.1979347e-10
2.247544e-09
5.2251952e-09
1.1665579e-08
2.5186884e-08
5.2876705e-08
1.0839833e-07
2.1772735e-07
4.2964404e-07
8.3475267e-07
1.5996368e-06
3.027395e-06
5.6621156e-06
1.0457547e-05
1.9001166e-05
3.3623307e-05
5.6721468e-05
7.6352298e-05
8.1113974e-05
8.3851825e-05
8.4455277e-05
8.3699357e-05
8.268541e-05
8.194988e-05
8.1645152e-05
8.1812176e-05
8.2511541e-05
8.3843296e-05
8.5955122e-05
8.9060339e-05
9.3469057e-05
9.9676371e-05
0.00010885751
0.00012479424
0.00015765566
0.00020458506
0.00020402663
0.00020513025
0.00020881001
0.00021391985
0.00022091565
0.00022911662
0.00023755869
0.00024754688
0.00025865129
0.00026646658
0.00027590346
0.00028798272
0.00028798477
0.00028333839
0.00027376781
0.00025981593
0.00024105593
0.00021503067
0.00018502193
0.00016318399
7.8056651e-18
1.5180958e-15
4.0434703e-14
4.0991596e-13
2.4789224e-12
1.0982025e-11
3.9651347e-11
1.2405997e-10
3.4945035e-10
9.0881737e-10
2.2207086e-09
5.1627428e-09
1.1525919e-08
2.4884597e-08
5.223986e-08
1.0708656e-07
2.1507618e-07
4.2437139e-07
8.2441044e-07
1.5795964e-06
2.9890039e-06
5.5894774e-06
1.0322442e-05
1.8757282e-05
3.3208429e-05
5.6095259e-05
7.6780714e-05
8.163286e-05
8.4430908e-05
8.5060532e-05
8.4290051e-05
8.3240595e-05
8.2457686e-05
8.2095834e-05
8.2192974e-05
8.2803586e-05
8.401883e-05
8.5973582e-05
8.8862403e-05
9.2959147e-05
9.869765e-05
0.00010715772
0.0001219784
0.00015286251
0.00019113664
0.00018844338
0.00018491519
0.00018198685
0.0001795868
0.00017687421
0.00017319696
0.00016955905
0.00016385377
0.00015908512
0.00015549692
0.00015472275
0.00015495367
0.00015679793
0.00016145393
0.00016678158
0.00017004905
0.00017175164
0.00016850624
0.0001574915
0.00014798756
7.5802104e-18
1.4742477e-15
3.92668e-14
3.9807595e-13
2.4073191e-12
1.0664789e-11
3.8505782e-11
1.2047486e-10
3.3934768e-10
8.8252586e-10
2.1563996e-09
5.0130116e-09
1.1190923e-08
2.415918e-08
5.0710871e-08
1.039357e-07
2.0870507e-07
4.116946e-07
7.9953362e-07
1.5313702e-06
2.896576e-06
5.41451e-06
9.9967754e-06
1.8168621e-05
3.2204269e-05
5.457119e-05
7.7888986e-05
8.2981429e-05
8.5931604e-05
8.6660552e-05
8.5863081e-05
8.4712556e-05
8.3790487e-05
8.3264927e-05
8.3167912e-05
8.3538043e-05
8.4440452e-05
8.5967926e-05
8.8275173e-05
9.153758e-05
9.6035058e-05
0.00010264654
0.00011489463
0.00014134204
0.00016221876
0.00015312091
0.00014417883
0.00013599478
0.00012809948
0.00012032419
0.00011255129
0.000104882
9.6934927e-05
8.9617185e-05
8.427494e-05
8.1101492e-05
8.219531e-05
8.6369043e-05
9.5248961e-05
0.00010671745
0.0001189958
0.0001299456
0.00013978421
0.00014138038
0.00013807614
7.225122e-18
1.4051877e-15
3.7427378e-14
3.7942816e-13
2.2945455e-12
1.0165151e-11
3.6701559e-11
1.1482854e-10
3.2343701e-10
8.4112134e-10
2.0551316e-09
4.7772539e-09
1.066354e-08
2.3017394e-08
4.8304936e-08
9.8979359e-08
1.9868731e-07
3.9177131e-07
7.6045625e-07
1.4556526e-06
2.7515143e-06
5.1399092e-06
9.4851959e-06
1.7241118e-05
3.0609999e-05
5.2109396e-05
7.9699369e-05
8.5267318e-05
8.8436224e-05
8.9322269e-05
8.8466908e-05
8.7112331e-05
8.588887e-05
8.5003578e-05
8.448478e-05
8.4350414e-05
8.464432e-05
8.5435002e-05
8.6779521e-05
8.8762135e-05
9.1509118e-05
9.5808869e-05
0.00010515248
0.00012668168
0.00013154547
0.00012122608
0.00011222349
0.00010457794
9.8536697e-05
9.3175376e-05
8.8301594e-05
8.3905841e-05
7.7202793e-05
6.9921582e-05
6.3255218e-05
5.8292688e-05
5.9073163e-05
6.5591007e-05
7.6680038e-05
9.2144151e-05
0.00011063363
0.00012900583
0.00014865367
0.00015824772
0.00015985184
6.7465431e-18
1.3121106e-15
3.4948262e-14
3.542953e-13
2.1425534e-12
9.4917594e-12
3.4269928e-11
1.0721888e-10
3.0199463e-10
7.8532472e-10
1.9186749e-09
4.4596155e-09
9.953119e-09
2.1479704e-08
4.5065777e-08
9.2309117e-08
1.8521158e-07
3.6498448e-07
7.0794428e-07
1.3539502e-06
2.5567141e-06
4.7710197e-06
8.7967693e-06
1.5987037e-05
2.8430017e-05
4.8659558e-05
7.7684534e-05
8.857034e-05
9.20619e-05
9.3122372e-05
9.2176064e-05
9.0489645e-05
8.8839348e-05
8.746593e-05
8.6392937e-05
8.5620863e-05
8.5166539e-05
8.5054426e-05
8.5302584e-05
8.5920636e-05
8.6949322e-05
8.9222919e-05
9.6280964e-05
0.00011425589
0.00010905775
0.00010181865
9.7219368e-05
9.3657894e-05
9.1352621e-05
8.9904578e-05
8.8853683e-05
8.6153606e-05
7.9154542e-05
7.0174539e-05
6.0232666e-05
5.1746541e-05
5.0469168e-05
5.8095354e-05
7.1509432e-05
9.1804645e-05
0.00011713163
0.00014315643
0.00017178909
0.00018830934
0.00020185311
6.1618695e-18
1.1983996e-15
3.191956e-14
3.2359082e-13
1.9568667e-12
8.6690935e-12
3.1299323e-11
9.7922862e-11
2.7580198e-10
7.171736e-10
1.7520284e-09
4.0717861e-09
9.0859778e-09
1.9603587e-08
4.1115934e-08
8.4181278e-08
1.6880598e-07
3.324096e-07
6.4416849e-07
1.2306139e-06
2.3208417e-06
4.3249616e-06
7.9647838e-06
1.4468838e-05
2.577256e-05
4.4380301e-05
7.1919446e-05
9.3030077e-05
9.7054286e-05
9.8412451e-05
9.7377188e-05
9.5304107e-05
9.3098307e-05
9.1085576e-05
8.9308921e-05
8.7757926e-05
8.6431955e-05
8.5334292e-05
8.4465007e-05
8.3798071e-05
8.337684e-05
8.4186503e-05
8.991518e-05
0.00010461875
9.8573305e-05
9.5446303e-05
9.3691891e-05
9.3817299e-05
9.52645e-05
9.871073e-05
0.00010016783
9.9944042e-05
9.0197094e-05
7.815731e-05
6.1480698e-05
4.9266028e-05
4.5877678e-05
5.4267503e-05
7.0875396e-05
9.7992194e-05
0.00013211868
0.00016757694
0.00020588672
0.00022890422
0.0002527477
5.4994002e-18
1.0695586e-15
2.848787e-14
2.8880102e-13
1.7464756e-12
7.7369943e-12
2.7933678e-11
8.7391252e-11
2.4613071e-10
6.3998259e-10
1.5633179e-09
3.6327457e-09
8.1047662e-09
1.7481946e-08
3.665275e-08
7.5006612e-08
1.5031165e-07
2.9574671e-07
5.7252878e-07
1.0923845e-06
2.057156e-06
3.827578e-06
7.0388647e-06
1.277895e-05
2.279848e-05
3.9511494e-05
6.4998805e-05
9.7448502e-05
0.00010383335
0.00010569874
0.00010464244
0.00010210593
9.9191331e-05
9.6363083e-05
9.3713379e-05
9.1234564e-05
8.8922923e-05
8.6781403e-05
8.4811679e-05
8.300723e-05
8.1471596e-05
8.1378851e-05
8.6577793e-05
9.7329124e-05
9.491409e-05
9.383492e-05
9.4697493e-05
9.8008229e-05
0.0001040652
0.0001074478
0.00010878669
0.00010626577
9.547329e-05
8.2287862e-05
6.2451761e-05
4.6294693e-05
4.2360387e-05
5.2558641e-05
7.4171949e-05
0.00011074459
0.00015345809
0.00019956326
0.00024743373
0.0002766317
0.00030549004
4.7880531e-18
9.3121138e-16
2.4802981e-14
2.5144445e-13
1.5205635e-12
6.7361476e-12
2.4319908e-11
7.6083812e-11
2.142764e-10
5.5712354e-10
1.3607922e-09
3.1617052e-09
7.0524849e-09
1.520796e-08
3.1872806e-08
6.5190694e-08
1.3054973e-07
2.5663138e-07
4.9623587e-07
9.4547795e-07
1.777517e-06
3.3010939e-06
6.0595558e-06
1.0987785e-05
1.9617524e-05
3.4178941e-05
5.701141e-05
8.7935713e-05
0.00011304727
0.00011572329
0.00011475642
0.00011169671
0.00010787451
0.00010399275
0.00010024384
9.6643415e-05
9.3195114e-05
8.9915678e-05
8.6822964e-05
8.3944131e-05
8.1446947e-05
8.0620378e-05
8.6366581e-05
9.4271374e-05
9.3654362e-05
9.4361863e-05
9.7870865e-05
0.00010299829
0.00010727878
0.00010953192
0.00011013649
0.0001064989
9.559783e-05
8.2588963e-05
5.8690608e-05
4.2467925e-05
4.0254436e-05
5.3832821e-05
8.2684977e-05
0.00012931532
0.00018216751
0.00023858213
0.0002932572
0.00032296788
0.0003548556
4.0576889e-18
7.8916528e-16
2.1019559e-14
2.1308905e-13
1.2886126e-12
5.7085617e-12
2.0609692e-11
6.447516e-11
1.8157622e-10
4.7207536e-10
1.1529575e-09
2.6784604e-09
5.9733992e-09
1.287743e-08
2.6977917e-08
5.5149262e-08
1.1036076e-07
2.1673671e-07
4.1857661e-07
7.9628061e-07
1.4942197e-06
2.769001e-06
5.0714491e-06
9.1793893e-06
1.6385963e-05
2.8662135e-05
4.8405529e-05
7.6810228e-05
0.0001099438
0.00012956456
0.00012901258
0.00012537186
0.00012039414
0.00011510929
0.00010990631
0.00010485364
9.9975434e-05
9.5305972e-05
9.0882563e-05
8.674286e-05
8.3056925e-05
8.2289982e-05
8.7946663e-05
9.2614765e-05
9.2904872e-05
9.5488169e-05
9.9716885e-05
0.00010328683
0.00010363733
0.00010242055
0.00010009645
9.5424783e-05
8.6147296e-05
7.5159787e-05
5.2838898e-05
3.8290559e-05
3.9204999e-05
5.7827965e-05
9.6955043e-05
0.00015418601
0.00021709144
0.00028084673
0.00033542613
0.00036212968
0.00040498464
3.3399781e-18
6.4958e-16
1.7301658e-14
1.7539774e-13
1.060679e-12
4.6987894e-12
1.6963915e-11
5.3068741e-11
1.494485e-10
3.8852753e-10
9.4883204e-10
2.203988e-09
4.9143775e-09
1.0591672e-08
2.218119e-08
4.5320446e-08
9.0628535e-08
1.7781744e-07
3.429895e-07
6.5145901e-07
1.2200821e-06
2.2557999e-06
4.1212357e-06
7.4427264e-06
1.32732e-05
2.3277774e-05
3.9720395e-05
6.4549268e-05
9.6395573e-05
0.00012812019
0.00014950131
0.00014530464
0.00013865937
0.00013131907
0.00012401321
0.00011693223
0.00011010665
0.00010356773
9.734027e-05
9.1460433e-05
8.6775454e-05
8.5378069e-05
9.0085934e-05
9.115804e-05
9.2523808e-05
9.605116e-05
9.928183e-05
9.9334148e-05
9.379418e-05
8.7827319e-05
8.5847217e-05
8.35098e-05
7.73917e-05
6.7647601e-05
4.6740555e-05
3.5210631e-05
4.046111e-05
6.5858587e-05
0.00011727231
0.00018522747
0.00025716512
0.0003226144
0.00036842016
0.00040098268
0.00045680836
2.6642248e-18
5.181549e-16
1.3801105e-14
1.3990992e-13
8.460719e-13
3.7480678e-12
1.3531437e-11
4.2330172e-11
1.1920425e-10
3.0988758e-10
7.5673507e-10
1.757605e-09
3.9184747e-09
8.4434429e-09
1.7676831e-08
3.6101094e-08
7.2147231e-08
1.4143441e-07
2.7249438e-07
5.1677584e-07
9.6596958e-07
1.7817734e-06
3.2465128e-06
5.8473969e-06
1.0409037e-05
1.8270326e-05
3.1399982e-05
5.2018656e-05
8.0768526e-05
0.00011324427
0.00014055927
0.00015533838
0.00015813615
0.00015412106
0.00014534976
0.00013509997
0.00012526663
0.00011586983
0.00010693814
9.8050785e-05
9.205683e-05
8.9161663e-05
8.8895373e-05
8.9567729e-05
9.1748544e-05
9.5470297e-05
9.635862e-05
9.2550168e-05
8.3494752e-05
7.5984212e-05
7.6203475e-05
7.5958969e-05
7.0650041e-05
6.0441121e-05
4.0628051e-05
3.3074006e-05
4.4751411e-05
7.8628436e-05
0.00014454798
0.00022019823
0.00029678074
0.00035318511
0.00039985027
0.00044153301
0.00051092796
2.0544822e-18
3.9956813e-16
1.0642514e-14
1.0788906e-13
6.5243175e-13
2.8902393e-12
1.0434402e-11
3.2641416e-11
9.1918495e-11
2.3894769e-10
5.834761e-10
1.3550978e-09
3.0207944e-09
6.5081217e-09
1.3621944e-08
2.7810278e-08
5.5550297e-08
1.0882006e-07
2.0944621e-07
3.9665931e-07
7.4009395e-07
1.3619872e-06
2.4748058e-06
4.4441917e-06
7.8907189e-06
1.3839415e-05
2.38807e-05
4.0125515e-05
6.4298202e-05
9.5125836e-05
0.00012578578
0.00014684259
0.00015446779
0.0001526292
0.00014567574
0.00013624294
0.00012573696
0.00011486484
0.00010442486
9.5368873e-05
8.9552337e-05
8.7073608e-05
8.6633897e-05
8.7523177e-05
9.0085081e-05
9.3107218e-05
9.2821559e-05
8.7657967e-05
7.7447228e-05
7.0046299e-05
7.2261e-05
7.0893402e-05
6.516083e-05
5.2308407e-05
3.4446762e-05
3.2516241e-05
5.3484979e-05
0.0001001487
0.00017679632
0.0002569154
0.00033017469
0.00037836738
0.00043148348
0.00048300891
0.00056515185
1.5279475e-18
2.9716432e-16
7.9149712e-15
8.0238215e-14
4.8521923e-13
2.1494912e-12
7.7601077e-12
2.4275404e-11
6.8359084e-11
1.7770099e-10
4.3391081e-10
1.0077047e-09
2.2462645e-09
4.8390409e-09
1.0127106e-08
2.0670945e-08
4.1276e-08
8.0816053e-08
1.5542666e-07
2.9402246e-07
5.4772353e-07
1.0058312e-06
1.8227501e-06
3.2630311e-06
5.7753544e-06
1.0107796e-05
1.7461832e-05
2.9601617e-05
4.8572959e-05
7.5234644e-05
0.00010627978
0.00013307579
0.00014810838
0.00015008702
0.00014477914
0.00013574918
0.00012482146
0.00011347738
0.00010269819
9.3581043e-05
8.7617895e-05
8.4750113e-05
8.395904e-05
8.4694726e-05
8.6977123e-05
8.9479164e-05
8.8525997e-05
8.4537795e-05
7.4708282e-05
6.9129992e-05
7.0729287e-05
6.8167404e-05
6.0282368e-05
4.4032785e-05
3.0801081e-05
3.5852037e-05
6.5344417e-05
0.00012834064
0.00021180257
0.00029250841
0.00035001172
0.00040419351
0.00046474376
0.00052637732
0.00061900545
1.0937031e-18
2.1270976e-16
5.6655148e-15
5.7434149e-14
3.4731703e-13
1.5385904e-12
5.5546206e-12
1.7376106e-11
4.8930745e-11
1.2719661e-10
3.1058965e-10
7.2130913e-10
1.6078696e-09
3.4637722e-09
7.2488539e-09
1.4795293e-08
2.9539992e-08
5.7823742e-08
1.111581e-07
2.101201e-07
3.9095684e-07
7.1668017e-07
1.2956051e-06
2.3122245e-06
4.0782411e-06
7.1147628e-06
1.2274968e-05
2.0888913e-05
3.4793971e-05
5.5790576e-05
8.3701644e-05
0.00011343528
0.00013613847
0.00014577075
0.00014384483
0.0001360935
0.0001258813
0.00011444993
0.0001032835
9.3312951e-05
8.606341e-05
8.2425597e-05
8.1190048e-05
8.1511882e-05
8.2937238e-05
8.4683558e-05
8.3642684e-05
8.0685228e-05
7.1950917e-05
7.0214921e-05
7.0449976e-05
6.6406069e-05
5.4400851e-05
3.5160586e-05
2.856218e-05
4.3653336e-05
8.6889079e-05
0.00016557479
0.00024738225
0.00031615185
0.00036962752
0.00043116164
0.00049969013
0.0005713188
0.00067188435
7.523773e-19
1.4632664e-16
3.8973977e-15
3.9509779e-14
2.3892393e-13
1.0584153e-12
3.8210917e-12
1.1953265e-11
3.3660364e-11
8.7502087e-11
2.1366847e-10
4.9624045e-10
1.1062358e-09
2.3833229e-09
4.9882743e-09
1.018262e-08
2.0332934e-08
3.9804289e-08
7.6515085e-08
1.4459577e-07
2.6886423e-07
4.9226924e-07
8.8818746e-07
1.5807054e-06
2.7780538e-06
4.8272513e-06
8.3003866e-06
1.4117621e-05
2.3672389e-05
3.8776738e-05
6.0891538e-05
8.8889536e-05
0.00011659228
0.0001359364
0.00014154514
0.00013698369
0.00012755793
0.00011636126
0.00010513431
9.479749e-05
8.6746993e-05
8.108046e-05
7.8202215e-05
7.7575911e-05
7.8094847e-05
7.8557977e-05
7.7743163e-05
7.4377459e-05
7.0503901e-05
7.1946226e-05
7.1500536e-05
6.2946733e-05
4.5394931e-05
2.8455525e-05
2.9880888e-05
5.7760998e-05
0.00011720807
0.00019932821
0.00027781377
0.00033195599
0.00039168347
0.00045992499
0.00053625516
0.00061689685
0.00072227431
4.9729522e-19
9.6716806e-17
2.576042e-15
2.611453e-14
1.5791979e-13
6.9957235e-13
2.5256001e-12
7.9007097e-12
2.2248664e-11
5.7838153e-11
1.412393e-10
3.2804893e-10
7.3137968e-10
1.5759783e-09
3.2992819e-09
6.7369705e-09
1.3457821e-08
2.635711e-08
5.0688084e-08
9.5819507e-08
1.7817414e-07
3.260726e-07
5.8762394e-07
1.0435435e-06
1.8280518e-06
3.1630086e-06
5.4131295e-06
9.1715554e-06
1.5376858e-05
2.5415876e-05
4.1006958e-05
6.3309878e-05
9.0669144e-05
0.00011660638
0.0001330764
0.00013638309
0.00013033526
0.00012011461
0.0001085183
9.7700812e-05
8.8830662e-05
8.2382538e-05
7.7870275e-05
7.5137071e-05
7.3991128e-05
7.3611492e-05
7.2402193e-05
7.0757666e-05
7.3171414e-05
7.6579109e-05
7.2487464e-05
5.5057077e-05
3.1915572e-05
2.4759376e-05
3.778732e-05
7.8626408e-05
0.00015696758
0.00023626782
0.00029359251
0.00034940245
0.0004159394
0.00049036812
0.00057345318
0.00066154404
0.00076908816
3.1618676e-19
6.1493821e-17
1.6378809e-15
1.6603939e-14
1.0040718e-13
4.4479567e-13
1.6058073e-12
5.0234051e-12
1.4146317e-11
3.6776294e-11
8.9811892e-11
2.0862088e-10
4.6518555e-10
1.0026059e-09
2.0996154e-09
4.2892465e-09
8.5734335e-09
1.6804177e-08
3.2347395e-08
6.1214767e-08
1.1395028e-07
2.0870083e-07
3.761315e-07
6.6722862e-07
1.1658471e-06
2.0090922e-06
3.4199337e-06
5.7596945e-06
9.6079102e-06
1.5867992e-05
2.5850838e-05
4.1140475e-05
6.2746911e-05
8.9045766e-05
0.00011382932
0.00012910977
0.00013191997
0.00012536348
0.00011467076
0.00010319311
9.2893866e-05
8.5203098e-05
7.9804617e-05
7.6300902e-05
7.4300678e-05
7.2764784e-05
7.2713879e-05
7.5509059e-05
8.0795781e-05
8.2031071e-05
6.5332289e-05
3.908852e-05
2.4206779e-05
2.6106172e-05
5.3814572e-05
0.00011349617
0.00018947498
0.00025413068
0.00030765975
0.00036605266
0.00043902855
0.00052079847
0.00061169636
0.0007052534
0.00081196003
1.9391554e-19
3.7713814e-17
1.0045026e-15
1.0183088e-14
6.1578964e-14
2.7278958e-13
9.8483066e-13
3.0808443e-12
8.6760644e-12
2.2556028e-11
5.5087829e-11
1.2797495e-10
2.8540773e-10
6.1529118e-10
1.2890043e-09
2.6346971e-09
5.2702304e-09
1.0340113e-08
1.9929696e-08
3.7773766e-08
7.0440347e-08
1.2925982e-07
2.3339433e-07
4.1461981e-07
7.2460561e-07
1.2460162e-06
2.1102724e-06
3.5283333e-06
5.8364601e-06
9.5654239e-06
1.5529264e-05
2.4893467e-05
3.9068796e-05
5.9047974e-05
8.408105e-05
0.00010765411
0.00012310253
0.00012795158
0.00012295493
0.00011307478
0.00010179523
9.1912787e-05
8.4887324e-05
8.0283562e-05
7.7964404e-05
7.8234785e-05
8.0604281e-05
8.8118662e-05
9.0467922e-05
7.6035692e-05
4.7081274e-05
2.5027478e-05
2.0808994e-05
3.6135205e-05
7.8388434e-05
0.00015261875
0.00021522121
0.00021489858
0.00024258107
0.00028845428
0.00035486586
0.00044668359
0.00058024674
0.00074585594
0.00085007108
1.1526019e-19
2.2416456e-17
5.9705897e-16
6.0526487e-15
3.6601398e-14
1.6214093e-13
5.8536582e-13
1.8312132e-12
5.1570302e-12
1.3407713e-11
3.2747253e-11
7.6083398e-11
1.697088e-10
3.6596022e-10
7.6697324e-10
1.5685889e-09
3.1402703e-09
6.1681824e-09
1.1906674e-08
2.2611035e-08
4.2264325e-08
7.7765482e-08
1.4081721e-07
2.5084759e-07
4.3943956e-07
7.5697596e-07
1.2825398e-06
2.1374427e-06
3.5077766e-06
5.6830477e-06
9.1177167e-06
1.4492701e-05
2.276654e-05
3.5102146e-05
5.2628506e-05
7.5022015e-05
9.7522109e-05
0.00011369551
0.0001220805
0.0001217217
0.00011547052
0.00010515119
9.8422793e-05
9.1774743e-05
9.0545534e-05
9.2902775e-05
0.00010060205
9.7237633e-05
8.2704893e-05
5.3013919e-05
2.5261092e-05
1.8271009e-05
2.5035466e-05
5.5308106e-05
0.00011694744
0.00016405836
0.00016030701
0.00017341458
0.00019694236
0.00023550627
0.0002918069
0.00037734713
0.00050141063
0.00072302235
0.00088278703
6.6802623e-20
1.2992153e-17
3.4604396e-16
3.5079983e-15
2.1213432e-14
9.3973516e-14
3.3926635e-13
1.0613413e-12
2.9889757e-12
7.7712436e-12
1.8981677e-11
4.4105262e-11
9.8394676e-11
2.1222989e-10
4.4495355e-10
9.105116e-10
1.8242989e-09
3.5874601e-09
6.9360462e-09
1.3199761e-08
2.474038e-08
4.5674105e-08
8.3023854e-08
1.4849369e-07
2.61106e-07
4.5104303e-07
7.655627e-07
1.2776126e-06
2.0978273e-06
3.3881952e-06
5.3831405e-06
8.4270269e-06
1.3049134e-05
1.9959305e-05
3.0044362e-05
4.4298921e-05
6.3162912e-05
8.2588785e-05
9.8935946e-05
0.00011054675
0.0001116078
0.00010781712
0.00011080177
0.00011007271
0.00010928498
0.00010734818
9.9202245e-05
8.3964512e-05
5.4091894e-05
2.4928382e-05
1.6475786e-05
1.8530097e-05
4.0879547e-05
9.084927e-05
0.00013346307
0.00011493594
0.00011830675
0.00013522862
0.0001627629
0.00020037386
0.00025108238
0.0003281654
0.00044568512
0.00065986487
0.00091072499
3.8098697e-20
7.4096538e-18
1.9735498e-16
2.0006726e-15
1.2098369e-14
5.3594531e-14
1.9348865e-13
6.0530028e-13
1.7046767e-12
4.4321945e-12
1.0826294e-11
2.5157418e-11
5.6130493e-11
1.2109264e-10
2.5395581e-10
5.1991464e-10
1.0424305e-09
2.0520345e-09
3.9732771e-09
7.576954e-09
1.4241007e-08
2.6385996e-08
4.8178196e-08
8.6618817e-08
1.5314694e-07
2.6596441e-07
4.5316595e-07
7.5728894e-07
1.2425314e-06
2.0058733e-06
3.1901008e-06
4.9934065e-06
7.6654871e-06
1.1543027e-05
1.7099575e-05
2.4933979e-05
3.5562211e-05
5.0076481e-05
6.5111544e-05
7.8586295e-05
8.9723e-05
9.7337786e-05
0.00010162556
0.00010081002
9.7584502e-05
8.9448995e-05
7.5592129e-05
4.7640765e-05
2.263746e-05
1.4615244e-05
1.4767002e-05
3.0432138e-05
6.7686789e-05
0.00012108441
9.3014311e-05
9.1403849e-05
0.00010265981
0.00011992667
0.00014174946
0.00017477841
0.00022207867
0.00029685265
0.0004106189
0.00062045157
0.00093464802
2.1812844e-20
4.2422872e-18
1.1299262e-16
1.1454537e-15
6.9267093e-15
3.0684481e-14
1.1077763e-13
3.4655062e-13
9.759769e-13
2.5375973e-12
6.1986557e-12
1.4404872e-11
3.2142978e-11
6.9354807e-11
1.4548838e-10
2.9796902e-10
5.9777552e-10
1.1777308e-09
2.2832166e-09
4.3618258e-09
8.2189348e-09
1.528184e-08
2.8035676e-08
5.0717454e-08
9.037432e-08
1.5837024e-07
2.7239072e-07
4.5882069e-07
7.55676e-07
1.2168107e-06
1.9190085e-06
2.9811171e-06
4.5687275e-06
6.9027627e-06
1.0182732e-05
1.4662964e-05
2.0536217e-05
2.82524e-05
3.7916898e-05
4.8774583e-05
5.8287178e-05
6.5476275e-05
6.977061e-05
6.9933251e-05
6.6427263e-05
5.6961205e-05
3.4648863e-05
1.8253885e-05
1.254036e-05
1.2492173e-05
2.2914111e-05
5.0404508e-05
0.00010062737
7.2734998e-05
6.7990237e-05
7.587644e-05
8.7923373e-05
0.00010377508
0.00012802527
0.00016073822
0.00020555448
0.00027624221
0.00038601797
0.00059316857
0.00094683528
1.3169094e-20
2.5612004e-18
6.8217116e-17
6.9154463e-16
4.1818431e-15
1.8524919e-14
6.6878311e-14
2.092159e-13
5.8919852e-13
1.5319294e-12
3.7420416e-12
8.6959824e-12
1.9404392e-11
4.1870431e-11
8.7841779e-11
1.7994051e-10
3.6111876e-10
7.119001e-10
1.3814697e-09
2.6429709e-09
4.9905286e-09
9.3063271e-09
1.7141666e-08
3.1177e-08
5.5947594e-08
9.8905299e-08
1.7185859e-07
2.9274338e-07
4.8749831e-07
7.918557e-07
1.2529118e-06
1.9291302e-06
2.9023467e-06
4.2886222e-06
6.2701914e-06
9.0271683e-06
1.2693041e-05
1.7292945e-05
2.2831791e-05
2.9171794e-05
3.5491307e-05
4.1898899e-05
4.4134433e-05
4.3940302e-05
3.7387139e-05
2.2207092e-05
1.3565637e-05
1.0271792e-05
1.0430729e-05
1.7837946e-05
3.9943185e-05
8.486191e-05
5.9772297e-05
5.7658959e-05
6.3494567e-05
7.2989615e-05
8.5270032e-05
0.00010020601
0.00011952729
0.0001491412
0.00019295831
0.00026235778
0.0003712311
0.00057730393
0.00093322318
9.2228309e-21
1.7937101e-18
4.7775294e-17
4.8432043e-16
2.9287593e-15
1.2974101e-14
4.6839691e-14
1.4653293e-13
4.1268585e-13
1.0730539e-12
2.6213554e-12
6.0923202e-12
1.3596476e-11
2.934373e-11
6.1576181e-11
1.2617434e-10
2.5331249e-10
4.9961487e-10
9.7013275e-10
1.8576521e-09
3.5121931e-09
6.5621446e-09
1.2121639e-08
2.213556e-08
3.9933154e-08
7.1073378e-08
1.2452423e-07
2.1413515e-07
3.6009962e-07
5.8992494e-07
9.384655e-07
1.4472003e-06
2.165324e-06
3.1484358e-06
4.4651701e-06
6.2132868e-06
8.5237177e-06
1.1532825e-05
1.5199299e-05
1.9409256e-05
2.3776734e-05
2.6430698e-05
2.6352664e-05
2.0750643e-05
1.3450569e-05
9.3268145e-06
8.1161026e-06
8.7182435e-06
1.4567626e-05
3.3781533e-05
7.2227523e-05
5.5313317e-05
5.2913725e-05
5.5997772e-05
6.1860641e-05
6.9414856e-05
8.0228384e-05
9.6088242e-05
0.00011790521
0.00014791027
0.00018955555
0.00025564585
0.00036146466
0.0005653789
0.00092029273
7.9716959e-21
1.5503849e-18
4.1294661e-17
4.1863068e-16
2.5316035e-15
1.1215302e-14
4.0492995e-14
1.2669125e-13
3.5685641e-13
9.2806765e-13
2.2677509e-12
5.2722683e-12
1.1771417e-11
2.5418949e-11
5.3377649e-11
1.0947162e-10
2.2002305e-10
4.345569e-10
8.4525246e-10
1.6219573e-09
3.0745708e-09
5.7628598e-09
1.0686811e-08
1.9609618e-08
3.5589022e-08
6.3809736e-08
1.1277567e-07
1.9581424e-07
3.325063e-07
5.4920689e-07
8.7766638e-07
1.3518019e-06
2.0049624e-06
2.8706786e-06
3.9889808e-06
5.4172354e-06
7.2096923e-06
9.3503735e-06
1.1791283e-05
1.4058413e-05
1.5041468e-05
1.3933304e-05
1.0471396e-05
7.5186582e-06
6.3553542e-06
6.1389711e-06
7.3112118e-06
1.2396007e-05
2.9605124e-05
6.2442947e-05
5.2922424e-05
5.0081956e-05
5.2075205e-05
5.6145342e-05
6.2380158e-05
7.1076434e-05
8.251755e-05
9.7509018e-05
0.000117448
0.00014579218
0.00018737257
0.00025340841
0.00035828167
0.0005598342
0.00091046505
7.8076141e-21
1.5184762e-18
4.0445161e-17
4.1002916e-16
2.4797068e-15
1.0986243e-14
3.9670452e-14
1.2413712e-13
3.4973535e-13
9.0979857e-13
2.223904e-12
5.1727002e-12
1.1555861e-11
2.4971962e-11
5.2487966e-11
1.0777307e-10
2.169263e-10
4.2922182e-10
8.3676527e-10
1.6101704e-09
3.0627757e-09
5.765102e-09
1.0746254e-08
1.9841838e-08
3.6278297e-08
6.5610997e-08
1.1712312e-07
2.0564407e-07
3.5322823e-07
5.8925646e-07
9.4661587e-07
1.4530088e-06
2.1215571e-06
2.9479865e-06
3.9207367e-06
5.0163124e-06
6.1790983e-06
7.2274917e-06
7.8918025e-06
7.530603e-06
6.432947e-06
5.0406863e-06
4.1765466e-06
4.2414365e-06
4.6924198e-06
5.9434085e-06
1.1217617e-05
2.7238255e-05
5.5030328e-05
5.0823754e-05
4.8657398e-05
5.136525e-05
5.4643005e-05
5.9421088e-05
6.5589125e-05
7.3943451e-05
8.5086626e-05
0.00010007391
0.00012074614
0.00014962199
0.00018927202
0.00025253476
0.00035470151
0.00055467054
0.00089969158
7.2690628e-21
1.4137367e-18
3.7655627e-17
3.8175639e-16
2.3088125e-15
1.0229739e-14
3.694206e-14
1.1561314e-13
3.2577022e-13
8.4761861e-13
2.0724059e-12
4.8217386e-12
1.077569e-11
2.3296288e-11
4.8992218e-11
1.0066105e-10
2.027719e-10
4.0159973e-10
7.8381787e-10
1.5103561e-09
2.8775719e-09
5.4267507e-09
1.0137818e-08
1.8766395e-08
3.4415584e-08
6.2466238e-08
1.1197249e-07
1.9741243e-07
3.4011169e-07
5.6720927e-07
9.0475516e-07
1.3634852e-06
1.9194464e-06
2.5017952e-06
3.0661863e-06
3.5249106e-06
3.7774218e-06
3.7079281e-06
3.2776439e-06
2.8089733e-06
2.5145832e-06
2.5349141e-06
2.8338742e-06
3.5422449e-06
5.108221e-06
1.1020234e-05
2.4898218e-05
4.9070441e-05
5.1832524e-05
5.1116094e-05
5.3936742e-05
5.5780838e-05
5.878348e-05
6.3026732e-05
6.930589e-05
7.7792631e-05
8.927037e-05
0.00010476552
0.00012482688
0.00015317277
0.00019321033
0.00025648801
0.00035658358
0.00055359282
0.00089365121
5.6967578e-21
1.1079439e-18
2.9510661e-17
2.9918281e-16
1.8094351e-15
8.0172517e-15
2.895277e-14
9.0611619e-14
2.5532487e-13
6.6432689e-13
1.6242273e-12
3.7787916e-12
8.4440862e-12
1.8252671e-11
3.8376343e-11
7.8822031e-11
1.5870159e-10
3.1410336e-10
6.1248242e-10
1.1787448e-09
2.2420891e-09
4.2191901e-09
7.8597853e-09
1.4496211e-08
2.6457375e-08
4.7718579e-08
8.4820326e-08
1.4789473e-07
2.5105361e-07
4.1022222e-07
6.3621562e-07
9.2232231e-07
1.2291725e-06
1.4965819e-06
1.6775744e-06
1.7170008e-06
1.6149034e-06
1.4497084e-06
1.3934041e-06
1.4256757e-06
1.5798577e-06
2.0787777e-06
2.901527e-06
4.8173108e-06
1.0638538e-05
2.2347388e-05
4.3246969e-05
6.0150029e-05
5.8034358e-05
5.9241666e-05
5.8570215e-05
5.9967396e-05
6.2847807e-05
6.7390751e-05
7.3733365e-05
8.2570454e-05
9.4186219e-05
0.00010977361
0.0001306414
0.00015937359
0.00019834958
0.00026038018
0.0003586257
0.00055547191
0.00089322788
3.6585225e-21
7.1153321e-19
1.8951951e-17
1.9213522e-16
1.1620009e-15
5.148468e-15
1.8591932e-14
5.8182043e-14
1.6392768e-13
4.2645363e-13
1.042403e-12
2.424364e-12
5.4149808e-12
1.1697574e-11
2.4573189e-11
5.0413782e-11
1.0135054e-10
2.0019571e-10
3.8935956e-10
7.4682498e-10
1.4144002e-09
2.646902e-09
4.8960086e-09
8.9490678e-09
1.6148737e-08
2.871516e-08
5.0152796e-08
8.5593726e-08
1.4162836e-07
2.246855e-07
3.3652399e-07
4.6749018e-07
5.9243331e-07
6.8289051e-07
7.2128827e-07
7.2924551e-07
7.519735e-07
7.7382736e-07
8.955102e-07
1.1494912e-06
1.6804662e-06
2.6247271e-06
4.6512335e-06
9.8483742e-06
1.9965814e-05
3.9299925e-05
6.9862507e-05
6.7526123e-05
6.6215613e-05
6.377065e-05
6.3336134e-05
6.4584414e-05
6.7240797e-05
7.1591927e-05
7.8038354e-05
8.6837491e-05
9.8832801e-05
0.00011498728
0.00013603101
0.000165242
0.0002047735
0.00026724865
0.00036469596
0.00056307504
0.00090005247
2.0009735e-21
3.8916159e-19
1.0365381e-17
1.0508254e-16
6.35502e-16
2.8155777e-15
1.0166735e-14
3.181245e-14
8.9616741e-14
2.33081e-13
5.6954541e-13
1.3240204e-12
2.9554798e-12
6.37926e-12
1.3386348e-11
2.7423635e-11
5.5027976e-11
1.084294e-10
2.1021511e-10
4.0156408e-10
7.5653579e-10
1.406327e-09
2.5792698e-09
4.6641196e-09
8.3039898e-09
1.4521202e-08
2.4847872e-08
4.1372828e-08
6.6505221e-08
1.0212959e-07
1.4798399e-07
2.0011748e-07
2.5177217e-07
3.0068449e-07
3.5073446e-07
4.1536391e-07
5.0562881e-07
6.6245825e-07
9.4737652e-07
1.4911305e-06
2.4156124e-06
4.3207894e-06
8.806933e-06
1.7816005e-05
3.6061175e-05
6.3716332e-05
8.2522659e-05
7.6739981e-05
7.2579299e-05
6.9520313e-05
6.8167752e-05
6.884954e-05
7.1465537e-05
7.6022318e-05
8.2666151e-05
9.2056519e-05
0.00010450998
0.00012118183
0.00014299604
0.00017290456
0.00021231215
0.00027429384
0.00037187212
0.00057259293
0.00091238807
1.0388336e-21
2.0203844e-19
5.3812836e-18
5.4553455e-17
3.2990758e-16
1.4615608e-15
5.2770648e-15
1.6510266e-14
4.6502069e-14
1.2091803e-13
2.9538041e-13
6.8639924e-13
1.5313972e-12
3.3032648e-12
6.9257581e-12
1.4172959e-11
2.840025e-11
5.5863812e-11
1.0806788e-10
2.0587173e-10
3.8653506e-10
7.1550931e-10
1.3055441e-09
2.3462948e-09
4.1472503e-09
7.1935637e-09
1.220481e-08
2.0166918e-08
3.2282992e-08
4.9790054e-08
7.3706114e-08
1.0492066e-07
1.4520699e-07
1.9896509e-07
2.7553578e-07
3.8494341e-07
5.4691525e-07
8.4014793e-07
1.340606e-06
2.1860463e-06
3.9384841e-06
7.8756387e-06
1.619415e-05
3.308454e-05
5.8159165e-05
8.722744e-05
9.4801612e-05
8.5836446e-05
7.8285712e-05
7.3859363e-05
7.2309316e-05
7.3181271e-05
7.5829356e-05
8.0348116e-05
8.7139966e-05
9.655248e-05
0.00010930428
0.00012667859
0.00014904204
0.0001797285
0.00022036199
0.00028351742
0.00038205295
0.0005863746
0.00092733024
6.6216455e-22
1.2878158e-19
3.4300779e-18
3.4772365e-17
2.1027647e-16
9.3152323e-16
3.3631075e-15
1.0521285e-14
2.9631312e-14
7.7043198e-14
1.8818923e-13
4.3729126e-13
9.7562268e-13
2.1045903e-12
4.4133328e-12
9.0344281e-12
1.8113267e-11
3.5659228e-11
6.9070054e-11
1.318253e-10
2.481736e-10
4.6114464e-10
8.4594586e-10
1.5317413e-09
2.7357561e-09
4.814005e-09
8.3314634e-09
1.4149857e-08
2.3527171e-08
3.8240811e-08
6.0627662e-08
9.3763214e-08
1.4205146e-07
2.1496914e-07
3.2204519e-07
4.7785856e-07
7.5666288e-07
1.2074509e-06
1.9924155e-06
3.6093716e-06
7.1480866e-06
1.4786023e-05
3.0180837e-05
5.2781453e-05
7.9044837e-05
0.00010941323
0.0001032397
8.9060373e-05
8.161717e-05
7.7741096e-05
7.6332986e-05
7.7059387e-05
7.9643214e-05
8.4409437e-05
9.1453265e-05
0.00010151464
0.0001149342
0.00013281864
0.00015608581
0.0001878558
0.00022891256
0.00029313823
0.00039331214
0.00060225827
0.00094337171
6.6603048e-22
1.2953359e-19
3.4501233e-18
3.4975777e-17
2.1150742e-16
9.3698226e-16
3.3828735e-15
1.0583537e-14
2.9808915e-14
7.7515284e-14
1.8938281e-13
4.4020772e-13
9.8259639e-13
2.1210669e-12
4.4520696e-12
9.125463e-12
1.8327612e-11
3.6165079e-11
7.026547e-11
1.3464885e-10
2.5482366e-10
4.7672126e-10
8.821321e-10
1.6148778e-09
2.9240929e-09
5.2334683e-09
9.2486738e-09
1.6105927e-08
2.7514038e-08
4.5875778e-08
7.4461113e-08
1.1761915e-07