/*--------------------------------*- C++ -*----------------------------------*\
  =========                 |
  \\      /  F ield         | OpenFOAM: The Open Source CFD Toolbox
   \\    /   O peration     | Website:  https://openfoam.org
    \\  /    A nd           | Version:  13
     \\/     M anipulation  |
\*---------------------------------------------------------------------------*/
FoamFile
{
    format      ascii;
    class       volScalarField;
    location    "31.700059";
    object      pPrime2Mean;
}
// * * * * * * * * * * * * * * * * * * * * * * * * * * * * * * * * * * * * * //

dimensions      [0 4 -4 0 0 0 0];

internalField   nonuniform List<scalar> 
17140
(
9785.047
9785.0472
9785.0473
9785.0471
9785.0467
9785.0459
9785.0447
9785.043
9785.0408
9785.0378
9785.0338
9785.0287
9785.0221
9785.0136
9785.0028
9784.9889
9784.9713
9784.9488
9784.92
9784.8833
9784.8363
9784.7761
9784.6989
9784.5999
9784.4729
9784.3101
9784.102
9783.8364
9783.499
9783.0717
9782.5327
9781.8551
9781.0061
9779.9458
9778.6259
9776.9888
9774.9663
9772.4786
9769.4335
9765.7256
9761.2345
9755.8242
9749.3414
9741.6139
9732.4499
9721.6362
9708.9387
9694.1004
9676.8407
9656.8545
9633.8113
9607.3532
9577.0937
9542.6163
9503.4716
9459.176
9409.2057
9352.9973
9289.9343
9219.3634
9140.5534
9052.7496
8955.0666
8846.6422
8726.4376
9785.2921
9785.2923
9785.2924
9785.2922
9785.2918
9785.291
9785.2898
9785.2881
9785.2858
9785.2827
9785.2787
9785.2734
9785.2667
9785.2581
9785.247
9785.2329
9785.215
9785.1921
9785.1629
9785.1256
9785.078
9785.017
9784.939
9784.8392
9784.7114
9784.5481
9784.3395
9784.0738
9783.7365
9783.3098
9782.7717
9782.0953
9781.2476
9780.1887
9778.8704
9777.2349
9775.214
9772.7282
9769.6853
9765.9797
9761.4915
9756.0846
9749.6057
9741.8828
9732.724
9721.9162
9709.2253
9694.3942
9677.1425
9657.1654
9634.1326
9607.6865
9577.4406
9542.9787
9503.8517
9459.5763
9409.6286
9353.4458
9290.4113
9219.8726
9141.0988
9053.3362
8955.7001
8847.3291
8727.1765
9785.8989
9785.8991
9785.8991
9785.8989
9785.8984
9785.8975
9785.8962
9785.8944
9785.892
9785.8887
9785.8844
9785.8789
9785.8718
9785.8627
9785.8512
9785.8364
9785.8177
9785.794
9785.7638
9785.7253
9785.6764
9785.6141
9785.5347
9785.4335
9785.3045
9785.1401
9784.931
9784.6653
9784.3287
9783.9033
9783.367
9782.6929
9781.8479
9780.7918
9779.4764
9777.844
9775.8266
9773.3446
9770.3062
9766.6062
9762.1246
9756.7256
9750.256
9742.5442
9733.398
9722.6047
9709.9299
9695.1166
9677.8846
9657.9299
9634.9228
9608.5061
9578.294
9543.8707
9504.7876
9460.562
9410.6706
9354.5511
9291.5876
9221.1281
9142.4431
9054.7799
8957.2554
8849.0104
8728.9827
9786.8804
9786.8806
9786.8806
9786.8803
9786.8797
9786.8788
9786.8773
9786.8753
9786.8726
9786.8691
9786.8645
9786.8585
9786.8509
9786.8413
9786.829
9786.8134
9786.7938
9786.7689
9786.7374
9786.6977
9786.6473
9786.5835
9786.5027
9786.4002
9786.2702
9786.1053
9785.8961
9785.6311
9785.2957
9784.8722
9784.3385
9783.6674
9782.8257
9781.7733
9780.4619
9778.8339
9776.8215
9774.3455
9771.3144
9767.6231
9763.152
9757.7655
9751.311
9743.6168
9734.491
9723.7209
9711.0718
9696.287
9679.0871
9659.1689
9636.2035
9609.8349
9579.6781
9545.3179
9506.3067
9462.1627
9412.3634
9356.3473
9293.4995
9223.1691
9144.6282
9057.1257
8959.7807
8851.7385
8731.9116
9788.2505
9788.2507
9788.2506
9788.2503
9788.2496
9788.2485
9788.2469
9788.2447
9788.2418
9788.238
9788.2331
9788.2268
9788.2187
9788.2085
9788.1956
9788.1793
9788.1588
9788.133
9788.1005
9788.0596
9788.0082
9787.9433
9787.8615
9787.7582
9787.6277
9787.4628
9787.2542
9786.9903
9786.6567
9786.2356
9785.7047
9785.0369
9784.1989
9783.1507
9781.844
9780.2216
9778.216
9775.7482
9772.7271
9769.0478
9764.5913
9759.2224
9752.7887
9745.1189
9736.0213
9725.2829
9712.6693
9697.9243
9680.7693
9660.9023
9637.996
9611.6955
9581.6167
9547.3457
9508.4361
9464.4071
9414.7374
9358.8668
9296.1818
9226.0328
9147.6943
9060.4172
8963.3241
8855.5654
8736.0208
9790.023
9790.0231
9790.023
9790.0225
9790.0218
9790.0206
9790.0189
9790.0166
9790.0135
9790.0095
9790.0044
9789.9979
9789.9895
9789.979
9789.9657
9789.9491
9789.9281
9789.9019
9789.869
9789.8276
9789.7758
9789.7106
9789.6286
9789.5254
9789.3953
9789.2312
9789.0239
9788.7617
9788.4304
9788.0118
9787.4839
9786.8195
9785.9854
9784.9417
9783.6405
9782.0249
9780.0277
9777.5704
9774.562
9770.8983
9766.4605
9761.1142
9754.7075
9747.0691
9738.0073
9727.3095
9714.7415
9700.0479
9682.9515
9663.1516
9640.3227
9614.1112
9584.1345
9549.9802
9511.2033
9467.3246
9417.8241
9362.1433
9299.6704
9229.758
9151.6833
9064.6994
8967.9339
8860.5443
8741.369
9792.2162
9792.2163
9792.2161
9792.2156
9792.2148
9792.2136
9792.2118
9792.2095
9792.2063
9792.2023
9792.1971
9792.1905
9792.1821
9792.1716
9792.1583
9792.1416
9792.1208
9792.0946
9792.0619
9792.0208
9791.9693
9791.9047
9791.8235
9791.7213
9791.5925
9791.4298
9791.2244
9790.9644
9790.6355
9790.2197
9789.6947
9789.0337
9788.2036
9787.1648
9785.8699
9784.2622
9782.275
9779.8302
9776.8374
9773.1927
9768.7781
9763.4597
9757.0859
9749.4859
9740.468
9729.8198
9717.308
9702.6783
9685.6548
9665.9389
9643.2065
9617.1062
9587.2571
9553.2484
9514.6368
9470.9451
9421.6553
9366.2105
9304.0016
9234.3835
9156.6368
9070.0176
8973.6597
8866.7296
8748.0171
9794.8514
9794.8514
9794.8512
9794.8507
9794.8498
9794.8486
9794.8468
9794.8445
9794.8414
9794.8374
9794.8323
9794.8258
9794.8176
9794.8073
9794.7944
9794.7781
9794.7577
9794.7322
9794.7002
9794.6601
9794.6098
9794.5465
9794.4668
9794.3663
9794.2394
9794.0788
9793.8755
9793.618
9793.2916
9792.8785
9792.3564
9791.6987
9790.8728
9789.8393
9788.5512
9786.9525
9784.9769
9782.5467
9779.5721
9775.95
9771.5629
9766.2776
9759.9429
9752.3882
9743.4222
9732.8331
9720.3886
9705.836
9688.901
9669.2867
9646.6713
9620.7057
9591.0108
9557.178
9518.7661
9475.2999
9426.2637
9371.1035
9309.2129
9239.9497
9162.5986
9076.4189
8980.5528
8874.177
8756.0257
9797.9532
9797.9532
9797.9529
9797.9524
9797.9515
9797.9503
9797.9486
9797.9463
9797.9433
9797.9394
9797.9345
9797.9283
9797.9204
9797.9105
9797.8981
9797.8825
9797.8629
9797.8383
9797.8075
9797.7687
9797.7199
9797.6584
9797.5806
9797.4822
9797.3574
9797.1991
9796.998
9796.7428
9796.4189
9796.0082
9795.489
9794.8346
9794.0129
9792.9851
9791.7045
9790.1158
9788.1532
9785.7396
9782.7859
9779.1897
9774.8343
9769.5871
9763.2974
9755.7949
9746.889
9736.3688
9724.0035
9709.542
9692.7117
9673.2179
9650.7412
9624.9348
9595.4223
9561.7973
9523.6209
9480.4205
9431.6834
9376.8584
9315.3428
9246.4973
9169.6119
9083.9503
8988.6641
8882.9432
8765.4594
9801.5484
9801.5484
9801.5481
9801.5475
9801.5467
9801.5454
9801.5438
9801.5415
9801.5386
9801.5349
9801.5302
9801.5242
9801.5167
9801.5072
9801.4953
9801.4804
9801.4616
9801.438
9801.4083
9801.3708
9801.3235
9801.2636
9801.1876
9801.0911
9800.9683
9800.8119
9800.6128
9800.3595
9800.0375
9799.6292
9799.1126
9798.4616
9797.6443
9796.6225
9795.3502
9793.7724
9791.8241
9789.429
9786.4987
9782.9317
9778.6122
9773.4079
9767.1689
9759.7255
9750.8878
9740.4466
9728.1729
9713.8171
9697.1087
9677.7553
9655.44
9629.8189
9600.5184
9567.1346
9529.2313
9486.339
9437.9481
9383.5109
9322.4289
9254.0675
9177.7224
9092.6621
8998.0497
8893.0896
8776.3826
9805.6607
9805.6606
9805.6602
9805.6597
9805.6588
9805.6576
9805.6559
9805.6537
9805.6509
9805.6473
9805.6428
9805.637
9805.6297
9805.6206
9805.6091
9805.5947
9805.5766
9805.5538
9805.5249
9805.4885
9805.4424
9805.3837
9805.3091
9805.2139
9805.0925
9804.9375
9804.7398
9804.4879
9804.1675
9803.761
9803.2469
9802.5994
9801.7869
9800.7718
9799.5084
9797.9427
9796.0101
9793.6354
9790.731
9787.1963
9782.9164
9777.7597
9771.5769
9764.1992
9755.4383
9745.0865
9732.917
9718.6822
9702.1137
9682.9215
9660.7917
9635.3836
9606.3262
9573.2186
9535.6278
9493.0877
9445.0926
9391.0988
9330.5129
9262.7054
9186.9788
9102.6071
9008.7653
8904.6757
8788.861
9810.3115
9810.3114
9810.311
9810.3104
9810.3095
9810.3083
9810.3066
9810.3044
9810.3016
9810.2981
9810.2936
9810.2879
9810.2807
9810.2717
9810.2605
9810.2463
9810.2284
9810.206
9810.1776
9810.1416
9810.0959
9810.0379
9809.9638
9809.8693
9809.7485
9809.5942
9809.3973
9809.1462
9808.827
9808.4223
9807.9109
9807.2671
9806.46
9805.4523
9804.1989
9802.6464
9800.7311
9798.3788
9795.5028
9792.0037
9787.767
9782.6623
9776.5411
9769.2359
9760.5603
9750.3089
9738.2568
9724.1589
9707.749
9688.7402
9666.8217
9641.6555
9612.8741
9580.0795
9542.8426
9500.7011
9453.1538
9399.6617
9339.6368
9272.4559
9197.4287
9113.8362
9020.8678
8917.7635
8802.9606
9815.5163
9815.5161
9815.5157
9815.5151
9815.5142
9815.5129
9815.5112
9815.5089
9815.5061
9815.5025
9815.4979
9815.4922
9815.485
9815.476
9815.4646
9815.4504
9815.4326
9815.41
9815.3816
9815.3456
9815.2999
9815.2418
9815.1677
9815.0732
9814.9525
9814.7983
9814.6017
9814.3513
9814.0333
9813.6306
9813.1222
9812.4829
9811.6821
9810.6828
9809.4407
9807.9029
9806.0069
9803.6792
9800.8344
9797.3739
9793.1843
9788.1359
9782.0817
9774.8562
9766.2751
9756.1354
9744.2146
9730.2701
9714.0389
9695.2368
9673.5563
9648.6623
9620.1908
9587.7477
9550.9077
9509.2134
9462.1678
9409.2378
9349.8417
9283.3637
9209.1218
9126.4048
9034.4147
8932.4164
8818.7482
9821.288
9821.2878
9821.2874
9821.2867
9821.2857
9821.2844
9821.2826
9821.2804
9821.2774
9821.2737
9821.2691
9821.2632
9821.2559
9821.2467
9821.2352
9821.2207
9821.2026
9821.1798
9821.151
9821.1146
9821.0685
9821.0099
9820.9354
9820.8405
9820.7196
9820.5654
9820.3691
9820.1196
9819.8032
9819.4031
9818.8987
9818.2649
9817.4715
9816.482
9815.2527
9813.7316
9811.8569
9809.5564
9806.7457
9803.3272
9799.1884
9794.2011
9788.2199
9781.0816
9772.6047
9762.5889
9750.8141
9737.0407
9721.009
9702.438
9681.0231
9656.4327
9628.3064
9596.2544
9559.8563
9518.6593
9472.1724
9419.8677
9361.1722
9295.4768
9222.1099
9140.3657
9049.465
8948.6966
8836.2895
9827.6402
9827.64
9827.6396
9827.6389
9827.6379
9827.6365
9827.6347
9827.6324
9827.6293
9827.6255
9827.6207
9827.6147
9827.6072
9827.5977
9827.586
9827.5712
9827.5527
9827.5295
9827.5002
9827.4633
9827.4167
9827.3576
9827.2827
9827.1874
9827.0663
9826.9124
9826.7168
9826.4687
9826.1547
9825.758
9825.2584
9824.6314
9823.847
9822.8689
9821.6543
9820.1519
9818.3011
9816.0307
9813.2572
9809.8842
9805.8004
9800.8792
9794.9776
9787.935
9779.5728
9769.6936
9758.0806
9744.4971
9728.6866
9710.3717
9689.251
9664.9965
9637.2518
9605.6323
9569.7227
9529.0757
9483.2058
9431.5934
9373.6727
9308.8436
9236.4426
9155.775
9066.0759
8966.6656
8855.6501
9834.5895
9834.5893
9834.5888
9834.5881
9834.5871
9834.5857
9834.5838
9834.5814
9834.5784
9834.5745
9834.5696
9834.5634
9834.5558
9834.5462
9834.5342
9834.5192
9834.5004
9834.4768
9834.4472
9834.41
9834.363
9834.3036
9834.2284
9834.1331
9834.0122
9833.859
9833.6647
9833.4188
9833.1079
9832.7158
9832.2223
9831.6032
9830.8288
9829.8639
9828.6661
9827.1848
9825.3605
9823.1229
9820.39
9817.0662
9813.042
9808.1928
9802.378
9795.4402
9787.2041
9777.4754
9766.0405
9752.6661
9737.0995
9719.0665
9698.2693
9674.3837
9647.0585
9615.9144
9580.5418
9540.4987
9495.3079
9444.4571
9387.3887
9323.5116
9252.1728
9172.6858
9084.3047
8986.3839
8876.8941
9842.1574
9842.1572
9842.1568
9842.1561
9842.155
9842.1536
9842.1518
9842.1493
9842.1463
9842.1423
9842.1374
9842.1312
9842.1234
9842.1138
9842.1017
9842.0865
9842.0676
9842.0439
9842.0142
9841.9768
9841.9297
9841.8703
9841.7953
9841.7004
9841.5803
9841.4283
9841.236
9840.9929
9840.6859
9840.2991
9839.8126
9839.2024
9838.4396
9837.4893
9836.3097
9834.8517
9833.0565
9830.8549
9828.1658
9824.8954
9820.9359
9816.165
9810.4451
9803.6222
9795.5243
9785.9604
9774.7205
9761.5753
9746.2756
9728.551
9708.1074
9684.6251
9657.7587
9627.1344
9592.3485
9552.9664
9508.5191
9458.501
9402.3657
9339.5294
9269.35
9191.1518
9104.2075
9007.9118
8900.0847
9850.3685
9850.3683
9850.3679
9850.3672
9850.3662
9850.3648
9850.363
9850.3606
9850.3575
9850.3536
9850.3487
9850.3425
9850.3347
9850.3251
9850.313
9850.2979
9850.279
9850.2553
9850.2257
9850.1884
9850.1416
9850.0826
9850.0081
9849.9141
9849.7953
9849.6451
9849.4552
9849.2154
9848.9129
9848.5319
9848.053
9847.4526
9846.7023
9845.7678
9844.6086
9843.1758
9841.4118
9839.249
9836.6074
9833.3947
9829.5054
9824.8199
9819.2038
9812.5064
9804.5592
9795.1749
9784.1476
9771.252
9756.2428
9738.8536
9718.7947
9695.7517
9669.3844
9639.3255
9605.1786
9566.5172
9522.8784
9473.7688
9418.6486
9356.944
9288.0245
9211.2247
9125.8399
9031.3084
8925.2842
9859.2469
9859.2468
9859.2464
9859.2458
9859.2448
9859.2435
9859.2417
9859.2393
9859.2363
9859.2325
9859.2277
9859.2216
9859.214
9859.2044
9859.1925
9859.1776
9859.1589
9859.1355
9859.1062
9859.0694
9859.0231
9858.9649
9858.8915
9858.7988
9858.6818
9858.5338
9858.347
9858.111
9857.8134
9857.4387
9856.9679
9856.3779
9855.6409
9854.7236
9853.5858
9852.1802
9850.4501
9848.3287
9845.7378
9842.5875
9838.7743
9834.1818
9828.6789
9822.118
9814.3345
9805.1452
9794.3483
9781.7232
9767.0288
9750.003
9730.361
9707.794
9681.9676
9652.522
9619.0684
9581.1871
9538.4271
9490.3023
9436.2816
9375.8023
9308.2437
9232.9559
9149.2567
9056.6318
8952.5535
9868.8142
9868.8141
9868.8138
9868.8132
9868.8123
9868.811
9868.8093
9868.807
9868.8041
9868.8004
9868.7957
9868.7897
9868.7823
9868.773
9868.7613
9868.7467
9868.7285
9868.7056
9868.6769
9868.6409
9868.5955
9868.5385
9868.4665
9868.3757
9868.261
9868.116
9867.9327
9867.7013
9867.4094
9867.0418
9866.5799
9866.0013
9865.2788
9864.3796
9863.2649
9861.8881
9860.1938
9858.1165
9855.5802
9852.497
9848.7664
9844.275
9838.8948
9832.482
9824.8756
9815.8969
9805.349
9793.0157
9778.6611
9762.0275
9742.8356
9720.7821
9695.5401
9666.757
9634.0512
9597.0145
9555.2049
9508.1427
9455.3086
9396.1478
9330.0556
9256.3958
9174.5111
9083.9385
8981.9512
9879.0863
9879.0863
9879.086
9879.0854
9879.0846
9879.0834
9879.0817
9879.0796
9879.0768
9879.0733
9879.0688
9879.0631
9879.0559
9879.047
9879.0358
9879.0217
9879.004
9878.9819
9878.9542
9878.9193
9878.8754
9878.82
9878.7502
9878.6619
9878.5503
9878.4091
9878.2305
9878.0047
9877.7198
9877.3607
9876.9094
9876.3438
9875.6373
9874.7581
9873.6681
9872.3219
9870.6655
9868.6354
9866.1575
9863.1465
9859.5051
9855.123
9849.8756
9843.6225
9836.2071
9827.4554
9817.1754
9805.1563
9791.1669
9774.9549
9756.2466
9734.7457
9710.1325
9682.0615
9650.1623
9614.0375
9573.2493
9527.3307
9475.7695
9418.0252
9353.5066
9281.5936
9201.6551
9113.2836
9013.5335
9890.0775
9890.0774
9890.0771
9890.0766
9890.0759
9890.0748
9890.0732
9890.0712
9890.0687
9890.0653
9890.0611
9890.0557
9890.049
9890.0405
9890.0299
9890.0166
9889.9998
9889.9787
9889.9523
9889.9189
9889.8769
9889.8238
9889.7567
9889.6718
9889.5642
9889.4279
9889.2552
9889.0366
9888.7604
9888.4119
9887.9733
9887.4232
9886.7354
9885.8788
9884.8161
9883.5032
9881.8876
9879.9077
9877.4923
9874.5589
9871.0135
9866.7491
9861.6445
9855.5633
9848.3533
9839.8455
9829.8533
9818.171
9804.5729
9788.8123
9770.622
9749.7132
9725.7733
9698.468
9667.4381
9632.2897
9592.5982
9547.9033
9497.7056
9441.4772
9378.6426
9308.5977
9230.739
9144.7197
9047.3537
9901.8014
9901.8013
9901.8011
9901.8007
9901.8
9901.799
9901.7976
9901.7957
9901.7934
9901.7903
9901.7864
9901.7815
9901.7752
9901.7674
9901.7575
9901.7451
9901.7295
9901.7098
9901.6849
9901.6536
9901.614
9901.5638
9901.5002
9901.4194
9901.3169
9901.1866
9901.0211
9900.8113
9900.5456
9900.2098
9899.7865
9899.2545
9898.5885
9897.758
9896.7263
9895.4504
9893.8795
9891.9544
9889.6064
9886.7564
9883.3141
9879.1759
9874.2244
9868.3275
9861.3378
9853.0915
9843.4073
9832.0851
9818.9046
9803.6251
9785.9877
9765.7102
9742.492
9716.0091
9685.9085
9651.8056
9613.2859
9569.8981
9521.1559
9466.5459
9405.5079
9337.4543
9261.8112
9178.2978
9083.4624
9914.2775
9914.2774
9914.2772
9914.2769
9914.2762
9914.2753
9914.2741
9914.2724
9914.2703
9914.2675
9914.2639
9914.2594
9914.2537
9914.2465
9914.2375
9914.226
9914.2116
9914.1934
9914.1703
9914.1412
9914.1042
9914.0572
9913.9974
9913.9212
9913.8242
9913.7006
9913.5433
9913.3433
9913.0895
9912.7681
9912.3623
9911.8514
9911.2105
9910.4096
9909.4131
9908.1789
9906.658
9904.7932
9902.519
9899.7596
9896.4281
9892.4251
9887.6373
9881.9377
9875.1837
9867.2169
9857.8616
9846.9219
9834.1837
9819.4158
9802.3655
9782.7633
9760.3185
9734.714
9705.6036
9672.6176
9635.3456
9593.3506
9546.159
9493.2721
9434.1456
9368.2085
9294.9181
9214.0668
9121.9071
9927.5272
9927.5272
9927.5271
9927.5267
9927.5262
9927.5254
9927.5243
9927.5228
9927.5209
9927.5183
9927.5151
9927.511
9927.5058
9927.4992
9927.4909
9927.4804
9927.4671
9927.4503
9927.4289
9927.4018
9927.3673
9927.3234
9927.2673
9927.1956
9927.1041
9926.9873
9926.8383
9926.6485
9926.4072
9926.1011
9925.7141
9925.2259
9924.6123
9923.8444
9922.8872
9921.6999
9920.2352
9918.4381
9916.2455
9913.5849
9910.3731
9906.5151
9901.9027
9896.4137
9889.9114
9882.2419
9873.2336
9862.697
9850.4288
9836.203
9819.7798
9800.8994
9779.2783
9754.6078
9726.5546
9694.7536
9658.809
9618.2953
9572.7519
9521.6951
9464.5972
9400.9033
9330.1039
9252.0739
9162.733
9941.5739
9941.5739
9941.5738
9941.5735
9941.573
9941.5723
9941.5713
9941.5699
9941.5681
9941.5658
9941.5628
9941.5589
9941.5541
9941.5479
9941.5401
9941.5302
9941.5177
9941.5018
9941.4817
9941.4561
9941.4234
9941.3818
9941.3286
9941.2607
9941.1739
9941.0631
9940.9216
9940.7414
9940.5123
9940.2216
9939.8537
9939.3893
9938.805
9938.0727
9937.1587
9936.0235
9934.6212
9932.8989
9930.796
9928.2432
9925.1611
9921.4592
9917.0348
9911.7711
9905.5348
9898.1776
9889.535
9879.4278
9867.6568
9854.0092
9838.2553
9820.1403
9799.3934
9775.7164
9748.7834
9718.2417
9683.7063
9644.7649
9600.97
9551.8528
9496.9024
9435.5806
9367.4106
9292.3643
9205.9842
9956.4347
9956.4347
9956.4346
9956.4344
9956.4339
9956.4332
9956.4323
9956.431
9956.4292
9956.427
9956.424
9956.4203
9956.4155
9956.4095
9956.4019
9956.3922
9956.38
9956.3646
9956.345
9956.3202
9956.2886
9956.2484
9956.1971
9956.1319
9956.0486
9955.9426
9955.8076
9955.636
9955.4183
9955.1424
9954.7936
9954.3534
9953.7995
9953.1048
9952.237
9951.1579
9949.8235
9948.1828
9946.1779
9943.7422
9940.8005
9937.2665
9933.042
9928.0153
9922.0596
9915.0337
9906.7805
9897.127
9885.8849
9872.8535
9857.8066
9840.5045
9820.6843
9798.0596
9772.3147
9743.1076
9710.066
9672.7905
9630.8472
9583.7816
9531.0999
9472.2801
9406.8792
9334.9809
9251.7049
9972.1174
9972.1174
9972.1173
9972.1171
9972.1166
9972.1159
9972.115
9972.1136
9972.1119
9972.1096
9972.1066
9972.1028
9972.098
9972.0919
9972.0841
9972.0744
9972.0621
9972.0466
9972.027
9972.0022
9971.9709
9971.9313
9971.8811
9971.8174
9971.7368
9971.6346
9971.5052
9971.3414
9971.1344
9970.873
9970.5432
9970.1277
9969.6052
9968.95
9968.1311
9967.1122
9965.8507
9964.2978
9962.3978
9960.0875
9957.295
9953.9387
9949.926
9945.1512
9939.4937
9932.8194
9924.9787
9915.8064
9905.1277
9892.7458
9878.4481
9862.0065
9843.1677
9821.6564
9797.1687
9769.3745
9737.9141
9702.4013
9662.4155
9617.5167
9567.2272
9511.041
9448.5492
9379.9641
9299.9423
9988.6203
9988.6203
9988.6202
9988.6199
9988.6195
9988.6187
9988.6177
9988.6163
9988.6145
9988.6121
9988.609
9988.605
9988.6
9988.5937
9988.5858
9988.5758
9988.5632
9988.5475
9988.5277
9988.5028
9988.4715
9988.4322
9988.3827
9988.3205
9988.2421
9988.1436
9988.0196
9987.8636
9987.6674
9987.4207
9987.1104
9986.7204
9986.2305
9985.6165
9984.8488
9983.8926
9982.7076
9981.247
9979.4579
9977.2799
9974.6456
9971.4782
9967.6906
9963.1827
9957.8416
9951.5403
9944.1355
9935.4752
9925.391
9913.6963
9900.1922
9884.6593
9866.8571
9846.5223
9823.3636
9797.0634
9767.2746
9733.6243
9695.7053
9653.0919
9605.3214
9551.9024
9492.4612
9427.3549
9350.7476
10005.933
10005.933
10005.933
10005.933
10005.932
10005.931
10005.93
10005.929
10005.927
10005.924
10005.921
10005.917
10005.912
10005.906
10005.898
10005.888
10005.875
10005.859
10005.839
10005.815
10005.784
10005.745
10005.697
10005.637
10005.562
10005.468
10005.35
10005.203
10005.019
10004.788
10004.498
10004.135
10003.679
10003.108
10002.393
10001.502
10000.396
9999.0319
9997.3587
9995.3203
9992.8531
9989.8856
9986.3361
9982.1115
9977.1057
9971.1973
9964.2553
9956.1362
9946.6793
9935.7118
9923.0447
9908.4712
9891.7632
9872.6702
9850.9144
9826.1917
9798.1682
9766.4842
9730.7456
9690.5404
9645.4197
9594.9042
9538.6597
9477.2049
9404.1735
10024.044
10024.044
10024.044
10024.044
10024.043
10024.042
10024.041
10024.04
10024.038
10024.036
10024.032
10024.029
10024.024
10024.017
10024.01
10024
10023.988
10023.972
10023.953
10023.93
10023.9
10023.864
10023.818
10023.761
10023.691
10023.603
10023.494
10023.357
10023.187
10022.974
10022.707
10022.372
10021.952
10021.424
10020.764
10019.939
10018.916
10017.651
10016.099
10014.207
10011.916
10009.16
10005.862
10001.937
9997.2835
9991.7906
9985.3379
9977.7887
9968.9946
9958.7938
9947.0095
9933.4475
9917.8929
9900.1088
9879.8324
9856.774
9830.6132
9801.0035
9767.564
9729.8952
9687.5604
9640.089
9587.1942
9529.5829
9460.2765
10042.946
10042.946
10042.945
10042.945
10042.945
10042.944
10042.943
10042.942
10042.94
10042.938
10042.935
10042.931
10042.927
10042.921
10042.914
10042.905
10042.894
10042.88
10042.863
10042.841
10042.814
10042.781
10042.74
10042.688
10042.624
10042.545
10042.446
10042.323
10042.169
10041.975
10041.733
10041.428
10041.044
10040.562
10039.957
10039.202
10038.263
10037.102
10035.677
10033.938
10031.832
10029.298
10026.266
10022.654
10018.371
10013.318
10007.379
10000.43
9992.334
9982.9407
9972.0859
9959.5891
9945.2489
9928.8433
9910.1252
9888.8207
9864.6239
9837.2019
9806.1865
9771.1897
9731.785
9687.5053
9638.104
9584.4922
9519.208
10062.635
10062.635
10062.635
10062.635
10062.635
10062.634
10062.633
10062.632
10062.631
10062.629
10062.626
10062.623
10062.619
10062.614
10062.608
10062.601
10062.591
10062.579
10062.564
10062.546
10062.523
10062.494
10062.458
10062.414
10062.358
10062.289
10062.202
10062.093
10061.957
10061.785
10061.568
10061.294
10060.948
10060.512
10059.965
10059.281
10058.43
10057.378
10056.084
10054.507
10052.595
10050.294
10047.54
10044.256
10040.364
10035.77
10030.371
10024.053
10016.691
10008.147
9998.2692
9986.892
9973.829
9958.8737
9941.7955
9922.338
9900.211
9875.096
9846.6373
9814.458
9778.1413
9737.2084
9691.4132
9642.0729
9581.0167
10083.116
10083.116
10083.116
10083.116
10083.116
10083.115
10083.114
10083.113
10083.112
10083.111
10083.109
10083.106
10083.103
10083.099
10083.094
10083.088
10083.08
10083.07
10083.058
10083.043
10083.024
10083
10082.97
10082.932
10082.886
10082.826
10082.752
10082.658
10082.54
10082.389
10082.198
10081.956
10081.65
10081.262
10080.775
10080.166
10079.406
10078.467
10077.312
10075.902
10074.195
10072.138
10069.672
10066.734
10063.25
10059.137
10054.304
10048.648
10042.055
10034.401
10025.549
10015.347
10003.625
9990.1944
9974.8411
9957.3269
9937.3803
9914.6986
9888.939
9859.7356
9826.676
9789.226
9747.2063
9702.3949
9645.7615
10104.387
10104.387
10104.387
10104.386
10104.386
10104.386
10104.385
10104.384
10104.383
10104.382
10104.38
10104.378
10104.376
10104.373
10104.368
10104.363
10104.357
10104.349
10104.339
10104.326
10104.31
10104.291
10104.266
10104.235
10104.195
10104.145
10104.082
10104.003
10103.901
10103.772
10103.607
10103.397
10103.131
10102.795
10102.37
10101.838
10101.175
10100.353
10099.343
10098.111
10096.616
10094.811
10092.649
10090.071
10087.013
10083.403
10079.162
10074.198
10068.41
10061.688
10053.91
10044.939
10034.624
10022.794
10009.253
9993.7827
9976.1326
9956.0183
9933.1118
9907.056
9877.4214
9843.6833
9805.5535
9765.5196
9713.6475
10126.437
10126.437
10126.437
10126.436
10126.436
10126.436
10126.435
10126.434
10126.434
10126.432
10126.431
10126.429
10126.427
10126.424
10126.42
10126.415
10126.409
10126.402
10126.393
10126.382
10126.368
10126.351
10126.33
10126.303
10126.269
10126.227
10126.174
10126.106
10126.021
10125.912
10125.773
10125.597
10125.373
10125.089
10124.729
10124.278
10123.715
10123.018
10122.159
10121.11
10119.835
10118.295
10116.448
10114.245
10111.632
10108.548
10104.923
10100.68
10095.732
10089.984
10083.328
10075.646
10066.804
10056.652
10045.014
10031.693
10016.462
9999.0569
9979.1685
9956.4368
9930.4691
9900.652
9866.5894
9831.5612
9784.8831
10149.24
10149.24
10149.24
10149.24
10149.239
10149.239
10149.238
10149.237
10149.236
10149.235
10149.234
10149.231
10149.229
10149.226
10149.222
10149.217
10149.212
10149.204
10149.196
10149.185
10149.172
10149.156
10149.137
10149.113
10149.083
10149.047
10149.002
10148.946
10148.876
10148.787
10148.675
10148.532
10148.35
10148.119
10147.827
10147.46
10147.001
10146.431
10145.73
10144.87
10143.824
10142.559
10141.04
10139.228
10137.078
10134.54
10131.558
10128.066
10123.993
10119.259
10113.774
10107.438
10100.137
10091.741
10082.099
10071.036
10058.35
10043.801
10027.105
10007.929
9985.8639
9960.2648
9930.5699
9900.7523
9859.6327
10172.757
10172.757
10172.756
10172.756
10172.756
10172.755
10172.754
10172.753
10172.752
10172.751
10172.749
10172.747
10172.744
10172.741
10172.736
10172.731
10172.725
10172.718
10172.709
10172.698
10172.685
10172.67
10172.651
10172.63
10172.604
10172.573
10172.536
10172.491
10172.435
10172.366
10172.279
10172.169
10172.029
10171.851
10171.627
10171.345
10170.993
10170.556
10170.015
10169.351
10168.542
10167.563
10166.385
10164.98
10163.312
10161.343
10159.028
10156.317
10153.153
10149.475
10145.21
10140.278
10134.585
10128.024
10120.469
10111.772
10101.759
10090.229
10076.926
10061.538
10043.68
10022.682
9997.8644
9973.4639
9937.8867
10196.933
10196.932
10196.932
10196.932
10196.931
10196.931
10196.93
10196.929
10196.928
10196.926
10196.924
10196.922
10196.919
10196.915
10196.911
10196.906
10196.899
10196.892
10196.883
10196.873
10196.861
10196.846
10196.83
10196.811
10196.789
10196.764
10196.734
10196.7
10196.659
10196.608
10196.546
10196.468
10196.37
10196.246
10196.09
10195.895
10195.652
10195.349
10194.973
10194.512
10193.948
10193.264
10192.441
10191.458
10190.291
10188.912
10187.289
10185.388
10183.169
10180.586
10177.588
10174.115
10170.095
10165.447
10160.073
10153.855
10146.653
10138.302
10128.597
10117.277
10103.991
10088.083
10068.869
10049.784
10020.161
10221.711
10221.711
10221.71
10221.71
10221.709
10221.709
10221.708
10221.707
10221.706
10221.704
10221.702
10221.7
10221.697
10221.694
10221.69
10221.686
10221.68
10221.674
10221.666
10221.657
10221.647
10221.636
10221.622
10221.608
10221.591
10221.572
10221.551
10221.526
10221.498
10221.465
10221.426
10221.38
10221.324
10221.255
10221.169
10221.062
10220.928
10220.762
10220.556
10220.302
10219.991
10219.613
10219.158
10218.614
10217.965
10217.196
10216.291
10215.228
10213.987
10212.54
10210.858
10208.901
10206.622
10203.965
10200.865
10197.237
10192.983
10187.98
10182.078
10175.092
10166.75
10156.538
10143.875
10130.913
10108.633
10248.16
10248.16
10248.159
10248.159
10248.158
10248.158
10248.157
10248.156
10248.155
10248.153
10248.152
10248.15
10248.148
10248.145
10248.142
10248.139
10248.134
10248.129
10248.124
10248.117
10248.11
10248.101
10248.092
10248.081
10248.07
10248.057
10248.044
10248.03
10248.015
10248
10247.985
10247.971
10247.958
10247.946
10247.935
10247.923
10247.909
10247.893
10247.871
10247.844
10247.809
10247.767
10247.713
10247.647
10247.562
10247.458
10247.332
10247.181
10247
10246.786
10246.529
10246.216
10245.826
10245.335
10244.709
10243.906
10242.871
10241.536
10239.813
10237.604
10234.762
10231.001
10226.327
10222.07
10213.955
10275.989
10275.988
10275.988
10275.987
10275.987
10275.986
10275.986
10275.985
10275.984
10275.983
10275.982
10275.981
10275.979
10275.977
10275.975
10275.973
10275.97
10275.967
10275.963
10275.959
10275.955
10275.95
10275.944
10275.939
10275.933
10275.928
10275.924
10275.921
10275.922
10275.927
10275.94
10275.962
10275.997
10276.047
10276.115
10276.205
10276.321
10276.466
10276.641
10276.855
10277.115
10277.429
10277.802
10278.243
10278.761
10279.366
10280.071
10280.893
10281.845
10282.945
10284.208
10285.649
10287.276
10289.099
10291.12
10293.343
10295.763
10298.37
10301.151
10304.1
10307.211
10310.451
10314.122
10318.861
10322.455
10303.773
10303.772
10303.772
10303.772
10303.771
10303.771
10303.77
10303.77
10303.769
10303.769
10303.768
10303.768
10303.767
10303.766
10303.766
10303.765
10303.765
10303.764
10303.764
10303.763
10303.763
10303.763
10303.763
10303.764
10303.766
10303.769
10303.776
10303.786
10303.803
10303.83
10303.87
10303.929
10304.011
10304.123
10304.269
10304.457
10304.695
10304.992
10305.36
10305.813
10306.364
10307.032
10307.83
10308.778
10309.898
10311.213
10312.754
10314.552
10316.642
10319.063
10321.855
10325.058
10328.717
10332.871
10337.565
10342.845
10348.756
10355.354
10362.696
10370.869
10379.972
10390.155
10401.77
10415.201
10430.211
10331.39
10331.39
10331.39
10331.389
10331.389
10331.389
10331.388
10331.388
10331.388
10331.388
10331.388
10331.389
10331.389
10331.39
10331.391
10331.392
10331.394
10331.397
10331.4
10331.403
10331.407
10331.413
10331.419
10331.427
10331.437
10331.45
10331.467
10331.491
10331.526
10331.574
10331.643
10331.737
10331.867
10332.039
10332.261
10332.546
10332.905
10333.354
10333.912
10334.6
10335.439
10336.456
10337.675
10339.126
10340.844
10342.868
10345.241
10348.014
10351.241
10354.982
10359.301
10364.267
10369.956
10376.445
10383.815
10392.157
10401.568
10412.163
10424.072
10437.461
10452.523
10469.531
10488.899
10511.119
10536.887
10358.72
10358.72
10358.72
10358.72
10358.719
10358.719
10358.719
10358.72
10358.72
10358.721
10358.722
10358.723
10358.724
10358.727
10358.729
10358.733
10358.737
10358.742
10358.748
10358.756
10358.765
10358.775
10358.788
10358.803
10358.821
10358.843
10358.873
10358.911
10358.963
10359.034
10359.132
10359.265
10359.444
10359.676
10359.976
10360.358
10360.839
10361.441
10362.188
10363.107
10364.231
10365.592
10367.226
10369.176
10371.487
10374.213
10377.413
10381.154
10385.511
10390.565
10396.403
10403.124
10410.834
10419.645
10429.679
10441.068
10453.961
10468.531
10484.975
10503.534
10524.494
10548.232
10575.255
10606.211
10642.06
10385.663
10385.663
10385.662
10385.662
10385.662
10385.662
10385.663
10385.663
10385.664
10385.665
10385.667
10385.669
10385.672
10385.675
10385.679
10385.684
10385.69
10385.698
10385.707
10385.718
10385.731
10385.746
10385.763
10385.785
10385.81
10385.842
10385.883
10385.935
10386.006
10386.101
10386.229
10386.401
10386.629
10386.924
10387.303
10387.783
10388.387
10389.141
10390.075