/*--------------------------------*- C++ -*----------------------------------*\
  =========                 |
  \\      /  F ield         | OpenFOAM: The Open Source CFD Toolbox
   \\    /   O peration     | Website:  https://openfoam.org
    \\  /    A nd           | Version:  13
     \\/     M anipulation  |
\*---------------------------------------------------------------------------*/
FoamFile
{
    format      ascii;
    class       volScalarField;
    location    "14.303444";
    object      yPlus;
}
// * * * * * * * * * * * * * * * * * * * * * * * * * * * * * * * * * * * * * //

dimensions      [];

internalField   uniform 0;

boundaryField
{
    inlet
    {
        type            calculated;
        value           uniform 0;
    }
    outlet
    {
        type            calculated;
        value           uniform 0;
    }
    cylinder
    {
        type            calculated;
        value           nonuniform List<scalar> 
132
(
3.6730075e-07
3.6594426e-07
3.6205661e-07
3.5552142e-07
3.4630832e-07
3.3442639e-07
3.1998815e-07
3.0318539e-07
2.8427303e-07
2.6355347e-07
2.4137865e-07
2.1815681e-07
1.9435429e-07
1.704888e-07
1.4710693e-07
1.2475157e-07
1.0392224e-07
8.5034581e-08
6.8378609e-08
5.4094703e-08
4.2178527e-08
3.2506463e-08
2.4907459e-08
1.9218268e-08
1.5318768e-08
1.3006179e-08
1.1811934e-08
1.0987804e-08
9.8304834e-09
8.1585812e-09
6.2377844e-09
4.4809407e-09
3.240454e-09
2.7619654e-09
2.9692491e-09
3.5833293e-09
4.45714e-09
5.5702587e-09
6.9561209e-09
8.6568323e-09
1.0759944e-08
1.3372868e-08
1.6298705e-08
1.9499421e-08
2.2890824e-08
2.6393576e-08
2.992588e-08
3.3415115e-08
3.6812972e-08
4.0077062e-08
4.3182139e-08
4.6111594e-08
4.884928e-08
5.1380823e-08
5.3730847e-08
5.5879577e-08
5.7831505e-08
5.9577251e-08
6.1138532e-08
6.2505048e-08
6.3686875e-08
6.4666367e-08
6.5458381e-08
6.6051785e-08
6.6462638e-08
6.6680938e-08
3.6607094e-07
3.6228648e-07
3.5599512e-07
3.4714138e-07
3.357371e-07
3.2188689e-07
3.0575399e-07
2.8756064e-07
2.6757567e-07
2.4611535e-07
2.2354901e-07
2.0030217e-07
1.7685265e-07
1.5371398e-07
1.3140752e-07
1.1042611e-07
9.1198548e-08
7.4044981e-08
5.9151288e-08
4.6563028e-08
3.6200468e-08
2.7909912e-08
2.1532113e-08
1.6943232e-08
1.4028187e-08
1.2480087e-08
1.166517e-08
1.0805872e-08
9.4074739e-09
7.5379573e-09
5.5906836e-09
3.9687285e-09
2.9799715e-09
2.7861122e-09
3.1641403e-09
3.8779869e-09
4.8281432e-09
6.0260109e-09
7.5047651e-09
9.3067675e-09
1.1518894e-08
1.4242506e-08
1.7261092e-08
2.0532755e-08
2.3972613e-08
2.7495751e-08
3.1023927e-08
3.4494271e-08
3.7856829e-08
4.1077371e-08
4.4129554e-08
4.7002109e-08
4.9677368e-08
5.2143348e-08
5.4441031e-08
5.6523771e-08
5.841274e-08
6.0096696e-08
6.1598983e-08
6.2906449e-08
6.4023338e-08
6.4942431e-08
6.5669662e-08
6.6203631e-08
6.6549839e-08
6.6707664e-08
)
;
    }
    frontAndBack
    {
        type            empty;
    }
}


// ************************************************************************* //
