/*--------------------------------*- C++ -*----------------------------------*\
  =========                 |
  \\      /  F ield         | OpenFOAM: The Open Source CFD Toolbox
   \\    /   O peration     | Website:  https://openfoam.org
    \\  /    A nd           | Version:  13
     \\/     M anipulation  |
\*---------------------------------------------------------------------------*/
FoamFile
{
    format      ascii;
    class       volScalarField;
    location    "38.197445";
    object      k;
}
// * * * * * * * * * * * * * * * * * * * * * * * * * * * * * * * * * * * * * //

dimensions      [0 2 -2 0 0 0 0];

internalField   nonuniform List<scalar> 
17140
(
7.3439813e-12
2.3077335e-10
1.8871045e-09
8.1156638e-09
2.4973977e-08
6.3019888e-08
1.3974565e-07
2.8321758e-07
5.3745287e-07
9.7030268e-07
1.684941e-06
2.8365206e-06
4.6562051e-06
7.4856773e-06
1.1826456e-05
1.8410008e-05
2.8296834e-05
4.3015515e-05
6.4756099e-05
9.6635933e-05
0.00014305925
0.00021019256
0.0003065716
0.00044383385
0.0006375161
0.00090774064
0.0012793923
0.0017810212
0.0024412371
0.0032811601
0.0043026539
0.0054762406
0.0067385228
0.0080077714
0.0092124377
0.010311539
0.01129508
0.012173356
0.012966007
0.013695358
0.014383836
0.015053446
0.015726131
0.01642466
0.017173052
0.017995599
0.018917517
0.019967109
0.021175119
0.022575325
0.024205884
0.026108886
0.028328216
0.030901708
0.033869962
0.037283572
0.041205707
0.045672939
0.050694716
0.055467702
0.057926479
0.055481751
0.043003968
0.030456877
0.034181328
7.3415414e-12
2.3069668e-10
1.8864818e-09
8.1130141e-09
2.4965899e-08
6.2999612e-08
1.3970074e-07
2.8312633e-07
5.3727866e-07
9.6998528e-07
1.6843832e-06
2.8355684e-06
4.6546162e-06
7.4830753e-06
1.182226e-05
1.8403324e-05
2.8286296e-05
4.2999036e-05
6.4730494e-05
9.6596339e-05
0.00014299824
0.00021009877
0.00030642764
0.00044361317
0.00063717839
0.00090722541
0.0012786108
0.0017798484
0.0024395081
0.0032786812
0.0042992447
0.0054717584
0.0067327888
0.0080007141
0.0092039982
0.010301442
0.011283058
0.012159187
0.012949429
0.013676193
0.014361944
0.015028644
0.015698091
0.016392773
0.01713622
0.017952087
0.018864834
0.019901823
0.02109252
0.022469131
0.024067725
0.025928223
0.028092376
0.030599352
0.033502353
0.036887302
0.040897251
0.045735541
0.051719401
0.05867425
0.064163902
0.06533006
0.05513022
0.042735734
0.044576743
7.2887002e-12
2.2903621e-10
1.8729029e-09
8.0546064e-09
2.4786086e-08
6.2545537e-08
1.3869282e-07
2.81081e-07
5.3339136e-07
9.629549e-07
1.6721508e-06
2.8149308e-06
4.6206594e-06
7.4283467e-06
1.1735566e-05
1.8267999e-05
2.807771e-05
4.2681056e-05
6.4250478e-05
9.5878141e-05
0.00014193258
0.00020853023
0.00030413762
0.00044029857
0.00063242703
0.00090049203
0.0012692032
0.0017669425
0.0024222239
0.0032562542
0.0042712929
0.0054385302
0.0066951611
0.0079598375
0.0091607659
0.0102562
0.011235707
0.012109438
0.01289701
0.013620849
0.014303416
0.014966599
0.015632037
0.016321908
0.017059208
0.017866902
0.018768636
0.019790629
0.020960984
0.022310352
0.023872852
0.025686243
0.027789876
0.030224051
0.033052914
0.036392991
0.040462008
0.045652228
0.052371998
0.061208062
0.070497583
0.075777166
0.068991344
0.054911822
0.052585194
7.1820743e-12
2.2568564e-10
1.8455034e-09
7.9367617e-09
2.4423369e-08
6.162992e-08
1.3666143e-07
2.7696141e-07
5.2556779e-07
9.4881802e-07
1.6475777e-06
2.7735184e-06
4.5526009e-06
7.3187956e-06
1.1562268e-05
1.7997881e-05
2.7662004e-05
4.2048376e-05
6.3297075e-05
9.4454351e-05
0.00013982425
0.00020543379
0.00029962775
0.00043378815
0.0006231219
0.00088734831
0.0012509059
0.0017419421
0.002388889
0.0032132038
0.0042179058
0.0053754257
0.0066242212
0.0078835091
0.009081066
0.01017418
0.01115157
0.01202293
0.012807732
0.013528379
0.014207321
0.014866372
0.015527001
0.016211058
0.016940957
0.017738932
0.018627727
0.019632353
0.020779502
0.022098245
0.023620857
0.025382893
0.027420958
0.029775888
0.032518536
0.035784256
0.039836382
0.045140388
0.052355909
0.062249896
0.07464439
0.085580617
0.083694484
0.069084191
0.061381605
7.0208096e-12
2.2061813e-10
1.8040644e-09
7.7585391e-09
2.387486e-08
6.0245489e-08
1.3359051e-07
2.7073521e-07
5.1374694e-07
9.274654e-07
1.6104762e-06
2.7110187e-06
4.4499347e-06
7.1536218e-06
1.1301124e-05
1.7591077e-05
2.7036338e-05
4.1096791e-05
6.1864138e-05
9.2316069e-05
0.00013666047
0.00020079124
0.00029287213
0.00042404506
0.00060921017
0.00086771749
0.0012236054
0.0017046756
0.0023392395
0.0031491239
0.0041384726
0.0052815722
0.0065188127
0.0077703485
0.008963408
0.010053875
0.011029167
0.011898213
0.01268018
0.013397396
0.014072287
0.014726594
0.015381615
0.016058856
0.016780119
0.017566861
0.018440878
0.019425909
0.020547217
0.021832351
0.02331192
0.025019309
0.026988449
0.029259924
0.031905096
0.035062349
0.039006627
0.044223715
0.051450203
0.061755632
0.07556255
0.091398509
0.097087248
0.085260784
0.074028939
6.805547e-12
2.1385383e-10
1.7487501e-09
7.5206459e-09
2.3142734e-08
5.8397742e-08
1.2949229e-07
2.6242728e-07
4.9797624e-07
8.989831e-07
1.5609967e-06
2.6276862e-06
4.3130813e-06
6.9335058e-06
1.0953215e-05
1.7049285e-05
2.6203335e-05
3.9830308e-05
5.9957711e-05
8.947231e-05
0.0001324545
0.0001946218
0.00028389808
0.00041110714
0.00059074239
0.00084166345
0.0011873752
0.0016552129
0.002273311
0.0030639585
0.0040327603
0.0051564664
0.006378111
0.007619246
0.0088065058
0.0098939354
0.010867156
0.011733981
0.012513091
0.013226666
0.013897095
0.014546044
0.01519464
0.015864049
0.016575441
0.017349459
0.01820693
0.019170299
0.020263444
0.021512584
0.022947038
0.024598412
0.026499106
0.028688503
0.031232019
0.034255465
0.038006852
0.042879492
0.049298206
0.058245861
0.072036107
0.09249872
0.10450065
0.099611128
0.088705111
6.5384041e-12
2.0545929e-10
1.6801051e-09
7.225423e-09
2.2234196e-08
5.610487e-08
1.2440714e-07
2.521195e-07
4.7841125e-07
8.6365231e-07
1.4996278e-06
2.524345e-06
4.1433951e-06
6.6606277e-06
1.0521991e-05
1.6377873e-05
2.5171246e-05
3.8261456e-05
5.7596608e-05
8.5951013e-05
0.0001272474
0.00018698505
0.00027279095
0.00039509468
0.00056788464
0.00080940923
0.0011425032
0.0015939045
0.0021914921
0.0029580712
0.0039009979
0.005000066
0.0062017014
0.007429419
0.0086093175
0.0096932001
0.010664358
0.011529086
0.012305356
0.013015111
0.013680675
0.014323643
0.014964973
0.015625487
0.016325743
0.017085548
0.017924763
0.018864579
0.019927642
0.021139258
0.022528181
0.024125479
0.025964662
0.0280829
0.030535959
0.033426128
0.036935778
0.04118615
0.04556193
0.050051756
0.060584922
0.084026589
0.10437383
0.10625958
0.098900818
6.2230187e-12
1.9554879e-10
1.5990637e-09
6.8768897e-09
2.1161618e-08
5.3398106e-08
1.1840433e-07
2.3995232e-07
4.5531862e-07
8.2195466e-07
1.4272065e-06
2.4024047e-06
3.9431911e-06
6.3387102e-06
1.0013333e-05
1.5585996e-05
2.3954129e-05
3.6411568e-05
5.4812853e-05
8.1799757e-05
0.00012110912
0.00017798275
0.00025969697
0.0003762149
0.00054092556
0.00077134796
0.0010895088
0.0015214076
0.0020945625
0.0028322999
0.0037439494
0.0048128759
0.0059896671
0.007200486
0.0083710986
0.0094507273
0.010419772
0.011282542
0.012056024
0.012761804
0.013422101
0.014058437
0.014691616
0.015342118
0.016029892
0.016773955
0.01759323
0.01850778
0.019539331
0.020713022
0.02205826
0.023608449
0.025401832
0.027472759
0.029869441
0.03266745
0.03593424
0.039197948
0.039764061
0.035967298
0.038298637
0.058440189
0.088740719
0.10020028
0.095158545
5.8645513e-12
1.8428449e-10
1.5069513e-09
6.4807462e-09
1.9942546e-08
5.0321728e-08
1.1158207e-07
2.261248e-07
4.290762e-07
7.7457253e-07
1.3449181e-06
2.2638608e-06
3.7157456e-06
5.9730208e-06
9.4355601e-06
1.4686597e-05
2.2571861e-05
3.4310808e-05
5.1651732e-05
7.7085848e-05
0.00011413869
0.00016775912
0.00024482387
0.00035476318
0.00051027866
0.00072804718
0.0010291508
0.0014387
0.0019837184
0.0026879991
0.0035629785
0.0045960369
0.0057426888
0.0069325581
0.0080914686
0.0091658336
0.010132589
0.010993521
0.011764291
0.012465958
0.013120578
0.013749587
0.014373643
0.015012908
0.015686747
0.016413436
0.017211059
0.018098765
0.019097897
0.02023459
0.021540791
0.023057346
0.0248302
0.026891862
0.029289097
0.03206841
0.035045889
0.036377794
0.031663631
0.017029995
0.013317063
0.020257751
0.049243497
0.074659859
0.072242268
5.4695982e-12
1.7187369e-10
1.405464e-09
6.0442863e-09
1.8599424e-08
4.6932375e-08
1.0406597e-07
2.1089155e-07
4.0016718e-07
7.2237831e-07
1.2542776e-06
2.1112642e-06
3.4652454e-06
5.5702893e-06
8.7993017e-06
1.3696212e-05
2.1049828e-05
3.1997704e-05
4.8171103e-05
7.1895308e-05
0.00010646279
0.00015649888
0.00022843815
0.00033111949
0.00047647801
0.00068024428
0.00096242363
0.0013470809
0.0018605816
0.0025270658
0.0033601023
0.0043514115
0.0054621574
0.0066263541
0.007770502
0.0088381478
0.0098022144
0.010661353
0.011429477
0.012126892
0.012775397
0.013396318
0.014010162
0.014636799
0.01529507
0.016002569
0.016776691
0.017636003
0.018602249
0.019704148
0.02097902
0.022481854
0.024269704
0.026368239
0.028831912
0.031637658
0.033782138
0.031842662
0.020506674
0.0068285286
0.0042109282
0.0059469621
0.013577431
0.028443781
0.028745837
5.0460479e-12
1.5856427e-10
1.2966285e-09
5.5762266e-09
1.7159074e-08
4.329773e-08
9.6006123e-08
1.9455676e-07
3.6916883e-07
6.6641419e-07
1.1570946e-06
1.947661e-06
3.1966901e-06
5.1385512e-06
8.1172477e-06
1.2634581e-05
1.9418342e-05
2.9518266e-05
4.4440076e-05
6.6330947e-05
9.8232929e-05
0.00014442321
0.00021085951
0.00030574075
0.00044016819
0.00062883392
0.0008905432
0.0012481565
0.0017271921
0.0023519486
0.00313803
0.0040816666
0.0051502975
0.0062833406
0.0074088496
0.0084676915
0.0094283029
0.01028553
0.011051009
0.011743997
0.012385893
0.012997859
0.013600242
0.014212627
0.014853414
0.015539592
0.016288055
0.017117223
0.018050274
0.019120364
0.020375227
0.021885214
0.023726214
0.025905136
0.02847124
0.031064333
0.030800438
0.024726032
0.0088672342
0.0029227617
0.0014013449
0.0017300241
0.0033936295
0.0069708722
0.0071383956
4.6028228e-12
1.446366e-10
1.1827373e-09
5.0864259e-09
1.5651833e-08
3.9494348e-08
8.7572274e-08
1.7746444e-07
3.3673392e-07
6.0785853e-07
1.0554151e-06
1.7764948e-06
2.9157313e-06
4.6868893e-06
7.4037405e-06
1.1524017e-05
1.7711666e-05
2.6924511e-05
4.0536813e-05
6.0509099e-05
8.9620688e-05
0.0001317829
0.00019245106
0.00027914732
0.00040208597
0.00057484409
0.00081491719
0.0011438067
0.0015859753
0.0021656273
0.0029001748
0.0037903392
0.0048102982
0.0059059055
0.0070079085
0.008055005
0.0090108303
0.0098657218
0.010628411
0.0113167
0.011951385
0.012553377
0.013142824
0.013739011
0.014359974
0.015022189
0.015742253
0.016538951
0.017438031
0.018479749
0.019729151
0.021270262
0.023171044
0.025453403
0.027997593
0.02894506
0.025459475
0.011643293
0.0036890281
0.0012450303
0.00053825342
0.00055933256
0.00082689366
0.0013068213
0.0014036449
4.1495453e-12
1.3039305e-10
1.0662633e-09
4.5855193e-09
1.4110429e-08
3.5604809e-08
7.8947525e-08
1.5998562e-07
3.0356646e-07
5.4798214e-07
9.5144563e-07
1.6014794e-06
2.6284632e-06
4.2250981e-06
6.6742479e-06
1.0388584e-05
1.5966761e-05
2.4272566e-05
3.6545693e-05
5.4555442e-05
8.0811627e-05
0.00011884958
0.00017360694
0.00025190564
0.0003630367
0.00051940508
0.00073710608
0.00103614
0.0014396961
0.0019715784
0.002650649
0.0034818853
0.0044464333
0.0054975474
0.0065700355
0.0076013303
0.008550215
0.0094018446
0.010161309
0.010844435
0.011471119
0.01206188
0.012636594
0.013214203
0.01381237
0.014447181
0.015135107
0.015895843
0.016758302
0.017776787
0.01903328
0.020611479
0.022568465
0.024838753
0.026307861
0.024271905
0.014378628
0.0045755099
0.0014634538
0.00053927078
0.00026608828
0.00024583008
0.00027104813
0.00031199605
0.00031605992
3.6961325e-12
1.1614524e-10
9.4975429e-10
4.0844632e-09
1.2568574e-08
3.1714175e-08
7.0320485e-08
1.425025e-07
2.7039159e-07
4.8809389e-07
8.4745831e-07
1.4264387e-06
2.3411613e-06
3.763263e-06
5.9446971e-06
9.2530639e-06
1.4221694e-05
2.1620261e-05
3.255369e-05
4.859961e-05
7.1997344e-05
0.00010590413
0.00015473554
0.00022460447
0.00032386095
0.0004637034
0.00065876147
0.00092741344
0.0012913638
0.0017736744
0.002394185
0.0031616617
0.0040641465
0.0050630701
0.0060988104
0.0071088739
0.008047521
0.0088941781
0.0096494831
0.010326634
0.010944217
0.011522128
0.012079834
0.012635855
0.013207341
0.013810052
0.014460406
0.015179386
0.016000011
0.01700111
0.01825432
0.019855793
0.021750098
0.023196414
0.02176707
0.014704922
0.0049375066
0.0015992922
0.00057109286
0.00026688495
0.00017748699
0.00016092552
0.0001576504
0.00015555649
0.00014262459
3.2521908e-12
1.0219504e-10
8.3567906e-10
3.5938747e-09
1.1058938e-08
2.7904874e-08
6.1873889e-08
1.2538531e-07
2.3791163e-07
4.2946122e-07
7.4565312e-07
1.2550745e-06
2.0598983e-06
3.3111407e-06
5.2304916e-06
8.1414169e-06
1.2513263e-05
1.9023477e-05
2.8644841e-05
4.2766854e-05
6.3362982e-05
9.3218083e-05
0.00013623203
0.00019781421
0.00028537492
0.0004088952
0.0005815009
0.00081985493
0.0011439826
0.0015758495
0.0021357246
0.002835517
0.0036697964
0.0046086007
0.0055992947
0.0065811489
0.0075047689
0.0083435899
0.0090929946
0.0097627683
0.010369633
0.010932511
0.011470231
0.012000676
0.012540224
0.013104127
0.013708582
0.014374947
0.015149553
0.016122181
0.017355333
0.018832319
0.019953371
0.018653377
0.012914488
0.004783857
0.0015955419
0.00057394956
0.00026405566
0.00017390357
0.00014680986
0.00013590664
0.0001272307
0.00011794347
0.00010896327
2.8267741e-12
8.8826983e-11
7.2636444e-10
3.1237612e-09
9.6123155e-09
2.4254602e-08
5.378e-08
1.0898309e-07
2.0678879e-07
3.732793e-07
6.4810481e-07
1.0908782e-06
1.7904038e-06
2.8779396e-06
4.5461756e-06
7.076278e-06
1.0876252e-05
1.6535091e-05
2.4898755e-05
3.7176018e-05
5.5084589e-05
8.1050374e-05
0.00011847466
0.00017208371
0.00024836939
0.00035611116
0.00050692674
0.00071571017
0.0010006538
0.0013822966
0.0018807548
0.0025102654
0.0032711475
0.0041419928
0.0050784353
0.0060234489
0.0069253859
0.0077518881
0.0084924093
0.0091524467
0.0097461394
0.010290913
0.01080456
0.011303903
0.011804099
0.012319045
0.012864009
0.013458083
0.01417831
0.015102929
0.016151135
0.01679695
0.015425514
0.010143397
0.0041063619
0.0015044026
0.00056084032
0.00025903842
0.00016928484
0.0001439776
0.00013328395
0.00012665303
0.00011755876
0.00010697567
9.9508447e-05
2.4279214e-12
7.6293668e-11
6.2387595e-10
2.6830045e-09
8.2560343e-09
2.0832315e-08
4.6191707e-08
9.3605649e-08
1.7761086e-07
3.2060912e-07
5.5665547e-07
9.3695052e-07
1.537767e-06
2.471841e-06
3.9046752e-06
6.0777736e-06
9.3416115e-06
1.4202189e-05
2.1386403e-05
3.1933207e-05
4.7319666e-05
6.9633281e-05
0.00010180396
0.00014790947
0.00021356435
0.00030638945
0.00043652641
0.00061709351
0.00086435013
0.0011971268
0.0016348098
0.0021930342
0.0028767897
0.0036726604
0.0045452914
0.0054432816
0.0063147339
0.0071223064
0.0078491489
0.0084955871
0.0090722987
0.0095944786
0.010078209
0.010538417
0.010988219
0.01143795
0.011899171
0.012397299
0.013029433
0.013766977
0.013872638
0.012368755
0.007323568
0.0031654742
0.0012697328
0.00051884509
0.00025099572
0.00016460684
0.00013971323
0.00013131948
0.00012410982
0.00011859248
0.00011189382
0.00010250356
9.5888045e-05
2.0621352e-12
6.4799407e-11
5.2988395e-10
2.2787878e-09
7.0121976e-09
1.7693776e-08
3.9232633e-08
7.9503456e-08
1.50853e-07
2.7230817e-07
4.7279356e-07
7.9579615e-07
1.3060978e-06
2.0994505e-06
3.3164248e-06
5.1621478e-06
7.9343169e-06
1.2062769e-05
1.8165069e-05
2.7124103e-05
4.0195497e-05
5.9154779e-05
8.6496125e-05
0.00012569542
0.0001815482
0.00026058399
0.00037153452
0.00052578205
0.00073761405
0.0010239414
0.0014029032
0.0018905961
0.0024954187
0.0032108979
0.0040105971
0.0048504523
0.0056805512
0.0064600463
0.0071659362
0.0077926513
0.0083464141
0.0088391787
0.0092842273
0.0096932403
0.010075097
0.010432633
0.010768536
0.011132829
0.01152182
0.011328711
0.0096315873
0.0050648885
0.002273
0.00098268708
0.00044229956
0.00023447151
0.0001596606
0.0001356111
0.00012851465
0.00012246974
0.00011517227
0.00010938856
0.00010422781
9.7819951e-05
9.2883075e-05
1.7341323e-12
5.4492412e-11
4.4560041e-10
1.9163235e-09
5.8968421e-09
1.487944e-08
3.2992448e-08
6.6858142e-08
1.2685965e-07
2.2899791e-07
3.9759741e-07
6.6922908e-07
1.0983718e-06
1.7655488e-06
2.7889735e-06
4.341149e-06
6.6724296e-06
1.0144307e-05
1.5276188e-05
2.2810722e-05
3.3804324e-05
4.9751372e-05
7.2752346e-05
0.00010573727
0.00015275475
0.00021933069
0.00031288346
0.00044314419
0.00062245531
0.00086568846
0.0011893286
0.0016090785
0.0021353998
0.0027672628
0.0034864636
0.0042570694
0.0050332919
0.005772801
0.0064472687
0.0070448679
0.0075663425
0.0080190361
0.0084115544
0.008750518
0.009035432
0.0092533051
0.0094205012
0.0094811689
0.0090234121
0.0071693278
0.0035206933
0.0015917187
0.0007249243
0.00035857958
0.00021062827
0.00015358922
0.00013243833
0.0001256435
0.00012003011
0.00011372258
0.00010854939
0.00010437174
0.00010015113
9.4944092e-05
9.071421e-05
1.4466269e-12
4.5457996e-11
3.7172332e-10
1.5986128e-09
4.9192015e-09
1.2412604e-08
2.7522793e-08
5.5774315e-08
1.0582924e-07
1.9103632e-07
3.3168832e-07
5.5829461e-07
9.1630408e-07
1.4728926e-06
2.3266773e-06
3.6215629e-06
5.5663951e-06
8.4627252e-06
1.2743832e-05
1.9029227e-05
2.8200216e-05
4.1503639e-05
6.0692527e-05
8.8213487e-05
0.00012745024
0.00018302845
0.00026117465
0.00037009394
0.00052027476
0.0007245284
0.00099741642
0.0013535428
0.0018041476
0.0023519249
0.0029854655
0.0036768064
0.0043857933
0.0050707837
0.0056995569
0.0062541564
0.0067288627
0.0071245617
0.0074425301
0.0076802003
0.0078207711
0.0078318496
0.0077064523
0.0070309924
0.0049087995
0.0023899585
0.0011160687
0.00053152582
0.0002859955
0.00018660171
0.00014658842
0.00013027766
0.00012362866
0.00011842563
0.00011273504
0.00010880918
0.00010498746
0.00010117362
9.7441443e-05
9.3328971e-05
8.9623985e-05
1.2001648e-12
3.7713315e-11
3.083929e-10
1.3262587e-09
4.0811318e-09
1.0297947e-08
2.2834035e-08
4.6272965e-08
8.7801529e-08
1.5849513e-07
2.7519072e-07
4.6320205e-07
7.6023821e-07
1.2220346e-06
1.9304112e-06
3.0047582e-06
4.6183345e-06
7.0212909e-06
1.0573021e-05
1.5787337e-05
2.3395094e-05
3.4430159e-05
5.0345998e-05
7.3171134e-05
0.0001057116
0.00015180547
0.00021662552
0.00030700519
0.00043172117
0.00060159057
0.00082912083
0.0011273019
0.0015070437
0.0019730266
0.0025187085
0.0031229502
0.0037516718
0.0043656244
0.0049303763
0.005422386
0.0058284694
0.0061403946
0.0063491104
0.0064341291
0.0063650956
0.0060957367
0.0052823886
0.0032027049
0.0016022877
0.00077525918
0.00039499951
0.00023194039
0.00016622647
0.00014022627
0.00012856008
0.00012292455
0.0001180015
0.00011274549
0.00010916009
0.00010555411
0.00010138176
9.7658384e-05
9.4331379e-05
9.1225766e-05
8.8222776e-05
9.9307148e-13
3.1205728e-11
2.551785e-10
1.0974089e-09
3.3769316e-09
8.521081e-09
1.8894264e-08
3.8289414e-08
7.2653775e-08
1.3115269e-07
2.2771963e-07
3.8330331e-07
6.2911037e-07
1.0112648e-06
1.5974754e-06
2.486536e-06
3.8218043e-06
5.8102343e-06
8.7491051e-06
1.3063324e-05
1.9357086e-05
2.8484729e-05
4.1646706e-05
6.0517399e-05
8.741141e-05
0.00012549261
0.00017902325
0.00025363442
0.00035656749
0.00049677863
0.00068470729
0.00093139201
0.0012465354
0.0016352309
0.0020936945
0.0026056904
0.0031424544
0.0036678462
0.004146566
0.0045500884
0.0048566937
0.0050465853
0.0050938555
0.0049806552
0.0046203996
0.00373511
0.0020860225
0.0010542072
0.00053882434
0.00029782518
0.00019357275
0.00015094139
0.00013482105
0.00012749883
0.00012330924
0.00011857626
0.00011321958
0.00010977039
0.00010568158
0.00010175167
9.8253456e-05
9.5419681e-05
9.2613999e-05
8.9996532e-05
8.7392442e-05
8.2146984e-13
2.581341e-11
2.1108392e-10
9.0777944e-10
2.7934183e-09
7.04874e-09
1.5629716e-08
3.1674168e-08
6.010229e-08
1.0849685e-07
1.8838574e-07
3.1710128e-07
5.2046307e-07
8.3663275e-07
1.3216286e-06
2.0571816e-06
3.1618756e-06
4.8068683e-06
7.2379499e-06
1.0806289e-05
1.6010938e-05
2.3557009e-05
3.4434215e-05
5.0021092e-05
7.2219903e-05
0.00010362518
0.00014772299
0.00020910507
0.00029365702
0.00040863502
0.00056247587
0.00076409307
0.0010213391
0.001338382
0.0017121775
0.0021291191
0.0025640988
0.0029837266
0.0033524887
0.0036373027
0.0038075794
0.0038291946
0.0036932091
0.0033133225
0.0024146857
0.0013252082
0.00069336912
0.00037602276
0.00022996305
0.00016590556
0.00013989186
0.00013024803
0.00012666479
0.0001243554
0.00011943446
0.00011390549
0.00011024058
0.00010622397
0.00010250164
9.9520475e-05
9.6524722e-05
9.3862528e-05
9.1159564e-05
8.8992684e-05
8.6666606e-05
6.793817e-13
2.1348513e-11
1.7457324e-10
7.5076488e-10
2.3102658e-09
5.8296342e-09
1.2926658e-08
2.6196735e-08
4.9709682e-08
8.973796e-08
1.5581778e-07
2.6228733e-07
4.3050629e-07
6.9204416e-07
1.0932406e-06
1.7016987e-06
2.6154878e-06
3.976116e-06
5.9867072e-06
8.9372856e-06
1.3239631e-05
1.9474784e-05
2.8456849e-05
4.131698e-05
5.9610962e-05
8.545157e-05
0.00012166148
0.00017193127
0.00024094605
0.00033440867
0.0004588327
0.0006209096
0.00082620091
0.0010769591
0.0013692006
0.0016898589
0.002015693
0.0023153538
0.002553564
0.0026943528
0.0026984041
0.0025573189
0.0021869472
0.0014425462
0.00080921212
0.00044856879
0.00026621219
0.00018204136
0.00014604047
0.00013118593
0.00012669309
0.00012560854
0.00012435293
0.000120791
0.00011489993
0.00011112488
0.00010699333
0.0001035581
0.0001005155
9.7522996e-05
9.4409658e-05
9.1866344e-05
8.9388271e-05
8.7598834e-05
8.5765904e-05
5.5910284e-13
1.7568941e-11
1.4366668e-10
6.1785072e-10
1.9012722e-09
4.7976448e-09
1.063847e-08
2.1559952e-08
4.0912e-08
7.3857772e-08
1.2824727e-07
2.1588367e-07
3.5435034e-07
5.6963462e-07
8.9987907e-07
1.4007194e-06
2.1528412e-06
3.2726168e-06
4.9269746e-06
7.3540154e-06
1.08913e-05
1.601415e-05
2.3386601e-05
3.392758e-05
4.8894012e-05
6.9980025e-05
9.9425945e-05
0.00014012026
0.00019565925
0.00027029938
0.00036869547
0.00049526979
0.00065303121
0.00084172287
0.0010554486
0.0012805342
0.0014948119
0.0016692582
0.001770845
0.0017644686
0.001638041
0.0013156865
0.00083656433
0.00048220685
0.00028816274
0.00018940317
0.00014747192
0.00013057485
0.00012443916
0.00012461955
0.00012552066
0.00012505208
0.0001228047
0.00011674943
0.0001119896
0.00010788384
0.00010455284
0.00010152122
9.8196208e-05
9.5261304e-05
9.2666817e-05
9.0555933e-05
8.8394229e-05
8.6948918e-05
8.5309018e-05
4.5234336e-13
1.4214192e-11
1.1623394e-10
4.9987527e-10
1.5382434e-09
3.8816214e-09
8.6073625e-09
1.7443992e-08
3.3102211e-08
5.9760101e-08
1.0377005e-07
1.7468338e-07
2.8672807e-07
4.6093013e-07
7.2814399e-07
1.1333598e-06
1.7417904e-06
2.6474176e-06
3.9848956e-06
5.945967e-06
8.8018188e-06
1.2933025e-05
1.886876e-05
2.7336566e-05
3.9322669e-05
5.6139903e-05
7.9494577e-05
0.00011153351
0.00015483596
0.00021229119
0.00028677155
0.0003804922
0.00049395065
0.00062440574
0.00076418704
0.0008994506
0.0010101284
0.0010713561
0.0010565074
0.00095329088
0.00071494206
0.00045115093
0.0002826159
0.00018408588
0.00013899715
0.00011954834
0.00011712801
0.00011885883
0.0001231658
0.0001270716
0.00012659453
0.00012450726
0.0001179676
0.0001124591
0.00010864189
0.00010574961
0.00010243631
9.9140801e-05
9.6256016e-05
9.3865317e-05
9.1485024e-05
8.9440411e-05
8.7389675e-05
8.5959102e-05
8.4575032e-05
3.5250288e-13
1.1076859e-11
9.0579009e-11
3.8954448e-10
1.1987325e-09
3.0249161e-09
6.7077047e-09
1.3594203e-08
2.5796967e-08
4.657207e-08
8.0869814e-08
1.3613257e-07
2.2344477e-07
3.591821e-07
5.6736418e-07
8.8299147e-07
1.3567472e-06
2.0615708e-06
3.1017577e-06
4.625403e-06
6.8411387e-06
1.0040157e-05
1.4624302e-05
2.1140321e-05
3.0318711e-05
4.3112411e-05
6.0724849e-05
8.4607645e-05
0.00011639481
0.00015772335
0.00020987538
0.00027318212
0.00034616
0.00042448438
0.0005000733
0.00056070662
0.00059043003
0.00057335411
0.00049828164
0.00036257395
0.00024084858
0.00016086538
0.00012080599
0.00010216447
0.00010010102
0.00010486676
0.00011437933
0.00012590161
0.00012865492
0.00012819765
0.00012609526
0.0001194664
0.00011344247
0.00011015116
0.0001070407
0.00010353229
0.00010009561
9.740671e-05
9.4823941e-05
9.2392234e-05
9.0011418e-05
8.8090625e-05
8.6221958e-05
8.5060637e-05
8.4046523e-05
2.5733913e-13
8.0864834e-12
6.6125718e-11
2.843804e-10
8.7511445e-10
2.2082876e-09
4.8968319e-09
9.9241251e-09
1.8832212e-08
3.3997558e-08
5.9032487e-08
9.9366269e-08
1.6308163e-07
2.6211225e-07
4.1394677e-07
6.4403706e-07
9.8917486e-07
1.5021793e-06
2.2583232e-06
3.3639986e-06
4.9681428e-06
7.2768369e-06
1.0571109e-05
1.5227093e-05
2.1735933e-05
3.0717744e-05
4.2918942e-05
5.917514e-05
8.0313281e-05
0.00010695751
0.00013920854
0.00017619598
0.00021551407
0.0002527386
0.00028116508
0.00029193022
0.00027792918
0.00023245581
0.00017148055
0.00012333815
9.4478116e-05
8.003203e-05
7.8198333e-05
8.3152912e-05
9.5522051e-05
0.00011656932
0.00012817167
0.00013071672
0.00013016534
0.00012801219
0.00012120809
0.00011482169
0.00011132358
0.00010796833
0.00010424649
0.00010122447
9.8455084e-05
9.581754e-05
9.3134317e-05
9.0927292e-05
8.8933513e-05
8.7280515e-05
8.5632437e-05
8.457491e-05
8.358624e-05
1.7052181e-13
5.3583808e-12
4.3817069e-11
1.8843892e-10
5.798725e-10
1.4632478e-09
3.244656e-09
6.575546e-09
1.2477273e-08
2.2523429e-08
3.9104972e-08
6.5813413e-08
1.0799124e-07
1.7351745e-07
2.7392078e-07
4.2594386e-07
6.5371902e-07
9.9175561e-07
1.4889724e-06
2.2140161e-06
3.2620517e-06
4.7630183e-06
6.89091e-06
9.8727734e-06
1.3994594e-05
1.9598806e-05
2.7064733e-05
3.6758926e-05
4.8939389e-05
6.3601292e-05
8.0257891e-05
9.767638e-05
0.0001136645
0.00012496122
0.00012747641
0.00011884731
9.8842581e-05
7.8891531e-05
6.4315097e-05
5.5533889e-05
5.6011644e-05
6.0248691e-05
7.1000679e-05
9.3563664e-05
0.00012028542
0.00013015881
0.00013267378
0.00013209781
0.00012992965
0.00012307828
0.00011628551
0.0001126359
0.00010883074
0.00010554905
0.00010262225
9.980261e-05
9.6710173e-05
9.4152608e-05
9.1903844e-05
8.9961638e-05
8.7997679e-05
8.6347985e-05
8.4695309e-05
8.3739125e-05
8.3012082e-05
9.9480465e-14
3.1260147e-12
2.5562235e-11
1.0993139e-10
3.3827961e-10
8.5358855e-10
1.8926914e-09
3.8354268e-09
7.2771098e-09
1.3134482e-08
2.2799498e-08
3.8361021e-08
6.2922172e-08
1.0105111e-07
1.5941573e-07
2.4766759e-07
3.7965675e-07
5.7507156e-07
8.6159991e-07
1.2776821e-06
1.8758427e-06
2.7263998e-06
3.9209795e-06
5.5746151e-06
7.824179e-06
1.0819411e-05
1.4701148e-05
1.9560388e-05
2.5372448e-05
3.1906151e-05
3.8622482e-05
4.4593698e-05
4.849927e-05
4.8700164e-05
4.5634865e-05
4.0997842e-05
3.700067e-05
3.4395961e-05
3.6087003e-05
4.0061771e-05
4.9394905e-05
6.5944947e-05
9.5666444e-05
0.00012068817
0.00013156037
0.00013456811
0.00013401221
0.00013192731
0.00012523637
0.00011797304
0.00011402384
0.00010999688
0.00010674181
0.00010394401
0.00010066405
9.7683077e-05
9.5099896e-05
9.2985649e-05
9.07421e-05
8.8794469e-05
8.692503e-05
8.5439142e-05
8.4074177e-05
8.3341467e-05
8.264634e-05
4.9899467e-14
1.5680088e-12
1.2821923e-11
5.5140229e-11
1.6967167e-10
4.2811513e-10
9.4920269e-10
1.9232892e-09
3.6485541e-09
6.5838227e-09
1.1425026e-08
1.9215015e-08
3.1499965e-08
5.0550023e-08
7.966708e-08
1.2360803e-07
1.891562e-07
2.858739e-07
4.2705904e-07
6.3089847e-07
9.2174208e-07
1.331289e-06
1.8992456e-06
2.6726484e-06
3.7025473e-06
5.0362101e-06
6.7025901e-06
8.6897042e-06
1.0914664e-05
1.3193178e-05
1.5222713e-05
1.6597363e-05
1.7127351e-05
1.7297119e-05
1.75369e-05
1.854789e-05
2.1054083e-05
2.4477331e-05
3.2229418e-05
4.556727e-05
6.6728501e-05
9.662155e-05
0.00012021769
0.00013225854
0.00013642002
0.00013595529
0.00013402835
0.00012766205
0.00011978997
0.00011560162
0.00011127065
0.00010801969
0.0001049741
0.00010189203
9.8926322e-05
9.6528685e-05
9.3959267e-05
9.169863e-05
8.9558937e-05
8.7848761e-05
8.623471e-05
8.4908574e-05
8.3507986e-05
8.275438e-05
8.2135654e-05
2.1506851e-14
6.7581602e-13
5.5262263e-12
2.3764763e-11
7.3123232e-11
1.8449148e-10
4.090053e-10
8.286059e-10
1.5715571e-09
2.8350271e-09
4.9176628e-09
8.2661512e-09
1.3541112e-08
2.1709261e-08
3.4170463e-08
5.2929703e-08
8.0824145e-08
1.2181281e-07
1.8132773e-07
2.6666602e-07
3.8736447e-07
5.5543355e-07
7.852276e-07
1.0925975e-06
1.4928323e-06
1.9969188e-06
2.6058969e-06
3.3042212e-06
4.0551768e-06
4.8049543e-06
5.5297943e-06
6.3598443e-06
7.4288716e-06
8.8310347e-06
1.0711202e-05
1.4398041e-05
2.0212057e-05
3.0477238e-05
4.6047684e-05
6.7626435e-05
9.4382561e-05
0.00011693049
0.00013166248
0.00013808706
0.00013810215
0.00013625869
0.00013011044
0.00012179823
0.00011728982
0.00011275989
0.00010930728
0.00010611534
0.00010308668
0.00010040521
9.7556655e-05
9.4910891e-05
9.2447033e-05
9.0575488e-05
8.869274e-05
8.7094594e-05
8.5392416e-05
8.4034778e-05
8.2851985e-05
8.2311768e-05
8.1740313e-05
8.7666692e-15
2.7547708e-13
2.252588e-12
9.6867354e-12
2.9804575e-11
7.5193112e-11
1.6668348e-10
3.3764295e-10
6.4027365e-10
1.1547631e-09
2.0024538e-09
3.3646141e-09
5.5089054e-09
8.8262331e-09
1.3881267e-08
2.148036e-08
3.2760529e-08
4.9302018e-08
7.3263753e-08
1.0753443e-07
1.5588078e-07
2.2305847e-07
3.148346e-07
4.3786771e-07
5.9942185e-07
8.0685964e-07
1.0675306e-06
1.389145e-06
1.7868845e-06
2.3064632e-06
3.0605758e-06
4.1713588e-06
5.869669e-06
8.5265506e-06
1.2929221e-05
2.0105647e-05
3.1091563e-05
4.6289558e-05
6.6340729e-05
9.0934468e-05
0.0001141755
0.00013276407
0.00013990324
0.00014033667
0.00013860421
0.00013276784
0.00012396338
0.00011919261
0.00011437253
0.00011075111
0.00010729452
0.00010436465
0.00010163539
9.8812049e-05
9.5959161e-05
9.3780929e-05
9.1609022e-05
8.9723195e-05
8.7745217e-05
8.6162755e-05
8.4712436e-05
8.3623947e-05
8.2457103e-05
8.189692e-05
8.1293562e-05
4.8683778e-15
1.5298037e-13
1.2509347e-12
5.3794332e-12
1.6552123e-11
4.1760812e-11
9.2579817e-11
1.8755694e-10
3.5572942e-10
6.4174719e-10
1.1132788e-09
1.8716366e-09
3.0668995e-09
4.919261e-09
7.7488919e-09
1.2017302e-08
1.838401e-08
2.7783318e-08
4.1527225e-08
6.1442399e-08
9.0052828e-08
1.308283e-07
1.885396e-07
2.6981048e-07
3.8406995e-07
5.4537029e-07
7.755621e-07
1.1100659e-06
1.6074866e-06
2.3660882e-06
3.556515e-06
5.4485208e-06
8.4615294e-06
1.3216769e-05
2.0514421e-05
3.1056783e-05
4.5471936e-05
6.4577478e-05
8.8498156e-05
0.00011305633
0.00013374437
0.00014169069
0.0001425701
0.000141012
0.00013563477
0.00012633153
0.00012125444
0.00011616759
0.0001122682
0.00010865611
0.00010560926