/*--------------------------------*- C++ -*----------------------------------*\
  =========                 |
  \\      /  F ield         | OpenFOAM: The Open Source CFD Toolbox
   \\    /   O peration     | Website:  https://openfoam.org
    \\  /    A nd           | Version:  13
     \\/     M anipulation  |
\*---------------------------------------------------------------------------*/
FoamFile
{
    format      ascii;
    class       volScalarField;
    location    "38.197445";
    object      omega;
}
// * * * * * * * * * * * * * * * * * * * * * * * * * * * * * * * * * * * * * //

dimensions      [0 0 -1 0 0 0 0];

internalField   nonuniform List<scalar> 
17140
(
3736295.3
603677.93
185335.27
78621.662
40006.334
22786.779
13994.06
9063.8797
6105.5473
4237.5927
3010.681
2179.2585
1601.469
1191.5682
895.75134
679.17845
518.68125
398.4982
307.69419
238.55241
185.5458
144.66406
112.96414
88.264754
68.935397
53.748767
41.776411
32.314378
24.829786
18.921607
14.289903
10.708318
7.9967917
5.9971777
4.559938
3.5461542
2.83738
2.342065
1.9947217
1.7507072
1.5802813
1.4637194
1.3879589
1.345717
1.3291646
1.3300683
1.3487918
1.3827933
1.4301765
1.4899758
1.5621643
1.6475875
1.7472954
1.860713
1.9865634
2.126092
2.2795197
2.4377434
2.5806978
2.6780064
2.7352168
2.8020337
2.9738324
3.1993568
3.0996369
3736320.9
603682.56
185336.97
78622.539
40006.862
22787.131
13994.312
9064.0688
6105.6955
4237.7129
3010.7813
2179.3446
1601.5445
1191.6361
895.81378
679.23701
518.73717
398.55246
307.74753
238.60536
185.5987
144.71705
113.01718
88.31758
68.987569
53.799655
41.825232
32.360233
24.871734
18.958755
14.321532
10.734026
8.0166313
6.0117001
4.570081
3.5530042
2.8419358
2.3451238
1.9968711
1.7523685
1.5817562
1.4652338
1.3897469
1.3478822
1.3317069
1.3333504
1.3530485
1.3882499
1.437215
1.4991732
1.5744044
1.6642176
1.7701577
1.8919622
2.0294743
2.1865137
2.3657526
2.5583123
2.7369291
2.8506991
2.9001274
2.9071425
2.9145491
2.9914463
2.9530531
3736345.9
603686.66
185338.24
78623.083
40007.145
22787.298
13994.42
9064.1453
6105.7541
4237.7614
3010.8244
2179.3852
1601.5847
1191.6772
895.85687
679.28283
518.78628
398.60527
307.80426
238.6661
185.66337
144.78541
113.08877
88.391762
69.063482
53.876219
41.901144
32.433986
24.941647
19.023048
14.378472
10.782207
8.0553384
6.0411954
4.5915508
3.5681444
2.8524653
2.3524881
2.0021664
1.7563881
1.5850721
1.4682723
1.39291
1.3513919
1.33563
1.3381991
1.3592782
1.3961765
1.447397
1.5124357
1.591985
1.6879584
1.8024398
1.935418
2.088549
2.2694809
2.4847067
2.727442
2.9564164
3.0938126
3.1404193
3.107047
2.9930499
2.8954503
2.8067318
3736372.1
603690.93
185339.57
78623.653
40007.44
22787.472
13994.535
9064.228
6105.8189
4237.8163
3010.8744
2179.4335
1601.6334
1191.7279
895.91063
679.34057
518.84866
398.67278
307.87725
238.74473
185.74763
144.87508
113.18341
88.490679
69.165699
53.980452
42.005783
32.537071
25.040869
19.1158
14.462031
10.854137
8.1141042
6.086708
4.6252022
3.5922396
2.8694698
2.3645321
2.0108885
1.7629831
1.5904031
1.472982
1.3975863
1.356418
1.3412465
1.3450096
1.3677228
1.4068682
1.4611233
1.5303159
1.6156726
1.7198593
1.8454157
1.9925516
2.1659368
2.3785038
2.6419488
2.950924
3.2523328
3.4269385
3.4682608
3.3920552
3.1944703
2.9532251
2.8006905
3736400.1
603695.47
185340.97
78624.249
40007.749
22787.656
13994.657
9064.3178
6105.8908
4237.8788
3010.9326
2179.4907
1601.692
1191.7895
895.97649
679.41167
518.92578
398.75649
307.96796
238.84265
185.85281
144.98731
113.30225
88.615386
69.295199
54.113293
42.140081
32.670455
25.170439
19.238148
14.573442
10.951108
8.1942073
6.1494099
4.6720308
3.6260842
2.8935588
2.3817161
2.0233876
1.7724261
1.5979708
1.4795541
1.4039545
1.3631302
1.348631
1.3538968
1.3786943
1.4207454
1.4789602
1.5535898
1.6465475
1.7613772
1.9007793
2.0654608
2.2649449
2.5191956
2.8475808
3.2494009
3.6532899
3.8862348
3.9107683
3.7699128
3.4906786
3.151318
2.915376
3736429.1
603700.16
185342.41
78624.866
40008.071
22787.85
13994.787
9064.4143
6105.9695
4237.9485
3010.9985
2179.5565
1601.76
1191.8617
896.05411
679.49583
519.01731
398.85606
308.07605
238.95956
185.97861
145.12185
113.44509
88.765754
69.451946
54.27482
42.30426
32.834536
25.33096
19.390923
14.713763
11.074367
8.2969858
6.2306049
4.733193
3.6706297
2.9254782
2.4046134
2.0401059
1.7850674
1.6080643
1.4882388
1.4122424
1.3717794
1.3580645
1.3651675
1.3926215
1.4383836
1.5016911
1.5833452
1.6861402
1.8145371
1.9708379
2.1573287
2.3907731
2.7003582
3.1169692
3.6479827
4.1945778
4.5206052
4.503347
4.2615359
3.8720924
3.4657666
3.1942768
3736459.3
603704.99
185343.89
78625.504
40008.407
22788.052
13994.924
9064.5174
6106.0547
4238.0249
3011.0718
2179.6303
1601.8371
1191.9437
896.14273
679.59217
519.12234
398.97052
308.20051
239.0944
186.12398
145.27765
113.61091
88.940838
69.635104
54.46435
42.497837
33.029082
25.522504
19.574544
14.883778
11.225031
8.4237885
6.3317091
4.8100098
3.7270001
2.9661298
2.4339286
2.0615952
1.8013502
1.6210568
1.4993669
1.4227237
1.3827219
1.3699189
1.3792864
1.4100921
1.4605743
1.53041
1.6211303
1.73666
1.8821629
2.058911
2.2732233
2.5517108
2.935751
3.4733372
4.1836974
4.9172193
5.3642258
5.2733268
4.8713945
4.3476694
3.846588
3.5357146
3736490.6
603709.99
185345.42
78626.165
40008.756
22788.264
13995.069
9064.6268
6106.1459
4238.1075
3011.1518
2179.7115
1601.9221
1192.0347
896.24121
679.69946
519.23948
399.09838
308.33975
239.2455
186.28718
145.45293
113.79795
89.138918
69.843049
54.680416
42.719571
33.25315
25.744507
19.788899
15.083883
11.403993
8.5759013
6.4542108
4.9039555
3.7965009
3.0165892
2.4705178
2.0885356
1.821829
1.6374273
1.5134107
1.4359933
1.396199
1.3846704
1.3968711
1.4319133
1.4884208
1.5666745
1.669204
1.8013493
1.9681954
2.1701122
2.4213732
2.7610245
3.2468129
3.9500754
4.8947515
5.8227968
6.1529071
5.8239311
5.3226448
4.7833454
4.2698486
3.8691485
3736522
603715.14
185347.01
78626.851
40009.116
22788.483
13995.219
9064.7417
6106.2425
4238.1956
3011.2374
2179.7987
1602.0138
1192.1331
896.34796
679.81593
519.36683
399.23757
308.49157
239.41051
186.46576
145.64517
114.00363
89.357425
70.073285
54.920667
42.967342
33.504953
25.995622
20.033199
15.31393
11.611776
8.7544358
6.5995987
5.0166269
3.8806166
3.0781192
2.5154086
2.1217556
1.8471848
1.657755
1.530864
1.4523987
1.4129565
1.4030083
1.4187672
1.4592092
1.5234932
1.6127599
1.7309554
1.8849807
2.0782369
2.3127577
2.615309
3.040263
3.667529
4.594885
5.7973285
6.5621068
6.4284166
5.8861899
5.3526563
4.9287898
4.5130749
4.0884979
3736555.2
603720.51
185348.67
78627.564
40009.49
22788.711
13995.376
9064.8619
6106.3436
4238.288
3011.3275
2179.8908
1602.1108
1192.2372
896.461
679.9394
519.50199
399.38548
308.65312
239.58642
186.65652
145.85103
114.22451
89.592887
70.322368
55.181773
43.238039
33.781722
26.273565
20.305791
15.573043
11.848356
8.9601719
6.7692479
5.1496791
3.9809901
3.1521763
2.5698191
2.1622581
1.8782572
1.6827739
1.5524136
1.4726631
1.4337198
1.42585
1.4461498
1.4935806
1.5680858
1.6720959
1.811601
1.994414
2.2207752
2.500992
2.8778152
3.4260986
4.2562318
5.4809391
6.7716058
6.818419
6.3180152
4.8160565
3.8855824
4.0428123
4.0806962
3.7646013
3736589.7
603726.08
185350.38
78628.303
40009.879
22788.947
13995.539
9064.9861
6106.4482
4238.3836
3011.4207
2179.9858
1602.2109
1192.3447
896.57786
680.06714
519.64195
399.53884
308.82088
239.76943
186.85543
146.06627
114.45622
89.840813
70.585779
55.459286
43.527403
34.079531
26.574914
20.60395
15.859382
12.112921
9.1933369
6.9642447
5.3047138
4.0993699
3.2403995
2.6351716
2.2112465
1.9160793
1.7134128
1.578958
1.4977137
1.4594876
1.4544665
1.4806926
1.5373688
1.6256574
1.7500431
1.9192379
2.1393195
2.4098453
2.7591209
3.2487922
3.9852435
5.124061
6.6800231
7.238239
6.8051829
5.2069144
2.8911368
1.7828506
1.731502
2.0539639
1.8814312
3736625.1
603731.81
185352.16
78629.067
40010.282
22789.192
13995.706
9065.1134
6106.5549
4238.4807
3011.515
2180.0819
1602.312
1192.4532
896.6957
680.19599
519.78324
399.69383
308.99071
239.95508
187.05772
146.28583
114.69343
90.095694
70.8579
55.747577
43.829924
34.393154
26.894923
20.923645
16.169878
12.403581
9.4533186
7.1851379
5.4830994
4.2375075
3.3445708
2.7130925
2.2701479
1.9619152
1.7508456
1.611672
1.5287979
1.4916351
1.4906762
1.5248524
1.5941129
1.7016201
1.8553043
2.065976
2.3342898
2.6714185
3.1304946
3.8024036
4.8464519
6.4692206
7.6628229
7.3775112
6.1899608
3.2313855
1.6188951
0.98963097
0.78371455
0.80323392
0.67992457
3736662.3
603737.82
185354.01
78629.86
40010.698
22789.444
13995.877
9065.2431
6106.6627
4238.578
3011.6088
2180.1769
1602.4115
1192.5598
896.81134
680.3224
519.92192
399.84613
309.15786
240.13821
187.25784
146.50379
114.92986
90.35096
71.131932
56.03972
44.138682
34.715846
27.227248
21.259202
16.499849
12.716954
9.7382455
7.4315679
5.6856888
4.3969779
3.4665239
2.8053856
2.340627
2.0173011
1.7965551
1.652105
1.5676669
1.5320904
1.5371804
1.5823623
1.669374
1.8048089
2.0021596
2.268758
2.6051417
3.0549592
3.7022781
4.6852996
6.2695852
8.0300614
8.010888
7.0938398
4.1803715
1.9141171
1.0048643
0.64526734
0.47368442
0.41602773
0.32180028
3736699.8
603743.94
185355.91
78630.678
40011.128
22789.702
13996.052
9065.3734
6106.7696
4238.6733
3011.6997
2180.2683
1602.5066
1192.6612
896.92114
680.44232
520.05351
399.99081
309.31696
240.31298
187.44947
146.71336
115.15831
90.598996
71.399923
56.327514
44.44535
35.039322
27.56386
21.603135
16.842702
13.04778
10.044591
7.7018704
5.9124596
4.5789083
3.6079806
2.9139593
2.4245812
2.0840902
1.8524193
1.7022934
1.616624
1.5840352
1.5980583
1.6591134
1.7722996
1.9503067
2.2122789
2.5540037
3.006932
3.6601809
4.6477144
6.1997084
8.3295882
8.6680383
7.9432961
5.4391285
2.3489249
1.1432162
0.67951187
0.47678754
0.35708163
0.29175777
0.21882827
3736738.4
603750.26
185357.86
78631.524
40011.57
22789.967
13996.229
9065.5035
6106.8744
4238.7651
3011.7859
2180.3537
1602.5948
1192.7547
897.02195
680.55222
520.17406
400.12348
309.46314
240.47404
187.62675
146.90816
115.37186
90.832388
71.654002
56.602707
44.741408
35.354959
27.896262
21.947362
17.191119
13.389834
10.367553
7.9929928
6.162204
4.7836336
3.7702898
3.0406825
2.5241027
2.1645058
1.9208522
1.7650266
1.6791013
1.6524052
1.679802
1.764924
1.918802
2.1647296
2.5165794
2.9807039
3.6543694
4.6944221
6.319442
8.6870056
9.2946496
8.7258663
6.6807249
2.8609126
1.3412952
0.75767238
0.5103695
0.38401041
0.29601347
0.24002204
0.18312793
3736780.4
603757.03
185359.93
78632.404
40012.026
22790.238
13996.407
9065.6322
6106.9759
4238.8517
3011.8654
2180.4309
1602.6733
1192.837
897.11012
680.64798
520.27897
400.239
309.59071
240.6151
187.78277
147.08065
115.56232
91.042304
71.884708
56.855251
45.016303
35.651821
28.213311
22.280794
17.534439
13.733454
10.699121
8.2990964
6.4314988
5.0099542
3.953931
3.1871048
2.6413811
2.2612046
2.0050254
1.8441622
1.7606003
1.7449051
1.7931289
1.9174542
2.1384194
2.493205
2.9775567
3.6789321
4.7926182
6.5881824
9.1887404
9.9280613
9.4389133
7.6555298
3.474218
1.603745
0.86321005
0.56288226
0.40547133
0.31164119
0.24232398
0.19867633
0.15599791
3736824.8
603764.05
185362.07
78633.317
40012.497
22790.513
13996.585
9065.758
6107.072
4238.9311
3011.9357
2180.4972
1602.739
1192.9047
897.18174
680.72522
520.36332
400.33189
309.69357
240.72941
187.91008
147.22262
115.72072
91.218962
72.081451
57.073764
45.257908
35.917133
28.50175
22.58994
17.859312
14.065917
11.027882
8.6109218
6.7139203
5.2543739
4.1578947
3.3540507
2.7785488
2.3774013
2.1093605
1.9458971
1.8698889
1.8739721
1.957687
2.1499185
2.4892802
3.0106204
3.7422608
4.940807
6.959958
9.8172567
10.612968
10.142777
8.4157144
4.1178097
1.9045122
0.99183528
0.62345723
0.44023215
0.32791187
0.2549956
0.19912894
0.16540733
0.1353412
3736869.6
603771.22
185364.27
78634.257
40012.979
22790.793
13996.763
9065.8798
6107.1615
4239.0015
3011.995
2180.5504
1602.7894
1192.9548
897.23355
680.78022
520.42292
400.39743
309.76641
240.811
188.00201
147.32664
115.8388
91.353222
72.234172
57.247249
45.454297
36.138091
28.74801
22.860677
18.151392
14.37317
11.340764
8.9171434
7.000441
5.5107769
4.3791015
3.5411423
2.9375062
2.5171158
2.240313
2.0800968
2.0222422
2.0610635
2.2123296
2.5292679
3.0801298
3.8789701
5.1649072
7.4157077
10.535479
11.35179
10.875656
9.1486683
4.7982212
2.2256145
1.1391671
0.69227553
0.48112781
0.35734369
0.27601632
0.2211135
0.17727545
0.15013418
0.12575353
3736913.9
603778.54
185366.53
78635.215
40013.47
22791.075
13996.939
9065.9963
6107.2431
4239.0616
3012.0415
2180.5884
1602.8223
1192.9849
897.2626
680.80967
520.45401
400.43136
309.80443
240.85448
188.0525
147.38592
115.90893
91.436581
72.333407
57.365227
45.593941
36.302108
28.938469
23.078429
18.395314
14.639359
11.621945
9.2028191
7.2783149
5.7695727
4.611677
3.7463173
3.1199067
2.6858824
2.408159
2.2637905
2.2449452
2.3499512
2.6356591
3.1970526
4.0938455
5.5039987
7.9998988
11.31554
12.13701
11.640891
9.8689397
5.4430408
2.5393153
1.2966893
0.76793159
0.52730258
0.3910985
0.3038468
0.24077519
0.19536011
0.15887983
0.13545336
0.11476112
3736961
603786.19
185368.88
78636.21
40013.975
22791.362
13997.113
9066.1075
6107.3161
4239.1103
3012.074
2180.6098
1602.8357
1192.9926
897.2662
680.8104
520.45293
400.42946
309.80275
240.85418
188.055
147.39295
115.92259
91.459431
72.3685
57.416066
45.664332
36.395782
29.058653
23.227603
18.574434
14.846977
11.853499
9.4504185
7.5315718
6.0177899
4.8468974
3.9659691
3.3279636
2.8928515
2.6313947
2.5301316
2.5867506
2.8347502
3.3992482
4.39553
5.9705108
8.7237552
12.180991
12.973015
12.44937
10.604663
6.0540548
2.8526208
1.4619689
0.85813995
0.5843817
0.43018874
0.33054306
0.26091874
0.20902508
0.17048009
0.13977038
0.12262262
0.10768427
3737011.6
603794.25
185371.33
78637.244
40014.496
22791.653
13997.286
9066.2127
6107.3798
4239.1466
3012.0912
2180.6129
1602.828
1192.9762
897.24242
680.78033
520.41742
400.3893
309.75878
240.80737
188.00653
147.3443
115.87564
91.416494
72.332414
57.390251
45.652881
36.403662
29.091516
23.290596
18.671246
14.978104
12.017113
9.6417087
7.7430647
6.240958
5.0749508
4.1970452
3.5677272
3.1565322
2.9468685
2.944808
3.1570878
3.7237305
4.8293194
6.5820221
9.5929703
13.12467
13.864411
13.309233
11.380014
6.6672688
3.1741801
1.6368665
0.95851351
0.64729993
0.47090216
0.35852326
0.28253545
0.22690425
0.18425591
0.15379974
0.13032112
0.11673124
0.10319927
3737062.3
603802.44
185373.85
78638.303
40015.027
22791.945
13997.455
9066.3105
6107.4328
4239.1693
3012.0919
2180.5966
1602.7977
1192.9339
897.18928
680.71722
520.34497
400.30807
309.66938
240.71059
187.90342
147.23627
115.76454
91.304752
72.223055
57.286945
45.559895
36.325671
29.033468
23.257881
18.669712
15.014879
12.095848
9.7607509
7.8982684
6.427614
5.290248
4.4437627
3.8586771
3.5202166
3.4372348
3.6262643
4.2102562
5.4326932
7.380777
10.606382
14.145398
14.81606
14.22619
12.204623
7.3105984
3.5173561
1.8257439
1.0697901
0.71789135
0.5169057
0.39101821
0.30775759
0.24650472
0.20101805
0.16708976
0.14223851
0.12198006
0.10933135
0.098174424
3737113.2
603810.79
185376.42
78639.389
40015.568
22792.24
13997.62
9066.401
6107.475
4239.1779
3012.0754
2180.56
1602.7439
1192.8646
897.10563
680.61981
520.2342
400.18429
309.53297
240.56214
187.74379
147.06674
115.58694
91.121529
72.03741
57.102893
45.382284
36.160129
28.886264
23.135686
18.579153
14.961591
12.086041
9.8024359
7.9939785
6.5792985
5.503752
4.7338238
4.2567805
4.0873445
4.2572344
4.8800784
6.238972
8.3969423
11.782784
15.239457
15.839006
15.209276
13.083304
7.9930752
3.88773
2.0329438
1.1933494
0.79814534
0.56952232
0.42864474
0.33613944
0.26783129
0.21810404
0.18065405
0.15197732
0.12965127
0.11308854
0.10369624
0.095025778
3737167.7
603819.61
185379.12
78640.513
40016.125
22792.539
13997.784
9066.4844
6107.5064
4239.1725
3012.0418
2180.5031
1602.6666
1192.7686
896.99175
680.48852
520.08572
400.01877
309.35064
240.36342
187.52942
146.83793
115.34548
90.869954
71.779123
56.842277
45.124781
35.912255
28.655542
22.930479
18.408382
14.834375
12.01151
9.7891875
8.0543355
6.7292209
5.7671083
5.1514918
4.9018056
5.0658957
5.7533977
7.2647192
9.6480606
13.113871
16.417837
16.947724
16.268943
14.018357
8.7121149
4.292412
2.2637425
1.3317612
0.88940534
0.62968952
0.47090046
0.36707105
0.29060064
0.23614806
0.19525212
0.16383618
0.13915866
0.12202818
0.10898925
0.10083245
0.09235688
3737225.4
603828.82
185381.93
78641.688
40016.703
22792.846
13997.947
9066.5626
6107.529
4239.1551
3011.9932
2180.4285
1602.5688
1192.6492
896.85161
680.32798
519.9049
399.81773
309.12954
240.12263
187.26968
146.56048
115.05223
90.56362
71.463423
56.52208
44.806246
35.602932
28.364418
22.667965
18.186245
14.665647
11.910449
9.7715754
8.1465091
6.9693378
6.2117487
5.8914387
6.0662369
6.8446821
8.5238124
11.122882
14.595833
17.689104
18.132357
17.397571
15.004333
9.4595075
4.7413675
2.5241603
1.4913713
0.99270895
0.69709398
0.51868449
0.40171824
0.31726034
0.25751633
0.21189714
0.17645786
0.14956349
0.13055444
0.11558737
0.1037115
0.096182936
0.089592449
3737283.9
603838.25
185384.82
78642.901
40017.298
22793.161
13998.112
9066.6391
6107.547
4239.1309
3011.9359
2180.3434
1602.4589
1192.5161
896.69617
680.1506
519.70577
399.59698
308.88742
239.85962
186.98669
146.25897
114.73439
90.232564
71.123392
56.178654
44.466565
35.275911
28.060962
22.401203
17.971878
14.522449
11.860165
9.8517527
8.409244
7.4876657
7.0957169
7.2885982
8.1625843
10.01143
12.787017
16.252643
19.076941
19.399684
18.600687
16.045573
10.237281
5.2563584
2.8323359
1.6758277
1.1039253
0.7712358
0.57263867
0.441793
0.34764465
0.28118137
0.22940981
0.19038871
0.1616736
0.14026499
0.12245497
0.10896016
0.0995549
0.093946093
0.08799182
3737344.3
603848.04
185387.81
78644.156
40017.915
22793.487
13998.285
9066.7198
6107.5676
4239.1083
3011.8799
2180.2593
1602.3501
1192.3844
896.54267
679.97598
519.51049
399.38148
308.65229
239.60576
186.71544
145.97229
114.43507
89.924429
70.811541
55.869762
44.169215
35.000992
27.822093
22.215082
17.85918
14.514678
12.00885
10.220938
9.0855209
8.5962537
8.795562
9.7505591
11.734963
14.629738
18.067525
20.644673
20.759841
19.882332
17.141301
11.046574
5.8412405
3.1820623
1.8679627
1.2165346
0.85264025
0.63661651
0.48811198
0.38216103
0.30718166
0.24993135
0.20719263
0.17532868
0.15002467
0.12978613
0.11537886
0.10532671
0.097283145
0.091550684
0.086133763
3737407.1
603858.19
185390.93
78645.459
40018.56
22793.833
13998.473
9066.8157
6107.6037
4239.1025
3011.8423
2180.196
1602.2649
1192.2796
896.41988
679.83634
519.35499
399.21113
308.46829
239.40967
186.50932
145.75892
114.2181
89.708684
70.60327
55.676927
44.002112
34.873577
27.753752
22.23413
18.008203
14.848934
12.598605
11.164484
10.517666
10.677267
11.668738
13.730653
16.700902
20.026965
22.418371
22.265979
21.244145
18.248052
11.905652
6.4964803
3.5599294
2.0670286
1.341514
0.9539789
0.71375387
0.54161927
0.41985104
0.33685346
0.27360478
0.22654992
0.18968104
0.16087101
0.13900316
0.12350062
0.11123956
0.10108174
0.0937484
0.089187837
0.084847496
3737471.9
603868.67
185394.15
78646.818
40019.24
22794.208
13998.689
9066.9397
6107.6704
4239.1308
3011.8433
2180.1765
1602.2293
1192.231
896.36067
679.76839
519.28005
399.13103
308.38508
239.32577
186.42776
145.68354
114.1539
89.662284
70.58366
55.696673
44.078641
35.030334
28.022616
22.658437
18.645425
15.776404
13.921184
13.019257
13.07552
14.003025
16.066502
19.035286
22.278454
24.398111
23.988959
22.725919
19.333641
12.815429
7.2126053
3.9544076
2.2775392
1.4878967
1.0705925
0.79612191
0.59604216
0.46176664
0.37019716
0.30112814
0.24777799
0.20625458
0.17385517
0.1501468
0.13194271
0.11711687
0.10559861
0.097742779
0.092067322
0.087810112
0.083747546
3737539.4
603879.61
185397.5
78648.24
40019.961
22794.616
13998.938
9067.099
6107.7761
4239.2032
3011.8944
2180.2142
1602.259
1192.2569
896.38599
679.79621
519.3134
399.17316
308.43966
239.39716
186.52127
145.80581
114.31334
89.869749
70.853229
56.046822
44.534092
35.624981
28.802685
23.685128
19.999667
17.564868
16.280139
16.109267
16.905378
18.840789
21.709134
24.831708
26.581786
26.051016
24.385251
20.417434
13.780351
7.9644543
4.361714
2.516806
1.6599181
1.199756
0.88279686
0.66067417
0.51465331
0.41217708
0.33197615
0.27234511
0.22533296
0.18971998
0.1623243
0.14110221
0.12395852
0.11171613
0.10271679
0.095623574
0.08997013
0.08608172
0.082722898
3737610.3
603891
185400.99
78649.728
40020.725
22795.061
13999.222
9067.2958
6107.9237
4239.3232
3012.0001
2180.3145
1602.3605
1192.3649
896.50523
679.93126
519.46901
399.35453
308.65274
239.64897
186.82027
146.16241
114.74063
90.3844
71.476916
56.808256
45.470959
36.786512
30.252803
25.506595
22.297002
20.464678
19.921776
20.490847
22.157106
24.799113
27.707897
28.970551
28.20193
26.169077
21.574628
14.807067
8.7474353
4.7951588
2.781884
1.8472884
1.3321648
0.97662217
0.73657562
0.57676165
0.45548812
0.36405049
0.29791791
0.24778608
0.20731265
0.17629636
0.15133753
0.13271488
0.11883178
0.10808717
0.099199397
0.092691615
0.08821501
0.085006157
0.082018118
3737682.9
603902.71
185404.61
78651.275
40021.528
22795.537
13999.537
9067.5261
6108.1087
4239.4857
3012.1549
2180.4717
1602.5281
1192.5496
896.71355
680.1697
519.74462
399.67524
309.02777
240.08928
187.33914
146.77623
115.46981
91.255009
72.521862
58.06928
47.001204
38.653046
32.5391
28.313541
25.739111
24.656156
24.881671
26.07978
28.354255
30.894262
31.537952
30.513991
27.998798
22.767425
15.831837
9.5143118
5.24436
3.0715603
2.0511897
1.4776042
1.0875946
0.82923014
0.64612236
0.50504555
0.40245806
0.33152833
0.27440064
0.22901173
0.19228987
0.16442345
0.14289836
0.12700595
0.11369123
0.10372723
0.096466238
0.091360243
0.08704089
0.083830735
0.081230421
3737758.4
603914.96
185408.37
78652.887
40022.373
22796.048
13999.886
9067.7917
6108.3331
4239.6936
3012.3623
2180.6905
1602.7679
1192.8192
897.02154
680.52524
520.15786
400.15786
309.59351
240.75459
188.12398
147.70509
116.57301
92.569905
74.094957
59.957834
49.27512
41.395766
35.845524
32.281923
30.45188
30.14499
30.828862
32.281099
34.311249
34.216879
32.899176
29.744636
23.981507
16.853241
10.282044
5.7416602
3.4031164
2.2811511
1.6401646
1.2136984
0.92937975
0.71949208
0.5598068
0.44909499
0.36739978
0.30211135
0.2502323
0.21088975
0.17878846
0.1549307
0.13554468
0.120667
0.10934074
0.10128306
0.094500416
0.089286242
0.085559722
0.083008672
0.080716378
3737836.4
603927.56
185412.25
78654.569
40023.269
22796.606
14000.283
9068.112
6108.6198
4239.9735
3012.6535
2181.0068
1603.1209
1193.2202
897.48191
681.05744
520.77596
400.87817
310.43537
241.74118
189.2834
149.07148
118.18793
94.483649
76.367708
62.660074
52.486588
45.199966
40.316943
37.46179
36.311398
36.471545
37.376768
37.97859
37.183066
35.302097
31.414497
25.204412
17.850668
11.043296
6.2803922
3.7752447
2.5297419
1.8123195
1.3502698
1.0386689
0.80360425
0.62907486
0.5050498
0.40949723
0.33324906
0.27830338
0.23398812
0.19822619
0.16879103
0.14670253
0.12902575
0.11659038
0.10621959
0.098182329
0.092111805
0.088044494
0.084676131
0.082178787
0.080129983
3737916.9
603940.6
185416.3
78656.344
40024.241
22797.236
14000.757
9068.5171
6109.0039
4240.3658
3013.0745
2181.4729
1603.6467
1193.8199
898.17054
681.85154
521.69444
401.94319
311.67323
243.18348
190.96828
151.04499
120.50543
97.209203
79.563432
66.378782
56.79733
50.149483
45.9023
43.584254
42.742776
42.599486
41.971897
40.256673
37.656774
33.096756
26.439701
18.806344
11.812954
6.8834827
4.2004314
2.8047677
2.0046225
1.5062242
1.165173
0.90287829
0.70915337
0.56641714
0.45385497
0.3701548
0.30848519
0.25910095
0.21678536
0.18465625
0.15838662
0.13939599
0.12394382
0.11213684
0.10254678
0.096185495
0.090829284
0.086844813
0.083666607
0.081519655
0.079700476
3738001.3
603954.27
185420.55
78658.234
40025.303
22797.954
14001.327
9069.0311
6109.5136
4240.9035
3013.6637
2182.1329
1604.3955
1194.6755
899.15226
682.98108
522.99678
403.4477
313.41494
245.20453
193.31847
153.78079
123.68599
100.88865
83.786428
71.176291
62.162174
56.040546
52.199069
49.92592
48.272482
46.200986
43.544986
40.142255
34.78251
27.625816
19.736554
12.635712
7.5771891
4.6829681
3.1058419
2.2150421
1.6775318
1.3025074
1.0125507
0.79716834
0.63508139
0.50875358
0.41586562
0.34549933
0.28648386
0.24139999
0.20473405
0.17577467
0.15163582
0.13392233
0.11906122
0.10884598
0.10054992
0.094147034
0.089033458
0.085649774
0.082882821
0.081004009
0.079252225
3738088.5
603968.43
185425
78660.239
40026.462
22798.774
14002.01
9069.6745
6110.1728
4241.6142
3014.4524
2183.0224
1605.4073
1195.8316
900.47677
684.50078
524.74235
405.45432
315.72255
247.85702
196.36297
157.26637
127.66077
105.39582
88.857434
76.783986
68.182045
62.176293
57.87616
54.309373
50.807218
47.187358
42.711323
36.510018
28.874886
20.791459
13.608896
8.3869712
5.2246466
3.4391537
2.4527438
1.8707036
1.4586707
1.1398342
0.90184466
0.71765622
0.57558587
0.46875239
0.38434817
0.31792821
0.26749987
0.22782043
0.19234366
0.16557261
0.14355511
0.12800935
0.11521727
0.10585608
0.097636819
0.09240637
0.0879757
0.084913545
0.082173559
0.08043568
0.078873828
3738178.6
603983.11
185429.62
78662.359
40027.722
22799.698
14002.809
9070.4522
6110.9867
4242.5032
3015.4461
2184.1466
1606.6866
1197.2913
902.14357
686.4038
526.91333
407.9275
318.53381
251.04206
199.95305
161.28104
132.09727
110.21479
93.96734
82.042803
73.25254
66.554124
61.050213
56.124237
51.28332
45.579095
38.498988
30.369461
22.064594
14.737997
9.2804116
5.8147553
3.8168311
2.7290234
2.0883968
1.6317115
1.2826112
1.0185353
0.81105337
0.64996162
0.52776368
0.43053921
0.35653228
0.30054544
0.25282786
0.2147306
0.18318601
0.15921756
0.13888894
0.12443205
0.11173831
0.10311479
0.096197409
0.091074788
0.086761394
0.083928505
0.081604142
0.080103031
0.078594899
3738271.2
603998.28
185434.44
78664.595
40029.082
22800.723
14003.719
9071.3532
6111.9406
4243.5513
3016.6203
2185.4745
1608.1948
1199.0065
904.09372
688.61801
529.42147
410.75874
321.71368
254.58749
203.86464
165.53174
136.61703
114.87101
98.540861
86.211613
76.701339
69.010805
62.339002
55.938083
48.847492
40.81807
32.141578
23.557762
16.0248
10.294376
6.5187124
4.2932753
3.0669747
2.3353958
1.8239325
1.4447382
1.1541773
0.92131496
0.74023915
0.59925002
0.48858564
0.40311713
0.33596262
0.28119527
0.23802175
0.20458294
0.17408777
0.1514472
0.13256942
0.11958273
0.10859705
0.10107124
0.094005707
0.089611173
0.085815978
0.083327195
0.080983719
0.079640337
0.078322135
3738367.1
604011.18
185437.07
78665.11
40029.182
22800.815
14003.928
9071.7279
6112.5028
4244.3157
3017.6005
2186.6847
1609.651
1200.7264
906.09615
690.92201
532.04402
413.71138
324.99738
258.18539
207.73235
169.58579
140.7228
118.83366
102.10494
89.07751
78.567044
69.63023
61.248288
52.649758
43.610779
34.334706
25.406357
17.598463
11.539388
7.4039237
4.8814957
3.4510354
2.6003015
2.0348939
1.6284901
1.3096564
1.0486251
0.84319502
0.68175774
0.55394671
0.45572893
0.37668718
0.31513372
0.26796572
0.22774635
0.19489907
0.16709419
0.14688109
0.12926164
0.11721938
0.10618542
0.098835037
0.092819406
0.088690779
0.084978946
0.082654011
0.080657381
0.079345451
0.078071596
3739014.3
604121.87
185474.39
78682.869
40039.344
22807.417
14008.655
9075.3957
6115.5539
4247.0121
3020.1098
2189.1217
1612.0982
1203.2462
908.73609
693.71701
535.01583
416.86554
328.31805
261.62807
211.21544
172.98253
143.85685
121.48263
104.01905
90.01933
78.202961
67.459193
57.118684
46.889482
36.860754
27.458725
19.286413
12.856676
8.3424569
5.5000598
3.8524377
2.8890222
2.27617
1.8367267
1.482259
1.1910657
0.96069384
0.77723537
0.63226913
0.51804696
0.42755265
0.35609875
0.30020531
0.25351546
0.21568649
0.18678638
0.15998389
0.14056946
0.12404114
0.11310532
0.10348242
0.097314754
0.091212301
0.087447446
0.084168289
0.08208202
0.080100023
0.079018007
0.077927827
3739013.7
604118.89
185472.02
78681.175
40038.257
22806.779
14008.365
9075.3928
6115.8052
4247.5001
3020.8269
2190.0663
1613.2724
1204.6525
910.37445
695.58122
537.08841
419.11167
330.67837
264.01118
213.49166
174.9814
145.3747
122.29382
103.82882
88.415465
74.914039
62.545915
50.898499
39.926324
29.898552
21.257202
14.401431
9.4774652
6.2785715
4.3743318
3.2589254
2.56093
2.0630524
1.6675124
1.3498714
1.095918
0.88836279
0.72206651
0.59019732
0.48443512
0.4023724
0.33573032
0.28324958
0.2424355
0.20769245
0.17906422
0.15427337
0.13712206
0.12154141
0.111387
0.10166267
0.095414331
0.09003833
0.08674849
0.083504469
0.081593481
0.079869225
0.078676215
0.077735193
3739013.8
604119.04
185472.17
78681.391
40038.538
22807.132
14008.798
9075.9144
6116.4246
4248.2267
3021.6697
2191.0331
1614.3685
1205.8785
911.72362
697.03553
538.61403
420.65365
332.15547
265.31254
214.47884
175.47655
145.14403
121.03981
101.30894
84.557605
69.802656
56.453263
44.289933
33.404539
24.076039
16.590884
11.066212
7.3430694
5.0495608
3.6932908
2.8687199
2.3095064
1.8838373
1.5423691
1.2591132
1.0220123
0.83027876
0.67754333
0.55596706
0.45912469
0.3823237
0.32057149
0.27244285
0.23187054
0.19831476
0.17291667
0.14892369
0.13210769
0.1173729
0.10809866
0.09946466
0.094284531
0.089029368
0.085733457
0.082917584
0.081133046
0.079428903
0.078513666
0.077631013
3739014
604119.13
185472.26
78681.502
40038.684
22807.318
14009.029
9076.1983
6116.7664
4248.6319
3022.1425
2191.5756
1614.9784
1206.5472
912.43332
697.75561
539.29743
421.23172
332.53267
265.35946
214.01951
174.31245
143.09017
117.97632
97.193189
79.462251
63.947011
50.206624
38.12898
27.821311
19.46
13.132932
8.7284106
5.9262395
4.2534753
3.2647772
2.6268119
2.1540236
1.7693969
1.4454199
1.1766644
0.95927327
0.78282725
0.64093512
0.5274898
0.43580719
0.36432517
0.30583097
0.25982564
0.22351933
0.1925537
0.16732671
0.14476576
0.12985181
0.11574974
0.10690437
0.098212025
0.09283214
0.087983049
0.085231795
0.082341531
0.080724896
0.079255204
0.078286228
0.077481479
3739014.9
604119.22
185472.27
78681.504
40038.689
22807.331
14009.053
9076.2356
6116.8205
4248.7044
3022.2333
2191.6811
1615.0896
1206.6474
912.49471
697.73522
539.13225
420.83641
331.79873
264.16012
212.22595
171.80391
139.77581
113.82412
92.261318
73.922799
58.089379
44.409036
32.7953
23.296427
15.952175
10.673316
7.1826895
5.0425908
3.7795912
2.9965199
2.4461415
2.0135868
1.6568139
1.3616243
1.1163819
0.9113975
0.74405261
0.61026721