/*--------------------------------*- C++ -*----------------------------------*\
  =========                 |
  \\      /  F ield         | OpenFOAM: The Open Source CFD Toolbox
   \\    /   O peration     | Website:  https://openfoam.org
    \\  /    A nd           | Version:  13
     \\/     M anipulation  |
\*---------------------------------------------------------------------------*/
FoamFile
{
    format      ascii;
    class       volVectorField;
    location    "4.503837";
    object      U;
}
// * * * * * * * * * * * * * * * * * * * * * * * * * * * * * * * * * * * * * //

dimensions      [0 1 -1 0 0 0 0];

internalField   nonuniform List<vector> 
17140
(
(-4.2634952e-06 0.00017503506 1.4486975e-23)
(-5.807514e-05 0.00053818792 1.6269608e-24)
(-0.00017477202 0.00093436245 -1.0622987e-22)
(-0.00037914432 0.0013649589 1.1678255e-22)
(-0.00069311763 0.0018313965 -1.3655509e-23)
(-0.0011469487 0.002334677 4.4896435e-23)
(-0.0017776674 0.002875277 7.5797625e-23)
(-0.0026298559 0.0034529757 -3.6598803e-23)
(-0.0037569648 0.0040666506 -1.2082917e-22)
(-0.0052225821 0.0047140444 -2.9740479e-22)
(-0.0071016281 0.005391508 4.4005487e-22)
(-0.0094814292 0.0060937308 -3.9252243e-22)
(-0.012462545 0.0068134764 -6.1082081e-23)
(-0.016159171 0.00754135 3.3748077e-22)
(-0.020698912 0.0082656459 -3.7698292e-23)
(-0.026221695 0.0089723213 2.9516597e-22)
(-0.032877603 0.0096451853 -9.9737095e-24)
(-0.040823452 0.010266369 3.460353e-24)
(-0.050218102 0.010817178 1.7147767e-22)
(-0.061216684 0.011279361 -2.1529169e-22)
(-0.073964378 0.011636821 1.0481712e-22)
(-0.088590594 0.011877616 -1.6866275e-23)
(-0.10520479 0.011995971 -1.3600661e-22)
(-0.12389865 0.011993768 1.3727389e-22)
(-0.14475862 0.011880905 2.1417853e-22)
(-0.16783587 0.011674548 -1.5983977e-22)
(-0.19319503 0.011394554 -8.0851836e-22)
(-0.22097142 0.011055049 -1.0964861e-22)
(-0.25126126 0.010670505 8.2741213e-22)
(-0.28416801 0.010250858 2.149152e-22)
(-0.31984131 0.0098000628 7.5236647e-22)
(-0.35841062 0.0093185409 -9.6454027e-22)
(-0.3999971 0.008803974 2.8263942e-22)
(-0.44469548 0.0082525526 1.2676608e-22)
(-0.4925582 0.0076601576 1.4817683e-21)
(-0.54357478 0.0070236522 -6.4297525e-22)
(-0.59764607 0.0063419399 1.1419465e-21)
(-0.65455206 0.0056156325 8.6339863e-22)
(-0.71391374 0.0048439256 4.5106196e-22)
(-0.77514851 0.0040184593 -1.4205771e-21)
(-0.83741899 0.0031165473 -2.9998512e-21)
(-0.89958595 0.002098781 -2.9704805e-21)
(-0.96016884 0.00091680825 -1.3873045e-21)
(-1.0172805 -0.00046704912 7.6253819e-21)
(-1.0686878 -0.0020622686 6.0063327e-21)
(-1.1118002 -0.0038595271 -1.5459443e-21)
(-1.1435816 -0.0057759831 1.1016344e-20)
(-1.1584816 -0.0074741829 3.7937207e-21)
(-1.1610796 -0.0092221817 -3.804455e-21)
(-1.1280766 -0.0111169 -8.880285e-21)
(-1.0777975 -0.012815166 4.9320425e-21)
(-0.99927503 -0.014172555 2.6067489e-21)
(-0.89445681 -0.015483053 -5.6405599e-21)
(-0.75718697 -0.017013385 -1.9045209e-21)
(-0.57916274 -0.018526542 -6.935247e-22)
(-0.36122048 -0.019236061 2.1379267e-22)
(-0.11752091 -0.018631193 9.4693243e-22)
(0.13080257 -0.016305603 1.1667741e-21)
(0.35491576 -0.012624436 3.1118402e-22)
(0.54293441 -0.008474635 -7.3364688e-22)
(0.68818361 -0.0041461859 -4.4852114e-22)
(0.78638529 0.00011312882 -1.1980816e-21)
(0.83670838 0.0036753037 -1.3055439e-22)
(0.84820979 0.0055302728 7.6397866e-22)
(0.85048763 0.0052590718 -4.8635943e-22)
(-4.5370663e-05 0.0010594708 -4.3939993e-24)
(-0.0001833362 0.0032583776 5.6998253e-22)
(-0.00039069505 0.0056588881 -5.081111e-22)
(-0.00069198126 0.0082722937 1.3814924e-22)
(-0.0011091299 0.01110911 2.866393e-22)
(-0.0016721032 0.014177818 -5.4912122e-22)
(-0.0024174137 0.01748414 5.7195497e-22)
(-0.0033888641 0.02103003 -5.0400678e-23)
(-0.0046388064 0.024812475 1.5769706e-22)
(-0.0062293561 0.028822102 3.1623653e-24)
(-0.0082335375 0.033041639 5.2742126e-22)
(-0.010736316 0.037444259 -8.3453304e-22)
(-0.013835399 0.04199192 -6.9043974e-23)
(-0.017641641 0.046633859 6.7858463e-22)
(-0.022278852 0.051305487 -2.0553332e-22)
(-0.027882805 0.055928023 -1.2995695e-22)
(-0.034599209 0.06040929 8.2621112e-22)
(-0.042580517 0.064646207 -2.6471681e-21)
(-0.051981504 0.068529489 1.629341e-21)
(-0.062953845 0.07195096 -1.9297677e-21)
(-0.075640217 0.074813541 2.7811339e-21)
(-0.09016879 0.077043303 -6.631997e-22)
(-0.10664922 0.07860194 -2.6089389e-22)
(-0.12517446 0.079496726 8.7065387e-22)
(-0.14583275 0.079784308 -3.0019756e-21)
(-0.16868157 0.079566104 -4.8756666e-22)
(-0.19378378 0.078963841 2.2061925e-21)
(-0.22127437 0.078070625 -2.5249714e-21)
(-0.25125473 0.076978776 2.6146675e-22)
(-0.28382299 0.075753932 3.4220528e-21)
(-0.31912765 0.074427304 -3.0006298e-22)
(-0.35729431 0.073006317 -2.9627569e-21)
(-0.39843934 0.071480057 -1.7452962e-22)
(-0.44265164 0.069824812 2.4730173e-21)
(-0.48997641 0.068006661 -2.9071698e-21)
(-0.54039417 0.065982423 1.4805798e-21)
(-0.593794 0.063699888 -1.7020326e-21)
(-0.64993974 0.061097015 -6.3969568e-21)
(-0.70842967 0.058098978 -1.7029821e-21)
(-0.76865079 0.054613652 -7.1485429e-21)
(-0.82973108 0.05052853 9.7177166e-21)
(-0.89050151 0.045714875 1.0200395e-20)
(-0.94946649 0.040047871 2.0978402e-21)
(-1.0047426 0.033440759 -1.6047963e-20)
(-1.0540881 0.025843359 8.6245197e-21)
(-1.0947935 0.017129977 3.2157586e-21)
(-1.1236777 0.0073156502 -1.6140063e-21)
(-1.1361116 -0.0031140749 -5.4382909e-21)
(-1.1278316 -0.015983249 2.5916609e-21)
(-1.0957729 -0.028692586 -4.5642725e-21)
(-1.0392962 -0.039472123 -2.5097757e-20)
(-0.956398 -0.050617684 -1.0500071e-21)
(-0.84704773 -0.061922633 3.6535129e-21)
(-0.70596514 -0.075242288 -5.7827731e-21)
(-0.52459464 -0.089548473 2.7524642e-21)
(-0.30457696 -0.099539427 -1.3194244e-21)
(-0.061078049 -0.10168847 9.3618157e-22)
(0.18244388 -0.093806695 -5.3530969e-21)
(0.39947901 -0.078347717 9.5188966e-22)
(0.57764804 -0.060225227 1.0050367e-21)
(0.71242186 -0.041271979 1.5437261e-22)
(0.80363972 -0.022219142 -1.5156815e-21)
(0.85307743 -0.0054298167 2.239298e-21)
(0.86603747 0.0039543957 4.4925122e-22)
(0.86719857 0.0040087214 6.4763812e-22)
(-0.0001344527 0.0019200848 -2.4707638e-22)
(-0.000454564 0.0059061775 1.8264417e-22)
(-0.00085786613 0.010259076 4.873382e-23)
(-0.0013682508 0.01500023 -4.6023357e-23)
(-0.0020075931 0.020149523 2.2430271e-22)
(-0.0028051008 0.025723368 1.7240607e-23)
(-0.0037960256 0.031733377 2.1421101e-22)
(-0.0050223187 0.038184562 2.3149526e-22)
(-0.0065337617 0.045073168 -1.8794321e-21)
(-0.0083890616 0.052384175 1.6775729e-21)
(-0.010656887 0.060088479 -8.0154222e-22)
(-0.013416812 0.06813987 -1.1766719e-21)
(-0.016760064 0.076471948 2.3222504e-21)
(-0.020789935 0.084995281 2.8978403e-22)
(-0.025621682 0.093595219 -1.0989117e-21)
(-0.031381727 0.10213097 -7.5247364e-22)
(-0.038205978 0.11043675 8.6287959e-22)
(-0.046237109 0.11832589 -3.0934669e-21)
(-0.055620773 0.12559897 1.7875627e-21)
(-0.066500899 0.13205675 -8.8097754e-22)
(-0.079014544 0.1375181 2.8791548e-21)
(-0.093287024 0.14184199 7.3384659e-22)
(-0.10942828 0.14495078 -1.4813058e-21)
(-0.12753375 0.14684946 2.2033987e-21)
(-0.14769506 0.14763432 9.0251635e-22)
(-0.16998341 0.14748543 -9.3273141e-22)
(-0.19445616 0.14662528 -5.5584376e-21)
(-0.22124804 0.14522975 -2.6539498e-21)
(-0.25047294 0.14347061 1.0892996e-21)
(-0.28221473 0.14147312 -1.538054e-21)
(-0.31661837 0.13929821 6.4404126e-22)
(-0.35379953 0.13696165 5.0536706e-21)
(-0.39386254 0.13444445 -1.7655043e-21)
(-0.43688072 0.13170261 -5.8807826e-21)
(-0.48287942 0.12867138 1.7179896e-21)
(-0.53181375 0.12526593 3.0725226e-21)
(-0.58354036 0.12138066 -6.0093605e-21)
(-0.63778192 0.11688825 -2.2522211e-21)
(-0.69408588 0.11163883 3.9353428e-21)
(-0.75178019 0.10545975 1.6692886e-21)
(-0.80993056 0.098158668 -9.650045e-21)
(-0.86730758 0.089531451 2.637001e-21)
(-0.92235415 0.079380166 4.5340134e-21)
(-0.97311733 0.067534953 1.394888e-20)
(-1.0172361 0.05383085 -2.8293068e-20)
(-1.0517825 0.03797033 1.9884893e-20)
(-1.0732802 0.019775078 5.5423575e-21)
(-1.0773899 -0.00035935847 2.1464756e-20)
(-1.0604923 -0.02263254 2.5336457e-20)
(-1.0201577 -0.045343288 1.2232394e-21)
(-0.95395337 -0.06636358 -4.6996628e-21)
(-0.86278816 -0.086440485 3.145932e-20)
(-0.74705224 -0.10721227 1.071113e-20)
(-0.60182542 -0.13181591 7.8822308e-21)
(-0.41762043 -0.15850053 1.6968944e-21)
(-0.19742758 -0.17708308 1.9487178e-21)
(0.04144494 -0.1806783 1.240585e-21)
(0.2736799 -0.16596816 -7.6113044e-22)
(0.47554864 -0.13808749 -8.7903727e-21)
(0.63481093 -0.10574678 -3.1441927e-21)
(0.7496275 -0.073387026 2.9829773e-21)
(0.82507551 -0.042378025 7.8647059e-21)
(0.86910685 -0.014599265 -1.9254803e-21)
(0.88536477 0.0028136022 -2.1817501e-21)
(0.88979398 0.0043400108 -7.698133e-22)
(-0.00026771891 0.0027222813 9.0166766e-22)
(-0.00086030865 0.0083760327 -1.4347169e-21)
(-0.0015566739 0.014552963 5.1910082e-22)
(-0.0023797433 0.021284832 -5.6306483e-23)
(-0.0033512993 0.028601236 1.1188857e-21)
(-0.0044994125 0.036527209 -1.1562667e-21)
(-0.0058574368 0.04508134 1.7586021e-21)
(-0.0074645362 0.05427326 -8.2362243e-22)
(-0.0093666243 0.064100609 -3.1445477e-21)
(-0.011617274 0.074545497 7.5210917e-22)
(-0.014278585 0.085570499 2.8770665e-21)
(-0.01742199 0.097114284 -8.7389595e-22)
(-0.021128912 0.10908711 -5.5322106e-23)
(-0.025491167 0.12136652 2.284604e-21)
(-0.030610984 0.13379391 -7.0967433e-21)
(-0.036600487 0.14617265 4.319593e-21)
(-0.043580493 0.15826908 4.1416236e-23)
(-0.0516785 0.1698175 -2.3404371e-21)
(-0.061025832 0.18053092 5.8613401e-21)
(-0.07175403 0.19011864 -2.7083361e-21)
(-0.08399084 0.19831134 -3.9666303e-21)
(-0.097856377 0.20489266 -1.6097068e-21)
(-0.11346012 0.20973345 7.6078433e-21)
(-0.13090059 0.2128218 3.9584698e-21)
(-0.15027368 0.2142786 -2.3580552e-21)
(-0.17167043 0.21434942 1.482447e-21)
(-0.19513957 0.21335444 -5.1728369e-21)
(-0.22081815 0.21156778 1.5356194e-21)
(-0.2488409 0.20922961 -4.0948897e-21)
(-0.27926789 0.20653047 2.2615662e-21)
(-0.31223731 0.20356895 -1.6016369e-21)
(-0.34785032 0.20037231 5.6610195e-21)
(-0.38619219 0.19691425 -7.6331695e-22)
(-0.42731198 0.19312945 4.9582724e-21)
(-0.47120395 0.18892044 -4.9261103e-21)
(-0.5177836 0.18415844 -2.1035521e-21)
(-0.56685772 0.17868222 2.3301767e-20)
(-0.61808807 0.17229778 7.0542321e-21)
(-0.6709502 0.16478036 -6.1253716e-21)
(-0.72469116 0.15587921 6.666901e-21)
(-0.77829129 0.14532565 -2.1337472e-21)
(-0.83043382 0.1328419 -1.3144438e-20)
(-0.87947515 0.11815375 5.7157646e-22)
(-0.92339835 0.10100418 5.7433634e-21)
(-0.95977199 0.081127245 -2.6601524e-21)
(-0.98568986 0.058129171 2.270992e-21)
(-0.99778117 0.031798848 5.2005324e-21)
(-0.99198291 0.0023575205 -7.4852448e-20)
(-0.96454699 -0.029865915 8.7558225e-21)
(-0.91279228 -0.062330261 -7.5101726e-21)
(-0.8354804 -0.092322604 6.4273794e-20)
(-0.7352633 -0.12018033 -2.9668698e-20)
(-0.61387267 -0.14904026 -2.0291268e-20)
(-0.46673172 -0.1841271 -1.3830622e-20)
(-0.28210479 -0.22271086 -7.3659049e-21)
(-0.065164358 -0.24892159 -2.6698462e-21)
(0.16337637 -0.2527877 -6.6125163e-21)
(0.37838012 -0.23051983 8.786203e-21)
(0.5583225 -0.18998608 1.5725461e-20)
(0.69313544 -0.14362313 -9.7122738e-21)
(0.78428135 -0.098975671 -2.8474691e-21)
(0.8406369 -0.058718972 -2.0314565e-21)
(0.87459371 -0.023929053 6.8226493e-21)
(0.89356347 -0.00099447407 3.679816e-21)
(0.90490903 0.0040330913 -4.4053871e-23)
(-0.00043752109 0.0034320243 -7.0388607e-22)
(-0.001377416 0.010563852 2.3373264e-21)
(-0.0024474017 0.018360715 -1.9061193e-21)
(-0.0036692422 0.026864767 7.20663e-22)
(-0.0050646538 0.036115657 2.6084097e-22)
(-0.0066603218 0.046147873 -2.243797e-21)
(-0.0084872526 0.056988396 5.6603642e-22)
(-0.010581137 0.0686536 1.2058764e-21)
(-0.012983038 0.081145483 9.1682172e-23)
(-0.01574006 0.094447245 7.8480385e-22)
(-0.018905992 0.1085182 -1.100213e-21)
(-0.022541911 0.12328816 7.6183265e-22)
(-0.026716702 0.13865151 2.8110919e-21)
(-0.031507422 0.15446136 8.476578e-23)
(-0.03699942 0.17052458 -2.1215026e-21)
(-0.043286127 0.18659856 -1.496103e-21)
(-0.050468412 0.20239119 1.2826249e-21)
(-0.058653425 0.21756589 -1.1091358e-22)
(-0.067952893 0.23175351 -2.4185407e-21)
(-0.078480927 0.24457318 -2.9274548e-21)
(-0.090351518 0.25566327 3.2729703e-21)
(-0.10367614 0.26472142 3.2114735e-21)
(-0.11856179 0.27155003 -4.1937632e-21)
(-0.13510991 0.27609838 5.0934882e-21)
(-0.15342149 0.27848818 8.7634756e-21)
(-0.17360661 0.27900841 -1.9807194e-20)
(-0.19572002 0.2780692 1.0635388e-20)
(-0.21989357 0.27607174 -1.5924972e-20)
(-0.24627555 0.27330022 1.9715052e-20)
(-0.27491598 0.27001546 -2.2340734e-20)
(-0.30593441 0.26636828 2.3504522e-20)
(-0.33941674 0.26240266 -3.7867313e-21)
(-0.37542281 0.2580871 -1.4829297e-20)
(-0.41397044 0.25333397 8.7609857e-21)
(-0.45501407 0.2480108 -2.8349675e-21)
(-0.49841934 0.24194223 -6.9395419e-22)
(-0.54393183 0.23490946 -1.2498385e-20)
(-0.59114053 0.22665141 -4.8383931e-21)
(-0.63943832 0.2168702 -5.7566969e-21)
(-0.68798447 0.20524161 -5.4655706e-21)
(-0.73567521 0.19142856 3.040386e-20)
(-0.78112543 0.17509188 -1.4617741e-20)
(-0.82265916 0.15589752 -3.2083618e-21)
(-0.85830504 0.13352005 3.271578e-20)
(-0.88572826 0.10759934 1.8385095e-20)
(-0.90221248 0.077632593 -9.0346421e-21)
(-0.90452436 0.043305475 -3.6650042e-20)
(-0.88867671 0.0048040634 1.539378e-20)
(-0.85058729 -0.037051136 -4.8507826e-20)
(-0.78712584 -0.079113814 -2.5215157e-20)
(-0.69786547 -0.11736028 -3.0527764e-20)
(-0.58767951 -0.15128036 -7.4087747e-20)
(-0.46080044 -0.1863155 4.6234072e-20)
(-0.31322367 -0.23082416 -1.3923779e-20)
(-0.12965422 -0.28073149 1.1771166e-20)
(0.080790851 -0.31338996 5.2051837e-21)
(0.29399193 -0.31616476 7.638269e-22)
(0.48592815 -0.28574208 -1.6977063e-20)
(0.63777638 -0.2328228 -6.0890715e-21)
(0.7440984 -0.17361904 1.2679112e-20)
(0.81092816 -0.11853382 3.5705703e-21)
(0.84984244 -0.071375648 -2.3134465e-21)
(0.8748141 -0.032662826 -3.6139355e-21)
(0.89441858 -0.0067468679 -4.0462532e-21)
(0.91243461 0.0010925675 1.9622172e-22)
(-0.00063242946 0.004017319 -2.3952607e-21)
(-0.0019712359 0.012371645 -8.4678874e-22)
(-0.003470557 0.021512758 6.8290669e-22)
(-0.005150942 0.031493117 2.5285881e-21)
(-0.0070341372 0.042362649 -1.386883e-21)
(-0.0091453714 0.054166143 1.9953869e-21)
(-0.011513107 0.066940538 -8.6321513e-22)
(-0.014169215 0.080711413 -2.0579909e-22)
(-0.017149368 0.095488683 1.1629902e-21)
(-0.020493423 0.11126147 2.504845e-21)
(-0.024245782 0.12799216 1.296723e-22)
(-0.028455739 0.14560962 -4.1035528e-21)
(-0.0331778 0.16400199 5.6701702e-21)
(-0.038471937 0.18300923 -9.1104006e-21)
(-0.044403755 0.20241633 2.3685154e-21)
(-0.051044541 0.22194823 -5.0179126e-21)
(-0.05847117 0.24126795 5.9988836e-21)
(-0.066765829 0.25998028 -3.8589431e-21)
(-0.076015588 0.27764327 5.9355799e-22)
(-0.086311815 0.29379039 2.385769e-21)
(-0.097749538 0.30796509 -5.7241144e-21)
(-0.11042687 0.31976804 7.9012215e-21)
(-0.12444461 0.32891304 -8.4153287e-21)
(-0.13990574 0.33528271 -1.5219787e-21)
(-0.15691741 0.33896807 1.3673839e-20)
(-0.17559844 0.3402738 -1.3632686e-20)
(-0.19604279 0.33967843 8.5905775e-21)
(-0.21835245 0.33770494 -9.7809741e-21)
(-0.24267217 0.33469949 -1.3189655e-21)
(-0.26908977 0.33099639 -9.184338e-22)
(-0.29767588 0.32680935 3.7794851e-21)
(-0.32850583 0.32220622 -5.528459e-22)
(-0.36160877 0.31715456 1.6101601e-20)
(-0.39696681 0.31154467 -4.223539e-21)
(-0.43448952 0.30520722 -1.4967395e-20)
(-0.47398772 0.29791817 7.2662465e-21)
(-0.5151417 0.2894 -6.2399462e-21)
(-0.55746611 0.27932549 7.4303803e-21)
(-0.60027518 0.26732812 4.4048998e-20)
(-0.64265474 0.25301962 -2.6616125e-20)
(-0.68344925 0.23601033 -7.4562491e-21)
(-0.72126762 0.21592362 4.6275442e-20)
(-0.7545044 0.19239588 -1.7619839e-21)
(-0.7813684 0.16505872 -5.8440639e-21)
(-0.79980151 0.13345915 -7.9238967e-20)
(-0.8073878 0.096941762 -1.9371544e-20)
(-0.80102554 0.054930752 3.2562556e-20)
(-0.77652639 0.0073930026 3.3960587e-20)
(-0.7290409 -0.044455089 4.8785014e-20)
(-0.65446008 -0.096370463 5.8335803e-20)
(-0.55274061 -0.14232335 3.1636533e-20)
(-0.43132294 -0.18050289 4.2515916e-20)
(-0.29801536 -0.21899519 -1.014912e-20)
(-0.14966537 -0.27126145 5.7847443e-20)
(0.032364182 -0.33138642 3.7771745e-21)
(0.2332432 -0.36883023 5.3979555e-22)
(0.42737426 -0.36897165 1.2291082e-21)
(0.5907316 -0.3300449 1.5678202e-20)
(0.70975761 -0.2657082 6.7922971e-21)
(0.78573488 -0.19580414 -1.0391872e-20)
(0.82973532 -0.13289844 -1.3258656e-20)
(0.85500547 -0.081335764 -4.8184245e-21)
(0.8744576 -0.040907554 -1.3252114e-21)
(0.89488194 -0.014001885 5.2868604e-21)
(0.91753121 -0.0039360035 -1.0901982e-21)
(-0.00083756658 0.0044510533 5.0503216e-22)
(-0.0025974441 0.013715815 1.6052895e-21)
(-0.0045495478 0.023863982 -3.8748938e-21)
(-0.0067143317 0.034957739 1.4289875e-22)
(-0.0091133614 0.047057337 1.8858126e-21)
(-0.011770561 0.060218512 8.3203766e-22)
(-0.014711958 0.074489625 6.1443153e-22)
(-0.017965655 0.089907942 -1.2096774e-21)
(-0.021561918 0.10649504 6.2607169e-21)
(-0.025533244 0.12425125 -4.7153064e-21)
(-0.029914397 0.14314902 2.302911e-22)
(-0.03474245 0.16312536 2.8474803e-21)
(-0.040056819 0.18407337 -1.062225e-20)
(-0.045899329 0.20583325 1.0551956e-20)
(-0.05231432 0.2281836 -1.3897338e-21)
(-0.059348837 0.25083394 -8.6077285e-21)
(-0.067052957 0.27342021 8.0239328e-21)
(-0.075480307 0.29550566 -2.7537035e-21)
(-0.084688846 0.31659005 5.3210675e-21)
(-0.094741957 0.33613052 -6.7291237e-21)
(-0.10570987 0.3535772 -1.2421175e-20)
(-0.1176713 0.36842482 1.2016379e-20)
(-0.13071516 0.38027768 1.7335626e-20)
(-0.14494161 0.38891932 -3.2579484e-20)
(-0.16046198 0.39437006 2.5500783e-20)
(-0.17740075 0.39690932 -1.4534533e-20)
(-0.19589223 0.39704149 3.5637928e-21)
(-0.21601139 0.39538309 -8.5793641e-21)
(-0.23790553 0.39243707 8.3376938e-21)
(-0.26170849 0.38855468 1.1857181e-20)
(-0.287437 0.38402283 -7.6328128e-21)
(-0.31515328 0.37895765 -1.3946055e-20)
(-0.34485404 0.37333292 9.9697557e-22)
(-0.37648428 0.36702009 3.6611914e-22)
(-0.40990761 0.35981255 1.0069529e-20)
(-0.44488042 0.3514366 -4.8441077e-21)
(-0.481021 0.34155635 -1.8962994e-20)
(-0.51777833 0.32978188 -1.0909557e-20)
(-0.55440536 0.31568671 1.7509453e-20)
(-0.58994585 0.29883454 -1.4249159e-20)
(-0.62324432 0.27880868 1.4265914e-20)
(-0.65298292 0.25522966 -3.8724371e-21)
(-0.67773387 0.22774267 -2.0960588e-20)
(-0.69600258 0.19595975 5.5882801e-20)
(-0.70611626 0.15930922 3.4949093e-20)
(-0.70598222 0.1168712 2.5273979e-20)
(-0.69253398 0.06760984 -8.5625824e-20)
(-0.6611051 0.011031381 -5.7743617e-20)
(-0.60566074 -0.051474651 -6.7700276e-20)
(-0.52062567 -0.11427213 -1.1378035e-19)
(-0.4061327 -0.16821016 3.4318052e-20)
(-0.27348031 -0.20924724 -7.9211392e-21)
(-0.13363345 -0.24851016 -4.2249694e-20)
(0.017430789 -0.30595457 -9.5335244e-20)
(0.19747566 -0.3745246 -3.9647114e-20)
(0.38687094 -0.41455948 -6.7744791e-21)
(0.5581213 -0.41041715 -1.7344665e-21)
(0.68832545 -0.3625807 -5.47767e-21)
(0.77195607 -0.28849482 -4.9809755e-22)
(0.81847546 -0.21079238 1.5424739e-20)
(0.8432649 -0.14311919 9.8998713e-21)
(0.85935746 -0.089500062 5.7304645e-22)
(0.87656621 -0.04881448 -9.004533e-21)
(0.89813406 -0.021771578 4.8563636e-22)
(0.92299849 -0.010067475 -7.093539e-22)
(-0.0010361211 0.0047129603 2.2112224e-21)
(-0.0032041217 0.014533622 -1.4914779e-21)
(-0.0055953695 0.025304689 2.0145087e-21)
(-0.00823057 0.0370972 1.1450026e-21)
(-0.011131281 0.049981331 -3.1941848e-21)
(-0.014320419 0.064023994 -2.9812877e-21)
(-0.017821943 0.079286025 3.0571957e-21)
(-0.021660631 0.095818507 -3.691091e-22)
(-0.025861863 0.11365814 -8.4931418e-23)
(-0.030451361 0.13282155 -6.0407177e-21)
(-0.035454889 0.15329836 6.5796788e-22)
(-0.040897932 0.17504304 1.2133772e-20)
(-0.046805395 0.1979656 -9.6774085e-21)
(-0.053201362 0.22192121 3.3098632e-22)
(-0.060109009 0.24669956 6.4339202e-21)
(-0.067550742 0.27201471 5.4627411e-22)
(-0.075548726 0.29749727 -1.3834658e-21)
(-0.084125943 0.32269119 -6.1691855e-21)
(-0.093307948 0.34705855 1.1192896e-20)
(-0.10312547 0.36999643 -1.9432813e-20)
(-0.11361786 0.39086999 4.0924417e-21)
(-0.12483725 0.4090647 -2.993849e-21)
(-0.13685283 0.42405727 2.3203428e-21)
(-0.14975422 0.43549811 -1.7089861e-22)
(-0.16365239 0.44328871 1.3562283e-20)
(-0.17867727 0.44762783 1.3216576e-20)
(-0.19497362 0.44899737 -2.5729983e-20)
(-0.21266679 0.44807134 -4.3410799e-21)
(-0.23186077 0.44552512 1.445761e-20)
(-0.25268628 0.44179097 5.0806969e-21)
(-0.27520672 0.43717473 1.2672925e-20)
(-0.29941965 0.43187036 -1.3934109e-20)
(-0.32530447 0.42588167 -6.5191021e-21)
(-0.35276466 0.41906795 1.5341639e-20)
(-0.38162063 0.41118678 -6.6332262e-21)
(-0.41157921 0.40191529 -4.7932546e-21)
(-0.44220611 0.39086178 1.007029e-20)
(-0.47290011 0.37758009 3.0881343e-20)
(-0.50287733 0.36159626 1.1031806e-20)
(-0.53117573 0.34244719 -7.2208123e-21)
(-0.5566897 0.3197208 -1.9164447e-20)
(-0.57823454 0.29307505 -2.2475287e-20)
(-0.59461677 0.26220503 -2.7303364e-20)
(-0.6046663 0.22672262 -6.1699358e-20)
(-0.60704918 0.18590684 2.2357917e-21)
(-0.59984193 0.138444 -2.8880811e-20)
(-0.57975721 0.082598882 1.7828498e-19)
(-0.54137499 0.017120629 5.0691429e-20)
(-0.47741065 -0.056669046 5.9484742e-20)
(-0.38124347 -0.131503 1.560617e-19)
(-0.2547121 -0.19386518 -1.6350246e-19)
(-0.11408475 -0.23695592 3.1315538e-20)
(0.029126577 -0.27557848 8.4600812e-20)
(0.1838725 -0.33596924 7.84876e-20)
(0.36128708 -0.40989625 4.8159264e-21)
(0.53710178 -0.45001681 -1.0575253e-20)
(0.68116863 -0.43982845 -6.4086822e-21)
(0.77516339 -0.38315922 1.0584744e-21)
(0.82340967 -0.30176606 1.4772665e-21)
(0.84395451 -0.21966809 -4.7037243e-21)
(0.85450053 -0.15022665 -9.8157556e-22)
(0.86545803 -0.096512416 -2.4429248e-21)
(0.88226762 -0.056473284 1.0934858e-20)
(0.90441929 -0.029627162 -2.0323011e-22)
(0.92929011 -0.016517987 2.6046857e-21)
(-0.0012100967 0.004791705 -2.2777843e-21)
(-0.003736177 0.014789454 -6.1002802e-22)
(-0.0065131567 0.025771699 6.7004624e-22)
(-0.0095621484 0.037816984 3.2918878e-21)
(-0.012904969 0.051004425 -3.9462679e-21)
(-0.016563933 0.065411689 3.3482784e-21)
(-0.020561512 0.081112426 1.5995e-21)
(-0.024919928 0.098172866 -8.607339e-23)
(-0.029660667 0.11664746 -1.3464735e-21)
(-0.034803909 0.13657337 -7.642101e-21)
(-0.040367887 0.15796365 1.2799039e-20)
(-0.046368195 0.18079896 -1.5330069e-20)
(-0.052817096 0.20501774 4.4820642e-21)
(-0.059722889 0.23050493 6.0557111e-21)
(-0.067089463 0.25707955 -9.2237947e-21)
(-0.074916167 0.28448201 1.8039961e-20)
(-0.083198231 0.31236249 -2.1665549e-20)
(-0.091927974 0.34027266 -3.4533814e-22)
(-0.10109712 0.36766431 -1.2111501e-20)
(-0.11070046 0.39389926 4.7251528e-20)
(-0.12074108 0.4182759 -1.1218629e-20)
(-0.1312369 0.4400773 -4.5667063e-20)
(-0.14222797 0.45864306 2.104059e-20)
(-0.1537831 0.47346086 2.4649865e-20)
(-0.16600345 0.48426366 -5.9826924e-21)
(-0.17902047 0.49110582 -3.1309675e-20)
(-0.19298684 0.49438293 4.6243457e-20)
(-0.20805788 0.49476574 -5.0757391e-20)
(-0.22435319 0.49303032 3.9597527e-20)
(-0.2419624 0.48980617 -7.5087568e-21)
(-0.2609725 0.48546757 1.3549681e-20)
(-0.28138634 0.48022244 1.9993166e-20)
(-0.30312937 0.47412841 -7.0975757e-21)
(-0.32608314 0.46706073 -1.435923e-21)
(-0.35002426 0.45875298 -3.1804177e-20)
(-0.37461571 0.4488378 5.6048553e-21)
(-0.39938146 0.43687167 -1.8009475e-20)
(-0.42368748 0.42235902 1.7935724e-20)
(-0.44673623 0.40479174 -9.1611097e-21)
(-0.46758733 0.38370163 -7.9704425e-21)
(-0.48521096 0.35871134 -7.9448751e-21)
(-0.49856415 0.32955231 -7.6963156e-21)
(-0.50665558 0.29600061 5.2921386e-20)
(-0.5085211 0.2576836 4.7339234e-20)
(-0.50293073 0.21369779 -1.3266383e-20)
(-0.48778837 0.16223756 1.0433971e-20)
(-0.45927497 0.1007149 -3.9911965e-20)
(-0.41124327 0.026914679 8.8140675e-20)
(-0.33601132 -0.058144884 1.057032e-19)
(-0.22750616 -0.14521366 2.8364521e-20)
(-0.091998096 -0.21567627 6.3769238e-20)
(0.049761411 -0.26035505 -1.3427607e-21)
(0.19085752 -0.2988825 -2.1475737e-20)
(0.34738353 -0.36129148 -8.5056952e-20)
(0.52139209 -0.43765729 3.1848797e-20)
(0.68032951 -0.47521999 -9.4754976e-21)
(0.79240644 -0.45701339 4.5177435e-21)
(0.8485797 -0.39274901 1.7236934e-21)
(0.86435247 -0.3068079 -6.9329497e-21)
(0.86450299 -0.22375195 1.4131548e-21)
(0.86595613 -0.15512571 2.139985e-22)
(0.87458676 -0.10265151 1.6377218e-21)
(0.89127911 -0.063650628 3.2516654e-21)
(0.91273604 -0.037038836 -5.6249948e-21)
(0.93591503 -0.0227003 4.2537368e-21)
(-0.0013421645 0.0046869782 5.504894e-21)
(-0.0041405804 0.014481173 3.7854804e-21)
(-0.0072113228 0.025259323 -5.9421998e-21)
(-0.010575998 0.037105555 1.5603901e-22)
(-0.014256903 0.050106238 5.3658667e-21)
(-0.018276185 0.064348521 2.803002e-21)
(-0.022655509 0.079918182 -5.9071067e-21)
(-0.027415516 0.096896722 9.6779184e-22)
(-0.032575117 0.11535756 -1.3645797e-20)
(-0.038150658 0.13536107 2.6554765e-21)
(-0.044154978 0.15694827 6.9915508e-23)
(-0.050596364 0.18013291 -9.7286122e-21)
(-0.057477453 0.20489167 3.1076303e-20)
(-0.064794145 0.23115252 -1.443072e-20)
(-0.072534667 0.25878122 -2.5729282e-20)
(-0.080678955 0.28756633 2.7266276e-20)
(-0.089198618 0.31720405 -3.3563012e-21)
(-0.098057842 0.34728447 1.8784672e-20)
(-0.10721565 0.37728277 1.3812164e-20)
(-0.11662999 0.40655974 -4.298753e-20)
(-0.12626399 0.4343777 3.1821844e-20)
(-0.13609456 0.45993891 -4.1284154e-20)
(-0.14612273 0.48245158 4.7252091e-21)
(-0.15638413 0.50122372 -1.9196731e-20)
(-0.16695685 0.51577581 4.0769023e-20)
(-0.17796279 0.52594822 -9.5320732e-21)
(-0.18955822 0.53196503 -2.3827319e-20)
(-0.20191234 0.53441116 5.6489347e-20)
(-0.21517319 0.5340956 -2.3991799e-20)
(-0.2294433 0.53181397 -2.6383218e-20)
(-0.24476594 0.52812288 2.1661861e-20)
(-0.26115094 0.52330012 3.2582164e-21)
(-0.27853721 0.51743948 -1.5465561e-20)
(-0.29675502 0.51043466 8.669323e-21)
(-0.31554897 0.50200818 -1.4465447e-20)
(-0.33454577 0.49176054 5.3084781e-20)
(-0.35323851 0.47920806 -3.042307e-20)
(-0.37097396 0.46381541 -2.0203881e-20)
(-0.38695419 0.44505095 -4.5951209e-20)
(-0.4002689 0.42245549 -8.6921234e-21)
(-0.40995368 0.39570517 5.4781502e-20)
(-0.41505517 0.364622 -2.3782597e-20)
(-0.41466305 0.3290755 -3.7765254e-20)
(-0.40778479 0.2887052 -4.7355871e-21)
(-0.39295468 0.24240684 4.7063486e-20)
(-0.36755691 0.18787165 4.4337236e-20)
(-0.32716027 0.12168521 -1.4288838e-19)
(-0.26554044 0.040718109 -7.8825144e-20)
(-0.17621362 -0.054299698 -1.7368232e-19)
(-0.055794015 -0.15212627 -5.7663436e-20)
(0.082773789 -0.22933455 -2.0514218e-20)
(0.21731079 -0.27559529 -1.2231214e-19)
(0.35135119 -0.31625725 -3.5455574e-20)
(0.50714874 -0.38134402 1.0585484e-19)
(0.67552603 -0.45765736 -6.0221883e-20)
(0.81262068 -0.48841233 3.1238239e-20)
(0.88877142 -0.46226443 -8.3188103e-21)
(0.90767634 -0.39212736 7.725245e-21)
(0.8964451 -0.30531627 -3.9447806e-21)
(0.88263838 -0.22436252 1.6058512e-21)
(0.87918883 -0.15841164 3.9857766e-21)
(0.8867008 -0.10794943 6.2260648e-21)
(0.90252002 -0.070131533 8.5960698e-23)
(0.92194617 -0.043727006 7.9860906e-22)
(0.94245751 -0.028396533 -5.4168623e-21)
(-0.0014177136 0.0044107066 1.0613998e-22)
(-0.0043724539 0.013643996 -7.5692727e-21)
(-0.0076121031 0.023826294 8.9190422e-21)
(-0.011158716 0.035044807 4.2876917e-21)
(-0.015035162 0.047390726 -8.5858839e-21)
(-0.019263767 0.060958437 -2.7776193e-21)
(-0.023866027 0.075843925 1.3456926e-20)
(-0.028862002 0.092142551 -1.4463503e-20)
(-0.034269446 0.10994605 -3.0441578e-21)
(-0.0401028 0.12933843 -1.2083555e-20)
(-0.046372008 0.15039062 3.2019231e-20)
(-0.053081185 0.17315336 3.7977319e-22)
(-0.060227148 0.19764818 -2.8533858e-20)
(-0.067797874 0.22385612 3.0474307e-20)
(-0.075771002 0.2517039 -2.1674755e-20)
(-0.084112555 0.28104772 -7.9711978e-21)
(-0.092776156 0.31165513 1.650934e-20)
(-0.10170315 0.34318643 -1.4719482e-20)
(-0.11082416 0.37517806 -1.937376e-20)
(-0.12006268 0.40703239 4.0596931e-22)
(-0.12934152 0.43802008 2.96173e-20)
(-0.13859231 0.46730307 -1.8052722e-20)
(-0.14776819 0.4939864 9.89988e-21)
(-0.15685814 0.51720456 4.6927517e-20)
(-0.16590022 0.53623959 1.5677414e-20)
(-0.1749888 0.55065378 -4.14731e-20)
(-0.18427008 0.56040144 4.1382279e-21)
(-0.19392232 0.56587323 -4.5891384e-20)
(-0.20411735 0.56781094 2.6581256e-20)
(-0.21497961 0.56709903 -1.4431138e-20)
(-0.22656721 0.56449781 2.0816195e-20)
(-0.23887083 0.56048511 5.3970793e-21)
(-0.2517985 0.5552266 -2.7092969e-20)
(-0.26516101 0.54863788 2.8554275e-20)
(-0.27868158 0.54044756 4.6448356e-20)
(-0.29196661 0.53023736 -2.0101591e-21)
(-0.30448878 0.51748923 -5.5322683e-20)
(-0.31557837 0.50163228 7.6218772e-20)
(-0.32443835 0.48211603 -1.6910233e-20)
(-0.33017707 0.45849381 4.1111986e-20)
(-0.33185514 0.43049224 -7.6930178e-21)
(-0.32852021 0.39801503 7.6394179e-20)
(-0.31917862 0.36100728 3.9387895e-20)
(-0.30258014 0.3190973 5.6820063e-20)
(-0.27676926 0.27099376 -2.4827072e-19)
(-0.23853216 0.21398744 -8.9685706e-20)
(-0.18315921 0.14413694 1.2428185e-19)
(-0.10525607 0.057842574 -1.0731309e-19)
(-0.00093347968 -0.044696573 -9.0179045e-20)
(0.12853168 -0.15037357 9.4042546e-20)
(0.26240132 -0.23182578 4.2685834e-20)
(0.38352367 -0.28071601 8.2258666e-20)
(0.50788873 -0.32640055 3.1244321e-20)
(0.66242948 -0.39528247 -9.4617967e-20)
(0.82166949 -0.46832594 -3.9859017e-20)
(0.93056198 -0.49171246 -5.3449303e-21)
(0.96797623 -0.45685903 -2.7139133e-21)
(0.95315357 -0.38358566 1.6480045e-21)
(0.92224468 -0.29901356 1.667393e-21)
(0.90045301 -0.22250479 -3.9047029e-21)
(0.8946828 -0.16036652 -1.9998097e-21)
(0.90097355 -0.11227889 -9.2936112e-21)
(0.91478652 -0.075679297 -7.0631895e-21)
(0.93126666 -0.049544177 -1.1601087e-21)
(0.94877903 -0.033442231 -2.5317894e-22)
(-0.0014269471 0.0039873108 -3.797723e-21)
(-0.0044015047 0.012351514 -3.3614924e-21)
(-0.0076626915 0.021597878 6.9853596e-21)
(-0.011232783 0.031813702 -1.1963148e-20)
(-0.015135097 0.043091866 -2.9882166e-21)
(-0.019392281 0.055530787 1.2805306e-20)
(-0.024026109 0.069233442 -6.5797594e-23)
(-0.029056866 0.084305957 7.6325232e-21)
(-0.034502419 0.10085557 -2.2772948e-21)
(-0.040377118 0.1189877 4.5867772e-23)
(-0.046690485 0.13880176 -1.2307087e-20)
(-0.053445691 0.16038552 -2.8111667e-21)
(-0.060637809 0.1838074 2.8578365e-21)
(-0.068251889 0.20910639 -1.0696272e-20)