/*--------------------------------*- C++ -*----------------------------------*\
  =========                 |
  \\      /  F ield         | OpenFOAM: The Open Source CFD Toolbox
   \\    /   O peration     | Website:  https://openfoam.org
    \\  /    A nd           | Version:  13
     \\/     M anipulation  |
\*---------------------------------------------------------------------------*/
FoamFile
{
    format      ascii;
    class       volScalarField;
    location    "46.496163";
    object      k;
}
// * * * * * * * * * * * * * * * * * * * * * * * * * * * * * * * * * * * * * //

dimensions      [0 2 -2 0 0 0 0];

internalField   nonuniform List<scalar> 
17140
(
5.7192761e-12
1.7971951e-10
1.4696242e-09
6.3203076e-09
1.9449623e-08
4.9081401e-08
1.0884292e-07
2.206031e-07
4.1866685e-07
7.559275e-07
1.3128388e-06
2.2104324e-06
3.6291195e-06
5.8357279e-06
9.2222152e-06
1.4360852e-05
2.2082497e-05
3.3587011e-05
5.0597917e-05
7.5577221e-05
0.00011202035
0.00016485485
0.0002409673
0.00034987645
0.0005045471
0.00072228056
0.0010254918
0.0014419421
0.0020035958
0.0027427859
0.0036839551
0.0048304404
0.0061511629
0.0075775818
0.009021333
0.010405986
0.011688986
0.012863309
0.013945514
0.01496336
0.015948827
0.016935522
0.0179588
0.019055836
0.020263125
0.021617241
0.023157384
0.02492114
0.026941278
0.029241349
0.031828346
0.034667474
0.037680604
0.040774726
0.04383204
0.046743992
0.049607739
0.0533553
0.059050016
0.063356186
0.049717983
0.013163178
0.0075624047
0.0074659153
0.012582456
5.650104e-12
1.775459e-10
1.4518544e-09
6.2439343e-09
1.9214861e-08
4.848993e-08
1.0753404e-07
2.1795709e-07
4.1366044e-07
7.4691973e-07
1.2972566e-06
2.1843126e-06
3.5864461e-06
5.7674801e-06
9.1150081e-06
1.419501e-05
2.1829345e-05
3.3205087e-05
5.0027752e-05
7.4734212e-05
0.00011078521
0.00016306111
0.00023838547
0.0003461951
0.00049935231
0.00071503787
0.0010155432
0.0014285118
0.0019857121
0.0027192293
0.0036534133
0.0047924415
0.0061068983
0.0075295746
0.0089723782
0.010358341
0.011644428
0.01282295
0.013909734
0.014932056
0.015921649
0.016912093
0.017939018
0.019040233
0.020253296
0.021616233
0.023170119
0.02495633
0.027014164
0.02937923
0.03206996
0.035066761
0.038315903
0.041745663
0.045256959
0.048718465
0.052043163
0.05532357
0.05829907
0.056321585
0.034145066
0.014263138
0.0087228066
0.0063158115
0.010028002
5.5382584e-12
1.7403132e-10
1.4231151e-09
6.1203563e-09
1.883472e-08
4.7531271e-08
1.054101e-07
2.1365742e-07
4.0551221e-07
7.3223253e-07
1.2717984e-06
2.1415424e-06
3.5163976e-06
5.655148e-06
8.9380296e-06
1.3920354e-05
2.1408613e-05
3.2567898e-05
4.9072499e-05
7.3315291e-05
0.00010869562
0.00016000916
0.0002339645
0.00033984566
0.00049031826
0.00070230247
0.0009977146
0.001403747
0.0019519155
0.0026743334
0.0035961526
0.0047228732
0.0060263074
0.0074407738
0.0088792519
0.010264491
0.01155239
0.012734037
0.013824237
0.014849577
0.015841406
0.016833155
0.017860594
0.018962058
0.02017599
0.021541689
0.023102553
0.024903314
0.026988428
0.02939928
0.032167229
0.035302249
0.038761417
0.042479114
0.046352257
0.050191868
0.053761921
0.056159505
0.056346304
0.049301547
0.025766613
0.018566968
0.011304531
0.0055461641
0.008250325
5.3821563e-12
1.6912605e-10
1.3830036e-09
5.9478684e-09
1.8304056e-08
4.619272e-08
1.0244356e-07
2.0764959e-07
3.9412127e-07
7.1168842e-07
1.2361642e-06
2.0816306e-06
3.4181901e-06
5.4975064e-06
8.6893958e-06
1.3534022e-05
2.0815994e-05
3.1668987e-05
4.772249e-05
7.1305941e-05
0.00010572961
0.00015566539
0.00022765205
0.00033074445
0.00047727945
0.0006837594
0.00097166402
0.001367752
0.0019031531
0.0026101673
0.0035144043
0.0046225624
0.0059088139
0.0073099687
0.0087404256
0.010122576
0.011410748
0.012594274
0.013686571
0.0147133
0.015705267
0.016695632
0.017720147
0.018817508
0.020026831
0.021388379
0.022947311
0.024751193
0.026849042
0.029289861
0.032118133
0.0353573
0.038988711
0.042960721
0.047132492
0.051248892
0.054826706
0.056843685
0.055093071
0.044080853
0.026308171
0.02273081
0.012916907
0.0050725257
0.0067412026
5.1837786e-12
1.6289234e-10
1.332029e-09
5.728661e-09
1.7629606e-08
4.4491259e-08
9.8672032e-08
2.0000967e-07
3.7963168e-07
6.8554695e-07
1.1908038e-06
2.0053328e-06
3.2930615e-06
5.2965419e-06
8.3722411e-06
1.3040893e-05
2.0058999e-05
3.0519823e-05
4.5995114e-05
6.873239e-05
0.00010192662
0.00015008899
0.00021953486
0.00031900386
0.00046044733
0.00065988499
0.00093820771
0.0013215592
0.0018406832
0.0025275577
0.0034083431
0.0044915046
0.0057542005
0.0071365314
0.0085548376
0.009931146
0.011217785
0.01240176
0.013494658
0.014520957
0.015510764
0.016496834
0.017514715
0.01860324
0.019801941
0.02115167
0.022698763
0.02449298
0.026587186
0.029037292
0.031899612
0.035215133
0.038987234
0.04317139
0.047603399
0.051963995
0.055630129
0.057695036
0.055705139
0.043762758
0.031602132
0.027199434
0.013539909
0.004511976
0.0053369833
4.9469708e-12
1.5545102e-10
1.2711794e-09
5.4669819e-09
1.6824435e-08
4.2459836e-08
9.4168517e-08
1.9088548e-07
3.6232366e-07
6.5431339e-07
1.1365935e-06
1.9141228e-06
3.1434287e-06
5.0561379e-06
7.9926995e-06
1.2450515e-05
1.9152303e-05
2.9142705e-05
4.3923927e-05
6.564468e-05
9.7360645e-05
0.00014338742
0.00020976874
0.00030489074
0.00044022983
0.00063120356
0.00089798168
0.0012659846
0.0017651653
0.0024271927
0.0032788112
0.0043305152
0.0055630429
0.0069205946
0.0083221119
0.0096893895
0.010972331
0.012155033
0.013246811
0.014270685
0.015255865
0.01623453
0.017241831
0.018316463
0.019498066
0.020827662
0.02235215
0.024122723
0.026195199
0.028631326
0.031497933
0.034852996
0.03872476
0.043081767
0.047760218
0.052434506
0.056519935
0.059121041
0.05762135
0.046368242
0.040500542
0.029787026
0.013094419
0.0038301275
0.0036629155
4.676699e-12
1.4695815e-10
1.201731e-09
5.168319e-09
1.590543e-08
4.0141055e-08
8.9027469e-08
1.804684e-07
3.4256025e-07
6.1864295e-07
1.0746707e-06
1.8099141e-06
2.9724316e-06
4.7813395e-06
7.5587368e-06
1.1775279e-05
1.8114936e-05
2.7566542e-05
4.1552413e-05
6.2107653e-05
9.2127419e-05
0.00013570236
0.00019857096
0.00028870238
0.00041702119
0.0005982395
0.00085169488
0.0012018131
0.0016776578
0.0023104278
0.0031273943
0.0041412458
0.0053368068
0.0066631886
0.0080427041
0.0093971755
0.010673765
0.011853125
0.012941832
0.013961107
0.014939032
0.015907017
0.016899591
0.017955009
0.019112686
0.020413336
0.021903768
0.023635755
0.025666981
0.02806365
0.030901271
0.034253202
0.038173494
0.042650605
0.047559142
0.052636063
0.05746856
0.06120514
0.06144188
0.05365428
0.047754751
0.030324391
0.010919639
0.0029959427
0.0022751816
4.3787535e-12
1.3759568e-10
1.1251713e-09
4.8390703e-09
1.4892278e-08
3.7584593e-08
8.3359026e-08
1.6898158e-07
3.2076481e-07
5.7929967e-07
1.0063614e-06
1.694938e-06
2.7837297e-06
4.4780238e-06
7.079626e-06
1.10296e-05
1.6969022e-05
2.5824912e-05
3.8931032e-05
5.8196457e-05
8.6337922e-05
0.00012719877
0.00018617436
0.00027076732
0.00039128186
0.00056163361
0.00080016589
0.0011301836
0.0015796755
0.0021791822
0.0029563733
0.0039261831
0.0050779001
0.0063663027
0.0077179401
0.0090551153
0.010322118
0.011495667
0.012579078
0.013591385
0.014559268
0.015513149
0.016486694
0.01751737
0.018644009
0.019906542
0.021350958
0.023028668
0.024997984
0.02732787
0.030099952
0.033400186
0.037304289
0.041839749
0.046896314
0.052393148
0.058018834
0.06282875
0.064076507
0.059423046
0.05112204
0.026191767
0.0078083649
0.0021342763
0.0012933383
4.0595765e-12
1.2756602e-10
1.0431553e-09
4.4863528e-09
1.3806882e-08
3.4845713e-08
7.728571e-08
1.5667329e-07
2.9740837e-07
5.3713373e-07
9.3314161e-07
1.5716785e-06
2.5813998e-06
4.1527436e-06
6.5657171e-06
1.0229583e-05
1.5739297e-05
2.3955369e-05
3.6116217e-05
5.3994987e-05
8.0117056e-05
0.00011805716
0.00017283856
0.00025145613
0.00036353516
0.00052211044
0.0007444205
0.0010525066
0.0014730966
0.0020358588
0.0027686616
0.0036886046
0.0047896594
0.0060329243
0.0073501072
0.0086646988
0.0099181984
0.011082972
0.012158527
0.013161263
0.01411614
0.015052349
0.016002441
0.017002696
0.01809097
0.019305939
0.020692013
0.022299207
0.024185061
0.02641927
0.029086212
0.032280475
0.036087273
0.040575409
0.04561216
0.051315699
0.057413533
0.062592533
0.063611005
0.059703589
0.047694512
0.017826723
0.0046925801
0.001331545
0.0006610478
3.7261102e-12
1.1708735e-10
9.5746768e-10
4.1178416e-09
1.2672859e-08
3.1984018e-08
7.0939715e-08
1.438115e-07
2.7299958e-07
4.9306374e-07
8.5660722e-07
1.4428234e-06
2.369856e-06
3.8125997e-06
6.0282358e-06
9.3927149e-06
1.4452657e-05
2.1998828e-05
3.3169596e-05
4.959564e-05
7.3600676e-05
0.00010847631
0.00015885258
0.00023118577
0.00033437752
0.00048051156
0.00068563657
0.00097039996
0.0013600902
0.0018832701
0.002567741
0.0034325512
0.0044763754
0.0056671197
0.0069426019
0.0082284472
0.0094637201
0.010616139
0.011680849
0.012671114
0.013609803
0.014524585
0.015446661
0.016410755
0.01745314
0.018610873
0.01992598
0.021445971
0.023226019
0.025334063
0.027853627
0.030882994
0.03450071
0.038732931
0.043503462
0.048999384
0.055002698
0.059946191
0.059845025
0.054056435
0.03370087
0.0093568308
0.0024548279
0.00073399139
0.0003423031
3.3854198e-12
1.0638168e-10
8.699236e-10
3.741343e-09
1.1514228e-08
2.9060115e-08
6.445542e-08
1.3066849e-07
2.48055e-07
4.4802194e-07
7.7837635e-07
1.3110957e-06
2.1535663e-06
3.4647727e-06
5.4785268e-06
8.5366671e-06
1.3136312e-05
1.9996803e-05
3.0154038e-05
4.5092537e-05
6.6928802e-05
9.8663039e-05
0.00014451945
0.00021039608
0.00030443952
0.00043773883
0.00062508349
0.00088561998
0.0012430344
0.0017245456
0.0023575663
0.0031627428
0.0041432536
0.0052740758
0.0065000419
0.007750067
0.0089614478
0.010097163
0.011147481
0.012121985
0.013041022
0.013930407
0.014819671
0.015741682
0.016730547
0.017821112
0.0190523
0.02046793
0.022118891
0.024068483
0.026398089
0.029200687
0.032527687
0.036269018
0.040558964
0.045477092
0.050285909
0.053086118
0.051163049
0.041017656
0.014022003
0.0038714204
0.001095462
0.00037769952
0.00020138147
3.0455935e-12
9.5703148e-11
7.8260135e-10
3.3657958e-09
1.0358507e-08
2.6143464e-08
5.7986942e-08
1.1755684e-07
2.2316835e-07
4.0308135e-07
7.0031444e-07
1.1796391e-06
1.9376966e-06
3.1175736e-06
4.9297203e-06
7.6818534e-06
1.1821534e-05
1.7996518e-05
2.7139863e-05
4.0589188e-05
6.0252477e-05
8.8836159e-05
0.00013015432
0.00018953927
0.00027436972
0.00039471692
0.00056406693
0.00079998632
0.0011244204
0.0015630123
0.0021424285
0.0028844434
0.0037963144
0.0048600798
0.0060283398
0.0072345871
0.008415354
0.009529071
0.010560719
0.011515632
0.012411151
0.013270846
0.014122227
0.014995892
0.015923354
0.016936451
0.018070282
0.019363815
0.0208611
0.022620005
0.024723448
0.027236602
0.030141395
0.033245857
0.03667628
0.040001978
0.042301122
0.0408619
0.034150561
0.015371208
0.0046561335
0.0013817499
0.00046036311
0.00021251384
0.00014702759
2.7130647e-12
8.5253939e-11
6.9715431e-10
2.9983112e-09
9.2275786e-09
2.3289306e-08
5.165681e-08
1.0472499e-07
1.9881128e-07
3.5909395e-07
6.2390198e-07
1.0509482e-06
1.726346e-06
2.777602e-06
4.3922637e-06
6.8445848e-06
1.0533503e-05
1.6036493e-05
2.418556e-05
3.6173822e-05
5.3703881e-05
7.9192294e-05
0.00011604756
0.00016904079
0.00024478574
0.0003523328
0.00050384752
0.00071526951
0.0010066982
0.001401993
0.0019267076
0.0026031934
0.0034421609
0.0044323823
0.005534697
0.0066884655
0.0078307784
0.0089160762
0.0099238314
0.010854583
0.011722128
0.01254736
0.013355347
0.014173904
0.015031544
0.015956194
0.016978365
0.018131464
0.019450098
0.020994649
0.022844464
0.025003492
0.027323004
0.029489032
0.031313676
0.0310124
0.028037846
0.019863817
0.010485103
0.0042790478
0.0014013398
0.00048827271
0.00021937638
0.00014802703
0.00012715055
2.3939292e-12
7.5225582e-11
6.1514855e-10
2.6456245e-09
8.1421741e-09
2.054997e-08
4.5581127e-08
9.240838e-08
1.7543099e-07
3.1686788e-07
5.505439e-07
9.2739118e-07
1.5234082e-06
2.4511283e-06
3.8760837e-06
6.0403503e-06
9.2960895e-06
1.4153131e-05
2.1346151e-05
3.192896e-05
4.7405919e-05
6.9913338e-05
0.00010246672
0.00014929167
0.00021625516
0.00031140451
0.00044559518
0.00063312753
0.00089219028
0.0012446898
0.0017147194
0.0023246152
0.0030877532
0.0039989888
0.0050274893
0.0061196113
0.0072145536
0.0082637359
0.0092411951
0.010142224
0.010976502
0.011761772
0.012520171
0.013276119
0.014054479
0.014878444
0.015773028
0.016766025
0.017885036
0.019207218
0.020769408
0.022479832
0.023931029
0.024134374
0.021982561
0.016555674
0.0092980563
0.0055218246
0.0028254234
0.0011963847
0.00046817728
0.00021999461
0.00014405893
0.00012648525
0.00011857572
2.0934192e-12
6.5782504e-11
5.3792877e-10
2.3135194e-09
7.1200971e-09
1.7970404e-08
3.9859628e-08
8.0809322e-08
1.5341176e-07
2.7709779e-07
4.8144816e-07
8.1100493e-07
1.3322325e-06
2.1435487e-06
3.3897259e-06
5.2824882e-06
8.1298601e-06
1.2377811e-05
1.8669073e-05
2.7925752e-05
4.1464566e-05
6.1156148e-05
8.9642631e-05
0.00013062984
0.00018927009
0.00027264493
0.00039033675
0.00055502978
0.00078298199
0.0010940288
0.0015105004
0.0020541304
0.0027400698
0.0035683177
0.0045160101
0.0055372839
0.006575055
0.007579087
0.0085184436
0.00938291
0.010177497
0.010916235
0.011617759
0.012302449
0.012990423
0.013699259
0.014447379
0.015256264
0.016167858
0.017248134
0.018422106
0.019311311
0.018715742
0.015518925
0.0084628771
0.0048704313
0.0026228208
0.0014901287
0.00079017825
0.00038785703
0.00020742483
0.0001422601
0.00012154358
0.00011783244
0.00011209064
1.8156309e-12
5.7053432e-11
4.6654783e-10
2.006525e-09
6.1752906e-09
1.5585812e-08
3.4570443e-08
7.0086323e-08
1.3305478e-07
2.4032824e-07
4.1756202e-07
7.0338722e-07
1.1554477e-06
1.8591001e-06
2.9399031e-06
4.5814833e-06
7.050992e-06
1.0735234e-05
1.6191712e-05
2.4220346e-05
3.5963589e-05
5.3044977e-05
7.7758681e-05
0.00011332474
0.00016422486
0.00023662908
0.00033890781
0.00048218585
0.00068081625
0.00095250482
0.0013175827
0.0017966445
0.0024056955
0.0031487243
0.0040100234
0.0049517905
0.0059220942
0.0068706879
0.0077625677
0.0085820554
0.0093290562
0.01001323
0.010648924
0.011251914
0.011835925
0.012411792
0.012990238
0.0135871
0.014281641
0.015001992
0.015339205
0.014185694
0.010443247
0.0051806179
0.0025502939
0.0013881044
0.00076597471
0.000452815
0.00027553686
0.00017879482
0.00013436296
0.00011890462
0.00011339549
0.00011157054
0.00010608681
1.563378e-12
4.912678e-11
4.0172862e-10
1.72775e-09
5.3173241e-09
1.3420361e-08
2.9767222e-08
6.0348263e-08
1.1456702e-07
2.0693361e-07
3.5953711e-07
6.0563787e-07
9.9486457e-07
1.600703e-06
2.5312474e-06
3.9445776e-06
6.0706723e-06
9.242509e-06
1.3940006e-05
2.0851779e-05
3.0961384e-05
4.5666741e-05
6.6943707e-05
9.7566733e-05
0.00014140012
0.00020377009
0.00029191601
0.00041548942
0.00058700715
0.00082204777
0.0011387887
0.0015562369
0.0020903763
0.0027479196
0.0035191171
0.0043739136
0.0052665426
0.0061484573
0.0069818972
0.0077461495
0.0084357943
0.0090554322
0.0096142295
0.010122201
0.010585198
0.011005643
0.011383898
0.011748781
0.012119075
0.0120014
0.01050158
0.0065543088
0.003279594
0.001569323
0.00078353932
0.00044578234
0.00027623797
0.00019219384
0.00014728798
0.00012377057
0.00011297121
0.00011077279
0.0001073438
0.00010555999
0.00010077757
1.3381123e-12
4.2048148e-11
3.4384385e-10
1.4787979e-09
4.5511356e-09
1.1486526e-08
2.5477674e-08
5.1651421e-08
9.8055559e-08
1.7710781e-07
3.0771131e-07
5.1832801e-07
8.5142477e-07
1.3698795e-06
2.1661772e-06
3.3755613e-06
5.194773e-06
7.9086442e-06
1.1927667e-05
1.7840795e-05
2.6489173e-05
3.9068267e-05
5.7267794e-05
8.3460669e-05
0.00012095284
0.00017430358
0.00024971654
0.00035547881
0.000502376
0.0007039184
0.00097605948
0.001335882
0.0017985813
0.0023723344
0.00305189
0.0038140475
0.0046195984
0.0054231843
0.0061858544
0.006882683
0.0075029459
0.0080455101
0.0085135874
0.0089094445
0.0092297347
0.0094670596
0.0096123612
0.0096638927
0.0093006619
0.0077050907
0.0041565413
0.0020640018
0.0010068628
0.00051076784
0.00029174147
0.00019648511
0.00015018747
0.00012695992
0.0001146755
0.00010847348
0.00010586598
0.00010483563
0.00010242796
0.00010119595
9.7157533e-05
1.1399155e-12
3.5820106e-11
2.9291454e-10
1.2597596e-09
3.8770075e-09
9.7850301e-09
2.1703434e-08
4.3999203e-08
8.3527057e-08
1.5086333e-07
2.6210718e-07
4.4149726e-07
7.2519652e-07
1.1667449e-06
1.8448851e-06
2.8747527e-06
4.4238171e-06
6.7344959e-06
1.0156096e-05
1.5189687e-05
2.2550734e-05
3.3255823e-05
4.8741443e-05
7.1024331e-05
0.00010291353
0.0001482825
0.00021240239
0.00030231905
0.00042721764
0.00059864489
0.00083033718
0.0011372347
0.0015331253
0.002026498
0.0026150485
0.0032810843
0.003991653
0.0047055739
0.005384256
0.0059997249
0.006536185
0.0069862836
0.0073459337
0.0076084957
0.0077583956
0.0077773641
0.0076359966
0.007081322
0.0054602664
0.0028541961
0.0013443234
0.00066241602
0.00035394033
0.00021784161
0.00015853621
0.00013155776
0.00011775291
0.00011015786
0.00010581645
0.00010360191
0.00010125059
0.00010034128
9.8138461e-05
9.6927314e-05
9.3387382e-05
9.6753315e-13
3.040325e-11
2.4861872e-10
1.0692506e-09
3.2906803e-09
8.3051327e-09
1.8420708e-08
3.7343432e-08
7.0890218e-08
1.2803557e-07
2.2243941e-07
3.7466627e-07
6.1539467e-07
9.9003996e-07
1.5653875e-06
2.4390745e-06
3.7530928e-06
5.7129355e-06
8.6146239e-06
1.288265e-05
1.9122889e-05
2.8195778e-05
4.1316415e-05
6.0189459e-05
8.7187205e-05
0.00012557766
0.00017980334
0.00025579664
0.00036128597
0.00050598892
0.00070149172
0.00096048202
0.0012948859
0.0017125382
0.0022125905
0.0027812569
0.0033909452
0.0040049926
0.0045864051
0.0051053895
0.0055415283
0.0058810728
0.0061100643
0.0062126836
0.006161944
0.0059294835
0.0053018777
0.0037396664
0.0019287018
0.0009306177
0.00045947865
0.00025955584
0.0001748341
0.00013919344
0.00012342208
0.00011420977
0.00010901019
0.00010541052
0.00010301339
0.0001005804
9.8536248e-05
9.6629619e-05
9.4436549e-05
9.3496568e-05
9.020861e-05
8.1846012e-13
2.5718861e-11
2.1031266e-10
9.0450242e-10
2.7836363e-09
7.0253424e-09
1.5581847e-08
3.1587565e-08
5.9961878e-08
1.0829396e-07
1.8813413e-07
3.1686927e-07
5.204345e-07
8.3721801e-07
1.3236624e-06
2.0622683e-06
3.1729854e-06
4.8293548e-06
7.2812738e-06
1.0886917e-05
1.6157187e-05
2.3817062e-05
3.4889301e-05
5.080687e-05
7.3560704e-05
0.00010588787
0.00015149985
0.00021533795
0.00030381698
0.00042497141
0.00058834216
0.00080433965
0.0010827278
0.0014299214
0.0018452571
0.0023172485
0.0028224027
0.0033283019
0.0038003064
0.004207845
0.00452661
0.0047350333
0.0048113546
0.0047294349
0.0044526681
0.0038472736
0.0024930067
0.0012790892
0.00064020363
0.00033621207
0.00020282726
0.00014878952
0.00012731374
0.0001189841
0.00011404172
0.00011049125
0.00010685483
0.00010371707
0.00010039475
9.7721722e-05
9.5346212e-05
9.3942236e-05
9.1587073e-05
9.0573578e-05
8.761352e-05
6.8912734e-13
2.1654774e-11
1.77079e-10
7.6156985e-10
2.3437342e-09
5.9150211e-09
1.311891e-08
2.6593907e-08
5.0480735e-08
9.116672e-08
1.5837203e-07
2.6672684e-07
4.380512e-07
7.0463703e-07
1.113954e-06
1.7353698e-06
2.6697082e-06
4.0627801e-06
6.1244411e-06
9.1552686e-06
1.3583623e-05
2.0016639e-05
2.9309515e-05
4.2658047e-05
6.1719335e-05
8.8763855e-05
0.0001268571
0.00018005773
0.00025359733
0.00035396818
0.00048878587
0.00066621565
0.00089368873
0.0011756758
0.0015106621
0.0018881756
0.0022875508
0.002679962
0.0030334118
0.0033174236
0.0035043172
0.0035663656
0.0034781664
0.0031976096
0.0026226361
0.001610969
0.00084175265
0.00043954591
0.00024833616
0.00016647877
0.00013225441
0.00011950891
0.00011544565
0.00011389238
0.0001122045
0.00010901804
0.00010462714
0.00010054031
9.7600716e-05
9.5564387e-05
9.3563203e-05
9.1617932e-05
8.9513597e-05
8.8423496e-05
8.5416631e-05
5.7526075e-13
1.8076686e-11
1.4781952e-10
6.3572981e-10
1.9564392e-09
4.9374882e-09
1.0950549e-08
2.2197564e-08
4.2133801e-08
7.6088639e-08
1.3217126e-07
2.2258533e-07
3.6552878e-07
5.8792757e-07
9.2935309e-07
1.4476126e-06
2.2266918e-06
3.3879839e-06
5.1060758e-06
7.6307905e-06
1.1317705e-05
1.6669946e-05
2.4394624e-05
3.547755e-05
5.1279496e-05
7.3655335e-05
0.00010509243
0.00014885439
0.00020909731
0.00029089367
0.00040005235
0.00054256724
0.0007234906
0.00094508636
0.0012044221
0.0014911517
0.0017864169
0.0020645259
0.0022963736
0.0024524202
0.0025029756
0.0024241342
0.0021794584
0.0016895778
0.0010199546
0.00054810455
0.00030118685
0.00018768141
0.00013816382
0.00012101378
0.00011380226
0.00011354073
0.00011394516
0.00011334585
0.00011119544
0.00010594118
0.00010130355
9.843101e-05
9.6127542e-05
9.3613008e-05
9.1290572e-05
8.9624012e-05
8.7363929e-05
8.6154427e-05
8.3461332e-05
4.7254441e-13
1.4848982e-11
1.2142532e-10
5.2221338e-10
1.6070758e-09
4.055709e-09
8.9946327e-09
1.8232067e-08
3.4605124e-08
6.248918e-08
1.085408e-07
1.827758e-07
3.001264e-07
4.8268069e-07
7.6288916e-07
1.188136e-06
1.8272244e-06
2.7795276e-06
4.1878203e-06
6.2561301e-06
9.2743322e-06
1.3651605e-05
1.996118e-05
2.8998802e-05
4.1856627e-05
6.0012024e-05
8.5425855e-05
0.00012063523
0.00016880907
0.00023370894
0.00031946189
0.00043001631
0.00056813931
0.00073390275
0.00092289636
0.0011245324
0.0013216376
0.0014916381
0.0016088089
0.0016459095
0.0015820274
0.0013882784
0.001020481
0.00061297928
0.0003477896
0.00020826542
0.00014190752
0.00011838168
0.00010931694
0.00010965156
0.00011189151
0.00011501466
0.00011463233
0.00011276861
0.00010720708
0.00010236178
9.944574e-05
9.674522e-05
9.377794e-05
9.1690609e-05
8.9702427e-05
8.7789571e-05
8.6024025e-05
8.4920645e-05
8.2265505e-05
3.7746848e-13
1.1861367e-11
9.6994471e-11
4.171414e-10
1.283706e-09
3.2395566e-09
7.1843481e-09
1.4561982e-08
2.763764e-08
4.9904119e-08
8.667423e-08
1.4594006e-07
2.3961331e-07
3.8530761e-07
6.0888774e-07
9.4809828e-07
1.4577011e-06
2.2167048e-06
3.3384619e-06
4.9846455e-06
7.3843654e-06
1.0859917e-05
1.5860736e-05
2.3006881e-05
3.3142345e-05
4.7396066e-05
6.7243675e-05
9.4554224e-05
0.00013159195
0.00018092258
0.00024514944
0.00032639132
0.00042542567
0.00054052925
0.00066615971
0.00079206667
0.0009031952
0.00098068942
0.0010033759
0.00095670505
0.00081369509
0.00057523258
0.00035048755
0.00021529597
0.00014167232
0.00011081593
9.9057511e-05
0.00010096543
0.00010444759
0.00011258346
0.00011627913
0.00011605645
0.00011429313
0.00010876105
0.00010355196
0.00010061153
9.756172e-05
9.4585395e-05
9.239607e-05
9.004507e-05
8.8105638e-05
8.6490427e-05
8.4433517e-05
8.3121112e-05
8.0972169e-05
2.8845949e-13
9.0643949e-12
7.4122562e-11
3.1877464e-10
9.8097735e-10
2.475523e-09
5.4897361e-09
1.1126582e-08
2.1116087e-08
3.8125305e-08
6.6209992e-08
1.1146927e-07
1.8298979e-07
2.9420076e-07
4.6480886e-07
7.2354626e-07
1.1120497e-06
1.6902963e-06
2.5441547e-06
3.795755e-06
5.6175256e-06
8.2508187e-06
1.2029957e-05
1.7412063e-05
2.5011852e-05
3.563808e-05
5.032383e-05
7.0335287e-05
9.7132536e-05
0.00013224187
0.00017698695
0.00023202447
0.00029668142
0.00036811571
0.00044059603
0.00050512234
0.00054968022
0.00056012871
0.00052706333
0.00043541992
0.00030464495
0.00019726875
0.00013012552
9.8353364e-05
8.4892706e-05
8.552068e-05
9.0861148e-05
0.00010206051
0.00011512765
0.0001177599
0.00011756954
0.00011586157
0.00011033074
0.00010479332
0.0001017449
9.8606339e-05
9.5629668e-05
9.3187708e-05
9.0542906e-05
8.8747456e-05
8.6678354e-05
8.4987299e-05
8.3364289e-05
8.2049901e-05
7.9917355e-05
2.0675457e-13
6.4969413e-12
5.3127522e-11
2.2848053e-10
7.0309809e-10
1.7742288e-09
3.9343539e-09
7.9736273e-09
1.5131145e-08
2.7316586e-08
4.7432933e-08
7.9843734e-08
1.3104607e-07
2.1063459e-07
3.3267468e-07
5.1764624e-07
7.951752e-07
1.2078382e-06
1.8164038e-06
2.7069497e-06
4.0003437e-06
5.8645438e-06
8.5299558e-06
1.2307516e-05
1.760796e-05
2.4958486e-05
3.5009253e-05
4.8516475e-05
6.6281393e-05
8.901634e-05
0.00011710766
0.00015026698
0.0001870646
0.00022447567
0.00025759089
0.00027965641
0.00028252361
0.00026203464
0.00021120427
0.00015136402
0.0001065047
8.0252352e-05
6.8166589e-05
6.7337913e-05
7.2126369e-05
8.3577198e-05
0.00010493552
0.0001163889
0.0001194409
0.00011916503
0.00011751163
0.00011208909
0.00010605037
0.00010293363
9.9656909e-05
9.6768807e-05
9.4020362e-05
9.141393e-05
8.9350381e-05
8.7172671e-05
8.5528732e-05
8.3844509e-05
8.2144514e-05
8.1019668e-05
7.9163539e-05
1.359619e-13
4.2723889e-12
3.4936541e-11
1.5024661e-10
4.623394e-10
1.1666404e-09
2.5868733e-09
5.2423099e-09
9.9470097e-09
1.7955099e-08
3.1172056e-08
5.2460166e-08
8.6077538e-08
1.3830528e-07
2.1833763e-07
3.3953579e-07
5.2117832e-07
7.9087766e-07
1.1878686e-06
1.7673988e-06
2.606439e-06
3.8108343e-06
5.5237571e-06
7.9347689e-06
1.1287759e-05
1.5884264e-05
2.2076006e-05
3.0236753e-05
4.0699901e-05
5.36472e-05
6.8937571e-05
8.5882323e-05
0.00010301174
0.00011791148
0.00012722266
0.00012694721
0.00011597263
9.459956e-05
7.3093179e-05
5.7831319e-05
4.9536971e-05
4.9011957e-05
5.2717517e-05
6.2359818e-05
8.2792548e-05
0.00010736849
0.00011799192
0.00012094888
0.00012072264
0.00011913922
0.00011380446
0.00010749665
0.00010408018
0.00010077846
9.7908657e-05
9.5114469e-05
9.2465633e-05
9.0124498e-05
8.7844741e-05
8.6159367e-05
8.4248837e-05
8.2907627e-05
8.1285952e-05
7.9952497e-05
7.8427678e-05
8.0170725e-14
2.5192366e-12
2.060041e-11
8.8591908e-11
2.7260677e-10
6.878445e-10
1.5250896e-09
3.0902759e-09
5.8628148e-09
1.0580875e-08
1.83652e-08
3.089771e-08
5.0677437e-08
8.1384706e-08
1.2839528e-07
1.9949947e-07
3.0589653e-07
4.6354964e-07
6.9499708e-07
1.0317097e-06
1.5170452e-06
2.2097403e-06
3.1876522e-06
4.5510226e-06
6.4238009e-06
8.9504208e-06
1.2283882e-05
1.6559414e-05
2.1847136e-05
2.8079239e-05
3.4954619e-05
4.1838892e-05
4.7694782e-05
5.1084331e-05
5.0591511e-05
4.6530502e-05
4.0663907e-05
3.5475699e-05
3.2028904e-05
3.2550537e-05
3.5643466e-05
4.3185066e-05
5.7979802e-05
8.394082e-05
0.00010706715
0.00011846963
0.00012245374
0.00012230684
0.00012082371
0.00011573423
0.00010896585
0.0001054264
0.00010184291
9.9085547e-05
9.6203835e-05
9.3568581e-05
9.0949521e-05
8.8729597e-05
8.6779823e-05
8.4953402e-05
8.3398346e-05
8.1746807e-05
8.0346543e-05
7.9226512e-05
7.7731524e-05
4.1541525e-14
1.305374e-12
1.0674283e-11
4.5903737e-11
1.4124492e-10
3.5636692e-10
7.9005908e-10
1.6006695e-09
3.0361969e-09
5.4782081e-09
9.5054515e-09
1.5985329e-08
2.6204424e-08
4.2053208e-08
6.6284867e-08
1.028737e-07
1.5750402e-07
2.3822401e-07
3.5629695e-07
5.2726743e-07
7.7222023e-07
1.1191248e-06
1.603999e-06
2.2713551e-06
3.1729786e-06
4.363551e-06
5.8910008e-06
7.7793299e-06
1.000247e-05
1.2450574e-05
1.4896072e-05
1.6974149e-05
1.8218795e-05
1.8497741e-05
1.8247411e-05
1.7875158e-05
1.8042148e-05
1.95245e-05
2.2117587e-05
2.8242708e-05
3.9015105e-05
5.7656686e-05
8.3817963e-05
0.0001057031
0.00011800723
0.00012357218
0.00012392827
0.00012256864
0.00011777016
0.00011060084
0.00010679295
0.00010308697
0.00010012834
9.7376845e-05
9.4680767e-05
9.2053347e-05
8.9738344e-05
8.7594775e-05
8.5656538e-05
8.3978731e-05
8.2334627e-05
8.1121278e-05
7.9590769e-05
7.8524706e-05
7.7318793e-05
1.8779707e-14
5.901203e-13
4.8254767e-12
2.0750969e-11
6.3847152e-11
1.61076e-10
3.5705978e-10
7.2328588e-10
1.3716359e-09
2.474086e-09
4.2911553e-09
7.2126471e-09
1.1815475e-08
1.8944901e-08
2.9827297e-08
4.6224262e-08
7.0639187e-08
1.0658677e-07
1.5893163e-07
2.3429e-07
3.4146284e-07
4.9182037e-07
6.9947691e-07
9.8097428e-07
1.3540274e-06
1.8347576e-06
2.4327962e-06
3.1440286e-06
3.9419079e-06
4.7703624e-06
5.5446208e-06
6.2229989e-06
6.9040336e-06
7.723678e-06
8.8685111e-06
1.0371821e-05
1.2883846e-05
1.7543222e-05
2.560578e-05
3.8728596e-05
5.7748984e-05
8.1400565e-05
0.00010244723
0.00011722679
0.00012461392
0.00012554627
0.00012435115
0.00012000146
0.00011233394
0.0001083181
0.00010435872
0.00010132361
9.8409673e-05
9.5898035e-05
9.3174542e-05
9.0813038e-05
8.8413899e-05
8.6457281e-05
8.4607867e-05
8.3097868e-05
8.1574597e-05
8.0194113e-05
7.8925391e-05
7.7827088e-05
7.6747385e-05
7.7804465e-15
2.4448683e-13
1.9991763e-12
8.5968501e-12
2.6449923e-11
6.6724417e-11
1.4789451e-10
2.9954387e-10
5.6794456e-10
1.0241644e-09
1.7757437e-09
2.9833607e-09
4.8843784e-09
7.8257341e-09
1.230924e-08
1.9052895e-08
2.9071988e-08
4.3783106e-08
6.5131771e-08
9.573894e-08
1.3905118e-07
1.9946197e-07
2.8234636e-07
3.9392472e-07
5.4085549e-07
7.295033e-07
9.6501468e-07
1.2508087e-06
1.5900732e-06
1.9940117e-06
2.4893358e-06
3.1072361e-06
3.9838553e-06
5.3431213e-06
7.4384834e-06
1.0733028e-05
1.647366e-05
2.5520087e-05
3.8616963e-05
5.6330608e-05
7.7882577e-05
9.9391052e-05
0.00011744461
0.00012582976
0.00012718036
0.00012614083
0.0001223584
0.00011427544
0.00010993659
0.00010578411
0.00010253407
9.9561783e-05
9.6944696e-05
9.4429051e-05
9.1884012e-05
8.9481105e-05
8.7390453e-05
8.550242e-05
8.3828571e-05
8.2234042e-05
8.0806114e-05
7.9580487e-05
7.825555e-05
7.7385098e-05
7.6386193e-05
3.7518041e-15
1.1789386e-13
9.6402365e-13
4.1455367e-12
1.2754929e-11
3.217807e-11
7.1327881e-11
1.4448137e-10
2.7397817e-10
4.941473e-10
8.5697368e-10
1.440208e-09
2.358873e-09
3.7814348e-09
5.9522839e-09
9.222597e-09
1.4092073e-08
2.1264376e-08
3.1719258e-08
4.6804178e-08
6.8347901e-08
9.8798951e-08
1.4139566e-07
2.0038864e-07
2.8137521e-07
3.9189635e-07
5.426283e-07
7.4990431e-07
1.0407386e-06
1.4582328e-06
2.0735653e-06
3.0086803e-06
4.4889367e-06
6.869486e-06
1.0664876e-05
1.6636179e-05
2.543655e-05
3.7744405e-05
5.4331983e-05
7.5128158e-05
9.7391992e-05
0.00011748428
0.00012700269
0.00012886656
0.00012795535
0.00012459531
0.00011643458
0.00011176795
0.00010728278
0.00010388774
0.00010072007
9.808266e-05
9.5511866e-05
9.3140023e-05
9.0570901e-05
8.8450796e-05
8.6330445e-05
8.4549219e-05
8.2837735e-05
8.1493246e-05
8.00773e-05
7.8957554e-05
7.7762946e-05
7.6857702e-05
7.5977014e-05
3.1807797e-15
9.9950767e-14
8.1731728e-13
3.5148545e-12
1.0815664e-11
2.7290761e-11
6.0510996e-11
1.2261783e-10
2.3263958e-10
4.198793e-10
7.2883814e-10
1.2263287e-09
2.0116987e-09
3.2314521e-09
5.1000664e-09
7.929512e-09
1.2170984e-08
1.8473805e-08
2.7768668e-08
4.1385918e-08
6.1225688e-08
9.0008046e-08
1.3165356e-07
1.9189034e-07
2.7922845e-07
4.0646386e-07
5.9342003e-07
8.7148927e-07
1.2913181e-06
1.9351011e-06
2.9354009e-06
4.5017679e-06
6.9533487e-06
1.0762471e-05
1.6548317e-05
2.4960885e-05
3.6741001e-05
5.2747591e-05
7.3149037e-05
9.5729329e-05
0.00011636993
0.00012795542
0.00013057015
0.00012980778
0.00012690573
0.0001190263