/*--------------------------------*- C++ -*----------------------------------*\
  =========                 |
  \\      /  F ield         | OpenFOAM: The Open Source CFD Toolbox
   \\    /   O peration     | Website:  https://openfoam.org
    \\  /    A nd           | Version:  13
     \\/     M anipulation  |
\*---------------------------------------------------------------------------*/
FoamFile
{
    format      ascii;
    class       volScalarField;
    location    "46.496163";
    object      yPlus;
}
// * * * * * * * * * * * * * * * * * * * * * * * * * * * * * * * * * * * * * //

dimensions      [];

internalField   uniform 0;

boundaryField
{
    inlet
    {
        type            calculated;
        value           uniform 0;
    }
    outlet
    {
        type            calculated;
        value           uniform 0;
    }
    cylinder
    {
        type            calculated;
        value           nonuniform List<scalar> 
132
(
1.291241e-07
1.2834044e-07
1.2706339e-07
1.2525944e-07
1.2292887e-07
1.2008774e-07
1.1676077e-07
1.1297977e-07
1.0878373e-07
1.0421963e-07
9.9340406e-08
9.4222272e-08
8.8929433e-08
8.3535085e-08
7.8115843e-08
7.2748218e-08
6.7505321e-08
6.245248e-08
5.7641751e-08
5.3104462e-08
4.8842053e-08
4.4816914e-08
4.0946956e-08
3.7111404e-08
3.3168289e-08
2.8994908e-08
2.454728e-08
1.9905852e-08
1.5285382e-08
1.1002863e-08
7.3978371e-09
4.7616602e-09
3.3065252e-09
3.0444863e-09
3.4937592e-09
4.2707898e-09
5.2724795e-09
6.5038406e-09
7.9905331e-09
9.7656834e-09
1.1892264e-08
1.4448341e-08
1.7210127e-08
2.0139332e-08
2.3163597e-08
2.6215811e-08
2.9237508e-08
3.218565e-08
3.5026034e-08
3.7737256e-08
4.030187e-08
4.2715512e-08
4.4965973e-08
4.7046923e-08
4.8989554e-08
5.0750763e-08
5.2359359e-08
5.3806714e-08
5.5100807e-08
5.6230594e-08
5.7198703e-08
5.8013387e-08
5.867336e-08
5.9176958e-08
5.9527451e-08
5.9720131e-08
1.2941037e-07
1.2919997e-07
1.2848228e-07
1.272228e-07
1.2540735e-07
1.2303102e-07
1.2009771e-07
1.1662101e-07
1.1262504e-07
1.0814501e-07
1.0322746e-07
9.7929835e-08
9.2320194e-08
8.6476474e-08
8.0486784e-08
7.4444563e-08
6.844707e-08
6.2592035e-08
5.6971804e-08
5.1664128e-08
4.6719554e-08
4.2144364e-08
3.7883547e-08
3.3815433e-08
2.9773444e-08
2.5602618e-08
2.1239438e-08
1.6776934e-08
1.2466819e-08
8.6499763e-09
5.6537312e-09
3.7376576e-09
3.038853e-09
3.2606969e-09
3.9156557e-09
4.8118931e-09
5.9272425e-09
7.2803816e-09
8.8981775e-09
1.0808e-08
1.3066512e-08
1.5744146e-08
1.8595781e-08
2.158539e-08
2.4635289e-08
2.7683123e-08
3.0679314e-08
3.3582725e-08
3.6366317e-08
3.9011332e-08
4.1503325e-08
4.3843323e-08
4.6017681e-08
4.8018907e-08
4.9887848e-08
5.1564228e-08
5.3101727e-08
5.446672e-08
5.5686447e-08
5.6728944e-08
5.7623676e-08
5.8360478e-08
5.8942777e-08
5.93685e-08
5.9639737e-08
5.9755985e-08
)
;
    }
    frontAndBack
    {
        type            empty;
    }
}


// ************************************************************************* //
