/*--------------------------------*- C++ -*----------------------------------*\
  =========                 |
  \\      /  F ield         | OpenFOAM: The Open Source CFD Toolbox
   \\    /   O peration     | Website:  https://openfoam.org
    \\  /    A nd           | Version:  13
     \\/     M anipulation  |
\*---------------------------------------------------------------------------*/
FoamFile
{
    format      ascii;
    class       surfaceScalarField;
    location    "19.897033";
    object      phi;
}
// * * * * * * * * * * * * * * * * * * * * * * * * * * * * * * * * * * * * * //

dimensions      [0 3 -1 0 0 0 0];

internalField   nonuniform List<scalar> 
34068
(
-4.8047709e-08
1.1324983e-07
-6.5202119e-08
-2.1357128e-07
3.9058774e-07
-2.2506417e-07
-5.3525773e-07
7.5978361e-07
-4.3809716e-07
-1.0614148e-06
1.2438095e-06
-7.176524e-07
-1.8520266e-06
1.8705937e-06
-1.0799819e-06
-2.981173e-06
2.6739304e-06
-1.544784e-06
-4.539864e-06
3.6945182e-06
-2.1358272e-06
-6.6393249e-06
4.9811194e-06
-2.8816585e-06
-9.4147712e-06
6.5918362e-06
-3.8163899e-06
-1.3029692e-05
8.5954832e-06
-4.9805626e-06
-1.7680625e-05
1.1073004e-05
-6.4220704e-06
-2.3602388e-05
1.4118885e-05
-8.1971218e-06
-3.1073653e-05
1.7842457e-05
-1.0371193e-05
-4.0422665e-05
2.236894e-05
-1.3019929e-05
-5.2032825e-05
2.7840041e-05
-1.6229881e-05
-6.6347634e-05
3.4413827e-05
-2.0099018e-05
-8.3874364e-05
4.2263527e-05
-2.4736797e-05
-0.00010518548
5.1574801e-05
-3.026368e-05
-0.00013091659
6.2540889e-05
-3.680978e-05
-0.00016175917
7.5354978e-05
-4.4512398e-05
-0.00019844613
9.0198967e-05
-5.3512006e-05
-0.00024172793
0.00010722806
-6.3946269e-05
-0.00029233738
0.00012655124
-7.594179e-05
-0.00035094376
0.00014821027
-8.9603894e-05
-0.00041810218
0.00017216546
-0.00010500704
-0.00049421506
0.00019830584
-0.00012219296
-0.0005795334
0.00022650711
-0.00014118877
-0.00067422091
0.0002567408
-0.00016205328
-0.00077846893
0.0002891848
-0.00018493678
-0.00089260831
0.00032425569
-0.00021011632
-0.0010171698
0.00036254786
-0.00023798636
-0.0011528919
0.00040474786
-0.00026902579
-0.001300706
0.00045158678
-0.00030377261
-0.0014617266
0.00050383689
-0.00034281635
-0.0016372567
0.00056233214
-0.00038680198
-0.001828815
0.00062799575
-0.00043643746
-0.0020381828
0.00070186745
-0.00049249964
-0.0022674755
0.00078512723
-0.00055583453
-0.002519241
0.00087911307
-0.00062734766
-0.0027965877
0.00098532515
-0.00070797844
-0.0031033421
0.0011054041
-0.00079864959
-0.0034442338
0.0012410715
-0.00090017975
-0.0038251177
0.0013940292
-0.0010131454
-0.0042532121
0.0015657918
-0.0011376974
-0.0047372674
0.0017573575
-0.0012733022
-0.0052877681
0.0019687877
-0.001418287
-0.0059174593
0.0021989124
-0.0015692212
-0.0066419527
0.0024446678
-0.0017201744
-0.0074803933
0.0027000208
-0.0018615802
-0.0084563981
0.0029546263
-0.0019786215
-0.0095992273
0.0031919553
-0.0020491261
-0.010945202
0.0033869213
-0.002040947
-0.012539251
0.0035031613
-0.0019091121
-0.014435498
0.0034909658
-0.0015947186
-0.016694013
0.0032827691
-0.0010242539
-0.019372499
0.0027915896
-0.00011310345
-0.022510507
0.001902029
0.0012359788
-0.026113538
0.00049645047
0.0031065801
-0.030128551
-0.0015614451
0.0055764583
-0.034390972
-0.0045221257
0.0087845474
-0.038574123
-0.008338937
0.012522088
-0.04137058
-0.012993089
0.015789546
-0.040652885
-0.017976701
0.017259005
-0.033758448
-0.021488101
0.014593665
-0.021069079
-0.018418598
0.0057292283
-4.7336618e-08
1.6058644e-07
-2.1042211e-07
5.5367323e-07
-5.2740003e-07
1.0767615e-06
-1.0459207e-06
1.7623301e-06
-1.8251682e-06
2.6498411e-06
-2.9382592e-06
3.7870215e-06
-4.4750559e-06
5.2313148e-06
-6.5454321e-06
7.0514956e-06
-9.283038e-06
9.3294421e-06
-1.2849572e-05
1.2162017e-05
-1.7439575e-05
1.5663006e-05
-2.3285681e-05
1.9964992e-05
-3.0664269e-05
2.5221045e-05
-3.9901279e-05
3.160595e-05
-5.1377962e-05
3.9316725e-05
-6.5536083e-05
4.8571949e-05
-8.2881908e-05
5.9609352e-05
-0.00010398807
7.2680963e-05
-0.00012949208
8.8044895e-05
-0.00016008971
0.00010595261
-0.00019652136
0.00012663061
-0.00023954881
0.00015025551
-0.00028992074
0.00017692317
-0.00034832679
0.00020661633
-0.00041534584
0.00023918451
-0.00049140426
0.00027436426
-0.00057677154
0.00031187439
-0.00067161832
0.00035158758
-0.00077612869
0.00039369517
-0.00089061558
0.00043874259
-0.0010155873
0.00048751961
-0.0011517596
0.00054092014
-0.0013000412
0.00059986838
-0.0014615218
0.00066531744
-0.0016374749
0.00073828525
-0.0018293807
0.0008199016
-0.0020389694
0.0009114561
-0.0022682871
0.001014445
-0.0025197882
0.0011306141
-0.0027964543
0.0012619913
-0.0031019443
0.001410894
-0.0034407668
0.0015798941
-0.003818488
0.0017717504
-0.0042419414
0.0019892452
-0.0047193653
0.0022347815
-0.0052605589
0.0025099813
-0.0058773645
0.002815718
-0.0065841415
0.0031514447
-0.0073983124
0.0035141917
-0.0083411044
0.0038974184
-0.0094384051
0.0042892559
-0.010721681
0.0046701969
-0.012228731
0.0050102112
-0.014003217
0.0052654526
-0.016090298
0.0053698498
-0.018527769
0.0052290608
-0.021329964
0.0047042237
-0.024478415
0.0036449011
-0.027914809
0.0018749493
-0.031498747
-0.00093818772
-0.034782271
-0.0050554132
-0.036733053
-0.011042306
-0.03556689
-0.019142864
-0.028384658
-0.028670333
-0.036453596
-0.01300014
-4.5538948e-08
2.0612539e-07
-2.0246538e-07
7.1059966e-07
-5.075324e-07
1.3818285e-06
-1.0066748e-06
2.2614725e-06
-1.7569756e-06
3.4001419e-06
-2.8289998e-06
4.8590458e-06
-4.3095296e-06
6.7118446e-06
-6.3047656e-06
9.0467316e-06
-8.9440046e-06
1.1968681e-05
-1.238386e-05
1.5601872e-05
-1.681299e-05
2.0092137e-05
-2.2457355e-05
2.5609356e-05
-2.9585864e-05
3.2349554e-05
-3.8516332e-05
4.0536418e-05
-4.96214e-05
5.0421793e-05
-6.333408e-05
6.2284629e-05
-8.015226e-05
7.6427531e-05
-0.00010064131
9.3170011e-05
-0.00012543353
0.00011283712
-0.00015522287
0.00013574196
-0.00019075273
0.00016216047
-0.00023279452
0.0001922973
-0.00028211471
0.00022624336
-0.00033942977
0.00026393139
-0.00040535342
0.00030510816
-0.00048034984
0.00034936068
-0.00056471951
0.00039624406
-0.00065864522
0.00044551328
-0.00076229799
0.00049734794
-0.00087595673
0.00055240132
-0.0010000851
0.00061164794
-0.0011353507
0.00067618578
-0.0012826126
0.00074713033
-0.0014429058
0.0008256106
-0.0016174388
0.00091281822
-0.0018076097
0.0010100725
-0.0020150417
0.0011188881
-0.0022416395
0.0012410428
-0.0024896687
0.0013786433
-0.0027618602
0.0015341828
-0.003061539
0.0017105727
-0.0033927769
0.001911132
-0.0037605746
0.0021395481
-0.0041710143
0.0023996849
-0.0046313328
0.0026950999
-0.0051500434
0.0030286918
-0.0057372806
0.0034029552
-0.0064050701
0.0038192343
-0.0071676588
0.0042767804
-0.0080419098
0.0047716694
-0.0090476351
0.0052949813
-0.010207734
0.0058302953
-0.011547831
0.006350309
-0.013094541
0.0068121619
-0.014870049
0.0071453582
-0.016882995
0.0072420072
-0.019112482
0.0069337109
-0.021501428
0.0060338463
-0.023959679
0.0043332011
-0.02630646
0.0014085929
-0.028056245
-0.0033056281
-0.028296791
-0.01080176
-0.025466817
-0.021972838
-0.0165593
-0.037577851
-0.053569072
0.00055617542
-4.2586088e-08
2.4871148e-07
-1.893956e-07
8.5740918e-07
-4.74891e-07
1.6673239e-06
-9.4217406e-07
2.7287556e-06
-1.6448508e-06
4.1028186e-06
-2.6492461e-06
5.8634411e-06
-4.0370238e-06
8.0996223e-06
-5.9082368e-06
1.0917945e-05
-8.3848865e-06
1.4445331e-05
-1.1614991e-05
1.8831977e-05
-1.5777222e-05
2.4254368e-05
-2.1086057e-05
3.0918191e-05
-2.7797448e-05
3.9060945e-05
-3.6214824e-05
4.8953794e-05
-4.6695263e-05
6.0902232e-05
-5.965544e-05
7.5244806e-05
-7.557682e-05
9.2348911e-05
-9.5009265e-05
0.00011260246
-0.00011857191
0.00013639976
-0.00014694971
0.00016411976
-0.00018088364
0.0001960944
-0.00022115194
0.00023256561
-0.00026853997
0.00027363138
-0.00032379707
0.00031918849
-0.00038758301
0.0003688941
-0.00046041507
0.00042219274
-0.00054263982
0.00047846881
-0.00063446088
0.00053733435
-0.00073603315
0.00059892021
-0.00084758626
0.00066395443
-0.00096951577
0.00073357745
-0.0011024143
0.00080908434
-0.0012470619
0.00089177791
-0.0014044064
0.00098295512
-0.0015755539
0.0010839657
-0.0017617745
0.0011962931
-0.0019645263
0.0013216399
-0.002185497
0.0014620134
-0.0024266652
0.0016198115
-0.0026903824
0.0017979001
-0.0029794727
0.001999663
-0.0032973521
0.0022290113
-0.0036481727
0.0024903688
-0.0040369028
0.002788415
-0.0044693087
0.0031275058
-0.0049520507
0.0035114338
-0.0054928111
0.0039437156
-0.0061003308
0.0044267539
-0.0067844638
0.0049609134
-0.0075561631
0.0055433687
-0.0084272258
0.006166044
-0.0094096158
0.0068126852
-0.010514076
0.0074547689
-0.011747343
0.0080454288
-0.013106202
0.0085042174
-0.014568946
0.0087047511
-0.016080071
0.0084448364
-0.017543943
0.0074977185
-0.018832235
0.0056214927
-0.019707701
0.0022840587
-0.019653915
-0.003359414
-0.017750347
-0.012705328
-0.01264692
-0.027076265
-0.0012479845
-0.048976786
-0.073089485
0.018272429
-3.8451793e-08
2.8716327e-07
-1.7108034e-07
9.9003773e-07
-4.2912296e-07
1.9253665e-06
-8.5169063e-07
3.1513233e-06
-1.4874853e-06
4.7386133e-06
-2.3968552e-06
6.7728109e-06
-3.6542183e-06
9.3569855e-06
-5.3509346e-06
1.2614661e-05
-7.5986347e-06
1.6693031e-05
-1.0533112e-05
2.1766454e-05
-1.4318743e-05
2.8039999e-05
-1.9153528e-05
3.5752977e-05
-2.5274649e-05
4.5182066e-05
-3.2964561e-05
5.6643706e-05
-4.2557363e-05
7.0495034e-05
-5.4445251e-05
8.7132694e-05
-6.9084499e-05
0.00010698816
-8.700035e-05
0.00013051831
-0.00010878971
0.00015818912
-0.00013512018
0.00019045023
-0.0001667234
0.00022769762
-0.00020438019
0.00027022239
-0.00024889436
0.00031814555
-0.000301053
0.00037134713
-0.00036157295
0.00042941405
-0.00043104108
0.00049166087
-0.00050986868
0.00055729641
-0.00059829411
0.00062575978
-0.00069645793
0.00069708403
-0.00080452776
0.00077202425
-0.00092280751
0.0008518572
-0.0010517857
0.00093806253
-0.0011921316
0.0010321238
-0.0013446716
0.0011354951
-0.0015103698
0.0012496639
-0.0016903211
0.0013762445
-0.001885759
0.0015170778
-0.0020980782
0.0016743325
-0.0023288718
0.0018506051
-0.0025799837
0.002049012
-0.0028535722
0.0022732515
-0.0031521868
0.0025276259
-0.0034788534
0.0028170354
-0.0038370776
0.0031466393
-0.0042307452
0.0035211734
-0.0046641453
0.0039448339
-0.0051418691
0.0044214394
-0.0056686136
0.0049534984
-0.0062489438
0.0055412436
-0.00688688
0.0061813049
-0.007585119
0.006864283
-0.00834367
0.0075712362
-0.009157669
0.0082687679
-0.010013777
0.0089015365
-0.010883786
0.009374227
-0.01171657
0.0095375344
-0.012423921
0.0091521878
-0.012873711
0.0079475081
-0.012898366
0.0056461481
-0.012198146
0.0015838385
-0.010215077
-0.0053424824
-0.0059250492
-0.016995357
0.0019762074
-0.034977521
0.01618902
-0.063189598
-0.095164294
0.038263829
-3.3137665e-08
3.2030094e-07
-1.4752881e-07
1.1044289e-06
-3.7025048e-07
2.1480882e-06
-7.3526139e-07
3.5163342e-06
-1.2849321e-06
5.2882841e-06
-2.0718763e-06
7.5597551e-06
-3.1611434e-06
1.0446253e-05
-4.632807e-06
1.4086324e-05
-6.5850422e-06
1.8645266e-05
-9.1377077e-06
2.4319119e-05
-1.2436515e-05
3.1338806e-05
-1.6657828e-05
3.997429e-05
-2.2014106e-05
5.0538344e-05
-2.8759951e-05
6.3389551e-05
-3.7198707e-05
7.893379e-05
-4.7689386e-05
9.7623373e-05
-6.0653612e-05
0.00011995238
-7.6581953e-05
0.00014644665
-9.6038803e-05
0.00017764597
-0.00011966448
0.0002140759
-0.00014817253
0.00025620568
-0.00018233985
0.00030438972
-0.0002229861
0.0003587918
-0.0002709388
0.00041929983
-0.00032698173
0.00048545698
-0.00039178865
0.00055646779
-0.00046585817
0.00063136592
-0.0005494842
0.00070938581
-0.0006428026
0.00079040244
-0.00074591151
0.00087513316
-0.00085900067
0.00096494636
-0.00098242364
0.0010614855
-0.0011167047
0.0011664048
-0.0012625122
0.0012813026
-0.0014206273
0.001407779
-0.0015919212
0.0015475384
-0.0017773438
0.0017025004
-0.001977922
0.0018749108
-0.002194768
0.002067451
-0.0024290949
0.0022833389
-0.0026822382
0.0025263948
-0.0029556819
0.0028010697
-0.0032510703
0.0031124238
-0.003570132
0.003465701
-0.0039145194
0.0038655608
-0.0042857138
0.0043160284
-0.0046847114
0.004820437
-0.0051116158
0.0053804028
-0.0055651296
0.0059947575
-0.0060418071
0.0066579824
-0.0065348794
0.0073573552
-0.0070323885
0.0080687453
-0.0075144206
0.0087508001
-0.0079487378
0.0093358537
-0.0082830803
0.0097085694
-0.0084357373
0.0096901915
-0.0082857916
0.0090022421
-0.0076691593
0.0073308758
-0.0063802707
0.0043572595
-0.0040388738
-0.00075755837
-1.5823585e-05
-0.0093655326
0.0068167883
-0.023827969
0.017880668
-0.046041401
0.035331909
-0.080640839
-0.11946924
0.059636856
-2.6699237e-08
3.4700017e-07
-1.1898301e-07
1.1967126e-06
-2.9886929e-07
2.3279745e-06
-5.9404758e-07
3.8115125e-06
-1.0391732e-06
5.7334097e-06
-1.6774348e-06
8.1980167e-06
-2.5624358e-06
1.1331254e-05
-3.7604607e-06
1.5284349e-05
-5.3531837e-06
2.0237989e-05
-7.4408912e-06
2.6406827e-05
-1.014629e-05
3.4044205e-05
-1.3618995e-05
4.3446994e-05
-1.8040692e-05
5.4960041e-05
-2.3631141e-05
6.898e-05
-3.0654877e-05
8.5957525e-05
-3.9428626e-05
0.00010639712
-5.0329202e-05
0.00013085296
-6.3801461e-05
0.00015991891
-8.0365614e-05
0.00019421013
-0.00010062287
0.00023433316
-0.00012525758
0.00028084039
-0.00015503333
0.00033416546
-0.00019077953
0.000394538
-0.00023336365
0.00046188395
-0.00028364348
0.00053573681
-0.00034239679
0.0006152211
-0.00041023567
0.0006992048
-0.00048753923
0.00078668938
-0.00057445948
0.00087732269
-0.00067102653
0.00097170021
-0.00077729729
0.0010712171
-0.00089345887
0.0011776471
-0.0010198537
0.0012927996
-0.0011569524
0.0014184014
-0.0013053109
0.0015561375
-0.0014655286
0.0017077561
-0.0016382139
0.0018751857
-0.0018239546
0.0020606514
-0.0020232917
0.0022667881
-0.0022366942
0.0024967414
-0.002464531
0.0027542317
-0.0027070392
0.0030435779
-0.0029642558
0.0033696404
-0.0032358683
0.0037373134
-0.0035210045
0.0041506969
-0.0038179897
0.0046130136
-0.0041238585
0.0051263058
-0.0044337689
0.0056903132
-0.0047402601
0.0063012487
-0.005032257
0.0069499792
-0.0052936454
0.0076187436
-0.0055010899
0.0082761898
-0.005620881
0.0088705912
-0.0056033456
0.0093183183
-0.0053735346
0.0094787584
-0.0048143504
0.0091310072
-0.0037647375
0.0079526292
-0.0020411204
0.0056072587
0.00059713222
0.0017190069
0.0046309367
-0.0047913629
0.010825841
-0.015560437
0.020363849
-0.033365976
0.034785776
-0.060463328
0.055551965
-0.10140703
-0.14504616
0.081128887
-1.9254181e-08
3.6625435e-07
-8.5954104e-08
1.2634126e-06
-2.1624065e-07
2.458261e-06
-4.305148e-07
4.0257866e-06
-7.5445593e-07
6.0573508e-06
-1.2202641e-06
8.6638249e-06
-1.8681836e-06
1.1979173e-05
-2.7483728e-06
1.6164539e-05
-3.9231651e-06
2.1412781e-05
-5.4698399e-06
2.7953502e-05
-7.4839694e-06
3.6058335e-05
-1.0083444e-05
4.6046469e-05
-1.341333e-05
5.8289927e-05
-1.7651588e-05
7.3218258e-05
-2.3015849e-05
9.1321786e-05
-2.9771172e-05
0.00011315245
-3.8238841e-05
0.00013932063
-4.8805981e-05
0.00017048605
-6.1935527e-05
0.00020733967
-7.817567e-05
0.0002505733
-9.8167455e-05
0.00030083217
-0.00012264807
0.00035864607
-0.00015244616
0.00042433609
-0.00018846338
0.00049790118
-0.00023163428
0.00057890771
-0.000282855
0.00066644182
-0.00034287988
0.00075922968
-0.00041221217
0.00085602167
-0.00049105599
0.00095616651
-0.00057938933
0.0010600336
-0.00067712565
0.0011689534
-0.0007842553
0.0012847767
-0.00090089937
0.0014094437
-0.0010272889
0.0015447909
-0.0011637101
0.0016925587
-0.0013104424
0.0018544885
-0.0014676974
0.0020324407
-0.0016355574
0.0022285114
-0.0018139108
0.0024451415
-0.0020023808
0.0026852113
-0.0022002436
0.0029520945
-0.0024063319
0.0032496661
-0.0026188887
0.0035821973
-0.0028353471
0.0039537718
-0.0030520779
0.0043674278
-0.0032639971
0.0048249328
-0.0034639365
0.0053262452
-0.0036419063
0.005868283
-0.0037841727
0.0064435151
-0.0038720899
0.0070378964
-0.0038805699
0.0076272236
-0.0037757636
0.0081713835
-0.0035115526
0.0086063802
-0.0030226982
0.0088294639
-0.0022039263
0.0086599865
-0.00089414202
0.007821223
0.0010944642
0.005964023
0.0039463691
0.0027553537
0.0079708849
-0.002305509
0.013768681
-0.010589159
0.022261657
-0.024053413
0.034716811
-0.045821131
0.052702547
-0.078449064
0.076179755
-0.12488424
-0.16959454
0.10072813
-1.0987205e-08
3.7724156e-07
-4.9260154e-08
1.3016855e-06
-1.244022e-07
2.5334031e-06
-2.4867375e-07
4.1500582e-06
-4.3770899e-07
6.2463861e-06
-7.113942e-07
8.9375101e-06
-1.09498e-06
1.2362759e-05
-1.6204658e-06
1.6690024e-05
-2.3283623e-06
2.2120678e-05
-3.2698912e-06
2.8895031e-05
-4.5097595e-06
3.7298203e-05
-6.1296278e-06
4.7666337e-05
-8.2324506e-06
6.039275e-05
-1.0947801e-05
7.5933609e-05
-1.4438487e-05
9.4812472e-05
-1.8908523e-05
0.00011762248
-2.4612679e-05
0.00014502479
-3.1867555e-05
0.00017774092
-4.106421e-05
0.00021653633
-5.2681656e-05
0.00026219075
-6.7300235e-05
0.00031545075
-8.561303e-05
0.00037695887
-0.00010843139
0.00044715445
-0.00013667857
0.00052614836
-0.00017136091
0.00061359005
-0.00021350171
0.00070858262
-0.00026402554
0.00080975351
-0.00032360734
0.00091560347
-0.00039255761
0.0010251168
-0.00047083985
0.0011383158
-0.00055822854
0.0012563421
-0.00065449205
0.0013810403
-0.0007594893
0.001514441
-0.00087316599
0.0016584676
-0.00099549233
0.001814885
-0.0011263797
0.0019853758
-0.0012655903
0.0021716513
-0.0014126407
0.0023755618
-0.0015666954
0.0025991963
-0.0017264457
0.0028449616
-0.0018899698
0.0031156186
-0.0020545677
0.003414264
-0.0022165412
0.0037441708
-0.0023709139
0.0041081444
-0.0025111212
0.0045076351
-0.0026284887
0.0049423003
-0.0027115027
0.0054092592
-0.0027449452
0.0059017255
-0.0027088067
0.0064073766
-0.0025769966
0.0069060863
-0.0023158431
0.0073660701
-0.0018819323
0.0077374727
-0.0012180365
0.0079424844
-0.00023570742
0.0078471348
0.001213578
0.0072107011
0.0033223933
0.0057124077
0.0062730899
0.0030133264
0.010263826
-0.0012353826
0.015727776
-0.0077694587
0.023409053
-0.018270436
0.03440004
-0.0350444
0.050057641
-0.061478732
0.071538221
-0.099929643
0.095859751
-0.14920577
-0.18977566
0.11604088
-2.1553891e-09
3.7939695e-07
-1.0037714e-08
1.3095678e-06
-2.6185655e-08
2.549551e-06
-5.4099401e-08
4.1779719e-06
-9.8588966e-08
6.2908757e-06
-1.6624378e-07
9.0051649e-06
-2.660759e-07
1.2462591e-05
-4.1037431e-07
1.6834323e-05
-6.1587465e-07
2.2326178e-05
-9.0529734e-07
2.9184453e-05
-1.3094485e-06
3.7702354e-05
-1.8699494e-06
4.8226838e-05
-2.6428923e-06
6.1165693e-05
-3.7036009e-06
7.6994317e-05
-5.152802e-06
9.6261673e-05
-7.1245355e-06
0.00011959422
-9.7960999e-06
0.00014769635
-1.3400442e-05
0.00018134526
-1.824101e-05
0.0002213769
-2.4709202e-05
0.00026865894
-3.3303762e-05
0.00032404531
-4.4650654e-05
0.00038830576
-5.9520318e-05
0.00046202411
-7.883573e-05
0.00054546377
-0.00010365954
0.00063841386
-0.00013514032
0.0007400634
-0.00017439443
0.00084900762
-0.00022232038
0.00096352941
-0.00027940895
0.0010822054
-0.00034567639
0.0012045832
-0.00042078836
0.0013314541
-0.00050427801
0.0014645299
-0.00059570245
0.0016058654
-0.00069467352
0.0017574387
-0.00080079611
0.0019210076
-0.00091356473
0.0020981444
-0.0010322425
0.002290329
-0.0011557266
0.0024990459
-0.0012823974
0.0027258671
-0.0014099447
0.0029725089
-0.0015351685
0.0032408424
-0.0016537414
0.0035328369
-0.0017599174
0.0038503468
-0.0018462069
0.0041944339
-0.0019029923
0.0045644205
-0.0019178963
0.0049572043
-0.0018749727
0.0053663356
-0.0017537352
0.0057804881
-0.0015279268
0.0061815682
-0.0011640993
0.0065422589
-0.00062043831
0.006822409
0.00015562263
0.0069614118
0.0012362638
0.0068618433
0.0027475116
0.0063358869
0.0048732857
0.005084927
0.0078118948
0.0027737986
0.011734628
-0.00090940719
0.016907172
-0.006407926
0.023923818
-0.014786105
0.033705606
-0.028052225
0.047529098
-0.048867891
0.066665491
-0.080615125
0.090417112
-0.12368126
0.11217239
-0.17096105
-0.20362981
0.12602654
6.9080375e-09
3.7248891e-07
3.0241944e-08
1.2862339e-06
7.4738697e-08
2.5050543e-06
1.4596469e-07
4.1067459e-06
2.5033825e-07
6.1865021e-06
3.9509625e-07
8.8604069e-06
5.8816564e-07
1.2269522e-05
8.3788167e-07
1.6584607e-05
1.1524963e-06
2.2011564e-05
1.5393628e-06
2.8797587e-05
2.0036794e-06
3.7238038e-05
2.5465807e-06
4.7683936e-05
3.1624065e-06
6.0549867e-05
3.8347493e-06
7.6321975e-05
4.5310415e-06
9.5565381e-05
5.195084e-06
0.00011893017
5.73706e-06
0.00014715437
6.0205163e-06
0.00018106181
5.845633e-06
0.00022155178
4.9284354e-06
0.00026957614
2.8758126e-06
0.00032609794
-8.4275052e-07
0.00039202433
-6.9246575e-06
0.00046810602
-1.6258783e-05
0.00055479789
-2.9932941e-05
0.00065208802
-4.9201444e-05
0.0007593319
-7.5378555e-05
0.00087518473
-0.00010963382
0.00099778468
-0.00015273107
0.0011253026
-0.00020484544
0.0012566976
-0.00026560189
0.0013922105
-0.00033430981
0.0015332378
-0.00041019108
0.0016817467
-0.0004924757
0.0018397233
-0.0005803504
0.0020088823
-0.00067284192
0.002190636
-0.00076866564
0.0023861527
-0.00086605156
0.0025964319
-0.00096254652
0.0028223621
-0.0010547873
0.0030647496
-0.0011382392
0.0033242943
-0.001206889
0.0036014867
-0.0012528833
0.0038963411
-0.0012661552
0.0042077057
-0.0012339751
0.0045322404
-0.0011402181
0.0048634474
-0.00096448369
0.0051906012
-0.00068097164
0.005496976
-0.00025719322
0.0057577898
0.00034767302
0.0059373927
0.0011835012
0.0059865808
0.0023127435
0.0058321695
0.0038345183
0.0053400684
0.0059124657
0.0042579395
0.008746579
0.0022508137
0.012532335
-0.0010119572
0.017454464
-0.0058315361
0.023926372
-0.012879834
0.032726024
-0.023585757
0.044996491
-0.040322692
0.062097718
-0.065969118
0.08428435
-0.10280176
0.1071404
-0.14653732
0.12280749
-0.18662813
-0.2116376
0.13081528
1.5795538e-08
3.5669337e-07
6.9773094e-08
1.2322564e-06
1.738636e-07
2.4009638e-06
3.4261627e-07
3.9379932e-06
5.9361271e-07
5.9355057e-06
9.4787532e-07
8.5061443e-06
1.4302803e-06
1.1787117e-05
2.0698967e-06
1.594499e-05
2.9002107e-06
2.1181249e-05
3.9591367e-06
2.7738661e-05
5.2886666e-06
3.5908508e-05
6.9340102e-06
4.6038593e-05
8.9419159e-06
5.8541961e-05
1.1357877e-05
7.3906014e-05
1.4221762e-05
9.2701496e-05
1.7561288e-05
0.00011559065
2.1382668e-05
0.00014333299
2.5657534e-05
0.00017678694
3.0305238e-05
0.00021690408
3.5169622e-05
0.00026471175
3.9989391e-05
0.00032127817
4.4362011e-05
0.0003876517
4.7702453e-05
0.00046476558
4.9201034e-05
0.00055329931
4.7791981e-05
0.00065349707
4.2156693e-05
0.00076496719
3.0802936e-05
0.00088653849
1.2267464e-05
0.0010163201
-1.4569033e-05
0.0011521391
-5.0211319e-05
0.0012923399
-9.4353416e-05
0.0014363526
-0.00014610802
0.0015849924
-0.00020438674
0.0017400254
-0.00026799354
0.0019033301
-0.00033563991
0.0020765287
-0.00040582767
0.0022608237
-0.00047667443
0.0024569995
-0.00054569842
0.0026654558
-0.00060957344
0.0028862371
-0.00066384759
0.0031190238
-0.00070262049
0.0033630672
-0.00071816829
0.0036170345
-0.0007005155
0.0038786883
-0.00063700034
0.0041441906
-0.00051176735
0.0044070074
-0.00030493835
0.0046566184
8.4243955e-06
0.0048772384
0.00045912273
0.0050462777
0.0010863245
0.005130588
0.0019381718
0.0050855453
0.0030729494
0.0048518033
0.0045686753
0.0043364436
0.0065604879
0.0033482558
0.0092371221
0.0015813053
0.012807373
-0.0013194367
0.017459588
-0.005664173
0.023478008
-0.011849956
0.031500458
-0.020902284
0.042517097
-0.034602395
0.057847922
-0.055653517
0.078296369
-0.086417566
0.10094312
-0.12544851
0.11852068
-0.16411488
0.12780534
-0.19591279
-0.21644734
0.13261508
2.4014484e-08
3.3267889e-07
1.0637163e-07
1.1498992e-06
2.6572578e-07
2.2416096e-06
5.2505668e-07
3.6786623e-06
9.1245017e-07
5.5481122e-06
1.4619727e-06
7.9566218e-06
2.2146053e-06
1.1034484e-05
3.2192295e-06
1.4940366e-05
4.5335951e-06
1.9866884e-05
6.2252022e-06
2.6047054e-05
8.3719815e-06
3.3761729e-05
1.1062553e-05
4.3348022e-05
1.4395872e-05
5.5208642e-05
1.8479833e-05
6.9822052e-05
2.3428387e-05
8.7752942e-05
2.9356501e-05
0.00010966253
3.6372119e-05
0.00013631738
4.4564001e-05
0.00016859506
5.3984285e-05
0.00020748379
6.4624079e-05
0.00025407196
7.6380735e-05
0.00030952151
8.9015427e-05
0.00037501701
0.00010210092
0.00045168008
0.00011496233
0.00054043791
0.00012661973
0.00064183967
0.00013575571
0.00075583121
0.00014075128
0.00088154291
0.00013985304
0.0010172184
0.00013153269
0.0011604595
0.00011490056
0.001308972
8.9999935e-05
0.0014612533
5.7703803e-05
0.0016172885
1.9268665e-05
0.0017784605
-2.3617771e-05
0.0019462165
-6.9110077e-05
0.002122021
-0.00011510813
0.0023068218
-0.00015907625
0.0025009676
-0.00019777717
0.0027041568
-0.00022697923
0.0029154391
-0.00024112171
0.0031331663
-0.00023293127
0.0033548768
-0.0001929821
0.0035770854
-0.00010920059
0.0037949068
3.3645331e-05
0.0040013447
0.00025449319
0.0041861596
0.00057692684
0.0043341847
0.0010302669
0.0044238984
0.0016509361
0.0044256085
0.0024844802
0.0042970439
0.003586917
0.0039831085
0.0050263657
0.0034123545
0.0069071439
0.0024556654
0.0093997372
0.00085566262
0.012711776
-0.001730733
0.01705396
-0.0056616214
0.022655979
-0.011266192
0.030035663
-0.01922964
0.040084486
-0.030951107
0.053983965
-0.048501874
0.072731227
-0.074400779
0.094501825
-0.10818816
0.11278675
-0.14373343
0.12360965
-0.17493778
0.12917797
-0.20148111
-0.22023637
0.132967
3.1123034e-08
3.0155586e-07
1.3807528e-07
1.042947e-06
3.4540962e-07
2.0342753e-06
6.8352903e-07
3.3405429e-06
1.1898213e-06
5.0418199e-06
1.9099514e-06
7.2364917e-06
2.8993236e-06
1.0045112e-05
4.2246714e-06
1.3615018e-05
5.9657873e-06
1.8125768e-05
8.2172849e-06
2.3795556e-05
1.1090329e-05
3.0888685e-05
1.4714158e-05
3.9724192e-05
1.9237169e-05
5.0685631e-05
2.4827199e-05
6.4232023e-05
3.1670516e-05
8.0909625e-05
3.9968824e-05
0.00010136422
4.993337e-05
0.00012635283
6.1774841e-05
0.00015675359
7.5687557e-05
0.00019357108
9.1825931e-05
0.00023793358
0.00011027094
0.00029107651
0.00013098422
0.00035430373
0.00015374805
0.00042891625
0.00017809135
0.00051609461
0.00020320794
0.00061672308
0.00022788515
0.000731154
0.00025048563
0.00085894243
0.00026905553
0.0009986485
0.00028162397
0.001147891
0.00028671804
0.0013038779
0.00028390869
0.0014640626
0.00027349379
0.0016277035
0.00025706044
0.0017948939
0.0002369129
0.0019663641
0.00021547943
0.0021434545
0.0001954455
0.0023268557
0.00018004072
0.0025163724
0.00017330615
0.0027108913
0.00018041092
0.0029083344
0.00020803397
0.0031055432
0.00026480709
0.0032981037
0.00036181905
0.0034800734
0.00051317965
0.0036435462
0.00073661552
0.0037779088
0.0010541112
0.0038686638
0.0014928537
0.0038954423
0.0020866795
0.0038300725
0.0028775066
0.0036347813
0.0039179905
0.00325656
0.0052731417
0.0026279574
0.007025644
0.0016598522
0.0093182597
0.00016304965
0.012355191
-0.0021812685
0.016362182
-0.0057377241
0.021565314
-0.010864753
0.028390617
-0.018091495
0.037682025
-0.028521047
0.050499232
-0.043768315
0.067747406
-0.065750048
0.088219943
-0.094873316
0.1063706
-0.12633882
0.11789481
-0.15525764
0.12463792
-0.18168089
0.12896048
-0.20580368
-0.22448084
0.13320495
3.6666644e-08
2.6488921e-07
1.6284545e-07
9.1676818e-07
4.0777788e-07
1.7893429e-06
8.0780918e-07
2.9405116e-06
1.4078215e-06
4.4418076e-06
2.2629134e-06
6.3813998e-06
3.440302e-06
8.8677231e-06
5.021504e-06
1.2033816e-05
7.1047426e-06
1.6042529e-05
9.8075777e-06
2.1092721e-05
1.3269675e-05
2.7426588e-05
1.7655618e-05
3.5338249e-05
2.3157498e-05
4.5183751e-05
2.9997082e-05
5.7392439e-05
3.8426974e-05
7.2479732e-05
4.8730204e-05
9.1060994e-05
6.1217176e-05
0.00011386586
7.621886e-05
0.0001417519
9.4074152e-05
0.00017571578
0.00011510942
0.00021689831
0.00013960712
0.00026657881
0.00016776006
0.00032615079
0.00019960803
0.00039706828
0.00023495411
0.00048074853
0.00027326241
0.00057841478
0.00031354943
0.00069086699
0.00035430283
0.00081818903
0.00039349965
0.00095945168
0.0004288304
0.0011125603
0.0004582147
0.0012744936
0.00048002838
0.0014422489
0.00049432378
0.0016134081
0.00050288281
0.0017863348
0.00050800817
0.0019612387
0.00051266099
0.0021388017
0.00052026033
0.0023192564
0.00053488377
0.002501749
0.00056143428
0.0026843408
0.00060604747
0.0028637212
0.00067651782
0.0030350729
0.00078279997
0.0031918215
0.00093757973
0.0033252936
0.0011569126
0.0034242133
0.0014609166
0.0034739048
0.0018745179
0.0034550625
0.0024285056
0.0033414546
0.0031613189
0.0030972592
0.0041208971
0.0026752031
0.005367972
0.0020094851
0.0069789295
0.0010169999
0.0090642949
-0.00042551315
0.011815989
-0.0025886441
0.015475262
-0.005840542
0.020285523
-0.010547985
0.026635886
-0.017215116
0.035328505
-0.026784114
0.04737347
-0.040566012
0.063388415
-0.05978326
0.082352842
-0.084714476
0.099712846
-0.11223332
0.11138401
-0.13800998
0.11875445
-0.16262808
0.12401259
-0.18693903
0.12827441
-0.21006549
-0.22968286
0.13347643
4.0206369e-08
2.2468284e-07
1.7873937e-07
7.7823518e-07
4.4796349e-07
1.5201187e-06
8.8822542e-07
2.5002497e-06
1.5495292e-06
3.7805038e-06
2.4934956e-06
5.4374334e-06
3.7956572e-06
7.5655616e-06
5.5480962e-06
1.0281377e-05
7.862452e-06
1.3728174e-05
1.087331e-05
1.8081863e-05
1.4741923e-05
2.3557974e-05
1.966021e-05
3.0419962e-05
2.5854896e-05
3.8989066e-05
3.3591516e-05
4.9655818e-05
4.3177973e-05
6.2893276e-05
5.4966963e-05
7.9272004e-05
6.935648e-05
9.9476341e-05
8.6787006e-05
0.00012432138
0.00010773377
0.00015476902
0.00013269135
0.00019194074
0.00016214749
0.00023712267
0.00019654183
0.00029175645
0.00023620451
0.0003574056
0.00028126949
0.00043568355
0.00033155963
0.00052812464
0.00038644734
0.00063597927
0.00044471301
0.00075992336
0.0005044577
0.00089970699
0.00056317365
0.0010538443
0.00061811652
0.0012195508
0.00066726524
0.0013931002
0.00071040214
0.0015702712
0.00074773127
0.0017490057
0.00078107831
0.0019278917
0.00081401818
0.0021058618
0.00085107233
0.0022822022
0.00089712696
0.0024556943
0.00095804191
0.0026234259
0.0010409698
0.0027807933
0.0011548203
0.0029212224
0.0013108257
0.0030358161
0.0015231842
0.0031129352
0.0018097832
0.0031376142
0.0021930152
0.0030906729
0.0027007016
0.0029473762
0.0033673892
0.0026747669
0.0042364821
0.0022281662
0.0053631162
0.001548569
0.0068191275
0.0005534739
0.0086981933
-0.00086206589
0.011165263
-0.0028925832
0.01446686
-0.0058902404
0.018887393
-0.010261075
0.024828876
-0.016489468
0.033075309
-0.025461549
0.044582297
-0.038291102
0.059638317
-0.055622032
0.07699037
-0.077135313
0.093062164
-0.10078627
0.10446051
-0.12363166
0.11202496
-0.14557443
0.117791
-0.16839413
0.12266085
-0.19180888
0.12773467
-0.21513932
-0.23573976
0.13379157
4.1560713e-08