/*--------------------------------*- C++ -*----------------------------------*\
  =========                 |
  \\      /  F ield         | OpenFOAM: The Open Source CFD Toolbox
   \\    /   O peration     | Website:  https://openfoam.org
    \\  /    A nd           | Version:  13
     \\/     M anipulation  |
\*---------------------------------------------------------------------------*/
FoamFile
{
    format      ascii;
    class       volScalarField;
    location    "19.897033";
    object      pMean;
}
// * * * * * * * * * * * * * * * * * * * * * * * * * * * * * * * * * * * * * //

dimensions      [0 2 -2 0 0 0 0];

internalField   nonuniform List<scalar> 
17140
(
2.3141336
2.3139882
2.3138128
2.3136347
2.3134426
2.3132337
2.3130079
2.312765
2.3125046
2.3122263
2.3119301
2.3116156
2.3112821
2.3109285
2.3105521
2.3101484
2.30971
2.3092249
2.3086747
2.3080329
2.3072615
2.3063079
2.3050995
2.303538
2.3015097
2.298922
2.2957214
2.2918497
2.2871982
2.2816232
2.2749649
2.2670377
2.2576296
2.2465028
2.2333989
2.2180494
2.2001931
2.1796
2.1561036
2.1296451
2.1003229
2.0684536
2.0346555
1.9999026
1.9655833
1.9334919
1.9054373
1.8832409
1.8687118
1.8633265
1.868053
1.8834716
1.9097358
1.9463185
1.9921439
2.0452872
2.1033855
2.1633105
2.2226951
2.2770841
2.3253266
2.3606895
2.3868996
2.3928045
2.3928373
2.3117012
2.3115587
2.3113868
2.3112122
2.3110238
2.3108189
2.3105974
2.3103591
2.3101036
2.3098307
2.3095402
2.3092318
2.308905
2.3085586
2.3081902
2.3077954
2.307367
2.3068932
2.306356
2.305729
2.3049748
2.3040409
2.3028555
2.301321
2.2993227
2.2967661
2.2935976
2.28976
2.285144
2.2796049
2.2729821
2.2650898
2.2557151
2.2446192
2.2315427
2.2162158
2.1983758
2.177791
2.1542928
2.1278202
2.0984693
2.0665553
2.0326943
1.997865
1.9634749
1.9312778
1.90311
1.8808619
1.8662926
1.8608465
1.8655234
1.8809053
1.9071057
1.9436218
1.9893736
2.0424222
2.1004515
2.1603513
2.2197781
2.2742973
2.3227849
2.3584601
2.3849968
2.3911207
2.3915719
2.3057684
2.305633
2.3054702
2.3053041
2.3051248
2.3049297
2.3047187
2.3044917
2.3042483
2.3039883
2.3037116
2.3034182
2.3031076
2.3027788
2.3024298
2.3020566
2.3016524
2.301206
2.3007
2.300109
2.2993962
2.2985102
2.2973805
2.2959113
2.2939864
2.2915064
2.2884157
2.2846579
2.2801251
2.2746715
2.2681343
2.2603265
2.2510333
2.2400135
2.227005
2.2117348
2.1939366
2.1733743
2.149875
2.1233728
2.0939597
2.0619492
2.0279588
1.9929848
1.9584503
1.9260738
1.8977246
1.8753304
1.8606617
1.8551481
1.8597476
1.8750181
1.9010871
1.9374607
1.9830439
2.035894
2.093725
2.1534619
2.2128391
2.2674561
2.3161747
2.352263
2.379428
2.3862936
2.3876464
2.2964508
2.2963269
2.2961783
2.2960258
2.2958609
2.2956815
2.2954873
2.2952782
2.295054
2.2948146
2.2945599
2.2942901
2.294005
2.293704
2.2933855
2.2930461
2.2926796
2.2922757
2.2918183
2.291283
2.2906342
2.2898224
2.2887789
2.2874109
2.2856008
2.2832425
2.280274
2.2766395
2.2722357
2.2669162
2.2605139
2.2528401
2.2436769
2.2327798
2.2198823
2.2047067
2.186981
2.1664629
2.1429726
2.1164371
2.086943
2.0548024
2.0206363
1.985466
1.9507289
1.9181125
1.8895409
1.8669645
1.8521674
1.8465664
1.8510784
1.8662153
1.8920934
1.9282309
1.9735224
2.0260048
2.083447
2.1428284
2.2020024
2.2566351
2.3056717
2.342401
2.3704734
2.3785632
2.3813398
2.284055
2.2839466
2.2838172
2.283683
2.2835376
2.2833793
2.2832078
2.2830231
2.2828248
2.2826131
2.2823881
2.2821502
2.2818994
2.2816355
2.2813574
2.2810626
2.2807458
2.2803978
2.2800038
2.279541
2.2789757
2.2782603
2.2773292
2.2760929
2.2744349
2.2722405
2.2694352
2.2659633
2.2617302
2.2565892
2.2503677
2.2428745
2.2338881
2.2231595
2.2104171
2.195377
2.1777602
2.1573161
2.1338564
2.107299
2.0777241
2.0454424
2.0110838
1.9757006
1.9407268
1.9078572
1.8790616
1.8563042
1.8414014
1.8357395
1.8401831
1.8551907
1.8808674
1.9167313
1.9616554
2.0136614
2.0706076
2.1295372
2.1884227
2.2430406
2.2924013
2.3298492
2.3590198
2.36867
2.3731218
2.2690866
2.2689971
2.2688911
2.2687795
2.2686583
2.2685261
2.2683827
2.2682279
2.2680618
2.2678843
2.2676959
2.267497
2.267288
2.2670692
2.2668401
2.2665987
2.266341
2.2660591
2.2657397
2.2653618
2.2648942
2.2642917
2.2634917
2.2624094
2.2609334
2.2589391
2.256332
2.2530549
2.2490264
2.2441007
2.2380993
2.2308276
2.2220603
2.2115433
2.1989991
2.1841371
2.16667
2.1463378
2.1229416
2.0963889
2.0667526
2.0343422
1.9998023
1.9642167
1.9290097
1.8959159
1.8669245
1.844019
1.8290488
1.8233782
1.8278083
1.8427369
1.868245
1.903832
1.948341
1.9997848
2.0561174
2.1145042
2.1730539
2.2276389
2.2773506
2.3156304
2.3460488
2.3575154
2.3638444
2.2522291
2.2521612
2.2520808
2.2519954
2.2519023
2.2518004
2.2516895
2.2515696
2.2514406
2.2513028
2.2511567
2.2510028
2.2508418
2.2506744
2.2505005
2.2503191
2.2501269
2.2499175
2.2496793
2.2493934
2.2490311
2.2485501
2.2478914
2.2469753
2.2456964
2.2439263
2.2415491
2.238495
2.2346918
2.230005
2.2242535
2.2172354
2.2087217
2.1984537
2.1861478
2.1715063
2.1542331
2.1340579
2.1107698
2.084265
2.0546087
2.0221107
1.9874353
1.9516887
1.9162987
1.8830385
1.8538895
1.8308701
1.8158684
1.8102344
1.8147072
1.8296239
1.8550314
1.8904055
1.93456
1.9854824
2.0411892
2.0990044
2.1572325
2.2118259
2.2619039
2.3010143
2.3326959
2.3459529
2.3539818
2.2343094
2.2342651
2.2342123
2.2341557
2.2340936
2.2340251
2.2339502
2.2338688
2.233781
2.233687
2.2335874
2.2334829
2.2333743
2.2332625
2.2331479
2.2330299
2.2329063
2.2327718
2.2326164
2.2324234
2.2321665
2.2318068
2.2312893
2.2305389
2.2294572
2.2279213
2.2257974
2.2229842
2.2194141
2.2149765
2.2094909
2.2027467
2.1945116
2.1845219
2.1724889
2.1581079
2.1410743
2.1211068
2.0979822
2.0715851
2.0419729
2.0094584
1.9747289
1.9388934
1.9034027
1.870047
1.8407788
1.8176611
1.802639
1.7970743
1.8016465
1.8166126
1.8419926
1.8772383
1.9211296
1.9716321
2.0268192
2.0840982
2.1419862
2.1964981
2.2469064
2.2868867
2.3198683
2.3349862
2.3447247
2.2162475
2.2162278
2.2162039
2.2161777
2.2161482
2.216115
2.2160781
2.2160375
2.2159932
2.2159456
2.2158952
2.2158427
2.2157889
2.2157349
2.2156811
2.2156274
2.2155722
2.215511
2.2154353
2.2153302
2.2151719
2.2149246
2.2145375
2.2139405
2.2130418
2.2117257
2.2098575
2.2073052
2.203973
2.1997736
2.1945523
2.1880888
2.1801432
2.1704504
2.1587172
2.144633
2.1278848
2.1081811
2.085287
2.0590759
2.0295985
1.9971724
1.9625047
1.9266972
1.8912286
1.857871
1.8285374
1.8053479
1.7903262
1.7848454
1.7895225
1.8045729
1.8299939
1.865189
1.9088903
1.9590396
2.0137625
2.0705381
2.1281075
2.1828458
2.2338914
2.2748866
2.3090617
2.3254594
2.3363202
2.1989903
2.1989952
2.1990003
2.1990044
2.1990077
2.1990102
2.1990117
2.1990124
2.1990123
2.1990118
2.1990113
2.1990114
2.199013
2.1990167
2.1990232
2.1990322
2.1990424
2.1990499
2.1990471
2.1990203
2.1989481
2.1987974
2.1985212
2.1980545
2.1973117
2.1961845
2.1945436
2.1922498
2.1891711
2.1851978
2.1802088
2.1740146
2.1663632
2.1569782
2.145564
2.1318069
2.1153887
2.0960102
2.0734272
2.0475042
2.0182878
1.986101
1.9516592
1.9160592
1.8807903
1.8475728
1.8182946
1.7951333
1.7801628
1.774761
1.7795528
1.7947308
1.8202173
1.8553668
1.8989005
1.9487528
2.0031184
2.0596823
2.1173321
2.172316
2.2236529
2.2651503
2.2998908
2.3168981
2.3286736
2.1834318
2.1834601
2.1834926
2.1835257
2.1835604
2.1835971
2.1836357
2.1836762
2.183719
2.1837642
2.1838123
2.1838636
2.1839188
2.1839783
2.1840424
2.1841107
2.1841815
2.1842511
2.1843121
2.184352
2.1843504
2.1842769
2.1840874
2.1837216
2.1830997
2.1821205
2.1806613
2.1785839
2.1757465
2.1720146
2.1672487
2.1612799
2.1538902
2.1448081
2.1337268
2.1203289
2.1042933
2.0853162
2.0631489
2.0376517
2.0088708
1.9771345
1.9431409
1.9079966
1.8731845
1.8403511
1.8113696
1.7884194
1.773586
1.7683067
1.7731752
1.7883241
1.8137512
1.8487838
1.8921246
1.9417123
1.9957326
2.0520518
2.1095908
2.1644952
2.2158853
2.2576352
2.2925665
2.3098376
2.3222866
2.1703308
2.1703798
2.1704366
2.1704956
2.1705586
2.1706261
2.1706982
2.1707753
2.1708573
2.1709447
2.1710376
2.1711364
2.1712414
2.1713527
2.1714701
2.1715928
2.1717185
2.1718431
2.1719591
2.1720541
2.1721086
2.1720935
2.1719672
2.1716729
2.1711358
2.1702612
2.168934
2.1670194
2.1643733
2.1608514
2.1563046
2.1505651
2.1434231
2.1346245
2.1238766
2.1108657
2.0952715
2.076791
2.0551731
2.0302787
2.0021552
1.9711315
1.9378904
1.9035328
1.869489
1.8373588
1.8089851
1.7864838
1.7719396
1.7666697
1.7713428
1.786203
1.8113157
1.8460151
1.8889689
1.9380483
1.9916288
2.0476075
2.1050002
2.1599629
2.2114251
2.2529631
2.2872693
2.3042256
2.3164026
2.1602289
2.1602945
2.1603711
2.1604512
2.1605373
2.1606304
2.1607306
2.1608383
2.1609537
2.1610771
2.1612088
2.161349
2.1614978
2.1616549
2.1618197
2.1619908
2.1621655
2.1623389
2.1625032
2.1626455
2.1627465
2.1627779
2.1626995
2.1624569
2.161979
2.1611762
2.1599403
2.1581457
2.1556479
2.1522928
2.1479356
2.1424108
2.1355152
2.1270123
2.1166219
2.1040413
2.0889583
2.07108
2.050171
2.0260888
1.9988812
1.9688699
1.9367298
1.903522
1.8705948
1.8394956
1.8120299
1.7902339
1.7759258
1.7704909
1.7747256
1.7890737
1.8136134
1.8477081
1.8899604
1.9383494
1.9915048
2.0473213
2.1046536
2.1592392
2.2099637
2.2501901
2.2834707
2.2992904
2.3116072
2.1533882
2.1534652
2.1535555
2.1536505
2.1537531
2.1538646
2.1539854
2.1541158
2.1542564
2.1544074
2.1545693
2.1547422
2.1549262
2.1551207
2.155325
2.1555373
2.1557544
2.155971
2.1561786
2.1563643
2.1565087
2.1565837
2.1565501
2.1563549
2.1559291
2.1551866
2.1540235
2.1523196
2.1499416
2.1467496
2.1425366
2.1372143
2.1305772
2.1223881
2.1123906
2.1003054
2.0858435
2.0687233
2.0486979
2.0256541
1.9996421
1.9709654
1.9402667
1.9085396
1.8770586
1.8472911
1.8209807
1.799875
1.7857362
1.7800237
1.7836461
1.7972282
1.8209557
1.854152
1.8954352
1.9430416
1.9956399
2.0511478
2.107901
2.1616138
2.2106482
2.2492191
2.2806353
2.295354
2.3074991
2.1497424
2.1498249
2.1499222
2.1500248
2.1501362
2.1502578
2.1503902
2.1505339
2.1506896
2.1508578
2.151039
2.1512336
2.1514417
2.151663
2.1518966
2.1521407
2.1523922
2.1526457
2.1528928
2.1531208
2.1533108
2.1534354
2.1534564
2.1533223
2.1529658
2.1523026
2.1512316
2.1496369
2.1473868
2.144346
2.1404182
2.135317
2.1288628
2.1210332
2.1114996
2.1000001
2.0862586
2.0700174
2.0510689
2.0293114
2.0047744
1.9777418
1.9487962
1.9188387
1.8890548
1.8608374
1.8356595
1.8151896
1.8011696
1.7950059
1.7978705
1.8105319
1.8332086
1.8651962
1.9052952
1.9519661
2.0039925
2.0588489
2.1146179
2.1663387
2.2131591
2.2492438
2.2785232
2.2921981
2.3042463
2.1489492
2.1490313
2.1491289
2.1492317
2.1493436
2.1494664
2.1496008
2.1497474
2.1499072
2.1500809
2.1502692
2.1504728
2.150692
2.1509269
2.151177
2.1514409
2.151716
2.1519977
2.1522786
2.1525468
2.1527852
2.1529684
2.1530606
2.1530128
2.1527603
2.1522208
2.1512948
2.1498662
2.1478051
2.1449759
2.1412444
2.1364027
2.1304165
2.1229743
2.1139046
2.1030787
2.0902005
2.0750346
2.0573975
2.0371618
2.0143644
1.9892456
1.9623019
1.9343357
1.9064114
1.8797127
1.8556047
1.8357113
1.821629
1.8149534
1.8169783
1.8285892
1.8499964
1.8805613
1.9193671
1.9651156
2.0162453
2.0699018
2.1236482
2.1728223
2.2167622
2.2498032
2.277319
2.2898277
2.3017793
2.1503948
2.1504713
2.1505631
2.1506591
2.1507642
2.15088
2.1510074
2.1511473
2.1513005
2.1514681
2.1516511
2.1518505
2.152067
2.1523011
2.152553
2.1528221
2.1531068
2.1534037
2.1537071
2.1540077
2.1542909
2.1545349
2.1547087
2.1547681
2.1546533
2.1542864
2.1535691
2.1523848
2.150604
2.1480883
2.1446885
2.1403051
2.1347516
2.1278539
2.1195471
2.109502
2.0976164
2.0837048
2.0675655
2.0490767
2.0282482
2.0052515
1.9804963
1.9546467
1.9285592
1.9033139
1.8802003
1.8606735
1.8464582
1.839201
1.840352
1.8507995
1.8707508
1.8998443
1.9373827
1.9819741
2.0316997
2.0834815
2.1344671
2.180375
2.2207576
2.251129
2.2767485
2.2882748
2.3001465
2.1533901
2.1534568
2.1535376
2.1536216
2.1537139
2.1538162
2.1539293
2.1540541
2.1541917
2.1543433
2.1545101
2.1546932
2.1548939
2.1551132
2.155352
2.1556105
2.1558885
2.1561843
2.1564946
2.156813
2.1571293
2.1574269
2.1576815
2.1578572
2.1579039
2.1577527
2.1573145
2.1564791
2.1551159
2.1530824
2.1502256
2.1464105
2.1414958
2.135371
2.1278356
2.1188417
2.1082537
2.0957525
2.0812878
2.0647368
2.0460553
2.0253417
2.0028751
1.9791315
1.9548317
1.9309489
1.9086164
1.8893487
1.8749107
1.8670747
1.8672726
1.8764103
1.8949243
1.9225565
1.9587287
2.0018037
2.0497987
2.0987113
2.1462247
2.188238
2.2251793
2.2530276
2.2770034
2.2875575
2.2993297
2.1572064
2.1572608
2.1573271
2.1573959
2.1574719
2.1575565
2.1576505
2.1577549
2.1578708
2.1579993
2.1581418
2.1582996
2.1584743
2.1586672
2.1588798
2.1591133
2.1593684
2.1596454
2.1599431
2.1602585
2.160586
2.1609152
2.1612297
2.161504
2.1617008
2.1617672
2.16163
2.161193
2.1603373
2.1589231
2.1567965
2.1538047
2.1497961
2.1446628
2.1382774
2.1305407
2.1212994
2.1105197
2.0980296
2.0836158
2.0672474
2.0489184
2.028756
2.0070872
1.9844831
1.9617593
1.9400544
1.9209031
1.9061902
1.8976829
1.8968367
1.9046566
1.9216583
1.9478341
1.9826552
2.0241422
2.0694453
2.1146662
2.1582721
2.1960664
2.2301113
2.255592
2.2780214
2.2876597
2.2993388
2.1612566
2.1612981
2.1613484
2.1614012
2.1614598
2.1615254
2.1615986
2.1616804
2.1617718
2.161874
2.1619882
2.1621158
2.1622583
2.1624175
2.162595
2.1627927
2.1630121
2.1632547
2.1635213
2.1638117
2.1641241
2.1644538
2.1647924
2.165125
2.1654284
2.1656673
2.165791
2.1657289
2.1653871
2.1646475
2.1633704
2.1614037
2.1585906
2.1547912
2.1498773
2.1437482
2.1363262
2.1275355
2.1171647
2.1050847
2.0911609
2.0752656
2.0574012
2.0377143
2.0166165
1.9948584
1.9735932
1.9544636
1.9393527
1.9300896
1.9281024
1.9345327
1.9502202
1.9752884
2.0087921
2.0479394
2.0894417
2.1307803
2.1697782
2.2043184
2.2355042
2.2588141
2.2798398
2.2885902
2.3001675
2.1651017
2.1651313
2.1651669
2.1652049
2.1652472
2.1652948
2.1653483
2.1654085
2.1654761
2.1655523
2.1656381
2.1657349
2.165844
2.1659672
2.1661062
2.1662631
2.1664398
2.1666384
2.1668611
2.1671094
2.1673842
2.1676851
2.1680097
2.1683522
2.1687019
2.1690405
2.1693396
2.1695582
2.1696377
2.1694988
2.1690399
2.1681378
2.1666536
2.1644437
2.1613698
2.1572979
2.1520876
2.1456159
2.137728
2.128243
2.1169131
2.1035116
2.0878818
2.0700108
2.050199
2.0291795
2.0081904
1.9889461
1.9733417
1.9631774
1.9600215
1.9654191
1.9803254
2.0044512
2.0361298
2.0716243
2.1094956
2.1461059
2.181559
2.2127697
2.2414053
2.2627142
2.2824284
2.2903336
2.3018109
2.1685272
2.1685469
2.1685706
2.1685962
2.1686249
2.1686574
2.1686941
2.1687356
2.1687826
2.1688359
2.1688965
2.1689655
2.1690442
2.1691341
2.1692365
2.1693532
2.1694862
2.1696378
2.16981
2.1700052
2.1702262
2.1704753
2.170754
2.1710623
2.1713983
2.1717571
2.1721296
2.1725003
2.1728455
2.1731301
2.173304
2.1732993
2.1730294
2.1723855
2.1712376
2.1694346
2.1668015
2.1631315
2.1581718
2.1516265
2.1431312
2.1323099
2.1188407
2.1026109
2.0838634
2.0634013
2.0425098
2.0229934
2.0066303
1.995583
1.9917648
1.9969097
2.0115477
2.0343595
2.0628035
2.0951127
2.1285405
2.161348
2.1932456
2.2215529
2.2478402
2.267281
2.2857919
2.2928882
2.3042638
2.1714653
2.1714774
2.171492
2.1715079
2.1715258
2.1715462
2.1715693
2.1715956
2.1716255
2.1716599
2.1716996
2.1717449
2.171796
2.1718537
2.1719201
2.1719977
2.1720889
2.1721959
2.172321
2.1724655
2.1726302
2.1728175
2.1730321
2.1732786
2.1735608
2.1738828
2.1742485
2.174661
2.1751235
2.1756374
2.1762007
2.1768098
2.1774494
2.1780839
2.1786431
2.1790042
2.1789695
2.1782462
2.1764542
2.173125
2.1676845
2.159534
2.1482453
2.1336247
2.1158735
2.0958385
2.0748675
2.0547283
2.0377121
2.0264884
2.0230998
2.0288934
2.0429267
2.0636413
2.0888653
2.1175068
2.1469175
2.176196
2.2050469
2.2306725
2.2548037
2.2725169
2.289912
2.2962345
2.3075151
2.1740407
2.1740466
2.1740537
2.1740616
2.1740705
2.1740807
2.1740924
2.174106
2.1741218
2.1741401
2.1741613
2.1741855
2.1742135
2.1742468
2.174287
2.1743351
2.1743916
2.1744569
2.174533
2.1746235
2.174732
2.1748595
2.1750081
2.1751825
2.1753896
2.1756413
2.175951
2.1763314
2.1768007
2.1773854
2.1781187
2.1790495
2.1802265
2.1816827
2.183437
2.1854499
2.1875593
2.1894553
2.1906405
2.1904155
2.1879859
2.1825836
2.1735754
2.1605802
2.1438139
2.1240187
2.1026651
2.0825398
2.0662812
2.056362
2.0545923
2.060438
2.0731571
2.0912009
2.114047
2.1383072
2.1646173
2.1908709
2.2169345
2.2401288
2.2622913
2.2784046
2.2947733
2.3003609
2.3115555
2.1763639
2.1763631
2.1763622
2.1763612
2.1763601
2.1763594
2.1763593
2.17636
2.1763615
2.176364
2.176368
2.1763747
2.1763843
2.1763933
2.1764004
2.1764086
2.1764213
2.1764418
2.1764747
2.1765222
2.1765844
2.1766596
2.1767485
2.1768594
2.1770023
2.177188
2.1774327
2.1777589
2.1781964
2.1787831
2.1795699
2.18063
2.1820466
2.1839112
2.1863176
2.1892876
2.1927337
2.1963759
2.1997024
2.2019737
2.2022067
2.1993615
2.1925541
2.1811657
2.1651432
2.1458648
2.1257425
2.1075979
2.0934108
2.0859526
2.0848286
2.0902149
2.1012965
2.1173957
2.1366167
2.1583743
2.1818565
2.2053523
2.2289398
2.2499235
2.2702907
2.2849311
2.3003569
2.3052489
2.3163766
2.1785328
2.1785239
2.1785134
2.1785023
2.1784904
2.1784775
2.1784635
2.1784488
2.1784336
2.1784178
2.1784015
2.1783848
2.1783677
2.1783504
2.1783334
2.1783173
2.1783039
2.1782956
2.1782934
2.1782998
2.1783203
2.1783569
2.1784083
2.1784796
2.1785806
2.1787215
2.178917
2.1791911
2.1795798
2.18013
2.180892
2.181936
2.1833673
2.1852989
2.1878536
2.1911161
2.1950902
2.1995947
2.2041919
2.2081144
2.2102576
2.2093822
2.2041809
2.1939914
2.1798207
2.1631115
2.1458732
2.1302955
2.1193845
2.113143
2.1121541
2.1176147
2.1275075
2.1412386
2.1583645
2.1776032
2.1985949
2.2196948
2.2410628
2.2600498
2.27879
2.2920791
2.3066429
2.310884
2.3219685
2.1801975
2.1801807
2.1801609
2.1801401
2.1801174
2.1800919
2.1800632
2.1800323
2.1800016
2.179971
2.1799394
2.1799064
2.1798723
2.179837
2.1798002
2.1797625
2.1797243
2.1796867
2.1796515
2.1796228
2.1796054
2.1796038
2.1796197
2.1796539
2.1797168
2.1798276
2.1799999
2.1802468
2.180599
2.1811016
2.1818127
2.1828094
2.184183
2.1860459
2.1885369
2.1917772
2.1957887
2.2004556
2.205416
2.2099383
2.2128732
2.2130135
2.2095073
2.2018828
2.1907083
2.1770205
2.1630564
2.1512764
2.1426653
2.1372247
2.1376987
2.1425288
2.1515466
2.1636606
2.1788513
2.1960679
2.2149439
2.2339161
2.2533137
2.2705053
2.2877746
2.2998299
2.3136086
2.3172418
2.3283155
2.1810284
2.181007
2.180982
2.1809555
2.1809269
2.1808958
2.180862
2.1808253
2.1807858
2.1807438
2.1806993
2.1806526
2.180604
2.1805539
2.180503
2.1804521
2.1804024
2.1803553
2.1803125
2.1802756
2.1802494
2.1802426
2.1802585
2.1802901
2.1803404
2.1804301
2.1805769
2.1807961
2.1811101
2.1815496
2.1821693
2.1830494
2.1842736
2.185945
2.1881596
2.1910096
2.194631
2.1989855
2.2037889
2.2084101
2.2120121
2.2135797
2.2119917
2.2068361
2.198592
2.1884639
2.1783015
2.1697315
2.1626536
2.1597915
2.1611895
2.1656382
2.1737128
2.1847025
2.1984232
2.2139002
2.2309305
2.2480444
2.2656998
2.2812844
2.2972289
2.3081664
2.3212366
2.3243233
2.3354072
2.18044
2.1804208
2.1803982
2.1803744
2.1803486
2.1803205
2.1802901
2.1802573
2.1802222
2.1801847
2.180145
2.1801033
2.1800597
2.1800148
2.179969
2.1799232
2.1798783
2.1798351
2.1797954
2.1797625
2.1797393
2.1797272
2.1797293
2.1797499
2.1797956
2.1798782
2.1800105
2.1802075
2.1804897
2.1808838
2.1814243
2.1821753
2.1832248
2.1846529
2.1865942
2.1891669
2.192453
2.1964825
2.2010917
2.2058917
2.2100721
2.2126832
2.2128078
2.2100859
2.2049445
2.1982851
2.1916466
2.1855672
2.1813621
2.1804565
2.1821589
2.1868049
2.194487
2.2046243
2.2171185
2.2311474
2.2466125
2.2621066
2.2782287
2.2923814
2.3071413
2.3170711
2.3295052
2.3321014
2.3432075
2.1787909
2.1787783
2.1787634
2.1787476
2.1787306
2.1787121
2.1786921
2.1786705
2.1786474
2.1786229
2.1785969
2.1785696
2.1785414
2.1785125
2.1784835
2.1784552
2.1784284
2.1784043
2.1783845
2.1783709
2.1783653
2.1783705
2.1783907
2.1784297
2.1784929
2.1785883
2.1787319
2.1789296
2.1791822
2.1795243
2.1800107
2.1807115
2.1817011
2.18303
2.1847998
2.1871848
2.1903099
2.1942049
2.1987776
2.2036907
2.2083285
2.2118608
2.2135087
2.2130043
2.2105983
2.2071355
2.2034516
2.2001794
2.1985992
2.1989583
2.2016308
2.2066072
2.2140288
2.2235411
2.2350837
2.2479096
2.2620399
2.2761292
2.2909096
2.3037954
2.3175005
2.3265277
2.3383929
2.3405548
2.3517106
2.1763649
2.1763595
2.1763531
2.1763464
2.1763392
2.1763315
2.1763233
2.1763146
2.1763055
2.1762961
2.1762866
2.1762773
2.1762682
2.1762598
2.1762529
2.1762481
2.1762467
2.17625
2.1762595
2.1762775
2.1763065
2.1763495
2.1764106
2.1764932
2.1765995
2.1767353
2.1769137
2.1771556
2.1774931
2.1779509
2.1785349
2.1792885
2.1803066
2.1816834
2.1835239
2.1859549
2.1890887
2.1929822
2.1975872
2.2026458
2.2076528
2.2119265
2.2148631
2.216198
2.2162215
2.2156507
2.2145441
2.2138996
2.2143291
2.2161873
2.219752
2.2251489
2.2325366
2.2416256
2.2524201
2.2642557
2.2772629
2.29014
2.3037555
2.3155162
2.3282895
2.3365103
2.347886
2.3496367
2.3609498
2.1736341
2.1736336
2.173633
2.1736326
2.1736323
2.1736322
2.1736325
2.1736332
2.1736346
2.1736369
2.1736403
2.1736454
2.1736525
2.1736623
2.1736757
2.1736938
2.173718
2.17375
2.173792
2.1738465
2.173916
2.1740044
2.1741183
2.1742659
2.1744493
2.1746838
2.1749954
2.1753818
2.1758461
2.1764282
2.1771736
2.178129
2.1793506
2.1809103
2.1829208
2.1855046
2.1887699
2.1927928
2.1975495
2.2028353
2.2082021
2.2131539
2.2171766
2.2201394
2.2225308
2.2240472
2.2252757
2.2269171
2.2291432
2.2323449
2.2368447
2.2427466
2.2502093
2.2590187
2.2692421
2.280269
2.2923326
2.3041673
2.3167734
2.3275402
2.3395038
2.346997
2.35797
2.3593288
2.3708535
2.170541
2.1705428
2.170545
2.1705477
2.170551
2.170555
2.17056
2.1705663
2.1705741
2.1705837
2.1705958
2.170611
2.1706299
2.1706537
2.1706834
2.1707208
2.1707677
2.1708266
2.1709005
2.1709933
2.1711094
2.1712539
2.1714353
2.171665
2.1719507
2.1723007
2.1727294
2.1732551
2.173902
2.174698
2.1756761
2.1768724
2.1783462
2.1801915
2.1825091
2.1854052
2.1889987
2.1933632
2.1984579
2.2040887
2.209926
2.2154888
2.220484
2.2251265
2.2291968
2.2326505
2.2360583
2.2394891
2.2432879
2.2477575
2.2531547
2.2595824
2.2672114
2.2758609
2.2856532
2.2960226
2.3072985
2.3182399
2.3299765
2.3398697
2.3511378
2.3579669
2.3686263
2.3696186
2.3813883
2.1668029
2.1668063
2.1668106
2.1668156
2.1668216
2.1668289
2.1668378
2.1668486
2.1668618
2.166878
2.1668979
2.1669224
2.1669525
2.1669896
2.1670354
2.167092
2.167162
2.1672486
2.1673557
2.1674881
2.1676517
2.1678538
2.1681046
2.1684129
2.1687893
2.16925
2.1698136
2.1705026
2.17134
2.1723502
2.1735694
2.1750591
2.1768914
2.1791412
2.1819125
2.1853208
2.189468
2.1943861
2.2000124
2.2061654
2.2125432
2.2187583
2.2249977
2.2310046
2.2365728
2.241823
2.2468364
2.251837
2.2570441
2.2626574
2.2689046
2.2758657
2.2837117
2.2922839
2.3017555
2.3115913
2.3222097
2.3323868
2.3433752
2.352506
2.3631707
2.3694254
2.379824
2.3804932
2.3925401
2.1619298
2.1619362
2.1619442
2.1619532
2.1619639
2.1619765
2.1619916
2.1620095
2.162031
2.1620568
2.1620878
2.1621252
2.1621703
2.1622251
2.1622915
2.1623721
2.1624703
2.1625898
2.1627355
2.1629131
2.1631295
2.1633932
2.1637146
2.1641061
2.1645843
2.1651672
2.165872
2.1667223
2.1677526
2.1690081
2.1705403
2.1724115
2.1747005
2.1775037
2.1809269
2.1850676
2.1899845
2.1956507
2.2019881
2.2088048
2.2157902
2.2230982
2.2305716
2.2377957
2.2446617
2.2513064
2.2577774
2.264161
2.2706073
2.2772562
2.2842911
2.2917669
2.2998563
2.3084098
2.3176437
2.3270451
2.3371138
2.3466367
2.3569829
2.3654449
2.3756002
2.3813373
2.3915425
2.3919208
2.4042625
2.1555127
2.1555245
2.1555391
2.1555552
2.1555738
2.1555954
2.1556206
2.15565
2.1556844
2.1557249
2.1557726
2.1558289
2.1558957
2.1559751
2.1560696
2.1561823
2.156317
2.1564784
2.156672
2.1569042
2.1571836
2.1575212
2.1579283
2.1584181
2.1590067
2.1597171
2.1605808
2.1616331
2.1629169
2.1644878
2.1664157
2.1687855
2.171695
2.1752467
2.1795325
2.1846101
2.1904719
2.1970605
2.2042627
2.2118334
2.2199198
2.2284335
2.2368443
2.2451604
2.2532989
2.2612515
2.2690087
2.2766128
2.2841612
2.2917376
2.2994902
2.3074491
2.3157859
2.3243544
2.3334091
2.3424523
2.3520572
2.3610174
2.3708074
2.378699
2.3883982
2.3937064
2.4037399
2.4038898
2.4165059
2.1472198
2.1472396
2.1472637
2.14729
2.14732
2.1473544
2.1473939
2.1474393
2.1474917
2.1475524
2.1476228
2.1477047
2.1478003
2.1479121
2.148043
2.1481954
2.1483746
2.1485888
2.1488432
2.1491428
2.1494962
2.1499162
2.1504192
2.1510233
2.1517505
2.1526301
2.1536998
2.1550087
2.1566197
2.1586117
2.161079
2.1641277
2.1678669
2.1723888
2.1777491
2.1839458
2.1909263
2.1985987
2.2067583
2.2155261
2.2248926
2.2343315
2.2437974
2.2532614
2.2625903
2.2717253
2.2806416
2.2893356
2.2978618
2.3062632
2.3146586
2.3230559
2.3316262
2.3402236
2.3491356
2.3578753
2.3670822
2.3755569
2.384867
2.3922596
2.4015705
2.406517
2.4163999
2.4163294
2.4292892
2.1367263
2.1367565
2.1367929
2.1368325
2.1368773
2.1369284
2.1369864
2.1370525
2.1371275
2.1372123
2.1373079
2.1374186
2.1375508
2.1377051
2.1378796
2.1380795
2.1383128
2.1385859
2.1389064
2.1392836
2.1397279
2.1402529
2.140877
2.1416246
2.142527
2.1436257
2.1449751
2.1466458
2.1487265
2.1513233
2.1545548
2.158539
2.1633762
2.1691186
2.1757692
2.183273
2.1915274
2.2003664
2.2098418
2.2200109
2.2303852
2.2408968
2.251529
2.2621306
2.2725922
2.2828338
2.2928039
2.3024713
2.3118609
2.3209855
2.329942
2.3387208
2.3474932
2.356114
2.3648993
2.3733739
2.382231
2.3902784
2.399164
2.4061331
2.415106
2.4197825
2.4295025
2.4294736
2.4424161
2.123947
2.12399
2.1240409
2.124094
2.1241512
2.124217
2.1242981
2.1243941
2.1244981
2.1246106
2.124738
2.1248847
2.1250534
2.1252477
2.1254718
2.1257307
2.1260295
2.1263745
2.1267742
2.1272413
2.1277911
2.1284431
2.1292234
2.1301664
2.1313184
2.1327402
2.134511
2.1367297
2.1395136
2.142992
2.1472902
2.1525123
2.1587143
2.1658935
2.174012
2.1829353
2.1924887
2.2027603
2.2137584
2.2250729
2.2366138
2.2483687
2.2601706
2.271901
2.2834492
2.2947181
2.3056426
2.3161728
2.3263134
2.3360572
2.3454859
2.3545785
2.363507
2.3721286
2.3807838
2.3890097
2.397544
2.4052102
2.4137101
2.4203093
2.4289678
2.4334374
2.4429813
2.4428545
2.455796
2.1088906
2.1089475
2.1090109
2.1090784
2.1091554
2.1092429
2.1093414
2.1094528
2.109579
2.1097223
2.1098861
2.1100762
2.1102997
2.1105571
2.1108421
2.1111577
2.1115176
2.1119335
2.1124167
2.1129821
2.1136495
2.1144456
2.1154064
2.1165804
2.1180324
2.1198475
2.1221334
2.1250204
2.128655
2.1331869
2.1387411
2.1454059
2.1531982
2.162071
2.1718646
2.1823981
2.1937329
2.2057806
2.2181861
2.2308503
2.2437704
2.2567841
2.2697748
2.2826214
2.2952088
2.3074338
2.3192224
2.3305142
2.3413014
2.3515644
2.3613771
2.3707109
2.3797411
2.3883308
2.3968394
2.4048212
2.4130455
2.4203601
2.4285041
2.434793
2.4431626
2.4475939
2.4569585
2.4575158
2.4712117
2.0913052
2.0913723
2.0914579
2.0915512
2.0916553
2.0917721
2.0919023
2.0920465
2.0922065
2.0923851
2.0925858
2.0928116
2.0930664
2.0933549
2.093683
2.0940581
2.09449
2.0949911
2.095578
2.0962728
2.0971054
2.0981161
2.0993588
2.1009056
2.1028496
2.1053081
2.1084215
2.1123475
2.1172469
2.1232598
2.1304808
2.1389509
2.1485954
2.1593222
2.1709156
2.1834504
2.1967133
2.2103206
2.2242128
2.2383911
2.2526909
2.2669995
2.281192
2.2951412
2.3087284
2.3218478
2.3344201
2.3463814
2.3577158
2.3683999
2.3784994
2.3879907
2.3970494
2.4055517
2.4138706
2.4215828
2.4294805
2.4364466
2.4442328
2.4502348
2.4582963
2.4627732
2.4716907
2.4738992
2.4843043
2.0729294
2.0730152
2.07312
2.0732284
2.0733479
2.0734812
2.0736296
2.0737949
2.0739792
2.0741852
2.0744162
2.0746761
2.0749699
2.0753038
2.0756858
2.0761267
2.0766406
2.0772464
2.0779695
2.0788444
2.0799174
2.0812505
2.0829248
2.0850447
2.0877396
2.0911625
2.0954828
2.100871
2.1074755
2.1153931
2.1246685
2.1352089
2.1469191
2.1596282
2.173264
2.1876231
2.2023393
2.2174266
2.2328631
2.2484655
2.2641108
2.279664
2.2949875
2.3099482
2.3244244
2.338309
2.3515227
2.3640016
2.3757288
2.3866826
2.396928
2.4064506
2.4154265
2.4237572
2.4318104
2.439214
2.4467375
2.453359
2.4607539
2.4665102
2.4742431
2.478742
2.4874069
2.4900666
2.5000417
2.0560682
2.0561642
2.0562813
2.0564022
2.0565351
2.0566829
2.056847
2.0570294
2.0572326
2.0574597
2.0577148
2.0580028
2.0583303
2.0587057
2.0591406
2.0596501
2.060255
2.0609832
2.0618722
2.0629725
2.064351
2.066095
2.0683158
2.0711507
2.0747617
2.0793286
2.0850349
2.0920446
2.1004734
2.1103737
2.1216899
2.1343046
2.1481631
2.1628252
2.1782166
2.1940402
2.2103517
2.2270458
2.2439259
2.2608729
2.2777436
2.2943944
2.3106842
2.326478
2.3416553
2.3561123
2.3697731
2.3825789
2.394515
2.405568
2.4158033
2.4252238
2.4340033
2.4420768
2.4497947
2.4568519
2.4639658
2.4702501
2.4772299
2.4827968
2.4901399
2.4948221
2.5030248
2.5067862
2.5157504
2.0438334
2.0439346
2.0440577
2.0441846
2.0443238
2.0444784
2.0446499
2.0448406
2.0450535
2.0452924
2.0455623
2.0458698
2.0462237
2.0466357
2.0471218
2.0477036
2.0484103
2.0492811
2.0503686
2.051742
2.0534913
2.0557305
2.0585999
2.0622655
2.0669128
2.0727339
2.0799065
2.0885674
2.0987854
2.110538
2.1237172
2.1383209
2.1537163
2.1698651
2.1867371
2.2041743
2.221983
2.2400135
2.2581366
2.2762058
2.2940735
2.3115904
2.3286121
2.3450043
2.3606495
2.3754495
2.3893334
2.4022507
2.414192
2.4251571
2.4352124
2.4443837
2.4528398
2.4605555
2.4678552
2.4745133
2.4811698
2.4871031
2.4936428
2.4990246
2.5059719
2.5107865
2.5186146
2.5228889
2.5315386
2.038052
2.0381533
2.038276
2.0384027
2.0385415
2.0386957
2.038867
2.039058
2.0392724
2.039515
2.0397921
2.0401125
2.0404877
2.0409337
2.0414721
2.0421322
2.0429532
2.0439874
2.0453037
2.046991
2.0491622
2.051956
2.055537
2.0600911
2.0658144
2.0728955
2.0814905
2.091695
2.1035199
2.1168822
2.1317291
2.1475817
2.164229
2.1819122
2.2001629
2.2188204
2.2377628
2.2568427
2.2759096
2.2948092
2.3133846
2.3314813
2.3489535
2.3656694
2.3815165
2.3964037
2.4102657
2.4230631
2.4347952
2.4454732
2.455175
2.4639447
2.4719476
2.4791992
2.4859943
2.4921899
2.4983398
2.5038949
2.5099721
2.5151656
2.5217202
2.5266889
2.534166
2.5391595
2.5475182
2.0410061
2.0411025
2.0412182
2.0413388
2.041471
2.0416179
2.0417818
2.0419657
2.042174
2.0424126
2.0426897
2.0430162
2.0434073
2.0438835
2.0444727
2.0452123
2.0461523
2.0473582
2.0489147
2.0509293
2.0535345
2.0568884
2.0611718
2.0665799
2.0733068
2.081524
2.0913538
2.1028447
2.1159537
2.130578
2.1464748
2.163369
2.1813411
2.1999514
2.2190733
2.2385585
2.2582529
2.2780014
2.2976422
2.3170106