/*--------------------------------*- C++ -*----------------------------------*\
  =========                 |
  \\      /  F ield         | OpenFOAM: The Open Source CFD Toolbox
   \\    /   O peration     | Website:  https://openfoam.org
    \\  /    A nd           | Version:  13
     \\/     M anipulation  |
\*---------------------------------------------------------------------------*/
FoamFile
{
    format      ascii;
    class       volVectorField;
    location    "41.698221";
    object      U;
}
// * * * * * * * * * * * * * * * * * * * * * * * * * * * * * * * * * * * * * //

dimensions      [0 1 -1 0 0 0 0];

internalField   nonuniform List<vector> 
17140
(
(2.2504938e-06 -0.00017241748 3.3617892e-23)
(5.5501929e-06 -0.00053550677 3.7210383e-24)
(7.0886397e-06 -0.00093788505 -2.4548613e-22)
(6.1631841e-06 -0.0013828095 2.6966219e-22)
(1.9360626e-06 -0.0018737451 -3.1494282e-23)
(-6.6812526e-06 -0.0024143577 1.029588e-22)
(-2.1067907e-05 -0.0030084857 1.7309019e-22)
(-4.293496e-05 -0.0036601092 -8.433483e-23)
(-7.4407132e-05 -0.0043733047 -2.7546454e-22)
(-0.00011810492 -0.0051521873 -6.7383692e-22)
(-0.0001772433 -0.006000835 9.9581193e-22)
(-0.00025574769 -0.0069231931 -8.8383028e-22)
(-0.00035838614 -0.0079229528 -1.3465233e-22)
(-0.00049091732 -0.0090033998 7.5659868e-22)
(-0.00066025423 -0.010167225 -8.3409072e-23)
(-0.00087464048 -0.011416289 6.5478992e-22)
(-0.0011438341 -0.012751333 -2.4078291e-23)
(-0.0014792904 -0.014171622 5.3690633e-24)
(-0.0018943299 -0.015674511 3.7272103e-22)
(-0.0024042732 -0.017254926 -4.7463204e-22)
(-0.0030265155 -0.01890474 2.2397088e-22)
(-0.0037805031 -0.020612069 -4.1661662e-23)
(-0.0046875672 -0.022360483 -2.9923697e-22)
(-0.0057705514 -0.024128208 2.8965409e-22)
(-0.0070531625 -0.02588741 4.465637e-22)
(-0.0085589599 -0.027603796 -3.4682036e-22)
(-0.0103099 -0.029236882 -1.6454578e-21)
(-0.012324379 -0.030741535 -1.8727668e-22)
(-0.014614798 -0.032071706 1.5838157e-21)
(-0.017184888 -0.033187348 3.5699555e-22)
(-0.020027385 -0.034064855 1.2242515e-21)
(-0.023123166 -0.034708542 -1.5428613e-21)
(-0.026443177 -0.03515637 3.8381135e-22)
(-0.029953561 -0.03547251 1.7383012e-22)
(-0.033621991 -0.035728702 1.6221323e-21)
(-0.03742178 -0.035987292 -6.7337908e-22)
(-0.041332208 -0.036295724 9.6668144e-22)
(-0.045336725 -0.036690616 6.2658812e-22)
(-0.049421403 -0.037204956 2.7710761e-22)
(-0.053574585 -0.037874433 -8.1712416e-22)
(-0.05778794 -0.038742027 -1.5158723e-21)
(-0.06205859 -0.039861058 -1.3624577e-21)
(-0.066391733 -0.04129746 -5.9320615e-22)
(-0.070807115 -0.04313048 2.8980082e-21)
(-0.075342703 -0.045446035 2.1334056e-21)
(-0.080056736 -0.048331436 -5.2874856e-22)
(-0.085034476 -0.051877212 3.6285486e-21)
(-0.090393097 -0.056165316 1.2442705e-21)
(-0.096282553 -0.061249666 -1.279126e-21)
(-0.10289416 -0.0671263 -3.1553035e-21)
(-0.11045956 -0.07367781 1.9577165e-21)
(-0.11928734 -0.080555906 1.2444432e-21)
(-0.12973846 -0.086972704 -3.2649731e-21)
(-0.14228489 -0.091356714 -1.5516612e-21)
(-0.15730773 -0.090774916 -1.1206067e-21)
(-0.17496232 -0.080333528 8.7655254e-22)
(-0.19475905 -0.052058141 -2.4006702e-21)
(-0.21331041 0.0053297235 -2.0075827e-21)
(-0.22342334 0.10215955 -4.7828043e-22)
(-0.2044693 0.23608222 1.1312967e-21)
(-0.144591 0.36263648 7.3336101e-22)
(-0.072332398 0.42465862 2.3085743e-21)
(-0.0032860533 0.35838401 3.5991055e-22)
(0.1248356 0.084710907 -3.5204327e-21)
(0.35803022 -0.26012791 1.9328057e-21)
(5.692723e-06 -0.00014101314 -9.5721473e-24)
(1.6213438e-05 -0.00043826571 1.2885962e-21)
(2.5706653e-05 -0.00076795714 -1.1460083e-21)
(3.351272e-05 -0.0011327184 3.1216331e-22)
(3.8837225e-05 -0.0015353507 6.4428265e-22)
(4.0632001e-05 -0.0019788295 -1.2296811e-21)
(3.7548616e-05 -0.0024663176 1.2799335e-21)
(2.7894467e-05 -0.0030010059 -1.1244405e-22)
(9.5614943e-06 -0.003586125 3.5028018e-22)
(-2.0056485e-05 -0.0042251334 5.9238264e-24)
(-6.4178658e-05 -0.0049214132 1.1623324e-21)
(-0.00012676274 -0.005678254 -1.8390094e-21)
(-0.00021263523 -0.0064987808 -1.5112128e-22)
(-0.00032764572 -0.0073858444 1.4819346e-21)
(-0.000478837 -0.0083418821 -4.5143574e-22)
(-0.00067462895 -0.0093687445 -2.8386884e-22)
(-0.00092500983 -0.01046748 1.7799575e-21)
(-0.0012417267 -0.011638063 -5.7153003e-21)
(-0.0016384614 -0.012879066 3.5176895e-21)
(-0.0021309721 -0.014187245 -4.131594e-21)
(-0.0027371736 -0.015557049 5.9655716e-21)
(-0.0034771183 -0.016980046 -1.4254426e-21)
(-0.0043728298 -0.018444279 -5.7100163e-22)
(-0.0054479276 -0.019933593 1.8116328e-21)
(-0.0067269673 -0.02142705 -6.3104792e-21)
(-0.0082344101 -0.022898592 -9.1168307e-22)
(-0.0099931338 -0.02431729 4.5659638e-21)
(-0.01202242 -0.025648654 -4.9509736e-21)
(-0.014335443 -0.02685773 6.5685933e-22)
(-0.016936482 -0.027914688 6.2175618e-21)
(-0.019818495 -0.028802942 -6.2011709e-22)
(-0.022962198 -0.029527612 -4.5692907e-21)
(-0.026338095 -0.030119031 -1.1186023e-22)
(-0.029911861 -0.030626301 3.0997672e-21)
(-0.033650964 -0.031103231 -3.2826069e-21)
(-0.037528849 -0.031596415 1.4050062e-21)
(-0.041525299 -0.032142111 -1.5723618e-21)
(-0.045624636 -0.032769882 -4.8043199e-21)
(-0.04981415 -0.033508166 -1.0425778e-21)
(-0.054083781 -0.034389092 -3.9753742e-21)
(-0.058427295 -0.035451987 5.0096028e-21)
(-0.06284451 -0.036745789 4.578614e-21)
(-0.067344032 -0.038330818 7.8390132e-22)
(-0.071949927 -0.040279248 -6.2888916e-21)
(-0.076705718 -0.042669646 3.0008752e-21)
(-0.08167561 -0.045582509 1.050197e-21)
(-0.086950897 -0.049100461 -5.6927798e-22)
(-0.092654033 -0.053297727 -1.7910157e-21)
(-0.098937152 -0.058221221 8.8520216e-22)
(-0.10598754 -0.063859727 -1.6072878e-21)
(-0.11402072 -0.070085832 -9.7735585e-21)
(-0.12330765 -0.076539615 -4.7810434e-22)
(-0.13414096 -0.082426238 2.1483659e-21)
(-0.14686835 -0.086191822 -4.7040264e-21)
(-0.16168831 -0.084996318 4.0611729e-21)
(-0.17845335 -0.074138546 -1.1449921e-20)
(-0.19620572 -0.046205756 -3.0773204e-21)
(-0.21144662 0.009126441 8.9392947e-21)
(-0.21728608 0.099898359 -1.4048701e-21)
(-0.1973104 0.22326027 -1.5632974e-21)
(-0.13862807 0.34134078 -2.4202002e-22)
(-0.061510925 0.40199218 3.1213411e-21)
(0.028267609 0.32531501 -7.0034288e-21)
(0.22071772 0.031217656 -3.3046109e-21)
(0.45471217 -0.3102816 -2.6947025e-21)
(7.3859698e-06 -0.00010835877 -5.2746549e-22)
(2.1475526e-05 -0.00033715783 3.8952531e-22)
(3.491924e-05 -0.00059127386 1.0353759e-22)
(4.707695e-05 -0.0008726826 -9.8091683e-23)
(5.7067706e-05 -0.0011834969 4.7494423e-22)
(6.4044094e-05 -0.001525846 3.5296677e-23)
(6.6716372e-05 -0.0019019316 4.5010737e-22)
(6.2881002e-05 -0.0023143532 4.8413256e-22)
(5.097198e-05 -0.0027659881 -3.9476274e-21)
(2.8517227e-05 -0.0032594653 3.5150952e-21)
(-8.2824171e-06 -0.0037972168 -1.6764879e-21)
(-6.3093563e-05 -0.0043818384 -2.4464381e-21)
(-0.00014082579 -0.0050158673 4.826434e-21)
(-0.00024739469 -0.0057017084 5.9387622e-22)
(-0.0003899212 -0.006441545 -2.2746518e-21)
(-0.00057691698 -0.0072372328 -1.549216e-21)
(-0.00081848984 -0.0080901621 1.7762705e-21)
(-0.0011265326 -0.0090010791 -6.3437021e-21)
(-0.0015149024 -0.0099698568 3.6896163e-21)
(-0.0019995653 -0.010995203 -1.7915152e-21)
(-0.0025986785 -0.012074299 5.9137601e-21)
(-0.0033325742 -0.013202353 1.502467e-21)
(-0.004223595 -0.014372101 -3.053358e-21)
(-0.0052957194 -0.015573267 4.4690127e-21)
(-0.0065739003 -0.016792083 1.7093575e-21)
(-0.0080830301 -0.018011017 -1.9900651e-21)
(-0.0098464398 -0.019208972 -1.0962156e-20)
(-0.011883868 -0.020362348 -4.8099922e-21)
(-0.014208915 -0.021447462 2.3226291e-21)
(-0.016826229 -0.022444749 -2.4108175e-21)
(-0.01972905 -0.023344502 1.4504236e-21)
(-0.022898326 -0.024152292 7.9266795e-21)
(-0.026304802 -0.024890358 -2.5432245e-21)
(-0.029914429 -0.025592275 -7.2546118e-21)
(-0.033695035 -0.026293541 2.2969058e-21)
(-0.03762058 -0.027024739 3.0727902e-21)
(-0.041671476 -0.027810715 -5.0947343e-21)
(-0.045832794 -0.028673745 -1.5004455e-21)
(-0.050092733 -0.029637481 2.5855485e-21)
(-0.054442394 -0.030730206 1.0152351e-21)
(-0.058877024 -0.031987269 -4.8316374e-21)
(-0.063398336 -0.033452878 1.3632648e-21)
(-0.068017196 -0.035181447 1.9820737e-21)
(-0.072760501 -0.037237746 5.3460747e-21)
(-0.077675084 -0.039692887 -1.0298025e-20)
(-0.082827893 -0.042620942 6.7635815e-21)
(-0.088311833 -0.046097364 1.7310424e-21)
(-0.09424813 -0.050190143 6.954145e-21)
(-0.10078155 -0.054942015 8.4473415e-21)
(-0.1080813 -0.06033921 4.3694209e-22)
(-0.11632647 -0.066251927 -1.8143971e-21)
(-0.1257222 -0.072319923 1.3667878e-20)
(-0.13645459 -0.0777585 5.8525443e-21)
(-0.14870032 -0.081055259 6.0581202e-21)
(-0.16241798 -0.079495793 1.9149783e-21)
(-0.17711714 -0.068618183 1.5164323e-20)
(-0.1913572 -0.041554883 -5.4183898e-21)
(-0.20139663 0.011082206 1.1680576e-21)
(-0.20039569 0.095914547 1.2418226e-20)
(-0.17502277 0.20949241 4.4452235e-21)
(-0.11149766 0.3191404 -4.5015444e-21)
(-0.025726005 0.37543879 -1.6477844e-20)
(0.10431666 0.28276382 6.1395836e-21)
(0.34533921 -0.024422264 1.286793e-20)
(0.56600966 -0.35092068 4.1381477e-21)
(7.208452e-06 -7.4782253e-05 1.7670737e-21)
(2.0963576e-05 -0.00023319659 -2.8095648e-21)
(3.4077946e-05 -0.00040960564 1.0152942e-21)
(4.5895599e-05 -0.00060530638 -1.1028963e-22)
(5.5499896e-05 -0.00082170438 2.1786266e-21)
(6.2109276e-05 -0.0010604427 -2.2516327e-21)
(6.4422177e-05 -0.0013232149 3.4110936e-21)
(6.0118965e-05 -0.0016116243 -1.6020836e-21)
(4.7617925e-05 -0.0019270322 -6.0792199e-21)
(2.4456047e-05 -0.0022710214 1.4579241e-21)
(-1.3158329e-05 -0.0026458341 5.5361371e-21)
(-6.8983015e-05 -0.0030534095 -1.6835155e-21)
(-0.0001478715 -0.003495683 -1.1186992e-22)
(-0.00025577162 -0.0039746049 4.3602043e-21)
(-0.00039981851 -0.0044921023 -1.3544425e-20)
(-0.00058853075 -0.0050500416 8.2442022e-21)
(-0.00083201385 -0.0056501703 7.7850851e-23)
(-0.001142149 -0.0062940323 -4.4590558e-21)
(-0.0015327693 -0.0069828442 1.1163487e-20)
(-0.0020198027 -0.0077173237 -5.1826157e-21)
(-0.0026213538 -0.0084974552 -7.5882746e-21)
(-0.0033576881 -0.0093221864 -3.0110858e-21)
(-0.004251071 -0.010189061 1.4562247e-20)
(-0.0053253986 -0.011093811 7.4335068e-21)
(-0.0066055452 -0.012029984 -4.6844417e-21)
(-0.0081163394 -0.012988723 2.6667908e-21)
(-0.0098810777 -0.013958916 -9.7367122e-21)
(-0.011919509 -0.014927984 2.7269788e-21)
(-0.014245315 -0.015883631 -7.1597337e-21)
(-0.016863336 -0.016816637 3.9355804e-21)
(-0.019767178 -0.01772423 -2.3657302e-21)
(-0.022938373 -0.018612512 8.3860017e-21)
(-0.026348509 -0.019495655 -1.1574373e-21)
(-0.029964598 -0.020391682 5.8649839e-21)
(-0.033755539 -0.021317552 -5.363671e-21)
(-0.037696215 -0.022287468 -1.6487459e-21)
(-0.041767794 -0.023314522 1.9634283e-20)
(-0.045955979 -0.024413388 4.952485e-21)
(-0.050249585 -0.025602597 -3.9912722e-21)
(-0.054640415 -0.026906272 3.8512887e-21)
(-0.059124553 -0.02835551 -9.8387438e-22)
(-0.063704651 -0.029989527 -6.1366248e-21)
(-0.068392647 -0.031856551 2.8570239e-22)
(-0.073216889 -0.034013722 2.0944917e-21)
(-0.078225194 -0.036524813 -1.0350957e-21)
(-0.083483989 -0.039458064 5.2663416e-22)
(-0.08908345 -0.042882806 1.5401996e-21)
(-0.095137184 -0.046862884 -2.4104927e-20)
(-0.10177321 -0.051440561 2.7268317e-21)
(-0.1091289 -0.056605443 -2.5492891e-21)
(-0.117327 -0.062234459 2.4110274e-20)
(-0.12647952 -0.067979812 -1.3283294e-20)
(-0.13662752 -0.073084293 -1.0844961e-20)
(-0.14773198 -0.076099078 -1.0243619e-20)
(-0.15946329 -0.074461648 -9.6794682e-21)
(-0.17095365 -0.063983287 -1.4862719e-20)
(-0.18033026 -0.038361574 2.86675e-20)
(-0.1837197 0.011111358 -1.6379856e-20)
(-0.17417366 0.089830248 -2.2834074e-20)
(-0.13833961 0.19382039 1.3515764e-20)
(-0.062263925 0.29515134 4.2637524e-21)
(0.038761892 0.34234418 4.1062083e-21)
(0.22176732 0.23333729 -2.7075696e-20)
(0.48519646 -0.076188197 -2.4527434e-20)
(0.68626933 -0.3793668 4.0409572e-22)
(5.11573e-06 -4.1037186e-05 -1.2450334e-21)
(1.4546388e-05 -0.00012871052 4.1306141e-21)
(2.2949879e-05 -0.00022700951 -3.3657518e-21)
(2.9617814e-05 -0.00033654616 1.2711359e-21)
(3.3718105e-05 -0.00045797859 4.5888532e-22)
(3.4153003e-05 -0.0005920225 -3.9448427e-21)
(2.9522132e-05 -0.0007394058 9.9784653e-22)
(1.8087876e-05 -0.00090103481 2.1159047e-21)
(-2.3036266e-06 -0.0010779313 1.6203286e-22)
(-3.4316637e-05 -0.0012710087 1.3737169e-21)
(-8.1236632e-05 -0.0014813031 -1.9184451e-21)
(-0.00014707868 -0.0017099931 1.3289225e-21)
(-0.00023672305 -0.0019583875 4.8771551e-21)
(-0.00035606604 -0.0022279465 1.413979e-22)
(-0.00051218504 -0.002520311 -3.6861134e-21)
(-0.00071351607 -0.0028373313 -2.5917875e-21)
(-0.00097003857 -0.003181089 2.2107453e-21)
(-0.0012934588 -0.0035539057 -2.0957311e-22)
(-0.0016973789 -0.0039583274 -4.2114918e-21)
(-0.0021974338 -0.0043970726 -5.0584465e-21)
(-0.0028113686 -0.0048729278 5.6779187e-21)
(-0.0035590227 -0.0053885815 5.6080326e-21)
(-0.0044621723 -0.0059463935 -7.3924124e-21)
(-0.0055441728 -0.0065481175 8.9481263e-21)
(-0.0068293247 -0.0071946292 1.5148338e-20)
(-0.0083418782 -0.0078857595 -3.4828806e-20)
(-0.010104588 -0.0086203891 1.8692899e-20)
(-0.012136752 -0.0093969838 -2.6987299e-20)
(-0.014451752 -0.010214676 3.2815325e-20)
(-0.017054396 -0.011074718 -3.5596841e-20)
(-0.019938727 -0.011981608 3.5670756e-20)
(-0.023087151 -0.012942671 -5.790128e-21)
(-0.02647275 -0.013964345 -1.9244434e-20)
(-0.030064442 -0.015049436 1.0383776e-20)
(-0.033832903 -0.016196367 -3.0958493e-21)
(-0.037754382 -0.017402634 -8.5930087e-22)
(-0.041810937 -0.018669064 -1.020653e-20)
(-0.045988822 -0.020002248 -3.2144273e-21)
(-0.050277168 -0.021415234 -3.1543746e-21)
(-0.054667917 -0.022927699 -3.0508744e-21)
(-0.059157234 -0.024566228 1.5380408e-20)
(-0.063747811 -0.0263648 -6.7312234e-21)
(-0.068451512 -0.028365154 -1.0778666e-21)
(-0.073296749 -0.030616699 1.2520697e-20)
(-0.078329924 -0.033176235 6.4196415e-21)
(-0.08361368 -0.036106871 -3.1934373e-21)
(-0.089231241 -0.03947318 -1.1762453e-20)
(-0.095282323 -0.043337515 5.1787492e-21)
(-0.10186899 -0.047746195 -1.5268173e-20)
(-0.10908319 -0.052699304 -8.3469468e-21)
(-0.11697151 -0.058090989 -1.1572882e-20)
(-0.12552458 -0.063600487 -3.0918404e-20)
(-0.13459722 -0.068516105 2.3754499e-20)
(-0.14388312 -0.071470828 -7.5396828e-21)
(-0.15270995 -0.070072661 1.2795266e-20)
(-0.15977185 -0.060409134 1.190783e-20)
(-0.16278689 -0.036580365 3.5710189e-21)
(-0.15806087 0.009046703 3.5197962e-20)
(-0.1359062 0.081034969 9.0641762e-21)
(-0.083927696 0.17525386 -1.8108094e-20)
(0.0088641226 0.26853309 -5.6228734e-21)
(0.1337603 0.30287702 5.6653487e-21)
(0.35945149 0.18030836 1.4487282e-20)
(0.63062172 -0.1206368 2.8432023e-20)
(0.80738069 -0.39449833 -9.3809909e-22)
(1.0871449e-06 -7.5374389e-06 -3.7968012e-21)
(2.1640125e-06 -2.4972757e-05 -1.339185e-21)
(1.4257677e-06 -4.5703078e-05 1.0836463e-21)
(-1.8979816e-06 -6.9647027e-05 3.9992629e-21)
(-8.7205083e-06 -9.6726635e-05 -2.1896099e-21)
(-2.0210521e-05 -0.00012688909 3.1485885e-21)
(-3.7832996e-05 -0.00016010857 -1.3608076e-21)
(-6.3390475e-05 -0.00019639626 -3.2369089e-22)
(-9.9104237e-05 -0.00023581959 1.8288824e-21)
(-0.00014769523 -0.00027852747 3.9334985e-21)
(-0.00021248004 -0.00032478488 1.972539e-22)
(-0.00029748247 -0.00037501898 -6.4307036e-21)
(-0.00040756095 -0.00042987741 8.864383e-21)
(-0.00054854962 -0.00049029967 -1.4249877e-20)
(-0.0007274133 -0.0005576012 3.704184e-21)
(-0.00095241326 -0.00063356857 -7.8215311e-21)
(-0.0012332794 -0.00072056145 9.3844227e-21)
(-0.0015813801 -0.00082161456 -6.0414631e-21)
(-0.0020098794 -0.00094052866 9.4397687e-22)
(-0.0025338616 -0.0010819371 3.785392e-21)
(-0.003170402 -0.0012513319 -9.0791623e-21)
(-0.0039385481 -0.0014550336 1.2620813e-20)
(-0.0048591679 -0.0017000981 -1.3499274e-20)
(-0.0059546077 -0.0019941678 -2.2813439e-21)
(-0.0072480871 -0.0023453053 2.1948467e-20)
(-0.0087627489 -0.0027618833 -2.1756524e-20)
(-0.01052028 -0.0032526379 1.3857614e-20)
(-0.012539022 -0.0038269683 -1.5235385e-20)
(-0.014831626 -0.0044954317 -1.4293702e-21)
(-0.017402637 -0.0052699958 -8.726024e-22)
(-0.020246892 -0.0061629844 5.6180129e-21)
(-0.023347696 -0.0071830529 -3.7326771e-22)
(-0.026679757 -0.0083307227 1.9844745e-20)
(-0.030215121 -0.0095945223 -5.1476107e-21)
(-0.033926958 -0.010954552 -1.4793067e-20)
(-0.037793374 -0.012391209 6.6007994e-21)
(-0.041797503 -0.013892416 -5.2056729e-21)
(-0.045925986 -0.015456077 5.0694577e-21)
(-0.050167865 -0.01708932 2.7433685e-20)
(-0.054514685 -0.018807042 -1.4890173e-20)
(-0.05896203 -0.020631 -3.6134034e-21)
(-0.063511726 -0.022589665 2.0436465e-20)
(-0.06817435 -0.024718048 -1.1624302e-21)
(-0.072976936 -0.027057844 -2.5087683e-21)
(-0.077962004 -0.029659455 -2.7705262e-20)
(-0.083185208 -0.032581628 -6.4738247e-21)
(-0.088718657 -0.035885795 1.0307312e-20)
(-0.094641935 -0.039636016 1.0621685e-20)
(-0.10102194 -0.043887991 1.5213708e-20)
(-0.10789154 -0.048660619 1.8847919e-20)
(-0.11520061 -0.053877439 1.1470584e-20)
(-0.12278793 -0.059261685 1.7898259e-20)
(-0.13027409 -0.064166644 -6.0151495e-21)
(-0.13701814 -0.067323123 3.6444624e-20)
(-0.14192115 -0.066530753 2.1208699e-21)
(-0.14305832 -0.058112224 1.6910584e-21)
(-0.13771056 -0.036594794 2.9214056e-22)
(-0.12073984 0.0045468381 -3.7332295e-20)
(-0.079804881 0.069196278 -1.1856908e-20)
(-0.0084896335 0.15394282 1.5785289e-20)
(0.098809634 0.23815422 2.178572e-20)
(0.25186736 0.25954925 1.265359e-20)
(0.50132258 0.12671308 5.7506735e-21)
(0.77543781 -0.15678852 -3.948247e-20)
(0.92101125 -0.39536251 7.4372114e-21)
(-4.8107588e-06 2.5106467e-05 7.1796342e-22)
(-1.6001891e-05 7.6132845e-05 2.2802211e-21)
(-3.016715e-05 0.00013103375 -5.5012781e-21)
(-4.8182545e-05 0.00019057556 2.0434543e-22)
(-7.1069433e-05 0.00025556771 2.6754151e-21)
(-0.00010010291 0.00032683488 1.1783449e-21)
(-0.00013685117 0.00040520944 8.6925745e-22)
(-0.00018321362 0.00049151369 -1.7109085e-21)
(-0.00024149431 0.00058652935 8.844483e-21)
(-0.00031447816 0.00069095591 -6.6619831e-21)
(-0.00040552195 0.00080535426 3.2168219e-22)
(-0.00051865594 0.00093007333 4.0128749e-21)
(-0.0006586997 0.0010651568 -1.4964062e-20)
(-0.00083139036 0.0012102284 1.4856345e-20)
(-0.0010435228 0.0013643539 -1.9692859e-21)
(-0.0013030988 0.0015258815 -1.2119049e-20)
(-0.0016194813 0.0016922621 1.1319182e-20)
(-0.002003546 0.0018598576 -3.9238827e-21)
(-0.0024678194 0.002023746 7.552956e-21)
(-0.0030265888 0.0021775383 -9.5875721e-21)
(-0.0036959605 0.0023132254 -1.7777227e-20)
(-0.0044938369 0.0024210728 1.7346326e-20)
(-0.0054397709 0.0024895773 2.5010801e-20)
(-0.0065546445 0.0025054853 -4.7392627e-20)
(-0.0078601024 0.0024538492 3.7276615e-20)
(-0.0093776591 0.0023180719 -2.1197807e-20)
(-0.011127397 0.0020798749 5.3452413e-21)
(-0.013126222 0.0017191819 -1.2363454e-20)
(-0.015385733 0.0012141258 1.2354689e-20)
(-0.017909854 0.00054191517 1.6268614e-20)
(-0.020692722 -0.0003180146 -1.0518629e-20)
(-0.023719953 -0.0013776515 -1.694231e-20)
(-0.026969819 -0.0026330417 1.427332e-21)
(-0.030416671 -0.004059721 5.6669834e-22)
(-0.034036967 -0.0056201456 9.6956046e-21)
(-0.037811227 -0.0072773461 -4.035487e-21)
(-0.041723845 -0.0090056278 -1.4189156e-20)
(-0.045761755 -0.010793485 -6.9180284e-21)
(-0.049913612 -0.0126415 1.0293405e-20)
(-0.05417007 -0.014559305 -7.9548693e-21)
(-0.058525422 -0.016563582 6.7197809e-21)
(-0.062979644 -0.018677118 -2.1885091e-21)
(-0.067540882 -0.020927987 -8.5365201e-21)
(-0.072233013 -0.023350038 2.0708155e-20)
(-0.077092128 -0.025988299 1.2402581e-20)
(-0.082163947 -0.02889778 8.2145088e-21)
(-0.087505076 -0.032138632 -2.6184329e-20)
(-0.093168536 -0.0357803 -1.7154111e-20)
(-0.099176518 -0.03989393 -2.0229253e-20)
(-0.10548827 -0.044526809 -3.5383829e-20)
(-0.11193477 -0.049645981 1.213818e-20)
(-0.11816827 -0.055039123 -2.598803e-21)
(-0.12351811 -0.060148092 -1.9837364e-20)
(-0.12692297 -0.063818464 -5.6540265e-20)
(-0.12670989 -0.064069772 -3.5559271e-20)
(-0.12015103 -0.057408864 -1.2993984e-20)
(-0.103564 -0.039067005 -3.4782963e-20)
(-0.068433765 -0.0033111479 2.1517042e-20)
(-0.0075357864 0.05371566 -7.9060531e-22)
(0.080730027 0.1306304 -2.4550181e-20)
(0.20047638 0.20506562 -1.6520785e-20)
(0.37822354 0.21415458 -1.0350526e-21)
(0.64307747 0.075236553 4.8339857e-20)
(0.9162343 -0.18380452 -4.6831703e-21)
(1.0202157 -0.38421457 5.2296972e-21)
(-1.2440268e-05 5.629254e-05 2.8389846e-21)
(-3.957358e-05 0.00017272673 -1.9138081e-21)
(-7.1149505e-05 0.00029992739 2.5841491e-21)
(-0.000108252 0.00043931118 1.4680183e-21)
(-0.00015201283 0.00059240803 -4.0938847e-21)
(-0.000203847 0.00076079827 -3.8188047e-21)
(-0.00026545472 0.00094610809 3.9147258e-21)
(-0.00033885877 0.0011499841 -4.7063267e-22)
(-0.00042647033 0.0013740522 -1.0885465e-22)
(-0.00053115899 0.0016198613 -7.7200003e-21)
(-0.00065633341 0.0018888074 8.443141e-22)
(-0.00080603155 0.0021820354 1.5492788e-20)
(-0.00098502231 0.0025003132 -1.2348213e-20)
(-0.0011989174 0.0028438764 4.2359248e-22)
(-0.0014542924 0.0032122413 8.2067362e-21)
(-0.0017588151 0.003603983 7.0219128e-22)
(-0.0021213765 0.0040164845 -1.774678e-21)
(-0.0025522181 0.0044456584 -7.9357649e-21)
(-0.0030630477 0.0048856533 1.4407425e-20)
(-0.003667127 0.0053285589 -2.5069702e-20)
(-0.0043793149 0.0057641289 5.3408091e-21)
(-0.0052160369 0.0061795437 -3.8739682e-21)
(-0.0061951453 0.0065592304 3.1331187e-21)
(-0.0073356193 0.0068847488 -1.3356235e-22)
(-0.0086570435 0.0071347323 1.7991796e-20)
(-0.010178786 0.007284852 1.7619812e-20)
(-0.011918802 0.0073077776 -3.4254103e-20)
(-0.013892021 0.0071731929 -5.6016967e-21)
(-0.016108405 0.0068482188 1.9099465e-20)
(-0.018570942 0.0062991804 6.6365967e-21)
(-0.021274232 0.0054962985 1.474013e-20)
(-0.024204801 0.004422357 -1.615779e-20)
(-0.027343518 0.0030842457 -6.8646371e-21)
(-0.030669151 0.0015168858 1.5355661e-20)
(-0.034162079 -0.00022574274 -6.1969209e-21)
(-0.037805737 -0.0020892082 -2.9068197e-21)
(-0.041586046 -0.0040333333 7.9823922e-21)
(-0.045490192 -0.006036221 2.0353847e-20)
(-0.049506124 -0.0080911579 6.0748716e-21)
(-0.05362311 -0.010202049 -3.9533992e-21)
(-0.057833385 -0.012380158 -9.3020215e-21)
(-0.062133955 -0.014642342 -9.6317791e-21)
(-0.066529527 -0.017009702 -1.071196e-20)
(-0.071038472 -0.019508359 -2.2626359e-20)
(-0.07568782 -0.022178295 6.3954245e-22)
(-0.080510581 -0.025071916 -9.7038779e-21)
(-0.085542847 -0.02825014 5.3840851e-20)
(-0.090804008 -0.031791837 1.502941e-20)
(-0.096260817 -0.035790236 1.730934e-20)
(-0.10178222 -0.040331529 4.8047804e-20)
(-0.10705391 -0.045442805 -5.600148e-20)
(-0.11149947 -0.05100007 1.2334901e-20)
(-0.11409167 -0.056563821 3.8952995e-20)
(-0.11325657 -0.061129697 4.6363729e-20)
(-0.10654785 -0.062942837 5.7560107e-21)
(-0.090461354 -0.058916946 -1.2607331e-20)
(-0.059464361 -0.044966305 -1.7851843e-20)
(-0.0058408139 -0.015295832 6.5572601e-21)
(0.071446883 0.03541044 -8.6432977e-21)
(0.17153559 0.10482919 7.3327443e-21)
(0.30675762 0.16950784 2.526286e-21)
(0.50580967 0.16614198 1.0627475e-20)
(0.78942458 0.027399381 -5.8973045e-20)
(1.0478105 -0.20097289 4.4285294e-22)
(1.0971132 -0.35917231 -1.7071975e-20)
(-2.1645047e-05 8.5430966e-05 -2.6712253e-21)
(-6.7924652e-05 0.00026301644 -7.1511643e-22)
(-0.00012050409 0.00045783153 7.8532889e-22)
(-0.00018060191 0.00067193766 3.8577147e-21)
(-0.0002495281 0.00090754773 -4.6229973e-21)
(-0.00032886206 0.0011669707 3.9218373e-21)
(-0.00042046327 0.0014526013 1.8721842e-21)
(-0.00052650373 0.0017668885 -1.0014837e-22)
(-0.00064952614 0.0021122859 -1.5751055e-21)
(-0.00079250431 0.0024911826 -8.9377176e-21)
(-0.00095891253 0.0029058109 1.4964524e-20)
(-0.0011528017 0.0033581255 -1.7918197e-20)
(-0.0013788843 0.0038496495 5.2395277e-21)
(-0.0016426267 0.0043812833 7.0756303e-21)
(-0.0019503473 0.0049530718 -1.078646e-20)
(-0.0023093198 0.0055639288 2.1110672e-20)
(-0.0027278763 0.0062113184 -2.537389e-20)
(-0.003215506 0.0068908984 -3.9666999e-22)
(-0.003782942 0.0075961341 -1.4250123e-20)
(-0.0044422236 0.0083178978 5.5874902e-20)
(-0.0052067184 0.0090440732 -1.3349695e-20)
(-0.0060910817 0.0097591888 -5.446216e-20)
(-0.0071111195 0.010444103 2.5349799e-20)
(-0.0082835118 0.011075754 2.9770129e-20)
(-0.0096253385 0.011626975 -7.3592535e-21)
(-0.011153337 0.012066364 -3.7905957e-20)
(-0.01288282 0.012358202 5.6446805e-20)
(-0.014826233 0.012462535 -6.1535532e-20)
(-0.016991409 0.012335879 4.7575964e-20)
(-0.019379892 0.011933639 -8.9310587e-21)
(-0.021985976 0.011216145 1.5028347e-20)
(-0.024797383 0.010159772 2.0899393e-20)
(-0.027797834 0.0087707136 -7.9346024e-21)
(-0.03097045 0.0070915322 -1.9496625e-21)
(-0.034300176 0.0051908628 -2.7581026e-20)
(-0.037774032 0.0031404183 5.0948997e-21)
(-0.041379894 0.00099574603 -1.2789682e-20)
(-0.045105295 -0.0012097356 1.060736e-20)
(-0.048937217 -0.0034611301 -5.9994749e-21)
(-0.052862887 -0.0057560198 -3.9285142e-21)
(-0.056871617 -0.0080998319 -3.3805e-21)
(-0.060956332 -0.010503235 -3.2898237e-21)
(-0.065116614 -0.012980249 2.0240935e-20)
(-0.069363561 -0.015549891 1.619256e-20)
(-0.073712074 -0.018246877 -4.583043e-21)
(-0.078178454 -0.021122106 3.0082503e-21)
(-0.08277288 -0.024239653 -1.2345574e-20)
(-0.087472387 -0.027691538 2.5062459e-20)
(-0.092174478 -0.031600269 2.9411962e-20)
(-0.096635557 -0.036104375 8.5341979e-21)
(-0.10036106 -0.041305956 2.2188907e-20)
(-0.10248926 -0.047195744 -6.9833031e-22)
(-0.10156886 -0.05348667 -1.0440983e-20)
(-0.095448861 -0.059383326 -4.8071607e-20)
(-0.080877126 -0.063348189 2.3105912e-20)
(-0.053609074 -0.062816905 -7.7218949e-21)
(-0.0075277437 -0.053855283 2.2326438e-20)
(0.060834942 -0.030376759 -3.013736e-20)
(0.15124975 0.014390212 1.5431812e-20)
(0.26411928 0.076630512 -3.7986823e-21)
(0.41956218 0.13155134 -2.7833669e-22)
(0.64276645 0.117063 -5.140022e-21)
(0.94680789 -0.013406438 -2.118534e-20)
(1.1582817 -0.20534189 4.52115e-20)
(1.1390511 -0.32488321 -2.8309606e-20)
(-3.2142845e-05 0.00011196171 5.9801705e-21)
(-0.00010027219 0.00034526916 4.1118718e-21)
(-0.00017683249 0.00060174007 -6.4523399e-21)
(-0.00026319851 0.00088404035 1.6979225e-22)
(-0.00036088494 0.0011950234 5.8274828e-21)
(-0.00047166141 0.0015376863 3.0449437e-21)
(-0.00059757249 0.0019151535 -6.4116061e-21)
(-0.00074096441 0.0023306417 1.0517606e-21)
(-0.00090453478 0.002787403 -1.4808186e-20)
(-0.0010913821 0.0032886459 2.8813999e-21)
(-0.0013050625 0.0038374294 7.3748211e-23)
(-0.0015496497 0.0044365241 -1.0552966e-20)
(-0.0018298012 0.0050882345 3.3720209e-20)
(-0.0021508283 0.0057941774 -1.5658429e-20)
(-0.0025187688 0.0065550103 -2.794101e-20)
(-0.0029404604 0.0073701087 2.9630719e-20)
(-0.0034236132 0.0082371883 -3.6282846e-21)
(-0.0039768742 0.0091518787 2.0465079e-20)
(-0.0046098812 0.010107253 1.508456e-20)
(-0.0053332938 0.011093331 -4.7029228e-20)
(-0.0061587901 0.012096569 3.4959746e-20)
(-0.0070990111 0.013099375 -4.5516331e-20)
(-0.0081674232 0.014079654 5.2816904e-21)
(-0.0093780626 0.015010423 -2.1316821e-20)
(-0.010745109 0.015859495 4.5700334e-20)
(-0.012282224 0.016589224 -1.0677719e-20)
(-0.014001595 0.017156356 -2.656834e-20)
(-0.015912656 0.017512109 6.3225217e-20)
(-0.018020589 0.017603016 -2.7019653e-20)
(-0.020324951 0.017373762 -2.862287e-20)
(-0.022819143 0.016774154 2.3198124e-20)
(-0.025491572 0.015772074 3.0478691e-21)
(-0.028328586 0.014370012 -1.4851976e-20)
(-0.031317694 0.012614527 7.9615366e-21)
(-0.034448889 0.010586303 -1.1843653e-20)
(-0.037713437 0.0083736401 4.0223013e-20)
(-0.041101673 0.0060482123 -2.050806e-20)
(-0.044601612 0.0036561846 -1.202516e-20)
(-0.04819901 0.001221715 -2.4241275e-20)
(-0.051878437 -0.00124571 -3.2959951e-21)
(-0.055625278 -0.0037452945 2.5238342e-20)
(-0.059426939 -0.0062812138 -1.0177108e-20)
(-0.063276172 -0.0088601741 -1.5053163e-20)
(-0.067174617 -0.011494428 -2.2791322e-21)
(-0.071121036 -0.014213961 1.5158816e-20)
(-0.075109998 -0.017068397 1.3520539e-20)
(-0.079118193 -0.020127416 -4.1573464e-20)
(-0.083067858 -0.023500827 -2.2216748e-20)
(-0.086768033 -0.027349989 -4.8566131e-20)
(-0.089829491 -0.031869144 -1.7117356e-20)
(-0.091517529 -0.037262596 -6.6465769e-21)
(-0.090610171 -0.0436497 -4.806048e-20)
(-0.085148755 -0.050911052 -1.7995636e-20)
(-0.072327361 -0.058476611 5.9049309e-20)
(-0.048103222 -0.065013446 -4.38425e-20)
(-0.0075721071 -0.068226255 3.68678e-20)
(0.053985562 -0.064080801 -1.4360925e-20)
(0.13810396 -0.045717795 5.7088715e-20)
(0.24468691 -0.0063276807 2.272004e-20)
(0.37593655 0.048720435 -7.3531224e-21)
(0.55507233 0.093872579 -1.2968331e-20)
(0.80973832 0.072886547 -3.0258279e-20)
(1.107099 -0.042432557 -3.6228482e-21)
(1.2251506 -0.19664387 -6.5106486e-21)
(1.1579609 -0.28315022 3.6312871e-20)
(-4.3614246e-05 0.0001353971 1.0870336e-22)
(-0.00013564531 0.00041796785 -7.7329396e-21)
(-0.00023844139 0.00072900282 9.111993e-21)
(-0.00035356544 0.0010717173 4.3825069e-21)
(-0.000482754 0.0014495518 -8.7713212e-21)
(-0.00062798906 0.0018661378 -2.8385345e-21)
(-0.00079152293 0.0023252778 1.3751642e-20)
(-0.00097589863 0.0028309075 -1.4778481e-20)
(-0.0011839906 0.0033870341 -3.1124996e-21)
(-0.0014190426 0.0039976511 -1.2356252e-20)
(-0.0016847107 0.0046666223 3.2729548e-20)
(-0.0019851058 0.005397529 3.9746536e-22)
(-0.00232484 0.0061934739 -2.9195823e-20)
(-0.0027090715 0.0070568359 3.120171e-20)
(-0.0031435495 0.0079889677 -2.2217871e-20)
(-0.0036346564 0.0089898334 -8.1875331e-21)
(-0.0041894443 0.010057583 1.6980846e-20)
(-0.0048156636 0.011188065 -1.5194967e-20)
(-0.0055217776 0.012374285 -2.0041187e-20)
(-0.0063169588 0.013605816 4.1904134e-22)
(-0.0072110546 0.014868197 3.0891553e-20)
(-0.0082145104 0.01614232 -1.8862361e-20)
(-0.0093382269 0.017403853 1.0368139e-20)
(-0.01059332 0.01862271 4.9403735e-20)
(-0.011990739 0.019762596 1.6290133e-20)
(-0.013540683 0.020780617 -4.356179e-20)
(-0.015251769 0.021627013 4.2931783e-21)
(-0.017129918 0.022245175 -4.7789447e-20)
(-0.019177094 0.022572497 2.7876207e-20)
(-0.021390237 0.022543374 -1.4540719e-20)
(-0.023761149 0.022096683 2.0766231e-20)
(-0.026278167 0.021190007 4.9941553e-21)
(-0.028929606 0.019818753 -2.4544985e-20)
(-0.031707033 0.018029197 2.4706068e-20)
(-0.03460569 0.015910593 3.5422699e-20)
(-0.037621679 0.013566435 -3.2551042e-21)
(-0.04074837 0.011085019 -3.6171379e-20)
(-0.043974499 0.0085265412 4.5267599e-20)