/*--------------------------------*- C++ -*----------------------------------*\
  =========                 |
  \\      /  F ield         | OpenFOAM: The Open Source CFD Toolbox
   \\    /   O peration     | Website:  https://openfoam.org
    \\  /    A nd           | Version:  13
     \\/     M anipulation  |
\*---------------------------------------------------------------------------*/
FoamFile
{
    format      ascii;
    class       volVectorField;
    location    "15.698792";
    object      U;
}
// * * * * * * * * * * * * * * * * * * * * * * * * * * * * * * * * * * * * * //

dimensions      [0 1 -1 0 0 0 0];

internalField   nonuniform List<vector> 
17140
(
(3.9299661e-07 -0.0001066889 1.5977601e-23)
(-2.2926756e-05 -0.00033065732 1.7813165e-24)
(-8.0088574e-05 -0.00057703834 -1.1690389e-22)
(-0.00018430683 -0.00084612781 1.2846269e-22)
(-0.0003477789 -0.0011379076 -1.5011858e-23)
(-0.00058701335 -0.0014521202 4.9210242e-23)
(-0.00092229496 -0.0017881956 8.290125e-23)
(-0.001378061 -0.0021451897 -4.0207876e-23)
(-0.0019836581 -0.0025217197 -1.3202203e-22)
(-0.0027740686 -0.0029158988 -3.2391374e-22)
(-0.0037906464 -0.0033252728 4.7889489e-22)
(-0.00508181 -0.0037467642 -4.2603192e-22)
(-0.0067036593 -0.0041766331 -6.5620042e-23)
(-0.0087204207 -0.0046104669 3.6523252e-22)
(-0.011204622 -0.0050432111 -4.0539351e-23)
(-0.014236868 -0.0054692684 3.1733657e-22)
(-0.01790508 -0.0058826788 -1.1189744e-23)
(-0.022303046 -0.0062774179 3.1386851e-24)
(-0.027528166 -0.0066478279 1.8142385e-22)
(-0.033678344 -0.0069892041 -2.2839357e-22)
(-0.040848118 -0.0072985214 1.0874663e-22)
(-0.049124463 -0.0075752474 -1.8518072e-23)
(-0.058583391 -0.0078220963 -1.3971267e-22)
(-0.069287418 -0.0080454022 1.3495461e-22)
(-0.081284767 -0.0082546506 2.0378993e-22)
(-0.094630961 -0.0084610734 -1.4717544e-22)
(-0.10944769 -0.0086757638 -6.9292572e-22)
(-0.12557199 -0.008902662 -8.5472472e-23)
(-0.14318946 -0.0091480305 6.519617e-22)
(-0.16263225 -0.009431035 1.5987346e-22)
(-0.18372833 -0.009761556 5.6456559e-22)
(-0.20653733 -0.010151522 -7.3704615e-22)
(-0.23114383 -0.010610932 2.0503052e-22)
(-0.25757125 -0.011142938 9.5517924e-23)
(-0.28585091 -0.011750091 1.0406197e-21)
(-0.31597132 -0.012432387 -4.580449e-22)
(-0.3478771 -0.013186412 7.6121712e-22)
(-0.38145573 -0.014006465 5.5324413e-22)
(-0.41652348 -0.014884045 2.7649385e-22)
(-0.4528207 -0.015802766 -8.6081667e-22)
(-0.49002401 -0.016740199 -1.7515546e-21)
(-0.52777088 -0.017676618 -1.6872197e-21)
(-0.56569823 -0.018587809 -7.7186377e-22)
(-0.60348811 -0.019448914 4.1242606e-21)
(-0.64092173 -0.020238707 3.2135635e-21)
(-0.67794419 -0.02093689 -8.3141344e-22)
(-0.7147014 -0.021529267 5.9690786e-21)
(-0.75176996 -0.022016172 2.1695385e-21)
(-0.7886923 -0.022426339 -2.3498111e-21)
(-0.82467923 -0.022679026 -6.0888514e-21)
(-0.85911682 -0.022692898 3.943763e-21)
(-0.8909916 -0.022410621 2.614681e-21)
(-0.91903339 -0.02174263 -7.0036783e-21)
(-0.94176116 -0.020583304 -3.3955374e-21)
(-0.95757746 -0.018829331 -2.4530979e-21)
(-0.96357711 -0.016359626 1.9327377e-21)
(-0.96247917 -0.012959343 -5.0898367e-21)
(-0.94414 -0.0083232137 -4.0870697e-21)
(-0.90570076 -0.0025352275 -9.2250942e-22)
(-0.83454097 0.004071508 2.1719783e-21)
(-0.71543447 0.010096868 1.1825665e-21)
(-0.53174225 0.01222998 2.1034036e-21)
(-0.2935912 0.010353174 -7.4848139e-24)
(-0.044195071 0.0049665327 1.7868882e-21)
(0.19985174 -0.0012278903 -1.9855559e-21)
(-1.6422083e-05 0.00037421774 -4.6683659e-24)
(-7.4370422e-05 0.0011515168 6.1683631e-22)
(-0.00016908071 0.0020011096 -5.4922067e-22)
(-0.00031375325 0.0029276288 1.4945956e-22)
(-0.00052066349 0.0039356777 3.0928405e-22)
(-0.0008063031 0.0050293327 -5.9140342e-22)
(-0.0011908697 0.0062119339 6.1575332e-22)
(-0.0016986262 0.0074857786 -5.4177871e-23)
(-0.0023586365 0.0088517354 1.6914319e-22)
(-0.0032054683 0.010308787 3.129498e-24)
(-0.0042799046 0.011853501 5.6340428e-22)
(-0.005629613 0.013479431 -8.9112713e-22)
(-0.0073097403 0.015176462 -7.3498463e-23)
(-0.0093833389 0.016930136 7.2107284e-22)
(-0.011921532 0.018720997 -2.1881353e-22)
(-0.015003293 0.020524033 -1.377338e-22)
(-0.018714701 0.022308325 8.6995519e-22)
(-0.023147537 0.024037034 -2.7858696e-21)
(-0.0283971 0.025667931 1.7102731e-21)
(-0.034559198 0.027154696 -2.0088421e-21)
(-0.041726418 0.028449327 2.8800572e-21)
(-0.049984092 0.029506045 -6.7962617e-22)
(-0.059407077 0.030287169 -2.6596501e-22)
(-0.070057489 0.030771235 8.4934272e-22)
(-0.081984106 0.030962295 -2.8511123e-21)
(-0.095242782 0.030895778 -4.3062882e-22)
(-0.10995411 0.030634676 1.8989436e-21)
(-0.12597376 0.030268721 -2.0397218e-21)
(-0.14346453 0.029848632 2.3090801e-22)
(-0.16275119 0.029245305 2.6545161e-21)
(-0.18368588 0.028472902 -2.5582042e-22)
(-0.20630773 0.027554313 -2.2201315e-21)
(-0.23070836 0.026485705 -9.3392495e-23)
(-0.25690588 0.025275317 1.7853726e-21)
(-0.28492487 0.023914478 -2.0688412e-21)
(-0.3147496 0.02238704 1.0065879e-21)
(-0.34631683 0.020676679 -1.1779704e-21)
(-0.37950623 0.018767621 -4.1582028e-21)
(-0.41412859 0.016649074 -1.0417818e-21)
(-0.44992112 0.014331087 -4.2772307e-21)
(-0.48655601 0.011845482 5.7199093e-21)
(-0.52367296 0.0092472588 5.7624279e-21)
(-0.56091936 0.00661607 1.1362324e-21)
(-0.59798017 0.0040465022 -8.7296039e-21)
(-0.63461926 0.0016438134 4.5876116e-21)
(-0.67071378 -0.0004685901 1.7204651e-21)
(-0.70620867 -0.0021734104 -9.0889949e-22)
(-0.74129468 -0.0035545943 -3.1033529e-21)
(-0.77580267 -0.0050060042 1.61392e-21)
(-0.80910589 -0.0064992814 -3.0990445e-21)
(-0.84058429 -0.0079821066 -1.9531595e-20)
(-0.86937946 -0.0094892289 -9.5912399e-22)
(-0.89429718 -0.010975213 4.5534656e-21)
(-0.91389673 -0.012402449 -1.0401938e-20)
(-0.92672917 -0.013745883 8.9937e-21)
(-0.93102217 -0.014454164 -2.5522212e-20)
(-0.92477556 -0.015198152 -7.1675408e-21)
(-0.90382153 -0.016589543 1.9280627e-20)
(-0.86106263 -0.019253481 -3.1225839e-21)
(-0.78462422 -0.025134084 -2.9579621e-21)
(-0.65853596 -0.036029576 -4.2678031e-22)
(-0.46536998 -0.051472655 3.1182832e-21)
(-0.21560296 -0.062493046 -2.2426664e-22)
(0.044462516 -0.067523353 9.3538025e-22)
(0.29506012 -0.063014176 2.5912325e-21)
(-5.9700217e-05 0.00084976708 -2.5733397e-22)
(-0.00020683819 0.0026173869 1.901299e-22)
(-0.00039793262 0.0045512281 5.0641423e-23)
(-0.00064622182 0.0066609824 -4.7898162e-23)
(-0.00096398769 0.0089559092 2.3268934e-22)
(-0.0013675292 0.011444017 1.7621726e-23)
(-0.0018766474 0.014131578 2.2141123e-22)
(-0.0025149631 0.017022467 2.3876038e-22)
(-0.0033106006 0.020117332 -1.9418742e-21)
(-0.0042968346 0.023412631 1.7311505e-21)
(-0.0055127459 0.026899513 -8.2632535e-22)
(-0.0070038382 0.030562575 -1.2094163e-21)
(-0.0088225871 0.034378514 2.3858954e-21)
(-0.011028837 0.038314755 2.9587854e-22)
(-0.013689962 0.04232815 -1.1254855e-21)
(-0.016880674 0.046363922 -7.6812872e-22)
(-0.020682357 0.050355075 8.8002965e-22)
(-0.025181795 0.054222579 -3.1432563e-21)
(-0.030469193 0.057876736 1.8171601e-21)
(-0.03663544 0.061220231 -8.8593523e-22)
(-0.04376872 0.064153505 2.8899963e-21)
(-0.051950855 0.066583225 7.3076046e-22)
(-0.061254448 0.068434658 -1.4529676e-21)
(-0.071741187 0.069668263 2.1035388e-21)
(-0.083461584 0.07029814 8.175837e-22)
(-0.096471755 0.070403417 -8.3096443e-22)
(-0.11088781 0.070120142 -4.6539419e-21)
(-0.12661723 0.069630418 -2.0722093e-21)
(-0.14375794 0.069044656 8.8129896e-22)
(-0.16261953 0.068130718 -1.1044259e-21)
(-0.18312299 0.066926961 5.6630259e-22)
(-0.20524595 0.065492333 3.7844587e-21)
(-0.22909909 0.063823913 -1.3035112e-21)
(-0.25468993 0.061935436 -4.1777973e-21)
(-0.28202386 0.059817983 1.3186903e-21)
(-0.31107204 0.05743898 2.1190011e-21)
(-0.34175296 0.054760069 -3.9609633e-21)
(-0.37392438 0.051747287 -1.3697352e-21)
(-0.40737714 0.048375951 2.4449868e-21)
(-0.4418329 0.044650052 1.030216e-21)
(-0.47695436 0.040617078 -5.5465474e-21)
(-0.51238583 0.036372761 1.5016135e-21)
(-0.54778339 0.03204934 2.5157305e-21)
(-0.58282821 0.02779608 7.4855475e-21)
(-0.61723453 0.02376861 -1.4996529e-20)
(-0.65074916 0.020121728 1.0451665e-20)
(-0.6830655 0.017000671 2.9582745e-21)
(-0.71373664 0.01434949 1.1903746e-20)
(-0.7425884 0.01173512 1.523114e-20)
(-0.7692704 0.0090693357 8.6700816e-22)
(-0.79321397 0.0063551968 -3.7914048e-21)
(-0.81387921 0.0034396665 2.7853093e-20)
(-0.83041761 0.00018775115 1.2369757e-20)
(-0.84154075 -0.0033879954 1.310253e-20)
(-0.8457576 -0.007229554 4.3743371e-21)
(-0.84123609 -0.011130365 3.3970121e-20)
(-0.82595247 -0.015750527 -1.339315e-20)
(-0.79666713 -0.022635673 3.8553501e-21)
(-0.74592564 -0.033838223 3.0028361e-20)
(-0.6624295 -0.052286819 1.0504974e-20)
(-0.53031895 -0.080603108 -9.3513804e-21)
(-0.32910113 -0.11451449 -1.6826179e-20)
(-0.07021634 -0.13408996 2.3075824e-22)
(0.19097252 -0.13699869 -4.2657362e-21)
(0.43378804 -0.12041012 -2.7194153e-21)
(-0.00012845133 0.0013047213 8.8990285e-22)
(-0.00041701406 0.0040203961 -1.4154527e-21)
(-0.00076110909 0.006992953 5.1185431e-22)
(-0.0011737052 0.010237191 -5.5564861e-23)
(-0.0016671669 0.013767114 1.1010582e-21)
(-0.0022574386 0.017594869 -1.1378111e-21)
(-0.0029636424 0.021729994 1.7275638e-21)
(-0.0038083316 0.026178427 -8.0992244e-22)
(-0.004818092 0.030941269 -3.0839967e-21)
(-0.0060240986 0.036013333 7.383905e-22)
(-0.007462686 0.041381482 2.8150792e-21)
(-0.0091758832 0.047022745 -8.5509639e-22)
(-0.011211894 0.052902295 -5.5278116e-23)
(-0.013625448 0.058971362 2.225755e-21)
(-0.016477955 0.065165249 -6.9081248e-21)
(-0.019837365 0.071401688 4.2012792e-21)
(-0.023777617 0.077579886 4.0302354e-23)
(-0.028377586 0.08358071 -2.268422e-21)
(-0.033719417 0.089268629 5.6641855e-21)
(-0.039886212 0.094496189 -2.6106458e-21)
(-0.046959173 0.09911198 -3.8027614e-21)
(-0.055014532 0.10297327 -1.5130219e-21)
(-0.064121225 0.10596452 7.1210188e-21)
(-0.07434002 0.10802229 3.6032419e-21)
(-0.085723794 0.10916326 -2.125172e-21)
(-0.098328455 0.10950322 1.2513649e-21)
(-0.11225956 0.10924777 -4.1748313e-21)
(-0.12750579 0.10866756 1.1629206e-21)
(-0.14404801 0.10794033 -3.0122269e-21)
(-0.16219601 0.10674858 1.6658363e-21)
(-0.18200169 0.10514208 -1.1121154e-21)
(-0.20332382 0.10321888 4.0581584e-21)
(-0.22629241 0.10097732 -5.7002796e-22)
(-0.25090309 0.098425557 3.3964384e-21)
(-0.27713576 0.095552925 -3.3618814e-21)
(-0.30493551 0.092316895 -1.2878685e-21)
(-0.33419656 0.088661317 1.5094706e-20)
(-0.36474919 0.084532739 4.3414731e-21)
(-0.39635217 0.079897737 -3.7204095e-21)
(-0.42870371 0.074762776 3.9137867e-21)
(-0.46146111 0.069200197 -1.1390672e-21)
(-0.49427757 0.063349335 -7.2922215e-21)
(-0.52681685 0.057387283 3.446022e-22)
(-0.55874499 0.051499455 2.968782e-21)
(-0.58971469 0.045862467 -1.2855653e-21)
(-0.61934649 0.040625169 1.0537911e-21)
(-0.64716941 0.035888733 2.6183973e-21)
(-0.67259005 0.03163011 -4.0433933e-20)
(-0.6950898 0.027598776 4.6944388e-21)
(-0.71427491 0.023609103 -4.6849313e-21)
(-0.7296099 0.019587811 4.6407634e-20)
(-0.74052522 0.015386134 -2.6598383e-20)
(-0.74642803 0.010819045 -2.2713727e-20)
(-0.74665631 0.005646571 -2.2308153e-20)
(-0.73976885 -0.00028163911 -2.1879076e-20)
(-0.72378873 -0.0067301065 -3.4332621e-20)
(-0.69685404 -0.014489757 6.7925821e-20)
(-0.65677189 -0.025971732 -4.0716847e-20)
(-0.59681281 -0.044602192 -5.7725617e-20)
(-0.5067328 -0.074683314 3.8167173e-20)
(-0.3699137 -0.12032013 9.1256355e-21)
(-0.16231873 -0.17327071 2.7687929e-21)
(0.098248676 -0.20092687 -5.4115166e-21)
(0.34966063 -0.19979391 5.7433818e-21)
(0.57089642 -0.17064093 -3.0157106e-22)
(-0.0002198571 0.0017236737 -6.5363693e-22)
(-0.00069651667 0.0053133233 2.1695844e-21)
(-0.0012441504 0.0092445792 -1.7687101e-21)
(-0.0018753869 0.013537381 6.6842385e-22)
(-0.0026027095 0.018210599 2.4171109e-22)
(-0.0034416079 0.023280814 -2.0784479e-21)
(-0.004410321 0.028761327 5.2475602e-22)
(-0.0055300089 0.034660883 1.1158943e-21)
(-0.0068252426 0.040982065 8.5136966e-23)
(-0.0083244418 0.047719429 7.2573338e-22)
(-0.01006033 0.054857314 -1.0152419e-21)
(-0.01207036 0.062367381 7.0313073e-22)
(-0.014397092 0.070205923 2.5873063e-21)
(-0.017088487 0.078311066 7.7810868e-23)
(-0.020198035 0.086600041 -1.9511447e-21)
(-0.023784666 0.094966852 -1.3730124e-21)
(-0.027912353 0.10328076 1.1732115e-21)
(-0.03264931 0.11138616 -1.0587164e-22)
(-0.038066733 0.11910476 -2.2133692e-21)
(-0.044237032 0.1262409 -2.6579407e-21)
(-0.051231655 0.13259153 2.9549897e-21)
(-0.059118778 0.13796227 2.8857569e-21)
(-0.067961666 0.14219133 -3.7351712e-21)
(-0.077818755 0.14518209 4.4374136e-21)
(-0.088744705 0.14694075 7.3805173e-21)
(-0.10079405 0.14760488 -1.615569e-20)
(-0.11405385 0.14743545 8.2838886e-21)
(-0.12861511 0.14676876 -1.1684389e-20)
(-0.14429966 0.14587959 1.3902793e-20)
(-0.16145291 0.14455959 -1.5527563e-20)
(-0.18030416 0.14265411 1.6294179e-20)
(-0.20053912 0.14028838 -2.697723e-21)
(-0.22229865 0.13750847 -1.0086848e-20)
(-0.24556625 0.13431936 5.8918875e-21)
(-0.27029597 0.13070513 -1.891392e-21)
(-0.29640572 0.12661663 -5.1662106e-22)
(-0.32375575 0.12198442 -7.8442252e-21)
(-0.35214178 0.11673818 -2.8769572e-21)
(-0.3812927 0.11083955 -3.18142e-21)
(-0.41088845 0.10431076 -3.1211003e-21)
(-0.44059057 0.097259365 1.6780245e-20)
(-0.47006955 0.089867398 -7.8272901e-21)
(-0.49899625 0.082343834 -1.589571e-21)
(-0.52701035 0.074888081 1.6605522e-20)
(-0.55369854 0.067679028 9.2442527e-21)
(-0.57858133 0.060860728 -4.7628874e-21)
(-0.60111241 0.054522809 -1.862394e-20)
(-0.62069835 0.048649239 8.5673363e-21)
(-0.63679075 0.043013473 -2.6179726e-20)
(-0.64888994 0.037474721 -1.5132314e-20)
(-0.65636902 0.031966583 -2.2136954e-20)
(-0.65843416 0.026378395 -6.1572948e-20)
(-0.65438035 0.020455328 4.9294845e-20)
(-0.6434692 0.013854245 -1.6451118e-20)
(-0.62481624 0.0062455716 2.8989637e-20)
(-0.59697422 -0.0024048347 2.7605204e-20)
(-0.55766226 -0.012729678 1.090273e-20)
(-0.50542854 -0.027797564 9.5641911e-20)
(-0.43445753 -0.052505107 2.3979232e-20)
(-0.33594937 -0.092883995 -4.8613126e-20)
(-0.19249284 -0.15563294 -1.5196121e-20)
(0.023846037 -0.22664859 4.3334614e-21)
(0.27749351 -0.26034385 6.1922382e-22)
(0.50850627 -0.25321719 -5.0403463e-21)
(0.69500838 -0.21115242 1.1906724e-21)
(-0.00032950955 0.0020923666 -2.0927345e-21)
(-0.0010319438 0.0064523942 -7.3932952e-22)
(-0.0018239937 0.011230244 5.967181e-22)
(-0.0027179348 0.016450975 2.2073331e-21)
(-0.0037264325 0.022138408 -1.2099714e-21)
(-0.0048644861 0.028313872 1.740369e-21)
(-0.0061493403 0.034995007 -7.526516e-22)
(-0.007600558 0.042194256 -1.793664e-22)
(-0.0092403786 0.049916976 1.0130511e-21)
(-0.011094009 0.058159205 2.1810577e-21)
(-0.01318994 0.066905039 1.1210616e-22)
(-0.015560225 0.07612364 -3.5677182e-21)
(-0.01824074 0.085765931 4.9245344e-21)
(-0.021271373 0.095761079 -7.9100152e-21)
(-0.024696111 0.106013 2.0543868e-21)
(-0.028562985 0.11639718 -4.3445076e-21)
(-0.032923804 0.1267584 5.1933457e-21)
(-0.037833633 0.13690997 -3.337901e-21)
(-0.043349962 0.14663549 5.1371709e-22)
(-0.049531553 0.15569449 2.0609768e-21)
(-0.056437044 0.16383339 -4.9205184e-21)
(-0.064123546 0.17080401 6.7468489e-21)
(-0.072645842 0.17639177 -7.1136671e-21)
(-0.082057384 0.18045481 -1.2336034e-21)
(-0.092412554 0.18297133 1.1020502e-20)
(-0.10376765 0.18407928 -1.0580148e-20)
(-0.11619489 0.1840754 6.3984265e-21)
(-0.12982532 0.18335007 -6.8744356e-21)
(-0.14451978 0.18230447 -8.0332297e-22)
(-0.16049565 0.18102183 -5.2643132e-22)
(-0.1780334 0.1789629 2.5247568e-21)
(-0.19691582 0.17622973 -2.8118126e-22)
(-0.21715322 0.17296576 1.0455881e-20)
(-0.2387373 0.16918328 -2.8138882e-21)
(-0.26159337 0.16486312 -9.3617841e-21)
(-0.28560711 0.1599477 4.5221925e-21)
(-0.31060435 0.15435563 -3.8463746e-21)
(-0.33634803 0.14800963 4.2749548e-21)
(-0.36254578 0.1408766 2.5070669e-20)
(-0.38887437 0.13300498 -1.469064e-20)
(-0.41501522 0.12454368 -3.963435e-21)
(-0.44066621 0.11571055 2.3762191e-20)
(-0.46550141 0.10672671 -1.059261e-21)
(-0.48912423 0.097785671 -2.9914842e-21)
(-0.51105822 0.089058734 -3.8236684e-20)
(-0.53075571 0.080691063 -9.4720758e-21)
(-0.54763688 0.072789607 1.5899029e-20)
(-0.561148 0.065373292 1.714075e-20)
(-0.57077763 0.058251886 2.5881983e-20)
(-0.57597532 0.051236685 3.400376e-20)
(-0.57607623 0.044179313 2.1951787e-20)
(-0.57030503 0.036951656 3.4991502e-20)
(-0.55776536 0.029402935 -1.2512261e-20)
(-0.53720083 0.021248079 7.8643472e-20)
(-0.50768595 0.012012324 5.5362531e-21)
(-0.46824507 0.0014048455 4.6613091e-21)
(-0.41725404 -0.011212596 2.8769638e-21)
(-0.35283161 -0.02924098 -1.042458e-19)
(-0.26984729 -0.05880491 -3.9253162e-20)
(-0.16070002 -0.10797916 5.5799408e-20)
(-0.0053568382 -0.18668454 6.4339513e-20)
(0.21979484 -0.27313608 1.7265896e-20)
(0.46048554 -0.30924092 1.2211318e-21)
(0.6584811 -0.29430037 3.7652102e-21)
(0.79913393 -0.24013207 -2.4200267e-21)
(-0.00045136035 0.0023973835 4.1722608e-22)
(-0.0014049078 0.0073963759 1.3258685e-21)
(-0.0024689286 0.012878411 -3.1998855e-21)
(-0.0036554356 0.018873544 1.1807888e-22)
(-0.0049773431 0.025410576 1.5568731e-21)
(-0.0064492002 0.032515866 6.8645333e-22)
(-0.0080872497 0.04021199 5.0683652e-22)
(-0.0099094026 0.048516068 -9.9768184e-22)
(-0.011935444 0.057437681 5.161647e-21)
(-0.014187164 0.066976359 -3.8864997e-21)
(-0.016688506 0.07711862 1.892618e-22)
(-0.019465685 0.087834534 2.3452979e-21)
(-0.02254729 0.099073865 -8.7417841e-21)
(-0.025964338 0.11076189 8.6779635e-21)
(-0.029750287 0.12279507 -1.1443476e-21)
(-0.033940964 0.13503698 -7.0681159e-21)
(-0.038574406 0.14731498 6.58589e-21)
(-0.043690579 0.15941837 -2.2660536e-21)
(-0.049330967 0.17109928 4.3609329e-21)
(-0.055538045 0.18207762 -5.4994906e-21)
(-0.062354721 0.19205209 -1.0118411e-20)
(-0.069823963 0.2007198 9.7371569e-21)
(-0.077989109 0.20780723 1.3878398e-20)
(-0.086895796 0.21311496 -2.5701899e-20)
(-0.09659589 0.21657398 1.9647548e-20)
(-0.10714992 0.21829908 -1.0807366e-20)
(-0.11862861 0.21860294 2.5563363e-21)
(-0.13113976 0.21793313 -5.8578458e-21)
(-0.14473148 0.2167789 5.455932e-21)
(-0.15932569 0.21545071 7.4036329e-21)
(-0.17519993 0.21346259 -4.8202644e-21)
(-0.1924716 0.21055366 -8.5250559e-21)
(-0.21090387 0.20690689 6.7816212e-22)
(-0.2305001 0.20260096 2.7678566e-22)
(-0.25115071 0.19763178 6.0759257e-21)
(-0.27270747 0.19193912 -2.8072388e-21)
(-0.29496754 0.18543525 -1.086536e-20)
(-0.31767211 0.1780438 -5.9997945e-21)
(-0.34052367 0.16974743 9.4137188e-21)
(-0.36321526 0.16062946 -7.5792211e-21)
(-0.38546411 0.15088236 7.211327e-21)
(-0.40700201 0.14074615 -2.1510562e-21)
(-0.42750015 0.13042901 -1.0261494e-20)
(-0.44651826 0.12010069 2.637051e-20)
(-0.46351937 0.10992497 1.6639975e-20)
(-0.47790821 0.10006349 1.1579003e-20)
(-0.48908607 0.090666847 -3.9924062e-20)
(-0.49654384 0.081803935 -2.7302682e-20)
(-0.49980736 0.073286288 -3.3970632e-20)
(-0.49830903 0.064884668 -6.2584674e-20)
(-0.49137007 0.056414954 2.320064e-20)
(-0.47819509 0.047674417 -4.7082995e-21)
(-0.4577319 0.038387218 -4.08017e-20)
(-0.42882879 0.028347238 -1.2269263e-19)
(-0.39020088 0.017220347 -8.2191229e-20)
(-0.3400515 0.0047292412 -3.2646117e-20)
(-0.27878383 -0.010078054 -9.5099772e-20)
(-0.20297456 -0.030863498 6.4290743e-20)
(-0.1077931 -0.064626261 -7.4327485e-21)
(0.014045166 -0.12191106 -9.1893974e-20)
(0.18807147 -0.21462912 -4.9977863e-20)
(0.41945021 -0.31218683 -6.5748261e-22)
(0.63832763 -0.34589601 2.1215632e-20)
(0.79086056 -0.32137235 -2.5394694e-21)
(0.87944908 -0.25718265 -4.8001514e-22)
(-0.00057794181 0.0026275915 1.7416261e-21)
(-0.00179303 0.0081107702 -1.1744883e-21)
(-0.0031401558 0.014129028 1.5863181e-21)
(-0.0046316996 0.020717065 9.0173438e-22)
(-0.0062807349 0.027908616 -2.5146064e-21)
(-0.008101492 0.035735262 -2.3470516e-21)
(-0.010109326 0.044225039 2.4059578e-21)
(-0.012320608 0.053400702 -2.90188e-22)
(-0.014752766 0.063277528 -6.7158484e-23)
(-0.017424251 0.073860655 -4.7517658e-21)
(-0.020354512 0.085141886 5.1664844e-22)
(-0.023563922 0.097095932 9.5359797e-21)
(-0.0270737 0.10967611 -7.6016503e-21)
(-0.030905802 0.12280955 2.586929e-22)
(-0.035082803 0.13639209 5.0463579e-21)
(-0.039627763 0.15028321 4.2960961e-22)
(-0.044564104 0.16430143 -1.0855812e-21)
(-0.049915502 0.17822111 -4.8380685e-21)
(-0.055705834 0.19177171 8.7531354e-21)
(-0.061959229 0.20464124 -1.5154936e-20)
(-0.068700343 0.21648611 3.1852369e-21)
(-0.075955068 0.22695028 -2.310923e-21)
(-0.083752133 0.23569732 1.7932792e-21)
(-0.092126247 0.24245863 -1.1613925e-22)
(-0.10112344 0.24709756 1.0013931e-20)
(-0.11080599 0.24967693 9.4961966e-21)
(-0.12125007 0.25049309 -1.7701143e-20)
(-0.13254335 0.25002666 -2.8605006e-21)
(-0.14479682 0.24881286 9.0323182e-21)
(-0.15793136 0.24729471 3.0827156e-21)
(-0.17201457 0.24545533 7.2472297e-21)
(-0.18727548 0.24269338 -8.0804871e-21)
(-0.20363867 0.23886902 -3.7301518e-21)
(-0.22096333 0.23415038 8.8550199e-21)
(-0.23911672 0.22860987 -3.8432951e-21)
(-0.25791169 0.22221381 -2.3885323e-21)
(-0.27712051 0.21488024 5.6944135e-21)
(-0.29647813 0.2065429 1.6547256e-20)
(-0.31570646 0.19720819 5.5893119e-21)
(-0.33453512 0.1869992 -3.6536099e-21)
(-0.35271862 0.1761513 -9.4823444e-21)
(-0.37000938 0.16490285 -1.0714895e-20)
(-0.3860726 0.15341472 -1.269055e-20)
(-0.40043282 0.14181402 -2.831094e-20)
(-0.41251187 0.13026708 1.2055247e-21)
(-0.42165851 0.11897082 -1.3123208e-20)
(-0.42724125 0.10814298 8.0786146e-20)
(-0.42878844 0.097930161 2.3912367e-20)
(-0.42587163 0.088131276 2.8394087e-20)
(-0.41790956 0.078451554 8.3616526e-20)
(-0.40419004 0.068659454 -1.0312217e-19)
(-0.38388827 0.058494342 2.402311e-20)
(-0.35592441 0.04762711 7.9824808e-20)
(-0.31914077 0.035751781 1.0043343e-19)
(-0.27213757 0.022477626 1.2901061e-20)
(-0.21298888 0.0079995857 -3.3305024e-20)
(-0.14270579 -0.0090144644 -5.3970739e-20)
(-0.056561921 -0.032733325 2.3170135e-20)
(0.05053419 -0.070474011 -4.0084798e-20)
(0.1877881 -0.13617426 2.8287783e-20)
(0.38474498 -0.23963842 7.9906307e-21)
(0.61716642 -0.34224506 1.4529936e-20)
(0.8012442 -0.36899107 -2.8764245e-20)
(0.89871717 -0.33382087 -2.2023243e-21)
(0.93568721 -0.26327759 5.2593926e-21)
(-0.00070104573 0.0027746854 -1.7271586e-21)
(-0.0021707327 0.0085698652 -4.626182e-22)
(-0.0037937036 0.014937058 5.0785191e-22)
(-0.0055827993 0.021915176 2.4958475e-21)
(-0.0075513771 0.029542634 -2.9917087e-21)
(-0.0097135078 0.03785624 2.5383352e-21)
(-0.012083858 0.04688984 1.2126338e-21)
(-0.014677505 0.056672599 -6.4567945e-23)
(-0.017509818 0.067226815 -1.0197992e-21)
(-0.020596264 0.078565229 -5.7899903e-21)
(-0.023952196 0.090687737 9.6943987e-21)
(-0.027592592 0.10357747 -1.1607e-20)
(-0.031531771 0.11719617 3.3914285e-21)
(-0.03578309 0.13147897 4.5801253e-21)
(-0.040358652 0.14632853 -6.9740887e-21)
(-0.045269043 0.16160901 1.3628885e-20)
(-0.050523152 0.17714013 -1.6349214e-20)
(-0.056128134 0.1926922 -2.6012417e-22)
(-0.062089588 0.2079833 -9.1168856e-21)
(-0.068412062 0.22268027 3.5494198e-20)
(-0.07510005 0.23640613 -8.4005443e-21)
(-0.082159735 0.24875697 -3.3984276e-20)
(-0.089601883 0.25933281 1.5547177e-20)
(-0.097446466 0.26778677 1.7959955e-20)
(-0.10572934 0.27389418 -4.2896599e-21)
(-0.11450941 0.27763277 -2.1693437e-20)
(-0.12386864 0.27923955 3.0935504e-20)
(-0.1338973 0.27918661 -3.2379091e-20)
(-0.14468028 0.27804893 2.400581e-20)
(-0.15627785 0.27634169 -4.3275601e-21)
(-0.16859001 0.2743537 7.4760696e-21)
(-0.18166771 0.27181076 1.0789299e-20)
(-0.19565395 0.26824831 -4.0201036e-21)
(-0.21041048 0.26342196 -9.2636554e-22)
(-0.22576864 0.25747586 -1.7137721e-20)
(-0.24155388 0.25049259 3.1853107e-21)
(-0.25749908 0.24244716 -9.3923715e-21)
(-0.27333253 0.23331538 8.8346681e-21)
(-0.28880493 0.22313415 -4.799497e-21)
(-0.30369661 0.21203231 -3.7668952e-21)
(-0.31780025 0.2002552 -3.572753e-21)
(-0.33084177 0.18805702 -3.5240069e-21)
(-0.34244978 0.17556791 2.367255e-20)
(-0.35211646 0.16288134 2.0661054e-20)
(-0.35930325 0.15009919 -5.619421e-21)
(-0.36329853 0.13743145 4.4429885e-21)
(-0.36343377 0.12521238 -1.7891059e-20)
(-0.35922563 0.11373365 3.9128922e-20)
(-0.3503094 0.10276381 4.8328378e-20)
(-0.33608575 0.091917699 1.5045566e-20)
(-0.31580468 0.080913769 4.0478167e-20)
(-0.28861183 0.069430503 -1.3914314e-21)
(-0.25337885 0.057083724 -2.0911173e-20)
(-0.20895894 0.043515253 -1.0520924e-19)
(-0.15363656 0.028277372 5.3332639e-20)
(-0.087039467 0.011740319 -2.1960272e-20)
(-0.0085332003 -0.007547032 6.297523e-20)
(0.087089917 -0.034465855 -1.039359e-19)
(0.20602115 -0.076749851 5.5964812e-20)
(0.36208563 -0.15125235 -1.7983255e-20)
(0.58358664 -0.26138839 8.6789722e-22)
(0.80372408 -0.36132583 -6.4771383e-21)
(0.93862388 -0.37605839 -1.3952879e-20)
(0.97876709 -0.33305501 6.0410103e-21)
(0.97099083 -0.26064514 2.4725901e-21)
(-0.00081169898 0.0028332149 4.0590489e-21)
(-0.0025104861 0.0087566079 2.7914935e-21)
(-0.0043819171 0.015272393 -4.3805808e-21)
(-0.0064393506 0.02242308 1.1533206e-22)
(-0.0086965385 0.030251311 3.957254e-21)
(-0.011167566 0.038798905 2.068304e-21)
(-0.013866664 0.048105614 -4.3540573e-21)
(-0.016807963 0.058207523 7.1489161e-22)
(-0.020005225 0.069134989 -1.0059607e-20)
(-0.023471508 0.080910054 1.9569459e-21)
(-0.027218776 0.093543237 5.0707595e-23)
(-0.031257455 0.1070296 -7.1694328e-21)
(-0.035595938 0.12134406 2.2893134e-20)
(-0.040240075 0.13643579 -1.0623513e-20)
(-0.045192657 0.15222194 -1.8938239e-20)
(-0.05045296 0.16858065 2.0051528e-20)
(-0.056016414 0.1853438 -2.4598598e-21)
(-0.061874489 0.20229015 1.3780284e-20)
(-0.068014933 0.21913997 1.01126e-20)
(-0.07442252 0.23555289 -3.1354663e-20)
(-0.081080551 0.2511315 2.312643e-20)
(-0.087973406 0.2654343 -2.9832161e-20)
(-0.095090605 0.27800276 3.3977314e-21)
(-0.10243291 0.28840813 -1.3582439e-20)
(-0.11002069 0.29632194 2.8373143e-20)
(-0.11790318 0.30160566 -6.4521057e-21)
(-0.1261622 0.30439142 -1.5560186e-20)
(-0.13489929 0.30509368 3.5372794e-20)
(-0.14420595 0.30429857 -1.4342443e-20)
(-0.15413814 0.3025734 -1.4945032e-20)
(-0.16467793 0.30031743 1.1770693e-20)
(-0.17577428 0.29762891 1.6445075e-21)
(-0.187277 0.29415173 -7.9252813e-21)
(-0.19922256 0.2895031 4.4487359e-21)
(-0.21163313 0.28356293 -7.2755721e-21)
(-0.2242385 0.27631171 2.6578831e-20)
(-0.23680423 0.26776946 -1.4870377e-20)
(-0.24907736 0.25801076 -9.6148731e-21)
(-0.26082643 0.24714645 -2.1238425e-20)
(-0.27185967 0.23535338 -3.6582299e-21)
(-0.28199274 0.22287407 2.4849493e-20)
(-0.2908888 0.20991315 -1.0552968e-20)
(-0.29807578 0.19657943 -1.6528726e-20)
(-0.30301931 0.18294444 -2.2005871e-21)
(-0.30518582 0.16911717 1.9737111e-20)
(-0.3039381 0.15530009 1.8403479e-20)
(-0.29868197 0.14182083 -5.9994546e-20)
(-0.28879156 0.12916974 -3.381611e-20)
(-0.27398492 0.11715635 -7.7942312e-20)
(-0.25363183 0.10526932 -2.8695394e-20)
(-0.22693254 0.093174451 -1.1678138e-20)
(-0.19299338 0.080492367 -9.1723317e-20)
(-0.15061687 0.066786648 -3.763067e-20)
(-0.098646789 0.05161646 1.2791722e-19)
(-0.035237699 0.034847376 -1.0389503e-19)
(0.037958217 0.016432263 9.5227208e-20)
(0.12436482 -0.0052925476 -4.5215661e-20)
(0.22914114 -0.035713112 2.1164102e-19)
(0.36065845 -0.083573529 1.0019995e-19)
(0.54122215 -0.16676774 -3.627992e-20)
(0.78182634 -0.27749305 -4.5961699e-20)
(0.9695854 -0.36782721 -5.2335336e-20)
(1.0425085 -0.37185654 -5.2214371e-21)
(1.0308957 -0.32198733 -9.2785116e-22)
(0.99150884 -0.25172942 -1.8579822e-21)
(-0.00090074155 0.0028010083 7.6934803e-23)
(-0.0027841362 0.0086639329 -5.4787053e-21)
(-0.00485597 0.015122118 6.4558172e-21)
(-0.0071301104 0.022220833 3.1046493e-21)
(-0.0096207596 0.030006235 -6.2146406e-21)
(-0.012342161 0.038524625 -2.0109713e-21)
(-0.015308361 0.047821405 9.7427917e-21)
(-0.018532922 0.057939675 -1.0470016e-20)
(-0.022028536 0.068918418 -2.2046345e-21)
(-0.025806564 0.080790162 -8.7506795e-21)
(-0.029876503 0.09357801 2.3178715e-20)
(-0.034245369 0.10729191 2.7875878e-22)
(-0.038917013 0.12192405 -2.0657206e-20)
(-0.043891387 0.13744329 2.2062635e-20)
(-0.049163789 0.15378854 -1.5692664e-20)
(-0.054724155 0.17086116 -5.7747577e-21)
(-0.060556473 0.18851654 1.1956128e-20)
(-0.066638434 0.2065554 -1.0663421e-20)
(-0.072941489 0.22471572 -1.4024089e-20)
(-0.079431557 0.2426668 2.9176378e-22)
(-0.086070665 0.26000812 2.135339e-20)
(-0.09281994 0.27627654 -1.2942068e-20)
(-0.099644436 0.29096705 7.0423204e-21)
(-0.10652042 0.30357357 3.2951668e-20)
(-0.11344545 0.31365618 1.0744472e-20)
(-0.12044999 0.32093511 -2.7756505e-20)
(-0.12760524 0.32539256 2.6694817e-21)
(-0.13501554 0.32732734 -2.8460392e-20)
(-0.14278776 0.32728958 1.5765105e-20)
(-0.15099072 0.32589105 -8.1001586e-21)
(-0.15962527 0.32360574 1.1177775e-20)
(-0.16861331 0.32065235 2.7524874e-21)
(-0.1778436 0.31697849 -1.3562942e-20)
(-0.18724387 0.31240266 1.4125871e-20)
(-0.19671682 0.30657792 2.2206766e-20)
(-0.20610663 0.29931971 -1.4532791e-21)
(-0.21527651 0.29061829 -2.6093449e-20)
(-0.22404922 0.28056649 3.5484831e-20)
(-0.23222424 0.26932035 -7.8876144e-21)
(-0.23957624 0.25709613 1.8592442e-20)
(-0.24582252 0.24410626 -3.3152094e-21)
(-0.25057509 0.23050082 3.3284042e-20)
(-0.25334121 0.21640891 1.6890405e-20)
(-0.25361012 0.20195213 2.359464e-20)
(-0.25078962 0.18725774 -1.0180325e-19)
(-0.24430997 0.17242605 -3.6455728e-20)
(-0.23354558 0.15784275 5.0815468e-20)
(-0.21802953 0.1441645 -4.4057769e-20)
(-0.19736069 0.13126671 -3.9500041e-20)
(-0.17093781 0.11849038 4.6739165e-20)
(-0.13788349 0.10544929 2.5761307e-20)
(-0.097263797 0.091708679 6.3513485e-20)
(-0.047803756 0.076781061 3.1893221e-20)
(0.011816973 0.060200666 -1.0955504e-19)
(0.082703887 0.042285488 -6.1439909e-20)
(0.16229768 0.022317822 -9.8617957e-21)
(0.25652889 -0.0019552088 4.2463349e-22)
(0.37074189 -0.036215758 -5.233577e-20)
(0.51848941 -0.091213696 7.0851449e-20)
(0.7294041 -0.1806335 8.2372406e-20)
(0.96932739 -0.28577832 1.9765791e-20)
(1.103041 -0.35997986 9.9628207e-20)
(1.1117269 -0.35447426 3.9128575e-20)
(1.0602693 -0.30391908 5.7357762e-21)
(1.0043646 -0.23927858 2.3101294e-21)
(-0.00095939937 0.0026795471 -2.7212496e-21)
(-0.0029646945 0.0082959559 -2.408527e-21)
(-0.0051690278 0.014492624 5.0055712e-21)
(-0.0075866872 0.021316513 -8.5726738e-21)
(-0.010232305 0.028816283 -2.1427249e-21)
(-0.013120371 0.037041835 9.1760082e-21)