/*--------------------------------*- C++ -*----------------------------------*\
  =========                 |
  \\      /  F ield         | OpenFOAM: The Open Source CFD Toolbox
   \\    /   O peration     | Website:  https://openfoam.org
    \\  /    A nd           | Version:  13
     \\/     M anipulation  |
\*---------------------------------------------------------------------------*/
FoamFile
{
    format      ascii;
    class       volScalarField;
    location    "29.799531";
    object      k;
}
// * * * * * * * * * * * * * * * * * * * * * * * * * * * * * * * * * * * * * //

dimensions      [0 2 -2 0 0 0 0];

internalField   nonuniform List<scalar> 
17140
(
1.2237499e-11
3.8454457e-10
3.1445362e-09
1.3523322e-08
4.1614446e-08
1.0500963e-07
2.3285347e-07
4.7190555e-07
8.9549437e-07
1.616642e-06
2.8071854e-06
4.7254859e-06
7.7563819e-06
1.2468509e-05
1.9696109e-05
3.0655118e-05
4.7106808e-05
7.1586537e-05
0.00010772017
0.00016065553
0.00023763884
0.00034876219
0.0005078874
0.00073369591
0.0010506888
0.0014897106
0.0020871287
0.0028811815
0.0039035439
0.0051650898
0.0066392808
0.0082545056
0.0099088111
0.011504177
0.012975973
0.014300046
0.015481079
0.016538287
0.017495796
0.018377945
0.019207787
0.02000708
0.02079661
0.021596602
0.022427228
0.02330859
0.024259604
0.025298521
0.026444689
0.027718153
0.029140334
0.030736183
0.032534774
0.034567584
0.036865281
0.039458686
0.042386906
0.045680518
0.049399693
0.05349316
0.057696948
0.061140075
0.062507933
0.061719537
0.059171974
1.2185466e-11
3.8290955e-10
3.1311743e-09
1.3465928e-08
4.143814e-08
1.0456569e-07
2.3187154e-07
4.6992135e-07
8.9174156e-07
1.6098919e-06
2.7955122e-06
4.7059242e-06
7.7244318e-06
1.2417426e-05
1.9615892e-05
3.0531078e-05
4.691756e-05
7.1301213e-05
0.00010729461
0.00016002709
0.00023671964
0.00034743039
0.0005059766
0.00073098334
0.0010468842
0.0014844504
0.0020799846
0.0028716971
0.0038913176
0.0051499122
0.0066212675
0.0082340627
0.0098864977
0.011480575
0.012951987
0.014276224
0.015457735
0.016515572
0.017473699
0.018356374
0.019186641
0.01998627
0.020776126
0.021576595
0.022408137
0.023291303
0.024245661
0.025290372
0.026446134
0.027734856
0.029181353
0.030814078
0.032666751
0.034776207
0.037174756
0.039883999
0.042910804
0.046213923
0.049717505
0.053227981
0.0562912
0.058239523
0.058509177
0.057156999
0.053661332
1.2049811e-11
3.7864679e-10
3.0963164e-09
1.3316028e-08
4.0976927e-08
1.0340215e-07
2.2929233e-07
4.646966e-07
8.8183249e-07
1.592015e-06
2.7644946e-06
4.6537592e-06
7.6389022e-06
1.2280113e-05
1.9399314e-05
3.0194609e-05
4.640165e-05
7.0519291e-05
0.00010612185
0.00015828511
0.000234156
0.00034369207
0.00050057716
0.00072326546
0.0010359834
0.0014692734
0.0020592298
0.0028439601
0.0038553319
0.0051049295
0.0065675048
0.0081730477
0.0098207255
0.011412518
0.01288329
0.014207872
0.015390176
0.016448911
0.01740784
0.018291126
0.019121791
0.019921632
0.020711602
0.021512267
0.022344389
0.023228954
0.024186219
0.02523639
0.026401745
0.027706618
0.029179221
0.030853139
0.032769687
0.034973586
0.03750399
0.04038074
0.04358904
0.047030251
0.050492391
0.053668512
0.055939989
0.056929264
0.056466559
0.054560007
0.047659243
1.1823387e-11
3.7153174e-10
3.0381343e-09
1.3065817e-08
4.0207024e-08
1.0145962e-07
2.2498561e-07
4.5597047e-07
8.6527827e-07
1.5621395e-06
2.7126384e-06
4.5665074e-06
7.4957668e-06
1.2050173e-05
1.9036377e-05
2.9630294e-05
4.5535568e-05
6.9205239e-05
0.00010414861
0.00015535016
0.00022983022
0.00033737382
0.00049143526
0.0007101738
0.0010174574
0.0014434328
0.0020238366
0.0027966127
0.0037939145
0.0050283482
0.0064764641
0.0080702432
0.0097100902
0.01129795
0.012767608
0.01409264
0.015276023
0.016335913
0.017295801
0.01817973
0.019010699
0.019810538
0.020600291
0.021400713
0.022232862
0.023118133
0.024077476
0.025132232
0.026306401
0.027627042
0.029126552
0.030845143
0.032833431
0.035148237
0.037841145
0.040939743
0.044422276
0.048153935
0.051820698
0.054967543
0.056837869
0.057509072
0.056823293
0.053957518
0.041480777
1.1508347e-11
3.616321e-10
2.9571822e-09
1.2717683e-08
3.9135785e-08
9.8756684e-08
2.189927e-07
4.4382703e-07
8.4223921e-07
1.5205568e-06
2.6404539e-06
4.4450376e-06
7.2964714e-06
1.1729969e-05
1.853089e-05
2.8844201e-05
4.4328885e-05
6.7374026e-05
0.00010139812
0.00015125801
0.00022379693
0.00032855823
0.00047867406
0.00069188884
0.00099156432
0.0014072845
0.0019742691
0.0027302061
0.0037076073
0.0049204522
0.006347783
0.0079244896
0.0095528975
0.011134922
0.012602812
0.013928299
0.01511299
0.016174256
0.017135209
0.018019746
0.018850831
0.019650331
0.020439375
0.021238901
0.022070243
0.022955152
0.023915242
0.024973027
0.02615431
0.027489139
0.029014774
0.030779287
0.032844875
0.035284179
0.038166791
0.041538531
0.045388059
0.049571872
0.053699859
0.057263604
0.059221168
0.059887637
0.059242362
0.055008239
0.036967609
1.1107171e-11
3.4902576e-10
2.8540966e-09
1.227436e-08
3.7771619e-08
9.5314548e-08
2.1136057e-07
4.2836127e-07
8.1289521e-07
1.4675909e-06
2.5485016e-06
4.2902894e-06
7.0425502e-06
1.1321952e-05
1.7886693e-05
2.7842247e-05
4.2790582e-05
6.503909e-05
9.7890201e-05
0.00014603749
0.00021609736
0.00031730319
0.00046237305
0.00066851641
0.00095843907
0.0013609895
0.0019106986
0.0026448825
0.0035964511
0.0047810823
0.0061809988
0.0077349239
0.0093478353
0.010921753
0.012386967
0.013712768
0.014898913
0.015961709
0.016923765
0.017808783
0.01863968
0.019438346
0.020225984
0.021023692
0.021853044
0.022736061
0.023694958
0.024753393
0.025938985
0.027284953
0.028833968
0.030643089
0.032788168
0.035360399
0.03845259
0.042138205
0.046433414
0.051218375
0.056032082
0.060352636
0.062918195
0.063941374
0.062759527
0.056076373
0.032317832
1.0624502e-11
3.3385865e-10
2.7300709e-09
1.1740981e-08
3.6130315e-08
9.1173042e-08
2.0217751e-07
4.0975209e-07
7.7758556e-07
1.4038539e-06
2.4378435e-06
4.104048e-06
6.7369293e-06
1.0830816e-05
1.7111183e-05
2.6635904e-05
4.0938205e-05
6.2226932e-05
9.3664401e-05
0.00013974691
0.00020681647
0.00030373082
0.00044270504
0.00064029644
0.00091840657
0.001304973
0.0018336547
0.0025412541
0.0034610701
0.0046107392
0.0059763013
0.0075012458
0.0090940405
0.010657089
0.01211838
0.013444146
0.014631768
0.015696161
0.016659269
0.017544528
0.018374783
0.019171929
0.019957214
0.020751857
0.021577613
0.022456669
0.023411714
0.024467469
0.025653292
0.027005642
0.028572981
0.03042225
0.032644346
0.035351228
0.038660853
0.042681502
0.047464965
0.05295221
0.058623984
0.063810423
0.067050807
0.06794213
0.06492306
0.053238556
0.022805856
1.0067404e-11
3.1635273e-10
2.5869199e-09
1.112535e-08
3.4235892e-08
8.6392774e-08
1.9157788e-07
3.8827172e-07
7.3682672e-07
1.3302777e-06
2.310097e-06
3.8890349e-06
6.3840716e-06
1.0263728e-05
1.6215661e-05
2.5242724e-05
3.8798647e-05
5.897825e-05
8.8781616e-05
0.0001324764
0.00019608615
0.00028803181
0.00041994205
0.0006076107
0.00087199172
0.0012399371
0.0017440412
0.0024204204
0.0033026938
0.0044106238
0.0057346144
0.0072238413
0.0087912209
0.010340009
0.011795669
0.013120768
0.014309718
0.015375653
0.016339643
0.017224766
0.018053746
0.018848453
0.019630142
0.020420094
0.021240155
0.022112561
0.023060291
0.024108968
0.025289531
0.026641625
0.028219708
0.030101121
0.032392641
0.035228474
0.038751761
0.04309661
0.04834804
0.054511593
0.060967969
0.066837664
0.070349525
0.069906943
0.063636731
0.040843147
0.01286004
9.4453201e-12
2.9680467e-10
2.4270689e-09
1.0437898e-08
3.2120449e-08
8.1054738e-08
1.7974127e-07
3.6428405e-07
6.9130906e-07
1.2481084e-06
2.1674253e-06
3.6488896e-06
5.9899474e-06
9.6302758e-06
1.5215258e-05
2.368622e-05
3.6407958e-05
5.5347658e-05
8.3323668e-05
0.00012434725
0.00018408428
0.00027046418
0.00039445364
0.0005709808
0.00081991731
0.0011668596
0.0016431379
0.00228398
0.0031231858
0.004182696
0.0054576962
0.0069039184
0.0084398002
0.0099701514
0.011417864
0.012741268
0.013931155
0.014998409
0.015962961
0.016847397
0.017674254
0.018465332
0.01924184
0.020025043
0.02083675
0.021699123
0.022635191
0.023671245
0.024839567
0.02618283
0.027761531
0.029663564
0.032012616
0.034964761
0.038682774
0.043308065
0.048917377
0.055549906
0.062429876
0.068397056
0.070785569
0.067620403
0.055477076
0.021594093
0.0064017089
8.7698705e-12
2.755797e-10
2.2535056e-09
9.6914728e-09
2.9823521e-08
7.5258688e-08
1.6688888e-07
3.3823734e-07
6.4188315e-07
1.1588814e-06
2.0124938e-06
3.3880979e-06
5.5619168e-06
8.9422849e-06
1.4128636e-05
2.1995403e-05
3.3810642e-05
5.1402624e-05
7.7391735e-05
0.00011550961
0.00017103148
0.00025134862
0.00036670059
0.0005310599
0.00076309395
0.001086983
0.0015325917
0.0021340286
0.0029250614
0.003929727
0.0051482412
0.006543656
0.0080410903
0.0095478731
0.010984534
0.012304673
0.013494763
0.014562881
0.015527477
0.016410462
0.017234093
0.018020032
0.018789388
0.019563303
0.020363376
0.021211563
0.022130677
0.023147365
0.024294978
0.025619026
0.027185963
0.029094955
0.031488335
0.03454063
0.038424936
0.043252878
0.048985203
0.055636585
0.062138587
0.066470645
0.065562416
0.057513798
0.030763219
0.0093033645
0.0027787009
8.0545387e-12
2.5310151e-10
2.0696941e-09
8.9009731e-09
2.739095e-08
6.9120309e-08
1.5327723e-07
3.1065149e-07
5.8953551e-07
1.0643775e-06
1.8483946e-06
3.1118638e-06
5.1085195e-06
8.2134775e-06
1.2977462e-05
2.0203964e-05
3.1058408e-05
4.7221588e-05
7.1103539e-05
0.00010613842
0.00015718513
0.00023106005
0.00033722317
0.00048861688
0.00070259954
0.0010017897
0.0014143896
0.0019731367
0.0027114815
0.0036553297
0.0048099674
0.0061463586
0.0075974913
0.0090744558
0.010495953
0.011810526
0.012999607
0.014067808
0.015031666
0.015912176
0.016731172
0.017510092
0.018269871
0.019031418
0.019815923
0.020644918
0.021540788
0.022530159
0.023647222
0.024940222
0.026481815
0.028386447
0.030812274
0.033946828
0.037958576
0.042853823
0.048230082
0.053844657
0.057923702
0.057182626
0.05077578
0.030306864
0.010277229
0.0031961057
0.0010268816
7.3142217e-12
2.2983818e-10
1.8794622e-09
8.0828595e-09
2.4873393e-08
6.2767426e-08
1.3918978e-07
2.8210094e-07
5.3535627e-07
9.6656474e-07
1.678545e-06
2.8259397e-06
4.6391966e-06
7.4590279e-06
1.1785698e-05
1.8349181e-05
2.8208494e-05
4.2891425e-05
6.4589575e-05
9.6427795e-05
0.0001428313
0.00021001604
0.00030662473
0.00044451372
0.00063964898
0.00091296312
0.0012908124
0.0018043005
0.0024862136
0.0033639524
0.0044476754
0.0057166017
0.0071127131
0.0085523539
0.0099533324
0.011259066
0.012445256
0.013512301
0.014474286
0.015350961
0.016163554
0.016933144
0.017680397
0.018425869
0.019190149
0.019994046
0.020859317
0.021812223
0.022887764
0.024137079
0.025642828
0.027538901
0.029985801
0.033174271
0.037220175
0.041847261
0.045638388
0.047629679
0.045203366
0.037408955
0.020133042
0.0089481873
0.003103549
0.0010343292
0.00039365243
6.5646371e-12
2.0628363e-10
1.686849e-09
7.2545042e-09
2.2324311e-08
5.6334947e-08
1.2492569e-07
2.5319203e-07
4.8049606e-07
8.6752056e-07
1.5065527e-06
2.5363991e-06
4.1639176e-06
6.6949622e-06
1.0578657e-05
1.6470446e-05
2.5321412e-05
3.8504044e-05
5.7988016e-05
8.6583503e-05
0.00012827367
0.00018866083
0.00027554908
0.00039967388
0.000575551
0.0008223306
0.0011643627
0.0016308579
0.0022535471
0.0030608188
0.0040672518
0.005260342
0.0065920011
0.0079854911
0.0093591129
0.010651471
0.011831969
0.012895974
0.013854458
0.014725503
0.015529476
0.016286925
0.017018102
0.017743049
0.018481615
0.019253528
0.020079691
0.020985782
0.02200801
0.02320267
0.024672787
0.02656065
0.029008086
0.032149595
0.035848373
0.0389559
0.038227068
0.033281628
0.021137359
0.011433711
0.0057309332
0.0025171589
0.00095992872
0.00038783715
0.00020117881
5.8216892e-12
1.8293762e-10
1.4959407e-09
6.4334798e-09
1.9797777e-08
4.9959331e-08
1.1078757e-07
2.2453811e-07
4.2611897e-07
7.6934677e-07
1.3360677e-06
2.2493875e-06
3.6927717e-06
5.9375024e-06
9.3819714e-06
1.4607659e-05
2.2458484e-05
3.4152637e-05
5.143908e-05
7.6814611e-05
0.00011382132
0.00016744748
0.00024465475
0.00035504578
0.00051165728
0.00073179421
0.0010376738
0.0014563755
0.0020181647
0.0027518053
0.0036755985
0.0047849581
0.0060423303
0.0073795812
0.0087173311
0.0099901957
0.011160959
0.012219135
0.013171805
0.014034838
0.014827395
0.015569274
0.016280111
0.01697921
0.01768555
0.018417438
0.019194678
0.020042221
0.020999261
0.022138425
0.023580293
0.025452284
0.027815738
0.030448492
0.032310297
0.030350222
0.023502735
0.011566388
0.0061218975
0.0031876072
0.001598748
0.00075136825
0.00034823534
0.00019710476
0.00014379567
5.1006815e-12
1.6028104e-10
1.3106701e-09
5.6366998e-09
1.7345843e-08
4.3771937e-08
9.7066732e-08
1.9672964e-07
3.7334563e-07
6.740669e-07
1.1706049e-06
1.9708231e-06
3.2354762e-06
5.2022754e-06
8.2203369e-06
1.2799277e-05
1.9678845e-05
2.9927136e-05
4.5078214e-05
6.7323323e-05
9.977366e-05
0.00014681599
0.00021458336
0.00031155759
0.00044929866
0.00064324239
0.00091339047
0.0012844926
0.0017849515
0.0024432316
0.0032804498
0.0042991754
0.0054725166
0.0067424389
0.0080340483
0.0092794015
0.010434764
0.011483073
0.012426652
0.01327848
0.014056054
0.014778124
0.015463445
0.016130317
0.016796543
0.017478862
0.018195784
0.018970946
0.019857447
0.020950406
0.022355121
0.024137506
0.025978893
0.026373617
0.023480552
0.014621279
0.0071842742
0.0033682788
0.0017302173
0.00091800188
0.00049725269
0.0002795656
0.00017807217
0.00014070794
0.00012595703
4.4156279e-12
1.3875429e-10
1.1346389e-09
4.8796553e-09
1.5016184e-08
3.7893077e-08
8.4030012e-08
1.7030747e-07
3.2320261e-07
5.8353473e-07
1.0133841e-06
1.7061285e-06
2.8009363e-06
4.5036052e-06
7.1163983e-06
1.1080579e-05
1.7036769e-05
2.5910142e-05
3.9029937e-05
5.8295788e-05
8.6406873e-05
0.00012717322
0.00018593028
0.00027007467
0.00038972405
0.00055846312
0.00079404733
0.0011187559
0.0015587773
0.0021415943
0.0028900871
0.0038128377
0.0048931619
0.0060841816
0.0073177716
0.008525474
0.0096577374
0.010690457
0.011620322
0.012456618
0.013214581
0.013911491
0.014564838
0.015191618
0.015807912
0.016428819
0.017071923
0.017761153
0.018584601
0.019618189
0.02089054
0.02212003
0.021646516
0.018168945
0.0091986482
0.0043867309
0.0020824501
0.0010016134
0.00054078375
0.00032130345
0.00021083052
0.00015537682
0.00013091365
0.00012335823
0.00011916697
3.7784842e-12
1.1873305e-10
9.7091893e-10
4.1755556e-09
1.2849449e-08
3.2425335e-08
7.1904917e-08
1.4573279e-07
2.765653e-07
4.9933114e-07
8.6715163e-07
1.459929e-06
2.3967488e-06
3.8537138e-06
6.0894823e-06
9.481685e-06
1.4578621e-05
2.2172273e-05
3.340083e-05
4.9891578e-05
7.3958192e-05
0.00010886967
0.0001592104
0.00023134947
0.0003340273
0.00047903798
0.00068191681
0.00096240314
0.0013441986
0.0018531755
0.0025128721
0.0033364445
0.0043163558
0.0054172361
0.0065797825
0.0077375579
0.0088366239
0.0098458464
0.010755517
0.011570345
0.012302569
0.012967379
0.013580444
0.014156872
0.014710312
0.015253814
0.015803669
0.016406214
0.017155321
0.018008543
0.018637027
0.017591085
0.013721728
0.0063600682
0.0028057015
0.0013087126
0.00065124818
0.00035493006
0.00022692563
0.00016679455
0.00013685427
0.00012262623
0.00011720427
0.000116794
0.00011402706
3.1985851e-12
1.0051062e-10
8.21908e-10
3.5347138e-09
1.0877375e-08
2.7448807e-08
6.0869078e-08
1.2336566e-07
2.3411714e-07
4.2269038e-07
7.3405166e-07
1.2358362e-06
2.0288461e-06
3.2621468e-06
5.1546868e-06
8.0261326e-06
1.2340652e-05
1.8768784e-05
2.8274373e-05
4.2235876e-05
6.2614149e-05
9.218181e-05
0.00013483168
0.00019598174
0.00028308768
0.00040625289
0.00057887525
0.00081816388
0.0011451631
0.0015836153
0.0021566651
0.0028804546
0.0037549855
0.0047559028
0.005834136
0.0069279349
0.0079811377
0.0089562681
0.0098367795
0.010621932
0.011320082
0.011943487
0.012505109
0.013016946
0.013489136
0.013931141
0.014357588
0.014864738
0.015423151
0.015517244
0.014103624
0.0095533651
0.0043916337
0.0019424083
0.00087936094
0.00044687787
0.00026334199
0.00018118541
0.0001443522
0.00012646627
0.00011736245
0.00011348826
0.00011259378
0.0001121439
0.00010942328
2.6823548e-12
8.4288854e-11
6.8925695e-10
2.9642302e-09
9.1218136e-09
2.301864e-08
5.1044817e-08
1.0345405e-07
1.9632892e-07
3.5446285e-07
6.1556192e-07
1.0363398e-06
1.7013199e-06
2.7354921e-06
4.3224406e-06
6.7301982e-06
1.0347966e-05
1.5738013e-05
2.3708637e-05
3.5416057e-05
5.2505528e-05
7.7304643e-05
0.00011308418
0.00016440254
0.00023754596
0.00034106208
0.00048634765
0.00068817242
0.00096487125
0.0013376911
0.0018284752
0.0024547521
0.0032220389
0.0041155873
0.0050971734
0.0061120117
0.0071043026
0.0080316941
0.0088709073
0.0096150468
0.01026756
0.010836572
0.011330809
0.011757329
0.012119625
0.012418701
0.012685435
0.012965408
0.012766101
0.011036901
0.0063654805
0.0029948286
0.0013498163
0.0006332694
0.00033327549
0.0002114246
0.00015873447
0.00013443272
0.00012201568
0.00011535115
0.00011176789
0.00011053198
0.00010834161
0.00010765551
0.00010537917
2.2327736e-12
7.0161451e-11
5.7373246e-10
2.4674016e-09
7.5929124e-09
1.9160451e-08
4.2488958e-08
8.6113207e-08
1.6341945e-07
2.9504395e-07
5.1236973e-07
8.6259866e-07
1.4160756e-06
2.2768204e-06
3.5976097e-06
5.6014891e-06
8.6123227e-06
1.3097978e-05
1.9731042e-05
2.947365e-05
4.3695048e-05
6.4332836e-05
9.4111036e-05
0.00013682917
0.00019773429
0.00028397784
0.0004051328
0.00057368844
0.00080532787
0.0011186023
0.0015333574
0.0020670885
0.0027287575
0.0035112188
0.0043862842
0.0053075198
0.0062221286
0.0070850255
0.0078669898
0.0085545869
0.0091452063
0.0096411199
0.01004439
0.010353795
0.010559704
0.0106595
0.010637164
0.010173528
0.0083391221
0.0042886885
0.002006792
0.00093749896
0.0004649526
0.00026575329
0.0001825969
0.00014709096
0.00012994714
0.00012132077
0.00011600285
0.0001123225
0.00010977575
0.00010699263
0.00010451169
0.00010395723
0.00010218197
1.8495809e-12
5.8120223e-11
4.7526752e-10
2.0439403e-09
6.2897875e-09
1.5872012e-08
3.519658e-08
7.1333188e-08
1.3536999e-07
2.4440008e-07
4.2441735e-07
7.1451667e-07
1.1729585e-06
1.8858887e-06
2.9798238e-06
4.6394566e-06
7.1329386e-06
1.0847612e-05
1.6340242e-05
2.4407186e-05
3.6181645e-05
5.3267085e-05
7.7917828e-05
0.00011327887
0.00016369572
0.00023509783
0.0003354401
0.0004751441
0.00066739706
0.00092802134
0.0012744185
0.0017229066
0.002283901
0.0029554114
0.0037175227
0.004532343
0.0053519942
0.0061309923
0.0068355778
0.007445785
0.0079516514
0.0083470607
0.0086243024
0.0087668983
0.008744035
0.0085555218
0.007844852
0.0057123127
0.0028921237
0.0013649197
0.00065572945
0.00034910968
0.0002197565
0.00016533776
0.00014099243
0.00012894634
0.00012253471
0.00011777822
0.00011374947
0.000110261
0.00010618008
0.00010398044
0.00010220574
0.00010116682
9.9483617e-05
1.5291431e-12
4.8050957e-11
3.9292783e-10
1.689828e-09
5.2000729e-09
1.3122122e-08
2.9098496e-08
5.8973791e-08
1.1191451e-07
2.0205106e-07
3.5087115e-07
5.9069108e-07
9.6966715e-07
1.559e-06
2.4632483e-06
3.835033e-06
5.8959094e-06
8.9658531e-06
1.3504689e-05
2.0169928e-05
2.9896858e-05
4.4008342e-05
6.4363299e-05
9.3553785e-05
0.00013515964
0.00019406426
0.00027682059
0.00039202401
0.00055058622
0.00076569464
0.0010520812
0.00142406
0.0018918179
0.0024560613
0.0031027355
0.0038013124
0.0045095992
0.0051836245
0.0057866957
0.0062925568
0.006682383
0.006938783
0.0070385605
0.0069505679
0.0066350333
0.0057958018
0.0036890453
0.0018736924
0.00092746541
0.00047078759
0.00027081508
0.00018815968
0.00015378422
0.00013783213
0.00012982741
0.00012419988
0.00011979272
0.0001151165
0.00011056805
0.00010658459
0.00010395844
0.00010204739
9.9730052e-05
9.8737445e-05
9.7244969e-05
1.2645805e-12
3.9737478e-11
3.2494575e-10
1.3974628e-09
4.3003758e-09
1.0851748e-08
2.4063803e-08
4.8769716e-08
9.2549563e-08
1.6708792e-07
2.9015267e-07
4.8846454e-07
8.0183931e-07
1.2891413e-06
2.0368042e-06
3.1709737e-06
4.8747356e-06
7.4124341e-06
1.1163809e-05
1.6671584e-05
2.4707265e-05
3.6361126e-05
5.316357e-05
7.7245636e-05
0.00011154552
0.00016006341
0.00022815527
0.00032283072
0.00045297199
0.00062930697
0.00086384724
0.001168371
0.001551526
0.0020145345
0.0025465672
0.0031223799
0.0037049475
0.0042527795
0.0047275183
0.0050967641
0.0053316595
0.0054004553
0.0052811945
0.0048955032
0.0040064613
0.0023119893
0.0012015773
0.0006203485
0.0003432782
0.00021883893
0.00016637175
0.00014581351
0.00013606221
0.00013098229
0.00012645557
0.00012158441
0.00011613938
0.00011114688
0.00010753182
0.00010486463
0.00010203804
9.9809072e-05
9.7990309e-05
9.6773504e-05
9.541542e-05
1.0461355e-12
3.2873182e-11
2.6881427e-10
1.1560633e-09
3.5575183e-09
8.9771672e-09
1.9906838e-08
4.0344664e-08
7.6560985e-08
1.3822123e-07
2.4002247e-07
4.0406637e-07
6.6328394e-07
1.0663567e-06
1.6847567e-06
2.6227748e-06
4.0317353e-06
6.1300402e-06
9.231261e-06
1.3783217e-05
2.0421839e-05
3.0044552e-05
4.3908679e-05
6.3760644e-05
9.2000496e-05
0.00013188203
0.00018773846
0.00026520251
0.00037135086
0.00051463829
0.00070439472
0.00094956356
0.0012563564
0.0016247914
0.0020448808
0.0024943494
0.0029400506
0.00334307
0.003664102
0.0038654066
0.0039079585
0.0037711094
0.0033848931
0.002510067
0.0014213082
0.00075830706
0.00041661138
0.00025471344
0.00018182673
0.00015162922
0.00013950148
0.00013492402
0.00013200109
0.00012870242
0.00012302562
0.00011687242
0.00011244909
0.00010907627
0.00010593473
0.00010254849
0.00010002121
9.8234908e-05
9.6148597e-05
9.5066538e-05
9.3920174e-05
8.61841e-13
2.7082019e-11
2.214582e-10
9.5240348e-10
2.9307996e-09
7.3956687e-09
1.6399821e-08
3.3236951e-08
6.3072531e-08
1.1386872e-07
1.9773223e-07
3.3286841e-07
5.4640078e-07
8.7842097e-07
1.3877795e-06
2.1603274e-06
3.3205847e-06
5.0481673e-06
7.600752e-06
1.1345917e-05
1.6804823e-05
2.4711322e-05
3.6090506e-05
5.2360469e-05
7.5459448e-05
0.00010799599
0.00015341013
0.00021611479
0.0003015545
0.0004160676
0.0005663714
0.00075843084
0.00099549024
0.0012752857
0.0015870557
0.0019098142
0.0022132495
0.0024611992
0.0026148156
0.0026327517
0.0024977992
0.002127999
0.0014404247
0.00083219438
0.00047069642
0.00028280554
0.00019294413
0.00015574435
0.00013956026
0.00013486444
0.00013385794
0.00013291775
0.00013061219
0.00012464866
0.00011822137
0.00011414342
0.00011066462
0.00010669644
0.0001033154
0.00010079746
9.8550935e-05
9.6593703e-05
9.4880623e-05
9.381563e-05
9.2714017e-05
6.9909576e-13
2.1968004e-11
1.7963932e-10
7.7255695e-10
2.3773613e-09
5.9990927e-09
1.3302881e-08
2.6960352e-08
5.1161297e-08
9.2363721e-08
1.603867e-07
2.6999437e-07
4.4318058e-07
7.1244862e-07
1.1254967e-06
1.7518778e-06
2.6924124e-06
4.092404e-06
6.1600473e-06
9.1918171e-06
1.3607041e-05
1.9994199e-05
2.9171518e-05
4.2263775e-05
6.0795053e-05
8.6792371e-05
0.00012288557
0.00017237195
0.00023918697
0.0003276834
0.00044207643
0.00058539804
0.00075784751
0.00095461661
0.0011638329
0.0013656005
0.0015328586
0.0016336167
0.0016311054
0.0015142641
0.0012145022
0.00079490695
0.00047330767
0.00028928291
0.00019178042
0.00015145422
0.00013395706
0.00013062076
0.00013156361
0.00013378652
0.00013400866
0.00013233634
0.00012683934
0.00011974499
0.00011571763
0.00011181427
0.00010770115
0.00010445208
0.00010195471
9.9212491e-05
9.710343e-05
9.5336772e-05
9.3482811e-05
9.2459223e-05
9.1538151e-05
5.4768808e-13
1.721025e-11
1.4073364e-10
6.0523864e-10
1.8624742e-09
4.6997929e-09
1.0421633e-08
2.1120834e-08
4.0079339e-08
7.2355442e-08
1.2563918e-07
2.1149157e-07
3.471307e-07
5.5799334e-07
8.8138905e-07
1.3716836e-06
2.1076035e-06
3.202449e-06
4.8182392e-06
7.185059e-06
1.0627103e-05
1.5596969e-05
2.2719463e-05
3.2845065e-05
4.7110682e-05
6.7000218e-05
9.4388395e-05
0.0001315365
0.00018098723
0.00024527966
0.00032638542
0.00042478497
0.00053818282
0.00066005053
0.00077851121
0.00087613539
0.00093069954
0.00091882013
0.00082604792
0.00062317931
0.00040813556
0.00026412705
0.00017601712
0.00013567266
0.00011726421
0.00011821839
0.00012205186
0.00012979648
0.00013616204
0.0001360213
0.00013436594
0.00012877459
0.0001211431
0.0001170459
0.00011302612
0.00010904905
0.00010596465
0.00010295328
0.00010004469
9.7752824e-05
9.5772106e-05
9.3989249e-05
9.243521e-05
9.1565203e-05
9.0716372e-05
4.0360503e-13
1.2682661e-11
1.0371001e-10
4.460137e-10
1.3724902e-09
3.4633247e-09
7.6796835e-09
1.5563543e-08
2.9532723e-08
5.3313096e-08
9.2567745e-08
1.5580766e-07
2.5570271e-07
4.1095849e-07
6.4898727e-07
1.0096838e-06
1.5507209e-06
2.3549063e-06
3.540276e-06
5.2737238e-06
7.7890102e-06
1.1409842e-05
1.6578159e-05
2.388642e-05
3.411002e-05
4.8231138e-05
6.7437545e-05
9.3068599e-05
0.00012646692
0.00016868088
0.00021996733
0.00027910215
0.00034253096
0.00040364413
0.00045242786
0.00047578716
0.00046085784
0.00039790153
0.00029624462
0.00020598107
0.00014307508
0.00011134758
9.5404673e-05
9.6103393e-05
0.00010273841
0.00011676663
0.0001337039
0.00013806626
0.00013809517
0.0001363878
0.0001306296
0.00012268099
0.00011855076
0.00011444769
0.00011062729
0.00010735858
0.00010396043
0.00010095705
9.8752239e-05
9.6457474e-05
9.4663724e-05
9.3001414e-05
9.1431957e-05
9.0583297e-05
8.9818801e-05
2.7136392e-13
8.5271854e-12
6.9729243e-11
2.9987462e-10
9.2277408e-10
2.3284685e-09
5.1630554e-09
1.0462899e-08
1.9852674e-08
3.5835253e-08
6.2213247e-08
1.0469823e-07
1.7178592e-07
2.7600554e-07
4.3569073e-07
6.7746953e-07
1.0397306e-06
1.577389e-06
2.3683309e-06
3.5219403e-06
5.1900333e-06
7.5802526e-06
1.0971318e-05
1.5728218e-05
2.2313074e-05
3.1283606e-05
4.3265632e-05
5.8879101e-05
7.859149e-05
0.00010247631
0.00012986878
0.0001589364
0.00018632603
0.00020696135
0.00021436698
0.00020330949
0.00017152507
0.0001324527
0.000100391
8.1103144e-05
7.0555864e-05
7.1868681e-05
7.796516e-05
9.2424868e-05
0.00012006001
0.00013632025
0.00014059804
0.00014037255
0.00013859954
0.00013266607
0.00012442435
0.00012004012
0.0001158369
0.00011205396
0.00010863651
0.00010507815
0.0001022028
9.9779784e-05
9.7354091e-05
9.5291513e-05
9.3561097e-05
9.18909e-05
9.0555525e-05
8.984945e-05
8.9164378e-05
1.6136969e-13
5.0707845e-12
4.1465074e-11
1.7832088e-10
5.4871689e-10
1.384547e-09
3.0698734e-09
6.2205901e-09
1.1801863e-08
2.129982e-08
3.6970754e-08
6.2200428e-08
1.0201853e-07
1.6382974e-07
2.5844376e-07
4.015115e-07
6.1550166e-07
9.3237538e-07
1.3971236e-06
2.0722973e-06
3.0435389e-06
4.4258362e-06
6.3696511e-06
9.065056e-06
1.2740367e-05
1.7649376e-05
2.4038371e-05
3.2082204e-05
4.1779139e-05
5.2800991e-05
6.4319557e-05
7.4852858e-05
8.2224371e-05
8.3568839e-05
7.8415453e-05
6.8094824e-05
5.7946995e-05
5.0707545e-05
4.63914e-05
4.9134689e-05
5.431562e-05
6.6769013e-05
9.1943584e-05
0.00012415238
0.00013827926
0.00014286559
0.0001426423
0.00014085846
0.00013490517
0.00012627521
0.00012170278
0.00011721507
0.00011354765
0.0001100425
0.00010651492
0.0001036006
0.00010084232
9.8225437e-05
9.6157111e-05
9.4224112e-05
9.2610703e-05
9.1105862e-05
8.979277e-05
8.9101753e-05
8.8489693e-05
8.2591773e-14
2.5953107e-12
2.1222352e-11
9.1265203e-11
2.8082536e-10
7.0855126e-10
1.5708954e-09
3.1827711e-09
6.037404e-09
1.0893657e-08
1.8902448e-08
3.1788351e-08
5.2108346e-08
8.3617087e-08
1.3177692e-07
2.0446028e-07
3.1290017e-07
4.7294593e-07
7.0666775e-07
1.0443068e-06
1.5264609e-06
2.2061843e-06
3.1503046e-06
4.4386551e-06
6.1590667e-06
8.3950248e-06
1.1201939e-05
1.4568987e-05
1.8366523e-05
2.2287198e-05
2.5801861e-05
2.8156824e-05
2.8765214e-05
2.8178835e-05
2.7100839e-05
2.6018233e-05
2.6793837e-05
3.0182326e-05
3.4995661e-05
4.5531855e-05
6.4041169e-05
9.4872162e-05
0.00012413547
0.00013888494
0.00014482301
0.00014492953
0.00014317876
0.00013729397
0.00012834737
0.00012347183
0.00011877311
0.00011498239
0.00011150011
0.00010795877
0.00010492333
0.00010187406
9.9257759e-05
9.7123545e-05
9.5107329e-05
9.3257191e-05
9.1720636e-05
9.017931e-05
8.9100055e-05
8.8512122e-05
8.7947786e-05
3.5924585e-14
1.1288686e-12
9.2308763e-12
3.9695681e-11
1.2213873e-10
3.0814452e-10
6.8309258e-10
1.3837721e-09
2.6242621e-09
4.7335904e-09
8.2100531e-09
1.3798864e-08
2.2602061e-08
3.6232274e-08
5.7024834e-08
8.8325076e-08
1.3486815e-07
2.0326433e-07
3.0258882e-07
4.4504233e-07
6.4658573e-07
9.2734035e-07
1.3113708e-06
1.8252295e-06
2.4943464e-06
3.3363238e-06
4.3503684e-06
5.5036077e-06
6.7180528e-06
7.8665535e-06
8.8187396e-06
9.6355074e-06
1.0569342e-05
1.1857275e-05
1.3742275e-05
1.610953e-05
2.1374641e-05
2.9619907e-05
4.4270248e-05
6.5875458e-05
9.5227366e-05
0.00012245762
0.00013831003
0.00014636086
0.00014717781
0.00014553125
0.00013994019
0.00013054353
0.00012546456
0.00012041226
0.00011651079
0.0001128625
0.00010949017
0.00010631402
0.00010316726
0.00010053941
9.8210595e-05
9.5990577e-05
9.4050517e-05
9.2366583e-05
9.0904143e-05
8.9570477e-05
8.8485936e-05
8.7883355e-05
8.7347878e-05
1.3927276e-14
4.3763981e-13
3.5785861e-12
1.5388639e-11
4.7346669e-11
1.1944201e-10
2.6474779e-10
5.3622358e-10
1.0166912e-09
1.8333141e-09
3.1784112e-09
5.3390772e-09
8.7388569e-09
1.3995598e-08
2.2000422e-08
3.4023221e-08
5.1849532e-08
7.7950972e-08
1.1568476e-07
1.6950453e-07
2.4514156e-07
3.4968074e-07
4.9141126e-07
6.7930187e-07
9.2197761e-07
1.2262883e-06
1.596123e-06
2.0333518e-06
2.5433628e-06
3.1522148e-06
3.9120972e-06
4.8991418e-06
6.5256019e-06
9.0094799e-06
1.2869017e-05
1.9466632e-05
2.9979919e-05
4.5595181e-05
6.6468726e-05
9.2530583e-05
0.00011859112
0.00013791555
0.00014797447
0.00014940174
0.0001479158
0.00014279242
0.0001329665
0.00012757248
0.00012226299
0.00011807796
0.00011433936
0.00011095591
0.00010783921
0.00010455707
0.0001018407
9.9236515e-05
9.6899904e-05
9.4938941e-05
9.3196323e-05
9.1573857e-05
9.0168278e-05
8.8803243e-05
8.7896603e-05
8.7432014e-05
8.6897044e-05
6.2863601e-15
1.9753767e-13
1.6152694e-12
6.9460192e-12
2.1371321e-11
5.3915126e-11
1.1951004e-10
2.4207255e-10
4.5901686e-10
8.2781555e-10
1.435451e-09
2.4119102e-09
3.9492683e-09
6.3283889e-09
9.9558187e-09
1.541403e-08
2.3528655e-08
3.5456618e-08
5.2798946e-08
7.7741593e-08
1.1322769e-07
1.6316818e-07
2.3271306e-07
3.2864882e-07
4.6008934e-07
6.398291e-07
8.8737183e-07
1.2347583e-06
1.7362833e-06
2.4781698e-06
3.6076191e-06
5.3873709e-06
8.2586879e-06
1.2834281e-05
2.0045964e-05
3.0660209e-05
4.5444953e-05
6.5015246e-05
8.9563773e-05
0.00011603382
0.00013895524
0.00014981416
0.00015168019
0.00015035086
0.00014580971
0.00013558357
0.00012989866
0.00012422925
0.00011986083
0.00011584998
0.00011247742
0.00010925949
0.00010609956
0.00010317781
0.00010043276
9.8052294e-05
9.6003604e-05