/*--------------------------------*- C++ -*----------------------------------*\
  =========                 |
  \\      /  F ield         | OpenFOAM: The Open Source CFD Toolbox
   \\    /   O peration     | Website:  https://openfoam.org
    \\  /    A nd           | Version:  13
     \\/     M anipulation  |
\*---------------------------------------------------------------------------*/
FoamFile
{
    format      ascii;
    class       volVectorField;
    location    "29.799531";
    object      UMean;
}
// * * * * * * * * * * * * * * * * * * * * * * * * * * * * * * * * * * * * * //

dimensions      [0 1 -1 0 0 0 0];

internalField   nonuniform List<vector> 
17140
(
(-2.309247e-06 9.638194e-05 -1.3263854e-22)
(-3.001928e-05 0.00029658801 -1.026766e-23)
(-9.0109252e-05 0.00051526842 6.7880875e-22)
(-0.00019508131 0.00075332301 -7.4660373e-22)
(-0.00035629661 0.0010116741 8.7331599e-23)
(-0.00058920377 0.0012910485 -2.8592585e-22)
(-0.00091275298 0.0015919273 -4.8170425e-22)
(-0.0013497362 0.0019144585 2.3564243e-22)
(-0.0019274635 0.0022583554 7.7183098e-22)
(-0.0026783989 0.0026227791 1.895787e-21)
(-0.0036407706 0.0030062078 -2.8174743e-21)
(-0.0048591136 0.0034062992 2.5169972e-21)
(-0.0063846943 0.0038197528 3.8590961e-22)
(-0.008275723 0.0042421854 -2.1945854e-21)
(-0.010597258 0.0046680427 2.4459846e-22)
(-0.013420685 0.0050905658 -1.9491661e-21)
(-0.01682267 0.0055018548 7.348066e-23)
(-0.020883491 0.0058930543 -1.5938478e-23)
(-0.025684749 0.0062547012 -1.1765587e-21)
(-0.031306541 0.0065772451 1.5401574e-21)
(-0.037824339 0.0068517358 -7.4652259e-22)
(-0.045305966 0.0070706211 1.4502058e-22)
(-0.053809779 0.0072285509 1.0692395e-21)
(-0.063386102 0.0073230763 -1.0710795e-21)
(-0.074074988 0.0073552218 -1.7151461e-21)
(-0.085906143 0.0073295054 1.3899775e-21)
(-0.09890834 0.007252551 6.8397322e-21)
(-0.11312414 0.007132691 8.0166916e-22)
(-0.12859468 0.0069804716 -7.1279857e-21)
(-0.14535006 0.0068039138 -1.6631542e-21)
(-0.16342537 0.0066067097 -5.9655809e-21)
(-0.18285096 0.0063895814 7.8982874e-21)
(-0.20364993 0.0061515129 -2.0543279e-21)
(-0.22583471 0.0058903884 -9.8998351e-22)
(-0.24940093 0.00560324 -9.6856396e-21)
(-0.27431929 0.0052865931 4.2767129e-21)
(-0.30052584 0.0049367124 -6.4083268e-21)
(-0.32791016 0.0045497421 -4.3220448e-21)
(-0.35630132 0.0041220425 -1.9651324e-21)
(-0.38545336 0.0036512387 5.9538082e-21)
(-0.41503208 0.0031367404 1.1129863e-20)
(-0.44460131 0.0025796204 1.0003262e-20)
(-0.47360956 0.0019810262 4.3252837e-21)
(-0.50138948 0.0013396349 -2.0625297e-20)
(-0.5271465 0.00065352784 -1.4826689e-20)
(-0.55000467 -7.3078137e-05 3.5877479e-21)
(-0.56913044 -0.00084096486 -2.3945995e-20)
(-0.58352936 -0.0016450864 -7.991627e-21)
(-0.59223337 -0.0024668102 8.0205051e-21)
(-0.59449524 -0.0032734245 1.9387961e-20)
(-0.58969119 -0.0040251704 -1.1844009e-20)
(-0.57726482 -0.00469323 -7.4539324e-21)
(-0.55673608 -0.0052877022 1.9407892e-20)
(-0.52771415 -0.0057836712 9.2118717e-21)
(-0.48973251 -0.0061093417 6.6349522e-21)
(-0.44265388 -0.0062293164 -5.2307481e-21)
(-0.38613758 -0.0061152752 1.4505313e-20)
(-0.32032517 -0.0057706041 1.2308033e-20)
(-0.24487064 -0.0052948134 3.1563779e-21)
(-0.16124353 -0.0049365771 -8.2154705e-21)
(-0.069097045 -0.0049922525 -6.5820133e-21)
(0.026682183 -0.0057347722 -2.4780254e-20)
(0.12914268 -0.007215813 -3.6967179e-21)
(0.22613642 -0.0088502232 3.1353755e-20)
(0.33085249 -0.0096195132 -2.4598928e-20)
(-2.3564468e-05 0.00054993664 3.7606908e-23)
(-9.4940855e-05 0.0016917929 -3.5534955e-21)
(-0.00020216653 0.0029386125 3.1629722e-21)
(-0.00035770999 0.0042961863 -8.6288793e-22)
(-0.00057294995 0.0057698751 -1.7829532e-21)
(-0.00086324056 0.0073640119 3.4086575e-21)
(-0.0012473261 0.0090815264 -3.5567127e-21)
(-0.0017476717 0.010923446 3.133409e-22)
(-0.0023911092 0.012888295 -9.7941613e-22)
(-0.0032094457 0.01497141 -1.6328129e-23)
(-0.0042400487 0.017164171 -3.2815399e-21)
(-0.0055263666 0.019453187 5.2285605e-21)
(-0.0071183375 0.021819485 4.3301032e-22)
(-0.0090725971 0.024237771 -4.2891828e-21)
(-0.011452394 0.026675903 1.3235769e-21)
(-0.014327107 0.029094716 8.4415705e-22)
(-0.017771254 0.031448421 -5.3768489e-21)
(-0.021862924 0.033685796 1.7617478e-20)
(-0.026681607 0.035752406 -1.1095814e-20)
(-0.032305514 0.037593992 1.3367013e-20)
(-0.038808619 0.039161017 -1.987425e-20)
(-0.046257778 0.04041406 4.9044046e-21)
(-0.054710944 0.041329357 2.0360221e-21)
(-0.064218494 0.041903373 -6.6753161e-21)
(-0.074821741 0.042155239 2.417298e-20)
(-0.086551325 0.042124162 3.6015386e-21)
(-0.099436353 0.041857145 -1.890116e-20)
(-0.11352058 0.041400348 2.1260692e-20)
(-0.12884548 0.040793488 -2.9784773e-21)
(-0.14544076 0.040069154 -2.8890617e-20)
(-0.16334066 0.039249622 3.0358194e-21)
(-0.1825745 0.038348389 2.3092338e-20)
(-0.20316373 0.037372125 5.4218128e-22)
(-0.22511846 0.036321036 -1.731947e-20)
(-0.2484314 0.035188809 1.9392958e-20)
(-0.27306964 0.033963031 -8.7208104e-21)
(-0.29896482 0.032625784 1.0348282e-20)
(-0.32600115 0.031154328 3.2718211e-20)
(-0.3540014 0.02952229 7.2619415e-21)
(-0.38271205 0.027702312 2.8329405e-20)
(-0.41178954 0.025668337 -3.6196457e-20)
(-0.44078583 0.0233965 -3.2882032e-20)
(-0.46913337 0.020864437 -5.486877e-21)
(-0.49613932 0.01805344 4.4138641e-20)
(-0.52097766 0.014960437 -2.0383036e-20)
(-0.54275429 0.011612591 -6.9286775e-21)
(-0.56053324 0.0080344132 3.7360901e-21)
(-0.57335138 0.0042470303 1.1331986e-20)
(-0.58027288 0.00034526202 -5.478374e-21)
(-0.58048341 -0.0035597683 9.7802433e-21)
(-0.57333919 -0.0073907045 5.8553319e-20)
(-0.5583278 -0.01109329 2.8002841e-21)
(-0.53500349 -0.014638678 -1.2614574e-20)
(-0.50301079 -0.017998712 2.8192169e-20)
(-0.46199637 -0.021113211 -2.4295341e-20)
(-0.41181162 -0.023930527 6.9853958e-20)
(-0.3521724 -0.02641882 2.0184882e-20)
(-0.2833376 -0.028555525 -5.816498e-20)
(-0.20499827 -0.030341638 9.9706675e-21)
(-0.11873418 -0.031901912 1.1700852e-20)
(-0.024150556 -0.033275581 2.4027967e-21)
(0.073704186 -0.034862125 -3.2245909e-20)
(0.17805418 -0.036169545 6.411011e-20)
(0.27660992 -0.037401382 1.9311908e-20)
(0.3829897 -0.03668336 3.2723627e-20)
(-6.9646882e-05 0.00099434622 2.0709687e-21)
(-0.00023553147 0.0030592579 -1.0687828e-21)
(-0.00044468401 0.0053143825 -2.842776e-22)
(-0.00070939795 0.0077705229 2.697821e-22)
(-0.0010410731 0.010437615 -1.3074961e-21)
(-0.0014547934 0.013323797 -9.6998423e-23)
(-0.0019687964 0.016434728 -1.2438126e-21)
(-0.0026047592 0.019772691 -1.3413167e-21)
(-0.0033883871 0.023335511 1.0984768e-20)
(-0.0043499617 0.027115307 -9.8248737e-21)
(-0.0055248713 0.031097103 4.7120724e-21)
(-0.0069540836 0.035257331 6.9201481e-21)
(-0.0086845225 0.03956233 -1.3768578e-20)
(-0.010769269 0.043966966 -1.7088956e-21)
(-0.013267509 0.048413601 6.6343344e-21)
(-0.016244125 0.052831692 4.5822454e-21)
(-0.019768852 0.057138403 -5.3443883e-21)
(-0.023914914 0.061240654 1.9463536e-20)
(-0.028757129 0.065039041 -1.1589535e-20)
(-0.034369556 0.068433942 5.7663071e-21)
(-0.040822879 0.071333821 -1.9609012e-20)
(-0.048181836 0.073665218 -5.1387802e-21)
(-0.0565035 0.07538318 1.08107e-20)
(-0.065838328 0.076480057 -1.6377092e-20)
(-0.076230241 0.076990188 -6.4672172e-21)
(-0.087711534 0.076985726 7.8889018e-21)
(-0.10031274 0.076555065 4.4903794e-20)
(-0.11407922 0.075783102 2.0363356e-20)
(-0.12905244 0.074738765 -1.0335526e-20)
(-0.14526222 0.073480234 1.0954805e-20)
(-0.16274029 0.072049446 -7.0384646e-21)
(-0.18151358 0.070473138 -3.9503155e-20)
(-0.20159967 0.068765858 1.3295776e-20)
(-0.22300337 0.066930193 3.975562e-20)
(-0.24571045 0.064956634 -1.3483778e-20)
(-0.26967943 0.062823815 -1.8770955e-20)
(-0.29483139 0.060499335 3.254135e-20)
(-0.32103749 0.057941255 9.8516486e-21)
(-0.34810475 0.05510014 -1.7720866e-20)
(-0.37576099 0.051922867 -7.1327535e-21)
(-0.40363954 0.048356539 3.3896271e-20)
(-0.43126274 0.044349977 -9.7164162e-21)
(-0.45802548 0.039854014 -1.3862523e-20)
(-0.48318551 0.034829981 -3.6435635e-20)
(-0.50586653 0.029273093 6.8831675e-20)
(-0.5251298 0.023233838 -4.3977995e-20)
(-0.53998608 0.01678209 -1.0831537e-20)
(-0.54944609 0.0099797773 -4.2990478e-20)
(-0.55259962 0.0029761011 -5.1189443e-20)
(-0.54869734 -0.0040325154 -2.572798e-21)
(-0.53717285 -0.010892884 1.0803328e-20)
(-0.51760692 -0.017528555 -8.0250265e-20)
(-0.48963211 -0.023920379 -3.4417798e-20)
(-0.45296171 -0.030038775 -3.5695825e-20)
(-0.40731239 -0.035817237 -1.1804576e-20)
(-0.35262723 -0.041195205 -9.3246663e-20)
(-0.28873305 -0.046125179 3.7429356e-20)
(-0.21599524 -0.050561405 -1.1702956e-20)
(-0.13414805 -0.054407753 -9.7665302e-20)
(-0.044912498 -0.057701353 -3.953377e-20)
(0.052195646 -0.06018309 4.8186767e-20)
(0.15180882 -0.062383116 1.6884814e-19)
(0.25758358 -0.063278115 -5.5110603e-20)
(0.35639285 -0.063951789 -8.9497322e-20)
(0.46217159 -0.061230251 -3.8884643e-20)
(-0.00013912626 0.0014144326 -6.8976989e-21)
(-0.0004474737 0.0043526885 7.646154e-21)
(-0.00081028793 0.0075628026 -2.765722e-21)
(-0.0012395386 0.011060677 3.0089344e-22)
(-0.0017466869 0.014860976 -5.949534e-21)
(-0.0023464012 0.018975956 6.1618136e-21)
(-0.003056148 0.023414486 -9.3542756e-21)
(-0.0038964109 0.028180786 4.4089037e-21)
(-0.0048911894 0.033272898 1.6782178e-20)
(-0.0060684541 0.03868092 -4.0452586e-21)
(-0.0074605928 0.044385004 -1.5436476e-20)
(-0.0091048077 0.050353202 4.7283014e-21)
(-0.01104344 0.056539252 3.1872484e-22)
(-0.013324157 0.062880509 -1.2464531e-20)
(-0.015999932 0.069296314 3.9201228e-20)
(-0.019128756 0.075687205 -2.4212183e-20)
(-0.02277299 0.081935512 -2.3192143e-22)
(-0.026998314 0.087907971 1.3586457e-20)
(-0.031872238 0.093461002 -3.4796929e-20)
(-0.037462242 0.098449186 1.6583546e-20)
(-0.04383369 0.10273705 2.4979807e-20)
(-0.051047757 0.10621358 1.020395e-20)
(-0.059159873 0.1088077 -5.1125998e-20)
(-0.068220394 0.11050186 -2.6983228e-20)
(-0.07827648 0.11133975 1.7708518e-20)
(-0.089363359 0.11142242 -1.0378388e-20)
(-0.10151456 0.1108806 3.9463422e-20)
(-0.11477639 0.1098386 -1.1425251e-20)
(-0.12919061 0.1083954 3.1132737e-20)
(-0.14478821 0.10663606 -1.7799591e-20)
(-0.16159655 0.10462357 1.1032234e-20)
(-0.1796391 0.10239868 -4.0985937e-20)
(-0.19892756 0.099984144 5.9713078e-21)
(-0.21945886 0.097385049 -3.1441959e-20)
(-0.24120849 0.094588589 3.0367556e-20)
(-0.26412202 0.091564435 9.6079705e-21)
(-0.28810467 0.088265703 -1.2249624e-19)
(-0.31300843 0.084630741 -3.1929218e-20)
(-0.33861728 0.080586492 2.6653914e-20)
(-0.36463177 0.076053378 -2.6204282e-20)
(-0.39065252 0.070950018 6.6359519e-21)
(-0.41616192 0.065195604 4.2062144e-20)
(-0.44050661 0.058712795 -1.9869667e-21)
(-0.46288718 0.051444515 -1.3780006e-20)
(-0.48238686 0.04339216 6.8356755e-21)
(-0.49805678 0.034635291 -3.0098491e-21)
(-0.50887877 0.02528196 -9.3120217e-21)
(-0.51388474 0.015463522 1.4573641e-19)
(-0.51224616 0.0054221073 -1.6123039e-20)
(-0.50333346 -0.0045715528 1.4888245e-20)
(-0.48669158 -0.01431009 -1.3965693e-19)
(-0.46199772 -0.02369847 7.67968e-20)
(-0.42895808 -0.032724033 6.3206259e-20)
(-0.38735411 -0.041368059 6.0860642e-20)
(-0.33698296 -0.049564128 5.9262365e-20)
(-0.27791972 -0.057246999 9.4386481e-20)
(-0.21009397 -0.064364746 -1.9110133e-19)
(-0.13399409 -0.070871755 1.1961378e-19)
(-0.049361747 -0.076564688 1.8536847e-19)
(0.041876165 -0.081410699 -1.3817475e-19)
(0.14032098 -0.08481449 -4.524471e-20)
(0.24015805 -0.087555054 -4.0687282e-20)
(0.34565175 -0.087872383 2.0774079e-19)
(0.44265558 -0.087731109 1.5441283e-19)
(0.54451423 -0.082707759 -6.9055605e-21)
(-0.00022887263 0.0017950304 4.8215912e-21)
(-0.00072130107 0.0055257303 -1.1116802e-20)
(-0.0012827326 0.0096038199 9.0673485e-21)
(-0.0019247359 0.014050362 -3.4286368e-21)
(-0.0026588828 0.01888492 -1.2393828e-21)
(-0.003499339 0.024124255 1.0676051e-20)
(-0.0044626134 0.029781082 -2.7086316e-21)
(-0.0055676929 0.035862505 -5.7580825e-21)
(-0.0068364218 0.042368092 -4.4308021e-22)
(-0.0082938349 0.049287641 -3.769569e-21)
(-0.0099684893 0.05659863 5.2928102e-21)
(-0.011892758 0.064263415 -3.6926902e-21)
(-0.014103074 0.072226307 -1.3660078e-20)
(-0.016640083 0.080410762 -3.9715063e-22)
(-0.019548654 0.088717014 1.0564762e-20)
(-0.022877709 0.097020689 7.5352459e-21)
(-0.026679819 0.10517305 -6.5345771e-21)
(-0.031010522 0.11300375 6.3853003e-22)
(-0.035927354 0.12032693 1.3006253e-20)
(-0.041488624 0.12695149 1.6013143e-20)
(-0.047752037 0.13269593 -1.8500602e-20)
(-0.054773312 0.13740701 -1.8853526e-20)
(-0.062605031 0.14098057 2.5702407e-20)
(-0.071296929 0.14338048 -3.2187149e-20)
(-0.080898903 0.14465062 -5.6365747e-20)
(-0.091451446 0.14491391 1.3450314e-19)
(-0.10299231 0.14434322 -7.4810645e-20)
(-0.11556668 0.14310229 1.1164695e-19)
(-0.12921897 0.14132302 -1.4065909e-19)
(-0.14398243 0.13911847 1.5799364e-19)
(-0.15987847 0.13657437 -1.6431487e-19)
(-0.17692617 0.13374679 2.7923306e-20)
(-0.19512977 0.13066735 9.6392867e-20)
(-0.21447631 0.12734394 -5.4617828e-20)
(-0.23492851 0.12376059 1.7176255e-20)
(-0.25641607 0.11987793 5.1143042e-21)
(-0.27882461 0.11563442 6.1970489e-20)
(-0.30198274 0.11094848 2.0075402e-20)
(-0.32564746 0.10572307 2.0063328e-20)
(-0.34948805 0.099851285 2.0129014e-20)
(-0.37306838 0.093221799 -1.0242668e-19)
(-0.39582844 0.085722341 4.4797131e-20)
(-0.41706746 0.077247527 6.8154405e-21)
(-0.43594129 0.067728655 -8.090241e-20)
(-0.45152721 0.057186771 -4.0425075e-20)
(-0.46288976 0.045741806 1.990538e-20)
(-0.46905525 0.033538333 7.075142e-20)
(-0.46913434 0.020792809 -3.081414e-20)
(-0.46239862 0.0078350608 8.8259014e-20)
(-0.44829946 -0.0049826705 4.766165e-20)
(-0.42646518 -0.017406999 6.5807804e-20)
(-0.39664515 -0.029342899 1.7576224e-19)
(-0.35858881 -0.040798013 -1.3670779e-19)
(-0.3121332 -0.051759994 4.4277496e-20)
(-0.25716691 -0.062147614 -7.8040801e-20)
(-0.1939165 -0.071884368 -7.4913576e-20)
(-0.1224552 -0.080922105 -2.9490966e-20)
(-0.043452312 -0.089251836 -2.7706907e-19)
(0.043383768 -0.096543982 -7.628193e-20)
(0.13585095 -0.10274087 1.7773738e-19)
(0.23471339 -0.10682881 6.8266445e-20)
(0.3337451 -0.10994365 -5.2715706e-20)
(0.43749291 -0.10955535 -1.1078632e-19)
(0.53135102 -0.10816536 -1.7297743e-19)
(0.62666127 -0.10048486 1.3652181e-20)
(-0.00033403892 0.0021215412 1.4561055e-20)
(-0.0010423317 0.0065336985 3.5541944e-21)
(-0.0018367951 0.011360157 -2.8810456e-21)
(-0.0027285989 0.016627135 -1.0641404e-20)
(-0.0037294962 0.022359231 5.8344977e-21)
(-0.0048531351 0.028578124 -8.4070658e-21)
(-0.0061149853 0.035301111 3.6424687e-21)
(-0.007532374 0.042539305 8.6883536e-22)
(-0.0091247246 0.050295407 -4.9287602e-21)
(-0.010913742 0.05856108 -1.064946e-20)
(-0.012923602 0.067313917 -5.3398178e-22)
(-0.015181112 0.076514055 1.7636243e-20)
(-0.017715842 0.086100557 -2.4513826e-20)
(-0.020560208 0.095987806 3.9826357e-20)
(-0.02374949 0.10606229 -1.0483437e-20)
(-0.027321758 0.11618034 2.245348e-20)
(-0.031317702 0.12616766 -2.7426419e-20)
(-0.035780348 0.13582162 1.8013067e-20)
(-0.040754666 0.1449175 -2.8869401e-21)
(-0.046287082 0.15321979 -1.1866345e-20)
(-0.052424966 0.16049922 2.9267939e-20)
(-0.059216148 0.16655521 -4.1980682e-20)
(-0.066708514 0.17124182 4.6395328e-20)
(-0.074950167 0.17449294 8.0510465e-21)
(-0.083991593 0.17634027 -8.0761829e-20)
(-0.093882159 0.17691668 8.2838301e-20)
(-0.10466319 0.17643002 -5.4672022e-20)
(-0.11637694 0.17508949 6.2038428e-20)
(-0.12907577 0.17306554 5.8130504e-21)
(-0.14279407 0.17049675 3.6260731e-21)
(-0.15754744 0.16749365 -2.5467276e-20)
(-0.17334942 0.16413044 1.6044675e-21)
(-0.19019602 0.16044889 -9.7166961e-20)
(-0.20806319 0.15646045 2.6604287e-20)
(-0.22689938 0.15214637 7.9507931e-20)
(-0.24661643 0.1474583 -3.7350688e-20)
(-0.26707857 0.14232001 3.0905534e-20)
(-0.28808965 0.1366304 -3.0940043e-20)
(-0.30937847 0.13026837 -1.728072e-19)
(-0.33058255 0.12309917 9.5572854e-20)
(-0.35123023 0.11498054 2.3256386e-20)
(-0.37072348 0.10576874 -1.3135629e-19)
(-0.38832539 0.095333931 7.9053895e-21)
(-0.40317521 0.083606551 1.6091287e-20)
(-0.4143915 0.07064102 1.6975907e-19)
(-0.42108249 0.056601403 3.8873015e-20)
(-0.42238011 0.04167174 -6.0289275e-20)
(-0.41748844 0.026147227 -6.0977902e-20)
(-0.40572946 0.010431322 -8.5719372e-20)
(-0.38656406 -0.0050469497 -1.0482128e-19)
(-0.35966393 -0.019980067 -6.3645346e-20)
(-0.32483994 -0.034272309 -9.9527458e-20)
(-0.28189194 -0.047953338 3.4282887e-20)
(-0.23072263 -0.061011186 -2.1207411e-19)
(-0.17133103 -0.073338835 -1.4244611e-20)
(-0.10411709 -0.08485067 -1.253636e-20)
(-0.029298806 -0.095504774 -6.7492187e-21)
(0.052300108 -0.10536629 2.9804209e-19)
(0.14097712 -0.11396643 1.190283e-19)
(0.23422426 -0.12126078 -1.8671519e-19)
(0.33291802 -0.12581734 -2.743777e-19)
(0.43077628 -0.12904707 -1.2526706e-19)
(0.53165468 -0.12777153 -4.1700334e-20)
(0.62103784 -0.12465728 2.4544541e-19)
(0.7076744 -0.11390177 -6.2706855e-20)
(-0.00044812345 0.0023809084 -2.7226177e-21)
(-0.0013911546 0.0073364147 -5.9582392e-21)
(-0.0024389316 0.012762159 1.4390015e-20)
(-0.0036026959 0.018689324 -5.3621949e-22)
(-0.0048943252 0.02514762 -7.0195977e-21)
(-0.0063270298 0.032164001 -3.0973833e-21)
(-0.007915282 0.03976108 -2.2904767e-21)
(-0.0096747548 0.047955176 4.5228583e-21)
(-0.011622404 0.056753882 -2.3469678e-20)
(-0.013776492 0.066153163 1.7766948e-20)
(-0.016156614 0.076133941 -8.6104354e-22)
(-0.018783692 0.086658208 -1.0839706e-20)
(-0.021679959 0.097664772 4.078175e-20)
(-0.024868931 0.10906484 -4.0917612e-20)
(-0.02837538 0.12073784 5.4998437e-21)
(-0.032225302 0.13252806 3.4315474e-20)
(-0.036445939 0.14424301 -3.2626709e-20)
(-0.041065849 0.15565461 1.1558462e-20)
(-0.046115079 0.16650476 -2.2750493e-20)
(-0.051625467 0.17651658 2.9648721e-20)
(-0.0576311 0.18541262 5.6577707e-20)
(-0.064168899 0.19294011 -5.6976762e-20)
(-0.071279263 0.19890177 -8.4826115e-20)
(-0.079006646 0.20318769 1.6633981e-19)
(-0.087400677 0.20580097 -1.3541605e-19)
(-0.096517252 0.20686723 7.9648349e-20)
(-0.10640443 0.2066153 -2.0827362e-20)
(-0.1171059 0.20530882 4.9621894e-20)
(-0.12867651 0.2031625 -5.1434113e-20)
(-0.14115449 0.20033802 -6.9666183e-20)
(-0.15455405 0.19697303 4.6786062e-20)
(-0.16887988 0.19316393 7.7664307e-20)
(-0.18412027 0.18896496 -6.961097e-21)
(-0.20023937 0.18439256 -2.9271854e-21)
(-0.21717043 0.17942585 -5.0843832e-20)
(-0.23480696 0.17400814 2.207621e-20)
(-0.2529917 0.16804922 8.1087934e-20)
(-0.27150393 0.16142879 4.0701607e-20)
(-0.29004532 0.15400196 -6.2535106e-20)
(-0.30822392 0.14560612 4.9566951e-20)
(-0.32553715 0.13606828 -4.1785278e-20)
(-0.34135858 0.1252154 1.4180339e-20)
(-0.35493395 0.11290137 5.2849878e-20)
(-0.3654233 0.099071123 -1.2554393e-19)
(-0.37202521 0.08382152 -7.4151032e-20)
(-0.37394021 0.067354852 -4.7638219e-20)
(-0.37041699 0.049892152 1.4783184e-19)
(-0.36071375 0.031766494 9.4887933e-20)
(-0.3441044 0.013436741 1.102771e-19)
(-0.32001824 -0.0045711814 1.9095147e-19)
(-0.28818558 -0.021866148 -6.5589917e-20)
(-0.24848941 -0.038345025 1.3772718e-20)
(-0.20078985 -0.054066528 1.1011077e-19)
(-0.14508312 -0.069016404 3.2555556e-19)
(-0.081511296 -0.083049585 2.1717218e-19)
(-0.010660246 -0.0960745 8.6819934e-20)
(0.067187981 -0.10806331 2.5782234e-19)
(0.15114989 -0.11917369 -1.7790998e-19)
(0.24144327 -0.12877684 1.8627516e-20)
(0.33535986 -0.13685345 3.0089435e-19)
(0.4336581 -0.14165211 2.0886161e-19)
(0.53035063 -0.14460943 9.9633237e-21)
(0.62739419 -0.14216215 -3.4658691e-19)
(0.7104975 -0.13683797 3.6640476e-20)
(0.78624801 -0.12269298 -5.3717726e-20)
(-0.00056346228 0.0025623764 -1.0633919e-20)
(-0.0017442245 0.0079006661 4.9152425e-21)
(-0.003048696 0.013751954 -6.6440697e-21)
(-0.0044884584 0.020152055 -3.7791505e-21)
(-0.0060755724 0.027135713 1.0557787e-20)
(-0.0078229536 0.034735377 9.8683022e-21)
(-0.0097442322 0.04297959 -1.0143607e-20)
(-0.011853603 0.051890992 1.2223038e-21)
(-0.014165743 0.061483807 2.8387078e-22)
(-0.016695668 0.071760794 2.0244391e-20)
(-0.019458579 0.082709583 -2.2314203e-21)
(-0.022469669 0.094298425 -4.1178457e-20)
(-0.025743925 0.10647139 3.3112941e-20)
(-0.029295939 0.1191432 -1.1506872e-21)
(-0.033139761 0.13219404 -2.253579e-20)
(-0.037288841 0.14546487 -1.9602908e-21)
(-0.041756129 0.15875424 5.0413964e-21)
(-0.046554403 0.1718178 2.3019719e-20)
(-0.051696918 0.18437209 -4.2783862e-20)
(-0.057198443 0.19610455 7.6427081e-20)
(-0.063076714 0.20669151 -1.6784652e-20)
(-0.069354231 0.21582485 1.2530105e-20)
(-0.076060193 0.22324665 -1.0529902e-20)
(-0.08323218 0.22878775 4.1953536e-22)
(-0.090917123 0.23240256 -6.4465069e-20)
(-0.099171717 0.23418826 -6.5319649e-20)
(-0.10805674 0.23437485 1.3120824e-19)
(-0.11762088 0.23326988 2.209448e-20)
(-0.12791115 0.23115181 -7.8047082e-20)
(-0.13897698 0.22821402 -2.8028988e-20)
(-0.15083647 0.22461293 -6.3765118e-20)
(-0.16348375 0.2204722 7.2733704e-20)
(-0.17689882 0.21586382 3.2013187e-20)
(-0.19103364 0.210811 -7.4953999e-20)
(-0.20580678 0.20529251 3.1736602e-20)
(-0.22109386 0.19924477 1.4833373e-20)
(-0.2367168 0.19256459 -4.4783962e-20)
(-0.25243166 0.18511341 -1.1715446e-19)
(-0.26791515 0.17672336 -3.552398e-20)
(-0.28274906 0.16720468 2.3828073e-20)
(-0.29640612 0.15635557 5.6422034e-20)
(-0.30824305 0.14397889 5.8003547e-20)
(-0.31750886 0.1299233 6.3787683e-20)
(-0.32342207 0.11416404 1.3283206e-19)
(-0.32527833 0.096850928 -3.6147612e-21)
(-0.32239897 0.078206648 5.510701e-20)
(-0.31410807 0.058459818 -2.944093e-19)
(-0.29963342 0.037933751 -8.0751573e-20)
(-0.27815674 0.017140895 -9.1472835e-20)
(-0.24916484 -0.0032564342 -2.5183397e-19)
(-0.21250282 -0.022760782 2.93271e-19)
(-0.16812197 -0.041268405 -6.5492313e-20)
(-0.11593282 -0.058857264 -2.1153277e-19)
(-0.056027655 -0.075500695 -2.6242423e-19)
(0.011310803 -0.091009983 -3.3863056e-20)
(0.085361882 -0.10531689 8.6210018e-20)
(0.16588228 -0.11841039 1.4131336e-19)
(0.25195869 -0.13053344 -6.0644024e-20)
(0.34375612 -0.14087904 1.1126575e-19)
(0.43854304 -0.14943152 -9.4678164e-20)
(0.53664979 -0.15420542 -3.2440781e-20)
(0.63195935 -0.15640767 -9.7405147e-20)
(0.72382492 -0.15214963 4.3216915e-19)
(0.79789232 -0.14417017 1.4172055e-20)
(0.85995624 -0.12653827 1.7658708e-19)
(-0.00067151168 0.0026583537 9.8780122e-21)
(-0.0020753114 0.0082028473 1.8037486e-21)
(-0.0036209299 0.014288075 -1.9834598e-21)
(-0.0053203867 0.020953978 -9.7559658e-21)
(-0.0071860567 0.028240023 1.1711564e-20)
(-0.0092307494 0.036184137 -9.9570656e-21)
(-0.011467506 0.044821157 -4.7651383e-21)
(-0.013909369 0.05418091 2.5617229e-22)
(-0.016569142 0.064285748 4.0399432e-21)
(-0.01945909 0.075147498 2.3036391e-20)
(-0.022590596 0.086763736 -3.8809504e-20)
(-0.025973767 0.099113327 4.6821242e-20)
(-0.029617035 0.11215126 -1.3819468e-20)
(-0.033526748 0.12580283 -1.886553e-20)
(-0.03770684 0.13995748 2.9144069e-20)
(-0.042158633 0.15446279 -5.7939223e-20)
(-0.046880872 0.16911934 7.0922366e-20)
(-0.051870158 0.183678 1.1245624e-21)
(-0.057121877 0.19784098 4.1667451e-20)
(-0.062631824 0.21126935 -1.6788926e-19)
(-0.068398536 0.22359887 4.1326314e-20)
(-0.074426344 0.23446625 1.7387974e-19)
(-0.080728788 0.24354595 -8.3710167e-20)
(-0.087331883 0.25059445 -1.0162792e-19)
(-0.094276228 0.255495 2.6033318e-20)
(-0.10161687 0.25828984 1.3828276e-19)
(-0.10941957 0.25918344 -2.1289811e-19)
(-0.11774832 0.25849949 2.3935895e-19)
(-0.12664784 0.2565852 -1.9084587e-19)
(-0.13616208 0.25370517 3.6965324e-20)
(-0.14632247 0.25003131 -6.3906961e-20)
(-0.15712029 0.24570113 -9.1730764e-20)
(-0.16852578 0.24081216 3.6644267e-20)
(-0.18047956 0.23540321 9.6252777e-21)
(-0.19288493 0.22945575 1.3702747e-19)
(-0.20560012 0.22290086 -2.6928056e-20)
(-0.21842729 0.21562365 6.900153e-20)
(-0.23110078 0.20746854 -5.8466482e-20)
(-0.24327397 0.1982459 3.4984988e-20)
(-0.25450517 0.18774058 2.2652891e-20)
(-0.26424767 0.17572592 1.9348952e-20)
(-0.27185125 0.16198868 1.9188165e-20)
(-0.27658614 0.1463859 -1.1631132e-19)
(-0.27775436 0.12893893 -9.0710346e-20)
(-0.27473639 0.10985066 2.5439429e-20)
(-0.26695444 0.089340342 -1.5876206e-20)
(-0.2537398 0.067600244 6.5995507e-20)
(-0.23423915 0.044915969 -1.2929842e-19)
(-0.20767711 0.021879165 -1.4910716e-19)
(-0.17375076 -0.00069451957 -4.2977678e-20)
(-0.13243964 -0.022222562 -1.1300615e-19)
(-0.083709161 -0.042591314 3.631315e-21)
(-0.027472033 -0.061895405 5.503379e-20)
(0.036101097 -0.080081361 2.6883884e-19)
(0.10663166 -0.096912295 -1.3573124e-19)
(0.18338131 -0.11235173 5.5409383e-20)
(0.26621816 -0.12640367 -1.6501275e-19)
(0.35431168 -0.13935405 2.8131974e-19)
(0.44783194 -0.15022937 -1.6398595e-19)
(0.54399322 -0.15882877 5.7359977e-20)
(0.64218412 -0.16307922 -7.0199229e-23)
(0.7352169 -0.16382943 4.66071e-20)
(0.81906187 -0.15721384 1.751591e-19)
(0.88010785 -0.14642642 -3.3385951e-19)
(0.92551809 -0.12591218 3.4496589e-19)
(-0.00076343642 0.0026652826 -2.1834669e-20)
(-0.0023573707 0.0082315583 -1.0189108e-20)
(-0.0041089129 0.014349971 1.6007996e-20)
(-0.0060305806 0.021063843 -4.2175009e-22)
(-0.0081351799 0.028416765 -1.4504598e-20)
(-0.01043562 0.036451799 -7.595108e-21)
(-0.012944664 0.04521006 1.6039881e-20)
(-0.015674633 0.054728995 -2.6390567e-21)
(-0.018637038 0.065040096 3.7325306e-20)
(-0.021842129 0.076166031 -7.3012228e-21)
(-0.025298386 0.088117028 -1.872816e-22)
(-0.029011926 0.10088644 2.7111522e-20)
(-0.032985879 0.11444543 -8.7454716e-20)
(-0.037219743 0.12873673 4.1072e-20)
(-0.041708785 0.14366774 7.4278747e-20)
(-0.046443597 0.15910311 -8.0037783e-20)
(-0.051409918 0.17485782 9.9709544e-21)
(-0.056588922 0.19069156 -5.7531089e-20)
(-0.061958201 0.20630657 -4.3449999e-20)
(-0.067493638 0.22135094 1.3919217e-19)
(-0.073172424 0.23543068 -1.0658464e-19)
(-0.078977174 0.24813294 1.4319869e-19)
(-0.08490094 0.25906234 -1.7200344e-20)
(-0.09095237 0.26788895 7.164733e-20)
(-0.097159804 0.27440221 -1.5896243e-19)
(-0.10357251 0.2785581 3.8351462e-20)
(-0.1102568 0.28050109 9.842633e-20)
(-0.11728488 0.28053896 -2.4168134e-19)
(-0.12471906 0.27905973 1.0659558e-19)
(-0.13259534 0.27641541 1.1597186e-19)
(-0.14093765 0.2728451 -9.6970651e-20)
(-0.14975371 0.26850666 -1.2968409e-20)
(-0.15900573 0.26350322 6.6271782e-20)
(-0.16862146 0.25788759 -3.6998511e-20)
(-0.17849318 0.25165381 5.7133251e-20)
(-0.18846311 0.24473309 -2.0235857e-19)
(-0.19831345 0.23700207 1.0683261e-19)
(-0.2077565 0.22829039 6.4555191e-20)
(-0.21642217 0.21838833 1.3280433e-19)
(-0.22384669 0.2070583 1.7442352e-20)
(-0.22946739 0.19405426 -1.4280921e-19)
(-0.23263408 0.1791572 5.7387764e-20)
(-0.2326504 0.16224773 8.4397163e-20)
(-0.22889704 0.14339655 1.3239461e-20)
(-0.22081605 0.12284761 -8.0563863e-20)
(-0.20787705 0.10080495 -7.0193729e-20)
(-0.18937339 0.077392162 2.1145522e-19)
(-0.16446706 0.052875608 1.110061e-19)
(-0.13265682 0.027935482 2.3926452e-19)
(-0.093918603 0.0035068018 8.3633762e-20)
(-0.048293562 -0.019780455 3.2369984e-20)
(0.0043092311 -0.041831826 2.4010898e-19)
(0.06401766 -0.06272245 9.4995898e-20)
(0.13063924 -0.082339272 -3.2102068e-19)
(0.20379465 -0.10038408 2.5976287e-19)
(0.28285605 -0.11685648 -2.4104216e-19)
(0.36792638 -0.13175184 1.1670652e-19)
(0.45846226 -0.14532994 -5.6919775e-19)
(0.554481 -0.15641323 -2.8709874e-19)
(0.65285587 -0.16469037 1.1691929e-19)
(0.75082677 -0.16787806 1.8424997e-19)
(0.83854542 -0.16648602 3.0956564e-19)
(0.90917143 -0.15705211 5.4730523e-20)
(0.95269465 -0.14365974 4.3164379e-20)
(0.97903968 -0.12130274 -4.6078975e-19)
(-0.00083091692 0.0025843614 -3.9220845e-22)
(-0.002564862 0.0079898679 1.8843276e-20)
(-0.004468411 0.013941969 -2.2230728e-20)
(-0.0065545773 0.020486357 -1.0708426e-20)
(-0.0088366629 0.027669838 2.1471846e-20)
(-0.011327856 0.035539853 6.9647746e-21)
(-0.014040951 0.044143291 -3.3837102e-20)
(-0.016988024 0.053525052 3.6492021e-20)
(-0.020179958 0.063726082 7.7189366e-21)
(-0.023625882 0.074780843 3.0806857e-20)
(-0.027332518 0.086714013 -8.2129638e-20)
(-0.031303422 0.099536323 -1.0077377e-21)
(-0.035538143 0.11323936 7.455694e-20)
(-0.040031321 0.12778925 -8.0599776e-20)
(-0.04477179 0.14311928 5.8190368e-20)
(-0.049741784 0.15912149 2.179314e-20)
(-0.054916393 0.1756379 -4.6063006e-20)
(-0.060263481 0.19245223 4.2132259e-20)
(-0.065744368 0.20928372 5.6930844e-20)
(-0.071315621 0.22578554 -1.2304008e-21)
(-0.076932237 0.24155091 -9.2916618e-20)
(-0.082552499 0.25613074 5.8515409e-20)
(-0.088144318 0.26906578 -3.322041e-20)
(-0.093692467 0.27993462 -1.637708e-19)
(-0.099205276 0.28841396 -5.5677971e-20)
(-0.10471862 0.29434074 1.5404974e-19)
(-0.11029412 0.29775698 -1.5629449e-20)
(-0.11600858 0.29891148 1.7940812e-19)
(-0.12193526 0.29819583 -1.0788811e-19)
(-0.1281248 0.29602866 5.7692344e-20)
(-0.13460251 0.29274915 -8.4838047e-20)
(-0.14135977 0.28857272 -2.0903089e-20)
(-0.14835739 0.28362561 1.0671671e-19)
(-0.15552806 0.27797569 -1.1149632e-19)
(-0.16275124 0.27162446 -1.6489854e-19)
(-0.16985301 0.26450312 1.7133751e-20)
(-0.17659665 0.25648184 1.8230788e-19)
(-0.18267213 0.24737779 -2.3544014e-19)
(-0.18768531 0.23696604 5.1368328e-20)
(-0.19115057 0.2249912 -1.1017668e-19)
(-0.19249257 0.21119444 1.6990587e-20)
(-0.19106586 0.1953597 -1.7278617e-19)
(-0.18621626 0.17739632 -8.2797134e-20)
(-0.17737059 0.1574322 -1.0202134e-19)
(-0.16401571 0.13573794 4.0910784e-19)
(-0.14562979 0.11249068 1.3229958e-19)
(-0.12149653 0.08776256 -1.7537455e-19)
(-0.091006949 0.061823595 1.4172732e-19)
(-0.054057531 0.035431567 1.1786931e-19)
(-0.010820918 0.0095504691 -1.3263774e-19)
(0.03868765 -0.01522503 -6.92987e-20)
(0.094657483 -0.038797685 -1.6269328e-19)
(0.15731205 -0.061160169 -7.9239186e-20)
(0.22652893 -0.082117497 2.7164848e-19)
(0.30204463 -0.10130762 1.5367796e-19)
(0.38351368 -0.11875049 2.4817232e-20)
(0.47146721 -0.13443152 -1.0880522e-21)
(0.56575471 -0.14843317 1.4098379e-19)
(0.66573319 -0.15939089 -2.0485485e-19)
(0.76650177 -0.16652548 -2.6680008e-19)
(0.86131307 -0.16765017 -7.5107661e-20)
(0.93718206 -0.16347503 -5.7239441e-19)
(0.98796911 -0.15153796 -4.5740446e-19)
(1.010188 -0.13671779 -1.1689389e-19)
(1.0165885 -0.1146997 -6.2503095e-20)
(-0.0008670699 0.002422106 1.323004e-20)
(-0.0026765659 0.0074971013 7.876908e-21)
(-0.0046625358 0.01309646 -1.6393272e-20)
(-0.0068383999 0.019266989 2.8120681e-20)
(-0.0092179324 0.02605746 7.0472113e-21)