/*--------------------------------*- C++ -*----------------------------------*\
  =========                 |
  \\      /  F ield         | OpenFOAM: The Open Source CFD Toolbox
   \\    /   O peration     | Website:  https://openfoam.org
    \\  /    A nd           | Version:  13
     \\/     M anipulation  |
\*---------------------------------------------------------------------------*/
FoamFile
{
    format      ascii;
    class       volScalarField;
    location    "0.02";
    object      p;
}
// * * * * * * * * * * * * * * * * * * * * * * * * * * * * * * * * * * * * * //

dimensions      [1 -1 -2 0 0 0 0];

internalField   nonuniform List<scalar> 
1000
(
42888.4
42872.4
42859.7
42846.5
42833.4
42820.2
42807.1
42794
42780.8
42767.7
42754.5
42741.3
42728.2
42715
42701.8
42688.6
42675.4
42662.3
42649.1
42635.8
42622.6
42609.4
42596.2
42583
42569.8
42556.5
42543.3
42530
42516.8
42503.5
42490.3
42477
42463.8
42450.5
42437.2
42423.9
42410.6
42397.4
42384.1
42370.8
42357.5
42344.2
42330.9
42317.6
42304.2
42290.9
42277.6
42264.3
42251
42237.6
42224.3
42211
42197.6
42184.3
42170.9
42157.6
42144.2
42130.9
42117.5
42104.2
42090.8
42077.4
42064.1
42050.7
42037.3
42024
42010.6
41997.2
41983.8
41970.5
41957.1
41943.7
41930.3
41916.9
41903.5
41890.2
41876.8
41863.4
41850
41836.6
41823.2
41809.8
41796.4
41783
41769.6
41756.2
41742.9
41729.5
41716.1
41702.7
41689.3
41675.9
41662.5
41649.1
41635.7
41622.3
41609
41595.6
41582.2
41568.8
41555.4
41542.1
41528.7
41515.3
41501.9
41488.6
41475.2
41461.8
41448.5
41435.1
41421.8
41408.4
41395.1
41381.7
41368.4
41355
41341.7
41328.4
41315.1
41301.7
41288.4
41275.1
41261.8
41248.5
41235.2
41221.9
41208.6
41195.4
41182.1
41168.8
41155.6
41142.3
41129.1
41115.8
41102.6
41089.4
41076.2
41062.9
41049.7
41036.6
41023.4
41010.2
40997
40983.9
40970.7
40957.6
40944.4
40931.3
40918.2
40905.1
40892
40878.9
40865.9
40852.8
40839.8
40826.7
40813.7
40800.7
40787.7
40774.7
40761.7
40748.7
40735.8
40722.8
40709.9
40696.9
40684
40671.1
40658.2
40645.4
40632.5
40619.7
40606.8
40594
40581.2
40568.4
40555.6
40542.8
40530
40517.3
40504.6
40491.8
40479.1
40466.4
40453.7
40441
40428.4
40415.7
40403
40390.4
40377.8
40365.2
40352.6
40340
40327.4
40314.8
40302.2
40289.7
40277.1
40264.6
40252
40239.5
40227
40214.5
40202
40189.5
40177
40164.5
40152
40139.5
40127
40114.5
40102
40089.5
40077.1
40064.6
40052.1
40039.6
40027.1
40014.6
40002.1
39989.6
39977.1
39964.6
39952.1
39939.5
39927
39914.4
39901.8
39889.3
39876.7
39864
39851.4
39838.7
39826.1
39813.4
39800.6
39787.9
39775.1
39762.3
39749.5
39736.6
39723.7
39710.8
39697.8
39684.8
39671.8
39658.7
39645.6
39632.4
39619.2
39605.9
39592.6
39579.2
39565.7
39552.3
39538.7
39525.1
39511.4
39497.7
39483.8
39469.9
39456
39441.9
39427.8
39413.6
39399.3
39384.9
39370.4
39355.9
39341.2
39326.4
39311.5
39296.6
39281.5
39266.3
39250.9
39235.5
39219.9
39204.2
39188.4
39172.5
39156.4
39140.1
39123.7
39107.2
39090.5
39073.7
39056.7
39039.6
39022.2
39004.7
38987.1
38969.2
38951.2
38933
38914.6
38896
38877.2
38858.2
38839
38819.6
38799.9
38780.1
38760
38739.7
38719.2
38698.5
38677.5
38656.2
38634.8
38613
38591.1
38568.8
38546.3
38523.6
38500.6
38477.3
38453.7
38429.9
38405.8
38381.4
38356.7
38331.8
38306.5
38281
38255.1
38229
38202.6
38175.8
38148.8
38121.4
38093.8
38065.8
38037.6
38009
37980.1
37950.9
37921.4
37891.6
37861.5
37831.1
37800.3
37769.3
37737.9
37706.2
37674.3
37642
37609.4
37576.5
37543.3
37509.9
37476.1
37442
37407.7
37373
37338.1
37302.9
37267.4
37231.7
37195.7
37159.4
37122.9
37086.1
37049.1
37011.9
36974.4
36936.7
36898.7
36860.6
36822.2
36783.7
36744.9
36705.9
36666.8
36627.5
36588
36548.4
36508.6
36468.6
36428.5
36388.3
36347.9
36307.5
36266.9
36226.2
36185.4
36144.6
36103.6
36062.6
36021.5
35980.4
35939.2
35897.9
35856.7
35815.4
35774
35732.7
35691.4
35650
35608.7
35567.3
35526
35484.8
35443.5
35402.3
35361.2
35320.1
35279
35238
35197.1
35156.3
35115.5
35074.9
35034.3
34993.8
34953.4
34913.2
34873
34833
34793.1
34753.3
34713.6
34674.1
34634.7
34595.4
34556.3
34517.4
34478.6
34439.9
34401.4
34363.1
34324.9
34286.9
34249.1
34211.5
34174
34136.7
34099.6
34062.6
34025.9
33989.3
33953
33916.8
33880.8
33845
33809.4
33774
33738.8
33703.8
33669
33634.4
33600
33565.8
33531.8
33498.1
33464.5
33431.1
33398
33365
33332.3
33299.8
33267.5
33235.4
33203.5
33171.9
33140.4
33109.2
33078.2
33047.4
33016.8
32986.5
32956.3
32926.4
32896.7
32867.2
32837.9
32808.9
32780
32751.4
32723
32694.8
32666.8
32639.1
32611.5
32584.2
32557.1
32530.2
32503.5
32477.1
32450.8
32424.8
32399
32373.4
32348
32322.9
32297.9
32273.2
32248.6
32224.3
32200.2
32176.3
32152.6
32129.2
32105.9
32082.8
32060
32037.4
32014.9
31992.7
31970.7
31948.9
31927.3
31905.9
31884.7
31863.7
31842.9
31822.3
31801.9
31781.7
31761.7
31741.9
31722.3
31702.9
31683.7
31664.7
31645.8
31627.2
31608.8
31590.5
31572.5
31554.6
31536.9
31519.4
31502.1
31485
31468.1
31451.3
31434.7
31418.4
31402.1
31386.1
31370.3
31354.6
31339.1
31323.8
31308.6
31293.6
31278.8
31264.2
31249.7
31235.4
31221.3
31207.3
31193.5
31179.9
31166.4
31153.1
31139.9
31127
31114.1
31101.4
31088.9
31076.6
31064.3
31052.3
31040.4
31028.6
31017
31005.5
30994.2
30983
30972
30961.1
30950.4
30939.8
30929.3
30919
30908.8
30898.8
30888.9
30879.1
30869.4
30859.9
30850.5
30841.3
30832.1
30823.1
30814.2
30805.5
30796.8
30788.3
30779.9
30771.7
30763.5
30755.5
30747.6
30739.8
30732.1
30724.5
30717
30709.7
30702.4
30695.3
30688.3
30681.3
30674.5
30667.8
30661.2
30654.7
30648.3
30641.9
30635.7
30629.6
30623.6
30617.7
30611.8
30606.1
30600.5
30594.9
30589.5
30584.1
30578.8
30573.6
30568.5
30563.5
30558.5
30553.7
30548.9
30544.2
30539.6
30535.1
30530.6
30526.3
30522
30517.7
30513.6
30509.5
30505.5
30501.6
30497.7
30494
30490.3
30486.6
30483
30479.5
30476.1
30472.7
30469.4
30466.2
30463
30459.9
30456.9
30453.9
30450.9
30448.1
30445.3
30442.5
30439.8
30437.2
30434.6
30432.1
30429.7
30427.3
30424.9
30422.6
30420.4
30418.2
30416.1
30414
30411.9
30410
30408
30406.1
30404.3
30402.5
30400.8
30399.1
30397.5
30395.9
30394.3
30392.8
30391.4
30390
30388.6
30387.3
30386
30384.8
30383.6
30382.5
30381.4
30380.3
30379.3
30378.3
30377.4
30376.5
30375.7
30374.9
30374.1
30373.4
30372.7
30372
30371.4
30370.9
30370.4
30369.9
30369.4
30369
30368.6
30368.3
30368
30367.8
30367.6
30367.4
30367.3
30367.2
30367.1
30367.1
30367.1
30367.2
30367.3
30367.4
30367.6
30367.8
30368
30368.3
30368.7
30369
30369.4
30369.9
30370.4
30370.9
30371.5
30372.1
30372.8
30373.5
30374.2
30375
30375.8
30376.7
30377.6
30378.6
30379.6
30380.6
30381.7
30382.8
30384
30385.3
30386.5
30387.9
30389.2
30390.7
30392.1
30393.6
30395.2
30396.8
30398.5
30400.2
30402
30403.8
30405.7
30407.7
30409.6
30411.7
30413.8
30416
30418.2
30420.4
30422.8
30425.2
30427.6
30430.1
30432.7
30435.4
30438.1
30440.8
30443.7
30446.6
30449.5
30452.6
30455.7
30458.9
30462.1
30465.4
30468.8
30472.3
30475.8
30479.4
30483.1
30486.8
30490.7
30494.6
30498.6
30502.7
30506.8
30511.1
30515.4
30519.8
30524.3
30528.8
30533.5
30538.3
30543.1
30548
30553
30558.1
30563.3
30568.6
30574
30579.5
30585.1
30590.8
30596.5
30602.4
30608.4
30614.4
30620.6
30626.9
30633.2
30639.7
30646.3
30653
30659.7
30666.6
30673.6
30680.7
30687.9
30695.2
30702.7
30710.2
30717.8
30725.6
30733.4
30741.4
30749.4
30757.6
30765.9
30774.3
30782.8
30791.4
30800.1
30808.9
30817.9
30826.9
30836
30845.3
30854.6
30864.1
30873.7
30883.3
30893.1
30903
30912.9
30923
30933.2
30943.4
30953.8
30964.2
30974.7
30985.4
30996.1
31006.9
31017.8
31028.7
31039.8
31050.9
31062.1
31073.3
31084.7
31096.1
31107.5
31119
31130.6
31142.3
31153.9
31165.7
31177.5
31189.3
31201.1
31213
31225
31236.9
31248.9
31260.9
31272.9
31284.9
31296.9
31309
31321
31333
31345
31357
31369
31381
31392.9
31404.8
31416.7
31428.5
31440.3
31452
31463.7
31475.3
31486.9
31498.4
31509.8
31521.2
31532.5
31543.7
31554.8
31565.8
31576.7
31587.5
31598.3
31608.9
31619.4
31629.8
31640.1
31650.2
31660.3
31670.2
31680
31689.6
31699.1
31708.5
31717.8
31726.9
31735.8
31744.7
31753.3
31761.9
31770.2
31778.4
31786.5
31794.4
31802.2
31809.8
31817.2
31824.5
31831.7
31838.6
31845.5
31852.1
31858.6
31865
31871.1
31877.2
31883
31888.7
31894.3
31899.7
31905
31910.1
31915
31919.8
31924.4
31928.9
31933.3
31937.5
31941.6
31945.5
31949.3
31952.9
31956.4
31959.8
31963
31966.2
31969.1
31972
31974.7
31977.4
31979.9
31982.2
31984.5
31986.7
31988.7
31990.6
31992.5
31994.2
31995.8
31997.3
31998.8
32000.1
32001.3
32002.5
32003.5
32004.5
32005.4
32006.2
32006.9
32007.6
32008.2
32008.7
32009.1
32009.4
32009.7
32009.9
32010.1
32010.2
32010.2
32010.1
)
;

boundaryField
{
    sides
    {
        type            zeroGradient;
    }
    empty
    {
        type            empty;
    }
}


// ************************************************************************* //
