/*--------------------------------*- C++ -*----------------------------------*\
  =========                 |
  \\      /  F ield         | OpenFOAM: The Open Source CFD Toolbox
   \\    /   O peration     | Website:  https://openfoam.org
    \\  /    A nd           | Version:  13
     \\/     M anipulation  |
\*---------------------------------------------------------------------------*/
FoamFile
{
    format      ascii;
    class       volScalarField;
    location    "1000";
    object      p;
}
// * * * * * * * * * * * * * * * * * * * * * * * * * * * * * * * * * * * * * //

dimensions      [0 2 -2 0 0 0 0];

internalField   nonuniform List<scalar> 
2416
(
-1.2450367
-1.2436516
-1.2416598
-1.2392164
-1.2360157
-1.2317765
-1.2261785
-1.218796
-1.2090825
-1.1963478
-1.1797379
-1.1582257
-1.1306267
-1.0956582
-1.0520657
-0.99883311
-0.93548954
-0.86233726
-0.78099641
-0.69325279
-0.60429384
-0.51241076
-0.433607
-0.34227994
-0.29509017
-0.1938877
-1.2446321
-1.2431995
-1.2412428
-1.2388144
-1.2355878
-1.2313235
-1.225693
-1.2182677
-1.2084985
-1.1956919
-1.1789907
-1.157365
-1.1296298
-1.0945057
-1.0507468
-0.99735264
-0.93387
-0.86062657
-0.77924031
-0.69154942
-0.60263338
-0.51093243
-0.43225779
-0.34112829
-0.29446489
-0.19223457
-1.2442889
-1.2428262
-1.2408305
-1.2383528
-1.2350618
-1.2307145
-1.2249775
-1.2174169
-1.2074775
-1.1944597
-1.1775011
-1.1555697
-1.1274837
-1.0919748
-1.0478197
-0.9940509
-0.93025403
-0.85680628
-0.77533132
-0.68775453
-0.59897484
-0.50766862
-0.42939046
-0.33857966
-0.29320568
-0.1885976
-1.2435108
-1.2419984
-1.239938
-1.2373774
-1.2339794
-1.2294945
-1.2235821
-1.2158
-1.2055842
-1.1922269
-1.1748593
-1.1524474
-1.1238151
-1.0877122
-1.0429492
-0.98860994
-0.92434194
-0.85059723
-0.76901753
-0.68164688
-0.59312294
-0.50244958
-0.42488162
-0.33452042
-0.29124033
-0.18284203
-1.2418394
-1.2402589
-1.2381104
-1.2354359
-1.2318906
-1.2272161
-1.2210619
-1.2129741
-1.2023764
-1.1885495
-1.170616
-1.1475405
-1.1181571
-1.0812434
-1.0356595
-0.98056215
-0.91568536
-0.84157979
-0.75991796
-0.67289294
-0.58477435
-0.49502462
-0.41854249
-0.32879914
-0.28839785
-0.17491017
-1.2383849
-1.2367197
-1.2344628
-1.2316459
-1.2279168
-1.2230062
-1.2165506
-1.2080821
-1.1970093
-1.1825991
-1.1639643
-1.1400685
-1.1097605
-1.0718549
-1.0252772
-0.96927851
-0.90370508
-0.82922901
-0.74756814
-0.66109832
-0.57355845
-0.48512835
-0.41019014
-0.32124385
-0.28443191
-0.16478202
-1.2318799
-1.2301166
-1.2277364
-1.2247541
-1.2208122
-1.215628
-1.2088238
-1.1999151
-1.1882939
-1.1732114
-1.1537706
-1.1289361
-1.0975765
-1.0585536
-1.010874
-0.95390419
-0.88762754
-0.81285564
-0.73137762
-0.6458219
-0.55895784
-0.47235012
-0.39910085
-0.31162398
-0.27901856
-0.15278674
-1.2206052
-1.2187358
-1.2162249
-1.2130625
-1.2088896
-1.2034091
-1.1962275
-1.1868433
-1.1746308
-1.1588259
-1.1385224
-1.1126895
-1.0802222
-1.0400411
-0.9912504
-0.93335312
-0.86649418
-0.79164279
-0.71074125
-0.62678303
-0.54047354
-0.45570736
-0.38513694
-0.29986504
-0.27173494
-0.13902637
-1.2021708
-1.2001943
-1.1975554
-1.1942104
-1.1898047
-1.184026
-1.1764657
-1.166606
-1.1538049
-1.1372854
-1.1161362
-1.0893363
-1.0558152
-1.014562
-0.96479065
-0.90615129
-0.83895267
-0.76428666
-0.68418162
-0.60060068
-0.51930895
-0.43745543
-0.36805354
-0.28551498
-0.26205299
-0.12309287
-1.1737733
-1.1716986
-1.1689467
-1.1654326
-1.1608131
-1.1547615
-1.1468559
-1.1365651
-1.1232344
-1.1060784
-1.084187
-1.0565575
-1.0221648
-0.98008104
-0.92964784
-0.87068393
-0.80368836
-0.72993952
-0.65182082
-0.56975652
-0.49214181
-0.41403659
-0.34750441
-0.26794711
-0.24921107
-0.10544849
-1.1315875
-1.1294344
-1.1265994
-1.1229508
-1.1181636
-1.1118998
-1.1037291
-1.0931124
-1.0793901
-1.0617779
-1.0393784
-1.0112199
-0.97633609
-0.93389352
-0.88336782
-0.82474618
-0.75870799
-0.6866868
-0.61099962
-0.53384236
-0.45799353
-0.38348676
-0.32197599
-0.24679673
-0.23247424
-0.086171637
-1.0717824
-1.0695844
-1.0666966
-1.0629771
-1.0581018
-1.0517293
-1.0434278
-1.0326584
-1.0187666
-1.0009805
-0.97842743
-0.9501807
-0.91534671
-0.87320089
-0.82336512
-0.76599776
-0.70194151
-0.63274351
-0.56060608
-0.48776953
-0.41678513
-0.3485032
-0.2913986
-0.22148745
-0.21098317
-0.065058422
-0.98883381
-0.98664335
-0.98376756
-0.98006567
-0.9752176
-0.96888781
-0.96065342
-0.94999003
-0.93626492
-0.91873938
-0.89659008
-0.8689604
-0.83505214
-0.79426201
-0.74635372
-0.69163352
-0.63107129
-0.56628864
-0.49942034
-0.43261503
-0.36821577
-0.3063601
-0.25472429
-0.19126084
-0.18387389
-0.041950005
-0.87921296
-0.87710187
-0.87433253
-0.87076922
-0.86610597
-0.86002319
-0.85211952
-0.84189947
-0.8287689
-0.8120402
-0.79095714
-0.76475016
-0.73273198
-0.69443566
-0.64978008
-0.59922267
-0.54383804
-0.48525866
-0.42547827
-0.36641777
-0.31003165
-0.25615699
-0.21107674
-0.15536085
-0.15037628
-0.016418775
-0.73479108
-0.73284878
-0.73030268
-0.7270291
-0.72274946
-0.71717467
-0.70994371
-0.70061406
-0.68866041
-0.67348317
-0.654436
-0.63088129
-0.60228022
-0.56831665
-0.52903899
-0.48498375
-0.4372245
-0.38728761
-0.3369277
-0.28773758
-0.24118642
-0.19689292
-0.15956291
-0.11293115
-0.10876711
0.015985568
-0.5572227
-0.55555612
-0.55337475
-0.55057117
-0.54690911
-0.54214415
-0.53597236
-0.52802337
-0.51786098
-0.50499334
-0.48890071
-0.46908909
-0.44517554
-0.41700245
-0.38475989
-0.34907317
-0.31099964
-0.27189515
-0.23316839
-0.19595192
-0.16111906
-0.12805557
-0.099858914
-0.063882391
-0.058166077
0.049249015
-0.33226505
-0.33100379
-0.3293542
-0.32723741
-0.32447816
-0.32089763
-0.31627611
-0.31034995
-0.30281548
-0.2933412
-0.28159436
-0.26728699
-0.25024322
-0.23048185
-0.20829477
-0.18428661
-0.15933445
-0.13444281
-0.11051952
-0.088127901
-0.06751815
-0.047896912
-0.031147514
-0.0087620448
-0.0055820758
0.035259672
-0.071953011
-0.071209092
-0.070237422
-0.068995008
-0.06738303
-0.065304168
-0.062642342
-0.059263975
-0.055024763
-0.049783067
-0.04342342
-0.035892004
-0.027242133
-0.01768024
-0.007592757
0.0024729347
0.011896028
0.020137393
0.026918732
0.032361697
0.036895344
0.041584246
0.045560554
0.054941979
0.053606053
0.075496864
0.20741825
0.20754941
0.20771615
0.20792256
0.20817767
0.20848479
0.20884161
0.20923503
0.20963269
0.20997053
0.21013569
0.20994591
0.20913002
0.20732031
0.2040742
0.19894541
0.19161296
0.1820441
0.17062507
0.15818443
0.14581566
0.13479845
0.12507224
0.12145295
0.11082681
0.11657237
0.50534879
0.50479319
0.50405927
0.50310593
0.50184215
0.50016606
0.49794279
0.4949949
0.49109196
0.48593917
0.479168
0.47033384
0.45892972
0.44442877
0.42636847
0.40448092
0.3788523
0.35006335
0.31923719
0.28793401
0.25788932
0.23044254
0.20689078
0.18860638
0.16840476
0.16074866
0.80571061
0.80443008
0.80274516
0.80056835
0.79770368
0.79393978
0.78900455
0.78255147
0.77414822
0.76326773
0.74928831
0.73151152
0.70920963
0.68171596
0.6485662
0.60968288
0.56556509
0.51741015
0.46707774
0.41685605
0.36905924
0.32477629
0.2872666
0.25469423
0.22471892
0.20447474
1.0984932
1.0964869
1.0938504
1.0904494
1.085983
1.0801305
1.0724828
1.0625246
1.0496222
1.033017
1.0118358
0.98512944
0.95195626
0.91152326
0.86338766
0.80769361
0.74538171
0.67827501
0.60894662
0.54034106
0.47506124
0.41609349
0.36373296
0.31763521
0.27619766
0.2451563
1.3693628
1.3666694
1.3631316
1.3585715
1.3525893
1.3447612
1.3345495
1.3212809
1.3041339
1.2821353
1.2541807
1.2190933
1.175741
1.1232248
1.0611331
0.98982531
0.91065842
0.82604071
0.73921257
0.65375646
0.5728386
0.49955637
0.43259401
0.37445166
0.32312283
0.28214639
1.6058379
1.6025355
1.5981865
1.5926013
1.5852759
1.5756979
1.5632159
1.5470175
1.5261159
1.4993497
1.465412
1.4229278
1.3706012
1.3074445
1.2330811
1.1480675
1.0541316
0.95419189
0.85205324
0.75180439
0.6570015
0.57051493
0.49284027
0.4239218
0.36301425
0.3137312
1.796477
1.79268
1.787606
1.781213
1.7728086
1.7618175
1.7474906
1.7288943
1.7049132
1.674242
1.6354106
1.5868863
1.527246
1.4554387
1.3711244
1.2750259
1.1691736
1.0568939
0.94243841
0.83029055
0.72430892
0.62729901
0.54013659
0.46293197
0.39446252
0.33868003
1.9302219
1.9260799
1.9204929
1.9135508
1.9044136
1.8924673
1.8768914
1.856646
1.8305315
1.7971534
1.7549251
1.7021982
1.6374575
1.5596014
1.4683107
1.3644225
1.2501805
1.1292021
1.0060562
0.88550547
0.77162114
0.66722746
0.57335984
0.49019176
0.41636343
0.35604692
2.0029539
2.0009735
1.9963009
1.9901455
1.9813783
1.9690149
1.9511293
1.9268896
1.8976276
1.8626014
1.8186511
1.7636428
1.6961444
1.6150293
1.5199903
1.4119279
1.2932008
1.1675798
1.0398005
0.91477008
0.79667239
0.68834036
0.5908681
0.50453302
0.42785987
0.365141
-0.18868995
-0.11039707
-0.11401568
-0.070870415
-0.06579482
-0.043459745
-0.036075545
-0.021708535
-0.017292974
-0.0037961152
-0.18923929
-0.10985445
-0.11404559
-0.071024837
-0.065777667
-0.043592323
-0.036072877
-0.021726113
-0.01728159
-0.0036752429
-0.19034402
-0.10826356
-0.11383235
-0.070752596
-0.065418594
-0.043443831
-0.035805254
-0.021523698
-0.017125051
-0.0033066997
-0.19192543
-0.10555061
-0.11334112
-0.070075551
-0.064738557
-0.043045667
-0.035305265
-0.021124192
-0.016847688
-0.0026982854
-0.19383443
-0.10175347
-0.11250114
-0.068979987
-0.063711283
-0.042379731
-0.034559781
-0.020516624
-0.016435918
-0.0018494992
-0.19578277
-0.096655736
-0.11120405
-0.067458086
-0.062306098
-0.04142693
-0.033555397
-0.019691976
-0.015873374
-0.00077100659
-0.19747887
-0.090521284
-0.10937609
-0.065526242
-0.060485208
-0.040168914
-0.032278709
-0.018644171
-0.015140245
0.00051486655
-0.19868455
-0.084246456
-0.10644447
-0.063266552
-0.058221066
-0.038586179
-0.030714579
-0.017368232
-0.014212232
0.0019749214
-0.19788816
-0.077449577
-0.10245859
-0.060429752
-0.055457332
-0.036653566
-0.028845071
-0.015859047
-0.013061081
0.0035669261
-0.19380265
-0.070088907
-0.097615201
-0.057189638
-0.052166099
-0.03434819
-0.026651902
-0.014111167
-0.01165651
0.0052428417
-0.18618355
-0.063456863
-0.091293752
-0.053483339
-0.048309189
-0.031646934
-0.024119114
-0.012119904
-0.0099699059
0.0069532632
-0.17368068
-0.057118476
-0.083402147
-0.049242173
-0.043864578
-0.028532694
-0.021237664
-0.0098834217
-0.0079795299
0.0086531029
-0.1554063
-0.050925873
-0.073777155
-0.044306811
-0.038814082
-0.024995599
-0.018008814
-0.0074047975
-0.005675798
0.010307007
-0.1331333
-0.046253684
-0.06334223
-0.038940081
-0.033369367
-0.021132869
-0.014488586
-0.0047129041
-0.0030711455
0.011889855
-0.10260143
-0.043169827
-0.052930258
-0.033182099
-0.027609731
-0.01700355
-0.010739184
-0.0018440286
-0.00020733792
0.013383722
-0.027921526
-0.013766267
-0.028238726
-0.02014671
-0.018792263
-0.011541054
-0.006316702
0.0014221027
0.0029295809
0.014850101
-0.0040566221
0.00934298
0.0086575298
0.016486444
0.018013353
0.02009212
0.022729134
0.017048257
0.022871188
-0.0065340373
-0.0041205146
0.0094150527
0.0086785181
0.01649031
0.018018677
0.020087861
0.022720635
0.017022564
0.022829839
-0.006522022
-0.0042353031
0.0096094859
0.0087435351
0.016523257
0.018049244
0.020098992
0.02272083
0.016981688
0.022728908
-0.0064195099
-0.0044112158
0.0099282019
0.0088495958
0.016581215
0.018101767
0.020121748
0.022726498
0.01691463
0.022649326
-0.0062755604
-0.0046358827
0.010373223
0.0090026036
0.016665734
0.018177643
0.020156565
0.022736756
0.016852253
0.022678267
-0.0061025009
-0.0048873645
0.010937151
0.0092072823
0.016775669
0.018276434
0.020202324
0.022749395
0.016845443
0.022734313
-0.0059198142
-0.0051293246
0.011603942
0.0094690237
0.016908928
0.018397238
0.020257537
0.02276179
0.01687775
0.022714554
-0.0057480989
-0.0053085197
0.012349002
0.0097938493
0.017062594
0.018538685
0.020320321
0.022771089
0.016912995
0.022646236
-0.0056069744
-0.0053544144
0.013140393
0.010188328
0.017233272
0.018698939
0.020388516
0.022774187
0.016951516
0.022559545
-0.0054658478
-0.0051819883
0.013941724
0.010659254
0.017417769
0.018875788
0.020459832
0.022767706
0.016993824
0.022449945
-0.0052869198
-0.0046990005
0.014716692
0.011212936
0.017614083
0.019066883
0.020532068
0.022748083
0.01703797
0.022310609
-0.0050743691
-0.0038186376
0.015435975
0.011854233
0.017822339
0.019270097
0.020603404
0.022711776
0.017082472
0.022137593
-0.0048261978
-0.0024731777
0.016081675
0.012586122
0.018045265
0.019483995
0.020672794
0.02265563
0.017128051
0.021927478
-0.0045393874
-0.00062724236
0.016649165
0.013409486
0.018288296
0.019707889
0.020740046
0.022576883
0.017162958
0.021677779
-0.0042103162
0.0017045918
0.017150037
0.014318917
0.018558026
0.019940025
0.020803775
0.022469
0.017169509
0.021373287
-0.0038351849
0.0043975515
0.017637479
0.015302169
0.018875149
0.020190363
0.020873084
0.022338686
0.017181874
0.021009874
-0.0034333159
-0.00039786045
0.037908878
0.043140327
0.051702467
0.043133545
0.043992107
0.061672995
0.072470812
0.05995872
0.060666214
0.047938169
0.04736422
0.099790256
0.096676655
0.075398165
0.069086479
0.052494797
0.051421674
0.13927239
0.12162177
0.091030252
0.077147215
0.056833192
0.054854378
0.1757883
0.14517678
0.10591392
0.084559867
0.060787452
0.058323754
0.20904131
0.16691249
0.11961003
0.09120777
0.064354973
0.061550352
0.23836534
0.18620142
0.13168217
0.096953585
0.067568013
0.064433615
0.2629905
0.20246971
0.14178926
0.10170461
0.070357279
0.066720541
0.28223819
0.21521544
0.14966106
0.10538157
0.072519128
0.068445829
0.29554975
0.2240383
0.15508611
0.1078894
0.073962388
0.069622869
0.30248935
0.228622
0.15788301
0.10914014
0.074691471
0.070238799
-0.034155917
-0.030858252
-0.031676754
-0.019776826
-0.015427073
-0.0079929007
-0.0025393163
0.0043067299
0.0059281078
0.01617565
0.033261121
0.020498471
0.01328255
0.0091786408
0.0038277209
0.0041607586
0.0063969864
0.0098945806
0.010925377
0.017468395
0.03526317
0.022270124
0.01708502
0.015714702
0.015501519
0.016761735
0.017802245
0.01827454
0.018121568
0.019873308
0.047355169
0.043439457
0.040659971
0.038188479
0.035558634
0.032923508
0.030493113
0.028466139
0.026711602
0.025182365
0.040644001
0.039078773
0.037735944
0.036486483
0.035236483
0.034070792
0.032994949
0.031955345
0.030919117
0.029805712
0.041141487
0.04009152
0.039627813
0.039073989
0.038389017
0.037627626
0.036775519
0.035818291
0.034742924
0.033569724
0.007109765
0.018073257
0.016221753
0.019192284
0.020442265
0.020975334
0.02227192
0.017318322
0.020754834
-0.0030178307
0.01141197
0.018278353
0.017596596
0.019604567
0.02076167
0.021091418
0.022055907
0.017458593
0.020190931
-0.0024218268
0.017292526
0.019723674
0.020036215
0.020829002
0.0215079
0.021282949
0.021295339
0.017290234
0.01843419
-0.0012602451
0.023727985
0.022966069
0.022098988
0.021428759
0.020999371
0.02026173
0.019672272
0.016950107
0.015867762
0.0014950216
0.028910847
0.02750845
0.026118357
0.024689427
0.023027039
0.021144152
0.018723224
0.015498335
0.011218763
0.0040637202
0.032332944
0.031008337
0.029599267
0.027880366
0.025800138
0.023321076
0.020213857
0.016509028
0.011183806
0.0064165568
-1.2449777
-1.2436448
-1.2416468
-1.2391499
-1.2359254
-1.2316871
-1.226083
-1.2186926
-1.2089691
-1.196222
-1.179597
-1.158067
-1.1304478
-1.0954572
-1.0518418
-0.99858796
-0.93522751
-0.86206487
-0.7807248
-0.6929877
-0.60405446
-0.51220901
-0.43346407
-0.34213005
-0.29499537
-0.19372132
-1.2443732
-1.2429354
-1.2409718
-1.2385348
-1.2352969
-1.2310179
-1.2253686
-1.2179193
-1.2081198
-1.1952758
-1.178529
-1.1568493
-1.1290523
-1.0938609
-1.0500339
-0.99657719
-0.93304619
-0.85977427
-0.77839315
-0.69072439
-0.60189048
-0.51031045
-0.43182033
-0.34067187
-0.29417353
-0.19174347
-1.2437815
-1.2423102
-1.240303
-1.2378106
-1.2345007
-1.2301289
-1.2243605
-1.21676
-1.2067704
-1.1936907
-1.1766571
-1.1546376
-1.1264515
-1.0908347
-1.046571
-0.99270332
-0.92883107
-0.85534097
-0.77388029
-0.6863425
-0.59770544
-0.50661241
-0.42865215
-0.33780354
-0.29269433
-0.18778618
-1.2426698
-1.2411455
-1.2390692
-1.2364887
-1.2330647
-1.2285463
-1.222591
-1.2147543
-1.2044701
-1.1910283
-1.1735584
-1.1510264
-1.1222582
-1.0860094
-1.0411005
-0.98663052
-0.92226569
-0.84847064
-0.76692085
-0.67960525
-0.59129169
-0.50094113
-0.42384051
-0.33341238
-0.29048156
-0.18173436
-1.240524
-1.2389288
-1.2367608
-1.2340616
-1.2304842
-1.2257684
-1.2195612
-1.2114062
-1.2007243
-1.1867936
-1.1687351
-1.1455132
-1.115965
-1.0788757
-1.0331184
-0.97786855
-0.91288383
-0.83872929
-0.75712251
-0.6701639
-0.58233299
-0.49304445
-0.41722755
-0.32733768
-0.28734746
-0.17354075
-1.236401
-1.2347188
-1.2324398
-1.2295946
-1.2258288
-1.2208708
-1.2143546
-1.2058094
-1.1946407
-1.1801127
-1.1613363
-1.1372757
-1.1067836
-1.0686841
-1.0219184
-0.96576013
-0.90008302
-0.82557402
-0.74400912
-0.65760812
-0.5704576
-0.48268715
-0.40876114
-0.31938899
-0.28303465
-0.16320555
-1.2289758
-1.2271943
-1.2247906
-1.2217778
-1.2177964
-1.2125614
-1.2056923
-1.1967017
-1.1849783
-1.1697709
-1.1501809
-1.125174
-1.0936242
-1.0544047
-1.006541
-0.94942506
-0.8830707
-0.80830366
-0.72698023
-0.64143254
-0.55508714
-0.46922207
-0.39663675
-0.30921857
-0.27718459
-0.1509796
-1.216451
-1.2145632
-1.2120291
-1.208836
-1.2046235
-1.1990922
-1.1918459
-1.1823802
-1.1700666
-1.1541389
-1.1336902
-1.1076918
-1.0750456
-1.0346857
-0.98573739
-0.9277314
-0.86084262
-0.78604891
-0.705332
-0.6210763
-0.53553474
-0.45214005
-0.38138657
-0.29733694
-0.26936567
-0.13699958
-1.1963836
-1.1943902
-1.1917303
-1.1883567
-1.1839144
-1.178089
-1.1704695
-1.1605357
-1.1476437
-1.1310152
-1.1097394
-1.0827995
-1.0491341
-1.0077486
-0.95788178
-0.89921739
-0.83210408
-0.7576745
-0.67806727
-0.5951131
-0.51352351
-0.43268149
-0.36427387
-0.28292745
-0.25934812
-0.12097025
-1.1658707
-1.1637825
-1.1610144
-1.1574773
-1.1528287
-1.1467402
-1.1387883
-1.1284404
-1.115041
-1.0978048
-1.0758242
-1.0481023
-1.0136253
-0.97148393
-0.92104619
-0.86216478
-0.79537711
-0.72199939
-0.64440614
-0.56370948
-0.48588058
-0.40809494
-0.34362628
-0.26462548
-0.24601174
-0.10321837
-1.1210402
-1.1188791
-1.1160358
-1.1123736
-1.1075698
-1.1012856
-1.09309
-1.0824439
-1.0686888
-1.0510425
-1.0286121
-1.0004343
-0.96555634
-0.92316466
-0.87276157
-0.81436568
-0.74868725
-0.67718319
-0.6021299
-0.52579282
-0.45078942
-0.37697864
-0.31708461
-0.24279017
-0.22869672
-0.083799382
-1.0580508
-1.0558525
-1.0529647
-1.0492455
-1.0443713
-1.0380014
-1.029705
-1.0189453
-1.0050708
-0.98731438
-0.96481122
-0.93664575
-0.90194055
-0.85999275
-0.81045105
-0.7535032
-0.69001842
-0.62156158
-0.55031638
-0.47853042
-0.40861651
-0.34126319
-0.28563149
-0.2167777
-0.2065566
-0.062492785
-0.97137997
-0.9691997
-0.9663375
-0.96265347
-0.95782942
-0.95153205
-0.94334163
-0.93273807
-0.91909463
-0.90168076
-0.87968425
-0.8522632
-0.81863837
-0.77822955
-0.73082632
-0.67676015
-0.61701959
-0.55323179
-0.48750919
-0.42197757
-0.35888514
-0.29822791
-0.24804653
-0.18579756
-0.1787562
-0.039112622
-0.85758121
-0.85549286
-0.8527536
-0.84922932
-0.84461778
-0.83860351
-0.83079061
-0.82069079
-0.80771923
-0.79120036
-0.7703931
-0.74454652
-0.7129953
-0.67529678
-0.63139396
-0.58176392
-0.52749031
-0.47019765
-0.41184647
-0.35431084
-0.29946762
-0.24703439
-0.20345635
-0.1491016
-0.1445641
-0.013209433
-0.70865438
-0.70674921
-0.70425204
-0.70104174
-0.69684546
-0.69138039
-0.68429357
-0.67515289
-0.66344614
-0.64858994
-0.62995753
-0.60693405
-0.57900564
-0.54588133
-0.5076312
-0.46480456
-0.4184727
-0.37013895
-0.32151057
-0.27411552
-0.22934704
-0.18671781
-0.15098958
-0.10585459
-0.10232298
0.019608768
-0.52646832
-0.52485433
-0.52274215
-0.52002788
-0.51648319
-0.51187218
-0.50590183
-0.49821554
-0.48839425
-0.47596678
-0.4604376
-0.44133969
-0.41831805
-0.3912406
-0.36031565
-0.3261731
-0.28985505
-0.25267824
-0.21598849
-0.18083875
-0.14802471
-0.11682792
-0.090364658
-0.056012587
-0.051286423
0.053329414
-0.29711132
-0.29591805
-0.29435781
-0.29235622
-0.28974811
-0.28636541
-0.28200204
-0.27641147
-0.26931094
-0.26039387
-0.24935604
-0.2359403
-0.22000122
-0.20158328
-0.18099312
-0.15883196
-0.13594914
-0.1132944
-0.091697492
-0.071629165
-0.053262413
-0.03568078
-0.020793225
-0.00012804258
0.0017166166
0.041171691
-0.032932586
-0.032271432
-0.031408423
-0.030305999
-0.028877521
-0.027038516
-0.024689152
-0.0217161
-0.017999626
-0.013426996
-0.0079152676
-0.0014448556
0.0058985787
0.013883755
0.02211423
0.030055181
0.037126507
0.042858216
0.047062486
0.049962416
0.052055149
0.054578742
0.056571524
0.064085391
0.0610767
0.081875023
0.24907656
0.24911326
0.24915602
0.24920282
0.24924892
0.24928316
0.24928508
0.24921902
0.24902552
0.24860897
0.24782151
0.24644484
0.24417491
0.24062056
0.2353331
0.22788547
0.21800622
0.20574111
0.19157462
0.17644187
0.16147453
0.14820154
0.13639608
0.13083398
0.11882134
0.12338736
0.54826423
0.54760662
0.54673889
0.54561334
0.54412416
0.54215401
0.53954862
0.5361066
0.53156881
0.52560729
0.51781711
0.50771672
0.49476649
0.47841795
0.45820645
0.43388925
0.40560884
0.37403008
0.34037871
0.30631236
0.27349646
0.24379398
0.21881425
0.19788094
0.17713602
0.16711894
0.84818942
0.84680433
0.84498228
0.84262905
0.83953358
0.83546875
0.83014274
0.82318482
0.81413371
0.80242912
0.7874132
0.76835135
0.74448458
0.71512683
0.67981455
0.63849836
0.59173553
0.5408067
0.4876692
0.43463366
0.38384288
0.33861656
0.29960232
0.26335966
0.23314416
0.20978272
1.1387475
1.1366397
1.1338702
1.130298
1.1256077
1.1194633
1.1114367
1.1009892
1.0874591
1.0700562
1.0478728
1.0199258
0.98524489
0.94302064
0.89281406
0.83480002
0.7699791
0.70025933
0.62830661
0.55700536
0.48993729
0.4297682
0.37373623
0.32560588
0.28352469
0.25036213
1.4055319
1.4027459
1.3990865
1.3943699
1.3881831
1.3800884
1.3695307
1.3558153
1.3380957
1.31537
1.2865029
1.2502877
1.2055678
1.151431
1.087472
1.0140816
0.93267701
0.84575309
0.75665759
0.66902487
0.58691208
0.51059114
0.44000546
0.38247619
0.32945088
0.28679229
1.6361393
1.6327581
1.6282997
1.6225836
1.6150855
1.6052822
1.5925078
1.5759317
1.5545457
1.5271643
1.4924543
1.4490157
1.3955318
1.3310048
1.2550639
1.168293
1.0724701
0.97058187
0.86651187
0.76437715
0.66810909
0.57977514
0.49960379
0.43020129
0.36809032
0.31757641
1.8192449
1.8153861
1.8102257
1.803731
1.7951923
1.7840266
1.769475
1.7505945
1.7262582
1.695134
1.6557318
1.6064998
1.5459981
1.4731668
1.3876695
1.2902496
1.1829753
1.0692251
0.95330871
0.83973713
0.73252388
0.63417507
0.54538637
0.46757298
0.39819278
0.34155018
1.9446087
1.9404287
1.934788
1.9277828
1.9185626
1.9065073
1.8907832
1.8703388
1.8439805
1.8102985
1.7676873
1.7144921
1.6491875
1.5706686
1.4786203
1.3738934
1.2587552
1.1368538
1.0127933
0.89135583
0.77667795
0.67146606
0.57665165
0.4930414
0.41864185
0.35781313
2.0078203
2.005553
2.000725
1.9944175
1.9854549
1.9726542
1.9542361
1.9303083
1.9020925
1.8673798
1.8231465
1.7679482
1.7002282
1.6188572
1.523534
1.4151661
1.2961207
1.1701782
1.042085
0.916753
0.79838118
0.68977184
0.59198702
0.505491
0.42862377
0.36573546
-0.18867414
-0.11030367
-0.11395736
-0.070815058
-0.06574708
-0.043419104
-0.036040964
-0.021678323
-0.017271164
-0.0037643459
-0.18921437
-0.10962714
-0.11392094
-0.070910758
-0.065676869
-0.043504933
-0.035993993
-0.021652362
-0.01722415
-0.0035830352
-0.19027502
-0.10788399
-0.1136087
-0.070558179
-0.065242833
-0.043294771
-0.035670158
-0.021400463
-0.017027534
-0.0031580468
-0.19178098
-0.10503336
-0.1130132
-0.069806293
-0.06449056
-0.042839151
-0.035117353
-0.02095609
-0.016710687
-0.0025005865
-0.1935651
-0.10111162
-0.11205544
-0.068636501
-0.06338876
-0.042115785
-0.034319171
-0.020306198
-0.016257701
-0.0016123782
-0.19532089
-0.095940818
-0.11062152
-0.067038832
-0.061905476
-0.041104438
-0.033261559
-0.019441576
-0.015651077
-0.00050630706
-0.19672766
-0.089762711
-0.10862965
-0.065023552
-0.060001214
-0.03978481
-0.031929888
-0.018355182
-0.014869615
0.00079392757
-0.19742357
-0.083428037
-0.10557989
-0.062662036
-0.057644587
-0.038134925
-0.030307543
-0.017040495
-0.013887713
0.0022548889
-0.19604948
-0.076604011
-0.10144653
-0.059731242
-0.054777742
-0.036127256
-0.028375307
-0.015490522
-0.012676205
0.0038355895
-0.19141374
-0.069231184
-0.096358493
-0.056368371
-0.051368067
-0.03373661
-0.026114304
-0.013698043
-0.011204716
0.0054909052
-0.18311986
-0.062491366
-0.089787253
-0.052510298
-0.047377708
-0.030939725
-0.023509593
-0.011657297
-0.0094457446
0.0071759862
-0.16988729
-0.056000575
-0.081637123
-0.048084563
-0.04278549
-0.027721371
-0.020555069
-0.0093664185
-0.0073799986
0.0088511946
-0.15088726
-0.04956912
-0.071750658
-0.04293065
-0.037575744
-0.024076363
-0.017257056
-0.0068295984
-0.0050014674
0.010487172
-0.12800762
-0.044644927
-0.061122302
-0.037346568
-0.031977232
-0.020113247
-0.013680319
-0.0040794154
-0.0023275273
0.012065396
-0.096766004
-0.041126662
-0.050523897
-0.031331557
-0.026043652
-0.015884727
-0.0098912865
-0.0011530823
0.00059794477
0.013573265
-0.021033209
-0.010302471
-0.025127954
-0.017774662
-0.016971953
-0.010329246
-0.0054456124
0.0021851451
0.0037988185
0.01507465
-0.0040556275
0.0093638287
0.0086705775
0.016499868
0.018026619
0.020107223
0.022743705
0.017054653
0.022845494
-0.0064308059
-0.004113942
0.0094829886
0.0087237291
0.016535612
0.018061896
0.02013554
0.022765877
0.017042788
0.022772585
-0.0062474559
-0.0042257001
0.0097165447
0.0088139622
0.016593453
0.018116721
0.020174131
0.022791963
0.017006234
0.02273168
-0.0060258171
-0.0043938568
0.010071431
0.0089456942
0.01667554
0.018192447
0.020223218
0.022821394
0.01697896
0.022789108
-0.0057754964
-0.0046042673
0.010546094
0.0091231319
0.016781548
0.018289134
0.020282034
0.022852302
0.017007192
0.022858308
-0.0055272414
-0.004831135
0.011131434
0.0093510267
0.016910175
0.018406349
0.020349381
0.022882372
0.01706709
0.022845959
-0.0053159142
-0.0050339078
0.011810064
0.009634934
0.017059234
0.018543208
0.020423691
0.022909148
0.017125271
0.02277664
-0.0051336315
-0.005155438
0.012556534
0.009981194
0.017225867
0.018698371
0.020503117
0.022929933
0.017185975
0.022676109
-0.0049425288
-0.0051224624
0.013338965
0.010396755
0.017407042
0.018870126
0.02058562
0.022941903
0.017247977
0.022551952
-0.0047250108
-0.0048495849
0.014122301
0.010888753
0.017600257
0.019056555
0.020669145
0.022942055
0.017309345
0.022413563
-0.0044832954
-0.0042476788
0.014873071
0.011463801
0.017804372
0.019255763
0.020751859
0.022927296
0.017368477
0.022253558
-0.0042145658
-0.0032365668
0.015565034
0.012127015
0.018020418
0.019466174
0.020832443
0.022894654
0.017424576
0.022064231
-0.0039154661
-0.0017597944
0.016184378
0.012881058
0.018252163
0.019686903
0.020910473
0.022841719
0.017475512
0.021840187
-0.0035821085
0.0002029101
0.016732305
0.013725396
0.018505945
0.019917771
0.020986422
0.022766161
0.01751003
0.021577546
-0.0032092055
0.0026211706
0.017225502
0.014652648
0.018788774
0.020157208
0.021059492
0.022661517
0.017525219
0.02124008
-0.0027955524
0.0053613344
0.017717618
0.015648905
0.019120797
0.020415083
0.021139569
0.022536414
0.017539991
0.020844689
-0.0023628615
0.0054007351
0.041561979
0.045516569
0.052902556
0.043911592
0.044385555
0.067012729
0.075901782
0.062275942
0.061836441
0.048696403
0.047784123
0.1051426
0.10015286
0.077728645
0.070204929
0.053218586
0.051833285
0.14438727
0.12496241
0.093264884
0.078188305
0.057513878
0.055251594
0.18054384
0.1482904
0.10798908
0.085503638
0.061408132
0.058704633
0.21336175
0.16972771
0.12146556
0.092037144
0.06491057
0.061896813
0.24209663
0.18863497
0.13326807
0.097654002
0.068049704
0.064725389
0.2660192
0.2044474
0.14306479
0.10226362
0.070748964
0.066949804
0.28447029
0.2166745
0.15059444
0.10578747
0.0728065
0.068611254
0.29691276
0.2249289
0.15565167
0.10813174
0.074137073
0.069723545
0.30294564
0.22891944
0.15807025
0.1092181
0.074749136
0.070271187
-0.030748561
-0.028715375
-0.029491079
-0.017872427
-0.013805401
-0.0068771585
-0.0017034367
0.0050978589
0.006809355
0.016447715
0.036026799
0.023265526
0.016194604
0.011723842
0.0057440135
0.0053394325
0.0072340151
0.010735226
0.011773712
0.017804751
0.037425025
0.024322062
0.018804175
0.017185012
0.016845093
0.017773853
0.018748183
0.019394408
0.019017938
0.020287156
0.048503413
0.044539239
0.041697375
0.039171803
0.036472382
0.033757036
0.031276312
0.029266752
0.02746477
0.026015236
0.041440222
0.039868519
0.038516612
0.03726433
0.036003836
0.034814127
0.033718024
0.032657365
0.031594756
0.030445185
0.041532473
0.040485442
0.040015829
0.039456308
0.038764905
0.037996462
0.037136427
0.036170594
0.035085906
0.033901412
0.0080770983
0.018173479
0.016582943
0.019460408
0.020680134
0.021256636
0.022477976
0.017675867
0.020569492
-0.0019103625
0.012235984
0.018430039
0.017948002
0.019895572
0.021007257
0.021384936
0.022269755
0.017845827
0.019932194
-0.0012838916
0.017773205
0.019865301
0.020322722
0.021083943
0.021714451
0.021598797
0.021560087
0.017714921
0.01806205
-0.00011505032
0.02460199
0.023670154
0.02284445
0.022053344
0.021475346
0.020677552
0.01984775
0.016997432
0.015230105
0.0023857893
0.029515094
0.028079945
0.026677144
0.025224758
0.023539325
0.021613656
0.019265871
0.015993733
0.011211221
0.0045772493
0.032661294
0.031330937
0.029909628
0.028173698
0.026060739
0.02354659
0.020424307
0.016663124
0.011256359
0.0064048969
)
;

boundaryField
{
    inlet
    {
        type            zeroGradient;
    }
    outlet
    {
        type            fixedValue;
        value           uniform 0;
    }
    cylinder
    {
        type            zeroGradient;
    }
    frontAndBack
    {
        type            empty;
    }
}


// ************************************************************************* //
