/*--------------------------------*- C++ -*----------------------------------*\
  =========                 |
  \\      /  F ield         | OpenFOAM: The Open Source CFD Toolbox
   \\    /   O peration     | Website:  https://openfoam.org
    \\  /    A nd           | Version:  13
     \\/     M anipulation  |
\*---------------------------------------------------------------------------*/
FoamFile
{
    format      ascii;
    class       surfaceScalarField;
    location    "48.802451";
    object      phi;
}
// * * * * * * * * * * * * * * * * * * * * * * * * * * * * * * * * * * * * * //

dimensions      [0 3 -1 0 0 0 0];

internalField   nonuniform List<scalar> 
34068
(
-1.1561506e-08
8.8050146e-08
-7.648864e-08
-5.1469241e-08
3.0283265e-07
-2.6292492e-07
-1.2920195e-07
5.8899236e-07
-5.1125965e-07
-2.5671123e-07
9.6646506e-07
-8.3895578e-07
-4.490006e-07
1.4603705e-06
-1.2680811e-06
-7.248242e-07
2.1022276e-06
-1.826404e-06
-1.1075337e-06
2.9314199e-06
-2.5487104e-06
-1.6260913e-06
3.9969232e-06
-3.4783656e-06
-2.3162838e-06
5.3593269e-06
-4.6691344e-06
-3.2221668e-06
7.0931605e-06
-6.1872775e-06
-4.3977663e-06
9.2895075e-06
-8.113908e-06
-5.9090736e-06
1.2058887e-05
-1.054758e-05
-7.8363632e-06
1.5534307e-05
-1.3607017e-05
-1.0276843e-05
1.9874348e-05
-1.7433868e-05
-1.3347675e-05
2.5266056e-05
-2.2195225e-05
-1.7189307e-05
3.1927271e-05
-2.8085639e-05
-2.1969133e-05
4.0107918e-05
-3.5328092e-05
-2.7885336e-05
5.0089574e-05
-4.417337e-05
-3.5170805e-05
6.21824e-05
-5.4896931e-05
-4.4096834e-05
7.6718413e-05
-6.7792384e-05
-5.4976261e-05
9.4039737e-05
-8.316031e-05
-6.8165537e-05
0.00011448061
-0.00010129133
-8.406487e-05
0.00013834177
-0.00012244244
-0.0001031156
0.00016585679
-0.00014680605
-0.00012579341
0.00019715057
-0.00017447277
-0.00015259584
0.00023219323
-0.0002053908
-0.00018402277
0.00027075624
-0.00023932931
-0.00022054884
0.0003123856
-0.00027585954
-0.0002625897
0.00035641799
-0.00031437713
-0.00031046909
0.00040207759
-0.00035419819
-0.00036440231
0.00044868779
-0.00039475457
-0.00042451668
0.00049597505
-0.00043586068
-0.00049091836
0.00054432343
-0.00047792175
-0.00056378478
0.0005947791
-0.00052191268
-0.00064344225
0.00064878058
-0.00056912311
-0.00073040571
0.00070784814
-0.00062088468
-0.00082539237
0.00077345257
-0.00067846591
-0.00092933642
0.00084706944
-0.00074312539
-0.001043426
0.00093031188
-0.00081622234
-0.0011691773
0.0010250585
-0.00089930716
-0.001308561
0.0011335319
-0.00099414817
-0.0014641988
0.0012582937
-0.0011026559
-0.0016396579
0.0014021109
-0.0012266517
-0.001839852
0.0015674131
-0.001367219
-0.0020715668
0.0017552237
-0.0015235089
-0.0023442187
0.0019639204
-0.0016912685
-0.0026708539
0.0021862161
-0.0018595809
-0.0030693448
0.0024040869
-0.002005596
-0.0035637588
0.002579866
-0.0020854519
-0.0041856164
0.0026398354
-0.0020179778
-0.0049740835
0.0024436302
-0.001655163
-0.0059723203
0.0017291403
-0.00073090354
-0.0072151795
2.1613113e-05
0.0012212461
-0.0087019124
-0.0035091191
0.004995852
-0.010335441
-0.010151082
0.011784611
-0.011821277
-0.021512389
0.022998224
-0.012580581
-0.03864749
0.039406794
-0.01202561
-0.06027934
0.059724369
-0.010256881
-0.080295617
0.078526887
-0.0071702207
-0.088904628
0.085817968
0.0016439636
-0.060741348
0.051927164
0.01774068
0.022289022
-0.038385739
0.03467602
0.11606806
-0.1330034
0.045225288
0.1669967
-0.17754597
0.18175639
0.050646173
-0.18717728
-1.1472423e-08
9.9522569e-08
-5.1082261e-08
3.4244249e-07
-1.2824566e-07
6.6615576e-07
-2.548292e-07
1.0930486e-06
-4.4571681e-07
1.6512581e-06
-7.1949869e-07
2.3760095e-06
-1.0993011e-06
3.3112223e-06
-1.6137825e-06
4.5114046e-06
-2.2983274e-06
6.0438717e-06
-3.1964597e-06
7.9912929e-06
-4.3615216e-06
1.0454569e-05
-5.8586274e-06
1.3555993e-05
-7.766954e-06
1.7442633e-05
-1.0182353e-05
2.2289748e-05
-1.3220338e-05
2.830404e-05
-1.7019411e-05
3.5726345e-05
-2.174471e-05
4.4833217e-05
-2.7591874e-05
5.5936737e-05
-3.4791038e-05
6.9381564e-05
-4.3610642e-05
8.5538017e-05
-5.4360773e-05
0.00010478987
-6.7395431e-05
0.00012751527
-8.3113071e-05
0.00015405941
-0.0001019543
0.00018469802
-0.0001243955
0.00021959177
-0.00015093666
0.00025873439
-0.00018208202
0.0003019016
-0.00021831233
0.00034861591
-0.0002600502
0.00039815586
-0.00030762542
0.00044965281
-0.0003612553
0.00050231766
-0.00042106183
0.00055578158
-0.00048713766
0.00061039926
-0.00055964133
0.00066728278
-0.00063887782
0.00072801707
-0.00072533854
0.00079430886
-0.00081971359
0.00086782762
-0.00092290459
0.00095026044
-0.0010360608
0.0010434681
-0.0011606545
0.0011496523
-0.0012986107
0.001271488
-0.0014525135
0.0014121965
-0.0016259174
0.0015755149
-0.0018237666
0.0017652623
-0.0020529823
0.0019844393
-0.0023233068
0.0022342449
-0.0026484398
0.0025113492
-0.0030474763
0.0028031233
-0.0035466938
0.0030790835
-0.0041815499
0.0032746914
-0.0049980807
0.003260161
-0.0060512521
0.0027823117
-0.0073949993
0.0013653603
-0.0090531112
-0.0018510071
-0.010944985
-0.008259209
-0.012743112
-0.019714262
-0.013784363
-0.037606238
-0.013422622
-0.060641081
-0.011874273
-0.081843965
-0.009541989
-0.091236912
-0.0029168858
-0.067366452
0.012378457
0.0069936799
0.030433916
0.098012598
0.042622459
0.15480816
0.17314751
0.051231341
-1.1209121e-08
1.1073169e-07
-4.9923725e-08
3.8115709e-07
-1.2535824e-07
7.4159028e-07
-2.4911628e-07
1.2168066e-06
-4.3574009e-07
1.8378819e-06
-7.0337814e-07
2.6436475e-06
-1.0745853e-06
3.6824295e-06
-1.5772923e-06
5.0141116e-06
-2.2459523e-06
6.7125317e-06
-3.1229177e-06
8.8682583e-06
-4.2600564e-06
1.1591708e-05
-5.7206614e-06
1.5016598e-05
-7.5816623e-06
1.9303634e-05
-9.9361955e-06
2.4644281e-05
-1.2896515e-05
3.1264359e-05
-1.6597279e-05
3.942711e-05
-2.1199176e-05
4.9435114e-05
-2.6892815e-05
6.1630377e-05
-3.3902764e-05
7.6391513e-05
-4.2491534e-05
9.4126787e-05
-5.2963135e-05
0.00011526147
-6.5665729e-05
0.00014021786
-8.0992631e-05
0.00016938632
-9.9380598e-05
0.00020308599
-0.00012130416
0.00024151532
-0.00014726415
0.00028469438
-0.00017776887
0.00033240632
-0.00021330651
0.00038415355
-0.00025430978
0.00043915914
-0.0003011188
0.00049646183
-0.000353957
0.00055515585
-0.00041294243
0.00061476702
-0.00047814965
0.00067560648
-0.00054970579
0.00073883892
-0.00062787595
0.00080618723
-0.0007131064
0.00087953931
-0.00080603571
0.00096075693
-0.00090750343
0.0010517282
-0.001018582
0.0011545466
-0.0011406481
0.0012717184
-0.0012755104
0.0014063504
-0.0014256174
0.0015623035
-0.0015943721
0.0017442695
-0.0017865551
0.0019574452
-0.0020089482
0.0022068325
-0.0022712309
0.0024965276
-0.0025872022
0.0028273205
-0.0029763941
0.0031923152
-0.0034661952
0.0035688847
-0.0040944994
0.0039029956
-0.0049122347
0.0040778963
-0.0059837246
0.0038538016
-0.0073796352
0.0027612709
-0.0091463927
-8.4249669e-05
-0.011217676
-0.006187926
-0.013253109
-0.017678829
-0.014398899
-0.036460448
-0.013925003
-0.061114977
-0.01230104
-0.083467928
-0.010173804
-0.093364148
-0.0050976888
-0.072442567
0.0087316689
-0.0068356778
0.02711783
0.079626437
0.041028882
0.14089711
0.16018499
0.053991408
-1.0751757e-08
1.2148345e-07
-4.7904935e-08
4.1831027e-07
-1.2031733e-07
8.1400267e-07
-2.3913468e-07
1.335624e-06
-4.1831393e-07
2.0170612e-06
-6.7525572e-07
2.9005893e-06
-1.0315713e-06
4.0387451e-06
-1.5139945e-06
5.4965348e-06
-2.1554835e-06
7.3540206e-06
-2.9965203e-06
9.7092952e-06
-4.0866623e-06
1.268185e-05
-5.4863578e-06
1.6416294e-05
-7.2690796e-06
2.1086356e-05
-9.5237891e-06
2.689899e-05
-1.235777e-05
3.409834e-05
-1.5899836e-05
4.2969176e-05
-2.0303909e-05
5.3839186e-05
-2.5752909e-05
6.7079377e-05
-3.246287e-05
8.3101474e-05
-4.0687064e-05
0.00010235098
-5.0719887e-05
0.00012529429
-6.2899951e-05
0.00015239792
-7.7611702e-05
0.00018409807
-9.5284589e-05
0.00022075888
-0.00011638831
0.00026261904
-0.00014142253
0.00030972861
-0.00017089896
0.00036188275
-0.00020531435
0.00041856894
-0.00024511454
0.00047895933
-0.00029065459
0.00054200187
-0.0003421685
0.00060666977
-0.00039977175
0.00067237027
-0.00046351573
0.00073935046
-0.00053348333
0.00080880652
-0.00060988033
0.00088258423
-0.00069308415
0.00096274313
-0.00078365415
0.0010513269
-0.00088233467
0.0011504087
-0.00099007863
0.0012622906
-0.0011081102
0.0013897499
-0.0012380429
0.0015362831
-0.0013820781
0.0017063387
-0.0015433092
0.0019055006
-0.0017261301
0.0021402661
-0.0019368632
0.0024175656
-0.0021846629
0.0027443273
-0.0024827564
0.003125414
-0.0028501373
0.003559696
-0.0033138864
0.0040326338
-0.0039122635
0.0045013727
-0.0046980268
0.0048636596
-0.0057403937
0.0048961684
-0.007120889
0.0041417662
-0.0089034
0.0016982613
-0.011024083
-0.0040672426
-0.013050337
-0.015652575
-0.014029126
-0.035481659
-0.01322097
-0.061923133
-0.011277038
-0.08541186
-0.0091034487
-0.095537737
-0.0047789675
-0.076767048
0.0071355232
-0.018750169
0.025003226
0.061758733
0.040997403
0.12490293
0.14159134
0.059591047
-1.0089968e-08
1.3157342e-07
-4.4976554e-08
4.5319686e-07
-1.1299522e-07
8.8202134e-07
-2.2462605e-07
1.4472548e-06
-3.9298047e-07
2.1854156e-06
-6.343928e-07
3.1420016e-06
-9.6912791e-07
4.3734802e-06
-1.4222395e-06
5.9496464e-06
-2.0245848e-06
7.956366e-06
-2.8140518e-06
1.0498762e-05
-3.8369971e-06
1.3704795e-05
-5.1499652e-06
1.7729262e-05
-6.8216851e-06
2.2758076e-05
-8.9354282e-06
2.9012733e-05
-1.159171e-05
3.6754622e-05
-1.4911399e-05
4.6288866e-05
-1.9039211e-05
5.7966998e-05
-2.414758e-05
7.2187746e-05
-3.0440839e-05
8.9394733e-05
-3.8159537e-05
0.00011006968
-4.7584637e-05
0.00013471939
-5.9041176e-05
0.00016385446
-7.2900663e-05
0.00019795755
-8.9581305e-05
0.00023743952
-0.00010954457
0.00028258231
-0.00013328639
0.00033347042
-0.00016132072
0.00038991708
-0.00019415362
0.00045140184
-0.00023224693
0.00051705265
-0.00027597525
0.00058573019
-0.00032558803
0.00065628255
-0.00038120017
0.00072798241
-0.00044283536
0.00080098564
-0.00051051939
0.00087649055
-0.00058437854
0.00095644338
-0.00066469571
0.0010430603
-0.0007519209
0.0011385521
-0.00084666676
0.0012451545
-0.00094972023
0.0013653441
-0.0010620905
0.0015021202
-0.0011851098
0.0016593024
-0.0013206101
0.001841839
-0.0014711996
0.0020560901
-0.0016406352
0.0023097017
-0.0018344175
0.0026113479
-0.0020606424
0.0029705522
-0.0023311762
0.0033959478
-0.0026632972
0.003891817
-0.0030820038
0.0044513405
-0.0036231871
0.005042556
-0.0043370915
0.005577564
-0.0052909212
0.005849998
-0.0065668879
0.005417733
-0.0082303408
0.0033617142
-0.010196387
-0.0021011967
-0.011921565
-0.013927397
-0.012319579
-0.035083644
-0.010774455
-0.063468258
-0.0083003538
-0.087885961
-0.006090883
-0.097747208
-0.0022629436
-0.080594987
0.0080070264
-0.029020139
0.024876881
0.044888879
0.043530464
0.10624935
0.11680511
0.0683167
-9.2170194e-09
1.4079044e-07
-4.1108446e-08
4.8508828e-07
-1.033163e-07
9.4422919e-07
-2.0543997e-07
1.5493785e-06
-3.5947923e-07
2.3394548e-06
-5.8036752e-07
3.3628899e-06
-8.8661806e-07
4.6797307e-06
-1.3010941e-06
6.3641224e-06
-1.8519434e-06
8.5072153e-06
-2.5737037e-06
1.1220523e-05
-3.5086261e-06
1.4639718e-05
-4.7082472e-06
1.8928883e-05
-6.2352524e-06
2.4285081e-05
-8.1656563e-06
3.0943137e-05
-1.059136e-05
3.9180326e-05
-1.3623113e-05
4.9320618e-05
-1.7393906e-05
6.1737791e-05
-2.2062795e-05
7.6856635e-05
-2.7819117e-05
9.5151055e-05
-3.4887014e-05
0.00011713758
-4.352998e-05
0.00014336236
-5.4055163e-05
0.00017437965
-6.6816694e-05
0.00021071909
-8.2217134e-05
0.00025283996
-0.00010070573
0.00030107091
-0.00012277146
0.00035553615
-0.00014892869
0.00041607432
-0.00017969275
0.00048216589
-0.00021554379
0.00055290369
-0.00025688047
0.00062706687
-0.00030397306
0.00070337515
-0.00035693911
0.00078094846
-0.00041577164
0.00085981817
-0.00048042716
0.00094114606
-0.0005509315
0.0010269477
-0.00062744587
0.0011195747
-0.00071027856
0.0012213848
-0.0007998716
0.0013347476
-0.00089679643
0.0014622689
-0.0010017809
0.0016071046
-0.0011157837
0.0017733053
-0.0012401366
0.001966192
-0.0013767731
0.0021927265
-0.0015285396
0.0024614682
-0.0016997148
0.0027825231
-0.0018967381
0.0031675755
-0.0021292119
0.0036284216
-0.0024113186
0.0041739237
-0.0027638262
0.0048038481
-0.0032168014
0.0054955313
-0.0038122359
0.0061729985
-0.004605743
0.0066435051
-0.0056647825
0.0064767725
-0.0070301688
0.0047271005
-0.0085537565
-0.00057760897
-0.0095138914
-0.012967262
-0.0086207227
-0.035976813
-0.0056883722
-0.066400608
-0.0025512581
-0.091023075
-0.00057919367
-0.099719273
0.0026151941
-0.083789375
0.011685639
-0.038090583
0.027835678
0.02873884
0.049535316
0.084549709
0.086484684
0.079855738
-8.1341089e-09
1.4892454e-07
-3.6305867e-08
5.1326004e-07
-9.1292253e-08
9.9921558e-07
-1.8159822e-07
1.6396845e-06
-3.1784365e-07
2.4757003e-06
-5.1323236e-07
3.5582786e-06
-7.8411441e-07
4.9506128e-06
-1.1506661e-06
6.7306741e-06
-1.6377065e-06
8.9942557e-06
-2.2756781e-06
1.1858494e-05
-3.1018201e-06
1.546586e-05
-4.1615796e-06
1.9988642e-05
-5.5102746e-06
2.5633776e-05
-7.2151033e-06
3.2647966e-05
-9.3574973e-06
4.132272e-05
-1.2035904e-05
5.1999025e-05
-1.5369038e-05
6.5070925e-05
-1.9499623e-05
8.098722e-05
-2.4598621e-05
0.00010025005
-3.0869928e-05
0.00012340888
-3.855536e-05
0.00015104779
-4.7939554e-05
0.00018376384
-5.9354392e-05
0.00022213392
-7.3181924e-05
0.00026666749
-8.9854452e-05
0.00031774344
-0.00010985004
0.00037553174
-0.00013368059
0.00043990487
-0.00016186975
0.00051035505
-0.00019491738
0.00058595132
-0.00023325029
0.00066539977
-0.00027716547
0.00074729033
-0.00032678806
0.00083057104
-0.00038207964
0.00091510975
-0.00044291687
0.0010019833
-0.0005092044
0.0010932353
-0.00058095334
0.0011913236
-0.00065829627
0.0012987277
-0.00074146379
0.0014179151
-0.00083076043
0.0015515655
-0.00092656394
0.0017029081
-0.0010293641
0.0018761054
-0.0011398553
0.0020766832
-0.0012590972
0.0023119684
-0.0013887361
0.0025911071
-0.0015313996
0.0029251866
-0.0016912166
0.0033273925
-0.0018745194
0.0038117243
-0.0020908228
0.0043902272
-0.0023541434
0.0050671686
-0.0026845386
0.0058259265
-0.0031086874
0.0065971472
-0.0036582829
0.0071931006
-0.0043652095
0.0071836991
-0.0052053831
0.0055672741
-0.0058945702
0.00011157806
-0.0054083346
-0.013453498
-0.0022454304
-0.039139717
0.003048908
-0.071694947
0.0070095638
-0.094983731
0.0082902924
-0.101
0.010358319
-0.085857402
0.018329017
-0.046061281
0.034327337
0.012740519
0.058935781
0.059941265
0.052165347
0.093255118
-6.8502106e-09
1.5577475e-07
-3.0607634e-08
5.3701747e-07
-7.7020166e-08
1.0456281e-06
-1.5329202e-07
1.7159563e-06
-2.6840792e-07
2.5908162e-06
-4.3352233e-07
3.723393e-06
-6.6243033e-07
5.1795207e-06
-9.7213957e-07
7.0403833e-06
-1.3835524e-06
9.4056685e-06
-1.9222987e-06
1.239724e-05
-2.6197373e-06
1.6163298e-05
-3.5141613e-06
2.0883066e-05
-4.6522708e-06
2.6771886e-05
-6.0909255e-06
3.4086621e-05
-7.8992892e-06
4.3131083e-05
-1.0161373e-05
5.4261109e-05
-1.2979095e-05
6.7888647e-05
-1.6475902e-05
8.4484027e-05
-2.0801003e-05
0.00010457515
-2.6134175e-05
0.00012874205
-3.2691138e-05
0.00015760475
-4.0729204e-05
0.00019180191
-5.0552779e-05
0.0002319575
-6.2517876e-05
0.00027863259
-7.7034488e-05
0.00033226005
-9.4564672e-05
0.00039306192
-0.00011561387
0.00046095407
-0.00014071166
0.00053545283
-0.00017037781
0.00061561748
-0.00020507048
0.00070009244
-0.00024511958
0.00078733943
-0.00029066469
0.00087611615
-0.00034163826
0.00096608333
-0.00039782945
0.0010581745
-0.00045900209
0.0011544079
-0.00052498831
0.0012573098
-0.00059570974
0.0013694492
-0.00067114383
0.0014933492
-0.00075127597
0.0016316977
-0.00083606487
0.001787697
-0.00092543491
0.0019654754
-0.0010193051
0.0021705534
-0.0011176567
0.00241032
-0.001220639
0.0026940895
-0.0013287805
0.0030333281
-0.0014432035
0.0034418155
-0.0015658813
0.0039344022
-0.0016999193
0.0045242651
-0.0018497159
0.0052169652
-0.0020204037
0.0059966144
-0.0022150308
0.0067917743
-0.0024273792
0.007405449
-0.0026277664
0.0073840863
-0.0026732342
0.005612742
-0.002046774
-0.00051488216
0.0007123311
-0.016212603
0.0070343376
-0.045461724
0.015120622
-0.079781231
0.020452052
-0.10031516
0.021298758
-0.10184671
0.02160295
-0.086161594
0.028063526
-0.052521856
0.043963014
-0.0031589683
0.070941574
0.032962705
0.015367679
0.10773924
-5.3837048e-09
1.6115846e-07
-2.4095695e-08
5.5572945e-07
-6.0703972e-08
1.0822364e-06
-1.209245e-07
1.7761768e-06
-2.1187106e-07
2.6817627e-06
-3.4235823e-07
3.8538802e-06
-5.2327058e-07
5.3604331e-06
-7.6800329e-07
7.285116e-06
-1.0930059e-06
9.7306711e-06
-1.5184377e-06
1.2822672e-05
-2.0689746e-06
1.6713835e-05
-2.7747971e-06
2.1588889e-05
-3.6728129e-06
2.7669901e-05
-4.8081429e-06
3.522195e-05
-6.2359891e-06
4.455893e-05
-8.0239171e-06
5.6049037e-05
-1.0254676e-05
7.0119405e-05
-1.3029611e-05
8.7258963e-05
-1.6472849e-05
0.00010801839
-2.0736213e-05
0.00013300542
-2.60049e-05
0.00016287344
-3.2503878e-05
0.00019830088
-4.0504485e-05
0.0002399581
-5.0330714e-05
0.00028845882
-6.2363903e-05
0.00034429324
-7.704399e-05
0.00040774201
-9.4864414e-05
0.00047877449
-0.00011635656
0.00055694498
-0.00014205837
0.00064131929
-0.0001724613
0.00073049537
-0.00020793431
0.00082281245
-0.00024864005
0.00091682188
-0.0002944879
0.0010119312
-0.00034517583
0.0011088624
-0.00040030984
0.0012095419
-0.00045951494
0.0013165149
-0.0005224661
0.0014324003
-0.00058884548
0.0015597286
-0.00065826786
0.0017011201
-0.00073020552
0.0018596346
-0.00080392388
0.0020391938
-0.00087843099
0.0022450605
-0.00095242778
0.0024843168
-0.0010242735
0.0027659352
-0.0010919391
0.0031009937
-0.0011528233
0.0035026997
-0.0012033962
0.0039849751
-0.0012384778
0.0045593467
-0.0012496613
0.0052281487
-0.001221584
0.0059685371
-0.0011237762
0.0066939665
-0.00090022022
0.007181893
-0.00043010659
0.0069139727
0.00058994561
0.0045926898
0.0030771731
-0.0030021097
0.0088886257
-0.022024056
0.018334626
-0.054907724
0.028381357
-0.089827961
0.03517528
-0.10710909
0.037142468
-0.10381389
0.036640003
-0.085659129
0.04119759
-0.057079443
0.056603927
-0.018565305
0.085046978
0.004519654
-0.022519669
0.12293433
-3.7635016e-09
1.6492196e-07
-1.6897598e-08
5.6886355e-07
-4.2661797e-08
1.1080006e-06
-8.5122387e-08
1.8186374e-06
-1.4932344e-07
2.7459638e-06
-2.4149326e-07
3.94605e-06
-3.6929841e-07
5.4882382e-06
-5.4214852e-07
7.4579661e-06
-7.7157989e-07
9.9601024e-06
-1.0717184e-06
1.3122811e-05
-1.4598788e-06
1.7101996e-05
-1.9572931e-06
2.2086303e-05
-2.5900596e-06
2.8302668e-05
-3.390341e-06
3.6022232e-05
-4.3979003e-06
4.5566489e-05
-5.6620697e-06
5.7313207e-05
-7.244251e-06
7.1701587e-05
-9.2211271e-06
8.9235839e-05
-1.1688641e-05
0.00011048591
-1.4766961e-05
0.00013608374
-1.8606457e-05
0.00016671294
-2.3394664e-05
0.00020308909
-2.9364061e-05
0.0002459275
-3.6800066e-05
0.00029589482
-4.6048285e-05
0.00035354146
-5.7519039e-05
0.00041921276
-7.1686431e-05
0.00049294189
-8.907724e-05
0.00057433578
-0.00011024317
0.00066248522
-0.00013570863
0.00075596083
-0.00016588796
0.00085299178
-0.00020097744
0.00095191136
-0.00024087248
0.0010518262
-0.00028518123
0.0011531712
-0.00033333946
0.0012577001
-0.00038473914
0.0013679146
-0.00043877354
0.0014864347
-0.0004947879
0.0016157429
-0.00055197666
0.0017583088
-0.0006092618
0.0019169198
-0.00066516246
0.0020950945
-0.00071764796
0.002297546
-0.00076394926
0.0025306181
-0.00080034906
0.002802335
-0.00082180934
0.003122454
-0.0008212921
0.0035021825
-0.00078860111
0.0039522841
-0.00070832708
0.0044790727
-0.0005560892
0.0050759108
-0.00029061212
0.00570306
0.0001588296
0.0062445248
0.00091753967
0.006423183
0.0022229742
0.0056085382
0.0046167708
0.0021988931
0.0094805288
-0.0078658677
0.018507619
-0.031051146
0.030296036
-0.06669614
0.040507046
-0.10003897
0.047378875
-0.11398091
0.051306395
-0.10774141
0.053304228
-0.087656962
0.057940632
-0.061715847
0.07275088
-0.033375553
0.10160467
-0.024334137
-0.058077144
0.13716215
-2.029298e-09
1.6695126e-07
-9.188138e-09
5.7602239e-07
-2.3330545e-08
1.122143e-06
-4.6751359e-08
1.8420582e-06
-8.2273222e-08
2.7814856e-06
-1.3335118e-07
3.997128e-06
-2.0420121e-07
5.5590883e-06
-2.9996411e-07
7.553729e-06
-4.2691016e-07
1.0087048e-05
-5.927081e-07
1.3288609e-05
-8.0677538e-07
1.7316063e-05
-1.0807575e-06
2.2360285e-05
-1.4291546e-06
2.8651065e-05
-1.8702023e-06
3.646328e-05
-2.4270274e-06
4.6123314e-05
-3.1292535e-06
5.8015433e-05
-4.0151582e-06
7.2587491e-05
-5.1345177e-06
9.0355198e-05
-6.5523819e-06
0.00011190377
-8.3539344e-06
0.00013788529
-1.0650643e-05
0.00016900965
-1.3587707e-05
0.00020602616
-1.7352883e-05
0.00024969268
-2.218618e-05
0.00030072812
-2.8389564e-05
0.00035974484
-3.6335073e-05
0.00042715827
-4.6468289e-05
0.0005030751
-5.9302339e-05
0.00058716983
-7.539427e-05
0.00067857715
-9.5295008e-05
0.00077586156
-0.0001194786
0.00087717537
-0.00014818171
0.00098061447
-0.00018129312
0.0010849376
-0.00021834119
0.0011902192
-0.00025858473
0.0012979437
-0.00030116412
0.001410494
-0.00034515787
0.0015304285
-0.00038953353
0.0016601186
-0.00043301779
0.0018017931
-0.00047392354
0.0019578255
-0.00050994386
0.0021311148
-0.00053789493
0.0023254971
-0.00055336902
0.0025460922
-0.00055029904
0.002799265
-0.00052020576
0.0030923607
-0.00045093482
0.0034329115
-0.00032450409
0.0038258534
-0.00011349797
0.0042680666
0.00022547017
0.0047369426
0.0007615668
0.0051669634
0.0016190755
0.005387016
0.0030169141
0.0050253444
0.0053218806
0.0033035718
0.0093902432
-0.0018694695
0.017058214
-0.015533839
0.029057587
-0.043050519
0.04187535
-0.079513903
0.050780193
-0.10894382
0.055957794
-0.11915851
0.060127808
-0.11191143
0.065808509
-0.093337663
0.074737993
-0.070645332
0.091433211
-0.050070772
0.11837475
-0.051275679
-0.086167111
0.14646472
-2.3127156e-10
1.6718253e-07
-1.1910746e-09
5.7698219e-07
-3.2698746e-09
1.1242218e-06
-6.9203499e-09
1.8457087e-06
-1.2652997e-08
2.7872183e-06
-2.1040223e-08
4.0055152e-06
-3.2713806e-08
5.5707618e-06
-4.8377463e-08
7.5693927e-06
-6.883246e-08
1.0107503e-05
-9.5031768e-08
1.3314808e-05
-1.2819045e-07
1.7349221e-05
-1.6996511e-07
2.240206e-05
-2.2277241e-07
2.8703872e-05
-2.9028988e-07
3.6530797e-05
-3.7822987e-07
4.6211254e-05
-4.9551441e-07
5.8132717e-05
-6.5598206e-07
7.2747959e-05
-8.80847e-07
9.0580063e-05
-1.2021272e-06
0.00011222505
-1.667274e-06
0.00013835044
-2.3453174e-06
0.00016968769
-3.3347103e-06
0.00020701555
-4.7729347e-06
0.0002511309
-6.8477707e-06
0.00030280296
-9.8094861e-06
0.00036270656
-1.3982521e-05
0.00043133131
-1.977388e-05
0.00050886646
-2.7673253e-05
0.00059506921
-3.8235625e-05
0.00068913953
-5.2022812e-05
0.00078964875
-6.953721e-05
0.00089468977
-9.1075009e-05
0.0010021523
-0.00011656756
0.0011104302
-0.00014547661
0.0012191283
-0.00017687483
0.0013293419
-0.0002096485
0.0014432677
-0.00024252467
0.0015633047
-0.00027405238
0.0016916463
-0.00030244635
0.0018301871
-0.00032535821
0.0019807374
-0.00033958492
0.0021453415
-0.00034068899
0.0023266012
-0.00032247329
0.0025278765
-0.0002762773
0.002753069
-0.00018976275
0.0030058462
-4.5026236e-05
0.003288175
0.00018473496
0.0035960922
0.00054035919
0.0039124423
0.0010848149
0.0041924869
0.0019297317
0.0043220467
0.0032768739
0.0040398738
0.0054171241
0.0028850941
0.0089010314
-0.00018033557
0.015095833
-0.0080642713
0.025862777
-0.026300782
0.039959287
-0.057147029
0.052059407
-0.091614023
0.058673299
-0.11555771
0.061740568
-0.12222578
0.064952135
-0.115123
0.071700171
-0.1000857
0.083941546
-0.082886707
0.10304715
-0.06917638
0.126518
-0.074746523
-0.10683928
0.14719017
1.5687652e-09
1.6561376e-07
6.8210855e-09
5.7172987e-07
1.6838209e-08
1.1142047e-06
3.3022006e-08
1.8295249e-06
5.7183464e-08
2.7630568e-06
9.165221e-08
3.9710464e-06
1.3939994e-07
5.5230141e-06
2.0418629e-07
7.5046064e-06
2.9071371e-07
1.0020976e-05
4.0478787e-07
1.3200734e-05
5.5347113e-07
1.7200538e-05
7.4518224e-07
2.2210349e-05
9.8973468e-07
2.845932e-05
1.2982155e-06
3.6222316e-05
1.6826417e-06
4.5826828e-05
2.1552628e-06
5.7660096e-05
2.7273459e-06
7.2175876e-05
3.4072078e-06
8.9900201e-05
4.1972913e-06
0.00011143497
5.0898792e-06
0.00013745785
6.0611799e-06
0.00016871639
7.0633985e-06
0.00020601333
8.0145613e-06
0.00025017974
8.7861362e-06
0.00030203138
9.188708e-06
0.00036230398
8.9571316e-06
0.00043156288
7.7376063e-06
0.00051008599
5.0816901e-06
0.00059772512
4.541725e-07
0.00069376704
-6.7342159e-06
0.00079683714
-1.6992743e-05
0.0009049483
-3.0785759e-05
0.0010159453
-4.7881135e-05
0.0011275256
-6.7773906e-05
0.001239021
-8.9441975e-05
0.00135101
-0.0001114839
0.0014653096
-0.00013223927
0.00158406
-0.00014980214
0.0017092092
-0.00016183516
0.0018422201
-0.00016528416
0.0019841864
-0.00015598895
0.0021360463
-0.00012816977
0.002298782
-7.3696237e-05
0.0024734029
1.895755e-05
0.0026604152
0.00016628053
0.0028585232
0.00039267976
0.0030617758
0.00073472567
0.0032540463
0.0012474849
0.0033996831
0.0020245989
0.0034153729
0.0032448277
0.0031018179
0.0051663259
0.0021183756
0.0081677512
-0.00011633115
0.013204987
-0.0052175716
0.022166321
-0.017025605
0.035816034
-0.039950495
0.050302818
-0.071633814
0.060012329
-0.10132353
0.063888601
-0.11943398
0.065336982
-0.12367416
0.068094185
-0.1178802
0.074779042
-0.10677056
0.086854568
-0.094962233
0.10504939
-0.087371205
0.12582867
-0.095525799
-0.12490552
0.14389491
3.3068537e-09
1.6230691e-07
1.4560513e-08
5.6047621e-07
3.626927e-08
1.0924959e-06
7.1632656e-08
1.7941615e-06
1.2471586e-07
2.7099736e-06
2.0065882e-07
3.8951035e-06
3.0593143e-07
5.4177415e-06
4.4862104e-07
7.3619167e-06
6.3877539e-07
9.8308217e-06
8.8877186e-07
1.2950737e-05
1.2137192e-06
1.6875591e-05
1.6318637e-06
2.1792204e-05
2.1649651e-06
2.7926218e-05
2.8385807e-06
3.5548701e-05
3.6821738e-06
4.4983235e-05
4.72892e-06
5.661335e-05
6.0150594e-06
7.0889736e-05
7.5785178e-06
8.8336743e-05
9.456561e-06
0.00010955692
1.1682081e-05
0.00013523233
1.4278102e-05
0.00016612037
1.7250074e-05
0.00020304136
2.0575541e-05
0.00024685427
2.4190927e-05
0.000298416
2.7975724e-05
0.00035851919
3.1734765e-05
0.00042780384
3.5181017e-05
0.00050663974
3.7923465e-05
0.00059498268
3.9471353e-05
0.00069221916
3.9252783e-05
0.00079705571
3.667329e-05
0.00090752779
3.1412758e-05
0.0010212058
2.3439837e-05
0.0011354985
1.3260904e-05
0.0012492
2.0491044e-06
0.0013622218
-8.4605666e-06
0.0014758193
-1.6213009e-05
0.0015918125
-1.8821678e-05
0.0017118178
-1.33679e-05
0.0018367663
3.9504219e-06
0.0019668681
3.8295898e-05
0.0021017008
9.6876706e-05
0.0022402012
0.0001899127
0.0023803669
0.00033204693
0.002518281
0.00054459299
0.0026459771
0.00085905023
0.0027473185
0.0013229686
0.0027901279
0.0020129851
0.0027096666
0.0030773957
0.0023509623
0.0047505623
0.0014286513
0.0073375296
-0.00046859171
0.011527989
-0.0043067903
0.018878121
-0.012567703
0.030989636
-0.029137121
0.046176495
-0.055137353
0.058806932
-0.084264251
0.065134056
-0.10765066
0.066770324
-0.12107025
0.06754822
-0.12445206
0.070495775
-0.12082775
0.07736881
-0.11364359
0.088989949
-0.10658337
0.10553685
-0.1039181
0.12427085
-0.1142598
-0.14173188
0.14109721
4.9068189e-09
1.5740009e-07
2.1694624e-08
5.4368841e-07
5.419676e-08
1.0599938e-06
1.0728069e-07
1.7410776e-06
1.8709985e-07
2.6301545e-06
3.0140607e-07
3.7807973e-06
4.5990903e-07
5.2592386e-06
6.7471685e-07
7.1471089e-06
9.6083716e-07
9.5447014e-06
1.3367543e-06
1.257482e-05
1.8250696e-06
1.6387276e-05
2.4532033e-06
2.1164071e-05
3.2540873e-06
2.7125334e-05
4.266869e-06
3.4535919e-05
5.5374668e-06
4.3712637e-05
7.1189205e-06
5.5031896e-05
9.0713079e-06
6.8937349e-05
1.146109e-05
8.5946961e-05
1.4359409e-05
0.0001066586
1.7839141e-05
0.0001317526
2.1970062e-05
0.00016198945
2.6811669e-05
0.00019819975
3.2403096e-05
0.00024126284
3.8749642e-05
0.00029206945
4.5805766e-05
0.00035146306
5.3455062e-05
0.00042015455
6.1488899e-05
0.0004986059
6.9587555e-05
0.00058688402
7.7309239e-05
0.00068449747
8.411801e-05
0.00079024694
8.9514682e-05
0.00090213112
9.3303812e-05
0.0010174167
9.4988919e-05
0.0011338134
9.5116799e-05
0.0012490721
9.5081916e-05
0.0013622566
9.6879504e-05
0.0014740217
0.0001029248
0.0015857672
0.00011612685
0.0016986158
0.00014002979
0.0018128634
0.00017922717
0.0019276707
0.00023996778
0.0020409602
0.00033101314
0.0021491558
0.00046489454
0.0022464855
0.00065984072
0.0023233348
0.00094266935
0.0023631485
0.0013536812
0.0023363067
0.0019557627
0.0021880464
0.0028666955
0.0017987338
0.0042927824
0.00092487546
0.0065091782
-0.00078774449
0.010064267
-0.0040236807
0.01623779
-0.010480313
0.026669004
-0.022998918
0.041117135
-0.043585251
0.055363175
-0.069383393
0.064279189
-0.093180265
0.067539617
-0.11091109
0.06816543
-0.12169606
0.069153984
-0.12544062
0.072623462
-0.12429723
0.079733049
-0.12075318
0.090960188
-0.11781051
0.10623394
-0.11919185
0.12334865
-0.13137452
-0.15739658
0.13901334
6.2972625e-09
1.5110283e-07
2.7896454e-08
5.2208922e-07
6.9787796e-08
1.0181024e-06
1.3829584e-07
1.6725696e-06
2.4140408e-07
2.5270462e-06
3.8914331e-07
3.633058e-06
5.9406563e-07
5.0543162e-06
8.7180185e-07
6.8693727e-06
1.2417151e-06
9.1747882e-06
1.727665e-06
1.208887e-05
2.358867e-06
1.5756074e-05
3.1708504e-06
2.0352087e-05
4.2064976e-06
2.6089687e-05
5.5170925e-06
3.3225324e-05
7.1633617e-06
4.2066368e-05
9.2163403e-06
5.2978917e-05
1.1757951e-05
6.6395739e-05
1.4880999e-05
8.2823913e-05
1.8688396e-05
0.00010285121
2.329102e-05
0.00012714997
2.8803888e-05
0.00015647658
3.5339884e-05
0.00019166376
4.300049e-05
0.00023360224
5.1862814e-05
0.00028320712
6.1962597e-05
0.00034136328
7.3273296e-05
0.00040884385
8.5682653e-05
0.00048619654
9.8970509e-05
0.00057359616
0.0001127968
0.00067067118
0.00012671562
0.00077632812
0.00014018502
0.00088866172
0.0001525553
0.0010050464
0.00016386508
0.0011225036
0.0001748356
0.0012381016
0.00018661659
0.0013504757
0.00020131102
0.0014593272
0.0002217835
0.0015652947
0.00025147578
0.0016689235
0.00029460955
0.0017697296
0.0003566405
0.0018656397
0.00044500608
0.0019525946
0.00057023144
0.0020239305
0.00074757854
0.0020691384
0.00099964367
0.0020712697
0.0013604515
0.0020023407
0.0018828316
0.0018139266
0.0026586484
0.0014122296
0.0038656094
0.00059177279
0.0057579394
-0.00096745457
0.0088115626
-0.0038413677
0.014135934
-0.0093480516
0.023217935
-0.019562315
0.036306391
-0.036087374
0.050722994
-0.058001855
0.061541118
-0.080201517
0.066678731
-0.098317879
0.068392628
-0.11262498
0.068941249
-0.12224468
0.070524711
-0.12702408
0.074546348
-0.12831887
0.081805488