/*--------------------------------*- C++ -*----------------------------------*\
  =========                 |
  \\      /  F ield         | OpenFOAM: The Open Source CFD Toolbox
   \\    /   O peration     | Website:  https://openfoam.org
    \\  /    A nd           | Version:  13
     \\/     M anipulation  |
\*---------------------------------------------------------------------------*/
FoamFile
{
    format      ascii;
    class       volVectorField;
    location    "48.802451";
    object      U;
}
// * * * * * * * * * * * * * * * * * * * * * * * * * * * * * * * * * * * * * //

dimensions      [0 1 -1 0 0 0 0];

internalField   nonuniform List<vector> 
17140
(
(-3.2216717e-06 0.00022969531 3.6672963e-23)
(-1.1469617e-05 0.00070895008 4.0584173e-24)
(-2.2815938e-05 0.0012376087 -2.6776869e-22)
(-3.8152803e-05 0.0018229603 2.9412661e-22)
(-5.852132e-05 0.0024729924 -3.4349351e-23)
(-8.5243326e-05 0.0031963567 1.1228774e-22)
(-0.00011995561 0.0040023164 1.8875634e-22)
(-0.00016465388 0.0049006526 -9.1956007e-23)
(-0.00022177164 0.0059015245 -3.0032299e-22)
(-0.00029426406 0.0070152701 -7.3453573e-22)
(-0.00038570794 0.0082521363 1.0853041e-21)
(-0.00050041401 0.0096219225 -9.6300782e-22)
(-0.0006435554 0.011133523 -1.4664122e-22)
(-0.00082131015 0.012794354 8.2381723e-22)
(-0.0010410171 0.014609646 -9.0740029e-23)
(-0.0013113417 0.016581598 7.1224797e-22)
(-0.0016424453 0.018708383 -2.6142498e-23)
(-0.0020461507 0.02098301 5.8676272e-24)
(-0.0025360872 0.023392073 4.0451805e-22)
(-0.0031277993 0.025914428 -5.1458454e-22)
(-0.0038387882 0.028519883 2.4264197e-22)
(-0.0046884525 0.031168031 -4.5143669e-23)
(-0.00569788 0.033807415 -3.2279694e-22)
(-0.0068894302 0.036375281 3.1266577e-22)
(-0.0082860387 0.038798277 4.80487e-22)
(-0.0099101623 0.040994565 -3.7238668e-22)
(-0.011782295 0.042877982 -1.7655267e-21)
(-0.013919021 0.044365098 -2.0056388e-22)
(-0.016330696 0.045386131 1.6916983e-21)
(-0.019019075 0.045900194 3.8088911e-22)
(-0.021975624 0.045912873 1.3029561e-21)
(-0.025181602 0.045488487 -1.6370517e-21)
(-0.028610876 0.04474422 4.0698132e-22)
(-0.032235094 0.043820237 1.8431399e-22)
(-0.036029032 0.042841122 1.7045174e-21)
(-0.039973458 0.041893627 -7.0547712e-22)
(-0.044055016 0.041027947 1.0156163e-21)
(-0.048265095 0.040270632 6.5956504e-22)
(-0.052599462 0.039636661 2.9176473e-22)
(-0.057059459 0.039136178 -8.6294552e-22)
(-0.061654829 0.038776056 -1.6070375e-21)
(-0.066407433 0.038557481 -1.4497459e-21)
(-0.07135968 0.038471099 -6.3322321e-22)
(-0.076581786 0.038483902 3.1053453e-21)
(-0.082178049 0.038522484 2.2925097e-21)
(-0.088301596 0.038465653 -5.6832617e-22)
(-0.095164763 0.038112598 3.9315274e-21)
(-0.10305092 0.037143863 1.3536078e-21)
(-0.11231832 0.03506077 -1.3987823e-21)
(-0.12340348 0.031080416 -3.4818342e-21)
(-0.136778 0.023959712 2.1733608e-21)
(-0.15289489 0.011712338 1.3972815e-21)
(-0.17189521 -0.0087076185 -3.6848713e-21)
(-0.19325265 -0.041844266 -1.7586841e-21)
(-0.21509639 -0.093260406 -1.2374548e-21)
(-0.23298094 -0.16720478 9.8471806e-22)
(-0.23880684 -0.26113807 -2.5064475e-21)
(-0.22076575 -0.35922401 -1.9196724e-21)
(-0.17890565 -0.42620785 -4.3896483e-22)
(-0.13036262 -0.42184222 1.0901943e-21)
(-0.063766227 -0.24805624 9.710024e-22)
(0.12158621 0.11541227 3.1969679e-21)
(0.32081962 0.43867788 2.6395673e-22)
(0.44067178 0.54462187 -1.4668653e-21)
(0.46382093 0.52366293 6.4526503e-22)
(-1.0816029e-05 0.00026173913 -1.0484284e-23)
(-3.4989427e-05 0.00080821306 1.4112825e-21)
(-6.3767392e-05 0.0014111181 -1.255073e-21)
(-9.8368439e-05 0.0020783468 3.4185694e-22)
(-0.00014001158 0.0028185347 7.0552952e-22)
(-0.00019025799 0.0036410082 -1.3464718e-21)
(-0.00025098962 0.0045557284 1.4013764e-21)
(-0.00032445077 0.0055731896 -1.2309643e-22)
(-0.00041331945 0.0067042677 3.8341209e-22)
(-0.00052078379 0.0079600065 6.4875407e-24)
(-0.00065062936 0.0093513272 1.2717875e-21)
(-0.00080733693 0.010888647 -2.0117341e-21)
(-0.00099619251 0.012581391 -1.652228e-22)
(-0.0012234079 0.014437377 1.6198746e-21)
(-0.0014962506 0.016462063 -4.9324044e-22)
(-0.0018231797 0.018657638 -3.1011687e-22)
(-0.0022139826 0.021021963 1.9422143e-21)
(-0.0026799036 0.023547343 -6.2302691e-21)
(-0.0032337533 0.026219181 3.8305801e-21)
(-0.0038899815 0.029014545 -4.4940104e-21)
(-0.0046646885 0.031900722 6.4792619e-21)
(-0.0055755457 0.03483392 -1.546623e-21)
(-0.0066415822 0.037758273 -6.1779689e-22)
(-0.0078827868 0.040605442 1.9579442e-21)
(-0.0093194629 0.043295169 -6.8036878e-21)
(-0.01097127 0.045737288 -9.8163296e-22)
(-0.012855891 0.047835893 4.8992983e-21)
(-0.014987325 0.049496644 -5.3028596e-21)
(-0.017373893 0.050638406 7.0344922e-22)
(-0.020016307 0.051210076 6.6308653e-21)
(-0.022906444 0.051210814 -6.5700646e-22)
(-0.026027686 0.050705527 -4.8485614e-21)
(-0.029357443 0.049820807 -1.198682e-22)
(-0.032871488 0.048713151 3.2727808e-21)
(-0.036548229 0.04752532 -3.4573779e-21)
(-0.040370806 0.046359415 1.4786727e-21)
(-0.04432694 0.04527653 -1.6536976e-21)
(-0.048408152 0.044310597 -5.0583164e-21)
(-0.052609766 0.043482244 -1.1010859e-21)
(-0.056932426 0.042807124 -4.21268e-21)
(-0.061385105 0.042298662 5.3124575e-21)
(-0.065988989 0.04196662 4.8814063e-21)
(-0.07078674 0.041812828 8.3869804e-22)
(-0.07584877 0.041817807 -6.7539888e-21)
(-0.081281103 0.041924095 3.2614618e-21)
(-0.087241721 0.042029693 1.1472782e-21)
(-0.093951844 0.041955867 -5.8700883e-22)
(-0.10171092 0.041406107 -1.9609079e-21)
(-0.11090441 0.039903332 9.6638305e-22)
(-0.12201428 0.036679073 -1.8597603e-21)
(-0.13558981 0.030484063 -1.1114925e-20)
(-0.15220113 0.019268575 -4.996796e-22)
(-0.17218578 -0.00019318579 2.3994988e-21)
(-0.1952734 -0.032809956 -5.734338e-21)
(-0.21971442 -0.084866711 4.8046922e-21)
(-0.2406332 -0.16166576 -1.3663964e-20)
(-0.24845207 -0.26194454 -3.9771184e-21)
(-0.23019374 -0.36842813 9.415155e-21)
(-0.18723997 -0.44036488 -1.4471535e-21)
(-0.14172831 -0.43849018 -1.5709016e-21)
(-0.096821757 -0.28421426 -3.2738974e-22)
(0.042350389 0.053562115 2.5655478e-21)
(0.25088173 0.38404438 -3.6439228e-21)
(0.38300849 0.5187924 -4.3528045e-22)
(0.42716837 0.5165253 -8.7906326e-22)
(-2.0311677e-05 0.00029303415 -5.8004854e-22)
(-6.4254101e-05 0.00090518513 4.2832752e-22)
(-0.00011478564 0.0015806478 1.1384516e-22)
(-0.00017332932 0.0023278933 -1.0785094e-22)
(-0.0002413636 0.0031561657 5.2217665e-22)
(-0.0003207079 0.0040754253 3.8796064e-23)
(-0.00041350936 0.0050962884 4.9478983e-22)
(-0.00052227846 0.006229919 5.3211629e-22)
(-0.0006499516 0.0074878668 -4.3383596e-21)
(-0.00079995627 0.0088818399 3.862288e-21)
(-0.0009762844 0.010423398 -1.8416468e-21)
(-0.0011835726 0.012123549 -2.686716e-21)
(-0.0014271908 0.01399223 5.2984123e-21)
(-0.0017133372 0.016037663 6.5158212e-22)
(-0.0020491383 0.018265552 -2.4947834e-21)
(-0.0024427506 0.020678128 -1.6980399e-21)
(-0.0029034591 0.023273017 1.9451104e-21)
(-0.0034417655 0.026041942 -6.9399782e-21)
(-0.0040694559 0.028969281 4.0314336e-21)
(-0.0047996342 0.032030519 -1.9548171e-21)
(-0.0056466997 0.035190684 6.4423052e-21)
(-0.0066262457 0.038402895 1.6322537e-21)
(-0.0077548417 0.04160721 -3.3135752e-21)
(-0.0090496582 0.04473005 4.8387009e-21)
(-0.010527881 0.047684588 1.8475292e-21)
(-0.012205865 0.050372623 -2.1468036e-21)
(-0.014097975 0.05268871 -1.1787465e-20)
(-0.01621515 0.054527659 -5.1597202e-21)
(-0.018563295 0.055796833 2.4858531e-21)
(-0.021141867 0.056434451 -2.5704205e-21)
(-0.023943194 0.056432426 1.5437933e-21)
(-0.026953145 0.055855172 8.4051365e-21)
(-0.03015333 0.054837745 -2.6957074e-21)
(-0.033524325 0.053552608 -7.6528421e-21)
(-0.037048584 0.052160859 2.4128496e-21)
(-0.040711754 0.050780264 3.233216e-21)
(-0.044502514 0.049483073 -5.3734311e-21)
(-0.048412153 0.048310758 -1.5964104e-21)
(-0.052434954 0.047289722 2.7330739e-21)
(-0.056569976 0.046441306 1.066905e-21)
(-0.060824167 0.045785807 -5.1489722e-21)
(-0.065216324 0.045342129 1.4731859e-21)
(-0.069786892 0.045124065 2.1266673e-21)
(-0.074603068 0.045126651 5.7659139e-21)
(-0.079767855 0.045310245 -1.1166e-20)
(-0.0854375 0.045594665 7.4161029e-21)
(-0.091832929 0.045826788 1.949944e-21)
(-0.099256951 0.04573832 7.7543714e-21)
(-0.10810488 0.044881781 9.5137384e-21)
(-0.11888116 0.042515978 4.7413543e-22)
(-0.13218354 0.037404382 -2.3810137e-21)
(-0.14866248 0.027461801 1.6362926e-20)
(-0.16880742 0.0093152832 7.1393352e-21)
(-0.19257511 -0.022324843 7.3978723e-21)
(-0.21830347 -0.074618934 2.646193e-21)
(-0.24063355 -0.15436691 1.9159409e-20)
(-0.24924404 -0.26174098 -8.1075007e-21)
(-0.22502211 -0.3771919 2.1733915e-21)
(-0.17724414 -0.45404804 1.3635314e-20)
(-0.13186266 -0.45295396 4.5397279e-21)
(-0.096679275 -0.31209848 -4.5979925e-21)
(-0.0021361962 -0.0040974454 -1.4203277e-20)
(0.19754157 0.32357716 3.0527842e-21)
(0.33662598 0.48611002 3.0069094e-21)
(0.40347731 0.49923982 1.0347456e-21)
(-3.1626069e-05 0.00032296401 1.9509272e-21)
(-9.9132272e-05 0.00099798209 -3.1016687e-21)
(-0.00017558399 0.0017429299 1.120803e-21)
(-0.00026262657 0.0025668115 -1.2173946e-22)
(-0.0003620221 0.0034794304 2.4047428e-21)
(-0.00047586851 0.0044913293 -2.4851431e-21)
(-0.00060659597 0.005613727 3.7644735e-21)
(-0.00075699541 0.0068584034 -1.7678629e-21)
(-0.00093027114 0.0082375303 -6.7071562e-21)
(-0.0011300929 0.0097634329 1.6081853e-21)
(-0.0013606532 0.011448269 6.1052588e-21)
(-0.0016267279 0.013303606 -1.8560728e-21)
(-0.0019337409 0.015339884 -1.2328824e-22)
(-0.0022878297 0.017565734 4.8025781e-21)
(-0.0026959127 0.019987147 -1.4910368e-20)
(-0.0031657522 0.022606466 9.0688544e-21)
(-0.0037060106 0.025421203 8.5379217e-23)
(-0.0043262939 0.028422665 -4.8950168e-21)
(-0.0050371726 0.03159443 1.2239221e-20)
(-0.005850171 0.034910693 -5.6738584e-21)
(-0.0067777077 0.038334578 -8.2913434e-21)
(-0.0078329687 0.04181653 -3.2844225e-21)
(-0.0090296843 0.045292999 1.5845603e-20)
(-0.010381779 0.048685669 8.0694204e-21)
(-0.01190285 0.051901648 -5.0700322e-21)
(-0.013605443 0.054835161 2.8795585e-21)
(-0.015500094 0.057371593 -1.0487743e-20)
(-0.01759419 0.059395085 2.9302726e-21)
(-0.019890798 0.060801381 -7.6681433e-21)
(-0.022387831 0.061517465 4.2074844e-21)
(-0.025078018 0.061526893 -2.5266423e-21)
(-0.027949971 0.060892027 8.9044254e-21)
(-0.030990038 0.059754821 -1.226735e-21)
(-0.034184235 0.058302744 6.2052625e-21)
(-0.037519543 0.056715177 -5.6625821e-21)
(-0.040984308 0.055126048 -1.7421583e-21)
(-0.044568033 0.053619251 2.0725065e-20)
(-0.048261366 0.052244082 5.2366546e-21)
(-0.052056884 0.051032847 -4.234308e-21)
(-0.055951088 0.050012663 4.1009295e-21)
(-0.059947558 0.049210855 -1.068551e-21)
(-0.064060846 0.048655816 -6.5727177e-21)
(-0.068326424 0.048373832 2.9962094e-22)
(-0.072804482 0.048375171 2.2842335e-21)
(-0.077589724 0.04863953 -1.1466899e-21)
(-0.082829119 0.04911072 6.4228488e-22)
(-0.088732601 0.04966428 1.7738524e-21)
(-0.095591217 0.050064912 -2.7059749e-20)
(-0.10378888 0.049902386 3.1616481e-21)
(-0.11382285 0.048475631 -2.9491554e-21)
(-0.12629759 0.044580407 2.8535644e-20)
(-0.14188041 0.036126194 -1.5899623e-20)
(-0.16112511 0.019637711 -1.3801372e-20)
(-0.1841171 -0.010552583 -1.3728912e-20)
(-0.20913483 -0.062579152 -1.3645556e-20)
(-0.23028743 -0.14488875 -2.1233871e-20)
(-0.2331483 -0.26032943 4.0830413e-20)
(-0.20066598 -0.38588183 -2.2090888e-20)
(-0.14484727 -0.46676791 -2.6284346e-20)
(-0.098842786 -0.46501002 1.3418324e-20)
(-0.070236189 -0.33287819 4.3537673e-21)
(-0.0065008283 -0.05402012 4.8476812e-21)
(0.16321016 0.26216111 -3.3739383e-21)
(0.30386319 0.44702313 -2.8863662e-21)
(0.40290108 0.46839302 3.4882176e-22)
(-4.4639095e-05 0.00035089752 -1.3798555e-21)
(-0.0001392564 0.0010846457 4.5775925e-21)
(-0.00024552352 0.0018945448 -3.729808e-21)
(-0.00036532299 0.0027900785 1.4085494e-21)
(-0.00050072029 0.0037815497 5.0844747e-22)
(-0.00065410789 0.0048800224 -4.3705999e-21)
(-0.0008282124 0.0060972549 1.1054558e-21)
(-0.0010261153 0.007445581 2.3437544e-21)
(-0.0012512942 0.0089377347 1.7942169e-22)
(-0.0015076604 0.010586604 1.5209383e-21)
(-0.0017995988 0.012404901 -2.1236632e-21)
(-0.0021320065 0.014404724 1.4705092e-21)
(-0.002510331 0.016597003 5.3949409e-21)
(-0.0029406049 0.018990799 1.5598374e-22)
(-0.0034294761 0.021592441 -4.0728744e-21)
(-0.0039842298 0.024404483 -2.8615207e-21)
(-0.0046127983 0.02742447 2.4385185e-21)
(-0.0053237547 0.030643511 -2.30529e-22)
(-0.0061262846 0.034044671 -4.6325396e-21)
(-0.0070301253 0.037601221 -5.5559472e-21)
(-0.0080454655 0.041274829 6.2258881e-21)
(-0.0091827883 0.045013803 6.1334466e-21)
(-0.010452641 0.048751587 -8.0635741e-21)
(-0.011865308 0.052405789 9.736345e-21)
(-0.013430356 0.055878127 1.6438771e-20)
(-0.015156042 0.059055907 -3.767577e-20)
(-0.017048564 0.061815886 2.0156246e-20)
(-0.019111248 0.064031875 -2.9019693e-20)
(-0.021343856 0.065587961 3.518077e-20)
(-0.023742393 0.066399273 -3.8055458e-20)
(-0.026299805 0.066439604 3.8028716e-20)
(-0.029007529 0.065767127 -6.1586195e-21)
(-0.031857037 0.06452843 -2.0413324e-20)
(-0.034840357 0.062924523 1.1001759e-20)
(-0.037949541 0.061152833 -3.2817451e-21)
(-0.041175892 0.059364007 -9.0205599e-22)
(-0.044509638 0.057654247 -1.078372e-20)
(-0.047940363 0.056081082 -3.3920506e-21)
(-0.051458217 0.054682873 -3.3770852e-21)
(-0.055056102 0.053492518 -3.244757e-21)
(-0.058732782 0.052544369 1.6474717e-20)
(-0.062496575 0.051876389 -7.2529524e-21)
(-0.066374982 0.051527547 -1.1810048e-21)
(-0.070417033 0.051523725 1.3669133e-20)
(-0.074703324 0.051864986 7.0492311e-21)
(-0.07936308 0.052520655 -3.4858282e-21)
(-0.084582978 0.053397184 -1.3164901e-20)
(-0.09062457 0.054296071 5.7440369e-21)
(-0.097834567 0.054850843 -1.7552916e-20)
(-0.10666538 0.054411851 -9.8552443e-21)
(-0.11767055 0.051824232 -1.3858789e-20)
(-0.13143883 0.045020635 -3.9220097e-20)
(-0.14845198 0.030476531 3.139171e-20)
(-0.16873005 0.002172418 -1.1145975e-20)
(-0.19022578 -0.049158416 1.9339109e-20)
(-0.2057697 -0.13445512 1.8288141e-20)
(-0.19730924 -0.25797062 8.0561139e-21)
(-0.14891815 -0.39304507 5.4251549e-20)
(-0.08283278 -0.47650087 1.0906054e-20)
(-0.038085554 -0.47278019 -1.7973221e-20)
(-0.019639488 -0.34695288 -3.3708332e-21)
(0.022796153 -0.093531419 3.2109723e-21)
(0.15606324 0.20590913 2.634927e-21)
(0.29262364 0.40175477 1.7145582e-21)
(0.43720395 0.4248244 -4.5533583e-22)
(-5.9152018e-05 0.00037617689 -4.223419e-21)
(-0.00018402899 0.0011631414 -1.4895179e-21)
(-0.00032355981 0.0020319448 1.2052966e-21)
(-0.00047988959 0.0029924855 4.4478743e-21)
(-0.00065539627 0.0040554965 -2.4350427e-21)
(-0.00085277838 0.0052324923 3.5012349e-21)
(-0.0010750677 0.0065356986 -1.5130414e-21)
(-0.0013256416 0.0079779322 -3.5982792e-22)
(-0.0016082521 0.009572422 2.0328304e-21)
(-0.0019270484 0.01133256 4.3710283e-21)
(-0.002286597 0.013271562 2.1901499e-22)
(-0.0026918979 0.01540203 -7.1419693e-21)
(-0.0031483943 0.017735377 9.8404306e-21)
(-0.0036619741 0.020281119 -1.5810325e-20)
(-0.0042389613 0.023045992 4.107249e-21)
(-0.0048860937 0.026032878 -8.6651826e-21)
(-0.0056104838 0.029239543 1.0386204e-20)
(-0.00641956 0.032657152 -6.6773329e-21)
(-0.0073209831 0.036268602 1.0422972e-21)
(-0.0083225335 0.04004668 4.1699944e-21)
(-0.0094319632 0.043952139 -9.9792654e-21)
(-0.010656805 0.047931794 1.3841483e-20)
(-0.012004131 0.051916822 -1.476291e-20)
(-0.013480241 0.055821564 -2.4894579e-21)
(-0.015090278 0.059543208 2.387029e-20)
(-0.016837762 0.062962977 -2.358775e-20)
(-0.018724063 0.065949746 1.4971683e-20)
(-0.020747928 0.068367505 -1.641068e-20)
(-0.022905293 0.070088765 -1.5427308e-21)
(-0.025189779 0.071016159 -9.344098e-22)
(-0.027594192 0.071112072 6.0021479e-21)
(-0.030112673 0.070427837 -3.9977565e-22)
(-0.032742012 0.069111689 2.1077837e-20)
(-0.035480738 0.067376064 -5.4579156e-21)
(-0.038326523 0.065435887 -1.5687424e-20)
(-0.041273963 0.063459126 6.9919869e-21)
(-0.044313987 0.061555143 -5.5168699e-21)
(-0.047434719 0.059790261 5.4089464e-21)
(-0.050623148 0.058209073 2.9217827e-20)
(-0.053867482 0.056850186 -1.5925187e-20)
(-0.057160132 0.055754776 -3.8738375e-21)
(-0.060501071 0.054970153 2.2101542e-20)
(-0.063906611 0.054547757 -1.2391654e-21)
(-0.067410165 0.054529036 -2.7154388e-21)
(-0.071071918 0.054934826 -3.0611247e-20)
(-0.07499399 0.055760591 -7.1839006e-21)
(-0.079325922 0.056944805 1.1607069e-20)
(-0.084279286 0.058328038 1.2068424e-20)
(-0.090132791 0.059591937 1.7635119e-20)
(-0.097247342 0.060146046 2.2609785e-20)
(-0.10604958 0.058895871 1.441718e-20)
(-0.11692049 0.053821069 2.2365707e-20)
(-0.13008053 0.041396743 -7.9036075e-21)
(-0.14516566 0.015280471 5.3423725e-20)
(-0.15926613 -0.035038444 4.7939167e-21)
(-0.16311784 -0.12334345 3.7429529e-21)
(-0.13363249 -0.25544664 3.1713723e-21)
(-0.057392569 -0.39749695 -6.1223327e-20)
(0.021408903 -0.48009448 -1.5927727e-20)
(0.057588343 -0.47158926 1.4239198e-20)
(0.058812238 -0.3519378 9.6086925e-21)
(0.081878694 -0.12104842 1.9158574e-21)
(0.18361572 0.15820395 2.0545042e-22)
(0.31594722 0.35195035 6.2915976e-22)
(0.50890229 0.37157152 1.990612e-22)
(-7.4889535e-05 0.00039815706 8.0139697e-22)
(-0.00023261382 0.0012314679 2.5449949e-21)
(-0.00040823425 0.0021516371 -6.1398094e-21)
(-0.00060419105 0.0031689003 2.2809062e-22)
(-0.00082317316 0.0042943439 2.9855805e-21)
(-0.0010681917 0.0055398525 1.3148627e-21)
(-0.0013425869 0.0069180384 9.6983417e-22)
(-0.0016500328 0.0084421219 -1.9086003e-21)
(-0.001994553 0.010125753 9.8646119e-21)
(-0.0023805272 0.01198276 -7.4288771e-21)
(-0.0028126923 0.014026815 3.5859475e-22)
(-0.0032961336 0.016270987 4.4717192e-21)
(-0.0038362659 0.01872717 -1.6668656e-20)
(-0.0044388005 0.021405369 1.6539783e-20)
(-0.005109696 0.024312802 -2.1909268e-21)
(-0.0058550906 0.027452821 -1.3472047e-20)
(-0.0066812115 0.03082362 1.2569649e-20)
(-0.007594261 0.034416716 -4.3510655e-21)
(-0.0086002747 0.038215231 8.3633859e-21)
(-0.0097049521 0.042191973 -1.0598566e-20)
(-0.010913457 0.046307405 -1.9608956e-20)
(-0.012230185 0.050507589 1.9089557e-20)
(-0.013658505 0.054722303 2.7452322e-20)
(-0.015200455 0.058863583 -5.186803e-20)
(-0.016856421 0.062825115 4.0671925e-20)
(-0.018624792 0.066483079 -2.305797e-20)
(-0.020501651 0.069699416 5.7931821e-21)
(-0.022480647 0.072329012 -1.3351522e-20)
(-0.024553319 0.074233045 1.3295179e-20)
(-0.026710309 0.075301068 1.7461753e-20)
(-0.028943727 0.075482262 -1.1251958e-20)
(-0.031250024 0.074818011 -1.8100757e-20)
(-0.033631255 0.073454475 1.517319e-21)
(-0.036092785 0.071612636 5.9248601e-22)
(-0.038638457 0.069523932 1.0297067e-20)
(-0.041266595 0.067374221 -4.3048976e-21)
(-0.043968914 0.065287058 -1.5079993e-20)
(-0.046731741 0.063338283 -7.3526528e-21)
(-0.049538183 0.061578948 1.1013688e-20)
(-0.052370638 0.060053206 -8.539233e-21)
(-0.055213565 0.058808646 7.2497384e-21)
(-0.058056393 0.057901355 -2.3367689e-21)
(-0.060900812 0.057394577 -9.2995891e-21)
(-0.063759951 0.057344747 2.2788037e-20)
(-0.066666849 0.057793114 1.3672535e-20)
(-0.069686277 0.058760727 9.204422e-21)
(-0.072915167 0.06021765 -2.9789128e-20)
(-0.076491775 0.062043633 -1.9816078e-20)
(-0.080590729 0.063969508 -2.3840991e-20)
(-0.085424793 0.065466065 -4.2866146e-20)
(-0.091197117 0.065500959 1.5828182e-20)
(-0.097918768 0.062108249 -3.2701585e-21)
(-0.10530834 0.051809412 -2.8103789e-20)
(-0.11214936 0.027942795 -8.7489025e-20)
(-0.11382902 -0.021397727 -6.1807198e-20)
(-0.097363055 -0.11345149 -2.5473567e-20)
(-0.032372899 -0.25396715 -6.9624724e-20)
(0.086170426 -0.39836188 3.9921459e-20)
(0.18139182 -0.4714459 -1.679225e-21)
(0.19859116 -0.45527072 -2.1460013e-20)
(0.17135074 -0.34308651 -7.0053074e-21)
(0.16999845 -0.1364359 -1.0141051e-21)
(0.24656331 0.11988033 -9.9507806e-21)
(0.37866298 0.3012055 1.6166839e-21)
(0.60775661 0.31431904 4.0945467e-22)
(-9.1507338e-05 0.00041622425 3.1789768e-21)
(-0.00028393065 0.0012877254 -2.142845e-21)
(-0.00049767848 0.0022503012 2.8932606e-21)
(-0.00073548849 0.0033144424 1.6434804e-21)
(-0.001000362 0.0044915021 -4.5830211e-21)
(-0.0012956222 0.0057936465 -4.2746022e-21)
(-0.0016249152 0.0072337856 4.3816008e-21)
(-0.0019922071 0.0088254565 -5.2669545e-22)
(-0.0024017859 0.010582648 -1.2172484e-22)
(-0.0028582529 0.012519556 -8.6357404e-21)
(-0.003366503 0.014650249 9.4449917e-22)
(-0.0039316918 0.01698823 1.7320309e-20)
(-0.0045591877 0.01954587 -1.3798871e-20)
(-0.0052545035 0.022333695 4.7345386e-22)
(-0.0060232072 0.025359495 9.1603166e-21)
(-0.0068708069 0.028627241 7.8294468e-22)
(-0.0078026089 0.032135781 -1.9769703e-21)
(-0.0088235459 0.03587731 -8.8292416e-21)
(-0.0099379754 0.039835603 1.60086e-20)
(-0.011149449 0.043984045 -2.7808674e-20)
(-0.012460455 0.048283499 5.9136695e-21)
(-0.013872143 0.052680109 -4.2774949e-21)
(-0.015384025 0.057103226 3.4522149e-21)
(-0.016993688 0.061463683 -1.4591682e-22)
(-0.018696504 0.065652859 1.9712647e-20)
(-0.020485405 0.069543125 1.9237946e-20)
(-0.022350777 0.072990663 -3.7295663e-20)
(-0.024280661 0.075842205 -6.0758619e-21)
(-0.026261585 0.077948054 2.0662875e-20)
(-0.028280492 0.079184251 7.1494288e-21)
(-0.030328019 0.079484952 1.5873517e-20)
(-0.032402223 0.078878141 -1.7364449e-20)
(-0.034510031 0.077503454 -7.3609782e-21)
(-0.036663759 0.075586656 1.6416698e-20)
(-0.038873937 0.073374102 -6.5995872e-21)
(-0.041143169 0.071069972 -3.1211115e-21)
(-0.043464174 0.068813204 8.5311559e-21)
(-0.045821257 0.066690061 2.1774905e-20)
(-0.048192968 0.06475836 6.5270946e-21)
(-0.05055479 0.063067551 -4.2686419e-21)
(-0.052881602 0.061671004 -1.004463e-20)
(-0.055150054 0.060632603 -1.0472123e-20)
(-0.057343543 0.060026252 -1.1729912e-20)
(-0.059450204 0.059922181 -2.4925889e-20)
(-0.061468777 0.060380723 7.1240675e-22)
(-0.063415596 0.061446521 -1.0816941e-20)
(-0.065317953 0.063118842 6.148966e-20)
(-0.067214575 0.06531385 1.742103e-20)
(-0.06913434 0.067808047 2.0414667e-20)
(-0.071074013 0.07012749 5.8563425e-20)
(-0.072898697 0.071289452 -7.1519206e-20)
(-0.074056165 0.069397759 1.6780063e-20)
(-0.073492808 0.060967141 5.6674716e-20)
(-0.068507501 0.039010747 7.3429558e-20)
(-0.051666739 -0.01005689 9.2198551e-21)
(-0.0035449282 -0.10729552 -2.824837e-20)
(0.11407805 -0.25655386 -4.2043745e-20)
(0.27865923 -0.39742394 1.474522e-20)
(0.38739663 -0.44780205 -1.3114334e-20)
(0.38953828 -0.41317682 5.2137222e-21)
(0.32411589 -0.31175691 -4.1292385e-22)
(0.28942612 -0.13516064 -3.60307e-21)
(0.34026397 0.091617454 1.3262531e-20)
(0.47365341 0.25300159 6.2873132e-22)
(0.72446256 0.25760105 -3.6084738e-21)
(-0.0001085858 0.00042983086 -2.9996973e-21)
(-0.00033668713 0.0013302157 -8.0297121e-22)
(-0.00058964505 0.0023249677 8.8181377e-22)
(-0.00087049028 0.003424743 4.331269e-21)
(-0.0011825311 0.0046410683 -5.1901382e-21)
(-0.0015293957 0.005986295 4.4025434e-21)
(-0.0019150275 0.0074735347 2.1013892e-21)
(-0.0023436748 0.0091165475 -1.1251118e-22)
(-0.0028198797 0.010929574 -1.7675169e-21)
(-0.0033484533 0.012927096 -1.0026743e-20)
(-0.0039344367 0.01512352 1.6783344e-20)
(-0.0045830447 0.017532741 -2.0089307e-20)
(-0.0052995884 0.0201676 5.8720996e-21)
(-0.0060893732 0.023039177 7.9255938e-21)
(-0.0069575693 0.02615592 -1.2074058e-20)
(-0.0079090509 0.029522572 2.3612146e-20)
(-0.0089482017 0.033138872 -2.8353894e-20)
(-0.010078685 0.036998027 -4.4234585e-22)
(-0.011303182 0.041084919 -1.5881771e-20)
(-0.012623093 0.045374098 6.2173456e-20)
(-0.014038223 0.04982756 -1.4827954e-20)
(-0.015546444 0.054392434 -6.0357956e-20)
(-0.017143364 0.058998703 2.8027521e-20)
(-0.018822015 0.063557218 3.2826903e-20)
(-0.020572603 0.0679584 -8.0924864e-21)
(-0.022382361 0.072072235 -4.1567461e-20)
(-0.024235632 0.075750548 6.1704964e-20)
(-0.026114367 0.07883313 -6.7078509e-20)
(-0.027999442 0.081160155 5.1716879e-20)
(-0.02987327 0.082593977 -9.6852109e-21)
(-0.031724008 0.083052056 1.6250946e-20)
(-0.033550275 0.082545359 2.2544779e-20)
(-0.035363058 0.081201893 -8.5402929e-21)
(-0.037181388 0.079247455 -2.0869633e-21)
(-0.039022907 0.076940893 -2.9595081e-20)
(-0.04089516 0.074504816 5.4438412e-21)
(-0.042792289 0.072094835 -1.3728229e-20)
(-0.044696497 0.069808763 1.1432898e-20)
(-0.046581193 0.067711588 -6.44738e-21)
(-0.048413878 0.065857764 -4.2573172e-21)
(-0.05015823 0.06430559 -3.6926405e-21)
(-0.051775879 0.063125307 -3.5941502e-21)
(-0.05322812 0.062399827 2.2251625e-20)
(-0.054473408 0.062211288 1.7984793e-20)
(-0.055468589 0.062636584 -5.1242002e-21)
(-0.056169673 0.063740301 3.4577494e-21)
(-0.056515811 0.065546119 -1.4013282e-20)
(-0.056417163 0.068000183 2.9387295e-20)
(-0.055709288 0.070915058 3.5427358e-20)
(-0.054093784 0.073856837 1.0864226e-20)
(-0.050955465 0.075869387 2.8339297e-20)
(-0.044935362 0.075070972 -8.9180562e-22)
(-0.034120607 0.067972061 -1.4510076e-20)
(-0.013395579 0.047054047 -8.0878143e-20)
(0.028599122 -0.0033964794 4.2473117e-20)
(0.12185933 -0.10844695 -1.9622312e-20)
(0.30034385 -0.26347911 4.8055726e-20)
(0.49201894 -0.39531588 -6.0724769e-20)
(0.59645573 -0.42090854 2.2297214e-20)
(0.5973549 -0.35594611 -1.58392e-21)
(0.51405074 -0.25299608 -4.2314877e-23)
(0.44227841 -0.11063556 6.7867541e-22)
(0.46322484 0.076738614 7.3333184e-21)
(0.59373206 0.21010045 -5.1826943e-21)
(0.85500257 0.20667969 -4.6960823e-21)
(-0.0001256469 0.00043852682 6.7323653e-21)
(-0.00038941014 0.001357539 4.628644e-21)
(-0.00068157136 0.002373184 -7.2630953e-21)
(-0.0010054428 0.0034961888 1.9107602e-22)
(-0.0013646274 0.0047381536 6.5586565e-21)
(-0.0017630442 0.0061115137 3.4265267e-21)
(-0.0022049197 0.00762948 -7.2149107e-21)
(-0.0026947697 0.0093059354 1.1831459e-21)
(-0.0032373759 0.011155277 -1.665794e-20)
(-0.0038377461 0.01319219 3.2406979e-21)
(-0.0045010572 0.015431346 8.306025e-23)
(-0.0052325759 0.01788699 -1.1861381e-20)
(-0.0060375544 0.020572412 3.7885795e-20)
(-0.006921096 0.023499274 -1.7584457e-20)
(-0.0078879872 0.02667676 -3.1356847e-20)
(-0.0089424924 0.030110531 3.3228517e-20)
(-0.010088109 0.033801448 -4.0660795e-21)
(-0.01132728 0.03774406 2.2902215e-20)
(-0.012661068 0.041924812 1.6856674e-20)
(-0.014088795 0.046320011 -5.2480767e-20)
(-0.015607654 0.050893548 3.8939295e-20)
(-0.01721231 0.055594466 -5.0598065e-20)
(-0.018894516 0.060354504 5.8583425e-21)
(-0.020642769 0.065085838 -2.3582351e-20)
(-0.022442059 0.069679408 5.042784e-20)
(-0.02427379 0.074004415 -1.1753423e-20)
(-0.026115997 0.077909959 -2.9159174e-20)
(-0.027944117 0.081230393 6.9195636e-20)
(-0.029732705 0.083796851 -2.949045e-20)
(-0.031458709 0.085458224 -3.1162993e-20)
(-0.033106607 0.086113976 2.5202408e-20)
(-0.03467418 0.085754441 3.3149993e-21)
(-0.036175152 0.08449023 -1.6061206e-20)
(-0.037634569 0.082541481 8.6046806e-21)
(-0.039077428 0.080176149 -1.2768441e-20)
(-0.040516997 0.07763484 4.3387705e-20)
(-0.041949466 0.075091122 -2.2149766e-20)
(-0.043355051 0.072655683 -1.2984473e-20)
(-0.044701565 0.070401249 -2.626466e-20)
(-0.045947537 0.068386965 -3.6035178e-21)
(-0.047043885 0.066675004 2.7498323e-20)
(-0.047934819 0.065340135 -1.1159923e-20)
(-0.048556087 0.06447172 -1.6577644e-20)
(-0.048831305 0.06416156 -2.472714e-21)
(-0.0486677 0.06449914 1.7026325e-20)
(-0.047948253 0.065563429 1.5361132e-20)
(-0.046504201 0.06739501 -4.7826219e-20)
(-0.044085658 0.069959103 -2.5967303e-20)
(-0.040281342 0.073087878 -5.8057151e-20)
(-0.034408538 0.0763576 -2.0993933e-20)
(-0.02525683 0.078763954 -8.5360474e-21)
(-0.010603034 0.078574181 -6.7013245e-20)
(0.01307085 0.071931356 -2.8063501e-20)
(0.053390721 0.050621065 9.8680794e-20)
(0.12800737 -0.0044368818 -8.4785917e-20)
(0.27835463 -0.11819203 7.8189483e-20)
(0.50803293 -0.27245223 -3.3962252e-20)
(0.69715131 -0.39097811 1.2098087e-19)
(0.7706501 -0.39530427 3.3396817e-20)
(0.75800774 -0.30841451 -3.7315548e-21)
(0.69738634 -0.1848881 3.5078556e-21)
(0.62070392 -0.060739672 1.1548489e-20)
(0.61868423 0.083677397 2.1763676e-21)
(0.74265678 0.17897426 9.4463688e-22)
(0.99350342 0.16505923 5.6538092e-21)
(-0.00014217325 0.00044199434 1.2262201e-22)
(-0.00044050381 0.0013687009 -8.7233907e-21)
(-0.0007706799 0.0023932004 1.027859e-20)
(-0.0011362768 0.0035261925 4.9431754e-21)
(-0.0015411724 0.0047792478 -9.8930394e-21)
(-0.0019895565 0.0061647798 -3.2011965e-21)
(-0.0024859183 0.0076959923 1.5506893e-20)
(-0.0030350213 0.0093867856 -1.6662692e-20)
(-0.0036418691 0.011251613 -3.5085975e-21)
(-0.0043116521 0.013305271 -1.3925791e-20)
(-0.0050496736 0.01556262 3.6878619e-20)
(-0.0058612504 0.018038194 4.4707777e-22)
(-0.0067515833 0.020745709 -3.2872861e-20)
(-0.0077255934 0.023697418 3.5114175e-20)
(-0.0087877188 0.026903301 -2.4988822e-20)
(-0.0099416678 0.030370063 -9.2013411e-21)
(-0.011190126 0.034099897 1.9067771e-20)
(-0.012534412 0.038089001 -1.7043068e-20)
(-0.013974096 0.042325812 -2.2450203e-20)
(-0.01550656 0.04678897 4.7126014e-22)
(-0.017126547 0.051444998 3.4497814e-20)
(-0.018825688 0.056245786 -2.1022361e-20)
(-0.020592043 0.061125965 1.1535706e-20)
(-0.022409711 0.06600039 5.4815608e-20)
(-0.024258551 0.070762081 1.8030207e-20)
(-0.026114125 0.075281189 -4.810079e-20)
(-0.027948007 0.079405919 4.7276688e-21)
(-0.029728753 0.082966963 -5.2488191e-20)
(-0.03142394 0.08578786 3.0545137e-20)
(-0.033003982 0.087704803 -1.5893198e-20)
(-0.03444874 0.088598946 2.2663305e-20)
(-0.03575317 0.088436554 5.4433503e-21)
(-0.036931975 0.087304347 -2.6674925e-20)
(-0.038014394 0.08541068 2.6835288e-20)
(-0.039032796 0.083027822 3.8455524e-20)
(-0.040007187 0.080412918 -3.5262087e-21)
(-0.040936719 0.077758542 -3.9251083e-20)
(-0.041799971 0.075189796 4.915882e-20)
(-0.042558874 0.072787958 -1.041252e-20)
(-0.043162087 0.070616608 2.2172329e-20)
(-0.043546265 0.068740561 -3.4721336e-21)
(-0.043635632 0.067236932 3.4907291e-20)
(-0.043337407 0.066198464 1.6939115e-20)
(-0.042534813 0.065723241 2.1753695e-20)
(-0.04107711 0.065907986 -8.9797685e-20)
(-0.038761079 0.066838759 -3.030939e-20)
(-0.035289093 0.068562299 4.120289e-20)
(-0.030218533 0.071047216 -3.4685381e-20)
(-0.022837364 0.074117274 -3.0066745e-20)
(-0.012043987 0.077330828 3.4864564e-20)
(0.0040630137 0.079624944 1.8904453e-20)
(0.029084561 0.07914464 4.6397825e-20)
(0.068523472 0.071971245 2.434144e-20)
(0.1323525 0.048065588 -8.541746e-20)
(0.24925936 -0.014545507 -5.0512172e-20)
(0.46189674 -0.13452718 -8.1830968e-21)