/*--------------------------------*- C++ -*----------------------------------*\
  =========                 |
  \\      /  F ield         | OpenFOAM: The Open Source CFD Toolbox
   \\    /   O peration     | Website:  https://openfoam.org
    \\  /    A nd           | Version:  13
     \\/     M anipulation  |
\*---------------------------------------------------------------------------*/
FoamFile
{
    format      ascii;
    class       volScalarField;
    location    "10.298346";
    object      yPlus;
}
// * * * * * * * * * * * * * * * * * * * * * * * * * * * * * * * * * * * * * //

dimensions      [];

internalField   uniform 0;

boundaryField
{
    inlet
    {
        type            calculated;
        value           uniform 0;
    }
    outlet
    {
        type            calculated;
        value           uniform 0;
    }
    cylinder
    {
        type            calculated;
        value           nonuniform List<scalar> 
132
(
2.7143921e-07
2.6990433e-07
2.6645511e-07
2.6100646e-07
2.5354133e-07
2.4409347e-07
2.3274993e-07
2.1965167e-07
2.0499811e-07
1.8903905e-07
1.7207376e-07
1.5444674e-07
1.3654216e-07
1.187724e-07
1.0155703e-07
8.5299268e-08
7.0353222e-08
5.6994399e-08
4.5390566e-08
3.5592881e-08
2.7543479e-08
2.1107396e-08
1.6143216e-08
1.2552745e-08
1.0301506e-08
9.2323298e-09
8.8860258e-09
8.5695684e-09
7.7308918e-09
6.3750203e-09
4.854531e-09
3.5659925e-09
2.825353e-09
2.7760088e-09
3.208047e-09
3.9493835e-09
4.9222136e-09
6.1485784e-09
7.6643441e-09
9.5123219e-09
1.1782477e-08
1.4576463e-08
1.767105e-08
2.1022707e-08
2.454329e-08
2.8145075e-08
3.174808e-08
3.5288782e-08
3.8716909e-08
4.1998109e-08
4.5107128e-08
4.8031644e-08
5.0758544e-08
5.3281109e-08
5.5624639e-08
5.7757349e-08
5.9690868e-08
6.1430493e-08
6.2979831e-08
6.4338081e-08
6.5493907e-08
6.6461148e-08
6.7235082e-08
6.78234e-08
6.8226305e-08
6.8437039e-08
2.7103854e-07
2.6870544e-07
2.6446112e-07
2.5822551e-07
2.5000635e-07
2.3986483e-07
2.2788351e-07
2.1423907e-07
1.9914972e-07
1.8287715e-07
1.6572873e-07
1.4805556e-07
1.3024635e-07
1.1271228e-07
9.5865007e-08
8.0088712e-08
6.5711584e-08
5.2974161e-08
4.2004966e-08
3.2818994e-08
2.5329769e-08
1.9397879e-08
1.4891227e-08
1.1730222e-08
9.8621479e-09
9.0505388e-09
8.7426545e-09
8.2651648e-09
7.2551567e-09
5.8314593e-09
4.3719933e-09
3.2473283e-09
2.738101e-09
2.8659777e-09
3.4064902e-09
4.2171901e-09
5.2554626e-09
6.5558171e-09
8.1520563e-09
1.0087459e-08
1.2448031e-08
1.5330966e-08
1.8497267e-08
2.1900485e-08
2.544868e-08
2.9056582e-08
3.2648953e-08
3.6164099e-08
3.9557368e-08
4.2797456e-08
4.5861054e-08
4.8740116e-08
5.1417332e-08
5.3881755e-08
5.618619e-08
5.8262665e-08
6.0148931e-08
6.1837784e-08
6.3340524e-08
6.4649212e-08
6.5755692e-08
6.6673349e-08
6.7401143e-08
6.7940128e-08
6.8290556e-08
6.8454719e-08
)
;
    }
    frontAndBack
    {
        type            empty;
    }
}


// ************************************************************************* //
