/*--------------------------------*- C++ -*----------------------------------*\
  =========                 |
  \\      /  F ield         | OpenFOAM: The Open Source CFD Toolbox
   \\    /   O peration     | Website:  https://openfoam.org
    \\  /    A nd           | Version:  13
     \\/     M anipulation  |
\*---------------------------------------------------------------------------*/
FoamFile
{
    format      ascii;
    class       volScalarField;
    location    "46.599296";
    object      omega;
}
// * * * * * * * * * * * * * * * * * * * * * * * * * * * * * * * * * * * * * //

dimensions      [0 0 -1 0 0 0 0];

internalField   nonuniform List<scalar> 
17140
(
3736295.3
603677.93
185335.27
78621.663
40006.336
22786.782
13994.064
9063.8846
6105.5532
4237.5997
3010.6892
2179.2681
1601.48
1191.5808
895.76557
679.19433
518.69875
398.51723
307.71456
238.57382
185.56786
144.68626
112.98587
88.285337
68.954154
53.765057
41.789688
32.324221
24.835915
18.923897
14.288508
10.703941
7.9910047
5.9924088
4.5589205
3.5512193
2.8501396
2.3635717
2.0258105
1.7922808
1.6334992
1.5301083
1.4716976
1.4481035
1.4482974
1.473015
1.5194962
1.585774
1.6708963
1.7749634
1.899106
2.0445955
2.2103318
2.3953366
2.6063957
2.8516346
3.1266581
3.3979343
3.5602122
3.6124443
3.5496097
3.5335419
3.4413271
2.836024
2.468736
3736320.9
603682.55
185336.97
78622.534
40006.856
22787.123
13994.301
9064.0559
6105.6801
4237.6949
3010.7605
2179.3206
1601.5172
1191.6052
895.7789
679.1979
518.69357
398.50415
307.69434
238.5472
185.53564
144.64931
112.94523
88.242206
68.909874
53.721121
41.747666
32.285659
24.802179
18.89599
14.266894
10.688348
7.9805652
5.9859568
4.5552852
3.5494135
2.8494229
2.3634162
2.0258543
1.7922717
1.6332397
1.5294344
1.4705083
1.44644
1.4459051
1.4696795
1.5150669
1.5800052
1.6634051
1.7651614
1.8861004
2.0271733
2.1870674
2.3636459
2.5605327
2.7818321
3.0193562
3.2431433
3.3726033
3.4136084
3.3937628
3.5843376
3.4936369
2.8925934
2.2979299
3736345.9
603686.66
185338.24
78623.073
40007.13
22787.278
13994.395
9064.1148
6105.7178
4237.7188
3010.7748
2179.328
1601.5192
1191.6028
895.7728
679.18856
518.68131
398.48924
307.67704
238.52783
185.51457
144.62706
112.92245
88.219708
68.888622
53.70218
41.732116
32.274435
24.795858
18.894567
14.269605
10.693975
7.9876703
5.9932442
4.5619096
3.5550127
2.8539623
2.3669626
2.0285103
1.7941144
1.6343112
1.5297531
1.4700632
1.4453827
1.4441096
1.4669614
1.5113721
1.5751817
1.6571851
1.7571223
1.8756102
2.0133878
2.1690105
2.3396068
2.5265768
2.731381
2.9445693
3.1387052
3.2527845
3.29661
3.3876655
3.7049866
3.5540129
2.9532186
2.0825037
3736372.1
603690.93
185339.56
78623.636
40007.416
22787.441
13994.495
9064.1796
6105.7612
4237.7486
3010.7957
2179.3428
1601.5297
1191.6101
895.77776
679.19169
518.68303
398.48987
307.67691
238.52727
185.51399
144.62695
112.92339
88.222353
68.893722
53.710486
41.744288
32.290895
24.8166
18.918969
14.29635
10.72107
8.0129423
6.0150397
4.5795299
3.5686122
2.8642365
2.3746929
2.034229
1.7981868
1.6369952
1.5312334
1.4704882
1.4450584
1.4430428
1.4650956
1.5087119
1.5716831
1.6527186
1.7514579
1.8684112
2.0042299
2.1574207
2.3247092
2.5062861
2.7027777
2.9056157
3.0900896
3.2147114
3.2938769
3.5044257
3.7963079
3.6174098
2.9784134
1.8520343
3736400.1
603695.46
185340.96
78624.227
40007.716
22787.614
13994.603
9064.252
6105.8124
4237.7868
3010.8256
2179.3674
1601.551
1191.6294
895.79585
679.20924
518.70051
398.50769
307.69544
238.54688
185.53509
144.64999
112.94888
88.250881
68.925877
53.746818
41.785187
32.33641
24.866212
18.971353
14.349262
10.77156
8.0580476
6.0527183
4.609217
3.5913683
2.8813283
2.3873031
2.0433758
1.8046685
1.6414224
1.5340429
1.4719846
1.4456914
1.4429244
1.464283
1.5073507
1.5698522
1.6504402
1.748711
1.8651685
2.0005133
2.1533532
2.3204423
2.5017422
2.6992173
2.9072927
3.1008381
3.2409091
3.3641393
3.762204
3.8873631
3.676449
2.9161497
1.6145898
3736429.1
603700.15
185342.4
78624.838
40008.031
22787.796
13994.72
9064.3321
6105.8716
4237.8333
3010.8645
2179.4019
1601.5831
1191.6604
895.8269
679.24105
518.73368
398.54273
307.73278
238.58694
185.57828
144.69674
112.99964
88.306111
68.986004
53.812168
41.855847
32.412027
24.945732
19.052751
14.429432
10.846621
8.124228
6.1075101
4.6526076
3.624299
2.9056764
2.4050033
2.0561424
1.8138117
1.64787
1.5384565
1.4748409
1.4475801
1.4440947
1.4649523
1.507795
1.5703308
1.6512001
1.7500353
1.8674702
2.0044118
2.1596229
2.329977
2.5155179
2.7220591
2.9459124
3.1630238
3.3301406
3.5232701
3.9576074
3.9961492
3.7288051
2.7356491
1.3580904
3736459.3
603704.98
185343.87
78625.469
40008.358
22787.988
13994.843
9064.4187
6105.9371
4237.8866
3010.911
2179.4449
1601.6247
1191.7024
895.87026
679.28665
518.78219
398.59468
307.78865
238.64718
185.64329
144.76693
113.07539
88.387777
69.073871
53.906353
41.956153
32.517725
25.055266
19.16344
14.53736
10.946996
8.2124373
6.1809182
4.7103157
3.6678189
2.9376207
2.4282179
2.0729749
1.8260163
1.6567112
1.5448499
1.4794675
1.4511763
1.447152
1.4678262
1.5110076
1.5744101
1.6567404
1.7577891
1.8785001
2.0201217
2.1814326
2.3593189
2.5555989
2.7831993
3.0377185
3.2900337
3.4686241
3.7074908
4.1247487
4.136872
3.7667255
2.4356429
1.0758326
3736490.6
603709.98
185345.4
78626.125
40008.699
22788.189
13994.975
9064.5123
6106.0096
4237.9473
3010.9654
2179.4965
1601.676
1191.7549
895.92535
679.34524
518.84505
398.66247
307.86191
238.72639
185.7289
144.85933
113.17494
88.494746
69.188413
54.028402
42.085263
32.652827
25.194352
19.303237
14.673199
11.073227
8.3236775
6.2732534
4.7828578
3.7224812
2.9778736
2.4576009
2.0944346
1.8417864
1.6684279
1.5537242
1.4864354
1.4571055
1.4527864
1.4738676
1.5182791
1.5838543
1.6695163
1.7754386
1.9031931
2.0545133
2.2277823
2.4201102
2.6376036
2.899922
3.1875514
3.4511743
3.6229499
3.9121086
4.3567335
4.289858
3.7135103
1.9834814
0.83649484
3736522
603715.13
185346.99
78626.806
40009.052
22788.399
13995.113
9064.6124
6106.0884
4238.0145
3011.0268
2179.5558
1601.7358
1191.817
895.99107
679.41567
518.92106
398.74478
307.95116
238.82313
185.83361
144.97242
113.29675
88.625519
69.328211
54.177024
42.242066
32.816466
25.362428
19.471927
14.837071
11.225618
8.457979
6.3848997
4.870895
3.7892172
3.0273134
2.4939247
2.1212021
1.8617444
1.6836265
1.5657299
1.4965655
1.4660598
1.4620231
1.484451
1.5314891
1.6012998
1.6933073
1.8084966
1.9496284
2.1188191
2.3132881
2.5325825
2.7900605
3.0991755
3.4152865
3.6754091
3.8690384
4.2805204
4.7012759
4.427597
3.2695646
1.4935101
0.63670017
3736555.2
603720.5
185348.64
78627.514
40009.419
22788.618
13995.258
9064.7186
6106.1729
4238.0874
3011.0942
2179.6217
1601.8028
1191.8871
896.06577
679.49611
519.0082
398.83943
308.05402
238.93481
185.95462
145.10318
113.43758
88.776591
69.489494
54.34817
42.422246
33.004102
25.554848
19.664986
15.024939
11.401102
8.6137643
6.5157027
4.9751279
3.8689919
3.08691
2.5380819
2.1540867
1.8866447
1.7030424
1.5815904
1.5105221
1.4794828
1.4763369
1.5015321
1.5533668
1.6306791
1.7339267
1.8657078
2.0307162
2.2301425
2.4604496
2.7293656
3.0602286
3.4363107
3.7888111
4.0744427
4.3624116
4.9648583
5.114004
4.499544
2.4376558
0.98781817
0.4742943
3736589.7
603726.07
185350.36
78628.249
40009.802
22788.846
13995.41
9064.83
6106.2623
4238.1652
3011.1666
2179.6929
1601.8757
1191.9637
896.14767
679.58457
519.10427
398.94401
308.16787
239.05857
186.08886
145.24833
113.59396
88.94433
69.668512
54.538048
42.622059
33.212169
25.768373
19.87967
15.234711
11.598363
8.7905819
6.6659139
5.0962989
3.9627886
3.1577095
2.5910818
2.194039
1.9174024
1.7276021
1.6023143
1.5296219
1.4988967
1.4977707
1.5279063
1.5879096
1.6779269
1.800457
1.9610765
2.1661361
2.4133357
2.7058042
3.0664646
3.5210458
4.0234183
4.4795937
4.8800334
5.4190112
5.8063091
5.3561837
3.6919234
1.4580294
0.62029053
0.3578926
3736625.1
603731.8
185352.13
78629.009
40010.199
22789.083
13995.568
9064.946
6106.3555
4238.2465
3011.2427
2179.768
1601.9527
1192.0449
896.23462
679.6787
519.20669
399.05569
308.28964
239.19115
186.23285
145.40421
113.76206
89.124803
69.861266
54.742647
42.837557
33.436865
25.999465
20.112838
15.463807
11.815549
8.9873805
6.835286
5.2348315
4.0714688
3.2407716
2.6540328
2.2421639
1.9551356
1.7585013
1.6293134
1.5556664
1.5262352
1.529238
1.5676333
1.6410912
1.7522263
1.9075174
2.1166657
2.383384
2.708606
3.1185478
3.6547314
4.3421024
5.1347152
5.8234713
6.4810238
6.6218306
6.2217065
4.8416076
1.9622619
0.8040237
0.4208004
0.28685462
3736662.3
603737.8
185353.98
78629.799
40010.61
22789.328
13995.732
9065.0661
6106.4519
4238.3304
3011.321
2179.8452
1602.032
1192.1285
896.32424
679.7758
519.31249
399.17121
308.41579
239.32871
186.38247
145.56643
113.93725
89.313165
70.062748
54.956853
43.063601
33.673127
26.243254
20.359981
15.708282
12.0495
9.2019881
7.0227202
5.3905962
4.1956052
3.3370719
2.7281005
2.2997213
2.0011944
1.7972306
1.6645022
1.5910288
1.5643417
1.5749285
1.6267756
1.7221233
1.8683031
2.0790051
2.3631468
2.724718
3.1975384
3.8462884
4.7345825
5.8793227
7.2000131
7.8058409
7.5701833
6.9887061
5.3993357
2.3229737
0.99907152
0.49613784
0.3290564
0.24682644
3736699.8
603743.92
185355.87
78630.611
40011.035
22789.581
13995.899
9065.1887
6106.5498
4238.4153
3011.3999
2179.9227
1602.1113
1192.212
896.4138
679.87288
519.41834
399.28692
308.54232
239.46689
186.53303
145.72996
114.1142
89.503802
70.267105
55.17464
43.294061
33.914819
26.493732
20.615383
15.962927
12.29578
9.431013
7.2260592
5.5626632
4.3352694
3.4473581
2.8144357
2.3681166
2.0572043
1.8456808
1.7104114
1.6389564
1.6176372
1.6410776
1.7147394
1.8458058
2.0506263
2.3495821
2.743694
3.2793691
4.0556733
5.1840444
6.7121873
8.4587647
8.8515714
8.5425617
7.525272
5.2042665
2.3963133
1.111101
0.57870567
0.35892117
0.27832341
0.21045843
3736738.4
603750.23
185357.82
78631.453
40011.473
22789.841
13996.071
9065.3133
6106.6483
4238.4998
3011.4777
2179.9986
1602.1886
1192.293
896.5005
679.96677
519.52072
399.39892
308.66494
239.60102
186.67944
145.88932
114.28705
89.690498
70.467804
55.389207
43.521944
34.15485
26.743834
20.872166
16.221269
12.548601
9.6696809
7.4418416
5.7490141
4.4897637
3.5719521
2.9140724
2.4489063
2.1252093
1.9065063
1.7704664
1.7041621
1.6927946
1.7375719
1.8468932
2.0371488
2.3395689
2.7651558
3.3522634
4.2456626
5.6237038
7.5764165
9.4589062
9.7491918
9.2744178
7.7722279
4.6057716
2.2440189
1.1208493
0.62176752
0.39929748
0.29604443
0.237013
0.18855496
3736780.4
603756.99
185359.88
78632.33
40011.926
22790.109
13996.247
9065.439
6106.7464
4238.5826
3011.5528
2180.0709
1602.2614
1192.3689
896.58133
680.0541
519.61587
399.50305
308.77906
239.72606
186.81624
146.0386
114.44943
89.86647
70.657673
55.59304
43.739455
34.385231
26.985482
21.122317
16.47556
12.800758
9.9116947
7.6650696
5.9462403
4.6573107
3.7105023
3.0277919
2.543798
2.2078193
1.9834293
1.8499159
1.7934606
1.8006065
1.8809455
2.0499121
2.3410177
2.7957264
3.4254736
4.4097994
6.0103542
8.4064111
10.334088
10.511302
9.8878291
7.9270798
4.1344964
2.0781388
1.0971211
0.64019864
0.42427501
0.31964563
0.2525198
0.21240899
0.1714433
3736824.8
603764.01
185362.01
78633.241
40012.396
22790.384
13996.425
9065.5649
6106.8427
4238.6622
3011.6234
2180.1376
1602.3276
1192.437
896.65337
680.13158
519.70009
399.59516
308.88009
239.83695
186.93785
146.17173
114.59478
90.02465
70.829169
55.778155
43.938226
34.597276
27.209772
21.356837
16.716889
13.04369
10.149209
7.8890788
6.1493074
4.8347628
3.8617263
3.1559832
2.6546877
2.3084658
2.0820484
1.9571121
1.9175177
1.9595262
2.1005672
2.3732116
2.8405658
3.528145
4.575006
6.3568311
9.1414015
11.105916
11.218583
10.47516
8.137579
3.9626633
2.0121513
1.0961615
0.65950501
0.44472165
0.3358613
0.27020008
0.22091589
0.18666864
0.15038082
3736869.6
603771.18
185364.22
78634.181
40012.878
22790.665
13996.605
9065.6896
6106.9358
4238.7369
3011.6877
2180.1965
1602.3846
1192.4947
896.71352
680.19573
519.7695
399.67093
308.96324
239.9284
187.03848
146.28238
114.71623
90.157645
70.974376
55.93614
44.10938
34.781703
27.407092
21.565888
16.935338
13.267623
10.372942
8.1055711
6.3514812
5.0174446
4.0232575
3.2986119
2.783845
2.4317897
2.2109044
2.1045071
2.097345
2.202277
2.4517107
2.9131037
3.6662795
4.7902078
6.7084281
9.8186337
11.8543
11.920021
11.097655
8.5087112
4.1022085
2.0658484
1.1350062
0.69337366
0.47265097
0.35536689
0.28312431
0.23107196
0.19399161
0.16854099
0.1395598
3736913.9
603778.5
185366.48
78635.141
40013.372
22790.951
13996.786
9065.812
6107.0246
4238.8054
3011.744
2180.2458
1602.4304
1192.5394
896.75892
680.24329
519.82042
399.72626
309.02392
239.99533
187.11252
146.36438
114.80706
90.258156
71.085431
56.058579
44.243984
34.9291
27.567605
21.739287
17.120486
13.462076
10.572653
8.3050374
6.5446529
5.1993822
4.191883
3.4556899
2.9350318
2.5864806
2.3846266
2.3129922
2.3712864
2.5921702
3.0435973
3.8440096
5.0684719
7.1127542
10.480434
12.61168
12.650267
11.790537
9.0673724
4.3690125
2.1985562
1.2095988
0.74465235
0.51013832
0.38333241
0.29856412
0.23916076
0.20507721
0.17339115
0.15045626
0.12681172
3736961
603786.15
185368.83
78636.14
40013.882
22791.244
13996.967
9065.9321
6107.1081
4238.8665
3011.7909
2180.2837
1602.4628
1192.5686
896.78676
680.27109
519.84929
399.75714
309.05767
240.03278
187.1545
146.41174
114.86069
90.319037
71.154606
56.13718
44.333202
35.030135
27.681544
21.866902
17.261928
13.616501
10.737891
8.477589
6.7202421
5.3742603
4.3645878
3.6285478
3.1150437
2.787719
2.6280913
2.6267943
2.8130076
3.256192
4.0912102
5.4251888
7.5915823
11.159887
13.401855
13.426373
12.554987
9.7757998
4.7432841
2.3923965
1.316555
0.81129494
0.55943677
0.41766949
0.31831301
0.25229648
0.21058665
0.17941906
0.15679395
0.13818937
0.11625376
3737011.6
603794.21
185371.29
78637.178
40014.409
22791.542
13997.149
9066.0487
6107.1852
4238.9185
3011.8265
2180.3081
1602.4793
1192.5796
896.79394
680.27564
519.85218
399.75917
309.05959
240.03531
187.15838
146.41779
114.86983
90.332345
71.173343
56.162828
44.367482
35.07498
27.738998
21.938827
17.349787
13.721197
10.859406
8.6147639
6.8713035
5.5377909
4.5413682
3.8236696
3.3401749
3.0656118
2.9896369
3.1346234
3.5708604
4.4448974
5.8995904
8.1862841
11.899505
14.236915
14.261487
13.388941
10.582073
5.2283815
2.6470986
1.4550834
0.8963864
0.6177432
0.454773
0.34088164
0.26876569
0.22072171
0.18643717
0.1618914
0.14099074
0.1270239
0.1102545
3737062.3
603802.41
185373.81
78638.245
40014.948
22791.845
13997.33
9066.1604
6107.2547
4238.9605
3011.8495
2180.3174
1602.4784
1192.5708
896.77858
680.2549
519.8269
399.73006
309.02728
240.00045
187.12166
146.38001
114.83195
90.295484
71.138878
56.132399
44.343047
35.058861
27.733961
21.948294
17.377586
13.770727
10.932685
8.7133506
6.9966603
5.6925136
4.731119
4.0601699
3.6469767
3.4792127
3.5769513
4.0080903
4.9357874
6.5300518
8.937553
12.733191
15.133106
15.157964
14.284652
11.462869
5.8215825
2.9742039
1.6304831
1.0001293
0.68386387
0.49546752
0.36925377
0.29102777
0.23672981
0.19659162
0.16750396
0.14724155
0.13015431
0.11581365
0.10156955
3737113.2
603810.77
185376.39
78639.338
40015.499
22792.151
13997.51
9066.267
6107.3159
4238.9914
3011.8589
2180.3107
1602.4589
1192.5405
896.73907
680.20713
519.77159
399.66782
308.95867
239.92607
187.04223
146.29641
114.74529
90.207165
71.050647
56.046413
44.261918
34.985693
27.672344
21.902203
17.351432
13.769666
10.963231
8.7808433
7.1077785
5.8567156
4.9635803
4.3875882
4.1126363
4.1598166
4.5908381
5.5825404
7.3283302
9.8644309
13.677549
16.107703
16.117713
15.239303
12.404541
6.5010032
3.3520396
1.8254844
1.1091557
0.75183305
0.53920599
0.40284028
0.31826568
0.25597645
0.20910387
0.17604056
0.15315847
0.13431365
0.11996509
0.10990015
0.097148628
3737167.7
603819.6
185379.09
78640.473
40016.068
22792.464
13997.689
9066.3693
6107.3695
4239.0119
3011.8554
2180.2885
1602.4213
1192.4897
896.67638
680.13346
519.68762
399.57408
308.85571
239.8145
186.92282
146.17018
114.61356
90.071673
70.913586
55.910542
44.130636
34.863111
27.563341
21.812457
17.287437
13.738751
10.973498
8.8445004
7.2402514
6.0796848
5.3107912
4.9118837
4.9041266
5.3426563
6.4075528
8.2999281
10.973963
14.739875
17.174685
17.152983
16.260126
13.394908
7.2551209
3.7759249
2.0438721
1.2339994
0.83306145
0.59552255
0.44645807
0.35111726
0.27843785
0.22477175
0.18805257
0.16049369
0.13992884
0.12563714
0.11254954
0.10259728
0.092822242
3737225.4
603828.81
185381.91
78641.655
40016.657
22792.785
13997.87
9066.4689
6107.4175
4239.0243
3011.8415
2180.2539
1602.3693
1192.4225
896.59532
680.03944
519.58129
399.45603
308.72653
239.67491
186.77377
146.01292
114.44975
89.903471
70.743777
55.742634
43.968987
34.713055
27.43132
21.706164
17.216009
13.712936
11.008732
8.9625531
7.4707444
6.4658948
5.9179165
5.8436904
6.2939735
7.4425195
9.4666657
12.275254
15.950238
18.349672
18.278382
17.354677
14.420083
8.0752921
4.2467203
2.2918438
1.3766569
0.92769338
0.66239291
0.49631274
0.38605539
0.30270047
0.24408117
0.20280618
0.17070451
0.14764698
0.13074302
0.11668485
0.10629455
0.0976917
0.08868123
3737283.9
603838.24
185384.81
78642.877
40017.263
22793.115
13998.055
9066.5696
6107.4643
4239.0339
3011.8235
2180.214
1602.3112
1192.3483
896.50644
679.93694
519.46596
399.32859
308.58777
239.52581
186.61559
145.8473
114.27885
89.730077
70.571442
55.575829
43.81328
34.575326
27.320011
21.631446
17.191465
13.759402
11.154493
9.2444554
7.9419402
7.2044189
7.0406408
7.4903926
8.7066552
10.854577
13.795194
17.362263
19.687514
19.512783
18.532285
15.466363
8.9514118
4.7647227
2.5694781
1.5387172
1.0348505
0.73762832
0.54854971
0.42158427
0.32896969
0.26670371
0.2202619
0.18357837
0.1572253
0.13689344
0.12186977
0.11028919
0.10056451
0.093960108
0.086683496
3737344.3
603848.04
185387.8
78644.141
40017.894
22793.459
13998.25
9066.677
6107.5167
4239.0487
3011.8107
2180.1796
1602.259
1192.2809
896.42549
679.84373
519.36158
399.21411
308.46437
239.39492
186.479
145.70729
114.13833
89.592723
70.441883
55.459813
43.717818
34.509657
27.296805
21.669082
17.315081
14.001326
11.558351
9.8727737
8.8843802
8.5886083
9.0088473
10.26036
12.503435
15.550781
19.001995
21.235017
20.921745
19.797672
16.515501
9.8710231
5.3290059
2.8825138
1.7200965
1.1523424
0.81864283
0.60761496
0.46494867
0.36420009
0.29562168
0.24195917
0.19970595
0.16886909
0.14520813
0.12811657
0.11504673
0.10512079
0.097102318
0.090156193
0.083819016
3737407.1
603858.19
185390.93
78645.454
40018.551
22793.822
13998.459
9066.7987
6107.5834
4239.0787
3011.8146
2180.164
1602.2281
1192.2376
896.37201
679.7818
519.29279
399.14006
308.38687
239.31604
186.40128
145.63387
114.07315
89.540834
70.409829
55.456331
43.755018
34.603311
27.467515
21.943792
17.730629
14.609218
12.429095
11.104451
10.610766
10.952417
12.181638
14.470604
17.579904
20.899429
22.959539
22.556967
21.183432
17.556073
10.828209
5.9472982
3.2313943
1.917281
1.2775638
0.91126513
0.67714612
0.5167317
0.40284907
0.32505814
0.26324603
0.21679787
0.18200916
0.15547469
0.13584003
0.12089066
0.10943427
0.10000803
0.092896776
0.087681859
0.082229301
3737471.9
603868.67
185394.15
78646.82
40019.242
22794.21
13998.692
9066.9432
6107.6744
4239.1353
3011.8484
2180.1822
1602.2355
1192.2376
896.36757
679.77528
519.28652
399.13651
308.38878
239.32671
186.4247
145.67504
114.13837
89.638161
70.549607
55.651894
44.023528
34.967684
27.958797
22.6048
18.618562
15.801118
14.029435
13.249764
13.446835
14.571905
16.834071
19.926232
23.11338
24.888028
24.356803
22.6943
18.62418
11.846907
6.6309392
3.6126117
2.1264453
1.4185833
1.0193719
0.75779196
0.57372964
0.44613749
0.35687196
0.28831873
0.23757333
0.19908198
0.16851197
0.14556075
0.12793998
0.11440986
0.10424201
0.096729863
0.090251416
0.085365603
0.080873752
3737539.4
603879.61
185397.5
78648.245
40019.968
22794.626
13998.95
9067.1139
6107.7938
4239.2237
3011.9181
2180.2412
1602.2896
1192.2913
896.42446
679.83886
519.36033
399.22436
308.49504
239.4565
186.58424
145.87196
114.38223
89.941032
70.926986
56.123946
44.617027
35.718363
28.91404
23.826702
20.189316
17.827109
16.646381
16.61553
17.545031
19.684475
22.653193
25.682816
27.032629
26.327514
24.345161
19.736628
12.889467
7.3455682
4.002155
2.3522969
1.5789434
1.1422975
0.84336541
0.63720868
0.49459879
0.39426779
0.3173978
0.26291747
0.21899974
0.18404563
0.15685408
0.13635789
0.12074659
0.10954634
0.10041097
0.093295618
0.087932276
0.08340684
0.079466316
3737610.3
603891
185400.99
78649.733
40020.732
22795.07
13999.233
9067.31
6107.9406
4239.343
3012.0231
2180.3411
1602.3911
1192.3999
896.54505
679.97643
519.52007
399.41208
308.71743
239.72152
186.90151
146.25333
114.84249
90.498889
71.606416
56.956063
45.641908
36.987884
30.495122
25.804805
22.671094
20.939565
20.524889
21.211278
23.050295
25.868018
28.618589
29.390161
28.451209
26.074708
20.847167
13.908275
8.0776559
4.4181949
2.6089131
1.7634397
1.2744027
0.93824282
0.71008267
0.55347392
0.43737988
0.35193109
0.2896204
0.24008512
0.19987844
0.16979677
0.14618904
0.12886665
0.11544512
0.10483636
0.096849817
0.090476179
0.085479744
0.082035167
0.0787699
3737682.9
603902.72
185404.61
78651.277
40021.531
22795.542
13999.543
9067.5335
6108.1177
4239.4967
3012.1681
2180.4875
1602.5469
1192.5721
896.74036
680.20164
519.78266
399.72057
309.08181
240.15373
187.4161
146.86824
115.58017
91.387572
72.681693
58.262863
47.236973
38.942123
32.895846
28.755772
26.287188
25.330099
25.659551
26.982499
29.364477
31.844929
31.902463
30.697229
27.743107
22.023867
14.960417
8.8429826
4.8746063
2.8965503
1.9630091
1.4157703
1.0437869
0.79664178
0.6185429
0.48674065
0.38887271
0.31941372
0.26300954
0.22050101
0.18647675
0.15981161
0.13877109
0.12275549
0.11023866
0.10107373
0.09376159
0.088641246
0.084168193
0.08062376
0.077757897
3737758.4
603914.96
185408.37
78652.888
40022.375
22796.051
13999.89
9067.7972
6108.34
4239.7022
3012.373
2180.7037
1602.7842
1192.8392
897.04624
680.55567
520.19537
400.20413
309.65062
240.82513
188.21139
147.81344
116.70742
92.736734
74.30216
60.215303
49.594989
41.792463
36.335211
32.880687
31.172192
30.9909
31.748543
33.18573
35.042254
34.555684
32.994408
29.379973
23.241393
16.002701
9.5943011
5.3473149
3.2091414
2.17961
1.5706554
1.1663295
0.89385843
0.69254318
0.54141257
0.43414519
0.35333852
0.29156
0.24354779
0.20596891
0.17394219
0.14993342
0.13075819
0.11696928
0.10606503
0.098109119
0.091481446
0.08627219
0.082341378
0.079800737
0.077246245
3737836.4
603927.57
185412.26
78654.572
40023.273
22796.611
14000.291
9068.1215
6108.6316
4239.988
3012.6711
2181.0282
1603.1469
1193.2518
897.5203
681.10411
520.83278
400.94749
310.52012
241.84507
189.41108
149.22874
118.38195
94.723263
76.663619
63.023045
52.930446
45.7386
40.961667
38.216767
37.167904
37.374004
38.341843
38.544633
37.577523
35.336481
31.029299
24.483299
17.00749
10.339516
5.8697241
3.5747573
2.426782
1.7451747
1.3033526
1.0022749
0.77425481
0.60730935
0.48541211
0.39427997
0.32185099
0.26969833
0.22574811
0.19101749
0.16283867
0.14180411
0.12515158
0.11262708
0.10266563
0.09497825
0.089052089
0.085089906
0.081455934
0.078702978
0.076474848
3737916.9
603940.6
185416.3
78656.35
40024.25
22797.247
14000.771
9068.534
6109.0245
4240.3908
3013.1046
2181.5091
1603.6902
1193.872
898.23304
681.92661
521.78477
402.05211
311.80494
243.34323
191.16265
151.28226
120.79598
97.561917
79.985708
66.88069
57.390514
50.841097
46.689261
44.444469
43.642473
43.393205
42.464567
40.523166
37.677993
32.677976
25.687428
17.9415
11.097833
6.4635977
3.9931071
2.6943646
1.9304295
1.4528422
1.1224414
0.86980513
0.68339687
0.54586275
0.43846257
0.35876076
0.29750389
0.25017628
0.21059779
0.18057718
0.15475614
0.13556268
0.11969017
0.10839994
0.099139517
0.092931386
0.087535766
0.083304328
0.080104991
0.078124297
0.076163875
3738001.3
603954.27
185420.56
78658.245
40025.317
22797.973
14001.35
9069.0588
6109.5471
4240.9438
3013.7118
2182.1902
1604.4635
1194.7562
899.24816
683.09508
523.13256
403.60983
313.60915
245.4376
193.59795
154.11504
124.08333
101.35951
84.340057
71.818732
62.890811
56.854517
53.071194
50.758375
48.895251
46.592677
43.769481
40.024318
34.265416
26.828883
18.878252
11.949115
7.1669555
4.4698776
2.985661
2.1353721
1.6221091
1.2599052
0.97884529
0.77079233
0.61282095
0.49209298
0.40094719
0.33305133
0.27633535
0.23467418
0.19852286
0.16983554
0.14588419
0.12877873
0.11500784
0.10505357
0.096998716
0.090630023
0.085591606
0.0824621
0.079524879
0.077542893
0.075642232
3738088.5
603968.44
185425.01
78660.256
40026.484
22798.801
14002.044
9069.7159
6110.2226
4241.6735
3014.5228
2183.1056
1605.5054
1195.9472
900.61279
684.66093
524.93097
405.67653
315.98416
248.16475
196.72449
157.68955
128.15292
105.96264
89.502
77.499073
68.94795
62.94023
58.560284
54.830093
51.163643
47.354168
42.529497
35.980692
28.115203
19.993591
12.964397
7.9742989
4.9870418
3.2993683
2.3664781
1.8136158
1.4139863
1.1032326
0.87104024
0.69263682
0.55520717
0.45227189
0.37064753
0.30803518
0.25839233
0.22038594
0.18654071
0.16162862
0.14015309
0.12460065
0.11137992
0.10204501
0.09399452
0.089084515
0.084588335
0.081267288
0.078533193
0.076874403
0.075229602
3738178.6
603983.12
185429.64
78662.382
40027.751
22799.735
14002.855
9070.5083
6111.0539
4242.583
3015.5405
2184.2575
1606.8166
1197.4433
902.32104
686.61082
527.15458
408.2083
318.85996
251.41949
200.38719
161.77563
132.65267
110.82549
94.618865
82.709401
73.890908
67.108795
61.473845
56.42587
51.379508
45.333727
37.944165
29.618331
21.284944
14.090963
8.8391732
5.5488221
3.6670653
2.6458769
2.0338046
1.5854431
1.2431855
0.98558574
0.78370149
0.62847911
0.50928267
0.41649586
0.34409365
0.29020802
0.24372711
0.2090615
0.17798894
0.15409893
0.13345784
0.11934317
0.10747787
0.099335656
0.092663457
0.087314709
0.083043622
0.080468164
0.078030179
0.076590469
0.075023121
3738271.2
603998.29
185434.46
78664.623
40029.118
22800.768
14003.774
9071.4208
6112.0218
4243.6477
3016.7341
2185.6082
1608.3512
1199.189
904.30607
688.86447
529.70677
411.08791
322.09132
255.01727
204.34824
166.06733
137.19728
115.48091
99.155824
86.796883
77.214139
69.401069
62.574722
55.913052
48.524821
40.239635
31.409562
22.813719
15.402284
9.8597988
6.2550406
4.1468602
2.9837974
2.2747299
1.7710505
1.4010225
1.119026
0.89232183
0.71581984
0.57910266
0.47138068
0.38921995
0.32350872
0.27218477
0.22995799
0.19822626
0.16860755
0.14749058
0.12905587
0.11617146
0.10496011
0.097254712
0.09026158
0.086215486
0.082420183
0.079771375
0.07746287
0.076118184
0.074658049
3738367.1
604011.2
185437.09
78665.142
40029.224
22800.867
14003.993
9071.8061
6112.5964
4244.4265
3017.7308
2186.8373
1609.8289
1200.933
906.33518
691.19745
532.35977
414.07083
325.40273
258.63657
208.22573
170.11254
141.26727
119.37227
102.60635
89.504353
78.891052
69.790241
61.156549
52.300817
43.046577
33.643671
24.705271
16.997168
11.09895
7.1196285
4.7099916
3.3469759
2.5277802
1.9800288
1.5864545
1.2745003
1.0179863
0.81609141
0.65829047
0.53512362
0.43925857
0.36408619
0.30389831
0.25902586
0.21948838
0.18989981
0.1623642
0.1421748
0.12414499
0.11228831
0.10188724
0.095011807
0.089137896
0.084884189
0.081294962
0.078999958
0.076969662
0.075788133
0.07449892
3739014.3
604121.89
185474.42
78682.903
40039.389
22807.474
14008.725
9075.4801
6115.6545
4247.131
3020.2494
2189.2844
1612.287
1203.4641
908.98622
694.00231
535.33855
417.22664
328.71628
262.05884
211.66953
173.44488
144.30593
121.89085
104.3584
90.240056
78.237787
67.279229
56.726799
46.323093
36.193124
26.787151
18.701624
12.414955
8.0485055
5.3204111
3.7491748
2.8247031
2.2297751
1.7967895
1.4433538
1.1554549
0.93066018
0.75195418
0.61126516
0.50078716
0.41226686
0.34382727
0.28864301
0.2452171
0.20819882
0.18105668
0.1546648
0.1365843
0.12047395
0.10959495
0.099907162
0.093511339
0.087330168
0.083793976
0.080548827
0.078620549
0.07667233
0.075509847
0.074369562
3739013.7
604118.91
185472.04
78681.208
40038.3
22806.834
14008.432
9075.4749
6115.9034
4247.6165
3020.9637
2190.226
1613.4574
1204.8653
910.61726
695.85537
537.39393
419.44649
331.03734
264.38508
213.8663
175.33741
145.68941
122.52972
103.93691
88.364114
74.685797
62.144845
50.356445
39.303362
29.273408
20.707179
13.975211
9.1835768
6.0904747
4.2616065
3.1851868
2.5039741
2.0128711
1.6224644
1.312252
1.0653532
0.86240431
0.69845617
0.56923403
0.46712875
0.38689038
0.32396152
0.27258
0.23440929
0.19999687
0.17451106
0.14981532
0.13260624
0.11659002
0.10672027
0.097309322
0.091571234
0.086554968
0.08307978
0.079879719
0.077897963
0.076152487
0.07515078
0.074258583
3739013.8
604119.05
185472.19
78681.42
40038.577
22807.182
14008.859
9075.9892
6116.5145
4248.3335
3021.7954
2191.1798
1614.538
1206.0724
911.94272
697.27938
538.88029
420.93735
332.44832
265.60248
214.74793
175.6986
145.28452
121.07017
101.205
84.305515
69.405843
55.937629
43.703969
32.811806
23.54053
16.160404
10.756238
7.1329514
4.9197636
3.6115072
2.8118632
2.2647523
1.8457256
1.5082372
1.2267678
0.99197337
0.8036683
0.65414854
0.53662
0.44339424
0.3680364
0.30930492
0.26146007
0.22411697
0.19103402
0.16750664
0.14369927
0.12809589
0.1136494
0.10439147
0.095922755
0.090394727
0.085081481
0.082049418
0.079240398
0.077596166
0.075967392
0.075024265
0.074135092
3739014
604119.15
185472.27
78681.524
40038.714
22807.356
14009.078
9076.2576
6116.8383
4248.7181
3022.2448
2191.6954
1615.1169
1206.7051
912.61014
697.94951
539.50383
421.44283
332.73649
265.5387
214.15294
174.37745
143.06358
117.83811
96.931563
79.079099
63.462035
49.657817
37.56752
27.300959
19.024412
12.80825
8.5049241
5.78424
4.1656665
3.2058494
2.5795882
2.1105714
1.7275564
1.4058962
1.1420404
0.93072049
0.75859852
0.61867586
0.50776794
0.41923331
0.34913967
0.29444676
0.24921959
0.21595656
0.18509049
0.16288344
0.14038411
0.12538471
0.11091487
0.10239291
0.09387285
0.088992687
0.084332928
0.081502988
0.078827369
0.077189692
0.075704056
0.074806911
0.074050859
3739014.9
604119.23
185472.28
78681.519
40038.709
22807.358
14009.087
9076.2785
6116.8734
4248.7688
3022.3106
2191.7721
1615.1948
1206.7663
912.62525
697.87331
539.27156
420.96749
331.90871
264.23287
212.24288
171.74579
139.62564
113.5711
91.905105
73.476943
57.582332
43.881253
32.29212
22.857892
15.603607
10.419302
7.0137929
4.9367643
3.7104106
2.9443822
2.4016172
1.9737016
1.6208158
1.3289681
1.0862559