/*--------------------------------*- C++ -*----------------------------------*\
  =========                 |
  \\      /  F ield         | OpenFOAM: The Open Source CFD Toolbox
   \\    /   O peration     | Website:  https://openfoam.org
    \\  /    A nd           | Version:  13
     \\/     M anipulation  |
\*---------------------------------------------------------------------------*/
FoamFile
{
    format      ascii;
    class       volScalarField;
    location    "46.599296";
    object      pMean;
}
// * * * * * * * * * * * * * * * * * * * * * * * * * * * * * * * * * * * * * //

dimensions      [0 2 -2 0 0 0 0];

internalField   nonuniform List<scalar> 
17140
(
0.82999869
0.82993126
0.8298499
0.82976702
0.82967753
0.82958011
0.8294747
0.8293611
0.8292391
0.82910851
0.8289692
0.82882097
0.82866353
0.82849627
0.82831809
0.82812703
0.82791988
0.82769148
0.82743406
0.82713617
0.82678151
0.82634738
0.82580242
0.82510383
0.82420162
0.8230539
0.82163412
0.81991181
0.81783303
0.81532707
0.81231541
0.80870947
0.80441229
0.79932185
0.79333482
0.78635128
0.77828007
0.7690452
0.75859641
0.74692517
0.73408459
0.72021499
0.70558088
0.69059404
0.67583849
0.66207127
0.65005951
0.64057654
0.63439462
0.63214212
0.63424841
0.64095599
0.65239035
0.66828655
0.6883894
0.71171179
0.73793598
0.76520985
0.79462944
0.82239933
0.85402154
0.88069879
0.91472922
0.93161143
0.95986539
0.82895115
0.82888499
0.82880519
0.82872393
0.82863617
0.82854058
0.8284371
0.8283256
0.82820584
0.82807768
0.82794097
0.82779555
0.82764114
0.8274772
0.82730266
0.82711565
0.82691302
0.82668974
0.82643814
0.8261469
0.82579988
0.82537455
0.8248398
0.82415317
0.82326432
0.82213053
0.82072528
0.81901859
0.81695635
0.81446745
0.81147316
0.80788473
0.80360485
0.798531
0.79255925
0.78558903
0.77752838
0.76830047
0.75785413
0.74617984
0.73332982
0.71944381
0.7047855
0.68976877
0.6749859
0.66117671
0.64912009
0.63961869
0.6334233
0.63114809
0.63323528
0.63992619
0.6513264
0.66717411
0.68720035
0.71039232
0.73642432
0.76343669
0.79253613
0.82013928
0.85195298
0.87908928
0.91397221
0.93136128
0.96008248
0.82635591
0.82629294
0.82621716
0.82613977
0.8260561
0.8259649
0.8258662
0.82575984
0.82564555
0.82552321
0.82539277
0.82525412
0.82510703
0.82495106
0.82478527
0.82460796
0.82441619
0.82420517
0.82396751
0.82369224
0.82336358
0.82295942
0.82244926
0.8217914
0.8209349
0.81983508
0.81846462
0.81679402
0.81476992
0.81232093
0.80936747
0.80582032
0.80158132
0.79654673
0.79061123
0.78367259
0.77563688
0.76642523
0.75598439
0.74430275
0.7314307
0.71750748
0.70279734
0.68772177
0.67287992
0.6589966
0.6468647
0.63730252
0.63106531
0.62876031
0.6308106
0.63744488
0.64877038
0.66451958
0.68440448
0.70739736
0.73315682
0.75982162
0.78856189
0.81617023
0.84838043
0.87643752
0.91237906
0.93045028
0.95989868
0.82226191
0.82220408
0.82213466
0.82206333
0.82198612
0.82190198
0.82181087
0.8217126
0.82160695
0.82149388
0.8213734
0.82124543
0.82110987
0.82096642
0.82081435
0.8206522
0.82047734
0.82028536
0.82006933
0.81981879
0.81951853
0.81914711
0.81867497
0.81806163
0.81725572
0.81620971
0.81489371
0.81327872
0.81131359
0.80892685
0.80603732
0.80255511
0.79838075
0.79340876
0.78753157
0.78064438
0.77265037
0.76346752
0.75303935
0.7413511
0.72845085
0.71447732
0.69969634
0.6845402
0.66961422
0.65563026
0.64340427
0.6337638
0.62746949
0.62512203
0.62712552
0.63368599
0.64489908
0.66049442
0.68017207
0.70287804
0.72826777
0.75452708
0.78294264
0.81069567
0.84364115
0.87295988
0.91020648
0.92915303
0.95939637
0.81680097
0.81675006
0.81668923
0.81662612
0.8165577
0.81648308
0.81640215
0.81631477
0.81622085
0.81612033
0.81601325
0.81589965
0.81577955
0.81565285
0.81551903
0.81537695
0.81522437
0.81505738
0.81486963
0.81465134
0.81438809
0.81405935
0.81363671
0.81308139
0.81234246
0.81136881
0.81012551
0.80858382
0.80669656
0.80439261
0.80158856
0.79819366
0.79410683
0.78922036
0.78342393
0.7766094
0.76867618
0.75953818
0.74913478
0.7374472
0.72452074
0.71049348
0.69563531
0.68039173
0.66536692
0.65127581
0.63895382
0.6292337
0.6228892
0.62050677
0.62246687
0.62894699
0.64003258
0.65544742
0.67487126
0.69723126
0.72223474
0.74811579
0.77638188
0.80454541
0.83848764
0.86929176
0.90782202
0.92760991
0.95858984
0.81019153
0.81014911
0.8100988
0.81004583
0.80998827
0.80992539
0.80985708
0.80978324
0.80970377
0.8096187
0.80952811
0.80943216
0.80933099
0.80922465
0.80911291
0.80899494
0.80886894
0.80873158
0.80857717
0.80839676
0.80817688
0.80789813
0.80753346
0.80704608
0.80638728
0.80550206
0.80434696
0.80289313
0.8010993
0.79889511
0.79619512
0.79290725
0.78892874
0.78414936
0.77845562
0.77173553
0.76388408
0.75481038
0.74444874
0.7327756
0.71983303
0.70575874
0.69082895
0.67550276
0.66038037
0.64619394
0.63378678
0.62399918
0.61761836
0.6152201
0.6171558
0.62357014
0.63453649
0.64976317
0.66891052
0.69090143
0.71549006
0.74106452
0.76940972
0.79836303
0.83355311
0.86597359
0.90556972
0.92599708
0.95756161
0.8027296
0.80269686
0.80265807
0.80261688
0.80257194
0.8025227
0.80246906
0.80241093
0.80234826
0.80228112
0.80220965
0.80213406
0.80205462
0.80197154
0.80188479
0.80179389
0.80169748
0.80159278
0.80147484
0.80133559
0.80116265
0.8009379
0.80063588
0.80022193
0.79965019
0.79886406
0.79781132
0.79645797
0.79476727
0.79267415
0.79009248
0.7869273
0.78307432
0.77842086
0.7728501
0.76624597
0.75849857
0.74951159
0.73921359
0.72757574
0.71463667
0.70053428
0.68555332
0.67016258
0.6549639
0.64070619
0.62822913
0.61838716
0.6119833
0.60958635
0.61151741
0.61789189
0.62876615
0.64383559
0.66273999
0.68440998
0.70864795
0.73408774
0.76277205
0.79282904
0.82949476
0.86343752
0.90368974
0.92444277
0.9561456
0.79477396
0.79475182
0.79472545
0.79469722
0.79466623
0.79463207
0.79459466
0.79455392
0.79450985
0.79446254
0.79441215
0.79435896
0.7943033
0.79424547
0.79418562
0.79412354
0.79405822
0.79398742
0.79390687
0.79380941
0.79368376
0.79351322
0.79327402
0.79293369
0.79244934
0.79176692
0.79082694
0.7895823
0.78799873
0.78602196
0.78356661
0.78053444
0.77681967
0.77230717
0.76687703
0.76040906
0.75278836
0.74391283
0.7337049
0.72213025
0.70922393
0.69512523
0.68012869
0.66470457
0.64946471
0.63516564
0.62263419
0.61274328
0.60631982
0.60393684
0.6058855
0.61224742
0.62306647
0.63802715
0.65675894
0.67820988
0.70225437
0.7277886
0.75712593
0.78852198
0.82670319
0.86189963
0.90225343
0.92303783
0.95467839
0.78672447
0.78671344
0.7867001
0.78668555
0.78666928
0.78665107
0.78663084
0.78660854
0.78658421
0.78655792
0.78652987
0.78650032
0.78646962
0.78643812
0.78640604
0.7863733
0.78633918
0.78630181
0.78625753
0.78619995
0.78611888
0.78599899
0.7858183
0.78554657
0.78514376
0.78455921
0.78373328
0.78260623
0.78113231
0.77926781
0.77693898
0.77404388
0.7704736
0.76611202
0.76083642
0.75452273
0.74705116
0.73831386
0.72822722
0.71675151
0.70391864
0.68986979
0.67490821
0.65950099
0.64427254
0.62997165
0.6174082
0.60747889
0.60104429
0.59868078
0.60065173
0.60702157
0.61783065
0.63274229
0.65138474
0.67272443
0.69675424
0.72267801
0.75301703
0.78610127
0.8257067
0.861626
0.90156628
0.92205013
0.95296482
0.77899372
0.77899383
0.77899357
0.77899278
0.77899137
0.77898929
0.77898649
0.77898294
0.77897869
0.77897382
0.7789685
0.77896298
0.77895753
0.77895248
0.77894802
0.7789441
0.77894007
0.77893431
0.77892352
0.77890195
0.7788603
0.77878447
0.77865414
0.7784413
0.77810873
0.77760902
0.77688522
0.77587489
0.77451747
0.77276037
0.7705449
0.76778268
0.76435996
0.76015537
0.75504435
0.74890022
0.74159926
0.73302896
0.72310047
0.71176954
0.69906585
0.68513283
0.67027719
0.65496417
0.63982314
0.62558105
0.61303687
0.60311168
0.59668844
0.59434346
0.59634721
0.6027573
0.61359121
0.6285032
0.64711447
0.66847559
0.69277521
0.71958758
0.75139002
0.78602671
0.82641037
0.86230679
0.90103669
0.92090828
0.95106577
0.77197261
0.77198331
0.77199552
0.7720079
0.77202077
0.77203425
0.7720483
0.77206295
0.77207824
0.77209426
0.77211115
0.77212907
0.77214825
0.77216886
0.77219099
0.77221447
0.77223859
0.77226171
0.77228073
0.77229024
0.77228157
0.77224163
0.77215149
0.7719851
0.77170788
0.77127567
0.77063456
0.76972303
0.76847694
0.76683377
0.76472774
0.76208
0.7587914
0.7547426
0.74980342
0.74384411
0.73673828
0.72836971
0.71864636
0.70752113
0.69502299
0.68129748
0.6666439
0.65153168
0.6365883
0.62250929
0.61008762
0.60024545
0.59387227
0.59156941
0.59360046
0.60001016
0.61085132
0.6257777
0.64443517
0.66602233
0.69094579
0.71891085
0.75205738
0.78778486
0.82814686
0.86326644
0.90068515
0.92015959
0.94893592
0.76599464
0.76601478
0.76603816
0.76606239
0.76608817
0.76611578
0.76614523
0.76617658
0.76620989
0.76624527
0.76628281
0.76632262
0.76636481
0.7664094
0.76645631
0.76650514
0.76655498
0.76660403
0.76664908
0.76668485
0.76670297
0.76669098
0.76663103
0.7664986
0.76626135
0.76587813
0.76529845
0.76446273
0.76330643
0.76176356
0.75976504
0.7572331
0.75407262
0.75017165
0.74540513
0.73964371
0.73275965
0.72463531
0.71517616
0.70433425
0.69213829
0.67873378
0.66441336
0.64964424
0.63503215
0.62125302
0.60908756
0.59943196
0.59317721
0.59087937
0.59284144
0.59917342
0.609956
0.62487494
0.64365687
0.66567429
0.69138923
0.72053684
0.75480589
0.79108275
0.83095787
0.865192
0.90076925
0.91982244
0.94697838
0.76130065
0.7613285
0.76136102
0.76139503
0.76143154
0.76147098
0.76151341
0.76155896
0.76160773
0.76165984
0.76171538
0.76177443
0.76183699
0.76190297
0.76197209
0.76204374
0.76211674
0.76218904
0.76225722
0.76231587
0.76235673
0.76236761
0.7623313
0.76222439
0.76201618
0.76166782
0.76113212
0.76035379
0.75926859
0.75780711
0.75590296
0.7534801
0.75044651
0.74669815
0.74211476
0.73657022
0.72993873
0.7221052
0.71298015
0.70251286
0.69073139
0.67777766
0.66394065
0.64967094
0.63553992
0.62220172
0.61042248
0.60106651
0.59491506
0.59256478
0.59438577
0.60058189
0.61125311
0.62617929
0.64518563
0.6677003
0.69433642
0.72459245
0.75974588
0.79603929
0.83485045
0.86743938
0.90132138
0.91951933
0.94486374
0.75801148
0.75804477
0.75808381
0.75812487
0.75816921
0.75821738
0.75826953
0.75832583
0.75838647
0.75845161
0.75852139
0.75859587
0.75867504
0.75875875
0.7588466
0.75893783
0.75903108
0.75912409
0.75921326
0.75929304
0.75935516
0.75938761
0.75937357
0.75929027
0.759108
0.75878956
0.75828978
0.75755603
0.75652945
0.75514747
0.75331722
0.75099659
0.74809481
0.74450629
0.74012055
0.73482063
0.72848916
0.72101407
0.71229928
0.70230504
0.69105943
0.67869593
0.66548956
0.65186232
0.6383548
0.62558805
0.61430416
0.60524729
0.59918579
0.59676075
0.59840302
0.60440154
0.61496215
0.62993521
0.6491547
0.67221937
0.69972241
0.73101993
0.76641176
0.80214451
0.83919615
0.87035935
0.90190328
0.91927049
0.94299547
0.75610669
0.75614282
0.75618542
0.75623035
0.7562791
0.75633233
0.75639026
0.75645314
0.75652124
0.75659481
0.75667405
0.75675911
0.75685004
0.75694671
0.75704875
0.7571554
0.7572653
0.7573762
0.75748452
0.7575848
0.75766897
0.75772534
0.75773759
0.75768361
0.75753452
0.75725392
0.75679809
0.75611659
0.75515166
0.75384324
0.75214761
0.74993717
0.74713238
0.74372214
0.73956321
0.73454597
0.72855686
0.72149254
0.71327181
0.70385829
0.69326998
0.68163115
0.66919086
0.65633202
0.64355814
0.63145981
0.62066722
0.61189731
0.60592867
0.60338936
0.60482634
0.61064425
0.62110684
0.63608413
0.65548228
0.67919724
0.70767641
0.73941632
0.77439471
0.80892519
0.84420784
0.87319603
0.90271909
0.91900036
0.94123846
0.7554463
0.75548265
0.75552586
0.75557133
0.75562088
0.75567525
0.75573472
0.75579962
0.7558703
0.75594711
0.75603039
0.75612038
0.75621727
0.75632108
0.75643161
0.75654829
0.75667
0.75679479
0.75691947
0.75703911
0.75714626
0.75723019
0.75727561
0.7572615
0.75716012
0.75693618
0.75654672
0.75594152
0.75506396
0.75385454
0.7522536
0.75016867
0.7475838
0.74436281
0.74042886
0.73573078
0.73014461
0.7235752
0.71594978
0.70721934
0.69740368
0.68660753
0.67504291
0.66305102
0.65108494
0.6396483
0.62932958
0.62084319
0.61492117
0.61227681
0.61353768
0.61920668
0.62954952
0.64448076
0.66426972
0.68879433
0.7176522
0.74923453
0.78324171
0.81618765
0.84912509
0.87616631
0.90355722
0.91893631
0.93987333
0.75577252
0.75580675
0.75584784
0.75589082
0.75593784
0.7559897
0.7560467
0.75610924
0.75617775
0.75625267
0.75633445
0.75642349
0.75652015
0.75662466
0.7567371
0.75685723
0.75698437
0.75711714
0.75725312
0.75738834
0.75751661
0.7576287
0.75771132
0.75774569
0.75770621
0.75755952
0.75726341
0.75676767
0.75601627
0.75494881
0.7535
0.751626
0.74924272
0.74627437
0.74269453
0.73836108
0.73323271
0.72723495
0.72028556
0.71233631
0.7033941
0.69353332
0.68292891
0.67186372
0.66070372
0.64991144
0.64005398
0.63179264
0.62592054
0.62319181
0.62433026
0.62984285
0.64002888
0.65517384
0.67558017
0.70035507
0.72905999
0.76012881
0.79252159
0.82345375
0.8541223
0.87906778
0.90462757
0.9191084
0.93887097
0.75679333
0.75682355
0.75686012
0.7568982
0.75694001
0.75698636
0.75703755
0.75709402
0.75715625
0.75722476
0.75730008
0.75738273
0.75747326
0.75757212
0.7576797
0.75779617
0.75792141
0.75805478
0.75819485
0.75833903
0.75848295
0.75861966
0.75873876
0.75882508
0.75885729
0.75880592
0.75863299
0.75829118
0.75772433
0.75687101
0.75566414
0.75404571
0.7519531
0.74933624
0.74611024
0.74225563
0.7377155
0.73235624
0.72615954
0.71907534
0.71108629
0.70223491
0.69264088
0.68250773
0.67214599
0.66197803
0.65252353
0.64447529
0.63865827
0.63589194
0.6368852
0.64224101
0.65256104
0.66819098
0.6886971
0.71334514
0.74175564
0.77133993
0.80189302
0.8306459
0.85892778
0.88212366
0.90596416
0.91961024
0.93833613
0.7581974
0.75822245
0.75825289
0.75828454
0.75831944
0.75835831
0.75840146
0.75844931
0.75850238
0.75856118
0.75862631
0.75869837
0.75877802
0.7588659
0.75896264
0.7590688
0.75918477
0.75931064
0.75944603
0.75958975
0.7597394
0.75989075
0.76003686
0.76016707
0.76026556
0.76030996
0.76026913
0.76010206
0.75975795
0.75917693
0.75829247
0.75703899
0.75534963
0.7531772
0.75046795
0.74717885
0.74324693
0.7386593
0.73334468
0.72721353
0.72025354
0.7124626
0.70389689
0.69469751
0.68511486
0.6755156
0.66643603
0.65856662
0.65281974
0.64994203
0.65086763
0.65632355
0.66705174
0.68271446
0.70313018
0.72772212
0.75480361
0.78267106
0.81112398
0.83752191
0.86383718
0.88534097
0.90763762
0.92046094
0.93824816
0.75973187
0.75975131
0.75977483
0.75979953
0.75982689
0.75985749
0.75989164
0.75992972
0.7599722
0.7600196
0.76007248
0.76013148
0.76019727
0.76027061
0.76035228
0.76044306
0.76054373
0.76065495
0.76077715
0.76091036
0.7610539
0.76120601
0.7613632
0.76151943
0.76166507
0.76178538
0.76185908
0.76185638
0.76173746
0.76145212
0.76094071
0.76013757
0.75897575
0.75739416
0.75533795
0.75276492
0.74964315
0.74594205
0.74157327
0.73648327
0.73061556
0.72391745
0.71639457
0.70811087
0.69925442
0.69018002
0.68140276
0.67370684
0.66791171
0.66504854
0.66608582
0.67194803
0.68275888
0.69838076
0.71895986
0.74252091
0.76785801
0.79378609
0.81991836
0.84441226
0.86881124
0.88878587
0.90966306
0.9216972
0.938644
0.76120508
0.76121918
0.76123617
0.76125425
0.76127438
0.76129698
0.76132233
0.76135076
0.76138267
0.76141852
0.76145882
0.76150414
0.76155515
0.76161256
0.7616772
0.76174997
0.76183181
0.76192371
0.76202663
0.7621414
0.76226858
0.76240821
0.76255953
0.76272043
0.76288674
0.76305124
0.76320238
0.76332326
0.76338961
0.76336823
0.76321614
0.76288085
0.7623034
0.76142154
0.7601763
0.75851158
0.7563683
0.75369622
0.75043179
0.74650074
0.74179962
0.73623754
0.72975028
0.7223356
0.71414445
0.70549522
0.69695836
0.6893181
0.68359406
0.68091651
0.68239175
0.68847811
0.6993129
0.71533218
0.73522641
0.7570696
0.78071127
0.80443936
0.82864224
0.85124324
0.87393362
0.89248119
0.91206261
0.92332308
0.93950802
0.76251913
0.76252866
0.7625401
0.76255247
0.7625663
0.76258189
0.76259948
0.76261931
0.76264171
0.76266703
0.76269574
0.76272833
0.76276541
0.76280761
0.76285557
0.7629101
0.76297215
0.76304277
0.76312301
0.76321404
0.76331719
0.76343384
0.76356495
0.76371099
0.76387175
0.76404582
0.76423018
0.76441926
0.76460398
0.76477044
0.76489831
0.76495938
0.76491721
0.7647254
0.76432852
0.76366301
0.76265571
0.76122146
0.75925666
0.75664105
0.75322457
0.74884916
0.74339237
0.73678894
0.72915626
0.72081811
0.71241651
0.70491221
0.69942311
0.69724761
0.69913231
0.70541103
0.71697338
0.7326618
0.7509378
0.77140223
0.79303535
0.81486655
0.83719764
0.85811631
0.87922624
0.8964451
0.91484276
0.92535585
0.9408528
0.76363707
0.76364287
0.76364985
0.76365743
0.76366596
0.76367564
0.7636866
0.76369903
0.76371315
0.76372931
0.76374793
0.76376915
0.76379308
0.76382012
0.76385118
0.76388743
0.76392995
0.76397986
0.76403824
0.76410591
0.76418342
0.76427218
0.76437467
0.76449343
0.76463084
0.76478958
0.76497248
0.76518214
0.76542142
0.76569249
0.76599614
0.76633209
0.76669478
0.76706983
0.76742791
0.76771767
0.76785758
0.76772729
0.76717269
0.76600302
0.76397284
0.76085233
0.75640834
0.75058472
0.74341258
0.7353365
0.7271634
0.71992384
0.71499525
0.71351488
0.7158206
0.72323583
0.73488194
0.74939675
0.76634553
0.7851771
0.80491709
0.82501956
0.84569828
0.86505213
0.8847117
0.90069624
0.91800344
0.92779296
0.9426676
0.76460039
0.76460289
0.76460593
0.76460925
0.76461303
0.76461737
0.7646224
0.76462824
0.76463505
0.764643
0.76465223
0.76466287
0.76467526
0.76469004
0.76470794
0.76472957
0.76475515
0.76478504
0.76482029
0.7648627
0.7649141
0.76497536
0.76504799
0.76513471
0.76523938
0.76536822
0.76552831
0.76572678
0.76597325
0.76628098
0.76666631
0.76715194
0.7677603
0.76850687
0.76940112
0.77042816
0.77152432
0.77256365
0.77334371
0.77357868
0.77292998
0.77103973
0.76762899
0.76251256
0.7558317
0.74815884
0.74032728
0.73389414
0.73014268
0.7293995
0.7332363
0.74117627
0.75194812
0.76540035
0.7812936
0.79815539
0.81642644
0.83499778
0.8541543
0.87207572
0.89040275
0.90523766
0.92154628
0.93063592
0.94494554
0.76544024
0.76543909
0.76543776
0.76543634
0.76543482
0.76543336
0.76543208
0.76543102
0.76543023
0.76542979
0.7654299
0.76543116
0.76543362
0.76543586
0.76543735
0.76543955
0.76544399
0.76545227
0.76546654
0.76548812
0.7655174
0.76555423
0.76559962
0.76565789
0.76573445
0.76583525
0.76596887
0.76614682
0.76638399
0.76669893
0.76711579
0.76766852
0.76839549
0.76933619
0.77053386
0.77200168
0.77371043
0.77554467
0.77731293
0.77867038
0.77920135
0.77841884
0.77595087
0.77161358
0.76556945
0.75861732
0.75208566
0.74742046
0.74467671
0.74579482
0.7505554
0.7579746
0.76813486
0.78074928
0.79504961
0.81075756
0.82765658
0.84482034
0.86260176
0.8792044
0.89630879
0.91007548
0.9254653
0.93388166
0.94768074
0.7661734
0.76616792
0.76616147
0.7661547
0.76614737
0.76613938
0.76613075
0.76612161
0.76611204
0.766102
0.76609154
0.76608075
0.76606965
0.76605837
0.76604719
0.76603657
0.76602742
0.7660209
0.76601773
0.7660194
0.76602874
0.76604724
0.76607517
0.76611565
0.76617417
0.76625661
0.76637105
0.76652984
0.76675075
0.76705563
0.76747164
0.76803189
0.76877837
0.7697659
0.77105149
0.77267332
0.77465189
0.77690215
0.77923167
0.78131857
0.78265843
0.78272446
0.78107322
0.77755802
0.77281384
0.76772897
0.76335217
0.75990963
0.75928459
0.76172556
0.76625985
0.77376198
0.78345316
0.79504859
0.80841103
0.82294119
0.83861578
0.85452767
0.87105734
0.88645194
0.90243631
0.91521011
0.92975581
0.93752648
0.95086425
0.766617
0.76660732
0.76659594
0.76658394
0.76657086
0.76655631
0.76654003
0.76652254
0.76650476
0.76648675
0.76646797
0.76644835
0.76642799
0.76640696
0.7663853
0.76636328
0.7663414
0.7663203
0.76630115
0.76628612
0.76627789
0.76627907
0.76629135
0.76631619
0.76635948
0.766431
0.7665386
0.76668984
0.76689869
0.76719316
0.76760047
0.76814649
0.76888095
0.76985693
0.77113764
0.7727791
0.77478138
0.7771229
0.77961259
0.78194171
0.78365117
0.78430103
0.78367583
0.78177539
0.77905264
0.77615053
0.7733666
0.77214805
0.77341261
0.77599964
0.78115352
0.78847382
0.79781781
0.80871413
0.82119613
0.83475911
0.84936634
0.86414535
0.8795425
0.89383127
0.90878949
0.92064148
0.93440986
0.94156204
0.95448579
0.76658615
0.76657389
0.76655949
0.76654427
0.76652781
0.76650989
0.76649045
0.76646938
0.76644671
0.76642255
0.766397
0.76637017
0.76634225
0.76631355
0.76628446
0.76625554
0.76622752
0.76620137
0.76617816
0.76615922
0.76614722
0.76614672
0.7661602
0.76618597
0.76622675
0.76629319
0.7663952
0.7665412
0.76674406
0.76701653
0.76738809
0.7678988
0.7685846
0.76949168
0.77066081
0.77214795
0.77400273
0.77620034
0.77863217
0.78105837
0.78319981
0.78477027
0.78548444
0.7853443
0.78473023
0.78357542
0.78290041
0.78401186
0.78590793
0.78948647
0.79519298
0.80240623
0.81137273
0.82177449
0.83357079
0.84628158
0.85993707
0.87370168
0.8880749
0.90135292
0.91537086
0.92636872
0.93942218
0.94599024
0.95853732
0.7657854
0.76577372
0.76575999
0.76574549
0.7657298
0.76571274
0.76569428
0.7656744
0.76565311
0.76563042
0.76560644
0.76558128
0.76555516
0.76552837
0.76550132
0.76547458
0.76544887
0.76542494
0.76540403
0.76538828
0.76537964
0.7653797
0.76539098
0.76541673
0.76546151
0.7655324
0.76563477
0.76577108
0.76595671
0.76622579
0.76659055
0.76706199
0.76768269
0.76849833
0.76957313
0.77095058
0.77266851
0.77475334
0.77716585
0.77982101
0.78252504
0.78505314
0.78715595
0.78886364
0.78985635
0.79056085
0.79238601
0.79465477
0.79759614
0.8022342
0.80816203
0.81551446
0.82433713
0.8343557
0.8455651
0.85754512
0.87036815
0.88322356
0.89667188
0.90902638
0.92218393
0.93239048
0.94478503
0.95080066
0.9630003
0.76432163
0.7643128
0.76430244
0.7642915
0.76427969
0.76426688
0.76425305
0.76423821
0.76422238
0.76420562
0.76418802
0.76416972
0.76415095
0.76413206
0.76411351
0.76409589
0.76407997
0.76406676
0.76405756
0.76405393
0.76405757
0.76407084
0.764097
0.76413948
0.76419859
0.76427636
0.76438442
0.76454574
0.76476185
0.76502674
0.7653713
0.7658382
0.76646081
0.76726136
0.76828158
0.76960326
0.77128987
0.77338903
0.77594971
0.7789722
0.78236723
0.78591277
0.78942059
0.79239685
0.79484426
0.79790273
0.80117863
0.80448161
0.80879378
0.81408437
0.82051362
0.82806468
0.83679437
0.84652223
0.85725789
0.86860809
0.88069657
0.89273719
0.90535039
0.91686232
0.92923184
0.93870545
0.95049108
0.95598507
0.96786999
0.76227538
0.76227001
0.76226374
0.76225717
0.76225015
0.76224262
0.76223461
0.76222617
0.76221738
0.76220834
0.76219924
0.76219028
0.76218173
0.762174
0.76216767
0.7621635
0.76216246
0.76216573
0.76217478
0.76219144
0.7622181
0.76225741
0.76230958
0.76237712
0.76246433
0.7625841
0.76275173
0.76296095
0.76322318
0.76356382
0.76398641
0.76451188
0.76517953
0.76603138
0.7671182
0.76850523
0.7702802
0.77255399
0.77544857
0.77901042
0.78315771
0.78771406
0.79216313
0.79614146
0.80057452
0.80515481
0.80938149
0.81407171
0.81937784
0.82542855
0.8323325
0.84011585
0.84884579
0.85836437
0.86870823
0.87951579
0.89095895
0.90226866
0.91412851
0.92486694
0.93651476
0.94530787
0.95653621
0.96152418
0.97315843
0.75979845
0.75979573
0.75979263
0.7597895
0.7597863
0.75978306
0.75977987
0.75977685
0.75977416
0.759772
0.75977065
0.75977046
0.75977193
0.75977564
0.7597824
0.75979317
0.75980921
0.75983208
0.75986375
0.75990624
0.75996141
0.76003177
0.76012246
0.76024377
0.76040213
0.76059795
0.76084162
0.76114028
0.76149796
0.76193437
0.76246908
0.76312164
0.76391872
0.76489455
0.76611198
0.76766489
0.76968353
0.77233546
0.77576312
0.77998416
0.78494309
0.79022088
0.79531086
0.8008776
0.80671646
0.81208103
0.81757089
0.82340912
0.82963318
0.83638272
0.84377384
0.85182283
0.8605946
0.86995955
0.87998192
0.89031988
0.90119231
0.91184391
0.92302117
0.93304872
0.94403789
0.95219357
0.96291601
0.96741065
0.97883365
0.75678629
0.75678532
0.75678436
0.7567836
0.75678313
0.75678307
0.75678357
0.75678483
0.75678713
0.75679082
0.75679632
0.75680419
0.75681513
0.75683002
0.75684997
0.75687635
0.75691087
0.75695566
0.75701323
0.75708624
0.7571788
0.7572961
0.75744588
0.75763272
0.75785971
0.75813558
0.75846977
0.75887289
0.75935607
0.75993119
0.76061355
0.76141997
0.76238013
0.76355102
0.76501781
0.76690815
0.76939588
0.77266047
0.77677218
0.78174795
0.78739428
0.79310882
0.79946669
0.80625048
0.81275654
0.81921534
0.82584984
0.83263511
0.83968846
0.84710248
0.85496388
0.86328341
0.87213026
0.8813862
0.89114044
0.9010679
0.9114327
0.92148885
0.93204558
0.94141826
0.95180562
0.95935864
0.96962425
0.97363982
0.98487864
0.75297916
0.75298011
0.75298151
0.75298341
0.75298602
0.75298954
0.75299423
0.75300041
0.75300848
0.75301896
0.75303248
0.75304982
0.75307196
0.75310012
0.75313579
0.75318082
0.75323745
0.75330837
0.75339686
0.75350714
0.75364437
0.75381308
0.75401963
0.75427137
0.75457585
0.75494271
0.75538156
0.75590319
0.75651875
0.75723967
0.7580828
0.75908085
0.76028362
0.76176639
0.7636528
0.76610785
0.76930669
0.77336146
0.77828467
0.78407074
0.79016263
0.79697219
0.80441996
0.81180888
0.81920057
0.82668357
0.83422205
0.84187163
0.84968709
0.85771364
0.86602181
0.87460954
0.88354589
0.89272013
0.90224552
0.91180848
0.92171617
0.93122918
0.9412173
0.94998538
0.95981554
0.96681018
0.97664956
0.98020622
0.99128623
0.7479861
0.7479904
0.74799588
0.74800225
0.74800994
0.74801929
0.74803067
0.74804453
0.74806145
0.74808212
0.74810742
0.74813839
0.74817633
0.74822281
0.74827975
0.74834947
0.74843475
0.74853895
0.74866604
0.74882069
0.74900834
0.74923533
0.74950902
0.74983738
0.75022989
0.75069647
0.75124648
0.7518915
0.75264767
0.75353752
0.75459228
0.75586062
0.75742132
0.75939277
0.7619288
0.76519225
0.76930343
0.77429269
0.78016689
0.78654526
0.79362257
0.8015746
0.80963225
0.81778926
0.82604647
0.83438921
0.84278842
0.85123214
0.85974198
0.86833398
0.87705775
0.88589836
0.8949264
0.9040341
0.91335635
0.92258832
0.93207795
0.9410902
0.95055295
0.95875721
0.96807288
0.97453829
0.98398464
0.98709838
0.99803354
0.74141351
0.74142332
0.74143543
0.74144902
0.74146481
0.74148333
0.74150507
0.74153067
0.7415609
0.74159668
0.74163913
0.74168963
0.7417498
0.74182162
0.74190744
0.74201004
0.74213276
0.74227956
0.74245512
0.74266462
0.74291432
0.74321172
0.74356438
0.74398072
0.7444703
0.74504512
0.74572083
0.74651554
0.74745348
0.74857106
0.74992415
0.75159659
0.7537063
0.75639931
0.75982745
0.76410456
0.76927238
0.7753289
0.78203423
0.7893672
0.7976853
0.80630615
0.81506917
0.82410129
0.83323835
0.84243596
0.85164052
0.8608183
0.86996641
0.87907458
0.88817676
0.8972467
0.90635638
0.91539947
0.92453135
0.93345386
0.94255279
0.95109668
0.96006623
0.96774765
0.97657141
0.98254967
0.99161322
0.9943152
1.0050918
0.73290154
0.73291932
0.73294096
0.73296485
0.73299212
0.73302353
0.73305976
0.73310163
0.73315013
0.73320645
0.73327201
0.73334848
0.73343787
0.7335426
0.73366539
0.73380893
0.73397748
0.73417674
0.73441132
0.73468597
0.73500725
0.73538349
0.73582459
0.73634115
0.73694555
0.73765384
0.73848735
0.7394761
0.74066402
0.7421153
0.74392139
0.74620367
0.74910755
0.75277619
0.75732005
0.76277893
0.76914637
0.77624652
0.7839678
0.79266799
0.8018514
0.81124491
0.82097208
0.8308874
0.84089067
0.85090812
0.86087458
0.87073516
0.88046651
0.89003996
0.89947771
0.90874444
0.91791486
0.92688385
0.93582601
0.94444893
0.95317347
0.96127293
0.96977494
0.97696112
0.98531867
0.99084139
0.99952776
1.0018184
1.0124857
0.7220725
0.72210075
0.7221349
0.72217225
0.72221447
0.72226263
0.72231752
0.72238017
0.72245176
0.72253348
0.72262634
0.72273184
0.72285612
0.72300386
0.7231724
0.72336417
0.72358658
0.72384494
0.724145
0.72449349
0.72489792
0.72536722
0.72591288
0.72654944
0.72729579
0.72817789
0.72923244
0.73051192
0.73209052
0.7340693
0.73657636
0.73975772
0.74375493
0.74866793
0.75454629
0.76135689
0.76896174
0.77721447
0.78641822
0.79619322
0.80625979
0.81670418
0.82739375
0.83822443
0.84909545
0.85991476
0.87060494
0.88109705
0.89135498
0.90133768
0.91106002
0.92048094
0.92967934
0.9385526
0.94729332
0.9556163
0.96397234
0.97164079
0.97968936
0.98640805
0.99431563
0.99943038
1.0077284
1.0097734
1.0201074
0.70877003
0.70881243
0.70885959
0.70890721
0.70896042
0.70902539
0.70910715
0.70920226
0.70930367
0.70941392
0.70953944
0.70968332
0.70984803
0.7100367
0.71025285
0.71050011
0.71078396
0.71111086
0.71148642
0.71191849
0.71241825
0.71299902
0.71367807
0.71447869
0.71543309
0.71658622
0.71800062
0.71976119
0.72197812
0.7247851
0.72832693
0.73274022
0.73811827
0.74450444
0.75187837
0.76005786
0.76894165
0.77876821
0.78924002
0.80005316
0.81128468
0.82280729
0.83450658
0.84627556
0.85800654
0.86959868
0.88096651
0.89203278
0.90275376
0.91308164
0.92302808
0.93255028
0.94173234
0.95047628
0.9589914
0.96700117
0.97498209
0.98222464
0.98982352
0.99608991
1.0035468
1.0082763
1.016157
1.0178389
1.0278375
0.69297201
0.6930299
0.69308922
0.69314894
0.69321922
0.69330104
0.69339516
0.69350451
0.6936321
0.69378019
0.69395172
0.69414844
0.69436912
0.69461347
0.69488442
0.69518821
0.69553326
0.69592755
0.69637947
0.69689984
0.69750285
0.69820745
0.69903957
0.70003531
0.70124506
0.70273859
0.70461011
0.7069814
0.7099999
0.7138281
0.71861793
0.72448823
0.73148213
0.73958428
0.74858121
0.7584228
0.76917217
0.78060114
0.79236208
0.80453289
0.8170071
0.82966985
0.84241541
0.85513144
0.86770788
0.88003869
0.89203446
0.90361451
0.91473216
0.92533745
0.93544308
0.94500756
0.95412217
0.96269624
0.9709537
0.9786299
0.98622131
0.99303461
1.000183
1.0060154
1.0130265
1.0174646
1.0249468
1.0268217
1.0371166
0.67430882
0.67437801
0.67446298
0.67455513
0.67465752
0.67477208
0.67489991
0.67504219
0.67520062
0.6753777
0.67557613
0.67579878
0.67604904
0.67633102
0.67664973
0.67701131
0.67742348
0.67789608
0.67844194
0.67907817
0.67982786
0.68072263
0.68180588
0.68313689
0.68479548
0.68688624
0.68954054
0.69291354
0.6971732
0.7024775
0.70894605
0.71663953
0.72549992
0.73542329
0.74633827
0.7582102
0.7707541
0.78361656
0.79688401
0.8104573
0.82421958
0.83806643
0.85188281
0.86555084
0.87895551
0.89198885
0.90455976
0.91658831
0.92802791
0.93883178
0.94901471
0.95854344
0.96751593
0.97585379
0.98379299
0.99108545
0.9982421
1.0045939
1.011257
1.0166381
1.0231568
1.0273193
1.0341562
1.0367196
1.0443064
0.65440707
0.65449267
0.65459728
0.65470547
0.65482482
0.65495791
0.65510597
0.65527072
0.65545425
0.65565904
0.65588802
0.65614472
0.65643347
0.65675968
0.65713026
0.65755412
0.65804305
0.65861273
0.65928433
0.66008658
0.66105853
0.66225307
0.66374095
0.66561504
0.66799349
0.67102016
0.67485973
0.67968474
0.68565319
0.69287941
0.70141697