/*--------------------------------*- C++ -*----------------------------------*\
  =========                 |
  \\      /  F ield         | OpenFOAM: The Open Source CFD Toolbox
   \\    /   O peration     | Website:  https://openfoam.org
    \\  /    A nd           | Version:  13
     \\/     M anipulation  |
\*---------------------------------------------------------------------------*/
FoamFile
{
    format      ascii;
    class       surfaceScalarField;
    location    "1000";
    object      phi;
}
// * * * * * * * * * * * * * * * * * * * * * * * * * * * * * * * * * * * * * //

dimensions      [0 3 -1 0 0 0 0];

internalField   nonuniform List<scalar> 
18914
(
2.6828816e-10
5.1801132e-11
-3.2006886e-10
1.2367239e-09
1.8489142e-10
-1.1532938e-09
3.2193822e-09
3.7314101e-10
-2.3557366e-09
6.6494077e-09
6.3281536e-10
-4.0627444e-09
1.21221e-08
9.8388912e-10
-6.4564402e-09
2.0453444e-08
1.4501956e-09
-9.7813306e-09
3.2759453e-08
2.0593655e-09
-1.4365062e-08
5.0563581e-08
2.8421895e-09
-2.0645848e-08
7.5942052e-08
3.8309068e-09
-2.9208673e-08
1.1172032e-07
5.0557666e-09
-4.0832975e-08
1.6173844e-07
6.5388226e-09
-5.6555329e-08
2.3120907e-07
8.2834253e-09
-7.7751647e-08
3.2720024e-07
1.0257125e-08
-1.0624467e-07
4.5928518e-07
1.2364694e-08
-1.4444425e-07
6.4041648e-07
1.4406475e-08
-1.9552985e-07
8.8809987e-07
1.6015298e-08
-2.6368719e-07
1.2259682e-06
1.6562399e-08
-3.5441426e-07
1.6858877e-06
1.5019118e-08
-4.7491546e-07
2.3107707e-06
9.7561305e-09
-6.3460723e-07
3.1583227e-06
-1.744326e-09
-8.4576403e-07
4.3060166e-06
-2.3296063e-08
-1.1243395e-06
5.857678e-06
-6.0579317e-08
-1.4910048e-06
7.9521617e-06
-1.2192913e-07
-1.9724538e-06
1.0774735e-05
-2.1941133e-07
-2.6030327e-06
1.4571931e-05
-3.7027202e-07
-3.4267615e-06
1.9670812e-05
-5.9886392e-07
-4.4998199e-06
2.6503798e-05
-9.3917096e-07
-5.8935823e-06
3.5640419e-05
-1.4380713e-06
-7.6982893e-06
4.7827646e-05
-2.1594964e-06
-1.0027452e-05
6.4040683e-05
-3.1896642e-06
-1.3023095e-05
8.5546476e-05
-4.6435885e-06
-1.6861945e-05
0.0001139825
-6.673104e-06
-2.1762701e-05
0.00015145389
-9.4766991e-06
-2.7994536e-05
0.0002006525
-1.3311539e-05
-3.5887006e-05
0.00026500223
-1.850819e-05
-4.5841602e-05
0.00034883589
-2.5488699e-05
-5.8345175e-05
0.00045760999
-3.4788974e-05
-7.3985537e-05
0.00059816512
-4.7086265e-05
-9.3469471e-05
0.00077904139
-6.3233703e-05
-0.00011764334
0.0010108573
-8.4300292e-05
-0.00014751646
0.0013067677
-0.00011162413
-0.00018428721
0.0016829956
-0.00014685718
-0.00022937169
0.002159482
-0.00019205174
-0.00028443557
0.0027605577
-0.00024965952
-0.00035141689
0.003515835
-0.00032273143
-0.00043254642
0.0044608773
-0.00041476214
-0.00053028075
0.0056383047
-0.00053027622
-0.00064715115
0.0070985995
-0.00067423346
-0.00078606169
0.0088990316
-0.00085130012
-0.00094913006
0.011113461
-0.0010727435
-0.001141688
0.013796877
-0.0013210227
-0.0013623883
-0.0016774528
0.017105157
-0.0016308289
2.7554535e-10
-2.2371243e-10
1.2701983e-09
-8.0971082e-10
3.3065804e-09
-1.6631629e-09
6.8295339e-09
-2.8900187e-09
1.2450553e-08
-4.6369535e-09
2.1007891e-08
-7.1068798e-09
3.364808e-08
-1.058043e-08
5.1936337e-08
-1.5445477e-08
7.8005934e-08
-2.2237801e-08
1.1476015e-07
-3.1697106e-08
1.6614501e-07
-4.4844026e-08
2.3751741e-07
-6.3085949e-08
3.3614122e-07
-8.8362186e-08
4.7185545e-07
-1.2334289e-07
6.5797271e-07
-1.717011e-07
9.1248588e-07
-2.3848393e-07
1.2596858e-06
-3.3061773e-07
1.7323263e-06
-4.5759371e-07
2.374515e-06
-6.3239444e-07
3.2455637e-06
-8.7274106e-07
4.4251013e-06
-1.2027634e-06
6.0198389e-06
-1.6552231e-06
8.172486e-06
-2.2744522e-06
1.1073446e-05
-3.1202096e-06
1.4976074e-05
-4.2726946e-06
2.021647e-05
-5.8390063e-06
2.723898e-05
-7.961378e-06
3.6628816e-05
-1.0827563e-05
4.9153478e-05
-1.4683787e-05
6.5814936e-05
-1.9850745e-05
8.7914847e-05
-2.6743154e-05
0.0001171355
-3.5893494e-05
0.0001556396
-4.7980682e-05
0.00020619256
-6.3864639e-05
0.00027231187
-8.4628023e-05
0.00035844886
-0.00011162672
0.00047020951
-0.00014655128
0.00061462223
-0.0001915013
0.00080046225
-0.00024907666
0.0010386418
-0.00032248326
0.0013426811
-0.0004156672
0.0017292578
-0.00053343779
0.0022188724
-0.00068167023
0.0028365512
-0.00086734181
0.0036127394
-0.0010989232
0.0045840546
-0.001386079
0.005794314
-0.0017405374
0.0072956178
-0.0021755332
0.0091468034
-0.00270249
0.011424325
-0.0033502511
0.014184697
-0.0040813953
-0.0050814106
0.01758868
2.846568e-10
-5.0833848e-10
1.3121554e-09
-1.8371583e-09
3.4157973e-09
-3.7667333e-09
7.0551527e-09
-6.5292638e-09
1.2861967e-08
-1.0443604e-08
2.1702367e-08
-1.5947036e-08
3.4761118e-08
-2.3638815e-08
5.3655755e-08
-3.4339562e-08
8.0591058e-08
-4.9172272e-08
1.1856787e-07
-6.9672667e-08
1.7166519e-07
-9.7939448e-08
2.454208e-07
-1.3683872e-07
3.4734444e-07
-1.9028161e-07
4.8760886e-07
-2.6360109e-07
6.7997895e-07
-3.6406212e-07
9.430597e-07
-5.0155164e-07
1.3019691e-06
-6.8950871e-07
1.7905769e-06
-9.4617575e-07
2.4544931e-06
-1.2962753e-06
3.3550484e-06
-1.7732485e-06
4.5745786e-06
-2.4222296e-06
6.2234155e-06
-3.3039756e-06
8.4490986e-06
-4.5000261e-06
1.1448456e-05
-6.1194285e-06
1.5483363e-05
-8.3074314e-06
2.090118e-05
-1.1256621e-05
2.816108e-05
-1.5221048e-05
3.7867726e-05
-2.0533959e-05
5.0814021e-05
-2.762983e-05
6.8034976e-05
-3.7071461e-05
9.0875029e-05
-4.9583008e-05
0.00012107161
-6.6089945e-05
0.00016085816
-8.7767215e-05
0.00021309051
-0.00011609711
0.00028140115
-0.00015293897
0.00037038719
-0.00020061328
0.00048583879
-0.00026200362
0.00063501634
-0.00034067978
0.00082698652
-0.00044104793
0.0010730272
-0.00056852512
0.0013871159
-0.00072975713
0.0017865029
-0.00093282598
0.0022923995
-0.0011875679
0.0029307216
-0.0015056649
0.0037329958
-0.0019011981
0.0047372119
-0.0023902957
0.0059887992
-0.0029921244
0.0075419762
-0.0037287109
0.0094578852
-0.0046183971
0.011816225
-0.0057085903
0.014676642
-0.0069418101
-0.0086095304
0.018204766
2.9566669e-10
-8.0397353e-10
1.3628412e-09
-2.9042822e-09
3.5476827e-09
-5.9515061e-09
7.327647e-09
-1.0309122e-08
1.3359118e-08
-1.6474918e-08
2.2542079e-08
-2.5129763e-08
3.6107772e-08
-3.7204159e-08
5.5737445e-08
-5.3968709e-08
8.3723009e-08
-7.7157044e-08
1.231843e-07
-1.0913276e-07
1.7836262e-07
-1.5311597e-07
2.5501673e-07
-2.1349014e-07
3.6095698e-07
-2.9621784e-07
5.0676406e-07
-4.0940226e-07
7.067562e-07
-5.6404565e-07
9.8028724e-07
-7.7507033e-07
1.3534872e-06
-1.0626912e-06
1.8615907e-06
-1.4542549e-06
2.5520455e-06
-1.9866966e-06
3.4886504e-06
-2.7098082e-06
4.7570488e-06
-3.6905676e-06
6.471993e-06
-5.0188404e-06
8.7869141e-06
-6.8148447e-06
1.1906468e-05
-9.238853e-06
1.6102898e-05
-1.2503701e-05
2.1737243e-05
-1.6890776e-05
2.9286659e-05
-2.2770246e-05
3.9379355e-05
-3.0626418e-05
5.2838942e-05
-4.1089175e-05
7.0740295e-05
-5.497259e-05
9.44794e-05
-7.3321931e-05
0.00012586005
-9.7470485e-05
0.00016720076
-0.00012910794
0.00022146602
-0.00017036253
0.00029242661
-0.00022389991
0.00038485502
-0.00029304225
0.00050476327
-0.00038191265
0.00065969181
-0.00049560929
0.0008590601
-0.00064041736
0.00111459
-0.00082405631
0.0014408169
-0.0010559853
0.0018556924
-0.0013477028
0.0023813047
-0.0017131814
0.0030446719
-0.0021690331
0.0038786764
-0.0027352035
0.0049230268
-0.0034346466
0.0062252308
-0.0042943287
0.0078421632
-0.0053456428
0.0098381123
-0.0066143461
0.012296689
-0.0081671628
0.015282472
-0.0099275961
-0.012292977
0.01896593
3.0864862e-10
-1.1125901e-09
1.4226886e-09
-4.0182752e-09
3.7034893e-09
-8.2322468e-09
7.649588e-09
-1.4255128e-08
1.3946505e-08
-2.2771697e-08
2.3534384e-08
-3.4717438e-08
3.7699692e-08
-5.1369161e-08
5.8199453e-08
-7.4468009e-08
8.7429398e-08
-1.0638629e-07
1.2865138e-07
-1.503537e-07
1.8630059e-07
-2.1076358e-07
2.6640015e-07
-2.9358731e-07
3.7712015e-07
-4.0693426e-07
5.2953032e-07
-5.618071e-07
7.3861207e-07
-7.7311959e-07
1.0246174e-06
-1.0610644e-06
1.4148904e-06
-1.452948e-06
1.9463027e-06
-1.9856447e-06
2.6685055e-06
-2.7088684e-06
3.6482561e-06
-3.6895167e-06
4.9751593e-06
-5.0174147e-06
6.7692582e-06
-6.8128655e-06
9.1910278e-06
-9.2365192e-06
1.2454473e-05
-1.2502178e-05
1.68442e-05
-1.689328e-05
2.2737542e-05
-2.2783941e-05
3.0633042e-05
-3.0665546e-05
4.118687e-05
-4.1180031e-05
5.5259045e-05
-5.5161134e-05
7.3971648e-05
-7.3684998e-05
9.8781617e-05
-9.8131755e-05
0.00013157113
-0.00013025994
0.00017475916
-0.00017229602
0.0002314384
-0.00022704198
0.0003055428
-0.0002980047
0.00040205198
-0.00038955202
0.00052724022
-0.0005071017
0.00068897957
-0.00065734964
0.00089710814
-0.0008485471
0.0011638761
-0.0010908256
0.0015044849
-0.0013965954
0.0019377264
-0.0017809456
0.0024867456
-0.0022622019
0.0031798929
-0.0028621814
0.0040517043
-0.0036070158
0.0051439848
-0.0045269275
0.0065068278
-0.005657172
0.0082003568
-0.0070391707
0.010292911
-0.0087069012
0.012872772
-0.010747018
0.016011297
-0.013066125
-0.016165636
0.019883971
3.2376945e-10
-1.4363266e-09
1.4923655e-09
-5.1868261e-09
3.8849022e-09
-1.0624729e-08
8.0245314e-09
-1.8394672e-08
1.4630818e-08
-2.9377859e-08
2.4690885e-08
-4.4777318e-08
3.9555861e-08
-6.6233858e-08
6.1071651e-08
-9.5983378e-08
9.1755867e-08
-1.3706988e-07
1.3503726e-07
-1.9363413e-07
1.955791e-07
-2.7130396e-07
2.7971581e-07
-3.7772181e-07
3.9604144e-07
-5.2325658e-07
5.5620225e-07
-7.21963e-07
7.7596211e-07
-9.9287225e-07
1.076633e-06
-1.3617249e-06
1.4869914e-06
-1.8632916e-06
2.0458417e-06
-2.5444744e-06
2.8054352e-06
-3.4684337e-06
3.836019e-06
-4.7200625e-06
5.2318689e-06
-6.4132141e-06
7.1192613e-06
-8.7001921e-06
9.666964e-06
-1.1784137e-05
1.3099976e-05
-1.5935083e-05
1.771743e-05
-2.1510602e-05
2.3915772e-05
-2.8982128e-05
3.2218606e-05
-3.8968204e-05
4.3314819e-05
-5.2276057e-05
5.8106968e-05
-6.99531e-05
7.7772223e-05
-9.3350095e-05
0.00010383857
-0.000124198
0.00013827948
-0.00016470083
0.00018363079
-0.00021764743
0.00024313435
-0.00028654579
0.00032091394
-0.00037578472
0.00042219021
-0.00049082892
0.00055354298
-0.00063845529
0.00072323105
-0.00082703871
0.00094158175
-0.001066899
0.001221464
-0.0013707092
0.0015788613
-0.0017539941
0.0020335556
-0.0022356411
0.0026099421
-0.0028385896
0.003337952
-0.0035901921
0.0042540952
-0.0045231596
0.0054026827
-0.0056755154
0.0068369417
-0.0070914309
0.0086208942
-0.0088231218
0.010827895
-0.010913902
0.013551753
-0.01347087
0.016872471
-0.016386846
-0.020264096
0.020970948
3.4115055e-10
-1.7774438e-09
1.5724558e-09
-6.418091e-09
4.0934406e-09
-1.3145669e-08
8.4556078e-09
-2.2756769e-08
1.541778e-08
-3.6339929e-08
2.6021308e-08
-5.5380695e-08
4.16921e-08
-8.1904423e-08
6.4378904e-08
-1.1866984e-07
9.6740595e-08
-1.6943104e-07
1.4239947e-07
-2.3929221e-07
2.0628374e-07
-3.35187e-07
2.9508955e-07
-4.6652577e-07
4.1790416e-07
-6.4606838e-07
5.8704488e-07
-8.9109952e-07
8.191869e-07
-1.225008e-06
1.1368769e-06
-1.6794058e-06
1.5705613e-06
-2.2969631e-06
2.1612963e-06
-3.1351914e-06
2.9643629e-06
-4.2714756e-06
4.0540737e-06
-5.8097399e-06
5.5301426e-06
-7.8892389e-06
7.5260989e-06
-1.0696091e-05
1.0220351e-05
-1.4478316e-05
1.3850668e-05
-1.9565308e-05
1.8733031e-05
-2.6392853e-05
2.528604e-05
-3.5535005e-05
3.4062299e-05
-4.7744314e-05
4.5788514e-05
-6.4002116e-05
6.1416351e-05
-8.5580791e-05
8.2186495e-05
-0.00011412013
0.00010970877
-0.00015172022
0.00014606168
-0.00020105378
0.00019391546
-0.00026550137
0.00025668342
-0.00034931406
0.00033870753
-0.0004578093
0.00044548558
-0.00059760762
0.00058394893
-0.00077691946
0.00076280188
-0.0010058927
0.00099293613
-0.0012970344
0.0012879356
-0.00166571
0.00166469
-0.0021307497
0.0021441304
-0.0027150828
0.0027521101
-0.0034465702
0.0035204064
-0.0043584892
0.004487845
-0.0054905985
0.0057016832
-0.0068893538
0.0072188701
-0.008608617
0.0091080327
-0.010712283
0.011448563
-0.013254432
0.014340748
-0.016363048
0.017875103
-0.019921204
-0.024627565
0.022238592
3.6095867e-10
-2.1383675e-09
1.6637269e-09
-7.7208212e-09
4.3311038e-09
-1.581301e-08
8.9469481e-09
-2.7372555e-08
1.6314943e-08
-4.3707839e-08
2.7538473e-08
-6.66041e-08
4.4129052e-08
-9.8494815e-08
6.8153317e-08
-1.4269382e-07
1.0243217e-07
-2.0370947e-07
1.5081027e-07
-2.8766964e-07
2.1852019e-07
-4.0289591e-07
3.1267421e-07
-5.6067822e-07
4.4292724e-07
-7.7631903e-07
6.2236935e-07
-1.070538e-06
8.6872556e-07
-1.4713589e-06
1.2059658e-06
-2.0166383e-06
1.6664609e-06
-2.7574471e-06
2.2938629e-06
-3.7625779e-06
3.1469452e-06
-5.1245367e-06
4.3047037e-06
-6.9674702e-06
5.8731166e-06
-9.4576149e-06
7.9940616e-06
-1.2816989e-05
1.0857035e-05
-1.734123e-05
1.471448e-05
-2.3422679e-05
1.9901725e-05
-3.1580008e-05
2.6862771e-05
-4.2495946e-05
3.618344e-05
-5.706487e-05
4.8633699e-05
-7.6452262e-05
6.5221327e-05
-0.00010216832
8.7259495e-05
-0.00013615824
0.00011645132
-0.00018091205
0.00015499494
-0.00023959751
0.00020571357
-0.00031622024
0.00027221557
-0.00041581644
0.00035909111
-0.00054468538
0.00047215331
-0.00071067052
0.00061873371
-0.00092350073
0.00080804426
-0.0011952042
0.0010516205
-0.0015406118
0.0013638633
-0.001977954
0.0017626994
-0.0025295872
0.0022703784
-0.003222763
0.002914431
-0.0040906237
0.0037287634
-0.0051728222
0.0047548774
-0.0065167126
0.006043445
-0.0081779215
0.0076557636
-0.010220934
0.0096658276
-0.012722344
0.01216014
-0.015748743
0.015246508
-0.019449408
0.019027788
-0.023702487
-0.029297722
0.023697969
3.8333334e-10
-2.5216641e-09
1.766824e-09
-9.1042768e-09
4.5995872e-09
-1.8645746e-08
9.5020879e-09
-3.2275011e-08
1.732881e-08
-5.1534497e-08
2.9253484e-08
-7.8528681e-08
4.6884763e-08
-1.1612595e-07
7.2423218e-08
-1.6823206e-07
1.0887397e-07
-2.4015989e-07
1.6033464e-07
-3.3912981e-07
2.3238457e-07
-4.7494505e-07
3.3261021e-07
-6.6090264e-07
4.713138e-07
-9.1502072e-07
6.6246715e-07
-1.2616885e-06
9.249938e-07
-1.7338813e-06
1.2844885e-06
-2.3761266e-06
1.7755195e-06
-3.2484691e-06
2.4447038e-06
-4.4317496e-06
3.3548014e-06
-6.0346174e-06
4.5901559e-06
-8.2028025e-06
6.2638918e-06
-1.1131322e-05
8.5274067e-06
-1.5080468e-05
1.1582834e-05
-2.0396613e-05
1.5699323e-05
-2.7539114e-05
2.1234206e-05
-3.7114828e-05
2.8660346e-05
-4.9922016e-05
3.8601266e-05
-6.7005717e-05
5.1875974e-05
-8.9726905e-05
6.9555775e-05
-0.00011984808
9.3035818e-05
-0.00015963829
0.0001241246
-0.00021200092
0.00016515531
-0.00028062842
0.00021912367
-0.00037018892
0.00028985792
-0.00048655115
0.00038222795
-0.00063705603
0.00050240232
-0.00083084566
0.00065816383
-0.0010792632
0.00085929725
-0.0013963387
0.0011180653
-0.0017993811
0.0014497928
-0.0023096828
0.001873581
-0.0029533768
0.002413175
-0.0037623581
0.0030980146
-0.0047754641
0.0039644308
-0.0060392389
0.0050569777
-0.0076092596
0.0064302347
-0.0095511782
0.0081505091
-0.011941208
0.010297978
-0.01486981
0.012967383
-0.018418149
0.016275157
-0.022757172
0.020338245
-0.027765581
-0.034318513
0.025359062
4.084319e-10
-2.9300576e-09
1.8824792e-09
-1.0578294e-08
4.9007731e-09
-2.1664026e-08
1.0124928e-08
-3.7499139e-08
1.8466555e-08
-5.9876088e-08
3.1178512e-08
-9.1240585e-08
4.9978913e-08
-1.3492628e-07
7.7219242e-08
-1.9547227e-07
1.1611253e-07
-2.79053e-07
1.7104206e-07
-3.9405903e-07
2.4797883e-07
-5.5188133e-07
3.5504546e-07
-7.6796848e-07
5.0327648e-07
-1.0632505e-06
7.0764149e-07
-1.4660515e-06
9.8842045e-07
-2.0146572e-06
1.3730481e-06
-2.7607498e-06
1.8985815e-06
-3.773996e-06
2.614994e-06
-5.1481532e-06
3.5895606e-06
-7.0091721e-06
4.9126764e-06
-9.5259029e-06
6.7055515e-06
-1.2924178e-05
9.1303489e-06
-1.7505242e-05
1.2403479e-05
-2.3669716e-05
1.6812956e-05
-3.1948561e-05
2.274093e-05
-4.3042768e-05
3.0692785e-05
-5.7873838e-05
4.1334475e-05
-7.7647379e-05
5.5540134e-05
-0.00010393255
7.4452403e-05
-0.00013876038
9.9558365e-05
-0.00018474433
0.00013278459
-0.0002452273
0.00017661539
-0.0003244595
0.00023423944
-0.00042781338
0.00030973075
-0.00056204302
0.0004082718
-0.00073559779
0.00053642829
-0.00095900298
0.00070248743
-0.0012453233
0.00091687458
-0.001610727
0.0011926665
-0.0020751743
0.0015462227
-0.0026632404
0.0019979621
-0.0034051175
0.0025733087
-0.0043377059
0.0033038523
-0.0055060084
0.0042286563
-0.0069640433
0.0053957129
-0.0087763163
0.006864019
-0.011019484
0.0087055872
-0.013782775
0.011007638
-0.017171857
0.013874335
-0.021284848
0.017431873
-0.026314697
0.021812625
-0.032146341
-0.039736565
0.027230706
4.3639811e-10
-3.3664152e-09
2.0113377e-09
-1.2153208e-08
5.2363861e-09
-2.4889073e-08
1.0819031e-08
-4.3081777e-08
1.973468e-08
-6.879173e-08
3.3324665e-08
-1.0483056e-07
5.3429456e-08
-1.5503106e-07
8.2569546e-08
-2.2461234e-07
1.2419082e-07
-3.2067423e-07
1.8299668e-07
-4.5286481e-07
2.6539749e-07
-6.3428198e-07
3.8011763e-07
-8.826883e-07
5.390136e-07
-1.2221459e-06
7.5817571e-07
-1.6852126e-06
1.0594082e-06
-2.315888e-06
1.4722129e-06
-3.173552e-06
2.0364433e-06
-4.3382226e-06
2.8058447e-06
-5.9175496e-06
3.8527634e-06
-8.0560843e-06
5.2743911e-06
-1.0947523e-05
7.2010156e-06
-1.4850794e-05
9.8068771e-06
-2.0111096e-05
1.3324393e-05
-2.7187225e-05
1.8062707e-05
-3.668687e-05
2.4431747e-05
-4.9411808e-05
3.2973253e-05
-6.6415351e-05
4.4400563e-05
-8.9074711e-05
5.9649302e-05
-0.00011918134
7.994158e-05
-0.00015905274
0.00010686679
-0.0002116697
0.00014248272
-0.00028084349
0.00018944154
-0.00037141869
0.00025114598
-0.00048951832
0.00033194258
-0.00064284026
0.00043736029
-0.00084101626
0.00057440497
-0.0010960486
0.00075192292
-0.0014228422
0.0009810499
-0.0018398551
0.0012757657
-0.0023698914
0.0016535791
-0.0030410552
0.0021363728
-0.0038879125
0.0027514378
-0.0049527719
0.0035327617
-0.006287333
0.0045224542
-0.007953736
0.0057723356
-0.010026198
0.0073463362
-0.012593484
0.0093228987
-0.015759339
0.011797198
-0.019646151
0.014884068
-0.02437172
0.018720931
-0.030151545
0.023462002
-0.036887422
-0.04560205
0.029327517
4.6736423e-10
-3.8337363e-09
2.1540288e-09
-1.3839851e-08
5.6080291e-09
-2.8343086e-08
1.1587747e-08
-4.9061507e-08
2.1139353e-08
-7.834336e-08
3.5702401e-08
-1.1939365e-07
5.725334e-08
-1.7658206e-07
8.850058e-08
-2.5585967e-07
1.3314905e-07
-3.6532281e-07
1.9625858e-07
-5.1597448e-07
2.8472909e-07
-7.2275266e-07
4.0795528e-07
-1.0059147e-06
5.7871012e-07
-1.3929008e-06
8.1433393e-07
-1.9208365e-06
1.1383306e-06
-2.6398846e-06
1.5825082e-06
-3.6177292e-06
2.1898398e-06
-4.9455535e-06
3.0182775e-06
-6.7459865e-06
4.1458234e-06
-9.1836297e-06
5.6772462e-06
-1.2478946e-05
7.7529468e-06
-1.6926498e-05
1.0560614e-05
-2.291877e-05
1.4350478e-05
-3.0977104e-05
1.9455176e-05
-4.1791592e-05
2.6315489e-05
-5.6272157e-05
3.55135e-05
-7.5613416e-05
4.7815062e-05
-0.00010137635
6.4223875e-05
-0.00013559026
8.6049916e-05
-0.00018087895
0.00011499556
-0.00024061558
0.00015326338
-0.00031911165
0.00020369047
-0.00042184625
0.00026991526
-0.00055574371
0.00035658413
-0.00072950985
0.00046960704
-0.00095404
0.00061647379
-0.0012429162
0.00080664538
-0.0016130148
0.0010520388
-0.0020852497
0.0013676276
-0.0026854814
0.0017721854
-0.0034456143
0.002289207
-0.0044049353
0.0029480402
-0.0056116059
0.0037853216
-0.0071246148
0.0048465195
-0.0090149341
0.006187672
-0.011367351
0.0078781416
-0.014283952
0.010003554
-0.017884751
0.012667954
-0.022310544
0.015998273
-0.027702042
0.020145175
-0.034298431
0.025285545
-0.042027803
-0.051962031
0.031645554
5.014471e-10
-4.3351376e-09
2.3110811e-09
-1.5649469e-08
6.0171127e-09
-3.2049144e-08
1.2433987e-08
-5.5478415e-08
2.2685924e-08
-8.8595352e-08
3.8320831e-08
-1.3502864e-07
6.1465321e-08
-1.9972668e-07
9.5035428e-08
-2.8942997e-07
1.4302239e-07
-4.1331006e-07
2.1088035e-07
-5.8383283e-07
3.0605057e-07
-8.1792342e-07
4.3867014e-07
-1.1385349e-06
6.2252684e-07
-1.5767584e-06
8.7634482e-07
-2.1746556e-06
1.2255112e-06
-2.9890523e-06
1.7043884e-06
-4.0966082e-06
2.3594046e-06
-5.6005723e-06
3.2531715e-06
-7.6397571e-06
4.469952e-06
-1.0400416e-05
6.1228995e-06
-1.4131904e-05
8.3636026e-06
-1.9167217e-05
1.1394618e-05
-2.594981e-05
1.548585e-05
-3.5068374e-05
2.0995866e-05
-4.7301663e-05
2.8399463e-05
-6.3675831e-05
3.8323159e-05
-8.5537215e-05
5.1590585e-05
-0.00011464391
6.928024e-05
-0.0001532801
9.2798534e-05
-0.00020439749
0.00012397169
-0.00027178907
0.00016516076
-0.00036030117
0.00021940511
-0.00047609117
0.00029060068
-0.00062693998
0.00038372116
-0.00082263114
0.00050509222
-0.001075412
0.00066273148
-0.0014005564
0.00086677032
-0.0018170547
0.0011299779
-0.0023484584
0.0014684118
-0.0030239165
0.0019022264
-0.0038794302
0.0024566764
-0.0049593863
0.0031633543
-0.0063182844
0.004061796
-0.0080230566
0.0052011276
-0.010154266
0.0066419907
-0.012808214
0.0084596039
-0.016101563
0.010747717
-0.020172865
0.013620344
-0.025183162
0.017217034
-0.031298738
0.021702049
-0.03878343
0.027273495
-0.047599261
-0.058860766
0.034172256
5.3873625e-10
-4.8738246e-09
2.4829032e-09
-1.7593625e-08
6.4646674e-09
-3.603095e-08
1.3359879e-08
-6.2373681e-08
2.437828e-08
-9.9613842e-08
4.1186612e-08
-1.5183711e-07
6.6076227e-08
-2.246165e-07
1.0219093e-07
-3.2554498e-07
1.5383651e-07
-4.6495608e-07
2.2690034e-07
-6.5689729e-07
3.2941879e-07
-9.2044276e-07
4.7234487e-07
-1.2814622e-06
6.7058242e-07
-1.7749977e-06
9.4437817e-07
-2.4484536e-06
1.3211902e-06
-3.3658673e-06
1.8381907e-06
-4.6136129e-06
2.5456083e-06
-6.3079956e-06
3.5111768e-06
-8.6053338e-06
4.8260423e-06
-1.1715294e-05
6.6125717e-06
-1.5918452e-05
9.0346377e-06
-2.1589311e-05
1.2311111e-05
-2.9226326e-05
1.6733472e-05
-3.9490797e-05
2.2688691e-05
-5.3256969e-05
3.06888e-05
-7.1676059e-05
4.1408888e-05
-9.6257459e-05
5.5735676e-05
-0.0001289709
7.4829235e-05
-0.00017237392
0.00010020101
-0.0002297696
0.00013381193
-0.00030540042
0.00017819525
-0.00040468504
0.00023660981
-0.00053450641
0.00031323068
-0.00070356166
0.00041338607
-0.00092278743
0.00054385154
-0.0012058784
0.00071321565
-0.0015699215
0.0009323348
-0.0020361749
0.0012148996
-0.0026310243
0.0015781406
-0.0033871585
0.0020437063
-0.0043449969
0.0026387554
-0.0055544363
0.0033973105
-0.0070768397
0.0043620475
-0.0089877935
0.0055860135
-0.011378231
0.0071348098
-0.01435701
0.0090900797
-0.01805683
0.011554498
-0.022637284
0.014653123
-0.028281778
0.018537408
-0.03518303
0.023387531
-0.043633536
0.029425556
-0.053637297
-0.066339304
0.036904116
5.7928672e-10
-5.453058e-09
2.6697507e-09
-1.9684082e-08
6.9513985e-09
-4.0312654e-08
1.4366924e-08
-6.9789282e-08
2.6219171e-08
-1.1146621e-07
4.4304376e-08
-1.699225e-07
7.1093445e-08
-2.5140585e-07
1.0997873e-07
-3.6443068e-07
1.656092e-07
-5.2058716e-07
2.4434471e-07
-7.3563368e-07
3.5487178e-07
-1.0309711e-06
5.0903434e-07
-1.4356265e-06
7.2295509e-07
-1.9889208e-06
1.0185435e-06
-2.7440453e-06
1.4255199e-06
-3.7728483e-06
1.9841251e-06
-5.1722243e-06
2.7487368e-06
-7.0726161e-06
3.7926813e-06
-9.649291e-06
5.2146146e-06
-1.3137246e-05
7.1469505e-06
-1.7850815e-05
9.7669515e-06
-2.4209353e-05
1.3311257e-05
-3.277069e-05
1.8094826e-05
-4.4274451e-05
2.4535513e-05
-5.9697774e-05
3.3185782e-05
-8.0326487e-05
4.477342e-05
-0.00010784531
6.0253502e-05
-0.00014445125
8.0874373e-05
-0.00019299513
0.00010826098
-0.00025715663
0.00014451963
-0.0003416596
0.00019236917
-0.00045253524
0.00025530467
-0.00059744271
0.00033780133
-0.00078605923
0.00044556812
-0.0010305552
0.00058586341
-0.0013461747
0.00076788807
-0.0017519472
0.0010032757
-0.0022715635
0.0013067046
-0.0029344542
0.0016966621
-0.0037771171
0.0021963997
-0.0048447354
0.0028351188
-0.0061931558
0.003649455
-0.0078911759
0.0046854563
-0.010023794
0.006000336
-0.012693111
0.0076644352
-0.016021109
0.0097680713
-0.020160462
0.012421985
-0.025291199
0.015761273
-0.031621053
0.019953866
-0.039375632
0.025195358
-0.048875013
0.031732888
-0.060174836
-0.074438024
0.039831623
6.2308801e-10
-6.0760879e-09
2.871592e-09
-2.1932582e-08
7.4771897e-09
-4.4918321e-08
1.5454829e-08
-7.7767016e-08
2.8208119e-08
-1.2421965e-07
4.7673339e-08
-1.8938795e-07
7.6515835e-08
-2.8024869e-07
1.1839705e-07
-4.0631242e-07
1.7833769e-07
-5.8052856e-07
2.6321004e-07
-8.2050715e-07
3.8240486e-07
-1.1501675e-06
5.4873214e-07
-1.6019561e-06
7.7963622e-07
-2.2198281e-06
1.0988292e-06
-3.0632427e-06
1.5384844e-06
-4.2125095e-06
2.1421687e-06
-5.7759172e-06
2.9687564e-06
-7.8992158e-06
4.0976325e-06
-1.0778184e-05
5.6355847e-06
-1.4675223e-05
7.7259004e-06
-1.9941166e-05
1.0560323e-05
-2.7043828e-05
1.4394695e-05
-3.6605138e-05
1.9569322e-05
-4.9449187e-05
2.6535371e-05
-6.6663972e-05
3.5888868e-05
-8.9680185e-05
4.8414306e-05
-0.000120371
6.514022e-05
-0.0001611775
8.740969e-05
-0.00021526501
0.0001169693
-0.00028671675
0.00015608095
-0.00038077188
0.00020766181
-0.00050411686
0.00027545907
-0.00066524088
0.00036426781
-0.00087486898
0.00048020235
-0.0011464908
0.00063103454
-0.001497008
0.00082661588
-0.0019475296
0.0010794052
-0.0025243537
0.0014051289
-0.0032601788
0.0018236085
-0.0041955975
0.0023597972
-0.0053809248
0.0030450712
-0.0068784301
0.0039188828
-0.0087649871
0.0050309665
-0.011135878
0.0064419643
-0.014104108
0.0082280907
-0.017807235
0.010488672
-0.02242104
0.013343973
-0.028146502
0.016939371
-0.03521644
0.021458312
-0.04389458
0.02711452
-0.054531209
0.034180834
-0.067241156
-0.083193534
0.042936351
6.7010417e-10
-6.7461287e-09
3.0882396e-09
-2.4350718e-08
8.041579e-09
-4.9871745e-08
1.6622649e-08
-8.6348202e-08
3.0343302e-08
-1.3794048e-07
5.129042e-08
-2.1033535e-07
8.2338309e-08
-3.11297e-07
1.2743789e-07
-4.5141263e-07
1.9200971e-07
-6.4510132e-07
2.8347737e-07
-9.1197617e-07
4.1198936e-07
-1.2786814e-06
5.9139535e-07
-1.7813649e-06
8.4056141e-07
-2.4689981e-06
1.1851398e-06
-3.4078267e-06
1.659942e-06
-4.6873193e-06
2.3121124e-06
-6.4280983e-06
3.2053595e-06
-8.792478e-06
4.4255782e-06
-1.1998424e-05
6.0882898e-06
-1.6337965e-05
8.3484527e-06
-2.2201374e-05
1.1413342e-05
-3.0108781e-05
1.5559374e-05
-4.0751262e-05
2.1153995e-05
-5.5043938e-05
2.868399e-05
-7.4194145e-05
3.8791923e-05
-9.9788355e-05
5.2322775e-05
-0.00013390216
7.0383344e-05
-0.00017923846
9.4417477e-05
-0.00023929963
0.00012630098
-0.00031860084
0.00016846074
-0.00042293236
0.00022402396
-0.00055968093
0.0002970044
-0.0007382223
0.00039253487
-0.00097040054
0.0005171571
-0.0012711142
0.00067918371
-0.0016590357
0.0008891506
-0.0021574976
0.0011603837
-0.0027955879
0.0015097099
-0.0036095059
0.0019583492
-0.0046442375
0.0025330374
-0.0059556136
0.0032674287
-0.0076128215
0.0042039363
-0.0097014941
0.0053950973
-0.012327038
0.0069058825
-0.015614891
0.0088225386
-0.01972389
0.011249747
-0.024848244
0.014315037
-0.031211796
0.018178531
-0.039079923
0.02303905
-0.048755105
0.029128963
-0.060621113
0.036747919
-0.074860114
-0.092635066
0.046189449
7.2014836e-10
-7.466208e-09
3.3188387e-09
-2.6949411e-08
8.642315e-09
-5.5195318e-08
1.7865791e-08
-9.5571814e-08
3.2616389e-08
-1.5269129e-07
5.5141507e-08
-2.3286079e-07
8.8538286e-08
-3.4469427e-07
1.3706633e-07
-4.9994141e-07
2.0657267e-07
-7.1460875e-07
3.0506898e-07
-1.0104741e-06
4.4351251e-07
-1.4171273e-06
6.3686199e-07
-1.9747176e-06
9.0550082e-07
-2.7376416e-06
1.2771506e-06
-3.779483e-06
1.7894368e-06
-5.1996146e-06
2.4933179e-06
-7.1319922e-06
3.4576554e-06
-9.7568334e-06
4.7752787e-06
-1.3316073e-05
6.5710075e-06
-1.813373e-05
9.012217e-06
-2.4642635e-05
1.232269e-05
-3.3419328e-05
1.6800696e-05
-4.5229374e-05
2.2842468e-05
-6.1085859e-05
3.0972537e-05
-8.2324417e-05
4.1882704e-05
-0.00011069879
5.6481878e-05
-0.00014850168
7.5959426e-05
-0.00019871644
0.00010186537
-0.00026520611
0.00013621141
-0.00035294752
0.0001815977
-0.00046831942
0.00024137159
-0.00061945572
0.00031982585
-0.00081667759
0.00042244618
-0.001073022
0.00055622026
-0.0014048895
0.00073002401
-0.0018328406
0.00095510535
-0.00238258
0.0012456909
-0.0030861744
0.0016197482
-0.003983564
0.0020999425
-0.0051244324
0.0027148385
-0.0065705102
0.0035003935
-0.0083983764
0.0045017589
-0.010702859
0.0057751665
-0.013600445
0.0073924211
-0.017232145
0.0094447681
-0.021776236
0.012042762
-0.027446233
0.015325732
-0.034494769
0.019466346
-0.043220525
0.024679587
-0.053968352
0.03121677
-0.067158292
0.03940497
-0.083048312
-0.10278231
0.049552204
7.7304731e-10
-8.2391798e-09
3.5625851e-09
-2.9738953e-08
9.2773134e-09
-6.0910156e-08
1.9179814e-08
-1.0547446e-07
3.5019157e-08
-1.6853087e-07
5.9212477e-08
-2.5705448e-07
9.5092685e-08
-3.8057503e-07
1.4724589e-07
-5.5209544e-07
2.2197046e-07
-7.8933454e-07
3.2790003e-07
-1.1164054e-06
4.7684743e-07
-1.5660773e-06
6.8494451e-07
-2.1828184e-06
9.7417909e-07
-3.0268814e-06
1.3744601e-06
-4.1797714e-06
1.9263868e-06
-5.7515517e-06
2.6849467e-06
-7.8905665e-06
3.7244398e-06
-1.0796347e-05
5.1450123e-06
-1.4736674e-05
7.0812849e-06
-2.0070042e-05
9.7137113e-06
-2.7275119e-05
1.3283445e-05
-3.6989144e-05
1.8111726e-05
-5.0057772e-05
2.4625015e-05
-6.7599311e-05
3.3387421e-05
-9.1087045e-05
4.5142315e-05
-0.00012245398
6.0865438e-05
-0.00016422519
8.1832374e-05
-0.00021968385
0.00010970379
-0.0002930781
0.00014663276
-0.00038987719
0.00019539939
-0.00051708686
0.0002595792
-0.00068363648
0.00034375364
-0.00090085309
0.00045377287
-0.0011830424
0.00059708429
-0.0015482021
0.00078314366
-0.0020189011
0.0010239305
-0.0026233679
0.0013345956
-0.0033968404
0.0017342746
-0.0043832437
0.0022471102
-0.0056372686
0.0029035342
-0.0072269345
0.0037418618
-0.0092367037
0.0048102282
-0.011771224
0.0061691434
-0.01495936
0.0078956821
-0.018958684
0.010085801
-0.023966352
0.012858609
-0.030219036
0.016363898
-0.03800006
0.020786752
-0.047643367
0.026358491
-0.059540098
0.033349438
-0.074149239
0.042114125
-0.091812993
-0.11364281
0.05297461
8.2831021e-10
-9.0674072e-09
3.8172248e-09
-3.2727872e-08
9.940681e-09
-6.7033729e-08
2.0552608e-08
-1.1608655e-07
3.7529577e-08
-1.855081e-07
6.3466246e-08
-2.8299154e-07
1.0194202e-07
-4.190514e-07
1.5788467e-07
-6.0803899e-07
2.3806473e-07
-8.6951593e-07
3.5176691e-07
-1.2301095e-06
5.1169897e-07
-1.7260122e-06
7.3522024e-07
-2.4063437e-06
1.0459965e-06
-3.3376635e-06
1.4762254e-06
-4.6100084e-06
2.069614e-06
-6.3449516e-06
2.8853599e-06
-8.7063282e-06
4.0034441e-06
-1.1914453e-05
5.5316467e-06
-1.6264907e-05
7.6148117e-06
-2.2153251e-05
1.0447016e-05
-3.0107385e-05
1.4287497e-05
-4.0829712e-05
1.948137e-05
-5.5251769e-05
2.6486478e-05
-7.4604591e-05
3.5907958e-05
-0.00010050876
4.8542551e-05
-0.00013508888
6.5435065e-05
-0.0001811181
8.7949986e-05
-0.00024219927
0.00011786189
-0.00032299061
0.0001574691
-0.00042948511
0.00020973618
-0.00056935478
0.00027847217
-0.00075237343
0.00036855323