/*--------------------------------*- C++ -*----------------------------------*\
  =========                 |
  \\      /  F ield         | OpenFOAM: The Open Source CFD Toolbox
   \\    /   O peration     | Website:  https://openfoam.org
    \\  /    A nd           | Version:  13
     \\/     M anipulation  |
\*---------------------------------------------------------------------------*/
FoamFile
{
    format      ascii;
    class       volVectorField;
    location    "1000";
    object      U;
}
// * * * * * * * * * * * * * * * * * * * * * * * * * * * * * * * * * * * * * //

dimensions      [0 1 -1 0 0 0 0];

internalField   nonuniform List<vector> 
9536
(
(-5.8515433e-09 4.1927182e-07 1.0415268e-25)
(1.175824e-08 1.3181316e-06 -6.7822207e-26)
(7.7214913e-08 2.3484225e-06 -2.4171971e-26)
(2.1116596e-07 3.5307253e-06 -2.7813605e-25)
(4.4247461e-07 4.8885686e-06 6.2313191e-25)
(8.1056938e-07 6.4487268e-06 -5.7967321e-26)
(1.3697361e-06 8.241583e-06 -1.6383531e-26)
(2.1937017e-06 1.0301468e-05 -2.0545636e-25)
(3.3825442e-06 1.2667007e-05 -1.9179074e-25)
(5.0717559e-06 1.5381463e-05 -1.0432625e-25)
(7.4443083e-06 1.8493068e-05 3.9208282e-25)
(1.0746672e-05 2.2055335e-05 -6.4229907e-25)
(1.531001e-05 2.6127332e-05 8.2161566e-25)
(2.1578105e-05 3.077391e-05 5.0332196e-25)
(3.0143998e-05 3.6065882e-05 -8.5353863e-25)
(4.1797814e-05 4.2080125e-05 -4.8793677e-25)
(5.7588816e-05 4.889962e-05 5.8246802e-25)
(7.8905397e-05 5.6613428e-05 -6.4223686e-25)
(0.00010757737 6.5316614e-05 -1.1302751e-24)
(0.0001460056 7.5110166e-05 -5.5560514e-25)
(0.00019732447 8.6100954e-05 1.9911852e-24)
(0.00026560302 9.840183e-05 1.4347958e-24)
(0.00035609006 0.00011213197 -2.4321521e-24)
(0.00047550769 0.00012741761 -2.2595355e-24)
(0.00063239489 0.00014439337 3.7386568e-24)
(0.00083749918 0.00016320426 -1.1216893e-24)
(0.0011042082 0.00018400862 -3.7077437e-24)
(0.0014490044 0.00020698191 2.1393724e-24)
(0.0018919177 0.00023232134 -4.0215703e-25)
(0.0024569357 0.00026025104 4.4114063e-24)
(0.0031723261 0.00029102703 -2.9495166e-24)
(0.0040708125 0.00032494123 5.2854676e-24)
(0.0051895458 0.00036232324 1.7243852e-23)
(0.0065698221 0.00040353854 -1.2603384e-23)
(0.0082565113 0.00044898174 2.5877953e-23)
(0.010297204 0.00049906428 1.5083263e-23)
(0.012741074 0.000554195 2.8934172e-24)
(0.015637633 0.00061475866 -2.9935882e-23)
(0.019035146 0.000681082 -2.5952265e-23)
(0.022979719 0.0007534271 -6.5010247e-23)
(0.027512695 0.00083192566 4.2633389e-23)
(0.032672662 0.00091669056 4.078993e-23)
(0.038486536 0.0010075686 -9.0033271e-23)
(0.044986573 0.0011047087 -1.8353156e-23)
(0.052167874 0.0012073328 -8.6055186e-23)
(0.060076569 0.0013158563 -1.11549e-23)
(0.06861696 0.0014269018 -8.3116348e-24)
(0.077940116 0.0015428491 3.8873084e-23)
(0.087666931 0.0016570816 -1.0620563e-23)
(0.098348321 0.0017751212 -1.3051715e-23)
(0.10886016 0.0019053516 2.8138003e-23)
(0.12062992 0.0019997083 -6.3572517e-23)
(1.099968e-08 -1.9232236e-07 3.1318805e-25)
(6.5693265e-08 -6.0886001e-07 -1.009454e-25)
(1.7410925e-07 -1.0949517e-06 -1.8992104e-25)
(3.5842181e-07 -1.6686232e-06 -8.2111658e-25)
(6.4929749e-07 -2.3513403e-06 5.5922034e-25)
(1.0881846e-06 -3.1692933e-06 6.11681e-25)
(1.7317513e-06 -4.1543584e-06 4.9192765e-25)
(2.6567751e-06 -5.3452086e-06 -9.6919543e-25)
(3.9669904e-06 -6.7886903e-06 4.6436089e-25)
(5.8023489e-06 -8.5414356e-06 1.5905069e-24)
(8.3512629e-06 -1.0671745e-05 -2.2891041e-24)
(1.1866844e-05 -1.3261763e-05 1.5350847e-24)
(1.6688367e-05 -1.6409961e-05 2.350909e-25)
(2.3269523e-05 -2.0233937e-05 -2.5921335e-24)
(3.221546e-05 -2.4873511e-05 1.9053669e-24)
(4.4331084e-05 -3.0494074e-05 -2.7543744e-24)
(6.0683695e-05 -3.7290085e-05 3.4514201e-24)
(8.2683659e-05 -4.5488574e-05 -7.3084438e-24)
(0.00011218751 -5.5352381e-05 7.1989642e-24)
(0.00015162849 -6.7182805e-05 -2.5234355e-24)
(0.00020418011 -8.1321136e-05 9.8740521e-24)
(0.00027395846 -9.8148449e-05 -1.6398946e-23)
(0.00036626864 -0.00011808282 1.7575463e-23)
(0.00048789956 -0.00014157305 -7.7071636e-24)
(0.00064746904 -0.00016908776 9.0824907e-24)
(0.00085581669 -0.00020109895 -1.0182921e-23)
(0.0011264367 -0.00023805907 1.2125171e-23)
(0.0014759335 -0.00028037129 -1.0455848e-23)
(0.0019244745 -0.00032835342 7.2498409e-24)
(0.002496201 -0.00038219704 1.3786347e-23)
(0.0032195489 -0.00044192479 -3.430399e-23)
(0.0041274236 -0.00050735045 1.0191156e-23)
(0.0052571699 -0.00057804749 2.5265336e-24)
(0.0066502872 -0.00065333226 3.6601071e-23)
(0.0083518565 -0.00073226792 -9.0258096e-23)
(0.010409685 -0.00081369168 -3.8244742e-23)
(0.01287317 -0.00089626906 -1.5444366e-23)
(0.015792048 -0.00097855856 1.9679549e-23)
(0.019214821 -0.0010591116 5.6698064e-23)
(0.023187837 -0.0011364927 1.2100295e-22)
(0.027752703 -0.0012094619 -5.7148566e-23)
(0.032948266 -0.0012766379 5.868006e-24)
(0.038801763 -0.001337203 1.7837474e-22)
(0.045345693 -0.001389094 -5.7107662e-23)
(0.052575508 -0.001432457 1.6265397e-22)
(0.060537467 -0.0014626738 8.4662347e-23)
(0.069136181 -0.0014839244 -7.6942259e-23)
(0.07852368 -0.0014849193 -2.735926e-23)
(0.088318416 -0.0014733185 4.8741726e-24)
(0.099080777 -0.0014427589 2.9810438e-22)
(0.10966045 -0.0013346323 2.3531267e-22)
(0.12155296 -0.0013696008 1.2027106e-22)
(7.1984435e-08 -8.1971253e-07 6.0708695e-25)
(2.5946855e-07 -2.5857023e-06 -1.7684657e-25)
(5.202125e-07 -4.6277402e-06 -7.4655923e-25)
(8.8344445e-07 -7.0025847e-06 8.3058712e-25)
(1.3830777e-06 -9.7783467e-06 2.9246335e-26)
(2.067373e-06 -1.3035655e-05 -1.3566308e-24)
(3.0003668e-06 -1.6870284e-05 1.2459271e-24)
(4.2676218e-06 -2.1395836e-05 1.3709635e-24)
(5.9834637e-06 -2.6746872e-05 -1.1247687e-24)
(8.30054e-06 -3.3082531e-05 3.5617891e-26)
(1.1422495e-05 -4.059068e-05 -3.428125e-24)
(1.5620729e-05 -4.9492621e-05 2.6668205e-24)
(2.1256491e-05 -6.0048395e-05 -1.3476846e-24)
(2.880989e-05 -7.2562657e-05 2.1514034e-24)
(3.8917841e-05 -8.7391092e-05 -1.5942948e-24)
(5.2423456e-05 -0.00010494726 -2.0195182e-24)
(7.0439974e-05 -0.00012570966 -7.4511933e-25)
(9.443296e-05 -0.0001502287 1.577456e-23)
(0.00012632518 -0.00017913312 -8.2883237e-24)
(0.00016862921 -0.00021313511 -1.5830355e-24)
(0.00022461329 -0.00025303323 2.2583724e-24)
(0.00029850618 -0.00029971194 -1.4131225e-23)
(0.00039574639 -0.00035413614 1.3111812e-23)
(0.00052327979 -0.00041733892 -2.0015925e-24)
(0.00068990751 -0.00049040067 -1.0895261e-23)
(0.00090668148 -0.00057441751 -2.5427766e-23)
(0.0011873392 -0.00067045767 1.4317916e-23)
(0.0015487609 -0.00077950492 -1.117197e-24)
(0.0020114226 -0.00090239023 -5.839686e-24)
(0.0025998058 -0.0010397141 2.7003794e-24)
(0.003342717 -0.0011917656 4.8588305e-23)
(0.0042734584 -0.0013584457 -4.1913492e-23)
(0.0054297936 -0.0015392054 -1.9330508e-23)
(0.0068536594 -0.0017330111 2.9094702e-23)
(0.0085905882 -0.0019383454 1.0328618e-22)
(0.01068885 -0.0021532508 1.1598459e-22)
(0.013198316 -0.0023754197 -4.9560857e-23)
(0.016169209 -0.0026023053 4.0779148e-23)
(0.019650541 -0.0028312865 1.3350591e-24)
(0.023689181 -0.0030597084 -1.0258256e-22)
(0.028327325 -0.00328517 1.6071294e-23)
(0.033604398 -0.0035049889 -8.9372968e-23)
(0.03954836 -0.0037172988 -1.5450746e-22)
(0.046192309 -0.0039181193 5.0450318e-23)
(0.053532534 -0.0041067751 -9.7718664e-23)
(0.061615843 -0.0042745889 -1.0255766e-22)
(0.070347413 -0.0044261356 -1.238345e-22)
(0.079881813 -0.0045416113 -1.5993228e-23)
(0.089831608 -0.0046290419 6.6717693e-24)
(0.1007788 -0.0046812784 -3.7097303e-22)
(0.11151567 -0.0045906987 -3.5427381e-22)
(0.12368594 -0.0047442558 7.1683764e-22)
(1.8115606e-07 -1.4647731e-06 -1.3645389e-25)
(6.0417702e-07 -4.6178722e-06 -7.7272694e-25)
(1.1375303e-06 -8.2591301e-06 2.7661541e-24)
(1.8179689e-06 -1.2485639e-05 -1.8469573e-24)
(2.6882943e-06 -1.7413151e-05 7.9370278e-27)
(3.8074024e-06 -2.3178245e-05 -1.5050312e-24)
(5.2520122e-06 -2.994241e-05 3.720615e-24)
(7.1228212e-06 -3.7896287e-05 -1.8436153e-24)
(9.552226e-06 -4.7264614e-05 -2.1435128e-24)
(1.2714462e-05 -5.8311891e-05 1.286531e-25)
(1.6838974e-05 -7.1348852e-05 1.5052011e-24)
(2.2228022e-05 -8.6739753e-05 1.6449313e-26)
(2.9279776e-05 -0.00010491054 2.5632796e-24)
(3.8518538e-05 -0.00012635787 3.0060362e-24)
(5.0634141e-05 -0.00015165886 -9.0115558e-24)
(6.6533062e-05 -0.00018148144 2.2106759e-24)
(8.7404392e-05 -0.00021659501 -1.2291534e-24)
(0.00011480443 -0.00025788083 2.4046217e-24)
(0.00015076436 -0.00030634148 3.3762965e-24)
(0.00019792603 -0.00036310835 3.5794859e-24)
(0.00025971143 -0.00042944572 -6.5504236e-24)
(0.00034053147 -0.00050674961 1.5594209e-23)
(0.00044603948 -0.0005965392 -2.9646613e-23)
(0.00058343316 -0.00070043809 1.6642623e-23)
(0.00076180668 -0.00082014265 -7.0717072e-25)
(0.00099255003 -0.00095737455 -1.4787832e-23)
(0.0012897868 -0.0011138154 -7.3759512e-24)
(0.0016708333 -0.0012910226 1.4475994e-23)
(0.0021566513 -0.0014903273 -7.452275e-23)
(0.0027722568 -0.0017127195 7.7899638e-23)
(0.0035470348 -0.0019587277 -3.6712507e-23)
(0.0045149055 -0.0022283047 3.5483859e-23)
(0.0057142833 -0.0025207367 -3.8005098e-23)
(0.0071877811 -0.0028345893 -5.9596181e-23)
(0.0089816281 -0.0031677076 -1.4562915e-23)
(0.011144807 -0.0035172779 -1.1663472e-22)
(0.013727921 -0.0038799545 1.1087147e-22)
(0.016781944 -0.0042520197 1.4500592e-22)
(0.020356678 -0.0046296135 -7.2762094e-23)
(0.024499811 -0.0050088011 1.4181858e-22)
(0.029254455 -0.0053859535 1.0991429e-22)
(0.034660956 -0.0057570399 9.7835676e-23)
(0.040748417 -0.0061190577 2.3002433e-22)
(0.047550934 -0.0064660831 5.0461658e-23)
(0.055066111 -0.0067964281 -2.4399312e-22)
(0.063341797 -0.0070974427 1.2039477e-22)
(0.072283975 -0.0073738085 1.3064726e-22)
(0.082051486 -0.0075971819 8.7028115e-23)
(0.092247392 -0.0077762804 4.5073188e-24)
(0.10348781 -0.0079006342 6.3839549e-22)
(0.11447552 -0.0078209384 -2.2838777e-22)
(0.12708409 -0.0080704771 -1.3130456e-21)
(3.4265093e-07 -2.1284685e-06 -3.4528899e-25)
(1.1139383e-06 -6.7087954e-06 2.6819151e-24)
(2.0501955e-06 -1.1995411e-05 -2.996268e-24)
(3.1991431e-06 -1.8127e-05 1.8096754e-24)
(4.6165736e-06 -2.5268476e-05 4.5015363e-25)
(6.376888e-06 -3.361409e-05 1.2519958e-26)
(8.5752658e-06 -4.3393054e-05 -3.081029e-24)
(1.1334399e-05 -5.4875399e-05 2.3673446e-24)
(1.4812898e-05 -6.8378767e-05 -2.7152337e-24)
(1.9216254e-05 -8.4276175e-05 -7.515625e-25)
(2.48112e-05 -0.00010300484 1.4912208e-24)
(3.194449e-05 -0.00012507613 3.2130712e-24)
(4.106742e-05 -0.0001510866 -2.219962e-24)
(5.276774e-05 -0.00018173017 -4.0873607e-24)
(6.781107e-05 -0.00021781128 8.7343685e-24)
(8.7194411e-05 -0.00026025872 -1.3472451e-24)
(0.00011221494 -0.00031013978 2.0131389e-24)
(0.0001445579 -0.00036867399 5.0963312e-24)
(0.00018640811 -0.0004372455 -2.3859913e-23)
(0.00024059012 -0.00051741259 4.7668855e-23)
(0.00031074253 -0.00061091257 -1.6599679e-23)
(0.0004015322 -0.00071965955 1.4077173e-24)
(0.00051891333 -0.00084573198 -2.7189834e-23)
(0.0006704353 -0.00099134672 4.3346084e-23)
(0.00086560029 -0.0011588157 -6.5271738e-23)
(0.0011162676 -0.0013504812 5.2310946e-23)
(0.0014370952 -0.0015686284 -2.6739886e-23)
(0.0018460007 -0.0018153711 5.0839429e-24)
(0.0023646142 -0.0020925163 2.6876862e-23)
(0.003018684 -0.0024014101 2.6160202e-23)
(0.003838386 -0.0027427776 6.0033486e-24)
(0.0048584821 -0.0031165717 2.624451e-23)
(0.0061182698 -0.0035218517 3.7711056e-23)
(0.0076612782 -0.0039567127 6.5593535e-24)
(0.0095346776 -0.0044182861 1.0203695e-22)
(0.011788414 -0.00490282 1.2176428e-22)
(0.014474079 -0.0054058468 -9.1230001e-23)
(0.017643663 -0.0059223935 -2.4637535e-22)
(0.021348041 -0.0064472777 -1.2997789e-22)
(0.025636024 -0.0069752077 -1.6087869e-22)
(0.030551978 -0.0075012462 -1.1122541e-22)
(0.036137533 -0.0080199523 6.7536836e-24)
(0.042423364 -0.0085270908 -8.0096163e-23)
(0.049445001 -0.009014741 -1.6006389e-22)
(0.057201856 -0.0094800137 -3.5582173e-22)
(0.065743356 -0.0099062956 9.6279053e-23)
(0.074976554 -0.010298241 4.5458741e-23)
(0.085066351 -0.010618452 -9.2045295e-23)
(0.095602758 -0.010877789 2.9181946e-23)
(0.10724841 -0.011057082 -1.3032726e-21)
(0.1185845 -0.01097907 4.6812658e-22)
(0.13179576 -0.01128886 -1.1040898e-21)
(5.6153039e-07 -2.8120046e-06 4.2103376e-25)
(1.8047122e-06 -8.8621103e-06 1.4265344e-24)
(3.2867291e-06 -1.5843096e-05 -5.0751877e-24)
(5.0700789e-06 -2.3936578e-05 1.0478177e-25)
(7.2280493e-06 -3.3358232e-05 1.4394425e-24)
(9.8558977e-06 -4.4361849e-05 1.7335289e-24)
(1.3073611e-05 -5.7246555e-05 2.9481093e-24)
(1.7033405e-05 -7.2364317e-05 -4.1520783e-24)
(2.1929034e-05 -9.0128631e-05 -1.4122346e-24)
(2.8007838e-05 -0.00011102444 -3.0484696e-24)
(3.5586398e-05 -0.00013561934 9.5483584e-25)
(4.5070868e-05 -0.00016457624 1.4380261e-24)
(5.6983338e-05 -0.0001986673 4.2136971e-24)
(7.1995961e-05 -0.00023878929 -7.3192297e-24)
(9.0974984e-05 -0.0002859801 1.810703e-23)
(0.00011503735 -0.00034143601 -5.1644287e-24)
(0.00014562316 -0.00040652924 1.8357703e-23)
(0.00018458777 -0.0004828249 -8.9767954e-24)
(0.00023431822 -0.00057209592 -1.7476075e-23)
(0.00029787892 -0.00067633436 -6.8282234e-24)
(0.00037919219 -0.00079775651 -8.6135477e-24)
(0.00048325922 -0.00093879891 9.3532334e-24)
(0.00061642621 -0.0011021013 2.1420961e-23)
(0.00078669947 -0.0012904724 -1.9764021e-24)
(0.0010041098 -0.0015068336 1.9446949e-24)
(0.0012811228 -0.0017541361 -1.4664772e-23)
(0.0016330846 -0.002035249 -3.5551208e-23)
(0.0020786853 -0.0023528152 4.9266001e-23)
(0.0026404104 -0.0027090797 9.6730788e-24)
(0.0033449429 -0.0031056964 1.7324434e-23)
(0.0042234646 -0.0035435273 -7.3220309e-23)
(0.005311805 -0.0040224545 4.0616136e-23)
(0.0066503785 -0.0045412295 1.9297623e-23)
(0.0082838693 -0.0050973871 -1.3607679e-22)
(0.010260633 -0.0056872477 -2.5904715e-22)
(0.012631827 -0.0063060206 -2.1967059e-22)
(0.015450286 -0.0069480128 -1.1249281e-22)
(0.018769286 -0.0076068947 2.6026947e-22)
(0.022641058 -0.0082760614 4.2892174e-22)
(0.027115841 -0.0089487718 2.8986266e-23)
(0.032239605 -0.0096186864 -1.4508274e-23)
(0.038055639 -0.010278878 -4.3657191e-22)
(0.044596639 -0.010923773 2.1263902e-22)
(0.051900038 -0.011543375 -2.9555409e-22)
(0.059967537 -0.012133392 3.0945815e-22)
(0.068850725 -0.012673211 -4.4102661e-22)
(0.078458039 -0.013167428 -8.5761028e-24)
(0.088962205 -0.013568676 -2.3559482e-23)
(0.099936862 -0.01389234 2.4584882e-23)
(0.11210301 -0.014102607 7.0772587e-22)
(0.12388908 -0.014013946 -8.4657375e-22)
(0.1378701 -0.014334833 2.7920125e-21)
(8.43537e-07 -3.5159307e-06 4.7787549e-25)
(2.6945861e-06 -1.1079534e-05 -3.217481e-24)
(4.8794701e-06 -1.9805271e-05 1.2870783e-24)
(7.4796699e-06 -2.9919126e-05 3.3276703e-24)
(1.0590945e-05 -4.1689255e-05 1.5651658e-24)
(1.4335319e-05 -5.5430999e-05 -3.4382661e-24)
(1.8864594e-05 -7.151574e-05 1.5980465e-25)
(2.436881e-05 -9.0380114e-05 -1.4339448e-24)
(3.1086713e-05 -0.00011253664 -2.0118756e-24)
(3.9319152e-05 -0.00013858581 9.3931314e-25)
(4.9446375e-05 -0.00016922978 4.7956884e-24)
(6.1950292e-05 -0.00020528767 6.3963565e-24)
(7.7443163e-05 -0.00024771251 -4.2475217e-24)
(9.6704465e-05 -0.00029760974 -9.0371356e-24)
(0.00012072818 -0.00035625697 2.1997232e-23)
(0.00015078322 -0.00042512469 -1.924316e-23)
(0.0001884904 -0.00050589703 1.2380534e-23)
(0.00023591973 -0.00060049156 -7.8272932e-24)
(0.00029571284 -0.0007110766 1.8785096e-23)
(0.00037123539 -0.00084008364 -3.0600306e-23)
(0.00046676516 -0.00099021212 -1.9783924e-23)
(0.00058772104 -0.0011644228 -4.9266142e-24)
(0.00074093775 -0.001365915 4.1394001e-23)
(0.0009349893 -0.001598083 -1.5510233e-23)
(0.0011805615 -0.0018644451 -1.8713219e-23)
(0.0014908687 -0.0021685417 3.620674e-23)
(0.0018821048 -0.0025137964 3.7995471e-23)
(0.0023739078 -0.0029033412 -4.0598414e-23)
(0.0029898103 -0.0033398072 3.1467203e-23)
(0.0037576349 -0.0038250912 -1.2519798e-22)
(0.0047097869 -0.0043601146 8.6889067e-24)
(0.005883389 -0.0049445983 -2.4970474e-25)
(0.0073202055 -0.0055768841 8.8030848e-23)
(0.0090663126 -0.0062538355 1.2804462e-22)
(0.011171491 -0.0069708445 3.2620356e-22)
(0.013688356 -0.0077219601 1.7613395e-22)
(0.016671235 -0.0085001422 3.7684512e-22)
(0.020174953 -0.0092975853 4.742525e-23)
(0.024253384 -0.010106145 -5.3096303e-22)
(0.028958504 -0.010917525 2.3671637e-22)
(0.034338239 -0.011723874 3.2303728e-22)
(0.040437925 -0.01251669 3.7311257e-22)
(0.047292739 -0.013288948 -4.4389378e-22)
(0.054942517 -0.014028461 2.0089703e-22)
(0.063391724 -0.014729326 2.4542961e-22)
(0.072694707 -0.015366857 1.7718446e-22)
(0.082761686 -0.015945653 -4.9257865e-24)
(0.093774875 -0.016407077 3.6024455e-23)
(0.10528865 -0.016774279 -2.5723081e-22)
(0.11809316 -0.016984399 7.6289292e-22)
(0.13043482 -0.016869041 7.6208995e-22)
(0.14535357 -0.017137961 -1.0270147e-22)
(1.1952201e-06 -4.2405706e-06 -1.219897e-25)
(3.8041877e-06 -1.336205e-05 -2.2735207e-24)
(6.8653012e-06 -2.3883676e-05 2.7105658e-24)
(1.0483692e-05 -3.607731e-05 9.0622228e-25)
(1.4783119e-05 -5.0265396e-05 -3.4067702e-24)
(1.9918928e-05 -6.6826923e-05 4.1163449e-25)
(2.6082505e-05 -8.6208e-05 3.2898703e-24)
(3.3510929e-05 -0.0001089328 -3.3630418e-24)
(4.2498831e-05 -0.00013561617 1.8133812e-25)
(5.3413479e-05 -0.00016697795 -2.7172575e-24)
(6.6714044e-05 -0.00020385918 3.5559666e-24)
(8.2976247e-05 -0.00024724005 7.7301858e-24)
(0.00010292383 -0.00029825984 3.6886292e-24)
(0.00012746877 -0.00035823855 -1.5656763e-23)
(0.00015776245 -0.00042869985 1.4283503e-24)
(0.00019526073 -0.00051139501 1.8381135e-24)
(0.00024180625 -0.00060832667 5.069736e-24)
(0.00029973195 -0.00072177124 -1.3277134e-23)
(0.00037199052 -0.00085429795 2.2021419e-23)
(0.00046231485 -0.0010087819 1.6699931e-23)
(0.00057541482 -0.0011884075 5.0429151e-24)
(0.00071721577 -0.0013966583 1.2683587e-23)
(0.00089514292 -0.0016372875 3.5792528e-23)
(0.0011184546 -0.0019142626 -6.9278658e-23)
(0.0013986235 -0.0022316795 6.2160367e-23)
(0.0017497611 -0.0025936381 -5.1025415e-23)
(0.002189073 -0.0030040764 1.8695654e-23)
(0.0027373254 -0.0034665622 9.4641386e-23)
(0.003419292 -0.0039840452 -5.8928739e-24)
(0.0042641425 -0.004558583 -1.2046326e-22)
(0.0053057223 -0.005191059 4.0095836e-23)
(0.0065826722 -0.0058809217 2.8445636e-23)
(0.0081383351 -0.0066259805 -8.6277062e-23)
(0.010020411 -0.0074222948 -1.8537937e-23)
(0.012280342 -0.0082641895 1.7470308e-22)
(0.014972434 -0.0091444121 -3.7453535e-22)
(0.01815276 -0.010054435 -4.507229e-22)
(0.021877949 -0.01098484 -2.2422322e-22)
(0.026203798 -0.011925812 -2.5579476e-22)
(0.031184334 -0.012867374 3.2389094e-22)
(0.03686979 -0.013800046 -5.179315e-22)
(0.043307946 -0.014713647 -5.7042311e-25)
(0.050536931 -0.015599581 6.1779742e-22)
(0.05859951 -0.016443327 2.6478028e-22)
(0.06750336 -0.017237139 -3.011783e-22)
(0.077306187 -0.017952165 -7.9042383e-23)
(0.087920503 -0.018593164 3.9204221e-23)
(0.099539513 -0.019088552 -3.5863116e-23)
(0.11169602 -0.019473261 -1.2812406e-22)
(0.12525869 -0.019644634 3.2875167e-22)
(0.13826519 -0.019482204 3.6225894e-22)
(0.15428849 -0.019622168 -5.2633402e-21)
(1.6239068e-06 -4.9855461e-06 7.7754737e-25)
(5.1565922e-06 -1.5708447e-05 1.7599561e-24)
(9.2854861e-06 -2.8076159e-05 -1.4078972e-24)
(1.4144564e-05 -4.2407967e-05 5.7990365e-24)
(1.9891736e-05 -5.9082453e-05 -4.7917626e-24)
(2.6722968e-05 -7.8544426e-05 -4.2241434e-24)
(3.4877879e-05 -0.00010131725 4.1093598e-24)
(4.4650818e-05 -0.00012801557 -2.2717659e-24)
(5.6404417e-05 -0.00015935996 -9.1776981e-24)
(7.0586676e-05 -0.00019619351 1.969146e-23)
(8.7752612e-05 -0.00023950049 -1.1067456e-23)
(0.00010859171 -0.00029042708 -1.9698004e-23)
(0.00013396274 -0.00035030424 1.8178323e-23)
(0.00016493788 -0.00042067231 4.3134889e-24)
(0.00020285852 -0.00050330718 9.2175262e-24)
(0.00024940574 -0.00060024712 -1.1000126e-23)
(0.00030668882 -0.00071381931 1.5026352e-24)
(0.00037735602 -0.00084666437 1.5515385e-23)
(0.0004647322 -0.0010017566 6.8560706e-25)
(0.00057298836 -0.0011824167 -5.1534925e-23)
(0.00070734849 -0.0013923134 7.8489195e-23)
(0.00087433864 -0.0016354477 -1.0489164e-22)
(0.0010820824 -0.0019161152 9.8969381e-23)
(0.0013406445 -0.0022388387 -2.935796e-23)
(0.0016624223 -0.0026082633 1.3735932e-23)
(0.0020625771 -0.0030290091 -3.6794318e-23)
(0.0025594949 -0.0035054758 5.9030995e-23)
(0.0031752529 -0.0040415988 -1.4815495e-22)
(0.0039360623 -0.0046405625 2.2236582e-23)
(0.0048726463 -0.0053044841 1.5943003e-22)
(0.0060205057 -0.0060340916 -5.5715565e-23)
(0.0074200192 -0.0068284287 -4.8726001e-23)
(0.0091163314 -0.0076846269 -1.2747769e-22)
(0.011158991 -0.0085977872 -1.3944926e-22)
(0.013601323 -0.0095610079 3.0478941e-22)
(0.016499559 -0.010565574 2.1504723e-22)
(0.019911746 -0.011601312 -2.4567517e-22)
(0.023896574 -0.012657038 9.8855201e-23)
(0.028512037 -0.013721118 3.8853999e-22)
(0.033814516 -0.01478176 -5.9273128e-22)
(0.039856913 -0.01582772 1.6675108e-22)
(0.04668984 -0.016847023 -9.8165457e-22)
(0.05435487 -0.017829386 3.3061563e-22)
(0.06289823 -0.018757763 8.9364747e-23)
(0.072331218 -0.019622317 2.7328453e-24)
(0.082715484 -0.020389944 -1.7103116e-22)
(0.093966474 -0.021065806 2.0476678e-22)
(0.10628969 -0.021563342 1.5474885e-23)
(0.11919479 -0.021933938 1.1198879e-22)
(0.13363649 -0.022020242 -2.6957244e-21)
(0.14742029 -0.021785487 -2.4021039e-21)
(0.16471205 -0.021708517 1.0925217e-21)
(2.1377815e-06 -5.7498443e-06 -8.6794305e-25)
(6.7775731e-06 -1.8115506e-05 -2.0541235e-24)
(1.2186115e-05 -3.2376962e-05 3.9332094e-24)
(1.8532019e-05 -4.8902463e-05 -7.8754186e-24)
(2.6014207e-05 -6.8128581e-05 5.4045095e-24)
(3.4877407e-05 -9.0568098e-05 4.702149e-24)
(4.5419106e-05 -0.00011682416 2.3673636e-24)
(5.8002326e-05 -0.00014760481 -8.0771168e-24)
(7.3071184e-05 -0.00018373972 -5.1330145e-24)
(9.1170332e-05 -0.00022619904 2.4445973e-23)
(0.00011296941 -0.0002761146 -9.1125434e-24)
(0.00013929379 -0.00033480337 -2.6143986e-23)
(0.00017116331 -0.00040379314 6.2801096e-24)
(0.0002098409 -0.00048485015 2.6112371e-23)
(0.00025689381 -0.00058000814 -4.0409455e-23)
(0.00031427025 -0.00069159793 2.850683e-23)
(0.00038439508 -0.00082227631 -2.7549951e-23)
(0.00047028881 -0.00097505209 5.2153912e-23)
(0.00057571446 -0.0011533068 -2.5532616e-23)
(0.00070535736 -0.0013608065 3.4612749e-23)
(0.0008650432 -0.0016016994 -5.1623128e-23)
(0.0010619988 -0.0018804943 6.1613713e-23)
(0.0013051597 -0.0022020126 -7.6825512e-23)
(0.001605525 -0.0025713058 2.9160966e-23)
(0.001976559 -0.002993531 3.4359691e-23)
(0.0024346306 -0.003473778 -1.302803e-23)
(0.0029994777 -0.0040168415 -4.1911415e-24)
(0.0036946731 -0.0046269411 7.563991e-23)
(0.0045480612 -0.0053073937 -2.2167884e-23)
(0.0055921233 -0.0060602554 -5.3527668e-23)
(0.0068642254 -0.0068859601 -1.4840648e-22)
(0.0084066975 -0.007782992 3.4042181e-22)
(0.010266699 -0.0087476373 -2.9567711e-22)
(0.012495838 -0.0097738627 3.5132656e-22)
(0.01514954 -0.010853359 -3.187816e-23)
(0.018286171 -0.01197577 -1.861954e-22)
(0.021965981 -0.0131291 -9.4886121e-23)
(0.026249956 -0.014300232 6.3841212e-23)
(0.031198555 -0.015475551 2.1391357e-22)
(0.036870816 -0.016641301 -2.0704283e-22)
(0.043322656 -0.017784327 1.027836e-22)
(0.050607914 -0.018890735 5.6959308e-22)
(0.058772099 -0.019948449 -7.9248284e-22)
(0.067865451 -0.020937653 4.5492611e-23)
(0.077903203 -0.021846147 3.1922211e-22)
(0.088951539 -0.022636526 4.391483e-22)
(0.10092959 -0.023314708 -1.0168189e-22)
(0.11405634 -0.02377678 -3.5714253e-23)
(0.12781742 -0.024095802 -3.5470611e-22)
(0.1432591 -0.024042518 1.7809322e-21)
(0.15793348 -0.023703 1.1612272e-22)
(0.17664823 -0.023299211 4.5776439e-21)
(2.7458546e-06 -6.531496e-06 -1.4522934e-24)
(8.6955042e-06 -2.0577001e-05 4.3363556e-25)
(1.5617934e-05 -3.6774964e-05 -2.1358715e-24)
(2.372285e-05 -5.5544078e-05 -1.853868e-24)
(3.3257851e-05 -7.7380681e-05 6.6699039e-24)
(4.4525503e-05 -0.0001028676 4.5700632e-24)
(5.7891908e-05 -0.00013269017 -1.7386961e-23)
(7.3801478e-05 -0.00016765266 2.1695444e-24)
(9.2794827e-05 -0.000208697 1.607335e-23)
(0.00011553097 -0.00025692406 -8.241386e-24)
(0.00014281505 -0.00031361729 -4.2149257e-24)
(0.00017563285 -0.00038026886 -6.7626434e-24)
(0.00021519405 -0.00045860815 1.3873739e-23)
(0.00026298611 -0.0005506322 -2.7318651e-23)
(0.00032084155 -0.00065863745 -2.6803442e-24)
(0.00039102165 -0.00078525176 2.4177839e-23)
(0.00047632026 -0.00093346508 -1.7204086e-23)
(0.00058019198 -0.0011066565 -1.267662e-23)
(0.00070690926 -0.0013086146 5.9060963e-23)
(0.00086175366 -0.0015435467 9.4639437e-24)
(0.001051246 -0.001816072 5.9737852e-24)
(0.0012834198 -0.0021311918 -3.9598796e-24)
(0.0015681416 -0.0024942294 -9.3727209e-23)
(0.0019174784 -0.0029107303 7.8562611e-23)
(0.0023461084 -0.0033863162 -8.1343824e-24)
(0.002871769 -0.0039264828 3.6835466e-23)
(0.0035157231 -0.0045363392 -9.3610908e-23)
(0.0043032241 -0.0052202887 4.4209756e-23)
(0.0052639424 -0.0059816597 1.870128e-22)
(0.0064323168 -0.006822306 -1.3990032e-22)
(0.0078477806 -0.007742207 1.885478e-22)
(0.0095548168 -0.0087391103 -1.5553746e-22)
(0.011602799 -0.0098082675 2.0500011e-22)
(0.014045596 -0.010942314 -2.102061e-22)
(0.016940922 -0.012131333 -7.7964417e-23)
(0.020349481 -0.01336313 1.0126634e-23)
(0.024333931 -0.014623696 6.7424588e-22)
(0.028957781 -0.015897798 2.8425773e-22)
(0.034284206 -0.01716967 -2.8136207e-22)
(0.04037519 -0.018423427 3.4166673e-22)
(0.047290013 -0.019643846 -7.7052054e-22)
(0.055086111 -0.020814981 -3.8697867e-23)
(0.063813444 -0.021922868 4.153752e-22)
(0.073526794 -0.022944623 -2.9555504e-22)
(0.084245523 -0.023865388 1.6486409e-22)
(0.096040953 -0.024643444 -1.3631302e-22)
(0.10883667 -0.025286093 -2.5889854e-23)
(0.12286648 -0.025669218 -2.2790984e-22)
(0.13759184 -0.025893738 5.9787512e-22)
(0.15415421 -0.025637396 -1.2808215e-23)
(0.1698386 -0.025158156 2.1424792e-21)
(0.19020585 -0.024291194 -6.4834164e-21)
(3.4579796e-06 -7.3274656e-06 1.4509728e-24)
(1.094141e-05 -2.308334e-05 -2.3635881e-24)
(1.9636432e-05 -4.1253024e-05 1.0517038e-24)
(2.9801046e-05 -6.2306982e-05 4.0022044e-24)
(4.1740069e-05 -8.680293e-05 4.7089768e-24)
(5.5824029e-05 -0.00011539562 -6.1665361e-24)
(7.2499627e-05 -0.00014885476 -1.1637183e-23)
(9.2306823e-05 -0.00018808333 7.910326e-24)
(0.00011589944 -0.00023413846 5.5441271e-24)
(0.00014407057 -0.00028825491 -1.0121549e-23)
(0.00017778399 -0.0003518713 2.3149608e-23)
(0.0002182131 -0.00042665881 -7.1518999e-24)
(0.00026678929 -0.00051455237 9.8046427e-24)
(0.00032526173 -0.00061778374 -1.5704909e-23)
(0.00039577153 -0.00073891565 -2.5145381e-23)
(0.00048094338 -0.00088087586 2.3870347e-23)
(0.00058399834 -0.001046989 -9.1370275e-24)
(0.00070889213 -0.0012410041 1.1826619e-23)
(0.00086048359 -0.0014671129 -2.1817591e-23)
(0.0010447381 -0.0017299564 8.8050946e-24)
(0.0012689711 -0.0020346106 8.4461946e-24)
(0.0015421347 -0.0023865479 -3.4787886e-23)
(0.0018751513 -0.0027915613 5.2191984e-23)
(0.0022812933 -0.0032556466 -2.8700657e-23)
(0.0027766042 -0.0037848302 -6.6882529e-23)
(0.0033803522 -0.0043849374 4.5987483e-25)
(0.0041154994 -0.0050612947 -1.630209e-23)
(0.0050091613 -0.0058183711 1.4769097e-22)
(0.0060930229 -0.0066593663 -2.0459487e-22)
(0.0074036709 -0.0075857692 2.3059169e-22)
(0.0089827964 -0.0085969226 -5.1992031e-23)
(0.010877223 -0.0096896388 -8.0158338e-23)
(0.01313872 -0.010857924 -2.8670137e-22)
(0.015823592 -0.012092863 -6.3089785e-23)
(0.018992021 -0.013382718 -3.3472242e-22)
(0.022707223 -0.01471324 -9.9026682e-23)
(0.027034449 -0.016068206 1.8019471e-22)
(0.032039937 -0.017430073 2.5604757e-22)
(0.037789818 -0.018780739 -4.6105988e-22)
(0.044349296 -0.020102018 4.9833277e-22)
(0.051781347 -0.021376447 2.2028136e-22)
(0.06014735 -0.022585892 7.9978195e-22)
(0.069502258 -0.023714428 2.3161461e-22)
(0.07990588 -0.02473573 -3.75647e-22)
(0.09138167 -0.025632004 -5.5293318e-23)
(0.10400688 -0.026357284 -7.7031811e-23)
(0.11771015 -0.026921603 -1.0222768e-22)
(0.13274151 -0.027175928 1.1193583e-22)
(0.14853818 -0.027255226 -1.4453722e-21)
(0.16634116 -0.026729093 -1.1986177e-21)
(0.18317648 -0.026075514 2.1835204e-21)
(0.20532254 -0.024608695 1.3382551e-20)
(4.2847712e-06 -8.1333348e-06 -2.8752497e-24)
(1.3548712e-05 -2.5620585e-05 6.5296796e-24)
(2.4301393e-05 -4.5786233e-05 -9.1993866e-25)
(3.6857116e-05 -6.9153609e-05 1.4753157e-24)
(5.1587431e-05 -9.6343144e-05 -8.847679e-24)
(6.894209e-05 -0.00012808305 1.470364e-24)
(8.9461721e-05 -0.00016522922 5.6908309e-24)
(0.00011379758 -0.00020878541 -1.9804703e-24)
(0.00014273529 -0.00025992622 6.3948904e-24)
(0.00017722384 -0.00032002291 4.0827512e-24)
(0.00021841133 -0.00039067197 -1.0156371e-23)
(0.0002676889 -0.00047372645 -8.5529591e-24)
(0.00032674473 -0.00057132957 -8.9929882e-24)
(0.00039763067 -0.00068595027 5.219465e-24)
(0.00048284398 -0.00082041939 1.6850181e-23)
(0.00058542773 -0.00097796521 -1.2800591e-23)
(0.00070909349 -0.001162246 4.1121438e-23)
(0.00085837073 -0.0013773766 8.7743701e-24)
(0.0010387874 -0.0016279445 -3.8689319e-23)
(0.0012570864 -0.0019190109 8.2318185e-24)
(0.0015214831 -0.0022560893 -3.1568575e-24)
(0.0018419656 -0.002645093 -8.6447163e-23)
(0.0022306423 -0.0030922445 1.1080358e-22)
(0.002702133 -0.0036039347 3.0122936e-24)
(0.0032739996 -0.0041865231 7.1192994e-25)
(0.0039672049 -0.0048460726 -4.8629592e-23)
(0.0048065817 -0.0055880145 1.4787438e-22)
(0.0058212848 -0.0064167466 -1.6597615e-22)
(0.0070451932 -0.0073351797 -3.8634069e-23)
(0.0085172203 -0.0083442549 -2.6158948e-23)
(0.010281489 -0.0094424747 -1.0265332e-22)
(0.012387331 -0.010625496 1.2378328e-22)
(0.014889074 -0.011885849 2.0886701e-22)
(0.017845606 -0.013212835 -3.0266619e-22)
(0.021319726 -0.014592657 2.8961271e-22)
(0.025377313 -0.016008791 -5.5213724e-22)
(0.030086374 -0.017442584 -7.8732063e-22)
(0.035516057 -0.018873985 -4.1205253e-22)
(0.041735663 -0.020282364 -5.5236637e-23)
(0.048813874 -0.021647057 -4.3463047e-22)
(0.056817688 -0.022948165 3.7591132e-22)
(0.065812733 -0.024165233 -4.5966633e-22)
(0.075859552 -0.025280327 -3.2619833e-22)
(0.087023351 -0.026263254 2.2503177e-22)
(0.099331291 -0.027093204 -4.029974e-22)
(0.11286811 -0.027720377 5.6170061e-23)
(0.12756525 -0.028155992 -2.5073371e-22)
(0.14369639 -0.028225673 -1.4096199e-22)
(0.16067703 -0.028105517 2.5354113e-21)
(0.17982526 -0.027237755 1.3915134e-23)
(0.19792046 -0.026363798 -1.1493782e-21)
(0.22190226 -0.024168019 -2.0765005e-20)