/*--------------------------------*- C++ -*----------------------------------*\
  =========                 |
  \\      /  F ield         | OpenFOAM: The Open Source CFD Toolbox
   \\    /   O peration     | Website:  https://openfoam.org
    \\  /    A nd           | Version:  13
     \\/     M anipulation  |
\*---------------------------------------------------------------------------*/
FoamFile
{
    format      ascii;
    class       volScalarField;
    location    "24.900123";
    object      k;
}
// * * * * * * * * * * * * * * * * * * * * * * * * * * * * * * * * * * * * * //

dimensions      [0 2 -2 0 0 0 0];

internalField   nonuniform List<scalar> 
17140
(
2.354982e-11
7.4001664e-10
6.0513209e-09
2.6023847e-08
8.0079073e-08
2.0206068e-07
4.4802651e-07
9.0789312e-07
1.722626e-06
3.1094201e-06
5.3983544e-06
9.0854503e-06
1.490906e-05
2.3959237e-05
3.7833403e-05
5.8856389e-05
9.0388901e-05
0.00013725541
0.00020632932
0.00030731743
0.00045378092
0.00066440317
0.00096443951
0.001387112
0.0019743651
0.002775782
0.0038435873
0.0052210348
0.0069228543
0.0089128073
0.011094181
0.013330774
0.015492754
0.017494808
0.01930372
0.020923541
0.022377169
0.023693947
0.024903607
0.026034181
0.027111799
0.028161112
0.029205802
0.030268956
0.03137347
0.032542259
0.033797214
0.035158686
0.036647458
0.038285088
0.040094367
0.042100501
0.044332676
0.046822041
0.049597307
0.052675831
0.056077866
0.059762045
0.063606934
0.067414856
0.070853776
0.073768785
0.075717287
0.076591789
0.075403295
2.3479836e-11
7.378175e-10
6.0333527e-09
2.5946695e-08
7.9842151e-08
2.0146425e-07
4.4670747e-07
9.0522781e-07
1.7175846e-06
3.1003506e-06
5.3826655e-06
9.0591485e-06
1.4866079e-05
2.3890475e-05
3.7725343e-05
5.8689147e-05
9.0133487e-05
0.00013686992
0.00020575369
0.00030646642
0.00045253487
0.00066259639
0.00096184653
0.0013834335
0.0019692175
0.0027687004
0.0038340573
0.0052085717
0.0069071359
0.0088938137
0.011072233
0.013306395
0.015466431
0.017466846
0.019274236
0.020892522
0.022344536
0.023659548
0.024867229
0.025995565
0.027070627
0.028116999
0.029158296
0.030217558
0.031317682
0.032481681
0.033731716
0.035088764
0.036574794
0.03821336
0.040030606
0.042057186
0.044330675
0.046894549
0.04979368
0.053067605
0.056735843
0.060766495
0.064986397
0.069089203
0.072551228
0.074946324
0.075976072
0.075745935
0.074399603
2.3233364e-11
7.3007246e-10
5.9700187e-09
2.5674329e-08
7.9004073e-08
1.9934969e-07
4.4201933e-07
8.9572887e-07
1.6995645e-06
3.0678306e-06
5.3262225e-06
8.9641888e-06
1.4710324e-05
2.3640322e-05
3.7330641e-05
5.8075751e-05
8.9192741e-05
0.00013544397
0.00020361531
0.00030329173
0.00044786769
0.00065580352
0.00095206605
0.0013695234
0.0019497241
0.0027418838
0.0037980393
0.0051616824
0.0068484739
0.0088238315
0.010992892
0.013220547
0.015376776
0.017375223
0.019181554
0.020799038
0.022250148
0.02356399
0.024770157
0.025896585
0.026969295
0.028012814
0.029050702
0.030105962
0.031201532
0.032360534
0.033605414
0.034957915
0.036441395
0.038081771
0.039909237
0.041961123
0.044285434
0.046941139
0.049994463
0.053509987
0.05753568
0.062052969
0.066872198
0.071621008
0.0756156
0.078248036
0.079076766
0.078654937
0.078223879
2.2801471e-11
7.1650085e-10
5.8590391e-09
2.519706e-08
7.7535478e-08
1.9564416e-07
4.3380356e-07
8.7908145e-07
1.6679811e-06
3.010829e-06
5.2272781e-06
8.7977049e-06
1.4437215e-05
2.320162e-05
3.6638311e-05
5.6999588e-05
8.754187e-05
0.00013294099
0.00019986068
0.00029771578
0.00043966762
0.00064386461
0.00093487032
0.0013450592
0.0019154298
0.0026946936
0.0037346452
0.0050791479
0.0067452356
0.0087007574
0.010853592
0.013070295
0.015220616
0.017216653
0.019022357
0.020639781
0.022090739
0.023404036
0.024609149
0.025733961
0.026804458
0.02784512
0.028879461
0.029930454
0.031021072
0.032174545
0.033413595
0.034760757
0.036240883
0.037882456
0.039720162
0.041798866
0.044178502
0.046935754
0.050162511
0.053954973
0.058399206
0.063509757
0.069100738
0.074786367
0.079745161
0.083353388
0.084910501
0.085221541
0.086293793
2.2182914e-11
6.9706365e-10
5.7000956e-09
2.4513523e-08
7.543217e-08
1.903371e-07
4.2203675e-07
8.5523827e-07
1.622745e-06
2.9291846e-06
5.0855541e-06
8.5592314e-06
1.4045993e-05
2.2573159e-05
3.5646453e-05
5.5457726e-05
8.5176389e-05
0.00012935416
0.00019447954
0.00028972307
0.00042791119
0.00062674375
0.00091020363
0.0013099527
0.0018661923
0.0026268965
0.0036434881
0.0049603325
0.0065964087
0.0085230753
0.010652251
0.012853043
0.014994995
0.016987982
0.018793412
0.020411504
0.021863058
0.023176425
0.02438091
0.025504337
0.026572659
0.027610319
0.028640779
0.029686985
0.030771913
0.031918848
0.033150758
0.034490886
0.03596555
0.037605798
0.03945095
0.041553815
0.043986996
0.046845976
0.050248584
0.054332529
0.059221864
0.064975518
0.071418239
0.078193279
0.084357267
0.089329556
0.091980914
0.093294324
0.095039438
2.1381745e-11
6.7188818e-10
5.4942288e-09
2.362819e-08
7.2707901e-08
1.8346319e-07
4.0679583e-07
8.2435514e-07
1.5641516e-06
2.8234307e-06
4.9019754e-06
8.2503229e-06
1.3539205e-05
2.1759019e-05
3.4361489e-05
5.3460098e-05
8.2111446e-05
0.00012470625
0.00018750558
0.00027936271
0.00041266872
0.00060453946
0.00087819998
0.0012643788
0.0018022258
0.0025387263
0.0035247686
0.0048052948
0.0064017351
0.0082900012
0.010387406
0.012566654
0.014697255
0.016686243
0.018491611
0.020111047
0.021563927
0.022877951
0.024082175
0.025204347
0.026270383
0.027304687
0.028330656
0.02937119
0.030449234
0.031588012
0.032810639
0.034140936
0.035606472
0.037240658
0.039087271
0.041206959
0.043684866
0.046635235
0.050202992
0.054559257
0.059880894
0.066253764
0.073501659
0.081327238
0.088665132
0.094978582
0.09864233
0.1006072
0.10170496
2.0407344e-11
6.4126919e-10
5.2438493e-09
2.2551427e-08
6.9394566e-08
1.751029e-07
3.8825918e-07
7.867935e-07
1.4928867e-06
2.6948044e-06
4.6786884e-06
7.8745882e-06
1.2922766e-05
2.076869e-05
3.2798365e-05
5.102988e-05
7.8382452e-05
0.00011905066
0.00017901831
0.00026675153
0.00039410946
0.00057749292
0.00083919634
0.0012087961
0.0017241322
0.0024309327
0.0033793458
0.004614888
0.0061618435
0.0080016407
0.010058379
0.01220959
0.014325149
0.016308735
0.018114021
0.019735378
0.021190264
0.022505479
0.023709725
0.024830633
0.025894073
0.026924393
0.027944902
0.028978419
0.030047795
0.031176054
0.032386281
0.033702674
0.035153695
0.03677472
0.038613517
0.040737995
0.04324497
0.046266524
0.049971489
0.054560898
0.060231344
0.067110897
0.074942039
0.083506643
0.091649117
0.098889001
0.10314338
0.10504671
0.10424061
1.9274532e-11
6.0567235e-10
4.9527642e-09
2.1299608e-08
6.5542555e-08
1.6538338e-07
3.6670868e-07
7.4312442e-07
1.4100334e-06
2.5452603e-06
4.4190849e-06
7.4377327e-06
1.2206029e-05
1.9617183e-05
3.098074e-05
4.8203772e-05
7.4045558e-05
0.00011247219
0.00016914424
0.00025207601
0.0003725047
0.00054599317
0.00079374102
0.0011439608
0.0016329246
0.0023048183
0.0032087968
0.0043908526
0.0058783828
0.0076591631
0.0096654696
0.011781097
0.013876982
0.015853114
0.017657939
0.019281623
0.020739108
0.022055968
0.023260402
0.024379862
0.025440142
0.026465511
0.027479151
0.028503742
0.02956196
0.030676474
0.031870093
0.03316712
0.034596458
0.036194912
0.038013594
0.040126781
0.04264219
0.045708239
0.049510433
0.054267459
0.060181146
0.0673311
0.075341433
0.084054277
0.092324049
0.099684133
0.10368879
0.10453671
0.1006
1.8003486e-11
5.6573165e-10
4.6261568e-09
1.9895024e-08
6.1220463e-08
1.544777e-07
3.4252805e-07
6.9412539e-07
1.3170667e-06
2.3774602e-06
4.1277845e-06
6.9475264e-06
1.1401734e-05
1.8324949e-05
2.8940857e-05
4.5031826e-05
6.9177392e-05
0.0001050867
0.00015805648
0.00023559172
0.00034822728
0.00051057691
0.00074259465
0.0010709302
0.001530036
0.0021622592
0.0030154583
0.0041358927
0.0055541501
0.0072649882
0.0092101845
0.011281434
0.013351801
0.015317532
0.017120981
0.018747118
0.020207643
0.02152648
0.022731118
0.023848728
0.024904981
0.025924028
0.026928874
0.02794198
0.028985728
0.030082293
0.031253915
0.032524672
0.033923429
0.035487859
0.037271778
0.039355234
0.041857844
0.044940182
0.048791248
0.053623918
0.059590554
0.066662443
0.074196405
0.082008655
0.089236013
0.095404127
0.097863419
0.096859828
0.08791227
1.6619373e-11
5.2223804e-10
4.2704968e-09
1.8365496e-08
5.6513897e-08
1.4260186e-07
3.1619621e-07
6.4076682e-07
1.2158276e-06
2.1947263e-06
3.8105535e-06
6.4136703e-06
1.0525792e-05
1.6917534e-05
2.6719005e-05
4.1576608e-05
6.3873797e-05
9.7039206e-05
0.00014597192
0.00021761949
0.00032174628
0.00047192146
0.00068672135
0.00099105296
0.001417311
0.0020057028
0.0028024425
0.0038537277
0.0051932027
0.0068229768
0.0086955003
0.01071216
0.012749655
0.014700825
0.016501201
0.01812948
0.01959324
0.020914209
0.022118869
0.023233969
0.024284971
0.025295854
0.026289387
0.027287711
0.028312756
0.029386087
0.03052906
0.031765185
0.033122871
0.034640248
0.036373503
0.038410144
0.040884341
0.043957517
0.047802372
0.05258082
0.058273268
0.064563659
0.070390279
0.075468427
0.079542948
0.082468349
0.081959724
0.0784653
0.062742659
1.5151716e-11
4.7611922e-10
3.8933696e-09
1.6743647e-08
5.1523232e-08
1.3000913e-07
2.8827471e-07
5.8418661e-07
1.1084749e-06
2.0009549e-06
3.4741545e-06
5.8475422e-06
9.5968643e-06
1.5424908e-05
2.4362464e-05
3.791157e-05
5.8247359e-05
8.8500199e-05
0.00013314587
0.00019853745
0.0002936157
0.00043082911
0.00062726775
0.00090594227
0.0012969742
0.0018381366
0.0025736155
0.0035491036
0.004800934
0.0063386066
0.0081261484
0.010076493
0.012071935
0.014002787
0.01579728
0.017426722
0.018893524
0.020216513
0.021420759
0.022532371
0.023576488
0.02457683
0.025555855
0.026535276
0.027536388
0.028579978
0.029686305
0.030877962
0.03218266
0.033638913
0.035306227
0.037286801
0.039726449
0.042767982
0.046532803
0.051026131
0.055768356
0.059773266
0.061469082
0.06041894
0.058716876
0.055980588
0.051695019
0.044486163
0.024944158
1.36334e-11
4.2840847e-10
3.5032245e-09
1.5065812e-08
4.6360282e-08
1.1698164e-07
2.5938908e-07
5.2565226e-07
9.9741339e-07
1.8004864e-06
3.1261221e-06
5.26182e-06
8.6357488e-06
1.3880478e-05
2.1923953e-05
3.4118645e-05
5.2423733e-05
7.9660105e-05
0.00011986376
0.00017876905
0.00026445724
0.00038820275
0.00056552947
0.00081743118
0.001171574
0.0016630221
0.0023335322
0.0032277493
0.0043840924
0.0058191066
0.0075088999
0.0093797121
0.011321821
0.013224556
0.015008813
0.016637445
0.018106492
0.019430986
0.020634036
0.021740805
0.022775927
0.02376274
0.024723298
0.025678754
0.026649604
0.027655601
0.028715775
0.029851554
0.031089977
0.032470406
0.034061559
0.035989256
0.038394675
0.0413707
0.044892263
0.048513865
0.050712049
0.049046552
0.04329222
0.032658771
0.023933613
0.019154138
0.015731719
0.012851339
0.0069447698
1.2099337e-11
3.8020293e-10
3.1090335e-09
1.3370577e-08
4.1143782e-08
1.0381898e-07
2.3020361e-07
4.6650988e-07
8.8519709e-07
1.5979305e-06
2.7744589e-06
4.6699708e-06
7.6645413e-06
1.2319745e-05
1.9459507e-05
3.0284959e-05
4.6536614e-05
7.0721701e-05
0.00010642989
0.00015876641
0.00023493611
0.00034501134
0.00050290269
0.00072750642
0.0010438944
0.0014841848
0.0020873101
0.0028962551
0.0039507091
0.0052735054
0.0068528077
0.0086296101
0.010504842
0.012369158
0.014136741
0.015761143
0.017230719
0.018555592
0.019756183
0.020856271
0.021879727
0.022849335
0.023786595
0.02471195
0.025644929
0.026603943
0.027606652
0.028673235
0.029830402
0.031120945
0.032637331
0.034520304
0.036881426
0.039675595
0.042411944
0.043451076
0.040197078
0.030401286
0.016078485
0.0096934537
0.0067559095
0.0052324356
0.0041900486
0.0033571552
0.0018251449
1.0584907e-11
3.3261425e-10
2.7198862e-09
1.1697031e-08
3.5994008e-08
9.082465e-08
2.0139123e-07
4.0812314e-07
7.7441346e-07
1.3979578e-06
2.4272736e-06
4.0856417e-06
6.7056366e-06
1.0778697e-05
1.7025954e-05
2.649891e-05
4.0721739e-05
6.1891047e-05
9.3153884e-05
0.00013899033
0.00020573187
0.00030224801
0.00044082482
0.00063822612
0.00091684479
0.0013056704
0.0018404532
0.00256188
0.0035099288
0.0047125643
0.0061693476
0.0078369049
0.0096295124
0.011442209
0.013183983
0.014798699
0.016265707
0.017588908
0.018785076
0.019876004
0.020884433
0.021832345
0.022740475
0.023628333
0.024514282
0.025415019
0.026346559
0.0273279
0.02838636
0.029579894
0.031028601
0.032854724
0.03508302
0.037205494
0.03733678
0.03339292
0.021555337
0.009717242
0.0047707381
0.0027235584
0.0018374702
0.0014058939
0.0011110706
0.00089250436
0.00051964952
9.12408e-12
2.8671001e-10
2.3445129e-09
1.0082718e-08
3.1026497e-08
7.8290189e-08
1.7359838e-07
3.5180205e-07
6.6754815e-07
1.2050554e-06
2.0923571e-06
3.5219464e-06
5.7805572e-06
9.2919298e-06
1.4677938e-05
2.2845538e-05
3.5109774e-05
5.3366684e-05
8.0334431e-05
0.00011988614
0.00017750291
0.00026087813
0.0003806996
0.00055161318
0.00079331016
0.0011315414
0.0015985852
0.0022322232
0.0030716552
0.0041484885
0.0054723467
0.0070155263
0.0087079833
0.010452778
0.012156299
0.013753118
0.015212461
0.016530539
0.01771928
0.018797675
0.019786812
0.020707519
0.021579467
0.022420922
0.023248675
0.024077281
0.024920386
0.025795884
0.026739058
0.027837859
0.029199029
0.03086601
0.032503281
0.032128116
0.027764853
0.015217377
0.0066809966
0.0029114985
0.0014195547
0.00081231382
0.00055444267
0.00042499915
0.00033492502
0.00027853908
0.00019838947
7.7473545e-12
2.4344856e-10
1.9907514e-09
8.5613494e-09
2.6344984e-08
6.6477334e-08
1.4740542e-07
2.9872262e-07
5.6683257e-07
1.0232511e-06
1.7767028e-06
2.9906563e-06
4.9086239e-06
7.8905004e-06
1.2464523e-05
1.9401222e-05
2.9818127e-05
4.5327127e-05
6.8240373e-05
0.00010185526
0.00015084396
0.00022177646
0.00032380457
0.00046951989
0.00067595507
0.00096559483
0.0013670516
0.001914679
0.0026458416
0.003594103
0.0047772158
0.0061822734
0.0077563535
0.0094142556
0.011063403
0.012630595
0.014074375
0.01538181
0.016558562
0.017619753
0.018584081
0.019470708
0.020297805
0.021081947
0.021837606
0.022576554
0.023307948
0.024051785
0.024874851
0.025857619
0.027009736
0.028039853
0.027362277
0.022824586
0.011131886
0.0046952375
0.0020085301
0.00090992642
0.00047883269
0.00030264863
0.00022626096
0.00018614055
0.00015806249
0.00014339104
0.0001276265
6.4808498e-12
2.0365065e-10
1.6653125e-09
7.1617821e-09
2.2038265e-08
5.5610162e-08
1.2330922e-07
2.4989188e-07
4.7417776e-07
8.5599527e-07
1.4863026e-06
2.50186e-06
4.106402e-06
6.6010523e-06
1.0427829e-05
1.623159e-05
2.49478e-05
3.7926198e-05
5.7103857e-05
8.524532e-05
0.00012627205
0.00018570739
0.00027126386
0.00039359135
0.00056717546
0.00081130209
0.0011508478
0.0016163609
0.0022424316
0.003062846
0.0041011134
0.0053570793
0.0067952477
0.0083453727
0.0099203049
0.011441927
0.012858505
0.014146809
0.015304693
0.01634208
0.017274276
0.018118001
0.018889244
0.019602091
0.020267839
0.020893962
0.021481148
0.022073831
0.022761812
0.023496685
0.023928399
0.022742449
0.018176256
0.0083175595
0.003433586
0.0014400774
0.00065570836
0.00034383706
0.00021944197
0.00016726752
0.00014233451
0.00012842523
0.00011859362
0.00011417436
0.00011012016
5.3444452e-12
1.6794091e-10
1.3733032e-09
5.9059796e-09
1.8173931e-08
4.5859231e-08
1.0168801e-07
2.0607642e-07
3.9103858e-07
7.0591496e-07
1.2257198e-06
2.0632431e-06
3.3865148e-06
5.443898e-06
8.5999881e-06
1.3386748e-05
2.0576005e-05
3.128168e-05
4.710305e-05
7.0323945e-05
0.0001041869
0.00015326526
0.00022395819
0.00032512964
0.00046889368
0.00067149851
0.0009541502
0.001343398
0.0018703338
0.0025673821
0.0034612458
0.0045616525
0.00584918
0.0072705372
0.0087484424
0.010204071
0.011577191
0.012833836
0.013962612
0.014966709
0.015856719
0.016645771
0.017346533
0.01796916
0.018520626
0.019000576
0.019408764
0.019826569
0.020259734
0.020202861
0.018580025
0.013311003
0.0060024802
0.002541529
0.0010743112
0.00049830391
0.00027487088
0.00018554531
0.00014786856
0.00013065456
0.00011995485
0.00011313483
0.00010836144
0.00010647199
0.00010530235
4.3502107e-12
1.3669859e-10
1.117825e-09
4.8072812e-09
1.4793029e-08
3.7328124e-08
8.2771487e-08
1.6774181e-07
3.1829873e-07
5.7460597e-07
9.9772663e-07
1.679475e-06
2.7566344e-06
4.4313874e-06
7.0005489e-06
1.0897215e-05
1.6749835e-05
2.5465564e-05
3.8347186e-05
5.7255949e-05
8.4836223e-05
0.00012482161
0.00018244478
0.00026497201
0.00038237245
0.00054809897
0.00077988073
0.0011002707
0.0015364123
0.0021180862
0.0028727641
0.0038167926
0.0049441348
0.0062183156
0.0075755706
0.0089411641
0.010249637
0.011457059
0.012541864
0.013498945
0.014332529
0.015050457
0.015660098
0.016165572
0.016565877
0.016844372
0.01704165
0.017152652
0.016826188
0.014832747
0.0092012338
0.0042139363
0.0018303268
0.00081006085
0.00039530671
0.00023281469
0.0001681685
0.00014082787
0.00012743603
0.00012030348
0.00011406783
0.00010952013
0.00010541331
0.00010410997
0.00010363999
3.5026565e-12
1.1006551e-10
9.0003831e-10
3.8706767e-09
1.1910916e-08
3.00556e-08
6.6645626e-08
1.3506232e-07
2.5628899e-07
4.6266583e-07
8.0336158e-07
1.3523064e-06
2.2196403e-06
3.5681645e-06
5.6368816e-06
8.7745391e-06
1.3487212e-05
2.0505471e-05
3.0878658e-05
4.6106313e-05
6.8319801e-05
0.00010053048
0.00014696345
0.00021349629
0.00030821592
0.00044208553
0.00062966179
0.00088969328
0.0012452292
0.0017225505
0.0023478901
0.0031409271
0.0041052906
0.0052194525
0.0064346666
0.0076846222
0.0089029382
0.01003795
0.011057965
0.0119483
0.012704871
0.013327711
0.013815516
0.014163407
0.014354006
0.014360836
0.014233416
0.013586703
0.011348921
0.0060730036
0.002863561
0.0012915165
0.00060402773
0.00031998525
0.0002051789
0.00015821528
0.00013764971
0.00012817829
0.00012183702
0.00011713846
0.00011188293
0.00010785328
0.00010410159
0.00010293443
0.0001019528
2.7990723e-12
8.7956488e-11
7.1924644e-10
3.0931706e-09
9.5183757e-09
2.4018412e-08
5.3258897e-08
1.0793359e-07
2.0481156e-07
3.6973792e-07
6.420066e-07
1.0806996e-06
1.7738358e-06
2.8515159e-06
4.504733e-06
7.0121729e-06
1.0778234e-05
1.6386697e-05
2.4676073e-05
3.684468e-05
5.4595972e-05
8.0337399e-05
0.00011744856
0.00017063543
0.00024638388
0.00035351251
0.00050378971
0.00071250557
0.00099874635
0.0013848843
0.001894495
0.0025477642
0.0033540333
0.0043031747
0.0053605408
0.0064708405
0.0075710598
0.0086051826
0.0095326546
0.01032852
0.010978182
0.011470162
0.011790393
0.01191656
0.011817611
0.011496544
0.010573154
0.0079881746
0.0040937011
0.0019097151
0.00089782628
0.00045031435
0.00026239622
0.00018498598
0.00015206683
0.00013665635
0.0001291931
0.00012388948
0.0001190416
0.00011401699
0.0001089215
0.0001053049
0.00010213701
0.00010089569
0.00010012011
2.229912e-12
7.0071511e-11
5.7299565e-10
2.4642101e-09
7.582936e-09
1.9134628e-08
4.2429657e-08
8.5987611e-08
1.6316829e-07
2.9456239e-07
5.1147513e-07
8.6097642e-07
1.4131884e-06
2.2717556e-06
3.5888254e-06
5.5863884e-06
8.5865451e-06
1.3054223e-05
1.9657125e-05
2.9349322e-05
4.3486828e-05
6.3985783e-05
9.3535873e-05
0.00013588276
0.00019619124
0.00028149198
0.00040119062
0.00056756655
0.00079608801
0.0011051997
0.0015150057
0.002044087
0.0027039079
0.0034914741
0.0043832321
0.0053349501
0.0062898298
0.0071910406
0.007991355
0.0086555156
0.0091560547
0.0094655686
0.0095513993
0.0093880561
0.008925195
0.0078485575
0.0051748919
0.0026143966
0.0012810447
0.00062681295
0.00034024324
0.00021986582
0.00016992841
0.00014783123
0.00013711005
0.00013051333
0.00012565195
0.00012006188
0.00011465755
0.00011025523
0.00010640685
0.00010359792
0.00010090389
9.9903781e-05
9.9067207e-05
1.7795599e-12
5.5919888e-11
4.5727354e-10
1.96654e-09
6.0515019e-09
1.527028e-08
3.386087e-08
6.8622485e-08
1.3021724e-07
2.3507812e-07
4.0818912e-07
6.8711534e-07
1.1278179e-06
1.8130074e-06
2.8640926e-06
4.4581976e-06
6.8522857e-06
1.0417186e-05
1.5685315e-05
2.3417132e-05
3.4692938e-05
5.1038286e-05
7.4592913e-05
0.00010833391
0.00015636235
0.00022425598
0.0003194733
0.00045175696
0.00063341246
0.00087921505
0.001205521
0.0016279916
0.0021573985
0.002793705
0.0035202812
0.0043016855
0.0050878901
0.0058236973
0.0064574884
0.0069441376
0.0072412495
0.0073037364
0.0071131708
0.0065668092
0.0054309093
0.0031789327
0.0016566532
0.00083623057
0.00044417252
0.00026513163
0.0001894007
0.00015889394
0.00014494177
0.00013778541
0.0001325484
0.00012718401
0.00012103362
0.00011570161
0.00011172919
0.00010821277
0.00010500267
0.00010238945
9.9784822e-05
9.8591055e-05
9.7709398e-05
1.4273626e-12
4.4852642e-11
3.6677352e-10
1.5773395e-09
4.8538505e-09
1.2248178e-08
2.7159663e-08
5.5042084e-08
1.0444782e-07
1.8855836e-07
3.2741429e-07
5.5114776e-07
9.0464596e-07
1.4542491e-06
2.2973282e-06
3.5759189e-06
5.4960366e-06
8.3548925e-06
1.2579008e-05
1.8777197e-05
2.7813547e-05
4.0906779e-05
5.976346e-05
8.6752893e-05
0.00012512995
0.00017930643
0.00025515755
0.00036032143
0.00050439526
0.0006988411
0.00095628465
0.00128876
0.0017044676
0.0022030639
0.0027706563
0.0033770325
0.0039775645
0.0045196378
0.004949051
0.0052125241
0.0052554345
0.005059282
0.0045279454
0.0033945182
0.0019337563
0.0010192673
0.00054728652
0.00031708739
0.00021337474
0.00016838151
0.00015042893
0.000143022
0.00013872478
0.00013460101
0.00012857337
0.00012195569
0.00011724554
0.00011347382
0.0001098161
0.00010612604
0.00010288806
0.00010048598
9.8297736e-05
9.7410997e-05
9.6699784e-05
1.1489972e-12
3.610545e-11
2.9524532e-10
1.2697283e-09
3.907266e-09
9.8596041e-09
2.1863226e-08
4.4308503e-08
8.4080314e-08
1.5179019e-07
2.6357155e-07
4.4368163e-07
7.2825485e-07
1.1706919e-06
1.8493625e-06
2.8785625e-06
4.4240201e-06
6.7247113e-06
1.0123343e-05
1.5108593e-05
2.2373028e-05
3.2891469e-05
4.8025135e-05
6.9656683e-05
0.00010035926
0.00014359695
0.00020394159
0.00028726642
0.00040083426
0.00055312912
0.00075318697
0.0010090968
0.0013253664
0.001699176
0.002116355
0.0025489126
0.002956087
0.0032886034
0.0034928969
0.0035132009
0.003328492
0.0028364497
0.0019336353
0.0011110996
0.00062038594
0.00035759488
0.00023236374
0.00017644457
0.0001529119
0.00014389911
0.00014127934
0.00013940971
0.00013667584
0.00013012972
0.00012347829
0.00011900787
0.00011516038
0.00011083359
0.0001070281
0.0001039099
0.00010143763
9.9475732e-05
9.7579753e-05
9.6638246e-05
9.5828433e-05
9.189434e-13
2.8876373e-11
2.3613107e-10
1.0155035e-09
3.12496e-09
7.8855532e-09
1.7485919e-08
3.5437501e-08
6.72469e-08
1.2140134e-07
2.1080432e-07
3.5485613e-07
5.8245404e-07
9.3629803e-07
1.4790404e-06
2.3020238e-06
3.5376259e-06
5.3765851e-06
8.0921231e-06
1.2073201e-05
1.7869793e-05
2.6253506e-05
3.8296945e-05
5.5474408e-05
7.9783793e-05
0.00011388351
0.00016122606
0.00022614827
0.00031384284
0.00043008417
0.00058051886
0.00076930289
0.00099691922
0.0012572782
0.0015348243
0.0018031072
0.0020258583
0.002159962
0.002157195
0.0020021697
0.00160785
0.0010518055
0.00062197299
0.00036952246
0.00023561594
0.0001746903
0.00014933374
0.00014045482
0.00013959914
0.00014043606
0.00014030435
0.00013841277
0.00013244186
0.00012509505
0.0001207261
0.00011634751
0.00011199002
0.00010829216
0.00010550311
0.00010271563
0.00010030475
9.8196263e-05
9.6281619e-05
9.5462827e-05
9.4840744e-05
7.1515504e-13
2.2472639e-11
1.837658e-10
7.9030221e-10
2.43196e-09
6.1368322e-09
1.360819e-08
2.7578731e-08
5.2333744e-08
9.4477792e-08
1.640514e-07
2.7614865e-07
4.5324849e-07
7.2855755e-07
1.1507782e-06
1.7908703e-06
2.7515779e-06
4.1807462e-06
6.289758e-06
9.3787453e-06
1.3870516e-05
2.0355224e-05
2.9647427e-05
4.2855783e-05
6.1462385e-05
8.7402238e-05
0.00012312171
0.00017157573
0.00023609558
0.00032002519
0.0004259961
0.000554729
0.00070332124
0.00086329056
0.0010190558
0.0011476065
0.0012196907
0.0012034973
0.0010823352
0.00081701201
0.00053241181
0.00033822093
0.00021897656
0.00015964723
0.00013275928
0.00012805308
0.00013085658
0.0001363475
0.00014181716
0.00014204164
0.00014035064
0.00013455784
0.00012657004
0.00012204785
0.00011768461
0.00011335969
0.00011000162
0.00010682196
0.00010378852
0.0001009875
9.8767381e-05
9.6956205e-05
9.5452478e-05
9.4845784e-05
9.4255696e-05
5.2561428e-13
1.6516612e-11
1.3506142e-10
5.8084348e-10
1.7873966e-09
4.5103071e-09
1.0001334e-08
2.0268666e-08
3.8461177e-08
6.9431337e-08
1.2055464e-07
2.0291564e-07
3.3301535e-07
5.3521533e-07
8.4521576e-07
1.3149717e-06
2.0195874e-06
3.0668918e-06
4.6105735e-06
6.8679127e-06
1.01432e-05
1.4857743e-05
2.1586615e-05
3.1100599e-05
4.4408278e-05
6.278704e-05
8.7781677e-05
0.00012113462
0.00016459385
0.00021952756
0.00028627738
0.00036324504
0.00044581101
0.00052534616
0.00058875423
0.00061887367
0.00059937307
0.00051704878
0.00038338102
0.000263297
0.00017848388
0.00013273488
0.00010969184
0.00010532395
0.00011087187
0.00012323238
0.0001382666
0.00014423818
0.00014422471
0.00014247787
0.00013657653
0.0001281228
0.00012379004
0.00011922495
0.00011513486
0.00011149206
0.00010806916
0.00010467943
0.00010209628
9.9760708e-05
9.7948186e-05
9.6200606e-05
9.4695191e-05
9.3943568e-05
9.3433533e-05
3.5264008e-13
1.1081162e-11
9.061387e-11
3.8969079e-10
1.1991611e-09
3.0259055e-09
6.7095867e-09
1.3597092e-08
2.5799956e-08
4.6571178e-08
8.0853186e-08
1.3606979e-07
2.2326391e-07
3.5872163e-07
5.6627432e-07
8.8053524e-07
1.3514048e-06
2.0502635e-06
3.0783456e-06
4.5778123e-06
6.7459439e-06
9.8525101e-06
1.4259516e-05
2.044081e-05
2.8995984e-05
4.0648029e-05
5.6207094e-05
7.6473761e-05
0.00010204784
0.00013301412
0.00016849877
0.00020610257
0.00024145595
0.00026798236
0.00027730049
0.00026257242
0.00022064638
0.00016869068
0.00012489618
9.7280978e-05
8.1493243e-05
7.9462281e-05
8.4763822e-05
9.8210605e-05
0.00012388812
0.00014218121
0.00014668423
0.00014660635
0.00014478669
0.00013867009
0.00012996964
0.00012530869
0.00012081129
0.00011656625
0.00011290785
0.00010914915
0.00010599997
0.00010331618
0.00010103463
9.8739233e-05
9.6802994e-05
9.5044986e-05
9.3753794e-05
9.3274117e-05
9.2931288e-05
2.0894186e-13
6.5656641e-12
5.3689102e-11
2.3089096e-10
7.1048606e-10
1.7927475e-09
3.9750059e-09
8.0548282e-09
1.5282136e-08
2.7581598e-08
4.7875456e-08
8.0548978e-08
1.3211693e-07
2.1217071e-07
3.3471275e-07
5.2001697e-07
7.9718919e-07
1.2076311e-06
1.8096199e-06
2.6841709e-06
3.9421882e-06
5.7325366e-06
8.2499213e-06
1.1740136e-05
1.6498101e-05
2.285102e-05
3.1115217e-05
4.151277e-05
5.4034831e-05
6.8247287e-05
8.3067021e-05
9.656295e-05
0.00010590208
0.00010739086
0.00010034882
8.6181448e-05
7.1836152e-05
6.0960777e-05
5.336338e-05
5.4526862e-05
5.9278979e-05
7.1167882e-05
9.5010029e-05
0.0001284754
0.00014431209
0.00014929289
0.00014907268
0.00014721639
0.00014103542
0.00013189526
0.00012708105
0.00012226707
0.00011831375
0.00011438025
0.00011073657
0.00010744052
0.00010474161
0.00010195618
9.9607977e-05
9.7417467e-05
9.5853928e-05
9.4402544e-05
9.3273758e-05
9.2692142e-05
9.2345307e-05
1.0631666e-13
3.3408263e-12
2.731859e-11
1.1748198e-10
3.6149769e-10
9.1210708e-10
2.022224e-09
4.0972903e-09
7.7723542e-09
1.4024537e-08
2.4335853e-08
4.0927119e-08
6.7091236e-08
1.0766367e-07
1.6967936e-07
2.6327737e-07
4.0292473e-07
6.0903308e-07
9.1002294e-07
1.3448304e-06
1.9657111e-06
2.8409213e-06
4.0563693e-06
5.7145426e-06
7.9279096e-06
1.0802779e-05
1.4408348e-05
1.8726992e-05
2.3585807e-05
2.857965e-05
3.3013025e-05
3.589386e-05
3.6401973e-05
3.5252144e-05
3.3247669e-05
3.110056e-05
3.0751723e-05
3.3619139e-05
3.8114247e-05
4.843083e-05
6.6388438e-05
9.7711341e-05
0.0001295353
0.00014537113
0.00015143562
0.00015152417
0.00014969188
0.00014354447
0.00013408354
0.0001289254
0.00012395498
0.00011985944
0.00011606601
0.0001121335
0.00010893283
0.00010580172
0.00010300942
0.00010051235
9.8598395e-05
9.6744631e-05
9.5174205e-05
9.3551099e-05
9.2447612e-05
9.2034005e-05
9.183649e-05
4.5787444e-14
1.4387921e-12
1.1765158e-11
5.0594053e-11
1.5567295e-10
3.9275359e-10
8.7066991e-10
1.7637976e-09
3.3450544e-09
6.0339212e-09
1.0465708e-08
1.7590566e-08
2.8813621e-08
4.6190999e-08
7.2700156e-08
1.1260588e-07
1.7194381e-07
2.5913754e-07
3.85747e-07
5.6730344e-07
8.2410403e-07
1.1816943e-06
1.6705395e-06
2.3240751e-06
3.1739412e-06
4.2411628e-06
5.5222408e-06
6.9710386e-06
8.4812192e-06
9.8794734e-06
1.0976961e-05
1.1813034e-05
1.2640324e-05
1.3767135e-05
1.554176e-05
1.8054581e-05
2.2903362e-05
3.1380923e-05
4.597348e-05
6.8066268e-05
9.9025555e-05
0.00012854712
0.00014482786
0.00015304054
0.00015388794
0.00015217187
0.00014634987
0.00013640252
0.00013103106
0.00012568445
0.00012153923
0.0001175578
0.00011387006
0.00011035006
0.00010724644
0.00010422729
0.00010191695
9.9629808e-05
9.7653508e-05
9.5637086e-05
9.4165138e-05
9.2858934e-05
9.2008947e-05
9.1599901e-05
9.1386467e-05
1.7309253e-14
5.4391231e-13
4.4475764e-12
1.9125496e-11
5.884423e-11
1.4844822e-10
3.2904445e-10
6.6645773e-10
1.2636284e-09
2.2786028e-09
3.9503864e-09
6.6357146e-09
1.0860749e-08
1.739276e-08
2.7337808e-08
4.2270905e-08
6.4404204e-08
9.6795079e-08
1.4358691e-07
2.102576e-07
3.0381992e-07
4.3287115e-07
6.0732867e-07
8.3764225e-07
1.1332961e-06
1.5006619e-06
1.9409414e-06
2.4504225e-06
3.0300642e-06
3.7062309e-06
4.5444699e-06
5.6240341e-06
7.1307904e-06
9.6846391e-06
1.3654501e-05
2.0190285e-05
3.1043151e-05
4.7230624e-05
6.9149697e-05
9.6674142e-05
0.00012432439
0.00014386241
0.00015463171
0.00015620529
0.00015466162
0.00014936709
0.00013898463
0.0001332573
0.00012764646
0.00012320716
0.00011920085
0.00011547917
0.00011207986
0.00010854561
0.00010569684
0.0001030056
0.00010064726
9.8340274e-05
9.6581276e-05
9.4955285e-05
9.3688379e-05
9.2305531e-05
9.1394025e-05
9.1022842e-05
9.0770182e-05
7.2937333e-15
2.2919245e-13
1.8741063e-12
8.0590311e-12
2.4795579e-11
6.2552852e-11
1.3865345e-10
2.8083805e-10
5.3249446e-10
9.6025121e-10
1.6649039e-09
2.7969892e-09
4.5787564e-09
7.3348052e-09
1.1534224e-08
1.7847587e-08
2.722251e-08
4.0981309e-08
6.0943464e-08
8.9573828e-08
1.3015468e-07
1.8698492e-07
2.6562419e-07
3.7321652e-07
5.1911228e-07
7.1619509e-07
9.83858e-07
1.3543971e-06
1.8838325e-06
2.6592779e-06
3.8282497e-06
5.6422244e-06
8.5970668e-06
1.3326731e-05
2.0802994e-05
3.1920657e-05
4.740704e-05
6.7918517e-05
9.3545825e-05
0.00012119064
0.0001448603
0.00015654457
0.00015858425
0.00015720451
0.00015248717
0.00014179862
0.0001357395
0.00012971619
0.00012510303
0.00012083266
0.00011718873
0.00011364411
0.00011021564
0.00010702945
0.0001044031
0.00010168596
9.9595456e-05
9.7586938e-05
9.5971576e-05
9.4202379e-05
9.2826448e-05
9.1590366e-05
9.0915661e-05
9.0585854e-05
9.0269669e-05
5.7828353e-15
1.8171596e-13
1.4859222e-12
6.3901051e-12