/*--------------------------------*- C++ -*----------------------------------*\
  =========                 |
  \\      /  F ield         | OpenFOAM: The Open Source CFD Toolbox
   \\    /   O peration     | Website:  https://openfoam.org
    \\  /    A nd           | Version:  13
     \\/     M anipulation  |
\*---------------------------------------------------------------------------*/
FoamFile
{
    format      ascii;
    class       volScalarField;
    location    "24.900123";
    object      p;
}
// * * * * * * * * * * * * * * * * * * * * * * * * * * * * * * * * * * * * * //

dimensions      [0 2 -2 0 0 0 0];

internalField   nonuniform List<scalar> 
17140
(
-0.2586922
-0.25870289
-0.2587159
-0.25872927
-0.25874389
-0.25876002
-0.25877775
-0.25879717
-0.2588184
-0.25884156
-0.25886677
-0.25889411
-0.25892369
-0.25895558
-0.25898985
-0.25902653
-0.25906566
-0.25910725
-0.25915132
-0.25919794
-0.25924728
-0.2592997
-0.25935598
-0.25941759
-0.25948721
-0.25956948
-0.25967216
-0.25980749
-0.2599933
-0.26025286
-0.26061174
-0.26109096
-0.26169899
-0.26242621
-0.2632452
-0.26411613
-0.26499401
-0.26583502
-0.26660113
-0.26726275
-0.26779982
-0.26820153
-0.26846496
-0.2685918
-0.26858388
-0.26844684
-0.26817953
-0.26776461
-0.26716877
-0.26635
-0.26521633
-0.26368468
-0.26152184
-0.25863292
-0.25440321
-0.24913191
-0.2411889
-0.23213781
-0.21816337
-0.20506186
-0.18337968
-0.16982678
-0.14156088
-0.13898153
-0.11130187
-0.25912911
-0.25913974
-0.25915265
-0.25916595
-0.25918049
-0.25919654
-0.25921417
-0.25923349
-0.25925462
-0.25927767
-0.25930274
-0.25932995
-0.25935939
-0.25939113
-0.25942523
-0.25946173
-0.25950067
-0.25954206
-0.25958593
-0.25963233
-0.25968145
-0.25973366
-0.25978973
-0.25985115
-0.25992061
-0.26000277
-0.26010541
-0.26024075
-0.26042667
-0.26068644
-0.26104563
-0.26152542
-0.26213446
-0.2628634
-0.26368516
-0.26456027
-0.26544407
-0.26629314
-0.26706984
-0.26774502
-0.26829917
-0.26872204
-0.26901147
-0.26916987
-0.26920005
-0.26910866
-0.26889497
-0.26854174
-0.26801469
-0.26726809
-0.2662021
-0.26471775
-0.2625541
-0.25956746
-0.25506977
-0.24923862
-0.24044362
-0.22999081
-0.2141915
-0.19912885
-0.17588335
-0.16170603
-0.13442637
-0.135132
-0.11184084
-0.2596794
-0.2596898
-0.25970243
-0.25971546
-0.25972971
-0.25974544
-0.25976273
-0.25978167
-0.25980239
-0.25982499
-0.25984959
-0.25987628
-0.25990517
-0.25993631
-0.25996978
-0.26000561
-0.26004383
-0.26008447
-0.26012753
-0.26017309
-0.26022133
-0.26027261
-0.2603277
-0.26038809
-0.26045643
-0.26053734
-0.26063851
-0.26077203
-0.26095558
-0.26121221
-0.26156732
-0.26204212
-0.26264557
-0.26336888
-0.26418573
-0.26505742
-0.26594003
-0.26679081
-0.26757275
-0.26825731
-0.26882556
-0.26926789
-0.26958285
-0.26977353
-0.26984405
-0.26980191
-0.26964699
-0.26936285
-0.26891466
-0.26825376
-0.26727311
-0.26585868
-0.26372334
-0.26067453
-0.25605061
-0.24960921
-0.2398305
-0.22792033
-0.21035261
-0.19325871
-0.1684117
-0.15366502
-0.12731276
-0.13128526
-0.11222722
-0.26034376
-0.26035377
-0.2603659
-0.26037845
-0.26039219
-0.26040736
-0.26042403
-0.26044231
-0.2604623
-0.26048412
-0.26050787
-0.26053366
-0.26056156
-0.26059165
-0.26062399
-0.26065863
-0.26069559
-0.26073487
-0.26077652
-0.26082059
-0.26086724
-0.26091685
-0.26097018
-0.26102865
-0.26109488
-0.26117339
-0.26127166
-0.26140151
-0.26158021
-0.26183034
-0.26217692
-0.2626411
-0.26323222
-0.2639424
-0.26474645
-0.26560691
-0.26648098
-0.26732693
-0.26810859
-0.26879816
-0.2693774
-0.26983736
-0.2701773
-0.27040098
-0.27051406
-0.27052505
-0.27043433
-0.27022694
-0.26986833
-0.26930776
-0.26843183
-0.26711208
-0.26503271
-0.26194733
-0.2570806
-0.25016914
-0.23953016
-0.2260963
-0.20663488
-0.1874699
-0.16104768
-0.14567564
-0.12048518
-0.1277356
-0.11256649
-0.26111987
-0.26112933
-0.26114074
-0.26115262
-0.26116563
-0.26117999
-0.26119578
-0.26121309
-0.26123204
-0.26125273
-0.26127526
-0.26129973
-0.26132622
-0.2613548
-0.26138553
-0.26141844
-0.26145357
-0.26149093
-0.26153053
-0.26157245
-0.26161683
-0.26166404
-0.2617148
-0.26177051
-0.26183366
-0.26190862
-0.26200259
-0.26212696
-0.26229839
-0.26253875
-0.26287245
-0.26332043
-0.26389256
-0.26458208
-0.26536541
-0.26620674
-0.26706483
-0.26789925
-0.26867496
-0.26936505
-0.26995202
-0.27042766
-0.27079189
-0.27104924
-0.27120707
-0.27127504
-0.27125403
-0.2711315
-0.27087378
-0.27042916
-0.26967888
-0.26848162
-0.26649225
-0.26341274
-0.25837593
-0.25098588
-0.23939603
-0.22441564
-0.20299792
-0.18172431
-0.15379821
-0.13773151
-0.11397592
-0.12455151
-0.11279644
-0.26200217
-0.2620109
-0.2620214
-0.2620324
-0.26204445
-0.26205776
-0.2620724
-0.26208847
-0.26210607
-0.26212529
-0.26214623
-0.26216898
-0.26219363
-0.26222024
-0.26224887
-0.26227954
-0.2623123
-0.26234714
-0.26238409
-0.26242321
-0.26246464
-0.26250873
-0.26255616
-0.26260826
-0.26266741
-0.26273774
-0.26282611
-0.26294331
-0.2631052
-0.26333271
-0.26364942
-0.26407594
-0.26462265
-0.26528422
-0.26603905
-0.26685342
-0.26768808
-0.26850426
-0.26926825
-0.26995423
-0.27054555
-0.27103477
-0.27142245
-0.27171401
-0.27191875
-0.27204719
-0.27210152
-0.2720721
-0.271927
-0.2716147
-0.27101226
-0.26996699
-0.26810355
-0.26506605
-0.25988593
-0.25203595
-0.23949523
-0.22286979
-0.1993964
-0.17593387
-0.14657165
-0.12998521
-0.10782601
-0.12156639
-0.11253008
-0.26298167
-0.26298952
-0.26299891
-0.26300884
-0.26301973
-0.26303176
-0.26304501
-0.26305955
-0.26307549
-0.26309292
-0.26311192
-0.26313258
-0.26315498
-0.26317918
-0.26320524
-0.26323317
-0.26326302
-0.26329479
-0.2633285
-0.26336421
-0.26340204
-0.26344233
-0.26348572
-0.26353344
-0.26358773
-0.26365245
-0.26373402
-0.26384253
-0.26399288
-0.2642048
-0.26450081
-0.26490105
-0.26541641
-0.26604318
-0.26676207
-0.26754193
-0.26834586
-0.26913713
-0.26988364
-0.27056081
-0.27115297
-0.27165351
-0.27206363
-0.27238978
-0.2726433
-0.27283547
-0.27297059
-0.27304238
-0.27302161
-0.27285817
-0.27242643
-0.27156371
-0.26986163
-0.26690204
-0.26161136
-0.25330842
-0.23977349
-0.2213958
-0.19574456
-0.16998811
-0.13922457
-0.12232442
-0.10194054
-0.1186967
-0.1119146
-0.26404595
-0.26405279
-0.26406091
-0.26406959
-0.26407913
-0.26408967
-0.26410128
-0.26411405
-0.26412806
-0.26414339
-0.26416013
-0.26417835
-0.26419812
-0.2642195
-0.26424255
-0.26426729
-0.26429374
-0.26432192
-0.26435184
-0.26438356
-0.26441721
-0.26445307
-0.26449175
-0.2645344
-0.26458307
-0.26464133
-0.26471508
-0.26481363
-0.26495074
-0.26514478
-0.26541696
-0.26578675
-0.26626552
-0.26685128
-0.26752738
-0.26826559
-0.26903182
-0.26979167
-0.27051499
-0.27117863
-0.271768
-0.27227741
-0.27270874
-0.27306961
-0.27337336
-0.27363217
-0.27385314
-0.27403378
-0.27414849
-0.27414988
-0.27391126
-0.27326022
-0.27174981
-0.26889652
-0.26352077
-0.25476442
-0.24017725
-0.21987972
-0.19189331
-0.1638226
-0.13173897
-0.11459554
-0.096258275
-0.11536106
-0.10987929
-0.26517913
-0.26518486
-0.26519166
-0.26519894
-0.26520695
-0.26521582
-0.26522561
-0.26523638
-0.26524822
-0.26526119
-0.26527538
-0.26529085
-0.26530766
-0.26532587
-0.26534552
-0.26536665
-0.26538927
-0.2654134
-0.26543905
-0.26546628
-0.26549521
-0.2655261
-0.26555951
-0.26559648
-0.2656389
-0.26568999
-0.26575511
-0.26584271
-0.26596528
-0.26613967
-0.26638558
-0.26672159
-0.26715943
-0.26769886
-0.26832607
-0.26901614
-0.26973812
-0.27046036
-0.2711549
-0.27180026
-0.27238309
-0.27289869
-0.27334971
-0.2737451
-0.27409995
-0.27442771
-0.27473888
-0.27503508
-0.27529516
-0.27547568
-0.27545035
-0.27503424
-0.27373474
-0.27100695
-0.2655624
-0.25633445
-0.24059246
-0.21827615
-0.18784498
-0.15704801
-0.12395159
-0.10669697
-0.091030187
-0.11223167
-0.10756586
-0.26636271
-0.26636723
-0.2663726
-0.26637837
-0.26638472
-0.26639177
-0.26639957
-0.26640817
-0.26641764
-0.26642805
-0.26643945
-0.26645192
-0.26646549
-0.26648023
-0.26649617
-0.26651334
-0.26653177
-0.26655146
-0.26657244
-0.26659475
-0.26661851
-0.26664397
-0.26667163
-0.26670244
-0.26673809
-0.26678147
-0.26683737
-0.2669133
-0.26702046
-0.267174
-0.26739196
-0.26769183
-0.26808545
-0.2685743
-0.26914753
-0.26978376
-0.27045555
-0.27113436
-0.27179471
-0.27241706
-0.27298945
-0.27350825
-0.27397704
-0.27440633
-0.2748123
-0.27521039
-0.27561508
-0.27603192
-0.27644496
-0.27681576
-0.27701827
-0.27684686
-0.27576278
-0.27316471
-0.26764752
-0.25787874
-0.24090211
-0.21619606
-0.18319502
-0.15011257
-0.11674276
-0.09965276
-0.086307073
-0.1078758
-0.10344364
-0.26757539
-0.26757864
-0.26758251
-0.26758667
-0.26759128
-0.26759642
-0.26760211
-0.26760842
-0.26761539
-0.26762308
-0.26763154
-0.26764082
-0.26765096
-0.26766201
-0.26767401
-0.26768697
-0.26770093
-0.2677159
-0.26773189
-0.26774897
-0.26776723
-0.26778692
-0.26780848
-0.26783276
-0.26786128
-0.26789659
-0.26794288
-0.26800677
-0.26809806
-0.2682302
-0.26841938
-0.26868177
-0.26902909
-0.26946435
-0.26997962
-0.27055727
-0.27117366
-0.27180368
-0.27242467
-0.27301926
-0.27357712
-0.27409576
-0.27457985
-0.27504163
-0.27549777
-0.2759664
-0.27646615
-0.27700621
-0.27757605
-0.2781425
-0.27857411
-0.27863668
-0.27775571
-0.27526737
-0.26962589
-0.25924892
-0.24066856
-0.21379321
-0.17827427
-0.14300679
-0.10967048
-0.09327076
-0.083394582
-0.10543197
-0.10049709
-0.26879472
-0.26879667
-0.26879901
-0.26880154
-0.26880437
-0.26880754
-0.26881109
-0.26881505
-0.26881945
-0.26882435
-0.26882978
-0.26883577
-0.26884237
-0.26884962
-0.26885753
-0.26886614
-0.26887547
-0.26888552
-0.26889634
-0.26890797
-0.26892051
-0.26893418
-0.26894939
-0.26896691
-0.26898805
-0.26901504
-0.26905153
-0.26910321
-0.26917854
-0.26928919
-0.26944949
-0.26967406
-0.26997421
-0.27035418
-0.27080882
-0.27132428
-0.27188092
-0.27245734
-0.27303404
-0.27359611
-0.27413506
-0.27464968
-0.27514597
-0.27563755
-0.27614181
-0.27667953
-0.27727324
-0.27793519
-0.2786599
-0.27941607
-0.2800562
-0.28031916
-0.27960111
-0.27715495
-0.27129348
-0.25995683
-0.23985103
-0.21048012
-0.17312251
-0.13833177
-0.10645992
-0.092793569
-0.08411284
-0.10129774
-0.10135132
-0.26999669
-0.26999736
-0.26999818
-0.26999911
-0.27000017
-0.2700014
-0.27000282
-0.27000444
-0.2700063
-0.27000842
-0.27001082
-0.27001354
-0.27001661
-0.27002004
-0.27002386
-0.27002809
-0.27003275
-0.27003785
-0.27004344
-0.27004955
-0.27005628
-0.27006385
-0.27007262
-0.27008326
-0.27009693
-0.27011555
-0.27014222
-0.27018179
-0.27024144
-0.27033113
-0.27046346
-0.27065115
-0.27090439
-0.27122861
-0.27162116
-0.27207186
-0.27256521
-0.27308377
-0.27361147
-0.27413616
-0.27465143
-0.27515751
-0.27566191
-0.27617915
-0.27672775
-0.27733062
-0.27801348
-0.27879034
-0.27965871
-0.28057611
-0.28137504
-0.28178294
-0.28114361
-0.27860176
-0.27218234
-0.25977322
-0.23767406
-0.20735572
-0.17047284
-0.13843228
-0.10936542
-0.095933968
-0.087163098
-0.10114683
-0.10232294
-0.27115938
-0.27115884
-0.27115822
-0.27115761
-0.27115699
-0.27115637
-0.27115574
-0.27115513
-0.27115454
-0.27115399
-0.27115349
-0.27115305
-0.27115268
-0.27115242
-0.27115226
-0.27115222
-0.27115232
-0.27115258
-0.27115301
-0.27115369
-0.27115469
-0.2711562
-0.27115855
-0.27116233
-0.27116853
-0.27117879
-0.27119571
-0.27122333
-0.27126763
-0.27133665
-0.2714419
-0.27159369
-0.27180106
-0.27207054
-0.27240114
-0.27278602
-0.27321373
-0.27367092
-0.27414522
-0.27462754
-0.27511382
-0.27560597
-0.27611305
-0.27664993
-0.27723659
-0.27789713
-0.27865911
-0.27953557
-0.28051615
-0.28153749
-0.28242599
-0.28288494
-0.28216205
-0.27919085
-0.27189422
-0.25784132
-0.23477612
-0.20428478
-0.16943666
-0.13876806
-0.11334176
-0.10209905
-0.091249295
-0.10274078
-0.099636919
-0.27226013
-0.27225848
-0.27225656
-0.27225455
-0.2722524
-0.27225008
-0.27224759
-0.27224493
-0.2722421
-0.27223909
-0.2722359
-0.27223253
-0.27222899
-0.27222528
-0.2722214
-0.27221736
-0.27221316
-0.27220882
-0.27220435
-0.27219981
-0.27219526
-0.27219088
-0.27218693
-0.27218392
-0.27218265
-0.27218449
-0.27219154
-0.27220712
-0.27223592
-0.27228257
-0.27236982
-0.27249442
-0.27265303
-0.27286766
-0.27313621
-0.27345446
-0.27381461
-0.27420726
-0.27462382
-0.27505847
-0.27550969
-0.27598124
-0.27648363
-0.27703175
-0.27764664
-0.27835233
-0.27917484
-0.28012068
-0.28115329
-0.2821952
-0.2830809
-0.28340972
-0.28230032
-0.27848294
-0.26989304
-0.25442085
-0.23017316
-0.20042944
-0.16831968
-0.14164273
-0.11784799
-0.10539695
-0.093759567
-0.10160272
-0.098085636
-0.27328314
-0.27328054
-0.27327748
-0.27327426
-0.27327078
-0.27326699
-0.27326288
-0.27325844
-0.27325364
-0.27324847
-0.27324292
-0.27323698
-0.27323063
-0.27322387
-0.27321668
-0.27320906
-0.27320101
-0.27319253
-0.27318363
-0.27317435
-0.27316475
-0.27315496
-0.27314522
-0.27313593
-0.27312778
-0.27312187
-0.27311994
-0.27312471
-0.27314065
-0.27316852
-0.27321688
-0.27330685
-0.2734322
-0.27359777
-0.27380909
-0.27406296
-0.27435559
-0.27468155
-0.27503633
-0.27541762
-0.27582672
-0.27626926
-0.27675696
-0.27730405
-0.27793212
-0.27866221
-0.2795173
-0.2804739
-0.28147311
-0.2824413
-0.28314992
-0.28310244
-0.28116274
-0.27630745
-0.26613756
-0.24873718
-0.22440622
-0.19691853
-0.1677674
-0.14271911
-0.1209708
-0.10896612
-0.097654017
-0.10135757
-0.096404833
-0.27421262
-0.27420926
-0.27420531
-0.27420113
-0.27419659
-0.27419162
-0.27418621
-0.27418033
-0.27417394
-0.27416703
-0.27415956
-0.27415151
-0.27414285
-0.27413356
-0.27412361
-0.274113
-0.2741017
-0.2740897
-0.274077
-0.27406361
-0.27404956
-0.27403495
-0.27401995
-0.27400487
-0.27399024
-0.27397691
-0.27396628
-0.27396038
-0.27396226
-0.27397975
-0.2740049
-0.27405382
-0.27413479
-0.2742496
-0.27440877
-0.27460062
-0.27482634
-0.27508401
-0.27537306
-0.27569478
-0.27605329
-0.27645588
-0.27691515
-0.27744388
-0.27806267
-0.27878701
-0.27962158
-0.28050487
-0.28137002
-0.28210009
-0.28244256
-0.28156058
-0.2788154
-0.27234608
-0.25994231
-0.24176435
-0.21879482
-0.19270358
-0.1663039
-0.14349087
-0.1233935
-0.11135939
-0.099231499
-0.1001122
-0.094852956
-0.2750393
-0.27503543
-0.27503086
-0.27502602
-0.27502074
-0.27501496
-0.27500864
-0.27500174
-0.27499423
-0.27498607
-0.27497721
-0.27496763
-0.27495727
-0.27494611
-0.27493411
-0.27492122
-0.27490742
-0.27489267
-0.27487694
-0.27486021
-0.27484247
-0.27482374
-0.27480411
-0.27478374
-0.27476297
-0.27474237
-0.27472291
-0.27470607
-0.27469406
-0.27469072
-0.274698
-0.27472277
-0.27477501
-0.27484278
-0.27494013
-0.27506774
-0.27522384
-0.27540974
-0.27562779
-0.27588217
-0.2761793
-0.27652737
-0.27693895
-0.27742249
-0.27799959
-0.27866572
-0.27939751
-0.28011155
-0.28070789
-0.28104726
-0.28071275
-0.27912598
-0.27477177
-0.26604371
-0.25246795
-0.23478701
-0.21206686
-0.18868229
-0.16468375
-0.14368985
-0.12444926
-0.11282072
-0.10105907
-0.099423896
-0.093373534
-0.27575971
-0.27575558
-0.2757507
-0.27574552
-0.27573987
-0.27573366
-0.27572685
-0.27571941
-0.27571129
-0.27570244
-0.27569281
-0.27568235
-0.275671
-0.27565873
-0.27564547
-0.27563118
-0.27561578
-0.27559922
-0.27558144
-0.27556236
-0.27554192
-0.27552006
-0.27549673
-0.27547195
-0.27544581
-0.27541857
-0.27539074
-0.27536321
-0.27533743
-0.27531554
-0.27530092
-0.27529372
-0.27530935
-0.27534159
-0.27538473
-0.2754512
-0.27553914
-0.27565209
-0.27579455
-0.27597292
-0.276195
-0.27646843
-0.27680308
-0.27720392
-0.27768589
-0.27820281
-0.27874726
-0.27917157
-0.27934007
-0.27927567
-0.27829632
-0.27526728
-0.2686165
-0.25856959
-0.24486495
-0.22646459
-0.20591159
-0.184548
-0.16254895
-0.14312698
-0.12538909
-0.11362687
-0.1017809
-0.097917023
-0.091759788
-0.27637691
-0.27637281
-0.27636795
-0.27636279
-0.27635714
-0.27635093
-0.27634411
-0.27633664
-0.27632847
-0.27631954
-0.27630979
-0.27629918
-0.27628764
-0.2762751
-0.27626149
-0.27624675
-0.27623078
-0.2762135
-0.2761948
-0.27617454
-0.2761526
-0.27612881
-0.27610298
-0.27607493
-0.27604451
-0.27601161
-0.27597631
-0.27593888
-0.27590003
-0.27586098
-0.27582364
-0.27579043
-0.27576438
-0.27574975
-0.27574436
-0.27575153
-0.27577218
-0.2758104
-0.27587162
-0.2759628
-0.27609126
-0.27626097
-0.27647796
-0.27674151
-0.27704994
-0.2773114
-0.27757109
-0.27754615
-0.2775632
-0.27690219
-0.27465184
-0.26948875
-0.26155142
-0.25083692
-0.23600809
-0.21864799
-0.200111
-0.18023491
-0.16010395
-0.14209778
-0.12526182
-0.11355976
-0.10236192
-0.096813864
-0.090100974
-0.276899
-0.2768952
-0.27689071
-0.27688593
-0.27688069
-0.27687492
-0.27686858
-0.27686161
-0.27685398
-0.27684561
-0.27683646
-0.27682646
-0.27681555
-0.27680364
-0.27679066
-0.27677651
-0.27676109
-0.27674426
-0.27672587
-0.27670573
-0.27668361
-0.27665922
-0.27663222
-0.27660221
-0.27656872
-0.27653127
-0.27648941
-0.2764428
-0.27639134
-0.27633535
-0.27627571
-0.27621398
-0.27615187
-0.27609161
-0.27603372
-0.27597971
-0.27593073
-0.27588995
-0.27586119
-0.27584926
-0.27585812
-0.27588074
-0.2759248
-0.27598914
-0.27600215
-0.27599854
-0.27586776
-0.27579819
-0.27529465
-0.27349383
-0.26940043
-0.262838
-0.25417996
-0.24201943
-0.22728497
-0.21183196
-0.19414211
-0.17587167
-0.15732562
-0.14050199
-0.12480286
-0.11303026
-0.10201023
-0.095344052
-0.08833512
-0.27733879
-0.2773356
-0.27733183
-0.2773278
-0.27732338
-0.27731851
-0.27731314
-0.27730723
-0.27730074
-0.27729361
-0.27728578
-0.27727719
-0.27726776
-0.27725742
-0.27724607
-0.2772336
-0.27721987
-0.27720471
-0.27718792
-0.27716924
-0.27714832
-0.27712474
-0.27709797
-0.27706734
-0.27703207
-0.27699123
-0.27694381
-0.27688875
-0.27682512
-0.27675225
-0.27666995
-0.27657868
-0.27647949
-0.27637378
-0.27626238
-0.27614593
-0.27602435
-0.27589837
-0.27576662
-0.27562903
-0.27547833
-0.27530552
-0.27512299
-0.27489004
-0.27463916
-0.27442002
-0.27424002
-0.27369811
-0.27214272
-0.26883076
-0.26310021
-0.25595115
-0.24562129
-0.23304564
-0.21989505
-0.20476911
-0.1883888
-0.17144299
-0.15425597
-0.13852683
-0.12364995
-0.11210934
-0.1013745
-0.093801062
-0.086535975
-0.27771542
-0.27771314
-0.27771043
-0.27770753
-0.27770435
-0.27770084
-0.27769695
-0.27769266
-0.27768792
-0.27768268
-0.2776769
-0.27767051
-0.27766343
-0.27765559
-0.27764686
-0.27763714
-0.27762624
-0.27761396
-0.27760003
-0.2775841
-0.27756572
-0.2775443
-0.27751911
-0.2774892
-0.27745342
-0.27741038
-0.27735846
-0.2772959
-0.27722089
-0.27713174
-0.27702719
-0.27690661
-0.27677011
-0.27661833
-0.27645166
-0.27626968
-0.27606951
-0.27584761
-0.27559221
-0.27529688
-0.27495798
-0.27452198
-0.27408759
-0.27361542
-0.27331381
-0.27302001
-0.27240166
-0.27096002
-0.26805332
-0.26284608
-0.25668745
-0.24778417
-0.2366485
-0.22534013
-0.21228063
-0.1980876
-0.18271348
-0.16690883
-0.15091951
-0.13612633
-0.12210165
-0.11074283
-0.10011226
-0.092122676
-0.08460007
-0.27805334
-0.27805225
-0.27805096
-0.27804957
-0.27804804
-0.27804632
-0.27804441
-0.27804227
-0.27803987
-0.27803717
-0.27803413
-0.27803068
-0.27802676
-0.27802227
-0.2780171
-0.27801108
-0.27800404
-0.27799569
-0.27798571
-0.27797365
-0.27795893
-0.27794079
-0.27791825
-0.27789009
-0.27785477
-0.27781042
-0.27775484
-0.27768555
-0.27759987
-0.27749518
-0.27736905
-0.27721982
-0.27704665
-0.27684894
-0.2766258
-0.27637455
-0.27608698
-0.2757539
-0.27535037
-0.27488164
-0.27428853
-0.27370182
-0.2730858
-0.2726414
-0.27226276
-0.2714535
-0.27005739
-0.26734274
-0.26231374
-0.2568641
-0.24905148
-0.23893366
-0.2288997
-0.21755907
-0.20508724
-0.19154785
-0.17707224
-0.16227551
-0.14732577
-0.13339496
-0.12007636
-0.10899414
-0.098594455
-0.090303604
-0.082575573
-0.27838742
-0.27838779
-0.27838823
-0.27838867
-0.27838913
-0.27838961
-0.27839009
-0.27839056
-0.278391
-0.27839137
-0.27839164
-0.27839176
-0.27839164
-0.27839119
-0.27839027
-0.27838871
-0.27838625
-0.27838259
-0.2783773
-0.27836982
-0.27835943
-0.27834517
-0.27832584
-0.2782999
-0.27826544
-0.27822014
-0.27816123
-0.27808558
-0.27798974
-0.27787015
-0.27772327
-0.27754686
-0.27733847
-0.27709537
-0.27681429
-0.27648857
-0.27610334
-0.27565159
-0.27507608
-0.27444155
-0.2737652
-0.27313112
-0.27254403
-0.271951
-0.27102158
-0.26944978
-0.26684706
-0.26199898
-0.25681648
-0.24989086
-0.2404262
-0.23127842
-0.22119003
-0.21011939
-0.19804105
-0.18512398
-0.17144416
-0.15752988
-0.14350117
-0.13033695
-0.11769862
-0.10691128
-0.096705019
-0.088302722
-0.080423223
-0.27876491
-0.27876691
-0.27876926
-0.27877174
-0.27877442
-0.27877732
-0.27878045
-0.2787838
-0.27878735
-0.27879109
-0.27879498
-0.27879897
-0.27880296
-0.27880686
-0.27881049
-0.27881364
-0.27881601
-0.2788172
-0.2788167
-0.27881382
-0.27880766
-0.27879709
-0.27878064
-0.2787565
-0.2787224
-0.27867562
-0.27861295
-0.27853065
-0.27842485
-0.27829277
-0.27812476
-0.27791951
-0.27767962
-0.27739359
-0.27705718
-0.27665914
-0.27617991
-0.27560758
-0.274971
-0.27426179
-0.27360475
-0.2729759
-0.27217539
-0.27107757
-0.26932228
-0.26639034
-0.26190353
-0.25693436
-0.25055095
-0.24159563
-0.23294001
-0.22374795
-0.21368521
-0.20282747
-0.19114519
-0.17878018
-0.16580223
-0.15267151
-0.13945487
-0.12699716
-0.11495956
-0.10451382
-0.094541798
-0.0861641
-0.07816487
-0.27925075
-0.27925434
-0.27925856
-0.27926301
-0.27926784
-0.27927309
-0.27927876
-0.27928487
-0.27929141
-0.27929836
-0.27930569
-0.27931332
-0.27932117
-0.27932909
-0.27933689
-0.2793443
-0.27935095
-0.27935637
-0.27935992
-0.27936078
-0.27935788
-0.2793499
-0.27933515
-0.27931155
-0.2792766
-0.2792273
-0.27916004
-0.27907061
-0.27895982
-0.27880817
-0.27861403
-0.27839574
-0.27812768
-0.27780156
-0.27741443
-0.27694423
-0.27641503
-0.27580836
-0.27516124
-0.27448152
-0.27377468
-0.27289301
-0.27163506
-0.26966204
-0.26656919
-0.26200737
-0.25684929
-0.25097209
-0.24266176
-0.23416085
-0.22562662
-0.21631717
-0.20633094
-0.1956801
-0.1843444
-0.17247619
-0.16012444
-0.14769204
-0.13520214
-0.12339081
-0.11191989
-0.10183785
-0.092102971
-0.083854605
-0.075779665
-0.27992659
-0.27993147
-0.2799372
-0.27994326
-0.27994981
-0.27995693
-0.27996464
-0.27997294
-0.27998182
-0.27999126
-0.28000122
-0.28001161
-0.28002232
-0.28003317
-0.28004391
-0.28005421
-0.28006363
-0.28007157
-0.28007728
-0.28007978
-0.28007784
-0.28006993
-0.28005414
-0.28002818
-0.2799893
-0.27993429
-0.27985959
-0.2797581
-0.27962406
-0.27946124
-0.27926333
-0.27902018
-0.27872259
-0.27836283
-0.27795381
-0.27747383
-0.27690541
-0.2763025
-0.27565819
-0.2749004
-0.27395208
-0.27257724
-0.27043149
-0.26721395
-0.26261084
-0.25743828
-0.25171142
-0.24390778
-0.23520473
-0.22723331
-0.21840505
-0.20902976
-0.19909348
-0.18861861
-0.17760192
-0.16618216
-0.15439057
-0.14258697
-0.13074977
-0.11954031
-0.10859136
-0.09889795
-0.089416948
-0.081397078
-0.073278058
-0.28087416
-0.28087981
-0.28088644
-0.28089343
-0.28090098
-0.28090917
-0.28091802
-0.28092751
-0.28093763
-0.28094835
-0.28095959
-0.28097126
-0.28098318
-0.28099514
-0.28100681
-0.28101778
-0.2810275
-0.28103526
-0.28104013
-0.28104096
-0.28103632
-0.28102446
-0.28100322
-0.28097001
-0.28092165
-0.28085423
-0.28076737
-0.28066874
-0.2805534
-0.2803711
-0.28011155
-0.27983053
-0.27952579
-0.27915416
-0.27870286
-0.27820276
-0.27764747
-0.27700644
-0.27625551
-0.27526546
-0.27379855
-0.27155188
-0.26825417
-0.26363072
-0.25839392
-0.25275298
-0.24509248
-0.23690006
-0.22888357
-0.22025585
-0.21122941
-0.20179604
-0.1919069
-0.18160301
-0.17087722
-0.15986546
-0.14858047
-0.13734807
-0.12610464
-0.11545878
-0.10500442
-0.095717593
-0.086499048
-0.078776807
-0.070648601
-0.2821894
-0.28219514
-0.28220187
-0.28220893
-0.28221653
-0.28222474
-0.28223356
-0.28224295
-0.28225289
-0.28226331
-0.28227411
-0.28228512
-0.28229614
-0.28230686
-0.28231688
-0.28232568
-0.28233256
-0.28233665
-0.28233687
-0.28233184
-0.28231992
-0.28229906
-0.28226648
-0.28221904
-0.2821626
-0.28209558
-0.28201113
-0.28187236
-0.2816722
-0.28146178
-0.28121866
-0.28091356
-0.28055493
-0.2801378
-0.27966657
-0.27912877
-0.27851208
-0.27776641
-0.27675593
-0.27524356
-0.27294003
-0.26962112
-0.26501582
-0.2597162
-0.25410015
-0.24660662
-0.23846644
-0.23057329
-0.22201134
-0.21322377
-0.2040834
-0.19459036
-0.18474581
-0.1745952
-0.16413609
-0.15349856
-0.14267543
-0.13196773
-0.12126975
-0.11115767
-0.10117243
-0.092307843
-0.083364585
-0.07599923
-0.067894257
-0.28394794
-0.28395316
-0.28395925
-0.2839656
-0.28397238
-0.28397963
-0.28398731
-0.28399539
-0.28400377
-0.28401236
-0.28402098
-0.28402941
-0.28403735
-0.28404439
-0.28405001
-0.28405352
-0.28405407
-0.28405057
-0.28404171
-0.28402582
-0.2840005
-0.28396338
-0.2839206
-0.28386538
-0.28379145
-0.28368529
-0.28352152
-0.28333447
-0.28312859
-0.28287141
-0.28256619
-0.28220642
-0.28179561
-0.28133114
-0.28080232
-0.28019557
-0.27944829
-0.27842232
-0.27688022
-0.27456549
-0.27124459
-0.2667169
-0.26136738
-0.25576936
-0.24842142
-0.2402953
-0.2323684
-0.22396067
-0.21522239
-0.20621032
-0.19690871
-0.18735849
-0.17755571
-0.16755171
-0.15734199
-0.14705236
-0.13665619
-0.12643644
-0.11624622
-0.10664435
-0.097111271
-0.088681585
-0.080024934
-0.07306077
-0.065008647
-0.28624073
-0.28624503
-0.28624999
-0.28625509
-0.28626042
-0.28626598
-0.28627172
-0.28627752
-0.28628324
-0.2862887
-0.28629365
-0.28629775
-0.28630057
-0.28630155
-0.28629997
-0.28629493
-0.28628532
-0.28626975
-0.28624643
-0.28621321
-0.28616955
-0.28611463
-0.28604381
-0.28594393
-0.28580248
-0.28563565
-0.28544592
-0.28521503
-0.2849396
-0.28461411
-0.28423821
-0.28381277
-0.28333327
-0.28279479
-0.28217456
-0.28140667
-0.28035388
-0.27879368
-0.27645865
-0.27319329
-0.26872066
-0.26338338
-0.25777237
-0.25058248
-0.24243984
-0.23444487
-0.22604721
-0.21733147
-0.20832323
-0.19909604
-0.18966435
-0.18006324
-0.17030162
-0.16043685
-0.15046229
-0.14050025
-0.13050403
-0.12074404
-0.11103288
-0.10192356
-0.092830218
-0.08484601
-0.076489334
-0.06996299
-0.061990855
-0.28919131
-0.28919432
-0.28919769
-0.289201
-0.28920428
-0.28920745
-0.28921039
-0.28921291
-0.28921479
-0.28921573
-0.28921534
-0.28921314
-0.28920849
-0.28920061
-0.28918853
-0.28917102
-0.28914658
-0.28911335
-0.2890692
-0.28901293
-0.28894067
-0.28884597
-0.28871939
-0.28856532
-0.28838664
-0.28817065
-0.28791193
-0.2876056
-0.28724989
-0.2868453
-0.28638923
-0.28587918
-0.28530901
-0.28465206
-0.28384049
-0.28273808
-0.28114097
-0.27879453
-0.27554926
-0.27127457
-0.26591754
-0.2603641
-0.25319706
-0.24498721
-0.23687372
-0.22843122
-0.21964204
-0.21058942
-0.20131256
-0.19187579
-0.18230753
-0.17265669
-0.1629372
-0.15320963
-0.14346237
-0.13381454
-0.12419948
-0.11487913
-0.10562664
-0.096997409
-0.088337083
-0.080807347
-0.072764669
-0.066704091
-0.058839461
-0.29303072
-0.29303166
-0.2930325
-0.29303299
-0.29303304
-0.29303247
-0.29303107
-0.29302856
-0.29302459
-0.2930187
-0.29301033
-0.29299878
-0.29298317
-0.29296242
-0.29293521
-0.29289992
-0.2928546
-0.29279693
-0.29272426
-0.29263333
-0.29251869
-0.29237787
-0.29220815
-0.29200326
-0.29175781
-0.29146693
-0.29112754
-0.29073801
-0.2902956
-0.28979834
-0.28924454
-0.28862385
-0.28790566
-0.28701891
-0.2858318
-0.28414717
-0.28174256
-0.27843266
-0.27418336
-0.26879893
-0.26310077
-0.2560731
-0.2478855
-0.23965475
-0.2311666
-0.22226446
-0.21308403
-0.20368778
-0.19413177
-0.18448474
-0.1747875
-0.16509395
-0.15542122
-0.14583229
-0.13630929
-0.12696844
-0.11772305
-0.10882942
-0.10002275
-0.091865887
-0.083636653
-0.076569137
-0.068856506
-0.063285289
-0.055551856
-0.29807113
-0.29806855
-0.29806515
-0.29806098
-0.29805573
-0.29804912
-0.29804081
-0.29803039
-0.29801734
-0.29800102
-0.29798065
-0.29795526
-0.29792368
-0.29788448
-0.29783596
-0.29777605
-0.2977023
-0.29761185
-0.29750137
-0.29736707
-0.29720466
-0.29700951
-0.29677647
-0.29650087
-0.29617871
-0.29580617
-0.29537955
-0.29489616
-0.29435399
-0.29374771
-0.29306262
-0.29226264
-0.29127293
-0.28996365
-0.28814922
-0.28561853
-0.28220339
-0.27781677
-0.27241563
-0.26646003
-0.2595603
-0.25120377
-0.24294186
-0.23432852
-0.22529978
-0.21593256
-0.20632947
-0.1965731
-0.18673092
-0.1768753
-0.16705393
-0.15732567
-0.14770796
-0.13826433
-0.12896881
-0.11993443
-0.1110546
-0.10258171
-0.094215085
-0.086527203
-0.078731959
-0.072132866
-0.064769177
-0.059701897
-0.052131148
-0.30468053
-0.30467251
-0.30466256
-0.30465124
-0.30463796
-0.30462225
-0.30460364
-0.30458154
-0.30455524
-0.30452386
-0.30448635
-0.30444147
-0.30438768
-0.30432317
-0.30424581
-0.30415306
-0.304042
-0.3039092
-0.30375079
-0.30356246
-0.30333966
-0.30307772
-0.30277194
-0.30241739
-0.30200945
-0.30154429
-0.3010183
-0.30042647
-0.29975933
-0.29899627
-0.29809452
-0.29697479
-0.29550854
-0.2935209
-0.29081611
-0.28723646
-0.28269837
-0.27715823
-0.27091502
-0.26397525
-0.25563711
-0.24711912
-0.23834056
-0.22894653
-0.21927858
-0.20937326
-0.19931146
-0.18917797
-0.17904379
-0.16898408
-0.15904943
-0.14930013
-0.13975124
-0.13046524
-0.12140668
-0.11268486
-0.10417361
-0.096122075
-0.08819634
-0.080978168
-0.073624507
-0.067498812
-0.060506026
-0.055951406
-0.048585732
-0.3132333
-0.3132175
-0.31319822
-0.31317679
-0.31315222
-0.31312381
-0.31309091
-0.31305274
-0.31300836
-0.31295664
-0.31289624
-0.31282558
-0.31274283
-0.31264573
-0.31253169
-0.3123978
-0.31224072
-0.31205666
-0.31184144
-0.31159057
-0.31129916
-0.31096214
-0.31057454
-0.31013146
-0.30962782
-0.3090577
-0.30841254
-0.30767741
-0.30682445
-0.30580293
-0.30452732
-0.30286886
-0.30065826
-0.29771508
-0.29388625
-0.28909888
-0.28331645
-0.27677049
-0.26955116
-0.26107314
-0.25217658
-0.24302162
-0.23326543
-0.2232082
-0.21291771
-0.20246171
-0.19193258
-0.18141859
-0.17099726
-0.16074561
-0.15071434
-0.14096344
-0.13150345
-0.12239394
-0.11358866
-0.10519236
-0.09705969
-0.089436401
-0.081958686
-0.075214793
-0.068315205
-0.062666925
-0.056071844
-0.052041163
-0.044877561
-0.32413888
-0.32411274
-0.32408113
-0.3240464
-0.3240071
-0.32396224
-0.32391099
-0.3238523
-0.32378495
-0.32370739
-0.32361826
-0.32351869
-0.32340353
-0.32326402
-0.3231032
-0.32292136
-0.32271134
-0.32246888
-0.32218961
-0.32186869
-0.32150098
-0.32108095
-0.32060258
-0.32005882
-0.31944048
-0.31873388
-0.31791685
-0.31695229
-0.31577949
-0.31430476
-0.31239645
-0.3098906
-0.30661516
-0.30243303
-0.29725822
-0.29109984
-0.28410796
-0.27646465
-0.26763322
-0.25830395
-0.24865678
-0.23843947
-0.22790297
-0.2171034
-0.20613771
-0.19510337
-0.18409364
-0.17320146
-0.16250573
-0.15208272
-0.14198054