/*--------------------------------*- C++ -*----------------------------------*\
  =========                 |
  \\      /  F ield         | OpenFOAM: The Open Source CFD Toolbox
   \\    /   O peration     | Website:  https://openfoam.org
    \\  /    A nd           | Version:  13
     \\/     M anipulation  |
\*---------------------------------------------------------------------------*/
FoamFile
{
    format      ascii;
    class       volScalarField;
    location    "15.003893";
    object      omega;
}
// * * * * * * * * * * * * * * * * * * * * * * * * * * * * * * * * * * * * * //

dimensions      [0 0 -1 0 0 0 0];

internalField   nonuniform List<scalar> 
17140
(
4528389.9
731657.14
224625.56
95287.923
48485.493
27614.72
16957.217
10981.1
7394.8225
5130.0318
3642.1271
2633.4938
1932.1997
1434.3219
1074.6492
810.95749
615.17109
468.19545
356.79216
271.63414
206.06526
155.29305
115.85339
85.247391
61.682755
43.870216
30.839472
21.764291
15.80936
12.113376
9.95266
8.744639
8.0391961
7.5492176
7.1374141
6.759086
6.4061507
6.0785878
5.7775709
5.5045823
5.2617109
5.0497601
4.8694582
4.719937
4.5991513
4.5034262
4.4310544
4.3811081
4.3452628
4.3210147
4.3087492
4.3033236
4.3051664
4.3224609
4.3542828
4.3997172
4.4600137
4.5328365
4.6040775
4.6656987
4.7008305
4.5583172
4.2597364
3.9370046
3.5008513
4528420.9
731662.75
224627.63
95289
48486.152
27615.172
16957.553
10981.366
7395.0462
5130.2282
3642.3064
2633.6628
1932.3632
1434.4833
1074.811
811.12123
615.33784
468.36563
356.96555
271.80986
206.24164
155.46747
116.02216
85.405662
61.824777
43.990074
30.932522
21.828895
15.850041
12.135363
9.9603673
8.7439468
8.0349799
7.5450718
7.135151
6.7594879
6.4097061
6.0855386
5.7884176
5.5204912
5.2836984
5.0798798
4.9098874
4.7734472
4.6702337
4.5947151
4.5410013
4.5128792
4.5020361
4.5025465
4.5121435
4.5279429
4.552624
4.5956701
4.6513006
4.7348099
4.8180691
4.9374796
5.0751591
5.2074186
5.2712856
5.158084
4.79313
4.3860286
3.8383275
4528451.2
731667.75
224629.2
95289.718
48486.578
27615.481
16957.819
10981.621
7395.3067
5130.5057
3642.6076
2633.9924
1932.7241
1434.8774
1075.2389
811.58257
615.83095
468.88748
357.51155
272.37353
206.81425
156.03763
116.57544
85.924563
62.289556
44.381187
31.235071
22.037933
15.980792
12.205144
9.9832848
8.7389774
8.0173704
7.5257349
7.1190763
6.748821
6.4064384
6.0917179
5.805687
5.5519491
5.3328249
5.1506013
5.0066637
4.9006912
4.8424435
4.8181714
4.8199367
4.8578349
4.9055578
4.966905
5.0341229
5.1062667
5.1806158
5.2573394
5.3333476
5.4110637
5.4761718
5.5519758
5.6318094
5.6865497
5.6981496
5.4505922
4.9363411
4.3902648
3.6019716
4528483
731672.96
224630.87
95290.511
48487.082
27615.883
16958.197
10982.007
7395.7214
5130.9604
3643.1105
2634.549
1933.3383
1435.5513
1075.973
812.37572
616.67998
469.78695
358.45337
273.34643
207.80321
157.02311
117.53278
86.823905
63.097172
45.063441
31.765813
22.407607
16.21336
12.33089
10.028441
8.7346151
7.9903186
7.4950986
7.0922381
6.7292111
6.3962972
6.0957256
5.826964
5.5946236
5.4018555
5.2512022
5.1480949
5.0937448
5.0735509
5.088448
5.158177
5.2438535
5.3382307
5.4364467
5.5322911
5.6235194
5.7048028
5.7714959
5.8215114
5.8526612
5.8587167
5.852656
5.8469405
5.8443154
5.8130809
5.469643
4.6900217
3.8867489
2.951147
4528516.9
731678.51
224632.64
95291.379
48487.663
27616.377
16958.683
10982.522
7396.2856
5131.5872
3643.8094
2635.3267
1934.1995
1436.4988
1077.0074
813.49547
617.88075
471.06134
359.79027
274.73032
209.2133
158.43228
118.9067
88.120758
64.269328
46.062687
32.553455
22.967785
16.561855
12.518786
10.102948
8.7356336
7.9566976
7.4520947
7.0531839
6.6997907
6.3797375
6.094548
5.8481309
5.6412293
5.4789971
5.37029
5.313931
5.2936694
5.2951042
5.3470457
5.4378654
5.5370932
5.6423891
5.7431337
5.832583
5.9080408
5.9655847
5.9971962
6.0107364
6.0082393
5.9780864
5.9175894
5.8696282
5.8428398
5.7709196
5.3241526
4.3340723
3.354833
2.382934
4528552.1
731684.24
224634.48
95292.31
48488.315
27616.952
16959.268
10983.152
7396.9838
5132.3685
3644.6845
2636.304
1935.2847
1437.6954
1078.3169
814.9162
619.40803
472.68658
361.50028
276.50636
211.02988
160.25587
120.69432
89.819465
65.817817
47.397236
33.620102
23.739417
17.051083
12.791888
10.222414
8.7516237
7.9194437
7.3970526
7.0006884
6.6592671
6.3547904
6.0870665
5.8647322
5.684786
5.5582178
5.4901228
5.4623807
5.4579455
5.4900669
5.5517598
5.6366554
5.7292516
5.8239005
5.9075322
5.9756954
6.0187304
6.0448004
6.0549746
6.04327
6.0040959
5.9410461
5.8494844
5.7794219
5.751229
5.6142993
5.1041106
3.8980735
2.8029648
1.8682201
4528588.7
731690.17
224636.38
95293.297
48489.027
27617.597
16959.933
10983.878
7397.7936
5133.2786
3645.7075
2637.4493
1936.5595
1439.1047
1079.8629
816.59827
621.22184
474.62341
363.54607
278.64052
213.22383
162.47125
122.88128
91.915509
67.749007
49.084242
34.991724
24.753161
17.711555
13.176953
10.408357
8.7974117
7.8875086
7.334836
6.9378187
6.6078603
6.3204322
6.0732917
5.8719237
5.7199789
5.6291072
5.5861307
5.573203
5.5851417
5.6298345
5.6848063
5.7584083
5.8403051
5.9163922
5.9765369
6.0180051
6.0390503
6.0463839
6.0357256
6.0005955
5.9366467
5.8472958
5.7440962
5.6689306
5.6422274
5.4490782
4.7776964
3.3960242
2.2903792
1.463352
4528626.6
731696.32
224638.35
95294.335
48489.789
27618.295
16960.662
10984.678
7398.6892
5134.2883
3646.8451
2638.7258
1937.9837
1440.6831
1081.5995
818.4939
623.27357
476.82361
365.88126
281.08996
215.75776
165.04875
125.44796
94.401752
70.070376
51.146982
36.706731
26.059247
18.600404
13.701098
10.674076
8.8908709
7.8754181
7.2747446
6.8689459
6.5481421
6.2767272
6.0498413
5.8668284
5.7442209
5.6780322
5.6511161
5.6465414
5.6712555
5.7143986
5.7577713
5.820027
5.8913539
5.9493405
5.9896659
6.0115694
6.019906
6.0118356
5.9775574
5.923287
5.8479549
5.7515806
5.6473352
5.5852673
5.540483
5.2725867
4.3534607
2.8610623
1.8315209
1.1368335
4528664.7
731702.65
224640.41
95295.418
48490.583
27619.029
16961.431
10985.523
7399.6383
5135.3603
3648.0552
2640.0866
1939.5059
1442.375
1083.4672
820.54066
625.49883
479.22216
368.44185
283.7937
218.57604
167.9407
128.35755
97.25522
72.775466
53.597063
38.79381
27.698261
19.759266
14.417345
11.057101
9.0526079
7.8965148
7.2263287
6.7992658
6.4823642
6.2245653
6.014651
5.8523471
5.7491728
5.7007977
5.6846576
5.6869117
5.7171456
5.7527535
5.7839207
5.8367391
5.8979498
5.9452942
5.9730288
5.9823332
5.9755079
5.9512969
5.9068879
5.8466257
5.7677084
5.667659
5.5695375
5.5313818
5.4383723
5.0672882
3.8284658
2.3528131
1.4438504
0.88871254
4528704.9
731709.24
224642.55
95296.535
48491.398
27619.778
16962.214
10986.384
7400.6046
5136.4528
3649.2903
2641.4787
1941.0671
1444.116
1085.3967
822.66464
627.82026
481.73954
371.1479
286.67352
221.60475
171.08051
131.55431
100.43486
75.841847
56.434045
41.276066
29.714908
21.247937
15.39226
11.605954
9.3100963
7.975852
7.2058033
6.7368275
6.4138648
6.1655601
5.9702929
5.8256926
5.7370886
5.6949172
5.6822967
5.689988
5.7212968
5.7519706
5.778712
5.8269381
5.882359
5.9176169
5.9315471
5.9329903
5.9185656
5.8863353
5.8377184
5.7764361
5.6955086
5.5922881
5.5140422
5.4857336
5.3338839
4.7877982
3.1960096
1.863502
1.1165953
0.69259681
4528746.8
731716.12
224644.81
95297.706
48492.238
27620.534
16962.991
10987.231
7401.5515
5137.5223
3650.5005
2642.845
1942.6036
1445.8357
1087.3109
824.78303
630.14983
484.28368
373.9049
289.63462
224.75151
174.38159
134.96136
103.8781
79.226322
59.639128
44.16288
32.147049
23.126823
16.695034
12.398402
9.717137
8.1351455
7.2273198
6.6934752
6.3499853
6.103246
5.917879
5.7851323
5.7090773
5.6741551
5.6650475
5.6764262
5.7072492
5.734554
5.7543573
5.7941143
5.8401015
5.8654443
5.8750903
5.8732736
5.855198
5.8191857
5.7702805
5.7091446
5.625343
5.5217317
5.4794845
5.4262878
5.1792674
4.3014251
2.5726728
1.4422811
0.85754511
0.5443338
4528789.6
731723.24
224647.16
95298.906
48493.081
27621.273
16963.732
10988.028
7402.4382
5138.5218
3651.6318
2644.1247
1944.0474
1447.4583
1089.1264
826.80473
632.38934
486.75013
376.60349
292.56461
227.90358
177.73419
138.47625
107.495
82.857546
63.16634
47.440154
35.016447
25.451292
18.402959
13.515021
10.352933
8.43627
7.3268178
6.6904925
6.3005247
6.0433793
5.8611683
5.7348449
5.663346
5.6323867
5.6263914
5.6413183
5.6707271
5.6934057
5.7052639
5.7370938
5.7766695
5.7994587
5.8080535
5.8049775
5.7855499
5.7482062
5.701267
5.6390335
5.5465562
5.4643696
5.4534001
5.3592317
4.9643095
3.615005
1.9885941
1.0842544
0.66449162
0.44110801
4528834.7
731730.65
224649.58
95300.102
48493.888
27621.957
16964.401
10988.738
7403.2215
5139.402
3652.6279
2645.254
1945.3261
1448.9028
1090.7532
828.63026
634.42992
489.02098
379.11756
295.33072
230.9237
180.99983
141.96354
111.15868
86.624164
66.928275
51.053905
38.311335
28.255773
20.589894
15.049255
11.30597
8.9492775
7.5513589
6.7489847
6.2899783
5.9962778
5.8057243
5.6795746
5.6077301
5.5764662
5.5708341
5.5862674
5.614645
5.6352822
5.6425667
5.6655797
5.6993005
5.7216668
5.7306981
5.7273108
5.707374
5.6707738
5.6242407
5.554913
5.4573216
5.4405775
5.442766
5.2675852
4.6234685
2.7813122
1.457297
0.80570918
0.52524422
0.36939549
4528880.1
731738.18
224652.01
95301.271
48494.642
27622.562
16964.971
10989.326
7403.8613
5140.1163
3653.4353
2646.171
1946.3693
1450.0891
1092.1005
830.15781
636.1579
490.97031
381.30895
297.78309
233.6518
184.01064
145.25138
114.69872
90.364535
70.781756
54.891617
41.963749
31.529025
23.304389
17.095235
12.686599
9.7732068
7.9771884
6.9278574
6.3303862
5.9856681
5.7618344
5.6254661
5.5474812
5.5114907
5.5041191
5.5184157
5.5455174
5.566568
5.5707024
5.5838878
5.6111871
5.6329156
5.6422037
5.6378479
5.6170162
5.5821987
5.5302857
5.4486786
5.408466
5.4585437
5.4352138
5.094581
3.8936248
2.0198485
1.0386095
0.60213714
0.42670397
0.31667978
4528926.9
731745.9
224654.46
95302.412
48495.328
27623.073
16965.419
10989.767
7404.3262
5140.6275
3654.0099
2646.8247
1947.1175
1450.9484
1093.0891
831.29601
637.46852
492.47859
383.04213
299.76941
235.9186
186.58125
148.14055
117.90617
93.866561
74.521246
58.768016
45.826773
35.183309
26.534721
19.717461
14.609554
11.034028
8.709552
7.2965614
6.4766337
6.0195347
5.7538046
5.5825351
5.4889304
5.4438633
5.4314165
5.4412704
5.4665927
5.4892563
5.4923712
5.4966587
5.5144742
5.533743
5.5405897
5.5336764
5.5120946
5.4756356
5.4114399
5.3769372
5.4181146
5.5659178
5.4151995
4.7985257
2.8682193
1.3711976
0.73356369
0.46669966
0.35651213
0.27341457
4528977.9
731754.13
224657
95303.524
48495.941
27623.479
16965.733
10990.044
7404.5976
5140.913
3654.3246
2647.1823
1947.5316
1451.4337
1093.6626
831.97743
638.28115
493.44963
384.2029
301.15496
237.5666
188.5298
150.42437
120.55086
96.880506
77.885012
62.421986
49.659229
39.02417
30.164147
22.900283
17.157877
12.871008
9.8933676
7.9760199
6.8194015
6.154415
5.7890987
5.5789238
5.4464414
5.3807126
5.3575923
5.3610986
5.3803759
5.4050632
5.409265
5.4071638
5.4135701
5.4256444
5.4256899
5.4159867
5.3909335
5.3471926
5.3312416
5.3829652
5.5922469
5.7392877
5.3414879
3.9299721
1.8322747
0.90795023
0.54872249
0.39025503
0.31143142
0.24117089
4529031.7
731762.63
224659.58
95304.608
48496.486
27623.783
16965.914
10990.158
7404.6745
5140.9703
3654.3752
2647.2368
1947.6007
1451.5291
1093.7982
832.17047
638.55297
493.8268
384.71785
301.84627
238.47802
189.70944
151.92278
122.41656
99.15304
80.585171
65.538937
53.135542
42.741694
33.937298
26.487807
20.304881
15.379937
11.692694
9.130228
7.4854427
6.4914124
5.9294192
5.622581
5.449803
5.3451004
5.2936224
5.2839389
5.2933454
5.3164818
5.3227791
5.3181093
5.3135288
5.313409
5.3076202
5.290649
5.2685974
5.276569
5.3543268
5.5979008
6.0661174
5.8166232
4.8882905
2.4787766
1.1556303
0.63970556
0.43911648
0.33618001
0.27453454
0.21563765
4529085.9
731771.27
224662.19
95305.667
48496.967
27623.994
16965.976
10990.126
7404.5757
5140.8209
3654.1852
2647.014
1947.3522
1451.2627
1093.5235
831.89957
638.30181
493.61601
384.57415
301.80412
238.58237
190.01578
152.49523
123.32446
100.46181
82.348893
67.793275
55.882454
45.931876
37.4534
30.136174
23.828365
18.504383
14.204166
10.947801
8.6637804
7.1909124
6.288223
5.7862474
5.5123621
5.3609008
5.276514
5.232746
5.2235189
5.2333442
5.2403195
5.2360043
5.2233872
5.215014
5.2018017
5.2004952
5.2297927
5.3525233
5.7057297
6.4546499
6.2870904
5.5809076
3.3319621
1.4627905
0.75870583
0.49755956
0.37815985
0.2979552
0.24808216
0.19696466
4529139.6
731780.07
224664.84
95306.704
48497.4
27624.136
16965.946
10989.979
7404.339
5140.5078
3653.8033
2646.568
1946.8459
1450.7002
1092.9101
831.2431
637.61329
492.9109
383.87334
301.13487
237.9786
189.51946
152.15834
123.21161
100.65733
82.950909
68.893697
57.541938
48.167197
40.228435
33.342921
27.275804
21.929345
17.31709
13.511525
10.566526
8.4600606
7.0694632
6.210268
5.729291
5.4642766
5.3195109
5.2470337
5.2148253
5.2069051
5.2041072
5.192132
5.1751704
5.1696468
5.1815929
5.2399686
5.4229457
5.8882023
6.9614658
6.9331572
6.3164842
4.273257
1.8048116
0.89014248
0.55367094
0.40853684
0.32532308
0.26230094
0.21875586
0.17648839
4529196.7
731789.25
224667.57
95307.761
48497.82
27624.241
16965.864
10989.764
7404.0165
5140.0907
3653.2973
2645.9753
1946.167
1449.9354
1092.0602
830.31067
636.60334
491.83212
382.73934
299.96551
236.80143
188.37092
151.08466
122.26836
99.906038
82.46046
68.747804
57.855641
49.062408
41.783839
35.541853
30.028731
25.060455
20.571329
16.594548
13.218119
10.524469
8.5317121
7.1580995
6.2903681
5.7925494
5.5124216
5.3676312
5.2975853
5.2722151
5.2609487
5.2445795
5.2480238
5.2798537
5.3684267
5.6164966
6.2287138
7.6733769
7.6728158
7.0749967
5.1115242
2.1689517
1.0435034
0.62341043
0.45562751
0.36454173
0.29750127
0.24144664
0.20167159
0.16391318
4529258.1
731798.93
224670.44
95308.86
48498.251
27624.343
16965.768
10989.526
7403.6632
5139.6336
3652.7409
2645.3199
1945.4109
1449.0757
1091.0942
829.23586
635.41894
490.53971
381.34407
298.4775
235.23733
186.75573
149.45337
120.66742
98.393913
81.107068
67.6315
57.051741
48.647268
41.852593
36.242668
31.448769
27.159649
23.204603
19.532126
16.179659
13.2375
10.800369
8.9133828
7.5448397
6.6172555
6.0761778
5.763549
5.5975055
5.5287078
5.5171583
5.5393155
5.5967979
5.7345741
6.0817015
6.9506304
8.5728855
8.5125121
7.8811792
5.8540676
2.532412
1.2060353
0.69655302
0.49638435
0.39174268
0.31544958
0.25757458
0.21244125
0.1822147
0.15137404
4529319.5
731808.78
224673.38
95310.005
48498.713
27624.47
16965.694
10989.31
7403.3317
5139.1983
3652.2057
2644.6844
1944.6718
1448.2283
1090.1327
828.15452
634.21215
489.20298
379.87486
296.87639
233.50948
184.9127
147.51525
118.66523
96.372117
79.126058
65.770235
55.40301
47.294602
40.865288
35.660562
31.343039
27.674034
24.430064
21.428482
18.568303
15.876309
13.434064
11.333058
9.6322407
8.3481477
7.4252388
6.8284318
6.5017994
6.3365061
6.3429569
6.410726
6.5907218
7.0413151
8.1774639
9.7196318
9.4962913
8.7478093
6.4886901
2.8603929
1.3653476
0.77216438
0.53405812
0.41768364
0.33926278
0.28342459
0.23804233
0.19836101
0.16974728
0.14139971
4529381.2
731818.83
224676.42
95311.205
48499.218
27624.637
16965.661
10989.139
7403.0488
5138.8164
3651.7288
2644.1119
1944.0002
1447.4519
1089.2448
827.14719
633.0772
487.93212
378.46031
295.31163
231.79031
183.03863
145.49139
116.50459
94.098306
76.776197
63.397644
53.069396
45.098959
38.928265
34.097275
30.212934
26.977872
24.176832
21.721496
19.505378
17.439111
15.446994
13.591776
11.950544
10.590349
9.5385967
8.7862057
8.3104173
7.9876803
7.9586856
8.0872231
8.5458562
9.8189472
11.023706
10.712907
9.6721647
6.9408867
3.1361669
1.509575
0.84739161
0.5714048
0.44101083
0.35979971
0.30081978
0.25097845
0.20892901
0.17710488
0.15424175
0.13299071
4529447.3
731829.47
224679.62
95312.478
48499.775
27624.85
16965.675
10989.017
7402.8212
5138.4965
3651.3218
2643.6177
1943.4156
1446.7714
1088.4608
826.25074
632.05799
486.77901
377.1618
293.85639
230.16791
181.24039
143.51138
114.34083
91.754037
74.260687
60.725065
50.27676
42.239903
36.092594
31.412217
27.841691
25.076196
22.838024
20.879274
19.103712
17.463169
16.004211
14.668433
13.445778
12.353828
11.433557
10.69396
10.137346
9.7898181
9.8571906
10.357017
11.742754
12.382713
11.954277
10.575043
7.2094657
3.3307229
1.6323829
0.92048656
0.61085405
0.46840869
0.38106782
0.31812404
0.26540759
0.2247448
0.19387482
0.16728414
0.14596832
0.1250873
4529517.1
731840.58
224682.95
95313.81
48500.358
27625.076
16965.694
10988.895
7402.5907
5138.1711
3650.9068
2643.1134
1942.819
1446.0775
1087.663
825.34132
631.02844
485.6201
375.86379
292.40919
228.56112
179.46352
141.55432
112.19476
89.413264
71.72457
57.999951
47.382083
39.212427
32.973103
28.253525
24.720672
22.098885
20.16197
18.700247
17.520883
16.457172
15.426585
14.453917
13.592188
12.864377
12.206002
11.628288
11.236528
11.401874
12.100593
13.729645
13.748968
13.172274
11.370857
7.2481429
3.4408493
1.7296809
0.98778787
0.65454829
0.49731508
0.40286774
0.33235975
0.27912061
0.2382582
0.20540647
0.1750122
0.15142787
0.13608041
0.11982417
4529588.1
731851.96
224686.4
95315.2
48500.971
27625.319
16965.724
10988.782
7402.3674
5137.8528
3650.4995
2642.6179
1942.2326
1445.3954
1086.8786
824.44689
630.01521
484.47839
374.58303
290.97817
226.96863
177.69919
139.60983
110.0647
87.0959
69.222938
55.323698
44.545185
36.233355
29.879703
25.083953
21.524022
18.933762
17.088059
15.791568
14.875966
14.213952
13.665614
13.183689
12.763138
12.387069
12.100463
12.227048
12.747917
14.263534
15.519881
15.191554
14.302695
12.009392
7.1359885
3.4913525
1.8065017
1.0526254
0.70008804
0.52951363
0.42474428
0.34883068
0.2932614
0.25208323
0.21527677
0.18565746
0.16272469
0.14353677
0.12799633
0.11403664
4529661.3
731863.8
224689.98
95316.637
48501.599
27625.557
16965.734
10988.639
7402.1061
5137.4906
3650.044
2642.0711
1941.5936
1444.6609
1086.0441
823.50655
628.9625
483.30615
373.28387
289.54486
225.39445
175.97836
137.73775
108.03873
84.91554
66.89104
52.848944
41.942122
33.520161
27.081722
22.232792
18.655959
16.088126
14.306538
13.121035
12.369667
11.917359
11.669737
11.65001
11.813662
12.308929
13.136964
14.598492
16.625059
17.073942
16.650135
15.311114
12.223809
6.9902573
3.525719
1.8773734
1.1150234
0.74942836
0.56490065
0.44927637
0.36644077
0.30812103
0.2627643
0.22481469
0.19553588
0.17267576
0.15165006
0.13551472
0.12331266
0.11108219
4529737.4
731876.07
224693.72
95318.132
48502.259
27625.818
16965.763
10988.514
7401.8648
5137.1514
3649.6158
2641.5577
1940.9957
1443.9778
1085.274
822.64771
628.01293
482.2642
372.14828
288.31463
224.06868
174.556
136.21769
106.42033
83.200063
65.082547
50.954569
39.973596
31.496515
25.025278
20.169248
16.615414
14.106382
12.425217
11.398777
10.90756
10.801258
11.083503
11.842542
13.099303
14.80115
16.820476
18.526903
18.494499
17.862728
16.075382
12.178532
6.9432016
3.5887285
1.9548382
1.1828141
0.80259788
0.60576219
0.47608894
0.38651765
0.32255941
0.27450755
0.23529363
0.2068947
0.18146364
0.1591082
0.14107982
0.12723231
0.11659519
0.10694383
4529816
731888.77
224697.62
95319.759
48503.054
27626.234
16965.975
10988.605
7401.8745
5137.1017
3649.5189
2641.4203
1940.8214
1443.7681
1085.0293
822.36729
627.69542
481.90776
371.75077
287.87382
223.58255
174.02313
135.63761
105.79363
82.528285
64.368275
50.201908
39.186461
30.688351
24.220193
19.391722
15.903111
13.509767
12.02716
11.322398
11.20707
11.684912
12.782914
14.479479
16.630347
18.788036
20.226824
19.898452
18.989149
16.632408
12.158633
7.0559034
3.7034372
2.0495973
1.25902
0.8654809
0.65206827
0.50734769
0.40840238
0.33985691
0.28779349
0.24788709
0.21663516
0.18937872
0.16584478
0.14900473
0.1351735
0.12314523
0.11351962
0.10472186
4529897.8
731902.04
224701.7
95321.526
48503.991
27626.81
16966.379
10988.919
7402.1445
5137.3524
3649.7655
2641.6728
1941.0866
1444.0508
1085.3329
822.69408
628.047
482.28491
372.15349
288.30133
224.03325
174.49446
136.12603
106.29461
83.036745
64.879537
50.71318
39.699535
31.204276
24.743717
19.957845
16.56115
14.336705
13.133032
12.792598
13.22388
14.367685
16.17892
18.471208
20.685196
21.889811
21.449019
20.153615
17.146709
12.303859
7.2815189
3.8863458
2.1671307
1.3467736
0.93704511
0.70385567
0.54168922
0.43481767
0.3595836
0.3037259
0.25982458
0.22651897
0.19734349
0.17530197
0.15753538
0.14180704
0.12713307
0.1169216
0.10906823
0.10219225
4529983.7
731915.87
224705.97
95323.409
48505.03
27627.496
16966.907
10989.379
7402.5822
5137.7964
3650.2339
2642.1781
1941.6383
1444.6565
1085.9987
823.42522
628.84787
483.15915
373.10398
289.33018
225.14168
175.68278
137.3936
107.63985
84.457454
66.37373
52.280729
41.344005
32.933489
26.577276
21.921993
18.703174
16.725496
15.846204
15.934754
16.777834
18.410532
20.57006
22.76654
23.700519
23.071286
21.441122
17.806129
12.664482
7.6097431
4.1057671
2.3050674
1.4484598
1.0186654
0.76293633
0.58367618
0.46645903
0.38412959
0.32119639
0.27416258
0.23739637
0.20793026
0.18429335
0.16477169
0.14614184
0.13273614
0.12216086
0.11406953
0.10713547
0.10062859
4530071.7
731930.09
224710.39
95325.352
48506.101
27628.201
16967.448
10989.848
7403.0291
5138.2505
3650.7142
2642.6986
1942.2097
1445.2878
1086.6978
824.19955
629.70426
484.10423
374.14419
290.47182
226.39096
177.04591
138.87688
109.25009
86.202235
68.26211
54.32339
43.554371
35.331941
29.191746
24.790895
21.878593
20.270467
19.822499
20.267375
21.509197
23.151091
25.073439
25.724532
24.873387
22.785564
18.569513
13.136632
7.9672482
4.3265193
2.4632644
1.5667704
1.1131199
0.8316424
0.63426142
0.50432733
0.41158833
0.34242248
0.29025594
0.25099792
0.21840373
0.19355035
0.17125589
0.15366485
0.13990522
0.12851714
0.11817803
0.10975139
0.10381813
0.098907276
4530163.2
731944.94
224714.96
95327.33
48507.159
27628.864
16967.924
10990.234
7403.3756
5138.5871
3651.0606
2643.0689
1942.615
1445.7378
1087.2016
824.76599
630.34252
484.82401
374.95597
291.38709
227.42247
178.20795
140.18602
110.72502
87.864687
70.137163
56.440143
45.946188
38.037181
32.255044
28.262697
25.809871
24.697313
24.719988
25.321402
26.635778
28.238577
28.025274
26.866816
24.173142
19.446047
13.715254
8.3746108
4.6042143
2.6540298
1.7096728
1.2233182
0.91144351
0.6937623
0.54921802
0.44445373
0.36792414
0.31105813
0.26619869
0.23125552
0.20307158
0.18028875
0.16153695
0.14681168
0.13273865
0.12186217
0.11339631
0.10720999
0.10198627
0.097489986
4530257.7
731960.21
224719.66
95329.348
48508.214
27629.499
16968.354
10990.557
7403.6447
5138.833
3651.3032
2643.3226
1942.8915
1446.0473
1087.5543
825.17232
630.81381
485.37293
375.59694
292.13674
228.30008
179.23599
141.39032
112.13583
89.516897
72.070857
58.701146
48.586314
41.11241
35.820766
32.363673
30.461774
29.86018
30.126288
31.008545
31.45496
30.719088
28.916525
25.545638
20.353527
14.330216
8.7982499
4.9192974
2.8800635
1.8810829
1.3483942
1.0002386
0.76286546
0.6024464
0.48464995
0.39881954
0.33521273
0.28484189
0.2452857
0.21516446
0.18964918
0.17017287
0.15276999
0.13856299
0.12738182
0.11880114
0.11120036
0.10513618
0.10054625
0.096607624
4530355.2
731975.98
224724.52
95331.442
48509.316
27630.164
16968.807
10990.902
7403.9352
5139.1017
3651.5716
2643.6061
1943.203
1446.3985
1087.9567
825.63829
631.35698
486.00884
376.34364
293.01538
229.33561
180.45788
142.8333
113.84055
91.530368
74.445986
61.485347
51.836893
44.878974
40.130774
37.198928
35.72126
35.332608
35.319708
34.749759
33.267103
30.94103
26.930092
21.282886
14.966426
9.2734431
5.3089334
3.1702475
2.0863345
1.4864648
1.1001145
0.84410936
0.66715017
0.53314703
0.43601158
0.36347469
0.30731561
0.26347907
0.22887735
0.2015392
0.17878906
0.16070704
0.14509198
0.13373748
0.12288159
0.11417445
0.10758861
0.10255251
0.098754579
0.095286937
4530457.6
731992.5
224729.62
95333.658
48510.505
27630.912
16969.345
10991.34
7404.3321
5139.4922
3651.9788
2644.0479
1943.6943
1446.9533
1088.5892
826.36337
632.19149
486.97198
377.45776
294.30684
230.83572
182.20397
144.86965
116.21611
94.293786
77.633221
65.13001
55.970009
49.50413
45.193913
42.568804
41.098057
39.933936
38.219961
35.950523
32.938048
28.2591
22.168884
15.610783
9.8232786
5.778478
3.5068357
2.3016688
1.6271673
1.2115201
0.93990507
0.74245562
0.59033573
0.47946806
0.39756493
0.33430497
0.28551545
0.245774
0.21431892
0.18982206
0.16900163
0.1531665
0.13941059
0.12784557
0.11843636
0.1120288
0.10596175
0.10134727
0.097938592
0.094707812
4530563.2
732009.62
224734.95
95335.998
48511.79
27631.753
16969.986
10991.894
7404.8612
5140.0344
3652.5603
2644.689
1944.4128
1447.7661
1089.5137
827.41822
633.39753
488.35298
379.04129
296.12463
232.92388
184.60211
147.61847
119.35736
97.867517
81.675207
69.646348
60.904473
54.750988
50.524683
47.497289
44.809053
41.961459
38.923311
35.030834
29.658587
23.150723
16.397793
10.525635
6.3545487
3.8940963
2.5404335
1.7941541
1.3520906
1.0563654
0.83017495
0.65705298
0.5325661
0.43874855
0.36728508
0.31124304
0.2664952
0.23055289
0.20250497
0.18003796
0.16120136
0.14651463
0.13317389
0.12407693
0.11570722
0.10869191
0.10339059
0.099436976
0.09656304
0.093754746
4530672.5
732027.34
224740.47
95338.455
48513.171
27632.69
16970.73
10992.564
7405.5233
5140.7292
3653.3167
2645.5301
1945.3593
1448.8379
1090.7312
828.80334
634.97396
490.14661
381.08007
298.43854
235.54398
187.55887
150.93899
123.0591
101.95132
86.119354
74.385821
65.764664
59.401424
54.447022
50.205013
46.252212
42.234481
37.332571
31.233182
24.302144
17.342512
11.33886
6.9860538
4.3060033
2.8026062
1.9886284
1.5108878
1.179321
0.92369293
0.73346707
0.59546012
0.48843917
0.40545637
0.34201256
0.29106175
0.25096379
0.21799827
0.19202742
0.17140492
0.15389764
0.14056996
0.12949294
0.12008685
0.11198964
0.10683217
0.1023015
0.098613941
0.09597242
0.093336264
4530784.7
732045.65
224746.21
95341.039
48514.655
27633.724
16971.577
10993.35
7406.3162
5141.5724
3654.2413
2646.5612
1946.5192
1450.1482
1092.2138
830.48116
636.8709
492.28766
383.49051
301.14219
238.56021
190.89782
154.59414
126.99675
106.0964
90.337571
78.484846
69.468532
62.357587
56.447456
51.167296
45.902511
39.898166
33.038786
25.665762
18.471609
12.292827
7.7244444
4.8112316
3.1439737
2.2365347
1.6964864
1.3193038
1.0377776
0.8308524
0.67326428
0.54787142
0.4519399
0.37857924
0.32145262
0.27497915
0.23748563
0.2068192
0.18332597
0.16410639
0.14810915
0.13603303
0.12453051
0.11695817
0.11030454
0.10494141
0.10046292
0.097218432
0.094953917
0.092611936
4530901
732061.22
224749.3
95341.524
48514.595
27633.608
16971.553
10993.47
7406.601
5142.0338
3654.8884
2647.4035
1947.5675
1451.415
1093.7133
832.22884
638.88311
494.58
386.07574
304.02682
241.73954
194.34901
158.26729
130.80426
109.902
93.947115
81.640618
71.915524
63.896517
56.889257
50.071396
42.87479
35.20914
27.350707
19.87158
13.458084
8.622151
5.4327531
3.5516972
2.5075083
1.8875047
1.469596
1.1678421
0.94039016
0.75841455
0.61428489
0.50634699
0.42289538
0.35648718
0.30391596
0.26041246
0.22598078
0.19763572
0.17550696
0.15765571
0.14274595
0.13121484
0.12188172
0.11425788
0.10741725
0.10298722
0.099191439
0.096604699
0.094508983
0.092325426
4531685.4
732195.3
224794.45
95362.925
48526.752
27641.409
16977.036
10997.62
7409.9484
5144.891
3657.4529
2649.8079
1949.9064
1453.7589
1096.1168
834.73502
641.5252
497.38142
389.04823
307.1669
245.02319
197.72494
161.64954
134.0659
112.87302
96.420548
83.391865
72.748726
63.520955
54.850283
46.277521
37.669366
29.213793
21.363442
14.666977
9.5469566
6.0815402
3.9794648
2.7948139
2.1021385
1.6504967
1.3236215
1.0665009
0.85799439
0.69639705
0.57393443
0.47628499
0.39824105
0.33697279
0.28846279
0.24813253
0.21571697
0.18883174
0.16873802
0.15186495
0.13806243
0.12784969
0.11807758
0.11167771
0.10605438
0.10194518
0.098349768
0.095541797
0.093552181
0.092007081
4531684.6
732191.64
224791.5
95360.788
48525.325
27640.5
16976.516
10997.412
7410.0097
5145.1946
3657.9845
2650.5613
1950.88
1454.9543
1097.5363
836.37952
643.39143
499.45827
391.31219
309.57645
247.51255
200.1979
163.97518
136.07844
114.38178
97.228897
83.241244
71.251789
60.443797
50.296683
40.593924
31.419334
23.099928
16.061535
10.630467
6.8698156
4.5163629
3.15975
2.3669088
1.8577279
1.4886473
1.1980959
0.96784701
0.78985722
0.64900746
0.53478017
0.44573039
0.37614836
0.32027671
0.27496152
0.23664594
0.20643252
0.18154674
0.16229015
0.14668382
0.13381365
0.12394357
0.11564214
0.10958403
0.10401609
0.10024275
0.097088257
0.095094705
0.093152646
0.091786781
4531684.8
732191.79
224791.66
95361.007
48525.61
27640.855
16976.949
10997.932
7410.623
5145.9102
3658.8108
2651.5063
1951.9508
1456.1559
1098.8704
837.84198
644.96983
501.12822
393.03307
311.28692
249.12643
201.60245
165.03561
136.63035
114.20965
96.044399
80.821995
67.567336
55.622974
44.645237
34.585552
25.628902
18.076502
12.173929
7.9678368
5.2358508
3.6165255
2.6718579
2.0856412
1.675759
1.3601715
1.1096078
0.90802346
0.74273843
0.61020616
0.50772821
0.42624204
0.3598371
0.30651772
0.2636582
0.22753469
0.19887872
0.17479656
0.15732924
0.14221858
0.13020055
0.1213104
0.11323272
0.10760725
0.10260291
0.099547332
0.096398423
0.094341919
0.092737643
0.091490377
4531684.9
732191.91
224791.77
95361.148
48525.791
27641.083
16977.229
10998.268
7411.0211
5146.3756
3659.3484
2652.1199
1952.6422
1456.9236
1099.7079
838.73542
645.89523
502.04828
393.89415
312.01691
249.62848
201.74876
164.65401
135.52351
112.20349
93.049421
76.834302
62.699827
50.127429
38.904162
29.060064
20.763998
14.192153
9.3840242
6.1645518
4.2018305
3.0600777
2.3755623
1.9134538
1.5604802
1.2748919
1.0401855
0.84935279
0.69872179
0.57962378
0.48290547
0.40563796
0.34421059
0.29468996
0.25408848
0.21930902
0.19213809
0.16959448
0.15247519
0.13847743
0.12717919
0.11858171
0.11105426
0.10615419
0.10150287
0.098249398
0.095627971
0.093869266
0.092294015
0.091305896
4531686.1
732192.06
224791.83
95361.204
48525.863
27641.175
16977.343
10998.408
7411.1891
5146.574
3659.5782
2652.3806
1952.9304
1457.2318
1100.0225
839.0345
646.14553
502.20171
393.8832
311.74845
248.98824
200.60802
162.88898
133.03093
108.91855
88.97299
72.06034
57.432004
44.672946
33.636249
24.351188
16.904663
11.324596
7.4649484
5.0283631
3.5878761
2.7374236
2.1866531
1.7815113
1.4594499
1.1970329
0.98395701
0.81150594
0.67018577
0.55530503
0.46476831
0.39249026
0.33314726
0.28500493
0.245983
0.21270663
0.18666662
0.1645623
0.1489146