/*--------------------------------*- C++ -*----------------------------------*\
  =========                 |
  \\      /  F ield         | OpenFOAM: The Open Source CFD Toolbox
   \\    /   O peration     | Website:  https://openfoam.org
    \\  /    A nd           | Version:  13
     \\/     M anipulation  |
\*---------------------------------------------------------------------------*/
FoamFile
{
    format      ascii;
    class       volScalarField;
    location    "15.003893";
    object      p;
}
// * * * * * * * * * * * * * * * * * * * * * * * * * * * * * * * * * * * * * //

dimensions      [0 2 -2 0 0 0 0];

internalField   nonuniform List<scalar> 
17140
(
-0.11925235
-0.11937256
-0.1195173
-0.11966604
-0.1198274
-0.12000388
-0.12019586
-0.12040391
-0.12062866
-0.12087065
-0.12113028
-0.1214079
-0.12170382
-0.12201849
-0.12235266
-0.12270779
-0.1230865
-0.12349336
-0.12393591
-0.1244261
-0.12498215
-0.12563112
-0.12641236
-0.12738195
-0.12861816
-0.13023138
-0.13237831
-0.13517265
-0.13844389
-0.14199459
-0.14609779
-0.15106997
-0.15705733
-0.16426079
-0.17289543
-0.18319623
-0.19540479
-0.20976653
-0.22651561
-0.245856
-0.26793216
-0.29279489
-0.32037682
-0.35049909
-0.3828968
-0.41694557
-0.45163371
-0.48641575
-0.5207518
-0.55364474
-0.58385883
-0.61017821
-0.63105428
-0.64582527
-0.65109183
-0.64592965
-0.62722376
-0.58818535
-0.52173598
-0.41894998
-0.26508246
-0.095136968
0.047196442
0.11965334
0.14917358
-0.11989851
-0.12001748
-0.12016063
-0.12030787
-0.12046764
-0.1206424
-0.12083252
-0.12103859
-0.12126124
-0.121501
-0.12175829
-0.12203345
-0.12232681
-0.12263881
-0.12297023
-0.12332251
-0.12369828
-0.12410209
-0.12454145
-0.12502823
-0.12558056
-0.12622533
-0.12700166
-0.12796532
-0.12919409
-0.13079733
-0.13293058
-0.13571465
-0.13898344
-0.14252942
-0.14662167
-0.15158208
-0.15755572
-0.1647439
-0.17336115
-0.18364167
-0.19582672
-0.21016042
-0.22687584
-0.24617477
-0.26819816
-0.29299295
-0.3204899
-0.35051092
-0.38276127
-0.41660172
-0.45118238
-0.48588525
-0.52008093
-0.55281778
-0.58286504
-0.60911485
-0.62987153
-0.64414519
-0.64980313
-0.64481643
-0.62584857
-0.5876757
-0.52246729
-0.42166385
-0.27018919
-0.10073498
0.041987675
0.11538178
0.14589468
-0.12273761
-0.12285222
-0.12299076
-0.12313249
-0.1232863
-0.12345466
-0.12363789
-0.12383657
-0.12405131
-0.12428264
-0.12453096
-0.12479659
-0.12507986
-0.12538117
-0.12570125
-0.12604146
-0.12640433
-0.12679425
-0.12721849
-0.12768862
-0.12822236
-0.12884604
-0.12959801
-0.13053306
-0.13172759
-0.1332877
-0.13536499
-0.1381026
-0.14134964
-0.14487403
-0.14892508
-0.15384343
-0.15977158
-0.1669122
-0.17548037
-0.18571008
-0.19784348
-0.21212344
-0.22878059
-0.24801248
-0.26995281
-0.29463882
-0.3219959
-0.35183175
-0.38376986
-0.41733119
-0.45182455
-0.48641832
-0.52045243
-0.5530324
-0.5829544
-0.60904354
-0.62972661
-0.64398398
-0.64976965
-0.6454282
-0.62730381
-0.59075943
-0.52838039
-0.43101295
-0.28211006
-0.11240323
0.03155779
0.10659497
0.13830159
-0.12774571
-0.12785234
-0.12798094
-0.12811313
-0.1282567
-0.12841393
-0.12858516
-0.12877097
-0.12897192
-0.12918853
-0.12942118
-0.12967015
-0.12993572
-0.13021824
-0.13051834
-0.13083725
-0.13117728
-0.13154252
-0.13193984
-0.13238028
-0.13288083
-0.13346688
-0.13417549
-0.13505981
-0.13619401
-0.13767931
-0.13966052
-0.14231176
-0.14551487
-0.14900217
-0.15298325
-0.15782528
-0.16367295
-0.17073018
-0.17921421
-0.18935822
-0.20140502
-0.21559661
-0.23216027
-0.25128633
-0.27309745
-0.29761755
-0.32476297
-0.35430793
-0.38585423
-0.41911498
-0.45341236
-0.4878328
-0.52165706
-0.55404916
-0.58388937
-0.60994042
-0.63062878
-0.64502444
-0.65139492
-0.64788598
-0.63105858
-0.5970529
-0.5386896
-0.44627732
-0.30045739
-0.129883
0.015774407
0.09294906
0.12635207
-0.13477471
-0.13487014
-0.13498481
-0.13510353
-0.13523266
-0.13537419
-0.1355285
-0.13569612
-0.13587759
-0.1360734
-0.13628387
-0.13650926
-0.1367498
-0.13700575
-0.13727762
-0.13756645
-0.13787427
-0.13820479
-0.13856435
-0.13896326
-0.13941756
-0.13995139
-0.14060013
-0.14141462
-0.1424661
-0.14385166
-0.14570732
-0.14820544
-0.15130878
-0.1547725
-0.1586844
-0.16340335
-0.16913349
-0.1760674
-0.18442646
-0.19444436
-0.2063632
-0.22042286
-0.23684558
-0.25581277
-0.27743378
-0.30171953
-0.32857383
-0.35773572
-0.38891297
-0.42172925
-0.45555514
-0.48970696
-0.52343008
-0.55565374
-0.58535861
-0.61143752
-0.63224976
-0.64695755
-0.65404887
-0.65176136
-0.63675168
-0.60563849
-0.55188364
-0.46507789
-0.3222176
-0.15129436
-0.0041959806
0.074904916
0.11031245
-0.14355877
-0.14364012
-0.14373734
-0.14383911
-0.14395001
-0.14407171
-0.14420461
-0.14434922
-0.14450603
-0.14467546
-0.14485781
-0.1450533
-0.14526207
-0.1454843
-0.14572037
-0.14597109
-0.14623818
-0.14652488
-0.14683688
-0.14718359
-0.14757987
-0.14804829
-0.14862211
-0.14934924
-0.1502971
-0.15155787
-0.15325713
-0.15555859
-0.15852079
-0.16193879
-0.16577416
-0.17034033
-0.1759225
-0.18269781
-0.19089223
-0.20074039
-0.21248358
-0.22635899
-0.24258285
-0.26132599
-0.282684
-0.30665695
-0.33313386
-0.36187222
-0.39259994
-0.42485244
-0.45811828
-0.4917937
-0.52522342
-0.55742205
-0.58717545
-0.61325972
-0.63416386
-0.64927299
-0.65725128
-0.65627302
-0.64331705
-0.61541864
-0.56655085
-0.48546752
-0.34564411
-0.17497146
-0.026557912
0.053614133
0.091309861
-0.15371732
-0.15378225
-0.15385917
-0.15394106
-0.15403057
-0.15412899
-0.15423672
-0.15435424
-0.15448198
-0.1546203
-0.15476946
-0.15492963
-0.15510089
-0.15528333
-0.1554772
-0.15568309
-0.15590239
-0.15613786
-0.15639445
-0.15668061
-0.15700982
-0.15740285
-0.15789048
-0.15851721
-0.15934594
-0.16046295
-0.16198223
-0.16405292
-0.16682882
-0.17018398
-0.17393375
-0.17832624
-0.18373016
-0.19031396
-0.19830395
-0.20793628
-0.21945154
-0.23308344
-0.24904126
-0.26748495
-0.28849836
-0.31207608
-0.3380966
-0.36635306
-0.39654078
-0.42820781
-0.4608869
-0.49398987
-0.5268437
-0.55875802
-0.58862178
-0.61496694
-0.63604192
-0.65152821
-0.66040059
-0.66074738
-0.64982118
-0.62513958
-0.58097147
-0.50445805
-0.3682076
-0.19707341
-0.052084615
0.031055942
0.07084798
-0.16479231
-0.16483932
-0.16489516
-0.16495491
-0.16502051
-0.16509295
-0.16517258
-0.16525981
-0.16535501
-0.16545847
-0.16557043
-0.16569099
-0.16582021
-0.16595812
-0.16610487
-0.16626088
-0.16642727
-0.16660636
-0.16680245
-0.16702301
-0.16728019
-0.16759288
-0.16798933
-0.1685105
-0.16921431
-0.1701806
-0.17151514
-0.17335204
-0.17584706
-0.17903495
-0.18274649
-0.18701735
-0.19219123
-0.19854731
-0.20629114
-0.21565938
-0.22689138
-0.24021667
-0.25583714
-0.27390339
-0.29449152
-0.31759693
-0.34310619
-0.3708192
-0.40041147
-0.43145759
-0.4635029
-0.49601556
-0.52832765
-0.55968711
-0.58923427
-0.61592295
-0.63743533
-0.65329636
-0.66304636
-0.664657
-0.65559943
-0.63390006
-0.59368053
-0.52081452
-0.3865862
-0.21924475
-0.075038426
0.0072759373
0.050206678
-0.17625028
-0.17627833
-0.17631187
-0.17634812
-0.17638829
-0.17643305
-0.1764827
-0.17653756
-0.17659792
-0.17666403
-0.17673606
-0.17681411
-0.17689821
-0.17698838
-0.1770847
-0.17718753
-0.17729779
-0.17741746
-0.17755029
-0.17770291
-0.17788619
-0.17811719
-0.17842162
-0.17883684
-0.17941564
-0.18023081
-0.18137948
-0.18298401
-0.1851869
-0.1881165
-0.19172355
-0.1959133
-0.20087266
-0.20696742
-0.21443793
-0.22350022
-0.23439752
-0.24735598
-0.26257154
-0.28018888
-0.3002815
-0.32284949
-0.34780037
-0.37492345
-0.40388794
-0.43427631
-0.46564672
-0.49752323
-0.5292693
-0.56014602
-0.58924484
-0.61574892
-0.63776375
-0.6542817
-0.66477671
-0.6675707
-0.66014633
-0.64099143
-0.603618
-0.53212917
-0.3991527
-0.23440588
-0.092413153
-0.015988097
0.030589683
-0.18753639
-0.18754521
-0.18755613
-0.18756847
-0.18758272
-0.18759922
-0.18761819
-0.18763985
-0.18766441
-0.18769207
-0.18772294
-0.18775711
-0.18779463
-0.18783552
-0.18787991
-0.18792814
-0.18798107
-0.18804051
-0.18810985
-0.18819505
-0.18830595
-0.188458
-0.18867454
-0.18898953
-0.18945091
-0.19012443
-0.19109798
-0.19248389
-0.19441347
-0.19701922
-0.2003879
-0.20449488
-0.20934269
-0.21516157
-0.22228896
-0.23099797
-0.24151363
-0.25405106
-0.26880046
-0.28590431
-0.30544505
-0.32744675
-0.35181729
-0.37831783
-0.40663304
-0.43634123
-0.467007
-0.49822158
-0.52937299
-0.55974123
-0.58845558
-0.6145641
-0.63671677
-0.65404726
-0.66524291
-0.6689906
-0.66287675
-0.6455567
-0.60975643
-0.53709174
-0.40522782
-0.2463994
-0.1099565
-0.036038618
0.012558037
-0.19809933
-0.19808952
-0.19807847
-0.19806754
-0.1980565
-0.19804535
-0.19803421
-0.19802322
-0.19801249
-0.19800212
-0.19799221
-0.19798283
-0.19797405
-0.19796596
-0.19795877
-0.19795292
-0.19794934
-0.19794984
-0.19795768
-0.19797845
-0.19802125
-0.19810032
-0.19823704
-0.19846249
-0.19882032
-0.19937012
-0.20019097
-0.20138458
-0.20307396
-0.20538995
-0.208444
-0.21229755
-0.21700288
-0.22266757
-0.22951027
-0.23782671
-0.24790221
-0.25996577
-0.27420474
-0.29077058
-0.30975238
-0.3311624
-0.35491132
-0.38079371
-0.40844853
-0.43739768
-0.46729096
-0.49781624
-0.52835612
-0.55818548
-0.58648199
-0.61224857
-0.63427951
-0.65215621
-0.6640651
-0.66845506
-0.66322594
-0.64719046
-0.61016039
-0.53504682
-0.40275792
-0.25529389
-0.12464509
-0.053842366
-0.0038556619
-0.20744317
-0.20741618
-0.20738485
-0.20735237
-0.20731783
-0.2072809
-0.20724161
-0.20719996
-0.20715597
-0.20710965
-0.20706105
-0.20701021
-0.20695723
-0.2069023
-0.20684572
-0.20678813
-0.20673062
-0.20667518
-0.20662516
-0.20658607
-0.20656668
-0.20658045
-0.2066474
-0.20679634
-0.20706754
-0.20751557
-0.20821224
-0.20924965
-0.21074108
-0.21281536
-0.21559819
-0.21918679
-0.2236518
-0.22910218
-0.23571791
-0.24373005
-0.25340543
-0.26499528
-0.27870493
-0.29469359
-0.31305274
-0.33377328
-0.35678016
-0.3819267
-0.40888688
-0.43711529
-0.46620583
-0.49599543
-0.52589368
-0.55515893
-0.582987
-0.60831797
-0.6303041
-0.64848984
-0.66083428
-0.66557477
-0.66082077
-0.64470362
-0.60391148
-0.52527967
-0.39592208
-0.25542619
-0.13739388
-0.069227737
-0.018511171
-0.21516132
-0.21511953
-0.21507066
-0.21501946
-0.21496443
-0.21490491
-0.21484084
-0.21477207
-0.2146985
-0.21462003
-0.21453663
-0.2144483
-0.21435514
-0.21425738
-0.21415546
-0.21405017
-0.21394284
-0.21383569
-0.21373231
-0.21363834
-0.21356251
-0.21351789
-0.21352363
-0.21360699
-0.21380565
-0.21417026
-0.2147669
-0.21567943
-0.21701108
-0.21888329
-0.22142674
-0.22476425
-0.22899474
-0.23421963
-0.24058122
-0.2482866
-0.25758626
-0.26871841
-0.28188548
-0.29724212
-0.31487885
-0.33481375
-0.35699418
-0.38127514
-0.40741708
-0.43499854
-0.46339436
-0.49243015
-0.52166826
-0.55035065
-0.57762658
-0.60240272
-0.62438537
-0.64278932
-0.65515352
-0.65986896
-0.6552524
-0.636365
-0.59113283
-0.50871863
-0.38466893
-0.25442348
-0.14715974
-0.082376131
-0.031593163
-0.22097716
-0.22092378
-0.22086111
-0.2207951
-0.22072374
-0.22064611
-0.22056201
-0.22047117
-0.22037333
-0.22026826
-0.2201558
-0.22003589
-0.21990855
-0.21977401
-0.21963276
-0.21948567
-0.21933425
-0.21918089
-0.2190294
-0.21888558
-0.2187582
-0.21866015
-0.21861
-0.21863391
-0.21876771
-0.21905914
-0.21957
-0.22037787
-0.22157742
-0.22328044
-0.22561123
-0.22871645
-0.23269256
-0.23765662
-0.24374955
-0.25113434
-0.26002838
-0.27066384
-0.28324223
-0.29792158
-0.3148064
-0.3339323
-0.3552598
-0.37866231
-0.40390558
-0.4307234
-0.45847838
-0.48681415
-0.51538634
-0.5434451
-0.57002899
-0.59440029
-0.61616996
-0.63458003
-0.64658588
-0.65109523
-0.64519487
-0.62164151
-0.57168641
-0.48539824
-0.36788867
-0.25188553
-0.15461438
-0.09348375
-0.043150255
-0.2247834
-0.22472228
-0.22465033
-0.22457424
-0.22449164
-0.22440141
-0.2243032
-0.2241966
-0.22408119
-0.2239566
-0.22382251
-0.2236787
-0.22352508
-0.22336177
-0.22318918
-0.22300816
-0.2228202
-0.22262772
-0.22243455
-0.22224648
-0.22207217
-0.22192422
-0.22182065
-0.22178661
-0.22185641
-0.22207557
-0.22250271
-0.22321097
-0.22428876
-0.22584062
-0.22797917
-0.23081912
-0.23453072
-0.23923587
-0.24502336
-0.25205625
-0.26053202
-0.27065132
-0.2826146
-0.29658325
-0.31267344
-0.33093844
-0.35135897
-0.37383547
-0.39816634
-0.42411207
-0.45117873
-0.47886647
-0.50675361
-0.53413649
-0.56002991
-0.58406454
-0.60552476
-0.62347943
-0.63488427
-0.63875134
-0.62938272
-0.60123086
-0.5456364
-0.46154327
-0.35104349
-0.24782891
-0.16008639
-0.10274784
-0.053311044
-0.22663365
-0.22656905
-0.22649277
-0.22641184
-0.22632367
-0.22622699
-0.22612134
-0.22600617
-0.22588091
-0.225745
-0.22559796
-0.22543937
-0.22526895
-0.22508661
-0.22489256
-0.22468743
-0.22447247
-0.22424987
-0.22402315
-0.22379774
-0.22358176
-0.22338713
-0.22323085
-0.22313672
-0.22313725
-0.22327572
-0.22360801
-0.2242039
-0.22514753
-0.22653693
-0.2284824
-0.23110011
-0.23454154
-0.23888666
-0.24441085
-0.25107872
-0.25904366
-0.26858442
-0.27987539
-0.29307627
-0.30831201
-0.32564955
-0.34509572
-0.36658233
-0.38995163
-0.41497466
-0.44131311
-0.46836134
-0.49555907
-0.52219137
-0.54753651
-0.57118645
-0.59218667
-0.60933245
-0.6199611
-0.6217236
-0.60823815
-0.57429182
-0.51548412
-0.43336686
-0.33666367
-0.24300624
-0.16386139
-0.11033296
-0.062120347
-0.22675962
-0.22669561
-0.22661943
-0.22653888
-0.22645086
-0.22635398
-0.22624769
-0.22613135
-0.22600424
-0.22586565
-0.22571491
-0.22555139
-0.22537457
-0.22518407
-0.22497979
-0.22476196
-0.22453141
-0.22428978
-0.22403994
-0.22378649
-0.22353651
-0.22330055
-0.22309389
-0.22293819
-0.22286334
-0.22290962
-0.2231297
-0.22359021
-0.22437238
-0.22557125
-0.22729379
-0.22965726
-0.23277697
-0.23678597
-0.24168714
-0.24786428
-0.25546052
-0.26442754
-0.27499351
-0.28734377
-0.30163781
-0.31796187
-0.33635146
-0.3567726
-0.37911169
-0.40316337
-0.42870064
-0.45510276
-0.48152794
-0.50759474
-0.53244336
-0.55565157
-0.57588884
-0.59219119
-0.60128468
-0.59994052
-0.58162432
-0.54292299
-0.48490806
-0.40530508
-0.32007428
-0.23830203
-0.16618988
-0.1164192
-0.069671594
-0.22549502
-0.22543519
-0.22536336
-0.22528791
-0.22520523
-0.22511386
-0.22501324
-0.22490264
-0.22478125
-0.22464825
-0.22450278
-0.22434403
-0.22417123
-0.2239837
-0.22378094
-0.22356271
-0.22332924
-0.22308141
-0.2228211
-0.22255167
-0.22227857
-0.22201028
-0.22175941
-0.22154428
-0.22139069
-0.22133415
-0.22142206
-0.22171572
-0.22229149
-0.22324055
-0.22466647
-0.2266826
-0.22940222
-0.23295316
-0.23742471
-0.24314058
-0.24996582
-0.25812433
-0.26792968
-0.27936597
-0.29262902
-0.30783604
-0.32506714
-0.34433202
-0.36556162
-0.38859475
-0.41319729
-0.43887479
-0.46468131
-0.49032034
-0.51462094
-0.5373467
-0.55688907
-0.57204628
-0.57898518
-0.57467344
-0.55061408
-0.50948762
-0.45110031
-0.38324389
-0.30431591
-0.23272357
-0.16714527
-0.1211092
-0.076014751
-0.22326323
-0.22321044
-0.22314657
-0.22307989
-0.2230066
-0.22292529
-0.22283539
-0.22273617
-0.22262677
-0.22250627
-0.22237375
-0.22222823
-0.22206874
-0.22189432
-0.22170412
-0.22149743
-0.22127383
-0.22103337
-0.22077682
-0.22050607
-0.22022465
-0.21993845
-0.21965678
-0.21939364
-0.21916947
-0.21901323
-0.21896474
-0.21907719
-0.21941909
-0.22007538
-0.22114651
-0.22274565
-0.2249937
-0.2280114
-0.23195726
-0.23682007
-0.24289845
-0.2503775
-0.2590634
-0.2693088
-0.28139485
-0.29534436
-0.31128848
-0.32928863
-0.34932318
-0.37128164
-0.3949056
-0.4198444
-0.44511922
-0.47036744
-0.49429199
-0.51669059
-0.53542137
-0.54916947
-0.55348111
-0.54293152
-0.51654227
-0.47467961
-0.4206916
-0.35990352
-0.29061194
-0.22696238
-0.16706212
-0.12457871
-0.081245147
-0.22047312
-0.22042917
-0.22037555
-0.22031991
-0.22025857
-0.22019025
-0.22011443
-0.22003037
-0.21993725
-0.21983416
-0.21972013
-0.21959412
-0.21945505
-0.21930178
-0.21913321
-0.21894823
-0.2187459
-0.21852552
-0.21828684
-0.21803033
-0.21775755
-0.21747176
-0.21717868
-0.21688754
-0.21661254
-0.21637459
-0.2162036
-0.21614098
-0.21624227
-0.21657935
-0.21724139
-0.2183338
-0.21997594
-0.22228898
-0.22542064
-0.22945637
-0.23456227
-0.2408065
-0.24832684
-0.25738656
-0.2680877
-0.28064036
-0.29517604
-0.31181367
-0.3305947
-0.35145256
-0.37417121
-0.39836289
-0.42317034
-0.44831735
-0.47202682
-0.49428763
-0.51227008
-0.52420093
-0.5244443
-0.50936486
-0.48301434
-0.43950197
-0.3938583
-0.33850575
-0.277109
-0.22055445
-0.16595241
-0.12690578
-0.085428766
-0.21749732
-0.21746285
-0.21742066
-0.21737687
-0.21732844
-0.21727429
-0.21721394
-0.21714676
-0.21707197
-0.21698872
-0.2168961
-0.21679311
-0.21667862
-0.21655148
-0.21641043
-0.21625416
-0.2160814
-0.21589091
-0.21568168
-0.21545303
-0.21520493
-0.21493833
-0.21465571
-0.21436182
-0.21406468
-0.21377694
-0.21351759
-0.21331413
-0.21320511
-0.21324279
-0.21349572
-0.21404991
-0.2150088
-0.21648843
-0.2186201
-0.22152756
-0.22534641
-0.23025154
-0.2364188
-0.24392836
-0.25305885
-0.26401462
-0.27699792
-0.29219075
-0.30969585
-0.32952416
-0.35143522
-0.37516529
-0.39969454
-0.42529475
-0.44903051
-0.47140184
-0.48784956
-0.49686596
-0.49327904
-0.47643798
-0.44703213
-0.41132984
-0.3677976
-0.31873174
-0.26438431
-0.21394562
-0.16405616
-0.12823832
-0.088652214
-0.21459929
-0.21457365
-0.2145424
-0.2145099
-0.21447382
-0.21443334
-0.21438806
-0.21433742
-0.21428078
-0.21421743
-0.21414655
-0.21406724
-0.21397852
-0.21387929
-0.21376834
-0.21364439
-0.21350606
-0.21335192
-0.21318055
-0.2129906
-0.21278097
-0.21255095
-0.21230058
-0.21203102
-0.21174522
-0.21144857
-0.21115008
-0.21086366
-0.21061002
-0.21041884
-0.21033172
-0.2104046
-0.21070861
-0.21134002
-0.21241533
-0.21406608
-0.21644338
-0.21972266
-0.22408733
-0.22976927
-0.23701567
-0.24610783
-0.2573409
-0.27098582
-0.28724298
-0.30613412
-0.32755372
-0.35093094
-0.37611955
-0.40221906
-0.4264407
-0.44783159
-0.46079541
-0.46560764
-0.45569394
-0.44278622
-0.414334
-0.38238308
-0.3441249
-0.30046012
-0.25196037
-0.20694523
-0.1613906
-0.12864696
-0.090977776
-0.21195546
-0.21193798
-0.2119172
-0.21189468
-0.21186958
-0.21184138
-0.21180972
-0.21177418
-0.21173425
-0.2116894
-0.211639
-0.21158233
-0.21151852
-0.21144656
-0.21136533
-0.2112736
-0.21117008
-0.21105349
-0.21092248
-0.21077559
-0.21061135
-0.21042823
-0.21022468
-0.20999921
-0.20975101
-0.20948001
-0.20918716
-0.20887499
-0.20854822
-0.20821465
-0.20789192
-0.20760182
-0.20737345
-0.20725304
-0.20732691
-0.20770195
-0.20852994
-0.21000916
-0.21238321
-0.21594985
-0.22104647
-0.22805829
-0.23737158
-0.24941658
-0.26448163
-0.28271903
-0.30400176
-0.32865276
-0.35495621
-0.38101888
-0.40445785
-0.42247302
-0.43179749
-0.43117035
-0.42571359
-0.40566996
-0.38612983
-0.35724048
-0.32232628
-0.28328643
-0.23998466
-0.19976716
-0.15812418
-0.12825169
-0.092487277
-0.20957559
-0.20956495
-0.20955218
-0.2095383
-0.20952278
-0.20950527
-0.20948557
-0.20946342
-0.20943812
-0.20940838
-0.20937298
-0.20933197
-0.209286
-0.20923497
-0.20917856
-0.20911671
-0.20904942
-0.20897597
-0.20889437
-0.20880212
-0.20869636
-0.20857334
-0.20842775
-0.20825841
-0.2080659
-0.20784682
-0.20759658
-0.20730966
-0.20697867
-0.20659789
-0.20616841
-0.20565393
-0.2050328
-0.20435216
-0.20364133
-0.20293712
-0.20236497
-0.20212069
-0.20249067
-0.20386459
-0.20670506
-0.21155392
-0.2189777
-0.2295294
-0.24362505
-0.26175661
-0.28417884
-0.30955942
-0.33574735
-0.36074258
-0.38103429
-0.39524263
-0.39971496
-0.40109042
-0.39432978
-0.37934378
-0.35938581
-0.33312794
-0.30189502
-0.26710636
-0.22832967
-0.19237182
-0.15429774
-0.12711887
-0.093240818
-0.20744993
-0.20744614
-0.20744154
-0.20743644
-0.20743063
-0.20742419
-0.20741716
-0.20740619
-0.20738639
-0.20736599
-0.20736229
-0.20737349
-0.20738145
-0.20737594
-0.20735471
-0.20731458
-0.20725747
-0.20719567
-0.20713645
-0.20707746
-0.20701562
-0.20694751
-0.2068662
-0.20676356
-0.20663493
-0.20647668
-0.20628175
-0.20604022
-0.20573848
-0.20535701
-0.20487038
-0.20424201
-0.20343186
-0.20242862
-0.20119166
-0.19971973
-0.19809894
-0.19649382
-0.19520951
-0.19470823
-0.1955855
-0.19850627
-0.20409084
-0.21346013
-0.22742901
-0.24614484
-0.26862023
-0.29275928
-0.31798495
-0.3392346
-0.35645101
-0.36851463
-0.37173881
-0.37216532
-0.36513006
-0.35161208
-0.33427293
-0.31105048
-0.28287664
-0.25179226
-0.21700952
-0.18484636
-0.1500146
-0.12534397
-0.093313334
-0.2055157
-0.20551883
-0.20552246
-0.20552621
-0.20553017
-0.20553436
-0.20553874
-0.20554319
-0.2055478
-0.20555329
-0.20556293
-0.20557808
-0.20559176
-0.20559598
-0.20558777
-0.20556783
-0.20554766
-0.20554133
-0.20554338
-0.20553497
-0.20550407
-0.2054528
-0.20540252
-0.20536208
-0.20530001
-0.20519609
-0.20505581
-0.20487016
-0.20461958
-0.20427575
-0.20380207
-0.20315168
-0.20227357
-0.20111713
-0.19963503
-0.1977759
-0.19556843
-0.19312967
-0.19073305
-0.18891973
-0.18828075
-0.18973412
-0.19454553
-0.20375236
-0.21737624
-0.23512177
-0.25612006
-0.27867052
-0.29938556
-0.31719641
-0.33391389
-0.34172625
-0.34800864
-0.34361607
-0.33892353
-0.32741696
-0.3113196
-0.29031179
-0.2649664
-0.23722761
-0.20597465
-0.17719975
-0.14532404
-0.12298871
-0.092760066
-0.20390011
-0.20391121
-0.20392426
-0.20393804
-0.20395295
-0.2039692
-0.20398679
-0.20400577
-0.20402614
-0.20404795
-0.20407124
-0.20409556
-0.20411952
-0.20414266
-0.20416546
-0.20418723
-0.20420765
-0.20422537
-0.20424267
-0.20426417
-0.20428648
-0.20430316
-0.20431315
-0.20432155
-0.20431075
-0.20423975
-0.20410337
-0.20392233
-0.20368516
-0.20334607
-0.20286578
-0.20222048
-0.20136552
-0.20017012
-0.19856761
-0.19654056
-0.19407952
-0.19128707
-0.18848118
-0.18612353
-0.18516424
-0.18629626
-0.19042313
-0.19848645
-0.21063988
-0.22654727
-0.24533516
-0.26425531
-0.28093054
-0.29896414
-0.31142447
-0.31866293
-0.32087515
-0.31986078
-0.31480974
-0.30418565
-0.28966121
-0.27091657
-0.2481148
-0.22333606
-0.1952132
-0.16947027
-0.14029043
-0.12012359
-0.091643497
-0.20265243
-0.20267144
-0.2026938
-0.20271743
-0.20274306
-0.20277101
-0.20280135
-0.20283416
-0.20286948
-0.20290736
-0.20294774
-0.20299053
-0.20303556
-0.20308257
-0.20313112
-0.20318055
-0.20323002
-0.20327838
-0.20332399
-0.20336553
-0.20340181
-0.20342166
-0.2034097
-0.20338045
-0.20336061
-0.20333551
-0.2032625
-0.20312817
-0.20295008
-0.20270671
-0.20231966
-0.20170947
-0.20078629
-0.19961901
-0.19825279
-0.19646126
-0.19426234
-0.19167994
-0.18898946
-0.1867663
-0.18550561
-0.18594593
-0.18931855
-0.19603068
-0.20655242
-0.22022931
-0.23608843
-0.25130121
-0.26679947
-0.28126641
-0.28968728
-0.29610357
-0.29912557
-0.29728366
-0.29230961
-0.28287236
-0.26960741
-0.2527185
-0.23217315
-0.21003646
-0.18469884
-0.1616762
-0.13495942
-0.11680385
-0.090012002
-0.20257507
-0.20259659
-0.20262196
-0.20264873
-0.20267776
-0.20270944
-0.20274386
-0.20278109
-0.20282121
-0.20286427
-0.20291022
-0.20295899
-0.20301037
-0.20306409
-0.20311973
-0.20317673
-0.20323434
-0.20329162
-0.2033474
-0.20340022
-0.20344821
-0.20348897
-0.2035189
-0.20353358
-0.20352943
-0.20350157
-0.20344113
-0.20333039
-0.20314285
-0.20286984
-0.20248826
-0.20201584
-0.20144514
-0.20061282
-0.19939911
-0.19779751
-0.19593096
-0.19383845
-0.19149283
-0.18926434
-0.18781345
-0.18785013
-0.19022804
-0.19561769
-0.20423902
-0.21552495
-0.22823649
-0.2402388
-0.2528938
-0.26351163
-0.27122423
-0.27631498
-0.2779841
-0.27632841
-0.27151433
-0.26282598
-0.25072552
-0.23555938
-0.21704829
-0.19726652
-0.17441479
-0.15383718
-0.12937392
-0.11308351
-0.08791505
-0.20354575
-0.20356432
-0.20358621
-0.20360937
-0.20363453
-0.20366201
-0.20369189
-0.20372425
-0.20375917
-0.20379669
-0.2038368
-0.20387942
-0.20392441
-0.20397153
-0.20402042
-0.20407059
-0.20412138
-0.20417196
-0.20422131
-0.20426816
-0.20431099
-0.20434796
-0.20437693
-0.20439584
-0.20440237
-0.20438375
-0.20432923
-0.20423804
-0.20414299
-0.20407131
-0.20390364
-0.20349609
-0.20291873
-0.20225421
-0.20139237
-0.20018298
-0.19860728
-0.19670308
-0.19453211
-0.19242126
-0.19083551
-0.19042387
-0.19200451
-0.19607589
-0.20290803
-0.21139123
-0.21991303
-0.23004378
-0.24035392
-0.24825655
-0.25403701
-0.25772679
-0.25884761
-0.25689638
-0.25210032
-0.2441183
-0.2330417
-0.21936175
-0.20265339
-0.18497031
-0.1643424
-0.14596749
-0.12356919
-0.10900786
-0.085394357
-0.20558445
-0.2055966
-0.20561091
-0.20562606
-0.20564251
-0.20566048
-0.20568002
-0.20570117
-0.20572397
-0.20574844
-0.20577454
-0.2058022
-0.20583128
-0.20586157
-0.20589277
-0.20592445
-0.2059561
-0.20598701
-0.20601636
-0.20604311
-0.20606602
-0.20608343
-0.20609435
-0.20609979
-0.20611111
-0.20610543
-0.20610294
-0.20610585
-0.20598353
-0.20576465
-0.20557155
-0.20533125
-0.2049422
-0.20437012
-0.20356595
-0.2024676
-0.20106827
-0.19936004
-0.19739436
-0.19537633
-0.19371092
-0.19296594
-0.19380742
-0.19665433
-0.2012978
-0.20626641
-0.21348807
-0.22187417
-0.22824534
-0.23396074
-0.23823206
-0.24069953
-0.24092668
-0.23869201
-0.23395033
-0.22651536
-0.21633985
-0.20399243
-0.18890159
-0.17309516
-0.15446441
-0.13807826
-0.11757601
-0.10461975
-0.082490663
-0.20816605
-0.20817185
-0.20817866
-0.20818582
-0.20819356
-0.20820194
-0.20821095
-0.2082206
-0.20823084
-0.20824162
-0.20825284
-0.20826436
-0.20827596
-0.20828737
-0.20829823
-0.20830803
-0.20831619
-0.20832198
-0.20832441
-0.20832191
-0.20831333
-0.20830632
-0.2082943
-0.2082821
-0.20826991
-0.2081951
-0.20805492
-0.20793411
-0.20782324
-0.20764967
-0.20740785
-0.20708414
-0.20664876
-0.20607506
-0.20532071
-0.20433647
-0.20308086
-0.20152744
-0.1996948
-0.19773364
-0.1959762
-0.19487741
-0.19500346
-0.19629953
-0.19875113
-0.20277891
-0.20800049
-0.21243137
-0.21692149
-0.22080561
-0.2234912
-0.22474782
-0.22422279
-0.22164869
-0.21689876
-0.20992807
-0.20054891
-0.18937402
-0.17572477
-0.16159662
-0.14476379
-0.13017723
-0.11141972
-0.099955802
-0.079239609
-0.21115798
-0.21115985
-0.21116197
-0.21116407
-0.21116616
-0.21116822
-0.21117017
-0.2111719
-0.21117326
-0.21117409
-0.21117414
-0.2111731
-0.21117058
-0.21116608
-0.21115897
-0.21114847
-0.21113362
-0.21111324
-0.21108576
-0.21104962
-0.21100572
-0.21095058
-0.210874
-0.21077493
-0.21064401
-0.2104899
-0.21031924
-0.21011364
-0.20986659
-0.20956775
-0.20921412
-0.20879616
-0.20829318
-0.20768215
-0.20693059
-0.20599025
-0.20479935
-0.20329665
-0.20146854
-0.19944541
-0.19747674
-0.19594419
-0.19521278
-0.19545779
-0.19674216
-0.1987213
-0.2009818
-0.20369143
-0.20623362
-0.20833011
-0.20960964
-0.20977324
-0.20848731
-0.20555982
-0.20079488
-0.19420947
-0.18553333
-0.17540461
-0.16305075
-0.15042986
-0.13522309
-0.12226977
-0.10512244
-0.095048871
-0.075676272
-0.21457855
-0.21457845
-0.21457815
-0.21457753
-0.21457649
-0.21457489
-0.21457255
-0.21456927
-0.21456477
-0.2145587
-0.21455062
-0.21454
-0.21452617
-0.21450828
-0.21448532
-0.21445603
-0.21441889
-0.21437205
-0.2143134
-0.21424076
-0.2141509
-0.21403307
-0.21389011
-0.21372608
-0.21352826
-0.21329244
-0.21301399
-0.21268956
-0.21231847
-0.21189894
-0.21142614
-0.21089496
-0.21029756
-0.20961508
-0.2088085
-0.20780951
-0.20652803
-0.20488011
-0.20286347
-0.20060329
-0.19824809
-0.1962925
-0.19487177
-0.1940708
-0.19347617
-0.1936378
-0.19419255
-0.19500151
-0.19582727
-0.19640911
-0.19639846
-0.19554871
-0.193572
-0.19030157
-0.18550516
-0.17925076
-0.17120243
-0.16200754
-0.15081932
-0.13955563
-0.12582551
-0.11435787
-0.098701591
-0.089927908
-0.071831732
-0.21888623
-0.2188839
-0.21888083
-0.21887712
-0.21887248
-0.21886669
-0.21885945
-0.21885043
-0.21883918
-0.21882518
-0.21880776
-0.21878612
-0.21875926
-0.21872598
-0.21868482
-0.21863402
-0.21857145
-0.21849463
-0.2184006
-0.218286
-0.21814693
-0.21797902
-0.21777786
-0.21753832
-0.21725517
-0.2169244
-0.21654344
-0.21610991
-0.2156218
-0.2150791
-0.21448285
-0.21383065
-0.2131105
-0.21229045
-0.21130818
-0.2100699
-0.20847353
-0.20644996
-0.20404926
-0.20132167
-0.19856067
-0.19616055
-0.19372324
-0.19133811
-0.18932085
-0.18800885
-0.18700158
-0.1862756
-0.18562402
-0.18484261
-0.18367802
-0.18192206
-0.17931224
-0.17572067
-0.17089584
-0.16493393
-0.15745245
-0.14910026
-0.13896977
-0.12893462
-0.11655334
-0.10644076
-0.092172186
-0.084613463
-0.067733566
-0.22451247
-0.2245058
-0.22449751
-0.22448806
-0.22447696
-0.22446379
-0.22444817
-0.22442958
-0.22440741
-0.22438092
-0.2243492
-0.22431116
-0.22426549
-0.2242106
-0.2241446
-0.22406525
-0.22396989
-0.22385544
-0.22371832
-0.22355447
-0.2233593
-0.22312782
-0.222855
-0.22253596
-0.22216607
-0.22174085
-0.22125683
-0.22071251
-0.22010761
-0.21944183
-0.21871181
-0.21790486
-0.2169897
-0.21590643
-0.21456493
-0.2128598
-0.2107063
-0.20809066
-0.20506056
-0.20168326
-0.19845725
-0.19479481
-0.1911098
-0.18756244
-0.18459224
-0.18192353
-0.17955006
-0.17743727
-0.17546281
-0.1734838
-0.171296
-0.16873356
-0.16556438
-0.16168971
-0.15684776
-0.15115586
-0.1441961
-0.13661188
-0.12744838
-0.1185312
-0.10739001
-0.098515669
-0.085546743
-0.07912188
-0.063423053
-0.23183789
-0.2318243
-0.2318077
-0.23178923
-0.23176805
-0.23174354
-0.23171514
-0.23168215
-0.23164377
-0.231599
-0.23154667
-0.23148538
-0.23141346
-0.23132894
-0.23122951
-0.23111245
-0.23097461
-0.23081237
-0.23062171
-0.23039814
-0.23013681
-0.22983263
-0.22948021
-0.22907429
-0.22861023
-0.22808412
-0.2274928
-0.22683345
-0.22610218
-0.22529064
-0.22438015
-0.22333346
-0.22208714
-0.22054884
-0.21861442
-0.21619077
-0.21323992
-0.20978084
-0.20586566
-0.20188758
-0.19741276
-0.19243197
-0.18780976
-0.18345409
-0.17924416
-0.1753254
-0.17170474
-0.16836292
-0.16522622
-0.16219333
-0.15910835
-0.15584405
-0.15219231
-0.14808128
-0.14324525
-0.13781498
-0.13134598
-0.12447188
-0.11620257
-0.10831018
-0.098318556
-0.090578436
-0.078836048
-0.073479307
-0.058875498
-0.24121766
-0.2411945
-0.24116649
-0.2411357
-0.24110086
-0.24106109
-0.24101561
-0.2409635
-0.2409037
-0.24083495
-0.24075578
-0.24066442
-0.24055888
-0.24043684
-0.24029566
-0.24013223
-0.23994304
-0.23972413
-0.23947107
-0.23917903
-0.23884291
-0.2384574
-0.23801716
-0.23751691
-0.23695146
-0.23631544
-0.23560239
-0.23480279
-0.23390041
-0.23286675
-0.23165409
-0.23019007
-0.22837805
-0.22610933
-0.22329769
-0.21987861
-0.21587366
-0.21134557
-0.20657323
-0.20133766
-0.19544606
-0.18980395
-0.18418962
-0.1785959
-0.17323829
-0.16816552
-0.16340277
-0.15895909
-0.15479253
-0.15084065
-0.14698198
-0.14312091
-0.13907045
-0.1347803
-0.12998339
-0.12481926
-0.11882378
-0.11261655
-0.10518388