/*--------------------------------*- C++ -*----------------------------------*\
  =========                 |
  \\      /  F ield         | OpenFOAM: The Open Source CFD Toolbox
   \\    /   O peration     | Website:  https://openfoam.org
    \\  /    A nd           | Version:  13
     \\/     M anipulation  |
\*---------------------------------------------------------------------------*/
FoamFile
{
    format      ascii;
    class       volScalarField;
    location    "48.39881";
    object      pPrime2Mean;
}
// * * * * * * * * * * * * * * * * * * * * * * * * * * * * * * * * * * * * * //

dimensions      [0 4 -4 0 0 0 0];

internalField   nonuniform List<scalar> 
17140
(
6435.1241
6435.1243
6435.1242
6435.1239
6435.1234
6435.1224
6435.1213
6435.1198
6435.1176
6435.1147
6435.1112
6435.1067
6435.1008
6435.0936
6435.0844
6435.073
6435.0586
6435.0405
6435.018
6434.9899
6434.9543
6434.9099
6434.8542
6434.784
6434.6955
6434.5841
6434.4435
6434.2661
6434.0425
6433.7607
6433.4063
6432.9614
6432.4044
6431.7092
6430.8444
6429.7723
6428.4487
6426.8214
6424.8299
6422.4051
6419.4672
6415.9267
6411.6825
6406.6214
6400.6176
6393.5312
6385.2091
6375.4834
6364.1701
6351.0697
6335.9646
6318.6193
6298.7794
6276.1704
6250.4961
6221.4378
6188.6487
6151.7566
6110.3513
6063.9967
6012.2089
5954.4944
5890.2766
5818.9905
5739.9571
6435.2808
6435.2807
6435.2806
6435.2804
6435.2799
6435.279
6435.2778
6435.2761
6435.274
6435.2713
6435.2676
6435.2631
6435.2572
6435.25
6435.2409
6435.2292
6435.2149
6435.1968
6435.1743
6435.146
6435.1107
6435.0661
6435.0105
6434.9404
6434.8522
6434.7411
6434.6009
6434.4241
6434.2009
6433.9197
6433.5661
6433.1222
6432.5661
6431.8718
6431.0078
6429.9365
6428.6138
6426.9873
6424.9969
6422.5731
6419.6367
6416.0977
6411.8557
6406.7968
6400.7958
6393.7131
6385.3951
6375.674
6364.3662
6351.2719
6336.1738
6318.8366
6299.0058
6276.407
6250.7445
6221.6994
6188.925
6152.0497
6110.6631
6064.3303
6012.5673
5954.8804
5890.693
5819.441
5740.4409
6435.668
6435.668
6435.6679
6435.6676
6435.667
6435.6663
6435.665
6435.6633
6435.6612
6435.6585
6435.6548
6435.6503
6435.6445
6435.6373
6435.6282
6435.6168
6435.6025
6435.5845
6435.562
6435.534
6435.4989
6435.4548
6435.3994
6435.3299
6435.2423
6435.1317
6434.9923
6434.8164
6434.5944
6434.3147
6433.9626
6433.5203
6432.966
6432.2736
6431.4114
6430.3419
6429.0209
6427.3962
6425.408
6422.9867
6420.0536
6416.5187
6412.2814
6407.2286
6401.2347
6394.1604
6385.8527
6376.1432
6364.8488
6351.7694
6336.6886
6319.3712
6299.5631
6276.9902
6251.357
6222.3447
6189.6077
6152.7739
6111.4341
6065.1536
6013.4492
5955.8276
5891.7129
5820.543
5741.6241
6436.2986
6436.2986
6436.2985
6436.2983
6436.2976
6436.2968
6436.2957
6436.294
6436.292
6436.2893
6436.2857
6436.2812
6436.2755
6436.2683
6436.2593
6436.2481
6436.2338
6436.2163
6436.1941
6436.1663
6436.1317
6436.0882
6436.0333
6435.9644
6435.8777
6435.7683
6435.6303
6435.4558
6435.2355
6434.9578
6434.6079
6434.1679
6433.6161
6432.9261
6432.0665
6430.9997
6429.6814
6428.0597
6426.075
6423.6582
6420.7303
6417.2019
6412.9724
6407.9294
6401.947
6394.8866
6386.5952
6376.9046
6365.6319
6352.5772
6337.5245
6320.2392
6300.4681
6277.9375
6252.3522
6223.3939
6190.7174
6153.9519
6112.6879
6066.492
6014.8816
5957.3652
5893.3679
5822.3312
5743.544
6437.1858
6437.1859
6437.1857
6437.1855
6437.1848
6437.184
6437.1828
6437.1814
6437.1792
6437.1766
6437.173
6437.1686
6437.1629
6437.1558
6437.147
6437.1359
6437.1219
6437.1045
6437.0828
6437.0555
6437.0212
6436.9782
6436.9242
6436.8563
6436.7706
6436.6625
6436.5258
6436.3533
6436.1353
6435.8599
6435.5128
6435.0757
6434.5272
6433.8404
6432.9842
6431.9208
6430.6063
6428.9892
6427.0097
6424.5991
6421.6787
6418.1596
6413.9416
6408.912
6402.9458
6395.9049
6387.6362
6377.9722
6366.7295
6353.7095
6338.6965
6321.4568
6301.7376
6279.2666
6253.7485
6224.8662
6192.2749
6155.6048
6114.4474
6068.3697
6016.8912
5959.522
5895.69
5824.8404
5746.2392
6438.3405
6438.3405
6438.3404
6438.34
6438.3394
6438.3387
6438.3375
6438.3359
6438.334
6438.3312
6438.3277
6438.3234
6438.318
6438.311
6438.3023
6438.2913
6438.2776
6438.2604
6438.239
6438.2122
6438.1785
6438.1361
6438.0831
6438.016
6437.9317
6437.8252
6437.6905
6437.5203
6437.3047
6437.0324
6436.6886
6436.2551
6435.7105
6435.0278
6434.1758
6433.117
6431.8077
6430.1964
6428.2238
6425.8217
6422.9115
6419.4047
6415.2011
6410.1893
6404.2445
6397.2289
6388.9895
6379.3597
6368.1562
6355.1814
6340.2201
6323.0398
6303.3889
6280.9951
6255.5648
6226.7816
6194.3015
6157.7553
6116.7362
6070.8123
6019.5058
5962.3287
5898.7122
5828.107
5749.7495
6439.7748
6439.7747
6439.7746
6439.7742
6439.7737
6439.7728
6439.7717
6439.7702
6439.7681
6439.7655
6439.762
6439.7578
6439.7522
6439.7455
6439.7369
6439.7262
6439.7128
6439.6959
6439.6749
6439.6484
6439.6154
6439.574
6439.5217
6439.4562
6439.3732
6439.2686
6439.1361
6438.9684
6438.7561
6438.4872
6438.1472
6437.718
6437.1777
6436.4999
6435.6531
6434.6002
6433.2973
6431.6937
6429.73
6427.3385
6424.4412
6420.9494
6416.7644
6411.7748
6405.8563
6398.8718
6390.6692
6381.0814
6369.9269
6357.008
6342.1113
6325.0053
6305.4391
6283.1418
6257.8205
6229.1602
6196.8182
6160.426
6119.5786
6073.8461
6022.7536
5965.8159
5902.4687
5832.1677
5754.1158
6441.5015
6441.5014
6441.5011
6441.5009
6441.5002
6441.4996
6441.4983
6441.4967
6441.4947
6441.4921
6441.4887
6441.4846
6441.4793
6441.4725
6441.4642
6441.4538
6441.4405
6441.4241
6441.4035
6441.3778
6441.3455
6441.3049
6441.2539
6441.1896
6441.1086
6441.0059
6440.876
6440.7111
6440.5023
6440.2373
6439.9016
6439.4772
6438.9419
6438.2698
6437.429
6436.383
6435.0881
6433.4937
6431.5409
6429.1623
6426.2804
6422.8073
6418.6445
6413.6815
6407.795
6400.8479
6392.6891
6383.1522
6372.0564
6359.2054
6344.3867
6327.3702
6307.9061
6285.7251
6260.5352
6232.0228
6199.8468
6163.6402
6122.9994
6077.498
6026.6644
5970.0161
5906.9938
5837.06
5759.3793
6443.536
6443.536
6443.5358
6443.5356
6443.535
6443.534
6443.5328
6443.5315
6443.5293
6443.5268
6443.5235
6443.5195
6443.5141
6443.5076
6443.4996
6443.4892
6443.4764
6443.4604
6443.4403
6443.4151
6443.3837
6443.3442
6443.2944
6443.2317
6443.1525
6443.0521
6442.9248
6442.7631
6442.5578
6442.2968
6441.9656
6441.5463
6441.0165
6440.3504
6439.5168
6438.4787
6437.193
6435.6094
6433.6696
6431.3062
6428.4424
6424.9913
6420.8548
6415.9231
6410.0739
6403.1709
6395.0634
6385.5864
6374.56
6361.7891
6347.0627
6330.1519
6310.8084
6288.7641
6263.7289
6235.3908
6203.41
6167.4215
6127.0244
6081.7954
6031.2677
5974.9612
5912.3224
5842.8222
5765.5822
6445.8949
6445.8949
6445.8947
6445.8944
6445.8938
6445.8929
6445.8918
6445.8903
6445.8883
6445.8858
6445.8826
6445.8785
6445.8734
6445.8671
6445.859
6445.8492
6445.8367
6445.8211
6445.8015
6445.7772
6445.7465
6445.708
6445.6595
6445.5984
6445.5208
6445.4228
6445.298
6445.1396
6444.9376
6444.6807
6444.3539
6443.9396
6443.4157
6442.7561
6441.93
6440.9008
6439.6256
6438.0542
6436.1291
6433.7834
6430.9406
6427.5148
6423.4087
6418.5133
6412.7072
6405.8549
6397.8068
6388.399
6377.453
6364.7751
6350.1557
6333.3673
6314.1636
6292.2778
6267.4217
6239.285
6207.5302
6171.794
6131.6791
6086.7668
6036.5944
5980.6851
5918.4917
5849.4946
5772.7673
6448.595
6448.5949
6448.5948
6448.5945
6448.5938
6448.5929
6448.5919
6448.5905
6448.5885
6448.5859
6448.5828
6448.5789
6448.5739
6448.5677
6448.5599
6448.5501
6448.5381
6448.5228
6448.504
6448.4801
6448.4502
6448.4129
6448.3656
6448.3057
6448.2301
6448.1339
6448.0116
6447.8556
6447.657
6447.4035
6447.0811
6446.6716
6446.1535
6445.5007
6444.6827
6443.663
6442.3992
6440.8419
6438.933
6436.6071
6433.7882
6430.3911
6426.3196
6421.4657
6415.7087
6408.9139
6400.9333
6391.6046
6380.7506
6368.1791
6353.6822
6337.0342
6317.9902
6296.2855
6271.6341
6243.7274
6212.2304
6176.7829
6136.9917
6092.4425
6042.6778
5987.2235
5925.5391
5857.1164
5780.9779
6451.6521
6451.652
6451.6519
6451.6514
6451.6508
6451.65
6451.649
6451.6474
6451.6455
6451.6432
6451.6399
6451.6361
6451.6314
6451.6251
6451.6175
6451.6081
6451.5963
6451.5815
6451.5629
6451.5397
6451.5105
6451.4738
6451.4274
6451.369
6451.2946
6451.2001
6451.0798
6450.9261
6450.73
6450.4798
6450.161
6449.7561
6449.2437
6448.5979
6447.7883
6446.779
6445.5278
6443.9854
6442.0948
6439.7908
6436.9988
6433.6343
6429.6019
6424.7945
6419.0922
6412.3624
6404.4581
6395.2185
6384.4684
6372.0175
6357.6594
6341.1702
6322.3069
6300.8073
6276.3872
6248.7402
6217.535
6182.4146
6142.9908
6098.8536
6049.5501
5994.6098
5933.5014
5865.7285
5790.2572
6455.0793
6455.0792
6455.0791
6455.0787
6455.0781
6455.0773
6455.0761
6455.0746
6455.0727
6455.0705
6455.0675
6455.0635
6455.0588
6455.0528
6455.0453
6455.0361
6455.0245
6455.0099
6454.9918
6454.969
6454.9403
6454.9043
6454.8587
6454.8009
6454.7278
6454.6345
6454.5155
6454.3639
6454.1699
6453.9225
6453.6073
6453.2068
6452.7
6452.0613
6451.2605
6450.2622
6449.0243
6447.4982
6445.6278
6443.3485
6440.5863
6437.258
6433.2689
6428.5134
6422.8726
6416.2151
6408.3959
6399.2563
6388.6228
6376.3071
6362.1049
6345.7938
6327.1335
6305.8632
6281.7019
6254.3465
6223.4685
6188.7159
6149.7046
6106.0296
6057.2435
6002.8805
5942.4168
5875.3722
5800.6488
6458.8884
6458.8883
6458.8881
6458.8877
6458.8871
6458.8863
6458.8852
6458.8837
6458.8818
6458.8796
6458.8766
6458.8727
6458.8681
6458.8623
6458.8549
6458.8457
6458.8343
6458.82
6458.8022
6458.7797
6458.7514
6458.7158
6458.6708
6458.6137
6458.5412
6458.449
6458.3313
6458.181
6457.9889
6457.7442
6457.4321
6457.0362
6456.5351
6455.9037
6455.1123
6454.1256
6452.9022
6451.3939
6449.5455
6447.2933
6444.5643
6441.2761
6437.3353
6432.6372
6427.0644
6420.4874
6412.763
6403.7345
6393.2309
6381.0658
6367.0368
6350.9241
6332.4891
6311.4741
6287.6007
6260.5699
6230.0566
6195.7133
6157.162
6114.0022
6065.7919
6012.0696
5952.3229
5886.0876
5812.1947
6463.09
6463.0899
6463.0897
6463.0893
6463.0887
6463.0879
6463.0868
6463.0853
6463.0835
6463.0813
6463.0783
6463.0746
6463.07
6463.0641
6463.0569
6463.048
6463.0366
6463.0226
6463.0049
6462.9827
6462.9547
6462.9194
6462.8749
6462.8183
6462.7464
6462.655
6462.5382
6462.3893
6462.199
6461.9567
6461.6482
6461.2567
6460.7617
6460.1383
6459.3569
6458.3827
6457.1748
6455.6861
6453.8619
6451.6393
6448.9467
6445.7027
6441.8151
6437.1802
6431.6828
6425.1947
6417.5752
6408.6699
6398.31
6386.3114
6372.4741
6356.5805
6338.3943
6317.6614
6294.1065
6267.4341
6237.3243
6203.4346
6165.3922
6122.8022
6075.2276
6022.2133
5963.2572
5897.915
5824.9375
6467.6959
6467.6959
6467.6956
6467.6952
6467.6946
6467.6939
6467.6929
6467.6914
6467.6896
6467.6874
6467.6844
6467.6807
6467.6761
6467.6706
6467.6634
6467.6545
6467.6433
6467.6293
6467.6117
6467.5898
6467.5621
6467.5271
6467.4828
6467.4268
6467.3555
6467.2647
6467.1489
6467.0013
6466.8131
6466.5734
6466.2686
6465.882
6465.3935
6464.7784
6464.0076
6463.047
6461.8561
6460.3884
6458.5905
6456.4005
6453.7478
6450.5524
6446.7233
6442.1581
6436.7434
6430.3533
6422.8495
6414.0797
6403.8779
6392.0627
6378.4358
6362.7825
6344.8701
6324.447
6301.2418
6274.9635
6245.2981
6211.9076
6174.425
6132.4606
6085.5845
6033.3464
5975.257
5910.894
5838.9191
6472.7206
6472.7205
6472.7203
6472.72
6472.7194
6472.7186
6472.7175
6472.7162
6472.7143
6472.7121
6472.7093
6472.7056
6472.701
6472.6954
6472.6884
6472.6795
6472.6683
6472.6546
6472.637
6472.6152
6472.5876
6472.5529
6472.5087
6472.4531
6472.3822
6472.2922
6472.1773
6472.0312
6471.8448
6471.6079
6471.3071
6470.9257
6470.4441
6469.8378
6469.0786
6468.1321
6466.9596
6465.5151
6463.7457
6461.5914
6458.9825
6455.8399
6452.0746
6447.586
6442.2621
6435.9797
6428.6026
6419.9815
6409.9528
6398.3377
6384.9409
6369.5505
6351.9371
6331.8523
6309.0297
6283.1831
6254.0044
6221.1603
6184.2898
6143.009
6096.8949
6045.5036
5988.3587
5925.0639
5854.1808
6478.1795
6478.1794
6478.1791
6478.1789
6478.1782
6478.1774
6478.1764
6478.1751
6478.1732
6478.1709
6478.1681
6478.1646
6478.1599
6478.1543
6478.1473
6478.1383
6478.1273
6478.1133
6478.0959
6478.074
6478.0466
6478.0117
6477.9679
6477.9125
6477.8418
6477.7523
6477.6385
6477.4936
6477.3094
6477.0753
6476.7783
6476.4024
6475.9278
6475.331
6474.5837
6473.653
6472.5002
6471.0804
6469.3425
6467.2267
6464.6654
6461.5805
6457.8847
6453.4793
6448.2548
6442.0899
6434.8513
6426.3923
6416.5521
6405.1549
6392.0088
6376.9044
6359.6159
6339.8994
6317.4938
6292.1183
6263.4688
6231.2201
6195.0159
6154.4778
6109.1913
6058.7191
6002.5993
5940.4635
5870.7632
6484.0882
6484.0881
6484.088
6484.0875
6484.0871
6484.0862
6484.0852
6484.0838
6484.0821
6484.0798
6484.0769
6484.0731
6484.0686
6484.063
6484.0557
6484.0467
6484.0355
6484.0216
6484.004
6483.9819
6483.9542
6483.9194
6483.8755
6483.8199
6483.7495
6483.6605
6483.5474
6483.4038
6483.2216
6482.9904
6482.6974
6482.3267
6481.8596
6481.2726
6480.5383
6479.6241
6478.4926
6477.0998
6475.3957
6473.3219
6470.8116
6467.7893
6464.169
6459.8542
6454.7375
6448.7005
6441.6125
6433.3295
6423.6938
6412.5331
6399.6581
6384.8636
6367.9272
6348.6105
6326.6575
6301.7924
6273.7184
6242.115
6206.6314
6166.8975
6122.5051
6073.0264
6018.014
5957.1305
5888.706
6490.4595
6490.4594
6490.4593
6490.4589
6490.4583
6490.4576
6490.4565
6490.4551
6490.4533
6490.451
6490.4481
6490.4443
6490.4397
6490.4338
6490.4267
6490.4174
6490.4061
6490.3918
6490.3742
6490.3518
6490.3239
6490.2889
6490.2448
6490.1891
6490.1189
6490.0302
6489.9177
6489.7755
6489.5952
6489.3669
6489.0779
6488.7133
6488.2538
6487.6771
6486.9564
6486.0601
6484.9514
6483.5878
6481.9201
6479.8913
6477.4367
6474.4818
6470.9428
6466.726
6461.7263
6455.8277
6448.9026
6440.8098
6431.3954
6420.4899
6407.9076
6393.4473
6376.8917
6358.0072
6336.5432
6312.2306
6284.7787
6253.8712
6219.1656
6180.2969
6136.8676
6088.4584
6034.6381
5975.1022
5908.0484
6497.3025
6497.3026
6497.3024
6497.3021
6497.3016
6497.3007
6497.2996
6497.2981
6497.2963
6497.2939
6497.291
6497.2873
6497.2825
6497.2766
6497.2694
6497.2601
6497.2485
6497.2342
6497.2162
6497.1938
6497.1656
6497.1303
6497.0862
6497.0306
6496.9607
6496.8726
6496.7611
6496.6204
6496.4425
6496.2175
6495.9332
6495.5747
6495.1239
6494.5583
6493.8526
6492.9754
6491.8915
6490.5594
6488.9308
6486.9505
6484.5553
6481.6729
6478.222
6474.1106
6469.237
6463.4876
6456.738
6448.8504
6439.6738
6429.0426
6416.7751
6402.6746
6386.5292
6368.11
6347.1736
6323.4572
6296.6736
6266.515
6232.6441
6194.7051
6152.309
6105.0474
6052.5055
5994.4147
5928.8271
6504.6229
6504.6229
6504.6227
6504.6224
6504.6219
6504.6211
6504.62
6504.6186
6504.6167
6504.6145
6504.6115
6504.6076
6504.603
6504.5972
6504.5897
6504.5805
6504.5689
6504.5547
6504.5367
6504.5143
6504.4865
6504.4515
6504.4076
6504.3526
6504.2836
6504.1964
6504.0867
6503.9482
6503.7732
6503.5524
6503.2738
6502.9229
6502.4815
6501.929
6501.2395
6500.3839
6499.3268
6498.0286
6496.4422
6494.5141
6492.1827
6489.3782
6486.0214
6482.0236
6477.285
6471.6961
6465.1349
6457.4671
6448.5455
6438.2078
6426.2777
6412.5639
6396.858
6378.9397
6358.5711
6335.4942
6309.4279
6280.0712
6247.0943
6210.1501
6168.8597
6122.825
6071.6492
6015.1028
5951.0777
6512.4246
6512.4246
6512.4245
6512.4243
6512.4237
6512.423
6512.4219
6512.4206
6512.4187
6512.4165
6512.4136
6512.4101
6512.4054
6512.3997
6512.3926
6512.3836
6512.3723
6512.3584
6512.3409
6512.3192
6512.2918
6512.2577
6512.215
6512.1612
6512.0938
6512.0089
6511.9018
6511.7665
6511.5959
6511.3806
6511.109
6510.7667
6510.3372
6509.7994
6509.1287
6508.2968
6507.2696
6506.0084
6504.4676
6502.5954
6500.3328
6497.6117
6494.3561
6490.4795
6485.886
6480.4683
6474.1083
6466.6753
6458.0256
6448.0016
6436.4327
6423.1312
6407.8975
6390.5168
6370.7565
6348.3631
6323.0644
6294.5638
6262.5417
6226.6594
6186.5485
6141.8215
6092.1011
6037.2002
5974.8335
6520.7141
6520.7141
6520.7139
6520.7135
6520.7132
6520.7124
6520.7115
6520.7102
6520.7087
6520.7064
6520.7037
6520.7003
6520.6962
6520.6907
6520.6839
6520.6756
6520.665
6520.6517
6520.6353
6520.6145
6520.5886
6520.5561
6520.5151
6520.4637
6520.3989
6520.3171
6520.2139
6520.0833
6519.9182
6519.7099
6519.447
6519.1157
6518.6998
6518.1791
6517.5299
6516.7246
6515.7305
6514.5097
6513.0187
6511.2072
6509.0183
6506.3869
6503.2394
6499.4925
6495.0534
6489.8183
6483.6723
6476.4887
6468.1276
6458.4385
6447.2539
6434.394
6419.6657
6402.8601
6383.7482
6362.0856
6337.6041
6310.0165
6279.0113
6244.2599
6205.4041
6162.0667
6113.8918
6060.7391
6000.1264
6529.5011
6529.5011
6529.5011
6529.5007
6529.5003
6529.4997
6529.499
6529.4978
6529.4963
6529.4944
6529.4921
6529.4888
6529.485
6529.4801
6529.474
6529.4662
6529.4565
6529.4444
6529.4292
6529.4101
6529.3861
6529.3556
6529.3174
6529.2688
6529.2075
6529.13
6529.0315
6528.9067
6528.7486
6528.5487
6528.2961
6527.9774
6527.5771
6527.0757
6526.4509
6525.6754
6524.7178
6523.5417
6522.105
6520.3594
6518.2501
6515.7148
6512.6827
6509.074
6504.7992
6499.7573
6493.8378
6486.9178
6478.8648
6469.5312
6458.7565
6446.369
6432.18
6415.9856
6397.5653
6376.6795
6353.0679
6326.4512
6296.5273
6262.977
6225.4531
6183.589
6137.0503
6085.7507
6026.9866
6538.8003
6538.8003
6538.8001
6538.7999
6538.7997
6538.7991
6538.7983
6538.7973
6538.7961
6538.7944
6538.7923
6538.7896
6538.7861
6538.7817
6538.7764
6538.7693
6538.7608
6538.7497
6538.7359
6538.7186
6538.6964
6538.6685
6538.6329
6538.5879
6538.5304
6538.4574
6538.3644
6538.2461
6538.0958
6537.9053
6537.664
6537.3595
6536.9768
6536.4972
6535.8989
6535.1563
6534.2388
6533.1113
6531.7334
6530.059
6528.0355
6525.6033
6522.6947
6519.2328
6515.1312
6510.2938
6504.6138
6497.9751
6490.2483
6481.2926
6470.9561
6459.0702
6445.4541
6429.9098
6412.2238
6392.1632
6369.4755
6343.8898
6315.1128
6282.8357
6246.7222
6206.4159
6161.6044
6112.265
6055.4431
6548.6267
6548.6266
6548.6266
6548.6264
6548.6262
6548.6258
6548.6252
6548.6242
6548.6232
6548.6216
6548.6199
6548.6174
6548.6143
6548.6104
6548.6054
6548.5993
6548.5915
6548.5816
6548.5689
6548.5529
6548.5328
6548.5069
6548.4741
6548.4321
6548.3784
6548.3099
6548.2224
6548.1107
6547.9684
6547.7878
6547.5587
6547.2697
6546.9058
6546.4498
6545.8804
6545.1732
6544.299
6543.2242
6541.9098
6540.312
6538.3803
6536.0581
6533.2804
6529.9738
6526.0559
6521.4348
6516.01
6509.6689
6502.2884
6493.7359
6483.8632
6472.5095
6459.5007
6444.6465
6427.7389
6408.5532
6386.8454
6362.3522
6334.7899
6303.8598
6269.2363
6230.5735
6187.5811
6140.3101
6085.5258
6558.9925
6558.9925
6558.9924
6558.9922
6558.992
6558.9916
6558.991
6558.9902
6558.9892
6558.9879
6558.9862
6558.9838
6558.9812
6558.9775
6558.9729
6558.9672
6558.96
6558.9506
6558.9389
6558.9241
6558.9051
6558.881
6558.8501
6558.8108
6558.7602
6558.6957
6558.6131
6558.5078
6558.3736
6558.2032
6557.987
6557.7141
6557.3704
6556.9395
6556.4011
6555.7319
6554.9039
6553.8851
6552.6385
6551.122
6549.2879
6547.0823
6544.4433
6541.3015
6537.5784
6533.1878
6528.0333
6522.0071
6514.9951
6506.8687
6497.4869
6486.6973
6474.3318
6460.2075
6444.1244
6425.8654
6405.1945
6381.858
6355.5802
6326.0725
6293.0205
6256.0877
6215.0064
6169.9125
6117.2657
6569.9024
6569.9024
6569.9024
6569.9022
6569.902
6569.9016
6569.901
6569.9003
6569.8993
6569.898
6569.8963
6569.8942
6569.8913
6569.8879
6569.8835
6569.8778
6569.8708
6569.8619
6569.8507
6569.8363
6569.8183
6569.7952
6569.7659
6569.7284
6569.6806
6569.6195
6569.5416
6569.4423
6569.3162
6569.1561
6568.9533
6568.6974
6568.3749
6567.9706
6567.4649
6566.8358
6566.0566
6565.0969
6563.9216
6562.4912
6560.7605
6558.6781
6556.1863
6553.2193
6549.7035
6545.5573
6540.6879
6534.9964
6528.3739
6520.6978
6511.8359
6501.6419
6489.9561
6476.6037
6461.3923
6444.1132
6424.5392
6402.4248
6377.5035
6349.4962
6318.0986
6282.9841
6243.9077
6201.0996
6150.6963
6581.3542
6581.3542
6581.354
6581.354
6581.3537
6581.3533
6581.3527
6581.352
6581.3509
6581.3496
6581.3479
6581.3458
6581.343
6581.3396
6581.3352
6581.3296
6581.3226
6581.3139
6581.303
6581.289
6581.2714
6581.2491
6581.2209
6581.1852
6581.1397
6581.0821
6581.0088
6580.9156
6580.7978
6580.6485
6580.4597
6580.2215
6579.9216
6579.5451
6579.0738
6578.4867
6577.7585
6576.8608
6575.7606
6574.4206
6572.7988
6570.8472
6568.5111
6565.7294
6562.4336
6558.5446
6553.9777
6548.6405
6542.4285
6535.2283
6526.9147
6517.3496
6506.3815
6493.8437
6479.5528
6463.3088
6444.893
6424.0691
6400.5794
6374.153
6344.4957
6311.289
6274.3141
6233.9062
6185.8514
6593.3406
6593.3406
6593.3404
6593.3403
6593.3401
6593.3397
6593.339
6593.3383
6593.3373
6593.336
6593.3342
6593.3321
6593.3293
6593.326
6593.3216
6593.3162
6593.3094
6593.3008
6593.29
6593.2767
6593.2597
6593.2384
6593.2117
6593.1779
6593.1351
6593.081
6593.0128
6592.9265
6592.8175
6592.6797
6592.5058
6592.2865
6592.0103
6591.6629
6591.2276
6590.6842
6590.0095
6589.1764
6588.1548
6586.9098
6585.4027
6583.5889
6581.4178
6578.8328
6575.7677
6572.1508
6567.9041
6562.9396
6557.1605
6550.462
6542.7263
6533.8242
6523.6124
6511.9335
6498.6138
6483.4618
6466.2682
6446.8063
6424.8261
6400.065
6372.2369
6341.0305
6306.258
6268.3733
6222.7712
6605.8537
6605.8537
6605.8537
6605.8535
6605.8534
6605.8528
6605.8523
6605.8516
6605.8506
6605.8494
6605.8477
6605.8456
6605.843
6605.8397
6605.8356
6605.8305
6605.824
6605.8159
6605.806
6605.7932
6605.7774
6605.7577
6605.7327
6605.7015
6605.6621
6605.6124
6605.55
6605.4715
6605.3722
6605.2472
6605.0893
6604.8901
6604.6387
6604.3218
6603.9239
6603.426
6602.8067
6602.0412
6601.1016
6599.9564
6598.57
6596.9013
6594.9045
6592.5254
6589.7038
6586.3745
6582.4642
6577.8915
6572.5687
6566.398
6559.2709
6551.0666
6541.6511
6530.877
6518.5799
6504.579
6488.6744
6470.6486
6450.2605
6427.2543
6401.3508
6372.2412
6339.7637
6304.5071
6261.5507
6618.8864
6618.8864
6618.8862
6618.8861
6618.8859
6618.8855
6618.885
6618.8843
6618.8835
6618.8823
6618.8808
6618.8791
6618.8767
6618.8738
6618.87
6618.8656
6618.8598
6618.8525
6618.8435
6618.8323
6618.8183
6618.8005
6618.7784
6618.7505
6618.7157
6618.6715
6618.616
6618.5462
6618.4581
6618.3469
6618.2061
6618.0278
6617.8022
6617.5171
6617.1576
6616.7067
6616.1449
6615.4497
6614.5961
6613.5557
6612.2959
6610.7804
6608.966
6606.803
6604.238
6601.2103
6597.6525
6593.492
6588.6484
6583.0327
6576.5452
6569.0745
6560.4965
6550.6736
6539.453
6526.6646
6512.1188
6495.6076
6476.8987
6455.7435
6431.8684
6404.9553
6374.8456
6342.4004
6302.2168
6632.4338
6632.4338
6632.4337
6632.4335
6632.4333
6632.4332
6632.4326
6632.4321
6632.4314
6632.4305
6632.4292
6632.4278
6632.4259
6632.4235
6632.4204
6632.4167
6632.4119
6632.406
6632.3985
6632.389
6632.3773
6632.3624
6632.3438
6632.3201
6632.2903
6632.2526
6632.2051
6632.1451
6632.0689
6631.972
6631.8493
6631.6929
6631.4937
6631.2406
6630.9206
6630.5182
6630.0158
6629.394
6628.6305
6627.6999
6626.5735
6625.2181
6623.5939
6621.658
6619.3613
6616.6488
6613.461
6609.733
6605.3925
6600.3592
6594.5427
6587.8419
6580.1433
6571.3202
6561.2312
6549.7189
6536.6049
6521.6914
6504.7552
6485.5554
6463.8173
6439.1934
6411.5648
6382.0946
6344.8136
6646.4908
6646.4909
6646.4907
6646.4907
6646.4906
6646.4902
6646.4899
6646.4895
6646.489
6646.4883
6646.4874
6646.4864
6646.4849
6646.4833
6646.4811
6646.4782
6646.4747
6646.4703
6646.4646
6646.4575
6646.4484
6646.437
6646.4222
6646.4035
6646.3796
6646.3489
6646.3097
6646.2598
6646.1958
6646.114
6646.009
6645.8742
6645.7015
6645.4812
6645.2013
6644.8488
6644.4085
6643.8635
6643.1942
6642.3786
6641.3917
6640.2026
6638.7778
6637.0787
6635.0615
6632.6788
6629.8781
6626.6029
6622.7895
6618.3663
6613.2531
6607.3592
6600.5825
6592.8084
6583.9083
6573.7383
6562.1329
6548.9057
6533.8438
6516.7098
6497.2237
6475.0365
6449.9631
6423.6327
6389.4741
6661.0532
6661.053
6661.053
6661.0529
6661.0529
6661.0528
6661.0524
6661.0523
6661.052
6661.0515
6661.051
6661.0503
6661.0494
6661.0484
6661.047
6661.0452
6661.0429
6661.04
6661.0363
6661.0316
6661.0252
6661.017
6661.0063
6660.9922
6660.974
6660.9502
6660.9192
6660.8789
6660.8266
6660.759
6660.6712
6660.5579
6660.4117
6660.224
6659.9856
6659.6849
6659.3092
6658.8441
6658.2733
6657.5778
6656.7351
6655.7194
6654.502
6653.0491
6651.3234
6649.2845
6646.8886
6644.0868
6640.8244
6637.0394
6632.6616
6627.6116
6621.7999
6615.1253
6607.4733
6598.7141
6588.698
6577.2515
6564.1705
6549.2217
6532.1435
6512.5317
6490.1314
6467.0905
6436.3359
6676.1103
6676.1103
6676.1104
6676.1102
6676.1103
6676.1101
6676.11
6676.1098
6676.1097
6676.1094
6676.1093
6676.1088
6676.1085
6676.1079
6676.1072
6676.1064
6676.1052
6676.1037
6676.1015
6676.0987
6676.0949
6676.0894
6676.0823
6676.0723
6676.059
6676.0411
6676.0174
6675.9859
6675.9444
6675.8899
6675.8188
6675.7262
6675.6063
6675.4522
6675.2562
6675.0089
6674.7002
6674.3183
6673.8496
6673.2779
6672.5847
6671.7492
6670.7466
6669.5491
6668.1266
6666.4465
6664.4727
6662.1648
6659.4773
6656.3584
6652.7483
6648.5798
6643.7769
6638.2531
6631.9092
6624.6316
6616.2877
6606.7169
6595.736
6583.1218
6568.6077
6551.7667
6532.2388
6512.6216
6485.5085
6691.6472
6691.647
6691.6471
6691.6469
6691.647
6691.6468
6691.6467
6691.6467
6691.6466
6691.6465
6691.6464
6691.6463
6691.646
6691.6459
6691.6455
6691.6452
6691.6446
6691.6439
6691.6426
6691.641
6691.6387
6691.6352
6691.6303
6691.6233
6691.6136
6691.6004
6691.5823
6691.5582
6691.5259
6691.4837
6691.4283
6691.3561
6691.2626
6691.1424
6690.9895
6690.7972
6690.5574
6690.2613
6689.8976
6689.4537
6688.9155
6688.266
6687.4857
6686.5533
6685.4462
6684.1395
6682.6055
6680.8122
6678.7235
6676.2978
6673.4876
6670.2384
6666.4882
6662.1664
6657.1911
6651.4643
6644.8769
6637.2907
6628.5393
6618.4145
6606.6649
6592.8468
6576.5256
6560.4656
6536.9899
6707.6349
6707.635
6707.6348
6707.6347
6707.6347
6707.6346
6707.6344
6707.6343
6707.6342
6707.634
6707.6339
6707.6338
6707.6337
6707.6336
6707.6334
6707.633
6707.6326
6707.632
6707.6314
6707.6302
6707.6285
6707.626
6707.6222
6707.6172
6707.6099
6707.6
6707.5865
6707.5686
6707.545
6707.5141
6707.474
6707.4221
6707.3552
6707.2696
6707.1608
6707.0248
6706.856
6706.6475
6706.3914
6706.0793
6705.7002
6705.2423
6704.6921
6704.0348
6703.2553
6702.3366
6701.2593
6700.0003
6698.5332
6696.8276
6694.848
6692.5532
6689.8987
6686.8305
6683.2851
6679.1857
6674.4431
6668.9449
6662.5595
6655.1084
6646.363
6635.8898
6623.2499
6610.6802
6591.1193
6724.0406
6724.0404
6724.0403
6724.0401
6724.04
6724.0399
6724.0397
6724.0394
6724.0393
6724.039
6724.0388
6724.0385
6724.038
6724.0378
6724.0373
6724.0369
6724.0363
6724.0356
6724.0346
6724.0333
6724.0315
6724.0292
6724.0259
6724.0217
6724.0157
6724.008
6723.9981
6723.9855
6723.9695
6723.9493
6723.9242
6723.8927
6723.8532
6723.8025
6723.7389
6723.6602
6723.5633
6723.4438
6723.2985
6723.1215
6722.9064
6722.6461
6722.3333
6721.961
6721.521
6721.0044
6720.4003
6719.6946
6718.8716
6717.9128
6716.7953
6715.4934
6713.9786
6712.216
6710.1624
6707.7626
6704.9556
6701.6562
6697.7682
6693.1661
6687.6708
6680.9408
6672.6041
6664.0606
6649.3484
6741.5621
6741.562
6741.5618
6741.5617
6741.5613
6741.5612
6741.5608
6741.5605
6741.56
6741.5595
6741.559
6741.5585
6741.5578
6741.5569
6741.5561
6741.5551
6741.5538
6741.5524
6741.5506
6741.5487
6741.5461
6741.543
6741.5393
6741.5349
6741.5295
6741.5232
6741.5161
6741.5081
6741.4993
6741.4897
6741.4793
6741.4683
6741.456
6741.4424
6741.4277
6741.4111
6741.3925
6741.3716
6741.3471
6741.3173
6741.2812
6741.2369
6741.1847
6741.1239
6741.0545
6740.9757
6740.8857
6740.7806
6740.6559
6740.5057
6740.3229
6740.0986
6739.8224
6739.4799
6739.0504
6738.5059
6737.8112
6736.9211
6735.7779
6734.3146
6732.4338
6729.9441
6726.8547
6724.0266
6718.6251
6759.9957
6759.9954
6759.9952
6759.9949
6759.9945
6759.9941
6759.9938
6759.9933
6759.9927
6759.992
6759.9913
6759.9904
6759.9895
6759.9883
6759.9869
6759.9854
6759.9835
6759.9814
6759.979
6759.9759
6759.9726
6759.969
6759.9647
6759.9603
6759.9555
6759.9509
6759.9469
6759.9441
6759.9435
6759.9457
6759.952
6759.9635
6759.9819
6760.0083
6760.0452
6760.0954
6760.1622
6760.2469
6760.3512
6760.4788
6760.6334
6760.8202
6761.0458
6761.3178
6761.6439
6762.0321
6762.4897
6763.0242
6763.6432
6764.3556
6765.1705
6766.0975
6767.1451
6768.3206
6769.6288
6771.0711
6772.6442
6774.3434
6776.1581
6778.0847
6780.1169
6782.2287
6784.6235
6787.7105
6790.0388
6778.3928
6778.3926
6778.3923
6778.3919
6778.3915
6778.3912
6778.3908
6778.3903
6778.3895
6778.389
6778.3881
6778.3872
6778.3863
6778.3851
6778.3837
6778.3822
6778.3804
6778.3783
6778.3759
6778.3735
6778.3707
6778.3675
6778.3644
6778.3614
6778.3591
6778.358
6778.3589
6778.3629
6778.3715
6778.3867
6778.4102
6778.4445
6778.4922
6778.5574
6778.6445
6778.7586
6778.9051
6779.0899
6779.3198
6779.6024
6779.9469
6780.3642
6780.868
6781.4728
6782.1946
6783.0497
6784.0555
6785.2306
6786.5961
6788.1752
6789.9939
6792.0799
6794.4616
6797.1681
6800.2296
6803.6778
6807.5437
6811.8631
6816.6749
6822.0337
6828.0036
6834.6802
6842.2974
6851.1018
6860.9393
6796.6751
6796.6749
6796.6745
6796.6741
6796.6739
6796.6734
6796.673
6796.6726
6796.6721
6796.6715
6796.6708
6796.6701
6796.6692
6796.6684
6796.6674
6796.6662
6796.6648
6796.6636
6796.6619
6796.6605
6796.6588
6796.6574
6796.6563
6796.6559
6796.6568
6796.6599
6796.6665
6796.6779
6796.696
6796.7235
6796.7636
6796.8196
6796.8966
6797.0003
6797.1365
6797.3128
6797.5385
6797.8228
6798.1764
6798.6119
6799.144
6799.7903
6800.5705
6801.5064
6802.6217
6803.9412
6805.4926
6807.3061
6809.416
6811.8608
6814.6827
6817.9278
6821.6444
6825.884
6830.702
6836.1598
6842.3237
6849.2687
6857.0805
6865.8668
6875.7527
6886.9167
6899.6315
6914.2171
6931.1326
6814.7556
6814.7552
6814.755
6814.7546
6814.7544
6814.754
6814.7536
6814.7533
6814.7529
6814.7525
6814.7522
6814.7518
6814.7513
6814.7511
6814.7506
6814.7503
6814.7499
6814.7496
6814.7496
6814.7498
6814.7502
6814.7512
6814.7531
6814.7563
6814.7616
6814.7702
6814.7832
6814.8029
6814.832
6814.8735
6814.9315
6815.0113
6815.1189
6815.2609
6815.4461
6815.6852
6815.9896
6816.3723
6816.8485
6817.4359
6818.1544
6819.0275
6820.082
6821.3459
6822.8505
6824.63
6826.722
6829.169
6832.0186
6835.3241
6839.1439
6843.5417
6848.5861
6854.351
6860.9178
6868.3766
6876.8276
6886.3837
6897.1747
6909.3588
6923.1216
6938.7103
6956.4587
6976.7915
7000.3391
6832.5648
6832.5644
6832.5642
6832.564
6832.5638
6832.5634
6832.5632
6832.5632
6832.563
6832.5628
6832.5628
6832.5629
6832.5631
6832.5632
6832.5638
6832.5642
6832.5652
6832.5663
6832.5678
6832.5698
6832.5727
6832.5765
6832.5818
6832.5892
6832.5995
6832.6142
6832.6348
6832.6643
6832.7054
6832.7625
6832.8404
6832.945
6833.0839
6833.2653
6833.5006
6833.8022
6834.1851
6834.666