/*--------------------------------*- C++ -*----------------------------------*\
  =========                 |
  \\      /  F ield         | OpenFOAM: The Open Source CFD Toolbox
   \\    /   O peration     | Website:  https://openfoam.org
    \\  /    A nd           | Version:  13
     \\/     M anipulation  |
\*---------------------------------------------------------------------------*/
FoamFile
{
    format      ascii;
    class       volVectorField;
    location    "48.39881";
    object      wallShearStress;
}
// * * * * * * * * * * * * * * * * * * * * * * * * * * * * * * * * * * * * * //

dimensions      [0 2 -2 0 0 0 0];

internalField   uniform (0 0 0);

boundaryField
{
    inlet
    {
        type            calculated;
        value           uniform (0 0 0);
    }
    outlet
    {
        type            calculated;
        value           uniform (0 0 0);
    }
    cylinder
    {
        type            calculated;
        value           nonuniform List<vector> 
132
(
(2.566073e-05 -0.0015829431 -3.1555076e-22)
(8.2039512e-05 -0.0019062525 9.0292954e-23)
(0.00015781671 -0.0022302152 5.0064101e-21)
(0.00025273692 -0.0025487847 -1.6865157e-20)
(0.00036625517 -0.002855308 1.1947693e-20)
(0.00049702717 -0.0031426118 3.6629308e-20)
(0.00064273912 -0.0034033667 -6.9620165e-21)
(0.00080040948 -0.0036303259 -2.7662758e-20)
(0.00096609545 -0.0038166681 2.6145951e-20)
(0.0011351092 -0.0039564541 -5.8776461e-20)
(0.0013021652 -0.0040449154 -1.0722044e-21)
(0.0014616799 -0.0040790084 3.6692718e-20)
(0.0016080282 -0.00405753 5.9974422e-20)
(0.0017360736 -0.0039817652 -4.8817585e-20)
(0.0018414439 -0.0038552081 5.1503848e-20)
(0.0019210843 -0.0036838312 8.3045346e-20)
(0.0019737097 -0.0034759656 -5.4506906e-20)
(0.0020002623 -0.0032420602 8.7563141e-20)
(0.0020042677 -0.0029942578 1.1592594e-19)
(0.0019921338 -0.0027458561 -7.5282799e-20)
(0.0019732886 -0.002510614 -9.6047991e-20)
(0.001960521 -0.0023023712 3.3821923e-23)
(0.00196928 -0.002133494 1.3956471e-20)
(0.0020176506 -0.0020144532 -1.672265e-20)
(0.0021235594 -0.0019508992 -2.8470866e-20)
(0.0023016923 -0.0019416844 6.0940033e-21)
(0.0025612215 -0.0019787292 -5.5068206e-20)
(0.0028937393 -0.0020404645 1.4725988e-20)
(0.0032783953 -0.0021006365 1.1573447e-20)
(0.0036827577 -0.0021322233 -7.9773621e-20)
(0.0040624152 -0.0021099356 1.0417388e-19)
(0.0043726903 -0.002018453 3.1550561e-21)
(0.0045588734 -0.00184802 2.2758867e-20)
(0.0045316896 -0.0015881155 -2.6985338e-20)
(0.0041678079 -0.0012366405 8.5777913e-20)
(0.0032972185 -0.00080575266 -5.4245255e-21)
(0.0017314586 -0.00033976497 2.1859868e-20)
(-0.00075759911 8.1623871e-05 -2.9945869e-21)
(-0.0043729554 0.00032928662 4.2777281e-21)
(-0.009194161 0.00021139675 -2.6513218e-21)
(-0.015617039 -0.0005145887 4.9062772e-21)
(-0.023465258 -0.002175857 -1.4953682e-22)
(-0.031980417 -0.0049151898 5.4135977e-20)
(-0.040710038 -0.0087889731 -2.0596146e-20)
(-0.049053299 -0.013725935 1.8367765e-20)
(-0.056545484 -0.019564648 -1.168291e-19)
(-0.062774352 -0.026051438 -1.870289e-20)
(-0.067501276 -0.032910214 1.6350525e-19)
(-0.07055535 -0.039830102 -1.3937058e-19)
(-0.071918887 -0.046527808 -2.6722601e-21)
(-0.071603938 -0.052707147 4.3095752e-20)
(-0.069769299 -0.058155919 -4.0142086e-20)
(-0.066510297 -0.062608474 -8.2214672e-21)
(-0.062067279 -0.065924017 -5.756446e-21)
(-0.056693768 -0.068003956 -1.211304e-20)
(-0.050564232 -0.06868165 1.9333154e-21)
(-0.043969809 -0.067954648 3.7694013e-22)
(-0.037145391 -0.065790422 3.9869305e-20)
(-0.030339945 -0.062221405 -6.6515799e-20)
(-0.023786899 -0.057310216 -7.4128097e-20)
(-0.017703836 -0.051154358 -3.0868352e-20)
(-0.012287809 -0.043883857 -7.1953052e-20)
(-0.0077105558 -0.035656782 1.6240462e-20)
(-0.0041123846 -0.026654553 2.3831539e-20)
(-0.0016082163 -0.017097768 -3.7276974e-20)
(-0.00025812468 -0.0071531764 -5.0047423e-21)
(-1.307465e-05 -0.001262585 -1.4439892e-21)
(-3.4922984e-05 -0.00094503649 -8.5522856e-23)
(-3.9824906e-05 -0.00063229202 -4.8789285e-21)
(-2.8671706e-05 -0.00033065053 1.6250157e-20)
(-2.3393779e-06 -4.4909915e-05 -1.1390173e-20)
(3.7472614e-05 0.00022029421 -3.4554334e-20)
(8.9145054e-05 0.0004608828 6.5000528e-21)
(0.00015016187 0.00067349667 2.5567887e-20)
(0.00021800107 0.00085584508 -2.3931076e-20)
(0.00028993325 0.0010066594 5.3296687e-20)
(0.00036336344 0.0011258034 9.637563e-22)
(0.00043596641 0.0012143639 -3.2704307e-20)
(0.00050586077 0.0012745848 -5.304442e-20)
(0.00057183102 0.0013098907 4.2872916e-20)
(0.00063345243 0.0013246315 -4.4944961e-20)
(0.00069135101 0.0013241406 -7.2062025e-20)
(0.00074722079 0.0013142574 4.7065803e-20)
(0.00080419818 0.0013015544 -7.5292768e-20)
(0.00086668757 0.0012926012 -9.9332361e-20)
(0.00094096558 0.0012944979 6.432386e-20)
(0.0010347056 0.0013136587 8.1883382e-20)
(0.001157746 0.0013565445 7.3266866e-20)
(0.0013206586 0.0014275562 6.015779e-20)
(0.001534209 0.001528598 1.4205169e-20)
(0.001807247 0.0016574578 2.4175303e-20)
(0.0021406599 0.0018036146 -5.1740231e-21)
(0.002527522 0.0019512422 4.6757733e-20)
(0.0029494123 0.0020790107 -1.2505241e-20)
(0.0033799776 0.0021655955 -9.8291769e-21)
(0.0037906557 0.0021948742 6.7753456e-20)
(0.0041564394 0.0021590014 -8.8480323e-20)
(0.0044515432 0.0020550177 -2.664689e-21)
(0.0046267887 0.001875666 4.4012424e-20)
(0.0045863596 0.0016074087 2.2964319e-20)
(0.0041975322 0.0012456876 -7.3126623e-20)
(0.0032827898 0.00080266122 4.6362387e-21)
(0.00165048 0.00032505623 1.3670588e-20)
(-0.0009285531 -0.00010402999 2.5784191e-21)
(-0.0046523326 -0.00035123765 -3.7002292e-21)
(-0.0095887621 -0.00022152036 2.3047766e-21)
(-0.01612802 0.00053061872 -4.2865693e-21)
(-0.024058158 0.0022300407 3.4608634e-20)
(-0.032602602 0.0050099127 -4.7658147e-20)
(-0.041301582 0.008915629 1.8158496e-20)
(-0.049533369 0.013859276 -1.6187469e-20)
(-0.056860636 0.019672616 1.0270818e-19)
(-0.062880038 0.02609366 1.6360623e-20)
(-0.067368176 0.032843571 -1.4191801e-19)
(-0.070170639 0.039611054 1.1956844e-19)
(-0.071291516 0.046119923 2.254524e-21)
(-0.070732745 0.052063697 -3.5451858e-20)
(-0.068708382 0.057269332 3.1782471e-20)
(-0.065254889 0.061423798 -4.8943116e-20)
(-0.060657183 0.064423499 3.6901005e-21)
(-0.055206268 0.066216371 -6.3234893e-21)
(-0.049007552 0.066563176 4.4564895e-21)
(-0.042399719 0.06552336 -7.0239032e-22)
(-0.035601691 0.063050427 -5.3922602e-20)
(-0.028864636 0.059188438 8.0405083e-20)
(-0.022419555 0.054006143 8.4511511e-20)
(-0.016480255 0.047605512 3.3925156e-20)
(-0.011240321 0.04012327 7.7069627e-20)
(-0.0068661619 0.031720113 -1.7057235e-20)
(-0.0034927079 0.022583784 4.8850016e-20)
(-0.001228712 0.012922974 3.7993833e-20)
(-0.00013446522 0.0029592912 5.0391122e-21)
)
;
    }
    frontAndBack
    {
        type            empty;
    }
}


// ************************************************************************* //
