/*--------------------------------*- C++ -*----------------------------------*\
  =========                 |
  \\      /  F ield         | OpenFOAM: The Open Source CFD Toolbox
   \\    /   O peration     | Website:  https://openfoam.org
    \\  /    A nd           | Version:  13
     \\/     M anipulation  |
\*---------------------------------------------------------------------------*/
FoamFile
{
    format      ascii;
    class       surfaceScalarField;
    location    "527";
    object      phi;
}
// * * * * * * * * * * * * * * * * * * * * * * * * * * * * * * * * * * * * * //

dimensions      [0 3 -1 0 0 0 0];

internalField   nonuniform List<scalar> 
1199
(
1.5115236e-07
-1.3961995e-07
-1.1531872e-08
1.1624005e-06
-9.3412861e-07
-7.7117745e-08
5.2904429e-06
-3.8135393e-06
-3.1450036e-07
1.9907176e-05
-1.3503197e-05
-1.1135348e-06
6.8436888e-05
-4.4828364e-05
-3.7013625e-06
0.00022329457
-0.0001430514
-1.1806384e-05
0.0007010435
-0.00044137143
-3.6377804e-05
0.0021184586
-0.001309778
-0.00010763733
0.0061095925
-0.0036895663
-0.00030156764
0.016626471
-0.0097317854
-0.00078509446
0.042310816
-0.023777243
-0.0019071071
0.10092566
-0.05427945
-0.004335406
-0.11897219
0.22938129
-0.009483447
1.680276e-07
-3.07647e-07
1.2926979e-06
-2.0587986e-06
5.8896935e-06
-8.4105374e-06
2.2184563e-05
-2.9798085e-05
7.6290681e-05
-9.8934556e-05
0.00024899748
-0.00031575837
0.00078206382
-0.00097443798
0.0023638107
-0.0028915257
0.0068162717
-0.0081420309
0.018546812
-0.021462339
0.047235381
-0.052465842
0.11296523
-0.12000931
-0.26357942
0.25757257
1.9357664e-07
-5.0122305e-07
1.4887472e-06
-3.3539683e-06
6.778494e-06
-1.3700284e-05
2.5512837e-05
-4.8532433e-05
8.7654077e-05
-0.00016107582
0.00028563128
-0.0005137356
0.00089485836
-0.001583665
0.0026954843
-0.0046921515
0.0077441436
-0.01319069
0.021013205
-0.0347314
0.05348636
-0.084938991
0.1285111
-0.19503402
-0.42948147
0.29441319
2.2886744e-07
-7.3008993e-07
1.7591408e-06
-4.884241e-06
8.002213e-06
-1.9943355e-05
3.0071869e-05
-7.0602092e-05
0.00010307014
-0.00023407411
0.00033464863
-0.00074531409
0.0010430286
-0.0022920447
0.0031217571
-0.0067708784
0.0089127536
-0.018981683
0.024050659
-0.049869298
0.061073231
-0.12196155
0.14746678
-0.28142754
-0.62017337
0.33815875
2.6902267e-07
-9.9911204e-07
2.0667607e-06
-6.6819778e-06
9.3946645e-06
-2.7271256e-05
3.5261396e-05
-9.6468815e-05
0.00012061176
-0.00031942444
0.00039031901
-0.0010150211
0.0012104065
-0.0031121311
0.0035973236
-0.0091577921
0.010191677
-0.025576028
0.027273929
-0.066951535
0.069011762
-0.16369936
0.1666756
-0.37909132
-0.83310767
0.37960998
3.0734735e-07
-1.3064589e-06
2.3598338e-06
-8.734463e-06
1.0716588e-05
-3.5628006e-05
4.0157193e-05
-0.0001259094
0.00013697863
-0.00041624579
0.00044129492
-0.001319337
0.0013591712
-0.0040300057
0.0040018963
-0.011800512
0.011199823
-0.032773945
0.029661043
-0.085412735
0.074807607
-0.20884589
0.17932021
-0.48360386
-1.0538027
0.40001536
3.175668e-07
-1.6240253e-06
2.4376991e-06
-1.0854594e-05
1.106628e-05
-4.4256582e-05
4.1444156e-05
-0.00015628726
0.00014123222
-0.00051603376
0.0004542127
-0.001632317
0.0013943999
-0.0049701909
0.0040804419
-0.014486548
0.01131125
-0.04000474
0.029700824
-0.10380229
0.073986036
-0.25313107
0.1732141
-0.58283185
-1.250583
0.36999446
2.8332259e-07
-1.9073477e-06
2.1731893e-06
-1.274446e-05
9.8533572e-06
-5.1936747e-05
3.6822576e-05
-0.00018325646
0.00012502307
-0.00060423417
0.00039964645
-0.00190694
0.0012153469
-0.0057858896
0.0035096252
-0.016780821
0.009569484
-0.046064588
0.02459776
-0.11883054
0.05944417
-0.28797746
0.13271994
-0.65610755
-1.3765057
0.25864275
1.5233776e-07
-2.0596855e-06
1.1663573e-06
-1.3758479e-05
5.2733592e-06
-5.6043748e-05
1.9612148e-05
-0.00019759524
6.6040465e-05
-0.00065066243
0.00020815933
-0.0020490585
0.00061847998
-0.0061962089
0.0017220344
-0.017884372
0.0044553981
-0.048797944
0.010679877
-0.125055
0.023483331
-0.3007809
0.045121556
-0.67774572
-1.4041981
0.07281411
-2.9710125e-08
-2.0299757e-06
-2.3100113e-07
-1.3557189e-05
-1.0690134e-06
-5.5205736e-05
-4.131887e-06
-0.00019453237
-1.482339e-05
-0.00063997089
-5.1672655e-05
-0.0020122091
-0.00017853568
-0.0060693452
-0.00061162832
-0.017451277
-0.0020400938
-0.047369477
-0.0064661455
-0.12062894
-0.019435012
-0.28781203
-0.056370295
-0.64081039
-1.3075556
-0.15301263
-2.37882e-07
-1.7920944e-06
-1.8286196e-06
-1.1966453e-05
-8.3195798e-06
-4.8714779e-05
-3.1273239e-05
-0.00017157872
-0.00010724167
-0.00056400248
-0.00034850298
-0.0017709478
-0.0010878023
-0.0053300462
-0.0032633421
-0.01527574
-0.0093545895
-0.041278237
-0.025474673
-0.10450887
-0.065706513
-0.24758021
-0.16120809
-0.54530879
-1.0965907
-0.37217302
-4.436156e-07
-1.3484797e-06
-3.4070587e-06
-9.0030121e-06
-1.5480512e-05
-3.6641331e-05
-5.8066124e-05
-0.00012899312
-0.00019841693
-0.00042365173
-0.00064094545
-0.0013284196
-0.0019796865
-0.0039913067
-0.0058431656
-0.011412266
-0.016384072
-0.030737344
-0.043440653
-0.077452307
-0.10876009
-0.1822608
-0.25598996
-0.39807891
-0.7920383
-0.56054234
-6.0966519e-07
-7.3881551e-07
-4.6803105e-06
-4.9323693e-06
-2.1269784e-05
-2.0051865e-05
-7.980392e-05
-7.0459006e-05
-0.00027260914
-0.0002308466
-0.00087852814
-0.00072250106
-0.0026998945
-0.0021699426
-0.0079139448
-0.006198224
-0.021990898
-0.016660411
-0.057579909
-0.04186333
-0.14174606
-0.098094683
-0.32664022
-0.21318476
-0.4212513
-0.69742715
-7.1115894e-07
-2.7656948e-08
-5.4590307e-06
-1.8450094e-07
-2.476079e-05
-7.5011468e-07
-9.2585283e-05
-2.6345474e-06
-0.00031481588
-8.6161405e-06
-0.0010103069
-2.7010734e-05
-0.0030986536
-8.1599088e-05
-0.0090635957
-0.000233293
-0.025098028
-0.00062600358
-0.065396386
-0.0015650128
-0.15983788
-0.0036532241
-0.36493722
-0.0080854413
-0.77012073
-0.016067661
0.33186645
-0.089232897
-0.013252232
0.46034527
-0.11054673
-0.017932037
0.60901169
-0.12462943
-0.024036889
0.76759106
-0.12683271
-0.03174658
-0.11089018
0.91992921
-0.041447913
0.37239153
-0.20405152
0.51609953
-0.25425422
0.68299834
-0.29152769
0.86142046
-0.30525442
-0.28138834
1.0319184
0.42740914
-0.33704735
0.59180214
-0.41864711
0.78352264
-0.48324803
0.98847129
-0.51020296
-0.47472858
1.1818114
0.49655587
-0.4954443
0.68875213
-0.61084321
0.91371673
-0.70821247
1.1545866
-0.75107257
-0.69886504
1.3787229
0.57042153
-0.68625567
0.79846566
-0.83888715
1.0673072
-0.97705392
1.3573798
-1.0411447
-0.96779136
1.626306
0.62696838
-0.91320853
0.89967938
-1.1115979
1.2256387
-1.3030131
1.5831301
-1.3986356
-1.3041865
1.919525
0.63327063
-1.1764846
0.96140325
-1.4397304
1.360948
-1.7025579
1.8095533
-1.8472402
-1.7397899
2.2451566
0.55885808
-1.4766997
0.95343684
-1.834309
1.4464966
-2.1956176
2.0144648
-2.4152076
2.5864444
-2.3117694
0.95874473
0.0078368339
-0.046652362
1.0036302
0.029466117
-0.074351679
1.0508419
0.071942688
-0.11915445
1.0972527
0.14260379
-0.1890146
0.25812709
-0.29012946
1.0701427
-0.03038874
1.1154387
-0.015830622
1.1642481
0.023127749
1.2133341
0.093512153
0.22380162
1.2130466
-0.061623744
1.2525076
-0.055291744
1.2980422
-0.022406657
1.3464688
0.045085502
0.18876118
1.3959099
-0.078810189
1.4219346
-0.081316626
1.4576228
-0.058094439
1.5005166
0.0021918157
0.15550329
1.6243587
-0.076861863
1.6300604
-0.08701844
1.6486253
-0.076658742
1.6799106
-0.029093147
0.12735825
1.8981623
-0.055497388
1.8802475
-0.069103596
1.8757692
-0.072179619
1.889249
-0.042572617
0.10816098
2.2096341
-0.019972429
2.1705253
-0.029994545
2.141176
-0.042829521
2.1325525
-0.033948745
0.10143801
2.5450577
0.021417178
2.4921698
0.02289361
2.4428224
0.0065182448
2.4122777
-0.0034037738
0.1091008
0.064235685
-1.5966825
1.605261
-0.2774434
-11.495708
11.837387
-81.173742
84.044984
-0.28760279
-1.4620921
-1.4398979
-10.34341
-72.86504
-0.62292094
-1.2113442
-2.4847399
-8.4815908
-59.665612
-0.903996
-0.86789058
-3.3429083
-6.0426786
-42.457638
-1.1057492
-0.45956863
-3.9570745
-3.1913534
-22.397623
-1.212343
-0.017346481
-4.2822305
-0.12146613
-0.83328317
1.595042
-1.4664806
1.5834005
-1.8226674
1.5653458
-2.1775627
1.5369895
-2.3868504
-2.2677783
1.4929988
11.782309
-1.4114058
11.655689
-1.6960477
11.432459
-1.9543333
11.139353
-2.0937445
-1.9532214
10.824796
82.610152
80.884361
78.892258
76.750553
74.73643
1.4707052
0.043712755
1.441594
0.05200518
1.4129173
0.035193615
1.3910573
0.01845638
0.11828929
10.75697
0.11153926
10.658127
0.15084788
10.50443
0.18888828
10.320358
0.20252811
0.25814018
74.794144
74.860751
74.917788
74.913969
1.5136823e-07
-1.6289972e-07
1.1641047e-06
-1.0898537e-06
5.2985831e-06
-4.4489817e-06
1.9937265e-05
-1.5752237e-05
6.8528297e-05
-5.2292477e-05
0.00022356665
-0.00016684492
0.00070181976
-0.00051463116
0.0021205643
-0.0015263826
0.0061150786
-0.0042960847
0.016640381
-0.011310406
0.042347418
-0.027614163
0.10103253
-0.063020508
-0.13814101
0.22969028
1.687011e-07
-3.3160023e-07
1.2978437e-06
-2.2189955e-06
5.9131935e-06
-9.0643317e-06
2.2271473e-05
-3.2110523e-05
7.6573015e-05
-0.00010659405
0.00024984928
-0.00034012123
0.00078448125
-0.0010492632
0.0023702979
-0.0031121997
0.0068331045
-0.0087588923
0.018589668
-0.023066971
0.047349341
-0.056373835
0.11329561
-0.12896677
-0.28338343
0.25853806
1.944709e-07
-5.2607055e-07
1.4955818e-06
-3.5201056e-06
6.8093489e-06
-1.4378098e-05
2.5627694e-05
-5.0928872e-05
8.8038619e-05
-0.00016900499
0.00028682364
-0.00053890627
0.00089829843
-0.0016607378
0.0027046982
-0.0049185987
0.007767769
-0.013821961
0.021074254
-0.036373453
0.053654877
-0.088954448
0.12899846
-0.20431033
-0.45024081
0.29585589
2.2970792e-07
-7.5577789e-07
1.7655551e-06
-5.055952e-06
8.0310674e-06
-2.0643608e-05
3.0178119e-05
-7.3075923e-05
0.00010342128
-0.00024224815
0.00033571708
-0.00077120195
0.0010459986
-0.0023710186
0.0031290253
-0.0070016228
0.008927439
-0.019620369
0.024094542
-0.051540545
0.061234327
-0.12609421
0.14792877
-0.29100473
-0.6417143
0.33940232
2.6988717e-07
-1.0256645e-06
2.0733175e-06
-6.859381e-06
9.4238643e-06
-2.7994152e-05
3.5367163e-05
-9.901921e-05
0.00012095128
-0.00032783221
0.00039129828
-0.0010415486
0.0012128587
-0.0031925776
0.003602118
-0.0093908779
0.010196621
-0.026214863
0.027282863
-0.06862677
0.068996711
-0.16780804
0.16659425
-0.38860221
-0.85431512
0.37919513
3.0736931e-07
-1.3330333e-06
2.3598817e-06
-8.911892e-06
1.0715954e-05
-3.635022e-05
4.0149456e-05
-0.00012845269
0.00013692145
-0.00042460412
0.00044094848
-0.0013455752
0.0013573304
-0.0041089577
0.0039932856
-0.012026828
0.011165508
-0.033387074
0.029535127
-0.086996368
0.074353482
-0.21262636
0.17803602
-0.49228468
-1.0725795
0.39630053
3.1466706e-07
-1.6477e-06
2.4153328e-06
-1.1012557e-05
1.0963965e-05
-4.4898848e-05
4.1055956e-05
-0.00015854467
0.00013988002
-0.00052342809
0.00044970604
-0.0016554007
0.0013797852
-0.0050390348
0.0040342426
-0.014681279
0.011169716
-0.040522535
0.029268094
-0.10509472
0.072748661
-0.2561069
0.16987694
-0.58941289
-1.2641061
0.36140357
2.759e-07
-1.9235998e-06
2.1161121e-06
-1.2852768e-05
9.593552e-06
-5.2376284e-05
3.5845189e-05
-0.00018479629
0.00012166663
-0.00060924945
0.00038871033
-0.001922444
0.0011810406
-0.0058313633
0.0034057104
-0.016905943
0.0092662121
-0.046383026
0.023742019
-0.11957051
0.057120374
-0.28948523
0.12672081
-0.65901325
-1.3818445
0.24445934
1.4094344e-07
-2.0645433e-06
1.0788239e-06
-1.3790648e-05
4.8754889e-06
-5.6172948e-05
1.811888e-05
-0.00019803967
6.0933124e-05
-0.00065206364
0.00019163468
-0.0020531453
0.00056727117
-0.0062069985
0.0015701162
-0.017908785
0.0040263208
-0.048839223
0.00952469
-0.12506886
0.020454557
-0.30041509
0.037584654
-0.67614329
-1.400191
0.055931263
-4.4826345e-08
-2.0197173e-06
-3.4701479e-07
-1.3488461e-05
-1.5955086e-06
-5.4924455e-05
-6.1024994e-06
-0.00019353268
-2.1531793e-05
-0.00063663431
-7.320895e-05
-0.002001468
-0.0002444606
-0.0060357462
-0.00080366762
-0.017349576
-0.0025678212
-0.047075069
-0.0078206405
-0.11981603
-0.02277608
-0.28545965
-0.064338461
-0.63458086
-1.2946493
-0.16987998
-2.5499976e-07
-1.7647182e-06
-1.9599182e-06
-1.1783544e-05
-8.9149306e-06
-4.7969446e-05
-3.3498455e-05
-0.00016894916
-0.00011479909
-0.00055533369
-0.00037267131
-0.0017435958
-0.0011613366
-0.0052470814
-0.0034757065
-0.015035209
-0.0099321359
-0.040618648
-0.026931378
-0.1028168
-0.069027246
-0.24336379
-0.16858013
-0.53502794
-1.0755958
-0.38763361
-4.5888222e-07
-1.3058369e-06
-3.5241237e-06
-8.7183045e-06
-1.6011065e-05
-3.5482511e-05
-6.0047065e-05
-0.00012491318
-0.00020513095
-0.00041024987
-0.00066232955
-0.0012863975
-0.0020445009
-0.0038649117
-0.0060297369
-0.011049979
-0.016890256
-0.029758144
-0.044726432
-0.074980645
-0.11166319
-0.17642707
-0.26195148
-0.38473964
-0.76485761
-0.57268966
-6.1923052e-07
-6.8660743e-07
-4.7537668e-06
-4.5837707e-06
-2.1602282e-05
-1.8634003e-05
-8.1041093e-05
-6.5474391e-05
-0.00027677652
-0.00021451455
-0.00089181767
-0.00067135691
-0.002740677
-0.002016055
-0.008032368
-0.0057582972
-0.022312005
-0.015478528
-0.05838937
-0.038903316
-0.14364196
-0.091174506
-0.33063115
-0.19775045
-0.39035315
-0.70513549
-7.1426482e-07
-5.48254e-06
-2.4866667e-05
-9.2975648e-05
-0.00031610654
-0.0010144753
-0.0031121349
-0.009103742
-0.025208303
-0.065676661
-0.16050437
-0.3663403
-0.77276093
0.33213382
-0.11569547
0.46062658
-0.14642426
0.60955448
-0.17296415
0.76878876
-0.19098036
-0.19492527
0.92226624
0.37401763
-0.23117495
0.51852818
-0.29093474
0.68670417
-0.34114004
0.8669602
-0.37123636
-0.36761395
1.0396488
0.43024503
-0.36556396
0.59633327
-0.4570229
0.79047386
-0.53528051
0.99862607
-0.5793885
-0.56450297
1.1955149
0.499799
-0.52596049
0.69456465
-0.65178845
0.92301323
-0.76372902
1.1684984
-0.82487351
-0.79390201
1.3978972
0.57241553
-0.71918074
0.80371761
-0.8830904
1.0768863
-1.0368977
1.372841
-1.1208279
-1.0701153
1.649054
0.6255621
-0.94844218
0.90180963
-1.1593378
1.2326291
-1.3677172
1.5970214
-1.4852198
-1.415902
1.9428077
0.62662258
-1.2136611
0.95829223
-1.4910073
1.3629039
-1.772329
1.8190145
-1.9413298
-1.8626485
2.2657607
0.54638977
-1.5155913
0.94427349
-1.8888909
1.4423686
-2.2704242
2.0180406
-2.5170012
2.6022654
-2.4468734
0.96091322
-0.0853008
1.0055645
-0.11900273
1.0525506
-0.16614635
1.0987118
-0.23517773
-0.32193653
1.077363
-0.123015
1.1219223
-0.16356224
1.1700063
-0.21423016
1.2182701
-0.28344157
-0.35560981
1.2260417
-0.15354149
1.2643788
-0.20189953
1.3087348
-0.25858591
1.3557429
-0.33044961
-0.38949105
1.4145787
-0.1702224
1.4395065
-0.22682749
1.4738567
-0.29293569
1.5149048
-0.37149748
-0.42115344
1.6474065
-0.16857377
1.652765
-0.23218608
1.6704626
-0.31063257
1.6999107
-0.40094537
-0.44746673
1.923081
-0.14884528
1.906418
-0.21552303
1.9024597
-0.30667328
1.9148584
-0.41334373
-0.46497575
2.2333079
-0.11638997
2.1975931
-0.17980811
2.1710639
-0.28014305
2.1630614
-0.40534085
-0.47074373
2.5649343
-0.079055869
2.5175186
-0.13239231
2.4736714
-0.23629522
2.4462061
-0.37787527
-0.4634939
0.037829415
-1.5907029
1.6088048
-0.36998664
-11.434491
11.842307
-80.722804
84.018623
-0.31415457
-1.4464281
-1.5262478
-10.222394
-72.018572
-0.64630327
-1.1877584
-2.5589799
-8.3097172
-58.479585
-0.9221707
-0.83827748
-3.3996196
-5.8322683
-41.010802
-1.1172505
-0.42616257
-3.992816
-2.9567029
-20.786928
-1.2162701
-4.2944398
1.6000004
-1.5067868
1.5888937
-1.877784
1.5709627
-2.2524931
1.5426241
-2.4886617
-2.4037876
1.4995385
11.790015
-1.4544997
11.666014
-1.753783
11.444664
-2.0311428
11.152191
-2.1961888
-2.0898439
10.838247
82.587544
80.863505
78.870132
76.721905
74.692963
1.4796667
-0.059181833
1.4539539
-0.10667916
1.4288348
-0.21117732
1.4094256
-0.3584657
-0.45519313
10.777836
0.0012293877
10.692001
-0.020843749
10.558347
-0.077525978
10.402641
-0.20276083
-0.34273225
74.748016
74.811411
74.865721
74.869304
)
;

boundaryField
{
    inlet
    {
        type            calculated;
        value           nonuniform List<scalar> 
32
(
-3.1486868
-9.748603
-15.684168
-20.550883
-24.017089
-25.84657
0.023423751
0.029744028
0.037769664
0.047960804
0.060901753
0.053824587
0.08424003
0.13184277
0.20634509
0.32294752
-3.6658072
-10.230483
-16.097967
-20.868402
-24.21669
-25.914651
-0.023423751
-0.029744028
-0.037769664
-0.047960804
-0.060901753
-0.053824587
-0.08424003
-0.13184277
-0.20634509
-0.32294752
)
;
    }
    outlet
    {
        type            calculated;
        value           nonuniform List<scalar> 
22
(
1.1292551
1.2476625
1.3815086
1.533774
1.7080557
1.9084458
2.1392744
2.4046136
1.3818682
10.180499
74.849175
1.1305171
1.2519429
1.3896236
1.5465673
1.7262238
1.9323667
2.1688285
2.438955
1.4011243
10.290172
74.849534
)
;
    }
    cylinder
    {
        type            calculated;
        value           uniform 0;
    }
    frontAndBack
    {
        type            empty;
    }
}


// ************************************************************************* //
