/*--------------------------------*- C++ -*----------------------------------*\
  =========                 |
  \\      /  F ield         | OpenFOAM: The Open Source CFD Toolbox
   \\    /   O peration     | Website:  https://openfoam.org
    \\  /    A nd           | Version:  13
     \\/     M anipulation  |
\*---------------------------------------------------------------------------*/
FoamFile
{
    format      ascii;
    class       volVectorField;
    location    "527";
    object      U;
}
// * * * * * * * * * * * * * * * * * * * * * * * * * * * * * * * * * * * * * //

dimensions      [0 1 -1 0 0 0 0];

internalField   nonuniform List<vector> 
620
(
(2.7769041e-06 -4.2021568e-05 3.3051093e-23)
(1.7128364e-05 -0.0001574631 -7.6877411e-23)
(6.0914583e-05 -0.00035930767 1.9666667e-22)
(0.00019788438 -0.00070931156 -3.9082243e-22)
(0.0006164245 -0.0013073379 8.8745354e-22)
(0.0018732846 -0.002291992 -8.0602342e-22)
(0.0054751307 -0.0038216711 2.6569888e-22)
(0.015101339 -0.0059699389 -4.7395956e-21)
(0.038107241 -0.0084993837 3.1230915e-21)
(0.084688843 -0.010719092 1.7960363e-21)
(0.16231729 -0.011619881 5.4506515e-20)
(0.26369442 -0.011159361 -1.0117301e-20)
(0.38866892 -0.0094582677 3.0992163e-20)
(3.0518031e-05 -0.00014242899 1.9319243e-22)
(0.00012055491 -0.00053475172 -5.3237711e-22)
(0.00029824149 -0.0012237846 1.3579401e-21)
(0.00067019545 -0.0024214864 -2.1150576e-21)
(0.0014969775 -0.0044682891 1.3827875e-21)
(0.0034449001 -0.0078583314 3.0572852e-21)
(0.008184721 -0.013170438 -4.7161838e-21)
(0.019577618 -0.020728825 4.6335832e-21)
(0.045070603 -0.029854183 -2.5574458e-20)
(0.094741561 -0.038343301 -3.0024146e-22)
(0.17568463 -0.043012983 -4.2744633e-20)
(0.2806621 -0.043568142 -3.2643848e-21)
(0.41149761 -0.039913357 7.9582524e-20)
(9.4537549e-05 -0.00024523425 3.322909e-22)
(0.00036133285 -0.00092076617 6.9729018e-23)
(0.00085151521 -0.0021072568 -1.534187e-21)
(0.0017723629 -0.0041700813 1.1359746e-21)
(0.0035537927 -0.0076930912 3.7673847e-21)
(0.0071309344 -0.013519951 -5.7930577e-21)
(0.014557328 -0.022626071 -1.4017715e-21)
(0.030114748 -0.035516643 1.7368781e-20)
(0.061429036 -0.05094861 -1.684822e-20)
(0.11826702 -0.065059739 4.36652e-20)
(0.20674317 -0.072525918 7.5635435e-20)
(0.31980273 -0.072861689 -6.8335507e-20)
(0.46326958 -0.064311874 -1.2295923e-19)
(0.00020639301 -0.00034322342 2.4446345e-22)
(0.00078185367 -0.001288274 -5.886485e-22)
(0.0018169686 -0.0029462444 1.451299e-22)
(0.003693007 -0.0058237323 8.6478477e-22)
(0.0071300366 -0.010722904 -4.753089e-21)
(0.013516905 -0.018783655 6.2460001e-21)
(0.0255355 -0.031271742 -9.8971521e-21)
(0.048121306 -0.048700387 8.0206449e-21)
(0.089114677 -0.069084139 3.605347e-20)
(0.15769094 -0.086711905 6.3997352e-21)
(0.25794895 -0.094632617 -1.6665207e-19)
(0.3843205 -0.092261551 2.08846e-19)
(0.54433177 -0.074010934 -3.4442612e-19)
(0.0003778234 -0.00041969293 -1.2432215e-22)
(0.0014259097 -0.0015744463 -3.6058587e-22)
(0.003293182 -0.0035967944 1.1925097e-21)
(0.006622131 -0.0070967372 -2.5111846e-21)
(0.012560331 -0.013025998 -3.2572166e-21)
(0.023146295 -0.022698104 9.2086967e-21)
(0.041917319 -0.037464709 -5.9778839e-22)
(0.074608637 -0.057571744 7.5542166e-21)
(0.12917929 -0.080066205 -2.3531704e-20)
(0.21344783 -0.097735977 -8.5140945e-20)
(0.32936429 -0.10225088 -3.493399e-20)
(0.47205644 -0.093493951 8.3577151e-20)
(0.64646457 -0.060261504 2.9974587e-19)
(0.00061229013 -0.00044305689 1.6676152e-22)
(0.002306267 -0.001660758 -8.0982084e-22)
(0.0053080123 -0.0037885704 7.7131877e-22)
(0.01061051 -0.0074566745 2.4745277e-21)
(0.019923991 -0.013628184 -7.311443e-21)
(0.036114052 -0.023573637 6.9232806e-22)
(0.063733262 -0.038433419 -1.0242053e-20)
(0.10929982 -0.0578963 3.8558871e-20)
(0.18052358 -0.078018448 -2.8352167e-21)
(0.2823107 -0.090627154 3.1402757e-20)
(0.41544982 -0.086509206 7.4611936e-20)
(0.57460192 -0.067406229 -3.4153066e-19)
(0.755119 -0.018086236 2.7989708e-21)
(0.00089734645 -0.00037190021 4.5883207e-23)
(0.0033753117 -0.0013923159 -1.2562579e-22)
(0.0077497407 -0.0031689607 6.2187336e-22)
(0.015427212 -0.0062122794 -5.0303041e-22)
(0.028764932 -0.011274057 -3.8435162e-21)
(0.051533668 -0.019259529 4.8518872e-21)
(0.089283848 -0.030712694 6.3640185e-21)
(0.14903578 -0.044486597 -1.9386208e-20)
(0.23739526 -0.055946493 9.2267103e-22)
(0.35717903 -0.057146172 4.6592907e-20)
(0.50644939 -0.040337086 1.3965253e-21)
(0.67538724 -0.0092379989 1.7627492e-19)
(0.84645643 0.050210371 -2.1280193e-19)
(0.0011647957 -0.00015833604 1.3459607e-22)
(0.0043780351 -0.00059017043 -3.116506e-22)
(0.010038504 -0.0013322678 -9.6758608e-23)
(0.019936866 -0.0025736009 1.0772179e-21)
(0.037024139 -0.0045470398 -3.8978835e-22)
(0.065877872 -0.0073874574 -9.1265422e-22)
(0.11285804 -0.010676523 -9.2026088e-22)
(0.18515102 -0.012498877 5.8927611e-21)
(0.28798879 -0.0085144733 -6.3776029e-21)
(0.42133162 0.0071056021 -4.8836512e-21)
(0.57925909 0.038299984 -3.5571748e-20)
(0.74908229 0.077767909 5.7364787e-22)
(0.89639514 0.13072493 -1.64189e-20)
(0.0013215209 0.00017413316 2.717023e-23)
(0.0049640986 0.00065685715 -1.3981938e-22)
(0.011370554 0.0015161829 9.7467978e-23)
(0.022542376 0.0030458171 1.5382841e-22)
(0.041737085 0.005766725 -4.1758202e-22)
(0.073896136 0.010590755 -5.2300316e-23)
(0.12561186 0.019047968 5.9064073e-23)
(0.20376414 0.03343125 2.0860995e-21)
(0.31238914 0.056361949 -2.4575943e-21)
(0.44974943 0.089240428 1.3723161e-21)
(0.60812747 0.13044312 9.5178407e-22)
(0.77254211 0.1699558 1.2450332e-20)
(0.90323006 0.19763539 1.2287634e-20)
(0.0012729754 0.00052727469 1.1495212e-22)
(0.0047811786 0.0019797747 -2.920379e-22)
(0.010949789 0.004531601 4.2207405e-22)
(0.021702382 0.0089727871 -2.9971117e-22)
(0.040164325 0.016575781 -7.3382154e-23)
(0.071063994 0.029227334 4.8945996e-22)
(0.1206887 0.049303763 -1.428958e-21)
(0.19560693 0.078844225 6.6785879e-21)
(0.29986511 0.11777134 -4.8997179e-21)
(0.43246831 0.16225427 -5.4419456e-21)
(0.58639955 0.20524845 -5.0361232e-20)
(0.7469319 0.23349941 2.2135421e-20)
(0.8765549 0.23185469 -6.2595696e-20)
(0.001026536 0.00078742442 -2.4494643e-22)
(0.0038571848 0.0029533031 9.0721596e-22)
(0.0088408894 0.0067463844 -2.6329254e-21)
(0.017547847 0.013311461 -3.6531224e-22)
(0.032558514 0.024441415 -5.8452831e-22)
(0.057866404 0.042647175 9.1704375e-21)
(0.099044438 0.070689729 -3.8416186e-21)
(0.16262409 0.10992082 -6.4554516e-21)
(0.25431003 0.15753674 8.1762976e-21)
(0.37668613 0.20533491 -2.6084347e-20)
(0.5256737 0.24248788 5.358691e-21)
(0.68733012 0.25507548 -1.7812855e-19)
(0.8250413 0.23189771 -8.1998129e-20)
(0.00064852157 0.00084450947 -3.997165e-22)
(0.0024411458 0.0031657286 1.4944803e-21)
(0.0056137025 0.0072248372 -9.0248534e-22)
(0.011206399 0.014232074 5.2113266e-21)
(0.020999625 0.026056403 -1.0982552e-20)
(0.037957432 0.0452362 1.4340076e-20)
(0.066786967 0.074338738 1.600368e-20)
(0.11437812 0.11398138 -3.7317392e-20)
(0.18942749 0.15984292 -6.3442919e-21)
(0.29963604 0.20199027 3.4440279e-20)
(0.44660288 0.22900627 9.0810746e-20)
(0.61722048 0.22905456 3.1280166e-19)
(0.76992643 0.19614205 6.4932419e-20)
(0.00027213271 0.00065568245 2.5374574e-22)
(0.0010319638 0.002456925 5.4793954e-22)
(0.0024034771 0.0056036064 -1.5850055e-21)
(0.0049036664 0.011024327 5.6501608e-21)
(0.0095277601 0.020135227 -6.8871008e-21)
(0.018253955 0.034815034 3.9643329e-21)
(0.035031764 0.056912018 1.6453435e-20)
(0.067326374 0.086595555 -2.4566959e-20)
(0.12710009 0.12003372 2.5036888e-20)
(0.22768233 0.14915138 -5.0414761e-20)
(0.37436426 0.16488014 8.5243379e-20)
(0.55459241 0.1606195 -1.0774758e-21)
(0.72506442 0.13345938 1.4051527e-19)
(3.276176e-05 0.00026070026 -8.7652638e-23)
(0.00014547811 0.00097451387 3.8565382e-22)
(0.00038020355 0.0022155779 -8.5614299e-22)
(0.00093618799 0.0043330989 2.8270291e-21)
(0.0023236191 0.0078614976 -4.4961476e-21)
(0.005909042 0.013567288 -9.9320167e-22)
(0.015173984 0.022272252 1.7967517e-20)
(0.038098961 0.033923932 -2.6186141e-20)
(0.088662083 0.047009084 6.614208e-21)
(0.18380813 0.058375342 2.8782748e-20)
(0.33135262 0.064722887 1.0805097e-20)
(0.51878804 0.063448046 -1.4892408e-19)
(0.6997706 0.053523047 -1.0882689e-19)
(0.47299022 -0.0042629171 -1.3764877e-21)
(0.53359032 -0.0029383732 -2.7456627e-21)
(0.6026577 -0.0003034457 -8.2231302e-21)
(0.64719283 0.0016825558 5.4571175e-21)
(0.69536938 0.0030271879 8.3935554e-21)
(0.49467923 -0.026237052 8.9247444e-20)
(0.55167364 -0.023504948 1.2355616e-19)
(0.61878916 -0.016517427 -1.6582523e-20)
(0.66168911 -0.011179403 -2.5392033e-20)
(0.70811584 -0.0077147005 -3.4747749e-20)
(0.54470969 -0.043559773 -1.196874e-19)
(0.59449221 -0.040469903 -4.9400991e-20)
(0.65717804 -0.029931503 3.6076297e-21)
(0.6960828 -0.022018769 9.4313809e-20)
(0.7382712 -0.016859268 6.7409608e-20)
(0.62274801 -0.049708647 -1.1307709e-20)
(0.66201168 -0.048003319 3.1662244e-20)
(0.71714246 -0.036338408 -3.2517169e-21)
(0.74972672 -0.027623918 -3.166739e-20)
(0.78544444 -0.021933245 -6.4918615e-20)
(0.72080801 -0.038885125 1.1670381e-20)
(0.74665869 -0.041493074 -1.2190842e-19)
(0.79160067 -0.032263636 -6.3430288e-20)
(0.81664942 -0.025601978 -2.111551e-19)
(0.84482021 -0.021046155 1.8328372e-19)
(0.82289349 -0.0095190949 4.4547251e-19)
(0.83440634 -0.019940232 -2.7422546e-19)
(0.86832736 -0.0177894 -3.5673004e-20)
(0.88635093 -0.015984203 9.8823342e-20)
(0.90755527 -0.014045409 -1.6846401e-19)
(0.90808883 0.034370267 -1.8199103e-19)
(0.91014739 0.011939767 -6.0183291e-22)
(0.93424457 0.0034445978 1.5973921e-20)
(0.94764731 -0.0015007993 2.0495849e-19)
(0.96367445 -0.0029932909 -2.482197e-20)
(0.95434484 0.088827856 -1.5546785e-19)
(0.95954727 0.050106824 1.8833416e-19)
(0.98030142 0.027372078 4.7686773e-19)
(0.99318741 0.014316488 -1.6515409e-19)
(1.0059252 0.0090090417 1.4945139e-19)
(0.73000638 0.0049654908 0)
(0.76103009 0.0061061591 0)
(0.80042142 0.0072159649 0)
(0.83323209 0.0080185539 0)
(0.87379868 0.0084784838 0)
(0.73951962 -0.0024329785 0)
(0.76713926 0.00060704444 0)
(0.80394127 0.0035012904 0)
(0.83498932 0.0056721251 0)
(0.87439983 0.0074350371 0)
(0.76252767 -0.0091928561 0)
(0.78268458 -0.004615561 0)
(0.81357462 -0.00017866357 0)
(0.84048555 0.0032604976 0)
(0.87692076 0.0063445811 0)
(0.79948334 -0.013946643 0)
(0.80866488 -0.008689722 0)
(0.83029142 -0.0033758301 0)
(0.85046118 0.00099025141 0)
(0.88178325 0.0052708989 0)
(0.84785483 -0.015425006 0)
(0.84446175 -0.01068044 0)
(0.85431524 -0.0055354523 0)
(0.86539167 -0.00086747745 0)
(0.88939622 0.0043073914 0)
(0.90178535 -0.01303095 0)
(0.8871865 -0.0099083364 0)
(0.8846156 -0.0061098942 0)
(0.8852269 -0.0020018977 0)
(0.90004667 0.0035470585 0)
(0.95330454 -0.0072980234 0)
(0.93163527 -0.0063129863 0)
(0.91852057 -0.0047611538 0)
(0.90909878 -0.002122673 0)
(0.91378511 0.0031240538 0)
(0.99475597 0.00030427319 0)
(0.97118686 -0.00048044932 0)
(0.95180559 -0.0015733433 0)
(0.93516711 -0.0011455815 0)
(0.93029441 0.0031313531 0)
(0.96313657 0.18360471 -5.2062395e-20)
(1.0040309 0.075077469 6.9852912e-19)
(1.0144857 0.021127948 -1.8728053e-18)
(0.93445898 0.19170458 2.5396523e-20)
(0.99112141 0.071792978 -2.3954179e-18)
(1.0077369 0.021476759 -2.1895644e-17)
(0.89632044 0.1749545 -2.936333e-19)
(0.97477581 0.063651117 2.2041144e-18)
(1.0042871 0.019835271 2.7023181e-17)
(0.86026186 0.14049189 1.7684075e-19)
(0.96203587 0.051626093 1.5045901e-18)
(1.0005843 0.017647741 3.4346714e-17)
(0.83281828 0.09376473 -1.7121059e-19)
(0.95313403 0.036400943 -5.6409961e-18)
(0.99796016 0.014938216 -5.5961034e-17)
(0.81788177 0.03917724 -1.2874354e-19)
(0.94807043 0.019361613 4.0464366e-18)
(0.99650479 0.011718218 1.1615754e-17)
(0.98310676 0.12222417 3.7267587e-19)
(0.98918636 0.073614999 -5.3149292e-20)
(1.0074351 0.041035922 -8.9274605e-19)
(1.0185151 0.023420211 2.0929166e-19)
(1.0264141 0.016382836 -1.4439148e-19)
(1.0210916 0.062903745 -4.7967086e-20)
(1.034216 0.049956268 5.7689481e-20)
(1.0441756 0.03806415 1.7444241e-19)
(1.0473143 0.029538533 -9.7785567e-20)
(1.0474496 0.025599523 -5.536566e-20)
(1.0172993 0.024999154 1.1314132e-20)
(1.0187155 0.024752607 -4.2654744e-21)
(1.0197735 0.024300476 -3.1278877e-20)
(1.0203422 0.023650906 2.6232782e-20)
(1.0209074 0.022642319 1.0296678e-20)
(1.0137697 0.0062830905 0)
(0.99215097 0.0044951068 0)
(0.97251239 0.0015362983 0)
(0.95432392 0.0003034539 0)
(0.94403386 0.0034907474 0)
(1.0436947 0.020245869 0)
(1.034415 0.017701456 0)
(1.0214835 0.012490041 0)
(1.0053682 0.0069777174 0)
(0.98336966 0.0054889942 0)
(1.0214688 0.021670878 0)
(1.022541 0.021261827 0)
(1.0235472 0.021000009 0)
(1.0238895 0.021320723 0)
(1.0229922 0.022162718 0)
(3.7735472e-06 5.7070024e-05 -3.3044113e-23)
(2.0975216e-05 0.00021405681 7.6867826e-23)
(6.975855e-05 0.00048911081 -1.9664081e-22)
(0.0002158082 0.00096775817 3.9073245e-22)
(0.00064968052 0.0017903931 -8.8719816e-22)
(0.0019343211 0.0031585291 8.0567113e-22)
(0.005583048 0.0053231477 -2.6566097e-22)
(0.015286204 0.0084681408 4.7348635e-21)
(0.038409814 0.012435023 -3.1184504e-21)
(0.085148893 0.016480193 -1.7926026e-21)
(0.16298769 0.019489753 -5.441131e-20)
(0.26460668 0.021218551 1.0102157e-20)
(0.39001888 0.021832849 -3.088227e-20)
(3.3728578e-05 0.00015748116 -1.9308929e-22)
(0.0001326492 0.00059136713 1.0871344e-22)
(0.00032609243 0.0013537299 -6.1398903e-22)
(0.00072591393 0.0026799306 2.0928524e-21)
(0.0016017441 0.0049498272 -1.381335e-21)
(0.0036350722 0.0087202559 -3.0532303e-21)
(0.0085201783 0.014660381 4.7103106e-21)
(0.02014925 0.02320156 -4.6345069e-21)
(0.046001141 0.033740193 2.5515654e-20)
(0.096146864 0.044020901 2.9529596e-22)
(0.1777346 0.050756806 4.2686228e-20)
(0.28342943 0.053495731 3.2409482e-21)
(0.415572 0.052051451 1.6667374e-19)
(0.00010028261 0.00026016065 -3.3154812e-22)
(0.0003829524 0.00097688769 -6.9577146e-23)
(0.00090122938 0.0022359918 1.5336508e-21)
(0.0018715662 0.0044259604 -3.4092036e-21)
(0.0037395462 0.0081689736 2.7634785e-22)
(0.0074659614 0.014368897 5.7803554e-21)
(0.015143225 0.024086671 1.3999794e-21)
(0.031102684 0.037927687 -1.7319985e-20)
(0.063019342 0.054719445 1.67516e-20)
(0.12062828 0.070560478 -4.3476936e-20)
(0.21019524 0.079976654 -4.8648528e-20)
(0.3243549 0.082460799 4.4869092e-20)
(0.46992918 0.075955112 -1.3524261e-19)
(0.00021493072 0.0003574347 -2.4347958e-22)
(0.00081395939 0.0013416961 5.8627486e-22)
(0.0018906988 0.0030687301 -1.3308137e-21)
(0.0038397945 0.0060670061 1.204271e-21)
(0.0074037905 0.011174745 4.6233913e-21)
(0.014007372 0.019587909 -6.2170973e-21)
(0.026384317 0.032650554 9.8480657e-21)
(0.049531217 0.050965298 -7.9823496e-21)
(0.091339366 0.072605489 -6.2222419e-21)
(0.16088834 0.091905611 8.7011683e-21)
(0.26274407 0.10161501 1.2891329e-19)
(0.39052766 0.10135607 -2.0684397e-19)
(0.55305112 0.085066813 3.4040639e-19)
(0.00038927532 0.00043242536 1.2354919e-22)
(0.0014689661 0.0016222889 -8.1825653e-22)
(0.0033919659 0.0037064336 8.9464209e-22)
(0.0068185214 0.0073142889 2.4951127e-21)
(0.012925657 0.013429417 3.2347111e-21)
(0.023797928 0.023414263 -9.1452429e-21)
(0.043036815 0.03868752 5.965527e-22)
(0.076448154 0.05957023 -7.4957373e-21)
(0.13202741 0.083180857 2.3303921e-20)
(0.21762268 0.10234142 8.4140731e-20)
(0.33517084 0.10864136 3.4441516e-20)
(0.47944282 0.10200869 -8.1875309e-20)
(0.65576755 0.070870869 -2.9601445e-19)
(0.00062666553 0.0004534673 -1.6500642e-22)
(0.002360253 0.0016998556 8.0126045e-22)
(0.0054316341 0.0038780982 -7.6315628e-22)
(0.010855472 0.0076340913 -2.4475934e-21)
(0.020377143 0.013956519 7.2307518e-21)
(0.036915021 0.024154889 -6.8721141e-22)
(0.065090111 0.039422876 1.0106888e-20)
(0.11148508 0.05951081 -3.805385e-20)
(0.18380797 0.080552517 2.8413859e-21)
(0.2871087 0.094435543 -3.1183599e-20)
(0.42158143 0.09217866 -7.3398583e-20)
(0.58223889 0.075196841 3.3565107e-19)
(0.76384605 0.028710999 -6.8745389e-22)
(0.0009131695 0.00037846672 -4.4983348e-23)
(0.0034346727 0.0014170125 1.2317149e-22)
(0.0078854264 0.0032256669 -6.095338e-22)
(0.015695248 0.0063251979 4.93359e-22)
(0.029258157 0.011484827 3.7657861e-21)
(0.05239788 0.019638382 1.2043638e-21)
(0.090727814 0.031375157 -1.5530801e-20)
(0.15131592 0.045618365 1.8986307e-20)
(0.24076051 0.057842809 -8.9506445e-22)
(0.36177793 0.06026825 -4.5452387e-20)
(0.51213583 0.045377746 -9.7736348e-22)
(0.6820793 0.016875274 -1.7245868e-19)
(0.85340407 -0.038895469 2.5669272e-19)
(0.0011785254 0.00016021144 -1.2905678e-22)
(0.0044295035 0.00059733295 2.9880897e-22)
(0.010156002 0.0013491702 9.2718835e-23)
(0.020168472 0.0026088423 -1.0322917e-21)
(0.03744872 0.0046179429 3.7356385e-22)
(0.06661697 0.0075305947 8.7283318e-22)
(0.11407944 0.010971826 8.8884633e-22)
(0.18704562 0.013120474 -5.605804e-21)
(0.29070883 0.0098164941 6.0161068e-21)
(0.42491154 -0.0044903953 4.9063073e-21)
(0.58347424 -0.033424566 3.4135786e-20)
(0.75372905 -0.069505212 -3.4789793e-22)
(0.90101977 -0.11786644 -3.5630267e-20)
(0.0013290939 -0.00017511956 -2.3127992e-23)
(0.0049924593 -0.0006603441 1.1893451e-22)
(0.011435216 -0.0015232579 -8.2960895e-23)
(0.022669558 -0.0030566804 -1.3067082e-22)
(0.041969408 -0.0057766001 3.519042e-22)
(0.074298325 -0.0105768 3.3028634e-23)
(0.12627136 -0.018933516 -4.6134592e-23)
(0.20477791 -0.0330064 -1.7746406e-21)
(0.31383177 -0.055159656 2.1208453e-21)
(0.45161516 -0.086441825 -1.1497901e-21)
(0.61018252 -0.12486286 5.3713089e-21)
(0.77465471 -0.16006542 -1.5877631e-20)
(0.9054915 -0.18279026 -1.1887616e-20)
(0.0012718307 -0.00052678576 -4.3427167e-23)
(0.0047768865 -0.001977646 3.3958362e-22)
(0.010940039 -0.004525519 -4.903534e-22)
(0.02168335 -0.0089565613 3.4770619e-22)
(0.04013014 -0.01653233 8.3591278e-23)
(0.071007125 -0.029109679 -5.6534303e-22)
(0.12060431 -0.048988379 1.6537029e-21)
(0.19550782 -0.078036785 -7.3996216e-21)
(0.29980741 -0.11587814 5.5283775e-21)
(0.43251411 -0.15831475 6.1708585e-21)
(0.58614619 -0.19807763 4.6579017e-20)
(0.7468395 -0.22156754 -2.1790346e-20)
(0.87711742 -0.2158694 6.76377e-20)
(0.0010168173 -0.00077994592 2.5813116e-22)
(0.0038208215 -0.002924935 -9.559273e-22)
(0.0087582237 -0.0066802502 2.7714053e-21)
(0.01738613 -0.013176358 3.8406902e-22)
(0.032266115 -0.024178455 -5.682044e-21)
(0.05737025 -0.042142839 1.3141355e-21)
(0.09826302 -0.069723482 4.0588568e-21)
(0.16151825 -0.1080781 6.8708901e-21)
(0.25297626 -0.15411966 -8.7213707e-21)
(0.37543417 -0.19935653 2.6894069e-20)
(0.52445354 -0.23275292 -1.1357678e-19)
(0.685599 -0.24125861 -7.8624393e-20)
(0.82484036 -0.21367318 8.4851853e-20)
(0.00063406515 -0.00082564537 4.109511e-22)
(0.0023870784 -0.0030947257 -1.5365145e-21)
(0.0054908419 -0.0070615836 -2.5266971e-21)
(0.010966216 -0.013906274 7.3019152e-22)
(0.020565779 -0.025446247 1.1287284e-20)
(0.037221945 -0.044134805 -1.5153942e-20)
(0.065628049 -0.072406419 -1.6422948e-20)
(0.11272873 -0.11069156 3.8400545e-20)
(0.18739735 -0.15446202 6.4346441e-21)
(0.29764087 -0.19367165 -3.5757152e-20)
(0.44518605 -0.21685636 1.3746821e-20)
(0.61516086 -0.21292223 2.9395285e-19)
(0.76916867 -0.17655459 -6.6261876e-20)
(0.00025975354 -0.00062579329 -2.5729636e-22)
(0.00098569276 -0.0023446469 -5.5559566e-22)
(0.0022982515 -0.0053464712 1.6071252e-21)
(0.004697837 -0.01051468 -5.7555479e-21)
(0.0091555621 -0.01919217 6.982211e-21)
(0.017621457 -0.033148071 -4.0207597e-21)
(0.034030272 -0.054075692 -1.667313e-20)
(0.065887016 -0.08197514 2.4931831e-20)
(0.12529358 -0.11290348 -2.5360168e-20)
(0.22579897 -0.13882728 5.1125774e-20)
(0.37280382 -0.15096663 -8.6168332e-20)
(0.55342535 -0.14281647 -3.5740099e-19)
(0.72434669 -0.11296263 -1.4267267e-19)
(2.8134608e-05 -0.00022461597 5.0754852e-23)
(0.00012764333 -0.00083914914 -4.3808836e-22)
(0.00033983635 -0.0019060736 7.0294808e-22)
(0.00085745802 -0.0037217884 -1.1541331e-21)
(0.0021807199 -0.0067371493 3.0118573e-21)
(0.0056629869 -0.011585919 -3.0788852e-21)
(0.014786582 -0.018908583 1.5770053e-20)
(0.037534926 -0.028517356 -1.5331056e-20)
(0.087954764 -0.038851736 -1.3342875e-20)
(0.18306635 -0.046907668 2.15328e-20)
(0.33074178 -0.049659235 4.322214e-20)
(0.51836365 -0.044682307 2.3183033e-19)
(0.69950426 -0.032567711 -2.9682659e-20)
(0.47460449 0.018392876 1.3725171e-21)
(0.53527793 0.017992077 2.7368574e-21)
(0.6044104 0.016195782 8.1903579e-21)
(0.6490247 0.014847592 -5.4339394e-21)
(0.69723291 0.013969324 -8.3540343e-21)
(0.49953269 0.040198568 -8.8660084e-20)
(0.556744 0.038345261 -1.227795e-19)
(0.62404078 0.032235964 1.6451799e-20)
(0.66716934 0.027564822 2.5168572e-20)
(0.71368266 0.024577361 3.440839e-20)
(0.55252055 0.057190977 1.1881466e-19)
(0.60264041 0.054923946 4.9074302e-20)
(0.6655809 0.04534012 -3.5986276e-21)
(0.70483002 0.038148387 -9.3326617e-20)
(0.74715064 0.033476905 -6.6696481e-20)
(0.63262896 0.062934895 1.097175e-20)
(0.67238247 0.061977619 -3.1292034e-20)
(0.72771284 0.051405859 3.1193102e-21)
(0.76068208 0.043490336 3.1373436e-20)
(0.79656609 0.038297301 6.4219924e-20)
(0.73132999 0.051875404 -1.2334125e-20)
(0.75777987 0.055195262 1.2058258e-19)
(0.8028102 0.047154075 6.2326584e-20)
(0.82820002 0.041390565 2.0797109e-19)
(0.85655295 0.037339996 -1.8162568e-19)
(0.83255013 0.022715187 3.5614256e-19)
(0.84461445 0.033889201 2.7041338e-19)
(0.87846125 0.032964114 3.4543902e-20)
(0.89678684 0.032093622 -9.7495452e-20)
(0.91814925 0.030651749 1.6687609e-19)
(0.91556512 -0.020498035 -5.5444998e-19)
(0.91824739 0.0027543975 -3.0364011e-21)
(0.94217115 0.012502509 -1.6505823e-20)
(0.95578994 0.018366706 -1.997761e-19)
(0.97187255 0.020348577 2.4572696e-20)
(0.95917947 -0.073913535 1.4502031e-19)
(0.96507253 -0.034301548 -1.8187906e-19)
(0.98569822 -0.010352542 -4.6114111e-19)
(0.99870451 0.0035795023 1.6032265e-19)
(1.0113548 0.0093924391 -1.4957721e-19)
(0.73175318 0.012352865 0)
(0.76260016 0.01152835 0)
(0.80180503 0.01084145 0)
(0.83445765 0.010284067 0)
(0.87477599 0.009476271 0)
(0.74477307 0.019685582 0)
(0.77189621 0.016968725 0)
(0.80815769 0.014520186 0)
(0.83873974 0.012604743 0)
(0.877402 0.010498835 0)
(0.77103223 0.026318876 0)
(0.79052987 0.022072454 0)
(0.82063582 0.01812402 0)
(0.8468397 0.014960294 0)
(0.882075 0.01156584 0)
(0.8104128 0.030934927 0)
(0.8190787 0.025997797 0)
(0.83992456 0.021216977 0)
(0.85931742 0.017143157 0)
(0.88914143 0.012583947 0)
(0.85983912 0.032365477 0)
(0.85645704 0.027880164 0)
(0.8658998 0.023278541 0)
(0.87641602 0.018911542 0)
(0.89885929 0.013503763 0)
(0.91319003 0.03013737 0)
(0.89941548 0.027143166 0)
(0.89719035 0.023823226 0)
(0.89781504 0.019960847 0)
(0.91133179 0.014208464 0)
(0.96273565 0.024856481 0)
(0.94270824 0.023817234 0)
(0.93092987 0.022587178 0)
(0.92239378 0.020066741 0)
(0.92641433 0.01457892 0)
(1.0015581 0.017965135 0)
(0.98015309 0.018557542 0)
(0.96301851 0.019738638 0)
(0.94819391 0.019164043 0)
(0.94358652 0.014559964 0)
(0.9647675 -0.16604096 5.9678692e-20)
(1.0043515 -0.054524516 -1.3924435e-18)
(1.0142084 -0.00090798829 -1.519205e-18)
(0.93524133 -0.17276659 -3.5068965e-20)
(0.99108232 -0.051151434 3.1895341e-18)
(1.0075502 -0.0012721671 2.6250127e-17)
(0.89616296 -0.15512292 -5.6937074e-19)
(0.97474369 -0.042937313 -2.1832999e-18)
(1.0041411 0.00034473744 -2.9308233e-17)
(0.86005646 -0.12016617 3.131517e-19)
(0.96190447 -0.030914796 -1.5367936e-18)
(1.0004839 0.0025208973 -3.5212455e-17)
(0.83259093 -0.073003652 1.7505999e-19)
(0.95303849 -0.015656783 5.7783974e-18)
(0.9978722 0.0052257354 6.9244446e-17)
(0.81779032 -0.018207214 -2.3907111e-20)
(0.94801609 0.0014152176 -4.345804e-18)
(0.99647171 0.0084446541 -2.9127217e-17)
(0.98579694 -0.10520835 -3.5172696e-19)
(0.99258229 -0.056186104 5.1494726e-20)
(1.0108427 -0.022855411 8.5878997e-19)
(1.0221262 -0.0046094268 -2.0109234e-19)
(1.0300422 0.002867956 1.4404773e-19)
(1.0214888 -0.042620461 4.3597704e-20)
(1.0350414 -0.029587383 -5.5871688e-20)
(1.0450564 -0.017622821 -1.6953606e-19)
(1.0483582 -0.0090455014 9.0913531e-20)
(1.0485437 -0.004896488 5.3011277e-20)
(1.01697 -0.0046795635 -3.029934e-20)
(1.0183486 -0.0044316793 2.0677874e-20)
(1.0193809 -0.0039907213 3.580739e-20)
(1.0198733 -0.0033252587 -2.8717858e-20)
(1.0203561 -0.0022464594 -1.0474579e-20)
(1.0189812 0.012599584 0)
(0.99962268 0.014101008 0)
(0.98254048 0.016967467 0)
(0.96648742 0.0178675 0)
(0.95719476 0.014234232 0)
(1.0452504 0.00024934784 0)
(1.0370398 0.0026531148 0)
(1.0258699 0.0075586035 0)
(1.011688 0.012220243 0)
(0.99401019 0.012534408 0)
(1.0208565 -0.0012083451 0)
(1.0218653 -0.00068571587 0)
(1.0228522 -0.00035197025 0)
(1.0231642 -0.00054298326 0)
(1.0227929 -0.00087996353 0)
)
;

boundaryField
{
    inlet
    {
        type            fixedValue;
        value           uniform (0.99995 0.00999 0);
    }
    outlet
    {
        type            zeroGradient;
    }
    cylinder
    {
        type            noSlip;
    }
    frontAndBack
    {
        type            empty;
    }
}


// ************************************************************************* //
