/*--------------------------------*- C++ -*----------------------------------*\
  =========                 |
  \\      /  F ield         | OpenFOAM: The Open Source CFD Toolbox
   \\    /   O peration     | Website:  https://openfoam.org
    \\  /    A nd           | Version:  13
     \\/     M anipulation  |
\*---------------------------------------------------------------------------*/
FoamFile
{
    format      ascii;
    class       volVectorField;
    location    "29.998832";
    object      U;
}
// * * * * * * * * * * * * * * * * * * * * * * * * * * * * * * * * * * * * * //

dimensions      [0 1 -1 0 0 0 0];

internalField   nonuniform List<vector> 
17140
(
(1.49571e-06 -0.00011728282 2.499529e-23)
(3.1197316e-06 -0.00036396102 2.7687323e-24)
(2.67958e-06 -0.0006372627 -1.8270784e-22)
(-5.8077811e-07 -0.00093977178 2.0078787e-22)
(-7.5616668e-06 -0.0012742376 -2.3462915e-23)
(-1.9427915e-05 -0.0016435706 7.6755915e-23)
(-3.7648389e-05 -0.0020509237 1.291467e-22)
(-6.4041418e-05 -0.0024996033 -6.2982688e-23)
(-0.00010086078 -0.0029930187 -2.0598791e-22)
(-0.00015088212 -0.0035346543 -5.0466092e-22)
(-0.00021750848 -0.004128013 7.4717208e-22)
(-0.00030489045 -0.0047765391 -6.6466003e-22)
(-0.00041806514 -0.0054835186 -1.0155756e-22)
(-0.00056311197 -0.0062519558 5.7241481e-22)
(-0.00074732539 -0.0070844171 -6.3364113e-23)
(-0.00097940128 -0.0079828411 4.9972137e-22)
(-0.0012696322 -0.0089483062 -1.8468307e-23)
(-0.0016301026 -0.009980752 4.1580243e-24)
(-0.0020748715 -0.011078648 2.9008198e-22)
(-0.0026201218 -0.012238607 -3.7250313e-22)
(-0.0032842514 -0.013454942 1.774806e-22)
(-0.0040878677 -0.01471917 -3.3327852e-23)
(-0.0050536385 -0.016019484 -2.4233294e-22)
(-0.0062059386 -0.017340212 2.3735466e-22)
(-0.0075702179 -0.018661343 3.7054551e-22)
(-0.0091720052 -0.019958209 -2.913596e-22)
(-0.011035459 -0.021201542 -1.3995038e-21)
(-0.013181394 -0.022358226 -1.6126881e-22)
(-0.015624784 -0.023393315 1.37901e-21)
(-0.018371908 -0.024274031 3.1418104e-22)
(-0.021417645 -0.024976372 1.0877405e-21)
(-0.024743907 -0.0254936 -1.382232e-21)
(-0.028320595 -0.025842936 3.4621774e-22)
(-0.032109961 -0.02606449 1.5744132e-22)
(-0.0360733 -0.026210202 1.4754819e-21)
(-0.04017649 -0.026329534 -6.1266134e-22)
(-0.044391704 -0.026461207 8.7827434e-22)
(-0.048696072 -0.026633194 5.6770202e-22)
(-0.053069757 -0.026866975 2.5032122e-22)
(-0.057495054 -0.027182046 -7.3513467e-22)
(-0.061956879 -0.027599069 -1.3591241e-21)
(-0.066444291 -0.028141468 -1.2180252e-21)
(-0.070953288 -0.028835579 -5.2913322e-22)
(-0.07548955 -0.029709296 2.5807556e-21)
(-0.080072619 -0.030789485 1.8999232e-21)
(-0.084742832 -0.032095693 -4.718627e-22)
(-0.089556234 -0.033628954 3.2429695e-21)
(-0.094587224 -0.03536384 1.1149104e-21)
(-0.099928511 -0.037233782 -1.149699e-21)
(-0.10569133 -0.039103023 -2.8449074e-21)
(-0.11198529 -0.040726279 1.7701906e-21)
(-0.11893743 -0.041685901 1.1265766e-21)
(-0.1266237 -0.041291333 -2.9593515e-21)
(-0.13513396 -0.038424843 -1.4039748e-21)
(-0.14430609 -0.03138301 -1.0055153e-21)
(-0.1538807 -0.017674532 7.8679391e-22)
(-0.16255193 0.0058232646 -2.088139e-21)
(-0.1685814 0.042505728 -1.7042082e-21)
(-0.1678294 0.092810315 -4.038784e-22)
(-0.15611042 0.15159392 9.967624e-22)
(-0.12684501 0.20323253 7.0115386e-22)
(-0.090100133 0.22425221 2.4158363e-21)
(-0.041467744 0.18985128 3.2973538e-22)
(0.0067789332 0.072382274 -2.8736645e-21)
(0.11933171 -0.10156566 1.6053699e-21)
(3.3729664e-06 -8.4415131e-05 -7.1163135e-24)
(8.8893231e-06 -0.00026217551 9.5833269e-22)
(1.277853e-05 -0.00045934592 -8.5259671e-22)
(1.4384596e-05 -0.00067776635 2.3233807e-22)
(1.2575458e-05 -0.00091951818 4.7979225e-22)
(6.4024541e-06 -0.0011869761 -9.1635599e-22)
(-5.3873741e-06 -0.0014826168 9.5457572e-22)
(-2.4848904e-05 -0.0018088587 -8.3946329e-23)
(-5.4136527e-05 -0.0021682959 2.6183292e-22)
(-9.5956283e-05 -0.0025636408 4.4402491e-24)
(-0.00015370713 -0.0029976543 8.7178548e-22)
(-0.00023153276 -0.0034730925 -1.3823859e-21)
(-0.00033447198 -0.0039926407 -1.1391706e-22)
(-0.00046862347 -0.0045588318 1.1207532e-21)
(-0.00064132297 -0.0051739413 -3.4273337e-22)
(-0.00086133405 -0.0058398592 -2.1651859e-22)
(-0.0011390487 -0.0065579313 1.3654752e-21)
(-0.0014866885 -0.0073287672 -4.4128785e-21)
(-0.0019184926 -0.0081520091 2.7364415e-21)
(-0.0024508729 -0.0090260588 -3.2415847e-21)
(-0.0031025104 -0.0099477604 4.7252676e-21)
(-0.0038943526 -0.010912042 -1.140851e-21)
(-0.0048494675 -0.011911525 -4.6223171e-22)
(-0.0059926883 -0.012936135 1.4843251e-21)
(-0.0073499773 -0.013972744 -5.2347191e-21)
(-0.0089474191 -0.015004958 -7.6598299e-22)
(-0.010809754 -0.01601318 3.8835023e-21)
(-0.012958379 -0.016975217 -4.2621748e-21)
(-0.015408802 -0.017867788 5.7151349e-22)
(-0.018167737 -0.018669418 5.4723425e-21)
(-0.021230321 -0.019364972 -5.5116567e-22)
(-0.024578497 -0.019951155 -4.0961974e-21)
(-0.028181965 -0.020440398 -1.0123966e-22)
(-0.03200266 -0.020859471 2.8128357e-21)
(-0.036001553 -0.021241983 -2.9872585e-21)
(-0.040144301 -0.021619537 1.2796089e-21)
(-0.044403065 -0.022017166 -1.4292348e-21)
(-0.048755146 -0.022453867 -4.356987e-21)
(-0.053181018 -0.022945522 -9.4250611e-22)
(-0.057663408 -0.023507723 -3.5795687e-21)
(-0.062187738 -0.02415767 4.4965118e-21)
(-0.066743632 -0.024915071 4.0974984e-21)
(-0.071327615 -0.025801923 7.0024179e-22)
(-0.075945715 -0.026841022 -5.6053844e-21)
(-0.080617365 -0.028053161 2.6716325e-21)
(-0.085382019 -0.029452303 9.3642362e-22)
(-0.09029318 -0.031036742 -5.1225181e-22)
(-0.095419512 -0.03277899 -1.6058488e-21)
(-0.10084313 -0.034611616 7.9663895e-22)
(-0.1066571 -0.036401786 -1.4466393e-21)
(-0.11294115 -0.037911056 -8.8419365e-21)
(-0.11977616 -0.038733234 -4.3429309e-22)
(-0.12716733 -0.038198938 1.9481532e-21)
(-0.13510802 -0.03523146 -4.2682117e-21)
(-0.14330406 -0.02820988 3.6665154e-21)
(-0.15135051 -0.014800774 -1.0285196e-20)
(-0.1578261 0.007895827 -2.7842073e-21)
(-0.16116577 0.042860847 7.8120002e-21)
(-0.15745716 0.090402308 -1.259096e-21)
(-0.14392397 0.14505719 -1.3964104e-21)
(-0.11387466 0.19301182 -2.4684466e-22)
(-0.076249716 0.21167722 3.3487681e-21)
(-0.023824118 0.1753981 -6.3102916e-21)
(0.03819172 0.048622045 -2.538755e-21)
(0.17915253 -0.13501556 -2.2597186e-21)
(3.4119608e-06 -5.078001e-05 -3.9188932e-22)
(9.0502585e-06 -0.00015801316 2.8959432e-22)
(1.3081011e-05 -0.00027734615 7.7004211e-23)
(1.4891033e-05 -0.00041010126 -7.298407e-23)
(1.336793e-05 -0.00055767952 3.535726e-22)
(7.5423754e-06 -0.00072138171 2.6303503e-23)
(-3.8112904e-06 -0.00090275941 3.3559743e-22)
(-2.2798706e-05 -0.0011036698 3.6133687e-22)
(-5.145167e-05 -0.0013259243 -2.9498153e-21)
(-9.2517838e-05 -0.0015714415 2.63059e-21)
(-0.00014936862 -0.0018422135 -1.2569509e-21)
(-0.00022612589 -0.0021402825 -1.8384104e-21)
(-0.00032780736 -0.0024677108 3.6367829e-21)
(-0.00046049156 -0.0028265408 4.4903338e-22)
(-0.00063149331 -0.003218744 -1.726429e-21)
(-0.00084955598 -0.0036461563 -1.181419e-21)
(-0.0011250525 -0.0041103953 1.3621403e-21)
(-0.0014701871 -0.0046127579 -4.896455e-21)
(-0.0018991847 -0.0051540921 2.8691579e-21)
(-0.0024284468 -0.0057346405 -1.4052248e-21)
(-0.0030766495 -0.0063538516 4.682784e-21)
(-0.0038647427 -0.0070101599 1.2025085e-21)
(-0.0048158063 -0.0077007414 -2.4711743e-21)
(-0.0059546982 -0.0084212608 3.6608913e-21)
(-0.0073074213 -0.0091656495 1.4179772e-21)
(-0.008900121 -0.0099259771 -1.6710103e-21)
(-0.010757623 -0.010692527 -9.3231031e-21)
(-0.012901435 -0.011454234 -4.1414194e-21)
(-0.015347216 -0.01219969 2.0221315e-21)
(-0.018101867 -0.012918891 -2.1233977e-21)
(-0.02116078 -0.013605687 1.2887902e-21)
(-0.024506233 -0.014260253 7.1104553e-21)
(-0.028108345 -0.014890157 -2.2970395e-21)
(-0.031929491 -0.015508633 -6.5905567e-21)
(-0.035931048 -0.016130685 2.0918573e-21)
(-0.040078999 -0.016769738 2.8013401e-21)
(-0.044345726 -0.017436836 -4.6375555e-21)
(-0.04870865 -0.018141768 -1.3611431e-21)
(-0.053148316 -0.018894597 2.3394166e-21)
(-0.057647492 -0.019706866 9.1656348e-22)
(-0.062191547 -0.020592263 -4.3403859e-21)
(-0.066769874 -0.021566751 1.2180851e-21)
(-0.071378538 -0.022648031 1.7714114e-21)
(-0.076022581 -0.023853966 4.7699023e-21)
(-0.080719747 -0.025199612 -9.1859305e-21)
(-0.085506029 -0.026693908 6.0380402e-21)
(-0.090428853 -0.028333648 1.5443338e-21)
(-0.095546934 -0.030091032 6.2341665e-21)
(-0.10092567 -0.031900394 7.5960456e-21)
(-0.10663151 -0.033635596 3.9514375e-22)
(-0.11270304 -0.035070301 -1.6325883e-21)
(-0.11916072 -0.035816853 1.2413049e-20)
(-0.12592071 -0.035235805 5.3243621e-21)
(-0.13286001 -0.032300522 5.5084902e-21)
(-0.13953125 -0.025479718 1.7544412e-21)
(-0.14537297 -0.012595193 1.3713742e-20)
(-0.14880427 0.0090532443 -5.0313267e-21)
(-0.14836952 0.042214601 1.2703115e-21)
(-0.14042675 0.086973482 1.1719966e-20)
(-0.12274827 0.13795351 4.4742506e-21)
(-0.088413902 0.18268754 -4.9988795e-21)
(-0.046455285 0.19892173 -1.7704968e-20)
(0.015329396 0.15945487 5.5352077e-21)
(0.10302579 0.020897654 1.0363424e-20)
(0.27901658 -0.17029793 3.5415937e-21)
(1.562292e-06 -1.7002859e-05 1.3125298e-21)
(3.3953007e-06 -5.3407041e-05 -2.0882273e-21)
(3.2699672e-06 -9.450651e-05 7.5489149e-22)
(4.5266299e-07 -0.00014085695 -8.2037621e-23)
(-5.9282954e-06 -0.0001931053 1.6214471e-21)
(-1.7003277e-05 -0.00025202108 -1.6768717e-21)
(-3.4203497e-05 -0.00031838656 2.5425135e-21)
(-5.9308546e-05 -0.00039309967 -1.1952868e-21)
(-9.4525902e-05 -0.00047715871 -4.5413885e-21)
(-0.00014258021 -0.00057165857 1.0907332e-21)
(-0.00020681972 -0.00067779484 4.1496269e-21)
(-0.00029133699 -0.00079686798 -1.264682e-21)
(-0.00040110847 -0.00093028767 -8.4234109e-23)
(-0.00054215117 -0.0010795765 3.2955093e-21)
(-0.0007216964 -0.0012463722 -1.0277398e-20)
(-0.00094837742 -0.0014324278 6.2851268e-21)
(-0.0012324263 -0.0016396067 5.9722919e-23)
(-0.001585871 -0.0018698701 -3.4407862e-21)
(-0.0020227205 -0.0021252539 8.6790241e-21)
(-0.0025591175 -0.0024078297 -4.0635215e-21)
(-0.0032134334 -0.0027196463 -6.0072599e-21)
(-0.0040062682 -0.0030626503 -2.409157e-21)
(-0.0049603088 -0.003438586 1.1783413e-20)
(-0.0060999844 -0.0038488862 6.0883147e-21)
(-0.0074508451 -0.0042945777 -3.8843655e-21)
(-0.0090385783 -0.0047762444 2.2400519e-21)
(-0.010887573 -0.0052941117 -8.2805044e-21)
(-0.013018962 -0.0058483263 2.3478204e-21)
(-0.015448141 -0.0064394635 -6.2368723e-21)
(-0.018181942 -0.0070691665 3.4653129e-21)
(-0.021215977 -0.0077405372 -2.1041073e-21)
(-0.024533129 -0.0084576243 7.5265265e-21)
(-0.028104529 -0.0092235907 -1.0460362e-21)
(-0.031893822 -0.010038456 5.3316115e-21)
(-0.035863601 -0.010898596 -4.891198e-21)
(-0.039980743 -0.011798959 -1.5062041e-21)
(-0.044218096 -0.012736187 1.789676e-20)
(-0.048553205 -0.01371047 4.5033814e-21)
(-0.052966453 -0.01472579 -3.614857e-21)
(-0.057440176 -0.015789478 3.4748948e-21)
(-0.06195907 -0.016911627 -8.8235435e-22)
(-0.066511564 -0.018104438 -5.5044822e-21)
(-0.071092284 -0.019381378 2.5675061e-22)
(-0.07570394 -0.020755561 1.8689438e-21)
(-0.08036104 -0.022236775 -9.2150502e-22)
(-0.085093588 -0.023829878 4.6394025e-22)
(-0.08993944 -0.025531123 1.3727788e-21)
(-0.094943195 -0.027314499 -2.1633505e-20)
(-0.10014757 -0.029119138 2.451402e-21)
(-0.10558428 -0.030829728 -2.3028205e-21)
(-0.1112396 -0.032237661 2.1851402e-20)
(-0.11705981 -0.032981167 -1.2076607e-20)
(-0.12285412 -0.032459187 -9.8863647e-21)
(-0.12836427 -0.029702732 -9.3620039e-21)
(-0.1329715 -0.023274085 -8.8696997e-21)
(-0.13595066 -0.011146175 -1.3646979e-20)
(-0.13557064 0.0092141169 2.6333248e-20)
(-0.13050688 0.040446572 -1.5387143e-20)
(-0.11729035 0.08247781 -2.2176977e-20)
(-0.09247725 0.12977286 1.5061779e-20)
(-0.049341108 0.17164689 4.7517383e-21)
(0.0014215496 0.18541075 4.1355467e-21)
(0.081394976 0.14029798 -2.4681225e-20)
(0.20992651 -0.011038297 -2.0239857e-20)
(0.41575968 -0.2050932 5.4965347e-22)
(-2.1802899e-06 1.6408121e-05 -9.2458836e-22)
(-8.1327677e-06 5.0076547e-05 3.0694928e-21)
(-1.6770911e-05 8.6375933e-05 -2.5019959e-21)
(-2.8876194e-05 0.00012542658 9.4533531e-22)
(-4.5368834e-05 0.00016731936 3.4145945e-22)
(-6.7425325e-05 0.00021209656 -2.9372986e-21)
(-9.651917e-05 0.00025974599 7.4356341e-22)
(-0.00013446195 0.00031019188 1.5783327e-21)
(-0.00018348384 0.00036327886 1.2101164e-22)
(-0.00024631812 0.00041875288 1.0275387e-21)
(-0.00032630344 0.00047623605 -1.4376329e-21)
(-0.0004274993 0.00053519582 9.9809609e-22)
(-0.00055481949 0.00059490621 3.6730552e-21)
(-0.00071418166 0.00065440133 1.0695978e-22)
(-0.00091267291 0.00071241981 -2.7960369e-21)
(-0.0011587285 0.00076734089 -1.9752128e-21)
(-0.0014623191 0.00081711247 1.6942247e-21)
(-0.001835138 0.00085917342 -1.6158753e-22)
(-0.0022907762 0.00089037301 -3.2726152e-21)
(-0.0028448672 0.00090689199 -3.9643042e-21)
(-0.0035151753 0.00090417042 4.4918588e-21)
(-0.0043215933 0.00087684721 4.4834417e-21)
(-0.0052860031 0.0008187137 -5.9771122e-21)
(-0.0064319423 0.00072267849 7.3219165e-21)
(-0.0077840028 0.00058073096 1.2550346e-20)
(-0.0093668803 0.00038388221 -2.9220089e-20)
(-0.011203988 0.00012206015 1.588038e-20)
(-0.013315569 -0.00021603144 -2.3209016e-20)
(-0.015716315 -0.00064296857 2.8552762e-20)
(-0.018412684 -0.001172209 -3.1316116e-20)
(-0.021400424 -0.0018165356 3.1701404e-20)
(-0.024663258 -0.0025846163 -5.1915886e-21)
(-0.028173911 -0.0034761784 -1.7392608e-20)
(-0.031898126 -0.0044788928 9.4380007e-21)
(-0.035800545 -0.0055708896 -2.8225677e-21)
(-0.039849547 -0.0067284331 -7.8490615e-22)
(-0.044018741 -0.007933241 -9.3163104e-21)
(-0.048285758 -0.0091753717 -2.9302399e-21)
(-0.052630536 -0.010452357 -2.8595215e-21)
(-0.057034566 -0.011767086 -2.7590367e-21)
(-0.06148131 -0.01312591 1.385045e-20)
(-0.065957477 -0.014537242 -6.042177e-21)
(-0.070455231 -0.01601045 -9.6451018e-22)
(-0.074973631 -0.017554155 1.1188556e-20)
(-0.079522191 -0.019173331 5.7374039e-21)
(-0.084122795 -0.020869919 -2.8636896e-21)
(-0.088800191 -0.022640771 -1.0541122e-20)
(-0.093580372 -0.024463743 4.6631045e-21)
(-0.098477653 -0.026286195 -1.3757984e-20)
(-0.10348066 -0.028008197 -7.5443642e-21)
(-0.10851195 -0.029444825 -1.0501225e-20)
(-0.11342908 -0.030267708 -2.8147568e-20)
(-0.11791443 -0.029922261 2.1706964e-20)
(-0.12155265 -0.027502559 -6.9493229e-21)
(-0.12353023 -0.02166211 1.1805361e-20)
(-0.12296174 -0.010513636 1.103135e-20)
(-0.11796831 0.0084251253 3.6597557e-21)
(-0.10756585 0.037484594 3.4648493e-20)
(-0.086331318 0.076462256 9.1083965e-21)
(-0.050307072 0.11993843 -1.9875496e-20)
(0.0045742376 0.15942028 -7.0673354e-21)
(0.069590329 0.16993719 5.8339444e-21)
(0.17856576 0.11625686 1.2872557e-20)
(0.35352658 -0.045924435 2.4035443e-20)
(0.57070768 -0.23545341 -9.3441603e-22)
(-7.7445395e-06 4.8878269e-05 -2.8191853e-21)
(-2.5380332e-05 0.00015063767 -9.950398e-22)
(-4.6728648e-05 0.00026218335 8.0540943e-22)
(-7.2763492e-05 0.0003842949 2.973793e-21)
(-0.00010444228 0.00051779535 -1.6290483e-21)
(-0.00014302097 0.00066349245 2.344048e-21)
(-0.00019004155 0.00082217614 -1.0139123e-21)
(-0.00024737485 0.00099460155 -2.4142461e-22)
(-0.00031729461 0.0011814624 1.3657012e-21)
(-0.00040255874 0.0013833567 2.9417499e-21)
(-0.00050650391 0.001600742 1.4786399e-22)
(-0.00063315372 0.0018338786 -4.8287775e-21)
(-0.00078734247 0.0020827583 6.6743194e-21)
(-0.00097485407 0.0023470161 -1.0764062e-20)
(-0.0012025752 0.0026258242 2.8089213e-21)
(-0.0014786604 0.0029177655 -5.9589634e-21)
(-0.0018127044 0.0032206875 7.1885494e-21)
(-0.002215914 0.003531537 -4.6575966e-21)
(-0.0027012681 0.003846177 7.3289972e-22)
(-0.0032836487 0.0041591928 2.9642674e-21)
(-0.0039799187 0.0044636906 -7.1770625e-21)
(-0.0048089141 0.0047510973 1.0079222e-20)
(-0.0057913075 0.0050109677 -1.0901516e-20)
(-0.006949287 0.0052308025 -1.8644685e-21)
(-0.008305983 0.0053958761 1.8152598e-20)
(-0.0098845631 0.0054890716 -1.8217453e-20)
(-0.011706915 0.0054907375 1.1746569e-20)
(-0.013791858 0.0053786489 -1.3070417e-20)
(-0.016152909 0.0051283378 -1.2408158e-21)
(-0.018795796 0.0047144096 -7.6637994e-22)
(-0.021716252 0.0041138793 4.9773357e-21)
(-0.024898982 0.0033123906 -3.3438484e-22)
(-0.028318791 0.0023121108 1.7890885e-20)
(-0.031944283 0.0011361931 -4.6686985e-21)
(-0.035742984 -0.00017609961 -1.347412e-20)
(-0.039685419 -0.0015822949 6.0228102e-21)
(-0.043746281 -0.0030485789 -4.7470866e-21)
(-0.0479033 -0.0045541867 4.6103188e-21)
(-0.05213577 -0.0060896429 2.4891953e-20)
(-0.056423941 -0.0076530359 -1.3461689e-20)
(-0.06074944 -0.0092468295 -3.2584182e-21)
(-0.065096466 -0.010875656 1.8362269e-20)
(-0.06945363 -0.012544932 -1.0441965e-21)
(-0.073815065 -0.014259094 -2.2486329e-21)
(-0.078183605 -0.01601878 -2.4782378e-20)
(-0.082570505 -0.017824064 -5.8026907e-21)
(-0.086984083 -0.019674192 9.2473999e-21)
(-0.091427146 -0.021552674 9.5568587e-21)
(-0.095879391 -0.023418856 1.3725058e-20)
(-0.10027747 -0.025193415 1.7047885e-20)
(-0.10446764 -0.026721247 1.040673e-20)
(-0.10820191 -0.027715526 1.6325563e-20)
(-0.11101065 -0.027676012 -5.5013666e-21)
(-0.11229361 -0.025764733 3.3583617e-20)
(-0.11098989 -0.020714031 2.0436605e-21)
(-0.10601381 -0.010752931 1.6590173e-21)
(-0.095372457 0.0065608204 5.675199e-22)
(-0.07726015 0.033091581 -3.7514113e-20)
(-0.043120398 0.068581897 -1.3449769e-20)
(0.0070514018 0.10850232 1.9814144e-20)
(0.073645691 0.14541673 2.8396085e-20)
(0.15890012 0.15108061 1.4549344e-20)
(0.30417923 0.086575348 5.2381748e-21)
(0.51645934 -0.080179484 -3.5457782e-20)
(0.72673514 -0.25762846 7.1621915e-21)
(-1.5064245e-05 7.9799659e-05 5.3305363e-22)
(-4.7931827e-05 0.00024642394 1.6940729e-21)
(-8.598179e-05 0.00042965975 -4.0885601e-21)
(-0.00013027461 0.00063095318 1.5191504e-22)
(-0.00018188625 0.00085183641 1.9902805e-21)
(-0.00024217643 0.0010938695 8.7716719e-22)
(-0.00031278329 0.0013586333 6.4761149e-22)
(-0.00039566229 0.0016477066 -1.2759164e-21)
(-0.0004931543 0.0019626293 6.6039051e-21)
(-0.00060805954 0.0023048551 -4.9816517e-21)
(-0.00074372366 0.0026756887 2.4101666e-22)
(-0.00090413539 0.0030762056 3.0129802e-21)
(-0.0010940381 0.0035071497 -1.1265442e-20)
(-0.0013190543 0.0039688076 1.1220646e-20)
(-0.0015858226 0.0044608543 -1.4930312e-21)
(-0.0019021439 0.0049821681 -9.2313413e-21)
(-0.0022771349 0.0055306146 8.6690895e-21)
(-0.0027213783 0.006102797 -3.0242888e-21)
(-0.0032470625 0.0066937761 5.8642983e-21)
(-0.003868094 0.0072967637 -7.5058678e-21)
(-0.0046001591 0.0079027959 -1.4047786e-20)
(-0.0054607084 0.0085003952 1.3847503e-20)
(-0.00646882 0.0090752313 2.0187975e-20)
(-0.0076448938 0.0096097898 -3.8701598e-20)
(-0.0090101107 0.010083058 3.0809792e-20)
(-0.010585583 0.010470241 -1.7735703e-20)
(-0.012391124 0.010742555 4.5267021e-21)
(-0.014443586 0.010867245 -1.0595934e-20)
(-0.016754801 0.010808209 1.0708418e-20)
(-0.019329354 0.010528079 1.4253028e-20)
(-0.02216271 0.0099930918 -9.3070084e-21)
(-0.025240541 0.0091818628 -1.512758e-20)
(-0.028540044 0.0080963887 1.2843926e-21)
(-0.032033314 0.0067684472 5.1401283e-22)
(-0.035691557 0.0052532622 8.8183192e-21)
(-0.039488156 0.0036118266 -3.6743666e-21)
(-0.043399319 0.0018941503 -1.292571e-20)
(-0.047402995 0.00013271876 -6.2935356e-21)
(-0.051477655 -0.0016552702 9.3262718e-21)
(-0.055601887 -0.0034626834 -7.1834386e-21)
(-0.059754856 -0.0052879005 6.0520577e-21)
(-0.06391741 -0.0071317584 -1.9706504e-21)
(-0.068073476 -0.0089958547 -7.6566904e-21)
(-0.072210973 -0.010880717 1.8531651e-20)
(-0.076324383 -0.012783316 1.1113661e-20)
(-0.080411237 -0.014703012 7.3596819e-21)
(-0.084460225 -0.016643013 -2.3495238e-20)
(-0.088446184 -0.018594729 -1.5429158e-20)
(-0.092306988 -0.020533542 -1.825289e-20)
(-0.095917095 -0.0224061 -3.2032912e-20)
(-0.099031352 -0.024094035 1.1011498e-20)
(-0.10127505 -0.025360871 -2.3750656e-21)
(-0.101992 -0.025767467 -1.8205526e-20)
(-0.10036281 -0.02455589 -5.2314886e-20)
(-0.09497189 -0.020518703 -3.3309901e-20)
(-0.084462226 -0.011918628 -1.2454301e-20)
(-0.066522173 0.0033330054 -3.4414788e-20)
(-0.03605391 0.026581534 2.2374142e-20)
(0.013362367 0.058416794 -1.6092527e-21)
(0.076822259 0.095674915 -3.1646778e-20)
(0.15644042 0.12973303 -2.1761338e-20)
(0.26723339 0.12827497 -1.0951236e-21)
(0.4489189 0.053857768 4.7425917e-20)
(0.68675787 -0.11077777 -5.5508453e-21)
(0.87407216 -0.2674824 5.240624e-21)
(-2.392459e-05 0.00010858201 2.1077402e-21)
(-7.5239257e-05 0.00033561544 -1.4217942e-21)
(-0.00013352692 0.000585651 1.9204726e-21)
(-0.00019995771 0.00086077364 1.091476e-21)
(-0.00027575605 0.0011631966 -3.045396e-21)
(-0.00036241367 0.0014952068 -2.8426565e-21)
(-0.00046169256 0.0018591532 2.9163788e-21)
(-0.00057565912 0.0022574188 -3.5097178e-22)
(-0.00070674513 0.0026923763 -8.1290101e-23)
(-0.00085781285 0.0031663291 -5.7726793e-21)
(-0.0010322307 0.0036814328 6.3238444e-22)
(-0.0012339582 0.0042395941 1.1631638e-20)
(-0.0014676429 0.0048423424 -9.2957807e-21)
(-0.0017387266 0.0054906687 3.1981183e-22)
(-0.002053563 0.0061848282 6.2222036e-21)
(-0.0024195412 0.0069241033 5.3486266e-22)
(-0.002845214 0.0077065209 -1.3591843e-21)
(-0.0033404229 0.0085285267 -6.1166516e-21)
(-0.0039164119 0.0093846129 1.1186265e-20)
(-0.0045859145 0.010266905 -1.9627871e-20)
(-0.0053631965 0.011164717 4.220215e-21)
(-0.0062640262 0.012064075 -3.0934475e-21)
(-0.0073055371 0.012947238 2.5288909e-21)
(-0.0085059352 0.013792211 -1.0954624e-22)
(-0.0098839942 0.014572285 1.4874271e-20)
(-0.011458269 0.015255613 1.474728e-20)
(-0.013245964 0.01580492 -2.9020198e-20)
(-0.015261414 0.01617751 -4.8030329e-21)
(-0.017514235 0.016326085 1.6561595e-20)
(-0.020007383 0.016201388 5.8173688e-21)
(-0.022735673 0.015758323 1.304883e-20)
(-0.025685546 0.014966945 -1.4431836e-20)
(-0.028836677 0.013826545 -6.1799467e-21)
(-0.032165081 0.012374635 1.3911372e-20)
(-0.035646355 0.0106803 -5.6394133e-21)
(-0.039257487 0.0088224708 -2.6500503e-21)
(-0.042976742 0.0068679716 7.2690231e-21)
(-0.046782485 0.0048620376 1.8504052e-20)
(-0.050652225 0.0028304727 5.5057402e-21)
(-0.054562472 0.00078619218 -3.5677404e-21)
(-0.058489266 -0.0012648295 -8.3791898e-21)
(-0.06240921 -0.0033195921 -8.651041e-21)
(-0.066300337 -0.0053759655 -9.5969263e-21)
(-0.070142953 -0.0074307925 -2.0246088e-20)
(-0.073921248 -0.0094782258 5.7724524e-22)
(-0.077615706 -0.01151812 -8.7062817e-21)
(-0.081191695 -0.013558937 4.8319247e-20)
(-0.084590585 -0.015602774 1.3529879e-20)
(-0.087699512 -0.017645244 1.5629839e-20)
(-0.090317834 -0.019664978 4.3531274e-20)
(-0.092089588 -0.021587813 -5.0912884e-20)
(-0.092483579 -0.023238448 1.1267556e-20)
(-0.090607113 -0.024244562 3.5798958e-20)
(-0.085324314 -0.02394077 4.3005566e-20)
(-0.074880343 -0.021172086 5.3571752e-21)
(-0.057456582 -0.014328395 -1.2351612e-20)
(-0.029292941 -0.0018833666 -1.8500921e-20)
(0.016109239 0.017641866 7.3018347e-21)
(0.078768878 0.046449078 -1.1420452e-20)
(0.15385612 0.081291723 9.8212821e-21)
(0.25188503 0.11127403 3.4596226e-21)
(0.39254735 0.10182249 1.2227706e-20)
(0.60774524 0.019899504 -5.876262e-20)
(0.85735888 -0.13450115 -9.3194671e-22)
(1.0009595 -0.26469859 -1.7141641e-20)
(-3.4074861e-05 0.00013467671 -1.9831983e-21)
(-0.00010653128 0.00041650883 -5.3127627e-22)
(-0.00018802247 0.00072718027 5.8363022e-22)
(-0.00027985056 0.0010693777 2.8681931e-21)
(-0.00038341523 0.0014459558 -3.4390017e-21)
(-0.00050036647 0.0018598904 2.9193281e-21)
(-0.00063261629 0.0023142635 1.3947534e-21)
(-0.00078236756 0.0028122312 -7.465839e-23)
(-0.00095216697 0.0033569734 -1.1759956e-21)
(-0.00114496 0.0039516258 -6.6831414e-21)
(-0.0013641547 0.0045991889 1.1210085e-20)
(-0.0016136923 0.0053024097 -1.345254e-20)
(-0.0018981266 0.0060636306 3.9442508e-21)
(-0.0022227106 0.0068845988 5.343848e-21)
(-0.0025934899 0.0077662326 -8.1782514e-21)
(-0.003017401 0.0087083364 1.608031e-20)
(-0.0035023699 0.0097092622 -1.9433459e-20)
(-0.0040574069 0.010765513 -3.0592096e-22)
(-0.0046926893 0.011871287 -1.1065121e-20)
(-0.0054196186 0.01301797 4.3749463e-20)
(-0.0062508376 0.01419357 -1.0550517e-20)
(-0.0072001825 0.015382122 -4.3489762e-20)
(-0.0082825399 0.016563056 2.0468067e-20)
(-0.0095135655 0.017710567 2.4321791e-20)
(-0.010909215 0.018792993 -6.08566e-21)
(-0.012485022 0.019772245 -3.1736032e-20)
(-0.014255073 0.020603382 4.7840521e-20)
(-0.016230646 0.021234567 -5.2778006e-20)
(-0.018418577 0.021607947 4.1272665e-20)
(-0.020819639 0.021662652 -7.8312328e-21)
(-0.023427479 0.021341798 1.331087e-20)
(-0.026228888 0.020605289 1.8680437e-20)
(-0.029205816 0.019446828 -7.1475641e-21)
(-0.032338363 0.017906088 -1.7675534e-21)
(-0.035607064 0.016063139 -2.5119227e-20)
(-0.038993259 0.014013713 4.6513396e-21)
(-0.042477893 0.011841916 -1.1671117e-20)
(-0.046040049 0.009606872 9.6587997e-21)
(-0.049656202 0.0073440534 -5.4486053e-21)
(-0.053300374 0.005072866 -3.5538482e-21)
(-0.056944766 0.0028039983 -3.0443619e-21)
(-0.060560739 0.00054438322 -2.9569554e-21)
(-0.06411908 -0.001700162 1.8150344e-20)
(-0.067590847 -0.003922973 1.4488413e-20)
(-0.070947489 -0.0061163127 -4.0947614e-21)
(-0.074148738 -0.0082817532 2.6869334e-21)
(-0.077131998 -0.010434201 -1.1096554e-20)
(-0.079797969 -0.01258945 2.2517511e-20)
(-0.081971578 -0.014767929 2.6487313e-20)
(-0.083359233 -0.016986683 7.7007847e-21)
(-0.083466734 -0.019223915 2.0194364e-20)
(-0.081563535 -0.021379934 -6.3956931e-22)
(-0.076463971 -0.023166737 -9.6203114e-21)
(-0.066654316 -0.023989375 -4.4738306e-20)
(-0.049915483 -0.022774685 2.1766159e-20)
(-0.02387363 -0.018220818 -7.7884381e-21)
(0.016910973 -0.0091091566 2.2541774e-20)
(0.075280833 0.0068389446 -3.3747589e-20)
(0.14972065 0.032910372 1.8402801e-20)
(0.24016022 0.06491602 -5.6379902e-21)
(0.36269082 0.090075876 -1.5600483e-22)
(0.53610221 0.072753839 -5.863313e-21)
(0.78151206 -0.012036371 -2.2793453e-20)
(1.0164669 -0.14831615 4.5675565e-20)
(1.0922938 -0.25008741 -3.1524888e-20)
(-4.5205549e-05 0.00015758948 4.4400062e-21)
(-0.0001408557 0.00048757601 3.0548847e-21)
(-0.00024781298 0.00085157889 -4.7953512e-21)
(-0.00036753126 0.0012528386 1.2624997e-22)
(-0.00050160837 0.0016947997 4.3351492e-21)
(-0.00065187575 0.0021810775 2.2666898e-21)
(-0.00082041916 0.0027154392 -4.7765958e-21)
(-0.0010096019 0.0033017697 7.8437556e-22)
(-0.001222109 0.0039440179 -1.105647e-20)
(-0.0014609913 0.0046461216 2.1545805e-21)
(-0.0017297163 0.0054119084 5.5232185e-23)
(-0.0020322229 0.0062449636 -7.923144e-21)
(-0.0023729818 0.0071484617 2.5385184e-20)
(-0.0027570602 0.0081249528 -1.1826206e-20)
(-0.0031901888 0.009176098 -2.1185419e-20)
(-0.0036788312 0.010302347 2.2570856e-20)
(-0.0042302501 0.011502549 -2.7789426e-21)
(-0.0048525675 0.0127735 1.5775241e-20)
(-0.005554811 0.01410941 1.1714032e-20)
(-0.006346937 0.01550131 -3.6826919e-20)
(-0.0072398155 0.016936382 2.7634258e-20)
(-0.0082451594 0.018397245 -3.6352003e-20)
(-0.009375369 0.019861186 4.2653445e-21)
(-0.010643258 0.021299375 -1.7420291e-20)
(-0.012061615 0.022676085 3.7804356e-20)
(-0.013642547 0.023947953 -8.9426523e-21)
(-0.015396556 0.025063399 -2.2526444e-20)
(-0.01733134 0.025962452 5.4250528e-20)
(-0.019450383 0.026577584 -2.3450509e-20)
(-0.021751653 0.026836819 -2.511136e-20)
(-0.024226964 0.026671251 2.0556415e-20)
(-0.026862801 0.026029142 2.7250927e-21)
(-0.029642848 0.024895536 -1.3389e-20)
(-0.032551088 0.023308114 7.2236945e-21)
(-0.035573289 0.021354179 -1.0798441e-20)
(-0.038695812 0.019144389 3.6756392e-20)
(-0.041902989 0.016780264 -1.874196e-20)
(-0.045175031 0.014335991 -1.0976447e-20)
(-0.048487383 0.011857954 -2.2060029e-20)
(-0.051811163 0.0093729252 -2.9881571e-21)
(-0.055113958 0.0068967845 2.2817155e-20)
(-0.058360711 0.0044405587 -9.1641079e-21)
(-0.061513373 0.0020137721 -1.3526588e-20)
(-0.064531731 -0.00037351164 -2.0517564e-21)
(-0.067371149 -0.0027126137 1.3584539e-20)
(-0.06996622 -0.0050080418 1.2112965e-20)
(-0.072219956 -0.007282198 -3.7303263e-20)
(-0.073982247 -0.0095678285 -1.9983697e-20)
(-0.074998994 -0.011915174 -4.38022e-20)
(-0.074856822 -0.014386045 -1.5497897e-20)
(-0.072881822 -0.01701904 -6.0354035e-21)
(-0.06808302 -0.019798475 -4.3908481e-20)
(-0.058920371 -0.022526888 -1.6607363e-20)
(-0.043476105 -0.024719021 5.4951076e-20)
(-0.018902789 -0.025323449 -4.1600914e-20)
(0.017662381 -0.023427554 3.5985965e-20)
(0.071596121 -0.01750899 -1.5180715e-20)
(0.1433768 -0.004633864 6.6266715e-20)
(0.23358188 0.018950815 2.993398e-20)
(0.34631762 0.047703036 -1.1271201e-20)
(0.49770324 0.067522384 -1.8852937e-20)
(0.7056411 0.044308407 -3.6731804e-20)
(0.96557497 -0.035613444 -5.0739693e-21)
(1.1397517 -0.14881022 -6.4615263e-21)
(1.1343838 -0.22454499 4.0803738e-20)
(-5.6955103e-05 0.00017690932 8.0712592e-23)
(-0.00017711653 0.00054753813 -5.7454052e-21)
(-0.00031098422 0.00095661332 6.7723549e-21)
(-0.00046019997 0.0014078644 3.2586415e-21)
(-0.00062657017 0.0019052658 -6.5253916e-21)
(-0.00081212764 0.0024530108 -2.1131013e-21)
(-0.0010191523 0.003055491 1.0245434e-20)
(-0.0012501895 0.0037172631 -1.1021347e-20)
(-0.0015080845 0.0044429925 -2.3240507e-21)
(-0.0017960159 0.0052373756 -9.2399685e-21)
(-0.0021175328 0.0061050349 2.4519593e-20)
(-0.0024765928 0.0070503787 2.9848525e-22)
(-0.0028776026 0.0080774203 -2.1980059e-20)
(-0.0033254588 0.009189548 2.3566704e-20)
(-0.0038255878 0.010389238 -1.6846735e-20)
(-0.0043839832 0.011677702 -6.2371855e-21)
(-0.0050072377 0.013054462 1.3006759e-20)
(-0.0057025645 0.014516845 -1.1713659e-20)
(-0.0064778042 0.016059396 -1.556426e-20)
(-0.0073414079 0.017673202 3.2783551e-22)
(-0.0083023858 0.019345137 2.4421589e-20)
(-0.0093702053 0.021057035 -1.5067443e-20)
(-0.010554617 0.022784794 8.3749709e-21)
(-0.011865381 0.024497442 4.0382731e-20)
(-0.013311849 0.026156192 1.3480088e-20)
(-0.014902366 0.027713527 -3.6496266e-20)
(-0.016643446 0.029112427 3.6414864e-21)
(-0.018538719 0.030286008 -4.1023501e-20)
(-0.020587747 0.03115819 2.4204962e-20)
(-0.022785011 0.031646701 -1.2762822e-20)
(-0.025119703 0.031670697 1.8410141e-20)
(-0.027577087 0.031165587 4.4680333e-21)
(-0.030141673 0.030104748 -2.2139278e-20)
(-0.032800673 0.028519298 2.243284e-20)
(-0.035544999 0.026499133 3.2320205e-20)
(-0.038366538 0.024167004 -2.9770873e-21)
(-0.041253735 0.021641422 -3.3112548e-20)
(-0.044188463 0.019012718 4.1386832e-20)