/*--------------------------------*- C++ -*----------------------------------*\
  =========                 |
  \\      /  F ield         | OpenFOAM: The Open Source CFD Toolbox
   \\    /   O peration     | Website:  https://openfoam.org
    \\  /    A nd           | Version:  13
     \\/     M anipulation  |
\*---------------------------------------------------------------------------*/
FoamFile
{
    format      ascii;
    class       surfaceScalarField;
    location    "27.299309";
    object      phi;
}
// * * * * * * * * * * * * * * * * * * * * * * * * * * * * * * * * * * * * * //

dimensions      [0 3 -1 0 0 0 0];

internalField   nonuniform List<scalar> 
34068
(
-1.4290804e-08
3.3198609e-08
-1.8907805e-08
-6.3587478e-08
1.1495088e-07
-6.5654204e-08
-1.5955465e-07
2.2425687e-07
-1.2828971e-07
-3.1688562e-07
3.6801369e-07
-2.1068272e-07
-5.5400487e-07
5.546084e-07
-3.1748914e-07
-8.9391479e-07
7.9420495e-07
-4.5429503e-07
-1.3652153e-06
1.0990779e-06
-6.2777743e-07
-2.0033224e-06
1.4839998e-06
-8.4589268e-07
-2.8519192e-06
1.9666887e-06
-1.118092e-06
-3.9646704e-06
2.5683236e-06
-1.4555724e-06
-5.4072311e-06
3.314128e-06
-1.8715673e-06
-7.2595792e-06
4.2340342e-06
-2.3816861e-06
-9.6186931e-06
5.3634234e-06
-3.0043095e-06
-1.260158e-05
6.7439437e-06
-3.7610573e-06
-1.6348643e-05
8.4243972e-06
-4.6773338e-06
-2.1027341e-05
1.0461676e-05
-5.7829776e-06
-2.6836037e-05
1.2921711e-05
-7.1130143e-06
-3.4007879e-05
1.5880379e-05
-8.7085372e-06
-4.2814435e-05
1.9424247e-05
-1.0617691e-05
-5.3568701e-05
2.365102e-05
-1.2896754e-05
-6.6626899e-05
2.8669406e-05
-1.5611208e-05
-8.2388291e-05
3.4598066e-05
-1.8836674e-05
-0.00010129193
4.156307e-05
-2.2659433e-05
-0.000123809
4.9693191e-05
-2.7176123e-05
-0.00015042914
5.9112185e-05
-3.2492037e-05
-0.00018163922
6.9927445e-05
-3.8717372e-05
-0.00021789367
8.2215405e-05
-4.5960956e-05
-0.00025957856
9.6006886e-05
-5.432199e-05
-0.00030697701
0.00011128126
-6.3882817e-05
-0.00036025213
0.00012798479
-7.4709676e-05
-0.00041946786
0.00014608611
-8.687038e-05
-0.00048465445
0.00016565676
-0.00010047017
-0.00055589439
0.00018692992
-0.00011568998
-0.00063338776
0.00021029951
-0.00013280614
-0.00071747704
0.00023627981
-0.00015219053
-0.00080864353
0.00026547597
-0.00017430948
-0.00090749785
0.00029859142
-0.0001997371
-0.0010147791
0.00033646963
-0.00022918833
-0.0011313698
0.00038016249
-0.00026357178
-0.0012583276
0.00043102585
-0.00030406807
-0.0013969378
0.00049084863
-0.0003522385
-0.0015487899
0.00056202675
-0.00041017461
-0.0017158834
0.00064779299
-0.00048069951
-0.0019007667
0.00075251349
-0.00056763019
-0.0021067223
0.0008820793
-0.00067612371
-0.0023379619
0.0010443285
-0.0008130889
-0.0025997292
0.0012493297
-0.00098756246
-0.0028984732
0.0015098572
-0.0012111131
-0.0032419831
0.0018417651
-0.0014982552
-0.0036392898
0.0022635856
-0.0018662789
-0.0041003255
0.0027949903
-0.0023339546
-0.0046352515
0.0034530186
-0.0029180926
-0.0052531646
0.0042425248
-0.0036246117
-0.0059598366
0.005138274
-0.004431602
-0.0067532065
0.0060455693
-0.0052521994
-0.0076158273
0.0067432192
-0.0058805985
-0.0084970255
0.0067791336
-0.0058979353
-0.0093004224
0.0053929118
-0.0045895149
-0.0098009907
0.0014459156
-0.00094534728
-0.0095894479
-0.0063635185
0.0061519757
-0.0081681905
-0.018533364
0.017112107
-0.0051243257
-0.033111233
0.030067368
-0.00067074199
-0.044735476
0.040281893
0.004995766
-0.047342126
0.041675618
-0.036042742
0.012163861
0.028874647
-1.4178022e-08
4.737663e-08
-6.3084789e-08
1.6385764e-07
-1.5829485e-07
3.1946694e-07
-3.1439333e-07
5.2411216e-07
-5.4967219e-07
7.8988726e-07
-8.8697351e-07
1.1315063e-06
-1.3547044e-06
1.5668088e-06
-1.9880518e-06
2.1173472e-06
-2.8304303e-06
2.8090672e-06
-3.9351923e-06
3.6730856e-06
-5.3676373e-06
4.746573e-06
-7.2073431e-06
6.07374e-06
-9.5508516e-06
7.7069318e-06
-1.2514705e-05
9.7077973e-06
-1.6238836e-05
1.2148529e-05
-2.089026e-05
1.5113099e-05
-2.6666966e-05
1.8698417e-05
-3.380187e-05
2.3015282e-05
-4.2566545e-05
2.8188922e-05
-5.327435e-05
3.4358826e-05
-6.6282398e-05
4.1677454e-05
-8.1991551e-05
5.0307219e-05
-0.00010084342
6.0414937e-05
-0.00012331295
7.216272e-05
-0.000149895
8.5694238e-05
-0.00018108326
0.0001011157
-0.0002173406
0.00011847275
-0.00025906264
0.00013772893
-0.00030654185
0.00015876047
-0.00035994814
0.00018139107
-0.00041934651
0.00020548448
-0.00048476028
0.00023107054
-0.00055625745
0.00025842709
-0.00063401872
0.00028806077
-0.00071836472
0.00032062581
-0.00080975294
0.00035686418
-0.00090876666
0.00039760515
-0.0010161118
0.00044381472
-0.0011326276
0.00049667835
-0.001259315
0.0005577132
-0.0013973828
0.00062891649
-0.0015483183
0.00071296226
-0.0017139834
0.00081345802
-0.0018967434
0.00093527354
-0.0020996398
0.0010849757
-0.0023265689
0.0012712576
-0.0025823788
0.0015051397
-0.0028730397
0.0018005181
-0.0032057731
0.0021744984
-0.0035889917
0.0026468042
-0.0040320491
0.0032380477
-0.0045447675
0.003965737
-0.0051365023
0.0048342596
-0.0058144473
0.0058162191
-0.0065798547
0.0068109766
-0.0074209286
0.0075842932
-0.0082999361
0.007658141
-0.0091143131
0.0062072889
-0.0096241859
0.0019557884
-0.0093764895
-0.006611215
-0.0077886515
-0.020121202
-0.0044268061
-0.036473079
0.00038329587
-0.049545578
0.0062516074
-0.053210438
-0.042990343
0.013199209
-1.3853029e-08
6.122966e-08
-6.1642112e-08
2.1164673e-07
-1.5468319e-07
4.1250801e-07
-3.072396e-07
6.7666857e-07
-5.3720533e-07
1.019853e-06
-8.6693363e-07
1.4612346e-06
-1.3242331e-06
2.0241082e-06
-1.9435661e-06
2.7366801e-06
-2.767471e-06
3.6329722e-06
-3.8482541e-06
4.7538686e-06
-5.2499704e-06
6.1482893e-06
-7.0507379e-06
7.8745075e-06
-9.3453966e-06
1.000159e-05
-1.2248539e-05
1.261094e-05
-1.589789e-05
1.5797879e-05
-2.0458009e-05
1.9673218e-05
-2.612423e-05
2.4364638e-05
-3.3126671e-05
3.0017724e-05
-4.1734089e-05
3.6796339e-05
-5.2257182e-05
4.4881919e-05
-6.5050804e-05
5.4471075e-05
-8.0514308e-05
6.5770724e-05
-9.9088984e-05
7.8989613e-05
-0.00012125118
9.4324916e-05
-0.00014749952
0.00011194257
-0.00017833439
0.00013195058
-0.00021422877
0.00015436712
-0.00025559147
0.00017909163
-0.00030272969
0.00020589869
-0.00035582577
0.00023448715
-0.00041494934
0.00026460804
-0.00048011578
0.00029623698
-0.00055137224
0.00032968354
-0.00062886948
0.00036555802
-0.00071289341
0.00040464974
-0.00080386314
0.00044783391
-0.00090231837
0.00049606037
-0.0010089123
0.00055040863
-0.0011244175
0.00061218358
-0.0012497475
0.00068304317
-0.0013859953
0.00076516435
-0.0015344932
0.00086146014
-0.0016968955
0.00097586028
-0.0018752903
0.0011136683
-0.0020723492
0.0012820346
-0.0022914752
0.0014903836
-0.0025368861
0.0017505506
-0.0028137485
0.0020773805
-0.0031282602
0.0024890101
-0.0034875727
0.0030061167
-0.0038995462
0.0036500212
-0.0043723461
0.0044385368
-0.0049136834
0.0053755969
-0.0055294501
0.0064319858
-0.0062205053
0.0075020318
-0.0069768357
0.0083406236
-0.0077631577
0.008444463
-0.0084702313
0.0069143624
-0.0088421205
0.0023276776
-0.0083554221
-0.0070979134
-0.0063467706
-0.022129853
-0.0023726685
-0.040447181
0.0031087701
-0.055027017
0.009555224
-0.059656891
-0.050193976
0.016758856
-1.3303288e-08
7.4532947e-08
-5.9203749e-08
2.5754719e-07
-1.4858067e-07
5.0188494e-07
-2.9515211e-07
8.2324e-07
-5.161355e-07
1.2408364e-06
-8.3304823e-07
1.7781473e-06
-1.2726761e-06
2.4637361e-06
-1.8682313e-06
3.3322352e-06
-2.6607403e-06
4.4254812e-06
-3.7006862e-06
5.7938145e-06
-5.049948e-06
7.4975511e-06
-6.7840604e-06
9.6086199e-06
-8.9948319e-06
1.2212362e-05
-1.1793327e-05
1.5409435e-05
-1.531322e-05
1.9317772e-05
-1.9714487e-05
2.4074485e-05
-2.5187363e-05
2.9837514e-05
-3.1956429e-05
3.6786789e-05
-4.028459e-05
4.5124501e-05
-5.0476606e-05
5.5073935e-05
-6.2881649e-05
6.6876118e-05
-7.789413e-05
8.0783205e-05
-9.5951779e-05
9.7047262e-05
-0.00011752963
0.00011590277
-0.00014312823
0.00013754117
-0.00017325424
0.00016207659
-0.0002083921
0.00018950498
-0.00024896743
0.00021966696
-0.00029530766
0.00025223893
-0.00034761384
0.00028679333
-0.00040596464
0.00032295885
-0.00047036738
0.00036063972
-0.00054084228
0.00040015845
-0.00061749933
0.00044221507
-0.00070057579
0.00048772619
-0.00079043682
0.00053769495
-0.00088756089
0.00059318444
-0.00099252781
0.00065537556
-0.001106018
0.00072567375
-0.0012288251
0.00080585032
-0.0013618842
0.00089822343
-0.0015063162
0.0010058922
-0.0016634927
0.0011330367
-0.0018351229
0.0012852986
-0.0020233701
0.0014702818
-0.0022309496
0.0016979631
-0.0024611869
0.0019807879
-0.0027180798
0.0023342734
-0.0030062821
0.0027772124
-0.0033309355
0.0033307701
-0.0036973149
0.0040164006
-0.0041103076
0.0048515295
-0.0045735589
0.0058388482
-0.0050880682
0.0069464951
-0.0056495135
0.0080634771
-0.0062434804
0.0089345905
-0.0068270885
0.009028071
-0.0072756813
0.0073629553
-0.0073053019
0.0023572982
-0.0063079116
-0.0080953037
-0.0035410887
-0.024896676
0.0013977086
-0.045385978
0.0078458573
-0.061475166
0.015147586
-0.066958621
-0.057989835
0.022943445
-1.2525902e-08
8.7058848e-08
-5.575256e-08
3.0077384e-07
-1.3993874e-07
5.8607112e-07
-2.7802702e-07
9.6132828e-07
-4.8627092e-07
1.4490803e-06
-7.8499827e-07
2.0768747e-06
-1.1995306e-06
2.8782684e-06
-1.7612942e-06
3.8939989e-06
-2.5091424e-06
5.1733294e-06
-3.4909388e-06
6.775611e-06
-4.7654174e-06
8.7720296e-06
-6.4043741e-06
1.1247577e-05
-8.4951973e-06
1.4303185e-05
-1.1143789e-05
1.8058027e-05
-1.4477851e-05
2.2651834e-05
-1.8650547e-05
2.824718e-05
-2.384445e-05
3.5031418e-05
-3.0275698e-05
4.3218037e-05
-3.8198119e-05
5.3046922e-05
-4.7907027e-05
6.4782842e-05
-5.974219e-05
7.871128e-05
-7.408929e-05
9.5130305e-05
-9.137886e-05
0.00011433683
-0.00011208142
0.00013660534
-0.00013669711
0.00016215685
-0.00016573784
0.00019111732
-0.00019970047
0.00022346762
-0.0002390307
0.00025899719
-0.00028408181
0.00029729003
-0.00033508035
0.00033779187
-0.00039211971
0.00037999821
-0.0004552003
0.00042372031
-0.00052431019
0.00046926833
-0.00059950747
0.00051741235
-0.00068096609
0.00056918481
-0.0007689804
0.00062570926
-0.00086394869
0.00068815272
-0.00096635538
0.00075778224
-0.0010767617
0.00083608003
-0.0011958073
0.000924896
-0.0013242245
0.0010266406
-0.0014628639
0.0011445316
-0.0016127342
0.001282907
-0.001775057
0.0014476214
-0.0019513389
0.0016465636
-0.0021434036
0.0018900278
-0.0023533893
0.0021907737
-0.0025837195
0.0025646036
-0.0028369176
0.0030304105
-0.0031152532
0.0036091057
-0.003420126
0.0043212734
-0.0037511731
0.0051825766
-0.004104921
0.0061925961
-0.0044728271
0.0073144012
-0.0048384322
0.0084290821
-0.005175885
0.0092720434
-0.0054207496
0.0092729356
-0.0054114899
0.0073536955
-0.0048150009
0.0017608092
-0.0029157793
-0.0099945253
0.0010865369
-0.028898992
0.0074427809
-0.051742222
0.01515558
-0.069187964
0.023420514
-0.075223555
-0.066449946
0.031880625
-1.1521423e-08
9.8580272e-08
-5.1291915e-08
3.4054434e-07
-1.2876662e-07
6.6354582e-07
-2.5588257e-07
1.0884442e-06
-4.4764368e-07
1.6408414e-06
-7.2283076e-07
2.3520617e-06
-1.1048642e-06
3.2603019e-06
-1.6228402e-06
4.4119748e-06
-2.3127815e-06
5.8632707e-06
-3.2191242e-06
7.6819537e-06
-4.3964843e-06
9.9493897e-06
-5.9117395e-06
1.2762832e-05
-7.8464615e-06
1.6237907e-05
-1.0299719e-05
2.0511284e-05
-1.3391276e-05
2.5743391e-05
-1.7265181e-05
3.2121085e-05
-2.20937e-05
3.9859937e-05
-2.8081505e-05
4.9205842e-05
-3.5469952e-05
6.0435369e-05
-4.4541172e-05
7.3854062e-05
-5.5621521e-05
8.979163e-05
-6.9083794e-05
0.00010859258
-8.5347226e-05
0.00013060026
-0.00010487405
0.00015613216
-0.00012816096
0.00018544376
-0.00015572342
0.00021867978
-0.0001880709
0.00025581509
-0.00022567178
0.00029659808
-0.00026891061
0.00034052886
-0.00031804689
0.00038692815
-0.0003731957
0.00043514702
-0.00043435361
0.00048487822
-0.00050147273
0.00053638746
-0.00057454854
0.00059048815
-0.00065367615
0.00064831242
-0.00073906099
0.0007110941
-0.00083100087
0.0007800926
-0.00092986145
0.00085664283
-0.0010360565
0.00094227505
-0.0011500361
0.0010388756
-0.0012722832
0.0011488877
-0.0014033163
0.0012755647
-0.0015436979
0.0014232886
-0.0016940481
0.0015979716
-0.0018550583
0.0018075738
-0.0020274412
0.0020624107
-0.002211837
0.0023751694
-0.0024086433
0.0027614099
-0.002617596
0.0032393632
-0.0028371122
0.0038286219
-0.0030632133
0.0045473746
-0.0032879144
0.0054072776
-0.0034968497
0.0064015314
-0.003666236
0.0074837875
-0.0037599966
0.0085228427
-0.0037284185
0.0092404652
-0.0034637311
0.0090082483
-0.0027351757
0.0066251401
-0.0011157238
0.00014135725
0.0022586007
-0.01336885
0.0081835944
-0.034823986
0.01661183
-0.060170458
0.025930985
-0.078507119
0.035029322
-0.084321892
-0.075299973
0.043879348
-1.0297776e-08
1.0887805e-07
-4.5857276e-08
3.7610384e-07
-1.1515243e-07
7.3284098e-07
-2.288924e-07
1.2021842e-06
-4.0055241e-07
1.8125014e-06
-6.4702201e-07
2.5985313e-06
-9.8939061e-07
3.6026705e-06
-1.4539003e-06
4.8764844e-06
-2.0730937e-06
6.4824642e-06
-2.8871915e-06
8.4960515e-06
-3.9457331e-06
1.1007931e-05
-5.3095275e-06
1.4126626e-05
-7.0529307e-06
1.798131e-05
-9.2665207e-06
2.2724874e-05
-1.2060158e-05
2.8537029e-05
-1.5566468e-05
3.5627395e-05
-1.9944716e-05
4.4238184e-05
-2.5385018e-05
5.4646145e-05
-3.2112744e-05
6.7163094e-05
-4.0392917e-05
8.2134236e-05
-5.0534224e-05
9.9932936e-05
-6.2892024e-05
0.00012095038
-7.7869633e-05
0.00014557787
-9.5916585e-05
0.00017417911
-0.00011752228
0.00020704946
-0.00014320302
0.00024436052
-0.00017347991
0.00028609198
-0.00020884579
0.00033196395
-0.00024972118
0.00038140425
-0.00029640616
0.00043361313
-0.00034904617
0.00048778702
-0.00040763946
0.00054347152
-0.00047210062
0.00060084862
-0.00054235267
0.0006607402
-0.00061839601
0.00072435577
-0.00070032775
0.00079302584
-0.00078832362
0.00086808847
-0.00088260582
0.00095092503
-0.00098341122
0.0010430805
-0.0010909635
0.0011464279
-0.0012054485
0.0012633727
-0.0013269891
0.0013971053
-0.0014556159
0.0015519154
-0.00159123
0.0017335858
-0.0017335415
0.0019498853
-0.0018819176
0.0022107868
-0.0020351705
0.0025284224
-0.0021911819
0.0029174213
-0.002346171
0.0033943523
-0.0024935954
0.0039760463
-0.0026223593
0.0046761385
-0.0027140324
0.0054989507
-0.0027389872
0.0064264863
-0.0026522718
0.0073970721
-0.0023904436
0.0082610145
-0.0018542525
0.0087042742
-0.00086855333
0.0080225491
0.00090645898
0.0048501278
0.0040997669
-0.0030519507
0.0097445251
-0.019013608
0.018548083
-0.043627543
0.029859546
-0.071481921
0.041142184
-0.089789757
0.050866063
-0.094045771
-0.083930313
0.059496404
-8.8713499e-09
1.177494e-07
-3.9520312e-08
4.067528e-07
-9.9275052e-08
7.9259572e-07
-1.9740907e-07
1.3003182e-06
-3.4561011e-07
1.9607024e-06
-5.5855165e-07
2.8114729e-06
-8.5459096e-07
3.8987098e-06
-1.2566207e-06
5.2785142e-06
-1.7930946e-06
7.018938e-06
-2.4992714e-06
9.2022283e-06
-3.4187057e-06
1.1927366e-05
-4.6050239e-06
1.5312944e-05
-6.1240423e-06
1.9500329e-05
-8.0562412e-06
2.4657073e-05
-1.0499669e-05
3.0980457e-05
-1.3573263e-05
3.8700988e-05
-1.742062e-05
4.8085542e-05
-2.2214194e-05
5.9439719e-05
-2.8159817e-05
7.3108717e-05
-3.5501367e-05
8.9475785e-05
-4.4525339e-05
0.00010895691
-5.5564792e-05
0.00013198983
-6.9001983e-05
0.00015901506
-8.5268548e-05
0.00019044567
-0.0001048418
0.00022662271
-0.0001282349
0.00026775362
-0.00015597827
0.00031383536
-0.0001885893
0.00036457497
-0.00022652817
0.00041934312
-0.00027014304
0.000477228
-0.00031961969
0.00053726367
-0.00037496664
0.00059881847
-0.00043606258
0.00066194456
-0.00050275018
0.0007274278
-0.00057491929
0.00079652487
-0.00065253824
0.00087064479
-0.00073563757
0.00095118779
-0.00082427019
0.0010395576
-0.00091846567
0.0011372759
-0.0010181837
0.0012461459
-0.0011232643
0.0013684534
-0.0012333707
0.0015072116
-0.0013479139
0.0016664586
-0.0014659555
0.0018516274
-0.0015860519
0.0020699816
-0.0017059808
0.0023307157
-0.0018223738
0.0026448154
-0.0019300665
0.003025114
-0.0020209562
0.0034852419
-0.002082292
0.0040373822
-0.0020938452
0.0046876917
-0.0020234186
0.0054285241
-0.0018209504
0.0062240181
-0.0014131134
0.0069892351
-0.00069689987
0.007544801
0.00050063445
0.0075067399
0.002457212
0.0060659715
0.0056882282
0.0016191116
0.011122021
-0.0084857436
0.019987761
-0.027879348
0.032590801
-0.056230583
0.047266389
-0.086157509
0.060759505
-0.10328287
0.071154233
-0.1044405
-0.091947217
0.079171137
-7.2669513e-09
1.2501635e-07
-3.2390507e-08
4.3187635e-07
-8.1406406e-08
8.4161162e-07
-1.6196898e-07
1.3808808e-06
-2.8374648e-07
2.0824799e-06
-4.5890767e-07
2.9866341e-06
-7.0272084e-07
4.142523e-06
-1.0342817e-06
5.610075e-06
-1.4774074e-06
7.4620637e-06
-2.0617188e-06
9.7865397e-06
-2.8239541e-06
1.2689601e-05
-3.8095522e-06
1.6298542e-05
-5.0745556e-06
2.0765332e-05
-6.6878614e-06
2.6270379e-05
-8.733906e-06
3.3026502e-05
-1.1315791e-05
4.1282873e-05
-1.4558905e-05
5.1328656e-05
-1.8615021e-05
6.3495835e-05
-2.3666896e-05
7.8160592e-05
-2.9933201e-05
9.5742091e-05
-3.7673603e-05
0.00011669731
-4.7193683e-05
0.00014150991
-5.8848983e-05
0.00017067036
-7.3047337e-05
0.00020464403
-9.0248013e-05
0.00024382339
-0.00011095561
0.00028846122
-0.00013570572
0.00033858547
-0.00016503838
0.00039390763
-0.00019945519
0.00045375994
-0.00023935897
0.00051713179
-0.0002849869
0.0005828916
-0.00033636952
0.00065020109
-0.00039335558
0.00071893062
-0.0004557026
0.00078977482
-0.00052317485
0.00086399713
-0.00059559079
0.00094306073
-0.00067281129
0.0010284083
-0.00075469287
0.0011214392
-0.00084102656
0.0012236096
-0.00093146986
0.0013365892
-0.0010254687
0.0014624522
-0.0011221613
0.0016039042
-0.0012202515
0.0017645488
-0.0013178371
0.001949213
-0.0014121432
0.0021642878
-0.0014991057
0.0024176782
-0.0015727959
0.0027185055
-0.0016244252
0.0030767433
-0.001640668
0.0035014847
-0.0016011264
0.0039978406
-0.0014740386
0.0045606039
-0.0012095104
0.0051639959
-0.00073173196
0.0057462396
7.0091358e-05
0.0061874118
0.0013576564
0.0062572359
0.0033965715
0.0054678248
0.0066134504
0.0028490926
0.011786653
-0.0035540912
0.02022375
-0.01692284
0.033040931
-0.040696529
0.049591148
-0.0727808
0.066549085
-0.10311545
0.08080935
-0.11754314
0.091867178
-0.11549833
-0.10077444
0.1006944
-5.5193056e-09
1.3053565e-07
-2.4622131e-08
4.5097918e-07
-6.1932557e-08
8.7892204e-07
-1.2333454e-07
1.4422828e-06
-2.1628801e-07
2.1754334e-06
-3.502198e-07
3.1205658e-06
-5.3700994e-07
4.3293131e-06
-7.915876e-07
5.8646527e-06
-1.1326721e-06
7.8031482e-06
-1.5836734e-06
1.0237541e-05
-2.1738123e-06
1.327974e-05
-2.9394672e-06
1.7064197e-05
-3.9258324e-06
2.1751697e-05
-5.1889167e-06
2.7533463e-05
-6.7979492e-06
3.4635534e-05
-8.8382554e-06
4.332318e-05
-1.1414648e-05
5.3905048e-05
-1.4655414e-05
6.6736601e-05
-1.8716859e-05
8.2222037e-05
-2.3788444e-05
0.00010081368
-3.0098367e-05
0.00012300723
-3.7919333e-05
0.00014933088
-4.7574105e-05
0.00018032514
-5.9440013e-05
0.00021650994
-7.3951223e-05
0.0002583346
-9.1596684e-05
0.00030610668
-0.00011291075
0.00035989953
-0.00013845163
0.00041944851
-0.00016876142
0.00048406972
-0.00020430224
0.00055267261
-0.00024537388
0.00062396323
-0.00029204385
0.00069687106
-0.00034414214
0.00077102891
-0.00040134087
0.00084697355
-0.00046326601
0.00092592226
-0.00052956463
0.0010093593
-0.00059990239
0.0010987461
-0.00067391103
0.0011954479
-0.00075111105
0.0013008096
-0.00083081935
0.0014162975
-0.0009120388
0.0015436716
-0.00099331813
0.0016851835
-0.0010725648
0.0018437955
-0.0011467856
0.0020234338
-0.0012116901
0.0022291923
-0.0012611054
0.0024670935
-0.0012861267
0.0027435268
-0.0012736912
0.0030643078
-0.0012042019
0.0034319955
-0.0010478751
0.0038415138
-0.00075844112
0.0042711699
-0.0002635088
0.0046690635
0.00054547061
0.0049372602
0.0018263816
0.0049065008
0.0038203651
0.0042632524
0.0069146975
0.0023734924
0.011751919
-0.0019881285
0.019482889
-0.011285062
0.031623604
-0.029063556
0.048414612
-0.057487537
0.067097408
-0.091463596
0.082841092
-0.11885913
0.094477224
-0.12917927
0.10437427
-0.12539537
-0.11215022
0.11575005
-3.6709549e-09
1.3420661e-07
-1.6403307e-08
4.6371153e-07
-4.1324311e-08
9.0384305e-07
-8.2438728e-08
1.4833972e-06
-1.4486004e-07
2.2378547e-06
-2.3509933e-07
3.2108051e-06
-3.6142776e-07
4.4556416e-06
-5.3433298e-07
6.0375579e-06
-7.6708706e-07
8.0359022e-06
-1.0764589e-06
1.0546913e-05
-1.4835991e-06
1.368688e-05
-2.015151e-06
1.7595749e-05
-2.7046126e-06
2.2441159e-05
-3.5940466e-06
2.8422897e-05
-4.7361539e-06
3.5777641e-05
-6.196842e-06
4.4783868e-05
-8.0583431e-06
5.5766549e-05
-1.0422945e-05
6.9101202e-05
-1.3417451e-05
8.5216543e-05
-1.7198387e-05
0.00010459461
-2.1957965e-05
0.00012776681
-2.7930633e-05
0.00015530355
-3.540003e-05
0.00018779453
-4.4705684e-05
0.00022581559
-5.624842e-05
0.00026987733
-7.0492735e-05
0.00032035099
-8.7962908e-05
0.00037736971
-0.00010922764
0.00044071325
-0.00013486493
0.00050970701
-0.00016539761
0.0005832053
-0.00020119814
0.00065976376
-0.00024238817
0.00073806109
-0.00028879547
0.00081743621
-0.000340013
0.00089819107
-0.00039551935
0.00098142861
-0.0004547699
0.0010686099
-0.00051720861
0.0011611848
-0.00058221294
0.0012604522
-0.00064899986
0.0013675966
-0.00071650687
0.0014838045
-0.00078324458
0.0016104093
-0.00084710672
0.0017490457
-0.00090511266
0.0019018014
-0.00095304525
0.0020713664
-0.0009849014
0.0022610484
-0.00099210534
0.0024742974
-0.00096229528
0.0027137167
-0.00087735751
0.0029793701
-0.00071010525
0.0032647432
-0.00041908601
0.0035504946
6.0361382e-05
0.0037917225
0.00082871031
0.0039007146
0.002035758
0.0037302125
0.0039035823
0.0030386765
0.006778015
0.0013888198
0.011217918
-0.0020664108
0.018199421
-0.0089696317
0.029246092
-0.022331732
0.045356104
-0.045173568
0.064641109
-0.076772543
0.081837152
-0.10865964
0.093170941
-0.13019292
0.10081424
-0.13682257
0.10879272
-0.13337385
-0.12433433
0.12097682
-1.776823e-09
1.3598343e-07
-7.9787966e-09
4.699135e-07
-2.0194117e-08
9.1605837e-07
-4.049477e-08
1.5036978e-06
-7.1575637e-08
2.2689356e-06
-1.1694078e-07
3.2561703e-06
-1.8113498e-07
4.5198358e-06
-2.700492e-07
6.1264721e-06
-3.9131083e-07
8.1571639e-06
-5.5478549e-07
1.0710388e-05
-7.7322715e-07
1.3905322e-05
-1.063102e-06
1.7885624e-05
-1.445656e-06
2.2823713e-05
-1.9482703e-06
2.8925511e-05
-2.6061841e-06
3.6435555e-05
-3.4646811e-06
4.5642365e-05
-4.5818274e-06
5.6883696e-05
-6.031901e-06
7.0551276e-05
-7.9096262e-06
8.7094268e-05
-1.0335312e-05
0.0001070203
-1.3461026e-05
0.00013089252
-1.7477804e-05
0.00015932032
-2.2623771e-05
0.0001929405
-2.9192886e-05
0.0002323847
-3.7543476e-05
0.00027822792
-4.810503e-05
0.00033091255
-6.1380273e-05
0.00039064495
-7.7936922e-05
0.0004572699
-9.8379606e-05
0.00053014969
-0.00012328836
0.00060811405
-0.00015311521
0.00068959061
-0.00018805426
0.00077300014
-0.00022795429
0.00085733625
-0.00027234118
0.00094257796
-0.00032054422
0.0010296317
-0.00037180894
0.0011198746
-0.00042533098
0.0012147068
-0.00048020272
0.0013153239
-0.00053530339
0.0014226972
-0.00058915096
0.0015376521
-0.00063971322
0.0016609716
-0.00068416024
0.0017934927
-0.00071852533
0.0019361665
-0.00073722046
0.0020900615
-0.00073230773
0.0022561357
-0.00069245488
0.0024344446
-0.00060123619
0.002622498
-0.00043446204
0.0028125959
-0.00015550027
0.0029857814
0.00029206844
0.0031029259
0.00099644895
0.003087342
0.0020933802
0.0028037833
0.003787992
0.0020356007
0.0063936459
0.00043302265
0.010412459
-0.0026299938
0.016689739
-0.0083436905
0.026634457
-0.018914349
0.041556746
-0.037254021
0.060581038
-0.06419786
0.078936971
-0.095128475
0.091338687
-0.12106135
0.098087243
-0.13694147
0.10344382
-0.14217915
0.11086598
-0.14079601
-0.13637686
0.12290851
1.0410728e-10
1.3587932e-07
3.9106239e-10
4.6962655e-07
8.0635289e-10
9.1564308e-07
1.2080046e-09
1.5032962e-06
1.3142738e-09
2.2688293e-06
6.3168598e-10
3.2568529e-06
-1.652291e-09
4.5221197e-06
-6.8154841e-09
6.1316353e-06
-1.6809368e-08
8.1671578e-06
-3.454591e-08
1.0728124e-05
-6.4287596e-08
1.3935063e-05
-1.121935e-07
1.793353e-05
-1.8704167e-07
2.2898561e-05
-3.012192e-07
2.9039689e-05
-4.7203774e-07
3.6606374e-05
-7.2348026e-07
4.5893807e-05
-1.0885006e-06
5.7248716e-05
-1.6120366e-06
7.1074812e-05
-2.3548588e-06
8.783709e-05
-3.3985102e-06
0.00010806395
-4.8514671e-06
0.00013234548
-6.8567187e-06
0.00016132558
-9.6008439e-06
0.00019568462
-1.3324425e-05
0.00023610829
-1.8333468e-05
0.00028323697
-2.5010444e-05
0.00033758952
-3.38224e-05
0.00039945691
-4.5320616e-05
0.00046876811
-6.012147e-05
0.00054495054
-7.8852384e-05
0.00062684497
-0.00010205012
0.00071278835
-0.00012999866
0.00080094867
-0.00016258023
0.00088991782
-0.00019929205
0.00097928978
-0.00023930801
0.0010696476
-0.00028165412
0.0011622207
-0.00032525379
0.0012583065
-0.00036888245
0.0013589526
-0.00041104517
0.00146486
-0.00044979769
0.0015764046
-0.00048251016
0.0016936841
-0.00050555232
0.0018165349
-0.00051385814
0.0019444723
-0.00050029174
0.0020764951
-0.00045470122
0.0022105452
-0.00036253427
0.0023422776
-0.00020242215
0.0024623859
5.7425059e-05
0.0025527487
0.00046606575
0.0025771407
0.001099921
0.0024690706
0.0020776402
0.0021096228
0.0035831353
0.0012982882
0.0059056825
-0.00028694648
0.0095091305
-0.0031704254
0.015175145
-0.0082960082
0.024173153
-0.017341699
0.037865869
-0.032607065
0.055978758
-0.05536691
0.074690406
-0.082909509
0.088258105
-0.10869617
0.09557087
-0.12837412
0.099986594
-0.1413572
0.10491297
-0.14710553
0.11276531
-0.14864834
-0.14853659
0.12492504
1.9002873e-09
1.3397904e-07
8.3865047e-09
4.6314033e-07
2.0874728e-08
9.0315485e-07
4.1075306e-08
1.4830956e-06
7.1029265e-08
2.2388753e-06
1.1313971e-07
3.2147424e-06
1.7019863e-07
4.4650608e-06
2.4538772e-07
6.0564462e-06
3.4226076e-07
8.0702847e-06
4.6467079e-07
1.0605714e-05
6.1663287e-07
1.3783101e-05
8.0208517e-07
1.7748078e-05
1.0245057e-06
2.2676141e-05
1.2863217e-06
2.8777873e-05
1.5880346e-06
3.6304661e-05
1.9269552e-06
4.5554887e-05
2.29543e-06
5.6880241e-05
2.6783532e-06
7.0691889e-05
3.0498052e-06
8.7465638e-05
3.3685414e-06
0.00010774521
3.5720582e-06
0.00013214196
3.5689575e-06
0.00016132868
3.2293385e-06
0.00019602424
2.3730446e-06
0.00023696458
7.5602035e-07
0.00028485399
-1.9446063e-06
0.00034029015
-6.144314e-06
0.00040365661
-1.2358824e-05
0.00047498262
-2.1195004e-05
0.00055378672
-3.3304889e-05
0.00063895485
-4.9282479e-05
0.00072876594
-6.9553998e-05
0.00082122019
-9.4027526e-05
0.00091439135
-0.00012224606
0.0010075083
-0.00015320671
0.0011006083
-0.00018573206
0.0011947461
-0.00021843841
0.0012910128
-0.00024975297
0.0013902672
-0.00027776724
0.0014928742
-0.00030002718
0.0015986645
-0.00031324156
0.0017068985
-0.00031288632
0.0018161796
-0.00029264964
0.0019242357
-0.00024361017
0.0020274557
-0.00015299131
0.0021199263
-2.2086472e-06
0.002191495
0.00023603786
0.0022241394
0.00060419764
0.0021845889
0.0011686624
0.002012676
0.0020332629
0.0016044701
0.0033593263
0.00078355951
0.0054088409
-0.00075122648
0.0086286228
-0.0035067284
0.013772038
-0.008313841
0.022034532
-0.016558502
0.03467085
-0.029978016
0.051618411
-0.049554626
0.069835784
-0.073584283
0.083972642
-0.097046366
0.092077608
-0.11680114
0.096833685
-0.1331302
0.10077706
-0.14530057
0.1062553
-0.15258377
0.11470977
-0.15710281
-0.16075213
0.12692532
3.5407525e-09
1.3043829e-07
1.5694345e-08
4.5098674e-07
3.9228224e-08
8.7962098e-07
7.7557177e-08
1.4447667e-06
1.3486068e-07
2.1815718e-06
2.1622069e-07
3.1333824e-06
3.2776e-07
4.3535215e-06
4.7680056e-07
5.9074057e-06
6.7201352e-07
7.8750718e-06
9.2356222e-07
1.0354165e-05
1.2432137e-06
1.346345e-05
1.6444044e-06
1.7346887e-05
2.142187e-06
2.2178358e-05
2.7530621e-06
2.8166998e-05
3.4945564e-06
3.5563167e-05
4.3844912e-06
4.4664952e-05
5.4397599e-06
5.5824972e-05
6.6745102e-06
6.9457139e-05
8.097368e-06
8.604278e-05
9.7075676e-06
0.00010613501
1.1489518e-05
0.00013036001
1.3405457e-05
0.00015941274
1.5385778e-05
0.00019404392
1.7316595e-05
0.00023503376
1.9024405e-05
0.00028314618
2.0258216e-05
0.00033905634
2.0670687e-05
0.00040324414
1.9802799e-05
0.00047585051
1.708235e-05
0.00055650717
1.1849453e-05
0.00064418775
3.4678121e-06
0.00073714758
-8.443837e-06
0.00083313184
-2.406461e-05
0.00093001213
-4.3031646e-05
0.0010264753
-6.41906e-05
0.0011217672
-8.6050581e-05
0.0012166061
-0.00010695213
0.0013119144
-0.00012494657
0.0014082616
-0.00013766631
0.001505594
-0.00014209031
0.0016030885
-0.00013418438
0.0016989925
-0.00010840288
0.0017903981
-5.6977044e-05
0.0018728098
3.1155625e-05
0.001939323
0.0001720203
0.0019790616
0.00038925291
0.0019742623
0.00071915427
0.0018942381
0.001219078
0.0016846652
0.0019810223
0.0012507316
0.0031489996
0.00043649277
0.004959573
-0.0010270139
0.0078351463
-0.0036267998
0.012545908
-0.0082174902
0.020243674
-0.016011607
0.03205269
-0.028367517
0.047820963
-0.04574629
0.064998233
-0.066731896
0.078966794
-0.087552844
0.08748795
-0.10556752
0.092848428
-0.12216162
0.097046072
-0.13732784
0.10141168
-0.14966618
0.10753281
-0.1587049
0.11640011
-0.16597011
-0.17292985
0.12857783
4.9563743e-09
1.2548191e-07
2.2002702e-08
4.3394041e-07
5.5078445e-08
8.4654523e-07
1.090794e-07
1.3907657e-06
1.9005139e-07
2.1005998e-06
3.0541062e-07
3.0180232e-06
4.6420129e-07
4.1947308e-06
6.773805e-07
5.6942265e-06
9.5813096e-07
7.5943213e-06
1.3222027e-06
9.9900936e-06
1.7882586e-06
1.2997394e-05
2.378214e-06
1.6756931e-05
3.1175421e-06
2.143903e-05
4.0354743e-06
2.7249065e-05
5.165071e-06
3.443357e-05
6.5430171e-06
4.3287006e-05
8.2090495e-06
5.415894e-05
1.0204781e-05
6.7461407e-05
1.2571769e-05
8.3675792e-05
1.5348382e-05
0.0001033584
1.8565199e-05
0.0001271432
2.2238345e-05
0.00015573959
2.6360283e-05
0.00018992198
3.08874e-05
0.00023050665
3.5723958e-05
0.00027830962
4.0702259e-05
0.00033407804
4.5560063e-05
0.00039838634
4.9918865e-05
0.00047149171
5.3272046e-05
0.00055315399
5.5008396e-05
0.0006424514
5.4485423e-05
0.00073767055
5.1108791e-05
0.00083650847
4.453922e-05
0.0009365817
3.5543989e-05
0.0010354706
2.5095212e-05
0.001132216
1.4695914e-05
0.0012270054
6.3978703e-06
0.0013202124
2.6221181e-06
0.0014120373
6.2427537e-06
0.0015019733
2.0923274e-05
0.001588408
5.1555402e-05
0.0016683604
0.0001048991
0.0017370544
0.00019051815
0.0017871908
0.00032222398
0.0018076172
0.00052041356
0.001780872
0.00081606197
0.0016786139
0.0012587535
0.0014515466
0.0019297744
0.0010136442
0.0029604026
0.00022010343
0.004568621
-0.0011717256
0.0071602651