/*--------------------------------*- C++ -*----------------------------------*\
  =========                 |
  \\      /  F ield         | OpenFOAM: The Open Source CFD Toolbox
   \\    /   O peration     | Website:  https://openfoam.org
    \\  /    A nd           | Version:  13
     \\/     M anipulation  |
\*---------------------------------------------------------------------------*/
FoamFile
{
    format      ascii;
    class       volScalarField;
    location    "23.702623";
    object      pMean;
}
// * * * * * * * * * * * * * * * * * * * * * * * * * * * * * * * * * * * * * //

dimensions      [0 2 -2 0 0 0 0];

internalField   nonuniform List<scalar> 
17140
(
1.8981511
1.8980259
1.8978747
1.8977204
1.8975534
1.8973712
1.8971735
1.8969599
1.8967298
1.8964828
1.8962187
1.895937
1.8956376
1.8953197
1.8949823
1.8946233
1.8942388
1.8938226
1.8933647
1.8928501
1.8922571
1.8915549
1.8907013
1.8896397
1.8882944
1.8865724
1.8843813
1.8816405
1.8782741
1.8741955
1.8692872
1.8634073
1.856401
1.848094
1.8382952
1.8268008
1.8134039
1.7979106
1.7801629
1.76007
1.7376483
1.7130669
1.6867071
1.6592197
1.6315476
1.6049843
1.5810563
1.5611174
1.5465364
1.5385027
1.5378689
1.54522
1.560962
1.5850833
1.6171496
1.6561051
1.700543
1.7479822
1.7971685
1.8440507
1.8888821
1.9236322
1.9551457
1.9674915
1.9839195
1.8962466
1.8961239
1.8959758
1.8958248
1.8956613
1.8954828
1.8952891
1.8950798
1.8948543
1.8946123
1.8943534
1.8940774
1.893784
1.8934727
1.8931423
1.8927908
1.8924146
1.8920075
1.8915597
1.8910565
1.8904763
1.8897886
1.8889514
1.8879087
1.886585
1.8848875
1.8827229
1.8800106
1.8766741
1.8726257
1.8677466
1.8618945
1.8549144
1.8466315
1.8368538
1.8253765
1.8119919
1.7965048
1.7787562
1.7586538
1.7362122
1.7115997
1.6851967
1.657654
1.6299251
1.6033009
1.579286
1.5593033
1.5447029
1.5366337
1.5359641
1.543283
1.5589714
1.583026
1.615024
1.6538703
1.6981809
1.7454914
1.7945469
1.8412972
1.8859827
1.9205942
1.951964
1.9642279
1.9812678
1.8917387
1.8916224
1.891482
1.8913385
1.8911831
1.8910133
1.890829
1.8906298
1.8904151
1.8901846
1.889938
1.8896751
1.8893957
1.8890994
1.8887852
1.8884513
1.8880942
1.8877081
1.8872838
1.8868067
1.886256
1.8856016
1.8848025
1.8838031
1.8825294
1.8808882
1.8787845
1.876136
1.872865
1.8688829
1.8640702
1.858283
1.8513652
1.8431402
1.8334141
1.8219796
1.8086262
1.793156
1.7754063
1.7552814
1.7327928
1.7081065
1.6816043
1.6539407
1.6260882
1.599355
1.5752139
1.5551184
1.5404442
1.532324
1.5315939
1.5388212
1.554387
1.5782964
1.6101349
1.6487783
1.6928526
1.7398821
1.7886762
1.835168
1.8796481
1.9141754
1.9455943
1.9581497
1.9760954
1.8847134
1.8846069
1.8844789
1.8843472
1.8842044
1.8840484
1.8838789
1.8836954
1.8834976
1.8832852
1.8830579
1.8828155
1.8825581
1.8822852
1.8819962
1.8816895
1.8813621
1.8810086
1.8806203
1.8801835
1.879678
1.8790748
1.8783338
1.8774008
1.8762034
1.8746487
1.8726393
1.8700886
1.8669176
1.8630374
1.8583278
1.8526425
1.8458233
1.8376912
1.8280489
1.8166854
1.8033861
1.7879482
1.7702041
1.7500525
1.7274997
1.7027102
1.6760678
1.6482361
1.6202142
1.5933285
1.5690257
1.5488019
1.5340381
1.525853
1.5250525
1.5321681
1.5475664
1.5712585
1.6028348
1.64113
1.6847883
1.7313445
1.7796951
1.825838
1.8701348
1.9047068
1.9364043
1.9496484
1.9687411
1.8753969
1.8753037
1.8751921
1.8750763
1.8749504
1.8748128
1.8746632
1.874501
1.8743259
1.8741378
1.8739363
1.8737216
1.8734935
1.873252
1.8729965
1.872726
1.8724377
1.872127
1.8717859
1.8714016
1.870955
1.8704183
1.8697528
1.8689058
1.8678074
1.8663665
1.8644817
1.8620601
1.8590204
1.8552748
1.8507023
1.8451543
1.838469
1.8304645
1.8209391
1.8096773
1.7964591
1.7810756
1.7633527
1.7431819
1.7205636
1.6956608
1.6688617
1.640845
1.6126442
1.5855897
1.5611242
1.5407871
1.5259571
1.5177373
1.5168839
1.5238899
1.5391077
1.5625476
1.5937994
1.6316707
1.6748167
1.7207826
1.7685936
1.8143221
1.8584191
1.8931084
1.9252338
1.9394839
1.9598523
1.8641594
1.8640824
1.8639909
1.8638945
1.8637896
1.8636746
1.8635493
1.8634133
1.8632663
1.863108
1.8629384
1.8627575
1.8625654
1.8623622
1.8621477
1.861921
1.8616799
1.8614205
1.8611355
1.8608133
1.8604361
1.8599775
1.8594004
1.8586543
1.8576717
1.8563651
1.8546298
1.8523643
1.8494835
1.8458995
1.8414928
1.8361133
1.8295942
1.8217501
1.8123747
1.8012472
1.7881412
1.7728413
1.7551651
1.7349962
1.712329
1.6873256
1.66038
1.6321919
1.603832
1.576621
1.552032
1.5316258
1.5167745
1.5085653
1.5077032
1.5146354
1.5296956
1.5528809
1.5837708
1.6211404
1.663691
1.7090012
1.7562064
1.8014925
1.8454014
1.8803291
1.9130318
1.928573
1.9502968
1.8515016
1.8514431
1.8513737
1.8512998
1.851219
1.8511302
1.8510331
1.8509274
1.8508128
1.8506891
1.8505564
1.8504146
1.8502641
1.850105
1.8499372
1.8497603
1.8495725
1.8493704
1.8491477
1.848894
1.8485926
1.848219
1.8477379
1.8471011
1.8462441
1.8450833
1.8435142
1.8414269
1.8387262
1.835323
1.8311034
1.8259175
1.8195917
1.8119371
1.8027428
1.7917825
1.7788236
1.763643
1.7460498
1.7259194
1.7032401
1.678174
1.6511237
1.6228123
1.59434
1.5670248
1.5423741
1.5219463
1.5071198
1.4989632
1.4981345
1.5050364
1.5199829
1.5429591
1.5735327
1.610426
1.6523705
1.6970448
1.7436847
1.7885885
1.8323321
1.8675458
1.9008957
1.9177756
1.9406357
1.8380287
1.8379902
1.8379442
1.8378949
1.8378407
1.8377807
1.8377146
1.8376422
1.8375634
1.8374779
1.8373858
1.8372872
1.8371823
1.8370715
1.8369547
1.8368316
1.8367009
1.8365598
1.8364027
1.83622
1.8359967
1.8357097
1.8353261
1.8347999
1.8340698
1.8330563
1.8316595
1.8297632
1.8272564
1.824046
1.8200261
1.8150487
1.8089366
1.8014954
1.7925103
1.7817496
1.7689748
1.7539552
1.7364917
1.7164517
1.6938186
1.6687548
1.6416735
1.6133221
1.5848102
1.5574689
1.5328228
1.5124105
1.497633
1.4895514
1.4887873
1.4956923
1.510567
1.5333896
1.5637124
1.6002325
1.6416459
1.6857447
1.7318838
1.7763941
1.8199487
1.8555448
1.8896463
1.9081425
1.9321578
1.8244113
1.8243936
1.8243721
1.8243485
1.8243221
1.8242922
1.8242589
1.8242217
1.8241805
1.8241354
1.8240863
1.8240333
1.8239766
1.8239165
1.8238531
1.823786
1.8237142
1.823635
1.8235436
1.8234313
1.8232841
1.8230806
1.82279
1.8223688
1.821759
1.820885
1.8196519
1.817946
1.815644
1.8126332
1.8088122
1.8040487
1.7981622
1.7909508
1.7821979
1.7716674
1.7591154
1.7443045
1.7270285
1.7071484
1.6846433
1.6596769
1.632672
1.6043964
1.5759493
1.5486812
1.5241103
1.5037502
1.4890383
1.4810373
1.480335
1.4872542
1.5021039
1.52484
1.5549798
1.5911825
1.6321338
1.6757425
1.7214661
1.7658471
1.8095698
1.8458215
1.8807781
1.9005235
1.9250073
1.8113395
1.8113425
1.8113454
1.8113475
1.8113489
1.8113494
1.8113488
1.8113471
1.8113441
1.8113398
1.8113342
1.8113275
1.8113198
1.8113111
1.8113014
1.8112905
1.8112771
1.8112588
1.8112309
1.8111854
1.8111092
1.8109823
1.8107755
1.8104481
1.809945
1.8091947
1.8081073
1.8065737
1.8044703
1.8016682
1.7980469
1.7934849
1.7878232
1.7808561
1.7723561
1.762085
1.749796
1.735248
1.7182299
1.6985983
1.6763295
1.6515882
1.6248038
1.5967526
1.5685179
1.5414574
1.5170583
1.4968203
1.4822053
1.4742803
1.4736428
1.4806223
1.4954977
1.5181892
1.5481974
1.584152
1.6247806
1.6681418
1.7137601
1.7581514
1.8019267
1.8386312
1.8739949
1.894526
1.9191134
1.7994618
1.7994843
1.7995101
1.7995366
1.7995644
1.7995938
1.7996247
1.799657
1.7996908
1.7997261
1.7997628
1.7998011
1.7998409
1.7998823
1.7999251
1.7999685
1.8000115
1.8000512
1.8000831
1.8000993
1.8000873
1.8000282
1.7998943
1.7996469
1.7992338
1.7985872
1.797622
1.7962343
1.7943038
1.7916993
1.7882872
1.7839312
1.7784801
1.7717496
1.7635171
1.7535367
1.7415583
1.7273393
1.7106665
1.6913945
1.669499
1.645146
1.6187692
1.5911303
1.5633041
1.5366337
1.5125595
1.4925651
1.4781089
1.4702907
1.4697294
1.4767114
1.4915465
1.5141642
1.5440335
1.5797761
1.6201396
1.6632781
1.7086962
1.7530001
1.7968379
1.8338639
1.8695506
1.8906106
1.9148626
1.7893303
1.78937
1.7894162
1.7894643
1.7895158
1.7895711
1.7896303
1.7896935
1.7897608
1.7898323
1.7899079
1.7899878
1.7900719
1.79016
1.7902517
1.7903462
1.7904416
1.7905354
1.7906223
1.7906947
1.7907402
1.7907405
1.7906689
1.7904885
1.7901494
1.7895871
1.7887207
1.7874519
1.7856649
1.7832301
1.780011
1.7758645
1.7706374
1.7641506
1.756194
1.7465305
1.7349128
1.7210982
1.7048744
1.6860965
1.6647409
1.6409731
1.6152243
1.5882304
1.5610481
1.5349813
1.5114257
1.4918328
1.4776496
1.4699406
1.4692925
1.4761262
1.490787
1.5132154
1.5428335
1.5782458
1.6182863
1.6612024
1.7065104
1.7509774
1.7950272
1.8322523
1.8675593
1.8883426
1.9114567
1.7813402
1.7813938
1.7814565
1.7815222
1.7815931
1.7816698
1.7817526
1.7818417
1.7819373
1.7820396
1.7821487
1.7822647
1.7823875
1.7825168
1.7826522
1.7827924
1.7829355
1.7830784
1.7832158
1.7833398
1.7834379
1.7834923
1.7834769
1.7833561
1.7830817
1.7825918
1.781809
1.7806398
1.7789747
1.7766878
1.7736417
1.7696936
1.7646932
1.7584683
1.7508197
1.7415173
1.7303212
1.7169958
1.7013382
1.6832063
1.6625779
1.6396134
1.614729
1.5886378
1.5623554
1.5371139
1.5142657
1.4952469
1.4813575
1.4736379
1.4727819
1.4793645
1.4937431
1.5158547
1.5450727
1.58006
1.619847
1.6627132
1.7081032
1.7525909
1.7963301
1.8327941
1.8672616
1.8869712
1.9089824
1.775694
1.7757573
1.7758315
1.7759099
1.7759946
1.776087
1.7761871
1.7762955
1.7764125
1.7765383
1.7766734
1.7768178
1.7769716
1.7771344
1.7773058
1.7774846
1.7776686
1.7778546
1.7780373
1.7782085
1.7783562
1.7784625
1.7785024
1.778441
1.7782319
1.7778149
1.7771149
1.776042
1.7744919
1.7723469
1.7694816
1.7657199
1.7609567
1.755016
1.7477074
1.7388136
1.7281203
1.7153953
1.7004403
1.6831219
1.6634202
1.6414863
1.6177118
1.5927717
1.5676159
1.5433958
1.5214357
1.5030133
1.4893603
1.4815533
1.4804442
1.4866559
1.5006361
1.5222785
1.5509393
1.5854723
1.6249862
1.6677927
1.7130608
1.7571173
1.7998648
1.8352711
1.8679866
1.8864065
1.9070298
1.7723706
1.7724388
1.7725193
1.7726044
1.7726969
1.7727981
1.7729083
1.7730282
1.7731583
1.7732991
1.773451
1.7736144
1.7737894
1.7739761
1.7741739
1.7743819
1.7745982
1.7748196
1.7750412
1.7752552
1.7754501
1.7756089
1.7757077
1.7757132
1.7755808
1.7752523
1.7746554
1.7737023
1.7722918
1.770307
1.7676269
1.7641573
1.7596715
1.7539855
1.7470704
1.7386709
1.7285587
1.7165335
1.7024191
1.6860865
1.6675112
1.6468285
1.6243945
1.600817
1.5769629
1.553939
1.532886
1.515015
1.5015576
1.4936158
1.4921544
1.4979288
1.5113857
1.5323904
1.5603937
1.5944564
1.6337261
1.6762748
1.7210084
1.76401
1.8052526
1.8386516
1.8692622
1.8862594
1.9056364
1.7711598
1.7712283
1.7713097
1.7713956
1.7714894
1.7715924
1.7717052
1.7718284
1.7719627
1.7721089
1.7722675
1.7724392
1.7726245
1.7728235
1.7730362
1.773262
1.7734996
1.7737463
1.7739979
1.7742479
1.7744858
1.7746966
1.7748583
1.7749406
1.7749015
1.774686
1.7742241
1.7734301
1.7722038
1.7704333
1.767999
1.76478
1.7605971
1.7554157
1.7489492
1.7410339
1.7316153
1.7204457
1.7073392
1.6921716
1.6749165
1.6556858
1.6347788
1.6127244
1.590328
1.5685082
1.5483326
1.5309795
1.5176306
1.5095025
1.5076563
1.5129157
1.5257251
1.5459915
1.5733232
1.6068934
1.6456512
1.6875365
1.7312793
1.7725899
1.8114508
1.8424036
1.8709447
1.8864761
1.9048298
1.7716669
1.7717317
1.7718092
1.7718907
1.7719799
1.7720783
1.7721864
1.7723051
1.7724352
1.7725776
1.772733
1.7729024
1.7730864
1.7732858
1.7735008
1.7737315
1.7739772
1.7742363
1.7745058
1.7747806
1.7750525
1.7753092
1.775532
1.7756945
1.77576
1.7756785
1.7753845
1.7747965
1.7738174
1.7723356
1.7702311
1.7673731
1.7636622
1.7589395
1.7530232
1.7459275
1.7373261
1.7270895
1.7151246
1.701287
1.6855273
1.6679118
1.6486726
1.6282776
1.6073435
1.5867059
1.5673795
1.5504326
1.5371395
1.5287851
1.5265207
1.5311934
1.5432598
1.5627636
1.5893361
1.6222573
1.6602109
1.7012548
1.7431081
1.7818343
1.817986
1.8463766
1.8729392
1.8871889
1.9046183
1.7734355
1.7734931
1.7735627
1.7736354
1.7737153
1.7738037
1.7739014
1.7740091
1.7741277
1.7742583
1.7744017
1.774559
1.7747314
1.7749196
1.7751246
1.775347
1.7755869
1.775844
1.7761165
1.7764016
1.7766937
1.776984
1.7772584
1.7774965
1.7776686
1.7777329
1.7776335
1.7772972
1.776633
1.7755329
1.7738773
1.7715348
1.7683873
1.7643034
1.7591876
1.7528489
1.7452088
1.7362007
1.725551
1.7131953
1.6990758
1.6832009
1.6657479
1.647021
1.6275353
1.6080579
1.5894509
1.5728464
1.5595611
1.5509489
1.5482202
1.5522161
1.563505
1.5821203
1.6079158
1.6400372
1.677298
1.7163131
1.7554985
1.7914526
1.8245416
1.8506623
1.8753863
1.8884204
1.9050335
1.7759662
1.7760146
1.7760734
1.7761346
1.776202
1.7762771
1.7763603
1.7764524
1.7765545
1.7766674
1.7767923
1.7769303
1.7770825
1.7772503
1.7774347
1.7776371
1.7778582
1.7780987
1.7783585
1.7786366
1.7789302
1.7792342
1.77954
1.7798338
1.7800943
1.7802912
1.7803809
1.7803042
1.7799846
1.7793259
1.7782149
1.7765247
1.7741269
1.7708841
1.7666918
1.761433
1.7550271
1.7472809
1.7381417
1.7274742
1.7151372
1.701121
1.6854779
1.668412
1.6503547
1.6319006
1.6139354
1.5975832
1.5842321
1.5753214
1.5720371
1.5752388
1.5856203
1.6034405
1.6285888
1.6600786
1.6955688
1.7317857
1.7683559
1.8007372
1.8313061
1.8552497
1.878309
1.8902067
1.9060833
1.7788379
1.7788763
1.7789231
1.7789717
1.7790255
1.7790855
1.7791524
1.7792268
1.7793097
1.7794019
1.7795045
1.7796187
1.7797456
1.7798866
1.7800432
1.7802168
1.7804089
1.7806208
1.7808536
1.7811079
1.7813834
1.7816785
1.7819891
1.7823082
1.7826235
1.7829163
1.7831583
1.7833092
1.7833131
1.783096
1.7825652
1.7816092
1.7801051
1.7779195
1.7749306
1.7710006
1.7660085
1.7598694
1.7524555
1.7435951
1.733173
1.7210649
1.7072403
1.6918139
1.6750424
1.6574945
1.640038
1.6238624
1.6103835
1.6010546
1.5970374
1.5994075
1.6091491
1.626519
1.6511714
1.6812462
1.7139946
1.7477149
1.7804627
1.8101683
1.8382543
1.8602147
1.8817447
1.8925591
1.9077759
1.781716
1.7817446
1.7817792
1.7818156
1.781856
1.7819013
1.781952
1.7820087
1.7820721
1.782143
1.7822224
1.7823114
1.7824111
1.7825228
1.782648
1.7827882
1.7829452
1.7831206
1.7833164
1.7835341
1.7837752
1.7840404
1.7843295
1.7846406
1.7849699
1.7853093
1.785645
1.7859558
1.7862099
1.7863628
1.7863535
1.7861021
1.7855098
1.7844591
1.7828222
1.7804585
1.7772282
1.772971
1.7675173
1.7607147
1.7523463
1.742217
1.7302155
1.7163009
1.7006847
1.6838886
1.6668131
1.6507021
1.6369693
1.6270755
1.622426
1.6243625
1.6339444
1.6511219
1.6748153
1.7024915
1.7328511
1.7628392
1.7926727
1.8196184
1.8454667
1.8655817
1.8857004
1.8954939
1.9101189
1.7844065
1.7844263
1.7844501
1.7844756
1.784504
1.7845359
1.7845718
1.7846121
1.7846575
1.7847088
1.7847667
1.7848321
1.7849057
1.7849886
1.785082
1.7851872
1.7853062
1.785441
1.7855936
1.7857663
1.7859612
1.7861809
1.7864278
1.7867038
1.7870104
1.7873477
1.787714
1.7881044
1.7885101
1.7889162
1.7892976
1.7896161
1.789817
1.789821
1.7895225
1.7887835
1.7874358
1.7852773
1.7820727
1.7775489
1.7714107
1.7633666
1.7531489
1.7406664
1.7260887
1.709914
1.6931017
1.6768948
1.6626875
1.6524222
1.6476553
1.6498785
1.6598453
1.6765102
1.6985017
1.7234926
1.7509256
1.7776527
1.8046359
1.8291766
1.8529754
1.8713742
1.8901915
1.8990171
1.9131143
1.7868282
1.7868404
1.786855
1.7868708
1.7868886
1.7869087
1.7869314
1.7869575
1.7869876
1.7870209
1.7870567
1.7870962
1.7871415
1.7871951
1.7872591
1.7873342
1.7874201
1.7875175
1.7876278
1.7877528
1.7878959
1.7880612
1.7882528
1.7884754
1.7887343
1.7890346
1.7893831
1.789788
1.7902569
1.7907974
1.7914169
1.7921193
1.7928967
1.7937251
1.7945474
1.7952604
1.7956986
1.7956168
1.7946965
1.7925503
1.7887376
1.782808
1.7744045
1.7633474
1.7497453
1.734075
1.7173175
1.7007692
1.6865456
1.6767112
1.6727729
1.6760132
1.6859946
1.7016414
1.7210965
1.7440709
1.767813
1.7920154
1.8165635
1.83888
1.8607909
1.877596
1.8952164
1.9031311
1.9167559
1.7890002
1.7890053
1.7890115
1.7890182
1.7890256
1.7890341
1.7890446
1.7890569
1.7890715
1.7890884
1.7891079
1.7891307
1.7891571
1.7891878
1.7892228
1.7892622
1.7893077
1.7893633
1.7894309
1.7895095
1.7896008
1.7897107
1.7898466
1.7900149
1.7902196
1.7904669
1.79077
1.7911455
1.7916126
1.7921943
1.7929179
1.7938241
1.7949485
1.7963071
1.7979
1.7996798
1.8015113
1.8031554
1.8042424
1.8042645
1.8026462
1.79879
1.7921743
1.7825017
1.7697628
1.7544622
1.7379257
1.7219179
1.7089798
1.7005243
1.6981771
1.701967
1.7116169
1.725239
1.7430543
1.762737
1.7843195
1.8061534
1.8284368
1.848736
1.8689222
1.8842531
1.9007768
1.9078331
1.9210382
1.7909275
1.7909253
1.7909227
1.7909201
1.7909174
1.7909146
1.7909121
1.7909102
1.7909099
1.7909114
1.7909133
1.7909135
1.7909123
1.7909116
1.7909134
1.7909208
1.7909365
1.7909629
1.7910007
1.7910464
1.7910989
1.7911641
1.7912498
1.7913625
1.79151
1.7917024
1.7919544
1.7922878
1.7927296
1.7933115
1.7940734
1.7950639
1.796341
1.7979584
1.7999608
1.8023484
1.80503
1.8077988
1.8102964
1.8119866
1.8121847
1.8101295
1.8051488
1.7966889
1.7848606
1.7705481
1.7554342
1.7413796
1.7303712
1.7240722
1.7227659
1.7266091
1.735313
1.7477953
1.7632075
1.7809457
1.8002934
1.8199983
1.8402984
1.8587619
1.8773738
1.8913451
1.9068661
1.9131176
1.9259581
1.7925567
1.7925469
1.7925353
1.7925232
1.79251
1.7924956
1.7924802
1.7924642
1.7924478
1.7924308
1.7924129
1.7923938
1.7923745
1.7923567
1.7923414
1.792329
1.7923186
1.7923094
1.7923041
1.7923076
1.792324
1.7923575
1.792411
1.7924879
1.7925983
1.7927568
1.7929772
1.7932783
1.7936871
1.7942382
1.7949742
1.7959507
1.7972334
1.7988972
1.8010146
1.8036217
1.8066726
1.8100091
1.8133226
1.816071
1.8175119
1.8167575
1.8129706
1.8058477
1.7957274
1.7835204
1.7707792
1.7592765
1.7509422
1.7462019
1.7453071
1.7496476
1.7573012
1.7687016
1.7824454
1.7982936
1.8158053
1.8336563
1.8521639
1.8689643
1.8861478
1.8988707
1.9134778
1.9189804
1.93151
1.7935874
1.7935714
1.7935525
1.7935325
1.793511
1.7934876
1.7934622
1.7934348
1.7934054
1.7933741
1.7933408
1.7933059
1.79327
1.7932335
1.7931973
1.7931627
1.7931311
1.793104
1.7930828
1.7930685
1.7930639
1.7930725
1.7930982
1.7931449
1.7932227
1.7933491
1.7935422
1.7938165
1.7941918
1.7947038
1.7954053
1.7963484
1.7975881
1.7992114
1.8012849
1.8038431
1.8069036
1.8103698
1.813944
1.8171198
1.8191678
1.8193722
1.8170462
1.8118388
1.8039529
1.7944158
1.7845434
1.7759532
1.7698356
1.7659767
1.7665592
1.7707269
1.7781898
1.7881773
1.8006666
1.8150383
1.8309349
1.847129
1.8640495
1.8793527
1.8952436
1.9068247
1.9206013
1.9254079
1.9376838
1.7937525
1.7937336
1.7937115
1.7936881
1.7936627
1.7936352
1.7936054
1.7935734
1.793539
1.7935024
1.7934636
1.7934229
1.7933806
1.7933371
1.7932931
1.7932495
1.7932073
1.7931681
1.7931339
1.793107
1.7930905
1.7930898
1.7931126
1.7931636
1.7932436
1.7933589
1.7935275
1.7937726
1.794111
1.7945665
1.7951941
1.7960504
1.797174
1.7986156
1.8004654
1.8028183
1.8056918
1.8090279
1.8126025
1.8160024
1.8186912
1.8199506
1.8191207
1.8158819
1.8104697
1.8037723
1.7967698
1.7909304
1.786419
1.7846359
1.7863708
1.7904298
1.7972694
1.8066119
1.8181124
1.831196
1.8457117
1.8604624
1.8759755
1.8899342
1.9046589
1.9152031
1.9282299
1.9324067
1.9444729
1.7927421
1.7927255
1.7927061
1.7926856
1.7926634
1.7926393
1.7926132
1.7925851
1.792555
1.7925229
1.792489
1.7924534
1.7924164
1.7923785
1.7923404
1.7923027
1.7922666
1.7922332
1.7922046
1.7921827
1.7921701
1.7921702
1.7921877
1.7922284
1.7923002
1.7924117
1.792572
1.7927977
1.7931122
1.7935348
1.7940956
1.794842
1.7958304
1.79714
1.7988533
1.8010319
1.8037145
1.8069059
1.81049
1.8141512
1.8173992
1.8196153
1.8202397
1.8189566
1.8160009
1.8119485
1.8077852
1.8043496
1.8020236
1.8020648
1.8041877
1.8085946
1.8153732
1.8241517
1.8348301
1.8468642
1.8601994
1.8736846
1.8879573
1.9007144
1.9143937
1.9240001
1.9363528
1.9399604
1.9518483
1.7907892
1.7907783
1.7907654
1.7907519
1.7907372
1.7907213
1.7907042
1.7906859
1.7906663
1.7906456
1.7906239
1.7906015
1.7905785
1.7905556
1.7905331
1.7905119
1.790493
1.7904778
1.7904678
1.7904652
1.7904725
1.7904933
1.7905315
1.7905923
1.7906808
1.7908056
1.7909777
1.791206
1.7915018
1.7918963
1.7924443
1.7931904
1.7941522
1.7953866
1.7970058
1.7991075
1.8017443
1.8049352
1.8086074
1.8125241
1.8162914
1.8194095
1.8213421
1.8218806
1.8211067
1.8195747
1.8181597
1.8167715
1.816487
1.8178205
1.8208958
1.8257371
1.8324641
1.8408896
1.8509476
1.8621093
1.8744418
1.8868291
1.9000134
1.9117029
1.9244479
1.9332102
1.9449578
1.9480544
1.9598082
1.7881063
1.7881014
1.7880957
1.7880898
1.7880835
1.7880768
1.7880698
1.7880625
1.788055
1.7880476
1.7880403
1.7880335
1.7880276
1.7880232
1.7880209
1.7880216
1.7880262
1.7880362
1.7880537
1.7880811
1.7881214
1.7881784
1.7882557
1.788356
1.7884823
1.7886445
1.7888579
1.7891495
1.7895452
1.7900398
1.7906458
1.7914244
1.7924409
1.7937592
1.7954553
1.7976153
1.8003142
1.8035968
1.8074212
1.8116348
1.8159152
1.8198299
1.8229694
1.8250947
1.8263084
1.8272761
1.827759
1.8283819
1.8300351
1.8326799
1.8365999
1.8419216
1.8487775
1.8569843
1.8665577
1.8770071
1.8884935
1.8999285
1.9121641
1.9229008
1.9348159
1.9428197
1.9540402
1.9566559
1.9683812
1.7849612
1.7849609
1.7849606
1.7849604
1.7849606
1.784961
1.7849619
1.7849636
1.784966
1.7849696
1.7849748
1.7849818
1.7849914
1.7850043
1.7850214
1.785044
1.7850734
1.7851116
1.7851611
1.7852247
1.7853061
1.7854082
1.7855351
1.7856918
1.7858929
1.7861611
1.7864977
1.7868968
1.7873835
1.7879923
1.7887509
1.789698
1.790882
1.7923596
1.7942119
1.7965367
1.7994173
1.8029146
1.8070252
1.8116294
1.816456
1.8211709
1.8253871
1.8289016
1.832085
1.8347489
1.8370573
1.839802
1.8429213
1.8467524
1.8515546
1.8574092
1.8644512
1.8725435
1.8817587
1.8916282
1.9024026
1.913015
1.9244242
1.9343141
1.9455023
1.952817
1.9635912
1.9657528
1.9775074
1.7812765
1.781279
1.7812822
1.781286
1.7812905
1.781296
1.7813027
1.781311
1.781321
1.7813333
1.7813485
1.7813671
1.7813902
1.7814186
1.7814538
1.7814974
1.7815514
1.7816183
1.7817013
1.781804
1.7819306
1.7820871
1.782282
1.7825242
1.7828224
1.7831847
1.7836242
1.7841579
1.7848059
1.7855921
1.7865462
1.7877019
1.7891041
1.7908279
1.7929596
1.7955877
1.7988123
1.802711
1.8072833
1.8124178
1.8178776
1.8234072
1.8285474
1.8334944
1.8381488
1.8424153
1.8466516
1.8508667
1.8553578
1.8603236
1.8659585
1.8723478
1.879635
1.8876929
1.8966443
1.9060432
1.91622
1.9261218
1.9368132
1.9459531
1.9565091
1.9631922
1.9736026
1.9753359
1.9871648
1.7767856
1.7767909
1.7767976
1.7768051
1.7768139
1.7768244
1.7768368
1.7768516
1.7768694
1.7768906
1.7769162
1.776947
1.7769842
1.7770292
1.7770839
1.7771503
1.7772311
1.7773294
1.7774493
1.7775953
1.7777732
1.7779911
1.7782559
1.7785762
1.7789641
1.779433
1.7799993
1.7806821
1.7815017
1.782481
1.78365
1.7850588
1.7867701
1.7888516
1.7913954
1.7945092
1.7982944
1.8028146
1.8080317
1.8138415
1.8200572
1.8262644
1.8325118
1.8387873
1.844848
1.8506357
1.8562551
1.8618565
1.8675806
1.8735673
1.8799904
1.8869091
1.8944653
1.9025417
1.9113034
1.9203196
1.9299935
1.9392811
1.9493482
1.9578259
1.9678278
1.9739556
1.9840502
1.9853998
1.9973392
1.7710788
1.7710884
1.7711002
1.7711133
1.7711285
1.7711462
1.7711668
1.771191
1.7712194
1.7712528
1.7712924
1.7713392
1.7713948
1.771461
1.77154
1.7716345
1.7717476
1.7718834
1.7720464
1.7722422
1.7724775
1.7727603
1.7731002
1.7735083
1.7739992
1.7745884
1.775291
1.776128
1.777128
1.7783281
1.7797726
1.7815167
1.7836314
1.7862086
1.7893536
1.7931729
1.7977469
1.8030917
1.8091391
1.8157913
1.8227274
1.8298833
1.8374145
1.8448708
1.8521342
1.8591797
1.8660968
1.8729163
1.87974
1.8866612
1.8938139
1.9012353
1.9090686
1.9171969
1.9258214
1.9345228
1.9437705
1.9525251
1.9620471
1.969938
1.9794602
1.9850834
1.9949233
1.9959217
2.0079955
1.7637928
1.7638089
1.7638285
1.7638501
1.7638747
1.7639031
1.7639357
1.7639733
1.7640169
1.7640674
1.7641263
1.7641949
1.7642752
1.7643693
1.76448
1.7646103
1.764764
1.7649458
1.7651611
1.7654158
1.7657178
1.7660782
1.7665066
1.7670146
1.7676164
1.7683321
1.7691881
1.7702131
1.7714433
1.772926
1.7747222
1.7769101
1.7795842
1.7828522
1.7868212
1.7915756
1.7971473
1.8034979
1.8105542
1.8180921
1.8259923
1.8344796
1.8430645
1.8515769
1.8599523
1.8681915
1.8762644
1.8841805
1.8919956
1.8997583
1.9075759
1.915464
1.9235641
1.9317585
1.9402791
1.9487154
1.9575958
1.9658831
1.9749254
1.9823044
1.99139
1.9965838
2.0061894
2.0068927
2.0190883
1.7546526
1.7546777
1.7547081
1.7547411
1.7547785
1.7548211
1.7548697
1.7549251
1.7549886
1.7550615
1.7551452
1.7552418
1.7553534
1.7554827
1.7556323
1.7558043
1.7560049
1.7562429
1.7565218
1.7568457
1.7572237
1.757668
1.7581931
1.7588142
1.75955
1.7604251
1.7614711
1.7627289
1.7642521
1.7661096
1.7683876
1.7711898
1.7746308
1.7788244
1.7838563
1.7897647
1.7965262
1.8040698
1.8122273
1.8208258
1.8301316
1.8397197
1.8493043
1.8588786
1.868386
1.8777292
1.8868672
1.8957768
1.9044809
1.9129972
1.9214105
1.9297179
1.9380611
1.9463196
1.9547523
1.9629552
1.9715105
1.9793863
1.9880023
1.9949259
2.0036266
2.0084499
2.0178389
2.0182624
2.0306477
1.7433959
1.7434322
1.743476
1.7435234
1.7435768
1.7436374
1.743706
1.7437836
1.7438712
1.7439694
1.7440792
1.7442056
1.7443562
1.7445307
1.7447257
1.7449472
1.7452037
1.7455015
1.7458477
1.7462505
1.7467193
1.7472661
1.7479074
1.748664
1.7495622
1.7506369
1.7519339
1.7535132
1.7554524
1.7578488
1.7608176
1.7644841
1.7689699
1.7743673
1.7807103
1.7879911
1.7961205
1.8049587
1.8143214
1.8244071
1.8349308
1.8455207
1.8562247
1.8669375
1.8775283
1.8879135
1.8980316
1.9078378
1.9173336
1.9265132
1.9354455
1.9441138
1.9526609
1.960966
1.9693101
1.9772986
1.9855561
1.9930578
2.0012869
2.0078119
2.0161669
2.0206971
2.0298559
2.0302347
2.0424809
1.7300508
1.730101
1.7301585
1.7302168
1.7302816
1.7303615
1.7304603
1.7305696
1.7306833
1.7308083
1.7309516
1.7311158
1.7313035
1.7315182
1.731764
1.7320453
1.7323676
1.7327369
1.7331605
1.7336497
1.7342188
1.7348846
1.7356695
1.7366026
1.7377228
1.7390815
1.7407466
1.742805
1.7453645
1.7485508
1.752499
1.7573352
1.7631582
1.770005
1.7778648
1.7866755
1.7962292
1.806393
1.8173228
1.8287793
1.8403988
1.8521972
1.864079
1.8758893
1.8875247
1.8988864
1.9099003
1.9205077
1.9306958
1.9404443
1.9498113
1.9587725
1.967471
1.9757896
1.9840281
1.9918019
1.9997722
2.0069279
2.0147926
2.0209592
2.0289822
2.0332728
2.0421876
2.0423927
2.054544
1.7147079
1.714775
1.7148438
1.714913
1.7149945
1.7150892
1.7151975
1.7153213
1.7154634
1.7156275
1.7158182
1.7160385
1.7162852
1.7165548
1.7168519
1.7171871
1.7175695
1.7180072
1.7185104
1.7190926
1.719771
1.7205686
1.7215159
1.7226539
1.7240373
1.7257388
1.7278527
1.7304969
1.7338112
1.737949
1.7430612
1.7492647
1.7566315
1.7651586
1.7747606
1.7852409
1.7964819
1.808484
1.8210516
1.8338081
1.8467697
1.8598499
1.8728979
1.8857986
1.8984382
1.9107123
1.9225407
1.9338575
1.9446422
1.9548662
1.9645828
1.9737629
1.9825536
1.9908442
1.9989497
2.0065006
2.0141823
2.021007
2.0285243
2.0343766
2.0420846
2.0462837
2.0549508
2.0557278
2.068456
1.6972359
1.6973144
1.697409
1.6975109
1.6976232
1.6977481
1.6978874
1.6980428
1.698216
1.6984096
1.6986262
1.6988688
1.6991413
1.699448
1.6997947
1.7001882
1.7006372
1.701153
1.7017499
1.7024471
1.7032702
1.7042532
1.705442
1.7068977
1.7087003
1.710953
1.7137832
1.7173414
1.7217922
1.7272989
1.733995
1.7419589
1.7512114
1.7616283
1.7730991
1.7854565
1.798648
1.8124199
1.8263893
1.8405954
1.8549496
1.8692965
1.8835192
1.8974918
1.9110946
1.9242212
1.9367882
1.9487272
1.9600138
1.9706191
1.9805896
1.9899032
1.9987081
2.0069073
2.0148271
2.0221187
2.0294839
2.0359667
2.043122
2.0486694
2.0560345
2.0602041
2.0683675
2.0705246
2.0800889
1.6794061
1.6794986
1.6796116
1.6797284
1.6798572
1.6800006
1.68016
1.6803373
1.6805345
1.6807544
1.681
1.6812751
1.6815844
1.6819334
1.6823296
1.6827824
1.6833041
1.683911
1.6846248
1.6854747
1.6864996
1.6877519
1.6893004
1.6912349
1.693669
1.696742
1.7006156
1.7054649
1.7114611
1.7187459
1.7274004
1.7374494
1.7487701
1.76122
1.7747448
1.7889872
1.8038091
1.818924
1.8343539
1.849981
1.865639
1.8811973
1.8965185
1.9114678
1.9259227
1.9397747
1.9529412
1.9653559
1.9769952
1.9878332
1.9979182
2.0072373
2.015941
2.0239563
2.0316065
2.0385874
2.0455785
2.0517078
2.0584593
2.0637248
2.070723
2.0748321
2.0826732
2.0851307
2.0942079
1.6634273
1.6635296
1.6636544
1.6637831
1.6639246
1.6640818
1.6642561
1.6644496
1.6646645
1.664904
1.6651718
1.6654724
1.6658116
1.666197
1.6666387
1.6671496
1.6677473
1.6684555
1.6693056
1.67034
1.671615
1.6732046
1.6752043
1.6777345
1.6809419
1.6849968
1.6900845
1.696389
1.7040683
1.7132234
1.7238844
1.735977
1.7493362
1.7639618
1.7791736
1.7949692
1.8112622
1.827923
1.8447997
1.8617314
1.8785817
1.8952044
1.9114576
1.9272055
1.9423254
1.9567127
1.970289
1.9829938
1.9948068
2.0057102
2.0157547
2.0249449
2.0334315
2.041172
2.0484768
2.0550991
2.0616733
2.0674424
2.0737605
2.078785
2.0853571
2.0895412
2.096872
2.1002143
2.1082454
1.6521931
1.6523001
1.6524304
1.6525646
1.6527119
1.6528753
1.6530563
1.653257
1.6534804
1.6537299
1.65401
1.6543264
1.6546869
1.6551014
1.6555835
1.6561514
1.6568295
1.6576505
1.6586582
1.6599109
1.6614845
1.6634767
1.6660103
1.6692345
1.6733232
1.6784674
1.6848604
1.6926753
1.7020363
1.7129918
1.7254997
1.7394173
1.7546728
1.7706707
1.7872438
1.8046235
1.8223837
1.8403654
1.8584379
1.876453
1.8942613
1.911713
1.9286622
1.9449732
1.9605261
1.9752221
1.9889885
2.0017728
2.01356
2.0243439
2.0341791
2.0430926
2.0512337
2.058595
2.0654669
2.0716703
2.0777718
2.0831582
2.0890114
2.0937922
2.099928
2.1041408
2.1110373
2.1147331
2.1223659
1.6473175
1.6474244
1.6475538
1.6476875
1.6478339
1.6479963
1.6481762
1.6483763
1.6485996
1.6488505
1.6491345
1.6494589
1.6498336
1.6502721
1.6507922
1.6514183
1.652183
1.6531297
1.6543161
1.6558171
1.6577292
1.660173
1.6632958
1.6672697
1.6722862
1.6785437
1.6862274
1.6954828
1.7063874
1.7189294
1.7330021
1.7484547
1.7649273
1.7821426
1.800302
1.8188616
1.8377077
1.8566953
1.8756681
1.8944714
1.9129481
1.9309421
1.9483061
1.9649067
1.9806292
1.9953819
2.0090983
2.0217351
2.0332844
2.0437519
2.0532041
2.061688
2.0693527
2.0762275
2.0825762
2.0882915
2.093865
2.0988348
2.1041949
2.1087237
2.1144203
2.1186776
2.1251602
2.1293986
2.1366541
1.6509237
1.6510253
1.651147
1.6512741
1.6514133
1.6515678
1.6517394
1.6519309
1.6521461
1.6523902
1.6526699
1.6529944
1.6533764
1.6538327
1.6543866
1.6550689
1.655921
1.6569976
1.65837
1.6601298
1.6623918
1.6652965
1.6690098
1.6737188
1.6796219
1.6869123
1.6957541
1.7062557
1.7184447
1.7322548
1.7475329
1.764059
1.7815689
1.7999682
1.8189003
1.8382242
1.8577696
1.8773734
1.8968729
1.9161022
1.9348964