/*--------------------------------*- C++ -*----------------------------------*\
  =========                 |
  \\      /  F ield         | OpenFOAM: The Open Source CFD Toolbox
   \\    /   O peration     | Website:  https://openfoam.org
    \\  /    A nd           | Version:  13
     \\/     M anipulation  |
\*---------------------------------------------------------------------------*/
FoamFile
{
    format      ascii;
    class       volVectorField;
    location    "31.701717";
    object      U;
}
// * * * * * * * * * * * * * * * * * * * * * * * * * * * * * * * * * * * * * //

dimensions      [0 1 -1 0 0 0 0];

internalField   nonuniform List<vector> 
17140
(
(-6.8737901e-07 4.5050877e-05 2.5515509e-23)
(-3.6725807e-06 0.00013819177 2.8260773e-24)
(-9.0713445e-06 0.00024070161 -1.8650975e-22)
(-1.7786176e-05 0.0003549554 2.0496587e-22)
(-3.0718226e-05 0.00048362538 -2.3950938e-23)
(-4.9084444e-05 0.00062966901 7.8353503e-23)
(-7.4398292e-05 0.00079632486 1.3183357e-22)
(-0.00010852312 0.00098709232 -6.4292434e-23)
(-0.00015374699 0.0012056961 -2.1027214e-22)
(-0.00021287145 0.0014560298 -5.151607e-22)
(-0.00028931154 0.0017420734 7.6272456e-22)
(-0.00038721204 0.0020677795 -6.784916e-22)
(-0.00051157992 0.0024369213 -1.0365562e-22)
(-0.00066843326 0.0028528959 5.8434296e-22)
(-0.00086496565 0.0033184757 -6.4666118e-23)
(-0.0011097231 0.0038355032 5.1016684e-22)
(-0.0014127889 0.0044045253 -1.8839803e-23)
(-0.0017859675 0.0050243663 4.2636719e-24)
(-0.0022429555 0.0056916466 2.9623834e-22)
(-0.0027994809 0.0064002599 -3.8046485e-22)
(-0.0034733854 0.0071408376 1.813658e-22)
(-0.004284616 0.0079002414 -3.4102184e-23)
(-0.0052550808 0.0086611475 -2.4750038e-22)
(-0.0064083142 0.0094018107 2.4289905e-22)
(-0.0077688836 0.010096123 3.7894676e-22)
(-0.0093614596 0.010714118 -2.9805914e-22)
(-0.011209472 0.011223107 -1.4339243e-21)
(-0.013333289 0.011589701 -1.6539376e-22)
(-0.015747912 0.011783006 1.4155033e-21)
(-0.018460344 0.011779289 3.2328545e-22)
(-0.02146706 0.011568041 1.1217692e-21)
(-0.024752452 0.011158171 -1.4291596e-21)
(-0.028289458 0.010580838 3.5960363e-22)
(-0.032043262 0.0098843358 1.6438714e-22)
(-0.035977333 0.009120593 1.5358264e-21)
(-0.040058957 0.0083307108 -6.3791018e-22)
(-0.044261508 0.0075382005 9.1673975e-22)
(-0.048563552 0.0067506627 5.9280047e-22)
(-0.05294711 0.005964475 2.6085855e-22)
(-0.057396878 0.0051682978 -7.6586398e-22)
(-0.061900815 0.0043440003 -1.4158315e-21)
(-0.066451977 0.0034652503 -1.2685535e-21)
(-0.071051511 0.0024941286 -5.5081514e-22)
(-0.075711665 0.0013762424 2.6875028e-21)
(-0.080461043 3.4535714e-05 1.9783927e-21)
(-0.085350133 -0.0016401112 -4.9021328e-22)
(-0.090445081 -0.0037954283 3.3794275e-21)
(-0.095831056 -0.0066255405 1.161085e-21)
(-0.10160546 -0.010389695 -1.1966261e-21)
(-0.10786998 -0.015426525 -2.9630825e-21)
(-0.11469463 -0.022169801 1.8393021e-21)
(-0.12211871 -0.031171537 1.1694081e-21)
(-0.13004087 -0.043080937 -3.06113e-21)
(-0.13829169 -0.058603508 -1.4500804e-21)
(-0.14632532 -0.078225282 -1.0262943e-21)
(-0.15361431 -0.10176244 8.0672915e-22)
(-0.15883255 -0.1271051 -2.1284329e-21)
(-0.16149481 -0.14938042 -1.7473218e-21)
(-0.1595387 -0.16126259 -4.2521184e-22)
(-0.15690312 -0.14847587 1.0767414e-21)
(-0.14681997 -0.092663489 8.2908757e-22)
(-0.12644791 0.02226325 2.8137323e-21)
(-0.051915603 0.18268428 3.0604318e-22)
(0.036320758 0.30675256 -1.9505687e-21)
(0.12461455 0.33726634 9.8803443e-22)
(-3.2136023e-06 7.6638652e-05 -7.284998e-24)
(-1.1490603e-05 0.00023602202 9.8110757e-22)
(-2.2698912e-05 0.00041169157 -8.728558e-22)
(-3.7864529e-05 0.00060664554 2.3785721e-22)
(-5.7980844e-05 0.0008242218 4.9119407e-22)
(-8.4371271e-05 0.0010680744 -9.3812126e-22)
(-0.00011866858 0.001342166 9.7724567e-22)
(-0.00016285946 0.0016507399 -8.5937682e-23)
(-0.00021936151 0.0019982742 2.6804235e-22)
(-0.0002911075 0.0023894094 4.5474038e-24)
(-0.00038164275 0.0028288479 8.9244526e-22)
(-0.00049523585 0.0033212145 -1.415175e-21)
(-0.00063700502 0.0038708732 -1.1659805e-22)
(-0.00081305895 0.0044816908 1.1472747e-21)
(-0.0010306513 0.0051567408 -3.5085497e-22)
(-0.001298346 0.0058979396 -2.2172226e-22)
(-0.0016261882 0.0067056113 1.3977876e-21)
(-0.0020258725 0.0075779791 -4.5169141e-21)
(-0.0025108974 0.0085105899 2.8008389e-21)
(-0.0030966862 0.0094956853 -3.3179849e-21)
(-0.0038006527 0.010521548 4.8361978e-21)
(-0.0046421769 0.011571864 -1.16808e-21)
(-0.0056424506 0.012625179 -4.7288463e-22)
(-0.0068241387 0.013654525 1.5194616e-21)
(-0.0082107934 0.014627356 -5.3574135e-21)
(-0.0098259482 0.015505966 -7.8453674e-22)
(-0.011691818 0.016248597 3.9749296e-21)
(-0.013827555 0.016811577 -4.3663086e-21)
(-0.016247057 0.017152925 5.8699487e-22)
(-0.018956513 0.017237949 5.6205945e-21)
(-0.021952096 0.017047106 -5.6565125e-22)
(-0.025218653 0.016584911 -4.2268416e-21)
(-0.028730468 0.015885637 -1.055509e-22)
(-0.032454813 0.015009151 2.9202369e-21)
(-0.03635753 0.01402467 -3.1077659e-21)
(-0.040408024 0.012991098 1.3334043e-21)
(-0.044581254 0.01194616 -1.4897872e-21)
(-0.048856898 0.010907047 -4.5404731e-21)
(-0.053217838 0.0098763064 -9.8244312e-22)
(-0.057649622 0.008847021 -3.731576e-21)
(-0.062141287 0.0078050707 4.677007e-21)
(-0.066687458 0.0067285716 4.266441e-21)
(-0.071291552 0.0055848846 7.2844133e-22)
(-0.075969253 0.0043258847 -5.8412261e-21)
(-0.08075437 0.0028819707 2.8022518e-21)
(-0.085704239 0.0011504624 9.8311664e-22)
(-0.090894807 -0.0010128192 -5.166174e-22)
(-0.096424976 -0.003799654 -1.6810112e-21)
(-0.10241041 -0.0074709875 8.2960069e-22)
(-0.10897623 -0.012374527 -1.5530303e-21)
(-0.11622232 -0.01896259 -9.33554e-21)
(-0.12422049 -0.027818528 -4.3627341e-22)
(-0.13290111 -0.039640288 2.0088009e-21)
(-0.14209806 -0.055204723 -4.5616588e-21)
(-0.15120764 -0.075091965 3.8540545e-21)
(-0.15951905 -0.099225842 -1.0854957e-20)
(-0.16529925 -0.12554407 -3.0548924e-21)
(-0.16743339 -0.1491689 8.2688295e-21)
(-0.16459075 -0.16233474 -1.346401e-21)
(-0.16009018 -0.1509061 -1.5226557e-21)
(-0.14766284 -0.098003647 -2.8069392e-22)
(-0.12793351 0.0081983579 2.7856191e-21)
(-0.06334604 0.15819743 -4.612874e-21)
(0.018588449 0.27964218 -8.5446183e-22)
(0.11417336 0.31283994 -1.3329369e-21)
(-7.5576407e-06 0.00010842924 -4.0237001e-22)
(-2.4879142e-05 0.000334492 2.9733734e-22)
(-4.6049072e-05 0.0005838099 7.9061951e-23)
(-7.219857e-05 0.00086000268 -7.4933133e-23)
(-0.00010445359 0.0011670683 3.6302271e-22)
(-0.0001442723 0.0015093514 2.7000238e-23)
(-0.00019342878 0.0018915321 3.4455682e-22)
(-0.00025405518 0.0023185908 3.7097402e-22)
(-0.00032871546 0.002795751 -3.0285136e-21)
(-0.00042048504 0.0033283934 2.7007168e-21)
(-0.00053304239 0.0039219359 -1.2904253e-21)
(-0.00067077227 0.0045816699 -1.8873314e-21)
(-0.00083888273 0.0053125467 3.7333339e-21)
(-0.0010435344 0.0061189028 4.6088998e-22)
(-0.0012919813 0.0070041166 -1.7721467e-21)
(-0.0015927198 0.0079701883 -1.212625e-21)
(-0.0019556413 0.0090172359 1.3978673e-21)
(-0.0023921798 0.010142907 -5.0242994e-21)
(-0.0029154446 0.011341712 2.9434468e-21)
(-0.003540319 0.012604285 -1.441349e-21)
(-0.0042835054 0.013916619 4.801862e-21)
(-0.0051634836 0.015259294 1.2319123e-21)
(-0.006200346 0.016606798 -2.5325297e-21)
(-0.0074154591 0.017927019 3.7503059e-21)
(-0.0088308924 0.019181052 1.4528471e-21)
(-0.010468549 0.020323511 -1.712222e-21)
(-0.012348931 0.021303604 -9.5473605e-21)
(-0.014489499 0.02206737 -4.2421146e-21)
(-0.016902644 0.022561669 2.0728443e-21)
(-0.019593452 0.022740692 -2.1767047e-21)
(-0.022557719 0.022575578 1.3247573e-21)
(-0.025780947 0.022066058 7.318212e-21)
(-0.029239276 0.021249094 -2.3750049e-21)
(-0.032902792 0.020195838 -6.8205926e-21)
(-0.03674043 0.018992806 2.1668917e-21)
(-0.040724231 0.017716977 2.9113846e-21)
(-0.044830953 0.016420658 -4.8316609e-21)
(-0.049041324 0.015130965 -1.4266385e-21)
(-0.053338809 0.013856892 2.4351719e-21)
(-0.057709365 0.012596226 9.4736117e-22)
(-0.062142488 0.011339207 -4.5232002e-21)
(-0.066633559 0.010068864 1.2808844e-21)
(-0.071187177 0.0087584717 1.8455871e-21)
(-0.075821056 0.0073670636 4.9783171e-21)
(-0.080572464 0.0058334328 -9.6116272e-21)
(-0.085502771 0.0040625329 6.3543432e-21)
(-0.090694174 0.0019152733 1.6503872e-21)
(-0.096254773 -0.00079608854 6.6047826e-21)
(-0.10231225 -0.0043324147 8.0719531e-21)
(-0.10900696 -0.0090487214 4.0860175e-22)
(-0.11645765 -0.015414772 -1.8743567e-21)
(-0.12475438 -0.024046439 1.3416092e-20)
(-0.13383879 -0.035697901 5.7520765e-21)
(-0.14351824 -0.051236862 5.8991425e-21)
(-0.15308375 -0.071372311 1.9721309e-21)
(-0.16160174 -0.096222856 1.4806633e-20)
(-0.1669163 -0.12390307 -5.8275352e-21)
(-0.16783153 -0.14918521 1.610899e-21)
(-0.16129467 -0.16371562 1.2785426e-20)
(-0.15232908 -0.15425164 4.7075314e-21)
(-0.13454693 -0.10424642 -4.7907924e-21)
(-0.11174892 -0.005063577 -1.5126695e-20)
(-0.051213372 0.1350491 3.9094694e-21)
(0.026967451 0.25217234 4.7961769e-21)
(0.13171299 0.28496529 1.6401438e-21)
(-1.373722e-05 0.00013989785 1.3515205e-21)
(-4.3930788e-05 0.00043198614 -2.150249e-21)
(-7.9265725e-05 0.00075424323 7.7730689e-22)
(-0.00012099959 0.0011108969 -8.4470292e-23)
(-0.00017041938 0.0015065902 1.6695697e-21)
(-0.00022914307 0.0019463433 -1.7266276e-21)
(-0.00029910915 0.0024355378 2.617905e-21)
(-0.00038261541 0.0029798754 -1.2307243e-21)
(-0.00048238798 0.0035853099 -4.6758845e-21)
(-0.00060165453 0.0042579482 1.1229919e-21)
(-0.000744228 0.0050039123 4.2722401e-21)
(-0.00091459985 0.0058291532 -1.3020164e-21)
(-0.0011180447 0.0067392076 -8.6712258e-23)
(-0.001360735 0.0077388883 3.3921013e-21)
(-0.0016498634 0.0088318953 -1.0577783e-20)
(-0.0019937722 0.010020342 6.4678378e-21)
(-0.0024020821 0.011304187 6.1354884e-23)
(-0.0028858151 0.012680568 -3.5391507e-21)
(-0.0034574997 0.014143045 8.9246241e-21)
(-0.0041312439 0.015680762 -4.1772592e-21)
(-0.0049227552 0.017277557 -6.1719377e-21)
(-0.0058492799 0.018911074 -2.4745352e-21)
(-0.0069294273 0.020551934 1.2094261e-20)
(-0.0081828343 0.022163089 6.2454469e-21)
(-0.0096296164 0.023699493 -3.9807463e-21)
(-0.011289547 0.025108291 2.2950606e-21)
(-0.013180906 0.026329842 -8.4814366e-21)
(-0.015318974 0.027300024 2.4049623e-21)
(-0.017714201 0.027954552 -6.3869907e-21)
(-0.020370266 0.028236344 3.5538122e-21)
(-0.023282459 0.028106806 -2.1635811e-21)
(-0.026437091 0.027560159 7.7373122e-21)
(-0.029812618 0.026635124 -1.0789454e-21)
(-0.033382634 0.025413325 5.5157858e-21)
(-0.037119896 0.023998236 -5.0706649e-21)
(-0.040999612 0.022485104 -1.565615e-21)
(-0.045000564 0.020941287 1.860825e-20)
(-0.049104456 0.019404327 4.685469e-21)
(-0.053295034 0.017890065 -3.765095e-21)
(-0.057558162 0.016401324 3.6219389e-21)
(-0.061883106 0.01493306 -9.3223079e-22)
(-0.066265087 0.013473655 -5.7329372e-21)
(-0.070708645 0.012002891 2.6214311e-22)
(-0.075231938 0.010487812 1.9639718e-21)
(-0.079873648 0.0088765521 -9.8209613e-22)
(-0.084695911 0.0070826603 5.2577583e-22)
(-0.089783097 0.0049738491 1.4898671e-21)
(-0.095247201 0.0023681136 -2.3013325e-20)
(-0.10122053 -0.0009936028 2.6594396e-21)
(-0.10784877 -0.0054717095 -2.4803604e-21)
(-0.11525629 -0.011552189 2.3713625e-20)
(-0.12353476 -0.019884539 -1.3078262e-20)
(-0.132614 -0.031287482 -1.0945518e-20)
(-0.14224197 -0.0467418 -1.0481939e-20)
(-0.15156146 -0.067123855 -1.0053043e-20)
(-0.1593211 -0.092752222 -1.546865e-20)
(-0.16303845 -0.1218325 3.0027615e-20)
(-0.16058747 -0.14948582 -1.7567923e-20)
(-0.14910868 -0.16621576 -2.4370663e-20)
(-0.13319866 -0.15879297 1.5303008e-20)
(-0.10741596 -0.11149002 4.5689778e-21)
(-0.078487946 -0.018547781 4.3505765e-21)
(-0.016914065 0.1131796 -1.0028836e-20)
(0.062043487 0.22466832 -7.0302516e-21)
(0.18192828 0.25349184 4.9302505e-22)
(-2.1720721e-05 0.00017047212 -9.5475732e-22)
(-6.8549068e-05 0.00052673414 3.169633e-21)
(-0.00012218103 0.00091990343 -2.583609e-21)
(-0.00018402087 0.0013547941 9.761626e-22)
(-0.00025554349 0.0018366699 3.5258621e-22)
(-0.00033855017 0.0023712012 -3.0330036e-21)
(-0.00043516526 0.0029644463 7.6779031e-22)
(-0.00054787072 0.0036228034 1.6297189e-21)
(-0.00067956891 0.0043529337 1.2493209e-22)
(-0.0008336478 0.00516165 1.0608582e-21)
(-0.0010140547 0.006055763 -1.4842742e-21)
(-0.0012253774 0.0070418743 1.0303707e-21)
(-0.0014729331 0.0081261072 3.7917442e-21)
(-0.0017628657 0.0093137637 1.1023754e-22)
(-0.0021022462 0.010608896 -2.8857561e-21)
(-0.002499178 0.01201378 -2.0382771e-21)
(-0.0029628974 0.013528293 1.7479742e-21)
(-0.0035038674 0.015149167 -1.6645499e-22)
(-0.0041338507 0.016869157 -3.3737853e-21)
(-0.0048659522 0.018676093 -4.0856679e-21)
(-0.0057146103 0.020551888 4.6277238e-21)
(-0.0066955145 0.022471512 4.6149052e-21)
(-0.0078254181 0.024402031 -6.1470035e-21)
(-0.0091218072 0.026301808 7.5251736e-21)
(-0.01060238 0.028120022 1.2889996e-20)
(-0.012284284 0.029796723 -2.998108e-20)
(-0.014183067 0.031263768 1.6280057e-20)
(-0.016311328 0.032447143 -2.3785999e-20)
(-0.018677125 0.033271551 2.9257342e-20)
(-0.021282369 0.033668502 -3.2102803e-20)
(-0.024121665 0.033589136 3.2532127e-20)
(-0.027182195 0.033021113 -5.3388969e-21)
(-0.030445096 0.03200345 -1.7921989e-20)
(-0.033888096 0.030626828 9.7570684e-21)
(-0.037488481 0.029010911 -2.9294375e-21)
(-0.041225177 0.02726929 -8.1000747e-22)
(-0.045079249 0.025484968 -9.6684105e-21)
(-0.04903332 0.023706573 -3.0351437e-21)
(-0.053071083 0.021957317 -2.9932052e-21)
(-0.057177757 0.020245459 -2.866087e-21)
(-0.061341597 0.018571024 1.4439035e-20)
(-0.065556627 0.016928149 -6.3130745e-21)
(-0.069825919 0.015303685 -1.0161083e-21)
(-0.074166354 0.013673473 1.1760823e-20)
(-0.078615449 0.011995749 6.0443051e-21)
(-0.083232374 0.010193648 -2.9948738e-21)
(-0.088099042 0.0081434176 -1.1211145e-20)
(-0.093324924 0.0056704185 4.9107778e-21)
(-0.099038016 0.0025190745 -1.483011e-20)
(-0.10537719 -0.0016744805 -8.2276343e-21)
(-0.11245594 -0.0074107392 -1.1472309e-20)
(-0.12034607 -0.01537348 -3.1581691e-20)
(-0.12893597 -0.026453632 2.4591806e-20)
(-0.13787772 -0.041766038 -8.2286406e-21)
(-0.14612763 -0.062396826 1.3819478e-20)
(-0.15209272 -0.088939892 1.2889649e-20)
(-0.1527046 -0.11988847 4.9658653e-21)
(-0.14521831 -0.15005327 4.1279615e-20)
(-0.12666643 -0.16933685 1.0025979e-20)
(-0.10173283 -0.16455989 -2.0107699e-20)
(-0.065946078 -0.11985113 -5.4148114e-21)
(-0.028126935 -0.032538255 4.119594e-21)
(0.038862781 0.092237768 5.7622803e-21)
(0.12424542 0.19681379 7.2522895e-21)
(0.26772446 0.21829205 -5.8403244e-22)
(-3.1411017e-05 0.00019954951 -2.9192176e-21)
(-9.8436012e-05 0.00061687438 -1.0303259e-21)
(-0.00017427695 0.0010775438 8.3398716e-22)
(-0.00026050351 0.0015869272 3.0792509e-21)
(-0.00035880286 0.0021508737 -1.6867983e-21)
(-0.00047118082 0.0027756695 2.4271255e-21)
(-0.00059996682 0.0034680143 -1.049824e-21)
(-0.00074784327 0.004234969 -2.4995911e-22)
(-0.00091790104 0.0050838706 1.4139981e-21)
(-0.0011136948 0.0060222111 3.0456002e-21)
(-0.0013393052 0.0070574694 1.5303045e-22)
(-0.0015994053 0.0081968872 -4.9989095e-21)
(-0.0018993323 0.009447177 6.9089012e-21)
(-0.0022451628 0.01081415 -1.1141211e-20)
(-0.0026437896 0.012302254 2.907054e-21)
(-0.0031029977 0.013914 -6.1660557e-21)
(-0.0036315339 0.015649286 7.436772e-21)
(-0.0042391654 0.017504592 -4.816729e-21)
(-0.004936718 0.019472056 7.5789929e-22)
(-0.0057360819 0.021538452 3.0629664e-21)
(-0.0066501719 0.023684071 -7.4112977e-21)
(-0.0076928194 0.025881585 1.0402617e-20)
(-0.0088785719 0.028094933 -1.1241532e-20)
(-0.010222367 0.030278374 -1.9223303e-21)
(-0.011739045 0.032375836 1.8693501e-20)
(-0.013442647 0.034320819 -1.8745732e-20)
(-0.015345488 0.036037193 1.2075698e-20)
(-0.017456979 0.037441492 -1.3431535e-20)
(-0.019782307 0.038447664 -1.2801105e-21)
(-0.022321212 0.038975734 -7.877678e-22)
(-0.025067333 0.038965955 5.1228646e-21)
(-0.028008656 0.038398076 -3.4577121e-22)
(-0.031129216 0.037309409 1.84642e-20)
(-0.034411382 0.03579763 -4.8298102e-21)
(-0.037837628 0.033997314 -1.3981229e-20)
(-0.041391182 0.032040287 6.2548489e-21)
(-0.045055698 0.030025863 -4.9341211e-21)
(-0.048814681 0.028014598 4.8155326e-21)
(-0.052651434 0.026037743 2.5914906e-20)
(-0.056549922 0.024109457 -1.4033715e-20)
(-0.060496519 0.022235185 -3.3942157e-21)
(-0.06448288 0.020415174 1.9216479e-20)
(-0.068509011 0.01864385 -1.0797609e-21)
(-0.072588447 0.01690657 -2.347631e-21)
(-0.076754628 0.015172174 -2.6225303e-20)
(-0.081059433 0.013374378 -6.143248e-21)
(-0.085576727 0.01139967 9.8770171e-21)
(-0.090405708 0.0090822551 1.0245203e-20)
(-0.095658916 0.0061716124 1.48631e-20)
(-0.10145297 0.002302373 1.8777416e-20)
(-0.10786884 -0.003038476 1.1709106e-20)
(-0.1149287 -0.010568911 1.8188135e-20)
(-0.12243626 -0.02125739 -6.1989799e-21)
(-0.12989895 -0.0363689 3.9575778e-20)
(-0.13603122 -0.057233109 2.9139856e-21)
(-0.13882329 -0.084773616 2.2555676e-21)
(-0.13455976 -0.11776756 1.3999409e-21)
(-0.11989004 -0.15100019 -4.5406146e-20)
(-0.091573349 -0.17317171 -1.5154568e-20)
(-0.055892062 -0.17120082 1.9360096e-20)
(-0.0087475193 -0.12896137 2.0215297e-20)
(0.039825432 -0.046046849 6.8681548e-21)
(0.11520058 0.07188352 1.7566466e-21)
(0.21296117 0.16768907 -9.1519383e-21)
(0.38514723 0.18055821 2.3101765e-21)
(-4.2640392e-05 0.00022651446 5.5343443e-22)
(-0.00013307631 0.00070050459 1.7588233e-21)
(-0.00023465734 0.001223846 -4.2448115e-21)
(-0.000349135 0.0018024226 1.5773265e-22)
(-0.00047842969 0.0024426233 2.0663072e-21)
(-0.00062476993 0.0031513049 9.1067883e-22)
(-0.00079070654 0.0039357637 6.7233236e-22)
(-0.00097913611 0.0048036794 -1.324591e-21)
(-0.0011933479 0.0057630249 6.8556184e-21)
(-0.0014370684 0.0068219366 -5.1713968e-21)
(-0.0017145098 0.0079885361 2.5018831e-22)
(-0.0020304205 0.0092706919 3.1272984e-21)
(-0.0023901366 0.010675709 -1.1692369e-20)
(-0.0027996338 0.012209935 1.1644811e-20)
(-0.0032655766 0.013878265 -1.5492188e-21)
(-0.0037953624 0.015683537 -9.577622e-21)
(-0.0043971562 0.017625804 8.9922098e-21)
(-0.0050799108 0.019701477 -3.1356467e-21)
(-0.0058533648 0.021902329 6.0787046e-21)
(-0.0067280091 0.024214388 -7.7775492e-21)
(-0.0077150107 0.02661672 -1.454777e-20)
(-0.0088260758 0.029080166 1.4332068e-20)
(-0.010073233 0.031566093 2.0880778e-20)
(-0.011468514 0.034025278 -3.9998271e-20)
(-0.013023489 0.036397083 3.18168e-20)
(-0.014748652 0.038609172 -1.8303028e-20)
(-0.016652598 0.040578132 4.6666578e-21)
(-0.01874105 0.042211666 -1.0915349e-20)
(-0.021015821 0.043413378 1.1025151e-20)
(-0.023474011 0.04409183 1.4683299e-20)
(-0.026107903 0.044175729 -9.5914563e-21)
(-0.028906048 0.043635322 -1.562866e-20)
(-0.031855389 0.042503707 1.3263894e-21)
(-0.034943257 0.0408828 5.2548411e-22)
(-0.038157894 0.038920195 9.1596491e-21)
(-0.041487428 0.036765542 -3.8382608e-21)
(-0.044918472 0.034535171 -1.346532e-20)
(-0.048435431 0.032302575 -6.5516983e-21)
(-0.052020879 0.030107871 9.7500207e-21)
(-0.055656869 0.027971654 -7.5146251e-21)
(-0.059326934 0.025905145 6.3394857e-21)
(-0.063019017 0.023914993 -2.0414797e-21)
(-0.066728254 0.022003597 -8.0361722e-21)
(-0.070462434 0.020166458 1.9587046e-20)
(-0.074247358 0.018383395 1.1734855e-20)
(-0.078122724 0.016599367 7.8606323e-21)
(-0.082147563 0.014712844 -2.528871e-20)
(-0.086401146 0.012568058 -1.6749528e-20)
(-0.09096633 0.0099208356 -2.0002205e-20)
(-0.095917035 0.0064061305 -3.5568016e-20)
(-0.10127193 0.0015004753 1.2685452e-20)
(-0.10695951 -0.0055476335 -2.692538e-21)
(-0.11263679 -0.015785094 -2.1564864e-20)
(-0.11759653 -0.030636765 -6.3605583e-20)
(-0.12022141 -0.05170539 -4.1685358e-20)
(-0.11794807 -0.080307387 -1.6140931e-20)
(-0.10622806 -0.11553073 -4.4674857e-20)
(-0.081228582 -0.15203388 2.8273737e-20)
(-0.039929466 -0.17702433 -2.1589292e-21)
(0.008806711 -0.17768845 -3.1077043e-20)
(0.067446791 -0.137822 -1.5529285e-20)
(0.1273025 -0.058817098 -1.0292889e-21)
(0.2121712 0.052114607 7.7979374e-21)
(0.32600339 0.13762668 -7.064293e-22)
(0.52372193 0.14219383 2.2716205e-21)
(-5.5168033e-05 0.00025076148 2.1938359e-21)
(-0.00017173272 0.00077575264 -1.4798614e-21)
(-0.00030203842 0.0013555437 1.9988864e-21)
(-0.00044803565 0.0019964811 1.1360149e-21)
(-0.00061189316 0.0027054384 -3.1696947e-21)
(-0.00079607662 0.0034897868 -2.958608e-21)
(-0.001003371 0.0043573638 3.0353332e-21)
(-0.0012368975 0.0053164147 -3.6529262e-22)
(-0.0015001516 0.0063754985 -8.457048e-23)
(-0.0017970346 0.0075433535 -6.0075216e-21)
(-0.0021318888 0.0088287118 6.5818123e-22)
(-0.0025095291 0.010240051 1.2103811e-20)
(-0.0029352738 0.011785272 -9.6724421e-21)
(-0.0034149704 0.013471285 3.3287605e-22)
(-0.0039550151 0.015303498 6.4731125e-21)
(-0.0045623627 0.01728518 5.5623233e-22)
(-0.0052445231 0.019416697 -1.413307e-21)
(-0.00600954 0.021694607 -6.3583679e-21)
(-0.0068659449 0.024110614 1.1625715e-20)
(-0.0078226809 0.026650372 -2.0391222e-20)
(-0.0088889846 0.02929219 4.3825432e-21)
(-0.010074217 0.032005641 -3.2097723e-21)
(-0.011387628 0.034750185 2.6225131e-21)
(-0.012838033 0.037473878 -1.1343152e-22)
(-0.014433383 0.040112355 1.5404744e-20)
(-0.016180216 0.042588333 1.5256756e-20)
(-0.018082961 0.044812015 -3.000951e-20)
(-0.020143161 0.046683087 -4.9617015e-21)
(-0.022358736 0.048095414 1.7108873e-20)
(-0.024723607 0.048946256 6.0038713e-21)
(-0.027228181 0.049152169 1.3502625e-20)
(-0.029861126 0.048672147 -1.4957942e-20)
(-0.032612031 0.047532127 -6.416634e-21)
(-0.035473264 0.0458348 1.4459409e-20)
(-0.038439266 0.043738152 -5.8594986e-21)
(-0.041503663 0.041408811 -2.779029e-21)
(-0.044656473 0.038980764 7.5977054e-21)
(-0.047883093 0.036541608 1.9351626e-20)
(-0.051165047 0.034141321 5.7720999e-21)
(-0.054481778 0.031807569 -3.7512688e-21)
(-0.057812907 0.029557706 -8.7845916e-21)
(-0.061141143 0.027404992 -9.0985095e-21)
(-0.064454715 0.025360064 -1.0130057e-20)
(-0.067752905 0.023429001 -2.1436919e-20)
(-0.071049287 0.021602879 5.9956581e-22)
(-0.074365973 0.01983822 -9.2680711e-21)
(-0.077738769 0.018046969 5.2200052e-20)
(-0.081214663 0.01608414 1.4711643e-20)
(-0.084828307 0.013712637 1.7169518e-20)
(-0.088583059 0.010568956 4.8578854e-20)
(-0.092392484 0.0061206851 -5.8120003e-20)
(-0.096025275 -0.00041490807 1.3225425e-20)
(-0.098905168 -0.010158597 4.314211e-20)
(-0.10000368 -0.024696493 5.3037781e-20)
(-0.097189308 -0.045923319 6.3857882e-21)
(-0.087062715 -0.075588342 -1.7251379e-20)
(-0.063926464 -0.11300446 -2.6140756e-20)
(-0.023543006 -0.15252316 1.0288919e-20)
(0.034992174 -0.17959098 -1.3993294e-20)
(0.10080405 -0.18124783 9.206562e-21)
(0.16977442 -0.14356505 1.6060339e-21)
(0.23924822 -0.06854304 2.2133759e-21)
(0.33185137 0.034599648 -9.3274903e-21)
(0.46100228 0.10827433 -2.1067178e-22)
(0.67767363 0.10612114 -9.0652962e-21)
(-6.8678271e-05 0.00027172099 -2.0690699e-21)
(-0.00021345463 0.00084084836 -5.5426971e-22)
(-0.00037475624 0.0014695476 6.0890008e-22)
(-0.0005547709 0.0021645602 2.9923031e-21)
(-0.000755916 0.0029331807 -3.5877844e-21)
(-0.00098090522 0.003783229 3.0455769e-21)
(-0.0012327663 0.0047230177 1.4550416e-21)
(-0.0015148524 0.0057612939 -7.7927964e-23)
(-0.0018308694 0.0069071436 -1.2268127e-21)
(-0.0021848958 0.0081698556 -6.9714839e-21)
(-0.002581402 0.0095587323 1.1693233e-20)
(-0.0030252636 0.011082837 -1.4031596e-20)
(-0.0035217693 0.012750665 4.1137815e-21)
(-0.0040766199 0.01456972 5.5730057e-21)
(-0.0046959164 0.016545986 -8.5277761e-21)
(-0.0053861342 0.01868328 1.6765056e-20)
(-0.0061540788 0.020982451 -2.025744e-20)
(-0.0070068207 0.023440454 -3.1875123e-22)
(-0.0079516026 0.026049243 -1.152743e-20)
(-0.008995716 0.028794526 4.5560491e-20)
(-0.010146338 0.031654381 -1.0982731e-20)
(-0.011410326 0.034597762 -4.5246235e-20)
(-0.012793953 0.037582983 2.1281367e-20)
(-0.01430258 0.040556261 2.5270705e-20)
(-0.015940253 0.043450491 -6.3182882e-21)
(-0.017709209 0.046184507 -3.2931318e-20)
(-0.019609311 0.048663216 4.9601003e-20)
(-0.021637457 0.050779317 -5.4697258e-20)
(-0.02378714 0.052417762 4.2763694e-20)
(-0.0260485 0.053464879 -8.1168337e-21)
(-0.028409403 0.053824598 1.3801355e-20)
(-0.030857944 0.053442894 1.9389085e-20)
(-0.033385777 0.052335274 -7.428314e-21)
(-0.035990047 0.050601057 -1.833926e-21)
(-0.038671605 0.048405139 -2.6199881e-20)
(-0.041430124 0.045929657 4.8411602e-21)
(-0.044259556 0.043326706 -1.2212216e-20)
(-0.047146475 0.040699273 1.0143976e-20)
(-0.05007108 0.038108367 -5.7005108e-21)
(-0.053009467 0.035589469 -3.7401082e-21)
(-0.055936165 0.033166426 -3.2240473e-21)
(-0.058826885 0.030859262 -3.1222105e-21)
(-0.061660683 0.028686917 1.9216187e-20)
(-0.064425044 0.026666161 1.5442838e-20)
(-0.067115575 0.024799396 -4.4004818e-21)
(-0.069730476 0.023054999 2.929853e-21)
(-0.072271929 0.021359011 -1.1939309e-20)
(-0.074738422 0.019577387 2.4779992e-20)
(-0.077091853 0.017479856 2.9616593e-20)
(-0.07922609 0.014704166 8.8770936e-21)
(-0.080886239 0.010709465 2.3058681e-20)
(-0.081587558 0.004686569 -7.1718544e-22)
(-0.080403633 -0.0045492838 -1.1220294e-20)
(-0.075796358 -0.018742779 -5.7400777e-20)
(-0.064764498 -0.040090987 2.8510932e-20)
(-0.042518327 -0.070776414 -1.2096616e-20)
(-0.0015339572 -0.11007497 3.0608416e-20)
(0.062745747 -0.15129118 -4.5767285e-20)
(0.14561242 -0.17908303 2.1842577e-20)
(0.23263059 -0.17879896 -4.5717087e-21)
(0.31162057 -0.14100137 -3.0908493e-23)
(0.38636288 -0.070071279 -1.8226829e-21)
(0.48156029 0.023562763 -2.2319237e-21)
(0.62125739 0.08387725 1.066551e-20)
(0.84765353 0.077590932 -1.6139722e-20)
(-8.2803373e-05 0.00028888409 4.6422857e-21)
(-0.00025708542 0.00089421766 3.1940132e-21)
(-0.00045080968 0.0015631033 -5.0137677e-21)
(-0.00066640657 0.002302606 1.3198683e-22)
(-0.00090654724 0.0031203675 4.5324521e-21)
(-0.0011741978 0.00402458 2.369776e-21)
(-0.0014726322 0.0050239559 -4.9939286e-21)
(-0.0018054383 0.0061276704 8.1998323e-22)
(-0.0021765341 0.0073452673 -1.1558922e-20)
(-0.0025901757 0.0086865246 2.2524312e-21)
(-0.0030509604 0.010161266 5.7801979e-23)
(-0.0035638213 0.011779109 -8.2821389e-21)
(-0.0041340122 0.013549134 2.6533505e-20)
(-0.0047670791 0.015479463 -1.2360286e-20)
(-0.0054688166 0.017576723 -2.2139172e-20)
(-0.006245205 0.01984539 2.3583799e-20)
(-0.0071023247 0.022286981 -2.9037296e-21)
(-0.0080462448 0.0248991 1.6476115e-20)
(-0.0090828824 0.027674302 1.2230185e-20)
(-0.010217828 0.030598803 -3.843923e-20)
(-0.011456133 0.033651021 2.8830515e-20)
(-0.012802063 0.036799998 -3.7908764e-20)
(-0.014258796 0.040003745 4.4452578e-21)
(-0.015828085 0.043207625 -1.8143681e-20)
(-0.017509866 0.046342908 3.9347946e-20)
(-0.019301813 0.049325765 -9.3036655e-21)
(-0.021198882 0.052057089 -2.3419004e-20)
(-0.0231929 0.054423847 5.6367538e-20)
(-0.025272403 0.056303149 -2.4356237e-20)
(-0.027423089 0.05757103 -2.60849e-20)
(-0.029629473 0.058118579 2.1366355e-20)
(-0.031878135 0.057877128 2.8438369e-21)
(-0.034161842 0.056848345 -1.3942191e-20)
(-0.036481833 0.055123431 7.5409919e-21)
(-0.03884525 0.052869786 -1.1278084e-20)
(-0.041258255 0.050282737 3.8484693e-20)
(-0.043719323 0.047532562 -1.9667696e-20)
(-0.046216511 0.044738948 -1.1514384e-20)
(-0.048728489 0.041975286 -2.3198253e-20)
(-0.051227245 0.039285733 -3.1638939e-21)
(-0.053680899 0.036700999 2.4039553e-20)
(-0.056056155 0.034247949 -9.70586e-21)
(-0.058320257 0.031953747 -1.434641e-20)
(-0.060444716 0.029845408 -2.1502583e-21)
(-0.062400678 0.027936421 1.4595693e-20)
(-0.064154186 0.026207411 1.3123877e-20)
(-0.065660493 0.024597819 -4.0684476e-20)
(-0.066848305 0.022983777 -2.1978665e-20)
(-0.067573377 0.021139859 -4.875733e-20)
(-0.067564012 0.018701973 -1.748061e-20)
(-0.066304713 0.015121403 -6.9928345e-21)
(-0.062938566 0.0095693794 -5.2785821e-20)
(-0.056013505 0.00080879039 -2.0812612e-20)
(-0.043142449 -0.013073538 7.0932672e-20)
(-0.019815485 -0.034570664 -5.6938182e-20)
(0.021183328 -0.06623699 5.0324538e-20)
(0.090298257 -0.10674699 -2.2921496e-20)
(0.19039546 -0.14719284 9.3993518e-20)
(0.30806281 -0.17038407 3.6102015e-20)
(0.41829004 -0.16384626 -8.649217e-21)
(0.50684026 -0.12205138 -7.2018067e-21)
(0.58042766 -0.054905705 -6.5803069e-21)
(0.67125384 0.026947374 -6.7538567e-22)
(0.81292239 0.070096845 -1.2483646e-21)
(1.0208475 0.057388131 2.1104843e-20)
(-9.7116952e-05 0.00030182905 8.4549505e-23)
(-0.00030131082 0.00093455301 -6.0188584e-21)
(-0.00052791228 0.0016339227 7.0946369e-21)
(-0.00077959334 0.0024072477 3.4136451e-21)
(-0.0010592777 0.003262434 -6.8358015e-21)
(-0.0013701825 0.004207962 -2.2135741e-21)
(-0.0017158261 0.005252859 1.0732425e-20)
(-0.0021000292 0.0064066448 -1.1545032e-20)
(-0.0025269204 0.0076792422 -2.4343753e-21)
(-0.0030009318 0.0090808465 -9.6782779e-21)
(-0.0035267872 0.010621743 2.5682123e-20)
(-0.0041094778 0.012312062 3.1237708e-22)
(-0.0047542241 0.014161451 -2.3019314e-20)
(-0.0054664213 0.016178663 2.4678965e-20)
(-0.0062515633 0.018371025 -1.7639877e-20)
(-0.0071151434 0.020743781 -6.5297847e-21)
(-0.0080625274 0.02329929 1.3614953e-20)
(-0.0090987958 0.02603606 -1.2258161e-20)
(-0.010228552 0.0289476 -1.6283739e-20)
(-0.011455697 0.032021097 3.4369185e-22)
(-0.012783162 0.035235906 2.5532542e-20)
(-0.014212611 0.038561892 -1.5745529e-20)
(-0.015744102 0.041957661 8.7497383e-21)
(-0.01737572 0.045368777 4.2151211e-20)
(-0.019103183 0.048726102 1.4063369e-20)
(-0.020919435 0.0519445 -3.8052746e-20)
(-0.022814268 0.054922304 3.7945876e-21)
(-0.02477407 0.057542221 -4.272234e-20)
(-0.026781904 0.059674873 2.5200934e-20)
(-0.028818327 0.061186967 -1.3287214e-20)
(-0.030863564 0.061956905 1.918418e-20)
(-0.032901487 0.061900095 4.6629337e-21)
(-0.034924632 0.061001056 -2.3104265e-20)
(-0.03693713 0.059337718 2.3464266e-20)
(-0.038951839 0.057074616 3.3880785e-20)
(-0.040981639 0.054416903 -3.1146812e-21)
(-0.043030144 0.051552456 -3.4797603e-20)
(-0.04508733 0.048618883 4.3533705e-20)
(-0.047130233 0.045703439 -9.1896561e-21)
(-0.049125957 0.042859962 1.9486766e-20)
(-0.051034742 0.040126399 -3.03319e-21)
(-0.05281202 0.037536423 3.0369634e-20)
(-0.054409927 0.03512511 1.4671234e-20)
(-0.055778718 0.032928798 1.8741906e-20)
(-0.056857688 0.030971443 -7.7105326e-20)
(-0.057569753 0.029245768 -2.5887532e-20)
(-0.057805493 0.027702852 3.5104321e-20)
(-0.057395475 0.02622671 -2.9427642e-20)
(-0.056042574 0.024591686 -2.529172e-20)
(-0.053226266 0.022426132 2.9132658e-20)