/*--------------------------------*- C++ -*----------------------------------*\
  =========                 |
  \\      /  F ield         | OpenFOAM: The Open Source CFD Toolbox
   \\    /   O peration     | Website:  https://openfoam.org
    \\  /    A nd           | Version:  13
     \\/     M anipulation  |
\*---------------------------------------------------------------------------*/
FoamFile
{
    format      ascii;
    class       volVectorField;
    location    "46.797952";
    object      wallShearStress;
}
// * * * * * * * * * * * * * * * * * * * * * * * * * * * * * * * * * * * * * //

dimensions      [0 2 -2 0 0 0 0];

internalField   uniform (0 0 0);

boundaryField
{
    inlet
    {
        type            calculated;
        value           uniform (0 0 0);
    }
    outlet
    {
        type            calculated;
        value           uniform (0 0 0);
    }
    cylinder
    {
        type            calculated;
        value           nonuniform List<vector> 
132
(
(-2.6022171e-05 0.0021572715 -2.9955423e-22)
(-7.4214163e-05 0.0018912638 8.5120187e-23)
(-0.00010784417 0.0016121907 4.6876374e-21)
(-0.0001258304 0.0013242844 -1.5682607e-20)
(-0.00012734804 0.0010305906 1.1034205e-20)
(-0.00011238934 0.00073773754 3.3602819e-20)
(-8.1148492e-05 0.00044971818 -6.3454207e-21)
(-3.4487099e-05 0.00017165016 -2.5056751e-20)
(2.6152107e-05 -9.1523542e-05 2.3544539e-20)
(9.8728376e-05 -0.00033543583 -5.2642224e-20)
(0.00018126403 -0.00055596336 -9.5560702e-22)
(0.0002708267 -0.00074984516 3.255671e-20)
(0.00036446635 -0.00091471957 5.3009618e-20)
(0.00045926301 -0.0010492194 -4.3007961e-20)
(0.00055248095 -0.0011531646 4.5253474e-20)
(0.00064174486 -0.001227576 7.2814921e-20)
(0.00072537733 -0.0012748296 -4.7718126e-20)
(0.0008025549 -0.0012984184 7.6576852e-20)
(0.0008737392 -0.0013031559 1.01318e-19)
(0.00094073919 -0.0012946865 -6.5778988e-20)
(0.0010072084 -0.0012796472 -8.3922852e-20)
(0.0010788415 -0.0012652915 2.9577783e-23)
(0.0011633347 -0.0012588554 1.2199941e-20)
(0.0012707997 -0.0012675056 -1.4621483e-20)
(0.0014121728 -0.0012962988 -2.4896396e-20)
(0.0015983368 -0.0013475134 5.328325e-21)
(0.0018366315 -0.0014182799 -4.8128355e-20)
(0.002128028 -0.0014999631 1.2859215e-20)
(0.0024653748 -0.0015791205 1.0093374e-20)
(0.0028297979 -0.0016377333 -6.945323e-20)
(0.0031991239 -0.0016607268 9.050521e-20)
(0.0035516067 -0.0016383298 2.7343479e-21)
(0.0038540116 -0.0015607925 1.9669518e-20)
(0.0040473194 -0.0014162657 -2.3250746e-20)
(0.0040389493 -0.0011952818 7.3669777e-20)
(0.0036856917 -0.00089534503 -4.644221e-21)
(0.0028100007 -0.00053745087 1.8665262e-20)
(0.0011878881 -0.00017394883 -2.5523801e-21)
(-0.0013852702 9.0823584e-05 3.6453296e-21)
(-0.005121559 0.00010766108 -2.2625664e-21)
(-0.010390399 -0.00034960698 4.2024184e-21)
(-0.017102448 -0.0015918906 -1.2884943e-22)
(-0.024681719 -0.0037993841 4.6985309e-20)
(-0.032666867 -0.0070581017 -1.8008692e-20)
(-0.040442571 -0.011321151 1.6170479e-20)
(-0.047554719 -0.01645826 -1.0345688e-19)
(-0.053563593 -0.022233594 -1.6629781e-20)
(-0.058208614 -0.028383574 1.4570771e-19)
(-0.061321819 -0.034620898 -1.2417002e-19)
(-0.062866797 -0.040674318 -2.373387e-21)
(-0.062857728 -0.046271334 3.7996219e-20)
(-0.06143924 -0.051214208 -3.4912832e-20)
(-0.058703942 -0.055261377 -6.9660789e-21)
(-0.054863646 -0.058273639 -4.6161588e-21)
(-0.050160173 -0.060167449 -8.2040184e-21)
(-0.044757809 -0.060794886 -1.1966021e-21)
(-0.038918848 -0.060148169 5.275486e-22)
(-0.032860529 -0.058200451 4.6019463e-20)
(-0.026809511 -0.054979737 -7.2262282e-20)
(-0.020979181 -0.050543247 -7.8180597e-20)
(-0.015567905 -0.044979133 -3.1988255e-20)
(-0.010755472 -0.038405723 -7.3693232e-20)
(-0.0066981792 -0.030965542 1.6492227e-20)
(-0.0035243299 -0.022824528 2.4040294e-20)
(-0.0013376599 -0.014176522 -3.7396952e-20)
(-0.00019573864 -0.0051897563 -4.9964104e-21)
(3.5898273e-05 0.0024087209 -1.3801052e-21)
(0.00011132075 0.0026461636 -8.2293728e-23)
(0.00020054923 0.0028674282 -4.7268336e-21)
(0.00030201097 0.0030679224 1.5850031e-20)
(0.00041394652 0.0032432975 -1.1183571e-20)
(0.00053407236 0.0033893959 -3.4147353e-20)
(0.0006596203 0.0035025345 6.4636197e-21)
(0.00078752242 0.0035796521 2.5576562e-20)
(0.000914334 0.0036184383 -2.4074608e-20)
(0.0010364648 0.0036176969 5.3899583e-20)
(0.0011502685 0.0035771885 9.7936376e-22)
(0.001252389 0.0034982734 -3.3383207e-20)
(0.001339754 0.003383254 -5.4361193e-20)
(0.0014100714 0.003236165 4.4091437e-20)
(0.0014618124 0.0030620459 -4.6362842e-20)
(0.0014946193 0.0028672671 -7.4526538e-20)
(0.0015096419 0.0026595414 4.8778924e-20)
(0.0015092744 0.0024468138 -7.8166105e-20)
(0.0014978484 0.0022379873 -1.0325845e-19)
(0.0014811852 0.002041653 6.6930321e-20)
(0.001467362 0.0018667902 8.5255657e-20)
(0.0014662192 0.0017215797 7.6311719e-20)
(0.0014903269 0.0016141608 6.2663598e-20)
(0.0015537615 0.0015507456 1.4794917e-20)
(0.0016722779 0.0015356652 2.5170003e-20)
(0.0018592465 0.0015677634 -5.3840368e-21)
(0.0021211275 0.0016380401 4.8623258e-20)
(0.0024554559 0.001730739 -1.2994485e-20)
(0.0028438287 0.0018215674 -1.0206179e-20)
(0.0032531339 0.0018829114 7.0301456e-20)
(0.0036493194 0.0018947772 -9.1736098e-20)
(0.0040013923 0.0018463078 -2.7599762e-21)
(0.0042739182 0.0017314707 4.5523855e-20)
(0.0043977854 0.0015397264 2.3711962e-20)
(0.0042616462 0.0012623382 -7.5356155e-20)
(0.003702203 0.00090110871 4.7675094e-21)
(0.0025287905 0.00048689503 1.4030379e-20)
(0.000500444 8.4254312e-05 2.6423632e-21)
(-0.0025766705 -0.00018559115 -3.7900143e-21)
(-0.0068663487 -0.00015046624 2.3615951e-21)
(-0.012743373 0.00042433544 -4.3993914e-21)
(-0.020024585 0.0018601726 3.5626918e-20)
(-0.028008215 0.0043076195 -4.9236835e-20)
(-0.036214113 0.0078207505 1.8836636e-20)
(-0.044053016 0.012328507 -1.6864323e-20)
(-0.051057703 0.017667306 1.0746405e-19)
(-0.056834257 0.023587154 1.7198975e-20)
(-0.061170128 0.029823763 -1.4995676e-19)
(-0.063916322 0.036082031 1.27137e-19)
(-0.065080403 0.042103047 2.4163748e-21)
(-0.06468196 0.047610943 -3.843703e-20)
(-0.062900654 0.052429325 3.5047676e-20)
(-0.059813203 0.056302501 -5.5722547e-20)
(-0.05565837 0.059114916 4.4937976e-21)
(-0.050692981 0.060803704 -1.0376088e-20)
(-0.045056359 0.061197451 1.9754346e-21)
(-0.039029018 0.06031537 -5.7563597e-22)
(-0.032823691 0.058131893 -4.8422999e-20)
(-0.026666257 0.05468225 7.491808e-20)
(-0.020768271 0.050030768 8.0346857e-20)
(-0.015324471 0.044270369 3.2670882e-20)
(-0.010510995 0.037525404 7.4897597e-20)
(-0.0064791706 0.029941947 -1.6692277e-20)
(-0.0033520835 0.021690794 4.8078722e-20)
(-0.0012276149 0.012963862 3.758086e-20)
(-0.00015917414 0.0039493881 5.0074194e-21)
)
;
    }
    frontAndBack
    {
        type            empty;
    }
}


// ************************************************************************* //
