/*--------------------------------*- C++ -*----------------------------------*\
  =========                 |
  \\      /  F ield         | OpenFOAM: The Open Source CFD Toolbox
   \\    /   O peration     | Website:  https://openfoam.org
    \\  /    A nd           | Version:  13
     \\/     M anipulation  |
\*---------------------------------------------------------------------------*/
FoamFile
{
    format      ascii;
    class       volVectorField;
    location    "5.700311";
    object      wallShearStress;
}
// * * * * * * * * * * * * * * * * * * * * * * * * * * * * * * * * * * * * * //

dimensions      [0 2 -2 0 0 0 0];

internalField   uniform (0 0 0);

boundaryField
{
    inlet
    {
        type            calculated;
        value           uniform (0 0 0);
    }
    outlet
    {
        type            calculated;
        value           uniform (0 0 0);
    }
    cylinder
    {
        type            calculated;
        value           nonuniform List<vector> 
132
(
(0.00012348843 -0.0016906741 -1.1137202e-22)
(0.0005222162 -0.010313413 3.2629726e-23)
(0.0013878133 -0.018726361 1.953193e-21)
(0.0026869869 -0.02661001 -7.309585e-21)
(0.0043508687 -0.033648367 5.8635786e-21)
(0.0062751213 -0.039540256 2.0482497e-20)
(0.0083210709 -0.044025247 -4.4206887e-21)
(0.01033239 -0.04689887 -1.973819e-20)
(0.012136074 -0.048030523 2.0664186e-20)
(0.013559514 -0.047382386 -5.0594094e-20)
(0.014447215 -0.045020115 -9.8701569e-22)
(0.014681404 -0.041125048 3.5515985e-20)
(0.014201304 -0.035991374 5.9964697e-20)
(0.013025416 -0.030025853 -4.9618912e-20)
(0.011253858 -0.023698048 5.2485605e-20)
(0.0090720134 -0.017510574 8.3896448e-20)
(0.0067156476 -0.011917487 -5.4163824e-20)
(0.0044268101 -0.0072420804 8.5201426e-20)
(0.0024163369 -0.0036583828 1.103093e-19)
(0.00081363065 -0.001158462 -7.0140065e-20)
(-0.00033514611 0.00040386847 -8.7836074e-20)
(-0.0010981297 0.0012765179 3.0531726e-23)
(-0.0015854482 0.0017105944 1.2415376e-20)
(-0.0019020327 0.0018968915 -1.472285e-20)
(-0.0019655744 0.0018098242 -2.4806939e-20)
(-0.0016132223 0.0013738993 5.2528331e-21)
(-0.00038804811 0.00032026231 -4.6927485e-20)
(0.001403647 -0.00097090334 1.2485313e-20)
(0.0030576941 -0.0019478275 9.8033633e-21)
(0.0041288753 -0.0023874359 -6.7782098e-20)
(0.0045302682 -0.0023541372 8.8692835e-20)
(0.0046747038 -0.0021590764 2.6863784e-21)
(0.0048285698 -0.0019567528 1.9350416e-20)
(0.0050061949 -0.0017519614 -2.2909262e-20)
(0.0050190543 -0.0014850239 7.2768957e-20)
(0.0046366847 -0.0011257131 -4.6040066e-21)
(0.0036507138 -0.00069679815 1.8593574e-20)
(0.0018081379 -0.0002593831 -2.5584367e-21)
(-0.001109889 6.4652995e-05 3.6816161e-21)
(-0.005344008 0.00010996644 -2.3046751e-21)
(-0.011273378 -0.00038042993 4.3214542e-21)
(-0.018746063 -0.001745178 -1.3378074e-22)
(-0.027086363 -0.0041693321 4.9198863e-20)
(-0.035764012 -0.0077266024 -1.8990563e-20)
(-0.044109246 -0.012346451 1.7150164e-20)
(-0.051662166 -0.017878546 -1.1023199e-19)
(-0.057951099 -0.02405322 -1.7779243e-20)
(-0.062726367 -0.030584865 1.5624593e-19)
(-0.065844834 -0.037172786 -1.3349464e-19)
(-0.067282066 -0.043529296 -2.5587888e-21)
(-0.067080968 -0.049378582 4.1107041e-20)
(-0.065398969 -0.054513413 -3.7959043e-20)
(-0.062349219 -0.058691542 -7.6401816e-21)
(-0.058165414 -0.061779444 -5.1542979e-21)
(-0.053096969 -0.063689123 -9.7121814e-21)
(-0.047318023 -0.064271593 -3.3479235e-22)
(-0.041104633 -0.063525612 5.0691838e-22)
(-0.034682287 -0.061426647 4.6256263e-20)
(-0.028285799 -0.058007171 -7.376277e-20)
(-0.022135413 -0.053329197 -8.0419141e-20)
(-0.016435227 -0.047485959 -3.3053764e-20)
(-0.011369806 -0.040601282 -7.6375209e-20)
(-0.0070993645 -0.032823864 1.71286e-20)
(-0.0037549744 -0.024325128 2.5008354e-20)
(-0.0014426045 -0.015308005 -3.8953582e-20)
(-0.00021961722 -0.0059380197 -5.2103002e-21)
(0.0001936938 0.0069181069 -5.1998813e-22)
(0.00072741884 0.015375303 -3.2924574e-23)
(0.0017099956 0.023453622 -2.0794261e-21)
(0.0030945314 0.030842092 7.8674529e-21)
(0.0047996609 0.037239873 -6.3342134e-21)
(0.0067101375 0.042370946 -2.2076394e-20)
(0.0086831301 0.046007731 4.7351109e-21)
(0.010560176 0.047984692 2.0963319e-20)
(0.012172564 0.048216822 -2.173734e-20)
(0.013358167 0.046713581 5.2696078e-20)
(0.013979291 0.043591424 1.0181957e-21)
(0.013941867 0.03907858 -3.6295569e-20)
(0.013217011 0.033518166 -6.0767673e-20)
(0.011852044 0.027338876 4.9922541e-20)
(0.0099795362 0.021027138 -5.2492894e-20)
(0.0077981308 0.015062261 -8.3559295e-20)
(0.0055395139 0.0098390798 5.3803872e-20)
(0.0034315948 0.0056222871 -8.4546184e-20)
(0.0016436983 0.0024979467 -1.0947542e-19)
(0.00027540578 0.00041094902 6.9667249e-20)
(-0.00068166608 -0.00084866705 8.7365574e-20)
(-0.0012975856 -0.0015131593 7.7205913e-20)
(-0.0017075993 -0.001844248 6.2757565e-20)
(-0.0019543931 -0.0019506988 1.4679965e-20)
(-0.0019040011 -0.0017564598 2.472925e-20)
(-0.0012338845 -0.0010574588 -5.2355485e-21)
(0.00021661622 0.00014649648 4.690491e-20)
(0.0019857705 0.0013832838 -1.2499369e-20)
(0.0034715152 0.0022160924 -9.838913e-21)
(0.0042725928 0.0024728257 6.8045728e-20)
(0.0045583113 0.0023694014 -8.9052413e-20)
(0.0046833425 0.0021630082 -2.6816012e-21)
(0.0048611604 0.0019699389 4.4235247e-20)
(0.0050128945 0.0017547426 2.3047264e-20)
(0.004933695 0.0014606867 -7.3320252e-20)
(0.0043991561 0.0010695726 4.6470432e-21)
(0.0032009993 0.00061381367 1.3713317e-20)
(0.0010773189 0.00016287769 2.5924174e-21)
(-0.0021750655 -0.00015246055 -3.7365825e-21)
(-0.0067585718 -0.00014543467 2.3416574e-21)
(-0.013051062 0.00043627199 -4.3910768e-21)
(-0.020835197 0.0019364631 3.5803447e-20)
(-0.029348095 0.0045143309 -4.9792666e-20)
(-0.03806442 0.0082206572 1.9150723e-20)
(-0.046347537 0.012970554 -1.7217644e-20)
(-0.053701481 0.018581837 1.1005873e-19)
(-0.059720894 0.024784707 1.7651674e-20)
(-0.064194873 0.031297878 -1.5409179e-19)
(-0.066980742 0.03781123 1.3069265e-19)
(-0.068101861 0.044056944 2.4828744e-21)
(-0.067584669 0.04974672 -3.9435979e-20)
(-0.065636597 0.054708956 3.5861254e-20)
(-0.062326329 0.05866718 -5.668391e-20)
(-0.057921498 0.061517782 4.5177955e-21)
(-0.052697088 0.063206678 -9.9601279e-21)
(-0.04677923 0.063536627 2.5932971e-21)
(-0.04047423 0.062547887 -6.2785257e-22)
(-0.033997473 0.060209712 -5.1705199e-20)
(-0.027583567 0.056562193 7.9339812e-20)
(-0.021450539 0.051673018 8.4711012e-20)
(-0.015798785 0.045638864 3.4347438e-20)
(-0.010809576 0.038588874 7.8581847e-20)
(-0.0066384334 0.030673854 -1.7486067e-20)
(-0.0034118508 0.022070034 5.030023e-20)
(-0.001230499 0.012973757 3.9272856e-20)
(-0.00015023833 0.0035855712 5.2273819e-21)
)
;
    }
    frontAndBack
    {
        type            empty;
    }
}


// ************************************************************************* //
