/*--------------------------------*- C++ -*----------------------------------*\
  =========                 |
  \\      /  F ield         | OpenFOAM: The Open Source CFD Toolbox
   \\    /   O peration     | Website:  https://openfoam.org
    \\  /    A nd           | Version:  13
     \\/     M anipulation  |
\*---------------------------------------------------------------------------*/
FoamFile
{
    format      ascii;
    class       volScalarField;
    location    "0.07";
    object      p;
}
// * * * * * * * * * * * * * * * * * * * * * * * * * * * * * * * * * * * * * //

dimensions      [1 -1 -2 0 0 0 0];

internalField   nonuniform List<scalar> 
1000
(
8567.51
8567.52
8567.56
8567.63
8567.74
8567.88
8568.03
8568.18
8568.34
8568.5
8568.65
8568.8
8568.95
8569.1
8569.25
8569.42
8569.59
8569.79
8569.99
8570.22
8570.44
8570.74
8571.01
8571.32
8571.71
8572
8572.32
8572.48
8572.87
8572.77
8573.33
8573.52
8573.28
8574.36
8574.27
8574.01
8575.67
8575.22
8574.95
8576.45
8576.11
8575.39
8578.23
8579.03
8575.05
8578.47
8582.68
8576.64
8576.52
8584.21
8579.49
8575.48
8585.32
8583.18
8575.08
8585.41
8587.36
8576.05
8584.31
8591.58
8578.85
8581.56
8595.42
8584.95
8577.98
8595.19
8595.59
8578.8
8586.62
8602.95
8590.68
8579.18
8596.5
8604.2
8586.71
8585.78
8605.14
8600.08
8584.87
8597.7
8608.93
8593.35
8590.24
8608.8
8604.3
8591.34
8604.65
8609.87
8596.23
8602.73
8612.27
8600.83
8603.13
8614.3
8604.59
8604.35
8617
8608.65
8605.48
8619.71
8613.83
8606.76
8621.38
8619.99
8608.9
8621.6
8626.43
8613.06
8620.02
8632.04
8620.07
8617.91
8635.01
8629.71
8618.59
8633.64
8639.28
8624.49
8629.13
8644.85
8634.86
8627.55
8644.85
8645.53
8631.81
8641.9
8652.24
8639.85
8640.06
8655.96
8648.99
8641.27
8657.16
8658.35
8645.65
8655.98
8666.16
8653.88
8653.82
8670.89
8664.96
8655.07
8670.76
8675.85
8662
8667.22
8682.7
8673.5
8666.48
8683.89
8685.59
8672.14
8681.04
8693.63
8682.69
8679.47
8697.04
8694.65
8683.24
8696.29
8704.38
8692.07
8694.2
8710.42
8703.67
8695.77
8711.89
8714.8
8702.48
8710.64
8722.51
8712.57
8710.75
8726.81
8723.15
8714.71
8728.57
8732.39
8721.72
8729.39
8739.98
8730.91
8730.58
8745.87
8741.48
8734.09
8748.94
8752.23
8741.22
8749.16
8761.1
8752.01
8749.45
8766.32
8764.5
8754.33
8766.98
8774.77
8764.09
8766.41
8781.06
8775.32
8769.62
8783.74
8784.94
8776.28
8785.41
8792.27
8784.52
8787.7
8798.82
8793.46
8791.16
8804.52
8803.14
8796.31
8808.43
8812.76
8804
8810.37
8821.29
8814.19
8812.27
8827.4
8825.87
8817.37
8829.69
8836.69
8827.05
8829.4
8844.49
8839.56
8832.5
8847.04
8850.34
8840.61
8847.1
8855.65
8849.59
8848.88
8857.13
8856.26
8853.22
8858.44
8860.34
8858.39
8862.51
8864.58
8862.84
8868.41
8870.67
8868.26
8873.97
8877.71
8875.13
8877.22
8882.88
8881.27
8881.15
8887.87
8887.59
8885.38
8892.07
8893.88
8890.33
8895.13
8900.08
8896.45
8897.1
8906.01
8903.91
8899.73
8910.34
8912.35
8904.58
8912.17
8920.43
8912.21
8912.24
8926.05
8921.78
8914.21
8927.46
8931.23
8919.96
8925.49
8937.87
8929.21
8924.28
8939.8
8939.87
8927.82
8936.83
8947.54
8936.6
8933.32
8949.67
8947.97
8935.56
8945.72
8956.12
8944.31
8940.95
8957.74
8956.23
8943.05
8952.57
8964.17
8952.51
8947.45
8964.44
8964.96
8950.58
8957.56
8971.77
8961.67
8953.16
8969.31
8974.15
8958.95
8960.39
8977.99
8972.63
8959.08
8970.72
8982.74
8969.68
8962.42
8980.19
8984.66
8968.03
8968.12
8987.32
8984.47
8968.06
8975.2
8992.25
8983.4
8969.5
8982.09
8995.7
8982.57
8971.7
8987.98
8998.26
8982.26
8974.24
8992.86
9000.1
8982.23
8976.96
8996.95
9001.19
8982.19
8979.85
9000.44
9001.37
8981.94
8982.97
9003.34
9000.46
8981.47
8986.33
9005.52
8998.5
8980.89
8989.71
9006.85
8995.74
8980.27
8992.7
9007.28
8992.59
8979.56
8994.9
9006.9
8989.37
8978.64
8996.11
9005.85
8986.28
8977.39
8996.25
9004.29
8983.35
8975.7
8995.42
9002.46
8980.6
8973.54
8993.73
9000.47
8978.1
8970.98
8991.36
8998.44
8975.82
8968.08
8988.35
8996.32
8973.69
8964.89
8984.7
8994.02
8971.73
8961.42
8980.31
8991.39
8969.88
8957.64
8975.02
8988.23
8968.19
8953.5
8968.55
8984.3
8966.76
8949.09
8960.8
8979.37
8965.76
8944.61
8951.98
8973.31
8965.02
8940.4
8942.82
8966.08
8963.97
8936.84
8934.25
8957.88
8961.91
8934.39
8926.87
8948.89
8958.68
8933.38
8920.83
8939.22
8954.48
8933.9
8916.1
8929
8949.39
8935.7
8912.57
8918.88
8943.28
8937.71
8910.27
8909.83
8935.97
8938.48
8909.31
8902.46
8927.03
8937.1
8910.17
8896.72
8915.91
8933.31
8913.15
8892.38
8902.79
8926.83
8917.48
8889.39
8889.81
8917.23
8919.98
8888.53
8879.92
8904.01
8917.47
8891.18
8873.41
8887.83
8910.32
8896.25
8868.96
8871.51
8899.47
8900.01
8866.94
8859
8884.24
8897.88
8870.25
8851.68
8864.71
8889.43
8877.92
8847.74
8846.82
8876.19
8881.76
8848.14
8836.12
8858.31
8877.33
8854.67
8830.84
8838.05
8867.14
8863.24
8829.05
8822.39
8850.71
8864.61
8835.04
8815.75
8826.6
8855.54
8848.89
8814.61
8807.54
8835.88
8852.28
8824.52
8802.49
8807.71
8839.96
8840.67
8803.73
8792.62
8815.47
8838.35
8818.35
8789.66
8788.74
8822.17
8830.22
8793.97
8778.36
8794.15
8822.75
8811.06
8776.63
8770.49
8801.72
8817.6
8786.27
8764.54
8769.9
8804.24
8805.18
8766.07
8753.97
8775.57
8802.01
8784.31
8751.81
8748.04
8782.54
8795.17
8759.34
8739.96
8753.68
8785.68
8776.4
8738.71
8733.48
8767.98
8780.98
8744.58
8725.62
8746.42
8774.25
8754.54
8722.16
8727.7
8763.55
8760.97
8720.97
8714.89
8750.37
8761.58
8723
8706.75
8734.61
8757.64
8728.61
8701.8
8716.39
8749.98
8737.01
8699.52
8698.89
8737.49
8743.47
8701.65
8687.75
8717.92
8741.65
8712.05
8683.78
8692.84
8731.09
8726.81
8684.3
8674.99
8710.26
8730.36
8695.57
8670.16
8680.18
8719.39
8714.73
8671.39
8660.84
8694.36
8718.24
8686.39
8657.8
8660.48
8702.86
8707.27
8662.31
8646.91
8668.27
8703.5
8686.2
8647.41
8638.91
8675.55
8698.72
8663.84
8637.09
8634.04
8677.62
8690.24
8646.79
8627.96
8629.78
8675.05
8680.49
8634.87
8619.75
8622.87
8668.81
8672.48
8626.8
8612.74
8611.82
8658.43
8667.66
8622.57
8606.94
8599.4
8640.99
8663.2
8624.63
8601.41
8590.92
8617.14
8654.51
8632.57
8595.68
8585.28
8594.08
8641.2
8638.75
8591.93
8579.35
8577.68
8626.1
8637.46
8590.3
8572.63
8566.14
8611.41
8631.51
8588.4
8564.94
8556.34
8597.98
8623.63
8584.74
8556.8
8546.93
8585.08
8614.9
8579.73
8548.12
8537.34
8571.24
8605.43
8574.83
8539.11
8527.66
8555.56
8594.86
8570.97
8530.22
8518.33
8537.78
8583.07
8568.31
8522.13
8509.95
8518.32
8569.17
8567.11
8516.16
8502.65
8500.13
8551.95
8564.44
8514.04
8495.61
8485.95
8529.21
8557.86
8517.49
8488.75
8476.87
8500.17
8545.47
8525.94
8481.84
8470.47
8471.13
8524.75
8531.67
8479.22
8463.74
8452.61
8491.56
8525.36
8487.86
8456.39
8445.05
8452.28
8505.94
8502.39
8452.21
8440.4
8428.68
8468.57
8501.43
8462.55
8434.01
8423.5
8423.08
8477.43
8484.34
8429.87
8413.15
8401.47
8442.73
8468.95
8438.77
8435.84
8454.05
8420.33
8414.87
8461.99
8450.29
8401.86
8419.53
8460.08
8428.18
8394.61
8428.78
8454.61
8408.32
8380.39
8414.47
8451.1
8418.52
8405.77
8434.94
8410.48
8388.16
8426.98
8430.96
8388.24
8377.18
8363.12
8389.25
8434.68
8405.46
8367.66
8356.1
8357.88
8415.11
8412.42
8379.69
8399.34
8401.7
8362.36
8387.13
8422.43
8381.66
8351.78
8343.18
8400.08
8421.59
8368.1
8360.26
8402.79
8382.03
8355.98
8392.26
8384.54
8348.4
8381.01
8390.08
8343.48
8360.33
8392.89
8350.28
8337.55
8382.63
8369.23
8323.63
8351.45
8384.77
8337.72
8313.12
8360.4
8376.07
8317.46
8304.25
8358.01
8368.25
8306.37
8293.06
8347.9
8363.39
8301.57
8278.02
8321.76
8361.1
8317.39
8272.69
8282.32
8343.35
8340.72
8274.95
8262.97
8320.43
8341.8
8281.08
8254.64
8302.07
8335.63
8283.35
8247.96
8287.8
8328.87
8283.48
8241.4
8273.37
8321.72
8285.58
8235.55
8255.97
8312.56
8291.12
8231.77
8237.39
8299.89
8297.21
8231.03
8221.88
8283.5
8299.43
8234.16
8211.09
8263.64
8296.94
8241.48
8204.38
8241.24
8290.33
8252.54
8201
8218.63
8279.99
8264.12
8200.41
8200.09
8265.77
8271.81
8203.62
8187.8
8248.57
8273.25
8210.46
8181.19
8231.33
8270.02
8217.46
8178.2
8221.53
8263.94
8214.23
8177.42
8225.89
8255.7
8198.62
8181.47
8238.84
8238.72
8180.9
8197.29
8248.02
8210.97
8173.43
8220.84
8244.02
8186.21
8177.35
8237.66
8231.46
8171.71
8187.09
8245.93
8218.52
8164.69
8193.52
8249.01
8214.9
8161.56
8178.4
8247.08
8235.65
8169.31
8155.74
8221.51
8255.12
8196.39
8156.96
8184.29
8250.38
8230.54
8166.38
8157.59
8228.91
8253.57
8188.52
8156.09
8186.15
8252.31
8231.36
8166.62
8157.32
8228.98
8255.85
8191.07
8156.33
8190.64
8254.52
8229.56
8165.21
8163.9
8239.11
8252.5
8181.08
8157.49
8219.66
8257.22
8198.45
8158.41
8204.77
8256.55
8211.15
8160.23
8193.55
8254.89
8222.24
8162.33
8181.99
8251.24
8233.37
8167.15
8157.08
8230.68
8257.42
8190.01
8156.44
8175.43
8249.67
8240.78
8169.51
8149.43
8207.14
8258.13
8208.33
8152.66
8160.95
8245.56
8247.57
8164.07
8153.14
8222.97
8247.09
8179
)
;

boundaryField
{
    sides
    {
        type            zeroGradient;
    }
    empty
    {
        type            empty;
    }
}


// ************************************************************************* //
