/*--------------------------------*- C++ -*----------------------------------*\
  =========                 |
  \\      /  F ield         | OpenFOAM: The Open Source CFD Toolbox
   \\    /   O peration     | Website:  https://openfoam.org
    \\  /    A nd           | Version:  13
     \\/     M anipulation  |
\*---------------------------------------------------------------------------*/
FoamFile
{
    format      ascii;
    class       surfaceScalarField;
    location    "0.07";
    object      phi;
}
// * * * * * * * * * * * * * * * * * * * * * * * * * * * * * * * * * * * * * //

dimensions      [1 0 -1 0 0 0 0];

internalField   nonuniform List<scalar> 
999
(
18.6879
18.683
18.6782
18.6733
18.6684
18.6635
18.6585
18.6534
18.6483
18.6432
18.638
18.6328
18.6275
18.6222
18.6169
18.6116
18.6062
18.6009
18.5956
18.5904
18.5851
18.5799
18.5747
18.5695
18.5644
18.5592
18.554
18.5488
18.5436
18.5383
18.5329
18.5275
18.522
18.5164
18.5108
18.5051
18.4993
18.4935
18.4876
18.4818
18.4759
18.47
18.4641
18.4582
18.4522
18.4462
18.4401
18.4341
18.428
18.4218
18.416
18.4097
18.4045
18.3978
18.3926
18.3866
18.3799
18.3768
18.3666
18.3649
18.3603
18.3567
18.351
18.3448
18.3423
18.3309
18.3043
18.2982
18.3253
18.314
18.2635
18.2449
18.3058
18.3148
18.3146
18.2784
18.1879
18.2134
18.2545
18.234
18.293
18.3177
18.139
18.0677
18.2831
18.3479
18.2487
18.1065
18.0899
18.1911
18.1821
18.0597
18.072
18.197
18.1027
17.9705
18.164
18.2135
17.9587
17.9548
18.2417
18.1593
17.8751
17.9916
18.2508
18.0812
17.829
17.9989
18.1932
17.9876
17.8108
18.0583
18.1391
17.8577
17.8116
18.1136
18.0599
17.7733
17.8685
18.12
17.9478
17.7119
17.9454
18.1194
17.8364
17.6609
17.9985
18.1108
17.7564
17.6152
18.0074
18.1106
17.7218
17.5558
17.9546
18.1181
17.7681
17.5196
17.7772
18.0736
17.901
17.5444
17.6192
18.0001
17.9293
17.5473
17.5617
17.9569
17.9179
17.5292
17.5167
17.9295
17.9186
17.51
17.4532
17.8953
17.942
17.5163
17.3755
17.8038
17.961
17.6144
17.3453
17.5445
17.9242
17.8539
17.3816
17.2616
17.7497
17.94
17.6771
17.3008
17.2288
17.7726
17.9141
17.6003
17.2753
17.335
17.7886
17.7971
17.3536
17.2349
17.6605
17.7836
17.4364
17.2364
17.544
17.7217
17.46
17.2538
17.5045
17.6446
17.4039
17.2662
17.5155
17.5595
17.3217
17.2937
17.5276
17.4688
17.2626
17.3802
17.5388
17.3636
17.2282
17.4962
17.5346
17.2645
17.2545
17.5529
17.4888
17.2164
17.3205
17.5796
17.4308
17.1857
17.3877
17.6028
17.3858
17.1646
17.4311
17.6222
17.3678
17.1553
17.4434
17.6364
17.3774
17.157
17.4327
17.6442
17.4043
17.169
17.4149
17.6469
17.4317
17.1873
17.4096
17.6491
17.4473
17.208
17.4282
17.6559
17.4478
17.2281
17.4715
17.672
17.4373
17.2487
17.5336
17.6968
17.4243
17.2762
17.6039
17.7268
17.4183
17.3126
17.6751
17.762
17.4264
17.3563
17.7418
17.8051
17.4514
17.4024
17.8039
17.86
17.4929
17.4474
17.8617
17.9291
17.5515
17.4912
17.9137
18.0112
17.6303
17.5369
17.9532
18.101
17.7383
17.5929
17.9662
18.1857
17.8904
17.6719
17.9423
18.2558
18.0837
17.7689
17.9091
18.3187
18.2788
17.8806
17.9113
18.372
18.4348
18.0123
17.9688
18.4145
18.5497
18.1587
18.0648
18.4668
18.6481
18.2978
18.1769
18.5477
18.7485
18.4195
18.2945
18.6574
18.857
18.5287
18.4156
18.7878
18.9739
18.6342
18.5414
18.9313
19.0978
18.7434
18.6738
19.0819
19.2268
18.8599
18.8138
19.2367
19.3588
18.9835
18.9615
19.3955
19.4933
19.111
19.1128
19.558
19.6339
19.2416
19.2598
19.7196
19.7874
19.3789
19.395
19.875
19.9605
19.5287
19.5155
20.0145
20.1523
19.7053
19.6304
20.1157
20.3434
19.9444
19.7687
20.1393
20.4975
20.286
19.942
20.0994
20.627
20.6632
20.15
20.111
20.6785
20.9207
20.5124
20.279
20.5543
21.0387
21.0049
20.5057
20.5059
21.1089
21.316
20.8433
20.6594
21.0188
21.4538
21.3339
20.8821
20.9436
21.562
21.7185
21.173
21.0408
21.4993
21.8979
21.7186
21.2698
21.3257
21.9889
22.1911
21.6455
21.4465
21.736
22.3108
22.3917
21.7552
21.6513
22.1254
22.5934
22.5693
21.9612
21.8943
22.4945
22.8716
22.6965
22.1858
22.1876
22.8888
23.1652
22.7306
22.4114
22.5785
23.2549
23.4112
22.7719
22.6374
23.0824
23.5899
23.5377
22.9387
22.9037
23.5935
23.9278
23.5871
23.1692
23.2478
24.0041
24.2495
23.676
23.4203
23.6255
24.3499
24.5415
23.8618
23.6898
24.0006
24.677
24.8232
24.1037
23.9743
24.3854
25.0053
25.0892
24.3653
24.2674
24.8116
25.3452
25.3171
24.6378
24.5781
25.2755
25.6998
25.4892
24.9227
24.9296
25.7387
26.0668
25.6114
25.2143
25.3391
26.1629
26.4142
25.7427
25.5096
25.8025
26.5522
26.7153
25.9409
25.8094
26.2877
26.9284
26.9817
26.2051
26.1178
26.7521
27.2985
27.2498
26.5072
26.439
27.1592
27.6593
27.56
26.8296
26.7636
27.5027
28.0084
27.9352
27.1699
27.0927
27.7753
28.345
28.3703
27.5329
27.4403
27.9752
28.6728
28.8266
27.9393
27.807
28.1335
28.9937
29.2528
28.4362
28.1877
28.3093
29.2941
29.6181
29.0606
28.5834
28.5554
29.5058
29.9375
29.7723
28.9959
28.9086
29.5437
30.252
30.4336
29.4907
29.3367
29.4903
30.5292
30.8553
30.4057
29.7959
29.7094
30.4008
31.1102
31.3692
30.4447
30.201
30.1767
31.2213
31.6585
31.6897
30.718
30.6126
30.8515
31.9069
32.2345
31.6765
31.0984
31.0145
31.8792
32.5088
32.6375
31.6119
31.4784
31.7299
32.8055
33.1355
32.3941
31.9379
31.9092
33.0015
33.4647
33.2435
32.3898
32.2903
33.0556
33.8062
33.9321
32.8752
32.7373
33.0619
34.1421
34.4663
33.5962
33.2029
33.1523
34.2683
34.7744
34.7968
33.7313
33.617
33.7902
34.9986
35.3507
35.015
34.1624
34.0605
34.5143
35.5759
35.9178
35.1189
34.6008
34.4995
35.446
36.1623
36.3543
35.1983
35.0201
35.105
36.3862
36.7808
36.3659
35.53
35.417
36.1986
37.0717
37.2836
36.1059
35.9112
36.077
37.3653
37.7472
37.0149
36.3909
36.3073
37.44
38.0655
37.9971
36.8836
36.7608
37.2376
38.3812
38.7045
37.6259
37.2628
37.2117
38.4801
39.0233
38.9571
37.8078
37.6777
37.9437
39.2655
39.6341
39.0768
38.259
38.1428
38.6482
39.8347
40.1999
39.4775
38.7664
38.6418
39.1467
40.3558
40.7175
40.1525
39.2993
39.1828
39.4612
40.8408
41.2092
40.9494
39.8515
39.7356
39.8098
41.2863
41.704
41.6751
40.4106
40.2802
40.2401
41.6913
42.2097
42.3115
40.9744
40.8173
40.7247
42.0966
42.7243
42.9116
41.5489
41.3545
41.2324
42.4871
43.2395
43.5167
42.1563
41.8807
41.7617
43.0528
43.7998
43.9574
42.5379
42.3379
42.6642
44.1134
44.4606
43.2202
42.8148
43.2197
44.5882
44.7901
43.471
43.2888
44.374
44.9742
44.616
44.0547
44.3151
45.0926
44.9006
44.3171
44.9268
45.7313
45.185
44.6097
44.5484
44.3861
45.3964
46.4144
46.7231
45.4198
45.1782
45.097
44.979
46.4854
47.1187
47.3368
45.9083
45.7303
45.6109
45.7881
47.4415
47.8531
47.7257
46.4039
46.2935
46.1467
46.9452
48.2189
48.6227
47.7835
46.9774
46.8674
46.7336
48.2548
48.9849
49.2798
47.7946
47.5053
47.36
47.833
49.4143
49.8219
49.201
48.1183
47.9688
48.1217
49.8667
50.2939
50.4765
48.8217
48.5918
48.4842
50.1278
50.8531
50.6042
49.1859
49.0116
50.3045
51.2732
50.9674
49.6452
49.6641
51.1355
51.4641
50.7316
50.5507
51.1207
51.4291
50.7746
51.0113
51.8358
51.6992
51.4364
51.7051
51.7331
51.1701
51.9
53.1054
52.8755
51.6135
51.5146
51.3461
51.9538
53.5692
54.0086
52.9046
52.0609
51.8855
52.3687
54.136
54.5683
53.2782
52.5616
52.3669
53.7748
54.8505
54.8155
53.1714
52.9581
53.4404
55.1977
55.5452
53.9607
53.5368
53.6878
55.4234
55.8202
54.8514
54.348
54.8724
55.7815
55.497
54.7722
55.3209
56.315
55.8172
54.8619
54.711
54.6906
56.6072
57.1319
56.1518
55.6202
55.5552
55.3699
56.246
57.2082
57.1304
56.6003
56.8079
57.2872
57.0664
56.8706
57.5143
57.7588
57.3893
57.4981
58.0068
57.8489
57.5857
58.1652
58.469
58.089
58.154
58.6498
58.6375
58.3847
58.7273
59.1075
58.8618
58.8177
59.4921
59.4358
58.7346
59.3119
60.322
59.7057
58.8387
59.5842
60.8554
60.4921
59.2312
59.4737
61.1993
61.3906
59.7242
59.4041
59.7432
61.8373
62.3218
60.9138
60.0321
60.1749
62.2166
62.6638
61.1524
60.5439
61.3644
62.8142
62.6601
61.1385
61.1581
62.9822
63.3947
61.8389
61.4299
62.847
63.7951
62.8762
61.8987
62.5917
64.0086
63.7884
62.6346
62.5585
62.352
62.5251
64.6695
65.1353
63.5537
62.8639
62.6163
64.0888
65.4943
65.6472
63.6235
63.3154
63.4752
65.7401
66.2769
64.8512
63.938
63.695
65.1968
66.58
66.6011
64.6748
64.4402
64.2167
66.0251
67.2127
67.2921
65.2595
64.9863
64.8688
67.1057
67.8943
67.238
65.6908
65.4576
65.9758
68.0818
68.3736
66.717
66.477
66.3504
66.0822
68.0006
69.0063
68.3687
67.0247
66.8594
66.6039
68.0822
69.5457
69.486
67.7104
67.5387
67.31
67.8744
70.0125
70.3062
68.5838
68.3233
68.1814
67.9278
69.9641
70.9152
70.1738
68.9373
68.7879
68.5204
69.6615
71.4316
71.554
69.612
69.3776
69.1425
69.7082
71.9636
72.3917
70.5932
70.0182
69.8064
69.9865
72.4363
72.9942
71.8026
70.6912
70.4661
70.3423
72.8439
73.6384
72.8278
71.4046
71.2103
70.8677
73.1103
74.2206
73.8912
71.8839
71.6322
71.6951
74.2885
74.9896
73.1284
72.0665
72.7845
74.6368
74.6373
73.8411
)
;

boundaryField
{
    sides
    {
        type            calculated;
        value           nonuniform List<scalar> 2(73.7621 -18.6927);
    }
    empty
    {
        type            empty;
    }
}


// ************************************************************************* //
