/*--------------------------------*- C++ -*----------------------------------*\
  =========                 |
  \\      /  F ield         | OpenFOAM: The Open Source CFD Toolbox
   \\    /   O peration     | Website:  https://openfoam.org
    \\  /    A nd           | Version:  13
     \\/     M anipulation  |
\*---------------------------------------------------------------------------*/
FoamFile
{
    format      ascii;
    class       surfaceScalarField;
    location    "0.07";
    object      phi_0;
}
// * * * * * * * * * * * * * * * * * * * * * * * * * * * * * * * * * * * * * //

dimensions      [1 0 -1 0 0 0 0];

internalField   nonuniform List<scalar> 
999
(
23.4112
23.4009
23.3906
23.3803
23.37
23.3598
23.3495
23.3393
23.3291
23.3189
23.3088
23.2988
23.2887
23.2787
23.2688
23.2587
23.2486
23.238
23.2276
23.2164
23.2046
23.1936
23.1783
23.1702
23.1524
23.1467
23.1296
23.1257
23.1089
23.0964
23.0971
23.067
23.0661
23.0697
23.0209
23.0446
23.0434
22.9871
23.0074
23.0048
22.9426
22.9673
23.0309
22.9128
22.8486
23.0593
22.9522
22.7496
22.9773
22.9944
22.6882
22.854
23.0303
22.646
22.7085
23.0332
22.6752
22.5612
23.0155
22.7675
22.4371
22.9507
22.9345
22.3954
22.6606
23.0554
22.5162
22.2782
22.9634
22.9565
22.2788
22.3904
22.9737
22.6498
22.1797
22.6858
22.9264
22.2715
22.2075
22.8439
22.6307
22.113
22.5342
22.7895
22.1878
22.2097
22.6875
22.3348
22.0967
22.5846
22.3874
22.0538
22.4877
22.3869
22.0098
22.4001
22.3936
21.9663
22.288
22.4156
21.933
22.131
22.4212
21.9374
21.9449
22.3843
22.0318
21.7779
22.3237
22.1753
21.7122
22.1158
22.293
21.7242
21.7832
22.2648
21.908
21.5666
22.1424
22.12
21.5665
21.7871
22.1473
21.6652
21.508
22.0469
21.8381
21.4201
21.8669
21.9327
21.4167
21.5836
21.93
21.487
21.335
21.8628
21.6532
21.2263
21.6767
21.7861
21.2389
21.316
21.7604
21.4063
21.0812
21.6397
21.6052
21.075
21.2725
21.6285
21.1891
20.9729
21.5281
21.3878
20.9181
21.2469
21.465
20.9598
20.9088
21.3929
21.1364
20.7543
21.2351
21.2696
20.7603
20.8878
21.2499
20.8688
20.6404
21.1507
21.0074
20.5829
20.9187
21.0508
20.5891
20.6384
20.9877
20.6683
20.4506
20.9064
20.7559
20.374
20.7358
20.814
20.3674
20.4573
20.7923
20.4582
20.2326
20.7241
20.5988
20.1777
20.4817
20.669
20.2195
20.1623
20.6048
20.3761
20.0298
20.4554
20.4609
20.0396
20.1721
20.4158
20.0876
19.9766
20.3256
20.1465
19.8794
20.2317
20.1802
19.8482
20.0662
20.1975
19.8516
19.8666
20.176
19.9341
19.715
20.1346
20.0377
19.6808
19.9555
20.1066
19.7247
19.6928
20.0908
19.8875
19.5676
19.9932
20.0306
19.609
19.6994
20.0234
19.7351
19.5489
19.911
19.8019
19.5474
19.7059
19.7424
19.5528
19.5396
19.631
19.533
19.4841
19.573
19.474
19.4568
19.5664
19.4624
19.4187
19.5793
19.5085
19.3804
19.5424
19.5166
19.368
19.4898
19.5263
19.376
19.4134
19.5309
19.4153
19.3398
19.5429
19.4807
19.3016
19.5214
19.5623
19.3178
19.4089
19.6343
19.4105
19.2976
19.687
19.5717
19.278
19.6313
19.7302
19.3472
19.4384
19.7958
19.5301
19.3174
19.7993
19.7627
19.3691
19.6082
19.9017
19.5236
19.4091
19.9202
19.8167
19.4322
19.7532
20.0153
19.5886
19.5138
20.0421
19.9262
19.5359
19.8701
20.1526
19.719
19.6227
20.1799
20.0986
19.6784
19.9654
20.3166
19.9178
19.7425
20.3263
20.335
19.8574
20.0293
20.4953
20.2085
19.8968
20.4225
20.6159
20.0974
20.0643
20.6781
20.6069
20.1326
20.3712
20.8465
20.5361
20.1987
20.7159
21.0027
20.4855
20.3234
20.9919
21.1067
20.5256
20.5128
21.1927
21.18
20.6244
20.737
21.3697
21.2487
20.7473
20.9768
21.5471
21.3219
20.8815
21.2299
21.7321
21.3977
21.0241
21.4988
21.9263
21.4729
21.1799
21.782
22.1192
21.5571
21.362
22.0636
22.2992
21.668
21.5773
22.3305
22.4635
21.8136
21.8248
22.581
22.6151
21.9883
22.0967
22.8251
22.764
22.1804
22.3784
23.0705
22.9227
22.3836
22.6572
23.3192
23.1035
22.5979
22.9253
23.5718
23.3112
22.8232
23.1801
23.826
23.5504
23.061
23.4215
24.0836
23.8186
23.3111
23.6518
24.3451
24.1138
23.5717
23.8752
24.6093
24.433
23.8413
24.0909
24.8757
24.7727
24.118
24.2994
25.1404
25.1288
24.399
24.5007
25.3975
25.4959
24.6873
24.7008
25.6358
25.8585
24.9947
24.9174
25.8372
26.1953
25.3474
25.1678
25.9851
26.4886
25.7741
25.4622
26.0858
26.7416
26.2752
25.7805
26.1809
26.9963
26.8017
26.109
26.3007
27.2661
27.3163
26.4518
26.4713
27.5274
27.7885
26.8382
26.7212
27.7333
28.1906
27.3197
27.0539
27.8541
28.5119
27.9209
27.4402
27.9257
28.8038
28.5826
27.8298
28.0115
29.0974
29.219
28.2264
28.1785
29.329
29.737
28.7146
28.4861
29.3774
30.0686
29.4343
28.8975
29.3054
30.3201
30.2487
29.3022
29.3366
30.5533
30.8896
29.7542
29.5748
30.5977
31.2655
30.4728
29.9818
30.4373
31.4875
31.4054
30.4005
30.3918
31.6773
32.0973
30.915
30.6776
31.5788
32.3993
31.832
31.1266
31.3749
32.6263
32.7729
31.5733
31.4516
32.7269
33.3334
32.2749
31.8731
32.4322
33.5553
33.4314
32.3549
32.2721
33.6791
34.2347
33.0468
32.6977
33.192
34.4245
34.4316
33.2179
33.0618
34.3767
35.106
34.17
33.5865
33.7826
35.2458
35.5353
34.1307
33.9225
34.9543
35.9198
35.3821
34.4733
34.4544
36.03
36.5288
35.1137
34.8205
35.4469
36.7296
36.6339
35.3652
35.1894
36.6176
37.4108
36.3839
35.7457
35.8593
37.4986
37.892
36.3411
36.0926
36.9835
38.179
37.8368
36.658
36.5705
38.2632
38.8614
37.374
36.9806
37.8342
39.0921
38.705
37.5139
37.5871
39.3193
39.6841
38.0533
37.807
39.3609
40.1869
38.8634
38.2802
39.2115
40.4794
39.8863
38.7807
39.1012
40.7858
40.8504
39.2737
39.1657
41.0112
41.5918
39.9071
39.5236
40.8593
41.9731
41.0132
40.0765
40.4538
42.2173
42.3063
40.6245
40.4058
42.2441
43.0699
41.5309
40.9414
41.5885
43.2597
43.1351
41.5303
41.3148
43.24
44.076
42.4732
41.8812
42.3659
44.2163
44.2675
42.4948
42.2088
43.8819
45.0042
43.8146
42.8874
42.8584
45.0332
45.5817
43.6131
43.2729
43.8788
45.7746
45.711
43.9519
43.6652
44.9576
46.4486
45.7075
44.4216
44.1096
45.8467
47.0895
45.8617
44.9195
44.6008
46.4556
47.6614
46.309
45.4549
45.1372
46.7173
48.1475
47.1157
46.0305
45.765
46.5633
48.5572
48.2998
46.6237
46.4082
46.4291
48.9193
49.3995
47.2737
47.0323
46.7229
48.9997
50.0692
48.2807
47.6295
47.2946
48.9113
50.4838
49.48
48.2031
47.8973
48.977
50.9395
50.4764
48.7524
48.4692
49.2043
51.4331
51.3014
49.3005
49.0259
49.5314
51.9475
52.0303
49.8514
49.5834
49.8703
52.456
52.7464
50.4189
50.1492
50.199
52.9331
53.4711
51.026
50.7253
50.542
53.3154
54.14
51.7323
51.3159
50.9572
53.4711
54.7025
52.6713
51.917
51.5309
53.286
55.0838
53.9167
52.5138
52.1939
52.8995
55.4319
55.2775
53.1105
52.8483
52.7046
55.6711
56.3867
53.8259
53.4896
53.0731
55.2219
56.8735
55.2493
54.1261
53.8176
54.2492
57.0572
57.0969
54.7468
54.5197
54.098
56.7661
58.0969
55.8795
55.2406
54.921
55.3915
58.2434
58.1707
55.9528
55.7638
55.2892
57.492
59.2319
57.4958
56.292
55.953
56.4769
59.1371
58.7201
57.7058
58.9894
58.4477
56.9626
59.1129
60.4408
57.749
57.3494
60.1581
60.363
57.8187
58.2861
60.8239
60.0889
57.9134
57.9961
61.0749
60.892
59.2383
60.6106
61.0889
59.0613
60.2666
62.0835
60.2683
59.5695
59.2588
59.0758
62.3842
62.7937
60.0701
59.7831
59.2198
61.798
63.1849
61.3772
61.6222
63.1279
61.2263
60.9432
63.9101
63.556
61.1987
60.6969
62.1437
64.8726
63.6046
61.7752
63.8702
64.6904
62.4372
63.6251
65.177
62.8336
63.4238
65.6438
63.6593
63.0213
65.803
65.1721
63.1632
65.1314
66.5795
63.689
63.7396
66.7647
66.1595
63.6684
64.9612
67.5141
65.7201
63.8488
65.7696
68.0958
65.9191
64.1761
66.011
68.494
66.7062
64.641
65.1898
68.6763
68.7487
65.2959
64.7316
68.1524
69.8038
66.7578
65.3894
67.1625
69.915
68.5268
66.0311
66.8622
70.1982
69.6229
66.5702
66.939
70.5689
70.4724
67.0747
67.066
70.9123
71.32
67.62
67.2036
71.0863
72.1378
68.3486
67.5005
70.8887
72.7021
69.4786
68.0562
70.3379
72.9651
70.9799
68.6821
69.7573
73.2076
72.4982
69.2668
69.3639
73.4224
73.7943
69.8809
69.326
73.3618
74.6625
70.8004
69.714
72.8489
75.0659
72.2225
70.3394
72.1402
75.2567
73.7836
70.9395
71.7085
75.5056
74.9931
71.4679
71.8515
75.8203
75.3848
71.9298
72.7676
76.272
74.8596
72.2616
74.5116
76.8104
73.6348
72.674
76.4577
76.5974
73.1709
74.1298
77.3522
75.4712
73.2152
76.059
78.0382
74.4666
73.4471
77.5039
78.2964
74.2759
73.8931
78.2374
78.6704
74.5441
73.7593
78.1816
79.6654
75.6436
74.334
76.0053
79.6781
78.7279
75.1552
74.6256
79.3971
80.5008
76.1933
75.0208
77.4377
80.6639
78.9397
75.9329
75.4333
80.3437
81.4139
77.0044
75.8366
78.1901
81.5428
79.959
76.7273
76.3645
81.3222
82.2516
77.688
76.5088
79.9621
82.6074
79.8606
77.2997
78.6061
82.6321
81.6943
77.8864
78.1206
82.7985
82.7724
78.394
78.0572
82.9432
83.5728
78.9456
78.1232
82.8882
84.1925
79.7538
78.4747
80.9057
84.4272
82.6745
79.4568
78.6326
83.6387
85.3507
80.9729
79.5038
80.4245
85.1084
84.8045
80.3634
79.5398
83.6094
85.9035
82.9177
80.5356
80.4764
85.1587
86.581
)
;

boundaryField
{
    sides
    {
        type            calculated;
        value           nonuniform List<scalar> 2(83.1043 -23.4215);
    }
    empty
    {
        type            empty;
    }
}


// ************************************************************************* //
