/*--------------------------------*- C++ -*----------------------------------*\
  =========                 |
  \\      /  F ield         | OpenFOAM: The Open Source CFD Toolbox
   \\    /   O peration     | Website:  https://openfoam.org
    \\  /    A nd           | Version:  13
     \\/     M anipulation  |
\*---------------------------------------------------------------------------*/
FoamFile
{
    format      ascii;
    class       volScalarField;
    location    "0.07";
    object      rho;
}
// * * * * * * * * * * * * * * * * * * * * * * * * * * * * * * * * * * * * * //

dimensions      [1 -3 0 0 0 0 0];

internalField   nonuniform List<scalar> 
1000
(
0.170044
0.170044
0.170044
0.170045
0.170046
0.170048
0.170049
0.17005
0.170052
0.170054
0.170055
0.170057
0.170059
0.170061
0.170063
0.170065
0.170067
0.17007
0.170072
0.170074
0.170077
0.170079
0.170081
0.170084
0.170086
0.170089
0.170091
0.170093
0.170096
0.170098
0.170101
0.170103
0.170106
0.170109
0.170112
0.170114
0.170117
0.17012
0.170123
0.170127
0.17013
0.170133
0.170136
0.170139
0.170142
0.170145
0.170148
0.170151
0.170155
0.170158
0.170161
0.170164
0.170168
0.170171
0.170174
0.170178
0.170181
0.170186
0.170189
0.170191
0.170197
0.1702
0.170206
0.170208
0.170215
0.170218
0.170215
0.170207
0.170224
0.170235
0.170226
0.170207
0.170225
0.170257
0.170269
0.170275
0.170238
0.170221
0.170265
0.170271
0.170278
0.170324
0.170293
0.170209
0.17025
0.170362
0.170372
0.170282
0.170246
0.170282
0.170323
0.170292
0.170252
0.170319
0.170345
0.170261
0.170279
0.170393
0.170336
0.17024
0.170358
0.170442
0.170309
0.170251
0.170423
0.170465
0.170302
0.170274
0.170446
0.170456
0.17031
0.170333
0.170481
0.170429
0.170311
0.170415
0.170517
0.170399
0.170333
0.170496
0.170536
0.170379
0.170374
0.170561
0.170544
0.170375
0.170423
0.170612
0.170557
0.170383
0.170459
0.170658
0.170592
0.170401
0.170462
0.170691
0.170664
0.170444
0.170433
0.170684
0.170739
0.170535
0.170452
0.170654
0.170762
0.170604
0.170491
0.170662
0.17079
0.170649
0.170524
0.170683
0.170828
0.170698
0.170552
0.17069
0.170869
0.17077
0.170585
0.170664
0.170898
0.170874
0.170646
0.170611
0.170873
0.170975
0.170786
0.170623
0.17072
0.170987
0.171004
0.170754
0.170644
0.170796
0.171044
0.171037
0.17079
0.170714
0.170935
0.171084
0.170958
0.170784
0.170874
0.171093
0.171054
0.170859
0.170884
0.171102
0.171098
0.170924
0.170938
0.171121
0.171107
0.170972
0.171016
0.17115
0.171102
0.171013
0.171109
0.171187
0.171099
0.17107
0.171212
0.171222
0.171109
0.17116
0.171299
0.171238
0.17114
0.171268
0.171364
0.171248
0.171191
0.171366
0.171416
0.171268
0.17125
0.171448
0.171465
0.171298
0.171307
0.171515
0.171515
0.171339
0.171355
0.17157
0.17157
0.171388
0.171396
0.171614
0.171624
0.17144
0.171435
0.171651
0.171672
0.171491
0.171476
0.171685
0.171711
0.171535
0.171521
0.171723
0.171742
0.17157
0.171569
0.171765
0.171767
0.171598
0.171618
0.171808
0.171787
0.171623
0.171669
0.17185
0.171803
0.171645
0.171719
0.17189
0.171817
0.171666
0.171762
0.171925
0.171834
0.171685
0.171795
0.171955
0.171854
0.171702
0.171815
0.17198
0.17188
0.171718
0.17182
0.171999
0.171912
0.171732
0.17181
0.172009
0.17195
0.171747
0.171786
0.172005
0.171991
0.171768
0.171754
0.17198
0.172023
0.1718
0.171727
0.17193
0.172034
0.171845
0.171713
0.171866
0.17202
0.171886
0.17171
0.171807
0.171992
0.171906
0.171707
0.171765
0.17196
0.171904
0.171699
0.171737
0.17193
0.171885
0.171682
0.171717
0.171905
0.171858
0.171658
0.1717
0.171884
0.171825
0.171632
0.171685
0.171864
0.171791
0.171604
0.171671
0.171845
0.171757
0.171577
0.171658
0.171825
0.171722
0.171552
0.171646
0.171805
0.171686
0.171524
0.171634
0.171785
0.171651
0.171494
0.171616
0.171766
0.171622
0.171462
0.171587
0.171747
0.171606
0.171429
0.17154
0.171724
0.17161
0.1714
0.171472
0.171691
0.171636
0.171385
0.171388
0.171634
0.171668
0.171402
0.171315
0.171533
0.171671
0.171474
0.17128
0.171384
0.171623
0.171579
0.171295
0.171256
0.171512
0.171617
0.171379
0.17121
0.171347
0.171572
0.171494
0.171217
0.171206
0.171473
0.171545
0.171277
0.17114
0.17132
0.171518
0.171389
0.171127
0.171148
0.171427
0.171479
0.171184
0.17105
0.171234
0.171453
0.171356
0.171051
0.171011
0.171293
0.171434
0.171223
0.170971
0.170988
0.171296
0.171392
0.171119
0.17091
0.170977
0.171277
0.171327
0.171009
0.170852
0.170997
0.171258
0.171226
0.170888
0.170802
0.171047
0.171233
0.171072
0.170784
0.170785
0.171089
0.171184
0.170897
0.1707
0.170808
0.171096
0.1711
0.170751
0.170631
0.170837
0.171074
0.170992
0.170645
0.170573
0.170843
0.171036
0.170888
0.170564
0.170521
0.170824
0.170988
0.170792
0.170492
0.170475
0.170797
0.170934
0.17069
0.170422
0.170441
0.170772
0.170873
0.170572
0.17035
0.170426
0.170749
0.170798
0.170445
0.170278
0.170432
0.170721
0.170699
0.170322
0.170211
0.170448
0.170683
0.170573
0.170213
0.170154
0.170456
0.170635
0.170431
0.170117
0.170108
0.170445
0.170575
0.170294
0.170029
0.170063
0.17041
0.170506
0.170175
0.169943
0.170005
0.170354
0.170434
0.17008
0.16986
0.169925
0.170279
0.170364
0.170014
0.169781
0.169821
0.170186
0.170295
0.169978
0.169708
0.169704
0.17007
0.170219
0.169975
0.169643
0.169593
0.169928
0.170132
0.169992
0.169594
0.169502
0.169761
0.170038
0.170007
0.169574
0.169434
0.169575
0.169933
0.169996
0.169604
0.169384
0.169397
0.169792
0.169941
0.169705
0.16935
0.16927
0.169558
0.169836
0.169838
0.169392
0.169226
0.169247
0.169658
0.169808
0.169642
0.169229
0.169124
0.169285
0.16966
0.169751
0.16941
0.169114
0.169047
0.16938
0.169639
0.169621
0.169158
0.169001
0.169064
0.169483
0.169609
0.169318
0.168978
0.168909
0.169248
0.169509
0.169444
0.168982
0.168849
0.169012
0.169397
0.169458
0.169033
0.168807
0.168834
0.169263
0.169408
0.169111
0.168769
0.168708
0.169077
0.169324
0.169223
0.168761
0.168637
0.168785
0.169194
0.169293
0.168933
0.168625
0.168546
0.168868
0.169172
0.169208
0.168742
0.168531
0.16849
0.168906
0.16913
0.169068
0.168577
0.168435
0.168496
0.168951
0.169093
0.168823
0.168432
0.168339
0.168616
0.168968
0.168996
0.168515
0.168312
0.168328
0.168787
0.168955
0.168695
0.168292
0.168205
0.16853
0.168849
0.168815
0.168315
0.168153
0.16827
0.168722
0.168824
0.168416
0.168123
0.16808
0.168509
0.168748
0.168599
0.168121
0.167999
0.168172
0.168618
0.168702
0.168281
0.168002
0.167917
0.168286
0.168604
0.168607
0.168095
0.167905
0.167865
0.168315
0.168556
0.168528
0.168
0.167845
0.167796
0.168244
0.16849
0.168498
0.167978
0.167788
0.167713
0.168106
0.168413
0.16847
0.167993
0.167737
0.167646
0.167945
0.168335
0.168423
0.168013
0.167691
0.167594
0.167809
0.168261
0.16837
0.168019
0.167649
0.167547
0.167704
0.168193
0.168319
0.168018
0.167607
0.167502
0.167607
0.168119
0.168264
0.168025
0.167559
0.167446
0.16756
0.168071
0.168209
0.167879
0.16747
0.167394
0.167807
0.168116
0.167953
0.167459
0.167376
0.167803
0.168073
0.167796
0.167403
0.167487
0.167898
0.167934
0.167591
0.167487
0.167709
0.167816
0.167534
0.167468
0.167812
0.167847
0.167452
0.167328
0.16724
0.167268
0.167791
0.167972
0.167768
0.167323
0.16724
0.167142
0.167317
0.167813
0.167938
0.167649
0.167236
0.167148
0.167062
0.167441
0.167812
0.167894
0.167446
0.167152
0.16706
0.167046
0.16758
0.167803
0.16778
0.167231
0.167071
0.166976
0.167127
0.16766
0.167801
0.16756
0.167083
0.166978
0.166919
0.16741
0.167712
0.167733
0.167179
0.166962
0.166871
0.167246
0.167637
0.167746
0.1674
0.166948
0.166837
0.167018
0.167554
0.167651
0.167152
0.166847
0.166922
0.167472
0.167588
0.167095
0.166829
0.167084
0.167431
0.167351
0.167058
0.167072
0.167266
0.167152
0.166979
0.167204
0.167297
0.167116
0.16709
0.167159
0.166987
0.166915
0.167359
0.167518
0.16706
0.166807
0.166721
0.166668
0.167191
0.167482
0.16743
0.166839
0.166671
0.166607
0.167117
0.16745
0.167355
0.166773
0.166617
0.166696
0.167294
0.167452
0.167019
0.166646
0.166578
0.16708
0.167406
0.167195
0.166676
0.166567
0.16692
0.16729
0.167223
0.166779
0.166722
0.167043
0.16714
0.166819
0.166724
0.167063
0.16715
0.166719
0.16653
0.16643
0.166718
0.1672
0.167146
0.166691
0.16659
0.166506
0.166508
0.16696
0.167066
0.166852
0.166758
0.16688
0.166909
0.166744
0.166784
0.166954
0.166891
0.166776
0.166869
0.166922
0.166758
0.16677
0.166945
0.166891
0.166766
0.16684
0.166912
0.166796
0.166764
0.1669
0.166894
0.16676
0.166836
0.166961
0.166738
0.16664
0.166984
0.167051
0.16662
0.166536
0.166993
0.167138
0.166689
0.16647
0.166833
0.167164
0.166874
0.16644
0.166351
0.166838
0.167234
0.167149
0.166536
0.166376
0.166751
0.167193
0.167049
0.166496
0.166449
0.166971
0.16716
0.166732
0.166441
0.166723
0.167123
0.166933
0.166469
0.166538
0.167054
0.167071
0.166541
0.166437
0.16691
0.167084
0.166704
0.166492
0.166417
0.166307
0.16671
0.167164
0.167018
0.166419
0.166282
0.166332
0.166983
0.16719
0.166814
0.166336
0.166232
0.166647
0.167114
0.167034
0.166419
0.166247
0.166303
0.166953
0.167142
0.166718
0.166312
0.166199
0.166314
0.166974
0.167144
0.166732
0.166286
0.16617
0.166428
0.167024
0.167085
0.166499
0.166233
0.16616
0.166696
0.167048
0.166808
0.166383
0.166309
0.166198
0.166343
0.16696
0.167033
0.166497
0.166277
0.166175
0.16622
0.166879
0.167067
0.166643
0.166298
0.166205
0.166134
0.166684
0.167034
0.166789
0.166352
0.166275
0.166163
0.166334
0.166949
0.167003
0.166468
0.166274
0.166178
0.16617
0.166813
0.167058
0.166693
0.16628
0.16618
0.16611
0.166674
0.167046
0.166869
0.166313
0.166194
0.16608
0.1665
0.167029
0.16698
0.166353
0.166207
0.166096
0.166388
0.166914
0.167005
0.166429
0.166185
0.16614
0.16628
0.166855
0.16708
0.166626
0.166087
0.166072
0.166573
0.166924
0.166882
0.166369
0.166052
0.166411
0.167107
0.166925
0.166146
)
;

boundaryField
{
    sides
    {
        type            calculated;
        value           nonuniform List<scalar> 2(0.166146 0.170044);
    }
    empty
    {
        type            empty;
    }
}


// ************************************************************************* //
