/*--------------------------------*- C++ -*----------------------------------*\
  =========                 |
  \\      /  F ield         | OpenFOAM: The Open Source CFD Toolbox
   \\    /   O peration     | Website:  https://openfoam.org
    \\  /    A nd           | Version:  13
     \\/     M anipulation  |
\*---------------------------------------------------------------------------*/
FoamFile
{
    format      ascii;
    class       volScalarField;
    location    "0.07";
    object      rho;
}
// * * * * * * * * * * * * * * * * * * * * * * * * * * * * * * * * * * * * * //

dimensions      [1 -3 0 0 0 0 0];

internalField   nonuniform List<scalar> 
1000
(
0.173369
0.173369
0.173369
0.173371
0.173372
0.173374
0.173377
0.173379
0.173381
0.173384
0.173386
0.173388
0.17339
0.173392
0.173395
0.173397
0.1734
0.173402
0.173405
0.173409
0.173412
0.173416
0.17342
0.173424
0.173429
0.173433
0.173438
0.17344
0.173445
0.173443
0.173451
0.173453
0.17345
0.173465
0.173463
0.173459
0.173483
0.173475
0.173471
0.173492
0.173486
0.173475
0.173515
0.173525
0.173467
0.173516
0.173575
0.173486
0.173485
0.173593
0.173523
0.173465
0.173606
0.173571
0.173454
0.173603
0.173627
0.173463
0.173582
0.173682
0.173497
0.173537
0.173733
0.173579
0.173479
0.173726
0.173726
0.173484
0.173598
0.173828
0.173647
0.173483
0.173731
0.173837
0.173582
0.17357
0.173846
0.173767
0.173548
0.173733
0.173889
0.173662
0.173618
0.173882
0.173811
0.173625
0.173816
0.173885
0.173686
0.17378
0.173912
0.173745
0.173778
0.173934
0.173791
0.173787
0.173965
0.173841
0.173795
0.173997
0.173907
0.173805
0.174013
0.173987
0.173827
0.174008
0.174072
0.173877
0.173977
0.174144
0.173968
0.173937
0.174179
0.174097
0.173937
0.174151
0.174226
0.174011
0.174078
0.174298
0.17415
0.174045
0.17429
0.174294
0.174095
0.174239
0.174382
0.1742
0.174203
0.174427
0.174321
0.17421
0.174435
0.174447
0.174262
0.17441
0.17455
0.17437
0.174369
0.174609
0.174518
0.174375
0.174598
0.174665
0.174463
0.174537
0.174754
0.174616
0.174515
0.174761
0.174779
0.174584
0.174711
0.174885
0.174723
0.174676
0.174924
0.174884
0.174718
0.174903
0.175013
0.174832
0.174862
0.175089
0.174987
0.174873
0.175101
0.175136
0.174956
0.175072
0.175236
0.175089
0.175062
0.175287
0.175229
0.175106
0.175301
0.17535
0.175194
0.175302
0.175447
0.175312
0.175306
0.17552
0.175451
0.175343
0.175552
0.175592
0.175431
0.175542
0.175706
0.175571
0.175533
0.175768
0.175736
0.175587
0.175765
0.175869
0.175712
0.175743
0.175946
0.175857
0.175773
0.17597
0.175981
0.175853
0.17598
0.176071
0.175955
0.175998
0.17615
0.176067
0.176032
0.176217
0.176191
0.17609
0.176258
0.176313
0.176184
0.176272
0.176421
0.176314
0.176284
0.176494
0.176466
0.176342
0.176515
0.176608
0.176466
0.176499
0.176708
0.176633
0.176531
0.176735
0.176777
0.176635
0.176727
0.176844
0.176755
0.176744
0.176859
0.176844
0.176799
0.176872
0.176897
0.176868
0.176926
0.176953
0.176928
0.177007
0.177037
0.177003
0.177084
0.177136
0.177099
0.177129
0.177208
0.177185
0.177184
0.177279
0.177274
0.177243
0.177339
0.177364
0.177313
0.177382
0.177452
0.1774
0.17741
0.177536
0.177505
0.177447
0.177598
0.177625
0.177515
0.177625
0.17774
0.177623
0.177625
0.17782
0.177758
0.177652
0.177841
0.177892
0.177732
0.177813
0.177986
0.177862
0.177794
0.178014
0.178013
0.177843
0.177972
0.178122
0.177966
0.177921
0.178153
0.178126
0.177951
0.178098
0.178243
0.178074
0.178029
0.178267
0.178243
0.178057
0.178194
0.178356
0.17819
0.178121
0.178361
0.178366
0.178163
0.178265
0.178464
0.178319
0.178201
0.178431
0.178497
0.178282
0.178305
0.178553
0.178475
0.178285
0.178452
0.17862
0.178433
0.178333
0.178585
0.178646
0.178411
0.178415
0.178686
0.178643
0.178412
0.178516
0.178755
0.178627
0.178433
0.178613
0.178803
0.178615
0.178464
0.178696
0.178839
0.178611
0.1785
0.178765
0.178864
0.178611
0.178539
0.178822
0.178879
0.17861
0.17858
0.178871
0.178881
0.178607
0.178624
0.178911
0.178868
0.1786
0.178672
0.178942
0.178839
0.178592
0.17872
0.17896
0.1788
0.178584
0.178762
0.178966
0.178756
0.178574
0.178793
0.17896
0.17871
0.178561
0.17881
0.178945
0.178666
0.178543
0.178812
0.178922
0.178625
0.178519
0.178799
0.178896
0.178586
0.178489
0.178775
0.178867
0.17855
0.178452
0.178742
0.178838
0.178517
0.178411
0.178699
0.178808
0.178486
0.178365
0.178646
0.178775
0.178458
0.178315
0.178584
0.178737
0.178431
0.17826
0.178508
0.178692
0.178405
0.1782
0.178416
0.178636
0.178384
0.178137
0.178305
0.178565
0.178369
0.178072
0.17818
0.178479
0.178357
0.178011
0.178048
0.178376
0.178342
0.177959
0.177925
0.17826
0.178313
0.177923
0.177819
0.178132
0.178267
0.177907
0.177732
0.177995
0.178208
0.177913
0.177664
0.17785
0.178136
0.177937
0.177613
0.177706
0.178049
0.177966
0.177579
0.177576
0.177946
0.177977
0.177564
0.17747
0.17782
0.177958
0.177574
0.177387
0.177662
0.177905
0.177615
0.177324
0.177476
0.177813
0.177676
0.177281
0.17729
0.177678
0.177712
0.177266
0.177147
0.177491
0.177678
0.177302
0.177053
0.177262
0.177577
0.177372
0.176989
0.177029
0.177424
0.177427
0.176958
0.176849
0.177209
0.177398
0.177003
0.176743
0.176932
0.177279
0.17711
0.176686
0.176676
0.177092
0.177166
0.176688
0.176521
0.17684
0.177105
0.176778
0.176444
0.176551
0.176961
0.1769
0.176417
0.176325
0.176729
0.176922
0.176498
0.176228
0.176387
0.176794
0.176693
0.17621
0.176112
0.176517
0.176745
0.176346
0.176037
0.176117
0.176572
0.176576
0.176053
0.175897
0.176227
0.176547
0.176256
0.175853
0.175844
0.176319
0.176428
0.17591
0.175692
0.175922
0.176324
0.176151
0.175666
0.175581
0.176028
0.176248
0.175798
0.175493
0.175575
0.17606
0.176067
0.175511
0.175342
0.175655
0.176025
0.175766
0.175309
0.175258
0.17575
0.175924
0.175411
0.175139
0.17534
0.175791
0.175651
0.175119
0.175048
0.175541
0.175719
0.175197
0.174932
0.175234
0.175625
0.175336
0.174881
0.174966
0.175473
0.175428
0.174862
0.17478
0.175287
0.175439
0.174887
0.174661
0.175063
0.175384
0.174964
0.174588
0.174803
0.175276
0.175082
0.174553
0.17455
0.175099
0.175176
0.17458
0.174386
0.174822
0.175153
0.174724
0.174327
0.174463
0.175004
0.174934
0.174331
0.174203
0.17471
0.174989
0.174486
0.17413
0.17428
0.174834
0.174759
0.174145
0.173998
0.174481
0.174814
0.174353
0.173951
0.173996
0.174598
0.174653
0.174012
0.173795
0.174109
0.174604
0.174348
0.173801
0.173683
0.174211
0.174533
0.174029
0.173653
0.173615
0.174238
0.17441
0.173787
0.173522
0.173555
0.1742
0.174268
0.173617
0.173404
0.173456
0.17411
0.174152
0.173502
0.173303
0.173297
0.173962
0.174085
0.17344
0.17322
0.173116
0.173716
0.174024
0.173467
0.173141
0.172992
0.173377
0.173902
0.173579
0.17306
0.172911
0.173046
0.173714
0.173669
0.173004
0.172826
0.172809
0.173501
0.173654
0.172978
0.17273
0.172642
0.173293
0.173571
0.172949
0.17262
0.1725
0.173103
0.17346
0.172896
0.172504
0.172365
0.172919
0.173336
0.172824
0.17238
0.172227
0.172722
0.173201
0.172753
0.172251
0.172088
0.172498
0.173051
0.172698
0.172124
0.171953
0.172243
0.172884
0.17266
0.172007
0.171833
0.171963
0.172687
0.172645
0.17192
0.171729
0.1717
0.172444
0.172612
0.171888
0.171628
0.171493
0.172121
0.172521
0.171934
0.17153
0.17136
0.171706
0.172346
0.172053
0.17143
0.171266
0.171284
0.172051
0.172138
0.171386
0.171168
0.17101
0.171579
0.172052
0.171504
0.171061
0.170897
0.171012
0.171777
0.171712
0.170997
0.170829
0.170662
0.171245
0.171704
0.171137
0.170736
0.170583
0.170587
0.171366
0.171452
0.17067
0.170434
0.170268
0.170871
0.171236
0.170799
0.170766
0.171023
0.170532
0.170467
0.171143
0.170958
0.170271
0.170538
0.17111
0.17064
0.170169
0.17067
0.171028
0.170356
0.169964
0.170466
0.17098
0.170505
0.170333
0.170752
0.170387
0.170078
0.170641
0.170684
0.170073
0.169916
0.169714
0.170104
0.170746
0.170313
0.169779
0.169612
0.169649
0.17047
0.170417
0.169953
0.170243
0.170263
0.1697
0.170071
0.170566
0.169969
0.169548
0.16943
0.170256
0.170549
0.169776
0.169678
0.170287
0.169974
0.169612
0.170138
0.17001
0.1695
0.169978
0.170093
0.169424
0.169682
0.170139
0.169517
0.169349
0.169998
0.169787
0.16914
0.169554
0.17002
0.169333
0.168992
0.16968
0.169889
0.169042
0.168866
0.169643
0.169773
0.168881
0.168702
0.169497
0.169703
0.168809
0.168479
0.169123
0.169675
0.16903
0.168398
0.168551
0.169424
0.169368
0.168424
0.168263
0.169097
0.169389
0.168506
0.168137
0.168833
0.169301
0.168536
0.168038
0.168627
0.169205
0.168535
0.167941
0.168418
0.169101
0.168562
0.167854
0.168165
0.16897
0.168641
0.167796
0.167892
0.16879
0.168731
0.167781
0.167662
0.168556
0.168767
0.167822
0.167501
0.168271
0.168735
0.167922
0.167399
0.167948
0.168642
0.168078
0.167346
0.167618
0.168494
0.168244
0.167334
0.167344
0.168291
0.168359
0.167375
0.167159
0.168045
0.168383
0.167467
0.167058
0.167797
0.168338
0.167564
0.167012
0.167654
0.168249
0.167517
0.167001
0.167715
0.168127
0.167294
0.167064
0.167897
0.167872
0.167042
0.167299
0.168019
0.167467
0.16694
0.167637
0.167952
0.167111
0.167003
0.167874
0.167762
0.166906
0.167149
0.167989
0.167572
0.166807
0.167244
0.168031
0.167518
0.16676
0.167023
0.168005
0.167818
0.166869
0.166682
0.167645
0.168112
0.16725
0.166692
0.167108
0.168049
0.16774
0.166825
0.166709
0.167746
0.168083
0.167135
0.166676
0.167132
0.168073
0.167749
0.166825
0.166702
0.167746
0.168114
0.167168
0.166678
0.167196
0.168103
0.16772
0.166803
0.1668
0.167886
0.168058
0.167023
0.166696
0.167609
0.168131
0.167268
0.166705
0.167395
0.168124
0.167449
0.166729
0.167232
0.168102
0.167607
0.166757
0.167063
0.168051
0.167769
0.166824
0.16669
0.167761
0.168127
0.167143
0.166669
0.166965
0.168026
0.167873
0.166853
0.166571
0.167423
0.168139
0.1674
0.166611
0.166747
0.167965
0.167974
0.166768
0.166616
0.167647
0.167978
0.166973
)
;

boundaryField
{
    sides
    {
        type            calculated;
        value           nonuniform List<scalar> 2(0.166973 0.173369);
    }
    empty
    {
        type            empty;
    }
}


// ************************************************************************* //
