/*--------------------------------*- C++ -*----------------------------------*\
  =========                 |
  \\      /  F ield         | OpenFOAM: The Open Source CFD Toolbox
   \\    /   O peration     | Website:  https://openfoam.org
    \\  /    A nd           | Version:  13
     \\/     M anipulation  |
\*---------------------------------------------------------------------------*/
FoamFile
{
    format      ascii;
    class       volScalarField;
    location    "0.07";
    object      T;
}
// * * * * * * * * * * * * * * * * * * * * * * * * * * * * * * * * * * * * * //

dimensions      [0 0 0 1 0 0 0];

internalField   nonuniform List<scalar> 
1000
(
171.77
171.77
171.77
171.771
171.771
171.772
171.773
171.773
171.774
171.775
171.776
171.777
171.777
171.778
171.779
171.78
171.781
171.782
171.783
171.785
171.786
171.788
171.79
171.792
171.794
171.796
171.798
171.799
171.802
171.802
171.805
171.807
171.805
171.812
171.812
171.811
171.821
171.819
171.818
171.827
171.826
171.823
171.84
171.846
171.824
171.843
171.87
171.837
171.836
171.882
171.857
171.834
171.892
171.883
171.837
171.897
171.912
171.848
171.895
171.941
171.87
171.884
171.968
171.911
171.87
171.971
171.978
171.882
171.926
172.025
171.958
171.891
171.991
172.041
171.943
171.936
172.051
172.028
171.94
172.014
172.084
171.997
171.979
172.089
172.068
171.994
172.071
172.107
172.03
172.068
172.128
172.065
172.078
172.147
172.095
172.093
172.17
172.126
172.108
172.193
172.164
172.124
172.21
172.208
172.145
172.219
172.253
172.178
172.218
172.293
172.228
172.216
172.318
172.293
172.23
172.318
172.356
172.274
172.301
172.396
172.344
172.302
172.404
172.414
172.337
172.396
172.461
172.394
172.395
172.491
172.456
172.412
172.506
172.519
172.448
172.508
172.572
172.506
172.505
172.608
172.58
172.524
172.616
172.651
172.575
172.605
172.7
172.653
172.613
172.716
172.732
172.658
172.709
172.788
172.73
172.712
172.817
172.809
172.746
172.822
172.875
172.808
172.821
172.919
172.886
172.842
172.937
172.96
172.893
172.94
173.014
172.962
172.953
173.049
173.034
172.988
173.07
173.098
173.04
173.086
173.152
173.105
173.105
173.197
173.178
173.138
173.226
173.252
173.193
173.24
173.314
173.268
173.255
173.356
173.353
173.298
173.373
173.424
173.368
173.383
173.473
173.446
173.417
173.502
173.515
173.47
173.525
173.571
173.532
173.553
173.622
173.598
173.588
173.669
173.667
173.632
173.705
173.736
173.691
173.73
173.799
173.764
173.755
173.846
173.844
173.799
173.871
173.917
173.867
173.881
173.972
173.949
173.911
173.996
174.02
173.967
174.005
174.058
174.026
174.023
174.072
174.07
174.054
174.085
174.098
174.088
174.112
174.126
174.116
174.148
174.163
174.149
174.181
174.204
174.19
174.201
174.234
174.225
174.224
174.262
174.261
174.248
174.286
174.297
174.277
174.303
174.332
174.312
174.314
174.365
174.354
174.33
174.389
174.402
174.358
174.399
174.447
174.402
174.4
174.478
174.456
174.412
174.486
174.509
174.446
174.475
174.546
174.499
174.469
174.557
174.559
174.491
174.54
174.602
174.542
174.521
174.613
174.606
174.535
174.591
174.651
174.586
174.565
174.659
174.653
174.578
174.63
174.697
174.633
174.602
174.697
174.702
174.621
174.657
174.739
174.684
174.634
174.724
174.753
174.668
174.673
174.773
174.746
174.668
174.731
174.801
174.729
174.685
174.784
174.812
174.719
174.717
174.825
174.812
174.718
174.756
174.853
174.806
174.726
174.794
174.873
174.801
174.738
174.828
174.888
174.8
174.752
174.856
174.899
174.8
174.767
174.879
174.906
174.799
174.783
174.899
174.907
174.798
174.801
174.916
174.903
174.795
174.819
174.929
174.892
174.791
174.838
174.936
174.877
174.788
174.855
174.939
174.859
174.783
174.867
174.937
174.841
174.778
174.874
174.932
174.824
174.771
174.876
174.924
174.807
174.762
174.871
174.914
174.792
174.75
174.862
174.903
174.778
174.736
174.849
174.892
174.766
174.72
174.833
174.881
174.755
174.703
174.813
174.868
174.745
174.684
174.789
174.854
174.735
174.664
174.759
174.837
174.727
174.642
174.724
174.816
174.72
174.618
174.681
174.788
174.716
174.594
174.632
174.755
174.713
174.572
174.582
174.715
174.707
174.553
174.536
174.669
174.696
174.541
174.496
174.618
174.677
174.537
174.463
174.564
174.654
174.541
174.437
174.507
174.625
174.552
174.418
174.45
174.59
174.564
174.406
174.401
174.549
174.567
174.402
174.361
174.498
174.559
174.409
174.33
174.435
174.537
174.428
174.307
174.361
174.5
174.453
174.291
174.29
174.446
174.466
174.288
174.236
174.37
174.451
174.305
174.201
174.278
174.409
174.335
174.177
174.187
174.347
174.355
174.167
174.119
174.26
174.341
174.188
174.079
174.149
174.293
174.233
174.058
174.05
174.217
174.253
174.063
173.992
174.114
174.227
174.103
173.964
174
174.168
174.152
173.955
173.915
174.074
174.157
173.993
173.879
173.936
174.105
174.073
173.875
173.832
173.991
174.089
173.935
173.806
173.831
174.017
174.027
173.815
173.749
173.875
174.01
173.903
173.734
173.725
173.916
173.968
173.763
173.67
173.755
173.923
173.863
173.662
173.624
173.8
173.896
173.722
173.593
173.619
173.818
173.83
173.605
173.533
173.652
173.808
173.715
173.523
173.498
173.695
173.773
173.572
173.457
173.529
173.717
173.672
173.452
173.418
173.614
173.695
173.49
173.376
173.49
173.655
173.55
173.358
173.384
173.593
173.586
173.354
173.314
173.516
173.588
173.369
173.27
173.425
173.564
173.404
173.244
173.321
173.52
173.454
173.233
173.224
173.447
173.489
173.249
173.164
173.333
173.476
173.313
173.144
173.19
173.414
173.398
173.15
173.092
173.292
173.415
173.221
173.068
173.119
173.349
173.332
173.078
173.014
173.202
173.347
173.171
172.999
173.008
173.255
173.289
173.029
172.936
173.051
173.262
173.172
172.94
172.888
173.095
173.237
173.042
172.881
172.858
173.11
173.191
172.943
172.829
172.833
173.097
173.137
172.873
172.782
172.793
173.061
173.092
172.826
172.742
172.73
173.001
173.063
172.803
172.708
172.661
172.897
173.035
172.817
172.676
172.614
172.757
172.982
172.865
172.642
172.582
172.624
172.903
172.899
172.623
172.548
172.531
172.812
172.888
172.616
172.508
172.466
172.725
172.851
172.606
172.463
172.41
172.646
172.804
172.586
172.415
172.355
172.57
172.753
172.557
172.364
172.3
172.488
172.697
172.529
172.312
172.244
172.396
172.635
172.507
172.259
172.19
172.292
172.565
172.491
172.213
172.141
172.179
172.481
172.481
172.179
172.097
172.075
172.378
172.462
172.169
172.056
171.996
172.241
172.42
172.192
172.015
171.945
172.07
172.345
172.244
171.976
171.91
171.905
172.221
172.275
171.966
171.871
171.804
172.023
172.233
172.024
171.829
171.763
171.795
172.116
172.109
171.809
171.738
171.666
171.892
172.097
171.878
171.701
171.64
171.629
171.95
172.005
171.683
171.58
171.508
171.742
171.909
171.735
171.708
171.82
171.628
171.581
171.861
171.808
171.514
171.605
171.855
171.679
171.468
171.661
171.826
171.56
171.385
171.574
171.803
171.618
171.531
171.704
171.572
171.428
171.653
171.691
171.434
171.367
171.283
171.424
171.704
171.545
171.31
171.242
171.241
171.584
171.581
171.381
171.49
171.519
171.282
171.414
171.636
171.405
171.218
171.161
171.493
171.636
171.323
171.261
171.516
171.407
171.24
171.451
171.422
171.197
171.382
171.453
171.173
171.258
171.464
171.219
171.128
171.396
171.334
171.052
171.205
171.417
171.147
170.986
171.261
171.371
171.025
170.932
171.25
171.328
170.96
170.867
171.191
171.3
170.934
170.783
171.032
171.281
171.036
170.755
170.799
171.171
171.173
170.775
170.691
171.03
171.174
170.818
170.646
170.92
171.136
170.835
170.609
170.834
171.095
170.839
170.572
170.748
171.053
170.854
170.54
170.646
170.997
170.889
170.52
170.538
170.919
170.923
170.52
170.451
170.818
170.932
170.543
170.391
170.696
170.913
170.593
170.356
170.562
170.872
170.664
170.339
170.428
170.809
170.734
170.339
170.322
170.72
170.776
170.364
170.255
170.615
170.782
170.412
170.221
170.51
170.761
170.459
170.206
170.452
170.725
170.44
170.201
170.481
170.679
170.343
170.22
170.564
170.586
170.231
170.31
170.629
170.424
170.18
170.455
170.615
170.271
170.197
170.562
170.548
170.178
170.25
170.617
170.473
170.133
170.288
170.638
170.453
170.116
170.198
170.624
170.578
170.167
170.074
170.461
170.683
170.342
170.089
170.234
170.648
170.551
170.15
170.085
170.511
170.679
170.295
170.087
170.248
170.663
170.559
170.155
170.087
170.513
170.695
170.314
170.091
170.277
170.679
170.551
170.148
170.124
170.581
170.682
170.254
170.096
170.459
170.706
170.366
170.106
170.368
170.7
170.446
170.12
170.301
170.688
170.514
170.135
170.233
170.664
170.581
170.167
170.094
170.532
170.714
170.317
170.102
170.196
170.657
170.628
170.187
170.056
170.389
170.718
170.437
170.082
170.116
170.633
170.666
170.16
170.087
170.488
170.652
170.262
)
;

boundaryField
{
    sides
    {
        type            zeroGradient;
    }
    empty
    {
        type            empty;
    }
}


// ************************************************************************* //
