/*--------------------------------*- C++ -*----------------------------------*\
  =========                 |
  \\      /  F ield         | OpenFOAM: The Open Source CFD Toolbox
   \\    /   O peration     | Website:  https://openfoam.org
    \\  /    A nd           | Version:  13
     \\/     M anipulation  |
\*---------------------------------------------------------------------------*/
FoamFile
{
    format      ascii;
    class       volVectorField;
    location    "0.07";
    object      U;
}
// * * * * * * * * * * * * * * * * * * * * * * * * * * * * * * * * * * * * * //

dimensions      [0 1 -1 0 0 0 0];

internalField   nonuniform List<vector> 
1000
(
(33.7741 0 0)
(33.772 0 0)
(33.7657 0 0)
(33.7544 0 0)
(33.7385 0 0)
(33.7192 0 0)
(33.6982 0 0)
(33.6771 0 0)
(33.6569 0 0)
(33.6381 0 0)
(33.6212 0 0)
(33.606 0 0)
(33.5925 0 0)
(33.5801 0 0)
(33.568 0 0)
(33.5556 0 0)
(33.5424 0 0)
(33.5283 0 0)
(33.5135 0 0)
(33.4987 0 0)
(33.4847 0 0)
(33.4721 0 0)
(33.4604 0 0)
(33.45 0 0)
(33.4395 0 0)
(33.4297 0 0)
(33.4205 0 0)
(33.4118 0 0)
(33.4036 0 0)
(33.3937 0 0)
(33.3851 0 0)
(33.3733 0 0)
(33.3587 0 0)
(33.3476 0 0)
(33.3298 0 0)
(33.3111 0 0)
(33.2994 0 0)
(33.2775 0 0)
(33.2548 0 0)
(33.2399 0 0)
(33.2143 0 0)
(33.1873 0 0)
(33.1792 0 0)
(33.1561 0 0)
(33.1082 0 0)
(33.1028 0 0)
(33.1025 0 0)
(33.0429 0 0)
(33.0175 0 0)
(33.0352 0 0)
(32.9864 0 0)
(32.9419 0 0)
(32.9709 0 0)
(32.9379 0 0)
(32.8723 0 0)
(32.9041 0 0)
(32.8949 0 0)
(32.812 0 0)
(32.8338 0 0)
(32.8543 0 0)
(32.7616 0 0)
(32.7564 0 0)
(32.8133 0 0)
(32.7318 0 0)
(32.6687 0 0)
(32.7477 0 0)
(32.73 0 0)
(32.6007 0 0)
(32.6283 0 0)
(32.7127 0 0)
(32.6107 0 0)
(32.5062 0 0)
(32.5923 0 0)
(32.6271 0 0)
(32.4899 0 0)
(32.4578 0 0)
(32.5532 0 0)
(32.5008 0 0)
(32.3769 0 0)
(32.4296 0 0)
(32.4808 0 0)
(32.3588 0 0)
(32.3118 0 0)
(32.396 0 0)
(32.3497 0 0)
(32.2439 0 0)
(32.2891 0 0)
(32.2997 0 0)
(32.1967 0 0)
(32.2006 0 0)
(32.2285 0 0)
(32.1415 0 0)
(32.124 0 0)
(32.1551 0 0)
(32.0785 0 0)
(32.0497 0 0)
(32.0868 0 0)
(32.0168 0 0)
(31.9729 0 0)
(32.018 0 0)
(31.9606 0 0)
(31.894 0 0)
(31.9415 0 0)
(31.9081 0 0)
(31.8169 0 0)
(31.8544 0 0)
(31.8562 0 0)
(31.7486 0 0)
(31.7567 0 0)
(31.7975 0 0)
(31.6958 0 0)
(31.653 0 0)
(31.7186 0 0)
(31.6587 0 0)
(31.5591 0 0)
(31.6122 0 0)
(31.6194 0 0)
(31.494 0 0)
(31.4887 0 0)
(31.5507 0 0)
(31.4575 0 0)
(31.3776 0 0)
(31.4418 0 0)
(31.4174 0 0)
(31.2978 0 0)
(31.3182 0 0)
(31.3491 0 0)
(31.2384 0 0)
(31.2038 0 0)
(31.2576 0 0)
(31.1832 0 0)
(31.1014 0 0)
(31.1522 0 0)
(31.1276 0 0)
(31.0139 0 0)
(31.0342 0 0)
(31.062 0 0)
(30.9475 0 0)
(30.9111 0 0)
(30.9719 0 0)
(30.8998 0 0)
(30.8002 0 0)
(30.8508 0 0)
(30.8497 0 0)
(30.7209 0 0)
(30.7134 0 0)
(30.7692 0 0)
(30.6722 0 0)
(30.5882 0 0)
(30.6481 0 0)
(30.6246 0 0)
(30.4971 0 0)
(30.5078 0 0)
(30.5481 0 0)
(30.4368 0 0)
(30.3766 0 0)
(30.436 0 0)
(30.3842 0 0)
(30.2703 0 0)
(30.3021 0 0)
(30.3164 0 0)
(30.1937 0 0)
(30.1655 0 0)
(30.2191 0 0)
(30.136 0 0)
(30.0443 0 0)
(30.092 0 0)
(30.0735 0 0)
(29.9508 0 0)
(29.9537 0 0)
(29.9854 0 0)
(29.8784 0 0)
(29.8244 0 0)
(29.8708 0 0)
(29.8084 0 0)
(29.7128 0 0)
(29.7437 0 0)
(29.729 0 0)
(29.6177 0 0)
(29.6162 0 0)
(29.6385 0 0)
(29.5365 0 0)
(29.4934 0 0)
(29.5359 0 0)
(29.4671 0 0)
(29.38 0 0)
(29.4185 0 0)
(29.4013 0 0)
(29.2863 0 0)
(29.2897 0 0)
(29.3231 0 0)
(29.2193 0 0)
(29.1635 0 0)
(29.2175 0 0)
(29.1672 0 0)
(29.0592 0 0)
(29.0881 0 0)
(29.1014 0 0)
(28.9866 0 0)
(28.9587 0 0)
(29.003 0 0)
(28.9264 0 0)
(28.8486 0 0)
(28.8833 0 0)
(28.855 0 0)
(28.758 0 0)
(28.7646 0 0)
(28.7698 0 0)
(28.6782 0 0)
(28.6569 0 0)
(28.6817 0 0)
(28.608 0 0)
(28.559 0 0)
(28.5935 0 0)
(28.5493 0 0)
(28.472 0 0)
(28.5007 0 0)
(28.4964 0 0)
(28.4027 0 0)
(28.4046 0 0)
(28.4382 0 0)
(28.355 0 0)
(28.3128 0 0)
(28.3652 0 0)
(28.325 0 0)
(28.2384 0 0)
(28.2757 0 0)
(28.2948 0 0)
(28.195 0 0)
(28.181 0 0)
(28.2412 0 0)
(28.1787 0 0)
(28.1034 0 0)
(28.1532 0 0)
(28.1502 0 0)
(28.0532 0 0)
(28.0525 0 0)
(28.0759 0 0)
(28.0023 0 0)
(27.9574 0 0)
(27.9696 0 0)
(27.932 0 0)
(27.8757 0 0)
(27.8677 0 0)
(27.8497 0 0)
(27.807 0 0)
(27.7961 0 0)
(27.779 0 0)
(27.7448 0 0)
(27.7472 0 0)
(27.7372 0 0)
(27.7005 0 0)
(27.7076 0 0)
(27.7118 0 0)
(27.6684 0 0)
(27.6572 0 0)
(27.6678 0 0)
(27.6339 0 0)
(27.6141 0 0)
(27.6299 0 0)
(27.6074 0 0)
(27.5763 0 0)
(27.5923 0 0)
(27.587 0 0)
(27.5462 0 0)
(27.5554 0 0)
(27.5717 0 0)
(27.5289 0 0)
(27.5214 0 0)
(27.5593 0 0)
(27.5319 0 0)
(27.4993 0 0)
(27.5481 0 0)
(27.5544 0 0)
(27.4987 0 0)
(27.5359 0 0)
(27.5841 0 0)
(27.5246 0 0)
(27.5234 0 0)
(27.6009 0 0)
(27.5726 0 0)
(27.5244 0 0)
(27.5988 0 0)
(27.6268 0 0)
(27.554 0 0)
(27.5881 0 0)
(27.6689 0 0)
(27.6159 0 0)
(27.5888 0 0)
(27.6852 0 0)
(27.6947 0 0)
(27.6229 0 0)
(27.6832 0 0)
(27.7633 0 0)
(27.7003 0 0)
(27.6893 0 0)
(27.7994 0 0)
(27.8032 0 0)
(27.7344 0 0)
(27.8088 0 0)
(27.8949 0 0)
(27.8324 0 0)
(27.8267 0 0)
(27.9474 0 0)
(27.9587 0 0)
(27.8904 0 0)
(27.9683 0 0)
(28.0687 0 0)
(28.0134 0 0)
(28.0017 0 0)
(28.1305 0 0)
(28.1616 0 0)
(28.0906 0 0)
(28.1598 0 0)
(28.2818 0 0)
(28.2425 0 0)
(28.2116 0 0)
(28.3412 0 0)
(28.4077 0 0)
(28.335 0 0)
(28.3751 0 0)
(28.5213 0 0)
(28.5185 0 0)
(28.4569 0 0)
(28.5649 0 0)
(28.6853 0 0)
(28.6309 0 0)
(28.6135 0 0)
(28.7644 0 0)
(28.836 0 0)
(28.7585 0 0)
(28.7967 0 0)
(28.9635 0 0)
(28.9835 0 0)
(28.9066 0 0)
(28.9966 0 0)
(29.1591 0 0)
(29.139 0 0)
(29.0775 0 0)
(29.2067 0 0)
(29.3535 0 0)
(29.3062 0 0)
(29.2674 0 0)
(29.4244 0 0)
(29.5522 0 0)
(29.4885 0 0)
(29.4738 0 0)
(29.6497 0 0)
(29.7582 0 0)
(29.6855 0 0)
(29.6957 0 0)
(29.8847 0 0)
(29.9726 0 0)
(29.896 0 0)
(29.9332 0 0)
(30.1308 0 0)
(30.1964 0 0)
(30.1199 0 0)
(30.1868 0 0)
(30.3885 0 0)
(30.4297 0 0)
(30.3585 0 0)
(30.457 0 0)
(30.6573 0 0)
(30.6733 0 0)
(30.6127 0 0)
(30.7427 0 0)
(30.9353 0 0)
(30.929 0 0)
(30.8837 0 0)
(31.0419 0 0)
(31.2228 0 0)
(31.1977 0 0)
(31.1711 0 0)
(31.3529 0 0)
(31.5197 0 0)
(31.4807 0 0)
(31.4729 0 0)
(31.6731 0 0)
(31.8266 0 0)
(31.7783 0 0)
(31.7875 0 0)
(32.0013 0 0)
(32.1451 0 0)
(32.0918 0 0)
(32.1134 0 0)
(32.337 0 0)
(32.4763 0 0)
(32.4207 0 0)
(32.4498 0 0)
(32.6808 0 0)
(32.8212 0 0)
(32.7659 0 0)
(32.7977 0 0)
(33.0337 0 0)
(33.1801 0 0)
(33.1269 0 0)
(33.1564 0 0)
(33.3952 0 0)
(33.5518 0 0)
(33.5023 0 0)
(33.5254 0 0)
(33.7643 0 0)
(33.9341 0 0)
(33.8897 0 0)
(33.9026 0 0)
(34.1385 0 0)
(34.3242 0 0)
(34.2869 0 0)
(34.2859 0 0)
(34.5145 0 0)
(34.7186 0 0)
(34.6913 0 0)
(34.6733 0 0)
(34.8895 0 0)
(35.1143 0 0)
(35.1027 0 0)
(35.0656 0 0)
(35.2623 0 0)
(35.5091 0 0)
(35.5209 0 0)
(35.4662 0 0)
(35.6351 0 0)
(35.9011 0 0)
(35.9468 0 0)
(35.8804 0 0)
(36.0136 0 0)
(36.2919 0 0)
(36.3813 0 0)
(36.313 0 0)
(36.4045 0 0)
(36.6856 0 0)
(36.8252 0 0)
(36.7658 0 0)
(36.8152 0 0)
(37.089 0 0)
(37.2796 0 0)
(37.2394 0 0)
(37.2493 0 0)
(37.5047 0 0)
(37.7429 0 0)
(37.7323 0 0)
(37.7087 0 0)
(37.9344 0 0)
(38.2127 0 0)
(38.2435 0 0)
(38.1966 0 0)
(38.3799 0 0)
(38.6837 0 0)
(38.767 0 0)
(38.7098 0 0)
(38.8404 0 0)
(39.1521 0 0)
(39.296 0 0)
(39.2428 0 0)
(39.3153 0 0)
(39.6171 0 0)
(39.8238 0 0)
(39.7892 0 0)
(39.8041 0 0)
(40.0766 0 0)
(40.3427 0 0)
(40.3448 0 0)
(40.3111 0 0)
(40.5314 0 0)
(40.8415 0 0)
(40.9043 0 0)
(40.8421 0 0)
(40.9872 0 0)
(41.3119 0 0)
(41.4587 0 0)
(41.3977 0 0)
(41.4554 0 0)
(41.759 0 0)
(41.9949 0 0)
(41.9672 0 0)
(41.9485 0 0)
(42.1978 0 0)
(42.5013 0 0)
(42.5381 0 0)
(42.4747 0 0)
(42.6415 0 0)
(42.9725 0 0)
(43.103 0 0)
(43.0345 0 0)
(43.1009 0 0)
(43.4139 0 0)
(43.6532 0 0)
(43.6226 0 0)
(43.5971 0 0)
(43.8449 0 0)
(44.1669 0 0)
(44.222 0 0)
(44.1513 0 0)
(44.2951 0 0)
(44.6363 0 0)
(44.8117 0 0)
(44.7527 0 0)
(44.7843 0 0)
(45.0873 0 0)
(45.3739 0 0)
(45.3749 0 0)
(45.3272 0 0)
(45.5442 0 0)
(45.893 0 0)
(46.0018 0 0)
(45.931 0 0)
(46.0238 0 0)
(46.363 0 0)
(46.6139 0 0)
(46.5848 0 0)
(46.5564 0 0)
(46.8074 0 0)
(47.1628 0 0)
(47.2554 0 0)
(47.1801 0 0)
(47.2732 0 0)
(47.6172 0 0)
(47.8922 0 0)
(47.8737 0 0)
(47.8256 0 0)
(48.0468 0 0)
(48.4179 0 0)
(48.5619 0 0)
(48.4899 0 0)
(48.5323 0 0)
(48.8516 0 0)
(49.1753 0 0)
(49.1953 0 0)
(49.1244 0 0)
(49.2944 0 0)
(49.6662 0 0)
(49.8697 0 0)
(49.8116 0 0)
(49.8079 0 0)
(50.0936 0 0)
(50.4504 0 0)
(50.5159 0 0)
(50.4343 0 0)
(50.5475 0 0)
(50.9075 0 0)
(51.1768 0 0)
(51.1466 0 0)
(51.0983 0 0)
(51.3277 0 0)
(51.7103 0 0)
(51.8585 0 0)
(51.7818 0 0)
(51.8141 0 0)
(52.1329 0 0)
(52.4803 0 0)
(52.5162 0 0)
(52.4353 0 0)
(52.5821 0 0)
(52.9599 0 0)
(53.2031 0 0)
(53.1557 0 0)
(53.1318 0 0)
(53.4086 0 0)
(53.7842 0 0)
(53.8702 0 0)
(53.7889 0 0)
(53.9126 0 0)
(54.2883 0 0)
(54.5348 0 0)
(54.4895 0 0)
(54.4862 0 0)
(54.7934 0 0)
(55.1438 0 0)
(55.1807 0 0)
(55.118 0 0)
(55.3302 0 0)
(55.7165 0 0)
(55.8526 0 0)
(55.7815 0 0)
(55.897 0 0)
(56.2754 0 0)
(56.5088 0 0)
(56.4603 0 0)
(56.4911 0 0)
(56.8319 0 0)
(57.1502 0 0)
(57.149 0 0)
(57.1129 0 0)
(57.3856 0 0)
(57.7661 0 0)
(57.8454 0 0)
(57.7734 0 0)
(57.944 0 0)
(58.3427 0 0)
(58.5402 0 0)
(58.4752 0 0)
(58.5228 0 0)
(58.8809 0 0)
(59.2086 0 0)
(59.2063 0 0)
(59.1536 0 0)
(59.4051 0 0)
(59.8116 0 0)
(59.9405 0 0)
(59.8586 0 0)
(59.9517 0 0)
(60.3365 0 0)
(60.6402 0 0)
(60.6157 0 0)
(60.5696 0 0)
(60.8346 0 0)
(61.2468 0 0)
(61.3742 0 0)
(61.2891 0 0)
(61.3692 0 0)
(61.7491 0 0)
(62.0792 0 0)
(62.0693 0 0)
(62.0038 0 0)
(62.2289 0 0)
(62.6514 0 0)
(62.8398 0 0)
(62.7635 0 0)
(62.7798 0 0)
(63.1125 0 0)
(63.5082 0 0)
(63.5691 0 0)
(63.4803 0 0)
(63.5973 0 0)
(63.9934 0 0)
(64.3176 0 0)
(64.2994 0 0)
(64.2316 0 0)
(64.429 0 0)
(64.854 0 0)
(65.1039 0 0)
(65.047 0 0)
(65.0111 0 0)
(65.2559 0 0)
(65.6906 0 0)
(65.891 0 0)
(65.8186 0 0)
(65.8049 0 0)
(66.0651 0 0)
(66.5034 0 0)
(66.6933 0 0)
(66.6205 0 0)
(66.6099 0 0)
(66.8493 0 0)
(67.2876 0 0)
(67.5172 0 0)
(67.4557 0 0)
(67.4285 0 0)
(67.6127 0 0)
(68.0328 0 0)
(68.3521 0 0)
(68.3274 0 0)
(68.2699 0 0)
(68.3879 0 0)
(68.7564 0 0)
(69.1627 0 0)
(69.2148 0 0)
(69.1338 0 0)
(69.191 0 0)
(69.4909 0 0)
(69.9365 0 0)
(70.0911 0 0)
(70.0089 0 0)
(70.0122 0 0)
(70.2535 0 0)
(70.7009 0 0)
(70.9455 0 0)
(70.8808 0 0)
(70.8438 0 0)
(71.0421 0 0)
(71.4783 0 0)
(71.7814 0 0)
(71.7394 0 0)
(71.6785 0 0)
(71.8461 0 0)
(72.27 0 0)
(72.6113 0 0)
(72.5901 0 0)
(72.5159 0 0)
(72.6613 0 0)
(73.0751 0 0)
(73.4431 0 0)
(73.44 0 0)
(73.3594 0 0)
(73.4847 0 0)
(73.8864 0 0)
(74.2795 0 0)
(74.2984 0 0)
(74.2129 0 0)
(74.3149 0 0)
(74.6983 0 0)
(75.1195 0 0)
(75.1691 0 0)
(75.0787 0 0)
(75.1523 0 0)
(75.5052 0 0)
(75.9518 0 0)
(76.047 0 0)
(75.9543 0 0)
(75.9929 0 0)
(76.3003 0 0)
(76.7634 0 0)
(76.9261 0 0)
(76.8377 0 0)
(76.8354 0 0)
(77.0789 0 0)
(77.5399 0 0)
(77.7924 0 0)
(77.7239 0 0)
(77.6822 0 0)
(77.8536 0 0)
(78.2818 0 0)
(78.634 0 0)
(78.6119 0 0)
(78.5339 0 0)
(78.6321 0 0)
(78.9927 0 0)
(79.4265 0 0)
(79.4947 0 0)
(79.3959 0 0)
(79.4274 0 0)
(79.6903 0 0)
(80.1506 0 0)
(80.3635 0 0)
(80.2808 0 0)
(80.2521 0 0)
(80.4086 0 0)
(80.8206 0 0)
(81.1958 0 0)
(81.1916 0 0)
(81.1141 0 0)
(81.19 0 0)
(81.496 0 0)
(81.9624 0 0)
(82.1271 0 0)
(82.0504 0 0)
(82.0625 0 0)
(82.2385 0 0)
(82.6642 0 0)
(83.0461 0 0)
(83.0538 0 0)
(82.9996 0 0)
(83.0776 0 0)
(83.3389 0 0)
(83.7866 0 0)
(83.9825 0 0)
(83.8788 0 0)
(83.8359 0 0)
(83.9993 0 0)
(84.4265 0 0)
(84.7962 0 0)
(84.8783 0 0)
(85.0245 0 0)
(85.2482 0 0)
(85.2992 0 0)
(85.46 0 0)
(85.829 0 0)
(85.9224 0 0)
(85.84 0 0)
(86.0611 0 0)
(86.4089 0 0)
(86.4293 0 0)
(86.4128 0 0)
(86.7301 0 0)
(87.0209 0 0)
(86.9787 0 0)
(86.9694 0 0)
(87.3379 0 0)
(87.7268 0 0)
(87.7841 0 0)
(87.8794 0 0)
(88.1499 0 0)
(88.2382 0 0)
(88.3247 0 0)
(88.6594 0 0)
(88.8468 0 0)
(88.8068 0 0)
(88.8121 0 0)
(88.9172 0 0)
(89.2638 0 0)
(89.6721 0 0)
(89.7198 0 0)
(89.6477 0 0)
(89.7104 0 0)
(90.0034 0 0)
(90.4803 0 0)
(90.7078 0 0)
(90.767 0 0)
(90.9999 0 0)
(91.1791 0 0)
(91.2261 0 0)
(91.516 0 0)
(91.8554 0 0)
(91.8641 0 0)
(91.8063 0 0)
(91.9982 0 0)
(92.4754 0 0)
(92.7842 0 0)
(92.739 0 0)
(92.8457 0 0)
(93.194 0 0)
(93.3125 0 0)
(93.3867 0 0)
(93.6872 0 0)
(93.8385 0 0)
(93.8841 0 0)
(94.1722 0 0)
(94.3792 0 0)
(94.382 0 0)
(94.6099 0 0)
(94.9123 0 0)
(94.9291 0 0)
(95.0368 0 0)
(95.3951 0 0)
(95.5158 0 0)
(95.4973 0 0)
(95.7829 0 0)
(96.1032 0 0)
(96.0866 0 0)
(96.1299 0 0)
(96.5185 0 0)
(96.7649 0 0)
(96.6886 0 0)
(96.7804 0 0)
(97.2118 0 0)
(97.4364 0 0)
(97.3405 0 0)
(97.43 0 0)
(97.8745 0 0)
(98.132 0 0)
(98.0376 0 0)
(98.0518 0 0)
(98.4685 0 0)
(98.8725 0 0)
(98.8526 0 0)
(98.7488 0 0)
(99.0202 0 0)
(99.5199 0 0)
(99.6858 0 0)
(99.564 0 0)
(99.6692 0 0)
(100.142 0 0)
(100.448 0 0)
(100.371 0 0)
(100.389 0 0)
(100.815 0 0)
(101.185 0 0)
(101.148 0 0)
(101.127 0 0)
(101.516 0 0)
(101.922 0 0)
(101.914 0 0)
(101.864 0 0)
(102.219 0 0)
(102.66 0 0)
(102.687 0 0)
(102.604 0 0)
(102.908 0 0)
(103.384 0 0)
(103.47 0 0)
(103.36 0 0)
(103.585 0 0)
(104.081 0 0)
(104.253 0 0)
(104.138 0 0)
(104.266 0 0)
(104.751 0 0)
(105.022 0 0)
(104.925 0 0)
(104.96 0 0)
(105.405 0 0)
(105.77 0 0)
(105.715 0 0)
(105.669 0 0)
(106.047 0 0)
(106.488 0 0)
(106.501 0 0)
(106.399 0 0)
(106.685 0 0)
(107.172 0 0)
(107.274 0 0)
(107.145 0 0)
(107.325 0 0)
(107.82 0 0)
(108.031 0 0)
(107.909 0 0)
(107.982 0 0)
(108.446 0 0)
(108.753 0 0)
(108.659 0 0)
(108.649 0 0)
(109.063 0 0)
(109.439 0 0)
(109.386 0 0)
(109.335 0 0)
(109.706 0 0)
(110.087 0 0)
(110.051 0 0)
(110.024 0 0)
(110.398 0 0)
(110.71 0 0)
(110.652 0 0)
(110.72 0 0)
(111.116 0 0)
(111.284 0 0)
(111.216 0 0)
(111.432 0 0)
(111.803 0 0)
(111.823 0 0)
(111.811 0 0)
(112.154 0 0)
(112.414 0 0)
(112.345 0 0)
(112.448 0 0)
(112.851 0 0)
(112.981 0 0)
(112.881 0 0)
(113.092 0 0)
(113.498 0 0)
(113.535 0 0)
(113.434 0 0)
(113.71 0 0)
(114.117 0 0)
(114.118 0 0)
(113.98 0 0)
(114.226 0 0)
(114.699 0 0)
(114.792 0 0)
(114.612 0 0)
(114.676 0 0)
(115.13 0 0)
(115.46 0 0)
(115.351 0 0)
(115.228 0 0)
(115.534 0 0)
(116.002 0 0)
(116.052 0 0)
(115.866 0 0)
(115.97 0 0)
(116.441 0 0)
(116.719 0 0)
(116.582 0 0)
(116.482 0 0)
(116.809 0 0)
(117.278 0 0)
(117.32 0 0)
(117.129 0 0)
(117.227 0 0)
(117.698 0 0)
(117.986 0 0)
(117.85 0 0)
(117.746 0 0)
(118.08 0 0)
(118.539 0 0)
(118.56 0 0)
(118.369 0 0)
(118.513 0 0)
(118.993 0 0)
(119.202 0 0)
(119.033 0 0)
(119.021 0 0)
(119.439 0 0)
(119.773 0 0)
(119.665 0 0)
(119.569 0 0)
(119.917 0 0)
(120.311 0 0)
(120.258 0 0)
(120.123 0 0)
(120.416 0 0)
(120.843 0 0)
(120.84 0 0)
(120.677 0 0)
(120.911 0 0)
(121.364 0 0)
(121.424 0 0)
(121.237 0 0)
(121.329 0 0)
(121.798 0 0)
(122.085 0 0)
(121.946 0 0)
(121.82 0 0)
(122.113 0 0)
(122.614 0 0)
(122.712 0 0)
(122.514 0 0)
(122.535 0 0)
(122.975 0 0)
(123.364 0 0)
(123.296 0 0)
(123.135 0 0)
(123.351 0 0)
(123.824 0 0)
(124.023 0 0)
(123.862 0 0)
(123.786 0 0)
(124.145 0 0)
(124.514 0 0)
(124.533 0 0)
)
;

boundaryField
{
    sides
    {
        type            zeroGradient;
    }
    empty
    {
        type            empty;
    }
}


// ************************************************************************* //
