/*--------------------------------*- C++ -*----------------------------------*\
  =========                 |
  \\      /  F ield         | OpenFOAM: The Open Source CFD Toolbox
   \\    /   O peration     | Website:  https://openfoam.org
    \\  /    A nd           | Version:  13
     \\/     M anipulation  |
\*---------------------------------------------------------------------------*/
FoamFile
{
    format      ascii;
    class       volVectorField;
    location    "0.07";
    object      U;
}
// * * * * * * * * * * * * * * * * * * * * * * * * * * * * * * * * * * * * * //

dimensions      [0 1 -1 0 0 0 0];

internalField   nonuniform List<vector> 
1000
(
(27.4822 0 0)
(27.4796 0 0)
(27.4735 0 0)
(27.4647 0 0)
(27.4546 0 0)
(27.4446 0 0)
(27.4356 0 0)
(27.4276 0 0)
(27.4203 0 0)
(27.4132 0 0)
(27.4058 0 0)
(27.3982 0 0)
(27.3902 0 0)
(27.3821 0 0)
(27.3738 0 0)
(27.3655 0 0)
(27.3572 0 0)
(27.3489 0 0)
(27.3406 0 0)
(27.3324 0 0)
(27.3241 0 0)
(27.3159 0 0)
(27.3077 0 0)
(27.2996 0 0)
(27.2915 0 0)
(27.2835 0 0)
(27.2756 0 0)
(27.2676 0 0)
(27.2596 0 0)
(27.2515 0 0)
(27.2434 0 0)
(27.2351 0 0)
(27.2268 0 0)
(27.2184 0 0)
(27.2099 0 0)
(27.2013 0 0)
(27.1926 0 0)
(27.1838 0 0)
(27.1749 0 0)
(27.166 0 0)
(27.157 0 0)
(27.1481 0 0)
(27.1392 0 0)
(27.1305 0 0)
(27.1219 0 0)
(27.1133 0 0)
(27.1045 0 0)
(27.0955 0 0)
(27.0863 0 0)
(27.0771 0 0)
(27.0683 0 0)
(27.0601 0 0)
(27.053 0 0)
(27.0469 0 0)
(27.0414 0 0)
(27.0359 0 0)
(27.0288 0 0)
(27.0222 0 0)
(27.0162 0 0)
(27.0106 0 0)
(27.0062 0 0)
(27.0016 0 0)
(26.9965 0 0)
(26.9896 0 0)
(26.9825 0 0)
(26.9728 0 0)
(26.9558 0 0)
(26.9381 0 0)
(26.9323 0 0)
(26.9273 0 0)
(26.9049 0 0)
(26.8777 0 0)
(26.8738 0 0)
(26.8851 0 0)
(26.8888 0 0)
(26.8769 0 0)
(26.8393 0 0)
(26.8136 0 0)
(26.8238 0 0)
(26.8261 0 0)
(26.8249 0 0)
(26.8355 0 0)
(26.7984 0 0)
(26.7294 0 0)
(26.7408 0 0)
(26.8075 0 0)
(26.8093 0 0)
(26.7373 0 0)
(26.6785 0 0)
(26.6829 0 0)
(26.6981 0 0)
(26.6648 0 0)
(26.6277 0 0)
(26.6473 0 0)
(26.6494 0 0)
(26.5897 0 0)
(26.5863 0 0)
(26.635 0 0)
(26.5923 0 0)
(26.5229 0 0)
(26.5725 0 0)
(26.6159 0 0)
(26.5248 0 0)
(26.4701 0 0)
(26.553 0 0)
(26.5759 0 0)
(26.4626 0 0)
(26.4217 0 0)
(26.5057 0 0)
(26.5096 0 0)
(26.4078 0 0)
(26.3999 0 0)
(26.4713 0 0)
(26.4333 0 0)
(26.3471 0 0)
(26.3866 0 0)
(26.4395 0 0)
(26.3584 0 0)
(26.2999 0 0)
(26.3743 0 0)
(26.3937 0 0)
(26.286 0 0)
(26.2638 0 0)
(26.3565 0 0)
(26.3398 0 0)
(26.2196 0 0)
(26.2297 0 0)
(26.3315 0 0)
(26.2878 0 0)
(26.1588 0 0)
(26.1878 0 0)
(26.3013 0 0)
(26.2488 0 0)
(26.1032 0 0)
(26.1261 0 0)
(26.2604 0 0)
(26.2334 0 0)
(26.0693 0 0)
(26.042 0 0)
(26.1826 0 0)
(26.2227 0 0)
(26.0762 0 0)
(25.9887 0 0)
(26.0946 0 0)
(26.1701 0 0)
(26.0554 0 0)
(25.9529 0 0)
(26.038 0 0)
(26.1212 0 0)
(26.0184 0 0)
(25.9096 0 0)
(25.9883 0 0)
(26.0812 0 0)
(25.9845 0 0)
(25.8607 0 0)
(25.9296 0 0)
(26.0434 0 0)
(25.9642 0 0)
(25.8137 0 0)
(25.8501 0 0)
(25.9926 0 0)
(25.9654 0 0)
(25.7925 0 0)
(25.7476 0 0)
(25.8959 0 0)
(25.9765 0 0)
(25.8326 0 0)
(25.6698 0 0)
(25.7321 0 0)
(25.9076 0 0)
(25.9104 0 0)
(25.7246 0 0)
(25.591 0 0)
(25.6936 0 0)
(25.8725 0 0)
(25.8531 0 0)
(25.6677 0 0)
(25.5765 0 0)
(25.7023 0 0)
(25.8183 0 0)
(25.7174 0 0)
(25.5659 0 0)
(25.6098 0 0)
(25.7447 0 0)
(25.7102 0 0)
(25.5613 0 0)
(25.5562 0 0)
(25.6763 0 0)
(25.6711 0 0)
(25.5428 0 0)
(25.5269 0 0)
(25.6207 0 0)
(25.6083 0 0)
(25.5059 0 0)
(25.5084 0 0)
(25.5751 0 0)
(25.5376 0 0)
(25.4652 0 0)
(25.4991 0 0)
(25.5381 0 0)
(25.4731 0 0)
(25.4402 0 0)
(25.5036 0 0)
(25.5039 0 0)
(25.4231 0 0)
(25.4367 0 0)
(25.5072 0 0)
(25.4621 0 0)
(25.3889 0 0)
(25.4455 0 0)
(25.5014 0 0)
(25.4206 0 0)
(25.3704 0 0)
(25.4569 0 0)
(25.489 0 0)
(25.3865 0 0)
(25.3612 0 0)
(25.4658 0 0)
(25.4773 0 0)
(25.3625 0 0)
(25.3546 0 0)
(25.4704 0 0)
(25.4717 0 0)
(25.3497 0 0)
(25.3474 0 0)
(25.4705 0 0)
(25.4732 0 0)
(25.3475 0 0)
(25.3409 0 0)
(25.4675 0 0)
(25.4792 0 0)
(25.3543 0 0)
(25.339 0 0)
(25.4646 0 0)
(25.4864 0 0)
(25.3663 0 0)
(25.3454 0 0)
(25.4674 0 0)
(25.4939 0 0)
(25.3802 0 0)
(25.3616 0 0)
(25.4801 0 0)
(25.5033 0 0)
(25.3952 0 0)
(25.3873 0 0)
(25.5048 0 0)
(25.5176 0 0)
(25.4134 0 0)
(25.4222 0 0)
(25.5401 0 0)
(25.5388 0 0)
(25.4384 0 0)
(25.4666 0 0)
(25.5849 0 0)
(25.568 0 0)
(25.4719 0 0)
(25.52 0 0)
(25.6386 0 0)
(25.6074 0 0)
(25.5153 0 0)
(25.5802 0 0)
(25.7 0 0)
(25.6587 0 0)
(25.5688 0 0)
(25.6455 0 0)
(25.7693 0 0)
(25.724 0 0)
(25.633 0 0)
(25.715 0 0)
(25.8463 0 0)
(25.8042 0 0)
(25.7085 0 0)
(25.7883 0 0)
(25.9309 0 0)
(25.8998 0 0)
(25.7963 0 0)
(25.8649 0 0)
(26.0207 0 0)
(26.0108 0 0)
(25.8988 0 0)
(25.9446 0 0)
(26.112 0 0)
(26.136 0 0)
(26.02 0 0)
(26.0294 0 0)
(26.1997 0 0)
(26.2698 0 0)
(26.1619 0 0)
(26.1268 0 0)
(26.2844 0 0)
(26.4024 0 0)
(26.3196 0 0)
(26.2462 0 0)
(26.3758 0 0)
(26.5276 0 0)
(26.4816 0 0)
(26.3888 0 0)
(26.4854 0 0)
(26.6514 0 0)
(26.6406 0 0)
(26.5453 0 0)
(26.6169 0 0)
(26.785 0 0)
(26.7974 0 0)
(26.7075 0 0)
(26.7676 0 0)
(26.934 0 0)
(26.9568 0 0)
(26.8737 0 0)
(26.9334 0 0)
(27.0984 0 0)
(27.1225 0 0)
(27.0454 0 0)
(27.1118 0 0)
(27.2764 0 0)
(27.2967 0 0)
(27.2246 0 0)
(27.3013 0 0)
(27.466 0 0)
(27.4801 0 0)
(27.4127 0 0)
(27.5006 0 0)
(27.665 0 0)
(27.6724 0 0)
(27.6098 0 0)
(27.7082 0 0)
(27.8714 0 0)
(27.8719 0 0)
(27.8146 0 0)
(27.9235 0 0)
(28.0841 0 0)
(28.0767 0 0)
(28.0245 0 0)
(28.1442 0 0)
(28.3028 0 0)
(28.2869 0 0)
(28.237 0 0)
(28.3659 0 0)
(28.5266 0 0)
(28.5054 0 0)
(28.4522 0 0)
(28.5852 0 0)
(28.7548 0 0)
(28.7357 0 0)
(28.6716 0 0)
(28.7986 0 0)
(28.9848 0 0)
(28.9811 0 0)
(28.8998 0 0)
(29.0043 0 0)
(29.2106 0 0)
(29.2433 0 0)
(29.1465 0 0)
(29.2037 0 0)
(29.4209 0 0)
(29.5174 0 0)
(29.4233 0 0)
(29.4085 0 0)
(29.6085 0 0)
(29.7851 0 0)
(29.7321 0 0)
(29.6456 0 0)
(29.7816 0 0)
(30.0139 0 0)
(30.0546 0 0)
(29.942 0 0)
(29.9689 0 0)
(30.1953 0 0)
(30.3538 0 0)
(30.2811 0 0)
(30.2078 0 0)
(30.3673 0 0)
(30.5984 0 0)
(30.6198 0 0)
(30.5097 0 0)
(30.5637 0 0)
(30.7992 0 0)
(30.9341 0 0)
(30.849 0 0)
(30.8003 0 0)
(30.9868 0 0)
(31.2091 0 0)
(31.2016 0 0)
(31.0932 0 0)
(31.1791 0 0)
(31.4292 0 0)
(31.5503 0 0)
(31.4522 0 0)
(31.4036 0 0)
(31.6003 0 0)
(31.8448 0 0)
(31.8547 0 0)
(31.729 0 0)
(31.7683 0 0)
(32.021 0 0)
(32.2263 0 0)
(32.171 0 0)
(32.0503 0 0)
(32.15 0 0)
(32.4247 0 0)
(32.5947 0 0)
(32.5108 0 0)
(32.4069 0 0)
(32.5468 0 0)
(32.8275 0 0)
(32.9554 0 0)
(32.8519 0 0)
(32.7841 0 0)
(32.9715 0 0)
(33.2452 0 0)
(33.3065 0 0)
(33.1872 0 0)
(33.1858 0 0)
(33.4245 0 0)
(33.6648 0 0)
(33.6486 0 0)
(33.5328 0 0)
(33.6202 0 0)
(33.8949 0 0)
(34.0691 0 0)
(33.9917 0 0)
(33.9094 0 0)
(34.0796 0 0)
(34.3659 0 0)
(34.4623 0 0)
(34.3507 0 0)
(34.3218 0 0)
(34.5495 0 0)
(34.827 0 0)
(34.8607 0 0)
(34.7366 0 0)
(34.7585 0 0)
(35.0202 0 0)
(35.2816 0 0)
(35.2766 0 0)
(35.1514 0 0)
(35.2101 0 0)
(35.4907 0 0)
(35.7364 0 0)
(35.7085 0 0)
(35.5882 0 0)
(35.6764 0 0)
(35.9693 0 0)
(36.1953 0 0)
(36.1477 0 0)
(36.0382 0 0)
(36.1609 0 0)
(36.4641 0 0)
(36.658 0 0)
(36.5875 0 0)
(36.4987 0 0)
(36.6647 0 0)
(36.9744 0 0)
(37.1213 0 0)
(37.0278 0 0)
(36.9733 0 0)
(37.1858 0 0)
(37.4928 0 0)
(37.5824 0 0)
(37.4719 0 0)
(37.4658 0 0)
(37.7199 0 0)
(38.0106 0 0)
(38.0425 0 0)
(37.9252 0 0)
(37.975 0 0)
(38.2609 0 0)
(38.5222 0 0)
(38.5053 0 0)
(38.3923 0 0)
(38.4951 0 0)
(38.8019 0 0)
(39.0283 0 0)
(38.9761 0 0)
(38.8744 0 0)
(39.0184 0 0)
(39.3377 0 0)
(39.5349 0 0)
(39.4609 0 0)
(39.3699 0 0)
(39.5383 0 0)
(39.8646 0 0)
(40.0481 0 0)
(39.9649 0 0)
(39.877 0 0)
(40.0515 0 0)
(40.3826 0 0)
(40.5726 0 0)
(40.4919 0 0)
(40.3968 0 0)
(40.5584 0 0)
(40.8911 0 0)
(41.1082 0 0)
(41.0436 0 0)
(40.9339 0 0)
(41.0639 0 0)
(41.3919 0 0)
(41.6502 0 0)
(41.6174 0 0)
(41.4939 0 0)
(41.5762 0 0)
(41.8884 0 0)
(42.1905 0 0)
(42.2081 0 0)
(42.0794 0 0)
(42.1039 0 0)
(42.3864 0 0)
(42.7237 0 0)
(42.8104 0 0)
(42.6912 0 0)
(42.6549 0 0)
(42.8886 0 0)
(43.2436 0 0)
(43.4168 0 0)
(43.3272 0 0)
(43.2366 0 0)
(43.3963 0 0)
(43.7442 0 0)
(44.0146 0 0)
(43.9902 0 0)
(43.8641 0 0)
(43.9179 0 0)
(44.218 0 0)
(44.5683 0 0)
(44.6755 0 0)
(44.5613 0 0)
(44.494 0 0)
(44.6724 0 0)
(45.0303 0 0)
(45.3188 0 0)
(45.3205 0 0)
(45.1874 0 0)
(45.191 0 0)
(45.4451 0 0)
(45.8167 0 0)
(46.0264 0 0)
(45.96 0 0)
(45.8419 0 0)
(45.9294 0 0)
(46.2496 0 0)
(46.5998 0 0)
(46.6925 0 0)
(46.5733 0 0)
(46.5183 0 0)
(46.7235 0 0)
(47.0922 0 0)
(47.346 0 0)
(47.3044 0 0)
(47.182 0 0)
(47.2614 0 0)
(47.5833 0 0)
(47.9297 0 0)
(48.0002 0 0)
(47.8773 0 0)
(47.8555 0 0)
(48.1081 0 0)
(48.4811 0 0)
(48.6602 0 0)
(48.5709 0 0)
(48.486 0 0)
(48.663 0 0)
(49.0283 0 0)
(49.2962 0 0)
(49.2599 0 0)
(49.1417 0 0)
(49.2336 0 0)
(49.5673 0 0)
(49.9091 0 0)
(49.9621 0 0)
(49.8369 0 0)
(49.8227 0 0)
(50.0738 0 0)
(50.4561 0 0)
(50.6783 0 0)
(50.6152 0 0)
(50.499 0 0)
(50.5795 0 0)
(50.8986 0 0)
(51.2712 0 0)
(51.4114 0 0)
(51.308 0 0)
(51.2194 0 0)
(51.3578 0 0)
(51.7116 0 0)
(52.0577 0 0)
(52.1232 0 0)
(51.9964 0 0)
(51.9551 0 0)
(52.1681 0 0)
(52.5504 0 0)
(52.8257 0 0)
(52.7989 0 0)
(52.6706 0 0)
(52.718 0 0)
(53.0205 0 0)
(53.4001 0 0)
(53.5447 0 0)
(53.4395 0 0)
(53.3615 0 0)
(53.5409 0 0)
(53.915 0 0)
(54.2095 0 0)
(54.1922 0 0)
(54.0646 0 0)
(54.1215 0 0)
(54.4389 0 0)
(54.8102 0 0)
(54.9102 0 0)
(54.7911 0 0)
(54.7508 0 0)
(54.9859 0 0)
(55.372 0 0)
(55.5995 0 0)
(55.5306 0 0)
(55.4237 0 0)
(55.5498 0 0)
(55.9061 0 0)
(56.2463 0 0)
(56.2825 0 0)
(56.1549 0 0)
(56.1545 0 0)
(56.4176 0 0)
(56.8082 0 0)
(57.031 0 0)
(56.9576 0 0)
(56.8434 0 0)
(56.9481 0 0)
(57.2877 0 0)
(57.661 0 0)
(57.7836 0 0)
(57.6763 0 0)
(57.6025 0 0)
(57.7526 0 0)
(58.1172 0 0)
(58.4768 0 0)
(58.5717 0 0)
(58.4526 0 0)
(58.3863 0 0)
(58.5413 0 0)
(58.91 0 0)
(59.2748 0 0)
(59.3862 0 0)
(59.2752 0 0)
(59.1983 0 0)
(59.3217 0 0)
(59.6695 0 0)
(60.0558 0 0)
(60.215 0 0)
(60.1248 0 0)
(60.0266 0 0)
(60.1131 0 0)
(60.43 0 0)
(60.831 0 0)
(61.0369 0 0)
(60.9706 0 0)
(60.8569 0 0)
(60.9135 0 0)
(61.2015 0 0)
(61.6091 0 0)
(61.8498 0 0)
(61.8028 0 0)
(61.6813 0 0)
(61.7183 0 0)
(61.9848 0 0)
(62.3935 0 0)
(62.6602 0 0)
(62.6312 0 0)
(62.505 0 0)
(62.5244 0 0)
(62.7684 0 0)
(63.1731 0 0)
(63.4642 0 0)
(63.4563 0 0)
(63.3238 0 0)
(63.3304 0 0)
(63.5782 0 0)
(63.9858 0 0)
(64.2611 0 0)
(64.2266 0 0)
(64.1005 0 0)
(64.1863 0 0)
(64.5347 0 0)
(64.8998 0 0)
(64.9529 0 0)
(64.8354 0 0)
(64.901 0 0)
(65.2484 0 0)
(65.5819 0 0)
(65.5965 0 0)
(65.511 0 0)
(65.684 0 0)
(66.0304 0 0)
(66.2265 0 0)
(66.2185 0 0)
(66.267 0 0)
(66.5023 0 0)
(66.7083 0 0)
(66.7429 0 0)
(66.8458 0 0)
(67.1313 0 0)
(67.3047 0 0)
(67.2746 0 0)
(67.2736 0 0)
(67.3522 0 0)
(67.5668 0 0)
(67.96 0 0)
(68.2789 0 0)
(68.3004 0 0)
(68.1981 0 0)
(68.2109 0 0)
(68.3077 0 0)
(68.5831 0 0)
(68.9927 0 0)
(69.2627 0 0)
(69.2485 0 0)
(69.1394 0 0)
(69.1585 0 0)
(69.2892 0 0)
(69.6307 0 0)
(70.0352 0 0)
(70.2291 0 0)
(70.165 0 0)
(70.0722 0 0)
(70.1206 0 0)
(70.3156 0 0)
(70.709 0 0)
(71.0745 0 0)
(71.1745 0 0)
(71.0718 0 0)
(71.0235 0 0)
(71.1065 0 0)
(71.3769 0 0)
(71.796 0 0)
(72.0887 0 0)
(72.0916 0 0)
(71.9721 0 0)
(71.9733 0 0)
(72.1321 0 0)
(72.5086 0 0)
(72.9016 0 0)
(73.0354 0 0)
(72.9339 0 0)
(72.8557 0 0)
(72.9609 0 0)
(73.2965 0 0)
(73.7034 0 0)
(73.9331 0 0)
(73.8955 0 0)
(73.7639 0 0)
(73.7949 0 0)
(74.073 0 0)
(74.4955 0 0)
(74.7283 0 0)
(74.6561 0 0)
(74.568 0 0)
(74.7711 0 0)
(75.1711 0 0)
(75.4157 0 0)
(75.3497 0 0)
(75.2992 0 0)
(75.5507 0 0)
(75.8855 0 0)
(76.0101 0 0)
(76.0125 0 0)
(76.1314 0 0)
(76.3488 0 0)
(76.4659 0 0)
(76.5514 0 0)
(76.7784 0 0)
(76.9901 0 0)
(77.0793 0 0)
(77.197 0 0)
(77.3603 0 0)
(77.4507 0 0)
(77.596 0 0)
(77.9299 0 0)
(78.1768 0 0)
(78.1371 0 0)
(78.0747 0 0)
(78.1364 0 0)
(78.3112 0 0)
(78.6948 0 0)
(79.0795 0 0)
(79.1762 0 0)
(79.0622 0 0)
(79.0128 0 0)
(79.1622 0 0)
(79.5425 0 0)
(79.936 0 0)
(80.0221 0 0)
(79.9043 0 0)
(79.8746 0 0)
(80.1054 0 0)
(80.5229 0 0)
(80.8069 0 0)
(80.7632 0 0)
(80.653 0 0)
(80.7629 0 0)
(81.1293 0 0)
(81.4966 0 0)
(81.5381 0 0)
(81.4177 0 0)
(81.4549 0 0)
(81.7646 0 0)
(82.1337 0 0)
(82.2554 0 0)
(82.2035 0 0)
(82.2735 0 0)
(82.5414 0 0)
(82.7518 0 0)
(82.7742 0 0)
(82.8527 0 0)
(83.1219 0 0)
(83.3154 0 0)
(83.2883 0 0)
(83.2596 0 0)
(83.3538 0 0)
(83.6588 0 0)
(84.0575 0 0)
(84.2059 0 0)
(84.1566 0 0)
(84.1671 0 0)
(84.2566 0 0)
(84.4503 0 0)
(84.7911 0 0)
(85.0531 0 0)
(85.1282 0 0)
(85.2086 0 0)
(85.3955 0 0)
(85.5624 0 0)
(85.6577 0 0)
(85.8156 0 0)
(86.0339 0 0)
(86.174 0 0)
(86.2761 0 0)
(86.4501 0 0)
(86.6194 0 0)
(86.7152 0 0)
(86.8618 0 0)
(87.0767 0 0)
(87.2197 0 0)
(87.3174 0 0)
(87.4838 0 0)
(87.6631 0 0)
(87.7758 0 0)
(87.9064 0 0)
(88.1035 0 0)
(88.2602 0 0)
(88.3638 0 0)
(88.5347 0 0)
(88.7241 0 0)
(88.7987 0 0)
(88.9063 0 0)
(89.1788 0 0)
(89.3693 0 0)
(89.3576 0 0)
(89.4459 0 0)
(89.7708 0 0)
(90.0176 0 0)
(89.9995 0 0)
(90.0105 0 0)
(90.3028 0 0)
(90.6294 0 0)
(90.6736 0 0)
(90.5942 0 0)
(90.6848 0 0)
(91.0488 0 0)
(91.4566 0 0)
(91.5617 0 0)
(91.4479 0 0)
(91.456 0 0)
(91.7724 0 0)
(92.1573 0 0)
(92.2589 0 0)
(92.1729 0 0)
(92.2635 0 0)
(92.6154 0 0)
(92.9 0 0)
(92.8905 0 0)
(92.8607 0 0)
(93.1153 0 0)
(93.4613 0 0)
(93.5502 0 0)
(93.4905 0 0)
(93.6504 0 0)
(94.0091 0 0)
(94.1978 0 0)
(94.1451 0 0)
(94.209 0 0)
(94.5356 0 0)
(94.8048 0 0)
(94.8212 0 0)
(94.8084 0 0)
(94.8837 0 0)
(95.0171 0 0)
(95.3486 0 0)
(95.7327 0 0)
(95.8346 0 0)
(95.7347 0 0)
(95.7161 0 0)
(95.9396 0 0)
(96.3617 0 0)
(96.6839 0 0)
(96.6736 0 0)
(96.5596 0 0)
(96.627 0 0)
(96.9666 0 0)
(97.3771 0 0)
(97.5003 0 0)
(97.3977 0 0)
(97.3673 0 0)
(97.5868 0 0)
(98.0053 0 0)
(98.3138 0 0)
(98.2951 0 0)
(98.1974 0 0)
(98.2422 0 0)
(98.4962 0 0)
(98.9267 0 0)
(99.228 0 0)
(99.2072 0 0)
(99.0992 0 0)
(99.1497 0 0)
(99.4467 0 0)
(99.8769 0 0)
(100.092 0 0)
(100.019 0 0)
(99.9449 0 0)
(100.079 0 0)
(100.451 0 0)
(100.824 0 0)
(100.89 0 0)
(100.831 0 0)
(100.873 0 0)
(100.975 0 0)
(101.236 0 0)
(101.648 0 0)
(101.876 0 0)
(101.827 0 0)
(101.782 0 0)
(101.856 0 0)
(102.082 0 0)
(102.496 0 0)
(102.801 0 0)
(102.792 0 0)
(102.721 0 0)
(102.771 0 0)
(102.933 0 0)
(103.306 0 0)
(103.677 0 0)
(103.741 0 0)
(103.678 0 0)
(103.716 0 0)
(103.819 0 0)
(104.086 0 0)
(104.497 0 0)
(104.715 0 0)
(104.668 0 0)
(104.635 0 0)
(104.711 0 0)
(104.912 0 0)
(105.311 0 0)
(105.646 0 0)
(105.658 0 0)
(105.575 0 0)
(105.611 0 0)
(105.77 0 0)
(106.149 0 0)
(106.54 0 0)
(106.62 0 0)
(106.527 0 0)
(106.527 0 0)
(106.659 0 0)
(107.006 0 0)
(107.409 0 0)
(107.569 0 0)
(107.493 0 0)
(107.448 0 0)
(107.551 0 0)
(107.87 0 0)
(108.333 0 0)
(108.511 0 0)
(108.424 0 0)
(108.398 0 0)
(108.48 0 0)
(108.763 0 0)
(109.213 0 0)
(109.456 0 0)
(109.426 0 0)
(109.355 0 0)
(109.403 0 0)
(109.751 0 0)
(110.201 0 0)
(110.294 0 0)
(110.157 0 0)
(110.232 0 0)
(110.541 0 0)
(110.825 0 0)
(110.937 0 0)
(111.006 0 0)
)
;

boundaryField
{
    sides
    {
        type            zeroGradient;
    }
    empty
    {
        type            empty;
    }
}


// ************************************************************************* //
