/*--------------------------------*- C++ -*----------------------------------*\
  =========                 |
  \\      /  F ield         | OpenFOAM: The Open Source CFD Toolbox
   \\    /   O peration     | Website:  https://openfoam.org
    \\  /    A nd           | Version:  13
     \\/     M anipulation  |
\*---------------------------------------------------------------------------*/
FoamFile
{
    format      ascii;
    class       volScalarField;
    location    "33.203052";
    object      nut;
}
// * * * * * * * * * * * * * * * * * * * * * * * * * * * * * * * * * * * * * //

dimensions      [0 2 -1 0 0 0 0];

internalField   nonuniform List<scalar> 
17140
(
2.5258186e-18
4.9123819e-16
1.3084267e-14
1.3264536e-13
8.021691e-13
3.5538262e-12
1.2831821e-11
4.0150399e-11
1.1310647e-10
2.9420184e-10
7.1905275e-10
1.6722414e-09
3.7351979e-09
8.0702559e-09
1.6959517e-08
3.4816314e-08
7.0066468e-08
1.3861934e-07
2.702264e-07
5.2005338e-07
9.8961087e-07
1.8643813e-06
3.4810295e-06
6.4465841e-06
1.1847832e-05
2.1614441e-05
3.9135927e-05
7.0274222e-05
0.00012492525
0.00021915817
0.00037748785
0.00063385049
0.0010288569
0.0016016013
0.0023779298
0.0033608277
0.0045276942
0.0058344771
0.0072233647
0.0086310743
0.0099964548
0.01126701
0.012403885
0.01337504
0.014168048
0.014836827
0.015395296
0.015854295
0.01624663
0.016600964
0.01693893
0.017274871
0.017617373
0.017974005
0.018357876
0.018769416
0.01918381
0.019575029
0.01997747
0.02052098
0.021574014
0.023075105
0.024532955
0.024051989
0.019559636
2.5043602e-18
4.8706442e-16
1.2973107e-14
1.3151866e-13
7.9535658e-13
3.5236456e-12
1.2722835e-11
3.9809291e-11
1.1214513e-10
2.9169974e-10
7.1293253e-10
1.6579937e-09
3.7033332e-09
8.0013004e-09
1.6814323e-08
3.4517512e-08
6.9463297e-08
1.3742143e-07
2.6787989e-07
5.1551014e-07
9.8090005e-07
1.8478162e-06
3.4497427e-06
6.3878305e-06
1.1738049e-05
2.1410282e-05
3.8758285e-05
6.9580704e-05
0.0001236657
0.00021691112
0.00037359046
0.0006273661
0.0010186555
0.0015866036
0.0023574414
0.0033347866
0.0044967149
0.0057996981
0.0071861909
0.008592924
0.0099585541
0.011230179
0.0123685
0.013341052
0.014134175
0.01480218
0.015356941
0.015809315
0.01619081
0.016528315
0.016841165
0.017139779
0.017426965
0.017705497
0.017983951
0.018252863
0.018476785
0.01863995
0.018810579
0.01918471
0.020289661
0.022377481
0.024962216
0.026498236
0.024126902
2.4659217e-18
4.7958857e-16
1.277398e-14
1.2949982e-13
7.831457e-13
3.4695333e-12
1.2527376e-11
3.9197399e-11
1.1042032e-10
2.8721004e-10
7.0194973e-10
1.6324256e-09
3.6461537e-09
7.8775811e-09
1.6553883e-08
3.3981751e-08
6.8382401e-08
1.3527645e-07
2.6368272e-07
5.0739525e-07
9.6537021e-07
1.8183542e-06
3.3942659e-06
6.2840433e-06
1.154501e-05
2.1053263e-05
3.8102087e-05
6.838421e-05
0.00012150926
0.00021309375
0.00036701695
0.00061649259
0.001001608
0.0015615415
0.0023230605
0.0032907014
0.0044435301
0.0057387915
0.0071193511
0.0085219746
0.0098850283
0.011155112
0.012292311
0.013263315
0.014053116
0.014716995
0.015263222
0.01570308
0.016066533
0.016378397
0.016655052
0.016902947
0.017120505
0.017309067
0.017477025
0.017602617
0.017637483
0.017567516
0.017478974
0.01760037
0.018495149
0.020664457
0.024294095
0.027850819
0.027761953
2.4099626e-18
4.6870519e-16
1.2484093e-14
1.2656086e-13
7.653705e-13
3.3907697e-12
1.2242908e-11
3.8307e-11
1.0791094e-10
2.806795e-10
6.8597872e-10
1.5952559e-09
3.563057e-09
7.6978548e-09
1.6175714e-08
3.3204215e-08
6.6814695e-08
1.321677e-07
2.5760507e-07
4.9565703e-07
9.4293474e-07
1.7758563e-06
3.3143885e-06
6.1349288e-06
1.1268363e-05
2.0543093e-05
3.7167431e-05
6.6685947e-05
0.00011845948
0.00020771345
0.00035777846
0.00060123832
0.00097769892
0.0015263353
0.0022745872
0.0032281912
0.0043675312
0.0056508985
0.0070217369
0.0084168962
0.0097743984
0.011040185
0.01217352
0.013140098
0.013923276
0.014579295
0.015111703
0.015532954
0.015871342
0.016149586
0.016381328
0.016569583
0.016709812
0.016805522
0.016865659
0.01685274
0.016702754
0.016398794
0.016028707
0.015812733
0.016295078
0.018209623
0.022113331
0.027465211
0.029841871
2.336753e-18
4.544669e-16
1.2104849e-14
1.2271605e-13
7.4211734e-13
3.2877381e-12
1.187082e-11
3.7142455e-11
1.0462931e-10
2.7214038e-10
6.6509888e-10
1.5466706e-09
3.4544628e-09
7.4630379e-09
1.5681767e-08
3.2188965e-08
6.4768499e-08
1.2811201e-07
2.4968053e-07
4.8036206e-07
9.1372498e-07
1.7205807e-06
3.2106165e-06
5.941479e-06
1.0910049e-05
1.9883555e-05
3.596163e-05
6.4499819e-05
0.00011454207
0.0002008154
0.00034594848
0.00058170916
0.00094705497
0.001481095
0.0022120514
0.0031471322
0.0042683779
0.0055354258
0.0068924918
0.0082765783
0.0096253111
0.010883798
0.012010121
0.012968575
0.013744127
0.014387515
0.014900942
0.015297796
0.015604523
0.015841812
0.016020824
0.016141678
0.016199131
0.016204451
0.016165673
0.016025342
0.015702424
0.015174549
0.014515131
0.013897359
0.013701179
0.014914246
0.018702912
0.025061259
0.029374581
2.2470481e-18
4.370205e-16
1.1640157e-14
1.1800499e-13
7.1362563e-13
3.1614996e-12
1.1414945e-11
3.5715769e-11
1.0060929e-10
2.616809e-10
6.3952615e-10
1.4871731e-09
3.3214977e-09
7.1755729e-09
1.5077194e-08
3.0946636e-08
6.226535e-08
1.231523e-07
2.3999364e-07
4.6167499e-07
8.7805887e-07
1.6531371e-06
3.0841134e-06
5.7059032e-06
1.0474246e-05
1.9082509e-05
3.4499369e-05
6.1852928e-05
0.00010980595
0.00019248485
0.00033166709
0.00055811615
0.00090995746
0.0014261384
0.0021357364
0.0030476814
0.0041460161
0.0053920491
0.0067309941
0.0081001028
0.0094365732
0.010684528
0.011800575
0.012747048
0.01351297
0.014139072
0.014628244
0.014994716
0.015263038
0.015452007
0.015570645
0.015617053
0.01558939
0.015512593
0.015387416
0.015136245
0.014660546
0.013932909
0.013002018
0.011964923
0.010874981
0.010792549
0.01374568
0.020743233
0.026653323
2.1420567e-18
4.1660115e-16
1.1096282e-14
1.1249119e-13
6.8027952e-13
3.0137563e-12
1.0881432e-11
3.4046192e-11
9.5905152e-11
2.4944229e-10
6.0960608e-10
1.4175678e-09
3.1659619e-09
6.8393565e-09
1.4370205e-08
2.9494134e-08
5.9339403e-08
1.173565e-07
2.2867764e-07
4.3985438e-07
8.3643345e-07
1.5744737e-06
2.9366764e-06
5.4315892e-06
9.9673068e-06
1.8151807e-05
3.2802586e-05
5.8785415e-05
0.00010432321
0.00018284724
0.000315142
0.00053077875
0.00086685046
0.0013620079
0.0020462076
0.0029303177
0.0040007271
0.0052207668
0.006536911
0.0078867913
0.009207178
0.010441118
0.011543709
0.012475513
0.013225449
0.013830814
0.014290292
0.01461995
0.014842598
0.014975337
0.015025424
0.014990376
0.014878681
0.014731732
0.01453189
0.014190891
0.013582931
0.012692382
0.011534722
0.010087373
0.008237722
0.0065158758
0.0078725556
0.014171092
0.02144168
2.0234265e-18
3.9352921e-16
1.0481754e-14
1.0626116e-13
6.4260221e-13
2.8468267e-12
1.0278653e-11
3.2159926e-11
9.0590735e-11
2.3561673e-10
5.7580865e-10
1.3389487e-09
2.9903013e-09
6.4596807e-09
1.3571941e-08
2.785438e-08
5.6036923e-08
1.1081647e-07
2.1591249e-07
4.1524863e-07
7.895168e-07
1.4858611e-06
2.7707055e-06
5.1230437e-06
9.3976481e-06
1.7107071e-05
3.0900067e-05
5.5349752e-05
9.8187857e-05
0.00017206635
0.00029664627
0.00050012344
0.00081834329
0.0012894821
0.001944337
0.0027958816
0.0038331807
0.0050219615
0.0063102596
0.0076362551
0.0089363158
0.01015232
0.011237707
0.012150974
0.01287989
0.013459385
0.013883011
0.014168582
0.014337253
0.014404581
0.014376406
0.014252412
0.014061894
0.013856498
0.01358886
0.013166369
0.012457951
0.011446841
0.01008402
0.0082800471
0.006191431
0.0027208532
0.0028456632
0.0052601753
0.012167687
1.8932138e-18
3.6820451e-16
9.8072205e-15
9.942281e-14
6.0124661e-13
2.6636037e-12
9.6170541e-12
3.0089663e-11
8.4758156e-11
2.2044392e-10
5.3871997e-10
1.2526797e-09
2.7975643e-09
6.0431379e-09
1.2696272e-08
2.6055895e-08
5.2415428e-08
1.0364633e-07
2.0192142e-07
3.8828939e-07
7.381351e-07
1.3888673e-06
2.589155e-06
4.785797e-06
8.7755615e-06
1.5967338e-05
2.8826772e-05
5.1609493e-05
9.1513627e-05
0.00016034069
0.00027651303
0.00046667764
0.00076520671
0.0012095794
0.0018313228
0.0026456137
0.0036444927
0.0047964701
0.0060514834
0.0073484701
0.0086234442
0.009817008
0.010880689
0.011770719
0.012474062
0.013020786
0.013401349
0.013634226
0.013738906
0.013729422
0.013610554
0.013390612
0.013130754
0.012873191
0.01253778
0.012032289
0.011247209
0.010123325
0.0084958548
0.0067393317
0.0038283873
0.0014731536
0.0013789109
0.0023178552
0.0042870018
1.7538293e-18
3.4109608e-16
9.0851781e-15
9.2102857e-14
5.5697886e-13
2.4674815e-12
8.9088933e-12
2.7873761e-11
7.8515489e-11
2.0420501e-10
4.990274e-10
1.1603597e-09
2.5913247e-09
5.5974545e-09
1.1759449e-08
2.4132078e-08
4.8542236e-08
9.5979526e-08
1.8696529e-07
3.5948033e-07
6.8325098e-07
1.285316e-06
2.395453e-06
4.4262511e-06
8.1129282e-06
1.4754521e-05
2.6622829e-05
4.7637419e-05
8.443067e-05
0.00014789788
0.00025512684
0.00043105818
0.00070836134
0.0011235534
0.0017086994
0.0024811881
0.0034362829
0.0045456635
0.0057615452
0.0070238759
0.0082683948
0.0094343195
0.010470938
0.011332132
0.012005017
0.012510188
0.012839057
0.013008672
0.013036803
0.012935754
0.012710499
0.012392762
0.012073881
0.011549311
0.011235131
0.010740068
0.0098708383
0.0085424594
0.0068100325
0.0050744796
0.0018523005
0.00098277721
0.000875451
0.0015412626
0.0028101895
1.6079743e-18
3.1272927e-16
8.3296195e-15
8.4443141e-14
5.1065668e-13
2.2622603e-12
8.1678929e-12
2.5555161e-11
7.1983703e-11
1.8721469e-10
4.5750013e-10
1.0637781e-09
2.3755798e-09
5.1312704e-09
1.0779638e-08
2.2120252e-08
4.4492526e-08
8.7964985e-08
1.713349e-07
3.2938244e-07
6.2593519e-07
1.177232e-06
2.193399e-06
4.0514843e-06
7.4228503e-06
1.3492719e-05
2.4332245e-05
4.3513185e-05
7.7081347e-05
0.00013498746
0.00023291204
0.00039395458
0.00064885763
0.0010328761
0.0015783353
0.0023047363
0.0032107304
0.004271531
0.0054420332
0.0066634929
0.0078714938
0.0090037929
0.010007001
0.010832954
0.011468177
0.011922255
0.012188491
0.012281562
0.012217119
0.012005421
0.011658193
0.011252836
0.010784544
0.010026467
0.0099332235
0.0092298521
0.0082223217
0.0066072184
0.0052378832
0.0023916474
0.0010089474
0.00074027424
0.00057218886
0.00089856295
0.0014706846
1.4585479e-18
2.8366782e-16
7.5555581e-15
7.6595872e-14
4.6320061e-13
2.0520181e-12
7.4087761e-12
2.3179928e-11
6.5292577e-11
1.6981053e-10
4.1496322e-10
9.648537e-10
2.1546159e-09
4.6538481e-09
9.7763091e-09
2.0060397e-08
4.03468e-08
7.976208e-08
1.5534125e-07
2.9859499e-07
5.6733004e-07
1.0667725e-06
1.9870324e-06
3.6690052e-06
6.7191905e-06
1.2207357e-05
2.2001334e-05
3.9320449e-05
6.9615072e-05
0.00012187188
0.00021031801
0.0003561067
0.0005878464
0.00093920682
0.0014424131
0.002118853
0.0029706178
0.0039767645
0.0050952768
0.0062690529
0.0074336791
0.0085254329
0.0094876091
0.010270662
0.01085879
0.011250474
0.011440402
0.011440197
0.011262917
0.010918068
0.010447299
0.0099714251
0.0091475362
0.008948914
0.0082968114
0.0074572059
0.0061569221
0.0048441506
0.0028121822
0.0010508611
0.00068823695
0.00051522323
0.00042503157
0.00057043943
0.00078370987
1.3085324e-18
2.5449184e-16
6.7784476e-15
6.8717718e-14
4.1555808e-13
1.8409522e-12
6.6466971e-12
2.0795478e-11
5.857566e-11
1.5233986e-10
3.7226554e-10
8.6556035e-10
1.9328419e-09
4.1747123e-09
8.7694763e-09
1.7993601e-08
3.6187746e-08
7.153442e-08
1.3930334e-07
2.6773211e-07
5.0860482e-07
9.561421e-07
1.7804743e-06
3.2864587e-06
6.0160305e-06
1.09242e-05
1.9676915e-05
3.5143641e-05
6.2182615e-05
0.00010881665
0.0001878024
0.00031827789
0.00052653999
0.00084434429
0.0013033841
0.0019265743
0.0027193518
0.0036648314
0.0047244676
0.0058431498
0.0069566317
0.0079996212
0.0089119938
0.0096427074
0.010171627
0.010487247
0.010583954
0.010469792
0.010155312
0.0096623
0.0090960794
0.0084031017
0.0078987131
0.0072421535
0.0064330114
0.0053459512
0.0041473128
0.0027257623
0.0010253466
0.00058738646
0.00045882806
0.00039579223
0.00039201082
0.00047143738
0.0005872555
1.1608641e-18
2.257723e-16
6.0134936e-15
6.0962811e-14
3.6866111e-13
1.6331913e-12
5.8965624e-12
1.8448445e-11
5.1964312e-11
1.351443e-10
3.3024182e-10
7.6783893e-10
1.7145917e-09
3.7032244e-09
7.7788061e-09
1.5960221e-08
3.2096547e-08
6.3442532e-08
1.2353391e-07
2.373953e-07
4.5090321e-07
8.4749365e-07
1.5777411e-06
2.9112765e-06
5.3270204e-06
9.6681466e-06
1.7404094e-05
3.1063895e-05
5.4928737e-05
9.6077312e-05
0.00016580917
0.00028121921
0.00046615689
0.00075015128
0.0011638858
0.0017313126
0.0024609445
0.0033400208
0.0043337736
0.0053894146
0.0064430224
0.0074276017
0.0082797008
0.0089465076
0.0094008255
0.0096241728
0.0096072638
0.0093548135
0.0088803111
0.0082635869
0.0076328195
0.0069510775
0.0062207353
0.005361205
0.0043566928
0.0033202479
0.0021914846
0.00089326567
0.00046436563
0.00037982176
0.00034697309
0.000356704
0.00041765616
0.00048376511
0.00056238804
1.018263e-18
1.9803826e-16
5.2747893e-15
5.347403e-14
3.2337374e-13
1.432563e-12
5.1721894e-12
1.6182055e-11
4.5580266e-11
1.1854039e-10
2.8966537e-10
6.7348696e-10
1.5038778e-09
3.2480471e-09
6.8224864e-09
1.3997554e-08
2.8148154e-08
5.5634447e-08
1.0832093e-07
2.0813725e-07
3.9527361e-07
7.4279465e-07
1.3824893e-06
2.5501941e-06
4.6644642e-06
8.4614967e-06
1.5222991e-05
2.7152873e-05
4.7980526e-05
8.387757e-05
0.00014472863
0.00024560282
0.00040782657
0.00065843579
0.0010266117
0.0015367403
0.002199942
0.0030074418
0.0039284182
0.0049126701
0.0058967253
0.0068116901
0.0075909027
0.0081791802
0.0085398015
0.0086530538
0.0084989654
0.0080837791
0.0074593994
0.006780331
0.0060742165
0.0052839342
0.0044041337
0.0033761914
0.0025285989
0.0015341869
0.00068775544
0.00037072011
0.00031259131
0.00029026902
0.00031350075
0.00036739189
0.00045169825
0.00054155215
0.00063825163
8.8322134e-19
1.7177452e-16
4.5752494e-15
4.6382319e-14
2.8048785e-13
1.2425749e-12
4.4862409e-12
1.4035917e-11
3.9535061e-11
1.0281813e-10
2.5124464e-10
5.8415098e-10
1.3043753e-09
2.8171138e-09
5.917171e-09
1.2139742e-08
2.4411165e-08
4.8245595e-08
9.3927714e-08
1.8046313e-07
3.4267342e-07
6.4384002e-07
1.1980507e-06
2.2093396e-06
4.0395384e-06
7.324476e-06
1.316995e-05
2.3475492e-05
4.1453376e-05
7.2421741e-05
0.00012492078
0.00021205624
0.00035261565
0.00057094659
0.0008942661
0.0013467076
0.0019413321
0.002672965
0.0035146863
0.004419009
0.005322972
0.0061556966
0.0068470335
0.0073366972
0.007584996
0.0075648105
0.0072523235
0.0066699933
0.0059721726
0.0052498122
0.0044479056
0.003560721
0.002560173
0.0018471088
0.00097875224
0.00046923951
0.00027342185
0.00024899727
0.00024177429
0.0002700301
0.00032854761
0.00040814963
0.00050638429
0.00060659577
0.00070626356
7.579278e-19
1.4740669e-16
3.9262086e-15
3.9802559e-14
2.4069804e-13
1.0663041e-12
3.8498249e-12
1.2044781e-11
3.3926566e-11
8.8231993e-11
2.1560132e-10
5.0127609e-10
1.1193103e-09
2.4173897e-09
5.0774844e-09
1.0416775e-08
2.0945849e-08
4.1395003e-08
8.0585779e-08
1.5481717e-07
2.939449e-07
5.5220918e-07
1.0273575e-06
1.8941063e-06
3.4620776e-06
6.2748771e-06
1.1276937e-05
2.0088845e-05
3.5448851e-05
6.189017e-05
0.00010670572
0.00018114616
0.00030151562
0.00048935294
0.00076948935
0.0011650924
0.0016903473
0.0023430273
0.0030997718
0.003915678
0.0047281518
0.0054640608
0.0060490628
0.0064178521
0.006534086
0.006355651
0.0058742902
0.0051880235
0.0044817128
0.0037007211
0.0028341139
0.0019063543
0.0013135028
0.00063079957
0.00030259645
0.00018756176
0.00018590335
0.00019697867
0.00023141757
0.00029094817
0.00036872895
0.00045761156
0.00054800373
0.00063328225
0.00072077945
6.4403284e-19
1.2525569e-16
3.3362118e-15
3.3821374e-14
2.0452814e-13
9.0607068e-13
3.2713165e-12
1.0234841e-11
2.8828539e-11
7.4973727e-11
1.8320372e-10
4.2595049e-10
9.5111057e-10
2.0541134e-09
4.314416e-09
8.8511628e-09
1.7797377e-08
3.5171704e-08
6.8467856e-08
1.3152977e-07
2.4971181e-07
4.6906561e-07
8.7255505e-07
1.608406e-06
2.9391382e-06
5.3252958e-06
9.5662151e-06
1.7031965e-05
3.0035021e-05
5.2401599e-05
9.029235e-05
0.00015324626
0.00025520619
0.00041488504
0.00065441354
0.00099532276
0.0014519797
0.0020241679
0.0026913622
0.0034107229
0.0041195527
0.0047420149
0.0051995126
0.0054252069
0.0053882712
0.005035975
0.0044118129
0.003733992
0.0030245668
0.0022118524
0.0013949332
0.00084878807
0.00039823932
0.00019570952
0.0001256488
0.00013324343
0.00015556423
0.00019735988
0.00025735371
0.000330355
0.00038033862
0.00042635696
0.00051592625
0.00067701791
0.00077863769
5.4260438e-19
1.0552917e-16
2.8107906e-15
2.8494847e-14
1.7231724e-13
7.633764e-13
2.7561359e-12
8.6230493e-12
2.4288698e-11
6.3167341e-11
1.5435461e-10
3.5887731e-10
8.013441e-10
1.730665e-09
3.6350495e-09
7.4573968e-09
1.4994779e-08
2.9632797e-08
5.7684411e-08
1.1081144e-07
2.1036969e-07
3.9514236e-07
7.3498366e-07
1.354657e-06
2.475024e-06
4.4832883e-06
8.0508859e-06
1.4327352e-05
2.5250482e-05
4.402311e-05
7.5801162e-05
0.00012858284
0.0002141253
0.00034839152
0.00055063754
0.0008401803
0.0012305933
0.0017224751
0.0022969658
0.0029122595
0.0035047047
0.0039953801
0.0043023765
0.0043716506
0.0041602414
0.0036527007
0.0030079799
0.0023821503
0.0016841761
0.00099337772
0.00052005617
0.00025148093
0.00012567223
8.4997557e-05
9.6028409e-05
0.0001225994
0.0001679794
0.00022826426
0.0002949299
0.00030356341
0.00031103198
0.00036081773
0.00045098207
0.00065507848
0.00082671408
4.5413845e-19
8.8323738e-17
2.3525205e-15
2.3849078e-14
1.4422314e-13
6.3892016e-13
2.3068047e-12
7.2172863e-12
2.0329217e-11
5.2870416e-11
1.2919441e-10
3.003823e-10
6.7073611e-10
1.4486052e-09
3.0426482e-09
6.2421329e-09
1.2551339e-08
2.4804284e-08
4.8285443e-08
9.2756715e-08
1.7609441e-07
3.3076147e-07
6.1522317e-07
1.1338833e-06
2.0715049e-06
3.7518362e-06
6.7358217e-06
1.1982714e-05
2.1107254e-05
3.6774223e-05
6.3267665e-05
0.00010723241
0.0001784599
0.00029033082
0.00045917457
0.00070162933
0.0010295172
0.0014428681
0.0019228803
0.0024272245
0.0028902612
0.0032306517
0.0033705704
0.0032753667
0.0029040754
0.0023471233
0.0017911228
0.0012283368
0.00068077088
0.0003165595
0.00015481261
8.0848061e-05
5.8084745e-05
7.1187366e-05
9.8975503e-05
0.0001445791
0.00020348816
0.00026615006
0.0002487676
0.00024268545
0.00026134405
0.00031367315
0.00040527593
0.00062703919
0.00083988206
3.7855647e-19
7.3624099e-17
1.9609937e-15
1.9879935e-14
1.2022082e-13
5.3259085e-13
1.92292e-12
6.0162862e-12
1.6946507e-11
4.4073546e-11
1.0769994e-10
2.5041088e-10
5.5916307e-10
1.2076625e-09
2.5366292e-09
5.2041418e-09
1.0464499e-08
2.0680881e-08
4.0260069e-08
7.7343146e-08
1.4683936e-07
2.7582528e-07
5.1306771e-07
9.4565177e-07
1.7276788e-06
3.1291075e-06
5.6174552e-06
9.9914838e-06
1.7593533e-05
3.0633346e-05
5.2653202e-05
8.9133488e-05
0.00014814176
0.00024069707
0.0003802528
0.00058043184
0.00085039106
0.0011880585
0.0015727209
0.0019596839
0.0022809753
0.0024568555
0.0024368818
0.0021884654
0.0017487361
0.0012968347
0.00085118618
0.0004228183
0.00019495545
9.6004539e-05
5.2133919e-05
4.0605165e-05
5.4454841e-05
8.2150849e-05
0.00012657085
0.00018281822
0.00024195347
0.00021376724
0.00020190947
0.00020916252
0.00023308398
0.00028885479
0.00038969067
0.00060958181
0.00087958863
3.1518682e-19
6.129956e-17
1.6327274e-15
1.6552101e-14
1.0009668e-13
4.4344189e-13
1.6010634e-12
5.0093494e-12
1.4110413e-11
3.6698257e-11
8.9679265e-11
2.0851643e-10
4.6562635e-10
1.0056767e-09
2.112446e-09
4.3340714e-09
8.7153889e-09
1.722513e-08
3.3534947e-08
6.4428763e-08
1.2233228e-07
2.2981545e-07
4.2753477e-07
7.8810148e-07
1.4400094e-06
2.6083276e-06
4.6826707e-06
8.3281384e-06
1.4660886e-05
2.5514196e-05
4.3816072e-05
7.4067773e-05
0.00012282953
0.00019897796
0.0003132061
0.00047585627
0.00069253629
0.00095745673
0.0012459618
0.0015098601
0.0016817616
0.0017033637
0.0015473721
0.0012326461
0.00088921726
0.00055753027
0.00024879943
0.00011635158
6.0010515e-05
3.4569734e-05
2.928789e-05
4.3062263e-05
6.9834249e-05
0.00011186991
0.00016558835
0.00021846696
0.00019007887
0.00017764929
0.00017748567
0.00018832163
0.00021608581
0.00027352058
0.00037079542
0.00058569412
0.00090681013
2.6274666e-19
5.1100642e-17
1.361077e-15
1.379822e-14
8.3443358e-14
3.6966858e-13
1.3347183e-12
4.1760844e-12
1.1763489e-11
3.0595109e-11
7.4767109e-11
1.7384926e-10
3.8822765e-10
8.3854504e-10
1.7614729e-09
3.6142043e-09
7.268326e-09
1.4366362e-08
2.7972112e-08
5.3747525e-08
1.0206558e-07
1.9177221e-07
3.5682376e-07
6.578772e-07
1.2022811e-06
2.1780402e-06
3.9104315e-06
6.9540579e-06
1.2237571e-05
2.1280561e-05
3.6495583e-05
6.1558354e-05
0.00010175019
0.00016401631
0.00025627775
0.00038535873
0.00055243557
0.00074654075
0.00093800996
0.0010775161
0.0011127325
0.0010193798
0.00081004493
0.00056981555
0.00033827236
0.00014278303
6.9092103e-05
3.7259146e-05
2.3487338e-05
2.2045944e-05
3.5065634e-05
6.039297e-05
9.9729933e-05
0.00014999076
0.00019744146
0.00017341223
0.000162482
0.00016005388
0.00016380957
0.0001787904
0.00020812514
0.00026344355
0.00036463929
0.00059003621
0.00091680435
2.1934546e-19
4.2659704e-17
1.1362515e-15
1.1519034e-14
6.9660621e-14
3.086117e-13
1.1142833e-12
3.4864484e-12
9.8210992e-12
2.5543952e-11
6.2425375e-11
1.4515787e-10
3.2417124e-10
7.0022605e-10
1.4710109e-09
3.0184616e-09
6.0708034e-09
1.200063e-08
2.3368754e-08
4.4908653e-08
8.5294392e-08
1.6028908e-07
2.9830044e-07
5.5007968e-07
1.0054374e-06
1.8215933e-06
3.2702677e-06
5.8137588e-06
1.0223196e-05
1.7752227e-05
3.0370035e-05
5.1025206e-05
8.3833659e-05
0.00013393504
0.00020655647
0.00030457823
0.00042404357
0.00054844497
0.00064566008
0.00067676527
0.00062235684
0.00049151664
0.00033759325
0.00018604193
8.0023382e-05
4.0550658e-05
2.3333286e-05
1.6361093e-05
1.7133268e-05
2.9413862e-05
5.2492038e-05
8.9217058e-05
0.0001355381
0.00017972151
0.00016153454
0.00015416275
0.00015149174
0.00015235021
0.00015940242
0.00017491206
0.00020426896
0.00026212635
0.00036586694
0.00058307601
0.00094626299
1.8255581e-19
3.5504632e-17
9.4567539e-16
9.5870487e-15
5.7977435e-14
2.5685533e-13
9.2742394e-13
2.9018464e-12
8.1745133e-12
2.1261939e-11
5.1962675e-11
1.2083406e-10
2.6986402e-10
5.8295382e-10
1.2247327e-09
2.5133045e-09
5.0552725e-09
9.9941633e-09
1.9463757e-08
3.7408788e-08
7.1058836e-08
1.3355274e-07
2.4856711e-07
4.5838797e-07
8.377928e-07
1.5175046e-06
2.7228907e-06
4.8357563e-06
8.4884439e-06
1.4696962e-05
2.5026648e-05
4.1746755e-05
6.7849663e-05
0.000106673
0.00016066295
0.00022858388
0.00030172498
0.00036106573
0.00038174645
0.00035047719
0.00027408924
0.00018131802
9.427967e-05
4.3196942e-05
2.3385868e-05
1.4885497e-05
1.1642846e-05
1.3779507e-05
2.4857755e-05
4.5971239e-05
7.9781583e-05
0.0001224832
0.00016503867
0.00015370341
0.00014946091
0.00014796748
0.00014747076
0.00015095151
0.00015879309
0.00017565725
0.00020661616
0.00026383538
0.00036366823
0.00058068966
0.00095790484
1.4970664e-19
2.9115919e-17
7.7551092e-16
7.8619788e-15
4.7545395e-14
2.1064065e-13
7.6056736e-13
2.3798047e-12
6.7040633e-12
1.7437742e-11
4.2617897e-11
9.9107149e-11
2.2134903e-10
4.7817368e-10
1.0046462e-09
2.0617598e-09
4.1472309e-09
8.1993294e-09
1.5968758e-08
3.0691629e-08
5.8297212e-08
1.0955589e-07
2.0386006e-07
3.7579697e-07
6.8639676e-07
1.2419841e-06
2.2248776e-06
3.9413475e-06
6.8918844e-06
1.1863531e-05
2.0026601e-05
3.2976667e-05
5.2587124e-05
8.0379637e-05
0.00011600654
0.00015501685
0.00018705646
0.0001982809
0.0001808293
0.00013966551
8.8520642e-05
4.6053209e-05
2.264103e-05
1.347716e-05
9.4845405e-06
8.6692403e-06
1.1073152e-05
2.1181011e-05
4.0189617e-05
7.1226518e-05
0.0001108175
0.00015376786
0.00014804155
0.00014598284
0.00014581882
0.00014583478
0.00014760319
0.0001523567
0.00016192314
0.00018003401
0.00021023752
0.00026637163
0.00036971149
0.00058724019
0.00096874646
1.1854961e-19
2.3056297e-17
6.141114e-16
6.225752e-15
3.7650435e-14
1.6680394e-13
6.0228945e-13
1.8845735e-12
5.309022e-12
1.3809293e-11
3.3750302e-11
7.8486332e-11
1.7529438e-10
3.7868117e-10
7.9559689e-10
1.6326794e-09
3.2839043e-09
6.4917254e-09
1.264077e-08
2.4288528e-08
4.6115638e-08
8.6610499e-08
1.610205e-07
2.9644681e-07
5.4047227e-07
9.7539304e-07
1.740819e-06
3.067531e-06
5.3234512e-06
9.0648796e-06
1.5066819e-05
2.4258328e-05
3.7417402e-05
5.4437e-05
7.3160863e-05
8.8482345e-05
9.359823e-05
8.4915144e-05
6.447379e-05
3.9153067e-05
2.1045423e-05
1.1682295e-05
7.7051172e-06
6.342603e-06
6.3343569e-06
9.2462469e-06
1.7883382e-05
3.565513e-05
6.5470864e-05
0.00010257482
0.00014487903
0.00014265632
0.00014186741
0.00014347618
0.00014428648
0.00014605616
0.00014907343
0.00015580246
0.00016654519
0.00018500805
0.0002157178
0.00027386048
0.00037406204
0.00058407652
0.00098670502
8.8201868e-20
1.7154068e-17
4.569035e-16
4.6320041e-15
2.8012179e-14
1.2410312e-13
4.4810571e-13
1.402122e-12
3.9498676e-12
1.0273806e-11
2.5108714e-11
5.8387592e-11
1.3039594e-10
2.8165998e-10
5.9167071e-10
1.213937e-09
2.4409363e-09
4.8233118e-09
9.3865857e-09
1.8021395e-08
3.417891e-08
6.4095307e-08
1.1891651e-07
2.1831651e-07
3.9650441e-07
7.1184271e-07
1.2614219e-06
2.2011585e-06
3.7687421e-06
6.2975764e-06
1.018913e-05
1.5782332e-05
2.303107e-05
3.0987042e-05
3.7418086e-05
3.9377496e-05
3.5469494e-05
2.6381303e-05
1.6208835e-05
9.4381826e-06
5.8741758e-06
4.6020448e-06
4.2105229e-06
4.9053339e-06
7.5459639e-06
1.5648677e-05
3.3245577e-05
6.0240707e-05
9.4454124e-05
0.00013233
0.00013725474
0.00013763718
0.00014019276
0.00014179302
0.00014343858
0.00014636308
0.00015138728
0.00015951338
0.00017134623
0.00019155583
0.00022297357
0.00027967369
0.00037839937
0.0005911406
0.0009891766
5.9757172e-20
1.1621955e-17
3.0955345e-16
3.1381827e-15
1.897811e-14
8.4078205e-14
3.0357971e-13
9.4987175e-13
2.6757288e-12
6.9592469e-12
1.700647e-11
3.954141e-11
8.8290624e-11
1.9066178e-10
4.0037327e-10
8.2105469e-10
1.6498672e-09
3.2572828e-09
6.3314532e-09
1.2136523e-08
2.2968938e-08
4.2951244e-08
7.9386406e-08
1.4500906e-07
2.6159178e-07
4.6540467e-07
8.1472624e-07
1.3983597e-06
2.3406113e-06
3.790746e-06
5.872817e-06
8.5637606e-06
1.1501151e-05
1.384671e-05
1.4497295e-05
1.2996808e-05
9.6764199e-06
6.3412021e-06
4.1445093e-06
3.0845126e-06
2.7589644e-06
2.9943199e-06
3.7417996e-06
6.4405031e-06
1.4789054e-05
3.0489351e-05
5.5547518e-05
8.6516119e-05
0.00012025762
0.00013246243
0.00013297032
0.00013560407
0.00013721682
0.00013933405
0.0001423474
0.00014727379
0.00015353851
0.00016324739
0.00017686324
0.00019822743
0.00022948725
0.00028757536
0.00038595619
0.00059419652
0.00098832423
3.5733572e-20
6.9496854e-18
1.8510572e-16
1.8765418e-15
1.1348161e-14
5.0274049e-14
1.815158e-13
5.6790896e-13
1.5996144e-12
4.1598514e-12
1.0163638e-11
2.3625225e-11
5.2733481e-11
1.1382287e-10
2.3886561e-10
4.8942822e-10
9.8235861e-10
1.936498e-09
3.7565598e-09
7.1816366e-09
1.3543781e-08
2.5208922e-08
4.6308132e-08
8.3903957e-08
1.4974359e-07
2.6264266e-07
4.5111886e-07
7.5476908e-07
1.2205016e-06
1.8860931e-06
2.7416415e-06
3.6698322e-06
4.4047443e-06
4.5921475e-06
4.1512139e-06
3.2841447e-06
2.4559599e-06
1.8734053e-06
1.6393214e-06
1.8091046e-06
2.1263549e-06
3.0548118e-06
6.1151959e-06
1.3861679e-05
2.802105e-05
5.115278e-05
7.9401957e-05
0.00011016342
0.00012745021
0.00012734364
0.00012979809
0.00013150024
0.00013400632
0.00013757735
0.00014197059
0.00014776592
0.00015552208
0.0001669461
0.00018174263
0.00020452928
0.00023698674
0.00029540961
0.00039050665
0.00059938173
0.00098604512
1.8376637e-20
3.5739973e-18
9.5193212e-17
9.6502206e-16
5.8356838e-15
2.5851721e-14
9.3331532e-14
2.9197531e-13
8.2227277e-13
2.1378861e-12
5.2218707e-12
1.2133204e-11
2.7067363e-11
5.8380338e-11
1.2239402e-10
2.5045147e-10
5.0181959e-10
9.8695147e-10
1.9087736e-09
3.634632e-09
6.8188452e-09
1.2605317e-08
2.2948814e-08
4.1093263e-08
7.2211704e-08
1.2409219e-07
2.0744552e-07
3.3479783e-07
5.1605074e-07
7.4845323e-07
1.0016255e-06
1.2075548e-06
1.2868073e-06
1.2401183e-06
1.1221803e-06
9.8371199e-07
9.2024222e-07
9.7575042e-07
1.201826e-06
1.6904244e-06
2.8282141e-06
5.9185437e-06
1.2680547e-05
2.5614609e-05
4.7139249e-05
7.2937957e-05
0.00010090708
0.00012160683
0.00012062898
0.0001232385
0.00012506645
0.00012774246
0.00013129681
0.00013561049
0.00014078195
0.00014818509
0.00015735538
0.00017010627
0.0001864834
0.00021106432
0.00024385974
0.0003026142
0.00039726356
0.00060699357
0.00097770133
8.0517944e-21
1.5659575e-18
4.170876e-17
4.2281284e-16
2.5567254e-15
1.1325355e-14
4.0883236e-14
1.2787818e-13
3.6005731e-13
9.3585472e-13
2.2849095e-12
5.3060696e-12
1.1828062e-11
2.5485574e-11
5.3358662e-11
1.0899312e-10
2.1787743e-10
4.2720482e-10
8.2293265e-10
1.5588831e-09
2.9048593e-09
5.3228527e-09
9.5802815e-09
1.6901366e-08
2.913046e-08
4.8815128e-08
7.8988622e-08
1.2226338e-07
1.7882423e-07
2.4354747e-07
3.0481465e-07
3.5370408e-07
3.9212362e-07
4.2861913e-07
4.6295975e-07
5.0818754e-07
6.6254067e-07
9.647706e-07
1.5570663e-06
2.764199e-06
5.5373132e-06
1.1468612e-05
2.3350281e-05
4.330551e-05
6.6858348e-05
9.2411793e-05
0.00011605923
0.00011410847
0.00011651386
0.00011825602
0.00012078479
0.00012415125
0.00012838007
0.00013365304
0.00014017193
0.0001485138
0.00015873174
0.00017307695
0.00019086208
0.00021667022
0.00025029596
0.00031029003
0.00040234412
0.00061212987
0.00097031019
3.1857468e-21
6.1958022e-19
1.6502141e-17
1.6728242e-16
1.0115017e-15
4.4802588e-15
1.6171475e-14
5.0574697e-14
1.4236847e-13
3.6993093e-13
9.0282883e-13
2.0954364e-12
4.667715e-12
1.0047945e-11
2.1011445e-11
4.2850992e-11
8.5484154e-11
1.6717458e-10
3.2095557e-10
6.0541089e-10
1.1221156e-09
2.0424509e-09
3.6458152e-09
6.3676372e-09
1.0845941e-08
1.7936922e-08
2.8647665e-08
4.3939609e-08
6.430815e-08
8.970699e-08
1.2011286e-07
1.5631572e-07
2.0701515e-07
2.7565122e-07
3.7307717e-07
5.6631004e-07
9.051795e-07
1.4926972e-06
2.622745e-06
5.0462238e-06
1.0323081e-05
2.1497842e-05
3.9831858e-05
6.1280156e-05
8.4799903e-05
0.00011034387
0.00010768951
0.00010966673
0.00011112134
0.00011342415
0.00011648677
0.00012061163
0.00012570858
0.00013175264
0.00013884526
0.00014834871
0.00015998397
0.00017559349
0.00019454595
0.00022205541
0.00025663798
0.00031691443
0.00040819038
0.00061962079
0.00096013463
1.5206213e-21
2.9573822e-19
7.8768132e-18
7.9847501e-17
4.8281356e-16
2.1385524e-15
7.7192372e-15
2.4141969e-14
6.7963903e-14
1.7661433e-13
4.3109666e-13
1.0007859e-12
2.23006e-12
4.8028974e-12
1.0050609e-11
2.0518404e-11
4.0992577e-11
8.0332993e-11
1.546846e-10
2.9299201e-10
5.462408e-10
1.0024868e-09