/*--------------------------------*- C++ -*----------------------------------*\
  =========                 |
  \\      /  F ield         | OpenFOAM: The Open Source CFD Toolbox
   \\    /   O peration     | Website:  https://openfoam.org
    \\  /    A nd           | Version:  13
     \\/     M anipulation  |
\*---------------------------------------------------------------------------*/
FoamFile
{
    format      ascii;
    class       volScalarField;
    location    "31.49671";
    object      nut;
}
// * * * * * * * * * * * * * * * * * * * * * * * * * * * * * * * * * * * * * //

dimensions      [0 2 -1 0 0 0 0];

internalField   nonuniform List<scalar> 
17140
(
1.5883647e-18
3.0891586e-16
8.2280601e-15
8.3414147e-14
5.0444339e-13
2.2348104e-12
8.0691918e-12
2.5248071e-11
7.1124943e-11
1.8500171e-10
4.5215465e-10
1.0515295e-09
2.3487301e-09
5.0746397e-09
1.0664293e-08
2.1893013e-08
4.4059778e-08
8.7171161e-08
1.6994357e-07
3.270912e-07
6.2251897e-07
1.1730707e-06
2.1910358e-06
4.0597743e-06
7.4673297e-06
1.3640401e-05
2.4748925e-05
4.4592046e-05
7.9723137e-05
0.00014118816
0.00024692344
0.00042434366
0.00071152748
0.0011541284
0.0017956842
0.0026632315
0.0037553016
0.0050389401
0.0064561682
0.0079353473
0.009403001
0.010793801
0.012057891
0.013163007
0.014086349
0.014850545
0.015515283
0.016074345
0.016561675
0.017007451
0.017434963
0.017860121
0.018293702
0.018748434
0.019248104
0.019813453
0.020438951
0.021072788
0.021581069
0.021703079
0.021147281
0.020424557
0.020974173
0.024396962
0.027779607
1.593261e-18
3.0986788e-16
8.2534253e-15
8.3671518e-14
5.0600188e-13
2.2417254e-12
8.0942018e-12
2.5326472e-11
7.1346244e-11
1.8557856e-10
4.5356767e-10
1.0548234e-09
2.3561056e-09
5.0906159e-09
1.0697954e-08
2.1962299e-08
4.419958e-08
8.7448455e-08
1.7048546e-07
3.2813641e-07
6.2451188e-07
1.1768316e-06
2.1980678e-06
4.0728124e-06
7.4913198e-06
1.3684236e-05
2.4828508e-05
4.473563e-05
7.9980419e-05
0.00014164493
0.00024772239
0.00042570827
0.00071377025
0.0011576063
0.0018006618
0.0026696635
0.0037626112
0.0050459193
0.0064610009
0.007935744
0.009396396
0.01077756
0.012029501
0.01311927
0.014025593
0.014773182
0.015417774
0.015954608
0.016417593
0.016836686
0.017235257
0.017630157
0.018035254
0.018472141
0.018983315
0.01961388
0.020393984
0.021323221
0.022318886
0.023159798
0.023390848
0.023241972
0.023635564
0.025964471
0.026350634
1.5872858e-18
3.0870573e-16
8.2224699e-15
8.3357707e-14
5.0410422e-13
2.233319e-12
8.0638533e-12
2.5231529e-11
7.1078839e-11
1.8488316e-10
4.5186845e-10
1.0508724e-09
2.3472819e-09
5.0715526e-09
1.0657889e-08
2.1880019e-08
4.4033874e-08
8.712021e-08
1.698443e-07
3.2689886e-07
6.2214713e-07
1.1723512e-06
2.1896394e-06
4.0570546e-06
7.4620193e-06
1.3630039e-05
2.4728826e-05
4.4553557e-05
7.9650962e-05
0.00014105676
0.00024669268
0.00042395477
0.00071089184
0.0011530841
0.0017938747
0.0026598835
0.0037489467
0.0050272082
0.0064357302
0.0079020348
0.0093520512
0.010720157
0.011956484
0.013026785
0.013911479
0.014637766
0.015255256
0.015761426
0.016189573
0.016568859
0.016921966
0.017265696
0.01761624
0.018005633
0.018496763
0.019154817
0.020041255
0.021208022
0.022624456
0.024156541
0.02518682
0.025526137
0.025640055
0.026346024
0.024170387
1.5694818e-18
3.0524305e-16
8.1302387e-15
8.2422684e-14
4.9844974e-13
2.2082684e-12
7.9734037e-12
2.4948516e-11
7.0281573e-11
1.8280936e-10
4.4679967e-10
1.0390833e-09
2.3209451e-09
5.0146352e-09
1.0538232e-08
2.1634235e-08
4.3538838e-08
8.6139689e-08
1.6792976e-07
3.2320616e-07
6.150994e-07
1.1590216e-06
2.1646258e-06
4.0104357e-06
7.3756639e-06
1.3470994e-05
2.4437616e-05
4.4023907e-05
7.8695899e-05
0.00013935541
0.000243716
0.00041888332
0.00070256815
0.0011400647
0.0017746086
0.0026329321
0.0037130847
0.0049813331
0.0063786625
0.0078323302
0.0092678926
0.010619327
0.01183638
0.012882883
0.013741041
0.01444102
0.015024003
0.015490477
0.015872522
0.016197841
0.016487556
0.016757354
0.017025635
0.0173382
0.017775613
0.018416681
0.019344539
0.020663308
0.02239307
0.024503845
0.026252315
0.027151753
0.026998501
0.026303835
0.022849574
1.539462e-18
2.994046e-16
7.9747294e-15
8.0846169e-14
4.8891586e-13
2.1660306e-12
7.8208941e-12
2.4471311e-11
6.8937215e-11
1.7931238e-10
4.3825211e-10
1.0192026e-09
2.2765305e-09
4.9186474e-09
1.0336437e-08
2.121974e-08
4.2704037e-08
8.448636e-08
1.6470206e-07
3.1698229e-07
6.0322532e-07
1.1365758e-06
2.1225341e-06
3.9320557e-06
7.2306265e-06
1.3204185e-05
2.3949692e-05
4.3137509e-05
7.7099044e-05
0.00013651231
0.00023874175
0.00041040431
0.00068864209
0.0011182805
0.0017424315
0.0025881599
0.0036541262
0.0049071379
0.0062883969
0.0077250079
0.0091420956
0.010473049
0.011666964
0.012685092
0.013511622
0.014179873
0.014720504
0.015137711
0.015461749
0.01571818
0.015925724
0.01609816
0.016258149
0.016470336
0.016823575
0.017393124
0.018287637
0.019650643
0.02156575
0.024089774
0.026405362
0.027896051
0.027864197
0.026148782
0.021646517
1.4971721e-18
2.911798e-16
7.7556597e-15
7.8625283e-14
4.7548504e-13
2.106528e-12
7.6060448e-12
2.3799039e-11
6.7043308e-11
1.7438585e-10
4.2621028e-10
9.9119438e-10
2.2139585e-09
4.7834186e-09
1.0052149e-08
2.0635817e-08
4.1528066e-08
8.2157523e-08
1.6015613e-07
3.08218e-07
5.8650846e-07
1.1049853e-06
2.0633179e-06
3.8218431e-06
7.0268064e-06
1.2829492e-05
2.326496e-05
4.1894407e-05
7.4860761e-05
0.00013252817
0.00023176989
0.00039851184
0.00066908666
0.0010876499
0.0016971512
0.002525197
0.0035714663
0.0048037511
0.006163793
0.0075786729
0.0089730256
0.010279454
0.011446131
0.012431166
0.013220646
0.013851367
0.014341442
0.014699422
0.014953174
0.015125531
0.015232171
0.015285216
0.0153181
0.015415501
0.015653257
0.016094127
0.016865535
0.018153083
0.020099169
0.022810609
0.025556156
0.02751137
0.027632128
0.025645008
0.021516146
1.4428979e-18
2.8062423e-16
7.4745103e-15
7.5775038e-14
4.5824808e-13
2.0301628e-12
7.3303084e-12
2.2936246e-11
6.4612666e-11
1.6806313e-10
4.107557e-10
9.5524844e-10
2.1336535e-09
4.6098679e-09
9.6873053e-09
1.9886459e-08
4.0018995e-08
7.916925e-08
1.5432359e-07
2.9697483e-07
5.6506764e-07
1.0644782e-06
1.9874126e-06
3.6806261e-06
6.7657745e-06
1.2349884e-05
2.2389001e-05
4.0304996e-05
7.2000101e-05
0.00012743692
0.00022285802
0.000383296
0.00064402543
0.0010483087
0.0016388612
0.0024440112
0.003464862
0.0046706599
0.0060040439
0.0073922266
0.0087593026
0.010036878
0.011171913
0.012118974
0.012865872
0.013452707
0.013883784
0.014172404
0.014343588
0.014417081
0.014405391
0.014322167
0.014222979
0.014197884
0.014287706
0.014544858
0.015103285
0.016158932
0.017918701
0.020515202
0.023492672
0.025858861
0.02624724
0.024610583
0.02085359
1.377288e-18
2.6786403e-16
7.1346395e-15
7.2329484e-14
4.3741097e-13
1.9378476e-12
6.9969797e-12
2.1893243e-11
6.1674338e-11
1.6041978e-10
3.9207318e-10
9.1179482e-10
2.0365769e-09
4.4000745e-09
9.2462821e-09
1.8980667e-08
3.8194995e-08
7.5557628e-08
1.4727513e-07
2.8338977e-07
5.3916584e-07
1.0155556e-06
1.8957666e-06
3.5101913e-06
6.4508807e-06
1.1771615e-05
2.133343e-05
3.839069e-05
6.8556053e-05
0.00012130807
0.00021212572
0.00036495115
0.00061374781
0.0010006375
0.001567983
0.0023449678
0.0033345069
0.0045077918
0.0058087597
0.0071649476
0.0084998768
0.0097439304
0.010842465
0.011746523
0.012445592
0.012981256
0.013344856
0.01355409
0.013630886
0.013591956
0.013447738
0.013223238
0.013002336
0.012845899
0.012756178
0.012783139
0.013062777
0.013788982
0.015176167
0.017419407
0.020276084
0.022742438
0.023403639
0.022161585
0.01829276
1.3013643e-18
2.5309783e-16
6.7413358e-15
6.8342239e-14
4.1329803e-13
1.8310195e-12
6.6112475e-12
2.0686266e-11
5.8274068e-11
1.5157483e-10
3.7045369e-10
8.6151047e-10
1.9242417e-09
4.1573101e-09
8.7359622e-09
1.7932596e-08
3.6084611e-08
7.1379298e-08
1.3912163e-07
2.6767728e-07
5.0921389e-07
9.5899796e-07
1.7898534e-06
3.3133038e-06
6.0872889e-06
1.1104284e-05
2.0115998e-05
3.6184079e-05
6.4587817e-05
0.00011424726
0.00019975596
0.00034377936
0.00057871784
0.00094528082
0.0014853032
0.0022288878
0.0031811089
0.0043156068
0.0055780644
0.0068965879
0.00819413
0.009399632
0.010456008
0.011311502
0.011959424
0.012434315
0.012722399
0.012842661
0.012814257
0.012651589
0.01236768
0.012016608
0.011689007
0.011387893
0.011096361
0.01086725
0.010821753
0.011115676
0.011900341
0.013485668
0.015809027
0.018113974
0.018830339
0.017864679
0.013055334
1.2165109e-18
2.3659499e-16
6.3017768e-15
6.3886067e-14
3.8634926e-13
1.7116277e-12
6.1801507e-12
1.9337342e-11
5.4473916e-11
1.4168972e-10
3.4629192e-10
8.0531367e-10
1.7986999e-09
3.8860116e-09
8.1656793e-09
1.676143e-08
3.3726521e-08
6.671097e-08
1.3001309e-07
2.5012728e-07
4.7576653e-07
8.9585792e-07
1.6716556e-06
3.0936762e-06
5.6819146e-06
1.0360709e-05
1.876034e-05
3.3728461e-05
6.0173937e-05
0.00010639475
0.00018599283
0.00032018816
0.00053957445
0.00088315604
0.0013919999
0.0020971005
0.0030059709
0.0040951979
0.0053127056
0.0065874797
0.007841982
0.0090036762
0.01001122
0.010812737
0.011405473
0.011809947
0.012014664
0.012037126
0.011894314
0.011600369
0.011184752
0.010738843
0.010309649
0.0098530762
0.0093574007
0.0088762007
0.0084872725
0.0082641729
0.0082550426
0.0088408101
0.010344536
0.012083036
0.012765067
0.011367945
0.0058990869
1.124449e-18
2.1869019e-16
5.8248769e-15
5.9051335e-14
3.5711112e-13
1.5820933e-12
5.7124324e-12
1.7873829e-11
5.0350961e-11
1.3096497e-10
3.2007806e-10
7.4434474e-10
1.6624998e-09
3.5916879e-09
7.5470194e-09
1.5490981e-08
3.116872e-08
6.1647778e-08
1.2013546e-07
2.3109889e-07
4.3951021e-07
8.2743619e-07
1.54362e-06
2.8558813e-06
5.2432574e-06
9.5566074e-06
1.7295371e-05
3.1076694e-05
5.5410188e-05
9.7921697e-05
0.00017113541
0.0002946816
0.00049712135
0.00081544834
0.0012896542
0.0019514836
0.0028110659
0.0038483973
0.0050141752
0.0062386368
0.0074438617
0.0085556784
0.0095081191
0.010249756
0.010781107
0.01110682
0.011220397
0.011137379
0.01087326
0.010448247
0.0099329778
0.009419318
0.0088833705
0.0082738411
0.0075955071
0.0068853841
0.006141663
0.0053467298
0.004762932
0.004124827
0.0042608439
0.004836556
0.0050318925
0.0039200994
0.0029749582
1.0271812e-18
1.9977289e-16
5.3210076e-15
5.3943195e-14
3.2621953e-13
1.4452337e-12
5.2182651e-12
1.6327561e-11
4.5994886e-11
1.196339e-10
2.9238244e-10
6.7993038e-10
1.5186057e-09
3.2807469e-09
6.8934574e-09
1.4148937e-08
2.8466989e-08
5.6300262e-08
1.0970468e-07
2.1100882e-07
4.0124074e-07
7.5523904e-07
1.4085755e-06
2.6051981e-06
4.78111e-06
8.7100508e-06
1.5754261e-05
2.8289298e-05
5.0406109e-05
8.9023977e-05
0.00015552725
0.00026784374
0.00045230475
0.00074358768
0.0011802387
0.0017944827
0.0025991003
0.0035778848
0.0046848529
0.005851928
0.0070009759
0.0080560975
0.0089468977
0.0096221966
0.010084463
0.010323488
0.010338703
0.010144294
0.0097557488
0.0092182392
0.0086483975
0.0080714708
0.0074258362
0.0066827343
0.0058509128
0.0049103454
0.0039156352
0.0028653031
0.001620029
0.0012933256
0.0014203531
0.0017996872
0.0021855824
0.0024338432
0.0021059267
9.269155e-19
1.8027257e-16
4.8016104e-15
4.867764e-14
2.9437601e-13
1.3041568e-12
4.7088711e-12
1.4733652e-11
4.1504621e-11
1.0795385e-10
2.6383418e-10
6.1353398e-10
1.3702874e-09
2.9602558e-09
6.2198527e-09
1.2765824e-08
2.568282e-08
5.0790219e-08
9.8958565e-08
1.903157e-07
3.6183325e-07
6.8092098e-07
1.2696256e-06
2.3474066e-06
4.3061735e-06
7.8407401e-06
1.4173087e-05
2.5431951e-05
4.52804e-05
7.9913884e-05
0.00013954189
0.00024031494
0.00040617817
0.0006692048
0.0010660784
0.0016290978
0.0023735502
0.0032872835
0.004328154
0.0054302574
0.0065154758
0.0075061342
0.0083280618
0.0089302665
0.0093139437
0.0094584389
0.0093689594
0.0090600295
0.0085530246
0.0079482843
0.007347914
0.0066984163
0.0059511976
0.0050973401
0.0041037401
0.0030888845
0.0019904077
0.00092123121
0.00057566231
0.00057641194
0.00080475854
0.0011554451
0.0014345521
0.0015554544
0.0013276401
8.259679e-19
1.6063958e-16
4.2786788e-15
4.3376251e-14
2.6231576e-13
1.16212e-12
4.196012e-12
1.3128907e-11
3.6983852e-11
9.6194551e-11
2.3509253e-10
5.4668895e-10
1.2209706e-09
2.6376182e-09
5.541769e-09
1.1373605e-08
2.2880578e-08
4.5245087e-08
8.8145795e-08
1.6949876e-07
3.2220126e-07
6.0620706e-07
1.1300007e-06
2.0885138e-06
3.8295449e-06
6.9690575e-06
1.258908e-05
2.2572279e-05
4.0155083e-05
7.0809666e-05
0.00012356458
0.00021276106
0.00035985428
0.00059406453
0.00094977408
0.0014588236
0.0021386511
0.0029812215
0.0039486651
0.004977755
0.0059906719
0.0069078378
0.0076521412
0.0081754455
0.0084678693
0.0085101533
0.008310882
0.0078885025
0.0072882747
0.0066664002
0.0060285171
0.0053025443
0.0044666458
0.0034896589
0.0025102739
0.0014946497
0.0006441898
0.00034498269
0.00031277483
0.00036853799
0.0004969413
0.00064879782
0.00079018454
0.00087162382
0.0008167517
7.2664915e-19
1.4132339e-16
3.7641852e-15
3.8160403e-14
2.3077285e-13
1.0223754e-12
3.6914309e-12
1.155007e-11
3.2536101e-11
8.4625287e-11
2.0681575e-10
4.8092631e-10
1.0740754e-09
2.3202252e-09
4.8747421e-09
1.0004185e-08
2.0124486e-08
3.9791982e-08
7.75143e-08
1.4903546e-07
2.8325412e-07
5.3281234e-07
9.9290807e-07
1.834471e-06
3.362194e-06
6.1150979e-06
1.103884e-05
1.977657e-05
3.5149507e-05
6.1924656e-05
0.00010797278
0.00018583922
0.00031444712
0.00051997711
0.00083408667
0.0012875294
0.0018993148
0.0026653255
0.0035522291
0.0044999534
0.0054313755
0.0062647663
0.0069220967
0.0073563319
0.0075459007
0.0074777864
0.0071653349
0.0066362922
0.0059949245
0.0053733906
0.0046848462
0.0038899581
0.0029535501
0.0020418645
0.0011458717
0.00048153259
0.00023970293
0.00020409133
0.00021774825
0.00026529962
0.00034844612
0.00042933806
0.00051722773
0.00058905253
0.00065087154
6.3113477e-19
1.2274715e-16
3.269402e-15
3.3144391e-14
2.0043853e-13
8.8798546e-13
3.2061855e-12
1.0031741e-11
2.8258833e-11
7.3499587e-11
1.7962348e-10
4.1768714e-10
9.3282095e-10
2.0150314e-09
4.2333865e-09
8.687563e-09
1.7474913e-08
3.4550315e-08
6.7296803e-08
1.2937353e-07
2.4584342e-07
4.6234036e-07
8.6133997e-07
1.5908173e-06
2.914298e-06
5.2974359e-06
9.5560559e-06
1.7105571e-05
3.037258e-05
5.3452973e-05
9.3110261e-05
0.00016015275
0.00027099869
0.00044868501
0.00072177817
0.0011192683
0.0016609489
0.0023461027
0.0031459156
0.0040037956
0.0048436495
0.0055820671
0.0061416147
0.0064729316
0.0065490008
0.0063631397
0.0059380829
0.0053236363
0.0046991669
0.0040635657
0.0033257615
0.0024606026
0.0016283747
0.00085513819
0.00036409034
0.00017526856
0.00014580232
0.0001538757
0.00018845267
0.00024565946
0.00031708008
0.00038834505
0.00046960826
0.00054010909
0.00063672652
5.4135428e-19
1.052861e-16
2.8043231e-15
2.8429513e-14
1.7192535e-13
7.6166399e-13
2.7500749e-12
8.6045834e-12
2.4238434e-11
6.3042147e-11
1.5406488e-10
3.5824858e-10
8.0005965e-10
1.7281996e-09
3.6306513e-09
7.4503158e-09
1.4985322e-08
2.9625799e-08
5.7699223e-08
1.1090883e-07
2.1072137e-07
3.9620563e-07
7.3793144e-07
1.3624195e-06
2.4947757e-06
4.5322983e-06
8.1700592e-06
1.4611984e-05
2.5918517e-05
4.5562302e-05
7.9274241e-05
0.00013622587
0.00023042349
0.00038175597
0.00061543323
0.00095802266
0.0014291573
0.0020306667
0.0027378471
0.0034976358
0.004235185
0.0048666165
0.005314932
0.0055275159
0.0054829663
0.0051756497
0.0046500655
0.0040148085
0.0034195252
0.0027566879
0.001988938
0.0012490167
0.00060868699
0.0002680928
0.00013048739
0.00010578879
0.00011626106
0.00015111384
0.0002059873
0.00027067906
0.00033839645
0.00040751713
0.0004906401
0.00057525758
0.00069450791
4.5887896e-19
8.9245777e-17
2.3770843e-15
2.4098253e-14
1.4573213e-13
6.45621e-13
2.3310789e-12
7.293565e-12
2.0545243e-11
5.3435936e-11
1.3058718e-10
3.0365065e-10
6.7811445e-10
1.464748e-09
3.0770796e-09
6.3140786e-09
1.2699228e-08
2.5104441e-08
4.8888997e-08
9.3963e-08
1.7849847e-07
3.3555446e-07
6.2481364e-07
1.1532033e-06
2.1107973e-06
3.8326762e-06
6.9042142e-06
1.2337562e-05
2.1861551e-05
3.8384248e-05
6.6698033e-05
0.00011447309
0.00019346021
0.00032049315
0.00051728191
0.00080740899
0.0012093344
0.001726271
0.0023367662
0.002990978
0.0036155834
0.0041266734
0.0044474341
0.0045322598
0.0043598045
0.0039435736
0.0033609789
0.0027854164
0.0021941275
0.0015391579
0.00091140432
0.0004251311
0.00019052064
9.5408713e-05
7.7153474e-05
9.0512649e-05
0.00012591528
0.00018020811
0.00024437568
0.00031347635
0.00038785922
0.00046889763
0.00056581143
0.00064997389
0.00074812242
3.848028e-19
7.483892e-17
1.9933525e-15
2.0208065e-14
1.2220633e-13
5.4139557e-13
1.9547542e-12
6.1160704e-12
1.7228224e-11
4.4808281e-11
1.0950144e-10
2.5461648e-10
5.6859948e-10
1.2281608e-09
2.5799846e-09
5.29384e-09
1.0646725e-08
2.1045602e-08
4.0981377e-08
7.8756652e-08
1.495916e-07
2.8116513e-07
5.2342292e-07
9.6579024e-07
1.7670942e-06
3.2070172e-06
5.7734432e-06
1.0308408e-05
1.8246995e-05
3.199725e-05
5.5518391e-05
9.5138478e-05
0.00016056129
0.00026575699
0.00042893794
0.00067027877
0.0010060773
0.0014395459
0.0019511522
0.0024934534
0.00299465
0.0033719597
0.003552425
0.0035073511
0.003214425
0.0027318946
0.0021949255
0.001686214
0.001141199
0.0006133473
0.00028313284
0.00013197009
6.839915e-05
5.6520035e-05
7.1848979e-05
0.00010622728
0.00015920343
0.00022265438
0.00029274289
0.00037268574
0.00046005484
0.0005478317
0.00063156703
0.00069360252
0.00079089284
3.1973048e-19
6.2183228e-17
1.6562646e-15
1.6790745e-14
1.0154023e-13
4.4983978e-13
1.6241775e-12
5.081727e-12
1.4314499e-11
3.7229728e-11
9.0980079e-11
2.1154689e-10
4.7240961e-10
1.0203703e-09
2.143422e-09
4.3979122e-09
8.8445019e-09
1.7482187e-08
3.4040204e-08
6.541185e-08
1.2423096e-07
2.3346615e-07
4.3454667e-07
8.0160816e-07
1.4662211e-06
2.659829e-06
4.7855938e-06
8.5380161e-06
1.5097862e-05
2.6440589e-05
4.5803472e-05
7.8344107e-05
0.00013195309
0.00021798676
0.00035129317
0.0005484018
0.000822591
0.0011755885
0.0015880794
0.0020138032
0.0023826531
0.0026155685
0.0026584681
0.0024893122
0.0021207586
0.0016688003
0.0012433261
0.00081061564
0.00039055449
0.00017936827
8.783691e-05
4.8384702e-05
4.1736301e-05
5.7437718e-05
9.0028736e-05
0.0001402873
0.00020179938
0.00023049069
0.00025247505
0.00031290509
0.00046763041
0.00058696975
0.00066658681
0.00074170872
0.0008281967
2.637027e-19
5.1286603e-17
1.3660307e-15
1.3848427e-14
8.3746757e-14
3.710109e-13
1.3395557e-12
4.1911824e-12
1.1805892e-11
3.0705011e-11
7.5034625e-11
1.7446856e-10
3.8960397e-10
8.4150237e-10
1.7676513e-09
3.6268117e-09
7.2935515e-09
1.441603e-08
2.8068713e-08
5.3933926e-08
1.0242445e-07
1.9246691e-07
3.5818947e-07
6.6063624e-07
1.2080744e-06
2.190773e-06
3.9397088e-06
7.0238921e-06
1.2408031e-05
2.1700128e-05
3.752366e-05
6.4035067e-05
0.00010755349
0.00017711076
0.00028441146
0.00044224918
0.00066019215
0.00093707006
0.0012520173
0.0015589483
0.0017911879
0.0018810599
0.0018057931
0.0015529607
0.0012059419
0.00086958981
0.00054231193
0.00023663684
0.00011228544
5.6988807e-05
3.3766165e-05
3.1280367e-05
4.6225972e-05
7.6408789e-05
0.00012326387
0.00018256196
0.00018045315
0.00018901867
0.00022087874
0.00028911823
0.00044432624
0.0006419716
0.00073054669
0.0007900556
0.00086194246
2.161986e-19
4.2047697e-17
1.1199501e-15
1.1353728e-14
6.8660288e-14
3.0417508e-13
1.0982388e-12
3.4361438e-12
9.679034e-12
2.5173328e-11
6.1516399e-11
1.4303549e-10
3.1940892e-10
6.8988319e-10
1.4491482e-09
2.9732842e-09
5.9792222e-09
1.1818005e-08
2.3009743e-08
4.421188e-08
8.3958262e-08
1.5775789e-07
2.9356962e-07
5.4138388e-07
9.8981161e-07
1.79444e-06
3.2255522e-06
5.7468766e-06
1.0142264e-05
1.771237e-05
3.0564176e-05
5.2005387e-05
8.7006644e-05
0.00014255814
0.00022747116
0.00035081753
0.00051794722
0.0007236514
0.00094430916
0.0011345811
0.0012366044
0.0012148115
0.0010588557
0.00081773001
0.00057117457
0.00033251816
0.0001450389
6.8915686e-05
3.6941435e-05
2.3680346e-05
2.382491e-05
3.7648969e-05
6.4532119e-05
0.00010804784
0.00016482549
0.00015313866
0.00015615054
0.00017491535
0.00021150638
0.00027763662
0.00041403518
0.00069893222
0.00076492899
0.0008168024
0.0008806639
1.76196e-19
3.426772e-17
9.1272827e-16
9.2529731e-15
5.5956219e-14
2.4789414e-13
8.9503345e-13
2.8003589e-12
7.8881348e-12
2.051554e-11
5.0134121e-11
1.1656996e-10
2.6030977e-10
5.6223753e-10
1.1810225e-09
2.4231657e-09
4.8729592e-09
9.6314871e-09
1.8752583e-08
3.6031829e-08
6.842339e-08
1.2856373e-07
2.3922779e-07
4.4112045e-07
8.0634446e-07
1.4613622e-06
2.6254804e-06
4.6739576e-06
8.2385182e-06
1.4361046e-05
2.471455e-05
4.1889543e-05
6.9692228e-05
0.00011329851
0.00017885372
0.00027177128
0.00039292157
0.00053263527
0.00066517607
0.00075042102
0.00075415831
0.00066625776
0.00051296116
0.00034759495
0.00019038817
8.3494239e-05
4.2285268e-05
2.3861754e-05
1.698532e-05
1.8572001e-05
3.0939898e-05
5.4714463e-05
9.488259e-05
0.00014897768
0.00013844941
0.00013923091
0.0001505672
0.00017220513
0.00020805274
0.00027097642
0.00039529197
0.00065346021
0.00079575566
0.00084818655
0.00090909056
1.4229663e-19
2.7674755e-17
7.3712338e-16
7.4727468e-15
4.5190556e-14
2.0020094e-13
7.2283625e-13
2.2615982e-12
6.3705585e-12
1.6568683e-11
4.0489345e-11
9.4144915e-11
2.1023456e-10
4.5408532e-10
9.5385045e-10
1.9570866e-09
3.9357218e-09
7.77909e-09
1.5146009e-08
2.9101865e-08
5.5262271e-08
1.0382907e-07
1.93182e-07
3.5614904e-07
6.508185e-07
1.1789008e-06
2.1163135e-06
3.7628451e-06
6.6200239e-06
1.1507163e-05
1.9720902e-05
3.3224296e-05
5.479995e-05
8.7993099e-05
0.00013645471
0.00020210269
0.00028161639
0.00036209569
0.0004198402
0.00043012111
0.00038442663
0.00029541932
0.00019269299
0.00010103675
4.6597851e-05
2.4904634e-05
1.5662645e-05
1.2251081e-05
1.4936967e-05
2.5601932e-05
4.6927501e-05
8.3944455e-05
0.00013443497
0.00013044817
0.00013133407
0.00013787511
0.00015191552
0.0001738564
0.000209695
0.00027114377
0.00037905416
0.00056784991
0.00078792295
0.00087515735
0.00092445304
1.1296549e-19
2.1970255e-17
5.8518299e-16
5.9324229e-15
3.5875681e-14
1.5893499e-13
5.7384508e-13
1.7954439e-12
5.0575002e-12
1.3153725e-11
3.2144311e-11
7.4741705e-11
1.6690639e-10
3.6050281e-10
7.5727367e-10
1.5537536e-09
3.1245887e-09
6.1757307e-09
1.2023764e-08
2.3101101e-08
4.3862179e-08
8.2394806e-08
1.5325748e-07
2.8241888e-07
5.1573837e-07
9.3327262e-07
1.6728608e-06
2.9678005e-06
5.2043716e-06
9.0037441e-06
1.5325248e-05
2.5565508e-05
4.1577391e-05
6.5410898e-05
9.8465874e-05
0.00013970657
0.00018310495
0.00021627339
0.00022461549
0.00020241425
0.00015500435
9.7628707e-05
5.1402101e-05
2.5228076e-05
1.4663883e-05
1.0106778e-05
9.1832145e-06
1.1845405e-05
2.1558618e-05
4.0392525e-05
7.5187269e-05
0.00012171606
0.00012682849
0.00012738765
0.00013124438
0.0001410049
0.00015549751
0.00017815465
0.00021442467
0.00027212797
0.00036517663
0.00051023302
0.00067425251
0.0008047402
0.00093311243
8.6906327e-20
1.6902102e-17
4.5019156e-16
4.563918e-15
2.7599819e-14
1.2227174e-13
4.4147063e-13
1.3812728e-12
3.8908428e-12
1.011943e-11
2.4729192e-11
5.7499705e-11
1.2840142e-10
2.7732945e-10
5.8253914e-10
1.1951744e-09
2.4032961e-09
4.7495405e-09
9.2454733e-09
1.7758804e-08
3.3706748e-08
6.328581e-08
1.1762931e-07
2.1654337e-07
3.9487079e-07
7.1310115e-07
1.2745498e-06
2.25203e-06
3.9266836e-06
6.7386359e-06
1.1339542e-05
1.8612484e-05
2.9569791e-05
4.4974919e-05
6.4503893e-05
8.5472841e-05
0.00010201406
0.00010675111
9.662939e-05
7.3319929e-05
4.5066548e-05
2.4257494e-05
1.332896e-05
8.5173064e-06
6.7940992e-06
6.7132381e-06
9.7383313e-06
1.7876033e-05
3.5524325e-05
6.8202391e-05
0.00011018216
0.00012541217
0.00012527985
0.00012760061
0.000135011
0.00014479807
0.00015977327
0.00018309573
0.00021827202
0.00027207838
0.00035281851
0.00047087765
0.00060089806
0.00074217362
0.00090772702
6.3475583e-20
1.2345137e-17
3.2881551e-16
3.3334373e-15
2.0158575e-14
8.930553e-14
3.2244209e-13
1.0088478e-12
2.841738e-12
7.3907335e-12
1.806044e-11
4.1991859e-11
9.376534e-11
2.0250253e-10
4.2531083e-10
8.7244679e-10
1.7539345e-09
3.4651191e-09
6.7422486e-09
1.2942811e-08
2.4545764e-08
4.6034417e-08
8.5434759e-08
1.5695331e-07
2.8540763e-07
5.1346135e-07
9.129737e-07
1.6017504e-06
2.76582e-06
4.6831258e-06
7.7337277e-06
1.2360149e-05
1.8909495e-05
2.7272629e-05
3.6330442e-05
4.3574906e-05
4.5727746e-05
4.1410301e-05
3.1152174e-05
1.9368277e-05
1.12437e-05
6.7886984e-06
5.095022e-06
4.5218419e-06
5.1574649e-06
7.8244797e-06
1.5292405e-05
3.2642454e-05
6.147204e-05
9.9519186e-05
0.00012396777
0.00012380057
0.00012497966
0.00013055867
0.0001373695
0.00014762637
0.00016347997
0.00018703891
0.00022158191
0.00027273772
0.00034449886
0.00044328832
0.00055326429
0.00069953287
0.00089237234
4.293265e-20
8.349813e-18
2.2239875e-16
2.2546058e-15
1.363437e-14
6.0401602e-14
2.1807903e-13
6.8230102e-13
1.9218401e-12
4.998002e-12
1.221246e-11
2.8391797e-11
6.338781e-11
1.3686941e-10
2.8738508e-10
5.8930175e-10
1.1841289e-09
2.3378617e-09
4.5449082e-09
8.7144975e-09
1.6501224e-08
3.0883462e-08
5.715927e-08
1.0462581e-07
1.8933297e-07
3.3842116e-07
5.9654776e-07
1.0344582e-06
1.758146e-06
2.9129846e-06
4.6689063e-06
7.1601222e-06
1.0347487e-05
1.3807868e-05
1.6587026e-05
1.7417379e-05
1.5790992e-05
1.1949914e-05
7.8391788e-06
5.0102124e-06
3.5673241e-06
3.038618e-06
3.1868167e-06
3.9155383e-06
6.4932004e-06
1.4096293e-05
2.9507844e-05
5.5617657e-05
8.9954461e-05
0.00012303506
0.0001227774
0.00012272531
0.00012680914
0.00013166115
0.00013917991
0.00015048877
0.00016688177
0.00019080463
0.00022480489
0.00027290089
0.00033631612
0.00042289216
0.00052083073
0.00066836691
0.00087856965
2.6185399e-20
5.0926981e-18
1.3564443e-16
1.3751074e-15
8.3156162e-15
3.683808e-14
1.3299827e-13
4.1608692e-13
1.1719017e-12
3.0473538e-12
7.4449956e-12
1.7304764e-11
3.8624187e-11
8.3368208e-11
1.7496283e-10
3.5853983e-10
7.1982309e-10
1.4195591e-09
2.7555708e-09
5.2732225e-09
9.9593069e-09
1.8576603e-08
3.4228803e-08
6.2287162e-08
1.1184924e-07
1.9789559e-07
3.4415355e-07
5.8612994e-07
9.7239984e-07
1.5594649e-06
2.39158e-06
3.4552472e-06
4.6103823e-06
5.5415444e-06
5.8244678e-06
5.3243704e-06
4.2074185e-06
3.0934325e-06
2.2981073e-06
1.8822212e-06
1.9529672e-06
2.24533e-06
3.1233524e-06
5.8932334e-06
1.3078188e-05
2.6614858e-05
5.0229664e-05
8.161269e-05
0.00011784948
0.00012142045
0.0001198968
0.00012289634
0.0001266128
0.00013235029
0.00014063724
0.00015247675
0.00016948953
0.00019368142
0.0002264226
0.00027205773
0.00033044282
0.00040936473
0.00049768603
0.00064559228
0.00086665385
1.4047913e-20
2.7321212e-18
7.2769855e-17
7.3770037e-16
4.4609404e-15
1.9761075e-14
7.1339779e-14
2.2316682e-13
6.2846366e-13
1.6339312e-12
3.9908835e-12
9.2731471e-12
2.0688527e-11
4.4628954e-11
9.3589345e-11
1.9159145e-10
3.8413547e-10
7.5622748e-10
1.4645946e-09
2.7943796e-09
5.2571106e-09
9.7561615e-09
1.7857817e-08
3.2216733e-08
5.7201572e-08
9.971849e-08
1.700682e-07
2.8227549e-07
4.5256658e-07
6.9359493e-07
1.0017026e-06
1.3378315e-06
1.6136025e-06
1.7208442e-06
1.648218e-06
1.4672393e-06
1.2503908e-06
1.0964336e-06
1.1087668e-06
1.2788399e-06
1.7174578e-06
2.7571267e-06
5.545947e-06
1.1823333e-05
2.3825133e-05
4.5276071e-05
7.3918356e-05
0.00010690541
0.00011891147
0.00011618296
0.00011878119
0.00012171568
0.00012627439
0.00013255606
0.00014148846
0.00015424144
0.00017171995
0.00019576662
0.00022811974
0.00027222958
0.00032602763
0.00039882589
0.00048071545
0.00063159557
0.00085800727
6.5288626e-21
1.2697699e-18
3.3819952e-17
3.4284074e-16
2.0731097e-15
9.1828963e-15
3.3148252e-14
1.0368132e-13
2.9192398e-13
7.5877258e-13
1.852659e-12
4.302794e-12
9.5936302e-12
2.0678227e-11
4.331655e-11
8.8550126e-11
1.7721296e-10
3.4803207e-10
6.7193508e-10
1.2768349e-09
2.3895427e-09
4.4044481e-09
7.9912362e-09
1.4253107e-08
2.4934942e-08
4.264159e-08
7.0933219e-08
1.1398812e-07
1.7529631e-07
2.5479876e-07
3.4469129e-07
4.2752823e-07
4.8717197e-07
5.195605e-07
5.4025298e-07
5.600184e-07
5.9452765e-07
6.9176677e-07
9.5906691e-07
1.4948366e-06
2.6156125e-06
5.1326907e-06
1.0509771e-05
2.1189495e-05
4.0793761e-05
6.6868573e-05
9.6840406e-05
0.00011571645
0.00011234991
0.00011441718
0.00011670808
0.00012027319
0.00012532341
0.00013236056
0.00014211479
0.00015530815
0.00017306803
0.00019753128
0.00022898931
0.00027112224
0.00032173852
0.00039136057
0.00046952503
0.0006208216
0.00084608648
2.6876763e-21
5.2271333e-19
1.3922176e-17
1.4112893e-16
8.5334961e-16
3.7796717e-15
1.3642363e-14
4.2664242e-14
1.2009965e-13
3.1207429e-13
7.6167918e-13
1.7680737e-12
3.9394224e-12
8.4833689e-12
1.7749803e-11
3.6229227e-11
7.2359989e-11
1.4174395e-10
2.7275719e-10
5.1611156e-10
9.6066922e-10
1.7585714e-09
3.1629436e-09
5.5796428e-09
9.6277373e-09
1.6186935e-08
2.6379797e-08
4.1399149e-08
6.2093446e-08
8.8417343e-08
1.1992151e-07
1.5601907e-07
1.9436089e-07
2.3463324e-07
2.966335e-07
3.8532008e-07
5.3908665e-07
8.4946037e-07
1.3989167e-06
2.4532839e-06
4.6221492e-06
9.2495517e-06
1.8983357e-05
3.6747752e-05
6.0356942e-05
8.77566e-05
0.00011153081
0.00010820735
0.00010965316
0.00011133242
0.00011422945
0.00011832079
0.00012417542
0.00013188134
0.0001421071
0.00015596873
0.00017426143
0.00019849424
0.00022938534
0.00027090161
0.00031933997
0.00038635799
0.00046010075
0.00061416318
0.00083640572
1.1566115e-21
2.2494363e-19
5.9912239e-18
6.0732522e-17
3.672211e-16
1.6264779e-15
5.8704875e-15
1.8358407e-14
5.1676554e-14
1.3427144e-13
3.2768997e-13
7.6058365e-13
1.6944306e-12
3.6483199e-12
7.632046e-12
1.5574781e-11
3.1101126e-11
6.0912649e-11
1.1720204e-10
2.2178093e-10
4.1295236e-10
7.565742e-10
1.3631001e-09
2.4123083e-09
4.1863504e-09
7.1092561e-09
1.1789043e-08
1.9065947e-08
3.0037058e-08
4.6188314e-08
6.9262697e-08
1.0163388e-07
1.4697666e-07
2.1440754e-07
3.1724816e-07
4.958249e-07
7.959811e-07
1.3013488e-06
2.2454196e-06
4.1654043e-06
8.2857243e-06
1.7204916e-05
3.3165306e-05
5.4561264e-05
7.973505e-05
0.00010633916
0.0001036467
0.00010438009
0.00010566328
0.00010801929
0.00011137961
0.00011626708
0.00012270463
0.00013092757
0.00014186164
0.00015619089
0.000174573
0.00019911756
0.00022974816
0.00027001464
0.00031654165
0.00038181897
0.00045472117
0.00060992869
0.00082371763
7.982402e-22
1.5524622e-19
4.1349394e-18
4.1917165e-17
2.5347312e-16
1.1228149e-15
4.0533855e-15
1.2679387e-14
3.5704457e-14
9.2819193e-14
2.2668362e-13
5.26633e-13
1.1746847e-12
2.533377e-12
5.3110879e-12
1.0869154e-11
2.1785488e-11
4.2876662e-11
8.3029021e-11
1.5843734e-10
2.9825228e-10
5.5427014e-10
1.0172452e-09