/*--------------------------------*- C++ -*----------------------------------*\
  =========                 |
  \\      /  F ield         | OpenFOAM: The Open Source CFD Toolbox
   \\    /   O peration     | Website:  https://openfoam.org
    \\  /    A nd           | Version:  13
     \\/     M anipulation  |
\*---------------------------------------------------------------------------*/
FoamFile
{
    format      ascii;
    class       volVectorField;
    location    "6.900369";
    object      wallShearStress;
}
// * * * * * * * * * * * * * * * * * * * * * * * * * * * * * * * * * * * * * //

dimensions      [0 2 -2 0 0 0 0];

internalField   uniform (0 0 0);

boundaryField
{
    inlet
    {
        type            calculated;
        value           uniform (0 0 0);
    }
    outlet
    {
        type            calculated;
        value           uniform (0 0 0);
    }
    cylinder
    {
        type            calculated;
        value           nonuniform List<vector> 
132
(
(0.00011092262 -0.0016354425 -1.2332684e-22)
(0.00046785087 -0.0092711291 3.5824532e-23)
(0.001239462 -0.016736304 2.0937312e-21)
(0.00239911 -0.023763566 -7.594558e-21)
(0.003890213 -0.030086061 5.8907725e-21)
(0.0056265929 -0.035450835 1.9937095e-20)
(0.0074935859 -0.039635054 -4.1874344e-21)
(0.0093579288 -0.042460573 -1.829425e-20)
(0.011074183 -0.043809945 1.8841727e-20)
(0.012494084 -0.043638819 -4.5611314e-20)
(0.013481458 -0.041987791 -8.8369756e-22)
(0.013927331 -0.038987908 3.1700978e-20)
(0.013765947 -0.034861637 5.3534007e-20)
(0.01298954 -0.029916012 -4.4423652e-20)
(0.01165456 -0.024515732 4.7210263e-20)
(0.0098842131 -0.019055106 7.5900765e-20)
(0.0078498088 -0.013908308 -4.9286118e-20)
(0.0057449826 -0.0093775787 7.7923545e-20)
(0.003758864 -0.0056648464 1.0126063e-19)
(0.0020324707 -0.0028378376 -6.4520908e-20)
(0.00065462374 -0.00086149012 -8.0863015e-20)
(-0.00037410557 0.00042102002 2.8034265e-23)
(-0.0010833271 0.0011630072 1.140982e-20)
(-0.0015342015 0.0015280132 -1.3509685e-20)
(-0.001626447 0.0014973155 -2.2741738e-20)
(-0.0013336849 0.0011363393 4.814534e-21)
(-0.00026574861 0.00022328742 -4.304611e-20)
(0.0013478011 -0.00093275028 1.1446678e-20)
(0.0029722171 -0.0018923196 8.9848484e-21)
(0.0042005139 -0.0024270152 -6.2106185e-20)
(0.0048149951 -0.0025006792 8.1372549e-20)
(0.0050596096 -0.0023366902 2.4702499e-21)
(0.0051675384 -0.0020949626 1.7836303e-20)
(0.005217253 -0.0018270821 -2.116835e-20)
(0.005058993 -0.0014982692 6.7401446e-20)
(0.004475038 -0.001088276 -4.2751032e-21)
(0.003246208 -0.00062248882 1.7305796e-20)
(0.0011277887 -0.00016959236 -2.3859514e-21)
(-0.0020802493 0.00014513644 3.4378448e-21)
(-0.0065872492 0.00014139118 -2.1532139e-21)
(-0.01277006 -0.00042723738 4.0361673e-21)
(-0.020503914 -0.0019063632 -1.2486135e-22)
(-0.029104309 -0.0044779424 4.5863476e-20)
(-0.038059498 -0.0082210907 -1.7687583e-20)
(-0.04673009 -0.013079276 1.5964363e-20)
(-0.054635352 -0.018906851 -1.025613e-19)
(-0.061288908 -0.025438666 -1.653778e-20)
(-0.066416264 -0.032384469 1.4524558e-19)
(-0.06983138 -0.039424152 -1.2395582e-19)
(-0.071493251 -0.046254747 -2.3706865e-21)
(-0.071414819 -0.052569824 3.7926541e-20)
(-0.069756875 -0.058147087 -3.476503e-20)
(-0.06661522 -0.062708383 -6.895757e-21)
(-0.062240877 -0.066109285 -4.5071115e-21)
(-0.056901613 -0.068253865 -7.6017773e-21)
(-0.05077084 -0.068962584 -1.9224885e-21)
(-0.044153219 -0.068238119 5.7800897e-22)
(-0.037290213 -0.06604661 4.8914759e-20)
(-0.030438208 -0.062422216 -7.6002011e-20)
(-0.023837066 -0.057429856 -8.1811162e-20)
(-0.01770983 -0.051169678 -3.3382045e-20)
(-0.012258357 -0.043775412 -7.6788034e-20)
(-0.0076580755 -0.035408422 1.7171787e-20)
(-0.0040522712 -0.02625497 2.5025626e-20)
(-0.0015579746 -0.016536781 -3.8938621e-20)
(-0.00023749257 -0.0064327049 -5.2057444e-21)
(0.00016938954 0.005987392 -5.7223724e-22)
(0.00063891705 0.013489427 -3.5493201e-23)
(0.0015086464 0.020684385 -2.1751813e-21)
(0.0027408184 0.027310321 7.9521772e-21)
(0.0042687346 0.033113365 -6.1923973e-21)
(0.0059979325 0.037859235 -2.0957329e-20)
(0.0078075625 0.041351186 4.3885143e-21)
(0.0095646462 0.043441574 1.9074856e-20)
(0.011125714 0.044048473 -1.9520233e-20)
(0.012350424 0.043165739 4.6921221e-20)
(0.013116031 0.040873856 9.0259982e-22)
(0.013331313 0.037339961 -3.2144793e-20)
(0.012954496 0.032824128 -5.3920969e-20)
(0.011999412 0.027650433 4.4479903e-20)
(0.010547902 0.022199783 -4.7030195e-20)
(0.0087374578 0.016853068 -7.5319205e-20)
(0.0067417192 0.01195225 4.8774622e-20)
(0.004750304 0.0077601472 -7.7001357e-20)
(0.0029262813 0.0044162852 -1.0001398e-19)
(0.0013919 0.0019505852 6.3744418e-20)
(0.00019415932 0.00027169598 7.9953623e-20)
(-0.00067341679 -0.00077548584 7.0602874e-20)
(-0.0012631429 -0.0013601282 5.730086e-20)
(-0.0015886027 -0.0015846328 1.3386668e-20)
(-0.0015337633 -0.0014152128 2.2534456e-20)
(-0.00098152065 -0.00084197881 -4.7735057e-21)
(0.00027654989 0.00019493398 4.2747313e-20)
(0.0019291366 0.0013439671 -1.1390916e-20)
(0.0034377556 0.0021931518 -8.9592118e-21)
(0.0044420907 0.0025691791 6.1997813e-20)
(0.0048972237 0.0025445786 -8.1260943e-20)
(0.0050725196 0.0023429933 -2.4529968e-21)
(0.0051697075 0.0020960181 4.0561757e-20)
(0.0051795021 0.0018143806 2.1186937e-20)
(0.004923368 0.001459126 -6.7572208e-20)
(0.0041786338 0.0010179597 4.2940055e-21)
(0.0027309104 0.00052718714 1.2702258e-20)
(0.00033034254 6.4106665e-05 2.4061144e-21)
(-0.0032133602 -0.00023395748 -3.4724981e-21)
(-0.0080600512 -0.00017836636 2.1773838e-21)
(-0.014597232 0.00048452006 -4.0823116e-21)
(-0.022637426 0.0021016544 3.3263508e-20)
(-0.03141253 0.0048300536 -4.6224822e-20)
(-0.040421332 0.008728378 1.7767293e-20)
(-0.049035226 0.013722007 -1.5967629e-20)
(-0.056753463 0.019637361 1.0204199e-19)
(-0.063143651 0.026205344 1.6360413e-20)
(-0.067963511 0.033135798 -1.4271635e-19)
(-0.0710369 0.040101777 1.2086016e-19)
(-0.072365842 0.04681641 2.2895918e-21)
(-0.071952506 0.05296281 -3.6173719e-20)
(-0.070007675 0.058353425 3.2588865e-20)
(-0.066587298 0.062679094 -5.0543944e-20)
(-0.061974284 0.065823302 3.8553794e-21)
(-0.056461121 0.067722424 -6.9698024e-21)
(-0.050177846 0.068153705 4.2212274e-21)
(-0.043459675 0.067162473 -7.0097212e-22)
(-0.036536368 0.064707013 -5.4446969e-20)
(-0.029665031 0.06083126 8.1658736e-20)
(-0.023082692 0.055605614 8.6160937e-20)
(-0.017008597 0.049134548 3.4692413e-20)
(-0.011640926 0.04155753 7.902215e-20)
(-0.0071499846 0.033038437 -1.7533588e-20)
(-0.003674021 0.023768825 5.0342767e-20)
(-0.0013240963 0.013962727 3.9261666e-20)
(-0.00016099532 0.0038388197 5.2230035e-21)
)
;
    }
    frontAndBack
    {
        type            empty;
    }
}


// ************************************************************************* //
