/*--------------------------------*- C++ -*----------------------------------*\
  =========                 |
  \\      /  F ield         | OpenFOAM: The Open Source CFD Toolbox
   \\    /   O peration     | Website:  https://openfoam.org
    \\  /    A nd           | Version:  13
     \\/     M anipulation  |
\*---------------------------------------------------------------------------*/
FoamFile
{
    format      ascii;
    class       volVectorField;
    location    "10.702242";
    object      UMean;
}
// * * * * * * * * * * * * * * * * * * * * * * * * * * * * * * * * * * * * * //

dimensions      [0 1 -1 0 0 0 0];

internalField   nonuniform List<vector> 
17140
(
(-3.546216e-06 0.00015761581 -3.4727165e-22)
(-4.4080955e-05 0.00048491332 -2.9169403e-23)
(-0.00013123163 0.00084248074 1.9274636e-21)
(-0.00028330559 0.0012320692 -2.1198199e-21)
(-0.00051670832 0.0016554953 2.4794047e-22)
(-0.00085397464 0.0021142985 -8.1182407e-22)
(-0.0013227983 0.002609655 -1.3676696e-21)
(-0.0019566182 0.003142229 6.686512e-22)
(-0.0027956687 0.0037119953 2.1904414e-21)
(-0.0038880057 0.0043180312 5.3797147e-21)
(-0.0052905172 0.0049582777 -7.9923697e-21)
(-0.0070698758 0.0056292782 7.1379801e-21)
(-0.0093033484 0.0063259047 1.0947036e-21)
(-0.012079338 0.0070410868 -6.2171826e-21)
(-0.015497499 0.0077655825 6.9278883e-22)
(-0.019668246 0.008487823 -5.5156656e-21)
(-0.024711454 0.0091939061 2.0713656e-22)
(-0.030754178 0.0098677958 -4.5757926e-23)
(-0.037927288 0.01049182 -3.3233596e-21)
(-0.046361024 0.01104754 4.3449236e-21)
(-0.056179775 0.011517038 -2.1071277e-21)
(-0.067496623 0.0118846 4.071891e-22)
(-0.080408441 0.012138629 3.013705e-21)
(-0.094993359 0.012273495 -3.0232543e-21)
(-0.1113142 0.012290801 -4.8452958e-21)
(-0.1294187 0.012199627 3.9241384e-21)
(-0.14932814 0.012015052 1.9361716e-20)
(-0.17108992 0.011753045 2.2832249e-21)
(-0.19476581 0.011427748 -2.0239e-20)
(-0.22038519 0.011052131 -4.7443477e-21)
(-0.2479968 0.010634975 -1.7038663e-20)
(-0.27764937 0.010180825 2.2580191e-20)
(-0.30937486 0.0096911533 -5.8990747e-21)
(-0.34318529 0.0091650505 -2.8422438e-21)
(-0.3790619 0.0085998833 -2.7975711e-20)
(-0.41694221 0.0079912625 1.2366637e-20)
(-0.45670381 0.0073328726 -1.8645098e-20)
(-0.49814201 0.006616328 -1.2639152e-20)
(-0.54094069 0.0058307522 -5.7838523e-21)
(-0.5846355 0.0049635505 1.7577312e-20)
(-0.62857126 0.0040001553 3.3077009e-20)
(-0.67185678 0.0029264224 2.9912359e-20)
(-0.71331706 0.001730124 1.3007441e-20)
(-0.75147258 0.00040450783 -6.2662753e-20)
(-0.78454849 -0.0010466528 -4.5422843e-20)
(-0.8104938 -0.0025968973 1.1073845e-20)
(-0.8271988 -0.0042108489 -7.4542291e-20)
(-0.83248738 -0.0058524904 -2.5095718e-20)
(-0.82413339 -0.0074753076 2.5383975e-20)
(-0.80080878 -0.0090033853 6.179072e-20)
(-0.76128585 -0.010343151 -3.7949176e-20)
(-0.70481187 -0.011464829 -2.3976034e-20)
(-0.63089398 -0.012450644 6.2532523e-20)
(-0.53870373 -0.01322624 2.9678877e-20)
(-0.42959016 -0.013651942 2.1313015e-20)
(-0.30377786 -0.013734754 -1.6779083e-20)
(-0.16341076 -0.013427319 4.6009082e-20)
(-0.012059052 -0.012596909 3.8689203e-20)
(0.14444283 -0.011123039 9.7672457e-21)
(0.29735446 -0.0090296329 -2.5191621e-20)
(0.43840484 -0.0064599292 -1.9728915e-20)
(0.56007561 -0.0037251945 -7.2860767e-20)
(0.66065662 -0.0011933436 -1.0650354e-20)
(0.7392632 0.00095135237 8.9253226e-20)
(0.80132582 0.0024394918 -6.8843068e-20)
(-3.4686033e-05 0.00081083527 9.8620456e-23)
(-0.0001391114 0.0024950762 -1.0098974e-20)
(-0.00029526123 0.0043355359 8.989249e-21)
(-0.00052134042 0.0063420395 -2.4519113e-21)
(-0.00083384022 0.0085240386 -5.0667586e-21)
(-0.0012551751 0.010889717 9.6866369e-21)
(-0.0018127668 0.013445477 -1.0105733e-20)
(-0.002539599 0.016195202 8.9020411e-22)
(-0.0034752251 0.019139381 -2.7822414e-21)
(-0.0046667493 0.02227406 -4.6723782e-23)
(-0.0061697962 0.025589661 -9.3178672e-21)
(-0.0080494216 0.029069672 1.4839167e-20)
(-0.010380893 0.032689276 1.2285632e-21)
(-0.013250215 0.036414006 -1.2162546e-20)
(-0.016754247 0.040198586 3.7495473e-21)
(-0.021000256 0.043986186 2.3899396e-21)
(-0.026104692 0.047708373 -1.5217986e-20)
(-0.032191047 0.051286154 4.9815135e-20)
(-0.039386661 0.054632514 -3.1348859e-20)
(-0.047818528 0.05765684 3.7750441e-20)
(-0.057608329 0.060271483 -5.609474e-20)
(-0.068867232 0.062400278 1.383693e-20)
(-0.081691225 0.063988305 5.7411157e-21)
(-0.096158555 0.065011208 -1.8860156e-20)
(-0.11233287 0.065481575 6.8310459e-20)
(-0.13026447 0.065449805 1.022464e-20)
(-0.14997639 0.064995721 -5.3535565e-20)
(-0.171516 0.06420331 6.0368696e-20)
(-0.19494729 0.063146082 -8.413806e-21)
(-0.22030001 0.061890663 -8.2340904e-20)
(-0.24762085 0.060483127 8.6379517e-21)
(-0.27695714 0.058948169 6.6190443e-20)
(-0.30833829 0.057294762 1.6106066e-21)
(-0.34177298 0.055519976 -4.9931202e-20)
(-0.37723801 0.053611394 5.606352e-20)
(-0.41466521 0.05154693 -2.5334336e-20)
(-0.45392462 0.049293239 3.008111e-20)
(-0.49480201 0.046803885 9.5742898e-20)
(-0.536969 0.044017703 2.1417797e-20)
(-0.57994622 0.040858876 8.3922739e-20)
(-0.62305966 0.03723893 -1.0769185e-19)
(-0.66539445 0.033062689 -9.8654924e-20)
(-0.70574849 0.028239558 -1.669195e-20)
(-0.74260737 0.022699177 1.3408732e-19)
(-0.77414932 0.016414161 -6.2687466e-20)
(-0.79828932 0.0094264333 -2.1531415e-20)
(-0.81280877 0.0018345159 1.15953e-20)
(-0.81549983 -0.0062096341 3.5636793e-20)
(-0.80441105 -0.014412435 -1.7354039e-20)
(-0.77794586 -0.022491009 3.1237771e-20)
(-0.73494341 -0.030250179 1.8786383e-19)
(-0.67466402 -0.037551588 8.9941801e-21)
(-0.59676491 -0.044390006 -4.0663902e-20)
(-0.50125513 -0.050494294 9.0910979e-20)
(-0.38851535 -0.055695691 -7.8148847e-20)
(-0.2595089 -0.059872834 2.2366923e-19)
(-0.11643966 -0.062501955 6.4254793e-20)
(0.036863444 -0.062938541 -1.8294389e-19)
(0.19435173 -0.060401554 3.1123815e-20)
(0.34701574 -0.054619513 3.5765858e-20)
(0.48655216 -0.046181207 7.1849526e-21)
(0.60560828 -0.036438079 -9.5142155e-20)
(0.70286698 -0.026916616 1.8505519e-19)
(0.77780477 -0.018665684 5.5212979e-20)
(0.83600429 -0.012214061 9.1645049e-20)
(-0.00010144938 0.0014489216 5.4334613e-21)
(-0.00034271372 0.0044592443 -3.0446365e-21)
(-0.00064646153 0.0077495561 -8.0988951e-22)
(-0.0010306142 0.011337897 7.6840022e-22)
(-0.0015117894 0.015241491 -3.7246367e-21)
(-0.0021120623 0.019475411 -2.7669927e-22)
(-0.0028581726 0.02405165 -3.5431431e-21)
(-0.0037820143 0.028977826 -3.820762e-21)
(-0.0049215485 0.03425562 3.1274788e-20)
(-0.0063216895 0.039878931 -2.7965322e-20)
(-0.0080351816 0.045831761 1.3407592e-20)
(-0.010123428 0.052085875 1.9685359e-20)
(-0.012657202 0.058598318 -3.9143781e-20)
(-0.015717147 0.065308977 -4.8579277e-21)
(-0.019393905 0.072138427 1.8836779e-20)
(-0.023787762 0.07898647 1.300215e-20)
(-0.029007607 0.085731897 -1.5151353e-20)
(-0.035169075 0.092234139 5.5138268e-20)
(-0.042391766 0.09833757 -3.2796337e-20)
(-0.050795551 0.1038792 1.6315822e-20)
(-0.060496177 0.10870022 -5.5435008e-20)
(-0.071600629 0.11266122 -1.4527689e-20)
(-0.084202905 0.11565984 3.0554829e-20)
(-0.098381429 0.11764796 -4.6335201e-20)
(-0.11420148 0.11864389 -1.8354497e-20)
(-0.1317184 0.11873467 2.2317143e-20)
(-0.15095943 0.11806259 1.2751832e-19)
(-0.17197092 0.11678248 5.8041598e-20)
(-0.19482107 0.11502768 -2.9354227e-20)
(-0.21954101 0.11291883 3.1416919e-20)
(-0.24617162 0.11054209 -2.002909e-20)
(-0.27475686 0.10794427 -1.1343508e-19)
(-0.30532 0.10514266 3.8271531e-20)
(-0.33786176 0.10213248 1.1493565e-19)
(-0.3723486 0.098891132 -3.8904252e-20)
(-0.40869914 0.095378126 -5.4571056e-20)
(-0.44676632 0.09153235 9.5063147e-20)
(-0.48631408 0.087268242 2.9019095e-20)
(-0.52698645 0.082473017 -5.2238707e-20)
(-0.56826917 0.077005838 -2.1106898e-20)
(-0.60944456 0.070701818 1.0123506e-19)
(-0.64954355 0.063381608 -2.8980349e-20)
(-0.68729871 0.054871981 -4.1832305e-20)
(-0.7211211 0.045035848 -1.1117009e-19)
(-0.74910425 0.033813357 2.1140572e-19)
(-0.76909663 0.021270032 -1.3634314e-19)
(-0.77886645 0.0076132394 -3.4086778e-20)
(-0.77624631 -0.0068419676 -1.3558929e-19)
(-0.75932572 -0.021641894 -1.626727e-19)
(-0.72663743 -0.036284909 -8.27369e-21)
(-0.67727824 -0.050359748 3.495476e-20)
(-0.61081067 -0.063618771 -2.5893965e-19)
(-0.52716252 -0.075994259 -1.112187e-19)
(-0.42653329 -0.087246761 -1.1528809e-19)
(-0.30944965 -0.097036499 -3.8091776e-20)
(-0.17730365 -0.10495394 -2.9889912e-19)
(-0.032459307 -0.11017777 1.1945731e-19)
(0.12105515 -0.11150687 -3.6844061e-20)
(0.2769691 -0.10749211 -3.0421072e-19)
(0.42590075 -0.097602361 -1.214002e-19)
(0.55962042 -0.082966004 1.4494894e-19)
(0.67142032 -0.066027045 4.9863273e-19)
(0.76056297 -0.0495057 -1.5913904e-19)
(0.827251 -0.03525415 -2.558042e-19)
(0.8770227 -0.023891073 -1.0936596e-19)
(-0.00020149419 0.0020488331 -1.8141005e-20)
(-0.0006478136 0.006307054 2.1864804e-20)
(-0.0011727077 0.010963139 -7.9085569e-21)
(-0.0017936711 0.016043369 8.6024114e-22)
(-0.0025275047 0.021572858 -1.7012057e-20)
(-0.0033957659 0.027573913 1.7615828e-20)
(-0.0044241625 0.034064696 -2.6742157e-20)
(-0.0056429417 0.041057437 1.2599093e-20)
(-0.0070876621 0.048556246 4.7956749e-20)
(-0.0087999325 0.056554523 -1.1553692e-20)
(-0.010828151 0.065031975 -4.4083462e-20)
(-0.013228201 0.073951276 1.3494787e-20)
(-0.016064063 0.083254494 9.0703435e-22)
(-0.019408251 0.09285951 -3.5540586e-20)
(-0.023341964 0.10265678 1.1168149e-19)
(-0.027954848 0.11250697 -6.8915513e-20)
(-0.033344221 0.12224024 -6.6002896e-22)
(-0.039613624 0.13165804 3.8600287e-20)
(-0.046870645 0.14053871 -9.877431e-20)
(-0.055223983 0.14864778 4.7029212e-20)
(-0.064779919 0.15575391 7.0807287e-20)
(-0.075638537 0.16165043 2.8943619e-20)
(-0.087890216 0.16618072 -1.4491032e-19)
(-0.10161315 0.16926382 -7.6575459e-20)
(-0.11687476 0.1709136 5.0196167e-20)
(-0.13373682 0.17124411 -2.955552e-20)
(-0.15223441 0.17045433 1.1234167e-19)
(-0.17241247 0.16877397 -3.2625611e-20)
(-0.19434334 0.16639634 8.9039226e-20)
(-0.2180619 0.16349519 -5.0971586e-20)
(-0.24360018 0.1602016 3.1769422e-20)
(-0.27099655 0.1565881 -1.18113e-19)
(-0.30026508 0.15268196 1.7202882e-20)
(-0.3313943 0.14847689 -9.120198e-20)
(-0.36433501 0.1439396 8.8278451e-20)
(-0.39898578 0.13901039 2.8233544e-20)
(-0.43517409 0.13359915 -3.5872894e-19)
(-0.47263164 0.12757989 -9.4098796e-20)
(-0.51096201 0.12078633 7.876685e-20)
(-0.54960078 0.11301071 -7.7850225e-20)
(-0.58776897 0.10400914 1.9932662e-20)
(-0.62442455 0.09351687 1.2653376e-19)
(-0.6582186 0.081277919 -5.9778857e-21)
(-0.68747607 0.067092032 -4.2291969e-20)
(-0.7102124 0.050878006 2.0835479e-20)
(-0.72425784 0.032748819 -9.7826757e-21)
(-0.72741289 0.01302701 -2.9470772e-20)
(-0.71762643 -0.007799451 4.6039018e-19)
(-0.69321393 -0.029042971 -5.1302744e-20)
(-0.65304035 -0.049971754 4.769518e-20)
(-0.59655784 -0.070001265 -4.4979318e-19)
(-0.52365553 -0.088802194 2.4801882e-19)
(-0.43450111 -0.10627114 2.0469748e-19)
(-0.32950263 -0.12214346 1.9695303e-19)
(-0.20947637 -0.13599599 1.9128349e-19)
(-0.076100341 -0.14721227 3.03043e-19)
(0.068037035 -0.15464798 -6.0990189e-19)
(0.21869777 -0.15656057 3.7840271e-19)
(0.36937543 -0.15076759 5.7853584e-19)
(0.51021237 -0.13650767 -4.2570651e-19)
(0.63328695 -0.11563773 -1.3636863e-19)
(0.7331304 -0.091705478 -1.1921215e-19)
(0.80983068 -0.068592041 6.0384092e-19)
(0.86478318 -0.048782885 4.4272459e-19)
(0.90350519 -0.033150183 -1.9349902e-20)
(-0.00032991123 0.0025877595 1.2722549e-20)
(-0.0010395374 0.0079687063 -3.1955026e-20)
(-0.0018484631 0.013855618 2.6062496e-20)
(-0.0027736787 0.020282952 -9.8543825e-21)
(-0.0038322497 0.027283787 -3.5621518e-21)
(-0.0050451106 0.034888039 3.0679515e-20)
(-0.0064366907 0.043120772 -7.7806145e-21)
(-0.0080351774 0.052000001 -1.6539911e-20)
(-0.0098731022 0.061533964 -1.2717813e-21)
(-0.011987889 0.071717905 -1.0821069e-20)
(-0.014422411 0.082530292 1.5189059e-20)
(-0.017225502 0.093928564 -1.0590436e-20)
(-0.02045243 0.1058445 -3.9159651e-20)
(-0.024165226 0.11817951 -1.1402337e-21)
(-0.028432848 0.13080011 3.0230654e-20)
(-0.03333105 0.14353452 2.1543247e-20)
(-0.038941905 0.15617095 -1.8667114e-20)
(-0.045352859 0.16845909 1.814535e-21)
(-0.052655292 0.18011603 3.7059952e-20)
(-0.060942539 0.19083841 4.5605568e-20)
(-0.070307492 0.20032169 -5.2647769e-20)
(-0.080839995 0.20828722 -5.3626514e-20)
(-0.092624366 0.21451505 7.3092696e-20)
(-0.10573741 0.21887846 -9.1595721e-20)
(-0.12024873 0.2213717 -1.60647e-19)
(-0.13622567 0.22212102 3.8356481e-19)
(-0.15371782 0.22137091 -2.1367218e-19)
(-0.17276757 0.21942565 3.1973093e-19)
(-0.19344708 0.21654324 -4.0349664e-19)
(-0.2158026 0.21294933 4.5443007e-19)
(-0.23985442 0.20882546 -4.73812e-19)
(-0.26563261 0.20427548 8.0553114e-20)
(-0.29313994 0.19933933 2.7947355e-19)
(-0.32234904 0.19401015 -1.5875331e-19)
(-0.35319073 0.18824375 5.0024927e-20)
(-0.38553822 0.18196026 1.4849396e-20)
(-0.41918725 0.17503939 1.8208482e-19)
(-0.45382987 0.16731331 5.9447668e-20)
(-0.48902088 0.15856065 5.987451e-20)
(-0.52413698 0.14850493 6.0044127e-20)
(-0.55832995 0.1368222 -3.0711465e-19)
(-0.59047941 0.12316149 1.3512945e-19)
(-0.61915474 0.10718606 2.1070099e-20)
(-0.64260732 0.088639938 -2.4782766e-19)
(-0.65881742 0.067440595 -1.2512511e-19)
(-0.66567092 0.04377794 6.1875947e-20)
(-0.66110493 0.018119001 2.2249263e-19)
(-0.64332599 -0.0088516529 -9.7351386e-20)
(-0.61097745 -0.036214644 2.8149733e-19)
(-0.56326621 -0.063009744 1.5310087e-19)
(-0.49994594 -0.088497823 2.1240586e-19)
(-0.42115535 -0.1123127 5.7004854e-19)
(-0.32722929 -0.134367 -4.4385523e-19)
(-0.21876072 -0.15438233 1.4430574e-19)
(-0.096915009 -0.17180053 -2.5276173e-19)
(0.036193103 -0.18581338 -2.4171813e-19)
(0.17758461 -0.19502671 -9.4936775e-20)
(0.32272702 -0.19716845 -8.7896355e-19)
(0.46481798 -0.18926692 -2.3844694e-19)
(0.59356772 -0.17043176 5.4740391e-19)
(0.70200133 -0.14345261 2.0693015e-19)
(0.78620071 -0.11299281 -1.5517456e-19)
(0.84777358 -0.083993091 -3.2041518e-19)
(0.88954807 -0.059420642 -4.9729984e-19)
(0.91758765 -0.040449755 3.7835009e-20)
(-0.00047923446 0.0030439757 3.8576914e-20)
(-0.0014952295 0.0093776419 1.0283134e-20)
(-0.0026347866 0.016311769 -8.3325107e-21)
(-0.003914396 0.023888775 -3.077979e-20)
(-0.0053514946 0.032149673 1.6875189e-20)
(-0.0069663817 0.041132331 -2.4311466e-20)
(-0.0087821014 0.050869502 1.0531158e-20)
(-0.010824561 0.061386328 2.5116019e-21)
(-0.013122901 0.072697218 -1.4242238e-20)
(-0.015709816 0.084802107 -3.076124e-20)
(-0.01862188 0.097682044 -1.5450068e-21)
(-0.021899846 0.11129413 5.08851e-20)
(-0.02558891 0.1255659 -7.0683171e-20)
(-0.02973891 0.14038947 1.1472564e-19)
(-0.034404419 0.15561576 -3.0167853e-20)
(-0.039644712 0.17104959 6.455321e-20)
(-0.045523558 0.18644669 -7.8738887e-20)
(-0.052108785 0.20151399 5.1649979e-20)
(-0.059471638 0.21591504 -8.2612232e-21)
(-0.067685892 0.22928254 -3.3930746e-20)
(-0.076826777 0.24123975 8.363688e-20)
(-0.086969841 0.25143166 -1.1988665e-19)
(-0.098189851 0.2595647 1.3249188e-19)
(-0.11055979 0.26545018 2.3076529e-20)
(-0.12415049 0.26904255 -2.3096704e-19)
(-0.13903327 0.27045945 2.3726413e-19)
(-0.15527547 0.26997193 -1.5677673e-19)
(-0.17291973 0.26794846 1.7840542e-19)
(-0.19203387 0.26472932 1.6985767e-20)
(-0.21268102 0.26058714 1.0679617e-20)
(-0.23487215 0.25575737 -7.3610071e-20)
(-0.25862373 0.25038434 4.8128524e-21)
(-0.28392639 0.2445254 -2.8276188e-19)
(-0.31073397 0.23817533 7.7432449e-20)
(-0.33895407 0.23127926 2.3284322e-19)
(-0.36843094 0.22373656 -1.0962778e-19)
(-0.39892443 0.21539582 9.0925018e-20)
(-0.43008249 0.20604633 -9.1661472e-20)
(-0.4614073 0.19541086 -5.1389234e-19)
(-0.49221429 0.18314388 2.8560344e-19)
(-0.52158594 0.1688411 7.0059707e-20)
(-0.54832908 0.15206701 -3.980983e-19)
(-0.57094894 0.13241048 2.3522276e-20)
(-0.58766188 0.10957491 4.8995504e-20)
(-0.59649003 0.083503832 5.2608001e-19)
(-0.59547972 0.054491594 1.21426e-19)
(-0.58283208 0.02316384 -1.9003608e-19)
(-0.55709416 -0.0095949912 -1.9354938e-19)
(-0.51720988 -0.042658464 -2.7427721e-19)
(-0.46256972 -0.074867554 -3.3807058e-19)
(-0.39306505 -0.10534212 -2.0654158e-19)
(-0.30899753 -0.13368174 -3.2312244e-19)
(-0.21085035 -0.15981063 1.1127183e-19)
(-0.099474656 -0.18340189 -6.9038814e-19)
(0.023455223 -0.20375678 -4.6729802e-20)
(0.1551849 -0.21991771 -4.0492282e-20)
(0.29218888 -0.23031577 -2.2350984e-20)
(0.42950245 -0.23223233 9.4797519e-19)
(0.55987638 -0.22191557 3.7441671e-19)
(0.67312353 -0.1984381 -5.7975766e-19)
(0.76382723 -0.16573611 -8.346365e-19)
(0.8301032 -0.12955018 -3.7388838e-19)
(0.87570788 -0.095742298 -1.2137641e-19)
(0.90491393 -0.067546854 7.0767649e-19)
(0.92430581 -0.046294483 -1.7772189e-19)
(-0.00063960588 0.0033985304 -7.2466359e-21)
(-0.0019854138 0.010475489 -1.7364851e-20)
(-0.0034807231 0.018230288 4.193503e-20)
(-0.0051421889 0.026712778 -1.5613155e-21)
(-0.0069875284 0.035971718 -2.0450268e-20)
(-0.0090365103 0.046053129 -9.0227341e-21)
(-0.011310851 0.056998156 -6.6708619e-21)
(-0.013834188 0.068840411 1.3168021e-20)
(-0.016632207 0.081602615 -6.8307031e-20)
(-0.019732728 0.095292515 5.1681067e-20)
(-0.023165765 0.10989801 -2.5053556e-21)
(-0.026963564 0.12538144 -3.1493344e-20)
(-0.031160621 0.14167317 1.1838164e-19)
(-0.035793676 0.1586646 -1.1865811e-19)
(-0.040901682 0.1762011 1.5923225e-20)
(-0.04652577 0.19407547 9.9268641e-20)
(-0.052709235 0.21202308 -9.4243038e-20)
(-0.059497543 0.22972029 3.3320174e-20)
(-0.066938436 0.24678812 -6.5515305e-20)
(-0.07508215 0.26280375 8.5265816e-20)
(-0.083981777 0.27732209 1.6253758e-19)
(-0.093693819 0.28990943 -1.6354013e-19)
(-0.1042788 0.30018835 -2.4349882e-19)
(-0.11580178 0.30789003 4.7755628e-19)
(-0.12833221 0.31290417 -3.8906759e-19)
(-0.14194416 0.31531173 2.2915778e-19)
(-0.15671714 0.31538366 -5.9950913e-20)
(-0.1727091 0.31353325 1.4332058e-19)
(-0.18997678 0.31019743 -1.4858788e-19)
(-0.20859367 0.30570583 -2.0208751e-19)
(-0.22858085 0.30033805 1.358453e-19)
(-0.24992965 0.29429164 2.2657467e-19)
(-0.27261917 0.2876509 -2.0211285e-20)
(-0.29658262 0.28041638 -8.4937711e-21)
(-0.32170211 0.27252415 -1.4938106e-19)
(-0.34779045 0.26385276 6.5136399e-20)
(-0.37456909 0.25421933 2.4009351e-19)
(-0.40164024 0.24337022 1.2129924e-19)
(-0.42845305 0.23097276 -1.8685868e-19)
(-0.45426335 0.21661318 1.484478e-19)
(-0.47809076 0.19980896 -1.2633572e-19)
(-0.49868537 0.18004598 4.251433e-20)
(-0.51452135 0.15685093 1.6160516e-19)
(-0.52384082 0.12990993 -3.870961e-19)
(-0.5248087 0.099224142 -2.3008777e-19)
(-0.51574146 0.065215423 -1.4925566e-19)
(-0.49520743 0.028654045 4.6829429e-19)
(-0.46207534 -0.0094302353 3.0284677e-19)
(-0.41540803 -0.047776437 3.5455544e-19)
(-0.3545481 -0.085032285 6.1808403e-19)
(-0.27946194 -0.12012706 -2.139755e-19)
(-0.19062805 -0.15259301 4.4922281e-20)
(-0.088723966 -0.18235681 3.6004746e-19)
(0.025023702 -0.20899548 1.0638928e-18)
(0.14827125 -0.23162463 7.077289e-19)
(0.27746374 -0.24919807 2.8161859e-19)
(0.40850416 -0.26007229 8.3044276e-19)
(0.53586001 -0.26114875 -5.6913537e-19)
(0.65168403 -0.24804338 6.0098855e-20)
(0.74677438 -0.22003164 9.3647212e-19)
(0.81767522 -0.18228854 6.3661907e-19)
(0.86531337 -0.14149596 2.9226638e-20)
(0.89582945 -0.10420249 -1.0169923e-18)
(0.91452496 -0.073634949 1.079448e-19)
(0.92799269 -0.051047407 -1.5294999e-19)
(-0.00079956429 0.003636353 -2.8447041e-20)
(-0.0024748965 0.011215648 1.4441337e-20)
(-0.0043257726 0.01952987 -1.951867e-20)
(-0.006369397 0.028635531 -1.1101073e-20)
(-0.0086238116 0.038588687 3.1006636e-20)
(-0.011108432 0.049443446 2.8976059e-20)
(-0.013843851 0.061249796 -2.9775085e-20)
(-0.016851664 0.074050954 3.5879939e-21)
(-0.020154368 0.087879937 8.3271316e-22)
(-0.023775185 0.10275535 5.9348502e-20)
(-0.027737853 0.11867629 -6.533389e-21)
(-0.032066375 0.13561616 -1.2053794e-19)
(-0.03678474 0.15351571 9.6837295e-20)
(-0.041916651 0.17227509 -3.3596208e-21)
(-0.047485279 0.19174545 -6.5743696e-20)
(-0.053513118 0.21172076 -5.7072285e-21)
(-0.060022004 0.23193068 1.4657318e-20)
(-0.067033418 0.25203637 6.6810141e-20)
(-0.074569163 0.27163122 -1.2398028e-19)
(-0.082652547 0.29024956 2.2114995e-19)
(-0.091310207 0.30738638 -4.848406e-20)
(-0.10057435 0.32253075 3.6194224e-20)
(-0.11048547 0.33521387 -3.034044e-20)
(-0.1210948 0.34506862 1.2630963e-21)
(-0.13246565 0.35189186 -1.8620564e-19)
(-0.14467271 0.35569308 -1.8889421e-19)
(-0.15780001 0.35670909 3.8004544e-19)
(-0.17193064 0.35536747 6.4201023e-20)
(-0.18711734 0.3521854 -2.2680311e-19)
(-0.20342409 0.34759906 -8.1614361e-20)
(-0.22089666 0.34191582 -1.866467e-19)
(-0.23951126 0.33538482 2.1298421e-19)
(-0.25922568 0.32813773 9.4075194e-20)
(-0.27995275 0.32018865 -2.2057322e-19)
(-0.30154686 0.31146756 9.3560519e-20)
(-0.32378805 0.30183335 4.4549804e-20)
(-0.34635832 0.29107231 -1.3258332e-19)
(-0.36881411 0.27888935 -3.4925627e-19)
(-0.3905527 0.26489812 -1.0675552e-19)
(-0.41077432 0.2486197 7.1591471e-20)
(-0.42844641 0.22949972 1.7069233e-19)
(-0.44228488 0.20695689 1.7694489e-19)
(-0.45077401 0.18047611 1.9600361e-19)
(-0.45225058 0.14975652 4.1096091e-19)
(-0.44511586 0.11488909 -1.1614267e-20)
(-0.42802236 0.07642869 1.7256679e-19)
(-0.39991435 0.035234469 -9.3607022e-19)
(-0.35983824 -0.0076275662 -2.5882486e-19)
(-0.30673988 -0.050833717 -2.9500621e-19)
(-0.23994017 -0.09279792 -8.1795205e-19)
(-0.15963623 -0.13217918 9.5820607e-19)
(-0.066552042 -0.16842641 -2.1470162e-19)
(0.038397091 -0.20143556 -6.9446792e-19)
(0.15350741 -0.23062436 -8.6028822e-19)
(0.27568679 -0.25489462 -1.1021822e-19)
(0.40058862 -0.2731827 2.8155297e-19)
(0.52374122 -0.28383285 4.5827346e-19)
(0.63899757 -0.28342495 -1.9590031e-19)
(0.73795326 -0.26730798 3.5426696e-19)
(0.81287721 -0.23512827 -2.9397703e-19)
(0.86310683 -0.19322353 -9.9277977e-20)
(0.89291046 -0.14922853 -2.9177236e-19)
(0.91050603 -0.10990839 1.2697524e-18)
(0.92140369 -0.078201929 4.2020156e-20)
(0.931393 -0.055038531 5.0091933e-19)
(-0.00094661599 0.0037477223 2.656303e-20)
(-0.00292528 0.011567808 5.3444139e-21)
(-0.0051038209 0.020157111 -5.8757596e-21)
(-0.0075000752 0.029577756 -2.8896905e-20)
(-0.010132554 0.039892285 3.4682396e-20)
(-0.013020543 0.051162432 -2.947865e-20)
(-0.016183822 0.063447065 -1.4103945e-20)
(-0.019642375 0.076799686 7.5769261e-22)
(-0.023416053 0.091265128 1.1945642e-20)
(-0.027524165 0.10687545 6.8076421e-20)
(-0.031984991 0.12364481 -1.1460141e-19)
(-0.036815235 0.14156324 1.3813329e-19)
(-0.042029421 0.16058926 -4.0723805e-20)
(-0.047639299 0.18064129 -5.5526065e-20)
(-0.053653289 0.20158825 8.5647268e-20)
(-0.060076084 0.22323955 -1.6998351e-19)
(-0.066908534 0.24533576 2.0770057e-19)
(-0.074147964 0.26754106 3.2936775e-21)
(-0.08178918 0.28944014 1.2155804e-19)
(-0.089826339 0.3105424 -4.8885998e-19)
(-0.098255894 0.33029728 1.2013805e-19)
(-0.1070806 0.34812458 5.0503959e-19)
(-0.11631434 0.36346218 -2.4294053e-19)
(-0.12598707 0.37583027 -2.9502645e-19)
(-0.13614855 0.38490473 7.5568965e-20)
(-0.14686887 0.39058405 4.022967e-19)
(-0.15823443 0.39302629 -6.2011056e-19)
(-0.17033881 0.39263192 6.984938e-19)
(-0.18326124 0.38995773 -5.578329e-19)
(-0.19704594 0.38556117 1.0823548e-19)
(-0.21173753 0.37984427 -1.8785734e-19)
(-0.22733515 0.37307603 -2.7038788e-19)
(-0.24376595 0.36543373 1.0770496e-19)
(-0.26092322 0.35696779 2.8119095e-20)
(-0.27863195 0.34761347 4.0611226e-19)
(-0.29663626 0.3372136 -7.9564962e-20)
(-0.31457814 0.32552528 2.0573448e-19)
(-0.33196835 0.31221369 -1.7566335e-19)
(-0.34815388 0.29684238 1.0450396e-19)
(-0.36228444 0.27887359 6.8637896e-20)
(-0.37328702 0.2576919 5.9198704e-20)
(-0.37986643 0.2326667 5.8690762e-20)
(-0.38055556 0.20326856 -3.5903343e-19)
(-0.37384009 0.16924452 -2.8315009e-19)
(-0.35839825 0.1307979 7.9401577e-20)
(-0.33320697 0.088594108 -5.0731354e-20)
(-0.29747769 0.04349977 2.0982793e-19)
(-0.25024675 -0.0035053265 -4.1682002e-19)
(-0.19039693 -0.051048225 -4.8472101e-19)
(-0.11761339 -0.097251654 -1.4090967e-19)
(-0.032518343 -0.14050459 -3.7052602e-19)
(0.063943979 -0.18015587 1.1921891e-20)
(0.17066229 -0.2160375 1.8086497e-19)
(0.2853761 -0.24736877 8.8596755e-19)
(0.40427328 -0.27281547 -4.4642259e-19)
(0.52253289 -0.29136788 1.8222328e-19)
(0.63560039 -0.30136383 -5.3467233e-19)
(0.73660436 -0.29901807 9.0343917e-19)
(0.81668249 -0.27972645 -5.1907481e-19)
(0.87030622 -0.24376099 1.7897895e-19)
(0.90035188 -0.19902294 -8.7316106e-22)
(0.91436268 -0.15338708 1.3935507e-19)
(0.92194169 -0.11345316 5.1627841e-19)
(0.92768718 -0.08163407 -9.6919563e-19)
(0.93585417 -0.058410773 9.8358339e-19)
(-0.0010681763 0.0037294689 -5.9015896e-20)
(-0.0032980383 0.011521541 -3.0439776e-20)
(-0.0057482965 0.020092766 4.781603e-20)
(-0.0084374412 0.029509498 -1.2595504e-21)
(-0.011384553 0.039839529 -4.3306314e-20)
(-0.014609012 0.051151275 -2.2670269e-20)
(-0.018130163 0.06351193 4.7857042e-20)
(-0.021966925 0.076985273 -7.8710296e-21)
(-0.026137264 0.09162869 1.1125342e-19)
(-0.030657577 0.10748939 -2.1746476e-20)
(-0.035541949 0.12459958 -5.5866606e-22)
(-0.040801328 0.14297041 8.060696e-20)
(-0.046442593 0.16258464 -2.5969039e-19)
(-0.052467598 0.18338775 1.2178742e-19)
(-0.058872239 0.20527785 2.1988992e-19)
(-0.065645659 0.22809426 -2.3650143e-19)
(-0.072769784 0.25160588 2.9422019e-20)
(-0.08021939 0.27550036 -1.6930193e-19)
(-0.08796302 0.29937626 -1.2758782e-19)
(-0.095965123 0.32274137 4.0794735e-19)
(-0.10418964 0.34502129 -3.1183843e-19)
(-0.11260545 0.36558323 4.1847999e-19)
(-0.12119321 0.38377922 -5.020395e-20)
(-0.12995307 0.39901048 2.0928625e-19)
(-0.13891153 0.41080866 -4.6449762e-19)
(-0.14812492 0.41892046 1.122243e-19)
(-0.15767649 0.42337168 2.8856663e-19)
(-0.1676652 0.42448006 -7.0951053e-19)
(-0.1781857 0.42279302 3.1319553e-19)
(-0.18930363 0.41894708 3.4177643e-19)
(-0.20103956 0.41348846 -2.8619826e-19)
(-0.21338803 0.40676891 -3.8521753e-20)
(-0.22629216 0.39899968 1.9648934e-19)
(-0.23961158 0.39025853 -1.0981513e-19)
(-0.25314188 0.38049574 1.7019792e-19)
(-0.26659309 0.36955195 -6.0408112e-19)
(-0.27956574 0.35716227 3.2021296e-19)
(-0.29152364 0.34295699 1.944219e-19)
(-0.30176401 0.32645505 4.0224087e-19)
(-0.30939061 0.30706931 5.406138e-20)
(-0.31330092 0.28413794 -4.3569169e-19)
(-0.31220801 0.25700274 1.7606366e-19)
(-0.30471998 0.22514829 2.6041197e-19)
(-0.28949641 0.18839638 4.0342347e-20)
(-0.26546592 0.14706893 -2.5419837e-19)
(-0.23184984 0.10190731 -2.2324591e-19)
(-0.18798993 0.053704262 6.7822298e-19)
(-0.13290846 0.0033142337 3.5889478e-19)
(-0.06589142 -0.047810908 7.7948246e-19)
(0.012656346 -0.097523406 2.7410927e-19)
(0.1016848 -0.14403375 1.067313e-19)
(0.20015033 -0.18664463 7.9470586e-19)
(0.30675569 -0.22506985 3.1430362e-19)
(0.41873867 -0.25821827 -1.0624456e-18)
(0.53168588 -0.28455413 8.5692881e-19)
(0.64090623 -0.30312013 -7.8993389e-19)
(0.74176637 -0.31213049 3.797622e-19)
(0.82645668 -0.30748992 -1.8315598e-18)
(0.88616089 -0.28506115 -9.1132335e-19)
(0.91841753 -0.24654281 3.647061e-19)
(0.9300893 -0.20038185 5.6377001e-19)
(0.9312829 -0.15468018 9.313517e-19)
(0.93190803 -0.11536246 1.6164947e-19)
(0.93455258 -0.084194557 1.2578561e-19)
(0.94164934 -0.061238083 -1.3143762e-18)
(-0.0011528729 0.0035859981 -1.0649754e-21)
(-0.0035582573 0.01108951 5.6728792e-20)
(-0.0061987169 0.019357397 -6.6914814e-20)
(-0.0090933216 0.028458509 -3.2224591e-20)
(-0.012261732 0.038464219 6.4598333e-20)
(-0.015723597 0.049448116 2.0946103e-20)
(-0.019498175 0.06148446 -1.0172093e-19)
(-0.023603902 0.07464643 1.0964533e-19)
(-0.028057712 0.089003641 2.3177271e-20)
(-0.032874263 0.1046189 9.2429582e-20)
(-0.038064994 0.12154394 -2.4618918e-19)
(-0.043637055 0.1398139 -3.0122316e-21)
(-0.049592085 0.15944044 2.2293126e-19)
(-0.055924887 0.18040303 -2.4062348e-19)
(-0.062622078 0.20263865 1.7340513e-19)
(-0.069660803 0.22602958 6.4810641e-20)
(-0.077007727 0.25038995 -1.3669155e-19)
(-0.084618563 0.27545178 1.2473001e-19)
(-0.092438498 0.30085239 1.6818295e-19)
(-0.10040396 0.326126 -3.6288748e-21)
(-0.1084464 0.35070379 -2.7343296e-19)
(-0.11649818 0.37392783 1.720175e-19)
(-0.12450119 0.39508508 -9.7615901e-20)
(-0.13241697 0.41346558 -4.8109856e-19)
(-0.14023727 0.42844525 -1.6383216e-19)
(-0.1479919 0.43958413 4.5348891e-19)
(-0.15574966 0.44671826 -4.6117616e-20)
(-0.16360864 0.45001185 5.3005068e-19)
(-0.17167434 0.44993496 -3.1898986e-19)
(-0.18002953 0.44714653 1.7112281e-19)
(-0.18870811 0.44231148 -2.5195792e-19)
(-0.19769312 0.43593871 -6.2311948e-20)
(-0.20690525 0.42831526 3.1819512e-19)
(-0.21619254 0.41955677 -3.3285572e-19)
(-0.22533081 0.40963776 -4.9452824e-19)
(-0.23399476 0.39839899 5.0124194e-20)
(-0.24174227 0.38555814 5.4899775e-19)
(-0.24799045 0.370717 -7.1150562e-19)
(-0.25198743 0.35335919 1.5546284e-19)
(-0.25279561 0.33286071 -3.3582251e-19)
(-0.24929333 0.30853098 5.2419277e-20)
(-0.24021929 0.27970632 -5.3283944e-19)
(-0.22427399 0.24590761 -2.5680004e-19)
(-0.20028959 0.20704268 -3.2050327e-19)
(-0.16737593 0.16354301 1.2957812e-18)
(-0.12492724 0.11618476 4.2389233e-19)
(-0.072383102 0.065675273 -5.6518007e-19)
(-0.0090469711 0.012788791 4.6075217e-19)
(0.064941396 -0.040937165 3.8648714e-19)
(0.14843522 -0.093228602 -4.3737204e-19)
(0.24009208 -0.14229169 -2.2962743e-19)
(0.33886756 -0.18744253 -5.4081099e-19)
(0.44331949 -0.22810821 -2.6342523e-19)
(0.55023694 -0.26281873 9.0209439e-19)
(0.65495321 -0.28994755 5.0808432e-19)
(0.75324588 -0.30853938 8.1858087e-20)
(0.84021895 -0.31653221 -3.2494811e-21)
(0.90695443 -0.30963754 4.5372397e-19)
(0.94538639 -0.2848017 -6.4907186e-19)
(0.95711327 -0.24449393 -8.316998e-19)
(0.9533615 -0.1982281 -2.3044551e-19)
(0.94529291 -0.15382628 -1.7236115e-18)
(0.94162754 -0.11603917 -1.3495048e-18)
(0.94239655 -0.086000053 -3.4048295e-19)
(0.94849983 -0.063503397 -1.796441e-19)
(-0.0011919051 0.0033297603 3.6073841e-20)
(-0.0036787897 0.010309039 2.3872744e-20)
(-0.0064078605 0.018014236 -4.9672829e-20)
(-0.0093985695 0.026514675 8.5186533e-20)
(-0.012671036 0.035883235 2.1339864e-20)
(-0.016245222 0.046196602 -9.1523211e-20)
(-0.020140551 0.05753409 4.6839619e-22)
(-0.024375465 0.069976422 -5.4905647e-20)
(-0.02896666 0.083603871 1.6412656e-20)
(-0.033928219 0.098493733 -3.682275e-22)
(-0.03927054 0.11471686 8.9789423e-20)