/*--------------------------------*- C++ -*----------------------------------*\
  =========                 |
  \\      /  F ield         | OpenFOAM: The Open Source CFD Toolbox
   \\    /   O peration     | Website:  https://openfoam.org
    \\  /    A nd           | Version:  13
     \\/     M anipulation  |
\*---------------------------------------------------------------------------*/
FoamFile
{
    format      ascii;
    class       volScalarField;
    location    "7.003281";
    object      yPlus;
}
// * * * * * * * * * * * * * * * * * * * * * * * * * * * * * * * * * * * * * //

dimensions      [];

internalField   uniform 0;

boundaryField
{
    inlet
    {
        type            calculated;
        value           uniform 0;
    }
    outlet
    {
        type            calculated;
        value           uniform 0;
    }
    cylinder
    {
        type            calculated;
        value           nonuniform List<scalar> 
132
(
5.0162148e-07
4.9877509e-07
4.9196062e-07
4.8100718e-07
4.6589387e-07
4.4676086e-07
4.2383001e-07
3.9741659e-07
3.6799004e-07
3.3608742e-07
3.0237017e-07
2.6759308e-07
2.3259914e-07
1.9828744e-07
1.6556549e-07
1.3529371e-07
1.0817545e-07
8.4693226e-08
6.5036423e-08
4.9111591e-08
3.6566002e-08
2.6956728e-08
1.9897956e-08
1.5382851e-08
1.362992e-08
1.4223232e-08
1.5726295e-08
1.6176186e-08
1.4829276e-08
1.1963477e-08
8.7817895e-09
6.1422096e-09
4.5504094e-09
4.2787283e-09
4.9011392e-09
6.0508544e-09
7.5852468e-09
9.5406115e-09
1.1969695e-08
1.49348e-08
1.8586908e-08
2.3047062e-08
2.7939365e-08
3.3176711e-08
3.8602042e-08
4.4074753e-08
4.947526e-08
5.4713888e-08
5.9730075e-08
6.4484362e-08
6.8952837e-08
7.3127781e-08
7.6997733e-08
8.0555444e-08
8.3852731e-08
8.6840213e-08
8.953663e-08
9.1963201e-08
9.4116574e-08
9.6005365e-08
9.7600121e-08
9.8939078e-08
1.0001015e-07
1.0082227e-07
1.0138023e-07
1.0167072e-07
5.0047792e-07
4.953472e-07
4.8627402e-07
4.7313372e-07
4.5596071e-07
4.3502692e-07
4.1051193e-07
3.8280332e-07
3.5239067e-07
3.1985257e-07
2.8586803e-07
2.51212e-07
2.1673266e-07
1.8331451e-07
1.5184656e-07
1.2310328e-07
9.7695771e-08
7.5979965e-08
5.8025681e-08
4.3632468e-08
3.239823e-08
2.3889263e-08
1.7829347e-08
1.4403683e-08
1.3631224e-08
1.478714e-08
1.6167495e-08
1.6032056e-08
1.400108e-08
1.090226e-08
7.8316684e-09
5.4931691e-09
4.3263976e-09
4.3950297e-09
5.2014456e-09
6.4665878e-09
8.10918e-09
1.0186538e-08
1.274621e-08
1.5852142e-08
1.9646945e-08
2.424128e-08
2.9232807e-08
3.4532866e-08
3.9979543e-08
4.5446522e-08
5.0819632e-08
5.6006397e-08
6.0962926e-08
6.5646435e-08
7.0040884e-08
7.4141349e-08
7.7935296e-08
8.1409765e-08
8.4648499e-08
8.7550462e-08
9.0188462e-08
9.2538141e-08
9.4629551e-08
9.6439785e-08
9.7969787e-08
9.9235506e-08
1.0024251e-07
1.009858e-07
1.0146889e-07
1.0169427e-07
)
;
    }
    frontAndBack
    {
        type            empty;
    }
}


// ************************************************************************* //
