/*--------------------------------*- C++ -*----------------------------------*\
  =========                 |
  \\      /  F ield         | OpenFOAM: The Open Source CFD Toolbox
   \\    /   O peration     | Website:  https://openfoam.org
    \\  /    A nd           | Version:  13
     \\/     M anipulation  |
\*---------------------------------------------------------------------------*/
FoamFile
{
    format      ascii;
    class       volScalarField;
    location    "34.999017";
    object      k;
}
// * * * * * * * * * * * * * * * * * * * * * * * * * * * * * * * * * * * * * //

dimensions      [0 2 -2 0 0 0 0];

internalField   nonuniform List<scalar> 
17140
(
5.8495975e-12
1.8381464e-10
1.5031088e-09
6.4642551e-09
1.9892156e-08
5.0196259e-08
1.1130935e-07
2.2558677e-07
4.2808969e-07
7.7286593e-07
1.3421057e-06
2.2594198e-06
3.7090081e-06
5.9632059e-06
9.4218959e-06
1.4668632e-05
2.2550147e-05
3.4288319e-05
5.1636682e-05
7.7097187e-05
0.00011421671
0.00016798583
0.00024536213
0.00035593196
0.00051269809
0.00073291756
0.0010387841
0.0014575075
0.0020199561
0.0027565662
0.0036889104
0.0048171168
0.0061072087
0.0074891141
0.0088743989
0.010186257
0.011381233
0.012450072
0.013405688
0.014271061
0.015072073
0.01583464
0.016584121
0.017345868
0.018146076
0.019010806
0.019965305
0.021036678
0.022253959
0.023648021
0.025252181
0.027102173
0.029232752
0.031667826
0.034417676
0.037484238
0.040855331
0.044437771
0.047886547
0.049881204
0.048606403
0.042192093
0.032141903
0.035258674
0.053676137
5.7711351e-12
1.8134909e-10
1.4829512e-09
6.3776002e-09
1.9625657e-08
4.9524283e-08
1.0982064e-07
2.2257291e-07
4.2237745e-07
7.6256751e-07
1.3242499e-06
2.2294114e-06
3.6598404e-06
5.8843211e-06
9.2975452e-06
1.447553e-05
2.225414e-05
3.3839681e-05
5.096354e-05
7.6096421e-05
0.00011274155
0.00016582922
0.00024223516
0.00035143694
0.00050629723
0.0007239014
0.0010262499
0.0014403541
0.001996903
0.0027262385
0.003650301
0.0047701294
0.0060532874
0.0074309814
0.0088150812
0.010128396
0.011326627
0.012399648
0.013359796
0.014229781
0.015035454
0.015802851
0.016557554
0.017325255
0.018132566
0.019006086
0.019971731
0.021057241
0.022292391
0.023708534
0.025338972
0.027218448
0.029377556
0.031828616
0.034553596
0.037502724
0.040582611
0.043572219
0.045704253
0.046160515
0.042743287
0.034279967
0.020527143
0.022767397
0.043313897
5.6530781e-12
1.7763931e-10
1.4526152e-09
6.2471427e-09
1.9224248e-08
4.8511538e-08
1.0757546e-07
2.1802419e-07
4.1374894e-07
7.4699714e-07
1.2972264e-06
2.1839466e-06
3.585261e-06
5.764516e-06
9.1084367e-06
1.4181448e-05
2.1802653e-05
3.3154281e-05
4.9933369e-05
7.4561995e-05
0.00011047516
0.00016250851
0.00023740837
0.00034447878
0.00049635619
0.00070984038
0.0010065829
0.001413234
0.0019602451
0.0026780219
0.0035890705
0.0046957367
0.0059673414
0.0073369668
0.0087174102
0.010030994
0.011232087
0.012309228
0.013273878
0.014148332
0.014958347
0.015730058
0.016489267
0.017261969
0.018075159
0.018955946
0.019930886
0.021028307
0.022278609
0.023713648
0.025367186
0.027273428
0.029459583
0.031928149
0.034637346
0.037500485
0.040387477
0.042913221
0.044197664
0.04348724
0.038647656
0.029267247
0.016423445
0.012712757
0.025879392
5.4945593e-12
1.726581e-10
1.4118822e-09
6.0719705e-09
1.8685235e-08
4.7151546e-08
1.0456022e-07
2.1191464e-07
4.0215815e-07
7.2607801e-07
1.2609131e-06
2.1228398e-06
3.4849991e-06
5.6034108e-06
8.8540596e-06
1.378573e-05
2.119489e-05
3.223122e-05
4.8545258e-05
7.2493143e-05
0.0001074172
0.0001580242
0.00023088363
0.00033506135
0.00048288027
0.00069074664
0.00097986573
0.0013764334
0.0019105495
0.002612625
0.0035057831
0.004593909
0.0058488374
0.00720625
0.0085802994
0.0098927449
0.011096166
0.012177284
0.013146349
0.014025073
0.014839042
0.015614453
0.016377304
0.017153864
0.01797147
0.018857691
0.019839659
0.020946271
0.02220862
0.023659468
0.025333175
0.027263365
0.029475815
0.031965975
0.034673026
0.037493057
0.040276174
0.042579799
0.043609702
0.042187696
0.037156562
0.029050636
0.016076782
0.008008789
0.016516421
5.2972993e-12
1.664595e-10
1.3611943e-09
5.853985e-09
1.8014462e-08
4.5459004e-08
1.0080735e-07
2.0430969e-07
3.8772843e-07
7.0003106e-07
1.2156904e-06
2.0467248e-06
3.3600834e-06
5.4026391e-06
8.5369617e-06
1.329229e-05
2.0436796e-05
3.1079457e-05
4.6812661e-05
6.9910093e-05
0.00010359816
0.00015242249
0.00022273174
0.00032329499
0.00046604853
0.00066691501
0.00094652782
0.0013304835
0.0018483957
0.0025305592
0.0034007869
0.0044648743
0.0056977643
0.0070384731
0.0084030184
0.0097126023
0.010917607
0.012002435
0.012975753
0.013858476
0.01467592
0.015454295
0.016219759
0.016998814
0.017819088
0.018708552
0.019694845
0.020807424
0.022078081
0.023540497
0.025230226
0.027182338
0.0294228
0.031940419
0.03466268
0.037490707
0.040307568
0.042670093
0.043831609
0.042393676
0.037983802
0.031816101
0.017030106
0.0062948957
0.010941705
5.0654371e-12
1.5917359e-10
1.3016151e-09
5.5977614e-09
1.7226016e-08
4.3469513e-08
9.6395984e-08
1.9537009e-07
3.7076581e-07
6.6941097e-07
1.1625258e-06
1.9572392e-06
3.2132181e-06
5.1665771e-06
8.1641053e-06
1.2712043e-05
1.9545258e-05
2.9724789e-05
4.477448e-05
6.6870731e-05
9.9103066e-05
0.00014582657
0.00021312829
0.00030942484
0.00044618946
0.00063875922
0.00090707041
0.0012759738
0.0017744488
0.0024325876
0.0032749245
0.0043094175
0.005514666
0.0068337675
0.0081852216
0.0094898115
0.010695378
0.011783481
0.012760782
0.013647144
0.014467477
0.015247938
0.016014793
0.016794731
0.017615594
0.018505684
0.019493082
0.020607784
0.021882325
0.023351522
0.025052632
0.027022978
0.029290101
0.031838531
0.034606769
0.037529676
0.040509258
0.043184139
0.044752569
0.043599787
0.040402243
0.033731612
0.017128569
0.0053718008
0.0067390066
4.8024406e-12
1.5090934e-10
1.2340359e-09
5.3071318e-09
1.6331687e-08
4.1212817e-08
9.1392032e-08
1.8522939e-07
3.5152353e-07
6.3467451e-07
1.1022116e-06
1.8557143e-06
3.0465844e-06
4.8987234e-06
7.741002e-06
1.2053543e-05
1.8533374e-05
2.8187059e-05
4.2460506e-05
6.3419411e-05
9.3997361e-05
0.00013833199
0.0002022111
0.00029364663
0.0004235779
0.00060666272
0.00086202123
0.0012136164
0.0016896433
0.0023198658
0.0031295072
0.0041288575
0.0053006454
0.0065927966
0.0079270204
0.0092239779
0.010428716
0.011519432
0.0125003
0.013389821
0.01421233
0.01499383
0.015760632
0.016539554
0.017358558
0.018246161
0.019230831
0.020343052
0.021616124
0.023086212
0.024792772
0.026776429
0.029067506
0.031653985
0.03450176
0.037612157
0.04095078
0.044241459
0.046321638
0.045535335
0.04272414
0.034167033
0.014426742
0.0042970567
0.0036694491
4.512762e-12
1.4180664e-10
1.1596004e-09
4.9870152e-09
1.5346614e-08
3.8727108e-08
8.5880168e-08
1.740591e-07
3.3032701e-07
5.9640889e-07
1.0357668e-06
1.743865e-06
2.862995e-06
4.6035953e-06
7.2747807e-06
1.1327869e-05
1.7418146e-05
2.6492048e-05
3.9909418e-05
5.961361e-05
8.8365685e-05
0.00013006237
0.00019015923
0.00027621769
0.00039858026
0.00057114084
0.00081209281
0.0011443733
0.0015952338
0.0021939529
0.0029663467
0.003925105
0.0050574537
0.0063168621
0.0076290833
0.0089151446
0.010117187
0.011209538
0.012193355
0.013085401
0.013909213
0.014690513
0.015455563
0.016231229
0.017045503
0.017926947
0.018904329
0.020008541
0.021273624
0.022737236
0.024441425
0.026430804
0.028738009
0.031373384
0.034330113
0.03770264
0.041513037
0.045462744
0.047852039
0.04700123
0.043542173
0.030862548
0.01036384
0.0031259099
0.0017742283
4.2017365e-12
1.3203313e-10
1.079679e-09
4.6433055e-09
1.4288934e-08
3.6058155e-08
7.9961878e-08
1.6206491e-07
3.0756647e-07
5.5531853e-07
9.6441466e-07
1.6237498e-06
2.6658283e-06
4.2866231e-06
6.7740171e-06
1.0548365e-05
1.6220068e-05
2.4670881e-05
3.7168014e-05
5.5523033e-05
8.2310968e-05
0.00012116839
0.00017719137
0.00025745246
0.00037164381
0.00053282162
0.00075815273
0.0010694173
0.0014927599
0.0020567895
0.0027877504
0.0037006856
0.0047875498
0.0060079981
0.0072927457
0.008563892
0.0097607495
0.010853331
0.011839199
0.012732927
0.013556974
0.014336609
0.015097919
0.015867698
0.016673861
0.017544849
0.018509539
0.019599104
0.020848226
0.022296065
0.023987441
0.025970522
0.028279307
0.030952347
0.034029355
0.037653516
0.041858626
0.046312486
0.048539206
0.047353786
0.04209538
0.022712361
0.0062699952
0.0018932494
0.00080713902
3.8753328e-12
1.2177639e-10
9.9580627e-10
4.2826015e-09
1.3178952e-08
3.3257196e-08
7.3750785e-08
1.4947709e-07
2.8367891e-07
5.1219241e-07
8.8952509e-07
1.4976751e-06
2.4588703e-06
3.9538926e-06
6.2483251e-06
9.7299933e-06
1.496213e-05
2.275849e-05
3.4288835e-05
5.1225996e-05
7.594894e-05
0.00011181965
0.00016355398
0.00023770582
0.0003432744
0.00049241754
0.00070118959
0.00099009399
0.0013840057
0.0019106574
0.0025964923
0.0034587363
0.0044941389
0.0056690581
0.0069201306
0.0081714608
0.0093598608
0.010450693
0.011437323
0.012331604
0.013154562
0.013930789
0.014686031
0.015446858
0.016240947
0.017096446
0.018042058
0.019109026
0.020332435
0.021752711
0.023417163
0.025375743
0.027671128
0.03033754
0.033474645
0.037259944
0.041665833
0.046141154
0.047832413
0.045421734
0.03598834
0.011466106
0.003207571
0.001000539
0.00039191927
3.5399174e-12
1.1123648e-10
9.0961794e-10
3.9119385e-09
1.2038317e-08
3.0378863e-08
6.7368039e-08
1.3654119e-07
2.5913033e-07
4.6787185e-07
8.1255925e-07
1.3681008e-06
2.2461593e-06
3.6118968e-06
5.7079633e-06
8.8887241e-06
1.3668878e-05
2.0792179e-05
3.1328023e-05
4.6806229e-05
6.940344e-05
0.00010219784
0.00014951145
0.00021735929
0.00031401742
0.00045069969
0.00064227908
0.00090787828
0.0012709481
0.0017581237
0.002395761
0.003202975
0.0041811864
0.0053037912
0.0065142799
0.0077399025
0.0089156043
0.010001947
0.010987506
0.011880813
0.012701018
0.013471744
0.014218186
0.014966493
0.015743877
0.016577991
0.017496997
0.018531857
0.019717636
0.021095352
0.022713767
0.024623014
0.026874473
0.029457651
0.032545503
0.036335683
0.040454175
0.044128708
0.044058211
0.038793202
0.01815599
0.0051627597
0.001486262
0.00050516349
0.00022874293
3.2020034e-12
1.0061804e-10
8.227874e-10
3.5385128e-09
1.0889176e-08
2.7479042e-08
6.093758e-08
1.2350841e-07
2.343975e-07
4.2321774e-07
7.350123e-07
1.2375444e-06
2.0318286e-06
3.2672821e-06
5.1634347e-06
8.0409107e-06
1.2365452e-05
1.8810177e-05
2.8343138e-05
4.2349636e-05
6.2801633e-05
9.248975e-05
0.00013533608
0.00019680667
0.00028443748
0.00040846971
0.00058254595
0.00082432475
0.0011556934
0.0016019659
0.0021890812
0.0029376358
0.0038533963
0.0049168925
0.0060792832
0.0072722572
0.0084298665
0.0095079932
0.01048991
0.011380159
0.012195481
0.012958157
0.013692567
0.014424186
0.015179451
0.015985247
0.016868751
0.017860118
0.018993734
0.020309625
0.021858552
0.023691365
0.025832239
0.028271597
0.031150326
0.034491925
0.037666209
0.038197003
0.034629445
0.019790881
0.006256534
0.001887073
0.00062293388
0.00026703055
0.00016472638
2.8679872e-12
9.0122097e-11
7.3695853e-10
3.1693946e-09
9.7532863e-09
2.4612644e-08
5.4581177e-08
1.1062556e-07
2.0994885e-07
3.7907594e-07
6.5835342e-07
1.1084799e-06
1.8199404e-06
2.9265816e-06
4.625065e-06
7.2026344e-06
1.1076584e-05
1.68501e-05
2.5390847e-05
3.7940852e-05
5.6268928e-05
8.2879836e-05
0.00012129721
0.00017643842
0.00025509629
0.00036652865
0.00052312094
0.00074100929
0.0010404014
0.0014450774
0.0019802055
0.0026673628
0.0035161384
0.0045140075
0.0056203862
0.006772746
0.0079055565
0.0089705042
0.0099452072
0.010829541
0.011637205
0.012388673
0.013107168
0.013817171
0.014543966
0.015313208
0.016150612
0.017084797
0.018148552
0.019378862
0.020835882
0.022562396
0.024528718
0.026697705
0.029049997
0.031200457
0.030639897
0.02656533
0.014641382
0.0058829023
0.0019230415
0.00065924443
0.0002803777
0.0001725097
0.00013924175
2.5438977e-12
7.9938073e-11
6.5368025e-10
2.811245e-09
8.6511461e-09
2.1831396e-08
4.8413554e-08
9.8125208e-08
1.8622579e-07
3.3624353e-07
5.8396713e-07
9.8323875e-07
1.6143237e-06
2.595954e-06
4.1025896e-06
6.3890604e-06
9.8256029e-06
1.4947449e-05
2.2524659e-05
3.3659855e-05
4.9923955e-05
7.3542826e-05
0.00010765048
0.00015662609
0.00022653018
0.00032564501
0.00046509581
0.00065946677
0.000927201
0.0012903567
0.0017729779
0.0023970586
0.0031753121
0.0041016618
0.0051440401
0.006246947
0.0073468553
0.0083921687
0.0093547812
0.010229275
0.011025614
0.01176188
0.012459698
0.013142137
0.013832867
0.014555636
0.015334057
0.01619441
0.017166269
0.018290335
0.019632307
0.021199046
0.02289046
0.024459778
0.025289817
0.023643353
0.018054335
0.0090022967
0.0042296128
0.0017064336
0.00063758472
0.00028083653
0.00016894706
0.00013996077
0.00012797852
2.235137e-12
7.0235733e-11
5.7434085e-10
2.4700347e-09
7.6011308e-09
1.9181675e-08
4.253756e-08
8.6215821e-08
1.6362403e-07
2.9543513e-07
5.1309485e-07
8.6391181e-07
1.4184122e-06
2.2809229e-06
3.6047415e-06
5.6137961e-06
8.6334471e-06
1.31341e-05
1.9792652e-05
2.9578559e-05
4.3873502e-05
6.463624e-05
9.4626825e-05
0.00013770627
0.0001992269
0.00028652129
0.00040947562
0.00058112368
0.00081809633
0.0011405805
0.0015711675
0.0021316818
0.0028371315
0.0036870926
0.0046578546
0.0057019155
0.0067594678
0.0077769891
0.0087209804
0.0095802691
0.01036036
0.011076273
0.011747437
0.012394929
0.013040227
0.013704208
0.014407441
0.015173102
0.016026495
0.017034116
0.018217508
0.019509056
0.020549246
0.020260629
0.017677916
0.010567474
0.0054423109
0.002595416
0.0012205333
0.00054724505
0.0002662378
0.0001672627
0.00013494438
0.00012817802
0.00012041086
1.9462712e-12
6.1158574e-11
5.0011396e-10
2.1508117e-09
6.6187767e-09
1.6702688e-08
3.7040159e-08
7.5073686e-08
1.4247818e-07
2.5725508e-07
4.4678646e-07
7.5226741e-07
1.2351104e-06
1.9861616e-06
3.1389115e-06
4.8883601e-06
7.5178486e-06
1.1437061e-05
1.7235587e-05
2.5757994e-05
3.8208309e-05
5.6294165e-05
8.2423293e-05
0.00011996707
0.00017360577
0.00024976501
0.00035713646
0.0005072368
0.00071487837
0.00099827746
0.001378293
0.0018760136
0.0025078394
0.0032779509
0.0041703827
0.0051461512
0.0061507901
0.0071305685
0.0080474146
0.0088842385
0.0096414239
0.010330176
0.010966974
0.011570093
0.012157876
0.012747077
0.013353634
0.013995499
0.014709163
0.015570967
0.016454858
0.017004965
0.016051552
0.012844089
0.0064522846
0.0031651485
0.0015695747
0.00077884519
0.00040610608
0.0002318286
0.00015865408
0.0001322495
0.00012306931
0.00012050366
0.00011369875
1.6808523e-12
5.2818203e-11
4.319121e-10
1.8574999e-09
5.7161579e-09
1.4424908e-08
3.1988937e-08
6.4835813e-08
1.2304836e-07
2.2217313e-07
3.8585803e-07
6.4968013e-07
1.0666765e-06
1.7153035e-06
2.7108461e-06
4.2217109e-06
6.4926028e-06
9.8773547e-06
1.4885214e-05
2.2245746e-05
3.2999228e-05
4.8621502e-05
7.1194463e-05
0.00010363538
0.00014999867
0.00021586033
0.00030878302
0.00043882954
0.00061902958
0.00086558602
0.0011974148
0.0016343652
0.0021933282
0.0028818738
0.0036907355
0.0045893701
0.0055299084
0.0064603031
0.0073392253
0.0081439354
0.0088692066
0.0095216318
0.010113772
0.010660031
0.011174008
0.011666562
0.012146486
0.012623796
0.013171707
0.013742631
0.013755146
0.012404687
0.0083708375
0.0041041225
0.0019463141
0.00095396448
0.00050304409
0.00028938375
0.00019116807
0.00014570957
0.00012638497
0.00012021925
0.00011631035
0.00011390129
0.00010855879
1.441295e-12
4.5290485e-11
3.7035542e-10
1.5927663e-09
4.9014833e-09
1.2369053e-08
2.7429839e-08
5.5595345e-08
1.0551135e-07
1.905086e-07
3.3086439e-07
5.5708461e-07
9.1464592e-07
1.4708198e-06
2.3244547e-06
3.619945e-06
5.5671023e-06
8.4693045e-06
1.2763188e-05
1.9074318e-05
2.8294756e-05
4.1690264e-05
6.1046881e-05
8.8868445e-05
0.00012863739
0.00018514891
0.00026491942
0.00037664737
0.00053165514
0.00074414786
0.0010309689
0.0014103207
0.0018987538
0.0025059373
0.0032279233
0.0040419081
0.0049072385
0.005775289
0.006603174
0.0073632651
0.0080445319
0.0086481436
0.0091815461
0.0096536046
0.010071027
0.010435507
0.010743928
0.011013678
0.011256039
0.010940202
0.0092627438
0.0051715613
0.0026048726
0.0012487844
0.00061994663
0.00034232952
0.00021819236
0.00016076023
0.00013404639
0.00012140268
0.00011584083
0.00011437842
0.00011044014
0.00010881644
0.00010417748
1.2288214e-12
3.8613817e-11
3.1575794e-10
1.357962e-09
4.17891e-09
1.0545614e-08
2.3386141e-08
4.7399474e-08
8.9956769e-08
1.6242339e-07
2.8208695e-07
4.7495517e-07
7.7979843e-07
1.2539666e-06
1.981727e-06
3.0861704e-06
4.7461457e-06
7.220249e-06
1.0880646e-05
1.626051e-05
2.4120122e-05
3.5538244e-05
5.2037105e-05
7.5750993e-05
0.00010964925
0.00015782302
0.00022583813
0.00032113905
0.00045345037
0.00063504972
0.00088066189
0.0012065485
0.0016282042
0.0021561567
0.0027901208
0.003513792
0.004293646
0.005085721
0.0058473227
0.0065471178
0.0071684393
0.0077062405
0.0081612906
0.0085345971
0.0088228063
0.0090134624
0.0090952332
0.0090316434
0.0084582376
0.0065634824
0.0034336321
0.0016457578
0.00081448707
0.00042580618
0.00025342271
0.00017773218
0.00014319415
0.0001265984
0.00011818429
0.00011376907
0.00011091645
0.00010892031
0.00010624794
0.00010464883
0.00010037538
1.0433127e-12
3.2784491e-11
2.6808958e-10
1.1529572e-09
3.5480395e-09
8.9535867e-09
1.9855617e-08
4.0243692e-08
7.6376079e-08
1.3790212e-07
2.3949904e-07
4.0324707e-07
6.6206095e-07
1.0646273e-06
1.6824808e-06
2.6201077e-06
4.0293139e-06
6.1295735e-06
9.2367113e-06
1.3803118e-05
2.0473764e-05
3.0163601e-05
4.4163384e-05
6.4282378e-05
9.3037112e-05
0.00013389427
0.00019157046
0.00027237757
0.00038457283
0.00053861506
0.00074713197
0.0010242611
0.001383886
0.0018363011
0.0023833386
0.0030133301
0.003699044
0.0044016537
0.0050801174
0.0057007842
0.006241776
0.0066910407
0.0070407089
0.0072812252
0.0073943818
0.0073489514
0.0071214607
0.0063746142
0.0043593092
0.0022300322
0.0010961162
0.00054744296
0.00030655196
0.00020098026
0.00015524637
0.00013403889
0.00012297128
0.00011698096
0.00011317218
0.00011027844
0.00010748882
0.00010489588
0.00010220407
0.00010102555
9.7352571e-05
8.8330733e-13
2.7756574e-11
2.269747e-10
9.7613667e-10
3.0039013e-09
7.5804299e-09
1.6810458e-08
3.4071642e-08
6.4662338e-08
1.1675175e-07
2.027655e-07
3.4139617e-07
5.6050771e-07
9.0131399e-07
1.4243667e-06
2.2181027e-06
3.4109963e-06
5.1887624e-06
7.8185933e-06
1.1683116e-05
1.7327651e-05
2.5525433e-05
3.7366657e-05
5.4378338e-05
7.8682512e-05
0.00011319931
0.00016189692
0.00023007918
0.00032467715
0.00045446609
0.00063005243
0.0008633652
0.0011662683
0.0015478933
0.0020106255
0.0025456671
0.0031305322
0.0037311574
0.0043089769
0.0048292166
0.005265286
0.005597338
0.0058072703
0.0058712333
0.0057623991
0.0054191535
0.0046117961
0.002782033
0.001438015
0.00072828791
0.0003876348
0.00023395425
0.00016869705
0.00014176766
0.00012925673
0.00012205296
0.00011750426
0.00011397469
0.00011034189
0.0001069356
0.00010358084
0.0001019344
9.8996546e-05
9.7581229e-05
9.4202876e-05
7.459603e-13
2.3440654e-11
1.9168198e-10
8.2435512e-10
2.5368159e-09
6.4017163e-09
1.4196494e-08
2.8773533e-08
5.4607174e-08
9.8596019e-08
1.7123286e-07
2.8830217e-07
4.7333208e-07
7.6112137e-07
1.2027928e-06
1.8730039e-06
2.880195e-06
4.3810872e-06
6.6010916e-06
9.862871e-06
1.4626026e-05
2.1541752e-05
3.1527254e-05
4.5865529e-05
6.6336419e-05
9.5383711e-05
0.00013631898
0.00019355297
0.00027282531
0.0003813662
0.00052786328
0.00072202034
0.00097340471
0.0012892675
0.0016712617
0.0021116819
0.0025910076
0.0030789426
0.0035395426
0.0039377013
0.0042426553
0.0044268103
0.0044604745
0.0043270888
0.0039450724
0.0031049996
0.0017992145
0.00092716288
0.00048934704
0.00028118715
0.00018873518
0.00014887985
0.00013283734
0.00012664051
0.00012276114
0.00011907921
0.00011531842
0.00011065143
0.00010684642
0.00010381802
0.00010167482
9.8961945e-05
9.671976e-05
9.5407753e-05
9.2251434e-05
6.2721475e-13
1.9709255e-11
1.6116905e-10
6.9312961e-10
2.132988e-09
5.3826321e-09
1.1936517e-08
2.4192875e-08
4.591358e-08
8.2898627e-08
1.4396958e-07
2.4239638e-07
3.9795795e-07
6.3990579e-07
1.0112085e-06
1.5746061e-06
2.4212087e-06
3.6826502e-06
5.5481756e-06
8.2885119e-06
1.2288954e-05
1.809478e-05
2.647279e-05
3.8493305e-05
5.56369e-05
7.9928781e-05
0.00011409967
0.00016176299
0.00022758063
0.00031735866
0.0004379657
0.00059690077
0.00080127378
0.0010559641
0.0013609194
0.001708094
0.0020793723
0.0024471438
0.0027779542
0.0030370227
0.0031907371
0.0032046645
0.003067461
0.002702963
0.0019656393
0.0011142596
0.00060133729
0.00033325247
0.00021153235
0.00015731248
0.00013579992
0.00012699314
0.0001244387
0.00012302868
0.00012104656
0.00011658773
0.0001112323
0.00010734665
0.00010454093
0.00010178523
9.8915248e-05
9.7132419e-05
9.4587453e-05
9.3294289e-05
9.0455873e-05
5.2219816e-13
1.6409271e-11
1.3418399e-10
5.7707628e-10
1.7758495e-09
4.4813671e-09
9.9378111e-09
2.0141739e-08
3.8224879e-08
6.9015511e-08
1.1985695e-07
2.0179481e-07
3.3129133e-07
5.3269011e-07
8.4174458e-07
1.3106475e-06
2.0151674e-06
3.0647215e-06
4.6165113e-06
6.8952156e-06
1.0220185e-05
1.5042574e-05
2.1995294e-05
3.1958889e-05
4.614603e-05
6.6205611e-05
9.434317e-05
0.00013344573
0.00018718329
0.00026003296
0.00035713291
0.00048382481
0.00064470675
0.00084204819
0.0010735837
0.0013301585
0.0015942566
0.0018405142
0.0020383543
0.0021549167
0.0021555664
0.0020304669
0.0017068702
0.0011548663
0.0006656465
0.00037870526
0.00023237722
0.00016209647
0.00013618873
0.00012487795
0.0001228928
0.00012340903
0.00012361828
0.00012241089
0.00011840157
0.00011227436
0.00010852269
0.00010541937
0.0001022479
9.9407899e-05
9.7304426e-05
9.5053923e-05
9.2972359e-05
9.1369057e-05
8.8830244e-05
4.2607008e-13
1.3388596e-11
1.0948295e-10
4.7084549e-10
1.4489377e-09
3.6563784e-09
8.1082484e-09
1.6433404e-08
3.1186695e-08
5.6306789e-08
9.7783542e-08
1.6462583e-07
2.7025854e-07
4.3453e-07
6.8658363e-07
1.0689471e-06
1.6433256e-06
2.4987625e-06
3.7630572e-06
5.6186079e-06
8.3241655e-06
1.2244299e-05
1.7888595e-05
2.5962516e-05
3.7431107e-05
5.3594629e-05
7.6170744e-05
0.00010736951
0.00014993313
0.00020709044
0.00028234632
0.00037899373
0.00049923425
0.00064284735
0.0008054745
0.0009770296
0.0011409305
0.0012747952
0.0013523494
0.0013456829
0.0012444383
0.00099580737
0.00065763353
0.0003898141
0.00023832546
0.00016044181
0.00012972626
0.00011674858
0.00011719018
0.00011924999
0.00012369338
0.00012515382
0.00012403152
0.00012011779
0.00011337564
0.00010963166
0.00010629
0.00010283604
0.00010012997
9.7723794e-05
9.5431462e-05
9.3346418e-05
9.1277575e-05
9.0184551e-05
8.7844723e-05
3.3538953e-13
1.0539099e-11
8.6181637e-11
3.7063429e-10
1.1405499e-09
2.8781353e-09
6.3823477e-09
1.2935164e-08
2.45472e-08
4.4317806e-08
7.6959797e-08
1.2956011e-07
2.1267705e-07
3.4191571e-07
5.4017885e-07
8.4086683e-07
1.2924004e-06
1.9645717e-06
2.9573897e-06
4.4132786e-06
6.5336821e-06
9.6012823e-06
1.4009045e-05
2.0296953e-05
2.9196247e-05
4.1678613e-05
5.9003301e-05
8.2747284e-05
0.00011479134
0.00015721779
0.00021205637
0.00028080159
0.00036365229
0.00045847386
0.00055966697
0.00065731507
0.0007370673
0.00078094567
0.00077038769
0.00069383755
0.00053034555
0.00034912444
0.00022437308
0.00014902873
0.0001154634
0.00010164101
0.0001036836
0.0001083103
0.00011774091
0.00012616255
0.00012683318
0.00012571079
0.00012173813
0.00011471856
0.00011100953
0.00010741943
0.00010395181
0.0001010947
9.847837e-05
9.5947574e-05
9.3866865e-05
9.2112155e-05
9.0198395e-05
8.8609349e-05
8.6511878e-05
2.4952735e-13
7.8410105e-12
6.4118413e-11
2.7574766e-10
8.4854801e-10
2.1412454e-09
4.7481614e-09
9.6228304e-09
1.8260559e-08
3.2965956e-08
5.7242582e-08
9.6357338e-08
1.581538e-07
2.542183e-07
4.0154278e-07
6.2488253e-07
9.600765e-07
1.4586865e-06
2.1944147e-06
3.27187e-06
4.8383432e-06
7.0992707e-06
1.03379e-05
1.493914e-05
2.1416375e-05
3.0437627e-05
4.2843347e-05
5.964151e-05
8.1956517e-05
0.00011089775
0.00014730355
0.00019132812
0.00024186542
0.00029588171
0.00034784033
0.00038948355
0.00041010424
0.00039918211
0.00034985923
0.00026329635
0.00018145176
0.00012497116
9.6130887e-05
8.2668604e-05
8.3520405e-05
8.9789749e-05
0.0001031115
0.00012173432
0.00012772398
0.00012878269
0.0001276356
0.00012359446
0.0001161482
0.00011232414
0.00010854875
0.000105036
0.00010205724
9.9148084e-05
9.6609849e-05
9.4493191e-05
9.2637657e-05
9.0531863e-05
8.8834184e-05
8.7605101e-05
8.5835714e-05
1.7135787e-13
5.3846532e-12
4.4031904e-11
1.8936232e-10
5.8270931e-10
1.4703868e-09
3.2604325e-09
6.6074064e-09
1.2537561e-08
2.2632151e-08
3.929417e-08
6.6134254e-08
1.0852586e-07
1.7439944e-07
2.7537161e-07
4.2833949e-07
6.5771366e-07
9.9851441e-07
1.5006108e-06
2.2344278e-06
3.2984594e-06
4.8288465e-06
7.0110264e-06
1.0092868e-05
1.4397545e-05
2.0332367e-05
2.8386512e-05
3.9105997e-05
5.3028391e-05
7.0555677e-05
9.1748866e-05
0.00011603242
0.00014184499
0.00016634012
0.00018522988
0.00019304047
0.00018510301
0.00015858934
0.00012179478
9.1201931e-05
7.2011071e-05
6.2027364e-05
6.2456969e-05
6.7589952e-05
8.0279942e-05
0.00010546242
0.0001237489
0.0001298981
0.00013062699
0.00012951897
0.00012556289
0.00011771678
0.00011366687
0.00010980567
0.0001063587
0.00010324136
0.0001002085
9.7560967e-05
9.5382432e-05
9.3151829e-05
9.1191808e-05
8.9609558e-05
8.7981972e-05
8.6637097e-05
8.5010917e-05
1.0598515e-13
3.3304151e-12
2.7233684e-11
1.1711914e-10
3.6039365e-10
9.0937232e-10
2.0163362e-09
4.0858944e-09
7.7522163e-09
1.3992021e-08
2.4288762e-08
4.086971e-08
6.7046192e-08
1.0769864e-07
1.6996309e-07
2.6419466e-07
4.0530573e-07
6.1460079e-07
9.2224974e-07
1.3705463e-06
2.0180643e-06
2.9447116e-06
4.25742e-06
6.0956943e-06
8.6353383e-06
1.2087216e-05
1.6685789e-05
2.2659683e-05
3.0174877e-05
3.9241177e-05
4.9580324e-05
6.0471169e-05
7.0614165e-05
7.8080655e-05
8.0378362e-05
7.6268204e-05
6.5937751e-05
5.5148944e-05
4.678582e-05
4.1859406e-05
4.3093372e-05
4.7209622e-05
5.7308018e-05
7.8257971e-05
0.00010833279
0.00012487172
0.00013153885
0.00013247411
0.00013141448
0.00012768297
0.00011949166
0.00011513432
0.00011110742
0.00010771338
0.0001044406
0.00010126895
9.8545774e-05
9.6105763e-05
9.3782912e-05
9.1889566e-05
9.0263924e-05
8.8459059e-05
8.6902601e-05
8.5625171e-05
8.4309427e-05
5.7706756e-14
1.813341e-12
1.482808e-11
6.3767539e-11
1.9621667e-10
4.9508452e-10
1.0976628e-09
2.2240692e-09
4.2191527e-09
7.6137081e-09
1.3213246e-08
2.2225827e-08
3.6444846e-08
5.850834e-08
9.2263606e-08
1.4327439e-07
2.1951701e-07
3.3231927e-07
4.9759739e-07
7.3743276e-07
1.0819856e-06
1.5716412e-06
2.2590826e-06
3.2106337e-06
4.5056409e-06
6.2318641e-06
8.4739248e-06
1.1290978e-05
1.4680562e-05
1.8527918e-05
2.2548024e-05
2.6236926e-05
2.8858264e-05
2.9642917e-05
2.8793415e-05
2.715111e-05
2.5554018e-05
2.5012979e-05
2.6963964e-05
3.0503411e-05
3.8729353e-05
5.3673328e-05
7.928143e-05
0.00010846446
0.00012468869
0.00013269798
0.00013420445
0.00013322631
0.00012974497
0.00012144812
0.00011680882
0.00011245882
0.00010902638
0.00010572934
0.00010251957
9.9716904e-05
9.7111711e-05
9.4700224e-05
9.2804889e-05
9.0859766e-05
8.9084517e-05
8.7547949e-05
8.6192305e-05
8.5074384e-05
8.3849047e-05
2.7273211e-14
8.5701495e-13
7.0079383e-12
3.0136701e-11
9.2728779e-11
2.3395363e-10
5.1865351e-10
1.0507436e-09
1.9929245e-09
3.5954183e-09
6.2375254e-09
1.0487248e-08
1.7186118e-08
2.7568756e-08
4.3429486e-08
6.7351361e-08
1.030154e-07
1.5560834e-07
2.3234269e-07
3.4308826e-07
5.0108083e-07
7.2360818e-07
1.0324584e-06
1.4537339e-06
2.0163813e-06
2.7484749e-06
3.670191e-06
4.7825195e-06
6.0521078e-06
7.3952479e-06
8.6684115e-06
9.6856588e-06
1.0407987e-05
1.1015858e-05
1.1817023e-05
1.3117788e-05
1.5107472e-05
1.8311129e-05
2.4784195e-05
3.61325e-05
5.4016647e-05
7.9097853e-05
0.00010565624
0.0001227627
0.00013359435
0.00013589415
0.00013503606
0.00013190736
0.00012374365
0.00011861056
0.00011395878
0.00011033218
0.00010704938
0.0001038989
0.00010093682
9.8153535e-05
9.5670318e-05
9.355483e-05
9.1503969e-05
8.9747934e-05
8.8290871e-05
8.6767015e-05
8.5375934e-05
8.419726e-05
8.3174544e-05
1.1426414e-14
3.590552e-13
2.9360184e-12
1.2625648e-11
3.8846629e-11
9.8002651e-11
2.1723987e-10
4.4004144e-10
8.3444366e-10
1.504986e-09
2.6099403e-09
4.3859311e-09
7.1827785e-09
1.1512259e-08
1.8115427e-08
2.8054003e-08
4.2831687e-08
6.455042e-08
9.6103102e-08
1.4139601e-07
2.0557765e-07
2.9522222e-07
4.1837129e-07
5.8427789e-07
8.0264253e-07
1.0821222e-06
1.4280534e-06
1.8398113e-06
2.3093038e-06
2.8241723e-06
3.3994615e-06
4.0982419e-06
4.957935e-06
6.0376888e-06
7.9109132e-06
1.083559e-05
1.5434831e-05
2.3626685e-05
3.6234949e-05
5.4031646e-05
7.6766488e-05
0.00010156403
0.00012163173
0.0001346568
0.00013764281
0.00013691648
0.00013420725
0.00012638015
0.00012050298
0.0001155289
0.00011178368
0.00010834714
0.000105281
0.00010225482
9.9319696e-05
9.6797442e-05
9.4523323e-05
9.2386723e-05
9.0641176e-05
8.8968968e-05
8.7367113e-05
8.5927955e-05
8.4727908e-05
8.3749162e-05
8.2853587e-05
4.9753451e-15
1.5634143e-13
1.278409e-12
5.4974514e-12
1.6914388e-11
4.2671129e-11
9.4585895e-11
1.9158744e-10
3.6328882e-10
6.5518342e-10
1.1361337e-09
1.9090699e-09
3.1261287e-09
5.0098489e-09
7.8824718e-09
1.2205832e-08
1.8634636e-08
2.8085914e-08
4.1826462e-08
6.1578784e-08
8.964171e-08
1.2901723e-07
1.8353032e-07
2.5793201e-07
3.5800573e-07
4.9079722e-07
6.6536039e-07
8.9493291e-07
1.2003942e-06
1.6206163e-06
2.215658e-06
3.0886191e-06
4.4131979e-06
6.5066115e-06
9.9172396e-06
1.5413862e-05
2.3924301e-05
3.610622e-05
5.2699449e-05
7.4075598e-05
9.8409436e-05
0.00012118816
0.00013573369
0.00013952791
0.00013891964
0.00013657931
0.00012921047
0.00012237722
0.00011727192
0.00011338493
0.00010976353
0.00010658376
0.00010363582
0.00010066498
9.7991397e-05
9.5560845e-05
9.3317419e-05
9.1408372e-05
8.9625674e-05
8.7993867e-05
8.6644404e-05
8.5337688e-05
8.4143713e-05
8.3162755e-05
8.2329507e-05
3.41967e-15
1.0745737e-13
8.7869465e-13
3.7787343e-12
1.1627198e-11
2.9336561e-11
6.5040837e-11
1.3177942e-10
2.4997688e-10
4.5106415e-10
7.8272895e-10
1.3164791e-09
2.1584693e-09
3.4649022e-09
5.4637995e-09
8.4855827e-09
1.3005761e-08
1.9704198e-08
2.9547068e-08
4.39002e-08
6.4686827e-08
9.4611091e-08
1.3748544e-07
1.9873619e-07
2.8624033e-07
4.1171773e-07
5.9296863e-07
8.5806746e-07
1.2521777e-06
1.8500779e-06
2.7738011e-06
4.2201195e-06
6.4970828e-06
1.0071382e-05
1.5589987e-05
2.3791814e-05
3.5389985e-05
5.1285047e-05
7.2050348e-05
9.6462278e-05
0.0001201669
0.00013644845
0.00014149251
0.0001410751
0.00013899018
0.00013213772