/*--------------------------------*- C++ -*----------------------------------*\
  =========                 |
  \\      /  F ield         | OpenFOAM: The Open Source CFD Toolbox
   \\    /   O peration     | Website:  https://openfoam.org
    \\  /    A nd           | Version:  13
     \\/     M anipulation  |
\*---------------------------------------------------------------------------*/
FoamFile
{
    format      ascii;
    class       volScalarField;
    location    "6.39674";
    object      omega;
}
// * * * * * * * * * * * * * * * * * * * * * * * * * * * * * * * * * * * * * //

dimensions      [0 0 -1 0 0 0 0];

internalField   nonuniform List<scalar> 
17140
(
4528389.9
731656.7
224624.9
95286.62
48483.639
27612.303
16954.196
10977.471
7390.5614
5125.1033
3636.493
2627.1147
1925.0367
1426.3384
1065.813
801.24426
604.57016
456.71886
344.48918
258.61271
192.52079
141.54153
102.35866
72.621922
50.633431
35.067345
24.723231
18.371713
14.823529
12.899993
11.822603
11.077665
10.442789
9.8564108
9.3099183
8.802887
8.3355264
7.9086856
7.5238686
7.1814991
6.8821363
6.6271742
6.4174742
6.2539945
6.1505165
6.1029613
6.087188
6.124701
6.1941345
6.2922989
6.4059924
6.5324899
6.6321667
6.7138355
6.7719277
6.8059654
6.7112091
6.4790098
6.0534932
5.5035292
4.9036294
4.3206965
3.7715661
3.2973203
2.8933238
4528420.9
731662.33
224626.99
95287.743
48484.365
27612.841
16954.641
10977.868
7390.9365
5125.4735
3636.8687
2627.5027
1925.4412
1426.7615
1066.2552
801.70426
605.045
457.2039
344.97792
259.09662
192.9892
141.9816
102.75588
72.961516
50.902985
35.260435
24.843773
18.430314
14.839461
12.892348
11.804143
11.057907
10.42543
9.8426195
9.3003744
8.7982416
8.3362137
7.9148011
7.5367834
7.2032584
6.9164633
6.6769593
6.486662
6.34888
6.2764944
6.2519516
6.2737349
6.3682314
6.4938487
6.6611174
6.8468952
7.0196555
7.1979018
7.3379239
7.4262805
7.4572929
7.3401225
7.0032892
6.4455985
5.7781537
5.0659772
4.3883025
3.7085974
3.1182223
2.647404
4528451.2
731667.35
224628.61
95288.553
48484.922
27613.322
16955.12
10978.378
7391.4956
5126.0932
3637.5561
2628.2621
1926.2742
1427.6671
1067.2298
802.74129
606.1347
458.33284
346.1286
260.24685
194.11164
143.04366
103.72078
73.791532
51.565815
35.738169
25.143806
18.581438
14.884264
12.879754
11.764683
11.015651
10.387682
9.8113193
9.2771007
8.7855738
8.3376024
7.9320763
7.5741441
7.2650251
7.0079551
6.8052387
6.6654763
6.5918208
6.5645274
6.5852457
6.7037698
6.854369
7.0435674
7.2547968
7.4686987
7.6609628
7.8136617
7.8860579
7.9032306
7.8570282
7.6688474
7.2081932
6.5170917
5.6669264
4.7515713
3.9405916
3.1657629
2.5466625
2.0604103
4528483
731672.61
224630.34
95289.483
48485.62
27613.978
16955.813
10979.142
7392.3512
5127.0533
3638.6296
2629.4542
1927.5866
1429.0981
1068.7737
804.38797
607.8691
460.13418
347.96956
262.09267
195.91919
144.76122
105.28941
75.150009
52.660515
36.537494
25.652
18.844626
14.97156
12.870458
11.709656
10.952907
10.330117
9.7635359
9.2417045
8.7653925
8.3375651
7.9584931
7.6309322
7.3587632
7.144765
6.9968446
6.9171
6.8836722
6.879179
6.9767728
7.1181711
7.2921514
7.4856192
7.6851669
7.8747189
8.0136365
8.0825114
8.1007581
8.0400807
7.9281242
7.690524
7.075649
6.1334455
5.0927438
4.0546807
3.196874
2.4558491
1.9496601
1.5278045
4528516.9
731678.22
224632.2
95290.528
48486.452
27614.798
16956.708
10980.145
7393.4853
5128.334
3640.0676
2631.056
1929.3549
1431.0313
1070.8648
806.62461
610.23203
462.59649
350.49541
264.63594
198.42209
147.15362
107.49039
77.073845
54.229538
37.701707
26.409163
19.252554
15.120915
12.873464
11.642831
10.868274
10.250709
9.6972876
9.1921485
8.7359016
8.331898
7.9858508
7.6929394
7.4612186
7.2910197
7.1949669
7.1477165
7.1323611
7.160104
7.2772491
7.4059838
7.56432
7.7210358
7.8845311
8.0349598
8.1270116
8.1628768
8.1057383
7.9565123
7.7712675
7.488075
6.7967489
5.6863626
4.5008401
3.4135201
2.5777567
1.9143588
1.5247152
1.1881616
4528552.1
731684.03
224634.15
95291.669
48487.403
27615.763
16957.778
10981.358
7394.8643
5129.8973
3641.8283
2633.0228
1931.5322
1433.4183
1073.4552
809.40496
613.18086
465.68283
353.67709
267.85767
201.61352
150.2281
110.34612
79.600262
56.322306
39.286947
27.470553
19.852799
15.365149
12.906393
11.569148
10.760299
10.145478
9.6088912
9.1256952
8.694464
8.31646
8.0027698
7.7448121
7.5506953
7.423744
7.3561223
7.3259292
7.3179725
7.3564829
7.4535496
7.5514168
7.6692991
7.7830255
7.9186727
8.0527767
8.1314271
8.1588622
8.0057408
7.7911549
7.5636211
7.2447404
6.46988
5.1787473
3.8931713
2.8190565
2.0616016
1.5079261
1.2033559
0.93584672
4528588.7
731690.03
224636.17
95292.892
48488.451
27616.845
16958.99
10982.738
7396.4407
5131.6898
3643.8525
2635.2902
1934.0497
1436.1877
1076.4719
812.65693
616.6468
469.33044
357.46087
271.71639
205.46756
153.97733
113.87022
82.764688
58.994066
41.362401
28.90975
20.707253
15.748906
12.998015
11.506791
10.641783
10.025249
9.5048298
9.043246
8.6374354
8.2887228
7.9991464
7.7802869
7.614733
7.5177851
7.4660898
7.442805
7.4355915
7.461215
7.5251514
7.5890654
7.6755397
7.7769073
7.9049043
8.0301992
8.0951669
8.105319
7.8794043
7.5991788
7.3450632
6.9899831
6.0985788
4.6445461
3.3173553
2.3122051
1.653906
1.2048789
0.96632796
0.75067104
4528626.6
731696.26
224638.27
95294.181
48489.57
27618.009
16960.3
10984.235
7398.1542
5133.6428
3646.0637
2637.7742
1936.817
1439.2438
1079.8162
816.28077
620.53208
473.44695
361.76364
276.14247
209.93251
158.37199
118.05967
86.592762
62.298406
44.003922
30.813322
21.896601
16.34741
13.198411
11.486192
10.52897
9.8961443
9.3883658
8.9477134
8.5660673
8.2449793
7.9806838
7.7833064
7.6532786
7.5736182
7.528735
7.5055345
7.4950145
7.4943979
7.5338895
7.5856831
7.6597076
7.7542638
7.8961683
8.0206965
8.079355
7.9627946
7.6905237
7.3876723
7.1357322
6.7433669
5.6828364
4.089374
2.7817208
1.881928
1.3319121
0.97436327
0.78585764
0.60879657
4528664.7
731702.68
224640.46
95295.517
48490.724
27619.211
16961.656
10985.787
7399.9327
5135.674
3648.3691
2640.3724
1939.7227
1442.4675
1083.3628
820.14797
624.70786
477.90706
366.46821
281.03204
214.92347
163.35211
122.88516
91.090391
66.278069
47.287352
33.278962
23.526455
17.247466
13.563469
11.544257
10.441603
9.7682555
9.2646339
8.8416359
8.4811668
8.1824564
7.9458532
7.7662099
7.6463387
7.5767922
7.5390293
7.5171983
7.5006658
7.4939049
7.5260669
7.5698613
7.6470153
7.7638065
7.9185739
8.0035566
8.0207225
7.7273867
7.4256559
7.1737643
6.947939
6.500109
5.1938703
3.5144422
2.2931864
1.5252923
1.0803259
0.7997956
0.64894549
0.50061047
4528704.9
731709.44
224642.81
95296.919
48491.911
27620.428
16963.01
10987.328
7401.6975
5137.6912
3650.664
2642.9672
1942.6372
1445.7181
1086.9617
824.10098
629.01249
482.54912
371.41804
286.23969
220.31318
168.81622
128.27904
96.231329
70.953725
51.280896
36.414806
25.727611
18.575767
14.194845
11.744293
10.416955
9.6560167
9.1404322
8.7293043
8.3862755
8.1061597
7.8886116
7.7307061
7.6228928
7.5610937
7.5271937
7.5082041
7.4911963
7.4826099
7.5047861
7.5563964
7.6539813
7.7990365
7.9522427
8.0186736
7.8279646
7.4026599
7.1376759
6.999043
6.7916144
6.2535939
4.6139443
2.9356615
1.8573748
1.2317279
0.88339093
0.66475382
0.54023368
0.41584755
4528746.8
731716.52
224645.3
95298.374
48493.104
27621.615
16964.302
10988.786
7403.3613
5139.5934
3652.8327
2645.4284
1945.4154
1448.8363
1090.4399
827.95522
633.25221
487.17398
376.41365
291.57215
225.9224
174.60836
134.11896
101.93768
76.301835
56.02131
40.314957
28.634624
20.477196
15.235053
12.172562
10.503985
9.598645
9.0308154
8.6183244
8.2863262
8.0199253
7.8154992
7.6693917
7.5754434
7.523578
7.4967309
7.4834047
7.4660476
7.4557388
7.4783549
7.5479578
7.6651029
7.829912
7.9404974
7.9210323
7.5339326
7.0477952
6.9588106
6.9082378
6.6742224
5.9387063
3.9546569
2.3906738
1.4913057
1.0010096
0.73135642
0.55898455
0.45426932
0.34925092
4528789.6
731723.75
224647.81
95299.781
48494.216
27622.69
16965.453
10990.074
7404.8287
5141.2725
3654.7528
2647.6178
1947.9026
1451.6496
1093.6075
831.50375
637.20469
491.54681
381.21211
296.78459
231.51261
180.50654
140.21171
108.05912
82.230075
61.487996
45.03769
32.377722
23.128291
16.857932
12.982112
10.79799
9.6260394
8.9590151
8.5179691
8.1885689
7.9284996
7.7319415
7.5928512
7.505317
7.4598881
7.4410531
7.4352925
7.4239938
7.4157462
7.4437691
7.5256742
7.6507571
7.7972578
7.8429422
7.6934248
7.137255
6.8336702
6.8943407
6.8797117
6.5564372
5.4139031
3.243304
1.9072565
1.1976037
0.82350822
0.61502319
0.47496844
0.38526264
0.29639488
4528834.7
731731.24
224650.33
95301.114
48495.203
27623.6
16966.4
10991.119
7406.0115
5142.6253
3656.3048
2649.3984
1949.9422
1453.9808
1096.2652
834.52442
640.62494
495.40087
385.52782
301.57746
236.7779
186.20894
146.27323
114.34636
88.544127
67.563529
50.561664
37.038729
26.696819
19.270203
14.371672
11.439275
9.8225276
8.9737688
8.4554426
8.1002299
7.8419533
7.6456656
7.5072969
7.4226214
7.3810647
7.3680811
7.3716212
7.370163
7.3625685
7.3906746
7.4731944
7.5924327
7.6903287
7.6302985
7.3529749
6.8452375
6.7580017
6.9535428
6.9437388
6.4376793
4.6443313
2.5797889
1.4941696
0.96268626
0.68451738
0.52275695
0.40781663
0.33080405
0.25524278
4528880.1
731738.8
224652.79
95302.342
48496.033
27624.304
16967.091
10991.858
7406.8362
5143.5654
3657.3877
2650.6519
1951.3967
1455.6706
1098.2289
836.80562
643.27141
498.46311
389.05592
305.616
241.35827
191.33881
151.92297
120.43317
94.916036
73.988043
56.728279
42.588509
31.290111
22.684681
16.593079
12.664044
10.369746
9.1346971
8.4738044
8.0574734
7.7626731
7.5632316
7.4228105
7.3325597
7.2883757
7.2796958
7.2921697
7.302452
7.298717
7.3151094
7.3698151
7.4627049
7.4563959
7.3477846
6.9415811
6.7107415
6.8159653
7.221299
7.0318696
6.1563707
3.6049837
1.9550758
1.1712777
0.78819168
0.57895895
0.44945324
0.35305689
0.28679382
0.22296062
4528926.9
731746.51
224655.23
95303.456
48496.687
27624.776
16967.497
10992.253
7407.2563
5144.0365
3657.9332
2651.2962
1952.1673
1456.5999
1099.3555
838.17559
644.93876
500.48959
391.50944
308.56707
244.87385
195.47268
156.70229
125.84106
100.8713
80.325088
63.183952
48.8078
36.867009
27.249465
19.923701
14.77141
11.497557
9.6104462
8.6287585
8.0872389
7.7467735
7.4980031
7.3393059
7.2449694
7.1952602
7.18242
7.1950703
7.2186381
7.2188284
7.2237021
7.2477441
7.2611359
7.2162845
7.0242696
6.7461955
6.7457131
7.1871527
7.6112213
7.0946303
5.1818862
2.7191919
1.5052833
0.93473355
0.65617337
0.4962944
0.39020502
0.30854596
0.25146362
0.19764895
4528977.9
731754.67
224657.69
95304.463
48497.166
27625.017
16967.613
10992.299
7407.2624
5144.0241
3657.9202
2651.3009
1952.211
1456.7091
1099.5638
838.52594
645.48526
501.29898
392.66125
310.15106
246.98317
198.2008
160.1312
130.02486
105.81484
85.958683
69.338264
55.197301
43.096826
32.864785
24.51245
18.102638
13.5916
10.736738
9.107709
8.2624768
7.793504
7.5008792
7.2970213
7.1613712
7.0944017
7.0808357
7.0902066
7.1201864
7.1251525
7.1208575
7.1123688
7.0839256
6.9929485
6.8135664
6.7361807
7.0372497
7.9704914
7.7990373
6.8020639
3.8383171
1.9451761
1.1146419
0.74278124
0.55045989
0.42904554
0.34147422
0.27162403
0.22241765
0.17751822
4529031.7
731763.07
224660.14
95305.383
48497.497
27625.055
16967.475
10992.036
7406.9014
5143.5812
3657.4074
2650.7297
1951.595
1456.0659
1098.9169
837.90677
644.93522
500.87189
392.42637
310.1978
247.42778
199.17556
161.77553
132.46272
109.1305
90.185535
74.428324
60.990939
49.300736
39.055893
30.190268
22.803191
17.034124
12.917853
10.276793
8.7950335
8.0137925
7.5817039
7.3186018
7.1519374
7.0378282
6.9781656
6.9785028
6.9966665
7.0047364
6.9971467
6.9737115
6.9242393
6.8344503
6.7932771
7.0131942
8.0141538
8.6216339
7.9427568
5.489072
2.6377503
1.4262983
0.89848827
0.63890025
0.48285807
0.37725318
0.30103339
0.24141215
0.1991065
0.16168734
4529085.9
731771.6
224662.61
95306.243
48497.72
27624.945
16967.146
10991.54
7406.2601
5142.8059
3656.5041
2649.7031
1950.451
1454.8133
1097.5699
836.4865
643.47261
499.40961
391.02085
308.92005
246.36228
198.42634
161.47048
132.76786
110.2459
92.289036
77.61568
65.247007
54.489129
44.894035
36.246037
28.541398
21.93096
16.614325
12.697399
10.100564
8.6650046
7.8893748
7.4577032
7.207136
7.0565292
6.9723132
6.9309014
6.9276227
6.9225549
6.9074691
6.8739492
6.8557323
6.8948939
7.1039464
7.9106398
9.3282022
8.9124107
7.3719831
3.6311257
1.796616
1.039064
0.70879004
0.53659255
0.42325791
0.33561424
0.26821335
0.21660161
0.18030308
0.14924428
4529139.6
731780.28
224665.11
95307.077
48497.89
27624.757
16966.715
10990.914
7405.4592
5141.8373
3655.3687
2648.3993
1948.9768
1453.1683
1095.7569
834.51367
641.35577
497.17492
388.70781
306.58443
244.07873
196.28993
159.59538
131.27895
109.2758
91.997857
78.229555
67.004965
57.525484
49.125633
41.428546
34.263007
27.649129
21.756343
16.813496
12.996491
10.300142
8.7814993
7.9356384
7.4709205
7.2121696
7.0713404
7.0012292
6.9792475
6.9630371
6.9489961
6.9871953
7.0823386
7.346765
8.1359434
10.095973
9.9608011
8.8117287
5.1232838
2.4106806
1.302494
0.84800489
0.62267756
0.47524131
0.37100828
0.2962348
0.2396265
0.19607952
0.16533606
0.13945779
4529196.7
731789.36
224667.71
95307.955
48498.077
27624.571
16966.275
10990.269
7404.6292
5140.827
3654.1759
2647.018
1947.3992
1451.3864
1093.7638
832.30537
638.93271
494.54466
385.8879
303.60592
240.99005
193.16076
156.51962
128.37571
106.68717
89.881059
76.72889
66.260597
57.717726
50.54535
44.236638
38.331403
32.641235
27.17013
22.071397
17.576472
13.887388
11.051895
9.2979642
8.2970745
7.731591
7.4370199
7.285122
7.2426434
7.2558019
7.3330827
7.5167363
7.8993081
8.7729705
10.912062
11.210433
10.236654
6.9578336
3.0823692
1.5216731
0.94248502
0.67573751
0.51663731
0.40999393
0.32961169
0.26549492
0.21601531
0.17872562
0.1528478
0.13141389
4529258.1
731798.96
224670.48
95308.922
48498.335
27624.454
16965.911
10989.708
7403.8907
5139.9163
3653.0901
2645.7492
1945.9365
1449.7173
1091.875
830.18387
636.56708
491.92672
383.01501
300.48408
237.63782
189.61428
152.83861
124.65055
103.0481
86.493509
73.756113
63.855314
56.004327
49.584446
44.141768
39.416363
35.082792
30.864913
26.643961
22.516764
18.683617
15.340661
12.597896
10.581567
9.3218951
8.6307591
8.2618536
8.1980416
8.3103913
8.5852723
9.1344665
9.9716485
11.970548
12.45241
11.619978
8.8061159
3.8299068
1.8616778
1.1095584
0.78189759
0.59364792
0.46629103
0.36677874
0.29182741
0.23699353
0.19585047
0.16480624
0.14302362
0.12496819
4529319.5
731808.77
224673.36
95309.986
48498.69
27624.444
16965.668
10989.285
7403.311
5139.1857
3652.2062
2644.7044
1944.7196
1448.3142
1090.2697
828.35888
634.50409
489.60749
380.4226
297.60454
234.46262
186.14345
149.08458
120.642
98.831386
82.141522
69.412088
59.736463
52.3821
46.716613
42.146636
38.242785
34.719866
31.524136
28.51438
25.569444
22.572508
19.662748
16.991274
14.755212
12.995237
11.785499
11.035801
10.842597
10.953959
11.291106
11.903445
13.415692
13.779075
13.004642
10.482864
4.7606789
2.2815298
1.3037033
0.87630649
0.63976478
0.491806
0.3906448
0.32125609
0.26401793
0.21689243
0.18047873
0.15355946
0.13506719
0.1198377
4529381.2
731818.79
224676.37
95311.14
48499.135
27624.534
16965.539
10988.995
7402.8837
5138.6301
3651.5218
2643.8856
1943.7567
1447.1948
1088.9786
826.87831
632.81381
487.68498
378.24359
295.14403
231.69615
183.04858
145.64293
116.8416
94.667721
77.635391
64.618926
54.748812
47.336105
41.831838
37.788574
34.761149
32.334766
30.07433
27.870592
25.695219
23.679762
21.745741
19.878674
18.117275
16.577504
15.35984
14.542244
13.989284
13.901999
14.116407
15.045367
15.195459
14.398723
11.835937
5.8048004
2.7743544
1.5304553
0.97301331
0.69130272
0.53852223
0.4397935
0.35761102
0.28615241
0.23297655
0.19438161
0.16544307
0.14351414
0.12803342
0.11530304
4529447.3
731829.41
224679.53
95312.367
48499.631
27624.67
16965.455
10988.754
7402.5126
5138.1383
3650.9104
2643.1497
1942.8878
1446.1812
1087.8064
825.53142
631.2744
485.93352
376.25903
292.90404
229.17764
180.22888
142.50122
113.36083
90.838844
73.454827
60.100855
49.920539
42.250967
36.568798
32.449296
29.532635
27.510625
26.114253
25.019334
23.928726
22.697238
21.406502
20.173268
19.0438
17.967404
16.979172
16.147068
15.583659
15.750821
16.706644
16.647473
15.793747
13.079008
6.7853211
3.22317
1.7353753
1.0714649
0.75436756
0.5940845
0.48098815
0.38470846
0.31391671
0.26076979
0.21693921
0.18210398
0.15543722
0.13624897
0.12285759
0.1119048
4529517.1
731840.52
224682.87
95313.669
48500.164
27624.827
16965.384
10988.522
7402.1496
5137.6563
3650.3123
2642.4324
1942.0443
1445.2014
1086.6777
824.23887
629.80147
484.26214
374.36989
290.77671
226.79096
177.56185
139.53482
110.08113
87.241679
69.544831
55.880573
45.405277
37.469131
31.564931
27.288038
24.300182
22.310053
21.058212
20.300298
19.837335
19.451229
19.046417
18.581626
18.019873
17.266158
16.514596
16.571069
17.156742
18.513863
18.181905
17.151713
14.156258
7.5102154
3.642957
1.949705
1.1947658
0.8317933
0.64590882
0.51381018
0.40937798
0.33544076
0.27562874
0.22918493
0.19304339
0.16586287
0.14512932
0.12940373
0.11813823
0.10907268
4529588.1
731851.89
224686.29
95314.987
48500.667
27624.921
16965.224
10988.178
7401.6543
5137.0235
3649.5461
2641.5321
1941.0057
1444.0186
1085.3433
822.74476
628.1385
482.42055
372.33935
288.54654
224.35067
174.90179
136.6468
106.95918
83.882996
65.953611
52.067139
41.385455
33.270457
27.225042
22.850752
19.814679
17.82822
16.636514
15.997088
15.697188
15.526469
15.486034
15.701958
15.931643
16.387703
17.407085
19.221239
20.300258
19.871583
18.425583
14.767531
8.0309067
4.0335363
2.1821445
1.3428692
0.92796903
0.70457405
0.55297401
0.44304603
0.36718151
0.30650297
0.25512632
0.21409229
0.18239164
0.15646385
0.1374887
0.12407142
0.11444469
0.10689622
4529661.3
731863.71
224689.84
95316.364
48501.209
27625.048
16965.095
10987.87
7401.1994
5136.4383
3648.8368
2640.6996
1940.0485
1442.9335
1084.1266
821.39277
626.64793
480.78874
370.56438
286.62728
222.28666
172.69308
134.29415
104.46505
81.252802
63.196006
49.198306
38.427509
30.250121
24.170752
19.787707
16.762523
14.808858
13.773537
13.273932
13.197485
13.497338
14.168736
15.397432
17.164638
19.136551
21.365407
21.863555
21.294376
19.452642
15.072702
8.4891614
4.4211563
2.4205548
1.4912882
1.0186262
0.75635981
0.58696871
0.47287786
0.39317533
0.32526506
0.26793299
0.22560857
0.19249251
0.16600852
0.14701898
0.13167695
0.11991874
0.11138575
0.10503465
4529737.4
731876.01
224693.62
95317.94
48501.985
27625.46
16965.315
10987.973
7401.2271
5136.4105
3648.7648
2640.5892
1939.9023
1442.7521
1083.9089
821.13655
626.34987
480.44469
370.16965
286.17703
221.77627
172.11861
133.65289
103.75562
80.475017
62.350905
48.285738
37.459418
29.245148
23.141575
18.760606
15.78401
13.974052
13.136863
12.942056
13.385189
14.457002
16.198054
18.532351
20.991764
23.037586
23.316365
22.5919
20.368519
15.360381
9.0053037
4.8860208
2.7009282
1.6502461
1.1180616
0.82012013
0.63401676
0.51125509
0.42304413
0.34789626
0.28931117
0.24716696
0.21189102
0.18265985
0.15774983
0.1385101
0.12527654
0.11600418
0.10902137
0.10362691
4529816
731888.75
224697.59
95319.706
48502.978
27626.134
16965.85
10988.452
7401.6933
5136.8893
3649.2724
2641.1365
1940.4968
1443.399
1084.6119
821.89768
627.16977
481.32253
371.10306
287.16195
222.80668
173.18619
134.74661
104.86142
81.575956
63.428256
49.321095
38.430146
30.129791
23.960723
19.558752
16.632105
14.976735
14.365767
14.625381
15.707818
17.5436
19.945535
22.702417
24.801221
24.824056
23.900067
21.299979
15.824563
9.6201724
5.3716793
2.9477115
1.7827355
1.2104704
0.89347253
0.68937985
0.55330158
0.45249499
0.37184193
0.31165494
0.26659545
0.22565623
0.19109556
0.16599273
0.14788472
0.13357532
0.12175283
0.11278934
0.10676277
0.10231999
4529897.8
731902.06
224701.73
95321.592
48504.085
27626.933
16966.532
10989.103
7402.36
5137.601
3650.0487
2641.9919
1941.4428
1444.445
1085.7657
823.16551
628.55677
482.8324
372.73778
288.92154
224.689
175.18667
136.85795
107.07336
83.875329
65.799756
51.749313
40.902463
32.643517
26.515362
22.174562
19.360534
17.882496
17.580609
18.218224
19.753613
22.037086
24.389456
26.769474
26.593955
25.401612
22.308189
16.526752
10.33046
5.847128
3.1944849
1.9552239
1.3497845
1.0026587
0.7642833
0.60027755
0.48408093
0.39700474
0.3353427
0.28468634
0.2391049
0.20508586
0.17951866
0.15821985
0.14018822
0.12668469
0.11754551
0.1105928
0.10530473
0.10130525
4529983.7
731915.9
224706.02
95323.514
48505.18
27627.693
16967.154
10989.677
7402.9345
5138.2066
3650.706
2642.7166
1942.2476
1445.341
1086.763
824.27389
629.7853
484.18979
374.2323
290.56086
226.48002
177.13539
138.96935
109.35138
86.323331
68.420819
54.546866
43.881748
35.816124
29.900607
25.807332
23.295629
22.183144
22.285448
23.212944
24.81323
27.128284
29.174219
28.660456
27.160817
23.499947
17.423649
11.104087
6.3195066
3.4872423
2.1530495
1.4986932
1.1024265
0.82544604
0.64378901
0.52001523
0.43105293
0.3643094
0.30650083
0.25748159
0.22322748
0.19468262
0.1697818
0.15004896
0.13500784
0.12360727
0.11440355
0.10793777
0.10366502
0.10046504
4530071.7
731930.12
224710.43
95325.424
48506.204
27628.337
16967.621
10990.06
7403.2831
5138.5505
3651.0652
2643.1061
1942.6799
1445.8276
1087.315
824.90246
630.50248
485.00845
375.1665
291.62607
227.69321
178.51523
140.53639
111.12845
88.335845
70.697438
57.120049
46.787778
39.095837
33.600439
29.97799
27.985971
27.415
27.819791
28.943827
30.872247
32.127519
31.29265
29.181383
24.777008
18.411056
11.892096
6.8244374
3.8222004
2.3901652
1.6673451
1.2172804
0.91325659
0.71799441
0.57803719
0.47152213
0.39241431
0.32574062
0.27607805
0.23895488
0.20613789
0.17832075
0.15733834
0.14128339
0.12835731
0.11876976
0.11208844
0.10661597
0.1025948
0.09970088
4530163.2
731944.95
224714.98
95327.369
48507.214
27628.938
16968.02
10990.354
7403.5234
5138.7669
3651.2776
2643.3293
1942.9261
1446.1081
1087.6412
825.28662
630.9582
485.55121
375.81417
292.39943
228.61652
179.61676
141.84902
112.69015
90.190083
72.893485
59.713204
49.839008
42.669182
37.756121
34.757515
33.386185
33.361224
33.929533
35.319721
35.115904
33.92488
31.220692
26.171038
19.488602
12.717837
7.3986472
4.2227987
2.6695414
1.8528664
1.345492
1.0164172
0.79730866
0.6309796
0.50780351
0.4208834
0.35326017
0.301559
0.25961243
0.22106122
0.19201812
0.16916266
0.15179199
0.13717654
0.12544577
0.11614596
0.10938762
0.104659
0.10161449
0.099148132
4530257.7
731960.24
224719.69
95329.397
48508.28
27629.584
16968.462
10990.692
7403.8108
5139.0356
3651.5486
2643.6183
1943.2463
1446.4719
1088.0612
825.77657
631.53342
486.22952
376.61654
293.35076
229.74648
180.9607
143.44882
114.59491
92.456207
75.584001
62.889057
53.565249
46.997432
42.703958
40.275512
39.300128
39.338552
39.302136
38.404869
36.431458
33.053905
27.494125
20.521838
13.531099
8.0262782
4.6889936
2.9808032
2.0502781
1.4888922
1.1348555
0.88823812
0.6976382
0.56247297
0.46601862
0.3891846
0.33008547
0.27828207
0.23693143
0.20557312
0.18221689
0.16122079
0.14416245
0.13036136
0.12045493
0.11349521
0.108125
0.10363688
0.10069241
0.098445362
4530355.2
731976.04
224724.59
95331.538
48509.443
27630.327
16969.01
10991.151
7404.2365
5139.4626
3652.0005
2644.1132
1943.7999
1447.0991
1088.7772
826.59794
632.47888
487.32069
377.87885
294.81443
231.44767
182.94268
145.76326
117.29944
95.60685
79.217062
67.044416
58.276506
52.252328
48.413821
46.266062
45.088841
43.775156
41.663243
39.018472
34.928859
28.877348
21.607005
14.440267
8.7812746
5.2439632
3.329175
2.2680253
1.6551077
1.2725503
0.99293985
0.77869995
0.62675836
0.51336983
0.42294788
0.35543031
0.30024375
0.25653271
0.22400619
0.19504996
0.1710727
0.15134172
0.13758245
0.1266966
0.11775173
0.11082329
0.10600402
0.10253338
0.10018918
0.098076188
4530457.6
731992.59
224729.74
95333.816
48510.713
27631.175
16969.672
10991.737
7404.809
5140.0588
3652.6468
2644.8307
1944.6074
1448.0147
1089.8201
827.78886
633.84115
488.88121
379.6691
296.87117
233.813
185.66303
148.88572
120.86984
99.66703
83.800827
72.140422
63.806911
58.076782
54.206156
51.328602
48.519041
45.434454
41.928883
36.970161
30.344426
22.763483
15.442781
9.6249676
5.8467765
3.7009546
2.5131353
1.8500461
1.4290178
1.1119786
0.87304964
0.70188362
0.56888446
0.46728063
0.39277112
0.33288931
0.28476762
0.2441414
0.20979628
0.18209065
0.16269031
0.14694704
0.13392818
0.12300158
0.11535734
0.10955986
0.1048896
0.10142988
0.099383194
0.097571255
4530563.2
732009.75
224735.11
95336.221
48512.084
27632.126
16970.445
10992.451
7405.5269
5140.8219
3653.4846
2645.7672
1945.6645
1449.2139
1091.1838
829.34124
635.60886
490.89367
381.9582
299.47082
236.75823
188.98779
152.61971
125.03176
104.25654
88.795412
77.421213
69.141864
63.034221
58.150069
53.797274
49.640119
45.065663
39.162606
31.945711
24.066767
16.594114
10.591514
6.5401699
4.1455026
2.8156569
2.0765814
1.5980235
1.242362
0.98163266
0.78883219
0.63668819
0.52161055
0.43579905
0.36488925
0.30892306
0.26262152
0.22534701
0.19745892
0.17536844
0.15663848
0.14045531
0.12833611
0.11908053
0.11259507
0.1073533
0.10383845
0.10087221
0.099022725
0.09728438
4530672.5
732027.51
224740.68
95338.745
48513.551
27633.17
16971.32
10993.278
7406.375
5141.734
3654.4925
2646.8972
1946.9404
1450.6593
1092.8225
831.19833
637.71085
493.26814
384.63304
302.47214
240.10653
192.69199
156.66805
129.37881
108.8058
93.377221
81.832861
73.022868
65.976849
59.986519
54.463839
48.578883
41.679747
33.840637
25.626951
17.947455
11.703858
7.3410258
4.6700161
3.1654764
2.3230612
1.7832672
1.3971733
1.114279
0.89393069
0.71808368
0.58660076
0.48470502
0.40366102
0.34171172
0.29241576
0.25127737
0.21717907
0.18976493
0.16564862
0.14882352
0.13517888
0.12580829
0.11727761
0.11136529
0.10609957
0.10258266
0.10008236
0.098473513
0.096895631
4530784.7
732045.85
224746.46
95341.385
48515.107
27634.295
16972.278
10994.196
7407.3231
5142.7581
3655.6262
2648.168
1948.3734
1452.2784
1094.652
833.26237
640.03336
495.87155
387.5358
305.68492
243.62641
196.49417
160.69511
133.52794
112.91565
97.216761
85.096417
75.44914
67.375923
60.101528
52.674766
44.665634
36.119645
27.493733
19.533508
12.994856
8.2886139
5.3066381
3.5841222
2.6090508
1.9999865
1.5772976
1.2605778
1.0075507
0.809591
0.66098865
0.5438674
0.45133649
0.38139964
0.32274196
0.27482756
0.23497188
0.20304928
0.17845705
0.15966033
0.14541122
0.13209501
0.12243663
0.11419647
0.10904501
0.10508481
0.10192246
0.099552973
0.098144461
0.096724638
4530901
732061.44
224749.59
95341.915
48515.106
27634.251
16972.342
10994.421
7407.7304
5143.3611
3656.4351
2649.1934
1949.6269
1453.7728
1096.4005
835.2781
642.32707
498.44897
390.39372
308.8055
246.96991
199.99024
164.23369
136.95191
116.0192
99.754353
86.809066
76.115891
66.622417
57.465202
48.237828
38.902091
29.782015
21.462971
14.562123
9.4550647
6.0973779
4.0923507
2.9449725
2.2496333
1.7804936
1.4267586
1.1451948
0.9262677
0.75514561
0.61692199
0.50973582
0.4260636
0.35832204
0.30460626
0.26235389
0.22599629
0.19710047
0.17362979
0.15436609
0.13952835
0.12731133
0.11960093
0.11284442
0.10767473
0.10363845
0.10122694
0.099109721
0.097760356
0.096486545
4531685.4
732195.54
224794.74
95363.332
48527.284
27642.079
16977.857
10998.608
7411.1208
5146.2667
3659.0527
2651.6547
1952.0246
1456.1744
1098.8561
837.82337
644.98441
501.22592
393.27963
311.76657
249.94307
202.87718
166.89694
139.21607
117.68393
100.61556
86.588299
74.388157
63.192136
52.508016
42.185486
32.40751
23.605385
16.269577
10.723723
6.9631146
4.6500608
3.3145369
2.5236726
2.0017144
1.6098737
1.2989146
1.0527822
0.85444875
0.6956964
0.57432017
0.47836127
0.40055244
0.340974
0.29056041
0.24870383
0.21356682
0.18571731
0.16468207
0.14769325
0.13580966
0.12529832
0.11769378
0.11109561
0.10681153
0.10277898
0.1004262
0.09868187
0.097402139
0.096382539
4531684.6
732191.86
224791.78
95361.171
48525.825
27641.128
16977.287
10998.341
7411.1126
5146.49
3659.4921
2652.302
1952.8756
1457.2262
1100.1043
839.25923
646.59077
502.97261
395.11802
313.62382
251.71692
204.43344
168.07416
139.82255
117.46707
99.23977
83.804089
70.180556
57.734803
46.179006
35.548697
26.121002
18.262598
12.230342
8.0259069
5.3576752
3.7849027
2.8572784
2.2579391
1.8193345
1.4757182
1.200231
0.97642291
0.79803306
0.65723882
0.54301033
0.45232455
0.38090597
0.32259582
0.27519548
0.23849459
0.20626321
0.18073472
0.16097178
0.14458373
0.13249574
0.12178572
0.11472194
0.10887829
0.10531253
0.10208699
0.099972252
0.098264733
0.097101287
0.096257952
4531684.8
732191.98
224791.9
95361.336
48526.04
27641.398
16977.617
10998.738
7411.5835
5147.0413
3660.13
2653.0316
1953.6999
1458.1445
1101.1101
840.33759
647.71477
504.09953
396.1855
314.54731
252.38549
204.70102
167.74537
138.66414
115.27703
95.920809
79.365279
64.772419
51.671833
39.922499
29.633969
21.036666
14.321976
9.4944485
6.3139584
4.3845941
3.2497661
2.5462382
2.056216
1.6784043
1.3710571
1.118215
0.91379311
0.74867087
0.61564986
0.51210269
0.42962017
0.36206641
0.30973172
0.26515636
0.22791272
0.19632894
0.17271808
0.15395502
0.13929434
0.12850651
0.11961962
0.11363105
0.10788679
0.10427578
0.10124361
0.099484593
0.097940358
0.096871689
0.096108102
4531684.9
732192.06
224791.96
95361.407
48526.132
27641.516
16977.765
10998.92
7411.802
5147.3003
3660.4317
2653.3764
1954.0849
1458.5621
1101.5459
840.76724
648.10093
504.38778
396.29931
314.38101
251.80351
203.5502
165.87782
135.96288
111.67305
91.425434
74.101651
58.991998
45.740954
34.269811
24.664683
17.038964
11.403851
7.564009
5.1692453
3.7582931
2.9131571
2.3503681
1.9239081
1.5763273
1.2898188
1.056073
0.86568577
0.71223934
0.58973014
0.49034824
0.41073881
0.34745918
0.29595773
0.2535349
0.22119358
0.19164778
0.16809261
0.15080575
0.13731939
0.12666667
0.11767966
0.11192594
0.10675726
0.10356738
0.10073421
0.09911449
0.097680377
0.09669346
0.096024595
4531686.1
732192.16
224791.96
95361.383
48526.101
27641.482
16977.728
10998.882
7411.7647
5147.2632
3660.3933
2653.3324
1954.0268
1458.4755
1101.4077
840.5434
647.74308
503.83096
395.46126
313.16549
250.10595
201.26563
162.91693
132.27374
107.26667
86.399393
68.653011
53.409655
40.370829
29.455485
20.677217
14.019168
9.3295025
6.2937246
4.4616687
3.3764348
2.6891797
2.1959819
1.8061502
1.486162
1.2209762
1.0015271
0.82253138
0.67744814
0.56046748
0.46838732
0.39435775
0.33378836
0.28667685