/*--------------------------------*- C++ -*----------------------------------*\
  =========                 |
  \\      /  F ield         | OpenFOAM: The Open Source CFD Toolbox
   \\    /   O peration     | Website:  https://openfoam.org
    \\  /    A nd           | Version:  13
     \\/     M anipulation  |
\*---------------------------------------------------------------------------*/
FoamFile
{
    format      ascii;
    class       volVectorField;
    location    "47.901194";
    object      wallShearStress;
}
// * * * * * * * * * * * * * * * * * * * * * * * * * * * * * * * * * * * * * //

dimensions      [0 2 -2 0 0 0 0];

internalField   uniform (0 0 0);

boundaryField
{
    inlet
    {
        type            calculated;
        value           uniform (0 0 0);
    }
    outlet
    {
        type            calculated;
        value           uniform (0 0 0);
    }
    cylinder
    {
        type            calculated;
        value           nonuniform List<vector> 
132
(
(-2.0604978e-06 0.00043494872 -3.1175368e-22)
(-6.6254887e-07 0.00011372656 8.9132607e-23)
(1.9589711e-05 -0.0002218672 4.9389387e-21)
(5.9446444e-05 -0.00056737949 -1.6627778e-20)
(0.00012043578 -0.00091639812 1.1773495e-20)
(0.00020222961 -0.0012619615 3.6081433e-20)
(0.00030399418 -0.0015965255 -6.8562619e-21)
(0.00042390987 -0.001912218 -2.7240741e-20)
(0.00055927155 -0.0022011241 2.5750045e-20)
(0.00070646714 -0.0024556655 -5.7903989e-20)
(0.0008610007 -0.002669013 -1.0567894e-21)
(0.0010177248 -0.0028355505 3.6190138e-20)
(0.0011710958 -0.0029512557 5.9202548e-20)
(0.0013155538 -0.0030141514 -4.8236761e-20)
(0.0014459237 -0.003024541 5.0947026e-20)
(0.001557934 -0.0029852741 8.2244936e-20)
(0.0016487623 -0.0029018589 -5.4048026e-20)
(0.0017173491 -0.0027819786 8.6933753e-20)
(0.0017651536 -0.00263576 1.1523236e-19)
(0.0017965019 -0.0024751519 -7.4918276e-20)
(0.0018185967 -0.0023129441 -9.5683541e-20)
(0.0018421756 -0.0021627235 3.372001e-23)
(0.001880545 -0.0020368827 1.3927535e-20)
(0.0019496206 -0.0019462439 -1.6698749e-20)
(0.0020656503 -0.0018975938 -2.8444052e-20)
(0.0022417045 -0.0018911321 6.0902692e-21)
(0.0024867444 -0.0019213383 -5.5043199e-20)
(0.0027957882 -0.0019715681 1.4719252e-20)
(0.0031524564 -0.0020200753 1.1566506e-20)
(0.0035313885 -0.0020446365 -7.9704772e-20)
(0.00389449 -0.0020226931 1.0404877e-19)
(0.0041977444 -0.0019376336 3.150061e-21)
(0.0043847762 -0.0017773827 2.2712802e-20)
(0.0043655938 -0.0015298699 -2.6916463e-20)
(0.0040177832 -0.0011921346 8.5503699e-20)
(0.0031740911 -0.00077575321 -5.4029411e-21)
(0.001648831 -0.00032388806 2.1752686e-20)
(-0.00078359221 8.5553353e-05 -2.9767316e-21)
(-0.0043266404 0.00032598064 4.2472699e-21)
(-0.0090623856 0.00020847124 -2.6292195e-21)
(-0.015384881 -0.00050697542 4.8591497e-21)
(-0.023129184 -0.0021448054 -1.4791563e-22)
(-0.031548693 -0.0048489923 5.3488173e-20)
(-0.040193379 -0.0086776371 -2.0329048e-20)
(-0.048473607 -0.013564006 1.8112771e-20)
(-0.055919335 -0.019348279 -1.1510151e-19)
(-0.062118753 -0.025779619 -1.840893e-20)
(-0.066832475 -0.032584371 1.607604e-19)
(-0.069884926 -0.039451833 -1.3684954e-19)
(-0.071259128 -0.046101137 -2.61939e-21)
(-0.070961417 -0.052234303 4.2140544e-20)
(-0.069154211 -0.057643279 -3.9113359e-20)
(-0.065924813 -0.062057295 -7.9624112e-21)
(-0.06151518 -0.065337523 -5.5121243e-21)
(-0.056182387 -0.067390379 -1.1243683e-20)
(-0.050093505 -0.06804195 1.2129679e-21)
(-0.043542385 -0.067293618 4.127462e-22)
(-0.03676254 -0.065111678 4.1378277e-20)
(-0.030002548 -0.061528542 -6.7971084e-20)
(-0.023495527 -0.056606884 -7.5189212e-20)
(-0.01745859 -0.050443784 -3.117283e-20)
(-0.01208862 -0.043169482 -7.2448611e-20)
(-0.0075569114 -0.034941221 1.6317071e-20)
(-0.0040036994 -0.025941129 2.3903034e-20)
(-0.001543449 -0.016385929 -3.7335763e-20)
(-0.000237356 -0.0064530844 -5.0062849e-21)
(1.3858847e-05 0.00073972166 -1.4277577e-21)
(4.5438779e-05 0.0010290869 -8.4632716e-23)
(9.2759889e-05 0.0013004794 -4.8322486e-21)
(0.00015395016 0.0015487143 1.6108304e-20)
(0.00022702696 0.0017692926 -1.1300037e-20)
(0.00030953701 0.001958294 -3.4307608e-20)
(0.00039865849 0.0021126688 6.4581818e-21)
(0.00049130984 0.0022303214 2.5419319e-20)
(0.00058430934 0.0023103105 -2.3804826e-20)
(0.00067453289 0.0023528834 5.3038224e-20)
(0.00075911534 0.0023595831 9.5938089e-22)
(0.00083562302 0.0023331657 -3.2561692e-20)
(0.00090227052 0.0022776742 -5.2816128e-20)
(0.00095815689 0.0021982539 4.2685601e-20)
(0.0010034061 0.0021010457 -4.4740455e-20)
(0.0010393032 0.001992918 -7.1713743e-20)
(0.0010684273 0.0018812317 4.6820899e-20)
(0.0010948646 0.0017737737 -7.4867965e-20)
(0.0011241017 0.001678143 -9.8723722e-20)
(0.0011635824 0.0016022155 6.3896768e-20)
(0.0012223333 0.0015531418 8.1297384e-20)
(0.0013117246 0.0015380327 7.2705965e-20)
(0.0014443007 0.0015620516 5.9669484e-20)
(0.0016332866 0.0016279265 1.4084208e-20)
(0.0018894983 0.0017332788 2.3961923e-20)
(0.0022161677 0.0018674186 -5.1273275e-21)
(0.0026074751 0.0020129992 4.6333176e-20)
(0.0030438388 0.0021455185 -1.2392749e-20)
(0.0034940051 0.0022385956 -9.7432602e-21)
(0.0039223442 0.0022711079 6.7188295e-20)
(0.0042998631 0.0022335273 -8.7785642e-20)
(0.004600442 0.0021237998 -2.6452326e-21)
(0.0047761814 0.0019362615 4.3719019e-20)
(0.004731894 0.0016584108 2.2828428e-20)
(0.0043345437 0.0012862765 -7.2758478e-20)
(0.0034049342 0.0008323227 4.617735e-21)
(0.0017498163 0.00034394424 1.3632515e-20)
(-0.00086170572 -9.4762491e-05 2.5747401e-21)
(-0.0046269683 -0.00034891 -3.7004085e-21)
(-0.0096142027 -0.00022173223 2.3084351e-21)
(-0.01621359 0.00053358513 -4.3002706e-21)
(-0.024207585 0.0022439614 3.4774443e-20)
(-0.032812909 0.0050422612 -4.795634e-20)
(-0.04156751 0.0089730291 1.8296553e-20)
(-0.049845034 0.013946395 -1.6330845e-20)
(-0.057209883 0.019793357 1.0374351e-19)
(-0.063257692 0.026250351 1.6546341e-20)
(-0.067765536 0.033037279 -1.4372909e-19)
(-0.070580795 0.039842588 1.2129744e-19)
(-0.071706538 0.046388437 2.292033e-21)
(-0.071148963 0.05237012 -3.6151858e-20)
(-0.069116871 0.057609902 3.2557697e-20)
(-0.065655833 0.061801392 -5.0565649e-20)
(-0.061046094 0.064836752 3.884555e-21)
(-0.055574951 0.066658867 -7.3082063e-21)
(-0.049357085 0.067038324 3.8508216e-21)
(-0.042725794 0.066027801 -6.7143029e-22)
(-0.035902008 0.063583016 -5.2580746e-20)
(-0.029136779 0.059747483 7.9072695e-20)
(-0.022661288 0.054589862 8.3508886e-20)
(-0.016689549 0.048212163 3.3627284e-20)
(-0.011415264 0.040750983 7.6564348e-20)
(-0.0070049719 0.032366957 -1.6974981e-20)
(-0.0035937858 0.023247709 4.8685096e-20)
(-0.0012905658 0.013603428 3.7914161e-20)
(-0.00015459513 0.0036466269 5.0345327e-21)
)
;
    }
    frontAndBack
    {
        type            empty;
    }
}


// ************************************************************************* //
