/*--------------------------------*- C++ -*----------------------------------*\
  =========                 |
  \\      /  F ield         | OpenFOAM: The Open Source CFD Toolbox
   \\    /   O peration     | Website:  https://openfoam.org
    \\  /    A nd           | Version:  13
     \\/     M anipulation  |
\*---------------------------------------------------------------------------*/
FoamFile
{
    format      ascii;
    class       volScalarField;
    location    "42.701638";
    object      omega;
}
// * * * * * * * * * * * * * * * * * * * * * * * * * * * * * * * * * * * * * //

dimensions      [0 0 -1 0 0 0 0];

internalField   nonuniform List<scalar> 
17140
(
4528389.9
731657.66
224626.36
95289.488
48487.725
27617.64
16960.881
10985.519
7400.0375
5136.0955
3649.099
2641.4372
1941.1801
1444.4061
1085.9038
823.44731
628.95682
483.32953
373.31228
289.55249
225.3516
175.84926
137.47851
107.59534
84.222685
65.871112
51.411703
39.985122
30.936153
23.766263
18.098585
13.650378
10.208314
7.6034094
5.6874502
4.3188542
3.3637534
2.7063107
2.256454
1.9499469
1.7434245
1.6083865
1.5285666
1.492374
1.483382
1.4999386
1.5398743
1.5999032
1.6777717
1.7720663
1.8818693
2.0054968
2.1383348
2.2755085
2.4169988
2.5650997
2.7231385
2.9096932
3.1464202
3.5638027
4.0364951
3.7680473
3.6005568
3.4394833
3.008582
4528420.9
731663.27
224628.42
95290.545
48488.356
27618.055
16961.171
10985.73
7400.1963
5136.2169
3649.1925
2641.5093
1941.2351
1444.4472
1085.9333
823.46686
628.9677
483.33272
373.30855
289.54242
225.33564
175.82776
137.45173
107.56347
84.185897
65.829603
51.365757
39.935211
30.883051
23.711179
18.043255
13.597056
10.159522
7.5613896
5.65351
4.2930483
3.3451275
2.6934791
2.2480794
1.9449542
1.7410325
1.6080659
1.5301352
1.4953796
1.4875142
1.5053371
1.5465622
1.6080122
1.6875727
1.7840299
1.896755
2.0243752
2.1624943
2.3066033
2.4568258
2.614318
2.7790108
2.9581265
3.1622391
3.4573725
3.7489948
3.7179663
3.562327
3.2885352
3.0144543
4528451.2
731668.24
224629.96
95291.198
48488.69
27618.244
16961.286
10985.804
7400.2449
5136.2496
3649.2146
2641.524
1941.2447
1444.4529
1085.9361
823.46745
628.96647
483.32994
373.30436
289.53687
225.32869
175.81927
137.44152
107.5513
84.171503
65.812733
51.346229
39.912979
30.8583
23.684412
18.01536
13.569297
10.133409
7.5383576
5.6345327
4.2784143
3.3345385
2.6863344
2.2437376
1.9428771
1.7408296
1.6094887
1.5331856
1.4997138
1.493052
1.5124049
1.5553405
1.6188435
1.7010156
1.8009617
1.9185027
2.0526655
2.1992526
2.3545404
2.5193725
2.6933949
2.8717905
3.0518618
3.2365162
3.4263444
3.5853619
3.5782885
3.4394721
3.19033
3.0714655
4528483
731673.42
224631.57
95291.881
48489.038
27618.443
16961.41
10985.885
7400.3002
5136.289
3649.2438
2641.5466
1941.2629
1444.4684
1085.9499
823.48024
628.97884
483.34229
373.31693
289.5498
225.34198
175.83284
137.45516
107.56471
84.184282
65.824429
51.356371
39.921137
30.864151
23.687809
18.016391
13.568306
10.130934
7.5350617
5.6310942
4.2754014
3.33233
2.6851257
2.2436032
1.9438434
1.7429186
1.6127528
1.5378346
1.5055502
1.5002212
1.5214622
1.5666659
1.63305
1.7190377
1.8242144
1.9490556
2.0930333
2.2521206
2.424129
2.6111837
2.8105839
3.0109529
3.1975133
3.3749232
3.4996514
3.5613981
3.4838384
3.3462127
3.2129956
3.1628244
4528516.9
731678.92
224633.26
95292.597
48489.402
27618.653
16961.542
10985.973
7400.3635
5136.3369
3649.2822
2641.5793
1941.2923
1444.4962
1085.9773
823.50812
629.00787
483.37293
373.34951
289.5845
225.37886
175.87182
137.496
107.60704
84.22759
65.868069
51.399591
39.963109
30.904007
23.724675
18.04942
13.596742
10.154246
7.5531305
5.6443598
4.2848069
3.3390408
2.6902276
2.247952
1.9480649
1.7474821
1.6180473
1.5443097
1.5131416
1.5093726
1.5329828
1.5811889
1.651538
1.7429183
1.8556119
1.990979
2.1488366
2.3255047
2.5217555
2.7415615
2.978649
3.2094418
3.4080752
3.5756116
3.6595022
3.6516212
3.5151657
3.3851043
3.3564416
3.2919151
4528552.1
731684.59
224635
95293.338
48489.783
27618.874
16961.682
10986.07
7400.4352
5136.3935
3649.3301
2641.6223
1941.3332
1444.5368
1086.019
823.55185
629.05439
483.42282
373.40316
289.64217
225.44063
175.93761
137.56556
107.67991
84.303134
65.945438
51.477743
40.040808
30.979824
23.796987
18.11643
13.656574
10.20522
7.5942338
5.6757059
4.307685
3.3554359
2.7021816
2.2571723
1.9558404
1.7547712
1.6256433
1.5529547
1.5228646
1.5209862
1.5475945
1.5997615
1.675492
1.7743347
1.8975575
2.0475893
2.2242344
2.4251865
2.6565813
2.9249301
3.2184401
3.4953106
3.7065117
3.8491191
3.9019732
3.8486475
3.6642348
3.5405359
3.5852009
3.4276729
4528588.7
731690.44
224636.79
95294.104
48490.18
27619.107
16961.832
10986.176
7400.5151
5136.4589
3649.3876
2641.676
1941.3859
1444.5905
1086.0751
823.61166
629.11869
483.49227
373.47825
289.72321
225.52777
176.03078
137.66448
107.78409
84.411796
66.057551
51.59198
40.155529
31.093038
23.906315
18.219098
13.749538
10.285581
7.6599932
5.7265544
4.3451977
3.3824136
2.7216647
2.2717781
1.967573
1.765106
1.6358782
1.5640039
1.5353419
1.5357291
1.5661244
1.6234999
1.7064696
1.8155158
1.953268
2.1231438
2.3245066
2.5594751
2.842854
3.1850378
3.5672734
3.9161082
4.139041
4.241134
4.2385301
4.1327111
3.9480259
3.8576938
3.8254452
3.5397614
4528626.6
731696.5
224638.64
95294.898
48490.593
27619.351
16961.992
10986.289
7400.6034
5136.5332
3649.4546
2641.7401
1941.4502
1444.6571
1086.1456
823.68726
629.20044
483.58094
373.57444
289.8273
225.63997
176.15105
137.79258
107.91945
84.553569
66.204543
51.742612
40.307783
31.244388
24.053644
18.358659
13.8771
10.396966
7.7520998
5.7985033
4.3987255
3.4210862
2.7495414
2.2924456
1.9838216
1.779013
1.6492709
1.5781553
1.5509825
1.5544639
1.58966
1.6538809
1.7465502
1.8694815
2.0270988
2.2229929
2.4569212
2.7413551
3.1037686
3.5615623
4.0883133
4.5499681
4.7890748
4.8281285
4.7114798
4.5092246
4.2924671
4.1885617
4.0513296
3.5330856
4528664.7
731702.75
224640.57
95295.724
48491.021
27619.605
16962.16
10986.411
7400.6998
5136.6158
3649.5305
2641.8141
1941.5253
1444.7357
1086.2295
823.77776
629.29868
483.68781
373.69062
289.95329
225.77604
176.29725
137.94866
108.08487
84.727429
66.385531
51.928947
40.497127
31.433735
24.239192
18.535738
14.040309
10.540802
7.872237
5.8932922
4.4698686
3.4728005
2.786893
2.3200423
2.0053147
1.7971565
1.6664691
1.5961108
1.5707004
1.5782315
1.619643
1.6928928
1.7985675
1.9404136
2.1248871
2.353904
2.6327382
2.9919822
3.4772501
4.1181011
4.8707117
5.5091256
5.7916819
5.7239121
5.3958489
5.0215878
4.7156598
4.5567896
4.239607
3.1796394
4528704.9
731709.26
224642.57
95296.582
48491.467
27619.871
16962.337
10986.541
7400.8037
5136.7061
3649.6147
2641.897
1941.6102
1444.8252
1086.3254
823.88164
629.41174
483.81105
373.82485
290.0991
225.93381
176.46711
138.13044
108.27808
84.931167
66.598437
52.149109
40.721967
31.659858
24.46221
18.750144
14.239596
10.718144
8.0219563
6.0127334
4.5604265
3.5391514
2.8350462
2.3556602
2.032985
1.82039
1.6883084
1.618849
1.5956608
1.6084834
1.6580442
1.7432844
1.8664912
2.0341776
2.2541255
2.525547
2.870702
3.3458148
4.0231367
4.9458897
6.0087707
6.8764066
7.075701
6.7463106
6.2087715
5.6534409
5.2181618
4.9199242
4.2721485
2.3124939
4528746.8
731716
224644.65
95297.474
48491.931
27620.149
16962.522
10986.678
7400.9143
5136.8031
3649.7058
2641.9874
1941.7034
1444.9238
1086.4314
823.9967
629.53719
483.94803
373.97426
290.26168
226.11005
176.65726
138.33445
108.49554
85.161255
66.839821
52.399845
40.979349
31.920226
24.720728
19.000615
14.474531
10.929436
8.2024904
6.1585881
4.6723421
3.6219762
2.8955981
2.4006564
2.0680224
1.8498452
1.7160167
1.6475752
1.6274293
1.6472522
1.7076451
1.8089933
1.9560815
2.1592017
2.4244415
2.7542961
3.2022324
3.8578287
4.8287005
6.1413823
7.496094
7.8632167
7.6066169
7.0429697
6.4564993
5.9015886
5.4557984
4.8417149
3.1425058
1.2198499
4528789.6
731722.95
224646.8
95298.396
48492.414
27620.437
16962.716
10986.821
7401.0304
5136.9054
3649.8024
2642.0834
1941.8028
1445.0291
1086.5448
824.12
629.67182
484.09522
374.13507
290.43694
226.30041
176.8631
138.55588
108.73232
85.412698
67.104725
52.676342
41.264743
32.210755
25.011291
19.284525
14.743502
11.174209
8.4144804
6.3323641
4.8075846
3.7233147
2.9704285
2.4566956
2.1119316
1.8869597
1.7510319
1.6841321
1.6682182
1.6974641
1.772525
1.8959148
2.0761451
2.3278906
2.6507717
3.0695263
3.6796963
4.614903
6.0095751
7.7153206
8.3684832
8.1472158
7.3774523
5.980891
5.0363823
4.4911431
4.013879
2.7759794
1.3014296
0.56537535
4528834.7
731730.22
224649.04
95299.354
48492.914
27620.737
16962.917
10986.97
7401.1509
5137.0114
3649.9024
2642.183
1941.9057
1445.1383
1086.6625
824.24801
629.8117
484.24831
374.30254
290.61978
226.4994
177.07882
138.78863
108.98205
85.678976
67.386564
52.972089
41.571864
32.525578
25.328677
19.59755
15.043353
11.450689
8.6576033
6.535007
4.9679441
3.8453106
3.0616856
2.5257964
2.166631
1.9336727
1.7954581
1.7309406
1.7212242
1.7634832
1.8589275
2.0133167
2.2408428
2.5588216
2.9612105
3.5236775
4.3925607
5.7585333
7.6815337
8.8189359
8.614285
7.7355456
5.5711605
3.5033447
2.3142346
1.7863606
1.4558731
1.0004046
0.55930254
0.31445259
4528880.1
731737.64
224651.33
95300.34
48493.43
27621.045
16963.123
10987.122
7401.2737
5137.1191
3650.0037
2642.2834
1942.0093
1445.248
1086.7806
824.37646
629.95213
484.40215
374.47104
290.80407
226.70043
177.29736
139.02522
109.23692
85.95198
67.677053
53.278752
41.892507
32.85683
25.665621
19.933335
15.368976
11.755337
8.930093
6.7664637
5.1547015
3.99002
3.1717221
2.6103656
2.2345673
1.9926166
1.8522521
1.7914365
1.7912744
1.8520919
1.9768557
2.1765418
2.4741458
2.8816793
3.4097795
4.2120524
5.5018261
7.5041385
9.2210145
9.1610646
8.3725196
5.9537253
3.2492021
1.8482151
1.1905564
0.84718668
0.65204359
0.46600734
0.32258611
0.22892979
4528926.9
731745.29
224653.7
95301.362
48493.962
27621.363
16963.334
10987.276
7401.3972
5137.2264
3650.1036
2642.3818
1942.1102
1445.3544
1086.895
824.50069
630.0879
484.55096
374.63425
290.98291
226.89602
177.51067
139.25703
109.48779
86.22213
67.966268
53.586199
42.216505
33.194535
26.012619
20.283196
15.712915
12.082359
9.228175
7.0251148
5.3681489
4.1590896
3.3029486
2.7132063
2.3188558
2.0674298
1.9258342
1.8705521
1.8860323
1.9743051
2.143104
2.4122747
2.8168236
3.3508555
4.1013364
5.3146153
7.2928425
9.5146613
9.7461274
9.0889713
6.8837594
3.5968957
1.8921856
1.1166594
0.73749077
0.52787774
0.39977125
0.30181116
0.24183861
0.19358832
4528977.9
731753.49
224656.19
95302.426
48494.514
27621.69
16963.55
10987.432
7401.5199
5137.3312
3650.1996
2642.4751
1942.2049
1445.4536
1087.001
824.61555
630.21329
484.68841
374.78519
291.14866
227.07784
177.70973
139.47438
109.72433
86.47851
68.24278
53.882605
42.531802
33.526622
26.357872
20.635962
16.065078
12.42326
9.5454898
7.3071172
5.6069616
4.3532829
3.4575853
2.8374971
2.4234276
2.1630765
2.0222279
1.9773482
2.0177273
2.1488341
2.3872541
2.768619
3.3303343
4.0751914
5.2401259
7.1647221
9.7690276
10.322261
9.8071611
8.0181839
4.2252092
2.1696651
1.2205834
0.76453964
0.53036404
0.39245884
0.30518881
0.24061295
0.2055032
0.16844978
4529031.7
731762
224658.79
95303.533
48495.086
27622.026
16963.768
10987.587
7401.6396
5137.431
3650.289
2642.5602
1942.2899
1445.5415
1087.0942
824.71593
630.32257
484.80813
374.91677
291.2935
227.2373
177.88516
139.66709
109.93555
86.709352
68.494098
54.154852
42.82479
33.839191
26.687452
20.978033
16.412629
12.766561
9.8726642
7.60582
5.8675237
4.5718918
3.6373393
2.9868681
2.5537211
2.2866777
2.151155
2.1267513
2.2075464
2.4092437
2.7641068
3.3323368
4.1217812
5.2800328
7.2037294
10.043899
10.915877
10.505013
8.983433
5.1484923
2.6193076
1.4060019
0.84947199
0.5751203
0.42233311
0.32253738
0.25618763
0.20258936
0.17416808
0.14603838
4529085.9
731770.69
224661.46
95304.675
48495.673
27622.369
16963.988
10987.74
7401.7542
5137.5234
3650.3689
2642.6338
1942.3614
1445.6138
1087.1697
824.7965
630.40979
484.90346
375.02163
291.40928
227.36543
178.02712
139.82441
110.1098
86.902068
68.706733
54.388599
43.080371
34.116534
26.985262
21.293257
16.739897
13.097782
10.196994
7.9111421
6.1432112
4.8121004
3.8430313
3.1654146
2.7169389
2.4490563
2.3299696
2.3443317
2.493796
2.8195873
3.3789749
4.2334689
5.4322702
7.3897871
10.388848
11.545475
11.218034
9.9228189
6.2711203
3.1151112
1.5853642
0.91722368
0.6067232
0.44289301
0.33886316
0.26339834
0.20938256
0.16945313
0.15213727
0.1325374
4529139.6
731779.57
224664.2
95305.84
48496.271
27622.716
16964.207
10987.888
7401.8617
5137.6062
3650.4368
2642.693
1942.416
1445.6669
1087.2234
824.85244
630.46953
484.96837
375.09303
291.48853
227.45396
178.12647
139.9363
110.23607
87.044686
68.867718
54.569906
43.283691
34.343003
27.235046
21.565016
17.030156
13.400342
10.502989
8.2099372
6.4244746
5.068902
4.0747067
3.3784984
2.9243788
2.6695088
2.5894109
2.6736397
2.9533371
3.5036931
4.4170271
5.7052617
7.7206094
10.858815
12.233829
11.963063
10.8419
7.4090759
3.6248837
1.823758
1.0407404
0.68604016
0.49008258
0.36534861
0.28071494
0.21969881
0.18018992
0.15339553
0.13796689
0.12069645
4529196.7
731788.84
224667.05
95307.049
48496.889
27623.069
16964.426
10988.032
7401.9609
5137.6777
3650.4906
2642.7353
1942.4509
1445.6972
1087.2511
824.87919
630.49665
484.99705
375.12445
291.52395
227.49476
178.17425
139.99288
110.30355
87.125393
68.964208
54.684878
43.419822
34.502677
27.419964
21.7757
17.265381
13.656614
10.774241
8.4878846
6.7003504
5.3364174
4.3332407
3.6353695
3.1959402
2.9826035
2.9851097
3.2017622
3.7343417
4.6922694
6.1152242
8.2074265
11.456196
12.998437
12.76632
11.741321
8.5203749
4.1910791
2.1221332
1.2071635
0.77512266
0.54026708
0.40193253
0.31081298
0.24496838
0.19731442
0.16466404
0.13821754
0.12611488
0.11129823
4529258.1
731798.61
224670.03
95308.306
48497.526
27623.429
16964.644
10988.17
7402.0505
5137.7362
3650.5283
2642.7584
1942.4634
1445.7018
1087.2496
824.87311
630.48704
484.98489
375.11073
291.5097
227.48122
178.16287
139.98545
110.30228
87.133024
68.983949
54.720379
43.475019
34.581486
27.525652
21.910613
17.430663
13.851626
10.996221
8.7321899
6.9617794
5.6118198
4.625143
3.9558098
3.5704609
3.4561486
3.6105453
4.1082078
5.1069527
6.6717423
8.8905588
12.168123
13.848724
13.632902
12.66546
9.600596
4.8147084
2.4829847
1.3967333
0.86861707
0.59511707
0.44043888
0.3383138
0.26543725
0.21194545
0.17215897
0.14393071
0.12556966
0.11641872
0.10531538
4529319.5
731808.54
224673.08
95309.596
48498.176
27623.792
16964.859
10988.301
7402.1292
5137.7806
3650.5486
2642.7609
1942.452
1445.679
1087.2173
824.8323
630.43872
484.92987
375.04982
291.44384
227.41155
178.09083
139.91285
110.23137
87.066495
68.925049
54.672911
43.443365
34.570679
27.541674
21.959403
17.516585
13.976812
11.161779
8.9384049
7.2092969
5.9043061
4.9736747
4.385047
4.1274889
4.2081596
4.6660194
5.7024069
7.406444
9.7442972
13.022957
14.786792
14.579123
13.633759
10.646997
5.5058761
2.8992296
1.6049165
0.97429928
0.66357883
0.48695469
0.37121949
0.29012445
0.23053523
0.18596425
0.15451748
0.13433885
0.11886642
0.11025626
0.09978338
4529381.2
731818.67
224676.21
95310.917
48498.84
27624.159
16965.072
10988.425
7402.1974
5137.8111
3650.5517
2642.7429
1942.4169
1445.6291
1087.1541
824.75698
630.35195
484.83229
374.94209
291.32679
227.28626
177.95876
139.77593
110.0921
86.928042
68.791291
54.54846
43.333546
34.481404
27.479152
21.930431
17.529155
14.039218
11.280623
9.1211873
7.466134
6.2514583
5.4397896
5.0211476
5.0216202
5.4438292
6.5039922
8.330117
10.777848
14.018046
15.837679
15.60477
14.643806
11.6399
6.2714894
3.3597958
1.8353963
1.0967722
0.74235885
0.53736742
0.40784702
0.32070814
0.25660211
0.20739653
0.17153582
0.14483536
0.12518454
0.11141776
0.10387989
0.095519326
4529447.3
731829.36
224679.48
95312.289
48499.526
27624.534
16965.285
10988.545
7402.257
5137.8295
3650.5398
2642.7071
1942.3609
1445.5553
1087.0639
824.65131
630.23144
484.69748
374.79355
291.16529
227.11288
177.77503
139.58396
109.89469
86.728808
68.594772
54.360188
43.160075
34.330296
27.358916
21.850483
17.49972
14.072083
11.391641
9.3294794
7.7974383
6.7438856
6.1535784
6.0539099
6.4573022
7.5417553
9.4557587
12.004235
15.161273
17.00266
16.737757
15.714098
12.636948
7.1003045
3.8590967
2.0914355
1.2388762
0.83233345
0.59658057
0.45151991
0.35496012
0.28151252
0.22498815
0.18319391
0.15265101
0.13057052
0.11599128
0.10550456
0.099727349
0.091803324
4529517.1
731840.53
224682.9
95313.721
48500.238
27624.922
16965.502
10988.662
7402.3111
5137.8396
3650.5171
2642.658
1942.2894
1445.4639
1086.9539
824.52364
630.08672
484.53624
374.61643
290.97313
226.90691
177.55699
139.35628
109.66061
86.492569
68.361749
54.137036
42.95485
34.15256
27.219837
21.762999
17.478543
14.139054
11.574069
9.6632158
8.3321322
7.5514818
7.3409089
7.7178785
8.8215607
10.801342
13.431502
16.481058
18.29208
17.979013
16.852498
13.656382
7.9992078
4.4104192
2.3861612
1.4038807
0.93493371
0.66434758
0.50004982
0.38998124
0.3071882
0.24618434
0.20195438
0.16771134
0.1423678
0.12428298
0.11180973
0.10179221
0.09570005
0.089491372
4529588.1
731851.96
224686.4
95315.201
48500.973
27625.321
16965.725
10988.782
7402.3656
5137.8484
3650.4917
2642.6054
1942.2136
1445.3674
1086.8384
824.39014
629.936
484.36905
374.43361
290.77582
226.69669
177.33605
139.12756
109.42805
86.261258
68.138171
53.929296
42.772934
34.00858
27.128156
21.74249
17.557423
14.350833
11.962702
10.288633
9.2772575
8.9312552
9.2615641
10.353934
12.377785
15.066486
17.983564
19.710789
19.337663
18.077432
14.708639
8.9593308
5.0133101
2.7142686
1.5861963
1.0467275
0.7411342
0.55423465
0.42903605
0.33747848
0.2725474
0.22314568
0.18359785
0.15495965
0.13334572
0.11727663
0.10557321
0.097712656
0.092542213
0.086716304
4529661.3
731863.83
224690.03
95316.734
48501.737
27625.738
16965.961
10988.913
7402.4299
5137.8672
3650.4769
2642.5642
1942.1506
1445.2855
1086.7395
824.27562
629.80709
484.2269
374.27956
290.61153
226.52432
177.15844
138.94846
109.2523
86.095078
67.989385
53.807606
42.691075
33.983646
27.184197
21.911128
17.876899
14.871358
12.751843
11.437038
10.90465
11.151481
12.188085
14.204948
16.91048
19.697888
21.288163
20.838164
19.406131
15.799003
9.977368
5.67337
3.0821937
1.7912372
1.1756047
0.83151556
0.6185648
0.47467087
0.37335475
0.30093125
0.24467593
0.20034823
0.16770802
0.14209636
0.12358111
0.11044433
0.10133942
0.094219725
0.090116069
0.085038165
4529737.4
731876.14
224693.82
95318.326
48502.536
27626.181
16966.219
10989.064
7402.5146
5137.9078
3650.4864
2642.5504
1942.1186
1445.2388
1086.6807
824.2067
629.7299
484.14328
374.19157
290.52162
226.43552
177.07457
138.87438
109.19432
86.061438
67.991061
53.85959
42.812684
34.199959
27.527704
22.423837
18.613845
15.905327
14.177433
13.373544
13.473977
14.388725
16.329219
18.979262
21.655784
23.04351
22.488172
20.855778
16.940854
11.049832
6.3946726
3.4904889
2.0208035
1.3206394
0.93361405
0.68971362
0.52644379
0.41201321
0.33076708
0.26799854
0.22015816
0.18335582
0.15515224
0.13421106
0.11899214
0.10727757
0.098695236
0.092430827
0.087656054
0.083492816
4529816
731888.84
224697.73
95319.983
48503.375
27626.654
16966.503
10989.243
7402.6294
5137.9817
3650.5332
2642.579
1942.1348
1445.2469
1086.6841
824.20832
629.73254
484.14988
374.20543
290.54661
226.47635
177.13709
138.96596
109.3243
86.241761
68.23708
54.191068
43.25587
34.789405
28.307927
23.452721
19.966272
17.675718
16.479561
16.338121
17.066758
18.818485
21.320968
23.881158
24.989621
24.295842
22.421491
18.137785
12.15751
7.173199
3.9385599
2.2765792
1.4848691
1.0480117
0.77089662
0.58535807
0.45655352
0.36444858
0.29623552
0.24322861
0.20194286
0.16940922
0.14513602
0.12633936
0.11227347
0.10210318
0.094666108
0.089324127
0.085987522
0.082227847
4529897.8
731902.1
224701.79
95321.713
48504.258
27627.162
16966.822
10989.456
7402.781
5138.0967
3650.6267
2642.6607
1942.2118
1445.3244
1086.7666
824.3001
629.83771
484.27291
374.35133
290.72123
226.68667
177.39162
139.27523
109.70157
86.703934
68.806135
54.895247
44.131361
35.882451
29.677532
25.173144
22.128459
20.385195
19.847042
20.322893
21.756314
24.017413
26.375617
27.130051
26.257793
24.084445
19.39125
13.308802
8.0029626
4.430289
2.5660435
1.6717982
1.1772527
0.86290583
0.65464272
0.50868413
0.40507437
0.32742691
0.26829155
0.22134001
0.18515242
0.15722264
0.13564803
0.11932868
0.10785106
0.098960754
0.092881982
0.087933206
0.084522064
0.081226238
4529983.7
731915.9
224706.03
95323.52
48505.189
27627.706
16967.173
10989.704
7402.9705
5138.2545
3650.769
2642.7984
1942.3531
1445.476
1086.9344
824.48972
630.05517
484.52474
374.64494
291.06529
227.0915
177.86978
139.84216
110.37674
87.511554
69.776419
56.066237
45.550657
37.609207
31.783924
27.743729
25.255087
24.153053
24.271762
25.226161
27.102979
29.182221
29.437117
28.361736
25.756479
20.732861
14.512604
8.8841785
4.9718373
2.8951117
1.8816764
1.3192935
0.96624663
0.73290429
0.56844417
0.44939216
0.36157693
0.29515029
0.24486021
0.20401728
0.1723483
0.14706512
0.12890199
0.11521749
0.10449007
0.096454828
0.090636451
0.086117833
0.083037847
0.080340045
4530071.7
731930.11
224710.41
95325.396
48506.165
27628.287
16967.559
10989.987
7403.1997
5138.4572
3650.9629
2642.9959
1942.5638
1445.708
1087.1953
824.78747
630.39802
484.92199
375.10725
291.60519
227.72394
178.61283
140.71782
111.41171
88.73875
71.23611
57.807525
47.632672
40.101035
34.761834
31.282993
29.412948
28.941814
29.42313
30.619412
32.150763
31.888158
30.543939
27.455216
22.136136
15.73301
9.7879917
5.5547136
3.260522
2.112284
1.4759512
1.0839195
0.82424781
0.63751611
0.50170456
0.40122427
0.32790618
0.2709352
0.22548595
0.18854765
0.1606462
0.13923116
0.12270871
0.10936507
0.10022353
0.093345156
0.088432689
0.084699225
0.082208636
0.079665046
4530163.2
731944.95
224714.97
95327.354
48507.194
27628.913
16967.99
10990.319
7403.4824
5138.7209
3651.2269
2643.2743
1942.8678
1446.0478
1087.5808
825.22881
630.9064
485.51002
375.78958
292.399
228.64972
179.69508
141.98607
112.90143
90.492367
73.303653
60.246596
50.507222
43.476118
38.692267
35.792435
34.460653
34.387015
34.922989
35.343593
34.60871
32.751638
29.18927
23.583679
16.953328
10.72158
6.2057228
3.6863251
2.3809595
1.6582882
1.2213023
0.9286153
0.71566952
0.56064566
0.44791043
0.36437244
0.30022841
0.24862949
0.2088652
0.17640288
0.15155438
0.13132999
0.1170612
0.10629849
0.098358757
0.091970057
0.087368294
0.08365722
0.081037666
0.078905946
4530257.7
731960.24
224719.7
95329.407
48508.293
27629.601
16968.483
10990.717
7403.84
5139.07
3651.5891
2643.6657
1943.3017
1446.5368
1088.1372
825.86585
631.63873
486.35432
376.76525
293.52894
229.96116
181.2206
143.76464
114.97948
92.921922
76.133032
63.517172
54.273609
47.773086
43.512735
41.053636
39.95461
39.667472
39.022258
37.390039
35.021975
30.988282
25.059361
18.1654
11.698546
6.938483
4.1708385
2.6772541
1.8540613
1.3673411
1.0404153
0.80229274
0.62968607
0.50258551
0.40697058
0.33258431
0.27615186
0.2312015
0.19500748
0.16504936
0.14297484
0.12611902
0.11320276
0.10281971
0.095341672
0.089533229
0.085529442
0.082377047
0.080502359
0.078549005
4530355.2
731976.05
224724.61
95331.559
48509.47
27630.361
16969.051
10991.199
7404.2935
5139.5292
3652.0779
2644.2026
1943.9026
1447.2168
1088.9119
826.7519
632.65485
487.52198
378.10953
295.07946
231.75324
183.29541
146.16805
117.75818
96.118625
79.781721
67.645157
58.885461
52.829634
48.897394
46.546832
44.952202
43.071641
40.588201
37.558886
32.89866
26.562238
19.411964
12.756811
7.7690157
4.7189356
3.0102312
2.0776733
1.5376315
1.1744772
0.90889169
0.71385926
0.5673474
0.45575342
0.37122851
0.30706325
0.25710367
0.2153808
0.18286813
0.15640702
0.13674673
0.12029169
0.10864565
0.099600943
0.093214094
0.088126441
0.084742296
0.081738706
0.079700806
0.077888094
4530457.6
731992.6
224729.75
95333.834
48510.736
27631.204
16969.707
10991.779
7404.8585
5140.1166
3652.7139
2644.9083
1944.6968
1448.1175
1089.9381
827.92414
633.99616
489.05858
379.87129
297.10013
234.06964
185.94716
149.19671
121.20541
100.02232
84.170517
72.501155
64.102516
58.212256
54.060064
50.745495
47.537875
44.196335
40.314033
34.92785
28.151868
20.766922
13.938798
8.6997001
5.3347441
3.3914817
2.3360815
1.7303397
1.3226124
1.0250817
0.80444563
0.63716058
0.51071075
0.41546944
0.34309388
0.28541498
0.2398855
0.20250124
0.17277024
0.14807008
0.13012091
0.1160367
0.1060913
0.097680601
0.091708831
0.086894301
0.083440431
0.080742708
0.079138488
0.077550975
4530563.2
732009.75
224735.12
95336.23
48512.094
27632.138
16970.46
10992.468
7405.5473
5140.8458
3653.5124
2645.7996
1945.7023
1449.258
1091.235
829.4004
635.67666
490.97048
382.04387
299.5643
236.8567
189.08572
152.70752
125.09403
104.26984
88.725851
77.248353
68.794236
62.425269
57.263698
52.677094
48.282782
43.357524
37.195957
29.952707
22.308511
15.270539
9.7419843
6.0393868
3.8428102
2.6392444
1.947844
1.4886959
1.1586353
0.91264938
0.72387344
0.58036879
0.47098487
0.38593807
0.31925544
0.26685347
0.2257141
0.19087827
0.16378522
0.14158969
0.12575585
0.11246905
0.10266087
0.094867057
0.089728267
0.085412872
0.082708507
0.080287553
0.078749407
0.077172875
4530672.5
732027.51
224740.68
95338.742
48513.546
27633.162
16971.311
10993.266
7406.3597
5141.7156
3654.4706
2646.8714
1946.9104
1450.6244
1092.7821
831.15155
637.6564
493.20416
384.55667
302.37894
239.98969
192.54136
156.46898
129.11078
108.44081
92.877268
81.146978
72.14047
64.919542
58.740846
53.017124
46.875739
39.842394
32.052754
24.078616
16.77273
10.923071
6.8665604
4.3864115
2.9950384
2.1936775
1.676786
1.3124601
1.0375542
0.82344251
0.6585094
0.53153041
0.43298745
0.35682054
0.29829827
0.25124792
0.21325375
0.1812775
0.15629886
0.13560144
0.12077573
0.10849096
0.10043652
0.09365944
0.088842272
0.084737071
0.08192127
0.079486673
0.078216351
0.076782618
4530784.7
732045.84
224746.44
95341.361
48515.076
27634.255
16972.229
10994.136
7407.252
5142.6748
3655.5293
2648.0563
1948.2452
1452.132
1094.4851
833.07247
639.81713
495.62453
387.25229
305.35757
243.2457
196.04796
160.16826
132.90247
112.17161
96.334323
84.059551
74.249267
66.024395
58.576344
51.002787
42.963059
34.52721
26.145229
18.514555
12.309395
7.8662123
5.0494651
3.4174565
2.4777589
1.8931744
1.4887126
1.1803517
0.93826102
0.75064703
0.60477971
0.49199475
0.40476921
0.33635614
0.28180191
0.23764658
0.20254515
0.17257604
0.14959755
0.13048647
0.11743797
0.10635458
0.098340295
0.091493963
0.08711491
0.083447296
0.081157272
0.079162505
0.07798415
0.076610811
4530901
732061.41
224749.55
95341.864
48515.038
27634.166
16972.238
10994.295
7407.5818
5143.1874
3656.2343
2648.9631
1949.3648
1453.4761
1096.0661
834.9023
641.90538
497.9759
389.86257
308.20825
246.29711
199.23128
163.3773
135.98737
114.93829
98.554099
85.498248
74.692471
65.087359
55.885873
46.708605
37.523508
28.640029
20.604625
13.976916
9.0826287
5.8583047
3.9267977
2.8146972
2.1444024
1.6897376
1.3439595
1.0724607
0.85986822
0.69246864
0.56149057
0.45952616
0.37905359
0.31556382
0.26596292
0.22577673
0.19318397
0.16529919
0.14395233
0.12624887
0.1138592
0.10307687
0.096168029
0.090230653
0.086321911
0.082926412
0.080714605
0.078704496
0.07750502
0.076313404
4531685.4
732195.5
224794.69
95363.258
48527.187
27641.956
16977.707
10998.427
7410.9061
5146.0155
3658.7619
2651.3209
1951.6442
1455.7436
1098.3706
837.27864
644.37539
500.54708
392.52502
310.93003
249.0187
201.86007
165.78431
138.00888
116.38901
99.238746
85.140602
72.914229
61.754168
51.176236
41.027164
31.472531
22.911783
15.796732
10.41879
6.7620136
4.5057977
3.197842
2.4233189
1.9092933
1.5246401
1.223277
0.9835859
0.79200568
0.64095917
0.52227473
0.42943911
0.35657728
0.29919391
0.25323789
0.2152884
0.18477215
0.15848421
0.13868597
0.12191144
0.11097045
0.10133197
0.094901647
0.089099284
0.08539884
0.081996708
0.079998776
0.078243171
0.077197057
0.076192679
4531684.6
732191.81
224791.71
95361.076
48525.701
27640.973
16977.097
10998.113
7410.843
5146.1751
3659.1281
2651.8847
1952.4005
1456.6889
1099.4999
838.58298
645.83791
502.13878
394.19965
312.61874
250.62525
203.25851
166.82347
138.50748
116.10587
97.867809
82.466985
68.930147
56.623114
45.249636
34.82652
25.603204
17.918468
12.009568
7.8740219
5.2372626
3.6753401
2.7537698
2.1604491
1.7307975
1.3961339
1.1263837
0.90853442
0.73535169
0.59823438
0.48998142
0.4051034
0.33742655
0.28333122
0.2404179
0.20537149
0.17711038
0.1525034
0.13415316
0.11871861
0.10835838
0.098800966
0.092814182
0.087551814
0.084283578
0.081466162
0.079693043
0.077982961
0.077020846
0.076028812
4531684.8
732191.92
224791.82
95361.226
48525.897
27641.218
16977.397
10998.475
7411.2721
5146.6781
3659.7107
2652.5518
1953.1551
1457.5302
1100.4221
839.57217
646.86903
503.17198
395.17665
313.46043
251.22778
203.48499
166.49046
137.39913
114.03823
94.750001
78.30595
63.86388
50.941773
39.379696
29.263828
20.802061
14.174919
9.3888437
6.2193508
4.2877919
3.1523768
2.4526932
1.9689752
1.5964025
1.2936314
1.0469685
0.84820353
0.68879886
0.56207245
0.46175336
0.38276428
0.31991413
0.27028303
0.23061389
0.19743116
0.17066444
0.14735087
0.13015492
0.11525896
0.10581956
0.097325545
0.092011141
0.086935594
0.083819945
0.080876613
0.079138438
0.07759534
0.076750071
0.075901237
4531684.9
732191.99
224791.88
95361.292
48525.983
27641.328
16977.535
10998.643
7411.4758
5146.9196
3659.9923
2652.8738
1953.515
1457.9211
1100.8305
839.97548
647.23248
503.44481
395.28747
313.31072
250.69077
202.41744
164.75404
134.8828
110.6748
90.546535
73.373398
58.433023
45.351702
34.030175
24.536969
16.975274
11.360968
7.512685
5.0982067
3.6721832
2.8205258
2.2576293
1.8344324
1.4925193
1.2126878
0.98430826
0.79900015
0.65065795
0.53264632
0.43892451
0.3652537
0.30620205
0.25890118
0.22123386
0.19018269
0.16524795
0.14302643
0.1268545
0.11293944
0.10422757
0.095573823
0.090387637
0.085713824
0.082920429
0.080365354
0.078928543
0.077452864
0.076538643
0.075781159
4531686.1
732192.09
224791.88
95361.271
48525.955
27641.297
16977.502
10998.61
7411.4434
5146.8879
3659.9598
2652.8368
1953.4655
1457.8459
1100.7083
839.77446
646.90767
502.93558
394.51682
312.18816
249.11772
200.29426
161.99486
131.43578
106.54611
85.822827
68.23476
53.147074
40.242465
29.42355
20.695207
14.042028
9.326313
6.252799
4.3893984
3.2868474
2.5951016
2.1048028
1.7203271
1.4053392
1.1447222
0.93066918
0.7571211