/*--------------------------------*- C++ -*----------------------------------*\
  =========                 |
  \\      /  F ield         | OpenFOAM: The Open Source CFD Toolbox
   \\    /   O peration     | Website:  https://openfoam.org
    \\  /    A nd           | Version:  13
     \\/     M anipulation  |
\*---------------------------------------------------------------------------*/
FoamFile
{
    format      ascii;
    class       volVectorField;
    location    "42.701638";
    object      U;
}
// * * * * * * * * * * * * * * * * * * * * * * * * * * * * * * * * * * * * * //

dimensions      [0 1 -1 0 0 0 0];

internalField   nonuniform List<vector> 
17140
(
(7.7225147e-08 -1.117383e-05 2.9079416e-23)
(-1.1608754e-06 -3.7921683e-05 3.2203152e-24)
(-4.4891602e-06 -6.8983655e-05 -2.1253814e-22)
(-1.0737448e-05 -0.00010188714 2.3356017e-22)
(-2.0772196e-05 -0.00013375971 -2.7290761e-23)
(-3.5734539e-05 -0.00016133158 8.9273015e-23)
(-5.7063999e-05 -0.00018093251 1.5019236e-22)
(-8.6526583e-05 -0.00018851202 -7.3241101e-23)
(-0.00012630093 -0.00017968059 -2.3950403e-22)
(-0.00017905573 -0.00014978156 -5.8668723e-22)
(-0.00024805207 -9.4000032e-05 8.6848049e-22)
(-0.00033725386 -7.5181173e-06 -7.723969e-22)
(-0.00045145918 0.00011427452 -1.1795485e-22)
(-0.00059644606 0.00027550547 6.6486155e-22)
(-0.00077913561 0.00047947199 -7.3537189e-23)
(-0.0010077685 0.00072821478 5.8001863e-22)
(-0.0012920916 0.0010220128 -2.1408253e-23)
(-0.0016435467 0.0013588049 4.8446045e-24)
(-0.0020754514 0.0017335586 3.3625712e-22)
(-0.0026031554 0.0021376234 -4.3159526e-22)
(-0.0032441478 0.0025581205 2.0560111e-22)
(-0.0040180866 0.0029774572 -3.8662654e-23)
(-0.0049467129 0.0033730831 -2.8001426e-22)
(-0.0060535973 0.0037176319 2.7478753e-22)
(-0.0073636584 0.0039796198 4.2817637e-22)
(-0.0089023945 0.0041248726 -3.3659623e-22)
(-0.010694716 0.0041188307 -1.6194946e-21)
(-0.012763245 0.0039298288 -1.8679141e-22)
(-0.015126336 0.0035333384 1.6001291e-21)
(-0.01779592 0.0029167678 3.6613311e-22)
(-0.020774512 0.0020841324 1.2737793e-21)
(-0.024052909 0.0010594009 -1.6288957e-21)
(-0.027610022 -0.00011466022 4.1197125e-22)
(-0.031415825 -0.0013845835 1.8956494e-22)
(-0.035435489 -0.0026998754 1.7732206e-21)
(-0.03963605 -0.004027696 -7.3842012e-22)
(-0.043991637 -0.0053575676 1.0634397e-21)
(-0.048483193 -0.0066989409 6.8801427e-22)
(-0.053097423 -0.0080763036 3.0238749e-22)
(-0.057825747 -0.0095271244 -8.878673e-22)
(-0.062665621 -0.011103728 -1.6416584e-21)
(-0.067622865 -0.012879159 -1.4712794e-21)
(-0.072714748 -0.014956629 -6.3910175e-22)
(-0.077980624 -0.017478908 3.1205663e-21)
(-0.083477799 -0.020634156 2.2946118e-21)
(-0.089285374 -0.024668746 -5.6663044e-22)
(-0.095511567 -0.029906901 3.9034702e-21)
(-0.10228044 -0.036767613 1.3369095e-21)
(-0.10972155 -0.045788353 -1.3724964e-21)
(-0.11793624 -0.057652114 -3.3852245e-21)
(-0.12694991 -0.073235846 2.0896172e-21)
(-0.1366812 -0.093592702 1.3218075e-21)
(-0.14689164 -0.11977664 -3.4416769e-21)
(-0.15705059 -0.15229012 -1.6243397e-21)
(-0.16609493 -0.19038698 -1.1508364e-21)
(-0.17294076 -0.22962072 9.0219207e-22)
(-0.17693097 -0.26097934 -2.4542816e-21)
(-0.17670786 -0.27278385 -2.1035972e-21)
(-0.17228146 -0.23366405 -5.6303054e-22)
(-0.16080108 -0.089981118 1.5441564e-21)
(-0.043989356 0.18630121 1.0760083e-21)
(0.1258083 0.44118451 2.414157e-21)
(0.23220481 0.54045694 2.2331614e-22)
(0.24893172 0.51777944 -1.6038536e-21)
(0.29085807 0.31150304 1.6790859e-21)
(-8.4414254e-07 1.8737887e-05 -8.3120273e-24)
(-3.9609882e-06 5.473075e-05 1.1194853e-21)
(-9.3691345e-06 9.2988146e-05 -9.9592602e-22)
(-1.8008602e-05 0.00013659851 2.713856e-22)
(-3.0871316e-05 0.00018909809 5.6039711e-22)
(-4.924133e-05 0.00025445641 -1.070212e-21)
(-7.4716842e-05 0.000337075 1.1147632e-21)
(-0.00010924073 0.00044176163 -9.802033e-23)
(-0.00015518399 0.0005736783 3.05691e-22)
(-0.00021542252 0.00073825619 5.1833966e-24)
(-0.00029343594 0.00094106851 1.0174725e-21)
(-0.00039341372 0.0011876518 -1.6131463e-21)
(-0.00052038024 0.0014832655 -1.3286432e-22)
(-0.00068033208 0.0018325793 1.3070384e-21)
(-0.00088039026 0.0022392795 -3.995985e-22)
(-0.0011289631 0.0027055871 -2.5246449e-22)
(-0.0014359166 0.0032316863 1.5905123e-21)
(-0.0018127439 0.0038150696 -5.1368399e-21)
(-0.0022727251 0.004449817 3.1832809e-21)
(-0.0028310606 0.0051258467 -3.7685042e-21)
(-0.0035049566 0.0058281944 5.4886361e-21)
(-0.0043136371 0.0065364102 -1.324878e-21)
(-0.0052782432 0.0072241914 -5.3574232e-22)
(-0.0064215764 0.0078594046 1.7204152e-21)
(-0.0077676296 0.0084046751 -6.0609365e-21)
(-0.0093408417 0.0088187323 -8.8720635e-22)
(-0.011165 0.009058692 4.4925268e-21)
(-0.013261712 0.009083399 -4.9362523e-21)
(-0.015648452 0.0088578531 6.6494061e-22)
(-0.018336297 0.00835874 6.3706912e-21)
(-0.021327499 0.0075806477 -6.4222285e-22)
(-0.024613614 0.0065413573 -4.8220958e-21)
(-0.028175325 0.0052836485 -1.2104838e-22)
(-0.031984108 0.0038692636 3.3642819e-21)
(-0.036008406 0.0023641076 -3.5959305e-21)
(-0.040219177 0.00081911103 1.5472477e-21)
(-0.044592762 -0.00073924654 -1.7314547e-21)
(-0.049112489 -0.0023088222 -5.2775297e-21)
(-0.053767304 -0.0039060225 -1.1421271e-21)
(-0.058551104 -0.0055620436 -4.3393401e-21)
(-0.063464732 -0.0073235235 5.4327687e-21)
(-0.068518717 -0.0092568227 4.9600228e-21)
(-0.073737146 -0.011456875 8.4662244e-22)
(-0.079169489 -0.014057262 -6.8006289e-21)
(-0.08488658 -0.017238551 3.2686641e-21)
(-0.090986646 -0.021239785 1.1439392e-21)
(-0.097603685 -0.026379753 -5.8611473e-22)
(-0.10489648 -0.033078425 -1.9389451e-21)
(-0.11303854 -0.041884232 9.4990308e-22)
(-0.12218698 -0.053506307 -1.793824e-21)
(-0.13243203 -0.068862639 -1.0649971e-20)
(-0.14375244 -0.089062633 -4.8656661e-22)
(-0.15591669 -0.11525602 2.2513118e-21)
(-0.16835337 -0.14807494 -5.1247289e-21)
(-0.1798492 -0.18688858 4.3074147e-21)
(-0.18905971 -0.22723877 -1.2126937e-20)
(-0.19448258 -0.26006386 -3.3585822e-21)
(-0.19615175 -0.27352285 9.6113271e-21)
(-0.19379089 -0.23647778 -1.583894e-21)
(-0.18904925 -0.10846447 -2.1334995e-21)
(-0.10467228 0.14146341 -3.600788e-22)
(0.052589659 0.39448479 2.2125825e-21)
(0.1707391 0.51685728 -3.5534796e-21)
(0.21721434 0.50255213 -1.2347053e-21)
(0.33084742 0.27403394 -2.3182068e-21)
(-3.49332e-06 4.9589406e-05 -4.597199e-22)
(-1.211922e-05 0.00015030168 3.3969519e-22)
(-2.356974e-05 0.00026006582 9.0320508e-23)
(-3.8960601e-05 0.00038259047 -8.5600738e-23)
(-5.941682e-05 0.00052207864 4.1467975e-22)
(-8.6399846e-05 0.0006831986 3.0835006e-23)
(-0.00012169117 0.00087108221 3.9352452e-22)
(-0.0001674363 0.001091291 4.2364874e-22)
(-0.00022621778 0.0013497543 -3.4582363e-21)
(-0.00030113398 0.0016526702 3.0834925e-21)
(-0.00039588945 0.0020063602 -1.4730705e-21)
(-0.00051489604 0.0024170671 -2.1540128e-21)
(-0.00066338746 0.0028906845 4.2597999e-21)
(-0.00084754512 0.0034324076 5.2568735e-22)
(-0.0010746351 0.0040462937 -2.0208204e-21)
(-0.0013531532 0.0047347255 -1.3822204e-21)
(-0.0016929735 0.0054977739 1.5925611e-21)
(-0.0021054945 0.0063324661 -5.7209693e-21)
(-0.0026037721 0.0072319762 3.3494866e-21)
(-0.0032026256 0.0081847757 -1.6389946e-21)
(-0.0039186986 0.0091738018 5.456213e-21)
(-0.0047704488 0.010175735 1.398187e-21)
(-0.0057780352 0.011160507 -2.8729066e-21)
(-0.0069630614 0.012091201 4.2506383e-21)
(-0.008348126 0.012924527 1.6456994e-21)
(-0.009956119 0.013612077 -1.9388936e-21)
(-0.011809202 0.014102569 -1.0804676e-20)
(-0.013927412 0.014345256 -4.8011937e-21)
(-0.016326876 0.014294662 2.3484563e-21)
(-0.019017704 0.013916743 -2.4677079e-21)
(-0.02200184 0.013196365 1.5074503e-21)
(-0.025271527 0.012145001 8.3487694e-21)
(-0.028809296 0.010805499 -2.7239814e-21)
(-0.032590023 0.0092482197 -7.8502721e-21)
(-0.036585485 0.0075542503 2.5036027e-21)
(-0.040769771 0.0057934726 3.3753921e-21)
(-0.045122496 0.0040086037 -5.6160627e-21)
(-0.04962917 0.0022137552 -1.6647717e-21)
(-0.054280463 0.00040087886 2.8324787e-21)
(-0.059072495 -0.0014546102 1.0977883e-21)
(-0.064008795 -0.0033927542 -5.2694064e-21)
(-0.069103272 -0.0054722118 1.5019316e-21)
(-0.074385458 -0.0077779592 2.1531869e-21)
(-0.079912801 -0.010432576 5.8138113e-21)
(-0.08576709 -0.013607115 -1.1219972e-20)
(-0.092062347 -0.017530918 7.4198383e-21)
(-0.0989538 -0.022514295 1.9353078e-21)
(-0.10662876 -0.028975103 7.671627e-21)
(-0.11529663 -0.037469791 9.329355e-21)
(-0.1251595 -0.048731172 4.6354475e-22)
(-0.13635706 -0.063720344 -2.2013526e-21)
(-0.14890813 -0.083617402 1.5307338e-20)
(-0.16255453 -0.10969272 6.5098391e-21)
(-0.17660257 -0.14277666 6.6150011e-21)
(-0.18948142 -0.18242965 2.1992549e-21)
(-0.19934732 -0.22425558 1.6426021e-20)
(-0.20343536 -0.25884237 -6.2061626e-21)
(-0.20353326 -0.27415948 1.5100105e-21)
(-0.20053467 -0.23947144 1.4216883e-20)
(-0.19515444 -0.12385517 5.4572703e-21)
(-0.1319214 0.10170289 -5.1139894e-21)
(0.0053621827 0.3461406 -1.1803251e-20)
(0.13284427 0.48503572 3.0217136e-21)
(0.21532426 0.472198 5.0886133e-21)
(0.41313372 0.22433208 3.2585178e-21)
(-7.9754836e-06 8.0905836e-05 1.546035e-21)
(-2.5893515e-05 0.0002473325 -2.4595635e-21)
(-4.7574684e-05 0.00042970919 8.8909039e-22)
(-7.4283164e-05 0.00063236291 -9.6612693e-23)
(-0.0001073319 0.00086015345 1.9094782e-21)
(-0.00014837878 0.0011184383 -1.9746196e-21)
(-0.00019941592 0.0014130671 2.993652e-21)
(-0.00026281149 0.0017503411 -1.4072606e-21)
(-0.00034137868 0.0021369412 -5.3459058e-21)
(-0.00043844929 0.0025798154 1.2837375e-21)
(-0.00055795655 0.0030860159 4.8829135e-21)
(-0.00070452693 0.0036624742 -1.4878542e-21)
(-0.0008835819 0.0043157023 -9.9073805e-23)
(-0.0011014485 0.0050514078 3.8740238e-21)
(-0.0013654769 0.0058740105 -1.2076652e-20)
(-0.0016841632 0.0067860527 7.3813063e-21)
(-0.0020672716 0.0077874991 6.9932041e-23)
(-0.0025259514 0.0088749303 -4.0347373e-21)
(-0.0030728389 0.010040648 1.0168011e-20)
(-0.0037221315 0.011271724 -4.7560726e-21)
(-0.0044896201 0.012549066 -7.0212518e-21)
(-0.0053926551 0.013846567 -2.8129792e-21)
(-0.0064500218 0.015130494 1.3736e-20)
(-0.0076816876 0.016359257 7.087435e-21)
(-0.0091083802 0.017483763 -4.5134136e-21)
(-0.010750942 0.018448575 2.6008452e-21)
(-0.012629409 0.019194099 -9.6092315e-21)
(-0.014761754 0.019660043 2.7252043e-21)
(-0.017162302 0.019790409 -7.2404608e-21)
(-0.019839878 0.019540299 4.0359082e-21)
(-0.022796002 0.018884699 -2.4640382e-21)
(-0.026023693 0.017828457 8.831335e-21)
(-0.029507665 0.016414037 -1.2372829e-21)
(-0.03322641 0.014719831 6.3514794e-21)
(-0.037156106 0.012842794 -5.8605868e-21)
(-0.041274793 0.010871296 -1.8145309e-21)
(-0.045565032 0.008864708 2.1604245e-20)
(-0.050014403 0.0068496531 5.4446262e-21)
(-0.054615008 0.0048268734 -4.3806117e-21)
(-0.059364147 0.0027788822 4.218763e-21)
(-0.064267048 0.00067315896 -1.0957505e-21)
(-0.069339804 -0.0015401686 -6.6863834e-21)
(-0.074615726 -0.00393477 3.0225326e-22)
(-0.080158018 -0.0066204767 2.3060835e-21)
(-0.086056098 -0.009756719 -1.1622356e-21)
(-0.092435581 -0.013560205 6.397907e-22)
(-0.099467263 -0.018330248 1.7656462e-21)
(-0.1073592 -0.024479324 -2.6839576e-20)
(-0.1163462 -0.032568624 3.1130642e-21)
(-0.12666109 -0.043352175 -2.8678092e-21)
(-0.13847287 -0.0578365 2.7268256e-20)
(-0.15181178 -0.077288974 -1.4894874e-20)
(-0.16634768 -0.10313877 -1.2446853e-20)
(-0.18119045 -0.13647762 -1.1811604e-20)
(-0.1943152 -0.17714726 -1.1192612e-20)
(-0.20318682 -0.22099854 -1.6940397e-20)
(-0.2050398 -0.25796471 3.2265089e-20)
(-0.19989359 -0.27501416 -1.8534297e-20)
(-0.19138231 -0.24268054 -2.5921571e-20)
(-0.17990995 -0.13696567 1.491589e-20)
(-0.12897106 0.066651878 4.8951454e-21)
(-0.009358162 0.29876464 4.071768e-21)
(0.12432921 0.4458816 -7.3267313e-21)
(0.25474173 0.42683056 -9.1935809e-21)
(0.52421293 0.16705385 1.1420827e-21)
(-1.4314747e-05 0.00011213054 -1.0934779e-21)
(-4.5398593e-05 0.00034411039 3.6299343e-21)
(-8.1564794e-05 0.00059893843 -2.9587053e-21)
(-0.00012424713 0.00088154382 1.1178364e-21)
(-0.00017497477 0.0011974239 4.0373348e-22)
(-0.0002356267 0.0015526048 -3.4727807e-21)
(-0.00030842835 0.0019536322 8.7906281e-22)
(-0.00039598996 0.0024075236 1.8657174e-21)
(-0.00050137027 0.0029216874 1.430003e-22)
(-0.00062814279 0.0035037975 1.2141346e-21)
(-0.00078046927 0.0041616138 -1.6984874e-21)
(-0.00096317917 0.0049027366 1.1788149e-21)
(-0.0011818561 0.005734281 4.3370484e-21)
(-0.0014429293 0.006662459 1.2594939e-22)
(-0.0017537681 0.0076920553 -3.2987108e-21)
(-0.0021227781 0.0088257888 -2.3290165e-21)
(-0.002559492 0.010063553 1.9963605e-21)
(-0.0030746532 0.011401539 -1.8990826e-22)
(-0.003680281 0.012831261 -3.848396e-21)
(-0.0043897099 0.014338509 -4.6574082e-21)
(-0.0052175878 0.015902307 5.271646e-21)
(-0.0061798184 0.017493949 5.2520093e-21)
(-0.0072934228 0.019076252 -6.9890819e-21)
(-0.0085762953 0.020603198 8.5492897e-21)
(-0.010046815 0.022020154 1.4633676e-20)
(-0.011723273 0.023264916 -3.4012029e-20)
(-0.013623062 0.024269821 1.8460332e-20)
(-0.015761592 0.024965229 -2.6973206e-20)
(-0.018150933 0.025284716 3.3194237e-20)
(-0.020798276 0.02517247 -3.6468581e-20)
(-0.023704519 0.024593302 3.7035255e-20)
(-0.026863498 0.023544827 -6.0983919e-21)
(-0.030262476 0.022068204 -2.0543083e-20)
(-0.033884099 0.020248871 1.1233858e-20)
(-0.037709432 0.018198793 -3.3883206e-21)
(-0.041720942 0.016025087 -9.3568233e-22)
(-0.045904335 0.013804326 -1.1211596e-20)
(-0.050248967 0.011576154 -3.5171956e-21)
(-0.054747878 0.0093508032 -3.49237e-21)
(-0.059398811 0.0071186279 -3.3310812e-21)
(-0.06420745 0.0048551282 1.683394e-20)
(-0.069190689 0.0025202987 -7.3775987e-21)
(-0.074383782 5.3043294e-05 -1.1937821e-21)
(-0.07985251 -0.002641927 1.3817079e-20)
(-0.085689717 -0.0057101084 7.0994727e-21)
(-0.092027929 -0.00935334 -3.4933545e-21)
(-0.099046793 -0.013856869 -1.3166825e-20)
(-0.10696501 -0.019624257 5.7034154e-21)
(-0.11602954 -0.027218386 -1.7339236e-20)
(-0.12648579 -0.037411803 -9.5878397e-21)
(-0.13850639 -0.051258807 -1.3234854e-20)
(-0.15209624 -0.07013102 -3.6438619e-20)
(-0.16680315 -0.095655463 2.8113782e-20)
(-0.18147782 -0.12925942 -9.4207804e-21)
(-0.19354601 -0.17115493 1.5431275e-20)
(-0.19994859 -0.21723781 1.4113438e-20)
(-0.19626187 -0.25733156 4.8356373e-21)
(-0.18369421 -0.27711805 4.090324e-20)
(-0.1661903 -0.24733804 1.0148805e-20)
(-0.14549965 -0.14885286 -1.9982876e-20)
(-0.097461207 0.036591838 -3.9429423e-21)
(0.010719216 0.25408057 3.0740954e-21)
(0.15222544 0.3999496 4.5263309e-21)
(0.33905557 0.37032697 1.0168556e-20)
(0.65065121 0.10853667 -1.6861175e-21)
(-2.2482071e-05 0.00014266258 -3.3473084e-21)
(-7.0546831e-05 0.00043877681 -1.1813363e-21)
(-0.00012538807 0.00076451135 9.5620273e-22)
(-0.00018862882 0.0011253717 3.5303242e-21)
(-0.00026204014 0.0015274621 -1.933792e-21)
(-0.00034774422 0.001977446 2.7823567e-21)
(-0.00044821959 0.0024825315 -1.2033796e-21)
(-0.00056633494 0.0030504188 -2.8648706e-22)
(-0.00070540613 0.0036892097 1.6204813e-21)
(-0.00086925336 0.0044072717 3.4898192e-21)
(-0.0010622632 0.0052130438 1.7529239e-22)
(-0.0012894533 0.0061147721 -5.7260146e-21)
(-0.0015565409 0.0071201608 7.9118637e-21)
(-0.0018700114 0.0082359247 -1.2754836e-20)
(-0.0022371872 0.0094672292 3.3269898e-21)
(-0.0026662915 0.010817008 -7.0538372e-21)
(-0.0031665057 0.012285149 8.503433e-21)
(-0.0037480132 0.013867555 -5.5043433e-21)
(-0.0044220248 0.015555093 8.6564829e-22)
(-0.0052007778 0.01733246 3.495379e-21)
(-0.0060974985 0.019177033 -8.4504939e-21)
(-0.0071263159 0.021057797 1.1851579e-20)
(-0.008302112 0.022934462 -1.2795187e-20)
(-0.0096402855 0.024756969 -2.1868074e-21)
(-0.011156405 0.026465561 2.1243658e-20)
(-0.012865714 0.027991694 -2.1289106e-20)
(-0.014782453 0.029260047 1.3706587e-20)
(-0.016918964 0.030191972 -1.5245515e-20)
(-0.019284596 0.030710845 -1.4564675e-21)
(-0.021884518 0.030749926 -8.9542217e-22)
(-0.024718748 0.030263484 5.8373877e-21)
(-0.027781879 0.02924101 -3.9527123e-22)
(-0.031063916 0.027720933 2.1164246e-20)
(-0.034552087 0.025794133 -5.5580739e-21)
(-0.038232895 0.023586419 -1.6150378e-20)
(-0.042093686 0.021223361 7.2410877e-21)
(-0.046123461 0.018799251 -5.7213455e-21)
(-0.050313136 0.016367558 5.6045664e-21)
(-0.054656038 0.013948705 3.0120563e-20)
(-0.059149444 0.011541609 -1.6338733e-20)
(-0.063798218 0.0091305464 -3.9533411e-21)
(-0.068618296 0.0066862095 2.2472611e-20)
(-0.073644719 0.0041614856 -1.2555165e-21)
(-0.078942375 0.0014769524 -2.7464321e-21)
(-0.0846031 -0.0014965785 -3.0879658e-20)
(-0.090759939 -0.0049438763 -7.2189195e-21)
(-0.097592306 -0.0091328647 1.1633783e-20)
(-0.10531767 -0.014455313 1.2038194e-20)
(-0.11417825 -0.021472143 1.7453119e-20)
(-0.12440817 -0.030971174 2.2040382e-20)
(-0.13614965 -0.044056874 1.3720677e-20)
(-0.14933293 -0.062219806 2.0957109e-20)
(-0.16332631 -0.087319576 -7.0386994e-21)
(-0.17666068 -0.12118306 4.5060699e-20)
(-0.18615753 -0.1644588 3.3038491e-21)
(-0.18778943 -0.21353006 2.3465368e-21)
(-0.17646618 -0.25725062 1.0054801e-21)
(-0.15398304 -0.28003161 -4.3701835e-20)
(-0.12506816 -0.25309368 -1.242772e-20)
(-0.092755123 -0.16065406 1.4020479e-20)
(-0.040059166 0.010261159 1.2122131e-20)
(0.064822321 0.2122547 2.6152422e-21)
(0.2204937 0.34863576 1.2175699e-21)
(0.45495477 0.30782282 -1.5182585e-20)
(0.78147963 0.054511292 6.1513231e-21)
(-3.2375689e-05 0.00017185699 6.3533065e-22)
(-0.00010102683 0.00052934007 2.0189616e-21)
(-0.0001785035 0.00092295487 -4.8724812e-21)
(-0.00026663507 0.0013587466 1.810538e-22)
(-0.00036745658 0.0018433845 2.3716312e-21)
(-0.00048335204 0.0023841262 1.045188e-21)
(-0.00061706913 0.002988798 7.7157456e-22)
(-0.00077174776 0.0036657378 -1.5199703e-21)
(-0.00095096885 0.0044236972 7.8659326e-21)
(-0.0011588009 0.0052716971 -5.9327068e-21)
(-0.0013998487 0.0062188206 2.8697686e-22)
(-0.0016793013 0.0072739336 3.5863099e-21)
(-0.0020029795 0.0084453164 -1.3405433e-20)
(-0.0023773796 0.0097401916 1.3347041e-20)
(-0.0028097122 0.011164134 -1.775019e-21)
(-0.0033079318 0.012720351 -1.0969364e-20)
(-0.0038807549 0.014408822 1.0293792e-20)
(-0.0045376617 0.016225306 -3.5871981e-21)
(-0.0052888771 0.018160218 6.9499125e-21)
(-0.0061453253 0.020197421 -8.8859552e-21)
(-0.0071185536 0.022312977 -1.6607134e-20)
(-0.0082206151 0.024473955 1.6346653e-20)
(-0.0094639049 0.02663743 2.3794862e-20)
(-0.010860934 0.028749827 -4.553821e-20)
(-0.012424024 0.030746847 3.6192752e-20)
(-0.014164902 0.032554205 -2.0806449e-20)
(-0.01609416 0.034089505 5.3013693e-21)
(-0.01822057 0.035265611 -1.2397107e-20)
(-0.020550274 0.035996052 1.2523685e-20)
(-0.023085984 0.036203242 1.6698737e-20)
(-0.025826495 0.035830502 -1.0925031e-20)
(-0.028766956 0.034858086 -1.7858167e-20)
(-0.031900131 0.033319789 1.5187825e-21)
(-0.035218089 0.03130962 5.9973628e-22)
(-0.038713222 0.028965373 1.0568651e-20)
(-0.042378189 0.026430446 -4.450457e-21)
(-0.046205468 0.023817333 -1.5605135e-20)
(-0.05018732 0.021194296 -7.5961119e-21)
(-0.054316716 0.018592859 1.1344301e-20)
(-0.058589444 0.0160212 -8.7571284e-21)
(-0.06300803 0.013473091 7.4023951e-21)
(-0.067585585 0.010930733 -2.3696017e-21)
(-0.072354136 0.0083620279 -9.4167512e-21)
(-0.077373949 0.0057046769 2.3066901e-20)
(-0.082730422 0.0028475964 1.3783418e-20)
(-0.088549312 -0.0003737624 9.2853196e-21)
(-0.094999294 -0.0042080239 -2.9901437e-20)
(-0.10228078 -0.0090320739 -1.9823472e-20)
(-0.1106084 -0.015400814 -2.3662966e-20)
(-0.12017273 -0.024114911 -4.2042654e-20)
(-0.13103597 -0.036329114 1.5068426e-20)
(-0.14298218 -0.053662533 -3.1579824e-21)
(-0.1551193 -0.078231247 -2.5078147e-20)
(-0.16555069 -0.11232847 -7.3055598e-20)
(-0.1702965 -0.15716046 -4.6789436e-20)
(-0.16427489 -0.20944028 -1.7305089e-20)
(-0.14195927 -0.25718629 -4.443973e-20)
(-0.10655083 -0.28340047 2.5787614e-20)
(-0.065196604 -0.25946966 -1.263704e-22)
(-0.02102371 -0.17231123 -2.0475907e-20)
(0.039956832 -0.013855967 -8.760862e-21)
(0.14868809 0.17221299 -7.1877632e-22)
(0.32219161 0.29500158 5.1957712e-21)
(0.58488081 0.24450321 -1.9599901e-21)
(0.91134602 0.0088380327 4.6901978e-21)
(-4.3814078e-05 0.00019905504 2.5213533e-21)
(-0.00013629171 0.00061376251 -1.700686e-21)
(-0.00023995589 0.0010707156 2.2970831e-21)
(-0.00035686763 0.0015764489 1.3054301e-21)
(-0.00048933933 0.0021381437 -3.6422343e-21)
(-0.00064003106 0.0027635969 -3.3994631e-21)
(-0.00081197169 0.0034611972 3.4873739e-21)
(-0.0010085807 0.0042398638 -4.1966741e-22)
(-0.0012337082 0.0051089448 -9.7134222e-23)
(-0.0014916692 0.0060780646 -6.8998223e-21)
(-0.0017872778 0.007156909 7.5583129e-22)
(-0.0021258763 0.0083549338 1.3896547e-20)
(-0.0025133599 0.0096809825 -1.1102379e-20)
(-0.0029561932 0.011142795 3.8201074e-22)
(-0.0034614162 0.012746396 7.4253732e-21)
(-0.0040366371 0.014495343 6.3773662e-22)
(-0.0046900079 0.016389834 -1.6196633e-21)
(-0.0054301805 0.018425667 -7.2825062e-21)
(-0.0062662397 0.020593059 1.3307193e-20)
(-0.0072076105 0.022875363 -2.3323539e-20)
(-0.0082639384 0.025247737 5.008546e-21)
(-0.0094449388 0.027675843 -3.6649941e-21)
(-0.010760216 0.030114707 2.9912428e-21)
(-0.012219045 0.032507917 -1.2958952e-22)
(-0.013830112 0.034787366 1.754184e-20)
(-0.015601191 0.036873807 1.7357537e-20)
(-0.017538758 0.038678539 -3.4126231e-20)
(-0.019647522 0.040106635 -5.6400686e-21)
(-0.021929914 0.041062305 1.94533e-20)
(-0.024385694 0.041457308 6.828465e-21)
(-0.027011981 0.041223634 1.5397184e-20)
(-0.029804109 0.040331036 -1.7100578e-20)
(-0.032757381 0.038806349 -7.3582275e-21)
(-0.035868724 0.036743701 1.6627968e-20)
(-0.039136716 0.034290258 -6.7500846e-21)
(-0.042559729 0.0316061 -3.2243535e-21)
(-0.046133933 0.02882229 8.8071311e-21)
(-0.049852764 0.026022947 2.2462774e-20)
(-0.053708178 0.023251748 6.7176058e-21)
(-0.057693353 0.020526903 -4.3800521e-21)
(-0.061806803 0.017852334 -1.0248765e-20)
(-0.066056622 0.015222457 -1.0650341e-20)
(-0.070468783 0.012620948 -1.1900959e-20)
(-0.075094032 0.010003814 -2.5233861e-20)
(-0.080005179 0.0072794448 6.8776468e-22)
(-0.085311453 0.0043058312 -1.0909538e-20)
(-0.091156866 0.00085571058 6.1782907e-20)
(-0.09770476 -0.0034299939 1.7395412e-20)
(-0.10511183 -0.0090974402 2.0330278e-20)
(-0.11347722 -0.016957563 5.7603765e-20)
(-0.12270511 -0.028214316 -6.9048136e-20)
(-0.13232761 -0.044616413 1.5665282e-20)
(-0.14105091 -0.068548252 5.0705346e-20)
(-0.14629845 -0.10281875 6.1213463e-20)
(-0.14288561 -0.14923588 7.103733e-21)
(-0.12431792 -0.20481279 -1.8494537e-20)
(-0.085315846 -0.25624261 -2.4776321e-20)
(-0.033022631 -0.28479758 8.1223486e-21)
(0.020581741 -0.26359267 -6.8130688e-21)
(0.073419966 -0.18184654 5.4192297e-21)
(0.1414092 -0.035748463 -3.7023021e-24)
(0.25648903 0.13415672 -7.8295118e-22)
(0.44407712 0.24176887 -6.1823533e-21)
(0.72337161 0.18392815 -8.0036007e-22)
(1.0384828 -0.026696561 -1.6963435e-20)
(-5.6537004e-05 0.00022360802 -2.3806382e-21)
(-0.0001755502 0.00069003269 -6.3769533e-22)
(-0.00030836525 0.0012042832 7.0052559e-22)
(-0.00045730649 0.001773319 3.4424387e-21)
(-0.00062496666 0.0024047704 -4.1273042e-21)
(-0.00081429189 0.0031069069 3.5033462e-21)
(-0.0010285988 0.0038886116 1.6736292e-21)
(-0.0012715904 0.0047593185 -8.9633751e-23)
(-0.0015473855 0.0057289073 -1.4108288e-21)
(-0.0018605409 0.0068075474 -8.0160677e-21)
(-0.0022160689 0.008005478 1.3443076e-20)
(-0.002619447 0.0093327099 -1.6128131e-20)
(-0.0030766183 0.010798635 4.7272704e-21)
(-0.0035939784 0.012411522 6.4022723e-21)
(-0.0041783479 0.014177893 -9.7931987e-21)
(-0.0048369251 0.016101752 1.9244724e-20)
(-0.0055772177 0.018183663 -2.3242328e-20)
(-0.0064069506 0.020419677 -3.6562507e-22)
(-0.0073339478 0.022800111 -1.3209556e-20)
(-0.0083659891 0.025308199 5.2168576e-20)
(-0.0095106435 0.027918684 -1.2564972e-20)
(-0.010775082 0.030596414 -5.1719269e-20)
(-0.012165872 0.033295075 2.4301749e-20)
(-0.013688769 0.035956225 2.8830081e-20)
(-0.015348489 0.038508846 -7.2010037e-21)
(-0.017148477 0.040869678 -3.7507191e-20)
(-0.019090664 0.042944676 5.6452403e-20)
(-0.021175216 0.044632016 -6.2236124e-20)
(-0.023400334 0.045827306 4.8664079e-20)
(-0.025762271 0.046432011 -9.2439548e-21)
(-0.028255885 0.046366498 1.573899e-20)
(-0.030876114 0.045588701 2.2158366e-20)
(-0.03362029 0.044115866 -8.5104104e-21)
(-0.036489913 0.042038586 -2.1029775e-21)
(-0.039489792 0.039509939 -3.0199473e-20)
(-0.042624336 0.036704847 5.5800112e-21)
(-0.045893677 0.033773029 -1.4142406e-20)
(-0.049292312 0.030815588 1.178879e-20)
(-0.052810541 0.027889524 -6.6141333e-21)
(-0.05643772 0.025023921 -4.3628596e-21)
(-0.060166523 0.022233444 -3.7843842e-21)
(-0.063997469 0.019525274 -3.6605208e-21)
(-0.067946875 0.016899209 2.2590485e-20)
(-0.07205021 0.014330233 1.8231047e-20)
(-0.076360173 0.011747729 -5.2245022e-21)
(-0.080958095 0.0090334747 3.4957626e-21)
(-0.085945423 0.0059830602 -1.4070333e-20)
(-0.091421655 0.0022568416 2.9497449e-20)
(-0.097443069 -0.0026815005 3.5399767e-20)
(-0.10394522 -0.0096528009 1.0701111e-20)
(-0.11055648 -0.019906509 2.7395656e-20)
(-0.11639403 -0.035315409 -8.3218498e-22)
(-0.11949465 -0.058542875 -1.3026426e-20)
(-0.11605338 -0.092953179 -6.7233814e-20)
(-0.098752559 -0.14089496 3.2681844e-20)
(-0.059004038 -0.19918363 -1.2913725e-20)
(0.00651397 -0.25222699 3.0108701e-20)
(0.082017108 -0.28037142 -3.6499566e-20)
(0.14721171 -0.25945289 1.5842998e-20)
(0.20221834 -0.1835121 -8.773243e-22)
(0.26970756 -0.051221447 -3.162332e-22)
(0.38627679 0.10012974 -1.9547061e-22)
(0.58065834 0.19065839 -1.9208777e-21)
(0.87424928 0.1312388 1.9559744e-20)
(1.1500852 -0.048414937 -2.6002395e-20)
(-7.0215272e-05 0.00024490532 5.3472478e-21)
(-0.00021777218 0.00075626254 3.6788287e-21)
(-0.00038194878 0.0013203575 -5.7746108e-21)
(-0.00056533817 0.0019445036 1.5201252e-22)
(-0.0007708182 0.0026367048 5.2198145e-21)
(-0.0010016238 0.0034056254 2.7290156e-21)
(-0.0012613602 0.0042605643 -5.7504902e-21)
(-0.001554012 0.0052113917 9.4414641e-22)
(-0.0018839625 0.006268444 -1.3307481e-20)
(-0.0022560018 0.0074423671 2.5927974e-21)
(-0.0026753284 0.0087438956 6.6545919e-23)
(-0.0031475382 0.010183553 -9.5303203e-21)
(-0.0036785991 0.011771261 3.0524612e-20)
(-0.0042748095 0.013515829 -1.4215268e-20)
(-0.0049427341 0.015424326 -2.5452764e-20)
(-0.0056891171 0.017501304 2.7102061e-20)
(-0.0065207681 0.019747858 -3.3355856e-21)
(-0.0074444194 0.022160535 1.8913708e-20)
(-0.0084665556 0.02473008 1.4030114e-20)
(-0.0095932169 0.027440044 -4.4062436e-20)
(-0.010829781 0.030265303 3.3019634e-20)
(-0.012180735 0.033170567 -4.3377602e-20)
(-0.013649443 0.036108986 5.0810338e-21)
(-0.015237929 0.039021015 -2.0720746e-20)
(-0.016946686 0.041833761 4.4891585e-20)
(-0.018774522 0.044461068 -1.0606466e-20)
(-0.020718444 0.046804692 -2.6680156e-20)
(-0.02277363 0.048757014 6.4187098e-20)
(-0.02493352 0.050205976 -2.7732261e-20)
(-0.027190239 0.051043318 -2.9719961e-20)
(-0.029535663 0.051177684 2.4373839e-20)
(-0.031963518 0.050553958 3.2563955e-21)
(-0.034472322 0.049177026 -1.5970423e-20)
(-0.037067461 0.047129768 8.6665869e-21)
(-0.039759703 0.044566821 -1.2988867e-20)
(-0.042559661 0.041675215 4.4457547e-20)
(-0.045471721 0.038622924 -2.2782548e-20)
(-0.048491424 0.0355291 -1.3349902e-20)
(-0.051606807 0.032465355 -2.6976463e-20)
(-0.054802116 0.029472541 -3.7034738e-21)
(-0.058062151 0.026576564 2.8068002e-20)
(-0.061376902 0.023797671 -1.1397455e-20)
(-0.06474864 0.02115177 -1.6875952e-20)
(-0.068190906 0.018632914 -2.5087697e-21)
(-0.071726861 0.016192441 1.7284746e-20)
(-0.075395435 0.013736277 1.5599238e-20)
(-0.079232026 0.011082941 -4.8370163e-20)
(-0.08323565 0.0079121927 -2.6140541e-20)
(-0.087300755 0.0036946659 -5.8073816e-20)
(-0.091087922 -0.0024033372 -2.0849233e-20)
(-0.093784338 -0.011673965 -8.4033355e-21)
(-0.093838169 -0.026112671 -6.3715877e-20)
(-0.088105521 -0.048680182 -2.4828955e-20)
(-0.070517282 -0.083380547 8.3691372e-20)
(-0.029954271 -0.13276272 -6.548757e-20)
(0.045011651 -0.19225219 5.4383436e-20)
(0.15068481 -0.24293875 -2.1178864e-20)
(0.25696059 -0.26336538 7.0150073e-20)
(0.33483562 -0.23689579 1.8732437e-20)
(0.38504641 -0.16533231 -5.2683747e-22)
(0.44065279 -0.050046284 2.9277763e-21)
(0.54741403 0.07884425 4.1139819e-21)
(0.74319564 0.14717171 -1.9996654e-22)
(1.0359607 0.091120109 -2.5290794e-21)
(1.2184363 -0.055855881 3.3015959e-20)
(-8.4449091e-05 0.00026240888 9.7494434e-23)
(-0.00026172662 0.00081078474 -6.9399798e-21)
(-0.00045856583 0.0014160235 8.1801435e-21)
(-0.00067782712 0.0020857116 3.9358104e-21)
(-0.00092267114 0.0028281419 -7.8810321e-21)
(-0.0011966178 0.0036522857 -2.5518981e-21)
(-0.0015035549 0.0045677683 1.2371913e-20)
(-0.0018477417 0.0055848075 -1.3307436e-20)
(-0.0022338164 0.0067141107 -2.805704e-21)
(-0.0026667915 0.0079667212 -1.1153038e-20)
(-0.0031520386 0.0093538014 2.9590606e-20)
(-0.0036952567 0.010886338 3.5984143e-22)
(-0.0043024223 0.012574752 -2.6510668e-20)
(-0.0049797175 0.014428402 2.8413692e-20)
(-0.0057334313 0.016454953 -2.0301983e-20)
(-0.0065698322 0.018659603 -7.5121307e-21)
(-0.0074950083 0.02104415 1.5655094e-20)
(-0.0085146742 0.023605886 -1.4086518e-20)
(-0.0096339463 0.026336334 -1.8700459e-20)
(-0.010857091 0.02921982 3.9397412e-22)
(-0.012187251 0.032231946 2.9272618e-20)
(-0.013626171 0.035338011 -1.803595e-20)
(-0.01517393 0.038491501 1.0013062e-20)
(-0.016828711 0.04163279 4.8182623e-20)
(-0.018586622 0.044688263 1.6062689e-20)
(-0.020441606 0.04757013 -4.3417565e-20)
(-0.022385449 0.050177271 4.3268675e-21)
(-0.02440793 0.052397576 -4.8684819e-20)
(-0.0264972 0.054112493 2.8713094e-20)
(-0.028640576 0.055204878 -1.5146135e-20)
(-0.030826093 0.05557183 2.1895576e-20)
(-0.033045207 0.055144207 5.3336476e-21)
(-0.03529641 0.053911852 -2.6464352e-20)
(-0.037587826 0.051945431 2.6959976e-20)
(-0.039935458 0.049395933 3.9053511e-20)
(-0.042356032 0.046458683 -3.5841249e-21)
(-0.044858464 0.043318745 -4.0282703e-20)
(-0.04743941 0.040114151 5.0490767e-20)
(-0.0500841 0.036932461 -1.0680984e-20)
(-0.052770301 0.03382723 2.2700916e-20)
(-0.055472661 0.030835999 -3.5447361e-21)
(-0.058167245 0.027992053 3.5606189e-20)
(-0.060836815 0.025326862 1.7260419e-20)
(-0.063465048 0.022853029 2.2173939e-20)
(-0.066033768 0.020543953 -9.1437407e-20)
(-0.068520388 0.018328627 -3.0805825e-20)
(-0.07086262 0.016046575 4.1778915e-20)