/*--------------------------------*- C++ -*----------------------------------*\
  =========                 |
  \\      /  F ield         | OpenFOAM: The Open Source CFD Toolbox
   \\    /   O peration     | Website:  https://openfoam.org
    \\  /    A nd           | Version:  13
     \\/     M anipulation  |
\*---------------------------------------------------------------------------*/
FoamFile
{
    format      ascii;
    class       volScalarField;
    location    "0.007";
    object      mag(U);
}
// * * * * * * * * * * * * * * * * * * * * * * * * * * * * * * * * * * * * * //

dimensions      [0 1 -1 0 0 0 0];

internalField   nonuniform List<scalar> 
1000
(
4.08444e-13
3.35508e-13
5.68905e-13
3.50095e-13
4.95968e-13
2.91746e-14
7.0019e-13
1.31286e-13
7.14777e-13
3.50095e-13
4.95968e-13
1.16698e-13
4.95968e-13
2.91746e-13
6.41841e-13
2.18809e-13
5.68905e-13
3.7927e-13
2.04222e-13
2.18809e-13
2.33397e-13
1.02111e-13
8.75238e-14
1.6046e-13
3.06333e-13
2.47984e-13
3.50095e-13
2.62571e-13
5.3973e-13
1.45873e-13
6.41841e-13
1.6046e-13
5.54317e-13
1.16698e-13
3.35508e-13
1.45873e-13
1.31286e-13
1.45873e-13
1.45873e-14
1.75048e-13
2.91746e-14
2.62571e-13
1.02111e-13
4.08444e-13
3.20921e-13
5.98079e-13
4.52206e-13
6.41841e-13
7.0019e-13
9.19e-13
7.43952e-13
8.02301e-13
1.10863e-12
1.07946e-12
9.19e-13
9.91936e-13
7.73127e-13
8.02301e-13
7.29365e-13
5.83492e-13
2.62571e-13
2.91746e-13
5.83492e-14
2.91746e-14
4.23032e-13
4.08444e-13
7.29365e-13
4.81381e-13
7.43952e-13
4.66793e-13
4.08444e-13
5.25143e-13
4.23032e-13
2.62571e-13
2.91746e-13
3.35508e-13
2.62571e-13
2.77159e-13
4.66793e-13
3.35508e-13
6.56428e-13
4.08444e-13
8.16889e-13
6.41841e-13
9.33587e-13
8.31476e-13
9.04412e-13
1.05029e-12
1.06487e-12
1.22533e-12
1.41497e-12
1.63378e-12
1.73589e-12
1.98387e-12
1.77965e-12
1.86717e-12
2.12975e-12
1.79424e-12
1.75048e-12
1.96928e-12
1.89635e-12
2.12975e-12
1.838e-12
1.70671e-12
1.40038e-12
1.66295e-12
1.53167e-12
1.4879e-12
1.50249e-12
1.51708e-12
1.25451e-12
1.35662e-12
1.22533e-12
1.0357e-12
9.33587e-13
9.33587e-13
9.04412e-13
7.29365e-13
6.85603e-13
7.73127e-13
6.12666e-13
7.14777e-13
7.14777e-13
5.83492e-13
9.19e-13
5.10555e-13
9.04412e-13
5.3973e-13
7.43952e-13
6.12666e-13
4.81381e-13
5.10555e-13
5.25143e-13
5.83492e-13
3.93857e-13
4.37619e-13
5.68905e-13
4.23032e-13
6.85603e-13
5.98079e-13
7.87714e-13
4.52206e-13
8.31476e-13
3.64682e-13
7.0019e-13
5.3973e-13
1.4879e-12
1.80882e-12
3.4426e-12
5.35354e-12
9.46716e-12
1.55938e-11
2.63738e-11
4.45788e-11
7.52996e-11
1.27085e-10
2.13398e-10
3.56659e-10
5.94607e-10
9.86831e-10
1.63112e-09
2.6858e-09
4.40351e-09
7.18919e-09
1.1687e-08
1.89168e-08
3.04851e-08
4.89126e-08
7.81301e-08
1.24244e-07
1.96681e-07
3.09939e-07
4.86173e-07
7.59093e-07
1.17969e-06
1.82471e-06
2.80903e-06
4.30364e-06
6.56167e-06
9.95573e-06
1.50312e-05
2.25817e-05
3.37554e-05
5.02032e-05
7.42852e-05
0.000109354
0.000160143
0.000233292
0.000338057
0.000487252
0.000698505
0.000995897
0.0014121
0.00199111
0.00279178
0.00389223
0.00539538
0.00743575
0.0101878
0.0138759
0.0187864
0.025281
0.0338134
0.0449467
0.0593733
0.0779367
0.101653
0.131734
0.169606
0.216934
0.27563
0.347864
0.436063
0.542901
0.671268
0.824238
1.005
1.21678
1.46275
1.74588
2.06884
2.43381
2.84242
3.29562
3.79372
4.33627
4.92212
5.54949
6.21603
6.91896
7.65518
8.42143
9.21443
10.031
10.868
11.7227
12.5927
13.4758
14.37
15.274
16.1862
17.1059
18.032
18.964
19.9014
20.8436
21.7905
22.7418
23.6972
24.6566
25.6199
26.5869
27.5575
28.5317
29.5092
30.4901
31.4743
32.4616
33.452
34.4454
35.4418
36.441
37.443
38.4478
39.4552
40.4652
41.4777
42.4928
43.5102
44.5301
45.5522
46.5766
47.6033
48.6321
49.663
50.696
51.731
52.768
53.807
54.8479
55.8906
56.9352
57.9815
59.0296
60.0794
61.1309
62.1841
63.2388
64.2951
65.353
66.4124
67.4732
68.5356
69.5993
70.6644
71.7309
72.7987
73.8679
74.9383
76.0099
77.0828
78.1569
79.2322
80.3086
81.3861
82.4647
83.5444
84.6252
85.707
86.7898
87.8735
88.9583
90.0439
91.1305
92.218
93.3064
94.3956
95.4856
96.5765
97.6682
98.7606
99.8538
100.948
102.042
103.138
104.234
105.33
106.428
107.526
108.624
109.723
110.823
111.923
113.024
114.125
115.227
116.329
117.432
118.535
119.639
120.743
121.847
122.952
124.057
125.163
126.268
127.375
128.481
129.588
130.695
131.802
132.909
134.017
135.125
136.233
137.341
138.45
139.558
140.667
141.776
142.884
143.993
145.102
146.211
147.32
148.429
149.538
150.647
151.756
152.864
153.973
155.082
156.19
157.298
158.406
159.514
160.622
161.729
162.837
163.944
165.05
166.157
167.263
168.368
169.473
170.578
171.683
172.787
173.89
174.993
176.096
177.197
178.299
179.4
180.5
181.599
182.698
183.796
184.893
185.99
187.085
188.18
189.274
190.367
191.459
192.55
193.64
194.73
195.818
196.904
197.99
199.075
200.158
201.24
202.32
203.399
204.477
205.554
206.628
207.701
208.773
209.843
210.911
211.977
213.042
214.104
215.165
216.223
217.28
218.334
219.386
220.435
221.483
222.528
223.57
224.609
225.646
226.681
227.712
228.74
229.765
230.788
231.806
232.822
233.834
234.843
235.847
236.849
237.846
238.839
239.828
240.813
241.794
242.77
243.741
244.707
245.669
246.626
247.577
248.523
249.464
250.399
251.328
252.251
253.168
254.079
254.983
255.881
256.771
257.655
258.531
259.4
260.262
261.115
261.961
262.798
263.627
264.448
265.259
266.062
266.855
267.639
268.413
269.178
269.932
270.676
271.41
272.133
272.845
273.545
274.235
274.913
275.579
276.234
276.876
277.507
278.124
278.73
279.322
279.902
280.469
281.022
281.562
282.089
282.603
283.103
283.59
284.063
284.522
284.967
285.399
285.818
286.222
286.613
286.991
287.355
287.706
288.043
288.367
288.679
288.977
289.263
289.537
289.798
290.047
290.284
290.51
290.725
290.929
291.122
291.304
291.477
291.639
291.792
291.936
292.072
292.198
292.317
292.428
292.531
292.627
292.716
292.799
292.876
292.946
293.012
293.072
293.127
293.177
293.223
293.265
293.304
293.338
293.37
293.398
293.424
293.447
293.467
293.485
293.502
293.516
293.529
293.54
293.549
293.558
293.565
293.571
293.576
293.58
293.584
293.587
293.589
293.591
293.592
293.593
293.593
293.594
293.593
293.593
293.593
293.592
293.591
293.59
293.589
293.588
293.587
293.586
293.584
293.583
293.582
293.581
293.579
293.578
293.577
293.576
293.574
293.573
293.572
293.571
293.57
293.569
293.568
293.567
293.566
293.565
293.564
293.563
293.562
293.561
293.56
293.56
293.559
293.558
293.557
293.557
293.556
293.556
293.555
293.555
293.554
293.554
293.553
293.553
293.552
293.552
293.552
293.551
293.551
293.551
293.551
293.55
293.55
293.55
293.55
293.55
293.55
293.55
293.55
293.55
293.55
293.55
293.551
293.551
293.551
293.552
293.552
293.553
293.554
293.555
293.556
293.557
293.558
293.56
293.562
293.565
293.567
293.571
293.574
293.579
293.584
293.589
293.596
293.604
293.612
293.622
293.633
293.646
293.66
293.676
293.694
293.714
293.736
293.76
293.786
293.815
293.846
293.88
293.916
293.955
293.997
294.041
294.087
294.135
294.186
294.239
294.293
294.349
294.406
294.463
294.522
294.58
294.638
294.695
294.751
294.806
294.858
294.908
294.955
294.998
295.037
295.072
295.102
295.127
295.147
295.161
295.17
295.172
295.168
295.159
295.143
295.121
295.094
295.061
295.024
294.981
294.935
294.884
294.831
294.774
294.715
294.655
294.594
294.532
294.47
294.408
294.347
294.288
294.23
294.174
294.12
294.069
294.021
293.975
293.932
293.892
293.855
293.82
293.789
293.76
293.733
293.709
293.688
293.669
293.651
293.636
293.622
293.611
293.6
293.591
293.583
293.576
293.57
293.566
293.561
293.558
293.555
293.553
293.551
293.549
293.548
293.547
293.546
293.546
293.545
293.545
293.545
293.545
293.546
293.546
293.546
293.547
293.547
293.547
293.548
293.548
293.549
293.549
293.55
293.55
293.551
293.552
293.552
293.553
293.553
293.554
293.554
293.555
293.556
293.556
293.557
293.557
293.558
293.559
293.559
293.56
293.56
293.561
293.562
293.562
293.563
293.564
293.564
293.565
293.565
293.566
293.567
293.567
293.568
293.569
293.57
293.57
293.571
293.572
293.572
293.573
293.574
293.575
293.575
293.576
293.577
293.577
293.578
293.579
293.579
293.58
293.581
293.581
293.582
293.583
293.583
293.583
293.584
293.584
293.584
293.584
293.584
293.584
293.583
293.582
293.581
293.579
293.577
293.574
293.57
293.566
293.561
293.554
293.546
293.537
293.525
293.512
293.495
293.475
293.452
293.423
293.39
293.35
293.302
293.246
293.179
293.099
293.005
292.892
292.76
292.602
292.415
292.194
291.932
291.62
291.251
290.813
290.293
289.676
288.943
288.07
287.032
285.794
284.317
282.55
280.434
277.892
274.83
271.128
266.633
261.148
254.409
246.065
235.629
222.396
205.295
182.645
152.02
111.522
65.3563
28.1096
9.13946
2.51955
0.644374
0.160421
0.0396382
0.00977623
0.00241017
0.00059413
0.000146455
3.61016e-05
8.89911e-06
2.19364e-06
5.40731e-07
1.3329e-07
3.28555e-08
8.09863e-09
1.99627e-09
4.92089e-10
1.21235e-10
3.00353e-11
7.35201e-12
1.89635e-12
2.91746e-13
7.29366e-14
2.04222e-13
4.3762e-14
2.77159e-13
5.83493e-14
6.98129e-27
4.08445e-13
4.3762e-14
1.45873e-13
7.29366e-14
1.89635e-13
1.89635e-13
1.02111e-13
3.50096e-13
2.1881e-13
3.35508e-13
1.45873e-13
4.66794e-13
3.50096e-13
3.06334e-13
4.08445e-13
1.6046e-13
2.04222e-13
7.29366e-14
1.89635e-13
1.45873e-13
1.31286e-13
1.6046e-13
4.95969e-13
3.64683e-13
4.52207e-13
5.68905e-13
5.10556e-13
4.3762e-13
3.7927e-13
2.91746e-13
1.45873e-13
2.91746e-14
3.06334e-13
1.02111e-13
3.93858e-13
4.3762e-14
4.23032e-13
1.45873e-13
3.20921e-13
4.3762e-14
3.50096e-13
8.75239e-14
3.7927e-13
1.16699e-13
1.75048e-13
1.45873e-13
4.23032e-13
1.89635e-13
2.1881e-13
1.89635e-13
3.20921e-13
1.45873e-13
8.75239e-14
1.45873e-14
3.06334e-13
1.45873e-14
3.06334e-13
1.75048e-13
2.77159e-13
1.45873e-13
2.91746e-14
7.29366e-14
3.35508e-13
3.20921e-13
1.45873e-13
1.31286e-13
5.83493e-14
1.89635e-13
1.45873e-13
3.35508e-13
2.91746e-13
2.47984e-13
7.29366e-14
1.16699e-13
2.91746e-14
7.29366e-14
)
;

boundaryField
{
    sides
    {
        type            calculated;
        value           nonuniform List<scalar> 2(7.29366e-14 4.08444e-13);
    }
    empty
    {
        type            empty;
    }
}


// ************************************************************************* //
