/*--------------------------------*- C++ -*----------------------------------*\
  =========                 |
  \\      /  F ield         | OpenFOAM: The Open Source CFD Toolbox
   \\    /   O peration     | Website:  https://openfoam.org
    \\  /    A nd           | Version:  13
     \\/     M anipulation  |
\*---------------------------------------------------------------------------*/
FoamFile
{
    format      ascii;
    class       volScalarField;
    location    "0.007";
    object      p;
}
// * * * * * * * * * * * * * * * * * * * * * * * * * * * * * * * * * * * * * //

dimensions      [1 -1 -2 0 0 0 0];

internalField   nonuniform List<scalar> 
1000
(
100000
100000
100000
100000
100000
100000
100000
100000
100000
100000
100000
100000
100000
100000
100000
100000
100000
100000
100000
100000
100000
100000
100000
100000
100000
100000
100000
100000
100000
100000
100000
100000
100000
100000
100000
100000
100000
100000
100000
100000
100000
100000
100000
100000
100000
100000
100000
100000
100000
100000
100000
100000
100000
100000
100000
100000
100000
100000
100000
100000
100000
100000
100000
100000
100000
100000
100000
100000
100000
100000
100000
100000
100000
100000
100000
100000
100000
100000
100000
100000
100000
100000
100000
100000
100000
100000
100000
100000
100000
100000
100000
100000
100000
100000
100000
100000
100000
100000
100000
100000
100000
100000
100000
100000
100000
100000
100000
100000
100000
100000
100000
100000
100000
100000
100000
100000
100000
100000
100000
100000
100000
100000
100000
100000
100000
100000
100000
100000
100000
100000
100000
100000
100000
100000
100000
100000
100000
100000
100000
100000
100000
100000
100000
100000
100000
100000
100000
100000
100000
100000
100000
100000
100000
100000
100000
100000
100000
100000
100000
100000
100000
100000
100000
100000
100000
100000
100000
100000
100000
100000
100000
100000
100000
100000
100000
100000
100000
100000
100000
100000
100000
100000
100000
100000
100000
100000
99999.9
99999.9
99999.9
99999.8
99999.7
99999.6
99999.5
99999.3
99999
99998.6
99998
99997.2
99996.2
99994.9
99993
99990.6
99987.5
99983.3
99978
99971.1
99962.3
99951.1
99937
99919.4
99897.5
99870.6
99837.8
99797.9
99750.1
99693.1
99625.7
99546.7
99455
99349.4
99228.9
99092.7
98940.3
98771.3
98585.6
98383.4
98165.3
97931.9
97684.2
97423.3
97150.4
96866.9
96574.1
96273.2
95965.5
95652
95333.8
95011.7
94686.5
94358.7
94029
93697.6
93365.1
93031.5
92697.1
92362.1
92026.6
91690.7
91354.5
91018.1
90681.4
90344.7
90007.9
89671
89334.1
88997.3
88660.5
88323.8
87987.3
87650.9
87314.7
86978.8
86643
86307.6
85972.5
85637.6
85303.2
84969.1
84635.4
84302.1
83969.2
83636.8
83304.9
82973.5
82642.5
82312.1
81982.2
81652.9
81324.2
80996
80668.5
80341.5
80015.2
79689.5
79364.5
79040.1
78716.4
78393.4
78071.1
77749.5
77428.6
77108.4
76789
76470.3
76152.3
75835.2
75518.7
75203.1
74888.3
74574.2
74261
73948.5
73636.9
73326.1
73016.1
72707
72398.7
72091.3
71784.7
71478.9
71174
70870
70566.9
70264.6
69963.3
69662.8
69363.2
69064.5
68766.7
68469.8
68173.8
67878.7
67584.6
67291.3
66999
66707.6
66417.1
66127.6
65839
65551.3
65264.6
64978.8
64694
64410.1
64127.1
63845.1
63564.1
63284
63004.9
62726.7
62449.5
62173.3
61898
61623.7
61350.3
61078
60806.5
60536.1
60266.7
59998.2
59730.7
59464.1
59198.6
58934
58670.4
58407.8
58146.2
57885.5
57625.9
57367.2
57109.5
56852.8
56597.1
56342.3
56088.6
55835.8
55584.1
55333.3
55083.5
54834.7
54586.9
54340.1
54094.3
53849.5
53605.7
53362.9
53121.1
52880.3
52640.5
52401.6
52163.8
51927
51691.2
51456.4
51222.6
50989.7
50757.9
50527.2
50297.4
50068.6
49840.8
49614.1
49388.3
49163.6
48939.9
48717.2
48495.5
48274.8
48055.2
47836.6
47619
47402.4
47186.8
46972.3
46758.8
46546.4
46335
46124.6
45915.2
45706.9
45499.7
45293.5
45088.3
44884.2
44681.2
44479.2
44278.3
44078.4
43879.6
43681.9
43485.3
43289.7
43095.3
42901.9
42709.6
42518.4
42328.3
42139.4
41951.5
41764.8
41579.2
41394.7
41211.4
41029.2
40848.2
40668.3
40489.6
40312
40135.7
39960.5
39786.5
39613.8
39442.2
39271.9
39102.8
38934.9
38768.3
38602.9
38438.9
38276.1
38114.6
37954.4
37795.5
37637.9
37481.7
37326.9
37173.4
37021.3
36870.6
36721.2
36573.4
36426.9
36281.9
36138.4
35996.3
35855.8
35716.7
35579.2
35443.3
35308.9
35176
35044.8
34915.2
34787.3
34660.9
34536.3
34413.3
34292.1
34172.6
34054.8
33938.7
33824.5
33712
33601.4
33492.6
33385.6
33280.5
33177.3
33076
32976.6
32879.1
32783.6
32690
32598.4
32508.7
32421.1
32335.4
32251.8
32170.2
32090.6
32013
31937.4
31863.9
31792.4
31723
31655.6
31590.2
31526.8
31465.5
31406.1
31348.7
31293.4
31239.9
31188.4
31138.9
31091.2
31045.5
31001.5
30959.4
30919.1
30880.6
30843.8
30808.7
30775.3
30743.4
30713.2
30684.5
30657.4
30631.6
30607.3
30584.4
30562.8
30542.5
30523.4
30505.6
30488.8
30473.2
30458.6
30445
30432.3
30420.6
30409.7
30399.7
30390.4
30381.9
30374
30366.8
30360.3
30354.2
30348.8
30343.8
30339.3
30335.2
30331.6
30328.3
30325.3
30322.7
30320.4
30318.3
30316.5
30314.9
30313.5
30312.3
30311.3
30310.4
30309.6
30309
30308.5
30308.1
30307.8
30307.5
30307.3
30307.2
30307.2
30307.1
30307.2
30307.2
30307.3
30307.4
30307.6
30307.7
30307.9
30308.1
30308.3
30308.5
30308.7
30308.9
30309.1
30309.3
30309.6
30309.8
30310
30310.2
30310.4
30310.6
30310.8
30311.1
30311.3
30311.5
30311.7
30311.8
30312
30312.2
30312.4
30312.6
30312.8
30312.9
30313.1
30313.3
30313.4
30313.6
30313.7
30313.9
30314
30314.2
30314.3
30314.5
30314.6
30314.7
30314.9
30315
30315.1
30315.2
30315.4
30315.5
30315.6
30315.7
30315.8
30315.9
30316
30316.2
30316.3
30316.4
30316.5
30316.6
30316.7
30316.8
30316.9
30317
30317.1
30317.1
30317.2
30317.3
30317.4
30317.5
30317.6
30317.7
30317.8
30317.8
30317.9
30318
30318.1
30318.2
30318.3
30318.3
30318.4
30318.5
30318.6
30318.6
30318.7
30318.8
30318.9
30318.9
30319
30319.1
30319.1
30319.2
30319.3
30319.3
30319.4
30319.5
30319.5
30319.6
30319.7
30319.7
30319.8
30319.9
30319.9
30320
30320
30320.1
30320.2
30320.2
30320.3
30320.3
30320.4
30320.4
30320.5
30320.6
30320.6
30320.7
30320.7
30320.8
30320.8
30320.9
30320.9
30321
30321.1
30321.1
30321.2
30321.2
30321.3
30321.3
30321.4
30321.5
30321.5
30321.6
30321.6
30321.7
30321.8
30321.8
30321.9
30321.9
30322
30322
30322.1
30322.2
30322.2
30322.3
30322.3
30322.4
30322.4
30322.5
30322.5
30322.6
30322.6
30322.7
30322.7
30322.8
30322.8
30322.8
30322.9
30322.9
30323
30323
30323.1
30323.1
30323.1
30323.2
30323.2
30323.3
30323.3
30323.3
30323.4
30323.4
30323.5
30323.5
30323.6
30323.6
30323.7
30323.7
30323.7
30323.8
30323.8
30323.9
30323.9
30324
30324
30324.1
30324.1
30324.2
30324.2
30324.3
30324.3
30324.4
30324.4
30324.5
30324.5
30324.6
30324.6
30324.7
30324.8
30324.8
30324.9
30324.9
30325
30325
30325.1
30325.1
30325.2
30325.3
30325.3
30325.4
30325.4
30325.5
30325.6
30325.6
30325.7
30325.8
30325.8
30325.9
30325.9
30326
30326.1
30326.1
30326.2
30326.3
30326.3
30326.4
30326.5
30326.6
30326.6
30326.7
30326.8
30326.8
30326.9
30327
30327.1
30327.1
30327.2
30327.3
30327.4
30327.5
30327.5
30327.6
30327.7
30327.8
30327.9
30327.9
30328
30328.1
30328.2
30328.3
30328.3
30328.4
30328.5
30328.6
30328.6
30328.7
30328.8
30328.8
30328.9
30328.9
30329
30329
30329
30329
30329
30328.9
30328.9
30328.8
30328.6
30328.4
30328.1
30327.8
30327.4
30326.9
30326.3
30325.6
30324.7
30323.6
30322.2
30320.6
30318.7
30316.5
30313.8
30310.5
30306.7
30302.1
30296.6
30290.1
30282.4
30273.3
30262.5
30249.6
30234.3
30216.2
30194.8
30169.3
30139.1
30103.2
30060.7
30010.1
29950
29878.6
29793.5
29692
29570.9
29426.1
29252.6
29044.3
28793.3
28490.1
28122.1
27673.4
27123.2
26443.5
25596.5
24527.9
23157.3
21365.5
19011.1
16091.7
13148.9
11179.1
10348.8
10091.5
10022.9
10005.7
10001.4
10000.3
10000.1
10000
10000
10000
10000
10000
10000
10000
10000
10000
10000
10000
10000
10000
10000
10000
10000
10000
10000
10000
10000
10000
10000
10000
10000
10000
10000
10000
10000
10000
10000
10000
10000
10000
10000
10000
10000
10000
10000
10000
10000
10000
10000
10000
10000
10000
10000
10000
10000
10000
10000
10000
10000
10000
10000
10000
10000
10000
10000
10000
10000
10000
10000
10000
10000
10000
10000
10000
10000
10000
10000
10000
10000
10000
10000
10000
10000
10000
10000
10000
10000
10000
10000
10000
10000
10000
10000
10000
10000
10000
10000
10000
10000
10000
10000
10000
10000
10000
10000
)
;

boundaryField
{
    sides
    {
        type            zeroGradient;
    }
    empty
    {
        type            empty;
    }
}


// ************************************************************************* //
