/*--------------------------------*- C++ -*----------------------------------*\
  =========                 |
  \\      /  F ield         | OpenFOAM: The Open Source CFD Toolbox
   \\    /   O peration     | Website:  https://openfoam.org
    \\  /    A nd           | Version:  13
     \\/     M anipulation  |
\*---------------------------------------------------------------------------*/
FoamFile
{
    format      ascii;
    class       volScalarField;
    location    "0.007";
    object      T;
}
// * * * * * * * * * * * * * * * * * * * * * * * * * * * * * * * * * * * * * //

dimensions      [0 0 0 1 0 0 0];

internalField   nonuniform List<scalar> 
1000
(
348.432
348.432
348.432
348.432
348.432
348.432
348.432
348.432
348.432
348.432
348.432
348.432
348.432
348.432
348.432
348.432
348.432
348.432
348.432
348.432
348.432
348.432
348.432
348.432
348.432
348.432
348.432
348.432
348.432
348.432
348.432
348.432
348.432
348.432
348.432
348.432
348.432
348.432
348.432
348.432
348.432
348.432
348.432
348.432
348.432
348.432
348.432
348.432
348.432
348.432
348.432
348.432
348.432
348.432
348.432
348.432
348.432
348.432
348.432
348.432
348.432
348.432
348.432
348.432
348.432
348.432
348.432
348.432
348.432
348.432
348.432
348.432
348.432
348.432
348.432
348.432
348.432
348.432
348.432
348.432
348.432
348.432
348.432
348.432
348.432
348.432
348.432
348.432
348.432
348.432
348.432
348.432
348.432
348.432
348.432
348.432
348.432
348.432
348.432
348.432
348.432
348.432
348.432
348.432
348.432
348.432
348.432
348.432
348.432
348.432
348.432
348.432
348.432
348.432
348.432
348.432
348.432
348.432
348.432
348.432
348.432
348.432
348.432
348.432
348.432
348.432
348.432
348.432
348.432
348.432
348.432
348.432
348.432
348.432
348.432
348.432
348.432
348.432
348.432
348.432
348.432
348.432
348.432
348.432
348.432
348.432
348.432
348.432
348.432
348.432
348.432
348.432
348.432
348.432
348.432
348.432
348.432
348.432
348.432
348.432
348.432
348.432
348.432
348.432
348.432
348.432
348.432
348.432
348.432
348.432
348.432
348.432
348.432
348.432
348.432
348.432
348.432
348.432
348.432
348.432
348.432
348.432
348.432
348.432
348.432
348.432
348.432
348.432
348.432
348.432
348.432
348.432
348.431
348.431
348.431
348.431
348.43
348.429
348.428
348.427
348.425
348.423
348.419
348.415
348.41
348.403
348.394
348.383
348.369
348.352
348.33
348.303
348.27
348.23
348.183
348.126
348.058
347.979
347.887
347.781
347.661
347.524
347.371
347.201
347.013
346.81
346.589
346.353
346.102
345.837
345.559
345.27
344.971
344.663
344.347
344.025
343.697
343.364
343.027
342.687
342.344
341.999
341.651
341.301
340.95
340.597
340.243
339.888
339.531
339.173
338.814
338.454
338.093
337.731
337.368
337.004
336.639
336.273
335.907
335.539
335.171
334.803
334.433
334.063
333.692
333.32
332.948
332.576
332.202
331.828
331.454
331.079
330.703
330.328
329.951
329.574
329.197
328.819
328.441
328.062
327.684
327.304
326.925
326.545
326.164
325.784
325.403
325.022
324.64
324.258
323.876
323.494
323.112
322.729
322.346
321.963
321.58
321.196
320.813
320.429
320.045
319.661
319.276
318.892
318.508
318.123
317.738
317.354
316.969
316.584
316.199
315.814
315.429
315.044
314.658
314.273
313.888
313.503
313.118
312.732
312.347
311.962
311.577
311.192
310.807
310.422
310.036
309.652
309.267
308.882
308.497
308.112
307.728
307.343
306.959
306.575
306.19
305.806
305.422
305.039
304.655
304.272
303.888
303.505
303.122
302.739
302.356
301.974
301.591
301.209
300.827
300.445
300.064
299.682
299.301
298.92
298.54
298.159
297.779
297.399
297.019
296.64
296.26
295.881
295.503
295.124
294.746
294.368
293.991
293.614
293.237
292.86
292.484
292.108
291.732
291.357
290.982
290.608
290.234
289.86
289.486
289.113
288.741
288.368
287.996
287.625
287.254
286.883
286.513
286.144
285.774
285.406
285.037
284.669
284.302
283.935
283.569
283.203
282.838
282.473
282.109
281.745
281.382
281.02
280.658
280.296
279.936
279.576
279.216
278.858
278.499
278.142
277.785
277.429
277.074
276.719
276.366
276.013
275.66
275.309
274.958
274.608
274.26
273.911
273.564
273.218
272.873
272.528
272.185
271.842
271.501
271.16
270.821
270.483
270.146
269.81
269.475
269.141
268.809
268.477
268.147
267.819
267.491
267.165
266.841
266.518
266.196
265.876
265.557
265.24
264.925
264.611
264.299
263.988
263.68
263.373
263.068
262.765
262.464
262.165
261.868
261.573
261.28
260.989
260.701
260.415
260.131
259.85
259.571
259.294
259.021
258.749
258.481
258.215
257.953
257.693
257.436
257.181
256.931
256.683
256.438
256.197
255.959
255.724
255.493
255.265
255.041
254.82
254.603
254.39
254.181
253.976
253.774
253.576
253.383
253.193
253.008
252.827
252.65
252.477
252.308
252.144
251.984
251.828
251.677
251.53
251.388
251.25
251.116
250.987
250.862
250.741
250.625
250.513
250.405
250.302
250.202
250.107
250.016
249.93
249.847
249.768
249.693
249.621
249.554
249.49
249.429
249.372
249.318
249.268
249.221
249.177
249.135
249.097
249.061
249.028
248.998
248.97
248.944
248.921
248.899
248.88
248.863
248.847
248.833
248.821
248.81
248.801
248.793
248.786
248.781
248.777
248.773
248.771
248.77
248.769
248.769
248.77
248.772
248.774
248.777
248.78
248.784
248.789
248.793
248.798
248.804
248.81
248.816
248.822
248.829
248.836
248.843
248.85
248.858
248.866
248.873
248.882
248.89
248.898
248.907
248.915
248.924
248.933
248.942
248.951
248.961
248.97
248.98
248.99
249
249.01
249.02
249.03
249.041
249.051
249.062
249.073
249.084
249.096
249.107
249.119
249.131
249.143
249.155
249.167
249.18
249.193
249.206
249.219
249.232
249.246
249.26
249.274
249.289
249.303
249.318
249.334
249.349
249.365
249.382
249.398
249.415
249.432
249.45
249.468
249.487
249.506
249.525
249.545
249.565
249.586
249.607
249.629
249.652
249.675
249.698
249.723
249.748
249.774
249.801
249.829
249.857
249.887
249.918
249.951
249.984
250.02
250.057
250.097
250.138
250.183
250.23
250.282
250.337
250.397
250.462
250.533
250.612
250.699
250.795
250.903
251.022
251.156
251.306
251.475
251.664
251.877
252.115
252.384
252.685
253.022
253.4
253.822
254.292
254.815
255.397
256.04
256.751
257.535
258.396
259.339
260.37
261.493
262.714
264.036
265.465
267.004
268.656
270.425
272.314
274.325
276.46
278.718
281.1
283.606
286.234
288.98
291.842
294.815
297.893
301.07
304.338
307.688
311.11
314.594
318.128
321.7
325.297
328.904
332.51
336.098
339.655
343.167
346.621
350.002
353.3
356.501
359.596
362.575
365.43
368.154
370.743
373.191
375.497
377.659
379.677
381.554
383.29
384.89
386.359
387.7
388.921
390.026
391.024
391.92
392.722
393.435
394.069
394.628
395.119
395.55
395.925
396.25
396.531
396.772
396.978
397.153
397.3
397.424
397.527
397.612
397.682
397.738
397.783
397.819
397.846
397.866
397.881
397.891
397.897
397.9
397.9
397.898
397.895
397.89
397.885
397.879
397.872
397.865
397.858
397.85
397.843
397.836
397.828
397.821
397.815
397.808
397.802
397.795
397.79
397.784
397.778
397.773
397.768
397.763
397.759
397.754
397.75
397.746
397.742
397.739
397.735
397.732
397.729
397.726
397.723
397.72
397.717
397.715
397.712
397.71
397.708
397.705
397.703
397.701
397.7
397.698
397.696
397.694
397.693
397.691
397.69
397.688
397.687
397.686
397.685
397.684
397.682
397.681
397.68
397.679
397.678
397.678
397.677
397.676
397.675
397.674
397.674
397.673
397.672
397.671
397.671
397.67
397.669
397.668
397.668
397.667
397.666
397.665
397.664
397.663
397.661
397.66
397.658
397.656
397.654
397.651
397.648
397.644
397.64
397.635
397.629
397.622
397.614
397.604
397.592
397.579
397.562
397.543
397.52
397.493
397.461
397.423
397.378
397.325
397.262
397.187
397.098
396.993
396.868
396.719
396.541
396.33
396.078
395.777
395.417
394.984
394.464
393.836
393.076
392.15
391.016
389.62
387.885
385.707
382.941
379.37
374.666
368.291
359.343
346.35
327.696
305.25
288.411
281.456
279.445
278.922
278.79
278.757
278.749
278.747
278.746
278.746
278.746
278.746
278.746
278.746
278.746
278.746
278.746
278.746
278.746
278.746
278.746
278.746
278.746
278.746
278.746
278.746
278.746
278.746
278.746
278.746
278.746
278.746
278.746
278.746
278.746
278.746
278.746
278.746
278.746
278.746
278.746
278.746
278.746
278.746
278.746
278.746
278.746
278.746
278.746
278.746
278.746
278.746
278.746
278.746
278.746
278.746
278.746
278.746
278.746
278.746
278.746
278.746
278.746
278.746
278.746
278.746
278.746
278.746
278.746
278.746
278.746
278.746
278.746
278.746
278.746
278.746
278.746
278.746
278.746
278.746
278.746
278.746
278.746
278.746
278.746
278.746
278.746
278.746
278.746
278.746
278.746
278.746
278.746
278.746
278.746
278.746
278.746
278.746
278.746
278.746
278.746
278.746
278.746
278.746
278.746
278.746
)
;

boundaryField
{
    sides
    {
        type            zeroGradient;
    }
    empty
    {
        type            empty;
    }
}


// ************************************************************************* //
