/*--------------------------------*- C++ -*----------------------------------*\
  =========                 |
  \\      /  F ield         | OpenFOAM: The Open Source CFD Toolbox
   \\    /   O peration     | Website:  https://openfoam.org
    \\  /    A nd           | Version:  13
     \\/     M anipulation  |
\*---------------------------------------------------------------------------*/
FoamFile
{
    format      ascii;
    class       volVectorField;
    location    "6.798371";
    object      wallShearStress;
}
// * * * * * * * * * * * * * * * * * * * * * * * * * * * * * * * * * * * * * //

dimensions      [0 2 -2 0 0 0 0];

internalField   uniform (0 0 0);

boundaryField
{
    inlet
    {
        type            calculated;
        value           uniform (0 0 0);
    }
    outlet
    {
        type            calculated;
        value           uniform (0 0 0);
    }
    cylinder
    {
        type            calculated;
        value           nonuniform List<vector> 
132
(
(0.00011390691 -0.0016619421 -1.0273732e-22)
(0.00047987234 -0.0095005542 3.0091034e-23)
(0.00127125 -0.017160136 1.7967392e-21)
(0.002459938 -0.024362155 -6.7001722e-21)
(0.0039865515 -0.030828213 5.3547387e-21)
(0.0057606616 -0.036293492 1.8645363e-20)
(0.0076615892 -0.040527158 -4.0150879e-21)
(0.0095515152 -0.043343667 -1.7905977e-20)
(0.011277343 -0.04461957 1.8743713e-20)
(0.012683604 -0.04430793 -4.593068e-20)
(0.013627074 -0.042449774 -8.9749927e-22)
(0.013993357 -0.039182509 3.2372784e-20)
(0.01371441 -0.034742081 5.4811708e-20)
(0.012787138 -0.029461743 -4.5493773e-20)
(0.011279924 -0.023739926 4.826411e-20)
(0.0093390563 -0.018014716 7.7347545e-20)
(0.007162587 -0.012700622 -5.0027199e-20)
(0.004968768 -0.0081196749 7.8770343e-20)
(0.0029679572 -0.0044826685 1.0198653e-19)
(0.0012990506 -0.0018248434 -6.4801851e-20)
(4.5651223e-05 -8.3501682e-05 -8.1062788e-20)
(-0.00082899957 0.00095850784 2.8126776e-23)
(-0.0013868859 0.0014941397 1.142933e-20)
(-0.0017746975 0.0017680965 -1.3546961e-20)
(-0.0019581821 0.0018004292 -2.2819344e-20)
(-0.0018297377 0.0015527848 4.8308729e-21)
(-0.00095664658 0.00075672065 -4.3132565e-20)
(0.00065381601 -0.00044184522 1.144739e-20)
(0.0023671524 -0.0015028038 8.9709032e-21)
(0.0036750253 -0.0021219076 -6.1969554e-20)
(0.0042603747 -0.0022125526 8.1122607e-20)
(0.0044584898 -0.0020590798 2.4586231e-21)
(0.0045802407 -0.0018562302 1.7710155e-20)
(0.0047570843 -0.0016644985 -2.0956464e-20)
(0.0048416327 -0.0014317586 6.6513654e-20)
(0.0046113805 -0.0011182681 -4.2047845e-21)
(0.0038520084 -0.00073285178 1.6966758e-20)
(0.002327343 -0.00032706182 -2.3329378e-21)
(-0.00019424279 -4.9124283e-06 3.356002e-21)
(-0.0039698873 7.6722517e-05 -2.1014018e-21)
(-0.0093797445 -0.00031879534 3.9450026e-21)
(-0.016358641 -0.0015258091 -1.224469e-22)
(-0.024320522 -0.0037464734 4.5182007e-20)
(-0.03275189 -0.0070787711 -1.7511381e-20)
(-0.041001406 -0.011479266 1.5879853e-20)
(-0.048565077 -0.01680907 -1.0244591e-19)
(-0.054963744 -0.022816271 -1.6582446e-20)
(-0.059921245 -0.029219849 1.4609746e-19)
(-0.063258966 -0.035715452 -1.2504751e-19)
(-0.064940269 -0.04201649 -2.3979532e-21)
(-0.064989605 -0.04784114 3.8477772e-20)
(-0.063554149 -0.052977452 -3.5394005e-20)
(-0.060746255 -0.057184217 -7.0616424e-21)
(-0.05678938 -0.060319275 -4.6641676e-21)
(-0.051928447 -0.062288699 -8.1669876e-21)
(-0.046345006 -0.062951021 -1.4553259e-21)
(-0.040308434 -0.062296041 5.5479562e-22)
(-0.034045552 -0.060299717 4.7938596e-20)
(-0.027790675 -0.056992495 -7.5054034e-20)
(-0.021763966 -0.052434908 -8.1104822e-20)
(-0.016169616 -0.046719068 -3.3169769e-20)
(-0.011192174 -0.039967443 -7.6410947e-20)
(-0.0069919493 -0.032327698 1.7103877e-20)
(-0.0037000763 -0.023970083 2.4942342e-20)
(-0.0014225714 -0.015096431 -3.8823787e-20)
(-0.0002169701 -0.0058713771 -5.1913663e-21)
(0.00017437475 0.0061635804 -4.7875015e-22)
(0.00065669961 0.013861618 -3.0197648e-23)
(0.0015492098 0.021237664 -1.897984e-21)
(0.0028121371 0.028018701 7.1467636e-21)
(0.0043754284 0.033939348 -5.7310448e-21)
(0.0061396647 0.038756824 -1.9917452e-20)
(0.0079794824 0.042266471 4.2654455e-21)
(0.0097554257 0.044313919 1.8877528e-20)
(0.011317095 0.044813196 -1.9588779e-20)
(0.012517016 0.043756254 4.7565756e-20)
(0.013226159 0.041226624 9.2121351e-22)
(0.013348664 0.037399387 -3.2937502e-20)
(0.012843926 0.032555861 -5.5325008e-20)
(0.011731572 0.027045748 4.5603141e-20)
(0.010111891 0.021293443 -4.8096262e-20)
(0.0081447605 0.015720568 -7.6752349e-20)
(0.0060299743 0.010700275 4.9498429e-20)
(0.00398085 0.006512255 -7.7836774e-20)
(0.0021710528 0.0032871945 -1.0076323e-19)
(0.0007176319 0.0010228847 6.4076363e-20)
(-0.00033941648 -0.0004109364 8.0247312e-20)
(-0.0010556863 -0.0012273574 7.0841731e-20)
(-0.0015235381 -0.0016437346 5.751129e-20)
(-0.0018337743 -0.0018287087 1.3449298e-20)
(-0.0019028619 -0.0017518693 2.2658683e-20)
(-0.0015835395 -0.0013481058 -4.7977183e-21)
(-0.00043112706 -0.00035257412 4.2860314e-20)
(0.0012788193 0.00088356111 -1.1404478e-20)
(0.0028755216 0.0018312967 -8.9565143e-21)
(0.0039292139 0.0022717102 6.1951992e-20)
(0.0043290345 0.0022494776 -8.1105561e-20)
(0.0044682999 0.0020637679 -2.4435464e-21)
(0.0046095239 0.0018680068 4.0299179e-20)
(0.0047799581 0.0016727661 2.0984735e-20)
(0.0047973963 0.0014194066 -6.6708529e-20)
(0.0044359054 0.0010769682 4.2248502e-21)
(0.0034888338 0.00066598778 1.2458614e-20)
(0.0017088106 0.00024550926 2.3540755e-21)
(-0.0011220313 -6.6179491e-05 -3.3931212e-21)
(-0.0052401816 -0.00010800874 2.1278275e-21)
(-0.011022521 0.00037192534 -3.9972033e-21)
(-0.018325965 0.0017061199 3.2687766e-20)
(-0.026492595 0.004078025 -4.5635867e-20)
(-0.034997777 0.0075611535 1.7623612e-20)
(-0.043175088 0.012085144 -1.5910013e-20)
(-0.050578802 0.017503779 1.0212548e-19)
(-0.056732884 0.023547516 1.6428568e-20)
(-0.061390323 0.029933248 -1.4379039e-19)
(-0.064409989 0.036362439 1.2209964e-19)
(-0.065771194 0.042551355 2.3196496e-21)
(-0.065508246 0.048220266 -3.6764256e-20)
(-0.063801366 0.053180959 3.3251945e-20)
(-0.06073253 0.057168486 -5.1940349e-20)
(-0.056552572 0.060065123 4.0174796e-21)
(-0.051531625 0.061809896 -7.7763072e-21)
(-0.045808204 0.062218738 3.7427526e-21)
(-0.03967815 0.061318471 -6.7723672e-22)
(-0.033359654 0.059080833 -5.3452366e-20)
(-0.027086476 0.055543447 8.0695292e-20)
(-0.021076591 0.050772659 8.5444693e-20)
(-0.015530475 0.044864122 3.4477611e-20)
(-0.010629329 0.037945622 7.8641326e-20)
(-0.0065287298 0.030166998 -1.7465141e-20)
(-0.0033551801 0.021703324 5.0176702e-20)
(-0.0012093427 0.012749806 3.91464e-20)
(-0.0001472196 0.0035063 5.2085835e-21)
)
;
    }
    frontAndBack
    {
        type            empty;
    }
}


// ************************************************************************* //
