/*--------------------------------*- C++ -*----------------------------------*\
  =========                 |
  \\      /  F ield         | OpenFOAM: The Open Source CFD Toolbox
   \\    /   O peration     | Website:  https://openfoam.org
    \\  /    A nd           | Version:  13
     \\/     M anipulation  |
\*---------------------------------------------------------------------------*/
FoamFile
{
    format      ascii;
    class       volVectorField;
    location    "14.996615";
    object      U;
}
// * * * * * * * * * * * * * * * * * * * * * * * * * * * * * * * * * * * * * //

dimensions      [0 1 -1 0 0 0 0];

internalField   nonuniform List<vector> 
17140
(
(1.0921977e-06 -0.00017305471 1.3739552e-23)
(-2.367797e-05 -0.00053424295 1.5353976e-24)
(-8.6687114e-05 -0.00093063849 -1.0058254e-22)
(-0.00020253625 -0.0013643796 1.1053594e-22)
(-0.00038503798 -0.0018374001 -1.291886e-23)
(-0.00065275524 -0.0023514506 4.2382319e-23)
(-0.0010285167 -0.0029079723 7.1440736e-23)
(-0.0015398321 -0.0035079616 -3.4599037e-23)
(-0.0022197437 -0.004151811 -1.1377914e-22)
(-0.0031076334 -0.0048391234 -2.7938151e-22)
(-0.0042500376 -0.0055685021 4.1306909e-22)
(-0.005701403 -0.0063373184 -3.6769871e-22)
(-0.0075247424 -0.0071414689 -5.6824054e-23)
(-0.0097920774 -0.0079751401 3.1530731e-22)
(-0.012584555 -0.0088306008 -3.5080625e-23)
(-0.015992092 -0.009698069 2.7427407e-22)
(-0.020112392 -0.010565694 -9.561993e-24)
(-0.025049182 -0.011419727 2.8388538e-24)
(-0.030909571 -0.012244957 1.5721721e-22)
(-0.037800504 -0.013025489 -1.9755855e-22)
(-0.04582454 -0.013745957 9.4530939e-23)
(-0.055075529 -0.014393213 -1.5737443e-23)
(-0.065634825 -0.01495847 -1.2171837e-22)
(-0.077568619 -0.015439665 1.1854009e-22)
(-0.090935311 -0.015843548 1.8099093e-22)
(-0.10582445 -0.016186625 -1.3131767e-22)
(-0.12225888 -0.016490959 -6.3196494e-22)
(-0.14017041 -0.016775144 -8.0364606e-23)
(-0.1598418 -0.017048262 6.1940993e-22)
(-0.18139743 -0.017319926 1.5432219e-22)
(-0.20472042 -0.017596816 5.4410391e-22)
(-0.22998292 -0.017884879 -7.0654471e-22)
(-0.25724263 -0.018185146 1.9891712e-22)
(-0.28657174 -0.018494566 9.1199662e-23)
(-0.31801039 -0.018806297 1.0228524e-21)
(-0.35156756 -0.019110348 -4.4846595e-22)
(-0.38720581 -0.019393498 7.5935069e-22)
(-0.42482289 -0.01963962 5.5899714e-22)
(-0.46423577 -0.019832064 2.8446151e-22)
(-0.50517391 -0.019951086 -8.8886301e-22)
(-0.54728079 -0.019976282 -1.8351533e-21)
(-0.59012727 -0.019893467 -1.7888083e-21)
(-0.63325166 -0.019693262 -8.2637444e-22)
(-0.67620501 -0.019373719 4.4927968e-21)
(-0.71861529 -0.018938803 3.5388042e-21)
(-0.76026258 -0.018399686 -9.2223454e-22)
(-0.8010798 -0.017771541 6.6470335e-21)
(-0.84142489 -0.017065775 2.4222869e-21)
(-0.88037271 -0.016225415 -2.625121e-21)
(-0.91678715 -0.015242489 -6.7935909e-21)
(-0.94988759 -0.014111081 4.3852777e-21)
(-0.97854979 -0.012794454 2.8912742e-21)
(-1.0015056 -0.011251247 -7.6957367e-21)
(-1.0176202 -0.0094561266 -3.7043934e-21)
(-1.0251047 -0.0073869073 -2.6439223e-21)
(-1.0268153 -0.004991971 2.0696854e-21)
(-1.0108905 -0.0022426577 -5.3511985e-21)
(-0.98042529 0.00072544073 -4.1979172e-21)
(-0.92303811 0.0037271937 -9.0810835e-22)
(-0.82663032 0.0061428797 2.0707141e-21)
(-0.67181745 0.006948033 9.6284205e-22)
(-0.45546745 0.0035185938 1.098566e-21)
(-0.20252161 -0.00093030793 -1.2658569e-22)
(0.042350566 -0.0054152597 2.2498145e-21)
(0.26419566 -0.0083198081 -2.0685704e-21)
(-1.6495238e-05 0.00037100647 -4.0313428e-24)
(-7.749753e-05 0.001141616 5.294598e-22)
(-0.00017980001 0.0019832108 -4.7158485e-22)
(-0.00033797569 0.0028993752 1.2828812e-22)
(-0.00056590178 0.0038935044 2.6568548e-22)
(-0.00088210626 0.0049682843 -5.0831538e-22)
(-0.0013093091 0.0061254764 5.2926349e-22)
(-0.0018748204 0.0073656114 -4.6588551e-23)
(-0.0026113714 0.0086876096 1.4553717e-22)
(-0.0035578974 0.010088341 2.763495e-24)
(-0.0047603311 0.011562131 4.8526905e-22)
(-0.0062723352 0.013100214 -7.6740192e-22)
(-0.008155938 0.014690172 -6.3373003e-23)
(-0.010481962 0.016315377 6.2169006e-22)
(-0.013330135 0.017954523 -1.8844047e-22)
(-0.016788744 0.019581309 -1.1862755e-22)
(-0.020953678 0.02116441 7.5132679e-22)
(-0.025926721 0.022667878 -2.4055227e-21)
(-0.031812987 0.024052157 1.4771589e-21)
(-0.038717497 0.025275918 -1.7381133e-21)
(-0.046741085 0.026298923 2.4942226e-21)
(-0.055976254 0.027086084 -5.8915196e-22)
(-0.066503581 0.027612792 -2.3099116e-22)
(-0.07838924 0.027871184 7.4649818e-22)
(-0.09169176 0.027875917 -2.5221846e-21)
(-0.10650017 0.027666503 -3.9071825e-22)
(-0.12284904 0.027307482 1.7272427e-21)
(-0.14065797 0.026856377 -1.9028348e-21)
(-0.16020791 0.026264307 2.1381027e-22)
(-0.18163959 0.025559144 2.5353071e-21)
(-0.20482431 0.024772878 -2.3948027e-22)
(-0.22993604 0.023910924 -2.1409068e-21)
(-0.25702862 0.022983246 -1.0008007e-22)
(-0.28617119 0.021987531 1.7383653e-21)
(-0.31740126 0.020917554 -2.022891e-21)
(-0.35072254 0.01976432 9.9856683e-22)
(-0.3860904 0.018516953 -1.1608078e-21)
(-0.42339413 0.01716411 -4.1888375e-21)
(-0.46244325 0.015695696 -1.0728141e-21)
(-0.5029587 0.014115341 -4.4400943e-21)
(-0.54457271 0.012441454 5.9884677e-21)
(-0.58684706 0.010707199 6.1359887e-21)
(-0.62931027 0.0089674855 1.2409486e-21)
(-0.67149829 0.007292943 -9.4693961e-21)
(-0.71300764 0.0057689914 5.0539775e-21)
(-0.75355245 0.0044957269 1.9141065e-21)
(-0.79290928 0.0035509519 -1.0109247e-21)
(-0.83112158 0.0028119531 -3.4575615e-21)
(-0.86775785 0.0018159202 1.8000738e-21)
(-0.90171802 0.00070179464 -3.4496205e-21)
(-0.93220277 -0.00045254707 -2.1694689e-20)
(-0.95807809 -0.0016814872 -1.0600578e-21)
(-0.97812991 -0.0029851858 4.9986279e-21)
(-0.99121674 -0.0042388367 -1.1331486e-20)
(-0.99585852 -0.0050787953 9.7004138e-21)
(-0.99037032 -0.0067194999 -2.7248746e-20)
(-0.97142595 -0.0093114517 -7.5750864e-21)
(-0.93470101 -0.01304148 1.9852355e-20)
(-0.87045145 -0.020405267 -3.1575622e-21)
(-0.76594958 -0.032756348 -2.7733452e-21)
(-0.60215585 -0.049987597 -3.3276437e-22)
(-0.37579048 -0.067444871 1.8326097e-21)
(-0.1120407 -0.075030067 1.825796e-21)
(0.14048512 -0.07339298 1.2329475e-21)
(0.36721054 -0.063441737 2.7093679e-21)
(-6.3991778e-05 0.00090982608 -2.2173742e-22)
(-0.00022303407 0.0028015166 1.6384576e-22)
(-0.0004310183 0.0048696768 4.3668304e-23)
(-0.00070280463 0.0071237737 -4.1279396e-23)
(-0.0010521578 0.0095726468 2.0073976e-22)
(-0.0014973748 0.012223575 1.529128e-23)
(-0.0020607101 0.015081735 1.9123297e-22)
(-0.002768731 0.018149464 2.0636941e-22)
(-0.0036530903 0.021425349 -1.6769992e-21)
(-0.0047512525 0.024903174 1.4954717e-21)
(-0.0061072252 0.028570726 -7.1396209e-22)
(-0.0077722376 0.032408475 -1.0458452e-21)
(-0.0098053304 0.036388198 2.0631383e-21)
(-0.01227376 0.040471623 2.5644992e-22)
(-0.015253114 0.044609237 -9.7355918e-22)
(-0.018827014 0.048739478 -6.6495018e-22)
(-0.023086264 0.052788573 7.6191872e-22)
(-0.028127311 0.056671406 -2.7233417e-21)
(-0.034049933 0.060293851 1.5733392e-21)
(-0.040954132 0.063557064 -7.6939952e-22)
(-0.04893642 0.066364268 2.5089808e-21)
(-0.05808604 0.068630432 6.3675784e-22)
(-0.068481876 0.070295023 -1.2675844e-21)
(-0.080190257 0.071337034 1.8495822e-21)
(-0.093269233 0.071789266 7.3160382e-22)
(-0.10780305 0.071744962 -7.370992e-22)
(-0.12386126 0.071353001 -4.2360198e-21)
(-0.14131653 0.070752661 -1.9350815e-21)
(-0.16045689 0.069866447 8.2831434e-22)
(-0.18148408 0.068749891 -1.0737471e-21)
(-0.20421506 0.067470375 5.1991014e-22)
(-0.22882794 0.066042403 3.6399039e-21)
(-0.2553652 0.064489578 -1.2549586e-21)
(-0.28388255 0.062808121 -4.0805105e-21)
(-0.31440717 0.060978406 1.2585375e-21)
(-0.34692528 0.058969673 2.0870385e-21)
(-0.38137192 0.056745231 -3.9523476e-21)
(-0.41760868 0.054268386 -1.3981907e-21)
(-0.45541652 0.051505487 2.4946179e-21)
(-0.49448709 0.048443316 1.0620372e-21)
(-0.53442093 0.045099455 -5.8291472e-21)
(-0.57475734 0.04153119 1.55715e-21)
(-0.61500711 0.037837806 2.688432e-21)
(-0.65468149 0.034148689 8.1435495e-21)
(-0.69331881 0.030612369 -1.6419395e-20)
(-0.73050111 0.027384235 1.1532355e-20)
(-0.76576993 0.024596887 3.2956302e-21)
(-0.79852638 0.022140415 1.3232126e-20)
(-0.82869489 0.019540435 1.6962274e-20)
(-0.85575382 0.016726339 9.7058765e-22)
(-0.87911696 0.013598212 -4.2198712e-21)
(-0.89763275 0.010096095 3.0872296e-20)
(-0.91018691 0.0062933109 1.3629722e-20)
(-0.91540648 0.0022227193 1.4337364e-20)
(-0.91145107 -0.0020713983 4.7472852e-21)
(-0.89669425 -0.0073331484 3.6416336e-20)
(-0.86914474 -0.014696063 -1.4247451e-20)
(-0.82338819 -0.025566953 3.9985417e-21)
(-0.75060524 -0.043205614 3.0297202e-20)
(-0.638482 -0.070269392 1.0061243e-20)
(-0.46726555 -0.10546945 -7.7424225e-21)
(-0.23334935 -0.13727472 -1.0026186e-20)
(0.035573784 -0.14724262 -1.5366042e-21)
(0.28541132 -0.13799998 -5.6936563e-21)
(0.50342509 -0.11423886 -2.9367292e-21)
(-0.00014040799 0.0014256624 7.7409002e-22)
(-0.00045648961 0.0043913023 -1.2313214e-21)
(-0.00083422177 0.0076353003 4.4535199e-22)
(-0.0012881366 0.011173118 -4.8334095e-23)
(-0.0018320747 0.015019173 9.5867091e-22)
(-0.002483908 0.019185611 -9.9059089e-22)
(-0.0032650944 0.023681449 1.5049814e-21)
(-0.0042009592 0.028511432 -7.0515366e-22)
(-0.0053213745 0.033674631 -2.687728e-21)
(-0.0066613827 0.039162807 6.4315978e-22)
(-0.0082618331 0.044958544 2.45483e-21)
(-0.010169971 0.05103318 -7.4540693e-22)
(-0.012439954 0.057344617 -4.7774035e-23)
(-0.015133219 0.063835139 1.9430704e-21)
(-0.0183186 0.070429448 -6.0298672e-21)
(-0.022072112 0.077033239 3.6670011e-21)
(-0.026476259 0.083532741 3.5354202e-23)
(-0.031618777 0.089795804 -1.9810266e-21)
(-0.037590706 0.095675213 4.9486211e-21)
(-0.044483798 0.10101506 -2.2804911e-21)
(-0.0523874 0.10566098 -3.3267227e-21)
(-0.06138526 0.10947506 -1.3309255e-21)
(-0.07155318 0.11235551 6.2624569e-21)
(-0.08295733 0.11426039 3.1945881e-21)
(-0.095654966 0.11523074 -1.8814383e-21)
(-0.10972176 0.11540168 1.1360092e-21)
(-0.12528099 0.11498867 -3.8103943e-21)
(-0.14213262 0.11423611 1.0871478e-21)
(-0.16058705 0.1131772 -2.8775525e-21)
(-0.18093278 0.11172912 1.5984912e-21)
(-0.20289319 0.10998929 -1.0855011e-21)
(-0.22665459 0.10801669 3.9350554e-21)
(-0.25224945 0.10584645 -5.4488818e-22)
(-0.27970894 0.10348164 3.3359417e-21)
(-0.30904074 0.10088886 -3.3061384e-21)
(-0.34020275 0.098016359 -1.3151758e-21)
(-0.37309996 0.094800749 1.5099231e-20)
(-0.40755518 0.091176532 4.4229576e-21)
(-0.443304 0.087090461 -3.8018639e-21)
(-0.47999492 0.082517455 4.0471216e-21)
(-0.51719692 0.077482694 -1.2043256e-21)
(-0.55443227 0.072074803 -7.7331873e-21)
(-0.59120267 0.066436736 3.6569868e-22)
(-0.62700601 0.060745438 3.242422e-21)
(-0.66134049 0.055187275 -1.3724143e-21)
(-0.69369068 0.049924957 1.1958481e-21)
(-0.72346701 0.045071242 2.9126623e-21)
(-0.74997129 0.040623018 -4.4802508e-20)
(-0.77259404 0.036323598 5.1945046e-21)
(-0.7911041 0.03184373 -5.1920145e-21)
(-0.80498606 0.027086331 5.1475431e-20)
(-0.81360588 0.021891361 -2.9426099e-20)
(-0.81624581 0.016005609 -2.506798e-20)
(-0.81115529 0.0094232711 -2.4468088e-20)
(-0.79649094 0.0023136045 -2.3778345e-20)
(-0.77079592 -0.0061506856 -3.696943e-20)
(-0.73261363 -0.017649799 7.2421762e-20)
(-0.6776009 -0.034661974 -4.2657388e-20)
(-0.59765669 -0.061770596 -5.8614822e-20)
(-0.48064748 -0.10328566 3.7024504e-20)
(-0.3034434 -0.15685477 7.6639388e-21)
(-0.064482052 -0.20258944 1.1879374e-21)
(0.19931285 -0.2139544 1.4579231e-21)
(0.43528097 -0.19591797 8.2684341e-21)
(0.63012646 -0.15832611 -2.6697889e-22)
(-0.00024246282 0.0019006072 -5.7637077e-22)
(-0.00076831474 0.0058561955 1.9132804e-21)
(-0.001372805 0.010185416 -1.5599477e-21)
(-0.0020700411 0.014909752 5.896238e-22)
(-0.0028739718 0.020049327 2.1331056e-22)
(-0.0038019126 0.025621494 -1.834324e-21)
(-0.0048742675 0.031639683 4.6285298e-22)
(-0.0061147151 0.038111914 9.8501828e-22)
(-0.0075507594 0.045038953 7.5062981e-23)
(-0.009214216 0.052412159 6.4083921e-22)
(-0.011141718 0.060210995 -8.9692496e-22)
(-0.013375178 0.068400254 6.2111355e-22)
(-0.015962206 0.076927075 2.2872687e-21)
(-0.018956402 0.085717913 6.9384629e-23)
(-0.022417479 0.094675729 -1.7240731e-21)
(-0.02641112 0.10367779 -1.2138036e-21)
(-0.031008496 0.11257466 1.0381182e-21)
(-0.036285343 0.12119112 -9.2347936e-23)
(-0.04232054 0.12932997 -1.956478e-21)
(-0.04919419 0.1367798 -2.3539708e-21)
(-0.056985301 0.14332807 2.6180636e-21)
(-0.065769436 0.14878036 2.5600217e-21)
(-0.075617212 0.15298658 -3.3196198e-21)
(-0.086593639 0.15587306 3.9648467e-21)
(-0.098758541 0.15747522 6.6579699e-21)
(-0.11218436 0.15795578 -1.4675957e-20)
(-0.12700335 0.15758881 7.6148782e-21)
(-0.14309923 0.15673288 -1.0979145e-20)
(-0.16067653 0.15560443 1.3398566e-20)
(-0.17999777 0.15390924 -1.5110108e-20)
(-0.20089008 0.15176294 1.5876537e-20)
(-0.22344557 0.14929395 -2.6064147e-21)
(-0.24771485 0.14653858 -9.8948271e-21)
(-0.27370059 0.14350668 5.79444e-21)
(-0.30138007 0.1401571 -1.8601714e-21)
(-0.33067928 0.1364185 -4.9420274e-22)
(-0.36145924 0.1322008 -7.9028435e-21)
(-0.39349795 0.12741001 -2.9659694e-21)
(-0.42648571 0.12197625 -3.333681e-21)
(-0.46003281 0.11587466 -3.2549106e-21)
(-0.49369096 0.10915102 1.7649587e-20)
(-0.52698368 0.10193027 -8.3120107e-21)
(-0.55942217 0.094396626 -1.7547194e-21)
(-0.59050425 0.086762776 1.7997496e-20)
(-0.61970399 0.079238883 1.013317e-20)
(-0.64645734 0.071996191 -5.2341979e-21)
(-0.67014231 0.065131538 -2.0576471e-20)
(-0.69008729 0.058627939 9.4792307e-21)
(-0.70564297 0.052317841 -2.8955449e-20)
(-0.71629315 0.046073521 -1.6733516e-20)
(-0.72122612 0.039710902 -2.4468018e-20)
(-0.72008275 0.032864652 -6.7975001e-20)
(-0.71196755 0.025262515 5.4339314e-20)
(-0.69596851 0.016614604 -1.8180613e-20)
(-0.67015335 0.0069238814 3.1624178e-20)
(-0.63291999 -0.0042171154 2.9923834e-20)
(-0.5830644 -0.018955191 1.1777238e-20)
(-0.51743342 -0.040935169 1.008772e-19)
(-0.42904981 -0.076197519 2.4410488e-20)
(-0.30676777 -0.1317399 -4.7061843e-20)
(-0.12225993 -0.20341216 -1.3090647e-20)
(0.11933446 -0.26160047 2.2912768e-21)
(0.36885643 -0.27239135 -2.8674639e-21)
(0.57939866 -0.244394 -7.9518692e-21)
(0.73877319 -0.19337312 1.1384987e-21)
(-0.00036491887 0.0023170303 -1.8751952e-21)
(-0.0011426078 0.007142133 -6.6272819e-22)
(-0.002019431 0.012426433 5.3451187e-22)
(-0.0030090442 0.018197391 1.9784065e-21)
(-0.0041255684 0.024480931 -1.0847966e-21)
(-0.0053857108 0.03129997 1.5603836e-21)
(-0.0068086797 0.038673032 -6.7489344e-22)
(-0.0084162575 0.046612476 -1.6090183e-22)
(-0.010233197 0.0551223 9.0866364e-22)
(-0.012287541 0.064195556 1.9567001e-21)
(-0.014610963 0.073811321 1.0118749e-22)
(-0.017239074 0.083931287 -3.201086e-21)
(-0.020211696 0.094496027 4.4199629e-21)
(-0.023573065 0.10542111 -7.0982027e-21)
(-0.027371913 0.11659339 1.8433846e-21)
(-0.031661396 0.12786781 -3.9005651e-21)
(-0.03649881 0.13906557 4.6598562e-21)
(-0.041945039 0.14997441 -2.9954333e-21)
(-0.048063705 0.1603522 4.597261e-22)
(-0.05492003 0.1699354 1.8473701e-21)
(-0.062579514 0.17845384 -4.4168213e-21)
(-0.071106695 0.18565363 6.0604043e-21)
(-0.080564697 0.19132895 -6.4061307e-21)
(-0.091016017 0.19536258 -1.1278635e-21)
(-0.102524 0.19776933 1.003539e-20)
(-0.1151625 0.19872646 -9.7309696e-21)
(-0.12905316 0.19856497 5.9417953e-21)
(-0.14421212 0.19773412 -6.5122471e-21)
(-0.16065196 0.19656566 -7.9907367e-22)
(-0.17862391 0.19469605 -5.3920774e-22)
(-0.19817406 0.19222552 2.4764901e-21)
(-0.21920988 0.18933093 -3.0371072e-22)
(-0.2418089 0.18605104 1.036796e-20)
(-0.26594588 0.18239573 -2.7647372e-21)
(-0.2915638 0.17831904 -9.3871971e-21)
(-0.318551 0.17373062 4.541418e-21)
(-0.34672409 0.1685158 -3.8721035e-21)
(-0.37581812 0.16256042 4.3896217e-21)
(-0.40548748 0.15578578 2.5925763e-20)
(-0.43532255 0.14817898 -1.5332505e-20)
(-0.46487998 0.13981676 -4.2044297e-21)
(-0.49370596 0.13086246 2.5403199e-20)
(-0.52133493 0.12153265 -1.0660742e-21)
(-0.54726976 0.1120596 -3.1946759e-21)
(-0.57096662 0.10266421 -4.17752e-20)
(-0.59183226 0.093529174 -1.0406655e-20)
(-0.60925275 0.084765547 1.7536185e-20)
(-0.62260969 0.07637255 1.8937213e-20)
(-0.63127101 0.06819144 2.8629042e-20)
(-0.63459392 0.060025774 3.7625963e-20)
(-0.63184716 0.051756739 2.4263745e-20)
(-0.62226766 0.043171143 3.8559138e-20)
(-0.60457178 0.033821937 -1.3706027e-20)
(-0.57814363 0.023247188 8.6302794e-20)
(-0.54151773 0.011284395 6.1248125e-21)
(-0.49325409 -0.0023529263 5.0568347e-21)
(-0.43192853 -0.019851683 3.2153369e-21)
(-0.35487278 -0.045661126 -1.1045452e-19)
(-0.25585541 -0.087245437 -4.0495463e-20)
(-0.12517792 -0.15581282 5.5417521e-20)
(0.070640992 -0.24459284 5.6307787e-20)
(0.3096985 -0.31209859 1.2234234e-20)
(0.53679702 -0.31938552 -1.5365652e-22)
(0.70976526 -0.28104663 7.8164024e-21)
(0.82511071 -0.21815691 -2.8678269e-21)
(-0.00050073055 0.0026595542 3.8021195e-22)
(-0.0015580314 0.0082018168 1.2083559e-21)
(-0.0027373444 0.014276259 -2.9164597e-21)
(-0.0040520326 0.020916165 1.0744661e-22)
(-0.0055164518 0.028153286 1.4190422e-21)
(-0.0071467559 0.036016448 6.2584359e-22)
(-0.00896096 0.044529976 4.6215806e-22)
(-0.0109789 0.053711742 -9.0971396e-22)
(-0.013222453 0.06357072 4.7072017e-21)
(-0.015715667 0.074104073 -3.5438457e-21)
(-0.018484921 0.085293702 1.7292989e-22)
(-0.021559036 0.097102302 2.1391749e-21)
(-0.02496938 0.10946895 -7.9728226e-21)
(-0.028749926 0.12230442 7.9145453e-21)
(-0.032937268 0.13548644 -1.0423808e-21)
(-0.037570563 0.14885552 -6.4454076e-21)
(-0.042691413 0.16221177 6.0038294e-21)
(-0.048343651 0.17531414 -2.0625958e-21)
(-0.054573064 0.18788304 3.9733917e-21)
(-0.061427078 0.1996084 -5.0105313e-21)
(-0.068954507 0.21016504 -9.2224364e-21)
(-0.077205592 0.21923761 8.8782245e-21)
(-0.086232759 0.2265568 1.2690891e-20)
(-0.096092897 0.23194683 -2.3572501e-20)
(-0.10685022 0.23537949 1.8117184e-20)
(-0.11857817 0.23701833 -1.0052474e-20)
(-0.13137433 0.2372209 2.3933068e-21)
(-0.14537955 0.23647213 -5.5745462e-21)
(-0.16042484 0.23522911 5.2764723e-21)
(-0.17678552 0.23344745 7.3613537e-21)
(-0.19472563 0.23085322 -4.8062377e-21)
(-0.21397216 0.22763314 -8.5896619e-21)
(-0.23460222 0.22390672 6.5952038e-22)
(-0.25656433 0.21969079 2.6315821e-22)
(-0.27976762 0.21493562 6.1472587e-21)
(-0.30406271 0.20953655 -2.8697901e-21)
(-0.32922653 0.20336006 -1.1170605e-20)
(-0.35495937 0.19627907 -6.2645118e-21)
(-0.38089611 0.18821676 9.8526447e-21)
(-0.40663251 0.17918271 -7.9360314e-21)
(-0.43175492 0.16928976 7.6900949e-21)
(-0.45584747 0.15873358 -2.229766e-21)
(-0.47846906 0.14774788 -1.1061739e-20)
(-0.49912159 0.13656873 2.8643588e-20)
(-0.51724022 0.12542227 1.81561e-20)
(-0.53220915 0.11451073 1.2700262e-20)
(-0.5434281 0.10397532 -4.4075112e-20)
(-0.55031959 0.093832114 -3.0184826e-20)
(-0.55227981 0.083920504 -3.7601168e-20)
(-0.54864553 0.074030122 -6.9295876e-20)
(-0.5386491 0.063955816 2.5679118e-20)
(-0.52134662 0.053388831 -5.2000129e-21)
(-0.49566408 0.042020769 -4.4907354e-20)
(-0.46031155 0.029415522 -1.3457972e-19)
(-0.41358085 0.015257471 -8.9759928e-20)
(-0.35549148 -0.00071474167 -3.5527351e-20)
(-0.28356545 -0.020836213 -1.0268025e-19)
(-0.19539649 -0.05011735 6.8493522e-20)
(-0.084606387 -0.097037017 -8.0606336e-21)
(0.060127438 -0.17725856 -9.1744879e-20)
(0.26914543 -0.28004188 -4.4264783e-20)
(0.50123385 -0.35211186 -2.0541036e-22)
(0.69502993 -0.35411402 1.0380594e-20)
(0.81970163 -0.30448659 -1.8804216e-21)
(0.88810135 -0.23270911 -8.5040861e-22)
(-0.00064124838 0.0029154262 1.6134785e-21)
(-0.0019885991 0.0089957754 -1.0881106e-21)
(-0.0034815498 0.015666216 1.4697056e-21)
(-0.00513385 0.02296543 8.3552736e-22)
(-0.0069600032 0.030930929 -2.3299411e-21)
(-0.0089757624 0.039597654 -2.1748727e-21)
(-0.011198085 0.048996353 2.2293927e-21)
(-0.013644999 0.059151538 -2.6909286e-22)
(-0.016335628 0.070078923 -6.2246858e-23)
(-0.019290138 0.081782309 -4.4037267e-21)
(-0.022529687 0.094249864 4.7824112e-22)
(-0.026076326 0.10744978 8.8367654e-21)
(-0.029952898 0.12132529 -7.0442506e-21)
(-0.034182912 0.13578929 2.3943333e-22)
(-0.038790422 0.15071861 4.6753865e-21)
(-0.043799928 0.16594857 3.9750586e-22)
(-0.049236319 0.18126843 -1.0047315e-21)
(-0.055124917 0.19641885 -4.4760607e-21)
(-0.061491672 0.21109284 8.0988145e-21)
(-0.06836359 0.2249422 -1.4023966e-20)
(-0.075769526 0.23759193 2.9443895e-21)
(-0.083741514 0.24866538 -2.1427921e-21)
(-0.092316933 0.25782268 1.6555201e-21)
(-0.10154195 0.26481335 -1.156194e-22)
(-0.11147607 0.26953944 9.3588257e-21)
(-0.12219435 0.27211391 8.9337285e-21)
(-0.13378742 0.27287968 -1.6822421e-20)
(-0.14637941 0.27234782 -2.7578097e-21)
(-0.15999553 0.2710885 8.8222118e-21)
(-0.17464951 0.26945974 3.0645686e-21)
(-0.19057619 0.26703909 7.4226617e-21)
(-0.2078079 0.26369509 -8.2668506e-21)
(-0.2261945 0.25964294 -3.8315722e-21)
(-0.2456992 0.25496427 9.0661539e-21)
(-0.26619334 0.24961392 -3.9269539e-21)
(-0.28748639 0.24347816 -2.5734542e-21)
(-0.3093203 0.2364128 5.8408274e-21)
(-0.33137387 0.22828881 1.7277031e-20)
(-0.3532859 0.21904522 5.9376379e-21)
(-0.37468563 0.20872276 -3.8549039e-21)
(-0.39520951 0.19746721 -1.0102577e-20)
(-0.41448458 0.1854912 -1.1538024e-20)
(-0.4320862 0.17302549 -1.3750209e-20)
(-0.44750373 0.16029492 -3.081335e-20)
(-0.46013827 0.14752706 1.3621173e-21)
(-0.46934435 0.13495627 -1.4352388e-20)
(-0.47452725 0.12277869 8.9235761e-20)
(-0.47515183 0.11103528 2.6477733e-20)
(-0.47063825 0.099541057 3.1433757e-20)
(-0.46030616 0.08805018 9.2633862e-20)
(-0.44335908 0.076312296 -1.1419305e-19)
(-0.41884247 0.063962946 2.6548491e-20)
(-0.38560352 0.050546412 8.7978205e-20)
(-0.34238078 0.03566202 1.1020282e-19)
(-0.28710236 0.019246764 1.3971041e-20)
(-0.22006657 0.00092911457 -3.6492679e-20)
(-0.13855504 -0.021818582 -5.8641837e-20)
(-0.039860013 -0.054515893 2.4939436e-20)
(0.082845533 -0.10683211 -4.2317292e-20)
(0.24685638 -0.19731138 2.7996257e-20)
(0.46987105 -0.30941431 7.1926353e-21)
(0.68588641 -0.38129191 1.0920553e-20)
(0.83476564 -0.37257783 -1.5395497e-20)
(0.90585458 -0.31523028 -2.3487259e-21)
(0.92999836 -0.2384429 6.2997997e-21)
(-0.00077690675 0.0030749962 -1.6242436e-21)
(-0.0024045819 0.0094941281 -4.3507374e-22)
(-0.0042009749 0.016543963 4.7757943e-22)
(-0.0061803317 0.02426806 2.3471836e-21)
(-0.0083574539 0.032709375 -2.8135723e-21)
(-0.010747888 0.041908961 2.3871613e-21)
(-0.013367783 0.051904388 1.1405364e-21)
(-0.016233666 0.062727731 -6.0713602e-23)
(-0.019362284 0.07440301 -9.5902751e-22)
(-0.02277037 0.086943053 -5.4450431e-21)
(-0.02647437 0.10034565 9.116288e-21)
(-0.030490132 0.114589 -1.0914024e-20)
(-0.034832568 0.12962637 3.1882999e-21)
(-0.039515307 0.14538007 4.305653e-21)
(-0.044550373 0.16173489 -6.554322e-21)
(-0.049947947 0.17853142 1.2805176e-20)
(-0.055716263 0.19555981 -1.5357421e-20)
(-0.061861751 0.2125551 -2.453152e-22)
(-0.068389536 0.2291957 -8.5581838e-21)
(-0.075304445 0.24510701 3.3301804e-20)
(-0.082612693 0.25987322 -7.8790335e-21)
(-0.090324464 0.2730605 -3.1904177e-20)
(-0.098457615 0.28425518 1.4602807e-20)
(-0.10704269 0.29311905 1.6918222e-20)
(-0.1161292 0.29946017 -4.0501007e-21)
(-0.12579078 0.30330645 -2.0667551e-20)
(-0.13612277 0.30494975 2.9694515e-20)
(-0.14723544 0.30491086 -3.1440687e-20)
(-0.15924777 0.30381074 2.3608842e-20)
(-0.17212278 0.3021686 -4.3339026e-21)
(-0.18590776 0.30000837 7.6676262e-21)
(-0.20078023 0.29693833 1.1248137e-20)
(-0.21667113 0.29281787 -4.134387e-21)
(-0.23345597 0.28782228 -9.1098609e-22)
(-0.25100754 0.28198241 -1.7899922e-20)
(-0.26907475 0.27520323 3.2579583e-21)
(-0.28736042 0.26735341 -9.8796516e-21)
(-0.3055369 0.25832144 9.4536356e-21)
(-0.32326769 0.24807402 -5.0051008e-21)
(-0.34023432 0.23668103 -4.0575347e-21)
(-0.35612761 0.22430466 -3.8899278e-21)
(-0.37060935 0.21114878 -3.8056097e-21)
(-0.38326216 0.19741574 2.5773127e-20)
(-0.39356098 0.18329959 2.2695589e-20)
(-0.40087341 0.16902724 -6.1212061e-21)
(-0.40451438 0.1548917 4.93359e-21)
(-0.40386 0.14118386 -1.972727e-20)
(-0.39842435 0.12797829 4.3358152e-20)
(-0.38765639 0.11505189 5.3616458e-20)
(-0.370858 0.10210469 1.6707208e-20)
(-0.34720364 0.088834159 4.4852782e-20)
(-0.31570573 0.074832919 -1.5393139e-21)
(-0.27515736 0.059592829 -2.3042273e-20)
(-0.22418547 0.042526747 -1.1563331e-19)
(-0.1613688 0.023793915 5.8368331e-20)
(-0.086249966 0.0030962016 -2.4265173e-20)
(0.0039425522 -0.022412734 6.8021106e-20)
(0.11249403 -0.058485681 -1.1065397e-19)
(0.24814272 -0.11728718 5.821047e-20)
(0.43499837 -0.21650105 -1.789101e-20)
(0.66791262 -0.33177838 1.0723602e-21)
(0.85340725 -0.39540832 -4.5653446e-21)
(0.94801849 -0.37836468 -9.6175156e-21)
(0.967379 -0.31391936 9.8907413e-22)
(0.95591924 -0.23699686 4.9035254e-21)
(-0.00089757009 0.0031330315 3.8671159e-21)
(-0.0027749236 0.0096803936 2.659461e-21)
(-0.0048419213 0.016880218 -4.1733765e-21)
(-0.0071133809 0.024780183 1.0987222e-22)
(-0.0096045425 0.033428118 3.7699446e-21)
(-0.012330969 0.042870883 1.9703948e-21)
(-0.01530832 0.053152936 -4.1477315e-21)
(-0.018552063 0.064314461 6.8104273e-22)
(-0.022077146 0.076388958 -9.5824834e-21)
(-0.025897591 0.089400235 1.8639322e-21)
(-0.03002603 0.10335865 4.847749e-23)
(-0.034473174 0.11825653 -6.8281271e-21)
(-0.03924723 0.13406272 2.1798763e-20)
(-0.044353309 0.15071614 -1.0113901e-20)
(-0.049792845 0.16811856 -1.8025105e-20)
(-0.055563125 0.1861268 1.9078931e-20)
(-0.061657002 0.20454476 -2.3422238e-21)
(-0.068062955 0.22311643 1.3102448e-20)
(-0.07476566 0.24152118 9.6102043e-21)
(-0.081747308 0.25937363 -2.9789674e-20)
(-0.088989919 0.27623109 2.1966137e-20)
(-0.096478967 0.29161254 -2.8346942e-20)
(-0.10420856 0.3050336 3.2274373e-21)
(-0.11218829 0.31606123 -1.2947337e-20)
(-0.12045154 0.32438893 2.7122789e-20)
(-0.12906332 0.3299235 -6.2062849e-21)
(-0.13812141 0.33285496 -1.5089301e-20)
(-0.14774145 0.33365572 3.4610123e-20)
(-0.15803203 0.33296319 -1.4172981e-20)
(-0.16905313 0.33138406 -1.4993478e-20)
(-0.18078317 0.3292652 1.1977405e-20)
(-0.19316731 0.32645998 1.7328649e-21)
(-0.20631847 0.32267071 -8.3675596e-21)
(-0.22021997 0.31779192 4.7132117e-21)
(-0.23460283 0.31176946 -7.7441369e-21)
(-0.24923812 0.30454778 2.8267221e-20)
(-0.26383042 0.29607003 -1.5897166e-20)
(-0.27806693 0.28627798 -1.0337563e-20)
(-0.29164354 0.27518968 -2.2966687e-20)
(-0.30427614 0.26291164 -4.0762118e-21)
(-0.31566743 0.24961714 2.6757488e-20)
(-0.32546816 0.23549555 -1.1375889e-20)
(-0.33324287 0.22071948 -1.7880218e-20)
(-0.33845901 0.20545554 -2.3157728e-21)
(-0.34050695 0.18990139 2.172318e-20)
(-0.33872121 0.17433199 2.0302382e-20)
(-0.33238557 0.15918113 -6.6344963e-20)
(-0.32104461 0.14464641 -3.7451838e-20)
(-0.30418292 0.13043895 -8.6407749e-20)
(-0.28107695 0.11618798 -3.1816074e-20)
(-0.25085866 0.1015369 -1.2947697e-20)
(-0.21247411 0.086023917 -1.0157671e-19)
(-0.16467222 0.0690871 -4.1517802e-20)
(-0.10593468 0.050206018 1.4077184e-19)
(-0.035610771 0.029412965 -1.1387595e-19)
(0.046567498 0.0062913306 1.0410234e-19)
(0.14489296 -0.022090537 -4.899491e-20)
(0.26291354 -0.062063342 2.2589881e-19)
(0.41410396 -0.12830934 1.0480092e-19)
(0.62666714 -0.23365639 -3.5949357e-20)
(0.8564215 -0.34514293 -4.1272317e-20)
(0.99503222 -0.39833235 -4.1823124e-20)
(1.0308721 -0.37086909 -5.132665e-21)
(1.0065477 -0.30459576 -2.2105341e-22)
(0.97212832 -0.23081535 -5.0820725e-21)
(-0.00099316518 0.0030885065 7.4065633e-23)
(-0.0030686812 0.0095509117 -5.2755071e-21)
(-0.0053507599 0.016667794 6.2162553e-21)
(-0.007854799 0.024489949 2.989277e-21)
(-0.010596564 0.033069204 -5.9837276e-21)
(-0.013591832 0.04245757 -1.9361351e-21)
(-0.016856105 0.052706029 9.3799147e-21)
(-0.020404287 0.06386291 -1.0079512e-20)
(-0.02425021 0.075971777 -2.1221741e-21)
(-0.028406103 0.089068705 -8.4225188e-21)
(-0.03288195 0.10317881 2.2308014e-20)
(-0.037684773 0.11831192 2.6757983e-22)
(-0.042817817 0.13445717 -1.9873972e-20)
(-0.048279703 0.15157657 2.1221513e-20)
(-0.054063559 0.16959736 -1.5089596e-20)
(-0.060156238 0.18840331 -5.5507641e-21)
(-0.06653772 0.20782534 1.1488697e-20)
(-0.07318089 0.22763214 -1.0241739e-20)
(-0.080051888 0.24752199 -1.3467844e-20)
(-0.087111369 0.26711807 2.8059138e-22)
(-0.094317042 0.28597017 2.0491186e-20)
(-0.1016279 0.30356716 -1.2423735e-20)
(-0.10901054 0.31936557 6.7682889e-21)
(-0.11644776 0.33283949 3.1687535e-20)
(-0.12394912 0.34355539 1.0378432e-20)
(-0.13156162 0.35126759 -2.6896092e-20)
(-0.13937516 0.35601231 2.6067106e-21)
(-0.14751197 0.35814909 -2.80012e-20)
(-0.1560932 0.35828492 1.565045e-20)
(-0.16519891 0.35707723 -8.1512646e-21)
(-0.17483605 0.35501524 1.1383359e-20)
(-0.18496024 0.35228411 2.850545e-21)
(-0.19552069 0.34876304 -1.4128835e-20)
(-0.20640997 0.34411871 1.4809559e-20)
(-0.21746736 0.33816293 2.3554357e-20)
(-0.22852934 0.33082056 -1.3607344e-21)
(-0.2393558 0.32204399 -2.7707751e-20)
(-0.24967832 0.31181419 3.7748918e-20)
(-0.25922382 0.30018493 -8.3522292e-21)
(-0.26770186 0.28728655 1.9856147e-20)
(-0.27478368 0.27329945 -3.5920008e-21)
(-0.2800671 0.2584104 3.5792677e-20)
(-0.28307187 0.24278338 1.8213873e-20)
(-0.2832492 0.22656328 2.5733687e-20)
(-0.28001804 0.20991038 -1.115866e-19)
(-0.27271812 0.19313747 -4.030074e-20)
(-0.26078244 0.17671461 5.6204789e-20)
(-0.24357651 0.16099662 -4.880365e-20)
(-0.22067951 0.14567831 -4.3824448e-20)
(-0.19131793 0.13028995 5.1860723e-20)
(-0.15456333 0.11442089 2.857496e-20)
(-0.10931248 0.097559389 7.0360398e-20)
(-0.054223781 0.079064048 3.5236968e-20)
(0.012365374 0.058692838 -1.2070549e-19)
(0.089658773 0.036280616 -6.7478141e-20)
(0.17882925 0.010943074 -1.08511e-20)
(0.28496257 -0.020438459 3.3654896e-22)
(0.41282177 -0.065212924 -5.5547387e-20)
(0.58558812 -0.13946762 7.3653023e-20)
(0.82016696 -0.24650114 8.1480092e-20)
(1.023395 -0.3470252 1.7825814e-20)
(1.1036027 -0.38447434 8.1532062e-20)
(1.0855529 -0.35330826 2.9539946e-20)
(1.0301013 -0.28955807 4.1018446e-21)
(0.98410347 -0.22172989 1.879375e-21)
(-0.0010544832 0.0029451979 -2.6424983e-21)
(-0.0032574996 0.0091167144 -2.3387378e-21)
(-0.0056782369 0.015924873 4.860327e-21)
(-0.0083325862 0.02342233 -8.3236575e-21)
(-0.011236832 0.031663714 -2.0802048e-21)
(-0.014407087 0.040705114 8.9087303e-21)
(-0.017858976 0.050603155 -4.5484584e-23)