/*--------------------------------*- C++ -*----------------------------------*\
  =========                 |
  \\      /  F ield         | OpenFOAM: The Open Source CFD Toolbox
   \\    /   O peration     | Website:  https://openfoam.org
    \\  /    A nd           | Version:  13
     \\/     M anipulation  |
\*---------------------------------------------------------------------------*/
FoamFile
{
    format      ascii;
    class       volScalarField;
    location    "24.900255";
    object      yPlus;
}
// * * * * * * * * * * * * * * * * * * * * * * * * * * * * * * * * * * * * * //

dimensions      [];

internalField   uniform 0;

boundaryField
{
    inlet
    {
        type            calculated;
        value           uniform 0;
    }
    outlet
    {
        type            calculated;
        value           uniform 0;
    }
    cylinder
    {
        type            calculated;
        value           nonuniform List<scalar> 
132
(
2.2401818e-07
2.2372762e-07
2.2254788e-07
2.2042082e-07
2.1731408e-07
2.1320948e-07
2.0810327e-07
2.020079e-07
1.9495392e-07
1.8699148e-07
1.7819226e-07
1.6865025e-07
1.5848251e-07
1.4782828e-07
1.3684759e-07
1.2571617e-07
1.1462304e-07
1.0376933e-07
9.3352889e-08
8.3560889e-08
7.4548955e-08
6.6415685e-08
5.9170981e-08
5.2703691e-08
4.6772684e-08
4.104934e-08
3.5221759e-08
2.9140623e-08
2.2918796e-08
1.6914618e-08
1.1606001e-08
7.4228831e-09
4.6701652e-09
3.483093e-09
3.5848527e-09
4.2905075e-09
5.2889452e-09
6.5344193e-09
8.0479111e-09
9.8665433e-09
1.2063301e-08
1.4728484e-08
1.7638287e-08
2.0755119e-08
2.3998606e-08
2.7295659e-08
3.0582535e-08
3.3804716e-08
3.6923294e-08
3.9909057e-08
4.2741268e-08
4.5408857e-08
4.7899259e-08
5.0204683e-08
5.2351844e-08
5.4307988e-08
5.6086934e-08
5.7681696e-08
5.9110307e-08
6.0361037e-08
6.1436552e-08
6.2329341e-08
6.3046296e-08
6.3587596e-08
6.3958986e-08
6.4153033e-08
2.2339413e-07
2.2183726e-07
2.1939721e-07
2.1603315e-07
2.1173445e-07
2.0650637e-07
2.0036945e-07
1.9336037e-07
1.8553297e-07
1.7695866e-07
1.677272e-07
1.5794616e-07
1.4774023e-07
1.372493e-07
1.2662673e-07
1.1603653e-07
1.0564834e-07
9.5635906e-08
8.6164148e-08
7.7378284e-08
6.9391435e-08
6.2261122e-08
5.5955752e-08
5.0321296e-08
4.5073945e-08
3.9851551e-08
3.4338854e-08
2.8423176e-08
2.2280002e-08
1.6335405e-08
1.1113757e-08
7.0579276e-09
4.467204e-09
3.456754e-09
3.667949e-09
4.4276378e-09
5.4687681e-09
6.7605134e-09
8.3268838e-09
1.0204734e-08
1.2464977e-08
1.5195566e-08
1.8161967e-08
2.1322224e-08
2.4595792e-08
2.7912541e-08
3.1206671e-08
3.4425211e-08
3.753237e-08
4.0500329e-08
4.3309703e-08
4.5952415e-08
4.8412705e-08
5.067914e-08
5.2802553e-08
5.4719841e-08
5.6462674e-08
5.8021164e-08
5.9412641e-08
6.0626667e-08
6.1659692e-08
6.2513999e-08
6.3187763e-08
6.3689366e-08
6.4016057e-08
6.4169425e-08
)
;
    }
    frontAndBack
    {
        type            empty;
    }
}


// ************************************************************************* //
