/*--------------------------------*- C++ -*----------------------------------*\
  =========                 |
  \\      /  F ield         | OpenFOAM: The Open Source CFD Toolbox
   \\    /   O peration     | Website:  https://openfoam.org
    \\  /    A nd           | Version:  13
     \\/     M anipulation  |
\*---------------------------------------------------------------------------*/
FoamFile
{
    format      ascii;
    class       volScalarField;
    location    "38.402811";
    object      omega;
}
// * * * * * * * * * * * * * * * * * * * * * * * * * * * * * * * * * * * * * //

dimensions      [0 0 -1 0 0 0 0];

internalField   nonuniform List<scalar> 
17140
(
4528389.9
731657.66
224626.36
95289.491
48487.729
27617.645
16960.887
10985.527
7400.0476
5136.1077
3649.1135
2641.4543
1941.2002
1444.4296
1085.931
823.47863
628.99256
483.36998
373.35765
289.60288
225.40698
175.90944
137.54313
107.66388
84.294464
65.945382
51.487701
40.062145
31.013585
23.843491
18.174733
13.723908
10.276696
7.6632459
5.735299
4.3523507
3.3821517
2.7101327
2.2467429
1.9276487
1.7090838
1.5620679
1.4677373
1.4153842
1.3947012
1.3949216
1.4164401
1.4562724
1.512267
1.5834892
1.670213
1.7736961
1.8947883
2.0324553
2.1878762
2.3658835
2.5666854
2.7751568
2.9407168
3.0255673
3.040141
3.0561167
3.2301275
3.1082391
2.8075548
4528420.9
731663.27
224628.42
95290.554
48488.369
27618.072
16961.192
10985.757
7400.2276
5136.2538
3649.2356
2641.5592
1941.2925
1444.5128
1086.0078
823.55094
629.06199
483.43779
373.42483
289.67017
225.47491
175.97831
137.61301
107.73458
84.365571
66.016199
51.557286
40.129339
31.077064
23.901853
18.226636
13.768251
10.312827
7.6911599
5.7557144
4.3665584
3.3916751
2.7163976
2.2508952
1.9305394
1.7113242
1.5640951
1.4699408
1.4179427
1.3976645
1.3987556
1.4215457
1.4629059
1.5209
1.5948416
1.6853747
1.7942589
1.9226961
2.0701361
2.2402319
2.4417306
2.6787538
2.9371923
3.1448817
3.2502237
3.2492727
3.1956712
3.1231943
3.0475531
2.8264449
4528451.2
731668.25
224629.97
95291.213
48488.712
27618.273
16961.323
10985.848
7400.2973
5136.3112
3649.2862
2641.6066
1941.3393
1444.5605
1086.0578
823.60412
629.11911
483.49939
373.49128
289.74169
225.55153
176.05988
137.69918
107.82475
84.458883
66.111535
51.653244
40.224241
31.168985
23.988679
18.306169
13.838408
10.371959
7.7384659
5.7915659
4.3924449
3.4097238
2.7287773
2.2594367
1.9366328
1.7159758
1.5680322
1.4737715
1.4219962
1.4020524
1.4042416
1.4286534
1.4720001
1.532632
1.6101659
1.7057106
1.821607
1.9592833
2.1189312
2.3078448
2.5401295
2.8256631
3.1518301
3.4219898
3.5602589
3.5295182
3.4192509
3.1888561
2.9860175
2.8077591
4528483
731673.42
224631.58
95291.903
48489.068
27618.483
16961.46
10985.946
7400.373
5136.3745
3649.3431
2641.661
1941.3936
1444.6167
1086.1172
823.66785
629.18801
483.57412
373.57233
289.82938
225.64599
176.16103
137.8067
107.93805
84.577055
66.23334
51.777076
40.348111
31.290519
24.105144
18.414558
13.935659
10.455391
7.8064147
5.8439776
4.4309505
3.4370373
2.7478322
2.2727834
1.9462381
1.7232747
1.5740662
1.4793947
1.4277616
1.408364
1.4118274
1.4380125
1.4838552
1.5478649
1.630012
1.7319705
1.8566875
2.0055829
2.1801795
2.3929491
2.6651508
3.0152832
3.4357968
3.7981943
3.9858189
3.897255
3.7136401
3.3833547
3.0195555
2.7975487
4528516.9
731678.92
224633.27
95292.624
48489.44
27618.704
16961.605
10986.051
7400.4557
5136.445
3649.4076
2641.7235
1941.4569
1444.6828
1086.1876
823.74374
629.27031
483.66359
373.66953
289.9347
225.75962
176.28294
137.9366
108.07536
84.720844
66.382281
51.92941
40.501595
31.442388
24.252094
18.552806
14.061171
10.56441
7.8963325
5.914205
4.4831668
3.4744993
2.7742446
2.2914517
1.959748
1.7335285
1.5824512
1.4870353
1.43542
1.416565
1.4215593
1.4499447
1.4989067
1.5671834
1.6551767
1.7652384
1.9008446
2.063108
2.2560709
2.4992421
2.8235968
3.2616128
3.8177149
4.3130815
4.5659076
4.3789151
4.0879145
3.6615281
3.1777308
2.8735217
4528552.1
731684.6
224635.02
95293.37
48489.828
27618.934
16961.758
10986.163
7400.545
5136.5222
3649.4793
2641.7938
1941.5289
1444.7585
1086.2686
823.83131
629.36552
483.76727
373.78233
290.05709
225.89186
176.42507
138.08837
108.2362
84.889818
66.558013
52.11002
40.684626
31.624727
24.429914
18.721582
14.215901
10.700231
8.0095898
6.0036334
4.5503546
3.5231641
2.8088483
2.3160847
1.9776609
1.7471343
1.5935184
1.4969863
1.445257
1.4269798
1.4337861
1.464907
1.5177615
1.5914084
1.6867924
1.807064
1.955956
2.1341259
2.3501089
2.6325189
3.0257956
3.5844061
4.3307292
5.0102178
5.3336315
5.0030932
4.5572568
4.0053099
3.4611649
3.0999915
4528588.7
731690.45
224636.81
95294.14
48490.232
27619.176
16961.919
10986.281
7400.6404
5136.6057
3649.5577
2641.8714
1941.6087
1444.8429
1086.3592
823.92956
629.47254
483.88397
373.90947
290.19522
226.04134
176.586
138.26057
108.41917
85.08265
66.75932
52.317853
40.896372
31.836989
24.638403
18.921086
14.400484
10.863896
8.1475392
6.1137482
4.6339428
3.5842721
2.8526505
2.3474761
2.0006028
1.7645997
1.6076978
1.5096294
1.4576709
1.4400414
1.4490239
1.4835336
1.5412607
1.6216933
1.7264807
1.8596672
2.0246487
2.2221505
2.4678294
2.801617
3.2866767
4.0096178
4.9985549
5.8685557
5.9463569
5.4726286
5.0151663
4.4121563
3.7956829
3.4250173
4528626.6
731696.52
224638.66
95294.938
48490.651
27619.427
16962.087
10986.406
7400.7415
5136.695
3649.642
2641.9554
1941.6955
1444.9348
1086.4582
824.03707
629.5898
484.012
374.04911
290.34714
226.20598
176.76357
138.45101
108.62206
85.297163
66.98412
52.550995
41.135164
32.077836
24.876647
19.150916
14.615093
11.056162
8.3114226
6.2460813
4.7355104
3.6592578
2.906853
2.386594
2.029353
1.786571
1.6255531
1.5254469
1.4732037
1.4563228
1.4679638
1.5067016
1.5705808
1.6596809
1.7766012
1.9262189
2.1106576
2.332728
2.6179967
3.0199308
3.6279771
4.5712312
5.8050142
6.3515159
6.1350483
5.532493
5.18196
4.6910537
4.1442742
3.7341086
4528664.7
731702.76
224640.59
95295.767
48491.083
27619.686
16962.262
10986.536
7400.8477
5136.7889
3649.7311
2642.0444
1941.7878
1445.0328
1086.5638
824.15196
629.71523
484.1491
374.19882
290.51022
226.383
176.95488
138.65667
108.84179
85.530274
67.229398
52.806577
41.398378
32.345003
25.142862
19.409896
14.859268
11.277329
8.5022388
6.4021212
4.8567435
3.7497433
2.9728668
2.434606
2.064871
1.8138647
1.647849
1.5453031
1.4923579
1.4765826
1.4915538
1.5356397
1.6073967
1.7077587
1.8406385
2.0111326
2.2193991
2.4747303
2.8145007
3.3086765
4.0853906
5.3169639
6.5212696
6.4959871
5.888529
4.6353193
4.6545456
4.6673183
4.3452329
3.9570232
4528704.9
731709.27
224642.6
95296.627
48491.531
27619.956
16962.444
10986.671
7400.958
5136.8868
3649.8239
2642.1372
1941.884
1445.135
1086.6741
824.27192
629.84628
484.29247
374.35554
290.68118
226.5689
177.15621
138.87367
109.07437
85.777929
67.491115
53.080672
41.682313
32.635147
25.434222
19.695885
15.131709
11.527042
8.7205563
6.5831713
4.9993518
3.8575073
3.0523167
2.4929015
2.1083238
1.8474773
1.6754523
1.5698992
1.5162388
1.5019197
1.5211314
1.5721097
1.6541543
1.7694857
1.9237609
2.1203804
2.3588559
2.6624384
3.0803978
3.7052381
4.7325198
6.270108
6.8490394
6.4202756
4.854619
2.8721484
2.7154796
3.5431644
3.9545727
3.7657204
4528746.8
731716.02
224644.67
95297.52
48491.997
27620.235
16962.632
10986.81
7401.0715
5136.9871
3649.9189
2642.2319
1941.9821
1445.2392
1086.7864
824.39415
629.97989
484.43874
374.51562
290.85606
226.75943
177.36306
139.09726
109.31484
86.035047
67.764135
53.368192
41.982058
32.943692
25.746667
20.005548
15.430022
11.804021
8.9662632
6.790142
5.1649283
3.9844157
3.1470261
2.5631102
2.1611282
1.8886628
1.7095365
1.6004416
1.5460806
1.533858
1.558624
1.6187161
1.7145483
1.8503453
2.0335247
2.2620894
2.543835
2.9217268
3.4576148
4.285842
5.7147684
7.1230994
6.9562355
5.962988
3.3859663
1.8616425
1.3365534
1.5156471
2.2979146
2.2945692
4528789.6
731722.96
224646.82
95298.441
48492.479
27620.523
16962.824
10986.953
7401.1868
5137.0884
3650.0143
2642.3267
1942.08
1445.3429
1086.8981
824.51553
630.11256
484.58407
374.67485
291.0303
226.94968
177.57014
139.32184
109.55733
86.295511
68.04219
53.662822
42.291382
33.26466
26.074686
20.33409
15.750411
12.105723
9.2382196
7.0232485
5.3547268
4.1322904
3.2589648
2.6471058
2.2249894
1.9389947
1.7516398
1.6385333
1.5836297
1.5746096
1.6068959
1.6794557
1.7944045
1.9590952
2.1804911
2.4523262
2.8078443
3.302182
4.0279825
5.2265233
7.0614908
7.5155617
6.8674422
4.5724389
2.3160191
1.3226036
0.84985407
0.74909748
0.87658713
0.81113173
4528834.7
731730.24
224649.07
95299.4
48492.979
27620.821
16963.022
10987.098
7401.3029
5137.1894
3650.1084
2642.4194
1942.1751
1445.4432
1087.0058
824.6325
630.24036
484.72413
374.82848
291.19871
227.134
177.77141
139.54095
109.79499
86.552155
68.317855
53.956973
42.602667
33.590575
26.411156
20.675011
16.087317
12.427913
9.5338484
7.2816386
5.5693512
4.3026944
3.390136
2.7469757
2.30193
2.0004375
1.803775
1.6863706
1.6314432
1.6275452
1.6703352
1.7607342
1.9033652
2.1102796
2.3825736
2.7279887
3.2088841
3.8923395
4.975033
6.8129875
8.0055787
7.6332052
6.1591068
2.9843941
1.5341536
0.91109218
0.62671363
0.47200993
0.44125648
0.35692335
4528880.1
731737.66
224651.36
95300.386
48493.493
27621.127
16963.224
10987.244
7401.4182
5137.288
3650.1992
2642.5078
1942.2649
1445.5373
1087.1064
824.74152
630.35936
484.85456
374.97169
291.35602
227.30666
177.96063
139.74786
110.02062
86.797333
68.583104
54.242333
42.907442
33.912989
26.747898
21.020709
16.434059
12.765163
9.8492758
7.5631812
5.8084055
4.4966157
3.542374
2.8649379
2.3943036
2.075435
1.8685713
1.7469767
1.69353
1.6979061
1.7560148
1.8733402
2.0583201
2.3287507
2.6786964
3.1573177
3.8448599
4.8957271
6.6937612
8.4336567
8.3223325
7.2768904
4.0374342
1.9311099
1.0264046
0.64361495
0.47798178
0.3621102
0.30179773
0.22764383
4528926.9
731745.32
224653.73
95301.407
48494.023
27621.439
16963.428
10987.389
7401.5311
5137.3828
3650.2845
2642.5895
1942.3467
1445.6222
1087.1966
824.83874
630.46524
484.97055
375.09919
291.49639
227.46125
178.13082
139.93501
110.22607
87.022321
68.828673
54.509158
43.195586
34.221545
27.074517
21.361025
16.781117
13.10912
10.17781
7.8633376
6.0696777
4.7138916
3.716981
3.0031705
2.5047904
2.1670533
1.9495501
1.8249001
1.7761791
1.7936003
1.8763816
2.0364796
2.2903608
2.6610587
3.1465543
3.8550577
4.9469431
6.7655255
8.8654903
9.0277712
8.1875733
5.3816478
2.4535011
1.2008129
0.70724194
0.47882948
0.36715247
0.29354915
0.24361681
0.18524074
4528977.9
731753.51
224656.23
95302.469
48494.569
27621.759
16963.635
10987.534
7401.6407
5137.4722
3650.3627
2642.6622
1942.4181
1445.6949
1087.2728
824.92034
630.55372
485.06735
375.20568
291.61394
227.5913
178.27485
140.09461
110.40284
87.217922
69.04467
54.746897
43.455953
34.504622
27.379097
21.684005
17.116831
13.448849
10.509971
8.174864
6.3486191
4.9526296
3.9142577
3.1635558
2.6364029
2.279307
2.0519924
1.9272159
1.8892445
1.9283355
2.05354
2.286299
2.6611127
3.1905396
3.9235144
5.0941767
7.0456403
9.3583165
9.7247667
9.0410938
6.6638854
2.9786776
1.4204614
0.80654561
0.54155929
0.39945536
0.30681347
0.23942991
0.1995008
0.15826446
4529031.7
731762.02
224658.82
95303.57
48495.134
27622.087
16963.843
10987.677
7401.7453
5137.5544
3650.4317
2642.7239
1942.4763
1445.7525
1087.3319
824.98261
630.62064
485.14026
375.2859
291.70283
227.69031
178.38554
140.2187
110.54223
87.374604
69.22073
54.944357
43.67656
34.749521
27.648368
21.976048
17.427662
13.771482
10.834212
8.4881012
6.6380677
5.2086358
4.1329372
3.3473384
2.7924955
2.417596
2.1837924
2.06536
2.0494363
2.1270835
2.3294834
2.6946175
3.2723727
4.0718511
5.3310135
7.4878632
9.9744975
10.417825
9.8206223
7.7593346
3.5508737
1.7082705
0.94230536
0.61420225
0.43915253
0.3344111
0.26567397
0.20732454
0.16961713
0.13679447
4529085.9
731770.71
224661.49
95304.706
48495.714
27622.42
16964.051
10987.816
7401.8436
5137.6279
3650.4897
2642.7722
1942.519
1445.7922
1087.3707
825.02199
630.66199
485.1848
375.33486
291.75749
227.75206
178.45599
140.29965
110.63575
87.483034
69.346613
55.09036
43.845286
34.943218
27.868489
22.222656
17.6987
14.062031
11.136028
8.7899625
6.9274653
5.474713
4.3695881
3.5548256
2.9769978
2.589733
2.3577209
2.2595255
2.2849411
2.4391878
2.7885713
3.3997702
4.2920101
5.6786231
8.0372513
10.689499
11.144137
10.57244
8.6269968
4.1791119
2.0436404
1.1039691
0.68839051
0.47594529
0.357591
0.27760963
0.22383636
0.18068344
0.15264749
0.12614637
4529139.6
731779.58
224664.22
95305.865
48496.304
27622.758
16964.258
10987.95
7401.9344
5137.6912
3650.5349
2642.8054
1942.5439
1445.8116
1087.3863
825.03527
630.6741
485.1968
375.34779
291.77248
227.77042
178.47925
140.32968
110.67478
87.533703
69.411944
55.17361
43.949822
35.072361
28.025091
22.408504
17.913798
14.303831
11.398797
9.0647561
7.2032191
5.7406868
4.6185597
3.7856374
3.1954613
2.8084045
2.5961805
2.5466278
2.6515019
2.9667543
3.6010374
4.6049592
6.1293016
8.7136116
11.46076
11.906949
11.331159
9.3868837
4.8571225
2.4201033
1.284225
0.76771064
0.51965016
0.39099518
0.308481
0.24534132
0.19627246
0.15810456
0.13461496
0.11422313
4529196.7
731788.85
224667.07
95307.069
48496.915
27623.102
16964.466
10988.08
7402.0171
5137.7434
3650.5664
2642.822
1942.5494
1445.8086
1087.3764
825.01981
630.65403
485.17298
375.32106
291.74377
227.7408
178.45007
140.3026
110.65187
87.517536
69.405706
55.181277
43.97605
35.122048
28.102902
22.517923
18.056648
14.479998
11.605379
9.2957851
7.4502859
5.9948619
4.8734625
4.0407084
3.4584527
3.0973539
2.9429105
2.9919156
3.2685917
3.9160744
5.0414288
6.7186763
9.4916968
12.302949
12.723243
12.132515
10.154634
5.5685129
2.8026518
1.4610893
0.85291005
0.57215139
0.42959784
0.33386802
0.26207128
0.21010042
0.17278471
0.14199976
0.12339248
0.10739217
4529258.1
731798.62
224670.04
95308.32
48497.545
27623.452
16964.672
10988.205
7402.091
5137.7835
3650.5827
2642.8205
1942.5339
1445.7813
1087.3391
824.9734
630.59935
485.11069
375.25182
291.66832
227.66013
178.36541
140.2156
110.56464
87.43273
69.326543
55.111494
43.919928
35.084493
28.089486
22.535262
18.111081
14.575109
11.740629
9.4684836
7.6557998
6.228137
5.1319726
4.328458
3.7904973
3.5054046
3.4844102
3.72715
4.3847012
5.6316125
7.4749544
10.386165
13.211018
13.600585
12.988526
10.956554
6.2720015
3.1720117
1.6475005
0.9636824
0.64566982
0.47728343
0.36307541
0.28552853
0.23156651
0.18978009
0.15786979
0.13257245
0.11686388
0.10255748
4529319.5
731808.55
224673.09
95309.605
48498.188
27623.807
16964.877
10988.323
7402.155
5137.8105
3650.5829
2642.7999
1942.4961
1445.7286
1087.2728
824.89445
630.50832
485.00802
375.13796
291.54386
227.52586
178.22248
140.06561
110.40974
87.275725
69.170978
54.961686
43.780952
34.9621
27.989876
22.464568
18.075511
14.581691
11.797224
9.5768222
7.8164977
6.4429399
5.4069784
4.6794946
4.2510855
4.1392647
4.3604878
5.0423407
6.4034194
8.4143461
11.408207
14.188836
14.557316
13.915256
11.809188
6.9897706
3.5795347
1.8703725
1.0936102
0.7264809
0.5225768
0.39108601
0.30859598
0.25031078
0.20411935
0.16753176
0.14047974
0.12034968
0.10796939
0.097601962
4529381.2
731818.67
224676.21
95310.921
48498.845
27624.166
16965.08
10988.435
7402.2091
5137.8246
3650.567
2642.7601
1942.436
1445.6504
1087.1777
824.78316
630.38124
484.86544
374.98015
291.37125
227.33912
178.02269
139.85433
110.18918
87.048878
68.941695
54.734785
43.562245
34.758353
27.808674
22.314076
17.964198
14.517917
11.788962
9.6353061
7.9520513
6.6696277
5.7477546
5.1748592
4.9730133
5.1753417
5.8935915
7.3745281
9.5484555
12.558151
15.244821
15.587794
14.909632
12.714319
7.7342682
4.0313764
2.1245418
1.2403738
0.81336489
0.5721007
0.42689681
0.33875585
0.2735076
0.22187315
0.18271455
0.15363943
0.13171417
0.11430475
0.10405036
0.094733056
4529447.3
731829.36
224679.48
95312.288
48499.525
27624.534
16965.284
10988.543
7402.2552
5137.8272
3650.5369
2642.7033
1942.3561
1445.5495
1087.057
824.64323
630.22242
484.68789
374.78409
291.15703
227.1074
177.77453
139.59138
109.91381
86.764303
68.652169
54.445703
43.280248
34.491365
27.565881
22.105837
17.801936
14.41405
11.757054
9.691942
8.1235266
6.9912255
6.2725698
5.9877094
6.1804262
6.9460957
8.5320741
10.873053
13.848035
16.387797
16.68969
15.970421
13.674312
8.5201459
4.5396115
2.4201907
1.406503
0.9075627
0.63078532
0.47167537
0.37248763
0.29613472
0.23849829
0.19719803
0.16559405
0.1409523
0.12288004
0.10881817
0.099996745
0.091845564
4529517.1
731840.53
224682.89
95313.717
48500.232
27624.914
16965.493
10988.65
7402.2972
5137.8232
3650.4977
2642.6354
1942.2633
1445.4338
1086.9196
824.48488
630.04338
484.48838
374.56436
290.91752
226.84887
177.49821
139.29913
109.60829
86.449142
68.332168
54.127015
42.970554
34.200036
27.304114
21.886784
17.640903
14.328762
11.770154
9.8407507
8.4548285
7.5720107
7.2016962
7.3874553
8.2068105
9.8904593
12.355204
15.296551
17.646071
17.868623
17.100764
14.691706
9.3564335
5.1121441
2.752801
1.5840104
1.0074252
0.69912574
0.5243695
0.40920321
0.32144758
0.25911436
0.21412479
0.17889724
0.15149766
0.13040956
0.11437598
0.10281869
0.095777331
0.089259101
4529588.1
731851.96
224686.4
95315.194
48500.963
27625.308
16965.708
10988.762
7402.3412
5137.8197
3650.4583
2642.5667
1942.1691
1445.3166
1086.7809
824.32533
629.86358
484.28876
374.34544
290.68002
226.59388
177.22735
139.01469
109.31345
86.148177
68.030655
53.83212
42.691317
33.947735
27.092666
21.733019
17.565622
14.364286
11.963198
10.247154
9.1529289
8.671769
8.8342317
9.6792118
11.451259
13.991605
16.889515
19.069535
19.147062
18.304213
15.748011
10.253778
5.7558491
3.122629
1.7781219
1.123124
0.78504471
0.58624412
0.44942301
0.35002759
0.28303339
0.23330905
0.19411056
0.16403643
0.1406996
0.12342261
0.11026806
0.10018399
0.093906064
0.087838008
4529661.3
731863.83
224690.03
95316.725
48501.724
27625.72
16965.939
10988.886
7402.3974
5137.8289
3650.4325
2642.513
1942.092
1445.2188
1086.6641
824.19097
629.71256
484.122
374.16395
290.48508
226.38718
177.01114
138.79199
109.08824
85.925647
67.817501
53.636834
42.524421
33.823037
27.029122
21.757825
17.71944
14.696303
12.536737
11.148694
10.4987
10.598029
11.427274
13.223646
15.809011
18.629845
20.674576
20.563361
19.600186
16.837028
11.215132
6.4695873
3.5268313
1.9918135
1.2572461
0.88305965
0.65214867
0.49185184
0.38418058
0.31166241
0.25525712
0.21002724
0.17609482
0.15071763
0.13086967
0.11605629
0.10484534
0.096547257
0.090953222
0.086010038
4529737.4
731876.13
224693.81
95318.315
48502.521
27626.161
16966.194
10989.034
7402.4784
5137.8654
3650.4371
2642.4936
1942.0537
1445.165
1086.5972
824.11289
629.62496
484.02648
374.06225
290.37923
226.27962
176.90496
138.6911
108.99768
85.852034
67.769646
53.626757
42.569133
33.945323
27.258984
22.135321
18.29492
15.538167
13.735613
12.821328
12.786156
13.533551
15.269502
17.818879
20.620749
22.465908
22.163343
21.01216
17.961109
12.240321
7.2349437
3.9632629
2.2315874
1.4133418
0.99301427
0.72512287
0.54398951
0.42637805
0.34446621
0.27826933
0.22791734
0.19123945
0.16345396
0.14117205
0.12425732
0.11082277
0.10073811
0.093636415
0.08897926
0.084764649
4529816
731888.84
224697.73
95319.973
48503.36
27626.635
16966.48
10989.214
7402.5949
5137.9412
3650.4861
2642.5246
1942.0725
1445.1759
1086.6035
824.11729
629.63013
484.0351
374.07723
290.40392
226.31807
176.96212
138.77321
109.1127
86.01018
67.984197
53.915087
42.95399
34.457393
27.939375
23.037435
19.48891
17.114455
15.805524
15.518225
16.117972
17.687394
20.11065
22.828468
24.461996
24.020786
22.584417
19.128178
13.328142
8.0581001
4.4487365
2.5098871
1.5930427
1.1132843
0.80630054
0.60581226
0.47447953
0.37833704
0.30412751
0.24989769
0.20993127
0.17709423
0.1514898
0.13193644
0.11705421
0.10635365
0.0982442
0.092121349
0.087761017
0.083821092
4529897.8
731902.1
224701.79
95321.705
48504.247
27627.146
16966.802
10989.432
7402.7527
5138.0633
3650.5876
2642.6153
1942.1594
1445.2643
1086.6979
824.22164
629.74846
484.1716
374.23653
290.59134
226.53986
177.22584
139.08815
109.49046
86.465526
68.536195
54.588725
43.781758
35.481361
29.213871
24.632056
21.490602
19.628308
18.947158
19.30153
20.582187
22.767234
25.290586
26.630955
26.001852
24.27604
20.371193
14.483326
8.9388028
4.9801184
2.8193174
1.787021
1.2414162
0.8985256
0.67894837
0.52924269
0.41687571
0.33492284
0.27673856
0.22980582
0.19182198
0.16301797
0.14188788
0.12555957
0.11274741
0.1027529
0.094864657
0.08958526
0.085840724
0.082784437
4529983.7
731915.9
224706.02
95323.514
48505.18
27627.695
16967.159
10989.686
7402.9488
5138.2287
3650.7385
2642.7627
1942.3113
1445.4273
1086.8778
824.42408
629.97912
484.43667
374.54296
290.94714
226.95454
177.71081
139.65737
110.16124
87.259741
69.481293
55.719356
45.141734
37.125587
31.210299
27.062327
24.447211
23.203421
23.209709
24.048993
25.890047
28.035381
28.980049
28.14849
26.100507
21.726802
15.691695
9.8566675
5.5486513
3.1609503
2.003053
1.3886015
1.0093044
0.76435285
0.59045236
0.46124691
0.37097367
0.30570481
0.25203742
0.20922406
0.17818612
0.1536681
0.1344337
0.11892168
0.10748061
0.099055489
0.092944659
0.088216663
0.085029142
0.082159869
4530071.7
731930.11
224710.41
95325.391
48506.157
27628.277
16967.546
10989.971
7403.1803
5138.4338
3650.9349
2642.9627
1942.5244
1445.6614
1087.1405
824.72284
630.32189
484.83228
375.00147
291.48031
227.5763
178.43791
140.51016
111.16464
88.444257
70.884534
57.387269
47.130088
39.500633
34.047278
30.439657
28.432996
27.832619
28.265169
29.497915
31.198659
31.465286
30.422549
27.937856
23.137688
16.901948
10.781995
6.1579184
3.5486274
2.2518668
1.5567797
1.133296
0.85609889
0.65701909
0.51332736
0.4133106
0.33788602
0.27727453
0.23107598
0.19525907
0.16677825
0.14380374
0.12709436
0.11437657
0.10477526
0.096993486
0.091121775
0.086972452
0.083863587
0.081424609
4530163.2
731944.94
224714.97
95327.347
48507.185
27628.9
16967.974
10990.299
7403.4585
5138.6921
3651.1924
2643.2332
1942.8191
1445.9901
1087.5126
825.14825
630.81125
485.3976
375.65662
292.24155
228.46294
179.47312
141.72181
112.58632
90.116279
72.854823
59.711716
49.871777
42.726204
37.817536
34.791413
33.349001
33.211969
33.751731
34.620829
34.13679
32.724101
29.709195
24.559799
18.106958
11.730974
6.8354178
3.9983517
2.5340537
1.7408202
1.2671795
0.95802939
0.73632916
0.57744257
0.46292969
0.37406883
0.30623368
0.25594855
0.21509057
0.1811548
0.15597787
0.13670353
0.12199093
0.1098631
0.10078883
0.094006119
0.089173128
0.085525718
0.08292918
0.08087759
4530257.7
731960.24
224719.69
95329.396
48508.279
27629.582
16968.459
10990.688
7403.8057
5139.0289
3651.5402
2643.6078
1943.2334
1446.4563
1088.0427
825.75478
631.50824
486.20092
376.58469
293.31605
229.70963
180.92272
143.41097
114.55851
92.422434
75.54697
62.835959
53.485646
46.872198
42.503147
39.956692
38.806705
38.627476
38.323168
37.162176
35.032291
31.532157
26.040429
19.330739
12.718217
7.5883903
4.5027125
2.8418957
1.9406491
1.4178248
1.0770632
0.83057525
0.65047552
0.51691872
0.41482856
0.34001221
0.28399576
0.23736226
0.19929095
0.17044899
0.14852825
0.13023212
0.11679128
0.10621211
0.09882029
0.092716866
0.08825103
0.084861569
0.082375607
0.080401432
4530355.2
731976.04
224724.6
95331.543
48509.449
27630.334
16969.018
10991.16
7404.2458
5139.4724
3652.0106
2644.1232
1943.8094
1447.1076
1088.7842
826.60259
632.48028
487.31773
377.8702
294.79849
231.42256
182.90622
145.71108
117.2243
95.498163
79.06559
66.82853
57.973756
51.834077
47.844962
45.509128
44.096718
42.545902
40.31137
37.594992
33.468871
27.547435
20.555904
13.748054
8.4139752
5.0643027
3.189993
2.1729134
1.5934702
1.2134998
0.93538112
0.73105816
0.57871087
0.46487223
0.38107022
0.31563134
0.26245867
0.22081721
0.18800915
0.16094394
0.14038924
0.12436171
0.11275598
0.10326935
0.096084277
0.090522311
0.08659177
0.083595048
0.081577114
0.079905505
4530457.6
731992.59
224729.74
95333.813
48510.709
27631.17
16969.665
10991.728
7404.7969
5140.0433
3652.6274
2644.8065
1944.5777
1447.9783
1089.7757
827.73485
633.77551
488.80146
379.57183
296.75168
233.66503
185.47817
148.65446
120.58146
99.309532
83.363692
71.605393
63.139073
57.238963
53.170977
50.08811
47.140485
43.998416
40.475126
35.568851
29.143068
21.873779
14.897489
9.3529388
5.7120285
3.5974557
2.4420394
1.7886463
1.3610981
1.0516106
0.82442097
0.65415458
0.52511424
0.42754518
0.35055027
0.29095957
0.24566968
0.20811625
0.17651411
0.15257486
0.13489187
0.12021898
0.10937927
0.1003932
0.094224398
0.089203767
0.085821259
0.082950811
0.08108272
0.079507889
4530563.2
732009.74
224735.1
95336.205
48512.062
27632.097
16970.409
10992.406
7405.4733
5140.7579
3653.4088
2645.6779
1945.56
1449.092
1091.0418
829.17598
635.4164
490.66902
381.69535
299.16243
236.39513
188.55868
152.11092
124.42711
103.53741
87.940584
76.429929
67.997585
61.738433
56.73966
52.328665
48.152821
43.615348
37.858074
30.90207
23.348554
16.186125
10.398127
6.4386451
4.0606701
2.7453023
2.004725
1.5279059
1.1880091
0.93604424
0.74202504
0.59325975
0.47934298
0.39191294
0.32567985
0.27405021
0.23091126
0.19543556
0.16795923
0.14598235
0.12908836
0.11546705
0.10592311
0.098106249
0.092679839
0.088078524
0.084921382
0.082335937
0.080725029
0.079179323
4530672.5
732027.49
224740.66
95338.711
48513.506
27633.112
16971.249
10993.192
7406.2711
5141.6108
3654.3478
2646.7281
1946.7441
1450.4319
1092.5599
830.89556
637.362
492.86632
384.17018
301.93884
239.49202
191.98427
155.85437
128.44664
107.74415
92.177878
80.492828
71.574844
64.466363
58.45959
52.961645
47.188134
40.504161
32.960815
25.067609
17.661858
11.588559
7.2885498
4.6209657
3.1126914
2.2605059
1.7227249
1.3449835
1.061336
0.84067602
0.67120424
0.54237477
0.44297939
0.3667754
0.30559611
0.25631987
0.21778678
0.1861915
0.15978251
0.13946676
0.12475487
0.11253416
0.1037779
0.096202056
0.090913198
0.086633992
0.083932681
0.081578724
0.080175999
0.078813568
4530784.7
732045.82
224746.42
95341.328
48515.033
27634.201
16972.162
10994.056
7407.156
5142.5612
3655.3961
2647.901
1948.0652
1451.9242
1094.246
832.79821
639.50379
495.2683
386.84965
304.90604
242.74489
195.50095
159.58342
132.29534
111.56666
95.765666
83.569479
73.886475
65.821586
58.622036
51.375653
43.631244
35.399706
27.083119
19.366514
12.965309
8.2961573
5.2957237
3.54538
2.5491318
1.9373182
1.5177793
1.2024103
0.9563111
0.76616299
0.61825111
0.50288629
0.41249446
0.34178824
0.28662689
0.2435471
0.20732606
0.1766931
0.15304977
0.13477145
0.12060566
0.10894101
0.10093353
0.094183607
0.08984832
0.08604474
0.083491233
0.081262743
0.079935426
0.078615954
4530901
732061.4
224749.53
95341.833
48514.998
27634.116
16972.175
10994.219
7407.4911
5143.08
3656.1079
2648.8152
1949.1925
1453.2763
1095.8356
834.63763
641.60346
497.63427
389.48002
307.78564
245.83856
198.74554
162.87919
135.49892
114.4888
98.178827
85.227135
74.587466
65.234839
56.302265
47.363156
38.34235
29.512531
21.408902
14.618332
9.525245
6.1272225
4.0740702
2.8957465
2.1918685
1.7219794
1.3702117
1.0940125
0.87703385
0.70562879
0.57122402
0.46753813
0.38638354
0.32357915
0.27267208
0.23078628
0.19710206
0.1696618
0.14722059
0.12966452
0.11720033
0.10670872
0.099428497
0.09298174
0.088700975
0.085054404
0.082651029
0.080700052
0.079582232
0.078338032
4531685.4
732195.48
224794.67
95363.23
48527.15
27641.91
16977.649
10998.357
7410.823
5145.9172
3658.6464
2651.186
1951.4874
1455.5624
1098.1623
837.04086
644.10637
500.24621
392.19363
310.5723
248.64275
201.47905
165.41711
137.68006
116.12515
99.086559
85.162342
73.140978
62.192849
51.803986
41.78721
32.279013
23.666873
16.418782
10.866903
7.0455466
4.6632043
3.2813626
2.4698066
1.9405527
1.54937
1.2425452
0.99884405
0.80482673
0.65247842
0.53309274
0.43910251
0.36413283
0.30479622
0.2574167
0.22029767
0.1890643
0.16226145
0.14169594
0.1260701
0.11399074
0.10382881
0.097112111
0.091252343
0.087533875
0.084201379
0.082244478
0.080335723
0.079207685
0.078156861
4531684.6
732191.79
224791.7
95361.054
48525.672
27640.936
16977.051
10998.057
7410.7751
5146.0943
3659.0326
2651.7726
1952.2698
1456.5376
1099.3265
838.38618
645.61764
501.89657
393.93944
312.34775
250.35482
203.00455
166.60554
138.35809
116.06786
97.971661
82.73442
69.367268
57.212914
45.947651
35.564152
26.301871
18.508246
12.450206
8.165065
5.4047909
3.7676856
2.8067112
2.1955914
1.7573351
1.4172687
1.1445075
0.9244161
0.74901312
0.60943042
0.49855957
0.41198273
0.34337625
0.29006606
0.24651297
0.21034489
0.18060884
0.15648006
0.13709263
0.12187729
0.11122216
0.10199813
0.095892871
0.090359876
0.086851369
0.083742504
0.081775055
0.080024512
0.079014055
0.078009944
4531684.8
732191.91
224791.81
95361.211
48525.877
27641.193
16977.365
10998.435
7411.2242
5146.6201
3659.6412
2652.4691
1953.0577
1457.4168
1100.2918
839.42486
646.70607
502.99659
394.99461
313.28052
251.06481
203.35952
166.43036
137.42925
114.18221
95.02562
78.718955
64.402004
51.571324
40.04744
29.906224
21.361743
14.612751
9.6948751
6.4078991
4.3956777
3.2120864
2.4879608
1.9932971
1.61606
1.3109729
1.061829
0.8607176
0.69968405
0.57198609
0.47117737
0.3915192
0.32721366
0.27618994
0.23473508
0.20205918
0.17462227
0.15096697
0.13290292
0.11904658
0.10871953
0.099917841
0.094209611
0.088932457
0.085823307
0.082948436
0.081202983
0.079630487
0.078698825
0.077846265
4531684.9
732191.99
224791.87
95361.284
48525.971
27641.312
16977.514
10998.618
7411.4434
5146.8796
3659.9433
2652.8147
1953.4447
1457.8389
1100.7365
839.87083
647.12007
503.32992
395.17863
313.22065
250.63449
202.41318
164.8218
135.04195
110.94031
90.924338
73.855814
58.995914
45.955181
34.624184
25.071074
17.412472
11.68313
7.7212952
5.2200607
3.7382022
2.8578487
2.2833823
1.8560321
1.5117578
1.2294803
0.99912315
0.81237427
0.66269634
0.54300528
0.44733138
0.37215284
0.31195428
0.26519261
0.22674035
0.19489529
0.16840682
0.14670729
0.12950135
0.11607288
0.10680085
0.098318889
0.093126986
0.088412023
0.085417868
0.082647099
0.080984787
0.07947295
0.078578962
0.077734727
4531686.1
732192.09
224791.88
95361.27
48525.953
27641.294
16977.496
10998.602
7411.4313
5146.8713
3659.9377
2652.8083
1953.4302
1457.8038
1100.6604
839.72294
646.85651
502.89097
394.48759
312.18593
249.15664
200.39008
162.16318
131.68924
106.89099
86.255448
68.73886
53.693485
40.792151
29.934247
21.129672
14.377568
9.5571456
6.3954342
4.4703777
3.3327427
2.6244021
2.1268002
1.7386955
1.4215858
1.1595281
0.94392522