/*--------------------------------*- C++ -*----------------------------------*\
  =========                 |
  \\      /  F ield         | OpenFOAM: The Open Source CFD Toolbox
   \\    /   O peration     | Website:  https://openfoam.org
    \\  /    A nd           | Version:  13
     \\/     M anipulation  |
\*---------------------------------------------------------------------------*/
FoamFile
{
    format      ascii;
    class       volScalarField;
    location    "0.05";
    object      mag(U);
}
// * * * * * * * * * * * * * * * * * * * * * * * * * * * * * * * * * * * * * //

dimensions      [0 1 -1 0 0 0 0];

internalField   nonuniform List<scalar> 
1000
(
29.7113
29.7893
29.922
30.0713
30.2248
30.3793
30.534
30.6887
30.8433
30.9979
31.1525
31.307
31.4615
31.616
31.7704
31.9248
32.0792
32.2335
32.3878
32.542
32.6962
32.8503
33.0044
33.1585
33.3125
33.4665
33.6205
33.7744
33.9282
34.082
34.2358
34.3895
34.5432
34.6968
34.8504
35.004
35.1575
35.3109
35.4643
35.6177
35.771
35.9242
36.0775
36.2306
36.3838
36.5368
36.6899
36.8428
36.9958
37.1487
37.3015
37.4543
37.607
37.7597
37.9124
38.065
38.2176
38.3701
38.5225
38.675
38.8273
38.9797
39.132
39.2842
39.4364
39.5886
39.7407
39.8927
40.0448
40.1968
40.3487
40.5006
40.6525
40.8044
40.9562
41.108
41.2597
41.4114
41.5631
41.7148
41.8664
42.018
42.1696
42.3212
42.4728
42.6243
42.7759
42.9274
43.0789
43.2305
43.382
43.5335
43.6851
43.8367
43.9883
44.1399
44.2916
44.4432
44.5949
44.7466
44.8981
45.0496
45.2011
45.3524
45.5035
45.6546
45.8055
45.9562
46.1067
46.257
46.4072
46.5572
46.7069
46.8564
47.0058
47.1549
47.3038
47.4525
47.601
47.7492
47.8973
48.0451
48.1928
48.3402
48.4874
48.6344
48.7812
48.9277
49.0741
49.2203
49.3663
49.5121
49.6577
49.8031
49.9483
50.0933
50.2382
50.3828
50.5273
50.6716
50.8157
50.9596
51.1033
51.2469
51.3902
51.5334
51.6765
51.8193
51.962
52.1045
52.2468
52.3889
52.5309
52.6727
52.8143
52.9558
53.0971
53.2382
53.3791
53.5199
53.6605
53.8009
53.9412
54.0813
54.2212
54.3609
54.5005
54.6399
54.7792
54.9182
55.0571
55.1958
55.3344
55.4728
55.611
55.749
55.8869
56.0246
56.1621
56.2994
56.4366
56.5736
56.7105
56.8471
56.9836
57.1199
57.2561
57.3921
57.5279
57.6635
57.799
57.9342
58.0693
58.2043
58.339
58.4736
58.608
58.7423
58.8763
59.0102
59.1439
59.2775
59.4108
59.544
59.677
59.8098
59.9425
60.075
60.2073
60.3394
60.4714
60.6031
60.7347
60.8661
60.9974
61.1284
61.2593
61.39
61.5206
61.6509
61.7811
61.9111
62.0409
62.1705
62.3
62.4292
62.5583
62.6872
62.816
62.9445
63.0729
63.2011
63.3291
63.4569
63.5846
63.712
63.8393
63.9664
64.0933
64.2201
64.3466
64.473
64.5992
64.7252
64.851
64.9766
65.1021
65.2274
65.3525
65.4774
65.6021
65.7266
65.851
65.9752
66.0991
66.2229
66.3466
66.47
66.5932
66.7163
66.8392
66.9619
67.0844
67.2067
67.3288
67.4508
67.5725
67.6941
67.8155
67.9367
68.0577
68.1786
68.2992
68.4197
68.5399
68.66
68.7799
68.8996
69.0191
69.1385
69.2576
69.3766
69.4953
69.6139
69.7323
69.8505
69.9685
70.0864
70.204
70.3215
70.4387
70.5558
70.6727
70.7894
70.9059
71.0222
71.1383
71.2543
71.37
71.4856
71.6009
71.7161
71.8311
71.9459
72.0605
72.1749
72.2892
72.4032
72.5171
72.6307
72.7442
72.8574
72.9705
73.0834
73.1961
73.3086
73.421
73.5331
73.645
73.7568
73.8683
73.9797
74.0908
74.2018
74.3126
74.4232
74.5336
74.6438
74.7538
74.8636
74.9732
75.0827
75.1919
75.301
75.4098
75.5185
75.6269
75.7352
75.8433
75.9512
76.0589
76.1664
76.2737
76.3808
76.4877
76.5944
76.7009
76.8073
76.9134
77.0193
77.1251
77.2306
77.336
77.4411
77.5461
77.6509
77.7554
77.8598
77.964
78.068
78.1718
78.2754
78.3788
78.482
78.585
78.6878
78.7904
78.8928
78.995
79.097
79.1988
79.3004
79.4019
79.5031
79.6041
79.7049
79.8056
79.906
80.0062
80.1063
80.2061
80.3058
80.4052
80.5044
80.6035
80.7023
80.801
80.8994
80.9977
81.0957
81.1936
81.2912
81.3887
81.4859
81.583
81.6798
81.7765
81.8729
81.9692
82.0652
82.1611
82.2567
82.3522
82.4474
82.5425
82.6373
82.732
82.8264
82.9207
83.0147
83.1086
83.2022
83.2956
83.3889
83.4819
83.5748
83.6674
83.7599
83.8521
83.9442
84.036
84.1276
84.2191
84.3103
84.4014
84.4922
84.5829
84.6733
84.7635
84.8536
84.9434
85.0331
85.1225
85.2118
85.3008
85.3897
85.4783
85.5668
85.655
85.7431
85.831
85.9186
86.0061
86.0934
86.1804
86.2673
86.354
86.4405
86.5268
86.6129
86.6988
86.7845
86.87
86.9553
87.0404
87.1253
87.2101
87.2946
87.379
87.4632
87.5471
87.6309
87.7145
87.7979
87.8812
87.9642
88.047
88.1297
88.2122
88.2945
88.3766
88.4585
88.5402
88.6218
88.7032
88.7844
88.8654
88.9463
89.0269
89.1074
89.1877
89.2679
89.3478
89.4276
89.5072
89.5867
89.666
89.7451
89.824
89.9028
89.9814
90.0599
90.1382
90.2163
90.2943
90.3721
90.4497
90.5272
90.6046
90.6818
90.7588
90.8357
90.9124
90.989
91.0655
91.1418
91.218
91.294
91.3699
91.4456
91.5212
91.5967
91.6721
91.7473
91.8224
91.8974
91.9722
92.047
92.1216
92.1961
92.2705
92.3448
92.4189
92.493
92.5669
92.6408
92.7145
92.7882
92.8617
92.9352
93.0086
93.0819
93.1551
93.2282
93.3013
93.3742
93.4471
93.52
93.5927
93.6654
93.7381
93.8106
93.8832
93.9556
94.0281
94.1004
94.1728
94.2451
94.3174
94.3896
94.4618
94.534
94.6061
94.6783
94.7504
94.8225
94.8947
94.9668
95.0389
95.111
95.1832
95.2553
95.3275
95.3997
95.4719
95.5441
95.6164
95.6887
95.7611
95.8335
95.906
95.9785
96.0511
96.1237
96.1965
96.2693
96.3421
96.4151
96.4882
96.5613
96.6345
96.7079
96.7814
96.8549
96.9286
97.0025
97.0764
97.1505
97.2247
97.2991
97.3736
97.4483
97.5232
97.5982
97.6734
97.7487
97.8243
97.9
97.976
98.0521
98.1285
98.205
98.2818
98.3588
98.436
98.5135
98.5912
98.6692
98.7474
98.8258
98.9046
98.9836
99.0629
99.1424
99.2223
99.3024
99.3829
99.4636
99.5447
99.6261
99.7078
99.7899
99.8723
99.955
100.038
100.122
100.205
100.289
100.374
100.459
100.544
100.63
100.716
100.803
100.889
100.977
101.065
101.153
101.241
101.33
101.42
101.51
101.6
101.691
101.782
101.874
101.967
102.059
102.153
102.246
102.341
102.435
102.531
102.626
102.723
102.82
102.917
103.015
103.113
103.212
103.312
103.412
103.513
103.614
103.716
103.818
103.921
104.025
104.129
104.234
104.339
104.445
104.552
104.659
104.766
104.875
104.984
105.093
105.204
105.315
105.426
105.538
105.651
105.764
105.878
105.993
106.109
106.225
106.341
106.459
106.576
106.695
106.814
106.934
107.055
107.176
107.298
107.421
107.544
107.668
107.793
107.918
108.044
108.171
108.298
108.426
108.555
108.684
108.814
108.945
109.076
109.208
109.341
109.475
109.609
109.744
109.879
110.015
110.152
110.29
110.428
110.567
110.706
110.846
110.987
111.129
111.271
111.414
111.557
111.701
111.846
111.992
112.138
112.285
112.432
112.58
112.729
112.879
113.029
113.179
113.331
113.483
113.635
113.789
113.942
114.097
114.252
114.408
114.564
114.721
114.879
115.037
115.196
115.355
115.515
115.676
115.837
115.999
116.161
116.324
116.488
116.652
116.817
116.982
117.148
117.314
117.481
117.649
117.817
117.985
118.155
118.324
118.495
118.665
118.837
119.008
119.181
119.354
119.527
119.701
119.876
120.05
120.226
120.402
120.578
120.755
120.933
121.111
121.289
121.468
121.647
121.827
122.007
122.188
122.369
122.551
122.733
122.915
123.098
123.282
123.465
123.65
123.834
124.019
124.205
124.391
124.577
124.764
124.951
125.139
125.327
125.515
125.704
125.893
126.082
126.272
126.463
126.653
126.844
127.036
127.227
127.42
127.612
127.805
127.998
128.191
128.385
128.579
128.774
128.969
129.164
129.36
129.555
129.751
129.948
130.145
130.342
130.539
130.737
130.935
131.133
131.332
131.531
131.73
131.929
132.129
132.329
132.529
132.73
132.931
133.132
133.333
133.535
133.737
133.939
134.141
134.344
134.547
134.75
134.953
135.157
135.361
135.565
135.769
135.974
136.178
136.383
136.589
136.794
137
137.206
137.412
137.618
137.824
138.031
138.238
138.445
138.652
138.86
139.068
139.276
139.484
139.692
139.9
140.109
140.318
140.527
140.736
140.945
141.155
141.364
141.574
141.784
141.994
142.205
142.415
142.626
142.837
143.048
143.259
143.47
143.681
143.893
144.105
144.317
144.528
144.741
144.953
145.165
145.378
145.59
145.803
146.016
146.229
146.442
146.655
146.869
147.082
147.296
147.51
147.723
147.937
148.151
148.366
148.58
148.794
149.009
149.223
149.438
149.653
149.868
150.083
150.298
150.513
150.728
150.944
151.159
151.374
151.59
151.806
152.021
152.237
152.453
152.669
152.885
153.101
153.318
153.534
153.75
153.967
154.183
154.4
154.616
154.833
155.05
155.267
155.484
155.7
155.917
156.135
156.352
156.569
156.786
157.003
157.221
157.438
157.655
157.873
158.09
158.308
158.525
158.743
158.961
159.178
159.396
159.614
159.832
160.049
160.267
160.485
160.703
160.921
161.139
161.357
161.575
161.793
162.011
162.23
162.448
162.666
162.884
163.102
163.321
163.539
163.757
163.975
164.194
164.412
164.63
164.853
)
;

boundaryField
{
    sides
    {
        type            calculated;
        value           nonuniform List<scalar> 2(164.853 29.7113);
    }
    empty
    {
        type            empty;
    }
}


// ************************************************************************* //
