/*--------------------------------*- C++ -*----------------------------------*\
  =========                 |
  \\      /  F ield         | OpenFOAM: The Open Source CFD Toolbox
   \\    /   O peration     | Website:  https://openfoam.org
    \\  /    A nd           | Version:  13
     \\/     M anipulation  |
\*---------------------------------------------------------------------------*/
FoamFile
{
    format      ascii;
    class       volScalarField;
    location    "0.05";
    object      p;
}
// * * * * * * * * * * * * * * * * * * * * * * * * * * * * * * * * * * * * * //

dimensions      [1 -1 -2 0 0 0 0];

internalField   nonuniform List<scalar> 
1000
(
10586.4
10586
10585.1
10584
10582.9
10581.8
10580.8
10579.7
10578.7
10577.6
10576.6
10575.6
10574.6
10573.6
10572.6
10571.7
10570.7
10569.8
10568.8
10567.9
10567
10566.1
10565.3
10564.4
10563.5
10562.7
10561.9
10561.1
10560.3
10559.5
10558.7
10557.9
10557.2
10556.4
10555.7
10555
10554.3
10553.6
10552.9
10552.3
10551.6
10551
10550.3
10549.7
10549.1
10548.5
10547.9
10547.4
10546.8
10546.3
10545.8
10545.2
10544.7
10544.3
10543.8
10543.3
10542.9
10542.4
10542
10541.6
10541.2
10540.8
10540.4
10540
10539.7
10539.3
10539
10538.7
10538.4
10538.1
10537.8
10537.5
10537.3
10537
10536.8
10536.6
10536.4
10536.2
10536
10535.8
10535.7
10535.5
10535.4
10535.3
10535.2
10535.1
10535
10534.9
10534.8
10534.8
10534.7
10534.7
10534.7
10534.7
10534.7
10534.7
10534.7
10534.7
10534.8
10534.8
10534.9
10535
10535
10535.2
10535.3
10535.4
10535.6
10535.7
10535.9
10536.1
10536.3
10536.5
10536.8
10537
10537.3
10537.6
10537.9
10538.3
10538.6
10539
10539.3
10539.7
10540.2
10540.6
10541
10541.5
10542
10542.5
10543
10543.5
10544.1
10544.6
10545.2
10545.8
10546.4
10547.1
10547.7
10548.4
10549.1
10549.8
10550.5
10551.2
10552
10552.7
10553.5
10554.3
10555.1
10555.9
10556.8
10557.6
10558.5
10559.4
10560.3
10561.3
10562.2
10563.2
10564.1
10565.1
10566.1
10567.2
10568.2
10569.3
10570.3
10571.4
10572.5
10573.7
10574.8
10576
10577.1
10578.3
10579.5
10580.7
10582
10583.2
10584.5
10585.8
10587.1
10588.4
10589.7
10591.1
10592.5
10593.9
10595.3
10596.7
10598.1
10599.6
10601
10602.5
10604
10605.5
10607.1
10608.6
10610.2
10611.8
10613.4
10615
10616.6
10618.3
10620
10621.6
10623.3
10625.1
10626.8
10628.5
10630.3
10632.1
10633.9
10635.7
10637.6
10639.4
10641.3
10643.2
10645.1
10647
10648.9
10650.9
10652.9
10654.9
10656.9
10658.9
10660.9
10663
10665.1
10667.2
10669.3
10671.4
10673.5
10675.7
10677.9
10680.1
10682.3
10684.5
10686.8
10689
10691.3
10693.6
10695.9
10698.3
10700.6
10703
10705.4
10707.8
10710.2
10712.6
10715.1
10717.6
10720
10722.6
10725.1
10727.6
10730.2
10732.8
10735.4
10738
10740.6
10743.2
10745.9
10748.6
10751.3
10754
10756.8
10759.5
10762.3
10765.1
10767.9
10770.7
10773.5
10776.4
10779.3
10782.2
10785.1
10788
10791
10793.9
10796.9
10799.9
10803
10806
10809.1
10812.1
10815.2
10818.3
10821.5
10824.6
10827.8
10831
10834.2
10837.4
10840.6
10843.9
10847.1
10850.4
10853.8
10857.1
10860.4
10863.8
10867.2
10870.6
10874
10877.4
10880.9
10884.4
10887.9
10891.4
10894.9
10898.4
10902
10905.6
10909.2
10912.8
10916.5
10920.1
10923.8
10927.5
10931.2
10934.9
10938.7
10942.5
10946.2
10950
10953.9
10957.7
10961.6
10965.5
10969.4
10973.3
10977.2
10981.2
10985.1
10989.1
10993.2
10997.2
11001.2
11005.3
11009.4
11013.5
11017.6
11021.8
11025.9
11030.1
11034.3
11038.5
11042.8
11047
11051.3
11055.6
11059.9
11064.2
11068.6
11073
11077.4
11081.8
11086.2
11090.7
11095.1
11099.6
11104.1
11108.6
11113.2
11117.8
11122.3
11126.9
11131.6
11136.2
11140.9
11145.5
11150.2
11155
11159.7
11164.5
11169.2
11174
11178.9
11183.7
11188.5
11193.4
11198.3
11203.2
11208.2
11213.1
11218.1
11223.1
11228.1
11233.1
11238.2
11243.3
11248.4
11253.5
11258.6
11263.8
11268.9
11274.1
11279.3
11284.6
11289.8
11295.1
11300.4
11305.7
11311
11316.4
11321.8
11327.2
11332.6
11338
11343.5
11348.9
11354.4
11360
11365.5
11371
11376.6
11382.2
11387.8
11393.5
11399.1
11404.8
11410.5
11416.2
11422
11427.7
11433.5
11439.3
11445.1
11451
11456.8
11462.7
11468.6
11474.5
11480.5
11486.4
11492.4
11498.4
11504.5
11510.5
11516.6
11522.7
11528.8
11534.9
11541
11547.2
11553.4
11559.6
11565.9
11572.1
11578.4
11584.7
11591
11597.3
11603.7
11610.1
11616.5
11622.9
11629.3
11635.8
11642.3
11648.8
11655.3
11661.8
11668.4
11675
11681.6
11688.2
11694.8
11701.5
11708.2
11714.9
11721.6
11728.4
11735.1
11741.9
11748.7
11755.6
11762.4
11769.3
11776.2
11783.1
11790
11797
11803.9
11810.9
11817.9
11825
11832
11839.1
11846.2
11853.3
11860.4
11867.5
11874.7
11881.9
11889.1
11896.3
11903.6
11910.8
11918.1
11925.4
11932.8
11940.1
11947.5
11954.8
11962.2
11969.6
11977.1
11984.5
11992
11999.5
12007
12014.5
12022.1
12029.6
12037.2
12044.8
12052.4
12060.1
12067.7
12075.4
12083.1
12090.8
12098.5
12106.2
12114
12121.8
12129.6
12137.4
12145.2
12153
12160.9
12168.7
12176.6
12184.5
12192.4
12200.4
12208.3
12216.3
12224.2
12232.2
12240.2
12248.2
12256.3
12264.3
12272.4
12280.4
12288.5
12296.6
12304.7
12312.9
12321
12329.1
12337.3
12345.5
12353.7
12361.9
12370.1
12378.3
12386.5
12394.7
12403
12411.2
12419.5
12427.8
12436.1
12444.4
12452.7
12461
12469.3
12477.6
12485.9
12494.3
12502.6
12511
12519.4
12527.7
12536.1
12544.5
12552.8
12561.2
12569.6
12578
12586.4
12594.8
12603.2
12611.6
12620.1
12628.5
12636.9
12645.3
12653.7
12662.1
12670.6
12679
12687.4
12695.8
12704.2
12712.6
12721
12729.5
12737.9
12746.3
12754.7
12763.1
12771.5
12779.9
12788.2
12796.6
12805
12813.3
12821.7
12830.1
12838.4
12846.7
12855.1
12863.4
12871.7
12880
12888.3
12896.6
12904.8
12913.1
12921.3
12929.6
12937.8
12946
12954.2
12962.4
12970.5
12978.7
12986.8
12994.9
13003
13011.1
13019.2
13027.2
13035.3
13043.3
13051.3
13059.3
13067.2
13075.1
13083.1
13091
13098.8
13106.7
13114.5
13122.3
13130.1
13137.8
13145.6
13153.3
13161
13168.6
13176.2
13183.9
13191.4
13199
13206.5
13214
13221.5
13228.9
13236.3
13243.7
13251
13258.4
13265.7
13272.9
13280.1
13287.3
13294.5
13301.6
13308.7
13315.8
13322.8
13329.8
13336.8
13343.7
13350.6
13357.4
13364.3
13371.1
13377.8
13384.5
13391.2
13397.8
13404.5
13411
13417.6
13424
13430.5
13436.9
13443.3
13449.6
13455.9
13462.2
13468.4
13474.6
13480.8
13486.9
13492.9
13498.9
13504.9
13510.9
13516.8
13522.6
13528.5
13534.2
13540
13545.7
13551.4
13557
13562.5
13568.1
13573.6
13579
13584.4
13589.8
13595.1
13600.4
13605.7
13610.9
13616.1
13621.2
13626.3
13631.3
13636.3
13641.3
13646.2
13651
13655.9
13660.7
13665.4
13670.1
13674.8
13679.4
13684
13688.6
13693.1
13697.5
13702
13706.4
13710.7
13715
13719.3
13723.5
13727.7
13731.8
13735.9
13740
13744
13748
13752
13755.9
13759.8
13763.6
13767.4
13771.2
13774.9
13778.6
13782.2
13785.9
13789.4
13793
13796.5
13799.9
13803.4
13806.8
13810.1
13813.5
13816.7
13820
13823.2
13826.4
13829.6
13832.7
13835.8
13838.8
13841.8
13844.8
13847.8
13850.7
13853.6
13856.4
13859.2
13862
13864.8
13867.5
13870.2
13872.9
13875.5
13878.1
13880.7
13883.2
13885.8
13888.2
13890.7
13893.1
13895.5
13897.9
13900.2
13902.6
13904.9
13907.1
13909.4
13911.6
13913.7
13915.9
13918
13920.1
13922.2
13924.3
13926.3
13928.3
13930.3
13932.2
13934.2
13936.1
13938
13939.8
13941.7
13943.5
13945.3
13947
13948.8
13950.5
13952.2
13953.9
13955.5
13957.2
13958.8
13960.4
13962
13963.5
13965.1
13966.6
13968.1
13969.6
13971
13972.5
13973.9
13975.3
13976.7
13978.1
13979.4
13980.7
13982
13983.3
13984.6
13985.9
13987.1
13988.4
13989.6
13990.8
13992
13993.1
13994.3
13995.4
13996.5
13997.6
13998.7
13999.8
14000.9
14001.9
14002.9
14004
14005
14006
14006.9
14007.9
14008.9
14009.8
14010.7
14011.6
14012.5
14013.4
14014.3
14015.2
14016
14016.9
14017.7
14018.5
14019.3
14020.1
14020.9
14021.7
14022.5
14023.2
14024
14024.7
14025.4
14026.2
14026.9
14027.6
14028.2
14028.9
14029.6
14030.3
14030.9
14031.6
14032.2
14032.8
14033.4
14034
14034.6
14035.2
14035.8
14036.4
14037
14037.5
14038.1
14038.7
14039.2
14039.7
14040.3
14040.8
14041.3
14041.8
14042.3
14042.8
14043.3
14043.8
14044.3
14044.8
14045.2
14045.7
14046.1
14046.6
14047.1
14047.5
14047.9
14048.4
14048.8
14049.2
14049.6
14050.1
14050.5
14050.9
14051.3
14051.7
14052.1
14052.5
14052.8
14053.2
14053.6
14054
14054.4
14054.7
14055.1
14055.4
14055.8
14056.2
14056.5
14056.9
14057.2
14057.6
14057.9
14058.2
14058.6
14058.9
14059.3
14059.6
14059.9
14060.2
14060.6
14060.9
14061.2
14061.5
14061.9
14062.2
14062.5
14062.8
14063.1
14063.4
14063.7
14064.1
14064.4
14064.7
14065
14065.3
14065.6
14065.9
14066.2
14066.5
14066.8
14067.1
14067.4
14067.7
14068
14068.3
14068.6
14068.9
14069.2
14069.5
14069.8
14070.1
14070.4
14070.8
14071.1
14071.4
14071.7
14072
14072.3
14072.6
)
;

boundaryField
{
    sides
    {
        type            zeroGradient;
    }
    empty
    {
        type            empty;
    }
}


// ************************************************************************* //
