/*--------------------------------*- C++ -*----------------------------------*\
  =========                 |
  \\      /  F ield         | OpenFOAM: The Open Source CFD Toolbox
   \\    /   O peration     | Website:  https://openfoam.org
    \\  /    A nd           | Version:  13
     \\/     M anipulation  |
\*---------------------------------------------------------------------------*/
FoamFile
{
    format      ascii;
    class       volVectorField;
    location    "0.05";
    object      U;
}
// * * * * * * * * * * * * * * * * * * * * * * * * * * * * * * * * * * * * * //

dimensions      [0 1 -1 0 0 0 0];

internalField   nonuniform List<vector> 
1000
(
(29.7113 0 0)
(29.7893 0 0)
(29.922 0 0)
(30.0713 0 0)
(30.2248 0 0)
(30.3793 0 0)
(30.534 0 0)
(30.6887 0 0)
(30.8433 0 0)
(30.9979 0 0)
(31.1525 0 0)
(31.307 0 0)
(31.4615 0 0)
(31.616 0 0)
(31.7704 0 0)
(31.9248 0 0)
(32.0792 0 0)
(32.2335 0 0)
(32.3878 0 0)
(32.542 0 0)
(32.6962 0 0)
(32.8503 0 0)
(33.0044 0 0)
(33.1585 0 0)
(33.3125 0 0)
(33.4665 0 0)
(33.6205 0 0)
(33.7744 0 0)
(33.9282 0 0)
(34.082 0 0)
(34.2358 0 0)
(34.3895 0 0)
(34.5432 0 0)
(34.6968 0 0)
(34.8504 0 0)
(35.004 0 0)
(35.1575 0 0)
(35.3109 0 0)
(35.4643 0 0)
(35.6177 0 0)
(35.771 0 0)
(35.9242 0 0)
(36.0775 0 0)
(36.2306 0 0)
(36.3838 0 0)
(36.5368 0 0)
(36.6899 0 0)
(36.8428 0 0)
(36.9958 0 0)
(37.1487 0 0)
(37.3015 0 0)
(37.4543 0 0)
(37.607 0 0)
(37.7597 0 0)
(37.9124 0 0)
(38.065 0 0)
(38.2176 0 0)
(38.3701 0 0)
(38.5225 0 0)
(38.675 0 0)
(38.8273 0 0)
(38.9797 0 0)
(39.132 0 0)
(39.2842 0 0)
(39.4364 0 0)
(39.5886 0 0)
(39.7407 0 0)
(39.8927 0 0)
(40.0448 0 0)
(40.1968 0 0)
(40.3487 0 0)
(40.5006 0 0)
(40.6525 0 0)
(40.8044 0 0)
(40.9562 0 0)
(41.108 0 0)
(41.2597 0 0)
(41.4114 0 0)
(41.5631 0 0)
(41.7148 0 0)
(41.8664 0 0)
(42.018 0 0)
(42.1696 0 0)
(42.3212 0 0)
(42.4728 0 0)
(42.6243 0 0)
(42.7759 0 0)
(42.9274 0 0)
(43.0789 0 0)
(43.2305 0 0)
(43.382 0 0)
(43.5335 0 0)
(43.6851 0 0)
(43.8367 0 0)
(43.9883 0 0)
(44.1399 0 0)
(44.2916 0 0)
(44.4432 0 0)
(44.5949 0 0)
(44.7466 0 0)
(44.8981 0 0)
(45.0496 0 0)
(45.2011 0 0)
(45.3524 0 0)
(45.5035 0 0)
(45.6546 0 0)
(45.8055 0 0)
(45.9562 0 0)
(46.1067 0 0)
(46.257 0 0)
(46.4072 0 0)
(46.5572 0 0)
(46.7069 0 0)
(46.8564 0 0)
(47.0058 0 0)
(47.1549 0 0)
(47.3038 0 0)
(47.4525 0 0)
(47.601 0 0)
(47.7492 0 0)
(47.8973 0 0)
(48.0451 0 0)
(48.1928 0 0)
(48.3402 0 0)
(48.4874 0 0)
(48.6344 0 0)
(48.7812 0 0)
(48.9277 0 0)
(49.0741 0 0)
(49.2203 0 0)
(49.3663 0 0)
(49.5121 0 0)
(49.6577 0 0)
(49.8031 0 0)
(49.9483 0 0)
(50.0933 0 0)
(50.2382 0 0)
(50.3828 0 0)
(50.5273 0 0)
(50.6716 0 0)
(50.8157 0 0)
(50.9596 0 0)
(51.1033 0 0)
(51.2469 0 0)
(51.3902 0 0)
(51.5334 0 0)
(51.6765 0 0)
(51.8193 0 0)
(51.962 0 0)
(52.1045 0 0)
(52.2468 0 0)
(52.3889 0 0)
(52.5309 0 0)
(52.6727 0 0)
(52.8143 0 0)
(52.9558 0 0)
(53.0971 0 0)
(53.2382 0 0)
(53.3791 0 0)
(53.5199 0 0)
(53.6605 0 0)
(53.8009 0 0)
(53.9412 0 0)
(54.0813 0 0)
(54.2212 0 0)
(54.3609 0 0)
(54.5005 0 0)
(54.6399 0 0)
(54.7792 0 0)
(54.9182 0 0)
(55.0571 0 0)
(55.1958 0 0)
(55.3344 0 0)
(55.4728 0 0)
(55.611 0 0)
(55.749 0 0)
(55.8869 0 0)
(56.0246 0 0)
(56.1621 0 0)
(56.2994 0 0)
(56.4366 0 0)
(56.5736 0 0)
(56.7105 0 0)
(56.8471 0 0)
(56.9836 0 0)
(57.1199 0 0)
(57.2561 0 0)
(57.3921 0 0)
(57.5279 0 0)
(57.6635 0 0)
(57.799 0 0)
(57.9342 0 0)
(58.0693 0 0)
(58.2043 0 0)
(58.339 0 0)
(58.4736 0 0)
(58.608 0 0)
(58.7423 0 0)
(58.8763 0 0)
(59.0102 0 0)
(59.1439 0 0)
(59.2775 0 0)
(59.4108 0 0)
(59.544 0 0)
(59.677 0 0)
(59.8098 0 0)
(59.9425 0 0)
(60.075 0 0)
(60.2073 0 0)
(60.3394 0 0)
(60.4714 0 0)
(60.6031 0 0)
(60.7347 0 0)
(60.8661 0 0)
(60.9974 0 0)
(61.1284 0 0)
(61.2593 0 0)
(61.39 0 0)
(61.5206 0 0)
(61.6509 0 0)
(61.7811 0 0)
(61.9111 0 0)
(62.0409 0 0)
(62.1705 0 0)
(62.3 0 0)
(62.4292 0 0)
(62.5583 0 0)
(62.6872 0 0)
(62.816 0 0)
(62.9445 0 0)
(63.0729 0 0)
(63.2011 0 0)
(63.3291 0 0)
(63.4569 0 0)
(63.5846 0 0)
(63.712 0 0)
(63.8393 0 0)
(63.9664 0 0)
(64.0933 0 0)
(64.2201 0 0)
(64.3466 0 0)
(64.473 0 0)
(64.5992 0 0)
(64.7252 0 0)
(64.851 0 0)
(64.9766 0 0)
(65.1021 0 0)
(65.2274 0 0)
(65.3525 0 0)
(65.4774 0 0)
(65.6021 0 0)
(65.7266 0 0)
(65.851 0 0)
(65.9752 0 0)
(66.0991 0 0)
(66.2229 0 0)
(66.3466 0 0)
(66.47 0 0)
(66.5932 0 0)
(66.7163 0 0)
(66.8392 0 0)
(66.9619 0 0)
(67.0844 0 0)
(67.2067 0 0)
(67.3288 0 0)
(67.4508 0 0)
(67.5725 0 0)
(67.6941 0 0)
(67.8155 0 0)
(67.9367 0 0)
(68.0577 0 0)
(68.1786 0 0)
(68.2992 0 0)
(68.4197 0 0)
(68.5399 0 0)
(68.66 0 0)
(68.7799 0 0)
(68.8996 0 0)
(69.0191 0 0)
(69.1385 0 0)
(69.2576 0 0)
(69.3766 0 0)
(69.4953 0 0)
(69.6139 0 0)
(69.7323 0 0)
(69.8505 0 0)
(69.9685 0 0)
(70.0864 0 0)
(70.204 0 0)
(70.3215 0 0)
(70.4387 0 0)
(70.5558 0 0)
(70.6727 0 0)
(70.7894 0 0)
(70.9059 0 0)
(71.0222 0 0)
(71.1383 0 0)
(71.2543 0 0)
(71.37 0 0)
(71.4856 0 0)
(71.6009 0 0)
(71.7161 0 0)
(71.8311 0 0)
(71.9459 0 0)
(72.0605 0 0)
(72.1749 0 0)
(72.2892 0 0)
(72.4032 0 0)
(72.5171 0 0)
(72.6307 0 0)
(72.7442 0 0)
(72.8574 0 0)
(72.9705 0 0)
(73.0834 0 0)
(73.1961 0 0)
(73.3086 0 0)
(73.421 0 0)
(73.5331 0 0)
(73.645 0 0)
(73.7568 0 0)
(73.8683 0 0)
(73.9797 0 0)
(74.0908 0 0)
(74.2018 0 0)
(74.3126 0 0)
(74.4232 0 0)
(74.5336 0 0)
(74.6438 0 0)
(74.7538 0 0)
(74.8636 0 0)
(74.9732 0 0)
(75.0827 0 0)
(75.1919 0 0)
(75.301 0 0)
(75.4098 0 0)
(75.5185 0 0)
(75.6269 0 0)
(75.7352 0 0)
(75.8433 0 0)
(75.9512 0 0)
(76.0589 0 0)
(76.1664 0 0)
(76.2737 0 0)
(76.3808 0 0)
(76.4877 0 0)
(76.5944 0 0)
(76.7009 0 0)
(76.8073 0 0)
(76.9134 0 0)
(77.0193 0 0)
(77.1251 0 0)
(77.2306 0 0)
(77.336 0 0)
(77.4411 0 0)
(77.5461 0 0)
(77.6509 0 0)
(77.7554 0 0)
(77.8598 0 0)
(77.964 0 0)
(78.068 0 0)
(78.1718 0 0)
(78.2754 0 0)
(78.3788 0 0)
(78.482 0 0)
(78.585 0 0)
(78.6878 0 0)
(78.7904 0 0)
(78.8928 0 0)
(78.995 0 0)
(79.097 0 0)
(79.1988 0 0)
(79.3004 0 0)
(79.4019 0 0)
(79.5031 0 0)
(79.6041 0 0)
(79.7049 0 0)
(79.8056 0 0)
(79.906 0 0)
(80.0062 0 0)
(80.1063 0 0)
(80.2061 0 0)
(80.3058 0 0)
(80.4052 0 0)
(80.5044 0 0)
(80.6035 0 0)
(80.7023 0 0)
(80.801 0 0)
(80.8994 0 0)
(80.9977 0 0)
(81.0957 0 0)
(81.1936 0 0)
(81.2912 0 0)
(81.3887 0 0)
(81.4859 0 0)
(81.583 0 0)
(81.6798 0 0)
(81.7765 0 0)
(81.8729 0 0)
(81.9692 0 0)
(82.0652 0 0)
(82.1611 0 0)
(82.2567 0 0)
(82.3522 0 0)
(82.4474 0 0)
(82.5425 0 0)
(82.6373 0 0)
(82.732 0 0)
(82.8264 0 0)
(82.9207 0 0)
(83.0147 0 0)
(83.1086 0 0)
(83.2022 0 0)
(83.2956 0 0)
(83.3889 0 0)
(83.4819 0 0)
(83.5748 0 0)
(83.6674 0 0)
(83.7599 0 0)
(83.8521 0 0)
(83.9442 0 0)
(84.036 0 0)
(84.1276 0 0)
(84.2191 0 0)
(84.3103 0 0)
(84.4014 0 0)
(84.4922 0 0)
(84.5829 0 0)
(84.6733 0 0)
(84.7635 0 0)
(84.8536 0 0)
(84.9434 0 0)
(85.0331 0 0)
(85.1225 0 0)
(85.2118 0 0)
(85.3008 0 0)
(85.3897 0 0)
(85.4783 0 0)
(85.5668 0 0)
(85.655 0 0)
(85.7431 0 0)
(85.831 0 0)
(85.9186 0 0)
(86.0061 0 0)
(86.0934 0 0)
(86.1804 0 0)
(86.2673 0 0)
(86.354 0 0)
(86.4405 0 0)
(86.5268 0 0)
(86.6129 0 0)
(86.6988 0 0)
(86.7845 0 0)
(86.87 0 0)
(86.9553 0 0)
(87.0404 0 0)
(87.1253 0 0)
(87.2101 0 0)
(87.2946 0 0)
(87.379 0 0)
(87.4632 0 0)
(87.5471 0 0)
(87.6309 0 0)
(87.7145 0 0)
(87.7979 0 0)
(87.8812 0 0)
(87.9642 0 0)
(88.047 0 0)
(88.1297 0 0)
(88.2122 0 0)
(88.2945 0 0)
(88.3766 0 0)
(88.4585 0 0)
(88.5402 0 0)
(88.6218 0 0)
(88.7032 0 0)
(88.7844 0 0)
(88.8654 0 0)
(88.9463 0 0)
(89.0269 0 0)
(89.1074 0 0)
(89.1877 0 0)
(89.2679 0 0)
(89.3478 0 0)
(89.4276 0 0)
(89.5072 0 0)
(89.5867 0 0)
(89.666 0 0)
(89.7451 0 0)
(89.824 0 0)
(89.9028 0 0)
(89.9814 0 0)
(90.0599 0 0)
(90.1382 0 0)
(90.2163 0 0)
(90.2943 0 0)
(90.3721 0 0)
(90.4497 0 0)
(90.5272 0 0)
(90.6046 0 0)
(90.6818 0 0)
(90.7588 0 0)
(90.8357 0 0)
(90.9124 0 0)
(90.989 0 0)
(91.0655 0 0)
(91.1418 0 0)
(91.218 0 0)
(91.294 0 0)
(91.3699 0 0)
(91.4456 0 0)
(91.5212 0 0)
(91.5967 0 0)
(91.6721 0 0)
(91.7473 0 0)
(91.8224 0 0)
(91.8974 0 0)
(91.9722 0 0)
(92.047 0 0)
(92.1216 0 0)
(92.1961 0 0)
(92.2705 0 0)
(92.3448 0 0)
(92.4189 0 0)
(92.493 0 0)
(92.5669 0 0)
(92.6408 0 0)
(92.7145 0 0)
(92.7882 0 0)
(92.8617 0 0)
(92.9352 0 0)
(93.0086 0 0)
(93.0819 0 0)
(93.1551 0 0)
(93.2282 0 0)
(93.3013 0 0)
(93.3742 0 0)
(93.4471 0 0)
(93.52 0 0)
(93.5927 0 0)
(93.6654 0 0)
(93.7381 0 0)
(93.8106 0 0)
(93.8832 0 0)
(93.9556 0 0)
(94.0281 0 0)
(94.1004 0 0)
(94.1728 0 0)
(94.2451 0 0)
(94.3174 0 0)
(94.3896 0 0)
(94.4618 0 0)
(94.534 0 0)
(94.6061 0 0)
(94.6783 0 0)
(94.7504 0 0)
(94.8225 0 0)
(94.8947 0 0)
(94.9668 0 0)
(95.0389 0 0)
(95.111 0 0)
(95.1832 0 0)
(95.2553 0 0)
(95.3275 0 0)
(95.3997 0 0)
(95.4719 0 0)
(95.5441 0 0)
(95.6164 0 0)
(95.6887 0 0)
(95.7611 0 0)
(95.8335 0 0)
(95.906 0 0)
(95.9785 0 0)
(96.0511 0 0)
(96.1237 0 0)
(96.1965 0 0)
(96.2693 0 0)
(96.3421 0 0)
(96.4151 0 0)
(96.4882 0 0)
(96.5613 0 0)
(96.6345 0 0)
(96.7079 0 0)
(96.7814 0 0)
(96.8549 0 0)
(96.9286 0 0)
(97.0025 0 0)
(97.0764 0 0)
(97.1505 0 0)
(97.2247 0 0)
(97.2991 0 0)
(97.3736 0 0)
(97.4483 0 0)
(97.5232 0 0)
(97.5982 0 0)
(97.6734 0 0)
(97.7487 0 0)
(97.8243 0 0)
(97.9 0 0)
(97.976 0 0)
(98.0521 0 0)
(98.1285 0 0)
(98.205 0 0)
(98.2818 0 0)
(98.3588 0 0)
(98.436 0 0)
(98.5135 0 0)
(98.5912 0 0)
(98.6692 0 0)
(98.7474 0 0)
(98.8258 0 0)
(98.9046 0 0)
(98.9836 0 0)
(99.0629 0 0)
(99.1424 0 0)
(99.2223 0 0)
(99.3024 0 0)
(99.3829 0 0)
(99.4636 0 0)
(99.5447 0 0)
(99.6261 0 0)
(99.7078 0 0)
(99.7899 0 0)
(99.8723 0 0)
(99.955 0 0)
(100.038 0 0)
(100.122 0 0)
(100.205 0 0)
(100.289 0 0)
(100.374 0 0)
(100.459 0 0)
(100.544 0 0)
(100.63 0 0)
(100.716 0 0)
(100.803 0 0)
(100.889 0 0)
(100.977 0 0)
(101.065 0 0)
(101.153 0 0)
(101.241 0 0)
(101.33 0 0)
(101.42 0 0)
(101.51 0 0)
(101.6 0 0)
(101.691 0 0)
(101.782 0 0)
(101.874 0 0)
(101.967 0 0)
(102.059 0 0)
(102.153 0 0)
(102.246 0 0)
(102.341 0 0)
(102.435 0 0)
(102.531 0 0)
(102.626 0 0)
(102.723 0 0)
(102.82 0 0)
(102.917 0 0)
(103.015 0 0)
(103.113 0 0)
(103.212 0 0)
(103.312 0 0)
(103.412 0 0)
(103.513 0 0)
(103.614 0 0)
(103.716 0 0)
(103.818 0 0)
(103.921 0 0)
(104.025 0 0)
(104.129 0 0)
(104.234 0 0)
(104.339 0 0)
(104.445 0 0)
(104.552 0 0)
(104.659 0 0)
(104.766 0 0)
(104.875 0 0)
(104.984 0 0)
(105.093 0 0)
(105.204 0 0)
(105.315 0 0)
(105.426 0 0)
(105.538 0 0)
(105.651 0 0)
(105.764 0 0)
(105.878 0 0)
(105.993 0 0)
(106.109 0 0)
(106.225 0 0)
(106.341 0 0)
(106.459 0 0)
(106.576 0 0)
(106.695 0 0)
(106.814 0 0)
(106.934 0 0)
(107.055 0 0)
(107.176 0 0)
(107.298 0 0)
(107.421 0 0)
(107.544 0 0)
(107.668 0 0)
(107.793 0 0)
(107.918 0 0)
(108.044 0 0)
(108.171 0 0)
(108.298 0 0)
(108.426 0 0)
(108.555 0 0)
(108.684 0 0)
(108.814 0 0)
(108.945 0 0)
(109.076 0 0)
(109.208 0 0)
(109.341 0 0)
(109.475 0 0)
(109.609 0 0)
(109.744 0 0)
(109.879 0 0)
(110.015 0 0)
(110.152 0 0)
(110.29 0 0)
(110.428 0 0)
(110.567 0 0)
(110.706 0 0)
(110.846 0 0)
(110.987 0 0)
(111.129 0 0)
(111.271 0 0)
(111.414 0 0)
(111.557 0 0)
(111.701 0 0)
(111.846 0 0)
(111.992 0 0)
(112.138 0 0)
(112.285 0 0)
(112.432 0 0)
(112.58 0 0)
(112.729 0 0)
(112.879 0 0)
(113.029 0 0)
(113.179 0 0)
(113.331 0 0)
(113.483 0 0)
(113.635 0 0)
(113.789 0 0)
(113.942 0 0)
(114.097 0 0)
(114.252 0 0)
(114.408 0 0)
(114.564 0 0)
(114.721 0 0)
(114.879 0 0)
(115.037 0 0)
(115.196 0 0)
(115.355 0 0)
(115.515 0 0)
(115.676 0 0)
(115.837 0 0)
(115.999 0 0)
(116.161 0 0)
(116.324 0 0)
(116.488 0 0)
(116.652 0 0)
(116.817 0 0)
(116.982 0 0)
(117.148 0 0)
(117.314 0 0)
(117.481 0 0)
(117.649 0 0)
(117.817 0 0)
(117.985 0 0)
(118.155 0 0)
(118.324 0 0)
(118.495 0 0)
(118.665 0 0)
(118.837 0 0)
(119.008 0 0)
(119.181 0 0)
(119.354 0 0)
(119.527 0 0)
(119.701 0 0)
(119.876 0 0)
(120.05 0 0)
(120.226 0 0)
(120.402 0 0)
(120.578 0 0)
(120.755 0 0)
(120.933 0 0)
(121.111 0 0)
(121.289 0 0)
(121.468 0 0)
(121.647 0 0)
(121.827 0 0)
(122.007 0 0)
(122.188 0 0)
(122.369 0 0)
(122.551 0 0)
(122.733 0 0)
(122.915 0 0)
(123.098 0 0)
(123.282 0 0)
(123.465 0 0)
(123.65 0 0)
(123.834 0 0)
(124.019 0 0)
(124.205 0 0)
(124.391 0 0)
(124.577 0 0)
(124.764 0 0)
(124.951 0 0)
(125.139 0 0)
(125.327 0 0)
(125.515 0 0)
(125.704 0 0)
(125.893 0 0)
(126.082 0 0)
(126.272 0 0)
(126.463 0 0)
(126.653 0 0)
(126.844 0 0)
(127.036 0 0)
(127.227 0 0)
(127.42 0 0)
(127.612 0 0)
(127.805 0 0)
(127.998 0 0)
(128.191 0 0)
(128.385 0 0)
(128.579 0 0)
(128.774 0 0)
(128.969 0 0)
(129.164 0 0)
(129.36 0 0)
(129.555 0 0)
(129.751 0 0)
(129.948 0 0)
(130.145 0 0)
(130.342 0 0)
(130.539 0 0)
(130.737 0 0)
(130.935 0 0)
(131.133 0 0)
(131.332 0 0)
(131.531 0 0)
(131.73 0 0)
(131.929 0 0)
(132.129 0 0)
(132.329 0 0)
(132.529 0 0)
(132.73 0 0)
(132.931 0 0)
(133.132 0 0)
(133.333 0 0)
(133.535 0 0)
(133.737 0 0)
(133.939 0 0)
(134.141 0 0)
(134.344 0 0)
(134.547 0 0)
(134.75 0 0)
(134.953 0 0)
(135.157 0 0)
(135.361 0 0)
(135.565 0 0)
(135.769 0 0)
(135.974 0 0)
(136.178 0 0)
(136.383 0 0)
(136.589 0 0)
(136.794 0 0)
(137 0 0)
(137.206 0 0)
(137.412 0 0)
(137.618 0 0)
(137.824 0 0)
(138.031 0 0)
(138.238 0 0)
(138.445 0 0)
(138.652 0 0)
(138.86 0 0)
(139.068 0 0)
(139.276 0 0)
(139.484 0 0)
(139.692 0 0)
(139.9 0 0)
(140.109 0 0)
(140.318 0 0)
(140.527 0 0)
(140.736 0 0)
(140.945 0 0)
(141.155 0 0)
(141.364 0 0)
(141.574 0 0)
(141.784 0 0)
(141.994 0 0)
(142.205 0 0)
(142.415 0 0)
(142.626 0 0)
(142.837 0 0)
(143.048 0 0)
(143.259 0 0)
(143.47 0 0)
(143.681 0 0)
(143.893 0 0)
(144.105 0 0)
(144.317 0 0)
(144.528 0 0)
(144.741 0 0)
(144.953 0 0)
(145.165 0 0)
(145.378 0 0)
(145.59 0 0)
(145.803 0 0)
(146.016 0 0)
(146.229 0 0)
(146.442 0 0)
(146.655 0 0)
(146.869 0 0)
(147.082 0 0)
(147.296 0 0)
(147.51 0 0)
(147.723 0 0)
(147.937 0 0)
(148.151 0 0)
(148.366 0 0)
(148.58 0 0)
(148.794 0 0)
(149.009 0 0)
(149.223 0 0)
(149.438 0 0)
(149.653 0 0)
(149.868 0 0)
(150.083 0 0)
(150.298 0 0)
(150.513 0 0)
(150.728 0 0)
(150.944 0 0)
(151.159 0 0)
(151.374 0 0)
(151.59 0 0)
(151.806 0 0)
(152.021 0 0)
(152.237 0 0)
(152.453 0 0)
(152.669 0 0)
(152.885 0 0)
(153.101 0 0)
(153.318 0 0)
(153.534 0 0)
(153.75 0 0)
(153.967 0 0)
(154.183 0 0)
(154.4 0 0)
(154.616 0 0)
(154.833 0 0)
(155.05 0 0)
(155.267 0 0)
(155.484 0 0)
(155.7 0 0)
(155.917 0 0)
(156.135 0 0)
(156.352 0 0)
(156.569 0 0)
(156.786 0 0)
(157.003 0 0)
(157.221 0 0)
(157.438 0 0)
(157.655 0 0)
(157.873 0 0)
(158.09 0 0)
(158.308 0 0)
(158.525 0 0)
(158.743 0 0)
(158.961 0 0)
(159.178 0 0)
(159.396 0 0)
(159.614 0 0)
(159.832 0 0)
(160.049 0 0)
(160.267 0 0)
(160.485 0 0)
(160.703 0 0)
(160.921 0 0)
(161.139 0 0)
(161.357 0 0)
(161.575 0 0)
(161.793 0 0)
(162.011 0 0)
(162.23 0 0)
(162.448 0 0)
(162.666 0 0)
(162.884 0 0)
(163.102 0 0)
(163.321 0 0)
(163.539 0 0)
(163.757 0 0)
(163.975 0 0)
(164.194 0 0)
(164.412 0 0)
(164.63 0 0)
(164.853 0 0)
)
;

boundaryField
{
    sides
    {
        type            zeroGradient;
    }
    empty
    {
        type            empty;
    }
}


// ************************************************************************* //
