/*--------------------------------*- C++ -*----------------------------------*\
  =========                 |
  \\      /  F ield         | OpenFOAM: The Open Source CFD Toolbox
   \\    /   O peration     | Website:  https://openfoam.org
    \\  /    A nd           | Version:  13
     \\/     M anipulation  |
\*---------------------------------------------------------------------------*/
FoamFile
{
    format      ascii;
    class       volVectorField;
    location    "48.096756";
    object      U;
}
// * * * * * * * * * * * * * * * * * * * * * * * * * * * * * * * * * * * * * //

dimensions      [0 1 -1 0 0 0 0];

internalField   nonuniform List<vector> 
17140
(
(-1.2097141e-07 3.9539639e-06 3.618863e-23)
(-1.959997e-06 7.8343801e-06 4.0049544e-24)
(-6.1023689e-06 9.7416596e-06 -2.6424267e-22)
(-1.3514149e-05 1.2758523e-05 2.9025891e-22)
(-2.5129678e-05 2.0417199e-05 -3.389849e-23)
(-4.2211241e-05 3.6671437e-05 1.1081733e-22)
(-6.6337428e-05 6.5881763e-05 1.862923e-22)
(-9.944564e-05 0.00011276714 -9.0760402e-23)
(-0.00014391768 0.00018232818 -2.9643912e-22)
(-0.00020266637 0.00027972923 -7.2510296e-22)
(-0.00027924152 0.00041013196 1.0714943e-21)
(-0.00037794723 0.00057847007 -9.5090283e-22)
(-0.00050397787 0.00078915544 -1.4482868e-22)
(-0.00066356845 0.0010457072 8.1383454e-22)
(-0.00086415995 0.0013502981 -8.9670798e-23)
(-0.0011145749 0.0017032174 7.0413518e-22)
(-0.0014251976 0.002102256 -2.5856975e-23)
(-0.0018081497 0.0025420361 5.808847e-24)
(-0.0022774458 0.003013321 4.0067953e-22)
(-0.0028491096 0.0035023687 -5.1016209e-22)
(-0.003541223 0.0039904198 2.4082354e-22)
(-0.0043738697 0.0044534456 -4.4852575e-23)
(-0.0053689286 0.0048623182 -3.2122322e-22)
(-0.0065496565 0.00518359 3.1162669e-22)
(-0.0079399927 0.0053810832 4.7969296e-22)
(-0.00956351 0.005418472 -3.7238933e-22)
(-0.01144194 0.0052629743 -1.7686509e-21)
(-0.01359322 0.0048901298 -2.0128253e-22)
(-0.016028974 0.0042893591 1.7001383e-21)
(-0.018752412 0.003469454 3.8333737e-22)
(-0.021756564 0.0024615599 1.3124586e-21)
(-0.025023488 0.0013167967 -1.649628e-21)
(-0.028527026 9.5368704e-05 4.1016827e-22)
(-0.032238331 -0.0011500766 1.8572718e-22)
(-0.03613147 -0.0023873518 1.7159773e-21)
(-0.04018575 -0.0036071944 -7.0942544e-22)
(-0.044386667 -0.0048185539 1.0202693e-21)
(-0.048724825 -0.0060417543 6.6185773e-22)
(-0.053194435 -0.0073063695 2.9236262e-22)
(-0.057794442 -0.0086526114 -8.6392289e-22)
(-0.062530769 -0.010135708 -1.6071309e-21)
(-0.067419075 -0.011832698 -1.4480537e-21)
(-0.072490836 -0.013851263 -6.3160154e-22)
(-0.077800351 -0.016339593 3.0909401e-21)
(-0.083424678 -0.019496305 2.2762568e-21)
(-0.089470653 -0.023583776 -5.625328e-22)
(-0.096076582 -0.028954011 3.8775712e-21)
(-0.10340327 -0.036066725 1.3278306e-21)
(-0.11162051 -0.045529708 -1.3626751e-21)
(-0.12086602 -0.0581404 -3.3600763e-21)
(-0.13118707 -0.074960547 2.072688e-21)
(-0.1424689 -0.097317281 1.3103155e-21)
(-0.15440734 -0.12667284 -3.4086367e-21)
(-0.16620635 -0.16379624 -1.6088407e-21)
(-0.17625451 -0.20796018 -1.1383716e-21)
(-0.18286723 -0.2538323 8.9171043e-22)
(-0.18526723 -0.29031729 -2.4295792e-21)
(-0.18136537 -0.30346743 -2.0923221e-21)
(-0.17295113 -0.25366064 -5.7065722e-22)
(-0.14556631 -0.069966154 1.5767596e-21)
(0.013509684 0.24901375 1.0369229e-21)
(0.18480466 0.49400048 2.1638325e-21)
(0.28590385 0.56820147 1.9635707e-22)
(0.28909704 0.52328385 -1.5016078e-21)
(0.33097183 0.28371381 1.6992751e-21)
(-1.5875173e-06 3.6882102e-05 -1.0345118e-23)
(-6.4028829e-06 0.00010978427 1.392536e-21)
(-1.3819889e-05 0.00018790036 -1.2384217e-21)
(-2.4933151e-05 0.00027497886 3.3732715e-22)
(-4.0822795e-05 0.00037526464 6.962007e-22)
(-6.2916293e-05 0.00049345697 -1.3287143e-21)
(-9.2974242e-05 0.00063469083 1.3829519e-21)
(-0.00013313274 0.00080447946 -1.2148487e-22)
(-0.00018598659 0.0010086244 3.7842006e-22)
(-0.00025467273 0.0012530801 6.4047345e-24)
(-0.00034297138 0.0015437646 1.2554968e-21)
(-0.00045541659 0.0018863051 -1.9862615e-21)
(-0.00059742318 0.0022857071 -1.6316447e-22)
(-0.00077542556 0.002745938 1.6000856e-21)
(-0.00099702851 0.0032694177 -4.8736288e-22)
(-0.0012711655 0.0038564135 -3.0654111e-22)
(-0.0016082588 0.0045043469 1.9208339e-21)
(-0.0020203724 0.0052070301 -6.1654293e-21)
(-0.0025213442 0.0059538718 3.7935255e-21)
(-0.0031268786 0.0067291127 -4.4545505e-21)
(-0.0038545749 0.0075111865 6.4290546e-21)
(-0.0047238571 0.0082723339 -1.536456e-21)
(-0.0057557635 0.0089786372 -6.1455607e-22)
(-0.0069725418 0.0095906709 1.9506982e-21)
(-0.0083969873 0.010064985 -6.7890723e-21)
(-0.010051453 0.010356633 -9.8128872e-22)
(-0.011956469 0.010422922 4.9046693e-21)
(-0.014128928 0.01022849 -5.3171358e-21)
(-0.016579894 0.0097516123 7.0614938e-22)
(-0.019312402 0.0089910626 6.6660827e-21)
(-0.022319878 0.0079720059 -6.6094457e-22)
(-0.025586045 0.0067465415 -4.881625e-21)
(-0.02908736 0.0053844617 -1.2091883e-22)
(-0.032797631 0.0039548027 3.2951681e-21)
(-0.036693205 0.0025079073 -3.4793284e-21)
(-0.040756672 0.0010682699 1.4869759e-21)
(-0.044975843 -0.00036229673 -1.661411e-21)
(-0.049342457 -0.0017968534 -5.077755e-21)
(-0.053852767 -0.0032595164 -1.1046044e-21)
(-0.058508332 -0.0047851947 -4.2238969e-21)
(-0.063318562 -0.0064230836 5.319787e-21)
(-0.068304212 -0.0082432583 4.8826667e-21)
(-0.073504552 -0.010344297 8.3662907e-22)
(-0.078984693 -0.012863904 -6.7367812e-21)
(-0.084836892 -0.015991364 3.2446152e-21)
(-0.091189683 -0.019979875 1.1367238e-21)
(-0.098210846 -0.025174597 -5.7998821e-22)
(-0.10610178 -0.032035289 -1.926275e-21)
(-0.11508459 -0.041181364 9.42774e-22)
(-0.12536536 -0.053441439 -1.7864695e-21)
(-0.13707228 -0.069931734 -1.0581706e-20)
(-0.15017061 -0.092059622 -4.7963607e-22)
(-0.16436209 -0.12140385 2.2272155e-21)
(-0.17882313 -0.15896935 -5.0945748e-21)
(-0.19187143 -0.20418367 4.2707789e-21)
(-0.20146695 -0.25163016 -1.2014565e-20)
(-0.20575811 -0.29018165 -3.3246596e-21)
(-0.20440784 -0.30544594 9.5334618e-21)
(-0.19924972 -0.25918824 -1.5789412e-21)
(-0.18495932 -0.097649086 -2.1607364e-21)
(-0.060817381 0.19509488 -3.417007e-22)
(0.11111653 0.44677537 1.9506058e-21)
(0.22453651 0.54713247 -3.1520185e-21)
(0.26098923 0.51008426 -1.154238e-21)
(0.378878 0.24575914 -2.3404241e-21)
(-4.9685049e-06 7.0813079e-05 -5.7230538e-22)
(-1.6751257e-05 0.00021486 4.2262014e-22)
(-3.1829992e-05 0.0003715336 1.123306e-22)
(-5.1443689e-05 0.00054525258 -1.0641748e-22)
(-7.685406e-05 0.00074097239 5.1525408e-22)
(-0.00010968367 0.00096413464 3.8285521e-23)
(-0.00015190074 0.0012206435 4.8827173e-22)
(-0.0002058649 0.0015167989 5.2513875e-22)
(-0.00027440218 0.0018591935 -4.2817212e-21)
(-0.00036088623 0.0022545596 3.8122158e-21)
(-0.00046933004 0.0027095571 -1.8179829e-21)
(-0.0006044881 0.00323049 -2.6526129e-21)
(-0.00077197005 0.003822939 5.2321477e-21)
(-0.00097836426 0.0044912999 6.436124e-22)
(-0.0012313695 0.0052382185 -2.4649385e-21)
(-0.0015399307 0.0060639203 -1.6783916e-21)
(-0.001914374 0.0069654378 1.9235308e-21)
(-0.0023665317 0.0079357562 -6.8670975e-21)
(-0.0029098452 0.0089629145 3.9918817e-21)
(-0.0035594308 0.010029124 -1.9373832e-21)
(-0.0043320837 0.01111 6.3910656e-21)
(-0.0052461939 0.012174041 1.621198e-21)
(-0.0063215342 0.013182522 -3.2952309e-21)
(-0.0075788743 0.014090012 4.8189071e-21)
(-0.0090393642 0.014845744 1.842996e-21)
(-0.010723622 0.01539608 -2.1442698e-21)
(-0.012650471 0.015688312 -1.1793188e-20)
(-0.014835299 0.015676027 -5.170346e-21)
(-0.017288132 0.015326168 2.493356e-21)
(-0.020011713 0.014627544 -2.5819265e-21)
(-0.023000183 0.013599191 1.5509108e-21)
(-0.026239233 0.01229415 8.4495465e-21)
(-0.029708408 0.010792086 -2.7099821e-21)
(-0.033385228 0.0091789005 -7.6898967e-21)
(-0.037249527 0.0075233289 2.421933e-21)
(-0.041286116 0.0058650165 3.2446133e-21)
(-0.045484643 0.004217299 -5.3913648e-21)
(-0.049838626 0.0025745107 -1.6030645e-21)
(-0.054345664 0.00091835755 2.7405783e-21)
(-0.059009102 -0.00078028677 1.0683058e-21)
(-0.063841257 -0.0025638569 -5.16097e-21)
(-0.068866733 -0.0044940241 1.4800206e-21)
(-0.074130969 -0.0066586959 2.1281903e-21)
(-0.079707575 -0.009182941 5.7598778e-21)
(-0.085700729 -0.012244581 -1.1134048e-20)
(-0.092256987 -0.016084518 7.3735591e-21)
(-0.099568405 -0.021037384 1.9269393e-21)
(-0.10787019 -0.027558753 7.6297828e-21)
(-0.11742856 -0.036275271 9.2787848e-21)
(-0.1285079 -0.048042239 4.5935024e-22)
(-0.1413046 -0.064030246 -2.210562e-21)
(-0.15585303 -0.085740906 1.5247734e-20)
(-0.17184168 -0.11491906 6.4821767e-21)
(-0.18832686 -0.15284147 6.5748383e-21)
(-0.20320975 -0.19921992 2.1983132e-21)
(-0.21373682 -0.24871705 1.6299158e-20)
(-0.21686859 -0.28967012 -6.1484176e-21)
(-0.21413473 -0.30717649 1.4701098e-21)
(-0.20822291 -0.26431214 1.4032893e-20)
(-0.19638875 -0.12054943 5.4037292e-21)
(-0.10324641 0.14487052 -4.7714665e-21)
(0.05700311 0.39545746 -1.0450515e-20)
(0.18173514 0.51729322 2.6800819e-21)
(0.26006881 0.48019061 4.7660537e-21)
(0.46502306 0.19649794 3.2603498e-21)
(-1.0360395e-05 0.00010521246 1.9249633e-21)
(-3.3300847e-05 0.00032141622 -3.0604659e-21)
(-6.0640949e-05 0.00055777996 1.1059338e-21)
(-9.3786363e-05 0.00081938263 -1.2012627e-22)
(-0.00013421326 0.0011118774 2.3729698e-21)
(-0.00018376474 0.001441434 -2.4523799e-21)
(-0.00024464319 0.0018147096 3.7150357e-21)
(-0.00031945191 0.0022387727 -1.7447168e-21)
(-0.00041126495 0.0027209875 -6.6199105e-21)
(-0.00052370058 0.0032688436 1.5873873e-21)
(-0.00066100337 0.0038897225 6.0271108e-21)
(-0.0008281335 0.0045905857 -1.8325624e-21)
(-0.0010308645 0.0053775726 -1.2172647e-22)
(-0.0012758871 0.0062554954 4.7438983e-21)
(-0.0015709175 0.0072272215 -1.4732482e-20)
(-0.0019248058 0.0082929388 8.9639855e-21)
(-0.0023476405 0.0094493079 8.4449481e-23)
(-0.0028508399 0.010688519 -4.8434634e-21)
(-0.003447222 0.011997291 1.2118682e-20)
(-0.0041510376 0.013355873 -5.6224493e-21)
(-0.0049779487 0.01473715 -8.2242474e-21)
(-0.0059449281 0.01610598 -3.2616918e-21)
(-0.0070700486 0.017418947 1.5754027e-20)
(-0.0083721222 0.018624732 8.0340871e-21)
(-0.0098701398 0.019665361 -5.0541274e-21)
(-0.011582457 0.020478591 2.8755066e-21)
(-0.013525678 0.021001742 -1.0486373e-20)
(-0.015713228 0.021177321 2.9341475e-21)
(-0.018153717 0.020960816 -7.686714e-21)
(-0.020849388 0.020330754 4.2211823e-21)
(-0.023795202 0.019299681 -2.5370489e-21)
(-0.026979232 0.017921179 8.9394134e-21)
(-0.030384745 0.016284442 -1.2308754e-21)
(-0.033993574 0.014492125 6.2248157e-21)
(-0.037789483 0.012631806 -5.6755208e-21)
(-0.041760004 0.010759141 -1.7461328e-21)
(-0.045896452 0.0088985994 2.075291e-20)
(-0.050193521 0.007052407 5.2441157e-21)
(-0.054649753 0.0052085984 -4.2413494e-21)
(-0.059269588 0.0033443172 4.1093005e-21)
(-0.06406683 0.0014246251 -1.0743757e-21)
(-0.069068468 -0.00060225931 -6.5824076e-21)
(-0.074324448 -0.0028119905 2.9823922e-22)
(-0.079914117 -0.0053156352 2.2853291e-21)
(-0.085949909 -0.0082768979 -1.1544904e-21)
(-0.092591389 -0.011921481 6.4011347e-22)
(-0.10004857 -0.016568156 1.7603252e-21)
(-0.10858166 -0.022665473 -2.6698521e-20)
(-0.11848996 -0.030841689 3.1024278e-21)
(-0.13008174 -0.041973472 -2.8551378e-21)
(-0.14360227 -0.057285209 2.716955e-20)
(-0.15912701 -0.078389849 -1.4832771e-20)
(-0.17628624 -0.10724218 -1.2435054e-20)
(-0.19392612 -0.14548693 -1.1812695e-20)
(-0.20939737 -0.19325336 -1.11977e-20)
(-0.21879386 -0.24534572 -1.6877007e-20)
(-0.21962222 -0.28942952 3.1946059e-20)
(-0.2111985 -0.3092353 -1.8215331e-20)
(-0.19984715 -0.26951524 -2.5395275e-20)
(-0.18515429 -0.13977479 1.4310633e-20)
(-0.11270924 0.10025318 4.5769529e-21)
(0.031081834 0.34347412 3.7420923e-21)
(0.16521171 0.47841346 -6.4261402e-21)
(0.2986919 0.43445781 -8.8491429e-21)
(0.5754009 0.14006661 1.0718209e-21)
(-1.7796174e-05 0.00013945554 -1.3616876e-21)
(-5.6155188e-05 0.00042752585 4.5174389e-21)
(-0.00010043286 0.00074328208 -3.68086e-21)
(-0.00015222329 0.001092444 1.3900964e-21)
(-0.00021324633 0.0014813389 5.0180507e-22)
(-0.00028559058 0.0019168396 -4.3136383e-21)
(-0.00037171469 0.0024063295 1.0910728e-21)
(-0.0004744839 0.0029576183 2.3134299e-21)
(-0.00059723271 0.0035788136 1.7710752e-22)
(-0.00074382869 0.0042781357 1.5015104e-21)
(-0.00091874233 0.0050636633 -2.0967877e-21)
(-0.0011271207 0.005942996 1.4521037e-21)
(-0.001374866 0.0069228197 5.3284849e-21)
(-0.0016687156 0.0080083618 1.5417338e-22)
(-0.0020163227 0.0092027243 -4.0247022e-21)
(-0.002426333 0.01050609 -2.8287371e-21)
(-0.0029084533 0.011914803 2.4117351e-21)
(-0.0034735047 0.013420343 -2.2802444e-22)
(-0.0041334544 0.015008226 -4.58701e-21)
(-0.004901412 0.016656892 -5.5058796e-21)
(-0.005791579 0.018336684 6.1751847e-21)
(-0.0068191314 0.020009048 6.0898888e-21)
(-0.0080000118 0.021626129 -8.0154172e-21)
(-0.009350598 0.023130997 9.6906032e-21)
(-0.01088721 0.024458745 1.638457e-20)
(-0.01262541 0.02553878 -3.7600096e-20)
(-0.014579058 0.026298645 2.0142181e-20)
(-0.016759134 0.026669861 -2.9037066e-20)
(-0.01917244 0.026596376 3.5236964e-20)
(-0.021820492 0.026046072 -3.8145151e-20)
(-0.024699089 0.025024295 3.8131299e-20)
(-0.027799022 0.023584191 -6.1733557e-21)
(-0.031107896 0.021823549 -2.0455507e-20)
(-0.034612525 0.019861308 1.1015832e-20)
(-0.038301037 0.017803968 -3.2836484e-21)
(-0.042163922 0.015723626 -9.0027055e-22)
(-0.046194096 0.013656587 -1.0777546e-20)
(-0.050386952 0.011613386 -3.3889468e-21)
(-0.054741286 0.0095887878 -3.3836762e-21)
(-0.059261716 0.0075668592 -3.2450405e-21)
(-0.063962297 0.0055210444 1.6495547e-20)
(-0.068870714 0.0034103769 -7.2658068e-21)
(-0.074039486 0.0011729518 -1.1807221e-21)
(-0.079550165 -0.0012870198 1.3688286e-20)
(-0.085518921 -0.0041162095 7.0434592e-21)
(-0.092111828 -0.0075215496 -3.4669998e-21)
(-0.099549368 -0.011803623 -1.3089995e-20)
(-0.10810648 -0.017397911 5.6659247e-21)
(-0.11809986 -0.024928388 -1.726331e-20)
(-0.12986228 -0.035287709 -9.5588266e-21)
(-0.14366059 -0.049752877 -1.3196372e-20)
(-0.15957011 -0.070065536 -3.6468424e-20)
(-0.17710254 -0.098438764 2.8176973e-20)
(-0.1948206 -0.13698031 -9.5129465e-21)
(-0.20941524 -0.18643357 1.5520194e-20)
(-0.2166353 -0.24148527 1.4128474e-20)
(-0.21080021 -0.28943851 4.8088308e-21)
(-0.19459074 -0.31245215 3.9911016e-20)
(-0.17415437 -0.2754297 9.8601721e-21)
(-0.15149443 -0.15602915 -1.9228249e-20)
(-0.090050511 0.061433728 -3.3737346e-21)
(0.039146954 0.29309615 2.7298483e-21)
(0.18507173 0.43074851 4.0692678e-21)
(0.38138702 0.37668841 9.9249864e-21)
(0.69927499 0.082950732 -1.6742528e-21)
(-2.7236609e-05 0.00017286004 -4.1689117e-21)
(-8.5195968e-05 0.00053108326 -1.4703563e-21)
(-0.000151001 0.00092437041 1.189768e-21)
(-0.00022645397 0.0013590519 4.3907715e-21)
(-0.00031354457 0.001842093 -2.4038695e-21)
(-0.0004146287 0.0023810335 3.456523e-21)
(-0.00053244009 0.002983945 -1.4937877e-21)
(-0.00067012051 0.0036593402 -3.5527617e-22)
(-0.00083127372 0.0044160334 2.0072258e-21)
(-0.0010200175 0.0052629418 4.3163941e-21)
(-0.0012410392 0.0062088132 2.1637832e-22)
(-0.0014996506 0.0072618658 -7.054436e-21)
(-0.0018018447 0.0084293257 9.7217184e-21)
(-0.0021543481 0.0097168461 -1.5622934e-20)
(-0.0025646703 0.011127797 4.0596575e-21)
(-0.0030411439 0.012662419 -8.5680815e-21)
(-0.0035929533 0.014316839 1.0273857e-20)
(-0.0042301451 0.016081966 -6.6087143e-21)
(-0.0049636162 0.017942301 1.0319922e-21)
(-0.0058050709 0.019874721 4.1324561e-21)
(-0.0067669374 0.021847327 -9.8985596e-21)
(-0.0078622321 0.023818506 1.374234e-20)
(-0.0091043543 0.02573637 -1.4673477e-20)
(-0.01050679 0.027538815 -2.4783758e-21)
(-0.012082691 0.029154456 2.3783776e-20)
(-0.013844307 0.030504782 -2.3532953e-20)
(-0.015802229 0.03150793 1.4954222e-20)
(-0.017964496 0.03208466 -1.6411507e-20)
(-0.020335679 0.032167348 -1.547092e-21)
(-0.022916274 0.031712778 -9.3792019e-22)
(-0.02570284 0.030718071 6.0114765e-21)
(-0.028689086 0.029234376 -4.0196114e-22)
(-0.031867446 0.027366443 2.1091465e-20)
(-0.035230349 0.025248493 -5.4541467e-21)
(-0.038770799 0.023005902 -1.5670168e-20)
(-0.042482484 0.020727756 6.9779585e-21)
(-0.046359797 0.018462956 -5.5045842e-21)
(-0.050398369 0.016230951 5.4067273e-21)
(-0.054596486 0.014033718 2.9191887e-20)
(-0.058957871 0.011862745 -1.5926515e-20)
(-0.063495427 0.0097005393 -3.8739922e-21)
(-0.068235659 0.007518047 2.2134689e-20)
(-0.073231067 0.0052682753 -1.2402198e-21)
(-0.078561457 0.0028721391 -2.7187755e-21)
(-0.084341395 0.00020237868 -3.0641242e-20)
(-0.090737373 -0.002925794 -7.1678487e-21)
(-0.097969369 -0.0067923083 1.156166e-20)
(-0.10631232 -0.011813047 1.1970806e-20)
(-0.116082 -0.018602508 1.7371125e-20)
(-0.12760904 -0.028062337 2.199822e-20)
(-0.14114297 -0.041520579 1.3737493e-20)
(-0.15670114 -0.060863296 2.0943979e-20)
(-0.17360491 -0.088605846 -7.0445768e-21)
(-0.19004569 -0.12738725 4.5428205e-20)
(-0.20197385 -0.17854893 3.4191662e-21)
(-0.20381992 -0.23757134 2.372218e-21)
(-0.18936175 -0.29004005 1.0112709e-21)
(-0.16251076 -0.31642858 -4.2505334e-20)
(-0.13065941 -0.28238499 -1.1566379e-20)
(-0.097912496 -0.17064077 1.2574369e-20)
(-0.037262264 0.028547297 9.6369994e-21)
(0.083642539 0.24553711 1.7087554e-21)
(0.24728348 0.37629685 1.0448033e-21)
(0.49498199 0.31219527 -1.4947926e-20)
(0.82656117 0.031135916 5.942758e-21)
(-3.8559691e-05 0.00020469536 7.9137157e-22)
(-0.00012005061 0.00062983481 2.5132377e-21)
(-0.00021169873 0.0010971179 -6.0633093e-21)
(-0.00031553145 0.0016134434 2.2522363e-22)
(-0.00043383018 0.0021863671 2.9485189e-21)
(-0.00056923592 0.0028240468 1.2985988e-21)
(-0.00072477219 0.0035351935 9.5789065e-22)
(-0.00090386783 0.0043289738 -1.8851913e-21)
(-0.0011104008 0.0052148628 9.7443792e-21)
(-0.0013487366 0.006202434 -7.3388622e-21)
(-0.0016237673 0.0073010721 3.5434281e-22)
(-0.0019409461 0.0085195948 4.4187758e-21)
(-0.0023063183 0.0098657669 -1.6473913e-20)
(-0.002726544 0.01134569 1.6350108e-20)
(-0.0032089123 0.012963057 -2.1661895e-21)
(-0.0037613415 0.014718258 -1.3325598e-20)
(-0.004392363 0.016607344 1.2437986e-20)
(-0.005111086 0.018620852 -4.3073279e-21)
(-0.0059271376 0.020742533 8.2847825e-21)
(-0.0068505757 0.022948032 -1.0505926e-20)
(-0.0078917704 0.025203621 -1.9453693e-20)
(-0.0090612467 0.027465114 1.8954747e-20)
(-0.010369482 0.029677147 2.728775e-20)
(-0.011826644 0.031773051 -5.1612468e-20)
(-0.013442254 0.033675604 4.0518174e-20)
(-0.015224747 0.035299006 -2.2998383e-20)
(-0.017180934 0.036552537 5.783766e-21)
(-0.019315405 0.037346581 -1.3345505e-20)
(-0.021630032 0.037601998 1.3296165e-20)
(-0.024123915 0.037263974 1.7475609e-20)
(-0.02679415 0.036320103 -1.1258005e-20)
(-0.029637384 0.034817419 -1.8110808e-20)
(-0.0326512 0.032865243 1.5142656e-21)
(-0.035834177 0.03061141 5.8921122e-22)
(-0.039184734 0.028199827 1.0267643e-20)
(-0.042700032 0.025737209 -4.294269e-21)
(-0.04637585 0.023285966 -1.5028552e-20)
(-0.050207584 0.020875216 -7.3307062e-21)
(-0.054192195 0.018514699 1.1000701e-20)
(-0.058331335 0.016203769 -8.539763e-21)
(-0.062635152 0.013934527 7.2567771e-21)
(-0.067126883 0.011690793 -2.3324567e-21)
(-0.071855772 0.0094415028 -9.3091356e-21)
(-0.076895456 0.0071250445 2.2852118e-20)
(-0.082353055 0.0046358771 1.3670445e-20)
(-0.088386937 0.0018138581 9.2224544e-21)
(-0.095204423 -0.0015953995 -2.9726856e-20)
(-0.10306259 -0.0059851971 -1.9720191e-20)
(-0.11224999 -0.011953973 -2.3560938e-20)
(-0.12305779 -0.020405091 -4.1956624e-20)
(-0.13566072 -0.032714571 1.5137656e-20)
(-0.14993356 -0.050921365 -3.1611276e-21)
(-0.16490743 -0.077875799 -2.5313815e-20)
(-0.17826478 -0.1168491 -7.4055336e-20)
(-0.18487705 -0.17000053 -4.7522731e-20)
(-0.17782002 -0.23311253 -1.7503143e-20)
(-0.15060911 -0.29038668 -4.4100038e-20)
(-0.10980188 -0.32026115 2.4953522e-20)
(-0.066339461 -0.28921886 2.6034464e-22)
(-0.023545082 -0.18419732 -1.7880505e-20)
(0.041577142 -0.00037165906 -6.8319211e-21)
(0.16220925 0.20039721 -6.3781676e-22)
(0.34530521 0.31879708 3.9654065e-21)
(0.62314226 0.24698117 -1.6844187e-21)
(0.9519144 -0.012051325 4.3916363e-21)
(-5.1547216e-05 0.00023421675 3.1409469e-21)
(-0.00016008242 0.00072147074 -2.1172725e-21)
(-0.0002814047 0.0012574997 2.8587942e-21)
(-0.00041781779 0.0018497089 1.623964e-21)
(-0.00057189738 0.0025061869 -4.5286674e-21)
(-0.00074658352 0.0032356489 -4.2241076e-21)
(-0.0009451999 0.0040473837 4.3299797e-21)
(-0.0011714686 0.0049511525 -5.2055438e-22)
(-0.0014295424 0.0059570358 -1.2033057e-22)
(-0.0017240292 0.0070752144 -8.536015e-21)
(-0.0020600119 0.0083156733 9.3349026e-22)
(-0.0024430612 0.0096878096 1.7124261e-20)
(-0.0028792387 0.011199929 -1.3645078e-20)
(-0.0033750874 0.012858616 4.680959e-22)
(-0.0039376079 0.014667957 9.0623605e-21)
(-0.0045742157 0.016628614 7.7478858e-22)
(-0.0052926779 0.018736742 -1.9571841e-21)
(-0.0061010272 0.020982759 -8.7449719e-21)
(-0.0070074512 0.023349997 1.586435e-20)
(-0.0080201575 0.025813294 -2.7576666e-20)
(-0.0091472153 0.028337611 5.8676501e-21)
(-0.010396375 0.030876808 -4.2494392e-21)
(-0.011774862 0.033372749 3.4306731e-21)
(-0.013289155 0.035754987 -1.4658329e-22)
(-0.01494472 0.037941288 1.9638161e-20)
(-0.016745721 0.039839393 1.9185654e-20)
(-0.018694695 0.041350486 -3.7233302e-20)
(-0.020792267 0.04237514 -6.0723394e-21)
(-0.023037094 0.042822884 2.0659483e-20)
(-0.025426394 0.042626817 7.1492036e-21)
(-0.027957395 0.041763501 1.5882606e-20)
(-0.030629455 0.040273229 -1.7359304e-20)
(-0.033445381 0.038266722 -7.3522072e-21)
(-0.0364103 0.035902991 1.6369972e-20)
(-0.03952857 0.033343688 -6.568327e-21)
(-0.042801176 0.030713772 -3.1171968e-21)
(-0.046225247 0.028090248 8.4904493e-21)
(-0.049795483 0.025512813 2.1697049e-20)
(-0.053506651 0.022999574 6.5169733e-21)
(-0.057357061 0.020558148 -4.2730131e-21)
(-0.061352321 0.018190582 -1.0047732e-20)
(-0.065510256 0.015894132 -1.0490358e-20)
(-0.069872491 0.013654788 -1.176474e-20)
(-0.07450163 0.011428625 -2.4992157e-20)
(-0.079491051 0.0091338634 6.8277114e-22)
(-0.08498034 0.0066372349 -1.0826971e-20)
(-0.091148955 0.0037124196 6.1414576e-20)
(-0.098213288 -7.538739e-06 1.7302436e-20)
(-0.1063999 -0.0050992055 2.0235478e-20)
(-0.11590573 -0.012461797 5.7454396e-20)
(-0.12674036 -0.023513678 -6.9170335e-20)
(-0.13850634 -0.040447166 1.5788041e-20)
(-0.14976141 -0.06646499 5.1349244e-20)
(-0.15733417 -0.10553946 6.2207294e-20)
(-0.1544376 -0.1607021 7.1527351e-21)
(-0.13223564 -0.22802944 -1.8898985e-20)
(-0.085140538 -0.2894647 -2.4605192e-20)
(-0.026372059 -0.32137863 7.6962547e-21)
(0.02701449 -0.29259833 -5.2621189e-21)
(0.075733376 -0.19413412 4.5394928e-21)
(0.14416274 -0.025362839 -3.1759538e-22)
(0.2678534 0.15813293 -1.3434476e-21)
(0.46533699 0.26184274 -4.6383333e-21)
(0.76036675 0.1849922 -4.4948511e-22)
(1.0726069 -0.044084945 -1.5994753e-20)
(-6.5906434e-05 0.00026068682 -2.9659208e-21)
(-0.00020436155 0.00080371321 -7.9396727e-22)
(-0.00035851783 0.0014015378 8.7191209e-22)
(-0.00053096625 0.0020620045 4.2828307e-21)
(-0.00072458576 0.0027936636 -5.1322524e-21)
(-0.00094262297 0.0036057145 4.3536016e-21)
(-0.0011887059 0.0045079513 2.0781731e-21)
(-0.0014668509 0.0055106589 -1.1121638e-22)
(-0.0017814825 0.0066244571 -1.7481187e-21)
(-0.0021374423 0.0078600782 -9.9179055e-21)
(-0.0025399894 0.0092280644 1.660291e-20)
(-0.0029947895 0.010738369 -1.9875921e-20)
(-0.0035078891 0.012399844 5.8104981e-21)
(-0.0040856722 0.014219594 7.8442402e-21)
(-0.0047347964 0.016202189 -1.1953092e-20)
(-0.0054621056 0.018348706 2.3382463e-20)
(-0.0062745167 0.02065562 -2.8088199e-20)
(-0.0071788804 0.023113524 -4.3893456e-22)
(-0.0081818172 0.025705729 -1.574861e-20)
(-0.00928953 0.028406765 6.1685134e-20)
(-0.010507603 0.031180902 -1.4720354e-20)
(-0.011840791 0.033980778 -5.9973224e-20)
(-0.01329281 0.036746341 2.7870256e-20)
(-0.01486614 0.03940431 3.2675738e-20)
(-0.016561843 0.041868463 -8.0617604e-21)
(-0.0183794 0.044041114 -4.1459952e-20)
(-0.020316612 0.045816328 6.1597681e-20)
(-0.022369625 0.047085648 -6.7019012e-20)
(-0.024533319 0.047747643 5.1701198e-20)
(-0.026802416 0.047722934 -9.6840354e-21)
(-0.029173652 0.046975461 1.6249754e-20)
(-0.031648569 0.045535744 2.252929e-20)
(-0.034234946 0.043511976 -8.5141827e-21)
(-0.036944634 0.041070994 -2.0721274e-21)
(-0.03978841 0.038390786 -2.9441968e-20)
(-0.042771512 0.035615008 5.3986774e-21)
(-0.045892479 0.032836481 -1.3650978e-20)
(-0.049144893 0.030106567 1.1396149e-20)
(-0.052520423 0.027452419 -6.4197079e-21)
(-0.056012648 0.024890286 -4.2564264e-21)
(-0.05962067 0.022432427 -3.7111034e-21)
(-0.06335448 0.020089504 -3.6055983e-21)
(-0.06724302 0.01786457 2.2327178e-20)
(-0.071332275 0.015733123 1.805779e-20)
(-0.075694613 0.013637551 -5.1820056e-21)
(-0.080437615 0.011472623 3.475865e-21)
(-0.085693892 0.009041571 -1.3973478e-20)
(-0.091609195 0.0060060434 2.935678e-20)
(-0.098300061 0.0018142854 3.5289769e-20)
(-0.10578741 -0.0044258498 1.071535e-20)
(-0.1137791 -0.014168497 2.7411211e-20)
(-0.12140876 -0.029754041 -8.3208288e-22)
(-0.12640982 -0.054761675 -1.311447e-20)
(-0.12402806 -0.093938954 -6.8828032e-20)
(-0.10449839 -0.15114445 3.3489945e-20)
(-0.056249206 -0.22187244 -1.3313791e-20)
(0.022208627 -0.28440937 2.9986912e-20)
(0.10506691 -0.31404023 -3.4367634e-20)
(0.16582649 -0.28518178 1.427534e-20)
(0.21154272 -0.19437814 -1.6639947e-22)
(0.27491551 -0.042721726 -3.4158467e-22)
(0.39702245 0.12060262 1.1662023e-22)
(0.60142334 0.20680311 -1.3423043e-21)
(0.90947213 0.13134502 1.8215763e-20)
(1.1739601 -0.062028228 -2.397455e-20)
(-8.1250269e-05 0.00028341216 6.6623563e-21)
(-0.0002516976 0.00087441763 4.580697e-21)
(-0.00044097018 0.0015254879 -7.1878827e-21)
(-0.00065194974 0.0022448267 1.8912907e-22)
(-0.00088782123 0.0030413632 6.4912276e-21)
(-0.0011521384 0.0039246969 3.3915454e-21)
(-0.0014488316 0.0049050422 -7.141097e-21)
(-0.0017822073 0.0059931264 1.1712822e-21)
(-0.0021569543 0.0072000329 -1.6489949e-20)
(-0.0025781367 0.0085369791 3.2082094e-21)
(-0.0030511754 0.010015014 8.2212726e-23)
(-0.0035818113 0.01164462 -1.1745747e-20)
(-0.0041760515 0.013435197 3.7521526e-20)
(-0.0048400907 0.015394416 -1.7418301e-20)
(-0.0055802069 0.01752742 -3.106859e-20)
(-0.0064026283 0.019835863 3.2931628e-20)
(-0.007313369 0.022316776 -4.0313682e-21)
(-0.0083180349 0.024961263 2.2715149e-20)
(-0.009421603 0.027753049 1.6727754e-20)
(-0.01062818 0.030666927 -5.2103345e-20)
(-0.011940753 0.033667168 3.868442e-20)
(-0.01336094 0.036706031 -5.0302595e-20)
(-0.014888775 0.039722521 5.8274614e-21)
(-0.016522523 0.042641627 -2.3485252e-20)
(-0.018258565 0.045374331 5.025915e-20)
(-0.020091368 0.04781877 -1.1725291e-20)
(-0.02201358 0.049863087 -2.911629e-20)
(-0.024016365 0.051390826 6.9137863e-20)
(-0.026090212 0.052290205 -2.9475628e-20)
(-0.028226611 0.05246918 -3.1159438e-20)
(-0.03042095 0.051877556 2.5189744e-20)
(-0.032676069 0.050532828 3.3160525e-21)
(-0.035004061 0.048536043 -1.6016301e-20)
(-0.037423352 0.046057512 8.5665e-21)
(-0.039951509 0.043289283 -1.269178e-20)
(-0.042598521 0.040393803 4.3103407e-20)
(-0.045364526 0.037480989 -2.2021423e-20)
(-0.048241641 0.034615127 -1.2916346e-20)
(-0.051217521 0.03183318 -2.6194553e-20)
(-0.054279492 0.029160349 -3.6131134e-21)
(-0.057417951 0.026619162 2.7518972e-20)
(-0.060631463 0.024233347 -1.1223465e-20)
(-0.063932412 0.022022276 -1.667156e-20)
(-0.067343233 0.019982236 -2.4795373e-21)
(-0.070904886 0.018079571 1.7140658e-20)
(-0.074677766 0.016236709 1.5487158e-20)
(-0.078723125 0.014286196 -4.8063991e-20)
(-0.083076041 0.011917487 -2.5997696e-20)
(-0.087674408 0.0086015131 -5.7835503e-20)
(-0.092239883 0.0034513747 -2.0797402e-20)
(-0.095988081 -0.0050201211 -8.4164965e-21)
(-0.09727621 -0.019308506 -6.4334161e-20)
(-0.092364414 -0.043418118 -2.5342892e-20)
(-0.073592862 -0.083025762 8.5776924e-20)
(-0.025971593 -0.14238108 -6.7413134e-20)
(0.065215979 -0.21456266 5.5485843e-20)
(0.18864578 -0.27345128 -2.0944499e-20)
(0.30110369 -0.29211834 6.5043296e-20)
(0.36921372 -0.25580932 1.4965368e-20)
(0.40251462 -0.17185616 9.4512612e-22)
(0.4480815 -0.041790312 4.7464294e-21)
(0.55656596 0.096206962 5.9760819e-21)
(0.76305135 0.15994294 1.6775703e-22)
(1.0662838 0.091593707 -2.3648356e-21)
(1.2303277 -0.06624414 3.0264219e-20)
(-9.711596e-05 0.00030178353 1.2147695e-22)
(-0.00030066642 0.00093169507 -8.6418132e-21)
(-0.00052628647 0.0016260474 1.0182672e-20)
(-0.00077714462 0.0023933152 4.8972533e-21)
(-0.0010567269 0.0032427136 -9.8012322e-21)
(-0.0013688873 0.0041841468 -3.1716414e-21)
(-0.0017178504 0.005228155 1.5364467e-20)
(-0.0021082022 0.006385815 -1.6510388e-20)
(-0.0025448844 0.0076685869 -3.4768555e-21)
(-0.0030331707 0.0090880976 -1.3800871e-20)
(-0.0035786287 0.010655844 3.6550781e-20)
(-0.0041870599 0.012382801 4.4342361e-22)
(-0.004864416 0.014278912 -3.2589383e-20)
(-0.0056166867 0.016352452 3.4817732e-20)
(-0.0064497551 0.018609236 -2.4782901e-20)
(-0.0073692189 0.021051654 -9.1283731e-21)
(-0.0083801758 0.023677544 1.8921471e-20)
(-0.0094869734 0.026478866 -1.6918733e-20)
(-0.010692931 0.029440233 -2.2297601e-20)
(-0.012000039 0.032537298 4.663529e-22)
(-0.013408657 0.035735092 3.4296754e-20)
(-0.014917227 0.038986406 -2.0916015e-20)
(-0.016522025 0.042230376 1.1484602e-20)
(-0.018216988 0.045391488 5.4614678e-20)
(-0.019993649 0.048379286 1.7984232e-20)
(-0.02184121 0.051089161 -4.8002618e-20)
(-0.02374682 0.053404772 4.7228138e-21)
(-0.025696185 0.055202954 -5.2456446e-20)
(-0.027674757 0.056362491 3.0534123e-20)
(-0.029669941 0.05677881 -1.5893234e-20)
(-0.031674681 0.056386333 2.2657107e-20)
(-0.033691848 0.055186299 5.4405193e-21)
(-0.035736698 0.053267502 -2.6599413e-20)
(-0.037833637 0.050798324 2.6717077e-20)
(-0.040007174 0.047981481 3.8254871e-20)
(-0.042272578 0.044997661 -3.4779472e-21)
(-0.044631912 0.041975085 -3.8998708e-20)
(-0.047075594 0.038992368 4.8900741e-20)
(-0.049586348 0.036097139 -1.0377321e-20)
(-0.052143589 0.033323768 2.2153067e-20)
(-0.054726491 0.030704789 -3.4753764e-21)
(-0.057318546 0.028276511 3.5052481e-20)
(-0.059910372 0.026073959 1.704472e-20)
(-0.062493146 0.024112935 2.1945477e-20)
(-0.065063627 0.022383672 -9.0636936e-20)
(-0.067615566 0.020834122 -3.0579767e-20)
(-0.070106745 0.019323066 4.1501118e-20)
(-0.07240664 0.017561637 -3.500695e-20)
(-0.074172962 0.015033573 -3.0265737e-20)