/*--------------------------------*- C++ -*----------------------------------*\
  =========                 |
  \\      /  F ield         | OpenFOAM: The Open Source CFD Toolbox
   \\    /   O peration     | Website:  https://openfoam.org
    \\  /    A nd           | Version:  13
     \\/     M anipulation  |
\*---------------------------------------------------------------------------*/
FoamFile
{
    format      ascii;
    class       surfaceScalarField;
    location    "37.300937";
    object      phi;
}
// * * * * * * * * * * * * * * * * * * * * * * * * * * * * * * * * * * * * * //

dimensions      [0 3 -1 0 0 0 0];

internalField   nonuniform List<scalar> 
34068
(
-1.0511849e-08
9.7433395e-09
7.6850915e-10
-4.6797309e-08
3.2764464e-08
3.5209953e-09
-1.1748626e-07
6.3090478e-08
7.5984735e-09
-2.3347593e-07
1.0358652e-07
1.2403141e-08
-4.0846966e-07
1.5818658e-07
1.6807156e-08
-6.5962958e-07
2.322102e-07
1.8949707e-08
-1.0083678e-06
3.3276529e-07
1.5972887e-08
-1.4813008e-06
4.6923636e-07
3.6966484e-09
-2.1113959e-06
6.5387032e-07
-2.377522e-08
-2.9393405e-06
9.024627e-07
-7.4518127e-08
-4.0151668e-06
1.2351408e-06
-1.5931448e-07
-5.4001673e-06
1.67723e-06
-2.9222956e-07
-7.169132e-06
2.2601679e-06
-4.9120317e-07
-9.4129374e-06
3.0224071e-06
-7.7860172e-07
-1.2241506e-05
4.0102097e-06
-1.1816412e-06
-1.5787138e-05
5.278185e-06
-1.7325531e-06
-2.0208198e-05
6.8893663e-06
-2.4683062e-06
-2.5693096e-05
8.9145407e-06
-3.429643e-06
-3.2464449e-05
1.1430466e-05
-4.6591122e-06
-4.0783248e-05
1.4516533e-05
-6.1977342e-06
-5.0952735e-05
1.8249368e-05
-8.0798815e-06
-6.3321592e-05
2.2694852e-05
-1.0325995e-05
-7.8285861e-05
2.7897136e-05
-1.2932867e-05
-9.6288821e-05
3.3864457e-05
-1.5861496e-05
-0.00011781782
4.0552024e-05
-1.9023028e-05
-0.00014339677
4.7843031e-05
-2.2264078e-05
-0.00017357293
5.5530037e-05
-2.5353876e-05
-0.00020889644
6.3300645e-05
-2.7977138e-05
-0.00024989196
7.0733762e-05
-2.9738244e-05
-0.00029702385
7.7315357e-05
-3.0183463e-05
-0.00035066088
8.2484322e-05
-2.8847292e-05
-0.00041105538
8.5714022e-05
-2.5319524e-05
-0.0004783584
8.6614286e-05
-1.9311268e-05
-0.00055267747
8.5000442e-05
-1.0681371e-05
-0.00063418609
8.0854716e-05
6.5390625e-07
-0.00072319374
7.4179771e-05
1.4827878e-05
-0.00082020432
6.4811782e-05
3.2198797e-05
-0.00092592864
5.2301021e-05
5.3423299e-05
-0.0010412887
3.5834234e-05
7.9525826e-05
-0.0011674434
1.4142434e-05
0.00011201231
-0.0013058393
-1.4688879e-05
0.00015308473
-0.0014583222
-5.3513676e-05
0.00020599659
-0.0016272792
-0.00010667734
0.00027563435
-0.0018158775
-0.00018082106
0.0003694193
-0.0020282884
-0.00028621466
0.0004986256
-0.0022699587
-0.00043825671
0.00067992706
-0.0025478768
-0.00065994601
0.00093786402
-0.0028708719
-0.00098564663
0.0013086417
-0.0032496353
-0.0014662042
0.0018449676
-0.0036963898
-0.0021763495
0.0026231041
-0.0042239243
-0.0032251463
0.0037526807
-0.0048438619
-0.0047694888
0.0053894264
-0.0055640334
-0.0070263221
0.0077464936
-0.0063845667
-0.010270107
0.01109064
-0.0072903463
-0.014771443
0.015677222
-0.0082437995
-0.020658994
0.021612447
-0.0091934044
-0.02760327
0.028552875
-0.010139258
-0.034187438
0.035133292
-0.011015909
-0.037744496
0.038621147
-0.011350338
-0.031251634
0.031586063
-0.0086003638
-0.0047428214
0.0019928471
-0.00025689966
0.050114241
-0.058457705
0.0097108481
0.10963372
-0.11960146
0.01689478
0.14530852
-0.15249245
0.13529021
0.026547728
-0.14494316
-1.0814859e-08
2.0558198e-08
-4.8148002e-08
7.0097606e-08
-1.2087702e-07
1.358195e-07
-2.4021057e-07
2.2292007e-07
-4.2023674e-07
3.3821275e-07
-6.7859054e-07
4.9056399e-07
-1.037262e-06
6.9143678e-07
-1.5235706e-06
9.555449e-07
-2.1713345e-06
1.3016342e-06
-3.0222663e-06
1.7533945e-06
-4.1276294e-06
2.3405039e-06
-5.5501863e-06
3.0997869e-06
-7.3664786e-06
4.0764601e-06
-9.6694586e-06
5.3253871e-06
-1.2571501e-05
6.9122518e-06
-1.6207794e-05
8.9144784e-06
-2.0740091e-05
1.1421663e-05
-2.6360758e-05
1.4535207e-05
-3.3297022e-05
1.836673e-05
-4.1815217e-05
2.3034729e-05
-5.2224753e-05
2.8658903e-05
-6.4881383e-05
3.5351483e-05
-8.0189211e-05
4.3204963e-05
-9.8600613e-05
5.227586e-05
-0.00012061309
6.2564497e-05
-0.00014676171
7.3991655e-05
-0.00017760577
8.6374098e-05
-0.00021370808
9.9402955e-05
-0.00025560627
0.00011263195
-0.0003037775
0.00012548659
-0.00035860309
0.00013730991
-0.00042034764
0.00014745857
-0.00048917408
0.00015544072
-0.00056520822
0.00016103459
-0.00064864017
0.00016428666
-0.00073981217
0.00016535177
-0.00083927098
0.00016427059
-0.00094778133
0.00016081138
-0.0010663367
0.00015438959
-0.0011961898
0.00014399553
-0.0013389298
0.00012805111
-0.0014965884
0.00010414496
-0.0016718275
6.8561755e-05
-0.0018682424
1.5593824e-05
-0.0020905723
-6.3884768e-05
-0.002345145
-0.00018368398
-0.0026401767
-0.00036491437
-0.0029862606
-0.00063956267
-0.0033965561
-0.0010559087
-0.0038866884
-0.0016862172
-0.0044739788
-0.0026378558
-0.0051756445
-0.0040678231
-0.0060050849
-0.0061968816
-0.0069652996
-0.0093098922
-0.0080364917
-0.013700251
-0.0091635129
-0.019531973
-0.010264814
-0.026501968
-0.011313738
-0.033138515
-0.012253511
-0.036804723
-0.012655868
-0.030849277
-0.010516221
-0.006882468
-0.0031605053
0.042758525
0.0069518609
0.099521349
0.016366156
0.13589423
0.12035357
0.031302794
-1.0984576e-08
3.1542774e-08
-4.8908526e-08
1.0802155e-07
-1.2279297e-07
2.0970394e-07
-2.4402315e-07
3.4415025e-07
-4.2690243e-07
5.2109202e-07
-6.8932671e-07
7.5298827e-07
-1.0535994e-06
1.0557095e-06
-1.5474157e-06
1.4493612e-06
-2.20504e-06
1.9592585e-06
-3.0687143e-06
2.6170689e-06
-4.1903254e-06
3.4621149e-06
-5.6333708e-06
4.5428322e-06
-7.4752522e-06
5.9183416e-06
-9.8099338e-06
7.6600686e-06
-1.2750976e-05
9.8532936e-06
-1.643496e-05
1.2598463e-05
-2.1025284e-05
1.6011987e-05
-2.6716268e-05
2.0226191e-05
-3.3737468e-05
2.538793e-05
-4.2358022e-05
3.1655283e-05
-5.2890732e-05
3.9191613e-05
-6.5695483e-05
4.8156234e-05
-8.1181424e-05
5.8690905e-05
-9.9807093e-05
7.0901529e-05
-0.00012207749
8.4834897e-05
-0.00014853677
0.00010045093
-0.00017975504
0.00011759236
-0.00021630779
0.00013595571
-0.00025874716
0.00015507132
-0.00030756635
0.00017430577
-0.00036316349
0.00019290706
-0.00042581966
0.00021011473
-0.00049571238
0.00022533344
-0.0005729803
0.00023830252
-0.00065782497
0.00024913133
-0.00075060537
0.00025813217
-0.0008518917
0.00026555691
-0.00096248288
0.00027140256
-0.0010834201
0.0002753268
-0.0012160245
0.00027659994
-0.0013619789
0.00027400553
-0.0015234595
0.00026562553
-0.001703348
0.00024845025
-0.0019055042
0.00021775008
-0.0021352286
0.00016583963
-0.0023994937
8.0581092e-05
-0.0027075358
-5.6872271e-05
-0.0030714235
-0.00027567494
-0.0035063711
-0.00062096106
-0.0040308344
-0.001161754
-0.004665834
-0.0020028563
-0.0054328913
-0.0033007657
-0.0063488793
-0.0052808936
-0.0074160262
-0.0082427454
-0.008603944
-0.012512333
-0.0098286649
-0.018307252
-0.010976631
-0.025354002
-0.011987605
-0.032127541
-0.012719709
-0.036072619
-0.012760413
-0.030808573
-0.010608046
-0.0090348347
-0.0036039312
0.03575441
0.0069217223
0.088995695
0.01935017
0.12346578
0.099463782
0.04023996
-1.1000959e-08
4.2543732e-08
-4.8988109e-08
1.460087e-07
-1.2300301e-07
2.8371883e-07
-2.4445205e-07
4.6559929e-07
-4.2765926e-07
7.0429923e-07
-6.9053784e-07
1.0158668e-06
-1.055404e-06
1.4205756e-06
-1.5499546e-06
1.9439117e-06
-2.2084425e-06
2.6177465e-06
-3.0730764e-06
3.4817027e-06
-4.195683e-06
4.5847216e-06
-5.6396638e-06
5.9868129e-06
-7.4822844e-06
7.7609622e-06
-9.817324e-06
9.9951081e-06
-1.2758111e-05
1.279408e-05
-1.6440953e-05
1.6281305e-05
-2.102895e-05
2.0599984e-05
-2.671614e-05
2.5913381e-05
-3.3731876e-05
3.2403666e-05
-4.2345263e-05
4.026867e-05
-5.2869405e-05
4.9715754e-05
-6.5665027e-05
6.0951856e-05
-8.1142932e-05
7.4168811e-05
-9.9764506e-05
8.9523102e-05
-0.00012203921
0.0001071096
-0.0001485178
0.00012692953
-0.00017977967
0.00014885423
-0.0002164128
0.00017258884
-0.0002589853
0.00019764382
-0.00030800966
0.00022333013
-0.00036390549
0.00024880289
-0.00042697481
0.00027318406
-0.00049741179
0.00029577041
-0.00057536405
0.00031625477
-0.00066103493
0.00033480221
-0.00075478304
0.00035188029
-0.0008571813
0.00036795518
-0.00096903844
0.0003832597
-0.0010914146
0.00039770295
-0.0012256622
0.0004108475
-0.0013735124
0.00042185574
-0.0015372212
0.00042933435
-0.0017197957
0.00043102478
-0.0019253195
0.0004232739
-0.0021593879
0.00039990798
-0.0024294548
0.00035064805
-0.0027455314
0.0002592043
-0.0031207363
9.9529894e-05
-0.0035718141
-0.00016988316
-0.0041193056
-0.00061426251
-0.0047868751
-0.0013352868
-0.0055987966
-0.0024888442
-0.006573069
-0.0043066212
-0.0077076793
-0.0071081351
-0.0089572233
-0.011262789
-0.010208527
-0.017055949
-0.01127906
-0.024283469
-0.012010312
-0.031396288
-0.012258958
-0.035823973
-0.011626457
-0.031441074
-0.0089157665
-0.011745526
-0.0016333293
0.028471973
0.009930291
0.077432075
0.026490535
0.10690553
0.072897426
0.05305689
-1.0846313e-08
5.3390045e-08
-4.8307781e-08
1.8347017e-07
-1.2130829e-07
3.5671934e-07
-2.4110196e-07
5.8539296e-07
-4.2181611e-07
8.8501337e-07
-6.8111203e-07
1.2751628e-06
-1.0409821e-06
1.7804457e-06
-1.528713e-06
2.4316427e-06
-2.1780364e-06
3.2670698e-06
-3.030508e-06
4.3341743e-06
-4.1371376e-06
5.6913512e-06
-5.5603192e-06
7.4099945e-06
-7.37608e-06
9.576723e-06
-9.676703e-06
1.2295731e-05
-1.2573727e-05
1.5691104e-05
-1.6201357e-05
1.9908935e-05
-2.0720265e-05
2.5118892e-05
-2.6321748e-05
3.1514864e-05
-3.3232164e-05
3.9314082e-05
-4.1717477e-05
4.8753983e-05
-5.208767e-05
6.0085946e-05
-6.4700649e-05
7.3564836e-05
-7.9965086e-05
8.9433247e-05
-9.8341449e-05
0.00010789947
-0.00012034017
0.00012910832
-0.00014651568
0.00015310503
-0.00017745466
0.00017979322
-0.00021375695
0.00020889112
-0.00025600778
0.00023989465
-0.00030474204
0.00027206439
-0.00036040553
0.00030446638
-0.00042332617
0.0003361047
-0.00049371701
0.00036616126
-0.00057173111
0.00039426887
-0.00065756226
0.00042063336
-0.00075154998
0.00044586801
-0.00085424614
0.00047065133
-0.00096644086
0.00049545442
-0.0010891792
0.0005204413
-0.0012238021
0.00054547036
-0.0013720343
0.00057008801
-0.0015361374
0.00059343742
-0.0017191476
0.00061403501
-0.001925223
0.00062934927
-0.0021600724
0.00063475738
-0.0024313959
0.00062197156
-0.0027495745
0.00057738288
-0.0031283081
0.00047826353
-0.0035851885
0.00028699723
-0.0041418662
-5.7584869e-05
-0.0048232994
-0.00065385356
-0.0056545777
-0.001657566
-0.0066521419
-0.003309057
-0.0078062034
-0.0059540736
-0.0090497119
-0.01001928
-0.010227294
-0.015878367
-0.011090459
-0.023420305
-0.011372809
-0.031113938
-0.010902704
-0.036294078
-0.0092672278
-0.03307655
-0.005477224
-0.015535529
0.0027623482
0.020232401
0.016241649
0.063952775
0.037418855
0.085728328
0.042061286
0.068254995
-1.0507705e-08
6.389775e-08
-4.6809865e-08
2.1977233e-07
-1.1756417e-07
4.2747364e-07
-2.3368544e-07
7.0151424e-07
-4.0887113e-07
1.0601991e-06
-6.6023853e-07
1.5265302e-06
-1.009097e-06
2.1293042e-06
-1.4818754e-06
2.9044211e-06
-2.1112394e-06
3.8964338e-06
-2.9374213e-06
5.1603562e-06
-4.0098017e-06
6.7637316e-06
-5.3887788e-06
8.7889716e-06
-7.1479625e-06
1.1335907e-05
-9.3767226e-06
1.4524491e-05
-1.218313e-05
1.8497512e-05
-1.5697308e-05
2.3423113e-05
-2.0075196e-05
2.949678e-05
-2.5502697e-05
3.6942365e-05
-3.2200143e-05
4.6011529e-05
-4.042696e-05
5.69808e-05
-5.0486266e-05
7.0145252e-05
-6.2729119e-05
8.5807689e-05
-7.7557851e-05
0.00010426198
-9.5427765e-05
0.00012576938
-0.00011684624
0.0001505268
-0.00014236785
0.00017862664
-0.00017258398
0.00021000935
-0.00020810509
0.00024441223
-0.00024953413
0.00028132368
-0.0002974311
0.00031996135
-0.00035227253
0.00035930782
-0.00041441739
0.00039824955
-0.00048410055
0.00043584442
-0.00056147741
0.00047164573
-0.00064672041
0.00050587636
-0.00074012967
0.00053927726
-0.00084220903
0.00057273069
-0.00095369766
0.00060694305
-0.0010755864
0.00064232999
-0.0012091551
0.00067903909
-0.0013560579
0.00071699084
-0.0015184747
0.00075585423
-0.0016993533
0.00079491362
-0.0019027596
0.00083275556
-0.0021342934
0.00086629119
-0.0024015789
0.00088925703
-0.0027149312
0.00089073517
-0.0030880106
0.00085134294
-0.0035383338
0.00073732039
-0.0040874236
0.00049150502
-0.004759677
1.8399781e-05
-0.0055783885
-0.00083885441
-0.006554948
-0.0023324975
-0.0076674248
-0.0048415968
-0.0088222565
-0.0088644487
-0.0098117924
-0.014888831
-0.010312309
-0.022919788
-0.0099669559
-0.031459291
-0.0085660143
-0.03769502
-0.0056602206
-0.035982344
-0.00038229838
-0.020813452
0.0094510093
0.010399093
0.025607357
0.047796427
0.050947357
0.060388328
0.0086095008
0.084399142
-9.9765444e-09
7.3874295e-08
-4.4456443e-08
2.5425223e-07
-1.1167538e-07
4.9469258e-07
-2.2201333e-07
8.1185219e-07
-3.8849235e-07
1.2266781e-06
-6.2738174e-07
1.7654196e-06
-9.5892845e-07
2.4608509e-06
-1.4082388e-06
3.3537315e-06
-2.0063371e-06
4.494532e-06
-2.7914312e-06
5.9454503e-06
-3.8104188e-06
7.7827192e-06
-5.1206738e-06
1.0099227e-05
-6.7921381e-06
1.3007371e-05
-8.9097817e-06
1.6642135e-05
-1.1576438e-05
2.1164168e-05
-1.4916061e-05
2.6762736e-05
-1.9077417e-05
3.3658136e-05
-2.4238191e-05
4.2103139e-05
-3.0609461e-05
5.2382799e-05
-3.8440459e-05
6.4811798e-05
-4.8023406e-05
7.9728199e-05
-5.9698108e-05
9.7482391e-05
-7.385589e-05
0.00011841976
-9.0942148e-05
0.00014285564
-0.00011145653
0.00017104118
-0.00013594955
0.00020311967
-0.0001650139
0.00023907369
-0.00019926854
0.00027866688
-0.00023933387
0.00032138901
-0.00028579692
0.00036642441
-0.00033916911
0.00041268001
-0.00039984564
0.00045892608
-0.00046808691
0.00050408569
-0.00054404856
0.00054760738
-0.00062787031
0.00058969811
-0.00071979129
0.00063119824
-0.00082023763
0.00067317703
-0.00092986092
0.00071656634
-0.0010495531
0.00076202217
-0.0011804769
0.00080996286
-0.0013241412
0.00086065522
-0.0014825438
0.00091425676
-0.0016584058
0.00097077563
-0.0018555076
0.0010298574
-0.0020790687
0.0010898523
-0.002336252
0.0011464403
-0.0026367689
0.0011912521
-0.0029934404
0.0012080144
-0.0034225649
0.0011664449
-0.0039437683
0.0010127085
-0.0045782847
0.00065291612
-0.0053438064
-7.3332701e-05
-0.0062414683
-0.0014348355
-0.0072300869
-0.0038529782
-0.0081790359
-0.0079154997
-0.0088155622
-0.014252304
-0.0087384238
-0.022996927
-0.0075276739
-0.03267004
-0.0049865134
-0.04023618
-0.00065264177
-0.040316215
0.0063162671
-0.027782361
0.018167287
-0.0014519261
0.03721412
0.028749594
0.06582946
0.031772988
-0.026371693
0.10081065
-9.2507677e-09
8.3125062e-08
-4.1237274e-08
2.8623874e-07
-1.0361557e-07
5.5707088e-07
-2.0603194e-07
9.1426855e-07
-3.6058501e-07
1.3812311e-06
-5.8238546e-07
1.98722e-06
-8.9023364e-07
2.7686991e-06
-1.3074391e-06
3.7709369e-06
-1.8628015e-06
5.0498944e-06
-2.5917906e-06
6.6744395e-06
-3.5379521e-06
8.7288807e-06
-4.7545741e-06
1.1315849e-05
-6.3066655e-06
1.4559462e-05
-8.2732659e-06
1.8608735e-05
-1.0750155e-05
2.3641057e-05
-1.385297e-05
2.9865551e-05
-1.7720772e-05
3.7525938e-05
-2.2520085e-05
4.6902453e-05
-2.8449361e-05
5.8312075e-05
-3.5743797e-05
7.2106233e-05
-4.4680396e-05
8.8664799e-05
-5.5582989e-05
0.00010838498
-6.8826812e-05
0.00013166358
-8.4842005e-05
0.00015887083
-0.00010411518
0.00019031435
-0.0001271877
0.00022619219
-0.00015464912
0.00026653512
-0.0001871237
0.00031114145
-0.00022524773
0.00035951303
-0.00026963599
0.00041081268
-0.00032083796
0.00046388197
-0.00037929011
0.00051737824
-0.00044528285
0.00057007843
-0.00051897167
0.0006212962
-0.00060045335
0.00067117979
-0.0006898841
0.00072062899
-0.00078758005
0.00077087298
-0.00089406444
0.00082305073
-0.0010100802
0.0008780379
-0.0011366089
0.00093649159
-0.0012749306
0.00099897692
-0.0014267471
0.0010660732
-0.0015943935
0.0011384221
-0.001781132
0.0012165959
-0.0019914854
0.0013002056
-0.0022316941
0.0013866491
-0.0025101892
0.0014697472
-0.0028379424
0.0015357676
-0.003228492
0.0015569945
-0.003697143
0.0014813595
-0.0042581287
0.0012139018
-0.0049177891
0.0005863277
-0.0056585597
-0.00069406494
-0.0064060052
-0.0031055328
-0.0069699596
-0.0073515453
-0.0069852843
-0.01423698
-0.0059737079
-0.024008503
-0.0035007915
-0.035142957
0.00047073493
-0.044207706
0.0062265856
-0.046072066
0.01489409
-0.036449865
0.028711269
-0.015269106
0.050413537
0.0070473261
0.081750877
0.00043564778
-0.061614889
0.11699407
-8.3352766e-09
9.1460339e-08
-3.7173647e-08
3.1507711e-07
-9.3436305e-08
6.1333353e-07
-1.8584164e-07
1.0066739e-06
-3.2532045e-07
1.52071e-06
-5.2552082e-07
2.1874204e-06
-8.0342089e-07
3.0465991e-06
-1.1800655e-06
4.1475815e-06
-1.6814574e-06
5.5512864e-06
-2.3396251e-06
7.3326072e-06
-3.193902e-06
9.5831575e-06
-4.2924528e-06
1.2414399e-05
-5.6940904e-06
1.59611e-05
-7.4704112e-06
2.0385056e-05
-9.708324e-06
2.587897e-05
-1.2512991e-05
3.2670218e-05
-1.6011241e-05
4.1024188e-05
-2.0355455e-05
5.1246667e-05
-2.5727994e-05
6.3684614e-05
-3.2346065e-05
7.8724304e-05
-4.0466959e-05
9.6785693e-05
-5.0393519e-05
0.00011831154
-6.2479392e-05
0.00014374946
-7.7133613e-05
0.00017352505
-9.482364e-05
0.00020800438
-0.00011607566
0.00024744421
-0.0001414705
0.00029192995
-0.00017163292
0.00034130388
-0.00020721188
0.000395092
-0.00024884888
0.00045244967
-0.00029713306
0.00051216615
-0.00035254649
0.00057279167
-0.00041541473
0.00063294667
-0.00048589476
0.00069177623
-0.00056403248
0.00074931751
-0.0006498799
0.00080647641
-0.000743609
0.00086460208
-0.00084556994
0.00092501167
-0.00095630082
0.00098876878
-0.0010765312
0.001056722
-0.0012072176
0.0011296632
-0.0013496356
0.0012084912
-0.001505552
0.0012943385
-0.0016774474
0.0013884914
-0.0018687652
0.0014915233
-0.0020842652
0.0016021491
-0.0023302522
0.0017157342
-0.0026145406
0.001820056
-0.0029458122
0.0018882661
-0.003331599
0.0018671463
-0.0037735484
0.0016558512
-0.0042579764
0.0010707558
-0.0047340832
-0.00021795817
-0.005066815
-0.002772801
-0.0049589307
-0.0074594296
-0.0038917646
-0.015304146
-0.0013088689
-0.026591399
0.0030751784
-0.039527004
0.0088925866
-0.050025115
0.01619077
-0.05337025
0.026249469
-0.046508564
0.04161796
-0.030637596
0.065463148
-0.016797862
0.098968058
-0.033069262
-0.094660675
0.13201384
-7.2427363e-09
9.8703075e-08
-3.2321906e-08
3.4015628e-07
-8.1278785e-08
6.6229041e-07
-1.6172087e-07
1.087116e-06
-2.8318297e-07
1.6421721e-06
-4.5756581e-07
2.3618032e-06
-6.9966975e-07
3.2887031e-06
-1.0278372e-06
4.475749e-06
-1.4647336e-06
5.9881828e-06
-2.0382809e-06
7.9061545e-06
-2.7827924e-06
1.0327669e-05
-3.7403189e-06
1.3371926e-05
-4.9622741e-06
1.7183055e-05
-6.5113659e-06
2.1934148e-05
-8.4638943e-06
2.7831498e-05
-1.0912469e-05
3.5118793e-05
-1.3969195e-05
4.4080914e-05
-1.7769411e-05
5.5046883e-05
-2.247596e-05
6.8391163e-05
-2.8284071e-05
8.4532415e-05
-3.5426776e-05
0.0001039284
-4.4180723e-05
0.00012706549
-5.4872171e-05
0.00015444091
-6.7882669e-05
0.00018653555
-8.3653722e-05
0.00022377543
-0.00010268924
0.00026647973
-0.00012555426
0.00031479497
-0.00015286755
0.00036861717
-0.00018528532
0.00042750976
-0.00022347224
0.0004906366
-0.00026805646
0.00055675037
-0.00031956832
0.00062430353
-0.00037837386
0.00069175221
-0.00044463537
0.00075803774
-0.00051834332
0.00082302545
-0.00059942613
0.00088755923
-0.00068787666
0.0009530526
-0.00078382365
0.0010209587
-0.00088753926
0.0010924844
-0.00099942237
0.0011686051
-0.0011200005
0.0012502413
-0.0012499767
0.0013384675
-0.0013903397
0.0014347015
-0.0015424848
0.0015406366
-0.0017083216
0.0016573601
-0.0018904459
0.0017842734
-0.0020919629
0.0019172512
-0.0023158027
0.0020438958
-0.0025628913
0.0021353547
-0.0028280534
0.0021323084
-0.0030923897
0.0019201875
-0.0033090233
0.0012873894
-0.0033686063
-0.00015837516
-0.0030249333
-0.003116474
-0.0017869743
-0.0086973885
0.0011149973
-0.018206117
0.0062784428
-0.031754844
0.013534696
-0.046783257
0.02193709
-0.058427509
0.0310444
-0.06247756
0.042225259
-0.057689423
0.058587924
-0.047000261
0.08385586
-0.042065798
0.11672332
-0.065936723
-0.12070141
0.14276405
-5.9950777e-09
1.0469815e-07
-2.6779112e-08
3.6094031e-07
-6.7385939e-08
7.0289724e-07
-1.3415107e-07
1.1538811e-06
-2.3501122e-07
1.7430322e-06
-3.7986799e-07
2.50666e-06
-5.8102959e-07
3.4898647e-06
-8.5374854e-07
4.7484679e-06
-1.216871e-06
6.3513052e-06
-1.6936252e-06
8.3829087e-06
-2.3125739e-06
1.0946618e-05
-3.1087719e-06
1.4168124e-05
-4.1251547e-06
1.8199438e-05
-5.4142317e-06
2.3223225e-05
-7.0401033e-06
2.945737e-05
-9.0809075e-06
3.7159597e-05
-1.1631747e-05
4.6631754e-05
-1.4808157e-05
5.8223292e-05
-1.8750214e-05
7.233322e-05
-2.3627332e-05
8.9409534e-05
-2.9643772e-05
0.00010994484
-3.704477e-05
0.00013446649
-4.6123206e-05
0.00016351934
-5.7226392e-05
0.00019763874
-7.0762337e-05
0.00023731138
-8.7204549e-05
0.00028292194
-0.00010709371
0.00033468413
-0.00013103401
0.00039255747
-0.00015968082
0.00045615658
-0.00019371536
0.00052467113
-0.00023380077
0.00059683578
-0.00028051574
0.0006710185
-0.0003342711
0.00074550756
-0.00039524019
0.00081900683
-0.00046335738
0.00089114265
-0.00053841194
0.00096261378
-0.0006201831
0.0010348238
-0.00070852715
0.0011093027
-0.00080338356
0.0011873408
-0.00090473444
0.001269956
-0.001012562
0.0013580689
-0.0011268326
0.0014527381
-0.0012475164
0.0015553853
-0.001374563
0.0016676831
-0.0015078153
0.0017906123
-0.0016468507
0.0019233089
-0.0017901917
0.0020605921
-0.0019335522
0.0021872564
-0.0020660418
0.0022678442
-0.0021628567
0.0022291233
-0.0021734738
0.0019308045
-0.0019973445
0.0011112601
-0.0014241168
-0.00073160283
-1.749787e-05
-0.004523093
0.0030510977
-0.011765984
0.0087860644
-0.023941084
0.017506032
-0.040474813
0.02823766
-0.057514885
0.03946532
-0.069655169
0.050587444
-0.073599685
0.063043266
-0.070145245
0.079995472
-0.063952467
0.1040897
-0.066160026
0.13066823
-0.092515255
-0.13782165
0.14778847
-4.6242925e-09
1.0932245e-07
-2.068675e-08
3.7700277e-07
-5.2110413e-08
7.343209e-07
-1.0382979e-07
1.2056005e-06
-1.8201948e-07
1.8212219e-06
-2.9437854e-07
2.619019e-06
-4.5047004e-07
3.6459562e-06
-6.6213987e-07
4.9601378e-06
-9.4402519e-07
6.6331905e-06
-1.3141744e-06
8.7530579e-06
-1.7948092e-06
1.1427252e-05
-2.4132495e-06
1.4786564e-05
-3.2030575e-06
1.8989246e-05
-4.2054363e-06
2.4225604e-05
-5.4709478e-06
3.0722882e-05
-7.0616271e-06
3.8750276e-05
-9.0535659e-06
4.8623693e-05
-1.1540081e-05
6.0709807e-05
-1.4635562e-05
7.5428701e-05
-1.8480085e-05
9.3254057e-05
-2.3244905e-05
0.00011470966
-2.9138838e-05
0.00014036042
-3.6415443e-05
0.00017079595
-4.5380827e-05
0.00020660412
-5.640151e-05
0.00024833206
-6.9911485e-05
0.00029643192
-8.6417014e-05
0.00035118966
-0.00010649684
0.00041263729
-0.00013079443
0.00048045417
-0.00015999707
0.00055387377
-0.00019479461
0.00063163333
-0.00023581012
0.00071203402
-0.00028350088
0.00079319832
-0.00033805698
0.00087356293
-0.00039936028
0.00095244595
-0.00046705071
0.0010303042
-0.00054066228
0.0011084353
-0.000619726
0.0011883664
-0.00070377702
0.0012713918
-0.00079228621
0.0013584652
-0.00088456224
0.001450345
-0.00097965089
0.0015478267
-0.0010762242
0.0016519586
-0.0011723574
0.0017638163
-0.0012651817
0.0018834367
-0.001350172
0.0020082991
-0.0014194427
0.0021298628
-0.0014582802
0.0022260939
-0.0014382739
0.002247838
-0.0013057143
0.0020965637
-0.00096256136
0.0015876515
-0.00022289732
0.0003715961
0.0012929456
-0.0022474457
0.004347692
-0.0075778394
0.010120005
-0.017538297
0.019416713
-0.033237792
0.031521789
-0.052579888
0.044429945
-0.070423041
0.056566001
-0.081791225
0.068103948
-0.085137632
0.080831414
-0.082872711
0.096959667
-0.080080719
0.11680676
-0.08600712
0.13505412
-0.11076261
-0.14946273
0.1466952
-3.1725735e-09
1.1249502e-07
-1.4232312e-08
3.8806251e-07
-3.5922892e-08
7.5601148e-07
-7.1689128e-08
1.2413667e-06
-1.2583574e-07
1.8753685e-06
-2.037191e-07
2.6969024e-06
-3.1198518e-07
3.7542223e-06
-4.5885783e-07
5.1070104e-06
-6.5449694e-07
6.8288296e-06
-9.1144011e-07
9.0100011e-06
-1.245148e-06
1.176096e-05
-1.6746962e-06
1.5216113e-05
-2.2236283e-06
1.9538178e-05
-2.9210452e-06
2.4923021e-05
-3.8029738e-06
3.160481e-05
-4.9141011e-06
3.9861403e-05
-6.3099697e-06
5.0019562e-05
-8.0597638e-06
6.2459601e-05
-1.0249778e-05
7.7618715e-05
-1.2987772e-05
9.5992051e-05
-1.6408305e-05
0.00011813019
-2.0679178e-05
0.00014463129
-2.6009031e-05
0.0001761258
-3.2655918e-05
0.00021325101
-4.0936622e-05
0.00025661276
-5.1235817e-05
0.00030673111
-6.401386e-05
0.0003639677
-7.9810962e-05
0.0004284344
-9.9244166e-05
0.00049988738
-0.00012299167
0.00057762127
-0.00015175636
0.00066039801
-0.00018619706
0.00074647472
-0.00022681437
0.00083381563
-0.00027381849
0.00092056705
-0.00032704411
0.0010056716
-0.00038597973
0.0010892398
-0.00044988746
0.0011723431
-0.00051791997
0.0012563989
-0.00058913156
0.0013426034
-0.00066237835
0.001431712
-0.00073615161
0.0015241182
-0.000808366
0.0016200411
-0.0008760671
0.0017196597
-0.00093494576
0.001822695
-0.00097859421
0.0019270851
-0.00099697297
0.0020266779
-0.00097330167
0.0021061915
-0.0008779524
0.0021307447
-0.00065703593
0.0020269215
-0.00021564045
0.0016551682
0.00061505755
0.00075695355
0.0021622051
-0.0011755514
0.0050882319
-0.0051734726
0.010557687
-0.013047294
0.019680602
-0.026661212
0.032116792
-0.045673982
0.04565367
-0.066116766
0.057854003
-0.082623374
0.068075817
-0.092013038
0.077633968
-0.094695783
0.08858584
-0.093824583
0.10248962
-0.093984497
0.11861556
-0.10213306
0.13324991
-0.12539696
-0.16015624
0.14394342
-1.6917971e-09
1.1418682e-07
-7.6449519e-09
3.9401566e-07
-1.9395198e-08
7.6776173e-07
-3.8862636e-08
1.2608342e-06
-6.8434916e-08
1.9049408e-06
-1.1107092e-07
2.7395384e-06
-1.7042436e-07
3.8135757e-06
-2.510061e-07
5.1875922e-06
-3.5837898e-07
6.9362025e-06
-4.9941577e-07
9.1510379e-06
-6.8262735e-07
1.1944172e-05
-9.1859096e-07
1.5452076e-05
-1.2205121e-06
1.9840099e-05
-1.6049706e-06
2.5307479e-05
-2.0929107e-06
3.209275e-05
-2.7109605e-06
4.0479453e-05
-3.4931705e-06
5.0801772e-05
-4.4833382e-06
6.3449769e-05
-5.7380319e-06
7.8873409e-05
-7.3305269e-06
9.7584546e-05
-9.3558395e-06
0.0001201555
-1.1937036e-05
0.00014721249
-1.5232954e-05
0.00017942172
-1.944737e-05
0.00021746542
-2.4839322e-05
0.00026200472
-3.1734146e-05
0.00031362594
-4.0533944e-05
0.0003727675
-5.1725444e-05
0.0004396259
-6.588173e-05
0.00051404366
-8.3651451e-05
0.00059539099
-0.00010572824
0.00068247481
-0.00013280159
0.00077354806
-0.00016540116
0.00086641521
-0.00020373775
0.00095890364
-0.00024761921
0.001049553
-0.00029638345
0.0011380041
-0.00034900279
0.0012249624
-0.00040419995
0.0013115961
-0.00046046769
0.0013988711
-0.00051593271
0.001487177
-0.00056810398
0.0015762895
-0.00061351413
0.0016654512
-0.00064718474
0.0017533303
-0.00066178709
0.0018372973
-0.00064627221
0.0019115702
-0.00058315831
0.0019635639
-0.00044322385
0.0019662571
-0.00017540549
0.0018629263
0.00031054435
0.0015409717
0.0011689657
0.00079674684
0.0026835438
-0.00075762456
0.0054208227
-0.0039128303
0.010444867
-0.010197517
0.018989766
-0.021592194
0.031118892
-0.038790338
0.04480001
-0.059355101
0.057110987
-0.078427743
0.066587549
-0.092099936
0.074051265
-0.099476755
0.08150167
-0.10214619
0.090803637
-0.10312655
0.10301294
-0.1061938
0.11733217
-0.11645229
0.13096459
-0.13902938
-0.17091411
0.14172246
-2.4338229e-10
1.144302e-07
-1.1997109e-09
3.9497199e-07
-3.2193525e-09
7.6978137e-07
-6.724883e-09
1.2643397e-06
-1.2222678e-08
1.9104386e-06
-2.0311905e-08
2.7476276e-06
-3.1708249e-08
3.824972e-06
-4.7266388e-08
5.2031503e-06
-6.8025234e-08
6.9569613e-06
-9.5274724e-08
9.1782874e-06
-1.306639e-07
1.1979561e-05
-1.7636111e-07
1.5497773e-05
-2.3532665e-07
1.9899065e-05
-3.1169039e-07
2.5383843e-05
-4.1135054e-07
3.219241e-05
-5.428321e-07
4.0610935e-05
-7.1855431e-07
5.0977494e-05
-9.5657788e-07
6.3687792e-05
-1.2831261e-06
7.9199957e-05
-1.7359513e-06
9.8037371e-05
-2.3688956e-06
0.00012078845
-3.2578431e-06
0.00014810144
-4.5082856e-06
0.00018067216
-6.264663e-06
0.0002192218
-8.7214121e-06
0.00026446147
-1.2135304e-05
0.00031703983
-1.6838159e-05
0.00037747035
-2.3248031e-05
0.00044603577
-3.1875363e-05
0.000522671
-4.3317981e-05
0.00060683361
-5.8225024e-05
0.00069738185
-7.7256518e-05
0.00079257956
-0.00010099689
0.00089015558
-0.00012961073
0.00098751748
-0.00016292073
0.001082863
-0.00020011766
0.001175201
-0.00023986808
0.0012647128
-0.00028040783
0.0013521358
-0.00031958222
0.0014380455
-0.00035465825
0.0015222531
-0.00038196586
0.0016035971
-0.00039634321
0.0016798286
-0.00039027902
0.0017472661
-0.00035256578
0.0017995841
-0.00026596208
0.0018249665
-0.00010268959
0.0018002915
0.00018425204
0.0016793154
0.0006774263
0.001369752
0.0015196287
0.00069876929
0.002959794
-0.00064341849
0.0054869593
-0.0032847899
0.010042644
-0.0084685151
0.01786147
-0.018016343
0.029312776
-0.033043499
0.042767239
-0.052244801
0.055250416
-0.071838278
0.064638073
-0.0878154
0.07115702
-0.098618883
0.076623104
-0.10494284
0.083003942
-0.10852703
0.091656369
-0.11177898
0.10304978
-0.11758721
0.11635619
-0.1297587
0.12930844
-0.15198163
-0.18166685
0.14006118
1.1033864e-09
1.1332681e-07
4.7985538e-09
3.9127682e-07
1.1843883e-08
7.6273604e-07
2.3216518e-08
1.2529671e-06
4.0173248e-08
1.8934819e-06
6.4319659e-08
2.7234812e-06
9.7697261e-08
3.7915944e-06
1.4287938e-07
5.1579682e-06
2.0307625e-07
6.8967645e-06
2.8225073e-07
9.0991129e-06
3.8522317e-07
1.1876589e-05
5.1775861e-07
1.5365238e-05
6.8661357e-07
1.973021e-05
8.9948296e-07
2.5170973e-05
1.1648312e-06
3.1927062e-05
1.4914854e-06
4.0284281e-05
1.8879218e-06
5.0581058e-05
2.3610533e-06
6.3214661e-05
2.9144211e-06
7.8646589e-05
3.5454379e-06
9.7406354e-05
4.2415433e-06
0.00012009234
4.9748702e-06
0.00014736811
5.6952068e-06
0.00017995182
6.3209559e-06
0.00021859605
6.7280767e-06
0.00026405434
6.7371563e-06
0.00031703075
6.0994016e-06
0.00037810811
4.4832093e-06
0.00044765196
1.4644491e-06
0.00052568976
-3.4745028e-06
0.00061177256
-1.0934921e-05
0.00070484227
-2.1502543e-05
0.00080314718
-3.5722368e-05
0.0009043754
-5.3772343e-05
0.0010055675
-7.5502502e-05
0.0011045932
-9.9894898e-05
0.0011995934
-0.00012525608
0.001290074
-0.00014933869
0.0013762184
-0.00016925069
0.0014579575
-0.00018124243
0.0015342448
-0.00018021226
0.0016025669
-0.00015888344
0.0016584998
-0.00010650069
0.0016948834
-6.6844845e-06
0.0016997679
0.00016637547
0.0016519066
0.00045539318
0.0015112737