/*--------------------------------*- C++ -*----------------------------------*\
  =========                 |
  \\      /  F ield         | OpenFOAM: The Open Source CFD Toolbox
   \\    /   O peration     | Website:  https://openfoam.org
    \\  /    A nd           | Version:  13
     \\/     M anipulation  |
\*---------------------------------------------------------------------------*/
FoamFile
{
    format      ascii;
    class       volVectorField;
    location    "48.301198";
    object      UMean;
}
// * * * * * * * * * * * * * * * * * * * * * * * * * * * * * * * * * * * * * //

dimensions      [0 1 -1 0 0 0 0];

internalField   nonuniform List<vector> 
17140
(
(-1.4045677e-06 6.3012204e-05 -5.9036382e-23)
(-1.6534142e-05 0.00019416639 -4.477377e-24)
(-4.9151695e-05 0.00033779656 2.9612996e-22)
(-0.00010594488 0.00049469882 -3.2578923e-22)
(-0.0001931532 0.00066570626 3.8120085e-23)
(-0.00031924475 0.00085157833 -1.2484388e-22)
(-0.00049466054 0.0010529716 -2.1041604e-22)
(-0.00073203959 0.0012703918 1.0301732e-22)
(-0.0010466419 0.0015041359 3.3761312e-22)
(-0.0014567643 0.0017542222 8.2993605e-22)
(-0.0019841732 0.0020203078 -1.234855e-21)
(-0.0026545329 0.0023015963 1.1046284e-21)
(-0.0034978094 0.0025967362 1.6957344e-22)
(-0.0045486074 0.0029037142 -9.6681762e-22)
(-0.0058463897 0.0032197534 1.0800181e-22)
(-0.0074355158 0.0035412226 -8.6344932e-22)
(-0.0093650297 0.0038635794 3.2726235e-23)
(-0.011688123 0.0041813592 -7.0631164e-24)
(-0.014461215 0.0044882401 -5.2813723e-22)
(-0.017742624 0.0047772043 6.9576591e-22)
(-0.02159086 0.0050408195 -3.395379e-22)
(-0.026062664 0.0052716491 6.6531932e-23)
(-0.031211001 0.0054627837 4.9468378e-22)
(-0.03708346 0.0056084726 -5.0020845e-22)
(-0.043721972 0.0057048171 -8.0928591e-22)
(-0.051162437 0.0057505097 6.6295275e-22)
(-0.059433538 0.005747461 3.2986582e-21)
(-0.068562258 0.0057007073 3.9079662e-22)
(-0.078573738 0.0056180198 -3.5162549e-21)
(-0.089493605 0.0055083902 -8.2961405e-22)
(-0.10134374 0.0053778426 -3.0105895e-21)
(-0.11413569 0.0052280283 4.0323066e-21)
(-0.12787694 0.005057684 -1.0604293e-21)
(-0.14256536 0.0048641246 -5.1720587e-22)
(-0.15818956 0.0046438582 -5.1161707e-21)
(-0.17472691 0.0043926756 2.2849946e-21)
(-0.19213939 0.004105842 -3.4570537e-21)
(-0.2103666 0.0037781983 -2.3518528e-21)
(-0.22931702 0.0034043049 -1.0769232e-21)
(-0.24885834 0.0029794272 3.2824667e-21)
(-0.26880903 0.002500514 6.1611946e-21)
(-0.28893057 0.0019670669 5.5530482e-21)
(-0.30891896 0.0013798691 2.4050428e-21)
(-0.32840188 0.00073922007 -1.1465709e-20)
(-0.34693918 4.3884819e-05 -8.2345121e-21)
(-0.36402251 -0.00070701457 1.9897239e-21)
(-0.37913736 -0.001516569 -1.3254567e-20)
(-0.39180006 -0.0023912104 -4.4110336e-21)
(-0.40144886 -0.0033324161 4.4131718e-21)
(-0.40770072 -0.0043196624 1.0632174e-20)
(-0.41020027 -0.0053213103 -6.4735889e-21)
(-0.40867883 -0.0062991203 -4.0598738e-21)
(-0.402791 -0.00720877 1.0545316e-20)
(-0.3922553 -0.0079511032 4.9933919e-21)
(-0.3764732 -0.0083317807 3.5911298e-21)
(-0.35494588 -0.0080612413 -2.8278483e-21)
(-0.32647041 -0.0068104437 7.8508614e-21)
(-0.2897805 -0.0041627995 6.6721787e-21)
(-0.24110365 4.3030353e-06 1.7220683e-21)
(-0.17763569 0.0040988787 -4.5038865e-21)
(-0.096637564 0.0053984247 -3.6742271e-21)
(-0.0055318276 0.0029627058 -1.4075943e-20)
(0.0987886 -0.0014887211 -2.1412576e-21)
(0.19896338 -0.0063709215 1.8388507e-20)
(0.3082048 -0.011093057 -1.4655035e-20)
(-1.3079235e-05 0.00030569335 1.6728131e-23)
(-5.2301556e-05 0.00094189784 -1.5495388e-21)
(-0.00011095413 0.0016384954 1.3794865e-21)
(-0.00019579617 0.0023994338 -3.7645301e-22)
(-0.0003130861 0.0032285917 -7.780304e-22)
(-0.00047127424 0.004129488 1.4879435e-21)
(-0.00068073109 0.0051051177 -1.5533465e-21)
(-0.00095397103 0.0061577189 1.3692473e-22)
(-0.0013060461 0.0072884772 -4.2827901e-22)
(-0.0017549559 0.0084971824 -7.1172258e-24)
(-0.0023220615 0.0097818309 -1.4377587e-21)
(-0.0030324991 0.011138177 2.2941481e-21)
(-0.0039155712 0.012559254 1.9029196e-22)
(-0.0050050733 0.014034875 -1.8889235e-21)
(-0.00633951 0.015551179 5.845092e-22)
(-0.0079621402 0.017090252 3.7394373e-22)
(-0.0099207835 0.018629942 -2.3898847e-21)
(-0.012267318 0.020143953 7.8661339e-21)
(-0.015056813 0.021602361 -4.9805448e-21)
(-0.018346268 0.022972667 6.0365736e-21)
(-0.022192991 0.024221506 -9.0394236e-21)
(-0.026652724 0.025317012 2.2485891e-21)
(-0.03177772 0.026231727 9.4186703e-22)
(-0.037615177 0.026945739 -3.1174496e-21)
(-0.044206915 0.027449505 1.140543e-20)
(-0.051589228 0.027745778 1.7173315e-21)
(-0.059791085 0.027849581 -9.1165945e-21)
(-0.068839796 0.027784157 1.0370635e-20)
(-0.078760894 0.027576255 -1.4706441e-21)
(-0.08957969 0.027249537 -1.4415599e-20)
(-0.10131761 0.026821746 1.5334189e-21)
(-0.11398543 0.026303825 1.1784151e-20)
(-0.12758973 0.025702178 2.7800705e-22)
(-0.14212706 0.025021469 -9.0406654e-21)
(-0.15758423 0.024264677 1.0239248e-20)
(-0.17393633 0.023431288 -4.6536667e-21)
(-0.19114247 0.022515662 5.5807461e-21)
(-0.20913868 0.021506742 1.7791919e-20)
(-0.22782916 0.020389033 3.975725e-21)
(-0.24707689 0.019144932 1.5599311e-20)
(-0.26669476 0.017757474 -2.0018473e-20)
(-0.2864374 0.016211763 -1.8228882e-20)
(-0.3059922 0.014494939 -3.04216e-21)
(-0.32497437 0.012595726 2.4515525e-20)
(-0.34292526 0.010506974 -1.1299079e-20)
(-0.35931708 0.0082344905 -3.8320588e-21)
(-0.37359754 0.0057991812 2.0680188e-21)
(-0.385249 0.0032230183 6.2458936e-21)
(-0.39377232 0.00053983495 -3.0103968e-21)
(-0.39872345 -0.0021881735 5.3535175e-21)
(-0.39974424 -0.0049116431 3.1962059e-20)
(-0.39655175 -0.0075899996 1.5259826e-21)
(-0.38883161 -0.010183208 -6.8463083e-21)
(-0.37627965 -0.012627278 1.526133e-20)
(-0.35836049 -0.014790963 -1.3134799e-20)
(-0.33454584 -0.016483527 3.7741875e-20)
(-0.30357715 -0.017527318 1.091589e-20)
(-0.26427655 -0.017824879 -3.1524764e-20)
(-0.21292585 -0.017636003 5.420564e-21)
(-0.14642207 -0.018190338 6.4295e-21)
(-0.062188159 -0.020773143 1.3441986e-21)
(0.031713224 -0.026009528 -1.8324015e-20)
(0.13804132 -0.031424257 3.7139214e-20)
(0.23941093 -0.036239155 1.1343097e-20)
(0.34948028 -0.039666454 1.9491615e-20)
(-3.8053708e-05 0.00054347948 9.2143596e-22)
(-0.00012864305 0.0016747265 -4.658641e-22)
(-0.00024285468 0.0029135438 -1.239284e-22)
(-0.00038741742 0.0042670672 1.1764836e-22)
(-0.00056867533 0.0057422683 -5.7029769e-22)
(-0.00079500199 0.007345519 -4.2290706e-23)
(-0.0010765878 0.0090822751 -5.4292755e-22)
(-0.0014256416 0.010956648 -5.8578604e-22)
(-0.0018567156 0.012970917 4.8015697e-21)
(-0.0023871257 0.015124916 -4.2984061e-21)
(-0.0030373062 0.017415322 2.0638594e-21)
(-0.0038311988 0.019834861 3.0348847e-21)
(-0.0047966141 0.022371445 -6.0487845e-21)
(-0.0059655376 0.02500728 -7.5203537e-22)
(-0.0073743434 0.027718032 2.928131e-21)
(-0.0090638548 0.030472144 2.028475e-21)
(-0.011079193 0.033230474 -2.3746631e-21)
(-0.013469356 0.035946426 8.6864067e-21)
(-0.01628646 0.038566837 -5.2002555e-21)
(-0.019584639 0.041033837 2.6027895e-21)
(-0.023418597 0.043287888 -8.9154073e-21)
(-0.027841926 0.045272037 -2.3552561e-21)
(-0.03290535 0.046937193 4.9990791e-21)
(-0.038655229 0.048247817 -7.6463824e-21)
(-0.045133135 0.049187041 -3.050398e-21)
(-0.052376077 0.049759972 3.7610766e-21)
(-0.06041359 0.049993467 2.1649618e-20)
(-0.069273773 0.049928787 9.9267438e-21)
(-0.078982451 0.049611437 -5.09901e-21)
(-0.089564216 0.049080338 5.4600542e-21)
(-0.10104005 0.048365544 -3.5541478e-21)
(-0.1134189 0.047487761 -2.0147197e-20)
(-0.12670539 0.04646128 6.8568752e-21)
(-0.14089332 0.045298079 2.0730343e-20)
(-0.15596572 0.044007555 -7.1175442e-21)
(-0.17189271 0.042593003 -1.00071e-20)
(-0.18862693 0.041048076 1.7517096e-20)
(-0.20609641 0.039355871 5.3451926e-21)
(-0.22419551 0.037490854 -9.6909996e-21)
(-0.24277544 0.035422405 -3.9238029e-21)
(-0.26163497 0.03311895 1.8710794e-20)
(-0.28051091 0.03055021 -5.3839202e-21)
(-0.29906799 0.027688003 -7.6858963e-21)
(-0.31689309 0.024507724 -2.0190468e-20)
(-0.33349194 0.020995127 3.8117624e-20)
(-0.34830135 0.017163773 -2.4308067e-20)
(-0.36075053 0.01306758 -5.9617706e-21)
(-0.37028706 0.0087702767 -2.3640597e-20)
(-0.37640087 0.0043314314 -2.8058271e-20)
(-0.37866543 -0.000144956 -1.4026994e-21)
(-0.37675695 -0.0045694405 5.8638514e-21)
(-0.3704269 -0.008897843 -4.3581057e-20)
(-0.35938972 -0.013119699 -1.8638115e-20)
(-0.34333387 -0.017215813 -1.9286826e-20)
(-0.3217198 -0.021117709 -6.3681538e-21)
(-0.29396744 -0.02473385 -5.0290671e-20)
(-0.25877993 -0.028030876 2.0205667e-20)
(-0.21490237 -0.031222336 -6.3574391e-21)
(-0.15837839 -0.034924876 -5.3161542e-20)
(-0.086666145 -0.039992829 -2.1717409e-20)
(0.0024305789 -0.046123223 2.6939478e-20)
(0.099839908 -0.053745717 9.5950741e-20)
(0.20825001 -0.059684026 -3.1921973e-20)
(0.30955666 -0.064102411 -5.2493073e-20)
(0.4184604 -0.065696192 -2.315838e-20)
(-7.5578687e-05 0.00076849747 -3.0681627e-21)
(-0.0002433269 0.0023685821 3.3309585e-21)
(-0.00044100539 0.0041213768 -1.2050819e-21)
(-0.00067527423 0.0060372103 1.3114294e-22)
(-0.00095258981 0.0081261691 -2.5936237e-21)
(-0.0012812331 0.010397542 2.6872794e-21)
(-0.0016711201 0.012859398 -4.0812329e-21)
(-0.0021339679 0.015518002 1.9249425e-21)
(-0.0026836021 0.018377115 7.331612e-21)
(-0.0033362844 0.02143713 -1.7690346e-21)
(-0.0041110634 0.024694045 -6.7570918e-21)
(-0.005030059 0.028138361 2.0727963e-21)
(-0.0061188197 0.031753856 1.401348e-22)
(-0.0074065926 0.035516286 -5.4836081e-21)
(-0.0089265126 0.039392158 1.729076e-20)
(-0.010715691 0.043337673 -1.0712527e-20)
(-0.012815124 0.047298111 -1.0287614e-22)
(-0.015269384 0.051207895 6.0600918e-21)
(-0.018126038 0.054991682 -1.560276e-20)
(-0.021434761 0.058566853 7.4826151e-21)
(-0.025246173 0.061847684 1.1350898e-20)
(-0.029610435 0.064751337 4.6733636e-21)
(-0.034575773 0.067205407 -2.362903e-20)
(-0.0401871 0.069156242 -1.2591387e-20)
(-0.046485472 0.070576582 8.3495657e-21)
(-0.053508657 0.071470627 -4.9454279e-21)
(-0.061287265 0.071874453 1.9016351e-20)
(-0.0698505 0.071846751 -5.5668116e-21)
(-0.079224177 0.071451042 1.5339112e-20)
(-0.089432272 0.070742712 -8.8709163e-21)
(-0.10049523 0.06976462 5.5562022e-21)
(-0.11241929 0.06854784 -2.0879766e-20)
(-0.12520607 0.067114901 3.0773094e-21)
(-0.13884533 0.06548498 -1.6371287e-20)
(-0.15331474 0.06367379 1.5990604e-20)
(-0.16857715 0.061688479 5.10595e-21)
(-0.18457576 0.05952214 -6.5833073e-20)
(-0.2012267 0.05715218 -1.7301215e-20)
(-0.21840993 0.054542911 1.4550052e-20)
(-0.23595953 0.051650493 -1.4383894e-20)
(-0.25365379 0.048428099 3.6540368e-21)
(-0.27120435 0.044829005 2.3240251e-20)
(-0.28824546 0.040808585 -1.1003547e-21)
(-0.30432798 0.036328823 -7.6139375e-21)
(-0.31891799 0.031371113 3.7878107e-21)
(-0.3314257 0.025963996 -1.6397803e-21)
(-0.34127662 0.020192254 -5.1099317e-21)
(-0.34789934 0.014163424 7.9972311e-20)
(-0.3508071 0.0079885716 -8.8245045e-21)
(-0.34962557 0.0018191145 8.1177031e-21)
(-0.34409114 -0.0042289086 -7.5883869e-20)
(-0.33399256 -0.01011326 4.160074e-20)
(-0.31905518 -0.01585648 3.413091e-20)
(-0.29894908 -0.021493338 3.2791219e-20)
(-0.27307753 -0.027027258 3.1888826e-20)
(-0.24080987 -0.032479026 5.0796101e-20)
(-0.20070546 -0.03795956 -1.0296405e-19)
(-0.15126533 -0.044039922 6.460773e-20)
(-0.088089779 -0.051495742 1.0078302e-19)
(-0.010217921 -0.060735745 -7.5995217e-20)
(0.084048083 -0.069974034 -2.5247995e-20)
(0.18470962 -0.079394341 -2.3076404e-20)
(0.29392335 -0.085236698 1.2071129e-19)
(0.39345289 -0.088825722 9.0814937e-20)
(0.49812718 -0.088036154 -4.2132775e-21)
(-0.0001240325 0.00097289029 2.1439853e-21)
(-0.00039144422 0.0029993872 -4.8394383e-21)
(-0.00069695664 0.0052203147 3.9480274e-21)
(-0.0010471501 0.0076491502 -1.4932223e-21)
(-0.0014486539 0.010299096 -5.3990421e-22)
(-0.0019096289 0.013182468 4.6525924e-21)
(-0.0024396523 0.016310156 -1.1811116e-21)
(-0.0030498327 0.019690911 -2.5120637e-21)
(-0.0037530694 0.02333045 -1.9347084e-22)
(-0.0045643035 0.027230404 -1.6471313e-21)
(-0.0055007883 0.03138705 2.3152398e-21)
(-0.0065823337 0.035789892 -1.6175291e-21)
(-0.0078315681 0.04042007 -5.9931409e-21)
(-0.009274206 0.045248621 -1.7410592e-22)
(-0.010939167 0.050234844 4.6569462e-21)
(-0.012858699 0.055324887 3.3314991e-21)
(-0.01506839 0.060450742 -2.8993731e-21)
(-0.01760694 0.065530044 2.8502253e-22)
(-0.020515807 0.070467156 5.8277499e-21)
(-0.023838615 0.075156005 7.2185232e-21)
(-0.027620325 0.079485089 -8.4000007e-21)
(-0.03190624 0.083344922 -8.6296766e-21)
(-0.036740879 0.086637681 1.1870955e-20)
(-0.042166869 0.089288176 -1.5009971e-20)
(-0.048224286 0.091254304 -2.6554619e-20)
(-0.054951129 0.092534494 6.4051398e-20)
(-0.062380276 0.093169595 -3.6025082e-20)
(-0.070541578 0.09323341 5.4362839e-20)
(-0.079460432 0.092807246 -6.9248274e-20)
(-0.089161471 0.091965069 7.865646e-20)
(-0.09966367 0.090762355 -8.271007e-20)
(-0.11097045 0.089241331 1.4213571e-20)
(-0.12307934 0.087433501 4.9576824e-20)
(-0.13597523 0.08536524 -2.8399892e-20)
(-0.14962918 0.083058461 9.0305195e-21)
(-0.1639951 0.080524065 2.7211593e-21)
(-0.17900455 0.07775471 3.3237036e-20)
(-0.19455917 0.074722378 1.0852439e-20)
(-0.21052164 0.071381461 1.0916133e-20)
(-0.22670594 0.067674735 1.1023485e-20)
(-0.24286648 0.063539412 -5.6320745e-20)
(-0.25868638 0.058911132 2.4695982e-20)
(-0.27376718 0.053728181 3.7477159e-21)
(-0.28762434 0.047940131 -4.4640676e-20)
(-0.29969273 0.041529371 -2.2269976e-20)
(-0.30937704 0.034548606 1.0956541e-20)
(-0.3161176 0.027123485 3.8825614e-20)
(-0.31937216 0.019401056 -1.6870822e-20)
(-0.31869931 0.011551466 4.816598e-20)
(-0.31378385 0.0037753379 2.5911204e-20)
(-0.30439996 -0.0037888883 3.5645704e-20)
(-0.29034376 -0.011116792 9.488082e-20)
(-0.27131025 -0.01827824 -7.3592366e-20)
(-0.24689286 -0.025371435 2.376668e-20)
(-0.21639908 -0.032465354 -4.1860474e-20)
(-0.17907238 -0.039696065 -4.0187234e-20)
(-0.13322076 -0.04734838 -1.5848021e-20)
(-0.077083255 -0.056365472 -1.4944407e-19)
(-0.0061147317 -0.067343472 -4.1438793e-20)
(0.078824982 -0.080177542 9.7669134e-20)
(0.17827257 -0.091805946 3.8303724e-20)
(0.28152152 -0.10227806 -3.0080034e-20)
(0.39001459 -0.10737839 -6.4410701e-20)
(0.48619548 -0.10945684 -1.0187056e-19)
(0.58361119 -0.10574688 8.2516814e-21)
(-0.00018091426 0.0011491181 6.4722603e-21)
(-0.00056538716 0.0035440111 1.5458207e-21)
(-0.00099761603 0.0061702745 -1.2534735e-21)
(-0.001484112 0.0090444374 -4.6305463e-21)
(-0.0020317311 0.012182771 2.5395372e-21)
(-0.0026485235 0.015600687 -3.6607165e-21)
(-0.0033437036 0.019312107 1.5867875e-21)
(-0.0041277151 0.023328654 3.7868326e-22)
(-0.0050124152 0.027658624 -2.1499059e-21)
(-0.0060112419 0.032305758 -4.6492257e-21)
(-0.0071393955 0.037267766 -2.3303325e-22)
(-0.0084140168 0.04253462 7.7187202e-21)
(-0.0098543564 0.04808665 -1.074601e-20)
(-0.011481979 0.053892473 1.7494952e-20)
(-0.013320858 0.059906934 -4.6169455e-21)
(-0.015397471 0.066069116 9.9172984e-21)
(-0.017740902 0.072300821 -1.2159847e-20)
(-0.020382706 0.078506038 8.0209708e-21)
(-0.023356813 0.08457169 -1.2930717e-21)
(-0.026699238 0.090370438 -5.3456411e-21)
(-0.030447669 0.095766108 1.3277509e-20)
(-0.034640939 0.10062216 -1.9200363e-20)
(-0.039318386 0.10481314 2.1410678e-20)
(-0.044519144 0.10823819 3.7502366e-21)
(-0.050281501 0.11083465 -3.8018473e-20)
(-0.056642918 0.11258857 3.941265e-20)
(-0.063639003 0.11353879 -2.630237e-20)
(-0.071299823 0.11376901 3.017564e-20)
(-0.079651619 0.11338002 2.8490871e-21)
(-0.088719603 0.11246515 1.7960293e-21)
(-0.098519988 0.11109287 -1.2805113e-20)
(-0.10905502 0.1093176 8.0914533e-22)
(-0.12031658 0.10718097 -4.9891403e-20)
(-0.13228434 0.10471676 1.3814906e-20)
(-0.14492187 0.10195288 4.1698978e-20)
(-0.15817314 0.098903934 -1.9797806e-20)
(-0.17195693 0.095562542 1.6543746e-20)
(-0.18615924 0.09189586 -1.6692441e-20)
(-0.20062438 0.087848823 -9.3904447e-20)
(-0.21514497 0.083350761 5.2221439e-20)
(-0.22945066 0.078322225 1.275267e-20)
(-0.24319632 0.072680696 -7.2209829e-20)
(-0.2559542 0.066347934 4.3721133e-21)
(-0.26721318 0.059264265 8.8743932e-21)
(-0.27639647 0.051420592 9.3318533e-20)
(-0.28293773 0.042902835 2.1332733e-20)
(-0.28630609 0.033881622 -3.2996576e-20)
(-0.28602526 0.024540459 -3.3282389e-20)
(-0.28169573 0.015107733 -4.6621453e-20)
(-0.27302619 0.0058242745 -5.6776557e-20)
(-0.25977845 -0.0031571668 -3.432834e-20)
(-0.24172311 -0.011836664 -5.3583138e-20)
(-0.21847839 -0.020338804 1.8393222e-20)
(-0.18952213 -0.028824893 -1.135205e-19)
(-0.15401391 -0.03743508 -7.5936625e-21)
(-0.11096159 -0.046433659 -6.708356e-21)
(-0.058408953 -0.056261144 -3.6137903e-21)
(0.0058270276 -0.068156174 1.6047139e-19)
(0.085533536 -0.082301799 6.4782575e-20)
(0.17809486 -0.097963844 -1.0290383e-19)
(0.2823385 -0.11110926 -1.5424215e-19)
(0.38714766 -0.12167757 -7.1711777e-20)
(0.49312906 -0.12532797 -2.4277312e-20)
(0.58388359 -0.12526106 1.4523049e-19)
(0.67140958 -0.11800987 -3.7719194e-20)
(-0.00024288381 0.0012904555 -1.2096295e-21)
(-0.00075511237 0.003981739 -2.5889181e-21)
(-0.0013256169 0.0069352833 6.2538513e-21)
(-0.001961022 0.01017047 -2.331825e-22)
(-0.0026684116 0.013706539 -3.0524223e-21)
(-0.0034557688 0.017562015 -1.347357e-21)
(-0.0043319709 0.02175403 -9.9679281e-22)
(-0.0053068023 0.026297449 1.9694833e-21)
(-0.0063910549 0.031203771 -1.0227042e-20)
(-0.0075966074 0.036479781 7.7493104e-21)
(-0.0089365127 0.042125926 -3.7580274e-22)
(-0.01042508 0.0481344 -4.7390357e-21)
(-0.012077958 0.054486964 1.7860081e-20)
(-0.013912216 0.061152522 -1.7956077e-20)
(-0.015946419 0.068084581 2.4201685e-21)
(-0.018200695 0.075218804 1.5142102e-20)
(-0.02069681 0.082470903 -1.4450033e-20)
(-0.023458217 0.089735374 5.1424666e-21)
(-0.026510118 0.096885665 -1.0173557e-20)
(-0.029879501 0.1037765 1.3341134e-20)
(-0.03359517 0.1102492 2.563977e-20)
(-0.037687751 0.11614059 -2.6032229e-20)
(-0.042189625 0.1212957 -3.9103446e-20)
(-0.047134771 0.12558363 7.7431893e-20)
(-0.052558398 0.12891437 -6.3687705e-20)
(-0.058496588 0.13125319 3.7857398e-20)
(-0.064986183 0.13262794 -1.0009682e-20)
(-0.072059353 0.1331246 2.4110336e-20)
(-0.07974381 0.13286279 -2.526982e-20)
(-0.08806275 0.13195504 -3.4592459e-20)
(-0.097031888 0.13048648 2.3490777e-20)
(-0.10665312 0.12852394 3.9378124e-20)
(-0.11691153 0.12612016 -3.5727956e-21)
(-0.12778137 0.12331723 -1.5204463e-21)
(-0.13921828 0.12014917 -2.6606935e-20)
(-0.15115601 0.11663459 1.1666574e-20)
(-0.16350043 0.11276671 4.3266445e-20)
(-0.17612184 0.10850871 2.189007e-20)
(-0.18884613 0.10379655 -3.3878713e-20)
(-0.20144481 0.09854621 2.7014136e-20)
(-0.21362383 0.092661531 -2.2846801e-20)
(-0.22501336 0.086042406 7.7940472e-21)
(-0.23516411 0.078596334 2.9005311e-20)
(-0.2435541 0.070260387 -6.8885542e-20)
(-0.24962192 0.061043674 -4.0657217e-20)
(-0.25285842 0.051069672 -2.607137e-20)
(-0.25278578 0.040547853 8.0613622e-20)
(-0.24898851 0.029693887 5.1595038e-20)
(-0.24107348 0.018773099 5.9750436e-20)
(-0.22871205 0.008063007 1.0307918e-19)
(-0.21162263 -0.0022641631 -3.5218755e-20)
(-0.18952823 -0.012234217 7.4067745e-21)
(-0.16193129 -0.022035049 5.8832175e-20)
(-0.12817017 -0.031899418 1.7357641e-19)
(-0.087170865 -0.042038899 1.1570605e-19)
(-0.037657667 -0.052838146 4.6297784e-20)
(0.02273443 -0.064899837 1.3795626e-19)
(0.096304024 -0.079526711 -9.5634223e-20)
(0.18532408 -0.096303762 1.0263689e-20)
(0.2853273 -0.11383093 1.6594795e-19)
(0.39341887 -0.12741315 1.1736588e-19)
(0.49859053 -0.13706535 5.5899062e-21)
(0.59992612 -0.13856783 -2.0365927e-19)
(0.68270624 -0.13577431 2.1984529e-20)
(0.75797691 -0.12466316 -3.2625177e-20)
(-0.00030597568 0.0013914048 -4.7220352e-21)
(-0.00094850881 0.0042955601 2.1332726e-21)
(-0.001660073 0.0074856765 -2.8841686e-21)
(-0.0024475871 0.010983691 -1.6408793e-21)
(-0.0033183694 0.014811623 4.5856476e-21)
(-0.0042804025 0.018991043 4.2877207e-21)
(-0.0053422954 0.023542383 -4.4095418e-21)
(-0.006513248 0.028484062 5.3158957e-22)
(-0.007803065 0.033831357 1.2351006e-22)
(-0.0092221458 0.039595012 8.8194203e-21)
(-0.01078147 0.045779527 -9.7364452e-22)
(-0.012492574 0.05238112 -1.7983808e-20)
(-0.014367521 0.059385331 1.4485152e-20)
(-0.016418879 0.066764322 -5.0484339e-22)
(-0.018659705 0.074473931 -9.90311e-21)
(-0.021103548 0.082450663 -8.6410112e-22)
(-0.023764508 0.090608901 2.2302561e-21)
(-0.026657342 0.098838806 1.0228549e-20)
(-0.029797676 0.10700552 -1.9110934e-20)
(-0.033202319 0.11495057 3.4348523e-20)
(-0.036889719 0.12249639 -7.599345e-21)
(-0.040880499 0.12945494 5.7170084e-21)
(-0.04519807 0.13564096 -4.8503879e-21)
(-0.049869146 0.14088953 1.9414806e-22)
(-0.054923948 0.14507604 -3.0284544e-20)
(-0.060395895 0.14813503 -3.1017921e-20)
(-0.066320858 0.15007242 6.2973855e-20)
(-0.072734709 0.15096545 1.0719519e-20)
(-0.079666206 0.15094374 -3.8272997e-20)
(-0.087135907 0.15014452 -1.3899437e-20)
(-0.095160731 0.14867446 -3.1927232e-20)
(-0.10374182 0.14661015 3.6806302e-20)
(-0.11285963 0.14401749 1.6361552e-20)
(-0.12248132 0.14094886 -3.8715394e-20)
(-0.13255476 0.13744478 1.6567097e-20)
(-0.14300386 0.13352861 7.7906864e-21)
(-0.15372208 0.12919517 -2.3842119e-20)
(-0.16456453 0.12440466 -6.2850617e-20)
(-0.17533935 0.11908495 -1.9176767e-20)
(-0.18579793 0.11313924 1.294671e-20)
(-0.19562492 0.10645555 3.0768927e-20)
(-0.20443124 0.098918331 3.1695198e-20)
(-0.21175656 0.090425414 3.488954e-20)
(-0.21708556 0.080918331 7.264523e-20)
(-0.21989896 0.070433292 -1.9490597e-21)
(-0.2197544 0.059133015 3.008235e-20)
(-0.21623786 0.047248812 -1.5994708e-19)
(-0.20895344 0.035010058 -4.3717978e-20)
(-0.19746125 0.02269934 -4.9393763e-20)
(-0.18138237 0.010634815 -1.3543065e-19)
(-0.16040487 -0.00098098563 1.5707156e-19)
(-0.13417762 -0.012204819 -3.4945856e-20)
(-0.10205465 -0.023292549 -1.1254298e-19)
(-0.063170866 -0.034553442 -1.3938517e-19)
(-0.016122756 -0.046274332 -1.7994268e-20)
(0.04071428 -0.058965785 4.5821876e-20)
(0.1100593 -0.073283905 7.5530063e-20)
(0.19361021 -0.09038424 -3.2656509e-20)
(0.29180424 -0.1090531 6.1012662e-20)
(0.39860115 -0.12735943 -5.2392082e-20)
(0.50950065 -0.14035627 -1.8491957e-20)
(0.61318701 -0.14800343 -5.6729063e-20)
(0.70723462 -0.146559 2.5412608e-19)
(0.77916478 -0.14069921 8.8685054e-21)
(0.8396819 -0.12565582 1.0652919e-19)
(-0.00036582372 0.0014481428 4.3837341e-21)
(-0.0011321119 0.0044735845 7.8182164e-22)
(-0.001977786 0.0078005571 -8.5992573e-22)
(-0.0029100993 0.011453173 -4.230638e-21)
(-0.0039366548 0.01545592 5.0802476e-21)
(-0.0050655099 0.019833221 -4.3208466e-21)
(-0.0063051069 0.024608769 -2.06874e-21)
(-0.007664195 0.0298047 1.1135308e-22)
(-0.0091517601 0.035440503 1.756332e-21)
(-0.010776929 0.041531653 1.0023372e-20)
(-0.012548853 0.048087902 -1.6905072e-20)
(-0.014476573 0.055111198 2.0422613e-20)
(-0.016568877 0.062593186 -6.0381289e-21)
(-0.018834145 0.070512304 -8.2593327e-21)
(-0.021280217 0.078830506 1.2791012e-20)
(-0.0239143 0.087489746 -2.5506114e-20)
(-0.026742939 0.096408467 3.1336312e-20)
(-0.029772119 0.10547852 4.9812616e-22)
(-0.033007536 0.11456315 1.8587676e-20)
(-0.0364551 0.12349696 -7.5365623e-20)
(-0.040121718 0.13208901 1.8686263e-20)
(-0.044016352 0.14013024 7.9254791e-20)
(-0.048151307 0.14740621 -3.85042e-20)
(-0.052543536 0.15371545 -4.7203005e-20)
(-0.05721567 0.15889207 1.2217652e-20)
(-0.062196275 0.16282913 6.5578186e-20)
(-0.067518905 0.16549719 -1.0205901e-19)
(-0.073219656 0.16695059 1.1595125e-19)
(-0.079331571 0.16731452 -9.3405865e-20)
(-0.085875863 0.16674762 1.8287096e-20)
(-0.092863627 0.16538901 -3.1938215e-20)
(-0.1002975 0.16333187 -4.6300559e-20)
(-0.10815805 0.16064756 1.8703053e-20)
(-0.11640415 0.15740144 4.9733985e-21)
(-0.1249768 0.15364431 7.1288348e-20)
(-0.13378982 0.1494056 -1.4168812e-20)
(-0.14272486 0.14468276 3.6586289e-20)
(-0.15162263 0.13943425 -3.1228348e-20)
(-0.1602742 0.13358101 1.8857144e-20)
(-0.16841207 0.12701473 1.2252851e-20)
(-0.17570236 0.11960981 1.0500643e-20)
(-0.18174255 0.11123917 1.0450537e-20)
(-0.18607136 0.10179745 -6.3374506e-20)
(-0.18819385 0.091239186 -4.9368229e-20)
(-0.18764885 0.079633265 1.3870328e-20)
(-0.18404567 0.067177876 -8.5946504e-21)
(-0.17701769 0.054103045 3.5740131e-20)
(-0.16613684 0.040628191 -6.9710791e-20)
(-0.15091916 0.027046149 -8.0097321e-20)
(-0.13099555 0.013722291 -2.2970709e-20)
(-0.10603765 0.00088261912 -6.0264364e-20)
(-0.075565509 -0.011564835 1.9263585e-21)
(-0.038713116 -0.023950408 2.9190151e-20)
(0.0056957652 -0.036674012 1.4216114e-19)
(0.059467828 -0.050078886 -7.1790832e-20)
(0.12457469 -0.064764268 2.9417316e-20)
(0.20366568 -0.0812892 -8.7975968e-20)
(0.2973915 -0.10037359 1.5170453e-19)
(0.40454774 -0.12009686 -8.9191285e-20)
(0.51754274 -0.13800874 3.2168311e-20)
(0.62958334 -0.14916561 -5.3896485e-23)
(0.7287513 -0.15380353 2.6860286e-20)
(0.812061 -0.14887083 1.0384618e-19)
(0.86985642 -0.13992163 -1.9911813e-19)
(0.91303087 -0.12159167 2.090161e-19)
(-0.00041792127 0.0014589399 -9.6833915e-21)
(-0.0012921078 0.0045102838 -4.4102261e-21)
(-0.0022548662 0.0078699775 6.9303453e-21)
(-0.0033137964 0.011563812 -1.8262003e-22)
(-0.0044768209 0.015618306 -6.2829804e-21)
(-0.0057521457 0.02006038 -3.2911893e-21)
(-0.0071481653 0.024916763 6.954209e-21)
(-0.0086733511 0.030213266 -1.1447414e-21)
(-0.010336108 0.035973783 1.6203829e-20)
(-0.0121446 0.042219027 -3.1725625e-21)
(-0.014106541 0.048964914 -8.1470908e-23)
(-0.016228959 0.056220536 1.1809223e-20)
(-0.018517922 0.063985683 -3.8157998e-20)
(-0.020978264 0.072247854 1.7957533e-20)
(-0.023613301 0.080978773 3.2556601e-20)
(-0.026424595 0.090130466 -3.518846e-20)
(-0.029411796 0.099631083 4.3994347e-21)
(-0.032572635 0.1093808 -2.5498498e-20)
(-0.035903142 0.11924842 -1.9358532e-20)
(-0.039398206 0.12906953 6.2405959e-20)
(-0.043052536 0.13864747 -4.812993e-20)
(-0.046862125 0.14775861 6.5191538e-20)
(-0.050826144 0.1561634 -7.902814e-21)
(-0.054949104 0.16362407 3.3237821e-20)
(-0.059242882 0.16992866 -7.451231e-20)
(-0.063727959 0.17491857 1.816533e-20)
(-0.068433098 0.17851393 4.711919e-20)
(-0.073392691 0.18072879 -1.1690771e-19)
(-0.078641193 0.18166682 5.2084929e-20)
(-0.084205032 0.18149145 5.7239922e-20)
(-0.090093575 0.1803736 -4.8357303e-20)
(-0.096301264 0.17844319 -6.5208164e-21)
(-0.10281152 0.17578725 3.3700594e-20)
(-0.10958161 0.17247474 -1.9000062e-20)
(-0.11654239 0.1685645 2.9620338e-20)
(-0.12360056 0.16409628 -1.0592355e-19)
(-0.13062674 0.15907324 5.6414097e-20)
(-0.13744715 0.15345419 3.4361405e-20)
(-0.14383586 0.14715504 7.1156101e-20)
(-0.14950743 0.14005817 9.3612185e-21)
(-0.15411214 0.13202764 -7.7293436e-20)
(-0.15723906 0.12292996 3.114842e-20)
(-0.1584331 0.11266369 4.5861761e-20)
(-0.15722667 0.10120406 7.2296195e-21)
(-0.15321238 0.088652134 -4.3639714e-20)
(-0.14602655 0.07523057 -3.7946292e-20)
(-0.13531546 0.061151924 1.1394595e-19)
(-0.12061001 0.046615882 5.9621695e-20)
(-0.10146706 0.031928098 1.2804688e-19)
(-0.077577994 0.017489636 4.4609778e-20)
(-0.048557041 0.0035227629 1.7201781e-20)
(-0.013705713 -0.010120306 1.2696666e-19)
(0.028173527 -0.023846683 5.0062771e-20)
(0.078681528 -0.038124454 -1.6916318e-19)
(0.14005044 -0.053319916 1.3707333e-19)
(0.21436465 -0.070010931 -1.2766809e-19)
(0.30396293 -0.088432382 6.2487064e-20)
(0.40874912 -0.10876633 -3.0815392e-19)
(0.52524287 -0.12840835 -1.5789572e-19)
(0.64316318 -0.14463657 6.6044631e-20)
(0.75292404 -0.15286879 1.0589262e-19)
(0.84281079 -0.1537755 1.8065776e-19)
(0.91063521 -0.14534404 3.2910083e-20)
(0.95028991 -0.13383473 2.5657635e-20)
(0.97377585 -0.11334221 -2.7946707e-19)
(-0.00045804378 0.0014245157 -1.7380918e-22)
(-0.0014155196 0.004407603 8.1437493e-21)
(-0.0024688224 0.0076968769 -9.6097556e-21)
(-0.0036258766 0.011319203 -4.6301615e-21)
(-0.0048949278 0.015302545 9.2870677e-21)
(-0.0062843851 0.019675793 3.0136109e-21)
(-0.0078027077 0.024468275 -1.4648158e-20)
(-0.0094582735 0.029709158 1.5806971e-20)
(-0.011259176 0.035426613 3.3460047e-21)
(-0.013212992 0.041646716 1.3366289e-20)
(-0.015326489 0.048392013 -3.5673633e-20)
(-0.017605301 0.055679661 -4.3831727e-22)
(-0.020053547 0.063519088 3.2483281e-20)
(-0.022673418 0.071909083 -3.5188163e-20)
(-0.025464746 0.080834265 2.5468853e-20)
(-0.028424595 0.090260931 9.5673957e-21)
(-0.03154691 0.10013236 -2.0297887e-20)
(-0.034822319 0.11036382 1.8649023e-20)
(-0.038238182 0.12083774 2.533251e-20)
(-0.041779015 0.1313999 -5.5209367e-22)
(-0.045427464 0.14185778 -4.1911717e-20)
(-0.049165911 0.15198278 2.6611091e-20)
(-0.052978832 0.16151819 -1.524475e-20)
(-0.056855695 0.1701945 -7.5909151e-20)
(-0.060794096 0.17775289 -2.6071835e-20)
(-0.06480233 0.18397541 7.290108e-20)
(-0.068900343 0.18871696 -7.4739091e-21)
(-0.073117906 0.19193086 8.6672428e-20)
(-0.077489049 0.19367715 -5.2628119e-20)
(-0.082042842 0.1941032 2.841615e-20)
(-0.086793064 0.19339672 -4.2191654e-20)
(-0.091734181 0.1917299 -1.0488586e-20)
(-0.096839229 0.18922486 5.4091187e-20)
(-0.10206074 0.18596439 -5.7051662e-20)
(-0.10733039 0.18201679 -8.5119518e-20)
(-0.11254714 0.17742916 8.9878663e-21)
(-0.11757016 0.17221004 9.5869061e-20)
(-0.1222123 0.16632045 -1.2481309e-19)
(-0.1262311 0.15967433 2.7435694e-20)
(-0.12932448 0.1521486 -5.9141934e-20)
(-0.1311296 0.14360153 9.1427537e-21)
(-0.13123136 0.13389877 -9.3355399e-20)
(-0.12918462 0.12294869 -4.4793839e-20)
(-0.12455128 0.11074936 -5.511247e-20)
(-0.11695145 0.097432559 2.2068058e-19)
(-0.10603777 0.083230742 7.1120186e-20)
(-0.091448407 0.068338946 -9.4084201e-20)
(-0.072729077 0.052943059 7.5804177e-20)
(-0.0495516 0.037359167 6.2780815e-20)
(-0.021637507 0.021983409 -7.0407852e-20)
(0.011551329 0.0069901334 -3.6636506e-20)
(0.051046293 -0.0078463371 -8.566497e-20)
(0.098505957 -0.022974746 -4.1620979e-20)
(0.15602672 -0.038899035 1.4279008e-19)
(0.2261382 -0.055904466 8.1097814e-20)
(0.31107363 -0.074404678 1.3131412e-20)
(0.41332229 -0.094202353 -3.3478136e-22)
(0.53104663 -0.11471233 7.5703517e-20)
(0.65655338 -0.13276812 -1.1407832e-19)
(0.77568247 -0.14571495 -1.5077888e-19)
(0.87669757 -0.15011719 -4.2985778e-20)
(0.94982834 -0.14750165 -3.3464836e-19)
(0.99523461 -0.13658822 -2.7164783e-19)
(1.0124558 -0.12394377 -7.0119877e-20)
(1.0157528 -0.10369677 -3.8096265e-20)