/*--------------------------------*- C++ -*----------------------------------*\
  =========                 |
  \\      /  F ield         | OpenFOAM: The Open Source CFD Toolbox
   \\    /   O peration     | Website:  https://openfoam.org
    \\  /    A nd           | Version:  13
     \\/     M anipulation  |
\*---------------------------------------------------------------------------*/
FoamFile
{
    format      ascii;
    class       volScalarField;
    location    "0.0964789";
    object      pPrime2Mean;
}
// * * * * * * * * * * * * * * * * * * * * * * * * * * * * * * * * * * * * * //

dimensions      [0 4 -4 0 0 0 0];

internalField   nonuniform List<scalar> 
17140
(
2947468.4
2947468.3
2947468.2
2947468.1
2947467.8
2947467.4
2947466.9
2947466.2
2947465.3
2947464.1
2947462.7
2947460.8
2947458.5
2947455.5
2947451.8
2947447.1
2947441.1
2947433.6
2947424
2947411.7
2947396.1
2947376.1
2947350.5
2947317.9
2947276.1
2947222.9
2947155.3
2947069.7
2946961.7
2946826
2946656
2946443.9
2946180
2945852.2
2945446.3
2944945.1
2944327.9
2943571
2942646.4
2941522.4
2940162.7
2938526.5
2936567.8
2934235.1
2931471.4
2928213.3
2924391.4
2919929.2
2914743.5
2908743.5
2901830.3
2893897
2884827.7
2874496.9
2862769.3
2849498.8
2834527.5
2817685.2
2798788.2
2777638.4
2754021.7
2727706.4
2698437.5
2665953.6
2629952.6
2947541.2
2947541.2
2947541.1
2947540.9
2947540.6
2947540.2
2947539.7
2947539
2947538.1
2947536.9
2947535.4
2947533.5
2947531.2
2947528.2
2947524.4
2947519.6
2947513.6
2947505.9
2947496.1
2947483.7
2947467.9
2947447.7
2947421.9
2947389
2947347.1
2947293.8
2947226.1
2947140.5
2947032.7
2946897.3
2946727.8
2946516.3
2946252.9
2945925.7
2945520.5
2945019.8
2944403.3
2943646.9
2942722.9
2941599.6
2940240.6
2938605.3
2936647.6
2934316.1
2931553.7
2928297.2
2924477
2920016.8
2914833.4
2908835.9
2901925.8
2893995.9
2884930.5
2874604.2
2862881.8
2849617.1
2834652.4
2817817.7
2798929.1
2777788.8
2754182.6
2727879.4
2698623.9
2666155.4
2630168.8
2947722.5
2947722.5
2947722.4
2947722.2
2947721.9
2947721.5
2947720.9
2947720.2
2947719.2
2947718
2947716.5
2947714.5
2947712
2947708.9
2947704.9
2947700
2947693.7
2947685.8
2947675.7
2947663
2947646.8
2947626.2
2947600.1
2947566.9
2947524.7
2947471.2
2947403.6
2947318.3
2947210.9
2947076.2
2946907.7
2946697.2
2946434.9
2946109
2945704.9
2945205.4
2944590
2943834.8
2942912.1
2941790.2
2940433
2938799.6
2936844.2
2934515.6
2931756.5
2928503.9
2924688.1
2920232.9
2915055.1
2909064.1
2902161.3
2894239.9
2885184.2
2874869.2
2863159.5
2849909.4
2834961.1
2818144.9
2799277.1
2778160.1
2754580.1
2728306.2
2699082.9
2666652.2
2630701.3
2948016.5
2948016.5
2948016.4
2948016.2
2948015.8
2948015.4
2948014.8
2948014
2948013
2948011.7
2948010.1
2948008
2948005.4
2948002.1
2947997.9
2947992.7
2947986.2
2947977.9
2947967.6
2947954.5
2947937.9
2947917
2947890.6
2947857.2
2947815
2947761.6
2947694.3
2947609.5
2947502.9
2947369.3
2947202
2946992.9
2946732.1
2946407.7
2946005.2
2945507.2
2944893.5
2944140
2943219.3
2942099.7
2940745.1
2939114.9
2937163.4
2934839.3
2932085.6
2928839.2
2925030.6
2920583.5
2915414.8
2909434.3
2902543.6
2894636.1
2885596.5
2875299.8
2863611.1
2850384.7
2835463.3
2818677.3
2799843.5
2778764.5
2755227
2729000.8
2699829.8
2667460.1
2631566.4
2948428.1
2948428.1
2948428
2948427.7
2948427.4
2948426.9
2948426.3
2948425.5
2948424.4
2948423.1
2948421.3
2948419.2
2948416.4
2948413
2948408.7
2948403.3
2948396.5
2948388.1
2948377.5
2948364.1
2948347.4
2948326.3
2948299.8
2948266.4
2948224.3
2948171.3
2948104.6
2948020.6
2947915.1
2947782.6
2947616.7
2947409.1
2947150
2946827.2
2946426.4
2945930.4
2945318.7
2944567.6
2943649.6
2942533.1
2941182.2
2939556.6
2937610.5
2935292.9
2932546.8
2929309
2925510.2
2921074.4
2915918.6
2909952.9
2903079.3
2895191.5
2886174.6
2875904
2864244.9
2851052.1
2836168.6
2819425.2
2800639.2
2779613.8
2756136
2729976.8
2700879.3
2668595.3
2632782.4
2948962.1
2948962.1
2948961.9
2948961.7
2948961.4
2948960.9
2948960.3
2948959.4
2948958.3
2948956.9
2948955.2
2948953
2948950.2
2948946.7
2948942.3
2948936.9
2948930.1
2948921.6
2948910.9
2948897.6
2948880.9
2948860
2948833.7
2948800.6
2948759
2948706.7
2948640.7
2948557.8
2948453.4
2948322.3
2948157.7
2947951.6
2947694.1
2947373.1
2946974.2
2946480.4
2945871.2
2945123
2944208.4
2943096
2941750.1
2940130.4
2938191.4
2935882.2
2933145.8
2929919.3
2926133.3
2921712
2916573.1
2910626.8
2903775.6
2895913.7
2886926.6
2876690.1
2865069.9
2851921
2837087
2820399.2
2801675.6
2780720.1
2757320.1
2731248.2
2702246.5
2670074.4
2634367
2949624.9
2949624.8
2949624.7
2949624.5
2949624.2
2949623.7
2949623.1
2949622.2
2949621.2
2949619.8
2949618
2949615.9
2949613.1
2949609.7
2949605.4
2949600
2949593.3
2949585
2949574.5
2949561.5
2949545.1
2949524.6
2949498.8
2949466.4
2949425.6
2949374.1
2949309.1
2949227.3
2949124.1
2948994.2
2948831
2948626.4
2948370.4
2948051.1
2947654.3
2947162.9
2946556.6
2945812
2944901.6
2943794.3
2942454.6
2940842.3
2938912.2
2936613.3
2933889
2930676.2
2926906
2922503
2917385
2911463
2904639.8
2896810.4
2887860.7
2877666.8
2866095.1
2853001
2838228.7
2821610.2
2802964.5
2782095.9
2758792.8
2732829.4
2703947
2671914.1
2636338.9
2950423.5
2950423.5
2950423.4
2950423.2
2950422.9
2950422.4
2950421.8
2950421
2950420
2950418.7
2950417
2950414.9
2950412.3
2950409
2950404.9
2950399.8
2950393.3
2950385.3
2950375.3
2950362.7
2950346.9
2950327.1
2950302.1
2950270.5
2950230.6
2950180.2
2950116.3
2950035.6
2949933.6
2949804.9
2949642.9
2949439.6
2949185
2948867.5
2948472.9
2947984.1
2947381.1
2946640.5
2945735.1
2944633.9
2943301.6
2941698.3
2939778.8
2937492.4
2934782.4
2931586.2
2927835
2923454
2918361.4
2912468.8
2905679.7
2897889.7
2888985.1
2878842.9
2867329.8
2854301.9
2839604.1
2823069.5
2804517.6
2783754
2760567.8
2734735.3
2705996.7
2674131.7
2638716.8
2951366.4
2951366.3
2951366.2
2951366
2951365.7
2951365.3
2951364.7
2951364
2951363
2951361.8
2951360.3
2951358.3
2951355.9
2951352.8
2951348.9
2951344.1
2951338.1
2951330.5
2951321
2951309
2951293.9
2951274.9
2951250.8
2951220.2
2951181.3
2951131.9
2951069.1
2950989.4
2950888.4
2950760.8
2950599.9
2950397.7
2950144.6
2949828.8
2949436.3
2948950.3
2948350.9
2947614.9
2946715.2
2945621.1
2944297.6
2942704.7
2940797.6
2938525.6
2935832.4
2932655.6
2928926.9
2924571.8
2919509.4
2913651.7
2906903
2899159.6
2890308.6
2880227.4
2868783.5
2855833.8
2841224
2824788.2
2806347.1
2785707.3
2762658.9
2736980.7
2708411.7
2676744.8
2641519.7
2952462.3
2952462.3
2952462.2
2952462
2952461.7
2952461.3
2952460.8
2952460.1
2952459.2
2952458.1
2952456.7
2952454.9
2952452.6
2952449.7
2952446.1
2952441.6
2952436
2952428.8
2952419.8
2952408.5
2952394.1
2952375.8
2952352.5
2952322.7
2952284.7
2952236.2
2952174.3
2952095.5
2951995.4
2951868.5
2951708.5
2951507.4
2951255.6
2950941.5
2950551.3
2950068.2
2949472.8
2948741.8
2947848.6
2946762.6
2945448.9
2943868
2941974.9
2939719.5
2937045.5
2933891.1
2930188.4
2925863.6
2920836.4
2915019.3
2908317.8
2900628.6
2891839.9
2881829.6
2870466
2857606.9
2843099.3
2826778.1
2808465.4
2787969
2765080.3
2739580.8
2711208.4
2679771.2
2644767
2953719.3
2953719.3
2953719.2
2953719
2953718.8
2953718.4
2953717.9
2953717.3
2953716.5
2953715.5
2953714.1
2953712.4
2953710.3
2953707.7
2953704.3
2953700.1
2953694.7
2953688
2953679.4
2953668.5
2953654.7
2953636.9
2953614.3
2953585.2
2953547.8
2953499.9
2953438.7
2953360.4
2953260.9
2953134.7
2952975.4
2952775.2
2952524.6
2952212.2
2951824.3
2951344.5
2950753.2
2950027.7
2949141.7
2948064.7
2946762.1
2945194.5
2943317.3
2941080.4
2938428.3
2935299.4
2931626.7
2927336.7
2922349.8
2916579.6
2909932.2
2902305.4
2893587.9
2883658.8
2872387.1
2859631.8
2845240.9
2829050.9
2810885
2790552.6
2767846.4
2742551.3
2714403.5
2683228.9
2648478.2
2955144.9
2955144.8
2955144.8
2955144.6
2955144.4
2955144
2955143.6
2955143
2955142.2
2955141.2
2955139.9
2955138.3
2955136.3
2955133.8
2955130.5
2955126.5
2955121.3
2955114.8
2955106.5
2955095.9
2955082.3
2955064.9
2955042.5
2955013.7
2954976.7
2954929.2
2954868.2
2954790.3
2954691
2954565.3
2954406.6
2954207.2
2953957.9
2953647.2
2953261.8
2952785.3
2952198.7
2951479.3
2950601.2
2949534.1
2948243.7
2946690.8
2944831.1
2942615
2939987.4
2936887.5
2933248.7
2928998.3
2924057.4
2918340.4
2911754.6
2904198.5
2895561.9
2885724.6
2874556.8
2861918.9
2847660.2
2831618.6
2813618.7
2793471.5
2770971.6
2745907.5
2718013.9
2687136.3
2652672.8
2956744
2956743.9
2956743.9
2956743.7
2956743.5
2956743.2
2956742.7
2956742.1
2956741.4
2956740.4
2956739.2
2956737.6
2956735.6
2956733.1
2956729.9
2956725.9
2956720.8
2956714.3
2956706.1
2956695.6
2956682.1
2956664.7
2956642.4
2956613.7
2956576.7
2956529.2
2956468.2
2956390.4
2956291.3
2956165.9
2956007.8
2955809.3
2955561.2
2955252.5
2954869.8
2954397.1
2953815.5
2953102.9
2952233.4
2951177.2
2949900.1
2948363.4
2946523
2944330
2941729.8
2938662.4
2935061.7
2930855.9
2925966.8
2920310
2913793.4
2906316.8
2897770.8
2888036.4
2876985.3
2864479
2850368.5
2834493.2
2816679.2
2796739.6
2774470.7
2749665.5
2722056.3
2691511.7
2657370.3
2958520.9
2958520.8
2958520.8
2958520.6
2958520.4
2958520.1
2958519.6
2958519
2958518.3
2958517.3
2958516
2958514.5
2958512.5
2958509.9
2958506.7
2958502.7
2958497.5
2958491
2958482.7
2958472.1
2958458.5
2958441
2958418.5
2958389.7
2958352.5
2958304.8
2958243.8
2958165.9
2958067
2957941.9
2957784.4
2957586.9
2957340.4
2957033.8
2956654.1
2956185.6
2955609.7
2954904.5
2954044.5
2953000.2
2951737.8
2950218.6
2948399.5
2946232
2943662.4
2940631.2
2937073.2
2932917.1
2928086
2922496.3
2916057
2908668.9
2900223.9
2890604.1
2879682.7
2867322.9
2853377.3
2837686.8
2820079.5
2800370.6
2778358.5
2753840.9
2726547.8
2696373.5
2662590.4
2960479.4
2960479.3
2960479.2
2960479.1
2960478.9
2960478.5
2960478.1
2960477.5
2960476.7
2960475.7
2960474.4
2960472.8
2960470.7
2960468.1
2960464.9
2960460.7
2960455.5
2960448.8
2960440.4
2960429.6
2960415.8
2960398.1
2960375.4
2960346.3
2960309
2960261.1
2960200
2960122.1
2960023.4
2959898.7
2959742
2959545.7
2959300.9
2958996.9
2958620.7
2958157
2957587.4
2956890.4
2956040.9
2955009.6
2953763
2952263.1
2950467.4
2948328.1
2945792.2
2942801.1
2939290.3
2935189.6
2930422.8
2924907.5
2918553.9
2911263.9
2902930.3
2893437.3
2882659.3
2870461.5
2856698.2
2841211.9
2823832.8
2804378.4
2782649.8
2758449.7
2731505.4
2701739.9
2668352.2
2962624
2962624
2962623.9
2962623.7
2962623.5
2962623.2
2962622.7
2962622.1
2962621.3
2962620.2
2962618.9
2962617.3
2962615.2
2962612.5
2962609.2
2962604.9
2962599.6
2962592.8
2962584.2
2962573.2
2962559.2
2962541.4
2962518.5
2962489.1
2962451.6
2962403.6
2962342.4
2962264.7
2962166.3
2962042.2
2961886.5
2961691.6
2961448.9
2961147.8
2960775.6
2960317.2
2959754.7
2959066.8
2958228.7
2957211.5
2955982.2
2954503.4
2952733.3
2950625
2948126.3
2945179.3
2941720.6
2937680.9
2932985.1
2927551.9
2921292.5
2914110.3
2905899.5
2896545.7
2885925.5
2873905.8
2860342.6
2845080.6
2827952
2808777.1
2787359.5
2763507.8
2736946
2707629
2674675
2964960.7
2964960.7
2964960.6
2964960.4
2964960.2
2964959.8
2964959.3
2964958.7
2964957.9
2964956.8
2964955.5
2964953.8
2964951.7
2964949
2964945.5
2964941.2
2964935.8
2964928.9
2964920.2
2964909.1
2964894.9
2964876.9
2964853.8
2964824.4
2964786.7
2964738.7
2964677.7
2964600.2
2964502.2
2964378.9
2964224.3
2964031.2
2963790.8
2963493
2963125.3
2962672.8
2962118
2961440
2960614.3
2959612.4
2958402
2956946.3
2955204.2
2953129.8
2950671.8
2947773.2
2944371.6
2940398.6
2935780.6
2930437.3
2924281.2
2917216.9
2909140.4
2899939.2
2889491.7
2877666.6
2864322.2
2849305.2
2832450.2
2813580.5
2792502.5
2769031
2742886.3
2714058.9
2681577.3
2967496.2
2967496.2
2967496.1
2967496
2967495.7
2967495.4
2967494.9
2967494.2
2967493.4
2967492.3
2967491
2967489.2
2967487.1
2967484.3
2967480.8
2967476.5
2967471
2967464
2967455.2
2967444
2967429.8
2967411.6
2967388.5
2967359
2967321.4
2967273.4
2967212.5
2967135.4
2967038.1
2966915.6
2966762.3
2966571
2966333.4
2966039.1
2965676.3
2965230.3
2964683.9
2964016.5
2963204.1
2962218.9
2961028.9
2959598.4
2957887
2955849.6
2953436
2950590.1
2947250.5
2943350.5
2938817.2
2933571.9
2927528.3
2920592.5
2912662.4
2903627.4
2893368
2881754.9
2868648.6
2853897.9
2837340.4
2818802.5
2798093.5
2775035
2749343
2721047.2
2689077.5
2970237.2
2970237.2
2970237.1
2970236.9
2970236.7
2970236.3
2970235.8
2970235.2
2970234.3
2970233.2
2970231.9
2970230.1
2970227.9
2970225.2
2970221.7
2970217.3
2970211.8
2970204.8
2970195.9
2970184.7
2970170.4
2970152.3
2970129.2
2970099.7
2970062.2
2970014.4
2969953.8
2969877.1
2969780.5
2969659.1
2969507.2
2969318
2969083.2
2968793
2968435.4
2967996.4
2967458.9
2966803
2966004.9
2965037.5
2963869.8
2962466.5
2960788.5
2958791.4
2956425.8
2953637.1
2950364.9
2946543.9
2942102.6
2936963.5
2931042
2924245.8
2916474.6
2907620
2897564.7
2886181.5
2873333.1
2858871
2842635.7
2824456.9
2804147.1
2781535.4
2756332.5
2728611.3
2697193.5
2973189.3
2973189.3
2973189.2
2973189
2973188.8
2973188.4
2973187.9
2973187.3
2973186.5
2973185.4
2973184
2973182.3
2973180.1
2973177.3
2973173.8
2973169.5
2973163.9
2973156.9
2973148.1
2973136.9
2973122.7
2973104.6
2973081.6
2973052.3
2973015
2972967.5
2972907.3
2972831.2
2972735.4
2972615.3
2972465.1
2972278.3
2972046.8
2971760.9
2971409.1
2970977.5
2970449.6
2969805.8
2969023.1
2968075
2966931.2
2965557.6
2963915.6
2961962
2959648.4
2956921.2
2953721.9
2949986.2
2945644.3
2940620
2934830.5
2928185.2
2920586
2911926.6
2902091.8
2890957
2878387.1
2864236.6
2848348.8
2830557.2
2810677.7
2788547.2
2763870.6
2736768.1
2705942.7
2976356.4
2976356.4
2976356.3
2976356.1
2976355.9
2976355.5
2976355.1
2976354.4
2976353.6
2976352.5
2976351.2
2976349.5
2976347.3
2976344.6
2976341.2
2976336.8
2976331.4
2976324.5
2976315.8
2976304.7
2976290.7
2976272.8
2976250.1
2976221.1
2976184.2
2976137.2
2976077.8
2976002.6
2975908
2975789.4
2975641.4
2975457.4
2975229.7
2974948.7
2974603.2
2974179.7
2973662.1
2973031.4
2972265.1
2971337.8
2970219.9
2968878.1
2967275
2965368.1
2963110.3
2960449.5
2957328.5
2953684.6
2949449.6
2944549.1
2938901.7
2932419.2
2925005.5
2916556.5
2906959.3
2896091.9
2883821.8
2870006.3
2854492.3
2837116.8
2817699.4
2796085.5
2771972.9
2745533.9
2715341.3
2979741.6
2979741.6
2979741.5
2979741.4
2979741.1
2979740.8
2979740.3
2979739.7
2979738.9
2979737.9
2979736.6
2979734.9
2979732.9
2979730.2
2979726.9
2979722.7
2979717.4
2979710.7
2979702.2
2979691.5
2979677.8
2979660.3
2979638
2979609.6
2979573.4
2979527.3
2979468.9
2979395.1
2979302.2
2979185.7
2979040.5
2978860.1
2978636.9
2978361.5
2978023.2
2977608.6
2977102.2
2976485.6
2975737.1
2974832.1
2973742
2972434.5
2970872.9
2969016
2966818.1
2964228.4
2961191.4
2957646.1
2953525.9
2948758.1
2943263.6
2936956.1
2929741.7
2921518.7
2912176.8
2901596.4
2889648
2876192
2861078.6
2844149
2825226.2
2804164.8
2780654.5
2754924.5
2725405
2983347.8
2983347.8
2983347.7
2983347.6
2983347.4
2983347.1
2983346.6
2983346
2983345.3
2983344.3
2983343.1
2983341.5
2983339.6
2983337.1
2983333.9
2983330
2983324.9
2983318.6
2983310.5
2983300.2
2983287
2983270.2
2983248.7
2983221.2
2983186.1
2983141.3
2983084.4
2983012.5
2982921.8
2982808.3
2982666.5
2982490.4
2982272.4
2982003.7
2981673.4
2981268.9
2980774.9
2980173.7
2979444.6
2978563.7
2977503.5
2976232.5
2974715.3
2972911.9
2970777.9
2968264.3
2965317.1
2961877.3
2957880
2953254.5
2947923.8
2941803.8
2934803
2926822.2
2917753.6
2907480.6
2895876.6
2882805
2868119.9
2851666.6
2833271.6
2812799.3
2789929.9
2764955.1
2736148.7
2987180.3
2987180.2
2987180.2
2987180
2987179.8
2987179.5
2987179.1
2987178.6
2987177.9
2987177
2987175.9
2987174.4
2987172.6
2987170.3
2987167.4
2987163.7
2987159
2987153
2987145.4
2987135.6
2987123.2
2987107.2
2987086.7
2987060.3
2987026.5
2986983.3
2986928.4
2986858.7
2986770.9
2986660.6
2986523.1
2986352.1
2986140.3
2985879.1
2985558.1
2985164.7
2984684.5
2984100.3
2983392.3
2982537.4
2981509.1
2980277.2
2978807.3
2977060.9
2974995.2
2972562.9
2969711.8
2966384.6
2962518.6
2958045.2
2952889.5
2946969.9
2940197.4
2932475.3
2923698.8
2913754.1
2902517.7
2889856.4
2875627.9
2859682.2
2841848.9
2822002.9
2799813.2
2775640.4
2747586.2
2991245.4
2991245.4
2991245.3
2991245.2
2991245
2991244.7
2991244.3
2991243.9
2991243.2
2991242.4
2991241.4
2991240
2991238.4
2991236.2
2991233.5
2991230.1
2991225.7
2991220.2
2991213
2991203.9
2991192.1
2991177
2991157.5
2991132.3
2991100
2991058.5
2991005.6
2990938.4
2990853.6
2990747.1
2990614.2
2990448.8
2990244
2989991.2
2989680.3
2989299.4
2988834.5
2988269
2987583.9
2986757.1
2985763.1
2984572.9
2983153.5
2981468
2979475.3
2977129.7
2974381.1
2971174
2967448
2963136.7
2958167.6
2952461.5
2945932.2
2938486.1
2930021
2920426.1
2909581.3
2897356.9
2883614.3
2868207.9
2850970.8
2831788.8
2810317.9
2786994.9
2759731.1
2995550.8
2995550.8
2995550.7
2995550.6
2995550.4
2995550.2
2995549.8
2995549.4
2995548.8
2995548
2995547
2995545.8
2995544.2
2995542.2
2995539.7
2995536.4
2995532.3
2995527
2995520.3
2995511.6
2995500.4
2995485.9
2995467.2
2995443
2995411.9
2995371.9
2995320.8
2995256
2995174.1
2995071.4
2994943.1
2994783.6
2994586.1
2994342.4
2994042.8
2993675.7
2993227.5
2992682.6
2992022.4
2991226
2990268.8
2989123.2
2987757.8
2986137.4
2984222.6
2981969.5
2979330
2976250.9
2972673.9
2968535
2963764.2
2958285.1
2952014.6
2944862
2936728.1
2927505.3
2917076.8
2905316.6
2892090
2877255.6
2860649.8
2842170.1
2821456.9
2799032.3
2772596.5
3000102.2
3000102.2
3000102.2
3000102.1
3000101.9
3000101.6
3000101.3
3000100.9
3000100.3
3000099.5
3000098.6
3000097.4
3000095.8
3000093.9
3000091.4
3000088.2
3000084.2
3000079
3000072.4
3000063.9
3000053
3000038.8
3000020.5
2999997
2999966.6
2999927.7
2999878
2999815.1
2999735.8
2999636.6
2999512.8
2999359.3
2999169.5
2998935.5
2998648
2998295.8
2997865.9
2997343.2
2996710.1
2995946.3
2995028.7
2993931
2992623.4
2991072.6
2989240.8
2987086.4
2984563.1
2981619.9
2978201
2974245.1
2969684.7
2964446.6
2958450.8
2951609.7
2943827.5
2934999.8
2925013.1
2913745.5
2901065.7
2886836.7
2870897.9
2853159.6
2833243.2
2811766
2786195.9
3004901.8
3004901.8
3004901.7
3004901.6
3004901.4
3004901.2
3004900.9
3004900.4
3004899.8
3004899
3004898.1
3004896.8
3004895.2
3004893.2
3004890.7
3004887.5
3004883.4
3004878.2
3004871.5
3004863
3004852
3004837.9
3004819.7
3004796.4
3004766.4
3004728.1
3004679.5
3004618.1
3004541.1
3004445
3004325.7
3004178.2
3003996.3
3003772.5
3003497.8
3003161.7
3002751.5
3002252.7
3001648.6
3000919.9
3000044.7
2998998.3
2997752.6
2996276
2994532.9
2992483.4
2990083.5
2987284.5
2984033.3
2980271
2975933.6
2970950.8
2965246
2958735.2
2951325.9
2942916.9
2933398.6
2922652.6
2910551.5
2896962.3
2881727
2864769.7
2845689.6
2825208.8
2800543.8
3009948.1
3009948.1
3009948
3009947.9
3009947.7
3009947.5
3009947.1
3009946.6
3009946
3009945.2
3009944.2
3009942.9
3009941.2
3009939.2
3009936.5
3009933.2
3009929
3009923.6
3009916.8
3009908.1
3009897
3009882.7
3009864.4
3009841.1
3009811.3
3009773.5
3009725.7
3009665.7
3009590.9
3009498.1
3009383.3
3009242
3009068.4
3008855.3
3008594.2
3008275
3007885.7
3007412.4
3006839.2
3006147.9
3005318.1
3004326.5
3003146.9
3001749.5
3000100.6
2998162.5
2995893.3
2993247.2
2990173.2
2986615.9
2982514.3
2977801.7
2972405
2966243.6
2959228.9
2951263.3
2942240.8
2932046.6
2920557
2907643.3
2893148.9
2877013.3
2858809.6
2839374.2
2815656.7
3015236.4
3015236.4
3015236.4
3015236.2
3015236
3015235.8
3015235.4
3015234.9
3015234.3
3015233.5
3015232.4
3015231.1
3015229.4
3015227.3
3015224.6
3015221.2
3015216.9
3015211.4
3015204.5
3015195.8
3015184.6
3015170.3
3015152.1
3015129
3015099.6
3015062.5
3015015.9
3014957.6
3014885.4
3014796.1
3014686.4
3014551.8
3014386.9
3014185.1
3013938.3
3013636.9
3013269.5
3012823
3012282.4
3011630.8
3010849.2
3009916.1
3008806.9
3007493.6
3005944.6
3004124.4
3001993.6
2999508.9
2996622.3
2993281.6
2989429.2
2985002.2
2979931
2974139
2967541.4
2960044.7
2951546.4
2941935.5
2931091.7
2918890.4
2905175.6
2889903.7
2872618.1
2854278.2
2831553.2
3020762.2
3020762.2
3020762.1
3020762
3020761.8
3020761.5
3020761.2
3020760.7
3020760.1
3020759.2
3020758.2
3020756.9
3020755.2
3020753.1
3020750.5
3020747.2
3020743
3020737.6
3020730.9
3020722.3
3020711.4
3020697.5
3020679.8
3020657.4
3020629
3020593.2
3020548.3
3020492.6
3020423.7
3020338.8
3020234.9
3020107.7
3019952.2
3019762.3
3019530.3
3019247.3
3018902.7
3018484.2
3017977.9
3017368.4
3016638
3015766.8
3014732.1
3013507.8
3012064.4
3010368.7
3008384
3006069.6
3003380.8
3000268.7
2996679.5
2992554
2987826.5
2982424.4
2976267.3
2969265.7
2961321.3
2952326.6
2942164.7
2930714.7
2917819.8
2903455
2887131.6
2869948.1
2848247.4
3026521.4
3026521.4
3026521.3
3026521.2
3026521
3026520.8
3026520.4
3026520
3026519.4
3026518.7
3026517.7
3026516.5
3026515
3026513.1
3026510.6
3026507.5
3026503.7
3026498.7
3026492.5
3026484.5
3026474.3
3026461.3
3026444.8
3026423.8
3026397.1
3026363.5
3026321.5
3026269.1
3026204.5
3026125
3026027.5
3025908.5
3025763.1
3025585.6
3025369
3025105.1
3024784.1
3024394.9
3023924.8
3023359.5
3022683.2
3021877.4
3020921.3
3019790.8
3018458.6
3016894
3015063.1
3012928.2
3010448
3007577
3004265.3
3000457.6
2996092.5
2991101.6
2985409.1
2978930.1
2971570.5
2963226.5
2953784.6
2943127.3
2931095.2
2917682.5
2902365.9
2886379.4
2865795.2
3032513.2
3032513.2
3032513.2
3032513.1
3032512.9
3032512.7
3032512.4
3032512
3032511.5
3032510.9
3032510.1
3032509.1
3032507.7
3032506.1
3032504
3032501.3
3032497.9
3032493.6
3032488.1
3032481.1
3032472.1
3032460.5
3032445.6
3032426.6
3032402.3
3032371.7
3032333.1
3032285
3032225.3
3032151.8
3032061.6
3031951.2
3031816.4
3031651.9
3031451.4
3031207.4
3030911.2
3030552.7
3030120.6
3029602.1
3028982.7
3028245.8
3027372.3
3026340.3
3025124.8
3023697.9
3022028.6
3020082.6
3017821.9
3015204.8
3012185.3
3008712.2
3004728.7
3000171
2994968.1
2989040.2
2982297.8
2974641.2
2965960
2956139.9
2945017.4
2932607.3
2918328.8
2903623.3
2884214.9
3038737.7
3038737.7
3038737.6
3038737.6
3038737.4
3038737.3
3038737
3038736.7
3038736.4
3038735.8
3038735.2
3038734.4
3038733.3
3038732
3038730.3
3038728.1
3038725.3
3038721.8
3038717.2
3038711.3
3038703.6
3038693.6
3038680.7
3038664
3038642.5
3038615
3038580.3
3038536.7
3038482.3
3038415.1
3038332.3
3038231
3038107.3
3037956.4
3037772.7
3037549.7
3037279.7
3036953.8
3036561.9
3036092.7
3035533.3
3034868.8
3034081.9
3033152.9
3032059.6
3030776.9
3029277.2
3027529.4
3025499.4
3023149.1
3020436.6
3017315.4
3013733.2
3009631.4
3004944.2
2999597.1
2993506
2986575.5
2978698.6
2969764.5
2959604
2948234.5
2935052.8
2921703.6
2903527.8
3045195.4
3045195.4
3045195.3
3045195.3
3045195.2
3045195.1
3045194.9
3045194.6
3045194.3
3045193.9
3045193.4
3045192.8
3045192
3045190.9
3045189.6
3045187.8
3045185.6
3045182.7
3045178.9
3045173.9
3045167.4
3045158.9
3045147.7
3045133.1
3045114.1
3045089.7
3045058.5
3045019.1
3044969.8
3044908.7
3044833.6
3044741.5
3044629.2
3044492.7
3044326.9
3044126.3
3043884.1
3043592.7
3043243.5
3042826.4
3042330.1
3041741.3
3041044.9
3040223.6
3039258
3038126.2
3036804
3035264
3033475.7
3031405.2
3029014.8
3026262.7
3023102.1
3019479.6
3015335.2
3010600
3005196
2999033.1
2992008
2984014.5
2974864
2964609.2
2952562.7
2940645.7
2923805.8
3051883
3051883
3051882.9
3051882.9
3051882.8
3051882.7
3051882.6
3051882.4
3051882.1
3051881.8
3051881.4
3051880.8
3051880.2
3051879.3
3051878.1
3051876.7
3051874.8
3051872.3
3051869
3051864.7
3051859
3051851.5
3051841.6
3051828.5
3051811.5
3051789.4
3051761.2
3051725.5
3051681
3051625.8
3051558.1
3051475.5
3051375.1
3051253.6
3051106.8
3050930
3050717.5
3050462.9
3050158.7
3049796.4
3049366.3
3048856.7
3048254.7
3047545.8
3046713.5
3045739.4
3044602.7
3043279.8
3041744.1
3039966.3
3037913.1
3035547.9
3032829.4
3029710.3
3026136.6
3022045.8
3017366.8
3012015.8
3005894.3
2998894.8
2990832.5
2981752.5
2970905.9
2960488.4
2945121.2
3058793.5
3058793.5
3058793.5
3058793.5
3058793.4
3058793.3
3058793.2
3058793
3058792.7
3058792.4
3058792
3058791.5
3058790.8
3058790
3058788.9
3058787.5
3058785.7
3058783.3
3058780.2
3058776.2
3058770.9
3058763.9
3058754.6
3058742.5
3058726.7
3058706.5
3058680.7
3058648.3
3058608
3058558.5
3058498.3
3058425.3
3058337.3
3058231.6
3058104.8
3057953.1
3057771.9
3057556.1
3057299.3
3056994.5
3056633.4
3056206.3
3055702.8
3055111.1
3054418
3053608.3
3052665
3051568.4
3050296.4
3048823.9
3047123.1
3045162.7
3042907.2
3040315.9
3037341.6
3033929.2
3030014.6
3025520.7
3020356.7
3014425.9
3007526.3
2999710.7
2990165.2
2981316.4
2967538.1
3065914.6
3065914.6
3065914.6
3065914.5
3065914.4
3065914.3
3065914.2
3065913.9
3065913.7
3065913.3
3065912.9
3065912.3
3065911.6
3065910.7
3065909.6
3065908.1
3065906.3
3065903.9
3065900.7
3065896.7
3065891.5
3065884.6
3065875.7
3065864.2
3065849.4
3065830.5
3065806.8
3065777.3
3065741
3065697.1
3065644.1
3065580.7
3065505.3
3065415.7
3065309.6
3065184.1
3065035.7
3064860.3
3064652.9
3064407.8
3064118.6
3063777.6
3063376.9
3062907.7
3062359.7
3061721.5
3060979.6
3060118.6
3059121
3057966.7
3056633.5
3055095.9
3053324.7
3051285.7
3048939.6
3046238.5
3043128.3
3039543
3035400
3030609.8
3024973.7
3018537.3
3010467.8
3003254.1
2991110
3073229.6
3073229.5
3073229.5
3073229.5
3073229.4
3073229.3
3073229.1
3073228.9
3073228.6
3073228.2
3073227.8
3073227.2
3073226.4
3073225.5
3073224.3
3073222.8
3073220.9
3073218.5
3073215.3
3073211.3
3073206.1
3073199.5
3073190.9
3073179.8
3073165.8
3073148.2
3073126.4
3073099.5
3073067.1
3073028.3
3072982.4
3072928.7
3072865.9
3072792.9
3072708.1
3072609.6
3072494.9
3072361.2
3072204.8
3072021.6
3071806.8
3071555.5
3071262.1
3070920.5
3070523.8
3070064
3069531.5
3068915.5
3068202.9
3067379.4
3066428.4
3065330.7
3064063.9
3062601.6
3060912.8
3058959.4
3056696.9
3054070.6
3051014.2
3047454.1
3043202.5
3038294.4
3031934.6
3026330.1
3015945.1
3080720.7
3080720.7
3080720.7
3080720.6
3080720.5
3080720.4
3080720.2
3080720
3080719.8
3080719.4
3080719
3080718.5
3080717.8
3080716.9
3080715.9
3080714.5
3080712.8
3080710.5
3080707.7
3080704
3080699.3
3080693.2
3080685.3
3080675.2
3080662.4
3080646.2
3080626.3
3080602.1
3080573.4
3080539.7
3080501
3080457.3
3080408.1
3080352.5
3080290.1
3080219.8
3080140.2
3080049.6
3079945.9
3079826.6
3079689.1
3079530.8
3079348.7
3079139.7
3078900
3078625.1
3078309.5
3077947
3077529.9
3077049.8
3076496
3075856.2
3075115.2
3074254.6
3073252.6
3072081.5
3070710.1
3069096.7
3067191.9
3064944.3
3062203
3059010.2
3054686.8
3050903
3042851.8
3088708.5
3088708.4
3088708.4
3088708.3
3088708.3
3088708.2
3088708
3088707.9
3088707.6
3088707.4
3088707
3088706.6
3088706
3088705.3
3088704.4
3088703.3
3088701.9
3088700
3088697.6
3088694.5
3088690.4
3088685
3088678.1
3088669.2
3088657.9
3088643.8
3088626.5
3088605.9
3088581.8
3088554.5
3088524.2
3088491.5
3088457
3088420.7
3088382.9
3088343.3
3088301.8
3088258.1
3088211.7
3088162
3088109.1
3088052.7
3087992.7
3087928.9
3087860.5
3087787.1
3087707.6
3087620.6
3087524.3
3087416.4
3087293.7
3087151.1
3086981.7
3086776.1
3086522.9
3086207.1
3085810.4
3085309
3084672.9
3083874.7
3082820.7
3081566.6
3079757.9
3078471.7
3075239.9
3097100.4
3097100.4
3097100.4
3097100.3
3097100.3
3097100.2
3097100.1
3097100
3097099.8
3097099.6
3097099.4
3097099.1
3097098.7
3097098.2
3097097.6
3097096.8
3097095.7
3097094.4
3097092.5
3097090.1
3097086.8
3097082.5
3097076.9
3097069.7
3097060.5
3097049
3097035.3
3097019.3
3097001.3
3096982
3096962
3096942.2
3096924.1
3096908.6
3096896.7
3096889.7
3096889.1
3096895.5
3096910.1
3096934.7
3096971.9
3097024.5
3097094.9
3097186.2
3097301.3
3097443.5
3097616.5
3097824.2
3098070.9
3098361.1
3098699
3099087.8
3099529.8
3100025.8
3100575.6
3101177.9
3101830
3102526.8
3103261.6
3104031.3
3104810.1
3105675
3106479.3
3107899
3108431.6
3105468
3105467.9
3105467.9
3105467.9
3105467.9
3105467.9
3105467.8
3105467.8
3105467.8
3105467.7
3105467.7
3105467.6
3105467.5
3105467.4
3105467.2
3105466.9
3105466.5
3105465.9
3105465.1
3105463.8
3105462
3105459.4
3105455.8
3105451
3105444.7
3105436.8
3105427.4
3105416.8
3105405.5
3105394.5
3105385.2
3105379.2
3105378
3105383.3
3105397
3105421.5
3105459.3
3105513.5
3105587.7
3105686
3105813.2
3105974.8
3106176
3106422.9
3106722.1
3107080.8
3107507.4
3108011.4
3108603.1
3109293.8
3110095.3
3111019.3
3112077.4
3113281.2
3114642.4
3116173.2
3117886.7
3119797.3
3121921.7
3124283.1
3126903.3
3129870.2
3133159.5
3137165.5
3141388.2
3113776.2
3113776.2
3113776.2
3113776.2
3113776.2
3113776.2
3113776.3
3113776.4
3113776.5
3113776.6
3113776.8
3113777
3113777.2
3113777.5
3113777.9
3113778.3
3113778.7
3113779.1
3113779.4
3113779.6
3113779.6
3113779.1
3113778
3113776.2
3113773.5
3113769.9
3113765.6
3113761.2
3113757.5
3113755.7
3113757.4
3113764.6
3113779.6
3113805.2
3113844
3113899.6
3113975.8
3114077.6
3114210.7
3114381.7
3114598.1
3114867.8
3115198.9
3115600.6
3116083.1
3116657.8
3117337.6
3118137.6
3119074.3
3120165.7
3121430.9
3122890.3
3124565.3
3126478.2
3128652.9
3131115.1
3133893.8
3137022
3140538.7
3144492
3148939.2
3153981.9
3159681
3166345.2
3173942.7
3121989.5
3121989.5
3121989.5
3121989.6
3121989.6
3121989.7
3121989.9
3121990.1
3121990.3
3121990.7
3121991.1
3121991.6
3121992.2
3121993
3121994
3121995.1
3121996.4
3121998
3121999.7
3122001.5
3122003.4
3122005.3
3122007.1
3122008.7
3122010
3122011.3
3122012.7
3122015
3122019.1
3122026.8
3122039.9
3122061.2
3122093.4
3122139.8
3122204.1
3122290.9
3122405.6
3122555
3122746.8
3122990.2
3123295
3123671.7
3124131.5
3124686.6
3125351
3126140.1
3127071.7
3128166.1
3129446.1
3130936.3
3132663.2
3134655.7
3136944.8
3139563.9
3142548.6
3145938.3
3149777.4
3154116.9
3159016.6
3164548.7
3170800.9
3177895.4
3185958.3
3195273.5
3206011.3
3130081.6
3130081.6
3130081.7
3130081.7
3130081.8
3130082
3130082.2
3130082.6
3130083
3130083.5
3130084.1
3130084.9
3130086
3130087.2
3130088.7
3130090.6
3130092.8
3130095.4
3130098.4
3130101.8
3130105.6
3130109.9
3130114.5
3130119.5
3130124.8
3130130.8
3130137.9
3130146.9
3130159.2
3130176.7
3130201.7
3130237.3
3130286.9
3130354.4
3130444.5
3130562.8
3130716.1
3130913.1
3131163.6
3131478.8
3131871
3132353.3
3132939.8
3133646.2
3134490.2
3135491.4
3136672.2
3138058.3
3139678.4
3141563.7
3143748.3
3146269.5
3149167.4
3152486.2
3156273.3
3160581.8
3165471.3
3171010.1
3177278
3184369.6
3192400.1
3201516.1
3211889.3
3223797.4
3237495
3138025.2
3138025.3
3138025.3