/*--------------------------------*- C++ -*----------------------------------*\
  =========                 |
  \\      /  F ield         | OpenFOAM: The Open Source CFD Toolbox
   \\    /   O peration     | Website:  https://openfoam.org
    \\  /    A nd           | Version:  13
     \\/     M anipulation  |
\*---------------------------------------------------------------------------*/
FoamFile
{
    format      ascii;
    class       volScalarField;
    location    "19.200515";
    object      pPrime2Mean;
}
// * * * * * * * * * * * * * * * * * * * * * * * * * * * * * * * * * * * * * //

dimensions      [0 4 -4 0 0 0 0];

internalField   nonuniform List<scalar> 
17140
(
16152.324
16152.324
16152.325
16152.325
16152.324
16152.324
16152.322
16152.32
16152.317
16152.312
16152.306
16152.298
16152.288
16152.275
16152.258
16152.235
16152.207
16152.171
16152.125
16152.065
16151.989
16151.892
16151.767
16151.606
16151.401
16151.137
16150.8
16150.37
16149.822
16149.127
16148.25
16147.147
16145.763
16144.034
16141.88
16139.207
16135.903
16131.837
16126.856
16120.786
16113.428
16104.558
16093.92
16081.228
16066.163
16048.369
16027.457
16002.999
15974.529
15941.54
15903.487
15859.776
15809.769
15752.779
15688.065
15614.832
15532.22
15439.305
15335.079
15218.465
15088.28
14943.266
14782.008
14603.028
14404.698
16152.733
16152.734
16152.734
16152.734
16152.734
16152.733
16152.732
16152.729
16152.726
16152.721
16152.715
16152.707
16152.697
16152.683
16152.666
16152.643
16152.614
16152.577
16152.53
16152.47
16152.393
16152.294
16152.168
16152.006
16151.799
16151.535
16151.197
16150.766
16150.218
16149.525
16148.649
16147.547
16146.166
16144.439
16142.288
16139.618
16136.316
16132.252
16127.275
16121.209
16113.857
16104.992
16094.36
16081.676
16066.62
16048.836
16027.934
16003.488
15975.031
15942.058
15904.022
15860.331
15810.346
15753.382
15688.698
15615.498
15532.925
15440.051
15335.872
15219.311
15089.185
14944.237
14783.054
14604.159
14405.913
16153.747
16153.748
16153.748
16153.748
16153.748
16153.747
16153.745
16153.743
16153.739
16153.734
16153.727
16153.719
16153.708
16153.693
16153.675
16153.651
16153.621
16153.583
16153.534
16153.472
16153.392
16153.291
16153.162
16152.998
16152.789
16152.523
16152.184
16151.753
16151.206
16150.515
16149.642
16148.544
16147.167
16145.444
16143.298
16140.633
16137.337
16133.279
16128.309
16122.252
16114.911
16106.059
16095.443
16082.777
16067.742
16049.982
16029.107
16004.691
15976.266
15943.33
15905.337
15861.694
15811.766
15754.866
15690.255
15617.138
15534.658
15441.89
15337.829
15221.398
15091.418
14946.631
14785.628
14606.936
14408.894
16155.387
16155.388
16155.388
16155.388
16155.387
16155.386
16155.384
16155.381
16155.377
16155.372
16155.364
16155.355
16155.343
16155.328
16155.308
16155.283
16155.251
16155.211
16155.16
16155.095
16155.013
16154.91
16154.778
16154.612
16154.401
16154.133
16153.794
16153.364
16152.819
16152.13
16151.261
16150.168
16148.796
16147.08
16144.94
16142.281
16138.993
16134.946
16129.987
16123.945
16116.621
16107.79
16097.199
16084.563
16069.561
16051.839
16031.007
16006.638
15978.267
15945.391
15907.466
15863.904
15814.068
15757.272
15692.78
15619.799
15537.473
15444.877
15341.007
15224.79
15095.046
14950.522
14789.81
14611.448
14413.734
16157.675
16157.675
16157.675
16157.675
16157.674
16157.673
16157.67
16157.667
16157.663
16157.657
16157.649
16157.639
16157.626
16157.61
16157.589
16157.563
16157.53
16157.488
16157.435
16157.368
16157.284
16157.179
16157.045
16156.877
16156.665
16156.397
16156.059
16155.63
16155.088
16154.402
16153.538
16152.45
16151.084
16149.374
16147.241
16144.591
16141.314
16137.28
16132.338
16126.316
16119.015
16110.214
16099.657
16087.061
16072.106
16054.437
16033.664
16009.36
15981.063
15948.272
15910.445
15866.995
15817.288
15760.641
15696.318
15623.528
15541.417
15449.063
15345.463
15229.546
15100.135
14955.981
14795.679
14617.779
14420.527
16160.632
16160.632
16160.632
16160.632
16160.631
16160.629
16160.626
16160.623
16160.618
16160.612
16160.604
16160.593
16160.58
16160.563
16160.541
16160.514
16160.48
16160.437
16160.384
16160.316
16160.231
16160.125
16159.991
16159.823
16159.611
16159.344
16159.007
16158.581
16158.042
16157.36
16156.5
16155.417
16154.057
16152.354
16150.23
16147.592
16144.328
16140.311
16135.39
16129.393
16122.123
16113.359
16102.847
16090.303
16075.407
16057.805
16037.107
16012.888
15984.688
15952.008
15914.308
15871.006
15821.468
15765.014
15700.911
15628.371
15546.541
15454.502
15351.254
15235.729
15106.752
14963.079
14803.314
14626.018
14429.371
16164.287
16164.287
16164.287
16164.286
16164.285
16164.283
16164.281
16164.277
16164.272
16164.266
16164.257
16164.247
16164.233
16164.216
16164.195
16164.167
16164.133
16164.09
16164.037
16163.97
16163.885
16163.78
16163.647
16163.48
16163.27
16163.005
16162.67
16162.247
16161.712
16161.034
16160.179
16159.101
16157.747
16156.051
16153.937
16151.311
16148.064
16144.067
16139.171
16133.205
16125.973
16117.255
16106.797
16094.316
16079.493
16061.973
16041.368
16017.255
15989.175
15956.633
15919.093
15875.974
15826.647
15770.434
15706.605
15634.375
15552.895
15461.248
15358.438
15243.399
15114.963
14971.891
14812.795
14636.253
14440.365
16168.674
16168.674
16168.674
16168.673
16168.672
16168.67
16168.667
16168.663
16168.658
16168.652
16168.644
16168.633
16168.62
16168.603
16168.582
16168.555
16168.522
16168.48
16168.427
16168.361
16168.279
16168.175
16168.044
16167.88
16167.672
16167.41
16167.079
16166.659
16166.128
16165.454
16164.603
16163.53
16162.182
16160.495
16158.391
16155.78
16152.551
16148.577
16143.711
16137.782
16130.596
16121.932
16111.538
16099.132
16084.394
16066.971
16046.477
16022.491
15994.557
15962.183
15924.836
15881.939
15832.867
15776.945
15713.447
15641.591
15560.531
15469.356
15367.073
15252.622
15124.84
14982.493
14824.205
14648.574
14453.607
16173.831
16173.831
16173.831
16173.83
16173.828
16173.826
16173.824
16173.82
16173.815
16173.809
16173.801
16173.79
16173.778
16173.761
16173.741
16173.715
16173.683
16173.642
16173.592
16173.528
16173.447
16173.346
16173.219
16173.057
16172.853
16172.594
16172.266
16171.85
16171.321
16170.652
16169.805
16168.737
16167.395
16165.717
16163.625
16161.029
16157.821
16153.875
16149.042
16143.155
16136.021
16127.419
16117.1
16104.779
16090.14
16072.831
16052.467
16028.632
16000.87
15968.694
15931.576
15888.943
15840.172
15784.593
15721.485
15650.069
15569.505
15478.886
15377.224
15263.465
15136.451
14994.959
14837.625
14663.075
14469.202
16179.801
16179.801
16179.8
16179.799
16179.798
16179.796
16179.793
16179.789
16179.784
16179.778
16179.77
16179.761
16179.748
16179.732
16179.713
16179.688
16179.657
16179.618
16179.569
16179.507
16179.429
16179.33
16179.205
16179.047
16178.846
16178.59
16178.264
16177.851
16177.325
16176.659
16175.815
16174.753
16173.418
16171.749
16169.67
16167.092
16163.907
16159.99
16155.195
16149.356
16142.28
16133.749
16123.512
16111.288
16096.761
16079.582
16059.369
16035.708
16008.147
15976.203
15939.351
15897.023
15848.603
15793.423
15730.766
15659.86
15579.87
15489.894
15388.95
15275.991
15149.871
15009.373
14853.15
14679.855
14487.257
16186.62
16186.62
16186.619
16186.618
16186.617
16186.615
16186.612
16186.608
16186.604
16186.598
16186.59
16186.58
16186.568
16186.553
16186.534
16186.51
16186.48
16186.442
16186.394
16186.334
16186.258
16186.161
16186.038
16185.882
16185.682
16185.429
16185.105
16184.693
16184.17
16183.506
16182.667
16181.609
16180.282
16178.623
16176.559
16174
16170.84
16166.956
16162.203
16156.416
16149.405
16140.951
16130.806
16118.69
16104.288
16087.256
16067.214
16043.752
16016.422
15984.744
15948.198
15906.222
15858.203
15803.48
15741.34
15671.017
15591.683
15502.441
15402.319
15290.278
15165.18
15025.82
14870.87
14699.013
14507.879
16194.324
16194.324
16194.323
16194.322
16194.32
16194.318
16194.315
16194.311
16194.307
16194.3
16194.293
16194.283
16194.271
16194.256
16194.237
16194.214
16194.184
16194.146
16194.099
16194.04
16193.964
16193.868
16193.746
16193.591
16193.393
16193.14
16192.817
16192.406
16191.885
16191.223
16190.388
16189.336
16188.018
16186.371
16184.322
16181.784
16178.652
16174.804
16170.097
16164.367
16157.426
16149.056
16139.012
16127.014
16112.752
16095.883
16076.035
16052.798
16025.729
15994.354
15958.157
15916.581
15869.018
15814.813
15753.259
15683.597
15605.004
15516.594
15417.401
15306.396
15182.454
15044.384
14890.876
14720.649
14531.178
16202.936
16202.935
16202.935
16202.933
16202.932
16202.929
16202.926
16202.923
16202.918
16202.911
16202.904
16202.894
16202.882
16202.867
16202.847
16202.824
16202.794
16202.756
16202.709
16202.649
16202.574
16202.478
16202.356
16202.2
16202.002
16201.749
16201.427
16201.017
16200.497
16199.838
16199.008
16197.963
16196.654
16195.021
16192.99
16190.476
16187.375
16183.566
16178.909
16173.242
16166.376
16158.098
16148.162
16136.293
16122.185
16105.5
16085.866
16062.881
16036.107
16005.073
15969.271
15928.145
15881.095
15827.472
15766.575
15697.654
15619.893
15532.414
15434.261
15324.419
15201.776
15065.156
14913.265
14744.868
14557.26
16212.477
16212.477
16212.476
16212.475
16212.473
16212.471
16212.467
16212.463
16212.458
16212.452
16212.444
16212.434
16212.421
16212.406
16212.386
16212.362
16212.332
16212.294
16212.246
16212.185
16212.109
16212.012
16211.889
16211.733
16211.534
16211.281
16210.959
16210.551
16210.033
16209.379
16208.554
16207.519
16206.222
16204.604
16202.594
16200.106
16197.039
16193.274
16188.672
16183.072
16176.288
16168.108
16158.29
16146.563
16132.624
16116.141
16096.747
16074.043
16047.599
16016.947
15981.584
15940.961
15894.483
15841.507
15781.344
15713.248
15636.412
15549.968
15452.974
15344.427
15223.233
15088.224
14938.134
14771.769
14586.236
16222.971
16222.97
16222.97
16222.968
16222.966
16222.964
16222.961
16222.956
16222.951
16222.944
16222.936
16222.926
16222.913
16222.897
16222.877
16222.852
16222.821
16222.782
16222.734
16222.672
16222.595
16222.497
16222.373
16222.216
16222.017
16221.764
16221.444
16221.038
16220.524
16219.875
16219.058
16218.033
16216.75
16215.151
16213.164
16210.706
16207.677
16203.96
16199.418
16193.891
16187.195
16179.121
16169.431
16157.859
16144.107
16127.847
16108.718
16086.327
16060.248
16030.02
15995.145
15955.078
15909.233
15856.975
15797.621
15730.437
15654.623
15569.324
15473.612
15366.501
15246.907
15113.681
14965.578
14801.456
14618.213
16234.444
16234.444
16234.443
16234.442
16234.44
16234.437
16234.434
16234.43
16234.424
16234.418
16234.409
16234.399
16234.385
16234.369
16234.349
16234.324
16234.292
16234.253
16234.203
16234.141
16234.063
16233.965
16233.841
16233.683
16233.484
16233.232
16232.914
16232.511
16232.002
16231.36
16230.553
16229.54
16228.274
16226.695
16224.736
16222.311
16219.324
16215.66
16211.182
16205.733
16199.133
16191.175
16181.625
16170.222
16156.676
16140.662
16121.825
16099.779
16074.103
16044.342
16010.002
15970.548
15925.398
15873.929
15815.466
15749.283
15674.593
15590.554
15496.255
15390.721
15272.885
15141.616
14995.688
14834.027
14653.297
16246.935
16246.935
16246.934
16246.932
16246.931
16246.928
16246.925
16246.92
16246.915
16246.908
16246.9
16246.889
16246.876
16246.859
16246.839
16246.814
16246.782
16246.742
16246.692
16246.63
16246.552
16246.453
16246.329
16246.172
16245.974
16245.724
16245.408
16245.009
16244.506
16243.873
16243.077
16242.078
16240.83
16239.275
16237.344
16234.956
16232.016
16228.408
16224
16218.637
16212.14
16204.307
16194.91
16183.694
16170.373
16154.629
16136.113
16114.445
16089.211
16059.96
16026.207
15987.421
15943.032
15892.426
15834.936
15769.847
15696.388
15613.729
15520.975
15417.166
15301.252
15172.114
15028.561
14869.583
14691.593
16260.485
16260.484
16260.483
16260.482
16260.48
16260.478
16260.475
16260.47
16260.465
16260.458
16260.45
16260.439
16260.426
16260.41
16260.389
16260.364
16260.332
16260.293
16260.243
16260.181
16260.103
16260.005
16259.882
16259.726
16259.53
16259.282
16258.97
16258.576
16258.079
16257.454
16256.67
16255.686
16254.457
16252.927
16251.028
16248.681
16245.79
16242.244
16237.911
16232.639
16226.254
16218.559
16209.329
16198.317
16185.242
16169.792
16151.627
16130.372
16105.618
16076.923
16043.807
16005.75
15962.19
15912.521
15856.09
15792.195
15720.075
15638.921
15547.849
15445.917
15332.088
15205.264
15064.286
14908.222
14733.204
16275.135
16275.134
16275.133
16275.132
16275.131
16275.128
16275.125
16275.121
16275.116
16275.109
16275.101
16275.091
16275.078
16275.062
16275.042
16275.016
16274.985
16274.946
16274.897
16274.836
16274.759
16274.662
16274.54
16274.387
16274.193
16273.949
16273.641
16273.252
16272.763
16272.147
16271.374
16270.406
16269.198
16267.694
16265.829
16263.524
16260.686
16257.205
16252.953
16247.78
16241.517
16233.971
16224.924
16214.134
16201.326
16186.198
16168.413
16147.605
16123.372
16095.28
16062.855
16025.587
15982.925
15934.273
15878.99
15816.386
15745.723
15666.202
15576.952
15477.05
15365.473
15241.149
15102.955
14950.04
14778.23
16290.921
16290.921
16290.92
16290.919
16290.918
16290.916
16290.913
16290.909
16290.904
16290.897
16290.889
16290.879
16290.867
16290.851
16290.832
16290.807
16290.777
16290.738
16290.691
16290.63
16290.555
16290.46
16290.341
16290.19
16290
16289.761
16289.458
16289.076
16288.595
16287.99
16287.23
16286.279
16285.092
16283.615
16281.785
16279.525
16276.743
16273.331
16269.165
16264.099
16257.968
16250.584
16241.737
16231.188
16218.671
16203.889
16186.515
16166.19
16142.52
16115.078
16083.4
16046.985
16005.291
15957.736
15903.691
15842.486
15773.398
15695.639
15608.357
15510.638
15401.486
15279.853
15144.656
14995.13
14826.769
16307.872
16307.872
16307.872
16307.871
16307.869
16307.867
16307.864
16307.861
16307.856
16307.85
16307.842
16307.833
16307.821
16307.806
16307.787
16307.764
16307.734
16307.697
16307.651
16307.593
16307.52
16307.428
16307.312
16307.166
16306.981
16306.747
16306.452
16306.079
16305.608
16305.016
16304.272
16303.34
16302.177
16300.73
16298.937
16296.724
16294
16290.662
16286.587
16281.636
16275.647
16268.44
16259.808
16249.52
16237.317
16222.909
16205.979
16186.173
16163.108
16136.365
16105.49
16069.991
16029.338
15982.962
15930.253
15870.56
15803.164
15727.302
15642.128
15546.753
15440.204
15321.458
15189.474
15043.583
14878.913
16326.011
16326.011
16326.011
16326.01
16326.009
16326.007
16326.004
16326.001
16325.996
16325.991
16325.984
16325.975
16325.964
16325.949
16325.932
16325.909
16325.881
16325.846
16325.802
16325.747
16325.677
16325.589
16325.478
16325.337
16325.159
16324.933
16324.647
16324.286
16323.829
16323.254
16322.529
16321.621
16320.487
16319.074
16317.323
16315.159
16312.498
16309.237
16305.26
16300.431
16294.596
16287.578
16279.179
16269.172
16257.307
16243.303
16226.848
16207.6
16185.184
16159.19
16129.174
16094.654
16055.115
16010.006
15958.737
15900.662
15835.086
15761.251
15678.334
15585.467
15481.702
15366.044
15237.494
15095.486
14934.75
16345.361
16345.361
16345.361
16345.36
16345.359
16345.357
16345.355
16345.352
16345.348
16345.343
16345.336
16345.328
16345.318
16345.304
16345.288
16345.267
16345.241
16345.209
16345.168
16345.116
16345.05
16344.967
16344.861
16344.727
16344.558
16344.342
16344.068
16343.721
16343.282
16342.726
16342.027
16341.147
16340.047
16338.675
16336.971
16334.865
16332.272
16329.096
16325.224
16320.527
16314.856
16308.042
16299.891
16290.187
16278.684
16265.111
16249.166
16230.516
16208.793
16183.597
16154.493
16121.017
16082.672
16038.924
15989.195
15932.853
15869.219
15797.548
15717.04
15626.85
15526.054
15413.686
15288.795
15150.925
14994.364
16365.954
16365.954
16365.953
16365.953
16365.952
16365.95
16365.948
16365.945
16365.942
16365.937
16365.931
16365.924
16365.914
16365.902
16365.887
16365.868
16365.844
16365.814
16365.776
16365.728
16365.666
16365.589
16365.49
16365.364
16365.203
16364.999
16364.738
16364.408
16363.988
16363.456
16362.785
16361.94
16360.88
16359.555
16357.907
16355.866
16353.351
16350.27
16346.514
16341.96
16336.467
16329.871
16321.987
16312.605
16301.49
16288.379
16272.979
16254.963
16233.972
16209.619
16181.484
16149.124
16112.058
16069.766
16021.677
15967.187
15905.618
15836.252
15758.309
15670.968
15573.331
15464.459
15343.453
15209.978
15057.833
16387.824
16387.824
16387.824
16387.823
16387.822
16387.821
16387.819
16387.817
16387.814
16387.809
16387.804
16387.797
16387.789
16387.778
16387.764
16387.747
16387.725
16387.697
16387.662
16387.617
16387.56
16387.487
16387.394
16387.276
16387.124
16386.931
16386.685
16386.371
16385.972
16385.466
16384.825
16384.017
16383.002
16381.731
16380.146
16378.181
16375.757
16372.783
16369.158
16364.763
16359.462
16353.1
16345.501
16336.464
16325.764
16313.145
16298.318
16280.967
16260.749
16237.288
16210.19
16179.022
16143.319
16102.573
16056.236
16003.707
15944.335
15877.42
15802.202
15717.886
15623.601
15518.435
15401.542
15272.725
15125.232
16411.01
16411.01
16411.01
16411.01
16411.009
16411.008
16411.006
16411.004
16411.001
16410.997
16410.992
16410.986
16410.978
16410.968
16410.955
16410.938
16410.918
16410.892
16410.858
16410.816
16410.762
16410.693
16410.605
16410.493
16410.35
16410.166
16409.933
16409.635
16409.256
16408.775
16408.166
16407.398
16406.431
16405.219
16403.705
16401.825
16399.503
16396.652
16393.172
16388.951
16383.86
16377.752
16370.46
16361.794
16351.531
16339.424
16325.199
16308.553
16289.151
16266.646
16240.652
16210.748
16176.491
16137.39
16092.906
16042.462
15985.421
15921.105
15848.778
15767.668
15676.931
15575.683
15463.131
15339.241
15196.634
16435.541
16435.541
16435.541
16435.541
16435.54
16435.539
16435.537
16435.535
16435.532
16435.529
16435.524
16435.518
16435.51
16435.5
16435.488
16435.472
16435.452
16435.426
16435.394
16435.353
16435.301
16435.234
16435.15
16435.042
16434.905
16434.729
16434.506
16434.223
16433.863
16433.406
16432.829
16432.101
16431.184
16430.034
16428.597
16426.81
16424.6
16421.883
16418.564
16414.535
16409.674
16403.842
16396.878
16388.599
16378.796
16367.233
16353.645
16337.741
16319.212
16297.723
16272.894
16244.334
16211.608
16174.247
16131.729
16083.492
16028.921
15967.36
15898.093
15820.373
15733.383
15636.268
15528.288
15409.595
15272.112
16461.43
16461.43
16461.43
16461.43
16461.429
16461.428
16461.427
16461.425
16461.422
16461.418
16461.413
16461.407
16461.399
16461.389
16461.376
16461.36
16461.34
16461.314
16461.282
16461.241
16461.19
16461.124
16461.041
16460.936
16460.803
16460.634
16460.42
16460.15
16459.808
16459.375
16458.83
16458.143
16457.278
16456.194
16454.838
16453.151
16451.062
16448.49
16445.345
16441.523
16436.908
16431.366
16424.75
16416.884
16407.569
16396.581
16383.668
16368.556
16350.955
16330.532
16306.939
16279.801
16248.698
16213.177
16172.738
16126.836
16074.88
16016.232
15950.2
15876.06
15793.021
15700.255
15597.078
15483.855
15351.743
16488.676
16488.676
16488.676
16488.676
16488.675
16488.674
16488.672
16488.67
16488.667
16488.663
16488.658
16488.651
16488.643
16488.633
16488.62
16488.603
16488.583
16488.557
16488.524
16488.483
16488.431
16488.366
16488.285
16488.182
16488.053
16487.89
16487.685
16487.427
16487.103
16486.695
16486.182
16485.537
16484.727
16483.711
16482.44
16480.857
16478.895
16476.477
16473.515
16469.912
16465.557
16460.327
16454.081
16446.653
16437.856
16427.477
16415.28
16401.01
16384.384
16365.093
16342.81
16317.172
16287.781
16254.205
16215.962
16172.53
16123.335
16067.766
16005.148
15934.783
15855.905
15767.708
15669.568
15562.089
15435.613
16517.26
16517.26
16517.26
16517.26
16517.259
16517.257
16517.256
16517.253
16517.25
16517.246
16517.241
16517.234
16517.226
16517.215
16517.202
16517.186
16517.165
16517.139
16517.106
16517.065
16517.014
16516.951
16516.871
16516.772
16516.647
16516.492
16516.298
16516.054
16515.75
16515.369
16514.89
16514.29
16513.536
16512.59
16511.407
16509.933
16508.102
16505.843
16503.073
16499.701
16495.623
16490.723
16484.868
16477.906
16469.657
16459.924
16448.486
16435.103
16419.508
16401.416
16380.513
16356.459
16328.876
16297.351
16261.426
16220.601
16174.323
16122.002
16062.986
15996.599
15922.097
15838.695
15745.833
15644.382
15523.809
16547.163
16547.163
16547.163
16547.162
16547.161
16547.16
16547.158
16547.156
16547.153
16547.149
16547.144
16547.137
16547.129
16547.119
16547.106
16547.09
16547.07
16547.044
16547.013
16546.974
16546.925
16546.865
16546.79
16546.696
16546.579
16546.434
16546.254
16546.028
16545.747
16545.395
16544.953
16544.399
16543.704
16542.831
16541.738
16540.373
16538.678
16536.585
16534.016
16530.886
16527.1
16522.549
16517.11
16510.638
16502.969
16493.918
16483.282
16470.835
16456.332
16439.503
16420.056
16397.671
16371.993
16342.63
16309.149
16271.073
16227.872
16178.978
16123.76
16061.562
15991.66
15913.285
15825.953
15730.847
15616.422
16578.37
16578.37
16578.37
16578.37
16578.369
16578.368
16578.366
16578.364
16578.361
16578.357
16578.352
16578.346
16578.339
16578.329
16578.318
16578.303
16578.284
16578.262
16578.233
16578.197
16578.153
16578.098
16578.03
16577.945
16577.839
16577.708
16577.544
16577.34
16577.085
16576.766
16576.364
16575.86
16575.225
16574.426
16573.425
16572.174
16570.619
16568.698
16566.339
16563.464
16559.985
16555.801
16550.799
16544.844
16537.784
16529.452
16519.661
16508.202
16494.848
16479.35
16461.437
16440.81
16417.136
16390.05
16359.142
16323.963
16284.007
16238.726
16187.512
16129.727
16064.663
15991.558
15909.993
15821.49
15713.705
16610.879
16610.879
16610.879
16610.878
16610.878
16610.877
16610.875
16610.873
16610.871
16610.868
16610.864
16610.858
16610.852
16610.844
16610.834
16610.821
16610.805
16610.786
16610.761
16610.73
16610.692
16610.645
16610.586
16610.512
16610.42
16610.305
16610.161
16609.981
16609.755
16609.47
16609.111
16608.657
16608.084
16607.363
16606.456
16605.323
16603.914
16602.171
16600.032
16597.424
16594.266
16590.468
16585.923
16580.509
16574.091
16566.515
16557.611
16547.191
16535.046
16520.947
16504.646
16485.867
16464.302
16439.61
16411.411
16379.283
16342.745
16301.274
16254.282
16201.149
16141.185
16073.605
15997.994
15916.543
15815.736
16644.693
16644.693
16644.693
16644.692
16644.692
16644.691
16644.69
16644.688
16644.686
16644.684
16644.68
16644.676
16644.671
16644.664
16644.656
16644.646
16644.633
16644.617
16644.596
16644.571
16644.539
16644.5
16644.45
16644.388
16644.31
16644.213
16644.089
16643.934
16643.737
16643.487
16643.171
16642.769
16642.261
16641.619
16640.811
16639.801
16638.543
16636.988
16635.078
16632.748
16629.927
16626.532
16622.465
16617.618
16611.871
16605.087
16597.115
16587.785
16576.908
16564.278
16549.668
16532.828
16513.477
16491.302
16465.952
16437.032
16404.095
16366.643
16324.107
16275.889
16221.302
16159.473
16090.095
16016.121
15922.614
16679.811
16679.811
16679.811
16679.81
16679.81
16679.809
16679.808
16679.807
16679.805
16679.803
16679.8
16679.797
16679.793
16679.787
16679.78
16679.772
16679.761
16679.748
16679.731
16679.71
16679.684
16679.651
16679.61
16679.558
16679.493
16679.41
16679.306
16679.173
16679.004
16678.789
16678.515
16678.167
16677.725
16677.166
16676.462
16675.58
16674.481
16673.121
16671.451
16669.414
16666.944
16663.967
16660.397
16656.143
16651.098
16645.144
16638.146
16629.956
16620.406
16609.313
16596.475
16581.667
16564.638
16545.106
16522.748
16497.204
16468.059
16434.846
16397.022
16354.001
16305.069
16249.368
16186.411
16120.324
16034.677
16716.216
16716.216
16716.215
16716.215
16716.215
16716.214
16716.213
16716.212
16716.21
16716.208
16716.206
16716.202
16716.199
16716.194
16716.187
16716.18
16716.17
16716.158
16716.143
16716.125
16716.102
16716.073
16716.038
16715.993
16715.937
16715.867
16715.778
16715.666
16715.523
16715.342
16715.111
16714.817
16714.444
16713.971
16713.374
16712.626
16711.693
16710.538
16709.118
16707.384
16705.278
16702.736
16699.686
16696.05
16691.738
16686.649
16680.668
16673.667
16665.503
16656.016
16645.029
16632.348
16617.751
16600.989
16581.773
16559.778
16534.627
16505.888
16473.047
16435.514
16392.636
16343.409
16287.166
16229.343
16152.27
16753.864
16753.864
16753.864
16753.863
16753.863
16753.862
16753.861
16753.86
16753.858
16753.856
16753.853
16753.85
16753.846
16753.84
16753.834
16753.826
16753.817
16753.805
16753.79
16753.773
16753.751
16753.725
16753.692
16753.652
16753.603
16753.543
16753.468
16753.374
16753.256
16753.108
16752.919
16752.68
16752.377
16751.992
16751.506
16750.896
16750.135
16749.192
16748.031
16746.61
16744.881
16742.791
16740.283
16737.291
16733.743
16729.555
16724.633
16718.87
16712.149
16704.335
16695.282
16684.822
16672.768
16658.906
16642.984
16624.718
16603.769
16579.745
16552.175
16520.512
16484.078
16441.814
16392.782
16343.561
16275.663
16792.69
16792.69
16792.69
16792.689
16792.688
16792.687
16792.686
16792.685
16792.683
16792.68
16792.677
16792.673
16792.669
16792.663
16792.656
16792.648
16792.638
16792.625
16792.61
16792.592
16792.571
16792.545
16792.515
16792.478
16792.435
16792.383
16792.321
16792.245
16792.151
16792.034
16791.888
16791.702
16791.468
16791.171
16790.797
16790.328
16789.743
16789.018
16788.123
16787.024
16785.686
16784.067
16782.122
16779.802
16777.048
16773.797
16769.976
16765.502
16760.281
16754.209
16747.168
16739.026
16729.626
16718.793
16706.318
16691.956
16675.422
16656.382
16634.414
16609.005
16579.516
16544.849
16503.868
16463.59
16404.841
16832.604
16832.604
16832.603
16832.603
16832.602
16832.601
16832.6
16832.598
16832.596
16832.593
16832.59
16832.586
16832.581
16832.575
16832.568
16832.559
16832.549
16832.536
16832.522
16832.504
16832.484
16832.46
16832.432
16832.401
16832.364
16832.321
16832.271
16832.212
16832.141
16832.055
16831.949
16831.817
16831.651
16831.443
16831.182
16830.857
16830.451
16829.948
16829.325
16828.559
16827.626
16826.495
16825.135
16823.511
16821.583
16819.305
16816.626
16813.488
16809.824
16805.56
16800.611
16794.876
16788.239
16780.564
16771.688
16761.42
16749.527
16735.734
16719.707
16701.015
16679.073
16652.809
16621.079
16589.575
16540.657
16873.511
16873.511
16873.511
16873.51
16873.509
16873.508
16873.507
16873.505
16873.503
16873.5
16873.497
16873.494
16873.489
16873.484
16873.477
16873.469
16873.46
16873.45
16873.437
16873.422
16873.405
16873.386
16873.363
16873.338
16873.31
16873.277
16873.24
16873.197
16873.148
16873.091
16873.023
16872.943
16872.847
16872.728
16872.582
16872.402
16872.178
16871.9
16871.557
16871.134
16870.618
16869.992
16869.238
16868.337
16867.264
16865.994
16864.498
16862.743
16860.693
16858.305
16855.526
16852.294
16848.53
16844.143
16839.021
16833.028
16826.001
16817.737
16807.988
16796.451
16782.673
16765.811
16744.895
16723.499
16686.702
16917.176
16917.176
16917.175
16917.175
16917.174
16917.173
16917.171
16917.17
16917.168
16917.166
16917.163
16917.16
16917.156
16917.152
16917.147
16917.141
16917.134
16917.126
16917.116
16917.105
16917.092
16917.077
16917.061
16917.043
16917.023
16917.001
16916.977
16916.951
16916.924
16916.895
16916.867
16916.84
16916.814
16916.791
16916.769
16916.745
16916.718
16916.687
16916.648
16916.599
16916.539
16916.465
16916.374
16916.262
16916.12
16915.947
16915.737
16915.486
16915.187
16914.832
16914.406
16913.888
16913.243
16912.429
16911.393
16910.064
16908.351
16906.143
16903.293
16899.641
16894.942
16888.73
16881.005
16873.976
16860.568
16963.117
16963.117
16963.116
16963.115
16963.115
16963.114
16963.112
16963.111
16963.11
16963.108
16963.106
16963.104
16963.101
16963.098
16963.095
16963.091
16963.086
16963.081
16963.074
16963.067
16963.059
16963.05
16963.041
16963.03
16963.02
16963.009
16963
16962.993
16962.991
16962.997
16963.014
16963.047
16963.1
16963.179
16963.288
16963.432
16963.619
16963.854
16964.14
16964.49
16964.915
16965.429
16966.042
16966.767
16967.619
16968.615
16969.779
16971.133
16972.703
16974.517
16976.601
16978.977
16981.662
16984.668
16988.002
16991.669
16995.658
16999.959
17004.544
17009.409
17014.538
17019.882
17025.934
17033.756
17039.678
17008.983
17008.982
17008.982
17008.981
17008.98
17008.979
17008.979
17008.978
17008.977
17008.976
17008.975
17008.974
17008.973
17008.972
17008.971
17008.97
17008.969
17008.968
17008.967
17008.966
17008.965
17008.964
17008.963
17008.963
17008.965
17008.969
17008.976
17008.991
17009.016
17009.056
17009.119
17009.213
17009.345
17009.525
17009.762
17010.068
17010.457
17010.943
17011.547
17012.289
17013.196
17014.294
17015.609
17017.171
17019.016
17021.185
17023.726
17026.692
17030.141
17034.136
17038.742
17044.029
17050.065
17056.922
17064.668
17073.38
17083.134
17094.022
17106.137
17119.626
17134.647
17151.453
17170.619
17192.789
17217.559
17054.571
17054.571
17054.57
17054.57
17054.569
17054.569
17054.568
17054.568
17054.568
17054.568
17054.568
17054.569
17054.57
17054.571
17054.572
17054.575
17054.577
17054.581
17054.585
17054.591
17054.597
17054.605
17054.615
17054.626
17054.641
17054.66
17054.686
17054.723
17054.777
17054.854
17054.963
17055.116
17055.325
17055.604
17055.968
17056.433
17057.022
17057.76
17058.677
17059.807
17061.189
17062.863
17064.872
17067.265
17070.098
17073.436
17077.351
17081.926
17087.251
17093.425
17100.552
17108.749
17118.138
17128.848
17141.012
17154.78
17170.312
17187.799
17207.453
17229.552
17254.409
17282.483
17314.449
17351.127
17393.657
17099.684
17099.683
17099.682
17099.682
17099.682
17099.682
17099.682
17099.682
17099.683
17099.684
17099.685
17099.687
17099.69
17099.694
17099.698
17099.703
17099.71
17099.718
17099.728
17099.74
17099.754
17099.771
17099.79
17099.813
17099.841
17099.877
17099.922
17099.983
17100.066
17100.18
17100.338
17100.554
17100.844
17101.224
17101.716
17102.342
17103.132
17104.121
17105.349
17106.863
17108.714
17110.957
17113.651
17116.866
17120.679
17125.176
17130.456
17136.63
17143.82
17152.16
17161.796
17172.889
17185.614
17200.157
17216.718
17235.516
17256.797
17280.846
17307.986
17338.621
17373.216
17412.399
17457.002
17508.101
17567.274
17144.154
17144.154
17144.153
17144.153
17144.153
17144.153
17144.154
17144.155
17144.156
17144.158
17144.161
17144.164
17144.168
17144.174
17144.181
17144.189
17144.199
17144.211
17144.226
17144.243
17144.263
17144.287
17144.315
17144.349
17144.39
17144.44
17144.504
17144.588
17144.701
17144.855
17145.064
17145.345
17145.716
17146.2
17146.822
17147.61
17148.602
17149.842
17151.38
17153.273
17155.586
17158.389