/*--------------------------------*- C++ -*----------------------------------*\
  =========                 |
  \\      /  F ield         | OpenFOAM: The Open Source CFD Toolbox
   \\    /   O peration     | Website:  https://openfoam.org
    \\  /    A nd           | Version:  13
     \\/     M anipulation  |
\*---------------------------------------------------------------------------*/
FoamFile
{
    format      ascii;
    class       volScalarField;
    location    "21.301661";
    object      nut;
}
// * * * * * * * * * * * * * * * * * * * * * * * * * * * * * * * * * * * * * //

dimensions      [0 2 -1 0 0 0 0];

internalField   nonuniform List<scalar> 
17140
(
1.2579966e-17
2.4466346e-15
6.5166314e-14
6.6061824e-13
3.9947261e-12
1.7695149e-11
6.3878941e-11
1.9982304e-10
5.6273624e-10
1.4631875e-09
3.5745973e-09
8.3090205e-09
1.854891e-08
4.0050721e-08
8.4103001e-08
1.7250496e-07
3.4680089e-07
6.8525762e-07
1.3338196e-06
2.5620904e-06
4.8637167e-06
9.1346685e-06
1.6986076e-05
3.1284018e-05
5.7056788e-05
0.00010295322
0.00018340306
0.00032133698
0.00055046935
0.00091470255
0.001461417
0.0022278667
0.0032258194
0.0044330486
0.0057959919
0.0072408131
0.008687068
0.010060279
0.011301752
0.012374965
0.013267842
0.013991482
0.01456975
0.015043681
0.015459616
0.015861239
0.016256083
0.016654763
0.017062588
0.017476413
0.017887511
0.018282228
0.018639925
0.018932898
0.019128974
0.019170866
0.019061111
0.018798213
0.018336122
0.017708263
0.016960666
0.016089785
0.015017247
0.013496608
0.011108899
1.2379247e-17
2.4075955e-15
6.4126562e-14
6.500795e-13
3.9310139e-12
1.7413003e-11
6.2860693e-11
1.9663875e-10
5.5377135e-10
1.4398839e-09
3.517679e-09
8.1767373e-09
1.8253623e-08
3.9413096e-08
8.2763714e-08
1.6975663e-07
3.4127153e-07
6.7431997e-07
1.3124982e-06
2.5210553e-06
4.7856296e-06
8.9875878e-06
1.6711689e-05
3.0776993e-05
5.6129534e-05
0.00010127865
0.00018042988
0.00031618614
0.00054185916
0.00090100891
0.0014409901
0.002199593
0.003189679
0.0043903467
0.0057492007
0.0071930885
0.0086417365
0.010020367
0.011269579
0.012351877
0.013254425
0.013987342
0.014574044
0.015054965
0.015475532
0.015882938
0.016282868
0.016687066
0.017101921
0.017525715
0.017951727
0.01836976
0.018761373
0.019102808
0.019367183
0.019525203
0.019590925
0.019560707
0.019438205
0.019280835
0.019065064
0.018679223
0.018051798
0.016644297
0.013813962
1.2048256e-17
2.3432218e-15
6.2411951e-14
6.3269781e-13
3.8259085e-12
1.6947432e-11
6.1180025e-11
1.9138143e-10
5.3896585e-10
1.4013867e-09
3.4236234e-09
7.9580808e-09
1.7765394e-08
3.835856e-08
8.054818e-08
1.6520908e-07
3.3212022e-07
6.5621356e-07
1.2771936e-06
2.4530886e-06
4.6562484e-06
8.7437859e-06
1.6256614e-05
2.9935507e-05
5.4589291e-05
9.8493973e-05
0.00017547833
0.00030758979
0.00052744494
0.00087798041
0.0014064163
0.0021513157
0.0031272524
0.0043154823
0.0056655325
0.0071054684
0.0085553943
0.0099401551
0.011199413
0.012294377
0.013210697
0.013957422
0.014556366
0.015047781
0.015478487
0.015895942
0.016305418
0.016722715
0.017155957
0.01760581
0.018069037
0.018538263
0.01900158
0.019442803
0.019846934
0.020208495
0.020543194
0.020855201
0.021144315
0.021414334
0.021619604
0.021594233
0.021220084
0.019956879
0.016169141
1.1588014e-17
2.2537106e-15
6.0027803e-14
6.0852869e-13
3.6797602e-12
1.6300056e-11
5.8843044e-11
1.8407104e-10
5.1837839e-10
1.3478549e-09
3.2928349e-09
7.6540284e-09
1.7086488e-08
3.6892192e-08
7.7467463e-08
1.5888588e-07
3.1939626e-07
6.3104008e-07
1.2281136e-06
2.3586127e-06
4.4764271e-06
8.4049845e-06
1.5624305e-05
2.8766433e-05
5.2449523e-05
9.4624885e-05
0.00016859531
0.00029562735
0.00050734573
0.00084576199
0.0013578077
0.0020829976
0.0030381955
0.0042076439
0.005543602
0.0069759402
0.0084254244
0.0098165139
0.011087685
0.012198462
0.013132653
0.013897522
0.014512524
0.015018181
0.015464515
0.015896558
0.016322641
0.016759623
0.017218394
0.017703463
0.018216035
0.01875487
0.019314079
0.019884175
0.02046057
0.021050136
0.021670881
0.022314366
0.022941465
0.023506222
0.023941622
0.024029407
0.023651334
0.021940638
0.017150038
1.100555e-17
2.1404294e-15
5.7010546e-14
5.7794156e-13
3.4948028e-12
1.5480773e-11
5.5885483e-11
1.7481939e-10
4.9232393e-10
1.280108e-09
3.1273168e-09
7.2692422e-09
1.6227332e-08
3.5036554e-08
7.3569083e-08
1.508849e-07
3.0329746e-07
5.9919322e-07
1.1660314e-06
2.2391294e-06
4.249057e-06
7.9767035e-06
1.4825219e-05
2.7289402e-05
4.9746648e-05
8.9737682e-05
0.00015989784
0.00028049513
0.00048186511
0.00080476759
0.0012956292
0.0019950067
0.0029225664
0.0040663682
0.0053822853
0.0068026802
0.0082493542
0.0096464379
0.010931014
0.012060533
0.013016497
0.013804089
0.014439878
0.014963491
0.01543107
0.015880751
0.016324601
0.016784879
0.017274501
0.017801597
0.018372077
0.018989941
0.019653804
0.020358713
0.021105571
0.021905277
0.022773146
0.023679685
0.024529695
0.025233633
0.025693853
0.025675025
0.024920954
0.022793985
0.017203386
1.0312693e-17
2.0056782e-15
5.3421439e-14
5.4155729e-13
3.27479e-12
1.4506207e-11
5.2367363e-11
1.6381423e-10
4.6133133e-10
1.1995212e-09
2.9304307e-09
6.8115411e-09
1.5205397e-08
3.2829427e-08
6.8932548e-08
1.4136969e-07
2.8415397e-07
5.6132868e-07
1.092232e-06
2.0971279e-06
3.9789118e-06
7.4680172e-06
1.3876457e-05
2.5536347e-05
4.6539592e-05
8.3939278e-05
0.00014957482
0.00026251301
0.00045150991
0.00075572457
0.0012207871
0.001888266
0.0027810329
0.0038917677
0.0051809066
0.006584112
0.0080247197
0.0094266841
0.010725542
0.011876298
0.012857636
0.013672145
0.014333112
0.014877774
0.015369795
0.015839284
0.016304735
0.016790389
0.017312422
0.017882559
0.018510896
0.019205474
0.019967216
0.020791626
0.02167966
0.022639961
0.023685512
0.024765461
0.025719168
0.02641485
0.026709891
0.026374969
0.025140607
0.022499463
0.015210288
9.5257398e-18
1.8526267e-15
4.934491e-14
5.0023178e-13
3.0248973e-12
1.3399283e-11
4.8371443e-11
1.5131447e-10
4.2612974e-10
1.1079908e-09
2.7068104e-09
6.2917014e-09
1.4044758e-08
3.0322854e-08
6.3667323e-08
1.305653e-07
2.6241957e-07
5.1834685e-07
1.0084773e-06
1.9360155e-06
3.6725132e-06
6.8912942e-06
1.2801272e-05
2.3550578e-05
4.2908127e-05
7.7374339e-05
0.00013788246
0.00024211827
0.00041698478
0.00069967605
0.0011346535
0.0017643159
0.0026149824
0.0036846794
0.0049394058
0.0063190688
0.0077491967
0.009153856
0.010466975
0.011640761
0.012650519
0.013495515
0.014185783
0.014756948
0.015275349
0.015766669
0.016253673
0.016764004
0.017316017
0.017924558
0.018602914
0.019361539
0.020200842
0.021112689
0.022093852
0.022549849
0.023427889
0.024963884
0.026383165
0.026934902
0.026916689
0.02609871
0.024329687
0.020603098
0.011368167
8.6649759e-18
1.6852201e-15
4.4886027e-14
4.5503017e-13
2.7515659e-12
1.2188536e-11
4.4000719e-11
1.3764228e-10
3.8762654e-10
1.0078764e-09
2.4622215e-09
5.7231302e-09
1.2775363e-08
2.7581551e-08
5.7909475e-08
1.1875129e-07
2.3865768e-07
4.7136453e-07
9.1695007e-07
1.7600074e-06
3.3379163e-06
6.2617822e-06
1.1628271e-05
2.1385276e-05
3.8950068e-05
7.0220227e-05
0.00012513572
0.00021985227
0.00037917501
0.00063796669
0.0010390713
0.001625363
0.0024266343
0.0034468424
0.0046585592
0.0060070239
0.0074208094
0.008824564
0.010150679
0.011348288
0.01238876
0.013267195
0.013990169
0.014594355
0.01513941
0.015652847
0.016160204
0.016691928
0.017267567
0.017904591
0.018618173
0.01941934
0.020305103
0.021200598
0.021359538
0.021824078
0.022788563
0.024495914
0.026421993
0.026700056
0.026217985
0.024842275
0.022349477
0.016511242
0.0071652582
7.7539254e-18
1.5080328e-15
4.0166618e-14
4.0718752e-13
2.4622645e-12
1.0907047e-11
3.9374619e-11
1.2317125e-10
3.4687381e-10
9.0191373e-10
2.2033487e-09
5.1213694e-09
1.1431921e-08
2.4680506e-08
5.1816609e-08
1.0625135e-07
2.1352012e-07
4.2167273e-07
8.2017103e-07
1.5739648e-06
2.9843949e-06
5.5970036e-06
1.0390264e-05
1.9101324e-05
3.4777236e-05
6.267968e-05
0.00011169543
0.00019633965
0.00033911647
0.00057220818
0.00093633273
0.0014743038
0.0022191423
0.0031810932
0.004340254
0.0056484056
0.00703824
0.0084356905
0.0097718757
0.010992717
0.012065207
0.012979731
0.013739758
0.014378331
0.014951653
0.015487327
0.016014626
0.016559197
0.017148329
0.017799362
0.018527544
0.019342579
0.020235839
0.020323406
0.020475038
0.020901525
0.022043189
0.023982984
0.025764267
0.025615805
0.024559344
0.022553663
0.019106212
0.010498163
0.0044283882
6.8182887e-18
1.3260642e-15
3.5319863e-14
3.5805389e-13
2.1651566e-12
9.5909755e-12
3.4623677e-11
1.0830971e-10
3.050215e-10
7.9309291e-10
1.9374973e-09
4.5034024e-09
1.0052353e-08
2.1701631e-08
4.5560823e-08
9.3418722e-08
1.8771784e-07
3.7067831e-07
7.2088404e-07
1.3831721e-06
2.6220143e-06
4.9159408e-06
9.1227226e-06
1.6764411e-05
3.0510114e-05
5.4971096e-05
9.7951275e-05
0.0001722596
0.00029795145
0.00050422071
0.0008291216
0.0013147038
0.0019966622
0.0028915596
0.003987807
0.005245004
0.0066012664
0.0079847988
0.0093259686
0.010567536
0.011671763
0.012623678
0.013423417
0.014098411
0.014700071
0.01525665
0.015798322
0.016354152
0.016944116
0.017588417
0.018304201
0.019098762
0.019378076
0.019344262
0.01950039
0.020091984
0.021244416
0.023405578
0.024297865
0.023592545
0.021923758
0.019220372
0.01371266
0.0051600914
0.0029606811
5.8846638e-18
1.1444868e-15
3.0483527e-14
3.0902579e-13
1.8686862e-12
8.2777279e-12
2.9882928e-11
9.3480066e-11
2.6325915e-10
6.8450681e-10
1.6722232e-09
3.886793e-09
8.6758704e-09
1.8729597e-08
3.9319952e-08
8.0618277e-08
1.6198466e-07
3.198321e-07
6.2191549e-07
1.1930649e-06
2.2611103e-06
4.2380484e-06
7.8619261e-06
1.4441585e-05
2.6271477e-05
4.7316964e-05
8.4301117e-05
0.00014831042
0.00025687124
0.00043594928
0.00072041216
0.0011507157
0.0017643546
0.0025838157
0.0036063008
0.0048004627
0.0061113474
0.0074707369
0.0088090926
0.010066325
0.011199773
0.012188471
0.01302879
0.013741451
0.014370542
0.014945407
0.015495725
0.016049562
0.016629416
0.017251929
0.017931138
0.018470959
0.018340592
0.018408803
0.018467355
0.018986703
0.020340195
0.022341944
0.021943709
0.020631577
0.018259255
0.014707429
0.0066130215
0.0028852821
0.0021390047
4.9790833e-18
9.6836361e-16
2.5792459e-14
2.6147033e-13
1.5811204e-12
7.0039213e-12
2.5284553e-11
7.909578e-11
2.2275107e-10
5.7918262e-10
1.4149213e-09
3.2887282e-09
7.3408362e-09
1.5847223e-08
3.3267867e-08
6.820654e-08
1.3703708e-07
2.7054932e-07
5.2601877e-07
1.0089297e-06
1.9117144e-06
3.5821622e-06
6.6429034e-06
1.2197409e-05
2.2179279e-05
3.9930838e-05
7.1127589e-05
0.00012516836
0.00021704678
0.00036935518
0.00061331976
0.00098691679
0.0015282818
0.0022649391
0.003202877
0.0043208181
0.0055723526
0.0068944685
0.0082189551
0.0094835368
0.010640699
0.011663005
0.012542192
0.013291832
0.013946375
0.014535292
0.015087082
0.015626808
0.016175117
0.016746792
0.017353159
0.01736601
0.017175433
0.017098102
0.017145907
0.017725996
0.019256739
0.019729347
0.018677763
0.016703801
0.013699042
0.0076321633
0.0029214062
0.0019658286
0.0014455567
4.1254525e-18
8.0234405e-16
2.1370508e-14
2.1664305e-13
1.3100515e-12
5.8031868e-12
2.0949953e-11
6.5536594e-11
1.845666e-10
4.7990049e-10
1.1723827e-09
2.7249906e-09
6.0824731e-09
1.313053e-08
2.7564116e-08
5.6510512e-08
1.1353182e-07
2.2412588e-07
4.3571207e-07
8.3559372e-07
1.582968e-06
2.9654046e-06
5.497407e-06
1.0090225e-05
1.8339824e-05
3.3004873e-05
5.8775374e-05
0.00010344653
0.00017955564
0.00030629228
0.00051091085
0.00082806019
0.0012951614
0.0019433928
0.0027868864
0.003814992
0.0049913814
0.0062601315
0.0075560152
0.0088156785
0.0099872133
0.011036545
0.011949384
0.012732006
0.013407948
0.014004361
0.014548855
0.01505942
0.015554783
0.016046046
0.016405784
0.016080316
0.015788096
0.015529301
0.015553383
0.016382564
0.017238651
0.01625665
0.014573007
0.011927882
0.0074501226
0.002885862
0.0017104461
0.0012994556
0.0009476598
3.3438925e-18
6.5034113e-16
1.732189e-14
1.7560039e-13
1.0618675e-12
4.7038205e-12
1.6981273e-11
5.3122019e-11
1.4960548e-10
3.8899949e-10
9.5032038e-10
2.2088552e-09
4.930401e-09
1.0643427e-08
2.2342765e-08
4.5804792e-08
9.2019891e-08
1.816478e-07
3.5310247e-07
6.7708794e-07
1.2824857e-06
2.4019952e-06
4.4517123e-06
8.1681294e-06
1.4840408e-05
2.6696446e-05
4.7526808e-05
8.3650013e-05
0.00014529908
0.00024835567
0.0004159422
0.00067868077
0.001071894
0.0016286135
0.0023697383
0.0032950743
0.0043795382
0.0055762503
0.0068250042
0.0080629792
0.0092348338
0.010300191
0.011237389
0.012044042
0.012733321
0.013326706
0.013852686
0.014314559
0.014730053
0.015105903
0.015039186
0.014552075
0.01405611
0.01367091
0.013916914
0.014723503
0.01368827
0.012089251
0.0097210638
0.0061595617
0.0025788987
0.001387526
0.0011009205
0.00084527341
0.00069249725
2.6494513e-18
5.152817e-16
1.3724566e-14
1.3913269e-13
8.4134761e-13
3.726993e-12
1.3454939e-11
4.2091113e-11
1.1854086e-10
3.0822964e-10
7.5300842e-10
1.7502524e-09
3.9067717e-09
8.4336931e-09
1.7703991e-08
3.6294408e-08
7.2912252e-08
1.4392391e-07
2.7975613e-07
5.3640077e-07
1.0158937e-06
1.9023965e-06
3.5250579e-06
6.4661461e-06
1.1744284e-05
2.1119201e-05
3.7585988e-05
6.614745e-05
0.00011495028
0.00019678598
0.00033068396
0.0005427796
0.00086502587
0.0013303617
0.0019643764
0.0027762204
0.003752449
0.0048569162
0.0060366849
0.0072315552
0.0083842349
0.0094487242
0.010395385
0.011212207
0.011901847
0.012475044
0.012964859
0.013352296
0.013652955
0.013873453
0.013391527
0.012664194
0.011984101
0.01174815
0.012243228
0.01113903
0.0095231534
0.0073904831
0.0043520666
0.0019883095
0.0011354636
0.00091474812
0.00073577016
0.00062118005
0.00061401142
2.0513643e-18
3.9896203e-16
1.0626385e-14
1.0772505e-13
6.5142566e-13
2.8857e-12
1.0417866e-11
3.2590635e-11
9.1786017e-11
2.3866526e-10
5.830705e-10
1.3552769e-09
3.0251777e-09
6.5306316e-09
1.370919e-08
2.8104885e-08
5.6460125e-08
1.1144754e-07
2.1662537e-07
4.1534174e-07
7.865799e-07
1.4728634e-06
2.7288429e-06
5.0048126e-06
9.0881402e-06
1.633849e-05
2.9070102e-05
5.1153341e-05
8.8915591e-05
0.00015238192
0.00025673276
0.00042347397
0.00068025236
0.0010579507
0.0015844429
0.0022760102
0.0031301911
0.0041225476
0.0052095198
0.0063359212
0.0074445109
0.0084848622
0.0094194906
0.010226125
0.010895662
0.011426281
0.011848105
0.012128499
0.012270674
0.012287351
0.011365872
0.010432711
0.0098546586
0.0099127038
0.0087404317
0.007042485
0.0051158645
0.0027273404
0.0013558734
0.00086466551
0.00075731706
0.00063507984
0.00056098017
0.00055299174
0.00061566198
1.5526283e-18
3.0196488e-16
8.0428617e-15
8.1534702e-14
4.9305216e-13
2.1841532e-12
7.8852612e-12
2.4668163e-11
6.9474935e-11
1.8065467e-10
4.4135684e-10
1.0259022e-09
2.2900138e-09
4.9436959e-09
1.0378099e-08
2.1276368e-08
4.2743252e-08
8.4373648e-08
1.6400492e-07
3.1445953e-07
5.9554314e-07
1.1151719e-06
2.0661473e-06
3.7893404e-06
6.8806285e-06
1.2368688e-05
2.2004165e-05
3.8716604e-05
6.7307016e-05
0.00011543032
0.00019483413
0.00032257923
0.0005215327
0.00081899235
0.0012424374
0.0018126209
0.0025359469
0.0033995061
0.0043705203
0.0054011495
0.0064365854
0.0074237317
0.0083180002
0.0090865288
0.0097070069
0.010162171
0.010475598
0.010604672
0.01054837
0.010138126
0.0090079966
0.0081753882
0.0079114723
0.0065977596
0.0048508692
0.0030923487
0.0015957743
0.0008475968
0.00062054928
0.00058755858
0.00053778989
0.00049829255
0.00050945444
0.00055391091
0.00065377132
1.1503488e-18
2.2372708e-16
5.9589918e-15
6.0409545e-14
3.6530757e-13
1.6182798e-12
5.8424257e-12
1.8277725e-11
5.1478168e-11
1.3386125e-10
3.270449e-10
7.6021469e-10
1.6970014e-09
3.6636242e-09
7.6911936e-09
1.5768579e-08
3.1679998e-08
6.2539097e-08
1.2157243e-07
2.3312259e-07
4.4155365e-07
8.2693705e-07
1.5323607e-06
2.8108492e-06
5.1047524e-06
9.1776806e-06
1.6329154e-05
2.8734422e-05
4.9962667e-05
8.5726236e-05
0.00014487047
0.00024047484
0.00039064197
0.00061814967
0.00094796404
0.0014021765
0.0019932289
0.0027178824
0.0035542279
0.0044634715
0.0053955866
0.006296931
0.0071170302
0.0078123583
0.0083459107
0.00868349
0.0088461996
0.0087813013
0.0085082997
0.0076664592
0.0066980228
0.0059404482
0.0045812478
0.0030401229
0.0016491093
0.00088544953
0.0005043205
0.00043225177
0.00043551197
0.0004332692
0.00043685668
0.00046191472
0.00051320511
0.00058806364
0.00068728572
8.3673738e-19
1.6273387e-16
4.3344312e-15
4.3940613e-14
2.6571894e-13
1.1771266e-12
4.2498229e-12
1.3295662e-11
3.7447513e-11
9.7379738e-11
2.379231e-10
5.530734e-10
1.2346619e-09
2.6656224e-09
5.5963742e-09
1.1474546e-08
2.3054961e-08
4.5517244e-08
8.8494504e-08
1.6972186e-07
3.2153533e-07
6.0232851e-07
1.1165178e-06
2.0488791e-06
3.7226995e-06
6.6964671e-06
1.1921056e-05
2.0988317e-05
3.6511024e-05
6.2676599e-05
0.00010600513
0.00017624717
0.00028719626
0.00045689503
0.00070641074
0.0010564922
0.0015222451
0.0021072
0.0027988641
0.0035677274
0.0043701634
0.0051539577
0.0058640995
0.0064463855
0.0068474037
0.0070244925
0.0070019388
0.0067335843
0.0062214554
0.0054373414
0.0042542937
0.0029056393
0.0016306389
0.00086963651
0.00046934729
0.00029318177
0.00029745792
0.00031532698
0.00034039325
0.00037456387
0.00041880752
0.00043007029
0.00046370462
0.00058378758
0.00071486964
6.0064426e-19
1.16817e-16
3.1114326e-15
3.1542488e-14
1.9074644e-13
8.4501454e-13
3.0508569e-12
9.5449501e-12
2.6884496e-11
6.9914172e-11
1.7082579e-10
3.9712073e-10
8.8657201e-10
1.9142333e-09
4.0191901e-09
8.2415708e-09
1.656118e-08
3.2701548e-08
6.3590416e-08
1.2198859e-07
2.311776e-07
4.3323433e-07
8.0347346e-07
1.4753294e-06
2.6825731e-06
4.829641e-06
8.6062176e-06
1.5168871e-05
2.6419109e-05
4.5409205e-05
7.6891244e-05
0.00012799521
0.00020891578
0.00033337094
0.00051807268
0.00078068413
0.0011360281
0.0015909815
0.0021396424
0.0027604251
0.0034162292
0.0040572566
0.004624782
0.0050537572
0.0052744991
0.0052657236
0.005038582
0.0045704023
0.003812199
0.0028387196
0.0016356006
0.00081851539
0.00044694953
0.00025237415
0.00017620856
0.00019557862
0.00022565751
0.00026769367
0.00032077718
0.00032106924
0.00031174049
0.00034499816
0.0003905539
0.00051840119
0.00066210798
4.2927417e-19
8.3487924e-17
2.2237117e-15
2.2543228e-14
1.3632695e-13
6.0394616e-13
2.1805609e-12
6.8223793e-12
1.9216898e-11
4.9976884e-11
1.2211908e-10
2.8391137e-10
6.3388299e-10
1.3687706e-09
2.8742372e-09
5.8945718e-09
1.1846909e-08
2.3397601e-08
4.5510077e-08
8.7333137e-08
1.6557306e-07
3.1045706e-07
5.7616521e-07
1.0588498e-06
1.9272957e-06
3.4741432e-06
6.1995549e-06
1.0944087e-05
1.9092329e-05
3.2870833e-05
5.5756827e-05
9.2988171e-05
0.0001520939
0.0002431895
0.0003787992
0.00057272553
0.00083778887
0.0011811726
0.0016002049
0.0020784224
0.0025834961
0.0030672134
0.0034667334
0.0037062441
0.0037213083
0.0035317459
0.003124527
0.0024514806
0.0016348098
0.00080188067
0.00041468794
0.00022603265
0.00013633622
0.000111049
0.00013177912
0.00016694849
0.00021715185
0.00027926672
0.00025165921
0.00024428267
0.00025272824
0.00028776726
0.00034470098
0.0004698142
0.00060614057
3.0969959e-19
6.0232318e-17
1.6042975e-15
1.6263914e-14
9.8355116e-14
4.3573664e-13
1.5732912e-12
4.9226188e-12
1.386652e-11
3.606466e-11
8.8131192e-11
2.0491229e-10
4.5755166e-10
9.8813382e-10
2.0752583e-09
4.2567656e-09
8.5571263e-09
1.6904902e-08
3.2892542e-08
6.3147582e-08
1.1978589e-07
2.2476047e-07
4.1749091e-07
7.6808782e-07
1.3999422e-06
2.527617e-06
4.5189599e-06
7.9939519e-06
1.3976075e-05
2.4112535e-05
4.0972768e-05
6.8425118e-05
0.00011204881
0.00017942218
0.00027997984
0.00042404021
0.00062069106
0.00087511336
0.0011852849
0.0015363003
0.0018970763
0.002218246
0.0024322181
0.0024625901
0.002314871
0.0019800879
0.0014693474
0.00082210911
0.00039130559
0.00021068387
0.00011760811
7.5359504e-05
7.256044e-05
9.4587787e-05
0.00013137774
0.00018427735
0.00024349297
0.00021130407
0.00020366439
0.00020379815
0.00021816872
0.00025838013
0.00031075205
0.00042822344
0.00057054466
2.2976513e-19
4.4686157e-17
1.1902245e-15
1.2066246e-14
7.2971168e-14
3.2328874e-13
1.1673282e-12
3.6526049e-12
1.0289689e-11
2.6763989e-11
6.5409327e-11
1.5209919e-10
3.3967002e-10
7.336728e-10
1.5411417e-09
3.1619269e-09
6.3580588e-09
1.2565016e-08
2.4459024e-08
4.6982673e-08
8.9184003e-08
1.6748582e-07
3.114415e-07
5.7375344e-07
1.0474688e-06
1.8949708e-06
3.3957205e-06
6.0224204e-06
1.0557273e-05
1.8258314e-05
3.1086867e-05
5.1980507e-05
8.5120004e-05
0.00013610664
0.00021188771
0.00032006971
0.00046708255
0.00065505176
0.00087749871
0.0011180408
0.0013429608
0.0015000602
0.0015248198
0.0014094686
0.0011535829
0.00079311923
0.00038494127
0.00019177482
0.00010693946
6.3024168e-05
4.4503189e-05
4.9769143e-05
7.2106876e-05
0.00010965369
0.00016266441
0.00020771854
0.00019101119
0.00018294569
0.00017713064
0.00018190982
0.00019990953
0.00023495253
0.00028958667
0.00040466531
0.00054564304
1.7842074e-19
3.4700393e-17
9.2425394e-16
9.3699691e-15
5.6666295e-14
2.5105944e-13
9.0656064e-13
2.8368111e-12
7.9920886e-12
2.0789627e-11
5.0813836e-11
1.1817509e-10
2.6395228e-10
5.7023649e-10
1.1981145e-09
2.4588613e-09
4.9460941e-09
9.778965e-09
1.9046122e-08
3.6609989e-08
6.9552689e-08
1.3075467e-07
2.4345229e-07
4.492082e-07
8.216665e-07
1.4898831e-06
2.6769735e-06
4.7620452e-06
8.3747723e-06
1.4531165e-05
2.481331e-05
4.1570917e-05
6.8072704e-05
0.000108507
0.00016768429
0.0002502232
0.00035892996
0.00049226626
0.0006403287
0.00078020333
0.00087501632
0.00088273875
0.00079133759
0.00060906832
0.00037990293
0.00018219182
9.5096314e-05
5.497351e-05
3.4922056e-05
2.8434612e-05
3.6591275e-05
5.8247302e-05
9.5431004e-05
0.00014706657
0.00019317364
0.00018536129
0.00017553124
0.00016699735
0.00016498788
0.0001725349
0.00018915032
0.00022547626
0.00027826623
0.00038458348
0.0005244304
1.4542408e-19
2.8283015e-17
7.5332744e-16
7.6371939e-15
4.6187756e-14
2.0463925e-13
7.3896574e-13
2.3124819e-12
6.5153112e-12
1.6949478e-11
4.1431988e-11
9.6368572e-11
2.1528053e-10
4.6518057e-10
9.7762768e-10
2.006985e-09
4.0386816e-09
7.9887126e-09
1.5568449e-08
2.9946899e-08
5.6944329e-08
1.0716748e-07
1.9979733e-07
3.6924196e-07
6.7667494e-07
1.2297117e-06
2.2151782e-06
3.9518398e-06
6.9709848e-06
1.2131119e-05
2.0762311e-05
3.479712e-05
5.681479e-05
8.9858289e-05
0.00013684357
0.00019940143
0.00027604365
0.00035969069
0.00043555475
0.00048156979
0.00047396064
0.00040605199
0.00029261846
0.00016891882
8.4691118e-05
4.7432585e-05
2.9082755e-05
2.0640369e-05
1.9565744e-05
2.8606872e-05
4.8959464e-05
8.4593073e-05
0.0001345327
0.00019239662
0.00019034552
0.00017837971
0.00016719505
0.00016168542
0.00016248915
0.00016978822
0.00018654124
0.00021862369
0.00026867512
0.00037296009
0.0005176479
1.214462e-19
2.3619654e-17
6.2911863e-16
6.378002e-15
3.8572819e-14
1.7090281e-13
6.1715334e-13
1.9313423e-12
5.4416783e-12
1.4157182e-11
3.4608804e-11
8.0505584e-11
1.7986503e-10
3.8871316e-10
8.1707925e-10
1.6777941e-09
3.3772472e-09
6.6827926e-09
1.3029225e-08
2.5075884e-08
4.7712293e-08
8.9860152e-08
1.6767592e-07
3.101864e-07
5.6907984e-07
1.0354214e-06
1.8674805e-06
3.3353461e-06
5.8883977e-06
1.0246059e-05
1.7500692e-05
2.9173172e-05
4.711801e-05
7.3104745e-05
0.00010792619
0.00015005012
0.00019408449
0.00023089715
0.00024827021
0.00023403263
0.00019004559
0.00012730495
7.2542032e-05
3.9227201e-05
2.3623897e-05
1.5904651e-05
1.2962041e-05
1.4522817e-05
2.3085972e-05
4.2494645e-05
7.5794063e-05
0.00012367623
0.00017844033
0.00020192748
0.00018682319
0.00017346288
0.0001654396
0.00016331214
0.00016412816
0.00017148938
0.00018592641
0.00021698735
0.000267633
0.00036840465
0.00051543614
9.9098255e-20
1.9273281e-17
5.1335173e-16
5.2043619e-15
3.1474881e-14
1.3945414e-13
5.0358717e-13
1.575943e-12
4.4403235e-12
1.1552083e-11
2.8240581e-11
6.5692955e-11
1.4677356e-10
3.1720595e-10
6.6679103e-10
1.3692397e-09
2.7562532e-09
5.4541515e-09
1.0633929e-08
2.0465559e-08
3.8937292e-08
7.3321567e-08
1.3677418e-07
2.5289162e-07
4.63585e-07
8.424069e-07
1.5164308e-06
2.7005076e-06
4.7468371e-06
8.206903e-06
1.3874192e-05
2.2759712e-05
3.5855864e-05
5.3565377e-05
7.482814e-05
9.6281514e-05
0.00011253227
0.00011732093
0.00010619808
8.2144208e-05
5.2539701e-05
3.0476491e-05
1.7953001e-05
1.1895874e-05
9.2048092e-06
8.5164594e-06
1.1132216e-05
1.9505305e-05
3.6968425e-05
6.860252e-05
0.0001132614
0.0001645525
0.00021528402
0.00019668145
0.00018205114
0.00017315115
0.00016831856
0.00016610039
0.00016760824
0.00017484711
0.00018913419
0.0002191233
0.00026620616
0.00036553388
0.00051532979
7.4941247e-20
1.4575064e-17
3.8821225e-16
3.9356794e-15
2.3801908e-14
1.05456e-13
3.808054e-13
1.1916626e-12
3.3574286e-12
8.7342512e-12
2.1350323e-11
4.9659813e-11
1.1093702e-10
2.3971493e-10
5.0378541e-10
1.0342051e-09
2.0810217e-09
4.1158553e-09
8.0191593e-09
1.5419252e-08
2.930087e-08
5.5087112e-08
1.0254138e-07
1.890632e-07
3.4529041e-07
6.2436183e-07
1.1165998e-06
1.9712187e-06
3.4245139e-06
5.8266153e-06
9.6402757e-06
1.5347853e-05
2.3190926e-05
3.2713049e-05
4.2210583e-05
4.8816021e-05
4.9664515e-05
4.3672983e-05
3.2427579e-05
2.0667208e-05
1.2784015e-05
8.1971056e-06
6.3271907e-06
5.5021556e-06
6.0763866e-06
8.871676e-06
1.6628425e-05
3.3746551e-05
6.4811228e-05
0.00010654219
0.00015447281
0.00020363629
0.00020451125
0.00019084702
0.00018143905
0.00017462449
0.00016971974
0.000169547
0.00017205384
0.00018009796
0.00019357803
0.00022226264
0.00026964207
0.00036941886
0.00052546815
5.0532694e-20
9.8279217e-18
2.6176941e-16
2.6537809e-15
1.604902e-14
7.1103961e-14
2.5674643e-13
8.0338701e-13
2.2632762e-12
5.8871064e-12
1.4388258e-11
3.3459027e-11
7.4723838e-11
1.6140356e-10
3.3903773e-10
6.9554805e-10
1.3983907e-09
2.762681e-09
5.3749139e-09
1.0315433e-08
1.9554149e-08
3.6645647e-08
6.7931468e-08
1.245782e-07
2.2593747e-07
4.0486223e-07
7.1558189e-07
1.2440582e-06
2.1182752e-06
3.5097304e-06
5.6053439e-06
8.5149567e-06
1.2086539e-05
1.5677524e-05
1.8148068e-05
1.8308376e-05
1.6022161e-05
1.1880144e-05
8.0191436e-06
5.3448865e-06
3.99714e-06
3.4631553e-06
3.6565009e-06
4.5133322e-06
7.355768e-06
1.5294461e-05
3.2286125e-05
6.0510474e-05
9.9044134e-05
0.00014172703
0.00018528314
0.00020908957
0.00019766055
0.00018819285
0.00017963741
0.00017392872
0.00017211701
0.00017320373
0.00017665501
0.00018546154
0.00019907683
0.00022827239
0.00027402241
0.00037271296
0.00053271213
2.96545e-20
5.7673897e-18
1.5361516e-16
1.5573054e-15
9.4177004e-15
4.1722472e-14
1.5064352e-13
4.7133301e-13
1.3276423e-12
3.4527445e-12
8.4364956e-12
1.9612027e-11
4.3780121e-11
9.4510241e-11
1.9837327e-10
4.0656473e-10
8.1633142e-10
1.6100276e-09
3.125488e-09
5.9812535e-09
1.1296238e-08
2.1068439e-08
3.8813539e-08
7.060992e-08
1.2673635e-07
2.2407032e-07
3.8919968e-07
6.6148967e-07
1.0935601e-06
1.7432117e-06
2.6465673e-06
3.7628704e-06
4.9037214e-06
5.711734e-06
5.7949576e-06
5.1638445e-06
4.0856829e-06
3.0740743e-06
2.3887013e-06
2.0255431e-06
2.1665143e-06
2.528157e-06
3.5972184e-06
6.7178175e-06
1.4721597e-05
3.0016567e-05
5.6490854e-05
9.1608109e-05
0.00013027916
0.00017105515
0.00020771821
0.0001996809
0.00019105275
0.00018270252
0.00017699456
0.00017467509
0.00017363463
0.00017621542
0.0001811589
0.00019143165
0.00020542995
0.00023473562
0.00027945084
0.00038241598
0.00054662886
1.4952458e-20
2.908042e-18
7.745548e-17
7.8520536e-16
4.7483014e-15
2.103475e-14
7.5941411e-14
2.375746e-13
6.6907554e-13
1.73961e-12
4.2491863e-12
9.8735714e-12
2.2027968e-11
4.7516145e-11
9.9633586e-11
2.0392825e-10
4.0875649e-10
8.043712e-10
1.5569522e-09
2.9683075e-09
5.578613e-09
1.0338962e-08
1.8891886e-08
3.4006745e-08
6.0208753e-08
1.0458047e-07
1.7752677e-07
2.9286058e-07
4.6575107e-07
7.0606697e-07
1.0049113e-06
1.3167067e-06
1.5507971e-06
1.6269544e-06
1.5585129e-06
1.4038424e-06
1.2216362e-06
1.1294541e-06
1.2017239e-06
1.4132011e-06
1.9531078e-06
3.2435425e-06
6.5000203e-06
1.3756349e-05
2.7741694e-05
5.2218796e-05
8.4284114e-05
0.00011950585
0.0001577301
0.00019788774
0.00019555546
0.00018947465
0.00018287402
0.00017821639
0.00017513379
0.00017359392
0.00017481653
0.0001793111
0.00018551531
0.00019713298
0.00021192353
0.00024214376
0.00028726164
0.00039021946
0.00055719419
6.4752777e-21
1.2593476e-18
3.354229e-17
3.4002669e-16
2.056118e-15
9.1078279e-15
3.2878178e-14
1.0283946e-13
2.8955995e-13
7.5263353e-13
1.8376388e-12
4.2676847e-12
9.5143661e-12
2.0503856e-11
4.2940003e-11
8.7746967e-11
1.7551219e-10
3.4444206e-10
6.6436026e-10
1.2608346e-09
2.355703e-09
4.3328718e-09
7.8401863e-09
1.3936139e-08
2.4276479e-08
4.1295461e-08
6.8243975e-08
1.0878687e-07
1.656786e-07
2.3808884e-07
3.1806377e-07
3.9189377e-07
4.5093332e-07
4.9116561e-07
5.2642389e-07
5.6361561e-07
6.0928999e-07
7.7449555e-07
1.0976508e-06
1.763509e-06
3.1374103e-06
6.1321224e-06
1.2540555e-05
2.5282635e-05
4.7924898e-05
7.713701e-05
0.00010964147
0.00014558021
0.00018166275
0.00018558453
0.000182783
0.000178968
0.0001756476
0.00017297673
0.00017152846
0.00017305926
0.0001758462
0.00018165618
0.0001894337
0.0002028737
0.00021853101
0.00025021721
0.00029399556
0.00040309406
0.0005711157
2.5193417e-21
4.8997435e-19
1.3050164e-17
1.3228949e-16
7.999083e-16
3.5430289e-15
1.2788498e-14
3.9994756e-14
1.1258665e-13
2.9255203e-13
7.1401485e-13
1.657338e-12
3.6923161e-12
7.9499378e-12
1.6629666e-11
3.3931241e-11
6.7738374e-11
1.3260754e-10
2.5496709e-10
4.8194329e-10
8.9588742e-10
1.6373182e-09
2.9390888e-09
5.1728539e-09
8.9028996e-09
1.4928497e-08
2.4272117e-08
3.8047885e-08
5.7169317e-08
8.2216215e-08
1.1343396e-07
1.4996654e-07
1.9054637e-07
2.4305688e-07
3.1912683e-07
4.2816609e-07
6.400557e-07
1.0162789e-06
1.6901978e-06
2.9813912e-06
5.6233207e-06
1.1315883e-05
2.3213271e-05
4.3961587e-05
7.0523379e-05
0.0001006775
0.00013433117
0.00016625406
0.00017157755
0.00017169985
0.00017050557
0.00016923214
0.00016786139
0.00016775297
0.00016916881
0.00017176677
0.00017608815
0.0001839105
0.00019313824
0.0002081299
0.0002252014
0.00025814527
0.00030330431
0.00041395872
0.00058153572
1.1088521e-21
2.1565515e-19
5.7438382e-18
5.8225244e-17
3.5206805e-16
1.5594186e-15
5.6287362e-15
1.7603559e-14
4.9555804e-14
1.2877372e-13
3.1430937e-13
7.2962767e-13
1.6257369e-12
3.501122e-12
7.3259568e-12
1.4954901e-11
2.9875596e-11
5.8544405e-11
1.1272884e-10
2.135342e-10
3.9816369e-10
7.3094444e-10
1.3206744e-09
2.3466959e-09
4.0958948e-09
7.0117085e-09
1.1754853e-08
1.92782e-08
3.0933975e-08
4.8508893e-08
7.4315495e-08
1.1157101e-07
1.6555496e-07
2.4810029e-07
3.7889211e-07
6.0176647e-07
9.6607423e-07