/*--------------------------------*- C++ -*----------------------------------*\
  =========                 |
  \\      /  F ield         | OpenFOAM: The Open Source CFD Toolbox
   \\    /   O peration     | Website:  https://openfoam.org
    \\  /    A nd           | Version:  13
     \\/     M anipulation  |
\*---------------------------------------------------------------------------*/
FoamFile
{
    format      ascii;
    class       volScalarField;
    location    "3.301691";
    object      nut;
}
// * * * * * * * * * * * * * * * * * * * * * * * * * * * * * * * * * * * * * //

dimensions      [0 2 -1 0 0 0 0];

internalField   nonuniform List<scalar> 
17140
(
7.0419901e-18
1.3695765e-15
3.6479488e-14
3.6984021e-13
2.2368502e-12
9.9116699e-12
3.5797361e-11
1.1204545e-10
3.1576377e-10
8.2170992e-10
2.0093643e-09
4.6756939e-09
1.0450351e-08
2.2593868e-08
4.7512906e-08
9.7605853e-08
1.9655742e-07
3.8911096e-07
7.589761e-07
1.4614042e-06
2.7818269e-06
5.2391385e-06
9.7579238e-06
1.7914729e-05
3.2128566e-05
5.5201839e-05
8.4115126e-05
9.2434808e-05
9.7361975e-05
0.00010034516
0.00010184626
0.00010222938
0.00010235014
0.00010256749
0.00010303404
0.00010390064
0.00010537764
0.00010777166
0.00011155622
0.00011752944
0.0001276101
0.00014732392
0.00019154658
0.00024302683
0.00024692936
0.00025338718
0.00026465187
0.00027714964
0.00029236427
0.0003053117
0.00031613466
0.00032540671
0.00033888463
0.00033393755
0.00031226381
0.00027577824
0.00023402246
0.00019639528
0.00016881749
0.0001546714
0.00015612709
0.00017510144
0.00021615437
0.00028568954
0.00039651244
6.944491e-18
1.3506132e-15
3.5974428e-14
3.6472081e-13
2.205897e-12
9.7745609e-12
3.5302344e-11
1.1049654e-10
3.1139963e-10
8.1035364e-10
1.9815878e-09
4.6110173e-09
1.0305619e-08
2.2280332e-08
4.685159e-08
9.6241555e-08
1.9379432e-07
3.8360053e-07
7.4812875e-07
1.440289e-06
2.7411445e-06
5.1616066e-06
9.6123505e-06
1.7648429e-05
3.1665964e-05
5.4477518e-05
8.4511869e-05
9.2963669e-05
9.7963685e-05
0.00010096449
0.00010242758
0.00010272195
0.00010270615
0.00010273862
0.00010296119
0.00010350771
0.00010456456
0.00010640021
0.00010942847
0.00011434929
0.00012277594
0.00013948649
0.00017766303
0.00021868238
0.00021580801
0.00021102225
0.0002107197
0.0002087697
0.00020828936
0.00020678464
0.00020519952
0.00020696635
0.0002126874
0.00022221118
0.00022491032
0.00021662468
0.00019880877
0.0001764568
0.00015765558
0.00014843264
0.00015225632
0.00017223396
0.00021466684
0.00028662504
0.00040054255
6.7146333e-18
1.3059086e-15
3.4783693e-14
3.5264864e-13
2.1328806e-12
9.4509993e-12
3.4133613e-11
1.0683763e-10
3.0108442e-10
7.8349481e-10
1.9158497e-09
4.4578432e-09
9.9626071e-09
2.1536716e-08
4.5282017e-08
9.3001195e-08
1.8722692e-07
3.7049376e-07
7.2230827e-07
1.3899849e-06
2.644124e-06
4.9764457e-06
9.263932e-06
1.7008631e-05
3.0546594e-05
5.2700417e-05
8.4619867e-05
9.4194653e-05
9.940835e-05
0.00010246274
0.00010386267
0.00010393412
0.00010357159
0.00010313118
0.000102723
0.00010242813
0.00010236957
0.00010270528
0.0001036777
0.0001057074
0.00010988859
0.00011987394
0.00014540026
0.00016223571
0.00014695526
0.00013229301
0.00011959492
0.00010668735
9.5340887e-05
8.5413029e-05
7.8155281e-05
7.5737902e-05
7.9155535e-05
9.3375137e-05
0.00011769445
0.00013575174
0.00014933261
0.00014829279
0.00014067444
0.00013685689
0.00014357725
0.00016598686
0.00021159798
0.00028830023
0.0004079364
6.3535396e-18
1.2356805e-15
3.2913118e-14
3.3368383e-13
2.0181743e-12
8.942688e-12
3.2297513e-11
1.0108929e-10
2.8487839e-10
7.4129684e-10
1.812568e-09
4.2171931e-09
9.4237238e-09
2.036855e-08
4.2816586e-08
8.7912069e-08
1.7691433e-07
3.4991639e-07
6.8177723e-07
1.3110261e-06
2.491807e-06
4.6855272e-06
8.7154057e-06
1.5996704e-05
2.8758187e-05
4.9799706e-05
8.0609021e-05
9.6036883e-05
0.00010173438
0.00010479304
0.0001060143
0.00010565975
0.00010462621
0.00010327904
0.00010170767
9.9943753e-05
9.801694e-05
9.5990653e-05
9.3979225e-05
9.22183e-05
9.1456927e-05
9.4336363e-05
0.00010692312
0.00010450659
8.613205e-05
7.0138339e-05
5.6828014e-05
4.6048968e-05
3.8439732e-05
3.3956245e-05
3.1199594e-05
3.0755924e-05
3.3143462e-05
4.1879354e-05
6.9077551e-05
9.6015813e-05
0.00011567992
0.0001319359
0.0001309537
0.00012839918
0.00013634095
0.00016079683
0.00020993533
0.00029195016
0.00041789863
5.874514e-18
1.1425162e-15
3.0431631e-14
3.0852536e-13
1.8660069e-12
8.2683743e-12
2.9861821e-11
9.346397e-11
2.6338163e-10
6.8532662e-10
1.6755935e-09
3.8980912e-09
8.7093388e-09
1.8820464e-08
3.9550818e-08
8.1174927e-08
1.6327261e-07
3.2272194e-07
6.2827344e-07
1.2069319e-06
2.29129e-06
4.303072e-06
7.9949017e-06
1.466663e-05
2.6397732e-05
4.5929569e-05
7.514791e-05
9.8765857e-05
0.00010498689
0.00010815272
0.00010916381
0.00010821971
0.00010627725
0.0001037363
0.00010067483
9.7088119e-05
9.2980821e-05
8.8392057e-05
8.3412532e-05
7.8237362e-05
7.3465266e-05
7.1052341e-05
7.4519539e-05
6.2924821e-05
4.7512583e-05
3.5649293e-05
2.7475648e-05
2.2286108e-05
1.9605009e-05
1.8152586e-05
1.7568071e-05
1.7600615e-05
1.9236252e-05
2.461462e-05
4.5001462e-05
7.8723829e-05
0.00010257431
0.0001250949
0.00013782835
0.00013488175
0.00014070784
0.00016448473
0.00021543561
0.00030170788
0.00043310538
5.29986e-18
1.0307536e-15
2.7454767e-14
2.7834461e-13
1.6834639e-12
7.4594668e-12
2.6940047e-11
8.4317331e-11
2.3759801e-10
6.1820277e-10
1.5113517e-09
3.5155636e-09
7.8532673e-09
1.6966253e-08
3.5641842e-08
7.3117798e-08
1.4697593e-07
2.9027888e-07
5.6454744e-07
1.0831858e-06
2.0534176e-06
3.8503092e-06
7.1432225e-06
1.3093856e-05
2.3593172e-05
4.1267293e-05
6.8374135e-05
0.00010262304
0.00010959926
0.0001129683
0.00011379782
0.00011215658
0.00010909971
0.00010511467
0.00010031711
9.4716875e-05
8.8346826e-05
8.1294805e-05
7.3720001e-05
6.5886771e-05
5.8395445e-05
5.2787772e-05
5.1064905e-05
3.7546367e-05
2.7092326e-05
2.0238477e-05
1.6649807e-05
1.5018988e-05
1.4327174e-05
1.4126752e-05
1.3959044e-05
1.406526e-05
1.5261382e-05
1.9158021e-05
3.4243293e-05
6.8107499e-05
9.7962621e-05
0.00012378295
0.00014655344
0.00015062514
0.00015618485
0.00017928145
0.00023106621
0.00032036935
0.0004558052
4.6557405e-18
9.0548085e-16
2.4118056e-14
2.4451561e-13
1.478856e-12
6.5527936e-12
2.3665226e-11
7.4065927e-11
2.0870225e-10
5.4298554e-10
1.3273389e-09
3.0870986e-09
6.8947435e-09
1.4891194e-08
3.1270283e-08
6.4115282e-08
1.2878782e-07
2.5412126e-07
4.9364407e-07
9.4576519e-07
1.7897944e-06
3.3494567e-06
6.2019722e-06
1.1352997e-05
2.0466096e-05
3.596759e-05
6.0349282e-05
9.3464113e-05
0.00011594634
0.00011980953
0.000120549
0.00011815955
0.00011380293
0.0001081428
0.00010139735
9.3644874e-05
8.4998352e-05
7.5653017e-05
6.5891232e-05
5.6093779e-05
4.6907373e-05
3.9601107e-05
3.4543693e-05
2.3598895e-05
1.7495427e-05
1.442588e-05
1.3246892e-05
1.3040094e-05
1.3262315e-05
1.3527708e-05
1.3251889e-05
1.3210464e-05
1.4180755e-05
1.7354295e-05
3.0183455e-05
6.4036263e-05
9.9205678e-05
0.00012890274
0.00015740442
0.00016941624
0.00017762444
0.00020207346
0.00025553555
0.00034763025
0.00048589406
3.9736041e-18
7.7281429e-16
2.0584402e-14
2.0869003e-13
1.2621738e-12
5.5926308e-12
2.019731e-11
6.3210628e-11
1.7810688e-10
4.6335471e-10
1.1325679e-09
2.6337184e-09
5.880913e-09
1.2697702e-08
2.6652919e-08
5.4616621e-08
1.096234e-07
2.1608751e-07
4.1921571e-07
8.018622e-07
1.5144818e-06
2.8278292e-06
5.2238083e-06
9.5442319e-06
1.7201639e-05
3.0350173e-05
5.1547995e-05
8.182378e-05
0.00011644922
0.00012944972
0.00013036334
0.00012719788
0.00012134141
0.00011372764
0.00010477854
9.470402e-05
8.3734333e-05
7.2191319e-05
6.0486527e-05
4.9113613e-05
3.8767695e-05
3.052565e-05
2.360745e-05
1.6788589e-05
1.3397159e-05
1.2138878e-05
1.1923191e-05
1.2981685e-05
1.375868e-05
1.4233203e-05
1.3446719e-05
1.3085536e-05
1.3887363e-05
1.6751131e-05
2.9156639e-05
6.470402e-05
0.00010421344
0.00013910761
0.0001728295
0.00018962868
0.00020177962
0.00022964217
0.00028653153
0.00038196841
0.00052220501
3.287033e-18
6.3928497e-16
1.7027759e-14
1.7263149e-13
1.0440844e-12
4.6262483e-12
1.6707038e-11
5.228593e-11
1.4731859e-10
3.832328e-10
9.3663679e-10
2.1777789e-09
4.861813e-09
1.0494184e-08
2.2018402e-08
4.5093492e-08
9.0437914e-08
1.7808285e-07
3.4501443e-07
6.5878814e-07
1.241599e-06
2.3124746e-06
4.2601178e-06
7.7640976e-06
1.3977241e-05
2.4723605e-05
4.2427827e-05
6.893776e-05
0.00010222812
0.0001335106
0.00014448894
0.00014062916
0.0001330138
0.00012305191
0.00011149148
9.874283e-05
8.5174702e-05
7.1256686e-05
5.7558678e-05
4.469332e-05
3.3367923e-05
2.4531517e-05
1.7888329e-05
1.3345435e-05
1.1396906e-05
1.0874523e-05
1.1121484e-05
1.3170403e-05
1.483245e-05
1.5712129e-05
1.4362054e-05
1.3134873e-05
1.3838352e-05
1.6705337e-05
3.0285465e-05
6.9143882e-05
0.00011275501
0.00015270347
0.00019068486
0.00020965286
0.0002271127
0.00026029238
0.00032248765
0.00042194615
0.00056309961
2.6290445e-18
5.1131447e-16
1.3619156e-14
1.3807368e-13
8.350732e-13
3.7001088e-12
1.3362228e-11
4.1817115e-11
1.1781768e-10
3.0647163e-10
7.4896326e-10
1.7411903e-09
3.8864018e-09
8.386462e-09
1.7589226e-08
3.600297e-08
7.2152182e-08
1.4193202e-07
2.7460636e-07
5.2343214e-07
9.8432912e-07
1.8284386e-06
3.3582736e-06
6.1021449e-06
1.0962716e-05
1.9409106e-05
3.3567437e-05
5.5664902e-05
8.5803799e-05
0.0001182541
0.00014349681
0.00015606194
0.0001507834
0.00013775953
0.00012281061
0.00010675751
9.0175845e-05
7.3635796e-05
5.773642e-05
4.3124201e-05
3.0616571e-05
2.1315007e-05
1.4925485e-05
1.1481662e-05
1.0058366e-05
9.6738401e-06
9.9279981e-06
1.1990458e-05
1.5523738e-05
1.6837256e-05
1.5564954e-05
1.3498416e-05
1.4057272e-05
1.7100599e-05
3.3231763e-05
7.7111289e-05
0.00012529713
0.00017043752
0.00021025028
0.00022944396
0.00025328897
0.00029340058
0.000362469
0.00046624277
0.00060699817
2.0282438e-18
3.9446641e-16
1.0506819e-14
1.0651973e-13
6.4423111e-13
2.85449e-12
1.0308311e-11
3.2259219e-11
9.088587e-11
2.3640408e-10
5.7768807e-10
1.3428644e-09
2.99685e-09
6.4654211e-09
1.3555714e-08
2.7733949e-08
5.554419e-08
1.0916305e-07
2.1094503e-07
4.014245e-07
7.5328043e-07
1.3955297e-06
2.5550971e-06
4.6270948e-06
8.2887612e-06
1.4663823e-05
2.5480443e-05
4.2930315e-05
6.8440473e-05
9.964644e-05
0.00012838456
0.00014641046
0.00015114231
0.00014640545
0.00013571034
0.00011998626
9.9435928e-05
7.9257342e-05
6.0365265e-05
4.3566697e-05
2.9643923e-05
1.9425726e-05
1.3203939e-05
1.0214619e-05
8.9440241e-06
8.5200119e-06
8.804855e-06
1.0686133e-05
1.6081234e-05
1.7832606e-05
1.6364228e-05
1.358452e-05
1.4155582e-05
1.8390167e-05
4.0288013e-05
8.8667456e-05
0.0001402738
0.00018959358
0.00022706802
0.00025008221
0.00028079641
0.00032903374
0.00040585162
0.00051361551
0.00065237794
1.5057215e-18
2.928426e-16
7.7999992e-15
7.9077261e-14
4.78257e-13
2.1190704e-12
7.6524387e-12
2.3947441e-11
6.7466939e-11
1.7548251e-10
4.2879449e-10
9.9667687e-10
2.2240188e-09
4.7973266e-09
1.0055912e-08
2.0566493e-08
4.1168854e-08
8.0852181e-08
1.5607743e-07
2.9658982e-07
5.5548634e-07
1.0265188e-06
1.8736381e-06
3.380948e-06
6.0351326e-06
1.0652641e-05
1.8540465e-05
3.1566678e-05
5.168683e-05
7.9054623e-05
0.00010900955
0.00013265211
0.00014334624
0.00014222065
0.00013340949
0.00011959091
0.00010275851
8.4299825e-05
6.5018194e-05
4.6608399e-05
3.0979679e-05
1.9619241e-05
1.3256828e-05
1.0056162e-05
8.5559959e-06
8.0365162e-06
8.5274835e-06
1.0630335e-05
1.7210466e-05
1.9451728e-05
1.6914898e-05
1.3445636e-05
1.4300812e-05
2.0762588e-05
4.9830789e-05
0.00010370031
0.0001581841
0.00020948422
0.00024214925
0.00027083659
0.00030962682
0.00036698304
0.00045192102
0.00056281187
0.00069787502
1.0733437e-18
2.0875082e-16
5.5601655e-15
5.636938e-14
3.4091904e-13
1.5105425e-12
5.454864e-12
1.7070185e-11
4.8090935e-11
1.2508253e-10
3.0563222e-10
7.1037321e-10
1.5850596e-09
3.4187705e-09
7.16535e-09
1.4651838e-08
2.9320403e-08
5.7555917e-08
1.1102672e-07
2.1075537e-07
3.9411452e-07
7.2674144e-07
1.3227036e-06
2.3784326e-06
4.2291191e-06
7.4391531e-06
1.2933202e-05
2.2132396e-05
3.6899118e-05
5.8716487e-05
8.6382001e-05
0.00011361534
0.00013158562
0.00013686614
0.0001313702
0.00011977709
0.00010390324
8.571382e-05
6.6767579e-05
4.8563691e-05
3.2876174e-05
2.1157904e-05
1.4217609e-05
1.062511e-05
9.0023227e-06
8.5802725e-06
9.4869831e-06
1.2943325e-05
2.0936314e-05
2.1791235e-05
1.6419451e-05
1.3079744e-05
1.4623378e-05
2.522227e-05
6.4453912e-05
0.00012122693
0.00017670391
0.00022557895
0.00025647575
0.00029314716
0.00034046227
0.00040722095
0.00049998751
0.00061269632
0.00074219924
7.3341343e-19
1.426389e-16
3.7992399e-15
3.8516865e-14
2.3294712e-13
1.0321365e-12
3.7272263e-12
1.1663725e-11
3.2859374e-11
8.5465305e-11
2.0882866e-10
4.8537389e-10
1.083018e-09
2.3359364e-09
4.8958469e-09
1.0010929e-08
2.0032029e-08
3.9316814e-08
7.5818896e-08
1.4383731e-07
2.6870636e-07
4.9470457e-07
8.9829339e-07
1.6101851e-06
2.8519445e-06
4.9957305e-06
8.6571352e-06
1.4820344e-05
2.4935953e-05
4.0738499e-05
6.3164537e-05
8.9916897e-05
0.00011388065
0.00012735325
0.00012855767
0.0001202525
0.00010674496
8.9918303e-05
7.169084e-05
5.3739782e-05
3.7734794e-05
2.5100394e-05
1.7036258e-05
1.2640445e-05
1.056014e-05
1.0713458e-05
1.260605e-05
1.9707712e-05
2.6056561e-05
2.3232747e-05
1.5058199e-05
1.2890188e-05
1.5865608e-05
3.4368667e-05
8.2452077e-05
0.0001404744
0.00019573027
0.0002360435
0.00027265279
0.00031706187
0.00037336737
0.00044954308
0.00054931002
0.00066217072
0.00078427261
4.7986081e-19
9.3326323e-17
2.4857773e-15
2.5200858e-14
1.5241243e-13
6.7530316e-13
2.4386313e-12
7.6312734e-12
2.1499074e-11
5.5918266e-11
1.3663496e-10
3.1758723e-10
7.0867526e-10
1.5286605e-09
3.2042947e-09
6.5531549e-09
1.3115512e-08
2.5746792e-08
4.9657124e-08
9.4203865e-08
1.7593004e-07
3.2363891e-07
5.867822e-07
1.0492524e-06
1.8520238e-06
3.2301604e-06
5.5720997e-06
9.5088373e-06
1.6025516e-05
2.6520032e-05
4.2533491e-05
6.4559963e-05
8.9719112e-05
0.00011086741
0.00012132129
0.00011980686
0.00011045044
9.6153448e-05
7.950283e-05
6.2411508e-05
4.6540101e-05
3.327958e-05
2.3592848e-05
1.7860558e-05
1.5486131e-05
1.6684679e-05
2.0915819e-05
3.046739e-05
3.1528384e-05
2.1737678e-05
1.3133586e-05
1.2703072e-05
1.9540582e-05
4.8327779e-05
0.00010393182
0.00016068376
0.00020969152
0.00024664107
0.00029056844
0.00034314845
0.00040854617
0.00049365196
0.00059896583
0.00071022587
0.00082319956
3.0059577e-19
5.8461733e-17
1.5571462e-15
1.5786354e-14
9.547418e-14
4.2302253e-13
1.5276037e-12
4.7803849e-12
1.346758e-11
3.5029358e-11
8.5596627e-11
1.9896928e-10
4.4403371e-10
9.5796595e-10
2.0085147e-09
4.1090245e-09
8.2275262e-09
1.6160539e-08
3.1189427e-08
5.921051e-08
1.1064216e-07
2.0358123e-07
3.6894682e-07
6.5882771e-07
1.1599523e-06
2.0154022e-06
3.4595972e-06
5.8731865e-06
9.8629657e-06
1.6355199e-05
2.6624875e-05
4.2004959e-05
6.2768161e-05
8.6103848e-05
0.00010508104
0.00011382658
0.00011225452
0.00010312439
8.9491096e-05
7.3930905e-05
5.6490038e-05
4.4097141e-05
3.5816442e-05
2.9165376e-05
2.7724767e-05
3.007109e-05
3.7118764e-05
4.0289955e-05
3.20141e-05
1.5788756e-05
1.1899904e-05
1.3351029e-05
2.6735793e-05
6.8993029e-05
0.00012574185
0.00017963557
0.00021820288
0.00025944014
0.00030935592
0.00037037403
0.00044542078
0.00053889235
0.00064783303
0.00075589998
0.00085819139
1.8043747e-19
3.509261e-17
9.3470216e-16
9.4760045e-15
5.7309783e-14
2.5392541e-13
9.1696832e-13
2.8695214e-12
8.0843066e-12
2.1028003e-11
5.1386017e-11
1.194571e-10
2.6662576e-10
5.7534571e-10
1.2066777e-09
2.4697441e-09
4.9482864e-09
9.7275612e-09
1.8793982e-08
3.5725355e-08
6.6857737e-08
1.2321394e-07
2.2361868e-07
3.9960934e-07
7.0311537e-07
1.2185331e-06
2.0824263e-06
3.5144257e-06
5.864126e-06
9.6771117e-06
1.576727e-05
2.5228164e-05
3.9181377e-05
5.7887891e-05
7.9232774e-05
9.7415075e-05
0.00010561911
0.00010511767
9.6631746e-05
8.0096823e-05
6.5464782e-05
5.5335566e-05
5.3277077e-05
4.6752121e-05
4.6531317e-05
4.9857743e-05
4.9712621e-05
4.1815487e-05
2.2033528e-05
1.2243256e-05
1.1175448e-05
1.7026889e-05
4.1899816e-05
9.1623746e-05
0.00014577013
0.00017885827
0.00019323218
0.00022094086
0.00025751884
0.0003063817
0.00037749993
0.00048281727
0.00065582516
0.00079834458
0.00088864391
1.0397464e-19
2.0221642e-17
5.3860923e-16
5.4604147e-15
3.302395e-14
1.463211e-13
5.2839306e-13
1.6535475e-12
4.6586323e-12
1.2117943e-11
2.9614327e-11
6.885124e-11
1.5369869e-10
3.3174338e-10
6.9602127e-10
1.4253223e-09
2.857861e-09
5.6238801e-09
1.0880312e-08
2.0718143e-08
3.8854326e-08
7.177896e-08
1.3060955e-07
2.3401542e-07
4.1273538e-07
7.1643125e-07
1.22366e-06
2.0570889e-06
3.4075671e-06
5.5760396e-06
9.0184518e-06
1.4396564e-05
2.2576365e-05
3.4442049e-05
5.0294696e-05
6.9331702e-05
8.6799652e-05
9.5208219e-05
9.1024891e-05
8.1280348e-05
7.1522026e-05
6.5360814e-05
6.8935957e-05
6.514728e-05
6.3759522e-05
5.9720724e-05
5.0812001e-05
2.940591e-05
1.3287715e-05
1.0337658e-05
1.1782936e-05
2.5439964e-05
6.4774726e-05
0.00011877053
0.00012952848
0.00013352616
0.00014761181
0.00017329546
0.00020767904
0.0002529134
0.000318654
0.0004177563
0.00058372259
0.00083690274
0.00091456964
5.7663606e-20
1.1214775e-17
2.9870855e-16
3.0283053e-15
1.8314851e-14
8.1148882e-14
2.9304586e-13
9.1706598e-13
2.5837583e-12
6.7210723e-12
1.6426252e-11
3.8193727e-11
8.5274578e-11
1.8410206e-10
3.8640316e-10
7.9171758e-10
1.588705e-09
3.1298505e-09
6.0644734e-09
1.1571322e-08
2.1756827e-08
4.0320426e-08
7.3635542e-08
1.3245491e-07
2.3452671e-07
4.0851874e-07
6.9981452e-07
1.1790003e-06
1.9537681e-06
3.1826522e-06
5.0999067e-06
8.0557927e-06
1.2542123e-05
1.9175315e-05
2.855993e-05
4.1008608e-05
5.6451903e-05
7.227485e-05
7.6568901e-05
7.3132531e-05
6.8783732e-05
6.8086208e-05
7.58624e-05
7.1679157e-05
6.5601312e-05
5.5116915e-05
3.3548413e-05
1.3786497e-05
9.4636205e-06
9.6188153e-06
1.6933272e-05
4.2950132e-05
8.7982387e-05
0.00010157459
9.4960247e-05
0.00010358538
0.00012143555
0.00014508384
0.00017402901
0.00021637444
0.00027860545
0.00037431802
0.00053593639
0.00079693154
0.00093716453
3.0893187e-20
6.0082977e-18
1.6003258e-16
1.6224102e-15
9.8121692e-15
4.3475624e-14
1.5700089e-13
4.9132929e-13
1.3843092e-12
3.6010965e-12
8.8015462e-12
2.0466878e-11
4.5702614e-11
9.8690774e-11
2.0720779e-10
4.2477321e-10
8.5301363e-10
1.68231e-09
3.2646553e-09
6.2421731e-09
1.1769506e-08
2.1889694e-08
4.0151418e-08
7.2587862e-08
1.2920525e-07
2.2615758e-07
3.8901764e-07
6.5751071e-07
1.0924396e-06
1.7852076e-06
2.8689755e-06
4.5213478e-06
6.9813708e-06
1.055643e-05
1.5632847e-05
2.2539024e-05
3.1429646e-05
4.2575447e-05
5.4055306e-05
5.8465141e-05
6.0113903e-05
6.5666722e-05
6.3438448e-05
5.8254416e-05
4.9048199e-05
2.9727806e-05
1.2946722e-05
8.3427494e-06
8.1493433e-06
1.1930592e-05
2.9699506e-05
6.8496441e-05
7.9949792e-05
7.1226669e-05
7.7436975e-05
8.9932397e-05
0.00010491171
0.00012619626
0.00015351145
0.00019449729
0.00025323597
0.00034685321
0.00050509628
0.00075766699
0.00095971704
1.6143523e-20
3.1396931e-18
8.3626573e-17
8.4780716e-16
5.1274631e-15
2.2718811e-14
8.20438e-14
2.5675703e-13
7.2342244e-13
1.8819479e-12
4.5999553e-12
1.0697455e-11
2.3890408e-11
5.1599129e-11
1.0836767e-10
2.2225126e-10
4.4661327e-10
8.8166843e-10
1.7133573e-09
3.2825534e-09
6.2062899e-09
1.1585844e-08
2.1354762e-08
3.8841828e-08
6.9643909e-08
1.2292547e-07
2.1322748e-07
3.62912e-07
6.0532173e-07
9.8949273e-07
1.5882418e-06
2.5068341e-06
3.8876976e-06
5.8982116e-06
8.6999328e-06
1.2440872e-05
1.7208743e-05
2.3106983e-05
2.9504616e-05
3.5859695e-05
4.0518281e-05
4.1920438e-05
4.0217339e-05
3.3873899e-05
2.0299391e-05
1.0562026e-05
7.148658e-06
6.8950855e-06
8.9511207e-06
2.1265092e-05
5.2182348e-05
7.8687513e-05
6.2954119e-05
6.3045554e-05
6.8694234e-05
7.8633506e-05
9.3730707e-05
0.00011450877
0.00014122267
0.00018149848
0.00023847094
0.00033095681
0.00048586208
0.00073389037
0.00097703349
8.447741e-21
1.6429696e-18
4.3760964e-17
4.4365016e-16
2.6831692e-15
1.1888709e-14
4.2933927e-14
1.3436493e-13
3.7858962e-13
9.8492729e-13
2.4075724e-12
5.5994973e-12
1.250705e-11
2.7018718e-11
5.6761492e-11
1.1646316e-10
2.3418006e-10
4.6271745e-10
9.0036748e-10
1.7281581e-09
3.2758976e-09
6.1374425e-09
1.136778e-08
2.0811036e-08
3.7627919e-08
6.7100396e-08
1.1777886e-07
2.0295994e-07
3.4249134e-07
5.6462163e-07
9.0781176e-07
1.4247691e-06
2.1867048e-06
3.2972025e-06
4.8692948e-06
7.0049623e-06
9.703263e-06
1.2899467e-05
1.6239206e-05
1.9557977e-05
2.1398511e-05
2.1726205e-05
1.917125e-05
1.2308917e-05
7.5679723e-06
5.6932563e-06
5.7461316e-06
7.1987024e-06
1.5928238e-05
3.9169138e-05
7.3586902e-05
5.4256857e-05
5.0928296e-05
5.5182052e-05
6.3829473e-05
7.5175456e-05
8.9203643e-05
0.00010897087
0.00013553896
0.00017526337
0.00023138813
0.0003227287
0.00047450774
0.00072373786
0.00098515806
4.7012523e-21
9.1432926e-19
2.4353474e-17
2.4689786e-16
1.4932385e-15
6.616415e-15
2.3894557e-14
7.4782323e-14
2.1071809e-13
5.4823199e-13
1.3402208e-12
3.1174263e-12
6.9641952e-12
1.5048001e-11
3.1623388e-11
6.4914891e-11
1.3061427e-10
2.5832043e-10
5.0329096e-10
9.676938e-10
1.8386611e-09
3.4556517e-09
6.4277824e-09
1.1833862e-08
2.1553557e-08
3.8789771e-08
6.8832573e-08
1.2009194e-07
2.0529352e-07
3.4261589e-07
5.5649655e-07
8.7820729e-07
1.345498e-06
1.9995128e-06
2.8916585e-06
4.0705458e-06
5.5785182e-06
7.354914e-06
9.1617875e-06
1.0587988e-05
1.0887264e-05
9.5766187e-06
6.9870096e-06
4.9641033e-06
4.2988451e-06
4.6186298e-06
5.9225746e-06
1.2680964e-05
3.0562188e-05
5.9302719e-05
5.0900617e-05
4.6171972e-05
4.8777936e-05
5.4855355e-05
6.2872961e-05
7.3791031e-05
8.8331864e-05
0.00010795022
0.00013456908
0.000173953
0.00022981658
0.00031977188
0.00046938988
0.00072475727
0.00098877064
3.0233105e-21
5.8799322e-19
1.5661483e-17
1.5877947e-16
9.6031636e-16
4.2552055e-15
1.5367951e-14
4.8099864e-14
1.3554587e-13
3.5269839e-13
8.6236133e-13
2.0063512e-12
4.4834181e-12
9.6912396e-12
2.0375698e-11
4.1850653e-11
8.4269318e-11
1.6681925e-10
3.254132e-10
6.2668843e-10
1.1933059e-09
2.2491531e-09
4.1991642e-09
7.7678147e-09
1.4232934e-08
2.5803761e-08
4.6192225e-08
8.1389777e-08
1.4055031e-07
2.3669539e-07
3.8682336e-07
6.1118551e-07
9.3193053e-07
1.371616e-06
1.953216e-06
2.6941135e-06
3.558778e-06
4.4566687e-06
5.1017672e-06
5.1223109e-06
4.4977192e-06
3.7131237e-06
3.0866389e-06
3.1994575e-06
3.6389116e-06
5.0488756e-06
1.075261e-05
2.4982428e-05
5.0451197e-05
4.9446225e-05
4.5189714e-05
4.6626229e-05
5.0495664e-05
5.6520026e-05
6.4781088e-05
7.5703302e-05
9.0263873e-05
0.00011018366
0.00013711962
0.0001761877
0.00023167004
0.00032050738
0.00046853398
0.00073433578
0.00099415936
2.3017797e-21
4.4766593e-19
1.1923873e-17
1.2088833e-16
7.3116119e-16
3.2399091e-15
1.1701702e-14
3.6627555e-14
1.0322749e-13
2.6864336e-13
6.5697545e-13
1.5289168e-12
3.4177486e-12
7.3911085e-12
1.5548823e-11
3.1960191e-11
6.4413568e-11
1.2765807e-10
2.4937024e-10
4.8106509e-10
9.1790157e-10
1.7343605e-09
3.2478e-09
6.0298599e-09
1.1096842e-08
2.0222076e-08
3.6412252e-08
6.4552385e-08
1.1207925e-07
1.8927548e-07
3.0849318e-07
4.8190521e-07
7.1842573e-07
1.0209286e-06
1.3831739e-06
1.7833786e-06
2.1579806e-06
2.4107328e-06
2.4099052e-06
2.1827255e-06
2.0392232e-06
2.0052714e-06
2.2937565e-06
2.9728402e-06
4.5324051e-06
9.4606604e-06
2.0823611e-05
4.2682765e-05
5.1923731e-05
4.6325196e-05
4.7238326e-05
4.9103663e-05
5.3179084e-05
5.9231324e-05
6.7279945e-05
7.8302286e-05
9.3191822e-05
0.00011347437
0.00014096967
0.00018029857
0.00023552816
0.00032398141
0.00046960255
0.00075030021
0.00099826394
1.8916071e-21
3.6789308e-19
9.7991061e-18
9.934735e-17
6.0088145e-16
2.6626493e-15
9.616985e-15
3.0103138e-14
8.4843901e-14
2.2081716e-13
5.4007019e-13
1.2570286e-12
2.810482e-12
6.0792771e-12
1.2792837e-11
2.6304707e-11
5.3037764e-11
1.0516424e-10
2.0554189e-10
3.9674601e-10
7.5748092e-10
1.4321567e-09
2.6836143e-09
4.9856093e-09
9.1809451e-09
1.6740728e-08
3.0149801e-08
5.3400219e-08
9.239319e-08
1.5472091e-07
2.4800927e-07
3.7650497e-07
5.363411e-07
7.1150897e-07
8.8834759e-07
1.0403694e-06
1.1387973e-06
1.1619204e-06
1.1792673e-06
1.2046922e-06
1.3825771e-06
1.8027319e-06
2.5592311e-06
4.0799228e-06
8.311233e-06
1.7541356e-05
3.6089367e-05
5.581423e-05
4.9588686e-05
4.9818537e-05
5.0700364e-05
5.2968738e-05
5.7170223e-05
6.3309792e-05
7.1745567e-05
8.3014544e-05
9.8119512e-05
0.00011868979
0.00014651118
0.00018585602
0.00024089299
0.00032904636
0.00047147913
0.0007712967
0.0010015855
1.478315e-21
2.8751301e-19
7.6581083e-18
7.7640493e-17
4.6958478e-16
2.0807881e-15
7.5151266e-15
2.352268e-14
6.6292813e-14
1.7252056e-13
4.2189994e-13
9.8184086e-13
2.1947945e-12
4.746306e-12
9.9844881e-12
2.0521056e-11
4.1351856e-11
8.192895e-11
1.5996301e-10
3.0834743e-10
5.8766126e-10
1.108517e-09
2.0709632e-09
3.8325753e-09
7.0224015e-09
1.2721409e-08
2.2720427e-08
3.9805825e-08
6.7879239e-08
1.1146697e-07
1.7408138e-07
2.5544373e-07
3.4814413e-07
4.4139839e-07
5.2580813e-07
5.9102317e-07
6.4376733e-07
6.618207e-07
8.4214675e-07
1.0276616e-06
1.4769914e-06
2.2189928e-06
3.5817566e-06
7.2458487e-06
1.501787e-05
3.0994385e-05
5.6977617e-05
5.7387977e-05
5.5390246e-05
5.4482775e-05
5.4527722e-05
5.6782996e-05
6.0977317e-05
6.7118061e-05
7.5596079e-05
8.7240594e-05
0.00010277038
0.00012382938
0.00015226796
0.00019196989
0.00024725451
0.00033482913
0.0004751223
0.00079120572
0.0010059735
1.0455929e-21
2.0335394e-19
5.4164374e-18
5.4912679e-17
3.3211069e-16
1.4715376e-15
5.3142569e-15
1.6631876e-14
4.6865249e-14
1.2193614e-13
2.9811157e-13
6.9350657e-13
1.5495116e-12
3.3487711e-12
7.0388804e-12
1.4451803e-11
2.9082369e-11
5.7519754e-11
1.1205543e-10
2.1538895e-10
4.0902828e-10
7.6809021e-10
1.4269318e-09
2.6224672e-09
4.7646771e-09
8.5444667e-09
1.5080497e-08
2.6072433e-08
4.3846579e-08
7.1003756e-08
1.0932538e-07
1.5800533e-07
2.1311339e-07
2.7073381e-07
3.3134942e-07
4.0153315e-07
4.5491631e-07
6.1758239e-07
8.2633767e-07
1.2465319e-06
1.9272347e-06
3.1501123e-06
6.3108625e-06
1.2995807e-05
2.6829907e-05
5.00825e-05
6.9692819e-05
6.3199446e-05
5.9861645e-05
5.7683035e-05
5.8478915e-05
6.0991919e-05
6.5312651e-05
7.1576617e-05
8.0177891e-05
9.1992342e-05
0.00010797004
0.00012965558
0.00015862741
0.00019879188
0.00025426636
0.00034150534
0.00048013677
0.00080370493
0.0010114255
7.0161823e-22
1.3645519e-19
3.6345216e-18
3.6846428e-17
2.2283573e-16
9.8727898e-16
3.5650235e-15
1.1155634e-14
3.1427873e-14
8.1748587e-14
1.9979115e-13
4.6457379e-13
1.0374128e-12
2.2404064e-12
4.7048289e-12
9.6483692e-12
1.9387407e-11
3.8273638e-11
7.4388464e-11
1.4257376e-10
2.6978447e-10
5.0439799e-10
9.3208759e-10
1.702167e-09
3.0695961e-09
5.4578264e-09
9.5426586e-09
1.6339438e-08
2.7237599e-08
4.3869374e-08
6.772514e-08
9.9716739e-08
1.4037723e-07
1.9212107e-07
2.6262361e-07
3.5011214e-07
4.7857894e-07
6.821635e-07
1.0642261e-06
1.6739576e-06
2.7822578e-06
5.4963012e-06
1.1253095e-05
2.3449824e-05
4.4293796e-05
7.0390037e-05
7.2592751e-05
6.7468323e-05
6.304283e-05
6.195494e-05
6.2544843e-05
6.4873911e-05
6.9135791e-05
7.5533805e-05
8.4560131e-05
9.6819036e-05
0.0001131215
0.00013532419
0.00016495493
0.00020591628
0.00026170302
0.00034888549
0.00048627712
0.00080492164
0.0010142986
5.2152349e-22
1.0142905e-19
2.7015687e-18
2.7387596e-17
1.6562395e-16
7.3374689e-16
2.6492557e-15
8.2889019e-15
2.3347686e-14
6.0718132e-14
1.483559e-13
3.4486756e-13
7.6982881e-13
1.6618319e-12
3.4881232e-12
7.1491989e-12
1.4356403e-11
2.8321547e-11
5.5003345e-11
1.0533611e-10
1.9916806e-10
3.7212993e-10
6.8738965e-10
1.2553557e-09
2.2656375e-09
4.0364589e-09
7.0852212e-09
1.221647e-08
2.0605574e-08
3.3836119e-08
5.3891409e-08
8.3235813e-08
1.2506545e-07
1.8651103e-07
2.7498038e-07
3.96959e-07
5.7958705e-07
9.2164563e-07
1.4694013e-06
2.481864e-06
4.823671e-06
9.8139195e-06
2.0545661e-05
3.9158892e-05
6.2759953e-05
8.6276818e-05
7.790312e-05
7.0406086e-05
6.6886498e-05
6.5509705e-05
6.6033766e-05
6.856932e-05
7.30778e-05
7.9594734e-05
8.8715279e-05
0.00010138294
0.00011835985
0.00014130431
0.00017160622
0.00021337538
0.00026958685
0.00035654491
0.00049360824
0.0007973033
0.0010180981
5.1490915e-22
1.0014265e-19
2.667302e-18
2.7040029e-17
1.6351956e-16
7.2440664e-16
2.6154527e-15
8.1828713e-15
2.3048318e-14
5.9938232e-14
1.4644925e-13
3.4044135e-13
7.599898e-13
1.6407686e-12
3.4445372e-12
7.0618683e-12
1.4187033e-11
2.8004537e-11
5.4434654e-11
1.0437188e-10
1.9766727e-10
3.7012815e-10
6.8567287e-10
1.2570224e-09
2.2800629e-09
4.0888169e-09
7.2386255e-09
1.2622394e-08
2.1628039e-08
3.6301961e-08
5.9323103e-08
9.4044233e-08
1.4538133e-07
2.234168e-07
3.3527678e-07
5.062885e-07
8.0768061e-07
1.3026664e-06
2.2341555e-06
4.2652914e-06
8.6128707e-06
1.7983885e-05
3.4601725e-05
5.633197e-05
8.1962946e-05
8.738852e-05
7.7475148e-05
7.2236868e-05
6.9278044e-05
6.8221543e-05
6.9152044e-05
7.1987481e-05
7.6684031e-05
8.3567428e-05
9.3143115e-05
0.00010613252
0.00012348968
0.00014711908
0.00017821199
0.0002209463
0.00027765477
0.00036476745
0.00050131677
0.00079014572
0.0010211004
6.5042362e-22
1.2649832e-19
3.369282e-18
3.4156287e-17
2.0655215e-16
9.1503418e-16
3.3036645e-15
1.0335932e-14
2.9112575e-14
7.5709065e-14
1.8498738e-13
4.3005196e-13
9.6012662e-13
2.0731755e-12
4.3533461e-12
8.9281946e-12
1.7945327e-11
3.5447656e-11
6.896688e-11
1.3241153e-10
2.512466e-10
4.7169967e-10
8.7693318e-10
1.6149697e-09
2.9456642e-09
5.3164794e-09
9.4766542e-09
1.662879e-08
2.8563429e-08
4.7760036e-08
7.7563757e-08
1.2240619e-07
1.8959815e-07
2.8882899e-07
4.5453933e-07
7.2464061e-07
1.1745816e-06
2.0257333e-06
3.7986483e-06
7.5959932e-06
1.5747002e-05
3.0527329e-05
5.0496598e-05
7.380918e-05
9.1351055e-05
8.2732247e-05
7.7113683e-05
7.3280059e-05
7.1045071e-05
7.0643873e-05
7.1989732e-05
7.5096941e-05
7.9978003e-05
8.70381e-05
9.70005e-05
0.0001106194
0.00012866802
0.00015303672
0.0001848738
0.00022851692
0.0002858534
0.0003732562
0.00050837497
0.00078824331
0.0010197255
9.4788533e-22
1.843505e-19
4.9101802e-18
4.9777344e-17
3.0101797e-16
1.3335299e-15
4.8146661e-15
1.506357e-14
4.2429882e-14
1.1034659e-13
2.6963879e-13
6.2690697e-13
1.3998102e-12
3.0231286e-12
6.3496658e-12
1.3026635e-11
2.6194881e-11
5.1777349e-11
1.008332e-10
1.9381525e-10
3.6820609e-10
6.9203757e-10
1.2873895e-09
2.3701277e-09
4.3143016e-09
7.7498171e-09
1.3695083e-08
2.3713506e-08
4.0091568e-08
6.6026818e-08
1.0598831e-07
1.664588e-07