/*--------------------------------*- C++ -*----------------------------------*\
  =========                 |
  \\      /  F ield         | OpenFOAM: The Open Source CFD Toolbox
   \\    /   O peration     | Website:  https://openfoam.org
    \\  /    A nd           | Version:  13
     \\/     M anipulation  |
\*---------------------------------------------------------------------------*/
FoamFile
{
    format      ascii;
    class       volScalarField;
    location    "49.501338";
    object      pMean;
}
// * * * * * * * * * * * * * * * * * * * * * * * * * * * * * * * * * * * * * //

dimensions      [0 2 -2 0 0 0 0];

internalField   nonuniform List<scalar> 
17140
(
0.75631827
0.75625382
0.75617604
0.75609645
0.75601021
0.75591604
0.75581378
0.75570314
0.7555838
0.75545551
0.75531806
0.75517127
0.75501492
0.75484868
0.75467198
0.75448376
0.75428219
0.75406427
0.75382526
0.75355799
0.75325205
0.75289274
0.75245987
0.75192617
0.75125515
0.75040176
0.74932063
0.74797137
0.74631447
0.74430375
0.74187571
0.73895288
0.73545004
0.73127352
0.72632624
0.7205134
0.71374863
0.7059596
0.69709431
0.68713141
0.67609568
0.66407858
0.65126667
0.63796829
0.62462634
0.61185013
0.60036177
0.59080022
0.5838135
0.57995924
0.57964338
0.58311983
0.59060143
0.60202269
0.61732935
0.63596235
0.6580579
0.68251228
0.71108243
0.74109174
0.77713902
0.80902063
0.84643313
0.86606338
0.89413049
0.755334
0.75527079
0.75519447
0.75511652
0.75503204
0.75493971
0.75483942
0.7547309
0.75461385
0.754488
0.75435317
0.75420918
0.75405584
0.75389282
0.7537196
0.75353514
0.75333768
0.75312428
0.75289027
0.7526286
0.75232895
0.75197673
0.75155191
0.7510274
0.75036694
0.74952542
0.74845718
0.74712174
0.7454794
0.74348332
0.74106955
0.73816045
0.73467071
0.73050642
0.72557005
0.7197663
0.71300815
0.70522252
0.69635668
0.68638841
0.67534162
0.66330704
0.65047068
0.63714064
0.6237646
0.61095031
0.59940878
0.58981152
0.58279655
0.57890137
0.57853869
0.58196392
0.58937935
0.6007291
0.61597913
0.63456394
0.65672344
0.68151332
0.71055145
0.74097992
0.77722995
0.80906988
0.84619767
0.86535521
0.89350695
0.75306225
0.75300213
0.75292966
0.75285547
0.75277499
0.75268697
0.75259135
0.75248787
0.75237618
0.75225606
0.75212733
0.75198987
0.75184351
0.75168799
0.75152282
0.75134709
0.75115915
0.75095621
0.75073379
0.75048507
0.75019997
0.74986421
0.74945803
0.74895478
0.74831872
0.74750468
0.74646617
0.74516189
0.74355163
0.74158823
0.73920745
0.73633102
0.73287322
0.72873944
0.72383107
0.71805144
0.71131193
0.70353759
0.69467372
0.68469616
0.6736269
0.66155563
0.64866859
0.63527556
0.62183286
0.60895621
0.59734085
0.58767187
0.58059861
0.57664944
0.57622021
0.57955275
0.58685048
0.59806572
0.61318256
0.63164412
0.65379845
0.67889581
0.70855026
0.73962723
0.77644862
0.80857858
0.84567397
0.86459035
0.89298969
0.74954368
0.74948848
0.7494221
0.74935371
0.74927948
0.74919832
0.74911009
0.74901448
0.74891118
0.74880006
0.74868098
0.74855377
0.74841834
0.74827453
0.74812194
0.74795981
0.74778664
0.7475999
0.74739539
0.74716661
0.7469039
0.74659338
0.74621581
0.74574513
0.74514645
0.74437475
0.74338227
0.74212592
0.7405648
0.73865173
0.73632238
0.73349755
0.73009074
0.72600624
0.72114384
0.71540476
0.70869779
0.70094516
0.69208915
0.68210248
0.67100441
0.65888354
0.6459269
0.63244828
0.61891655
0.60595563
0.59424758
0.58449671
0.5773537
0.57333856
0.57282877
0.57604621
0.58318861
0.59421272
0.60912119
0.62738118
0.64948442
0.6748687
0.70529447
0.73731089
0.77492854
0.80769079
0.84503994
0.86387551
0.89258177
0.74488717
0.74483854
0.7447803
0.7447198
0.74465403
0.74458203
0.74450362
0.74441856
0.74432663
0.74422767
0.74412151
0.74400806
0.74388731
0.7437592
0.74362341
0.74347931
0.74332571
0.74316032
0.74297931
0.74277661
0.74254308
0.74226543
0.74192506
0.74149669
0.74094656
0.74023055
0.73929915
0.73810606
0.73660962
0.73476323
0.7325025
0.7297473
0.72640993
0.72239336
0.71759532
0.7119143
0.70525586
0.69753851
0.68870056
0.67871075
0.66758509
0.65541116
0.64237776
0.62880572
0.61518002
0.602126
0.59032317
0.58049512
0.57329008
0.56921786
0.5686273
0.57172014
0.57868622
0.58948638
0.60413691
0.62215661
0.6442597
0.67010313
0.70144067
0.73468553
0.77330913
0.80681455
0.8444488
0.86332981
0.8923064
0.73927153
0.73923095
0.73918267
0.73913186
0.73907647
0.73901575
0.73894951
0.73887752
0.73879956
0.73871549
0.73862522
0.73852872
0.73842604
0.73831715
0.73820182
0.73807966
0.73794968
0.73780992
0.73765695
0.73748521
0.73728615
0.73704719
0.73675054
0.73637188
0.73587872
0.73522861
0.73437044
0.73325405
0.73183597
0.73006985
0.72789221
0.7252228
0.72197177
0.71804078
0.71332526
0.70772063
0.70112867
0.69346349
0.68465864
0.67467827
0.66353493
0.65131541
0.63821109
0.62455243
0.61084202
0.59770009
0.58581977
0.57593358
0.56868523
0.56457206
0.56391605
0.56689355
0.57368509
0.58425262
0.59862958
0.61642883
0.63859631
0.66510286
0.6975628
0.7322258
0.77192201
0.80621611
0.84402836
0.86289596
0.89208727
0.73293922
0.73290783
0.73287058
0.73283095
0.7327876
0.73273993
0.73268777
0.73263089
0.73256914
0.73250239
0.73243058
0.73235371
0.73227184
0.73218501
0.73209318
0.73199604
0.7318928
0.73178181
0.73166007
0.73152254
0.73136133
0.73116464
0.73091562
0.73059102
0.73015977
0.72958135
0.72880485
0.72777613
0.726447
0.72477086
0.72268733
0.72011666
0.71696629
0.71313655
0.70852065
0.70301087
0.69650486
0.68891189
0.68016028
0.67020927
0.65906794
0.64682256
0.63366827
0.61994659
0.60617375
0.59296845
0.5810393
0.5711163
0.56384425
0.55970653
0.55900153
0.56188275
0.56852203
0.57888341
0.59303382
0.61071228
0.63310638
0.66048138
0.69421702
0.73036545
0.77112103
0.80607802
0.84383117
0.86251504
0.89178471
0.72618382
0.72616239
0.72613686
0.72610952
0.72607941
0.72604612
0.72600946
0.72596928
0.72592543
0.72587782
0.72582639
0.72577119
0.72571227
0.72564972
0.72558355
0.72551355
0.7254391
0.7253588
0.72527
0.72516819
0.72504609
0.72489274
0.72469227
0.72442264
0.72405426
0.72354859
0.72285696
0.72192236
0.72068924
0.71910939
0.7171266
0.71466267
0.71162383
0.70790833
0.70340739
0.69801029
0.69161061
0.6841126
0.67543929
0.66554501
0.65443566
0.64219722
0.62902947
0.6152853
0.60148516
0.58825379
0.57630695
0.56636417
0.55907791
0.55492587
0.55418718
0.55699303
0.56351088
0.57372136
0.58773273
0.60547849
0.62835011
0.65674771
0.69188271
0.72947497
0.77111143
0.80646448
0.84387866
0.86239425
0.89163545
0.71933133
0.71932032
0.71930703
0.71929256
0.71927637
0.7192582
0.71923791
0.71921536
0.71919044
0.71916309
0.71913327
0.71910101
0.71906637
0.71902943
0.71899019
0.7189485
0.71890381
0.71885488
0.71879935
0.71873307
0.71864939
0.71853808
0.71838426
0.71816714
0.71785867
0.71742225
0.71681172
0.7159713
0.71483975
0.71335984
0.71147798
0.70912403
0.70620343
0.70261121
0.69823797
0.6929702
0.68669772
0.6793201
0.67075536
0.66095347
0.64991747
0.63773331
0.62460485
0.61089447
0.59711764
0.58390797
0.57197758
0.56203252
0.55473951
0.55057784
0.54981099
0.55256011
0.55900632
0.56914594
0.58315536
0.60117353
0.62474873
0.65435453
0.69097198
0.72992719
0.77223423
0.80771028
0.84453687
0.86271872
0.89154043
0.71271808
0.71271746
0.7127164
0.71271482
0.7127126
0.71270965
0.71270585
0.71270114
0.71269542
0.71268865
0.7126808
0.71267189
0.71266196
0.71265102
0.71263906
0.71262586
0.71261087
0.7125929
0.71256972
0.71253747
0.71248992
0.71241749
0.71230619
0.71213638
0.71188157
0.71150711
0.71096921
0.71021458
0.70918197
0.70780666
0.70602648
0.70377715
0.70097499
0.69751397
0.69327959
0.68815679
0.68203288
0.67480384
0.66638381
0.65671913
0.64581047
0.63374361
0.62072504
0.60712084
0.59343894
0.58031614
0.56844922
0.55853634
0.5512541
0.54708625
0.54630638
0.54904443
0.55548696
0.565646
0.5798154
0.59832443
0.62292287
0.65399484
0.6921108
0.7320228
0.77443586
0.80957407
0.84533247
0.86307508
0.89137697
0.7066611
0.7066703
0.70668082
0.70669151
0.70670264
0.70671427
0.70672634
0.70673883
0.70675169
0.70676491
0.70677848
0.70679237
0.7068066
0.70682112
0.70683581
0.70685037
0.70686415
0.7068759
0.70688338
0.70688284
0.70686832
0.70683073
0.70675679
0.70662789
0.70641888
0.70609697
0.70562071
0.70493941
0.70399367
0.70271795
0.70104434
0.69890218
0.69621212
0.69287922
0.6887916
0.68382997
0.67787896
0.67083217
0.66260088
0.65312895
0.64241551
0.63054609
0.61772872
0.60432215
0.59083047
0.57788341
0.5661549
0.55633446
0.54909879
0.54495039
0.54418529
0.5469227
0.55338312
0.56363808
0.5781301
0.5974233
0.62334891
0.65587729
0.69496787
0.7351285
0.77693583
0.81121723
0.84597318
0.86365128
0.89090849
0.70143197
0.70144991
0.70147076
0.70149243
0.70151556
0.70154035
0.70156682
0.701595
0.70162489
0.70165652
0.7016899
0.70172501
0.70176181
0.70180019
0.70183994
0.70188062
0.70192143
0.70196099
0.70199695
0.70202554
0.70204088
0.70203417
0.70199265
0.70189852
0.7017278
0.70144925
0.7010236
0.70040286
0.69953005
0.69834083
0.69676625
0.69473302
0.69216186
0.68896075
0.68502435
0.68023735
0.67448443
0.66765764
0.6596667
0.6504541
0.64001786
0.62844237
0.61593377
0.60283816
0.58965139
0.57698466
0.56549003
0.55584178
0.54871679
0.54460917
0.54381074
0.54652338
0.55299327
0.56343146
0.57843864
0.59880068
0.6260189
0.65964202
0.69900029
0.73877465
0.77969697
0.81320275
0.84678078
0.86428248
0.89004702
0.6972272
0.69725227
0.69728158
0.6973123
0.69734537
0.69738115
0.69741972
0.69746117
0.69750558
0.69755304
0.6976036
0.69765725
0.69771395
0.69777357
0.6978358
0.69790011
0.69796557
0.69803065
0.69809288
0.69814837
0.69819127
0.69821293
0.69820095
0.69813808
0.69800125
0.69776052
0.6973783
0.69680903
0.69599898
0.69488589
0.69340094
0.69147154
0.68902054
0.68596027
0.68219071
0.67759973
0.67207484
0.6655099
0.65781718
0.64893863
0.63887155
0.6276968
0.61561251
0.60295373
0.5901973
0.57792019
0.56675463
0.55736888
0.55037819
0.54628235
0.54543356
0.54811219
0.55464929
0.56541388
0.58115823
0.60261632
0.63095417
0.66515562
0.70433736
0.74341761
0.78308344
0.81527743
0.84755066
0.86450994
0.88865786
0.69415103
0.69418118
0.69421659
0.69425389
0.69429426
0.69433819
0.69438583
0.69443735
0.69449291
0.69455267
0.69461675
0.69468521
0.69475804
0.69483512
0.69491615
0.69500057
0.69508739
0.69517501
0.69526093
0.69534123
0.69541011
0.69545909
0.69547613
0.69544451
0.69534186
0.69513912
0.69480001
0.69428078
0.69353033
0.69249061
0.69109914
0.68926788
0.68694176
0.68403278
0.68044552
0.67607352
0.67081609
0.66456709
0.6572393
0.64877701
0.63917697
0.62851428
0.6169747
0.60487496
0.59266119
0.58087232
0.57012949
0.56102854
0.55416917
0.5500825
0.54919782
0.55186474
0.55858032
0.56980391
0.58630749
0.60873535
0.63790027
0.67240402
0.71093462
0.74884329
0.78679365
0.81770617
0.84821183
0.86460606
0.88728658
0.69219996
0.69223291
0.69227174
0.69231281
0.69235743
0.69240623
0.6924594
0.69251719
0.69257986
0.69264766
0.6927208
0.69279943
0.69288364
0.6929734
0.69306849
0.69316844
0.69327234
0.6933787
0.69348514
0.69358796
0.69368162
0.69375805
0.69380576
0.69380881
0.6937457
0.69358853
0.6933022
0.69284428
0.69216527
0.69120788
0.68991204
0.68822962
0.68604846
0.68327675
0.67989681
0.67578446
0.67083198
0.66494702
0.65805148
0.65008975
0.64105477
0.63101282
0.62013184
0.60869672
0.59711493
0.58590511
0.57560409
0.56678624
0.56007071
0.55600365
0.55509583
0.55784707
0.56481428
0.57650494
0.59374654
0.61714649
0.64689845
0.68111026
0.71860059
0.75492564
0.79105096
0.8201677
0.8488164
0.86445192
0.88576177
0.69127929
0.69131273
0.6913524
0.69139432
0.69144003
0.69149023
0.69154517
0.69160518
0.6916706
0.69174176
0.69181898
0.69190254
0.69199267
0.69208947
0.69219291
0.69230271
0.69241822
0.69253823
0.69266075
0.69278257
0.69289881
0.6930022
0.69308236
0.69312465
0.69310899
0.69300888
0.69279068
0.69241287
0.6918268
0.69097775
0.68980689
0.6882533
0.6862289
0.68371442
0.6805683
0.67671073
0.67211688
0.66667103
0.66028882
0.65291526
0.64454086
0.63521929
0.62509085
0.61440329
0.60353602
0.59291983
0.58306246
0.57453827
0.56795937
0.56393716
0.56307942
0.56596149
0.57318813
0.58540112
0.60353295
0.62773319
0.65755459
0.69095228
0.72704258
0.76153081
0.79535342
0.82255747
0.84941158
0.86434151
0.88447757
0.69120448
0.69123636
0.69127451
0.69131461
0.69135849
0.69140688
0.69146007
0.69151843
0.69158237
0.69165231
0.69172867
0.69181185
0.69190221
0.69200006
0.69210558
0.69221878
0.69233936
0.69246657
0.69259901
0.69273426
0.69286846
0.69299565
0.69310703
0.69318998
0.6932269
0.69319388
0.6930594
0.69278419
0.69232125
0.69161631
0.69061059
0.6892398
0.68745392
0.68517369
0.6823098
0.67886784
0.67469195
0.66972273
0.6639189
0.65721456
0.64958768
0.6410692
0.63176704
0.62190092
0.61176141
0.60174393
0.59234059
0.58409589
0.57766733
0.57372774
0.57295867
0.57597992
0.58355727
0.59655539
0.61547272
0.64000737
0.66931242
0.70174304
0.73591259
0.76818123
0.79969521
0.82496913
0.85014558
0.86433743
0.88342915
0.69176006
0.6917887
0.69182324
0.69185935
0.691899
0.6919429
0.69199136
0.69204478
0.69210359
0.69216828
0.69223934
0.69231726
0.69240255
0.69249568
0.69259708
0.69270706
0.69282571
0.69295286
0.69308781
0.69322912
0.69337424
0.69351898
0.69365676
0.69377781
0.693868
0.69390743
0.6938693
0.69371858
0.69341127
0.69289527
0.69211229
0.69099831
0.68949427
0.68753546
0.68507475
0.68201823
0.6783297
0.67397905
0.66883799
0.662878
0.65607199
0.64842278
0.6400126
0.63098419
0.62158128
0.61217459
0.60319919
0.59523482
0.5889673
0.58513036
0.58444431
0.58771545
0.59594743
0.6097218
0.62901532
0.65337451
0.68215086
0.71289365
0.7448297
0.77485996
0.80394546
0.8274966
0.85109936
0.86460319
0.88277132
0.69270798
0.69273225
0.69276171
0.69279239
0.69282618
0.69286375
0.69290539
0.6929515
0.69300252
0.69305895
0.6931213
0.69319015
0.69326607
0.69334968
0.69344157
0.69354232
0.69365241
0.69377216
0.69390158
0.69404022
0.69418688
0.69433923
0.69449324
0.69464241
0.69477685
0.6948821
0.69493753
0.69491494
0.69477758
0.69447925
0.69396527
0.69317364
0.69204211
0.69050282
0.68850387
0.68598849
0.68291871
0.67920376
0.67482079
0.66970713
0.66379569
0.65708094
0.64958686
0.64140848
0.63275584
0.62392048
0.61536195
0.60764413
0.60152554
0.59776212
0.59730265
0.60109647
0.61004299
0.62423516
0.64368307
0.66779196
0.69528362
0.72398211
0.75377609
0.78126366
0.80829992
0.83020314
0.85237082
0.86516629
0.8824965
0.69384578
0.69386519
0.69388881
0.69391339
0.69394055
0.69397086
0.6940046
0.69404212
0.69408384
0.69413024
0.69418183
0.69423917
0.69430287
0.6943736
0.69445207
0.69453901
0.69463517
0.69474124
0.69485783
0.6949853
0.69512363
0.69527216
0.6954292
0.69559152
0.69575364
0.69590681
0.69603795
0.69612799
0.69615048
0.69607022
0.69584263
0.69541376
0.69472418
0.69370854
0.69230675
0.69045299
0.68808929
0.68517714
0.68165795
0.67745241
0.67250658
0.6667619
0.66020401
0.65288544
0.64493317
0.63663239
0.62841777
0.62091601
0.61490202
0.61137199
0.61136596
0.61585331
0.62531647
0.63979559
0.65931214
0.68257708
0.70822466
0.73505225
0.7622391
0.78768924
0.81275786
0.83314637
0.8539829
0.86608563
0.8826649
0.69500966
0.69502418
0.69504173
0.69506022
0.69508073
0.69510369
0.69512936
0.69515803
0.69519007
0.6952259
0.69526597
0.69531081
0.69536099
0.69541718
0.69548011
0.69555056
0.69562941
0.69571757
0.69581599
0.69592558
0.69604719
0.69618138
0.69632827
0.69648735
0.69665712
0.69683426
0.69701273
0.69718291
0.69733025
0.69743393
0.69746516
0.69738548
0.69714734
0.69669387
0.6959623
0.69488519
0.69339644
0.69142153
0.68888301
0.68571261
0.68180905
0.67708287
0.67147669
0.66496814
0.65766087
0.64979561
0.64185222
0.63453096
0.62878008
0.62570007
0.62640054
0.63153513
0.64138629
0.656291
0.67535689
0.69709929
0.72111637
0.74557585
0.7706659
0.79410314
0.81738828
0.83636363
0.8559707
0.86737835
0.88327341
0.69610059
0.69611057
0.69612254
0.69613538
0.69614969
0.69616575
0.69618378
0.69620402
0.69622681
0.69625252
0.69628154
0.69631427
0.69635111
0.69639262
0.69643938
0.69649213
0.69655181
0.69661949
0.6966963
0.69678342
0.69688215
0.69699396
0.69712032
0.69726264
0.69742216
0.69759963
0.697795
0.69800683
0.69823186
0.69846389
0.69869166
0.69889739
0.69905505
0.69912635
0.69905998
0.69878976
0.69823653
0.69730682
0.6958932
0.69387249
0.69110608
0.68745451
0.68278868
0.67703868
0.67028429
0.66277877
0.65510892
0.64809886
0.64277409
0.64046397
0.64196575
0.647646
0.65831008
0.67313196
0.69110183
0.71127471
0.7334705
0.75582345
0.77891195
0.80057058
0.82222224
0.83987274
0.85834102
0.86906532
0.88434126
0.69706949
0.69707535
0.69708238
0.69709001
0.69709857
0.69710824
0.69711919
0.69713179
0.69714631
0.69716241
0.69717979
0.69719897
0.69722105
0.69724721
0.69727854
0.69731543
0.69735783
0.69740619
0.69746127
0.69752419
0.6975969
0.69768164
0.69778081
0.69789731
0.69803431
0.69819524
0.69838432
0.69860662
0.69886723
0.699171
0.69952282
0.69992559
0.70037621
0.70086334
0.70135937
0.70181538
0.70215464
0.70226418
0.70199882
0.70118071
0.69959472
0.69703583
0.69327708
0.68826348
0.68201974
0.67490376
0.66760596
0.66103792
0.65660625
0.65537901
0.6576305
0.66445361
0.6754529
0.68955015
0.70614322
0.72508448
0.74510812
0.76575945
0.78710546
0.80712037
0.82727439
0.84368833
0.86110396
0.8711498
0.88585938
0.69791082
0.69791269
0.69791499
0.69791748
0.69792023
0.6979235
0.69792756
0.69793253
0.69793848
0.69794547
0.69795367
0.6979634
0.69797493
0.69798848
0.69800424
0.69802228
0.69804353
0.69807007
0.69810297
0.69814202
0.69818838
0.69824532
0.69831698
0.69840712
0.69851849
0.69865524
0.69882496
0.6990371
0.69930247
0.6996338
0.70004575
0.70055962
0.70119506
0.70195825
0.70284945
0.70384899
0.70489533
0.70587898
0.70662763
0.70691014
0.70643146
0.70488301
0.70202349
0.69771806
0.69202687
0.68543909
0.67882114
0.67335975
0.67041827
0.67015942
0.67383277
0.68141811
0.69204069
0.7050657
0.72073069
0.73783208
0.75645511
0.77551855
0.79525319
0.81377142
0.83255254
0.84781193
0.86425684
0.87363869
0.88783176
0.69860546
0.69860311
0.69860039
0.69859756
0.69859455
0.69859136
0.6985881
0.69858499
0.69858249
0.69858074
0.69857897
0.6985763
0.69857287
0.69856959
0.69856761
0.69856838
0.6985734
0.69858403
0.69860081
0.69862241
0.69864868
0.6986831
0.69872997
0.69879336
0.69887805
0.69899019
0.69913835
0.69933465
0.69959412
0.69993352
0.70037388
0.70094639
0.7016742
0.70258038
0.70369494
0.70501789
0.70651027
0.7080737
0.70955319
0.71065851
0.71107734
0.71041699
0.70838483
0.70480355
0.69990076
0.69433841
0.68919622
0.68556246
0.6838391
0.68520528
0.69000265
0.69743319
0.70753467
0.71997691
0.73432908
0.75025228
0.767462
0.78508796
0.80339174
0.82054052
0.83806494
0.85224832
0.86779421
0.87652788
0.89025054
0.69909931
0.69909263
0.69908476
0.69907647
0.69906748
0.69905767
0.69904713
0.69903604
0.6990245
0.69901244
0.6989997
0.6989862
0.6989724
0.69895922
0.69894723
0.69893675
0.69892755
0.69891941
0.69891399
0.69891401
0.69892199
0.69894064
0.69897209
0.69901899
0.69908754
0.69918614
0.6993232
0.69950963
0.69976078
0.70009426
0.70053826
0.70111683
0.70185951
0.70281137
0.70400736
0.70546436
0.70717192
0.70904197
0.71092321
0.71256499
0.71359918
0.71361119
0.71231508
0.70970797
0.70616036
0.70235223
0.69922115
0.69709498
0.69718932
0.7000599
0.70491934
0.71251288
0.72215767
0.73399187
0.74739053
0.76217367
0.77818576
0.79453765
0.8115407
0.82743906
0.84381423
0.85699574
0.87171141
0.8798168
0.89311191
0.69921211
0.6992018
0.69918968
0.6991769
0.69916307
0.69914803
0.69913173
0.69911415
0.69909528
0.69907515
0.6990538
0.69903143
0.69900834
0.69898487
0.69896155
0.69893915
0.69891859
0.69890091
0.69888705
0.69887812
0.69887603
0.69888329
0.69890264
0.69893729
0.69899333
0.69908103
0.69921086
0.69939195
0.69963704
0.69996257
0.70039579
0.70097181
0.70171768
0.70266999
0.70386961
0.70533111
0.70705768
0.70901813
0.71104665
0.71291224
0.71430273
0.71494813
0.71467228
0.7135025
0.71171662
0.71002901
0.70859335
0.70831291
0.71028076
0.71353796
0.71902407
0.72663999
0.73616428
0.74724166
0.75989149
0.77374382
0.78868481
0.80388439
0.81971949
0.83447834
0.84980287
0.86205264
0.87600004
0.88349851
0.89640583
0.69877304
0.69876097
0.69874679
0.69873183
0.69871564
0.69869805
0.69867902
0.69865854
0.6986366
0.69861326
0.69858859
0.69856274
0.69853595
0.69850855
0.69848101
0.69845395
0.69842821
0.69840487
0.69838536
0.69837141
0.69836523
0.6983703
0.69839152
0.69843247
0.69849523
0.69858484
0.69871083
0.6988841
0.69911143
0.69941951
0.69984463
0.70040434
0.70111176
0.70199825
0.70310743
0.704494
0.70615838
0.70807308
0.71013972
0.71219368
0.71405825
0.71552847
0.71646993
0.71689065
0.71708562
0.71712435
0.7174245
0.71930098
0.72212873
0.72627387
0.73246475
0.74004326
0.74924858
0.75993735
0.77196828
0.78499082
0.79899171
0.81316521
0.8279479
0.84166784
0.85603122
0.86741636
0.88065396
0.88757471
0.90012591
0.69758878
0.69757772
0.69756472
0.69755103
0.69753622
0.69752015
0.69750279
0.69748414
0.69746422
0.69744307
0.69742081
0.6973976
0.69737371
0.6973495
0.69732546
0.69730225
0.69728073
0.69726199
0.69724746
0.69723888
0.69723835
0.69724857
0.69727316
0.6973166
0.6973838
0.69747714
0.69760083
0.69777375
0.69802433
0.69834969
0.69875234
0.69927215
0.69993603
0.7007852
0.70186148
0.70318962
0.70479222
0.70668413
0.70884173
0.71119241
0.71363674
0.71604715
0.71828684
0.72037775
0.72219216
0.72376539
0.7262697
0.72952278
0.73326658
0.73846773
0.74490445
0.75267517
0.76182951
0.7721675
0.78366466
0.79598142
0.80915423
0.82240737
0.83624286
0.84901604
0.86250114
0.87308417
0.88566519
0.89203565
0.90425422
0.69572415
0.69571597
0.6957064
0.69569633
0.6956855
0.6956738
0.69566124
0.69564785
0.69563369
0.69561885
0.69560347
0.69558778
0.69557207
0.69555676
0.69554239
0.69552967
0.69551955
0.69551322
0.69551219
0.69551832
0.69553393
0.69556205
0.69560564
0.69566655
0.69574855
0.69586129
0.69602094
0.69623203
0.69649011
0.69681485
0.69724153
0.6977924
0.69847827
0.69932447
0.70038677
0.70171749
0.70335271
0.70533651
0.70771121
0.71049207
0.71364617
0.71706132
0.72060125
0.72406612
0.72711436
0.73070886
0.7348847
0.73899941
0.7439237
0.74984238
0.75680184
0.76480485
0.77390914
0.78399839
0.79506205
0.80676589
0.81920944
0.83163988
0.84462234
0.85653309
0.86921436
0.87905322
0.89102523
0.89687247
0.908787
0.69323532
0.69323055
0.69322502
0.69321928
0.69321322
0.69320682
0.69320014
0.69319325
0.69318629
0.69317942
0.69317287
0.69316694
0.69316206
0.69315875
0.69315772
0.69315981
0.69316609
0.69317798
0.69319733
0.69322641
0.69326782
0.69332392
0.6933979
0.69349449
0.69362074
0.6937849
0.69399005
0.69425037
0.6945854
0.69499502
0.6954878
0.69609402
0.69684489
0.6977733
0.69892044
0.70034051
0.702106
0.70431355
0.70706436
0.71043315
0.71437861
0.71880032
0.7234745
0.72785486
0.73263322
0.73788675
0.74287829
0.7481576
0.75414768
0.76079592
0.76822709
0.77648138
0.78562112
0.79552604
0.80622434
0.81739866
0.82919906
0.84089077
0.85310471
0.86422498
0.87617018
0.88531713
0.89672963
0.90206734
0.91373482
0.69018649
0.69018464
0.69018263
0.69018071
0.69017891
0.6901773
0.69017602
0.69017523
0.69017515
0.69017606
0.69017831
0.69018238
0.69018884
0.69019846
0.69021216
0.69023113
0.69025685
0.69029113
0.69033624
0.69039492
0.69047015
0.69056538
0.69068584
0.69083727
0.69102662
0.69126585
0.69156036
0.69191055
0.69233112
0.69284009
0.69345118
0.69418468
0.6950657
0.69612591
0.69741944
0.69903034
0.70107157
0.7036853
0.70701068
0.71109633
0.71589126
0.72128171
0.72665933
0.73241242
0.73869124
0.74473288
0.7507758
0.75725088
0.76408208
0.77140443
0.77932309
0.78785239
0.79705308
0.80682292
0.81721818
0.82793108
0.83916114
0.85018754
0.86170564
0.87210007
0.88337302
0.8918709
0.90277239
0.90761242
0.91906654
0.68644485
0.68644556
0.68644665
0.68644813
0.68645021
0.68645305
0.68645686
0.68646192
0.68646857
0.68647723
0.68648846
0.68650292
0.68652145
0.68654508
0.68657511
0.68661313
0.68666107
0.68672131
0.68679671
0.68689069
0.68700734
0.68715237
0.68733129
0.6875503
0.68781726
0.6881391
0.68852488
0.68898495
0.6895302
0.69017393
0.69093174
0.69182164
0.69287129
0.69413344
0.69568717
0.69764551
0.7001631
0.70340652
0.70748491
0.71239615
0.7181101
0.72415854
0.73059037
0.73766806
0.74469344
0.75165743
0.75885815
0.76621939
0.77385401
0.78182661
0.79020848
0.79901148
0.80829877
0.81797017
0.82810779
0.83841439
0.84913474
0.85955793
0.87044302
0.88016894
0.89082632
0.89871052
0.90914804
0.91350162
0.92476817
0.6817417
0.68174553
0.6817504
0.68175606
0.68176288
0.68177114
0.68178119
0.68179341
0.6818083
0.68182647
0.68184868
0.68187586
0.68190913
0.68194988
0.68199981
0.68206097
0.68213584
0.68222741
0.68233925
0.68247555
0.68264134
0.68284291
0.6830864
0.68337882
0.68372893
0.68414569
0.68463916
0.68522084
0.68590232
0.68669607
0.6876197
0.68870496
0.69000064
0.69157798
0.69354948
0.69606764
0.69930067
0.70338608
0.70835641
0.71421625
0.72066543
0.72755032
0.73523354
0.74306752
0.7509263
0.75892501
0.76701345
0.77522759
0.78360364
0.7921731
0.80099512
0.81006571
0.81944693
0.82904167
0.83895534
0.84889814
0.85915726
0.86902896
0.87933325
0.88844115
0.89852858
0.90584204
0.91584369
0.91973026
0.93083041
0.67572256
0.67573112
0.6757417
0.67575358
0.67576739
0.67578359
0.67580264
0.67582509
0.67585161
0.67588302
0.67592034
0.67596475
0.67601774
0.67608104
0.67615678
0.6762475
0.67635622
0.67648656
0.67664275
0.67682973
0.67705321
0.6773198
0.6776369
0.67801264
0.6784569
0.67897983
0.6795912
0.68030324
0.68113241
0.68210139
0.68324176
0.68460119
0.68625427
0.68831202
0.69092034
0.69424191
0.69841503
0.70350335
0.70950306
0.71627123
0.72351543
0.73162132
0.74014259
0.74875031
0.75756248
0.76643558
0.77538189
0.78437822
0.79343496
0.80255932
0.81178965
0.82110958
0.83058245
0.84011096
0.84982148
0.85943084
0.86926571
0.87862738
0.88839329
0.89692494
0.90648344
0.91325564
0.92285318
0.92628716
0.93723304
0.66802512
0.66804061
0.66805949
0.66808036
0.6681042
0.6681317
0.66816345
0.66820019
0.6682428
0.66829234
0.6683501
0.66841759
0.66849666
0.66858944
0.66869847
0.66882677
0.66897787
0.66915602
0.66936608
0.66961326
0.66990414
0.67024681
0.67064897
0.67111914
0.67166717
0.67230558
0.67305031
0.67391954
0.67493787
0.67614138
0.67758416
0.67934636
0.68154011
0.68430814
0.68780666
0.69216993
0.69746872
0.70370959
0.7107924
0.71843149
0.72693544
0.73605273
0.74535461
0.75490499
0.76456715
0.7743012
0.78405137
0.79377568
0.80346178
0.81309282
0.82269384
0.83223749
0.84178829
0.8512489
0.86076519
0.87005977
0.87949576
0.88837853
0.89763863
0.90563322
0.91468576
0.92095734
0.93015991
0.93316938
0.94394639
0.65835479
0.65837964
0.65840971
0.65844261
0.65847981
0.65852225
0.6585707
0.65862609
0.65868954
0.65876239
0.65884619
0.65894274
0.65905429
0.65918349
0.659333
0.65950513
0.65970523
0.65994051
0.6602143
0.66053073
0.66089754
0.66132368
0.66181922
0.66239491
0.66306348
0.66384137
0.66475021
0.66581985
0.66709323
0.66863216
0.67052421
0.67288671
0.67586384
0.67960965
0.68425523
0.68987263
0.6964741
0.70397303
0.71211168
0.72106867
0.73077215
0.74077127
0.75103367
0.76147762
0.77203317
0.78260363
0.79312051
0.80352559
0.81378855
0.82387674
0.83380507
0.84353806
0.85314306
0.86252332
0.87184274
0.88082961
0.88988097
0.89830828
0.90708624
0.91457179
0.92314254
0.92894504
0.93775717
0.94034542
0.95099691
0.64642129
0.64645793
0.64650197
0.64654987
0.64660375
0.6466648
0.64673392
0.64681234
0.64690126
0.64699985
0.64710588
0.6472301
0.64738678
0.64756721
0.64776407
0.64798685
0.64824375
0.64854006
0.64888164
0.64927525
0.64972861
0.65025108
0.65085467
0.65155432
0.6523692
0.65332524
0.65445843
0.65581949
0.65747961
0.65953581
0.66211342
0.66536001
0.66943082
0.67445309
0.68049916
0.68758076
0.69561199
0.70434711
0.71388771
0.7242371
0.73496367
0.74597184
0.75723212
0.76864099
0.78008398
0.79146749
0.80271209
0.81374661
0.82453008
0.83501895
0.84522233
0.85510005
0.86472389
0.87399959
0.8831077
0.89178433
0.90045463
0.90843806
0.91674784
0.92375053
0.9318551
0.93723331
0.94564221
0.94796312
0.95827669
0.63223866
0.63228983
0.63235071
0.63241476
0.63248326
0.6325618
0.63265645
0.63276384
0.63287986
0.63300877
0.63315528
0.6333216
0.63351001
0.63372318
0.63396541
0.63424539
0.63457258
0.63494695
0.63536698
0.63584398
0.63639311
0.63702758
0.63776453
0.63862706
0.63964666
0.64086667
0.64234687
0.64416846
0.64643796
0.64928758
0.65286832
0.65733181
0.6628069
0.66935559
0.67700184
0.68565483
0.69504028
0.70527357
0.71637319
0.7278877
0.73973007
0.75186681
0.76418347
0.77655382
0.78887318
0.80103916
0.81296402
0.82456967
0.83580913
0.84663352
0.85704996
0.86701759
0.87661324
0.88574825
0.8946185
0.90296916
0.91125031
0.91879369
0.92663757
0.93317236
0.9408095
0.94578668
0.95376412
0.95571272
0.96567502
0.61588557
0.61595746
0.61602913
0.61609907
0.61618181
0.61627899
0.61639121
0.61652052
0.61666957
0.61684077
0.61703505
0.61725265
0.61749455
0.61776259
0.61806135
0.6183982
0.61878013
0.61921396
0.61970851
0.62027508
0.62092802
0.62168624
0.62257523
0.62362987
0.62489828
0.62644648
0.62836361
0.63076596
0.63379765
0.63762401
0.64241409
0.64831275
0.65540567
0.66369971
0.6731348
0.68344916
0.69467976
0.7067767
0.71930083
0.7321369
0.74527765
0.75860117
0.77198615
0.78532195
0.79849731
0.81140597
0.82395714
0.83607022
0.84769661
0.85878661
0.86934897
0.87934499
0.88885887
0.89780999
0.90640802
0.91441064
0.92228649
0.92938492
0.93676109
0.94284436
0.95001747
0.95468239
0.96224428
0.9643485
0.97459805
0.59720561
0.59728597
0.59738207
0.59748566
0.59760011
0.59772761
0.59786964
0.5980279
0.59820435
0.59840123
0.59862111
0.598867
0.59914246
0.59945171
0.59979988
0.60019325
0.6006396
0.60114879
0.6017335
0.60241053
0.60320228
0.60413906
0.605262
0.60662697
0.60830901
0.61040688
0.61304641
0.61638028
0.62058112
0.62582479
0.63226419
0.6399966
0.64902474
0.65929268
0.67062627
0.68293298
0.69614346
0.70978189
0.7237261
0.73799336
0.75244565
0.7669607
0.78142437
0.79571632
0.80972005
0.82332707
0.83644547
0.84899543
0.86092987
0.8722031
0.88282598
0.89276898
0.90212283
0.91082029
0.91908253
0.92668445
0.93410761
0.94072655
0.94759813
0.95321087
0.95987266
0.96423967
0.97114484
0.97389826
0.98147183
0.57800402
0.57809828
0.57821343
0.57833246
0.5784636
0.57860966
0.57877191
0.57895214
0.57915253
0.57937563
0.57962443
0.57990249
0.58021417
0.58056485
0.58096133
0.58141232
0.58192917
0.58252685
0.58322536
0.58405156
0.58504172
0.58624466
0.58772564
0.5895706
0.59189005
0.59482132