/*--------------------------------*- C++ -*----------------------------------*\
  =========                 |
  \\      /  F ield         | OpenFOAM: The Open Source CFD Toolbox
   \\    /   O peration     | Website:  https://openfoam.org
    \\  /    A nd           | Version:  13
     \\/     M anipulation  |
\*---------------------------------------------------------------------------*/
FoamFile
{
    format      ascii;
    class       volScalarField;
    location    "43.397351";
    object      yPlus;
}
// * * * * * * * * * * * * * * * * * * * * * * * * * * * * * * * * * * * * * //

dimensions      [];

internalField   uniform 0;

boundaryField
{
    inlet
    {
        type            calculated;
        value           uniform 0;
    }
    outlet
    {
        type            calculated;
        value           uniform 0;
    }
    cylinder
    {
        type            calculated;
        value           nonuniform List<scalar> 
132
(
1.240189e-07
1.2447244e-07
1.2449588e-07
1.2401743e-07
1.2300461e-07
1.2143712e-07
1.1930296e-07
1.1659924e-07
1.1333344e-07
1.0952457e-07
1.0520439e-07
1.0041794e-07
9.5223792e-08
8.9693236e-08
8.3909766e-08
7.7967996e-08
7.196941e-08
6.6020434e-08
6.0225634e-08
5.4679787e-08
4.9456316e-08
4.4591649e-08
4.0068581e-08
3.5805115e-08
3.1662612e-08
2.7483803e-08
2.3158883e-08
1.8700962e-08
1.4283414e-08
1.0210269e-08
6.8232361e-09
4.4183666e-09
3.2012248e-09
3.1124625e-09
3.6323237e-09
4.4475274e-09
5.4847142e-09
6.7546095e-09
8.283622e-09
1.0104504e-08
1.2278939e-08
1.4884212e-08
1.7689752e-08
2.0657245e-08
2.371418e-08
2.6793025e-08
2.983627e-08
3.2801774e-08
3.5655725e-08
3.8377171e-08
4.0949243e-08
4.336716e-08
4.5620475e-08
4.7705584e-08
4.964294e-08
5.1401663e-08
5.3004031e-08
5.4443968e-08
5.5728121e-08
5.6846231e-08
5.7799712e-08
5.859701e-08
5.9238526e-08
5.9721558e-08
6.0051262e-08
6.021943e-08
1.2309842e-07
1.2169714e-07
1.1984417e-07
1.1753446e-07
1.1478227e-07
1.116084e-07
1.0803775e-07
1.0411368e-07
9.9874385e-08
9.536479e-08
9.0637725e-08
8.575137e-08
8.0767657e-08
7.575096e-08
7.0766328e-08
6.5877625e-08
6.1145162e-08
5.6622121e-08
5.2349378e-08
4.8346932e-08
4.4605031e-08
4.1074078e-08
3.765878e-08
3.4224791e-08
3.0620853e-08
2.672682e-08
2.251706e-08
1.8103698e-08
1.3736071e-08
9.749187e-09
6.4805086e-09
4.2111201e-09
3.1312332e-09
3.1331093e-09
3.6960783e-09
4.5383106e-09
5.6029716e-09
6.9037084e-09
8.4675129e-09
1.0326213e-08
1.2539591e-08
1.5182815e-08
1.8019435e-08
2.1010353e-08
2.4081761e-08
2.7166481e-08
3.0208727e-08
3.3167475e-08
3.6010384e-08
3.8718473e-08
4.1274128e-08
4.3677734e-08
4.5911821e-08
4.7967698e-08
4.9899062e-08
5.1631098e-08
5.3216743e-08
5.4633159e-08
5.589788e-08
5.6991164e-08
5.7924425e-08
5.8699073e-08
5.9317453e-08
5.9776911e-08
6.0078059e-08
6.0224083e-08
)
;
    }
    frontAndBack
    {
        type            empty;
    }
}


// ************************************************************************* //
