/*--------------------------------*- C++ -*----------------------------------*\
  =========                 |
  \\      /  F ield         | OpenFOAM: The Open Source CFD Toolbox
   \\    /   O peration     | Website:  https://openfoam.org
    \\  /    A nd           | Version:  13
     \\/     M anipulation  |
\*---------------------------------------------------------------------------*/
FoamFile
{
    format      ascii;
    class       volVectorField;
    location    "24.600351";
    object      wallShearStress;
}
// * * * * * * * * * * * * * * * * * * * * * * * * * * * * * * * * * * * * * //

dimensions      [0 2 -2 0 0 0 0];

internalField   uniform (0 0 0);

boundaryField
{
    inlet
    {
        type            calculated;
        value           uniform (0 0 0);
    }
    outlet
    {
        type            calculated;
        value           uniform (0 0 0);
    }
    cylinder
    {
        type            calculated;
        value           nonuniform List<vector> 
132
(
(3.6623389e-06 7.8995368e-05 -2.4245673e-22)
(1.8335471e-05 -0.0003312571 6.9092446e-23)
(5.597048e-05 -0.00074310511 3.8167172e-21)
(0.00011678976 -0.0011490146 -1.281146e-20)
(0.00020005611 -0.0015408571 9.0458732e-21)
(0.00030415622 -0.001910312 2.7648947e-20)
(0.00042650733 -0.0022490272 -5.2408239e-21)
(0.00056356519 -0.0025489835 -2.0773731e-20)
(0.00071077239 -0.002802823 1.959392e-20)
(0.0008629649 -0.0030042295 -4.3970428e-20)
(0.001014313 -0.0031482267 -8.0097028e-22)
(0.0011586753 -0.0032317561 2.737928e-20)
(0.0012898805 -0.0032537301 4.47132e-20)
(0.001402318 -0.0032157758 -3.6373168e-20)
(0.0014910984 -0.0031216227 3.8359379e-20)
(0.0015530651 -0.0029783269 6.1837765e-20)
(0.0015862794 -0.0027940912 -4.0584226e-20)
(0.0015916974 -0.0025804685 6.5198861e-20)
(0.0015723611 -0.0023497635 8.6326466e-20)
(0.0015337237 -0.0021148401 -5.6068571e-20)
(0.0014844266 -0.001889509 -7.1544399e-20)
(0.0014351053 -0.0016862023 2.5186746e-23)
(0.001399692 -0.0015171875 1.0397596e-20)
(0.0013944085 -0.001392801 -1.2457549e-20)
(0.0014379072 -0.0013213155 -2.1204417e-20)
(0.0015486169 -0.0013063698 4.5366875e-21)
(0.0017403164 -0.0013441467 -4.0968574e-20)
(0.002013017 -0.0014187817 1.0945854e-20)
(0.0023536573 -0.0015072814 8.5934526e-21)
(0.0027329889 -0.0015814373 -5.9162537e-20)
(0.0031134262 -0.0016161039 7.7156574e-20)
(0.003464047 -0.0015979005 2.3333681e-21)
(0.0037640777 -0.0015242665 1.6802848e-20)
(0.0039775119 -0.0013915448 -1.9885742e-20)
(0.0040242607 -0.0011903721 6.3097706e-20)
(0.0037718063 -0.00091524153 -3.9846937e-21)
(0.0030570417 -0.00058260659 1.6049325e-20)
(0.0016704509 -0.00023721401 -2.2006181e-21)
(-0.00059140681 2.7818588e-05 3.15371e-21)
(-0.0039579984 7.9368225e-05 -1.9652883e-21)
(-0.0087745517 -0.00029790371 3.6685797e-21)
(-0.015022396 -0.0014004167 -1.1316381e-22)
(-0.022188492 -0.0034176677 4.1517424e-20)
(-0.029839804 -0.0064494235 -1.6011811e-20)
(-0.037416945 -0.010476109 1.4460898e-20)
(-0.044426935 -0.015377469 -9.2970984e-20)
(-0.05043428 -0.020937042 -1.5006184e-20)
(-0.055164672 -0.026901554 1.3183705e-19)
(-0.058421064 -0.032985342 -1.1249881e-19)
(-0.060159135 -0.038924477 -2.1487992e-21)
(-0.060371705 -0.044443158 3.4280973e-20)
(-0.059195429 -0.04934556 -3.1247784e-20)
(-0.05671494 -0.053390638 -6.1289222e-21)
(-0.053127946 -0.05643153 -3.8983844e-21)
(-0.048671259 -0.058382907 -5.9087757e-21)
(-0.04351147 -0.059103371 -2.8891925e-21)
(-0.037901255 -0.058576889 6.015421e-22)
(-0.032055533 -0.056776134 4.8712579e-20)
(-0.026197811 -0.053726854 -7.4458901e-20)
(-0.020538573 -0.04948354 -7.9496791e-20)
(-0.015274057 -0.0441324 -3.228734e-20)
(-0.010581817 -0.037788735 -7.406293e-20)
(-0.0066165303 -0.030592912 1.6534666e-20)
(-0.0035049361 -0.022707352 2.407454e-20)
(-0.001349659 -0.01432525 -3.7444075e-20)
(-0.00020670627 -0.0056051289 -5.006266e-21)
(1.1261821e-05 0.00048439432 -1.1141682e-21)
(4.0857111e-05 0.00088498057 -6.62816e-23)
(9.2570633e-05 0.0012771361 -3.7989815e-21)
(0.00016565165 0.0016532184 1.2715257e-20)
(0.00025854854 0.0020053989 -8.9577182e-21)
(0.00036882508 0.0023259341 -2.7316445e-20)
(0.00049316863 0.0026074499 5.1656068e-21)
(0.00062744455 0.0028432483 2.0426437e-20)
(0.00076673842 0.0030276668 -1.9219229e-20)
(0.00090571196 0.0031563929 4.3022822e-20)
(0.0010387325 0.0032267775 7.8178232e-22)
(0.0011601456 0.0032381568 -2.6655564e-20)
(0.0012647073 0.003192163 -4.3423376e-20)
(0.0013478744 0.0030925493 3.5237914e-20)
(0.0014065408 0.0029459596 -3.7074093e-20)
(0.0014386462 0.0027600366 -5.9630735e-20)
(0.0014445039 0.0025452754 3.905156e-20)
(0.0014266039 0.0023135254 -6.2612281e-20)
(0.0013896847 0.0020772632 -8.2750229e-20)
(0.0013410991 0.0018495155 5.3658459e-20)
(0.0012900373 0.0016421393 6.8370682e-20)
(0.0012483254 0.001466583 6.1210879e-20)
(0.0012300939 0.0013329649 5.0268958e-20)
(0.0012522083 0.0012501659 1.1868561e-20)
(0.0013332609 0.0012243988 2.0189655e-20)
(0.001491186 0.0012571251 -4.3179342e-21)
(0.0017354923 0.0013397035 3.8987234e-20)
(0.0020633692 0.0014537397 -1.0417113e-20)
(0.0024509093 0.0015693021 -8.1808878e-21)
(0.0028591969 0.0016544428 5.6347514e-20)
(0.0032501799 0.0016872066 -7.3527616e-20)
(0.0035983614 0.0016600286 -2.2121303e-21)
(0.0038869377 0.0015742564 3.6486819e-20)
(0.0040700832 0.0014242902 1.9004561e-20)
(0.004060756 0.0012016965 -6.0401376e-20)
(0.0037182766 0.00090309679 3.8226833e-21)
(0.0028676803 0.00054806261 1.1258303e-20)
(0.0012916238 0.00018753093 2.1232235e-21)
(-0.0012084257 -7.6408494e-05 -3.0525465e-21)
(-0.0048440982 -0.00010107674 1.9083965e-21)
(-0.0099659296 0.00033573893 -3.5723758e-21)
(-0.016493032 0.0015354085 2.9112136e-20)
(-0.023861619 0.0036732956 -4.0518654e-20)
(-0.031622187 0.0068324972 1.5610215e-20)
(-0.039182679 0.010968485 -1.406396e-20)
(-0.046086388 0.01595001 9.0092162e-20)
(-0.051911397 0.021547718 1.446753e-20)
(-0.056404472 0.027503677 -1.2628917e-19)
(-0.059396712 0.033533773 1.0686014e-19)
(-0.060860676 0.039376003 2.0186264e-21)
(-0.060801511 0.044757197 -3.1704308e-20)
(-0.059377943 0.049495343 2.8229491e-20)
(-0.056661785 0.053338059 -4.2772886e-20)
(-0.052873288 0.056158568 3.066072e-21)
(-0.048263657 0.057891301 -3.7852719e-21)
(-0.04297417 0.058370535 5.6792524e-21)
(-0.037274838 0.057605386 -7.4832721e-22)
(-0.031376401 0.05556932 -5.5229279e-20)
(-0.0255015 0.05229406 8.105205e-20)
(-0.019859101 0.047840412 8.4523779e-20)
(-0.014642163 0.042298482 3.3791618e-20)
(-0.010025119 0.035788987 7.6614269e-20)
(-0.0061581882 0.028454945 -1.6946184e-20)
(-0.0031635262 0.020463592 4.8551814e-20)
(-0.0011385559 0.012002072 3.7809771e-20)
(-0.00013761049 0.0032622301 5.025245e-21)
)
;
    }
    frontAndBack
    {
        type            empty;
    }
}


// ************************************************************************* //
