/*--------------------------------*- C++ -*----------------------------------*\
  =========                 |
  \\      /  F ield         | OpenFOAM: The Open Source CFD Toolbox
   \\    /   O peration     | Website:  https://openfoam.org
    \\  /    A nd           | Version:  13
     \\/     M anipulation  |
\*---------------------------------------------------------------------------*/
FoamFile
{
    format      ascii;
    class       volScalarField;
    location    "11.004118";
    object      pPrime2Mean;
}
// * * * * * * * * * * * * * * * * * * * * * * * * * * * * * * * * * * * * * //

dimensions      [0 4 -4 0 0 0 0];

internalField   nonuniform List<scalar> 
17140
(
28287.362
28287.363
28287.364
28287.364
28287.363
28287.361
28287.357
28287.352
28287.345
28287.334
28287.321
28287.303
28287.279
28287.25
28287.212
28287.165
28287.105
28287.028
28286.933
28286.813
28286.662
28286.473
28286.235
28285.935
28285.558
28285.083
28284.483
28283.725
28282.768
28281.562
28280.044
28278.137
28275.747
28272.76
28269.041
28264.425
28258.719
28251.696
28243.089
28232.595
28219.862
28204.491
28186.032
28163.978
28137.762
28106.755
28070.266
28027.542
27977.759
27920.032
27853.4
27776.825
27689.197
27589.319
27475.906
27347.589
27202.892
27040.23
26857.887
26654.011
26426.526
26173.144
25891.325
25578.344
25231.372
28288.069
28288.07
28288.071
28288.071
28288.07
28288.067
28288.064
28288.058
28288.051
28288.04
28288.026
28288.009
28287.985
28287.956
28287.918
28287.87
28287.809
28287.733
28287.638
28287.517
28287.367
28287.177
28286.939
28286.64
28286.264
28285.79
28285.191
28284.436
28283.481
28282.277
28280.762
28278.859
28276.472
28273.49
28269.774
28265.162
28259.46
28252.44
28243.838
28233.349
28220.622
28205.259
28186.81
28164.767
28138.564
28107.574
28071.104
28028.4
27978.642
27920.943
27854.341
27777.803
27690.215
27590.383
27477.023
27348.766
27204.134
27041.545
26859.281
26655.496
26428.111
26174.844
25893.155
25580.321
25233.497
28289.816
28289.817
28289.818
28289.817
28289.816
28289.814
28289.81
28289.804
28289.796
28289.786
28289.772
28289.754
28289.731
28289.702
28289.664
28289.616
28289.556
28289.48
28289.385
28289.265
28289.115
28288.927
28288.69
28288.393
28288.019
28287.547
28286.952
28286.199
28285.249
28284.052
28282.543
28280.646
28278.267
28275.292
28271.584
28266.979
28261.284
28254.273
28245.681
28235.203
28222.492
28207.147
28188.721
28166.705
28140.536
28109.584
28073.161
28030.51
27980.812
27923.179
27856.654
27780.204
27692.718
27593
27479.77
27351.658
27207.189
27044.778
26862.713
26659.15
26432.015
26179.027
25897.651
25585.172
25238.706
28292.657
28292.658
28292.659
28292.659
28292.657
28292.654
28292.651
28292.645
28292.638
28292.628
28292.613
28292.596
28292.572
28292.543
28292.505
28292.459
28292.398
28292.324
28292.229
28292.11
28291.962
28291.776
28291.541
28291.246
28290.875
28290.407
28289.817
28289.071
28288.128
28286.937
28285.438
28283.55
28281.181
28278.216
28274.519
28269.925
28264.243
28257.244
28248.668
28238.211
28225.523
28210.209
28191.819
28169.849
28143.732
28112.845
28076.495
28033.929
27984.328
27926.804
27860.403
27784.096
27696.774
27597.242
27484.225
27356.351
27212.146
27050.03
26868.29
26665.088
26438.358
26185.825
25904.956
25593.054
25247.162
28296.649
28296.65
28296.65
28296.65
28296.648
28296.646
28296.641
28296.636
28296.628
28296.618
28296.604
28296.586
28296.563
28296.533
28296.497
28296.45
28296.39
28296.316
28296.223
28296.106
28295.959
28295.774
28295.542
28295.251
28294.883
28294.42
28293.835
28293.096
28292.162
28290.981
28289.493
28287.617
28285.261
28282.31
28278.626
28274.047
28268.381
28261.402
28252.849
28242.42
28229.767
28214.496
28196.158
28174.25
28148.208
28117.408
28081.161
28038.713
27989.245
27931.875
27865.65
27789.545
27702.452
27603.183
27490.461
27362.922
27219.091
27057.388
26876.108
26673.42
26447.261
26195.365
25915.209
25604.117
25259.035
28301.835
28301.835
28301.835
28301.835
28301.833
28301.83
28301.826
28301.82
28301.813
28301.802
28301.788
28301.77
28301.747
28301.718
28301.681
28301.635
28301.576
28301.502
28301.41
28301.295
28301.149
28300.967
28300.739
28300.45
28300.088
28299.631
28299.053
28298.323
28297.399
28296.23
28294.755
28292.893
28290.553
28287.618
28283.952
28279.392
28273.748
28266.795
28258.273
28247.882
28235.275
28220.06
28201.788
28179.961
28154.015
28123.33
28087.214
28044.918
27995.624
27938.454
27872.457
27796.613
27709.821
27610.893
27498.557
27371.454
27228.11
27066.95
26886.273
26684.254
26458.843
26207.78
25928.555
25618.519
25274.496
28308.263
28308.263
28308.263
28308.262
28308.26
28308.257
28308.252
28308.247
28308.238
28308.227
28308.213
28308.196
28308.172
28308.144
28308.107
28308.061
28308.003
28307.931
28307.839
28307.725
28307.582
28307.403
28307.177
28306.894
28306.537
28306.086
28305.517
28304.798
28303.886
28302.731
28301.271
28299.427
28297.104
28294.189
28290.545
28286.01
28280.393
28273.473
28264.991
28254.647
28242.097
28226.95
28208.763
28187.035
28161.208
28130.662
28094.71
28052.601
28003.523
27946.599
27880.887
27805.371
27718.951
27620.446
27508.591
27382.028
27239.292
27078.808
26898.884
26697.704
26473.226
26223.202
25945.138
25636.419
25293.724
28315.983
28315.983
28315.982
28315.981
28315.979
28315.976
28315.971
28315.964
28315.956
28315.945
28315.931
28315.913
28315.891
28315.862
28315.826
28315.78
28315.723
28315.652
28315.562
28315.45
28315.31
28315.133
28314.912
28314.634
28314.284
28313.841
28313.282
28312.573
28311.676
28310.537
28309.094
28307.269
28304.968
28302.076
28298.457
28293.951
28288.368
28281.488
28273.052
28262.765
28250.285
28235.221
28217.133
28195.524
28169.84
28139.46
28103.702
28061.819
28013.001
27956.376
27891.008
27815.885
27729.914
27631.92
27520.642
27394.731
27252.726
27093.06
26914.049
26713.886
26490.537
26241.769
25965.109
25657.982
25316.899
28325.056
28325.056
28325.056
28325.055
28325.052
28325.048
28325.043
28325.037
28325.028
28325.017
28325.003
28324.986
28324.962
28324.934
28324.899
28324.854
28324.798
28324.727
28324.64
28324.529
28324.392
28324.22
28324.003
28323.731
28323.388
28322.955
28322.405
28321.709
28320.826
28319.704
28318.279
28316.475
28314.196
28311.33
28307.74
28303.267
28297.724
28290.89
28282.511
28272.29
28259.889
28244.922
28226.951
28205.481
28179.962
28149.777
28114.246
28072.628
28024.117
27967.846
27902.884
27828.226
27742.786
27645.392
27534.795
27409.652
27268.51
27109.81
26931.88
26732.918
26510.904
26263.622
25988.62
25683.376
25344.206
28335.549
28335.549
28335.549
28335.547
28335.545
28335.54
28335.535
28335.529
28335.52
28335.509
28335.494
28335.476
28335.454
28335.426
28335.39
28335.347
28335.291
28335.223
28335.137
28335.03
28334.895
28334.727
28334.515
28334.249
28333.913
28333.489
28332.95
28332.267
28331.397
28330.291
28328.885
28327.102
28324.847
28322.007
28318.45
28314.014
28308.515
28301.733
28293.417
28283.273
28270.963
28256.107
28238.268
28216.958
28191.628
28161.666
28126.397
28085.085
28036.93
27981.069
27916.578
27842.459
27757.633
27660.937
27551.128
27426.875
27286.734
27129.155
26952.477
26754.915
26534.462
26288.905
26015.83
25712.773
25375.83
28347.531
28347.53
28347.529
28347.527
28347.524
28347.52
28347.515
28347.508
28347.499
28347.487
28347.473
28347.456
28347.433
28347.406
28347.37
28347.327
28347.274
28347.206
28347.122
28347.017
28346.886
28346.722
28346.515
28346.254
28345.925
28345.508
28344.979
28344.306
28343.45
28342.358
28340.971
28339.208
28336.977
28334.166
28330.641
28326.246
28320.795
28314.072
28305.826
28295.766
28283.559
28268.826
28251.138
28230.007
28204.891
28175.18
28140.208
28099.244
28051.494
27996.103
27932.152
27858.653
27774.53
27678.633
27569.729
27446.494
27307.497
27151.205
26975.971
26780.015
26561.347
26317.766
26046.898
25746.344
25411.96
28361.064
28361.063
28361.062
28361.059
28361.056
28361.052
28361.047
28361.04
28361.03
28361.02
28361.005
28360.987
28360.965
28360.937
28360.903
28360.86
28360.807
28360.741
28360.659
28360.556
28360.427
28360.266
28360.062
28359.807
28359.483
28359.073
28358.553
28357.889
28357.043
28355.965
28354.592
28352.848
28350.641
28347.859
28344.37
28340.018
28334.619
28327.96
28319.79
28309.823
28297.73
28283.136
28265.614
28244.684
28219.803
28190.375
28155.735
28115.162
28067.87
28013.01
27949.674
27876.878
27793.555
27698.566
27590.688
27468.609
27330.913
27176.081
27002.484
26808.345
26591.695
26350.354
26081.987
25784.268
25452.783
28376.204
28376.203
28376.202
28376.2
28376.196
28376.192
28376.186
28376.179
28376.17
28376.159
28376.145
28376.126
28376.105
28376.077
28376.043
28376.001
28375.948
28375.883
28375.802
28375.701
28375.574
28375.415
28375.215
28374.962
28374.644
28374.239
28373.723
28373.067
28372.23
28371.164
28369.806
28368.081
28365.897
28363.144
28359.691
28355.385
28350.042
28343.45
28335.364
28325.5
28313.532
28299.09
28281.752
28261.042
28236.425
28207.308
28173.039
28132.902
28086.123
28031.862
27969.218
27897.212
27814.791
27720.822
27614.097
27493.317
27357.08
27203.889
27032.128
26840.035
26625.65
26386.824
26121.26
25826.72
25498.489
28393.002
28393.001
28392.999
28392.997
28392.993
28392.989
28392.983
28392.976
28392.967
28392.956
28392.942
28392.923
28392.902
28392.875
28392.841
28392.799
28392.747
28392.683
28392.603
28392.502
28392.377
28392.22
28392.022
28391.771
28391.455
28391.054
28390.544
28389.893
28389.064
28388.008
28386.663
28384.957
28382.797
28380.074
28376.66
28372.401
28367.118
28360.599
28352.604
28342.852
28331.022
28316.747
28299.611
28279.144
28254.817
28226.046
28192.187
28152.536
28106.33
28052.737
27990.863
27919.74
27838.322
27745.492
27640.052
27520.721
27386.112
27234.752
27065.04
26875.222
26663.356
26427.326
26164.882
25873.878
25549.267
28411.505
28411.504
28411.503
28411.5
28411.497
28411.493
28411.487
28411.479
28411.47
28411.459
28411.445
28411.428
28411.406
28411.378
28411.345
28411.304
28411.252
28411.189
28411.109
28411.01
28410.885
28410.729
28410.533
28410.284
28409.97
28409.571
28409.064
28408.419
28407.596
28406.55
28405.219
28403.53
28401.395
28398.706
28395.333
28391.125
28385.904
28379.466
28371.569
28361.938
28350.258
28336.166
28319.252
28299.051
28275.044
28246.654
28213.251
28174.14
28128.568
28075.716
28014.696
27944.549
27864.242
27772.673
27668.656
27550.927
27418.124
27268.792
27101.343
26914.04
26704.955
26472.015
26213.017
25925.918
25605.303
28431.769
28431.768
28431.766
28431.764
28431.761
28431.756
28431.751
28431.744
28431.735
28431.724
28431.71
28431.692
28431.67
28431.645
28431.611
28431.57
28431.519
28431.456
28431.376
28431.278
28431.154
28430.999
28430.803
28430.556
28430.244
28429.847
28429.343
28428.702
28427.887
28426.85
28425.533
28423.863
28421.754
28419.098
28415.767
28411.615
28406.463
28400.109
28392.319
28382.821
28371.303
28357.412
28340.741
28320.832
28297.177
28269.21
28236.31
28197.795
28152.923
28100.886
28040.804
27971.73
27892.647
27802.463
27700.011
27584.047
27453.232
27306.132
27141.169
26956.623
26750.594
26521.044
26265.827
25983.015
25666.782
28453.86
28453.859
28453.858
28453.856
28453.853
28453.849
28453.843
28453.836
28453.827
28453.816
28453.803
28453.785
28453.763
28453.737
28453.705
28453.664
28453.613
28453.55
28453.471
28453.373
28453.249
28453.095
28452.899
28452.653
28452.342
28451.947
28451.445
28450.809
28449.999
28448.972
28447.669
28446.019
28443.936
28441.314
28438.03
28433.932
28428.853
28422.593
28414.917
28405.564
28394.225
28380.551
28364.145
28344.559
28321.292
28293.79
28261.444
28223.585
28179.481
28128.334
28069.278
28001.378
27923.633
27834.964
27734.225
27620.192
27491.557
27346.894
27184.645
27003.106
26800.412
26574.566
26323.477
26045.345
25733.888
28477.852
28477.851
28477.849
28477.848
28477.844
28477.84
28477.835
28477.828
28477.819
28477.808
28477.795
28477.778
28477.756
28477.731
28477.698
28477.657
28477.607
28477.543
28477.465
28477.366
28477.243
28477.088
28476.893
28476.647
28476.336
28475.942
28475.443
28474.809
28474.006
28472.987
28471.697
28470.066
28468.009
28465.422
28462.183
28458.147
28453.146
28446.983
28439.433
28430.235
28419.09
28405.654
28389.539
28370.305
28347.464
28320.473
28288.734
28251.591
28208.324
28158.147
28100.209
28033.588
27957.296
27870.275
27771.4
27659.478
27533.211
27391.201
27231.896
27053.624
26854.554
26632.732
26386.128
26113.076
25806.799
28503.817
28503.816
28503.815
28503.813
28503.81
28503.806
28503.801
28503.794
28503.786
28503.775
28503.762
28503.744
28503.723
28503.697
28503.664
28503.623
28503.572
28503.509
28503.43
28503.33
28503.206
28503.051
28502.855
28502.609
28502.297
28501.905
28501.406
28500.776
28499.978
28498.968
28497.69
28496.075
28494.043
28491.491
28488.3
28484.327
28479.408
28473.351
28465.936
28456.907
28445.971
28432.794
28416.995
28398.148
28375.771
28349.338
28318.263
28281.899
28239.541
28190.416
28133.688
28068.452
27993.734
27908.497
27811.647
27702.012
27578.314
27439.17
27283.048
27108.309
26913.158
26695.69
26453.936
26186.377
25885.69
28531.815
28531.814
28531.813
28531.811
28531.808
28531.805
28531.8
28531.793
28531.785
28531.774
28531.76
28531.743
28531.722
28531.695
28531.662
28531.621
28531.57
28531.505
28531.426
28531.325
28531.201
28531.045
28530.848
28530.601
28530.29
28529.897
28529.401
28528.774
28527.981
28526.98
28525.714
28524.118
28522.111
28519.594
28516.451
28512.544
28507.711
28501.768
28494.497
28485.65
28474.942
28462.045
28446.59
28428.162
28406.293
28380.467
28350.11
28314.59
28273.214
28225.227
28169.805
28106.059
28033.037
27949.728
27855.068
27747.902
27626.978
27490.917
27338.224
27167.29
26976.365
26763.587
26527.057
26265.411
25970.732
28561.888
28561.888
28561.888
28561.886
28561.883
28561.879
28561.874
28561.867
28561.859
28561.848
28561.835
28561.818
28561.796
28561.769
28561.737
28561.695
28561.643
28561.579
28561.498
28561.398
28561.273
28561.116
28560.919
28560.673
28560.363
28559.972
28559.479
28558.858
28558.073
28557.083
28555.832
28554.257
28552.279
28549.8
28546.71
28542.872
28538.132
28532.309
28525.192
28516.54
28506.075
28493.482
28478.401
28460.427
28439.109
28413.938
28384.358
28349.747
28309.429
28262.661
28208.639
28146.492
28075.293
27994.064
27901.764
27797.258
27679.305
27546.556
27397.542
27230.696
27044.306
26836.564
26605.64
26350.337
26062.088
28594.064
28594.064
28594.063
28594.061
28594.059
28594.055
28594.05
28594.044
28594.035
28594.025
28594.012
28593.994
28593.973
28593.947
28593.914
28593.873
28593.821
28593.757
28593.677
28593.578
28593.454
28593.298
28593.104
28592.86
28592.554
28592.168
28591.682
28591.07
28590.297
28589.322
28588.093
28586.546
28584.603
28582.172
28579.14
28575.382
28570.742
28565.049
28558.098
28549.655
28539.453
28527.185
28512.506
28495.025
28474.297
28449.833
28421.086
28387.45
28348.263
28302.797
28250.268
28189.833
28120.594
28041.604
27951.834
27850.179
27735.404
27606.198
27461.122
27298.652
27117.117
26914.761
26689.83
26441.308
26159.914
28628.358
28628.358
28628.357
28628.357
28628.354
28628.351
28628.346
28628.34
28628.331
28628.321
28628.309
28628.293
28628.272
28628.247
28628.215
28628.175
28628.125
28628.063
28627.985
28627.889
28627.768
28627.616
28627.427
28627.189
28626.891
28626.515
28626.041
28625.443
28624.689
28623.737
28622.537
28621.025
28619.128
28616.755
28613.797
28610.129
28605.606
28600.057
28593.286
28585.07
28575.151
28563.235
28548.989
28532.033
28511.94
28488.23
28460.371
28427.773
28389.786
28345.703
28294.767
28236.164
28169.03
28092.435
28005.375
27906.753
27795.372
27669.948
27529.078
27371.279
27194.925
26998.312
26779.768
26538.473
26264.355
28664.8
28664.8
28664.799
28664.797
28664.796
28664.792
28664.788
28664.782
28664.776
28664.766
28664.754
28664.739
28664.72
28664.696
28664.666
28664.629
28664.582
28664.524
28664.451
28664.359
28664.244
28664.101
28663.919
28663.692
28663.405
28663.044
28662.587
28662.01
28661.28
28660.359
28659.196
28657.731
28655.892
28653.589
28650.719
28647.161
28642.771
28637.387
28630.819
28622.852
28613.241
28601.704
28587.922
28571.527
28552.109
28529.201
28502.282
28470.777
28434.055
28391.443
28342.207
28285.566
28220.683
28146.64
28062.463
27967.075
27859.308
27737.911
27601.521
27448.696
27277.857
27087.348
26875.588
26641.972
26375.553
28703.431
28703.431
28703.431
28703.429
28703.428
28703.425
28703.422
28703.417
28703.41
28703.402
28703.392
28703.377
28703.361
28703.339
28703.312
28703.278
28703.235
28703.182
28703.115
28703.03
28702.924
28702.79
28702.621
28702.406
28702.135
28701.793
28701.358
28700.806
28700.107
28699.223
28698.105
28696.695
28694.924
28692.704
28689.939
28686.507
28682.273
28677.077
28670.739
28663.049
28653.775
28642.647
28629.36
28613.564
28594.859
28572.791
28546.856
28516.503
28481.127
28440.082
28392.66
28338.115
28275.619
28204.297
28123.18
28031.227
27927.302
27810.187
27678.557
27531.016
27366.029
27181.993
26977.419
26751.943
26493.639
28744.317
28744.317
28744.316
28744.315
28744.315
28744.312
28744.309
28744.305
28744.3
28744.292
28744.283
28744.271
28744.256
28744.237
28744.213
28744.182
28744.145
28744.096
28744.035
28743.959
28743.861
28743.739
28743.581
28743.383
28743.129
28742.806
28742.395
28741.873
28741.208
28740.365
28739.298
28737.95
28736.257
28734.133
28731.484
28728.197
28724.137
28719.152
28713.067
28705.684
28696.777
28686.092
28673.337
28658.172
28640.214
28619.03
28594.138
28565.005
28531.061
28491.683
28446.193
28393.867
28333.911
28265.467
28187.597
28099.29
27999.442
27886.871
27760.29
27618.348
27459.561
27282.37
27085.381
26868.518
26618.742
28787.526
28787.526
28787.526
28787.526
28787.525
28787.523
28787.52
28787.516
28787.512
28787.505
28787.498
28787.487
28787.474
28787.457
28787.435
28787.408
28787.374
28787.331
28787.275
28787.205
28787.116
28787.002
28786.857
28786.672
28786.435
28786.132
28785.746
28785.252
28784.623
28783.825
28782.811
28781.533
28779.922
28777.904
28775.383
28772.253
28768.385
28763.631
28757.823
28750.773
28742.263
28732.052
28719.859
28705.363
28688.199
28667.951
28644.16
28616.326
28583.906
28546.293
28502.852
28452.876
28395.609
28330.212
28255.782
28171.337
28075.809
27968.051
27846.817
27710.8
27558.562
27388.593
27199.595
26991.821
26750.992
28833.115
28833.115
28833.115
28833.114
28833.114
28833.112
28833.109
28833.106
28833.102
28833.096
28833.089
28833.079
28833.067
28833.051
28833.031
28833.006
28832.974
28832.933
28832.882
28832.816
28832.733
28832.627
28832.491
28832.317
28832.094
28831.809
28831.444
28830.979
28830.386
28829.633
28828.677
28827.47
28825.95
28824.044
28821.661
28818.7
28815.035
28810.528
28805.017
28798.321
28790.235
28780.528
28768.935
28755.152
28738.829
28719.576
28696.958
28670.504
28639.691
28603.951
28562.676
28515.191
28460.761
28398.587
28327.794
28247.437
28156.479
28053.815
27938.233
27808.473
27663.142
27500.777
27320.174
27121.967
26890.526
28881.103
28881.103
28881.103
28881.103
28881.102
28881.1
28881.098
28881.094
28881.09
28881.084
28881.077
28881.068
28881.055
28881.04
28881.021
28880.996
28880.965
28880.926
28880.877
28880.814
28880.734
28880.632
28880.503
28880.338
28880.126
28879.857
28879.513
28879.074
28878.517
28877.81
28876.914
28875.782
28874.356
28872.567
28870.329
28867.545
28864.096
28859.848
28854.65
28848.33
28840.695
28831.525
28820.571
28807.546
28792.12
28773.923
28752.549
28727.554
28698.444
28664.687
28625.699
28580.838
28529.406
28470.637
28403.688
28327.65
28241.524
28144.241
28034.627
27911.465
27773.407
27619.033
27447.24
27259.078
27037.49
28931.478
28931.478
28931.477
28931.477
28931.476
28931.474
28931.472
28931.468
28931.463
28931.458
28931.45
28931.441
28931.428
28931.413
28931.394
28931.369
28931.338
28931.3
28931.252
28931.19
28931.112
28931.014
28930.89
28930.732
28930.531
28930.276
28929.952
28929.541
28929.02
28928.36
28927.525
28926.472
28925.145
28923.479
28921.392
28918.792
28915.566
28911.591
28906.722
28900.799
28893.641
28885.044
28874.77
28862.55
28848.075
28830.998
28810.944
28787.493
28760.182
28728.515
28691.94
28649.849
28601.58
28546.4
28483.508
28412.029
28331.003
28239.401
28136.085
28019.875
27889.467
27743.479
27580.92
27403.307
27192.035
28984.204
28984.204
28984.204
28984.203
28984.202
28984.2
28984.197
28984.194
28984.19
28984.184
28984.175
28984.166
28984.154
28984.139
28984.12
28984.096
28984.066
28984.027
28983.98
28983.921
28983.845
28983.751
28983.633
28983.484
28983.294
28983.055
28982.753
28982.371
28981.889
28981.279
28980.509
28979.538
28978.314
28976.775
28974.845
28972.437
28969.445
28965.754
28961.23
28955.726
28949.073
28941.08
28931.527
28920.16
28906.691
28890.803
28872.143
28850.319
28824.907
28795.444
28761.41
28722.238
28677.298
28625.903
28567.287
28500.617
28424.972
28339.362
28242.686
28133.8
28011.433
27874.238
27721.356
27554.833
27354.335
29039.246
29039.246
29039.246
29039.246
29039.245
29039.242
29039.24
29039.236
29039.232
29039.226
29039.219
29039.21
29039.198
29039.183
29039.165
29039.142
29039.113
29039.077
29039.033
29038.977
29038.907
29038.819
29038.708
29038.57
29038.395
29038.175
29037.898
29037.549
29037.109
29036.555
29035.854
29034.97
29033.854
29032.447
29030.681
29028.471
29025.722
29022.327
29018.165
29013.1
29006.978
28999.623
28990.829
28980.363
28967.959
28953.323
28936.13
28916.023
28892.613
28865.467
28834.109
28798.007
28756.573
28709.161
28655.048
28593.444
28523.472
28444.181
28354.507
28253.338
28139.432
28011.453
27868.656
27713.685
27524.809
29096.573
29096.573
29096.572
29096.572
29096.571
29096.569
29096.567
29096.563
29096.56
29096.554
29096.548
29096.54
29096.529
29096.516
29096.499
29096.479
29096.454
29096.421
29096.381
29096.331
29096.269
29096.19
29096.091
29095.967
29095.812
29095.616
29095.369
29095.058
29094.667
29094.172
29093.545
29092.752
29091.748
29090.478
29088.878
29086.872
29084.375
29081.289
29077.505
29072.902
29067.338
29060.653
29052.658
29043.138
29031.853
29018.534
29002.885
28984.583
28963.276
28938.568
28910.022
28877.147
28839.398
28796.171
28746.796
28690.529
28626.535
28553.907
28471.618
28378.588
28273.599
28155.276
28022.884
27880.271
27703.576
29156.165
29156.165
29156.164
29156.163
29156.162
29156.162
29156.159
29156.157
29156.153
29156.149
29156.143
29156.137
29156.128
29156.118
29156.104
29156.087
29156.065
29156.039
29156.006
29155.963
29155.911
29155.844
29155.761
29155.655
29155.522
29155.354
29155.142
29154.874
29154.533
29154.1
29153.552
29152.853
29151.962
29150.831
29149.402
29147.607
29145.369
29142.605
29139.218
29135.098
29130.12
29124.136
29116.976
29108.449
29098.335
29086.396
29072.368
29055.963
29036.864
29014.715
28989.118
28959.629
28925.748
28886.921
28842.525
28791.873
28734.177
28668.577
28594.083
28509.651
28414.056
28305.796
28184.307
28054.772
27890.83
29217.999
29217.999
29217.998
29217.998
29217.997
29217.996
29217.994
29217.992
29217.99
29217.987
29217.983
29217.978
29217.971
29217.964
29217.954
29217.94
29217.925
29217.905
29217.879
29217.847
29217.806
29217.754
29217.688
29217.604
29217.497
29217.359
29217.183
29216.958
29216.671
29216.303
29215.83
29215.223
29214.447
29213.456
29212.201
29210.623
29208.657
29206.23
29203.257
29199.642
29195.274
29190.021
29183.734
29176.242
29167.354
29156.86
29144.529
29130.111
29113.325
29093.857
29071.351
29045.411
29015.585
28981.372
28942.207
28897.459
28846.399
28788.215
28721.963
28646.615
28560.918
28463.371
28353.111
28237.379
28087.155
29282.056
29282.055
29282.055
29282.055
29282.055
29282.054
29282.052
29282.051
29282.05
29282.047
29282.045
29282.042
29282.038
29282.033
29282.026
29282.018
29282.007
29281.994
29281.977
29281.955
29281.926
29281.889
29281.84
29281.776
29281.693
29281.586
29281.445
29281.262
29281.024
29280.716
29280.317
29279.802
29279.138
29278.289
29277.213
29275.861
29274.177
29272.101
29269.56
29266.471
29262.736
29258.243
29252.864
29246.451
29238.84
29229.854
29219.299
29206.959
29192.594
29175.929
29156.657
29134.426
29108.845
29079.468
29045.792
29007.249
28963.18
28912.826
28855.285
28789.544
28714.433
28628.207
28529.695
28428.423
28293.158
29348.29
29348.29
29348.29
29348.289
29348.289
29348.288
29348.287
29348.287
29348.286
29348.284
29348.284
29348.281
29348.28
29348.276
29348.273
29348.269
29348.263
29348.256
29348.245
29348.232
29348.214
29348.189
29348.156
29348.11
29348.048
29347.965
29347.856
29347.71
29347.518
29347.265
29346.936
29346.509
29345.958
29345.253
29344.361
29343.242
29341.852
29340.14
29338.045
29335.499
29332.421
29328.717
29324.28
29318.987
29312.706
29305.294
29296.591
29286.42
29274.581
29260.843
29244.945
29226.591
29205.445
29181.13
29153.207
29121.181
29084.464
29042.36
28994.052
28938.575
28874.736
28800.691
28714.803
28628.583
28509.319
29416.632
29416.631
29416.631
29416.63
29416.631
29416.63
29416.629
29416.629
29416.628
29416.628
29416.627
29416.626
29416.624
29416.624
29416.621
29416.62
29416.617
29416.613
29416.606
29416.598
29416.587
29416.57
29416.546
29416.513
29416.466
29416.403
29416.316
29416.201
29416.047
29415.846
29415.583
29415.242
29414.804
29414.245
29413.541
29412.661
29411.573
29410.236
29408.602
29406.617
29404.217
29401.329
29397.866
29393.737
29388.84
29383.067
29376.296
29368.385
29359.177
29348.486
29336.104
29321.792
29305.275
29286.245
29264.341
29239.135
29210.143
29176.764
29138.259
29093.728
29042.041
28981.286
28909.493
28838.909
28735.633
29486.954
29486.954
29486.953
29486.952
29486.952
29486.951
29486.951
29486.95
29486.949
29486.948
29486.948
29486.947
29486.946
29486.945
29486.944
29486.941
29486.939
29486.936
29486.932
29486.926
29486.917
29486.904
29486.885
29486.859
29486.822
29486.772
29486.704
29486.614
29486.495
29486.341
29486.142
29485.887
29485.563
29485.154
29484.642
29484.009
29483.23
29482.277
29481.115
29479.708
29478.006
29475.958
29473.505
29470.583
29467.125
29463.056
29458.291
29452.728
29446.251
29438.725
29429.995
29419.879
29408.18
29394.663
29379.046
29360.996
29340.116
29315.919
29287.816
29255.04
29216.56
29170.509
29114.899
29059.659
28973.589
29559.108
29559.107
29559.106
29559.106
29559.105
29559.104
29559.103
29559.102
29559.101
29559.099
29559.099
29559.097
29559.095
29559.093
29559.091
29559.088
29559.085
29559.081
29559.076
29559.068
29559.059
29559.046
29559.029
29559.006
29558.973
29558.931
29558.877
29558.807
29558.719
29558.609
29558.472
29558.305
29558.099
29557.841
29557.526
29557.143
29556.679
29556.117
29555.441
29554.626
29553.644
29552.463
29551.053
29549.382
29547.415
29545.113
29542.427
29539.295
29535.649
29531.407
29526.466
29520.715
29514.028
29506.252
29497.195
29486.618
29474.249
29459.72
29442.597
29422.347
29398.156
29368.56
29331.869
29294.324
29229.571
29636.161
29636.16
29636.159
29636.158
29636.156
29636.156
29636.154
29636.152
29636.15
29636.148
29636.145
29636.143
29636.139
29636.135
29636.131
29636.126
29636.12
29636.113
29636.104
29636.093
29636.08
29636.063
29636.043
29636.018
29635.986
29635.948
29635.904
29635.852
29635.793
29635.726
29635.652
29635.572
29635.483
29635.388
29635.286
29635.175
29635.057
29634.927
29634.781
29634.612
29634.415
29634.184
29633.918
29633.616
29633.277
29632.899
29632.472
29631.98
29631.403
29630.716
29629.885
29628.872
29627.631
29626.099
29624.184
29621.764
29618.682
29614.747
29609.692
29603.241
29594.941
29583.987
29570.366
29557.939
29534.139
29717.209
29717.207
29717.206
29717.205
29717.203
29717.201
29717.2
29717.197
29717.195
29717.191
29717.188
29717.184
29717.18
29717.174
29717.168
29717.16
29717.151
29717.141
29717.129
29717.113
29717.096
29717.076
29717.052
29717.025
29716.995
29716.962
29716.93
29716.898
29716.872
29716.855
29716.853
29716.87
29716.916
29716.997
29717.122
29717.305
29717.561
29717.895
29718.314
29718.837
29719.478
29720.262
29721.217
29722.378
29723.777
29725.452
29727.433
29729.752
29732.446
29735.55
29739.106
29743.155
29747.734
29752.877
29758.603
29764.919
29771.809
29779.257
29787.208
29795.66
29804.564
29813.838
29824.33
29837.903
29848.096
29798.081
29798.081
29798.079
29798.077
29798.076
29798.074
29798.072
29798.07
29798.066
29798.064
29798.06
29798.056
29798.052
29798.046
29798.039
29798.032
29798.023
29798.012
29798
29797.987
29797.971
29797.953
29797.933
29797.911
29797.89
29797.871
29797.858
29797.854
29797.868
29797.907
29797.979
29798.097
29798.273
29798.524
29798.87
29799.334
29799.94
29800.713
29801.686
29802.89
29804.366
29806.163
29808.342
29810.966
29814.105
29817.832
29822.224
29827.361
29833.336
29840.251
29848.22
29857.366
29867.811
29879.686
29893.12
29908.257
29925.227
29944.195
29965.323
29988.864
30015.081
30044.422
30077.876
30116.579
30159.792
29878.432
29878.431
29878.43
29878.428
29878.427
29878.425
29878.423
29878.421
29878.419
29878.416
29878.413
29878.41
29878.405
29878.401
29878.397
29878.391
29878.384
29878.377
29878.367
29878.358
29878.347
29878.335
29878.323
29878.311
29878.303
29878.302
29878.313
29878.341
29878.396
29878.489
29878.635
29878.849
29879.154
29879.574
29880.137
29880.875
29881.83
29883.042
29884.558
29886.436
29888.737
29891.542
29894.937
29899.017
29903.888
29909.657
29916.447
29924.392
29933.64
29944.362
29956.743
29970.985
29987.3
30005.916
30027.074
30051.045
30078.12
30108.631
30142.949
30181.558
30224.993
30274.06
30329.928
30394.043
30468.378
29957.88
29957.879
29957.878
29957.876
29957.875
29957.874
29957.872
29957.87
29957.869
29957.867
29957.865
29957.864
29957.861
29957.86
29957.857
29957.855
29957.852
29957.849
29957.846
29957.844
29957.841
29957.84
29957.84
29957.844
29957.855
29957.877
29957.915
29957.98
29958.083
29958.239
29958.464
29958.784
29959.224
29959.814
29960.594
29961.609
29962.912
29964.558
29966.615
29969.161
29972.284
29976.087
29980.689
29986.212
29992.796
30000.589
30009.757
30020.487
30032.988
30047.495
30064.264
30083.575
30105.729
30131.051
30159.899
30192.668
30229.799
30271.79
30319.206
30372.753
30433.233
30501.751
30579.75
30669.128
30772.624
30036.122
30036.12
30036.119
30036.119
30036.118
30036.116
30036.115
30036.115
30036.114
30036.113
30036.113
30036.113
30036.114
30036.114
30036.116
30036.117
30036.12
30036.123
30036.127
30036.133
30036.141
30036.151
30036.166
30036.188
30036.22
30036.269
30036.342
30036.45
30036.607
30036.832
30037.146
30037.576
30038.156
30038.922
30039.923
30041.215
30042.865
30044.944
30047.538
30050.747