/*--------------------------------*- C++ -*----------------------------------*\
  =========                 |
  \\      /  F ield         | OpenFOAM: The Open Source CFD Toolbox
   \\    /   O peration     | Website:  https://openfoam.org
    \\  /    A nd           | Version:  13
     \\/     M anipulation  |
\*---------------------------------------------------------------------------*/
FoamFile
{
    format      ascii;
    class       volVectorField;
    location    "11.004118";
    object      U;
}
// * * * * * * * * * * * * * * * * * * * * * * * * * * * * * * * * * * * * * //

dimensions      [0 1 -1 0 0 0 0];

internalField   nonuniform List<vector> 
17140
(
(-3.4333101e-06 0.00016498592 1.0122773e-23)
(-3.874048e-05 0.00050889742 1.1356911e-24)
(-0.00011387269 0.00088549159 -7.4232468e-23)
(-0.00024438878 0.0012959145 8.1617375e-23)
(-0.00044440738 0.0017412556 -9.5450858e-24)
(-0.00073318981 0.0022222595 3.1376029e-23)
(-0.0011344611 0.0027392337 5.2975429e-23)
(-0.0016768886 0.0032919201 -2.5610889e-23)
(-0.0023950147 0.0038793409 -8.4537451e-23)
(-0.0033301699 0.004499625 -2.0815556e-22)
(-0.0045314097 0.0051498139 3.0828724e-22)
(-0.0060564236 0.0058256573 -2.7526232e-22)
(-0.0079723721 0.0065214065 -4.2861555e-23)
(-0.010356545 0.0072296225 2.3746139e-22)
(-0.013296724 0.0079410304 -2.6582103e-23)
(-0.016891092 0.0086444492 2.0869622e-22)
(-0.021247533 0.0093268569 -7.139927e-24)
(-0.026482139 0.0099736433 2.3778232e-24)
(-0.032716781 0.010569125 1.2252534e-22)
(-0.040075706 0.011097386 -1.5503735e-22)
(-0.048681238 0.011543487 7.5508965e-23)
(-0.058648957 0.01189503 -1.2648154e-23)
(-0.070083037 0.012143963 -9.9996136e-23)
(-0.08307245 0.012288359 1.0062894e-22)
(-0.097689496 0.012333739 1.5762598e-22)
(-0.11399781 0.012293312 -1.1950367e-22)
(-0.13206648 0.012186699 -5.9726065e-22)
(-0.15189205 0.012037056 -7.8266183e-23)
(-0.17357804 0.011862107 6.0712355e-22)
(-0.19725513 0.011677911 1.5402372e-22)
(-0.22294326 0.011497446 5.4183373e-22)
(-0.25077887 0.011327388 -6.9934433e-22)
(-0.28087597 0.0111709 2.0055909e-22)
(-0.31335458 0.011029059 9.1100841e-23)
(-0.34833338 0.010902161 1.0371049e-21)
(-0.38592233 0.010790357 -4.5165133e-22)
(-0.42621424 0.010693662 7.8592996e-22)
(-0.4692746 0.010611404 5.8854918e-22)
(-0.51512816 0.010541188 3.0574029e-22)
(-0.56374185 0.010477462 -9.6202356e-22)
(-0.61500393 0.010410111 -2.031885e-21)
(-0.66869911 0.010323588 -2.0207017e-21)
(-0.72448091 0.010196189 -9.5000332e-22)
(-0.78184407 0.0099993637 5.3649742e-21)
(-0.8400804 0.0096985279 4.3506446e-21)
(-0.89820898 0.009256643 -1.1610237e-21)
(-0.95508572 0.0086398817 8.5984885e-21)
(-1.0095023 0.007797529 3.1863833e-21)
(-1.0597905 0.0066529978 -3.4910305e-21)
(-1.1038991 0.0051306425 -9.0963147e-21)
(-1.1396986 0.0031612624 5.8608961e-21)
(-1.164999 0.0010459226 3.8286565e-21)
(-1.175157 -0.0012142127 -9.9848924e-21)
(-1.1766661 -0.0046477595 -4.6415378e-21)
(-1.1430019 -0.0085567799 -3.1207197e-21)
(-1.0910455 -0.012573573 2.3385392e-21)
(-1.0064875 -0.016976528 -5.0117055e-21)
(-0.88682235 -0.021210725 -3.2453447e-21)
(-0.72495474 -0.024829172 -4.6355221e-22)
(-0.52385746 -0.026498457 6.6170908e-22)
(-0.29765553 -0.025973901 -6.8964667e-23)
(-0.067776876 -0.02304392 -1.6454398e-21)
(0.14711991 -0.018005986 -3.1299153e-22)
(0.32468156 -0.012112284 2.5194489e-21)
(0.47442719 -0.0071464457 -1.7505502e-21)
(-3.0726648e-05 0.00071955645 -3.0412167e-24)
(-0.00012220689 0.0022175124 3.9597908e-22)
(-0.00025816545 0.0038573756 -3.5297859e-22)
(-0.00045408121 0.0056470583 9.6005522e-23)
(-0.00072413824 0.0075941087 1.9915723e-22)
(-0.0010874967 0.0097049977 -3.8154536e-22)
(-0.0015676567 0.011984704 3.9755442e-22)
(-0.0021929115 0.014436154 -3.5043998e-23)
(-0.0029972471 0.017059531 1.0969089e-22)
(-0.0040212194 0.019851471 2.1752448e-24)
(-0.0053128573 0.022804141 3.6737368e-22)
(-0.0069285379 0.025904217 -5.8197901e-22)
(-0.0089337979 0.029131799 -4.8227158e-23)
(-0.011403974 0.032459324 4.7478279e-22)
(-0.014424562 0.035850588 -1.4417557e-22)
(-0.018091158 0.039260025 -9.1329029e-23)
(-0.022508805 0.042632469 5.8282496e-22)
(-0.027790593 0.045903659 -1.8761233e-21)
(-0.03405538 0.04900185 1.1606905e-21)
(-0.041424558 0.051850847 -1.3806561e-21)
(-0.050017984 0.054374781 2.0030145e-21)
(-0.059949376 0.056504702 -4.8100455e-22)
(-0.071321876 0.058186743 -1.9145976e-22)
(-0.084224396 0.059390923 6.3548671e-22)
(-0.098729982 0.060118933 -2.212059e-21)
(-0.11490318 0.060408265 -3.5194303e-22)
(-0.13281707 0.060330241 1.6336017e-21)
(-0.15246681 0.059981742 -1.8499997e-21)
(-0.17395834 0.05945193 2.0527265e-22)
(-0.19742774 0.05879675 2.4972402e-21)
(-0.22288968 0.058078933 -2.2796724e-22)
(-0.250479 0.057340878 -2.1276395e-21)
(-0.28030768 0.056604026 -1.1129083e-22)
(-0.31249269 0.055877023 1.7458525e-21)
(-0.34714857 0.055159803 -2.0388949e-21)
(-0.38437982 0.054446506 1.0226398e-21)
(-0.42427209 0.053726149 -1.1792144e-21)
(-0.4668814 0.052981723 -4.3630457e-21)
(-0.51222001 0.052188534 -1.1498748e-21)
(-0.56023859 0.051312454 -4.8232161e-21)
(-0.61080413 0.050308594 6.5726838e-21)
(-0.66367366 0.049120495 6.942168e-21)
(-0.71846594 0.047679088 1.4736313e-21)
(-0.77463305 0.045899286 -1.1160085e-20)
(-0.83141238 0.043682195 6.2604447e-21)
(-0.88776019 0.040945233 2.4521569e-21)
(-0.94250267 0.037657021 -1.2506096e-21)
(-0.99434316 0.033742694 -4.5397126e-21)
(-1.0415986 0.029016979 2.3823702e-21)
(-1.0822463 0.023388829 -4.6732136e-21)
(-1.1141192 0.016710811 -2.9167371e-20)
(-1.1348311 0.0090612499 -1.3885397e-21)
(-1.1404853 0.00094775373 6.4830873e-21)
(-1.1271335 -0.010445438 -1.4324799e-20)
(-1.0910602 -0.023270328 1.1626583e-20)
(-1.0297149 -0.035795609 -3.0041012e-20)
(-0.93699113 -0.050817344 -7.468556e-21)
(-0.80877823 -0.06676501 1.5365643e-20)
(-0.63844472 -0.082290273 -1.9844892e-21)
(-0.42960778 -0.092597353 -7.8903026e-22)
(-0.1972984 -0.094895758 6.5590051e-23)
(0.035170497 -0.088408393 -1.902359e-21)
(0.24835862 -0.074193466 5.1861176e-21)
(0.42439274 -0.057619262 1.4329121e-21)
(0.57150555 -0.042442697 2.3118431e-21)
(-8.8377384e-05 0.001262661 -1.6915803e-22)
(-0.00029839639 0.0038912099 1.2507414e-22)
(-0.00056258548 0.006769173 3.337111e-23)
(-0.00089623714 0.0099113423 -3.1530615e-23)
(-0.0013136587 0.013331837 1.5362614e-22)
(-0.0018337679 0.017043045 1.1796426e-23)
(-0.002479552 0.021054898 1.4676127e-22)
(-0.0032784657 0.025373892 1.5866506e-22)
(-0.0042632583 0.030001885 -1.2892029e-21)
(-0.0054727725 0.034934678 1.1516049e-21)
(-0.0069527725 0.040160383 -5.5080481e-22)
(-0.008756747 0.045657599 -8.094535e-22)
(-0.01094666 0.051393445 1.6003954e-21)
(-0.013593551 0.057321567 2.0013162e-22)
(-0.016777895 0.063380288 -7.6063921e-22)
(-0.020589585 0.069491174 -5.2238356e-22)
(-0.0251274 0.075558375 6.0156989e-22)
(-0.030497803 0.08146925 -2.1654397e-21)
(-0.036812956 0.087096858 1.2589622e-21)
(-0.044187888 0.092304973 -6.2283856e-22)
(-0.052736881 0.096956178 2.0515252e-21)
(-0.062569381 0.1009233 5.2629037e-22)
(-0.07378601 0.10410385 -1.0709829e-21)
(-0.086475253 0.10643591 1.5979198e-21)
(-0.10071183 0.1079128 6.4814445e-22)
(-0.11656276 0.10859165 -6.9328606e-22)
(-0.13410424 0.1085915 -4.0696862e-21)
(-0.15334473 0.10808269 -1.9119606e-21)
(-0.17438141 0.10723535 8.1762649e-22)
(-0.19734769 0.10613636 -1.0860533e-21)
(-0.22226972 0.10489976 4.9969157e-22)
(-0.24926813 0.10360878 3.6366714e-21)
(-0.27845329 0.1023043 -1.2623648e-21)
(-0.30993384 0.10100312 -4.1342656e-21)
(-0.34381426 0.099704596 1.2385383e-21)
(-0.38018592 0.098396233 2.1338557e-21)
(-0.41911745 0.097055053 -4.1137352e-21)
(-0.46064274 0.095646451 -1.5091299e-21)
(-0.50474555 0.094122263 2.6602006e-21)
(-0.55133984 0.092418747 1.1321154e-21)
(-0.60024626 0.090454184 -6.5017781e-21)
(-0.65116469 0.088128887 1.7261986e-21)
(-0.70364381 0.085325945 3.0957778e-21)
(-0.75705318 0.081903669 9.7600146e-21)
(-0.8105292 0.077701827 -2.0125607e-20)
(-0.86292759 0.072603509 1.4622841e-20)
(-0.91307243 0.066566446 4.4197514e-21)
(-0.95948326 0.059500021 1.7664855e-20)
(-1.0004038 0.051127439 2.2964e-20)
(-1.0337626 0.041321642 1.3333556e-21)
(-1.0572955 0.029893991 -5.9782068e-21)
(-1.0683699 0.016664214 4.2136372e-20)
(-1.063189 0.0016447254 1.82134e-20)
(-1.0385615 -0.016545396 1.8498981e-20)
(-0.9921411 -0.037185831 5.903294e-21)
(-0.9192317 -0.059170429 4.0813183e-20)
(-0.81605119 -0.084264858 -1.4393181e-20)
(-0.67837388 -0.11169496 3.0001212e-21)
(-0.49921813 -0.13890885 1.7337325e-20)
(-0.28319643 -0.1574339 3.3243849e-21)
(-0.046751291 -0.16146546 2.9144654e-22)
(0.18294635 -0.15010161 9.6386547e-21)
(0.38914927 -0.12628669 -4.4225451e-21)
(0.55701599 -0.098950045 -6.7789199e-21)
(0.69278087 -0.072837517 -2.6454622e-21)
(-0.00017468394 0.0017764285 6.051713e-22)
(-0.00056215319 0.0054753184 -9.6319364e-22)
(-0.0010182765 0.0095264098 3.4854373e-22)
(-0.001558076 0.013951386 -3.7824091e-23)
(-0.0021960512 0.018771024 7.5149523e-22)
(-0.0029507641 0.024003871 -7.7685973e-22)
(-0.0038444407 0.029665226 1.1819543e-21)
(-0.0049032855 0.035765781 -5.5386358e-22)
(-0.0061581997 0.042309953 -2.1158637e-21)
(-0.0076454599 0.049293896 5.0658393e-22)
(-0.0094074311 0.056703202 1.9395839e-21)
(-0.011493258 0.064510307 -5.8987502e-22)
(-0.013959519 0.072671664 -3.7476423e-23)
(-0.016870763 0.081124839 1.5486473e-21)
(-0.020299852 0.089785741 -4.8227721e-21)
(-0.024328006 0.098546359 2.9454754e-21)
(-0.029044428 0.10727352 2.8544545e-23)
(-0.034545397 0.11580934 -1.610228e-21)
(-0.040932707 0.12397426 4.0537512e-21)
(-0.048311422 0.13157356 -1.8850043e-21)
(-0.056786972 0.13840833 -2.7795867e-21)
(-0.066461833 0.14429127 -1.1303803e-21)
(-0.077432252 0.1490671 5.4045348e-21)
(-0.089785517 0.15263571 2.8190898e-21)
(-0.10359848 0.15497415 -1.7133642e-21)
(-0.11894199 0.15615103 1.0592562e-21)
(-0.13589604 0.15632653 -3.7460043e-21)
(-0.15449089 0.15573875 1.100513e-21)
(-0.17480779 0.15463493 -2.9343698e-21)
(-0.19697503 0.15314416 1.6309472e-21)
(-0.22104043 0.15143234 -1.1263352e-21)
(-0.24710092 0.14962552 4.0191401e-21)
(-0.27526507 0.1477854 -5.501331e-22)
(-0.30562841 0.14593792 3.4507089e-21)
(-0.33827982 0.1440818 -3.4184802e-21)
(-0.37329043 0.14219703 -1.4117362e-21)
(-0.41070293 0.14024725 1.5881984e-20)
(-0.45051767 0.13817899 4.7464823e-21)
(-0.49267556 0.13591882 -4.1095573e-21)
(-0.53703712 0.13337042 4.4491641e-21)
(-0.58335741 0.13041473 -1.395787e-21)
(-0.6312581 0.12690946 -8.8459501e-21)
(-0.6801974 0.12268797 4.0721269e-22)
(-0.72943916 0.11755296 4.0078566e-21)
(-0.77799406 0.11129121 -1.6492868e-21)
(-0.82462872 0.10377371 1.7729607e-21)
(-0.86818108 0.094968603 4.0166704e-21)
(-0.90702441 0.084713188 -6.0295252e-20)
(-0.9393494 0.07269031 7.1943477e-21)
(-0.96314895 0.05872302 -7.2273638e-21)
(-0.9762208 0.042560088 7.1986247e-20)
(-0.97610711 0.023963155 -4.0741221e-20)
(-0.95956787 0.0027524815 -3.4387821e-20)
(-0.92359239 -0.022354724 -3.2379224e-20)
(-0.8655291 -0.050545258 -2.9807782e-20)
(-0.78171896 -0.080884969 -4.2266992e-20)
(-0.66906545 -0.11539316 7.3266084e-20)
(-0.52346284 -0.15380017 -3.5520842e-20)
(-0.33738801 -0.19227455 -3.4676942e-20)
(-0.11767957 -0.21840274 1.2704486e-20)
(0.11627908 -0.22292427 -2.739119e-23)
(0.3354361 -0.20561808 -2.9803794e-21)
(0.52536387 -0.17213481 1.3837997e-20)
(0.67398774 -0.13407456 1.0533503e-20)
(0.78721198 -0.09772257 -1.693054e-22)
(-0.00028593748 0.0022429381 -4.623469e-22)
(-0.00090221221 0.0069149115 1.5357043e-21)
(-0.0016058612 0.012034008 -1.2525986e-21)
(-0.0024115964 0.01762874 4.7369222e-22)
(-0.0033341956 0.023726585 1.7151861e-22)
(-0.0043918033 0.030352505 -1.4758372e-21)
(-0.0056057082 0.037527673 3.7242012e-22)
(-0.007000555 0.045267809 7.9389195e-22)
(-0.0086049178 0.053581095 6.04547e-23)
(-0.010451823 0.062465703 5.1780183e-22)
(-0.01257931 0.0719069 -7.2640947e-22)
(-0.015030971 0.081873745 5.0389834e-22)
(-0.017856471 0.092315452 1.8621106e-21)
(-0.021111987 0.10315758 5.7021115e-23)
(-0.02486051 0.11429827 -1.412225e-21)
(-0.029171947 0.1256051 -9.9919844e-22)
(-0.034122923 0.1369129 8.5996081e-22)
(-0.039796214 0.14802379 -7.5556699e-23)
(-0.046279714 0.15871011 -1.6403674e-21)
(-0.053664923 0.16872189 -1.9949254e-21)
(-0.062044956 0.17779982 2.2450877e-21)
(-0.071512249 0.18569475 2.2210429e-21)
(-0.082156269 0.19219353 -2.925557e-21)
(-0.09406163 0.19714925 3.5751339e-21)
(-0.10730697 0.20051117 6.1702256e-21)
(-0.12196752 0.20234662 -1.4084076e-20)
(-0.13812708 0.20284527 7.5915331e-21)
(-0.1558435 0.20230318 -1.1299925e-20)
(-0.17517661 0.2010429 1.3969926e-20)
(-0.19625252 0.19924551 -1.5789262e-20)
(-0.21915126 0.19712942 1.6582821e-20)
(-0.2439352 0.19486706 -2.7012348e-21)
(-0.27070966 0.19254399 -1.0349481e-20)
(-0.29955333 0.19019675 6.080278e-21)
(-0.33053481 0.18782362 -1.9593786e-21)
(-0.36369919 0.18539611 -4.950473e-22)
(-0.39905554 0.18286303 -8.4508986e-21)
(-0.43656094 0.18014922 -3.2382875e-21)
(-0.47610283 0.17715379 -3.7837483e-21)
(-0.5174788 0.17374894 -3.6411429e-21)
(-0.5603689 0.16977734 2.0159346e-20)
(-0.60430337 0.16505353 -9.7015143e-21)
(-0.64864272 0.15936311 -2.2403221e-21)
(-0.69254609 0.15245652 2.2193674e-20)
(-0.73490628 0.14407876 1.2905348e-20)
(-0.77448151 0.13411776 -6.6685385e-21)
(-0.81004264 0.12257378 -2.7477402e-20)
(-0.8399777 0.10916098 1.2666954e-20)
(-0.86250716 0.093592425 -4.0286382e-20)
(-0.87581682 0.075664119 -2.3705363e-20)
(-0.87790277 0.055060211 -3.4711313e-20)
(-0.86653674 0.031409092 -9.7519569e-20)
(-0.83882539 0.004376129 7.6544711e-20)
(-0.79178683 -0.027080548 -2.5708387e-20)
(-0.72250703 -0.062369953 4.1243652e-20)
(-0.62804712 -0.10057216 3.6258874e-20)
(-0.50616458 -0.14365416 1.2668339e-20)
(-0.35344213 -0.19251224 8.5545845e-20)
(-0.16158484 -0.24161478 1.4665861e-20)
(0.058443853 -0.27399215 -1.5855018e-20)
(0.2823117 -0.27774862 -1.0782007e-21)
(0.48329369 -0.25347712 -3.155634e-21)
(0.6476308 -0.21014858 -8.3191641e-21)
(0.76775348 -0.16192487 -1.0908748e-20)
(0.85167831 -0.11681819 8.1008003e-22)
(-0.00041641326 0.0026449798 -1.5419609e-21)
(-0.0013011594 0.0081571815 -5.454046e-22)
(-0.002295354 0.014200447 4.3974972e-22)
(-0.0034134139 0.02080995 1.6290569e-21)
(-0.0046704991 0.028019813 -8.9385864e-22)
(-0.0060843384 0.035861641 1.2864809e-21)
(-0.0076752068 0.044363028 -5.5684807e-22)
(-0.0094660171 0.053545663 -1.3290524e-22)
(-0.011482724 0.063422934 7.5133373e-22)
(-0.013754659 0.073997072 1.6202059e-21)
(-0.016314909 0.085255752 8.4377232e-23)
(-0.019200667 0.097168188 -2.6606383e-21)
(-0.022453579 0.10968076 3.6839187e-21)
(-0.026120046 0.12271231 -5.9326261e-21)
(-0.030251451 0.13614945 1.5462649e-21)
(-0.034904283 0.14984222 -3.2880818e-21)
(-0.040140098 0.16360092 3.9465883e-21)
(-0.046025299 0.17719507 -2.5524033e-21)
(-0.05263067 0.19035577 3.9440896e-22)
(-0.060030678 0.20278311 1.5980819e-21)
(-0.068302544 0.21416016 -3.8602118e-21)
(-0.077525176 0.22417513 5.3692711e-21)
(-0.087778145 0.23255158 -5.7616716e-21)
(-0.099140924 0.23908537 -1.0349705e-21)
(-0.11169244 0.24368298 9.4914911e-21)
(-0.12551188 0.24639235 -9.5090082e-21)
(-0.14068591 0.24741414 6.0303493e-21)
(-0.15730336 0.24708393 -6.8318996e-21)
(-0.17540028 0.24579863 -8.7133205e-22)
(-0.19510847 0.24383545 -5.9345779e-22)
(-0.21654701 0.24142663 2.6554065e-21)
(-0.23973291 0.23879528 -3.4770714e-22)
(-0.26476766 0.23606424 1.110836e-20)
(-0.29171091 0.23328392 -2.9368411e-21)
(-0.32060721 0.23045332 -1.01584e-20)
(-0.35147091 0.22753437 4.9132313e-21)
(-0.38427055 0.22445792 -4.2000707e-21)
(-0.41891441 0.22112607 4.9070085e-21)
(-0.45523483 0.2174124 2.9089484e-20)
(-0.49296048 0.21315585 -1.7495187e-20)
(-0.53168832 0.20815958 -4.9164909e-21)
(-0.57085924 0.20219714 3.0478743e-20)
(-0.60974348 0.1950131 -1.0879131e-21)
(-0.64741229 0.18631392 -3.8058625e-21)
(-0.6826717 0.17582082 -5.3913476e-20)
(-0.71435 0.16345883 -1.3677448e-20)
(-0.7411362 0.14924854 2.3751132e-20)
(-0.76153252 0.13282363 2.6091049e-20)
(-0.77389135 0.11393094 4.0372153e-20)
(-0.77663854 0.092341728 5.4244197e-20)
(-0.76799105 0.067665362 3.5446802e-20)
(-0.74591671 0.039389364 5.5610221e-20)
(-0.70768995 0.0069648167 -1.9185979e-20)
(-0.65013767 -0.030588501 1.2116803e-19)
(-0.56992668 -0.072595136 8.6504658e-21)
(-0.46469393 -0.11785687 5.9086746e-21)
(-0.33311012 -0.16844782 3.9564045e-21)
(-0.17302099 -0.22681309 -9.5742867e-20)
(0.023512942 -0.28539003 -2.5872428e-20)
(0.2388863 -0.32211326 2.260382e-20)
(0.44641665 -0.32318774 7.6449026e-21)
(0.62066499 -0.29155067 -3.3557494e-21)
(0.75150669 -0.23875186 -2.6023972e-21)
(0.83760185 -0.18164485 1.2706463e-20)
(0.89099603 -0.13007969 -3.0079227e-21)
(-0.00055846432 0.002967094 3.1976269e-22)
(-0.0017359401 0.0091545311 1.0168153e-21)
(-0.0030469016 0.01594309 -2.4549509e-21)
(-0.0045058254 0.023374217 9.0386108e-23)
(-0.0061282592 0.031488523 1.1954402e-21)
(-0.0079316 0.040324372 5.2763975e-22)
(-0.009935144 0.049916268 3.899277e-22)
(-0.012160064 0.06029282 -7.6814738e-22)
(-0.014629622 0.071474159 3.9791808e-21)
(-0.017369304 0.083468812 -2.9993138e-21)
(-0.020406985 0.096269949 1.4685152e-22)
(-0.023773064 0.109851 1.8172309e-21)
(-0.027500603 0.12416064 -6.7893039e-21)
(-0.031625443 0.13911735 6.7597556e-21)
(-0.036186309 0.15460365 -8.9245103e-22)
(-0.041224895 0.17046066 -5.5484362e-21)
(-0.046785931 0.18648353 5.1937314e-21)
(-0.052917249 0.20241895 -1.7924212e-21)
(-0.059669857 0.21796612 3.4814097e-21)
(-0.067098044 0.23278312 -4.4291538e-21)
(-0.075259575 0.24650068 -8.2331213e-21)
(-0.084215988 0.25874535 8.027857e-21)
(-0.094033067 0.26917289 1.1656896e-20)
(-0.1047815 0.27751083 -2.2086625e-20)
(-0.11653752 0.28360519 1.7416036e-20)
(-0.12938318 0.28746172 -9.9827825e-21)
(-0.14340892 0.28926719 2.4727835e-21)
(-0.15872066 0.28937532 -5.9182323e-21)
(-0.17537401 0.28825001 5.7807806e-21)
(-0.19347766 0.28630356 8.1332213e-21)
(-0.21316352 0.28375125 -5.2722004e-21)
(-0.23446005 0.28086688 -9.5062164e-21)
(-0.25743186 0.27782874 7.0358323e-22)
(-0.2821263 0.27470485 2.6079645e-22)
(-0.30855943 0.27149733 6.7819299e-21)
(-0.33671013 0.26815689 -3.2289766e-21)
(-0.36650428 0.26459622 -1.2545959e-20)
(-0.39780377 0.26069733 -7.1500388e-21)
(-0.43038141 0.25630514 1.1423001e-20)
(-0.46389369 0.2512222 -9.2502736e-21)
(-0.49786009 0.24521597 9.2653654e-21)
(-0.53164247 0.2380254 -2.4971994e-21)
(-0.56443765 0.2293598 -1.3798408e-20)
(-0.59525172 0.21889614 3.6801793e-20)
(-0.62284516 0.20636354 2.356927e-20)
(-0.6461802 0.19170667 1.7061073e-20)
(-0.66389381 0.17496911 -6.1188306e-20)
(-0.67463538 0.15576243 -4.275453e-20)
(-0.67694717 0.13385615 -5.421807e-20)
(-0.66948933 0.10899391 -1.0149193e-19)
(-0.65066398 0.08068124 3.8327911e-20)
(-0.6185635 0.048220057 -7.8084538e-21)
(-0.57051677 0.010784282 -6.607175e-20)
(-0.50300749 -0.032668872 -1.9331097e-19)
(-0.41225821 -0.081260446 -1.2234039e-19)
(-0.29627945 -0.13317932 -4.3777717e-20)
(-0.15461342 -0.1902938 -1.1027121e-19)
(0.013681876 -0.25668159 6.2603955e-20)
(0.21268016 -0.32280356 -6.3072117e-21)
(0.41849201 -0.36145687 -3.8718757e-20)
(0.60266854 -0.35870648 -7.509744e-21)
(0.74210919 -0.31880776 9.6317753e-22)
(0.83434941 -0.25768673 -1.1906188e-20)
(0.88546365 -0.19390434 -1.6453335e-22)
(0.91214144 -0.13850658 -1.4066054e-21)
(-0.00070292525 0.0031964856 1.383361e-21)
(-0.0021786825 0.0098673705 -9.3341555e-22)
(-0.0038123665 0.017192953 1.2611047e-21)
(-0.0056190216 0.02522033 7.1717554e-22)
(-0.0076145524 0.033996266 -2.0008537e-21)
(-0.0098161708 0.043565823 -1.8686727e-21)
(-0.012242341 0.053970742 1.9168237e-21)
(-0.014912656 0.065247379 -2.3168317e-22)
(-0.017847847 0.077424059 -5.3564876e-23)
(-0.02106972 0.09051784 -3.7981136e-21)
(-0.024601093 0.10453056 4.1296403e-22)
(-0.028465694 0.11944414 7.648149e-21)
(-0.032688056 0.13521513 -6.1113405e-21)
(-0.037293415 0.15176859 2.0835302e-22)
(-0.04230762 0.16899143 4.0822883e-21)
(-0.047757111 0.18672573 3.4807111e-22)
(-0.05366899 0.20476265 -8.8468448e-22)
(-0.060071265 0.22283802 -3.9639496e-21)
(-0.066993337 0.24063122 7.2267254e-21)
(-0.074466822 0.25776938 -1.2621467e-20)
(-0.082526791 0.27383941 2.6775415e-21)
(-0.091213476 0.28841041 -1.9684498e-21)
(-0.1005744 0.30106825 1.5482795e-21)
(-0.11066677 0.3114622 -1.0397369e-22)
(-0.12155968 0.31935933 9.1345167e-21)
(-0.13333526 0.32469732 8.9472355e-21)
(-0.14608848 0.32761947 -1.7520423e-20)
(-0.15992929 0.32847297 -2.9443261e-21)
(-0.17496341 0.32775965 9.866911e-21)
(-0.19125053 0.32600531 3.4544069e-21)
(-0.208923 0.32351948 8.5159677e-21)
(-0.22807431 0.32054787 -9.4432606e-21)
(-0.24870045 0.317333 -4.3776485e-21)
(-0.27084107 0.31398017 1.0288309e-20)
(-0.29447953 0.31049753 -4.4196982e-21)
(-0.31955987 0.30682742 -3.0794353e-21)
(-0.34596898 0.3028679 6.6693256e-21)
(-0.37352035 0.29847812 2.0137937e-20)
(-0.40192606 0.29347081 7.1255753e-21)
(-0.43077743 0.28761619 -4.6322747e-21)
(-0.4595274 0.28064997 -1.2317018e-20)
(-0.48747557 0.27228239 -1.4486482e-20)
(-0.51376662 0.26219562 -1.7660804e-20)
(-0.53735897 0.25004759 -4.0317136e-20)
(-0.5570363 0.23558742 1.9438025e-21)
(-0.57184721 0.21883038 -1.9245274e-20)
(-0.58050855 0.19977996 1.2589151e-19)
(-0.58175644 0.17808207 3.8035523e-20)
(-0.57434741 0.1535292 4.5823035e-20)
(-0.557101 0.12582665 1.371937e-19)
(-0.52851485 0.094354286 -1.7117998e-19)
(-0.48670768 0.058200844 3.9859496e-20)
(-0.42897543 0.016208804 1.3136956e-19)
(-0.35138889 -0.032823487 1.6007013e-19)
(-0.25004665 -0.087802275 1.8570051e-20)
(-0.12349399 -0.14604933 -4.6716624e-20)
(0.027019982 -0.2091497 -6.5281137e-20)
(0.20272841 -0.28191475 2.4517677e-20)
(0.4008476 -0.35279653 -3.0320071e-20)
(0.59144634 -0.3907925 1.0507938e-20)
(0.74493791 -0.38166912 1.999688e-21)
(0.84405772 -0.33468127 3.6974862e-22)
(0.89617476 -0.26743281 1.295526e-20)
(0.91571484 -0.19986248 -1.550241e-21)
(0.92263256 -0.14326909 6.8958291e-21)
(-0.00083970643 0.0033240491 -1.4148556e-21)
(-0.0025981713 0.010267433 -3.7915775e-22)
(-0.0045380082 0.017900423 4.1634795e-22)
(-0.0066749078 0.026274986 2.0467638e-21)
(-0.0090252536 0.035443443 -2.4544945e-21)
(-0.011606245 0.045457232 2.083511e-21)
(-0.014435747 0.056365385 9.9610211e-22)
(-0.017532079 0.068212543 -5.3191852e-23)
(-0.020913828 0.081036401 -8.3914734e-22)
(-0.024599598 0.094864512 -4.7696843e-21)
(-0.02860771 0.10971033 7.9975663e-21)
(-0.032955869 0.1255684 -9.5925666e-21)
(-0.037660795 0.1424087 2.8086381e-21)
(-0.042737854 0.16016998 3.803684e-21)
(-0.048200734 0.17875244 -5.8091936e-21)
(-0.054061205 0.19800985 1.1395918e-20)
(-0.060329083 0.21774185 -1.3735477e-20)
(-0.06701248 0.23768739 -2.209387e-22)
(-0.074118514 0.25752078 -7.7513603e-21)
(-0.081654627 0.27685272 3.040927e-20)
(-0.089630688 0.29523898 -7.267126e-21)
(-0.098061972 0.31219995 -2.9770816e-20)
(-0.10697298 0.32725396 1.38256e-20)
(-0.11640181 0.33996551 1.630063e-20)
(-0.12640437 0.35000579 -3.9970356e-21)
(-0.13705729 0.35721682 -2.0959714e-20)
(-0.14845773 0.36166314 3.113513e-20)
(-0.16071993 0.36364837 -3.4267556e-20)
(-0.17396922 0.36367618 2.6742106e-20)
(-0.18829228 0.36234396 -5.0679535e-21)
(-0.2037749 0.36014137 9.0434148e-21)
(-0.22052867 0.35731703 1.3283439e-20)
(-0.23857746 0.35409562 -4.8078069e-21)
(-0.25790524 0.3506502 -1.0077208e-21)
(-0.27847668 0.34701733 -2.0972637e-20)
(-0.30019755 0.34313683 3.7118375e-21)
(-0.32291724 0.33889138 -1.1729818e-20)
(-0.34640023 0.33411372 1.1558072e-20)
(-0.37030368 0.32858668 -5.9118255e-21)
(-0.39416374 0.32205135 -5.0968132e-21)
(-0.41737971 0.31421644 -5.049876e-21)
(-0.43920587 0.30476908 -4.8970824e-21)
(-0.45875436 0.29337031 3.4006846e-20)
(-0.47494955 0.27966622 3.0939451e-20)
(-0.48670122 0.26345434 -8.2923811e-21)
(-0.49301149 0.24483744 7.1738525e-21)
(-0.49278006 0.22373284 -2.7809345e-20)
(-0.48478845 0.19987263 6.3671432e-20)
(-0.46796522 0.17305954 8.0246191e-20)
(-0.44117327 0.14294789 2.5498855e-20)
(-0.40289425 0.10879133 6.7700724e-20)
(-0.3511827 0.069470138 -2.2902384e-21)
(-0.28323043 0.023409997 -3.4198149e-20)
(-0.19475839 -0.03078164 -1.7157057e-19)
(-0.082183677 -0.091593801 8.2406396e-20)
(0.05370549 -0.15549318 -3.1968385e-20)
(0.21043356 -0.22410082 7.3948166e-20)
(0.39076978 -0.30185714 -1.0011942e-19)
(0.58387249 -0.37469554 3.9311991e-20)
(0.75244984 -0.40944851 -8.2162957e-21)
(0.86803182 -0.39383823 9.8715751e-22)
(0.92426722 -0.33994673 1.0813241e-21)
(0.9392802 -0.26927298 9.3456266e-22)
(0.93416057 -0.20110847 -8.7488202e-21)
(0.92905814 -0.14549527 8.7133182e-21)
(-0.00095825937 0.0033452584 3.4108259e-21)
(-0.0029620809 0.010340373 2.3466706e-21)
(-0.0051679232 0.018039866 -3.6837255e-21)
(-0.0075921514 0.026499549 9.694483e-23)
(-0.010251722 0.035776411 3.3295753e-21)
(-0.013164002 0.045927609 1.740831e-21)
(-0.016346545 0.057009135 -3.6676583e-21)
(-0.019816808 0.069074017 6.0235233e-22)
(-0.023591801 0.082169999 -8.4873327e-21)
(-0.027687655 0.096336555 1.6529143e-21)
(-0.032119125 0.11160113 4.329541e-23)
(-0.036899017 0.12797446 -6.0747082e-21)
(-0.042037565 0.14544492 1.9436544e-20)
(-0.047541782 0.16397167 -9.0432146e-21)
(-0.053414829 0.18347686 -1.6168887e-20)
(-0.059655503 0.2038368 1.71836e-20)
(-0.066257924 0.22487278 -2.1219271e-21)
(-0.073211616 0.24634213 1.192545e-20)
(-0.080502172 0.26793123 8.8043381e-21)
(-0.088112757 0.28925232 -2.7522663e-20)
(-0.096026731 0.3098474 2.0484675e-20)
(-0.1042316 0.32920274 -2.674512e-20)
(-0.11272433 0.34677797 3.087528e-21)
(-0.12151778 0.36205263 -1.2587752e-20)
(-0.1306473 0.37458966 2.6941393e-20)
(-0.14017613 0.38410938 -6.3398301e-21)
(-0.15019709 0.39055867 -1.5887984e-20)
(-0.16082809 0.39415127 3.7827412e-20)
(-0.17220096 0.39535171 -1.6118062e-20)
(-0.18443871 0.39478621 -1.7615871e-20)
(-0.19761987 0.39307335 1.4458815e-20)
(-0.21181108 0.39061709 2.1542674e-21)
(-0.22707589 0.3876403 -1.0190511e-20)
(-0.24339264 0.38430032 5.731202e-21)
(-0.26067792 0.38067195 -9.41645e-21)
(-0.2788178 0.3767214 3.4541215e-20)
(-0.29762101 0.37232299 -1.9668954e-20)
(-0.31680398 0.36728421 -1.2911504e-20)
(-0.33597534 0.3613622 -2.9243724e-20)
(-0.35462502 0.35427273 -5.5206053e-21)
(-0.37211131 0.34570076 3.4583714e-20)
(-0.38765735 0.33531526 -1.4930018e-20)
(-0.40036047 0.32276442 -2.3726019e-20)
(-0.40913773 0.30770498 -2.7627781e-21)
(-0.41303635 0.28996599 3.0545482e-20)
(-0.41100977 0.26971609 2.9070818e-20)
(-0.40208588 0.24685585 -9.6597084e-20)
(-0.38509066 0.22116526 -5.5336973e-20)
(-0.35903493 0.19246245 -1.2954347e-19)
(-0.32272604 0.16033996 -4.822056e-20)
(-0.27452517 0.12394358 -1.9891809e-20)
(-0.21239015 0.08193735 -1.5645784e-19)
(-0.13335169 0.032390421 -6.2775445e-20)
(-0.033256344 -0.026345773 2.1041415e-19)
(0.090513727 -0.09201719 -1.5853623e-19)
(0.23275721 -0.16063062 1.3051983e-19)
(0.39337369 -0.23424316 -5.4766655e-20)
(0.57494032 -0.31569922 2.0805775e-19)
(0.7568549 -0.38795598 7.3254308e-20)
(0.89579263 -0.41616717 -1.787708e-20)
(0.96865219 -0.39358177 -1.2837149e-20)
(0.98312772 -0.3358684 -8.1191398e-21)
(0.96794815 -0.26509367 -2.579114e-21)
(0.94655911 -0.19909854 1.2174635e-21)
(0.93584438 -0.14598787 -1.0536623e-20)
(-0.001048529 0.0032609805 6.5913338e-23)
(-0.0032395301 0.01008829 -4.6991844e-21)
(-0.0056485991 0.017613996 5.5384517e-21)
(-0.0082927321 0.025896475 2.6638369e-21)
(-0.01118949 0.034996188 -5.3348686e-21)
(-0.014356552 0.044974973 -1.7268633e-21)
(-0.017811448 0.055894969 8.3709356e-21)
(-0.02157123 0.067817122 -9.0021544e-21)
(-0.025651988 0.080799212 -1.8967837e-21)
(-0.030068289 0.094893257 -7.5364728e-21)
(-0.0348325 0.11014214 1.9991372e-20)
(-0.039954024 0.12657532 2.390498e-22)
(-0.045438435 0.14420342 -1.7877275e-20)
(-0.051286549 0.16301163 1.9138262e-20)
(-0.057493485 0.18295163 -1.3650142e-20)
(-0.064047785 0.20393234 -5.0390591e-21)
(-0.07093073 0.22580943 1.0477129e-20)
(-0.078116033 0.24837435 -9.3875339e-21)
(-0.085570179 0.27134405 -1.2426945e-20)
(-0.093253729 0.29435326 2.6405114e-22)
(-0.10112399 0.3169524 1.925539e-20)
(-0.10913943 0.33861502 -1.1810325e-20)
(-0.11726597 0.35875939 6.5294005e-21)
(-0.12548526 0.37678935 3.1007366e-20)
(-0.1338039 0.39215627 1.0351765e-20)
(-0.14226199 0.40443887 -2.7518926e-20)
(-0.15093808 0.41342867 2.743375e-21)
(-0.15994683 0.41919717 -3.0524681e-20)
(-0.16942625 0.42211272 1.776433e-20)
(-0.17951462 0.42277826 -9.5649201e-21)
(-0.19031578 0.42188345 1.3833515e-20)
(-0.20189234 0.42000422 3.5517088e-21)
(-0.21426122 0.41747584 -1.7705595e-20)
(-0.22740507 0.41446207 1.8708026e-20)
(-0.24125686 0.41105175 3.0084958e-20)
(-0.25566244 0.40722291 -1.4973976e-21)
(-0.27039124 0.40284442 -3.5489484e-20)
(-0.28511954 0.39770899 4.8566054e-20)
(-0.2994164 0.39155007 -1.0746091e-20)
(-0.31273318 0.38406546 2.5879854e-20)
(-0.32439896 0.37492297 -4.838342e-21)
(-0.3336181 0.36377854 4.7789879e-20)
(-0.33947877 0.35027692 2.4611501e-20)
(-0.34093724 0.33408564 3.6083559e-20)
(-0.33709428 0.31508233 -1.5918299e-19)
(-0.32692757 0.29345717 -5.9016769e-20)
(-0.30950265 0.26913762 8.2805748e-20)
(-0.28368262 0.24193504 -7.311473e-20)
(-0.24846676 0.21167554 -6.6735907e-20)
(-0.20253654 0.17787533 7.9675573e-20)
(-0.1440777 0.13959563 4.4203487e-20)
(-0.070983253 0.095381655 1.0903453e-19)
(0.019573598 0.042864151 5.3788824e-20)
(0.13179836 -0.019578514 -1.7873563e-19)
(0.2642642 -0.088763347 -9.4112824e-20)
(0.41026234 -0.16105751 -1.4596916e-20)
(0.57230621 -0.23920655 -5.1528657e-22)
(0.75118075 -0.32269446 -5.01727e-20)
(0.9144838 -0.39064899 5.1591387e-20)
(1.0166425 -0.41255222 3.9484977e-20)
(1.0451476 -0.38396853 5.061084e-21)
(1.0233922 -0.32473529 2.1579327e-20)
(0.98711825 -0.25668645 2.2786242e-21)
(0.95729946 -0.1949623 4.1791873e-23)
(0.94504293 -0.14524045 4.6234269e-22)
(-0.0011019211 0.0030779246 -2.3686275e-21)
(-0.0034040423 0.0095311769 -2.0972983e-21)
(-0.005934032 0.016656477 4.3594361e-21)
(-0.008709377 0.02451326 -7.4680092e-21)
(-0.011748177 0.033163954 -1.8666332e-21)
(-0.015068491 0.042673631 7.9995901e-21)
(-0.018688046 0.053109243 -4.0936503e-23)
(-0.022623909 0.064538507 4.774313e-21)
(-0.02689191 0.0770284 -1.4244228e-21)
(-0.031505996 0.090643075 2.963688e-23)
(-0.036477439 0.10544108 -7.720241e-21)
(-0.04181392 0.12147164 -1.7668781e-21)