/*--------------------------------*- C++ -*----------------------------------*\
  =========                 |
  \\      /  F ield         | OpenFOAM: The Open Source CFD Toolbox
   \\    /   O peration     | Website:  https://openfoam.org
    \\  /    A nd           | Version:  13
     \\/     M anipulation  |
\*---------------------------------------------------------------------------*/
FoamFile
{
    format      ascii;
    class       volScalarField;
    location    "35.69877";
    object      yPlus;
}
// * * * * * * * * * * * * * * * * * * * * * * * * * * * * * * * * * * * * * //

dimensions      [];

internalField   uniform 0;

boundaryField
{
    inlet
    {
        type            calculated;
        value           uniform 0;
    }
    outlet
    {
        type            calculated;
        value           uniform 0;
    }
    cylinder
    {
        type            calculated;
        value           nonuniform List<scalar> 
132
(
1.8705049e-07
1.8657094e-07
1.8546739e-07
1.8367571e-07
1.8115985e-07
1.7793014e-07
1.74003e-07
1.6938882e-07
1.6411024e-07
1.5820376e-07
1.5171996e-07
1.4472341e-07
1.3729256e-07
1.2951923e-07
1.215076e-07
1.1337199e-07
1.0523516e-07
9.7223347e-08
8.9462369e-08
8.2072567e-08
7.5152116e-08
6.8766176e-08
6.2918811e-08
5.752853e-08
5.2409879e-08
4.7281119e-08
4.1829725e-08
3.5829342e-08
2.9281692e-08
2.2498378e-08
1.6048952e-08
1.0591171e-08
6.6975103e-09
4.7502224e-09
4.6657209e-09
5.5412461e-09
6.8789745e-09
8.5889012e-09
1.0696066e-08
1.3254649e-08
1.6388877e-08
2.0210554e-08
2.4400067e-08
2.8891108e-08
3.3557565e-08
3.8281128e-08
4.2960287e-08
4.7519907e-08
5.190334e-08
5.6076438e-08
6.0013895e-08
6.3707965e-08
6.7141019e-08
7.0293986e-08
7.3224223e-08
7.5898811e-08
7.8312389e-08
8.0478908e-08
8.2404566e-08
8.4095949e-08
8.5559643e-08
8.6768365e-08
8.7750145e-08
8.8485217e-08
8.8993953e-08
8.9266328e-08
1.8688268e-07
1.8603451e-07
1.8454444e-07
1.8237579e-07
1.795146e-07
1.7595718e-07
1.7170967e-07
1.6678887e-07
1.6122328e-07
1.5505357e-07
1.4833369e-07
1.4113071e-07
1.3352514e-07
1.2560913e-07
1.1748566e-07
1.0926861e-07
1.0107884e-07
9.3045817e-08
8.5298172e-08
7.795665e-08
7.1123389e-08
6.486424e-08
5.9181421e-08
5.3979408e-08
4.9042717e-08
4.4055792e-08
3.8681415e-08
3.2713694e-08
2.6236968e-08
1.9668589e-08
1.3645971e-08
8.8120457e-09
5.6814637e-09
4.5433445e-09
4.9257364e-09
6.0001214e-09
7.468322e-09
9.3104887e-09
1.1561711e-08
1.4276687e-08
1.75709e-08
2.1546341e-08
2.5856192e-08
3.0430563e-08
3.5137483e-08
3.9866917e-08
4.4525455e-08
4.9039252e-08
5.3363249e-08
5.7464638e-08
6.1322627e-08
6.493062e-08
6.8272827e-08
7.1335357e-08
7.4193684e-08
7.6773591e-08
7.9103225e-08
8.118316e-08
8.3031448e-08
8.4640826e-08
8.6016171e-08
8.714397e-08
8.8039353e-08
8.8688191e-08
8.9110456e-08
8.9301158e-08
)
;
    }
    frontAndBack
    {
        type            empty;
    }
}


// ************************************************************************* //
