/*--------------------------------*- C++ -*----------------------------------*\
  =========                 |
  \\      /  F ield         | OpenFOAM: The Open Source CFD Toolbox
   \\    /   O peration     | Website:  https://openfoam.org
    \\  /    A nd           | Version:  13
     \\/     M anipulation  |
\*---------------------------------------------------------------------------*/
FoamFile
{
    format      ascii;
    class       volSymmTensorField;
    location    "16.297564";
    object      UPrime2Mean;
}
// * * * * * * * * * * * * * * * * * * * * * * * * * * * * * * * * * * * * * //

dimensions      [0 2 -2 0 0 0 0];

internalField   nonuniform List<symmTensor> 
17140
(
(3.5208311e-12 -2.1483185e-10 -2.434886e-27 1.3674313e-08 3.6741425e-26 1.3141743e-40)
(2.2931117e-10 -4.351057e-09 -1.3676407e-27 1.2987534e-07 8.1648612e-27 1.1676451e-42)
(1.8349255e-09 -1.9635845e-08 2.3847404e-25 3.9326869e-07 -8.5922464e-25 5.0902841e-39)
(8.2175195e-09 -5.7956402e-08 -5.3032048e-25 8.4389938e-07 1.3223338e-24 6.1518907e-39)
(2.6753149e-08 -1.3642421e-07 1.0898985e-25 1.5288756e-06 -2.0316969e-25 8.4075509e-41)
(7.20514e-08 -2.8016994e-07 -5.7613729e-25 2.5027566e-06 8.4157481e-25 9.0055906e-40)
(1.7103847e-07 -5.2482641e-07 -1.4824064e-24 3.8276336e-06 1.7454903e-24 2.5525414e-39)
(3.7085173e-07 -9.1962812e-07 1.063327e-24 5.5727303e-06 -1.0283292e-24 6.0838967e-40)
(7.5089194e-07 -1.5311231e-06 4.9652609e-24 7.81327e-06 -3.9978301e-24 6.5181303e-39)
(1.4407688e-06 -2.4473348e-06 1.6978657e-23 1.0628361e-05 -1.1496321e-23 3.9213912e-38)
(2.6463841e-06 -3.7820996e-06 -3.4459779e-23 1.4097591e-05 1.977319e-23 8.6227833e-38)
(4.6869568e-06 -5.6791545e-06 4.1406919e-23 1.8296023e-05 -2.0256101e-23 6.8483849e-38)
(8.0462832e-06 -8.31526e-06 8.4391333e-24 2.3287362e-05 -3.5368248e-24 1.6044289e-39)
(1.3441712e-05 -1.1901342e-05 -6.2862797e-23 2.911516e-05 2.2651333e-23 5.1321096e-38)
(2.1914114e-05 -1.6680355e-05 9.1084553e-24 3.5792273e-05 -2.8303688e-24 6.3264732e-40)
(3.4941184e-05 -2.2920381e-05 -9.3371766e-23 4.328912e-05 2.50736e-23 3.9695615e-38)
(5.4574442e-05 -3.0901605e-05 4.4613835e-24 5.1522007e-05 -1.0363193e-24 5.4978142e-41)
(8.35976e-05 -4.0896536e-05 -1.2759739e-24 6.0343489e-05 2.575752e-25 2.752668e-42)
(0.00012570028 -5.3144219e-05 -1.143898e-22 6.9537542e-05 1.9960081e-23 1.3845642e-38)
(0.00018565973 -6.7821652e-05 1.8626094e-22 7.8822787e-05 -2.8161751e-23 2.321452e-38)
(0.00026952481 -8.5018836e-05 -1.1177057e-22 8.7866993e-05 1.4639586e-23 5.3607932e-39)
(0.00038480498 -0.00010472684 2.6335163e-23 9.6314831e-05 -2.9833896e-24 1.9403544e-40)
(0.00054068692 -0.00012684885 2.3761629e-22 0.00010382812 -2.3278838e-23 1.0444125e-38)
(0.00074835281 -0.00015124395 -2.8727891e-22 0.00011013378 2.4306259e-23 1.0272591e-38)
(0.0010215997 -0.00017781343 -5.4914679e-22 0.00011506988 4.0061248e-23 2.5716879e-38)
(0.0013773318 -0.00020657212 5.2475621e-22 0.00011861849 -3.2961638e-23 1.6393422e-38)
(0.0018358648 -0.0002375453 3.0372219e-21 0.00012091257 -1.6414738e-22 3.9035785e-37)
(0.0024250186 -0.00027109997 4.1808203e-22 0.00012217947 -1.9423096e-23 5.3521311e-39)
(0.0031813772 -0.00030795173 -4.24992e-21 0.00012266126 1.6925534e-22 4.0816823e-37)
(0.004146639 -0.00034809096 -1.1437169e-21 0.00012259303 3.8984972e-23 2.2135141e-38)
(0.0053763448 -0.00039190321 -4.6667061e-21 0.00012216332 1.354999e-22 2.8042188e-37)
(0.0069430793 -0.00044008151 6.984454e-21 0.00012149135 -1.7174878e-22 4.8467034e-37)
(0.0089339399 -0.00049257083 -2.0599206e-21 0.00012064787 4.2606532e-23 3.2903038e-38)
(0.011456461 -0.00054923645 -1.1083605e-21 0.0001196473 1.9067404e-23 7.5292471e-39)
(0.014640402 -0.0006095337 -1.2226881e-20 0.00011847067 1.7288111e-22 7.3067933e-37)
(0.018639918 -0.00067251235 5.9915865e-21 0.00011707685 -6.8343039e-23 1.4156473e-37)
(0.023634507 -0.00073666875 -1.0043375e-20 0.0001154087 9.0452322e-23 3.236804e-37)
(0.029827888 -0.00079977287 -7.5230438e-21 0.00011340138 5.1704774e-23 1.4931526e-37)
(0.037443804 -0.00085879796 -3.7932106e-21 0.00011099438 1.8900365e-23 3.1511539e-38)
(0.046716767 -0.00090959717 1.2580288e-20 0.00010814713 -4.1388381e-23 2.9099204e-37)
(0.057877083 -0.00094708739 2.5835299e-20 0.00010486959 -4.6236011e-23 1.0399267e-36)
(0.071130002 -0.00096502668 2.5341676e-20 0.00010124325 -1.1168925e-23 8.5718699e-37)
(0.086630331 -0.00095705416 1.1876398e-20 9.7480851e-05 9.2967513e-24 1.6315298e-37)
(0.1044633 -0.00091741911 -6.1643294e-20 9.3938368e-05 -1.1648062e-22 3.8490876e-36)
(0.12464895 -0.00084291941 -4.768806e-20 9.1107259e-05 -1.3933989e-22 2.0446264e-36)
(0.14715192 -0.00073599601 1.229638e-20 8.9541175e-05 4.7810106e-23 1.2237606e-37)
(0.17196456 -0.00060253783 -8.6989944e-20 8.969079e-05 -4.1692737e-22 5.5921409e-36)
(0.19916858 -0.00044535218 -3.0480377e-20 9.1694668e-05 -1.7217379e-22 6.3652494e-37)
(0.22877299 -0.00026533827 3.1751962e-20 9.5217785e-05 2.0535745e-22 6.5100802e-37)
(0.26097084 -6.0117843e-05 7.8757709e-20 9.9287168e-05 5.7045555e-22 3.8386294e-36)
(0.29550399 0.00017695106 -4.8684769e-20 0.0001029589 -3.8816949e-22 1.4311719e-36)
(0.33158224 0.00045774839 -3.0559348e-20 0.0001064628 -2.6467788e-22 5.6046307e-37)
(0.36763909 0.00080093479 7.8412329e-20 0.00010971678 7.3552161e-22 3.7439275e-36)
(0.40170594 0.0012141846 3.606698e-20 0.00011063234 3.6587888e-22 8.2153103e-37)
(0.43110419 0.0016688846 2.469917e-20 0.00010868679 2.7074692e-22 4.1011374e-37)
(0.45304914 0.0021109436 -1.8419834e-20 0.00010702804 -2.1775e-22 2.4900289e-37)
(0.46425832 0.0024719362 4.625627e-20 0.00010772204 5.879187e-22 1.7839911e-36)
(0.46067267 0.0026631043 3.5354941e-20 0.00011242923 4.8228764e-22 1.2266744e-36)
(0.43823539 0.0025891912 7.9048805e-21 0.0001229297 1.153137e-22 7.5989123e-38)
(0.39404389 0.0022310214 -1.7789128e-20 0.00013861876 -2.7645261e-22 4.9946347e-37)
(0.32913069 0.0017528567 -1.1707971e-20 0.00015124872 -1.9634733e-22 3.0346933e-37)
(0.25204335 0.0014785601 -3.5330042e-20 0.0001430556 -6.5717847e-22 4.129551e-36)
(0.1758872 0.0013653683 -4.1024697e-21 0.00011345425 -8.7075445e-23 8.8495484e-38)
(0.1157936 0.0013521904 2.68766e-20 7.6099182e-05 6.613959e-22 6.2499355e-36)
(0.070514152 0.0012867643 -1.564397e-20 5.0278521e-05 -4.8086799e-22 3.7352349e-36)
(1.502796e-10 -3.5410679e-09 3.5731601e-27 8.347032e-08 -7.2770435e-26 1.0642636e-41)
(2.2390071e-09 -4.191651e-08 -1.2778772e-24 7.8948551e-07 2.0297866e-23 1.4010802e-37)
(9.6439377e-09 -1.5049095e-07 2.2634019e-24 2.3825221e-06 -2.9211348e-23 1.109504e-37)
(2.9094378e-08 -3.8037114e-07 -1.0518496e-24 5.0927511e-06 1.1215366e-23 8.2458322e-39)
(7.2581572e-08 -8.0304904e-07 -3.4106414e-24 9.1841938e-06 3.0553298e-23 3.5188424e-38)
(1.6119188e-07 -1.520265e-06 9.7170959e-24 1.4953481e-05 -7.4048394e-23 1.2847808e-37)
(3.306158e-07 -2.6728539e-06 -1.4577317e-23 2.2725987e-05 9.5281041e-23 1.3960784e-37)
(6.3949514e-07 -4.4515413e-06 1.7986646e-24 3.2848216e-05 -1.0143221e-23 1.0813371e-39)
(1.181906e-06 -7.1096691e-06 -7.7155108e-24 4.5674988e-05 3.7705681e-23 1.0539504e-38)
(2.1056011e-06 -1.0977137e-05 -1.7649208e-25 6.1550208e-05 7.5018512e-25 3.0109498e-42)
(3.638122e-06 -1.6474531e-05 -4.6479271e-23 8.0780026e-05 1.7224177e-22 1.1746415e-37)
(6.1234098e-06 -2.4125823e-05 9.7482972e-23 0.00010359762 -3.1571303e-22 2.9650951e-37)
(1.0071964e-05 -3.4567129e-05 1.0529129e-23 0.00013011994 -2.9854721e-23 2.0219209e-39)
(1.6227825e-05 -4.8548102e-05 -1.3478812e-22 0.00016029811 3.3506188e-22 1.9682005e-37)
(2.5655415e-05 -6.6921698e-05 5.329381e-23 0.000193866 -1.1626166e-22 1.8540352e-38)
(3.9848536e-05 -9.0618079e-05 4.3273105e-23 0.00023029436 -8.2900737e-23 7.4605481e-39)
(6.0861961e-05 -0.00012059923 -3.4869732e-22 0.00026876161 5.8683898e-22 2.9923971e-37)
(9.1463876e-05 -0.00015779432 1.4335236e-21 0.00030815584 -2.1194543e-21 3.1613486e-36)
(0.00013530425 -0.00020302157 -1.1252238e-21 0.00034712335 1.4612152e-21 1.2318383e-36)
(0.00019709306 -0.0002569116 1.6785803e-21 0.00038417604 -1.9137417e-21 1.7546175e-36)
(0.00028278438 -0.00031985805 -3.0654808e-21 0.00041786031 3.0664493e-21 3.7939855e-36)
(0.00039977115 -0.00039202964 9.2205311e-22 0.00044697237 -8.0868816e-22 2.2561642e-37)
(0.00055711076 -0.00047347556 4.6237766e-22 0.00047078183 -3.5529357e-22 3.7850633e-38)
(0.0007658526 -0.00056434644 -1.8245019e-21 0.00048920278 1.2275419e-21 3.9928576e-37)
(0.0010396584 -0.00066523767 7.8516136e-21 0.00050284748 -4.6232731e-21 5.0973746e-36)
(0.0013953592 -0.00077743535 1.3901175e-21 0.00051292472 -7.1630052e-22 1.1200311e-37)
(0.001853105 -0.00090276044 -8.4719524e-21 0.00052094042 3.821087e-21 2.9734743e-36)
(0.0024404405 -0.0010440222 1.1084661e-20 0.0005280694 -4.3788258e-21 3.7006566e-36)
(0.0031937852 -0.0012049143 -1.7643097e-21 0.00053513988 6.1085591e-22 6.9465665e-38)
(0.0041544735 -0.0013884997 -1.9879865e-20 0.00054332329 6.0355714e-21 6.6168412e-36)
(0.0053773833 -0.0015987051 2.3568223e-21 0.00055318723 -6.27332e-22 7.0997018e-38)
(0.0069342722 -0.0018397052 2.0547034e-20 0.00056468367 -4.7937466e-21 4.1657549e-36)
(0.0089111996 -0.002114499 5.8776871e-22 0.00057760171 -1.2017245e-22 2.6451573e-39)
(0.011414214 -0.0024258027 -1.9548553e-20 0.00059157514 3.4929697e-21 2.3335185e-36)
(0.014571246 -0.0027754429 2.4481262e-20 0.00060612591 -3.8199341e-21 2.9259189e-36)
(0.018534023 -0.0031640418 -1.2322084e-20 0.00062067444 1.6762804e-21 5.9828202e-37)
(0.023478942 -0.0035903748 1.6127867e-20 0.00063451512 -1.9088015e-21 8.3659506e-37)
(0.029605703 -0.0040504693 5.681431e-20 0.00064681102 -5.8396037e-21 8.5429008e-36)
(0.037132854 -0.0045366313 1.4026504e-20 0.00065667486 -1.2488029e-21 4.3260804e-37)
(0.04628811 -0.0050363072 6.0067736e-20 0.00066332899 -4.6134735e-21 6.6657988e-36)
(0.057292967 -0.0055313775 -8.3780454e-20 0.00066645825 5.5203407e-21 1.1009321e-35)
(0.070341547 -0.0059984386 -8.347487e-20 0.00066678248 4.6839238e-21 9.367183e-36)
(0.085574202 -0.0064114257 -1.5374554e-20 0.00066687941 7.2740892e-22 2.7494246e-37)
(0.1030587 -0.0067474481 1.3100419e-19 0.0006718432 -5.1219239e-21 1.7573489e-35)
(0.12279038 -0.0069943205 -6.5675709e-20 0.00068906413 2.0797681e-21 3.920554e-36)
(0.14470938 -0.0071589252 -2.3918894e-20 0.00072669371 5.9245405e-22 4.6838161e-37)
(0.16876041 -0.0072683505 1.3324131e-20 0.00079073213 -2.4278498e-22 1.3342955e-37)
(0.1949722 -0.007354113 4.292785e-20 0.00087853208 -5.2486712e-22 1.2851651e-36)
(0.2234629 -0.0074377612 -2.1472953e-20 0.00097246046 1.4211163e-22 3.0391224e-37)
(0.25427082 -0.0074816793 3.943916e-20 0.001050968 -5.3227811e-23 9.853557e-37)
(0.28709343 -0.0073769477 2.3823331e-19 0.0010983131 8.6639369e-22 3.5207085e-35)
(0.32105821 -0.0069913199 1.1299691e-20 0.0011117334 9.638022e-23 7.9173417e-38)
(0.35463154 -0.0062251919 -5.0062284e-20 0.0011031479 -6.6252578e-22 1.5825932e-36)
(0.38579202 -0.0050257892 1.0819162e-19 0.0010840206 1.9653729e-21 7.7120557e-36)
(0.41213131 -0.0033984477 -8.8560137e-20 0.0010673508 -2.0703398e-21 5.5334787e-36)
(0.43095151 -0.0013668141 2.3731513e-19 0.001062635 6.8770043e-21 4.3837817e-35)
(0.43902621 0.0010824021 6.2860637e-20 0.0010687396 2.2162839e-21 3.511159e-36)
(0.43264615 0.0038951111 -1.6083507e-19 0.0010828231 -6.823289e-21 2.7428068e-35)
(0.40792286 0.0068809525 2.4309399e-20 0.0011015642 1.2343168e-21 7.8045965e-37)
(0.36233641 0.0096246792 2.3841132e-20 0.0011177363 1.4450067e-21 1.0053663e-36)
(0.2971938 0.011453584 3.9727345e-21 0.0011116011 2.858621e-22 4.0149335e-38)
(0.22140783 0.011783735 -4.250637e-20 0.0010721589 -3.5934252e-21 7.0538952e-36)
(0.1479598 0.010141664 6.4125849e-20 0.0009446267 6.2434089e-21 2.6736292e-35)
(0.09148693 0.0077651039 1.452844e-20 0.00077178434 1.6060655e-21 2.396045e-36)
(0.050842672 0.0051913027 1.7433651e-20 0.00057894473 2.2645297e-21 6.6180023e-36)
(1.1176712e-09 -1.598164e-08 5.4465604e-25 2.2853065e-07 -7.4115609e-24 3.2348111e-38)
(1.2520836e-08 -1.6445713e-07 -9.1496623e-25 2.1609353e-06 1.1348584e-23 1.27992e-38)
(4.3933058e-08 -5.3492765e-07 -4.3049212e-25 6.5204052e-06 4.8834818e-24 9.0531365e-40)
(1.1014097e-07 -1.2375452e-06 6.2990056e-25 1.3935002e-05 -6.5226182e-24 8.1396242e-40)
(2.3386357e-07 -2.4196936e-06 -4.4102327e-24 2.5123087e-05 4.1691046e-23 1.911489e-38)
(4.5056616e-07 -4.2813478e-06 -4.559187e-25 4.0889057e-05 3.933445e-24 1.056785e-40)
(8.1469727e-07 -7.0890778e-06 -7.8907895e-24 6.2111808e-05 6.2052866e-23 1.7256245e-38)
(1.408749e-06 -1.119277e-05 -1.1306349e-23 8.9722827e-05 8.0905584e-23 2.0032936e-38)
(2.3563355e-06 -1.7045011e-05 1.2120371e-22 0.00012467004 -7.8768771e-22 1.338235e-36)
(3.8406872e-06 -2.5221925e-05 -1.4045251e-22 0.00016786424 8.2737228e-22 1.0668303e-36)
(6.1304011e-06 -3.6443822e-05 8.6511123e-23 0.00022010487 -4.6104118e-22 2.4430395e-37)
(9.6147228e-06 -5.1593082e-05 1.6205803e-22 0.00028198357 -7.7986213e-22 5.2441547e-37)
(1.4850983e-05 -7.1725417e-05 -4.0854023e-22 0.00035376651 1.7719781e-21 2.061568e-36)
(2.262703e-05 -9.8069368e-05 -6.3979578e-23 0.00043526106 2.4966128e-22 3.1568961e-38)
(3.4041342e-05 -0.00013200771 3.1113076e-22 0.00052567936 -1.090289e-21 4.7018949e-37)
(5.0602961e-05 -0.00017503459 2.6827925e-22 0.00062352004 -8.427066e-22 2.2185285e-37)
(7.4352228e-05 -0.00022868418 -3.8860379e-22 0.0007264995 1.0921176e-21 2.9763469e-37)
(0.00010800144 -0.00029443132 1.749673e-21 0.00083157247 -4.3909413e-21 3.8873157e-36)
(0.00015509291 -0.00037357489 -1.2803657e-21 0.00093508417 2.8636229e-21 1.3520916e-36)
(0.00022017091 -0.00046712821 7.8001203e-22 0.0010330861 -1.5516635e-21 3.2876666e-37)
(0.00030896675 -0.00057575797 -3.2221764e-21 0.0011218193 5.6896807e-21 3.713011e-36)
(0.00042860413 -0.00069982622 -1.0203936e-21 0.0011983159 1.5962506e-21 2.4916378e-37)
(0.00058784415 -0.00083958512 2.5740653e-21 0.001261008 -3.5608578e-21 1.0745803e-36)
(0.00079742693 -0.00099555393 -4.6500115e-21 0.0013101693 5.6791356e-21 2.4094434e-36)
(0.0010706842 -0.0011690844 -2.1810856e-21 0.0013480054 2.348629e-21 3.696533e-37)
(0.0014242339 -0.0013628244 3.09534e-21 0.0013782951 -2.9359828e-21 5.2829138e-37)
(0.0018778376 -0.0015804102 2.0612442e-20 0.0014055113 -1.721368e-20 1.6879629e-35)
(0.0024583147 -0.0018270551 1.0854045e-20 0.0014331041 -7.9800289e-21 3.4294527e-36)
(0.0032016091 -0.0021094411 -6.2566679e-21 0.0014632835 4.0503109e-21 8.4988641e-37)
(0.0041482315 -0.0024335945 7.6948096e-21 0.0014989164 -4.3858765e-21 9.7011268e-37)
(0.0053513486 -0.002806863 -5.4915606e-21 0.0015416955 2.7547621e-21 3.7977112e-37)
(0.0068807349 -0.0032368725 -3.5364185e-20 0.0015913727 1.5605573e-20 1.2208897e-35)
(0.0088199966 -0.003729592 1.339904e-20 0.0016471656 -5.1972038e-21 1.3769855e-36)
(0.011271646 -0.0042904859 4.5087495e-20 0.0017079208 -1.535804e-20 1.2375185e-35)
(0.014359161 -0.0049236665 -1.6880627e-20 0.0017721423 5.0434443e-21 1.3935105e-36)
(0.018228438 -0.0056311973 -2.6441417e-20 0.0018379732 6.9231142e-21 2.7666311e-36)
(0.023048317 -0.0064119273 5.1022701e-20 0.0019030857 -1.1692188e-20 8.4245017e-36)
(0.029008707 -0.0072599208 1.7271475e-20 0.0019646872 -3.4594817e-21 7.964291e-37)
(0.036315394 -0.0081625011 -3.3893397e-20 0.0020196921 5.9204307e-21 2.5601978e-36)
(0.045179567 -0.0090982754 -1.4921474e-20 0.0020653145 2.2668699e-21 4.1804092e-37)
(0.055801312 -0.010035503 7.8344376e-20 0.0021000982 -1.0310579e-20 9.796572e-36)
(0.068346896 -0.010932745 -2.4070152e-20 0.0021259841 2.7225768e-21 7.9752582e-37)
(0.082921515 -0.011743328 -3.7615249e-20 0.0021510038 3.6335189e-21 1.6909114e-36)
(0.099549769 -0.01242622 -1.0762081e-19 0.0021916555 8.7617594e-21 1.2171516e-35)
(0.11817438 -0.012960742 2.1751722e-19 0.0022724201 -1.4636009e-20 4.4378152e-35)
(0.13868353 -0.013362894 -1.4846254e-19 0.0024208387 8.0460238e-21 1.8704098e-35)
(0.16099098 -0.013693686 -3.9165962e-20 0.0026551481 1.6522315e-21 1.193828e-36)
(0.18510682 -0.014025398 -1.6038888e-19 0.0029616298 4.922044e-21 1.87426e-35)
(0.21110193 -0.014381882 -1.971711e-19 0.003281225 3.968072e-21 2.6927655e-35)
(0.23894819 -0.014683096 -1.0180347e-20 0.0035384862 1.0952862e-22 6.9174785e-38)
(0.26828659 -0.014733354 4.3246084e-20 0.0036770611 -4.1061264e-23 1.2348319e-36)
(0.29818527 -0.014291081 -3.1563669e-19 0.0036894196 -2.6928285e-21 6.6359541e-35)
(0.32711321 -0.013175174 -1.3204574e-19 0.0036159105 -2.331146e-21 1.1949975e-35)
(0.35311809 -0.011304476 -1.3143336e-19 0.0035064134 -3.5591494e-21 1.2477999e-35)
(0.37402767 -0.0086742572 -4.1220995e-20 0.0033992166 -1.5364032e-21 1.3299134e-36)
(0.38740796 -0.0052776533 -2.9928817e-19 0.0033100471 -1.4410174e-20 7.8420607e-35)
(0.39049264 -0.0010557418 1.0967114e-19 0.0032288637 6.6590864e-21 1.2203839e-35)
(0.38009849 0.003980963 -3.0009204e-20 0.0031515062 -2.2640961e-21 1.1155087e-36)
(0.35288381 0.0095688918 -2.1690983e-19 0.0030887361 -2.0136756e-20 7.4259423e-35)
(0.30702104 0.014909481 -7.3409716e-20 0.0030773245 -8.3694488e-21 1.1638312e-35)
(0.24427871 0.018545528 7.1412454e-20 0.00311239 9.9433618e-21 1.6421508e-35)
(0.17396524 0.019130989 1.9264781e-19 0.0031461273 3.2373817e-20 1.9385738e-34)
(0.10861422 0.01591537 -4.6095853e-20 0.002887573 -9.1524021e-21 1.9772986e-35)
(0.061068922 0.011344738 -5.3837336e-20 0.0023719105 -1.2471656e-20 5.1378168e-35)
(0.029780965 0.0067846508 -1.5727247e-20 0.0016826569 -4.3978449e-21 9.42609e-36)
(4.1610097e-09 -4.2328622e-08 -3.6150931e-24 4.3059942e-07 3.5886826e-23 3.6278396e-37)
(4.2638296e-08 -4.1673577e-07 1.2448243e-23 4.0733131e-06 -1.1823548e-22 6.653742e-37)
(1.3878021e-07 -1.3062053e-06 -7.6122707e-24 1.2296204e-05 6.9100904e-23 8.6996752e-38)
(3.2220937e-07 -2.9099925e-06 1.2222942e-24 2.6290805e-05 -1.0574292e-23 1.0282281e-39)
(6.3448821e-07 -5.4835898e-06 -3.3501943e-23 4.7422179e-05 2.7567403e-22 4.0191231e-37)
(1.135e-06 -9.3573698e-06 4.6343504e-23 7.7221989e-05 -3.6190617e-22 4.3034042e-37)
(1.9079797e-06 -1.4953772e-05 -9.1758851e-23 0.00011736854 6.7813693e-22 9.9042657e-37)
(3.0722429e-06 -2.2807122e-05 5.5408129e-23 0.00016964749 -3.8630035e-22 2.193093e-37)
(4.7946676e-06 -3.3585959e-05 2.6710909e-22 0.00023588632 -1.750891e-21 3.1710817e-36)
(7.3085212e-06 -4.8116224e-05 -8.0712554e-23 0.00031785594 4.9569936e-22 1.8341234e-37)
(1.0938118e-05 -6.7403255e-05 -3.8379306e-22 0.00041713374 2.2006557e-21 2.6615752e-36)
(1.6131616e-05 -9.2649421e-05 1.4556084e-22 0.00053492372 -7.7649091e-22 2.4817575e-37)
(2.3504072e-05 -0.00012526295 1.2039338e-23 0.00067183535 -5.9536152e-23 1.1093408e-39)
(3.3892991e-05 -0.00016685187 -5.8176808e-22 0.00082763013 2.6575919e-21 1.700574e-36)
(4.8428799e-05 -0.00021919651 2.2404826e-21 0.0010009582 -9.4207441e-21 1.6647205e-35)
(6.8622107e-05 -0.00028419348 -1.6894464e-21 0.0011891242 6.5154551e-21 6.2733947e-36)
(9.6469607e-05 -0.00036376782 -1.9731056e-23 0.0013879398 6.9543266e-23 5.6921291e-40)
(0.00013457905 -0.00045975489 1.400424e-21 0.0015917406 -4.4948374e-21 1.916326e-36)
(0.0001863137 -0.00057376697 -4.3371078e-21 0.0017936496 1.263133e-20 1.233913e-35)
(0.00025595607 -0.00070707399 2.4886225e-21 0.0019861549 -6.5532369e-21 2.7429681e-36)
(0.00034889499 -0.00086055188 4.4956458e-21 0.0021620177 -1.0666333e-20 6.0851221e-36)
(0.00047184499 -0.0010347638 2.1954235e-21 0.0023154316 -4.6772883e-21 9.9464435e-37)
(0.00063311726 -0.0012302359 -1.3029514e-20 0.0024432195 2.4846057e-20 2.4261576e-35)
(0.00084298082 -0.0014479571 -8.1236497e-21 0.0025457455 1.3824681e-20 6.604903e-36)
(0.0011142581 -0.0016901079 6.2231341e-21 0.0026271589 -9.4268339e-21 2.7513643e-36)
(0.0014631775 -0.0019607778 -4.276618e-21 0.0026947505 5.7541515e-21 9.3443838e-37)
(0.0019089797 -0.0022654599 1.8742341e-20 0.0027574088 -2.2364213e-20 1.3113931e-35)
(0.0024773504 -0.0026117587 -6.2560781e-21 0.0028225704 6.6132224e-21 1.0831826e-36)
(0.0032032754 -0.0030091543 1.9467228e-20 0.0028943947 -1.8217059e-20 7.8925092e-36)
(0.0041262325 -0.0034664607 -1.2629998e-20 0.0029779433 1.0454747e-20 2.5345281e-36)
(0.0052966693 -0.003994232 8.9246385e-21 0.0030773462 -6.5287899e-21 9.7714093e-37)
(0.0067811187 -0.0046033748 -3.71962e-20 0.0031923283 2.402595e-20 1.3277117e-35)
(0.0086595974 -0.0053026882 6.0428891e-21 0.0033212554 -3.4431029e-21 2.7725335e-37)
(0.01102917 -0.0061000873 -3.5928955e-20 0.0034618203 1.8042371e-20 7.8203741e-36)
(0.01400642 -0.0070016635 3.8600812e-20 0.0036109365 -1.7066604e-20 7.2821882e-36)
(0.017728275 -0.0080105449 1.3814786e-20 0.0037646632 -5.3738465e-21 7.5791053e-37)
(0.022351908 -0.0091252334 -1.9172183e-19 0.0039180082 6.5514073e-20 1.2021816e-34)
(0.028052197 -0.010337302 -5.5457037e-20 0.0040648951 1.663115e-20 8.3398561e-36)
(0.035015536 -0.011628547 5.0702335e-20 0.0041985298 -1.3317087e-20 5.842336e-36)
(0.04342825 -0.01296796 -5.467113e-20 0.0043125559 1.2544348e-20 5.7452319e-36)
(0.053458865 -0.014309538 1.5357211e-20 0.0044034181 -3.0663372e-21 3.8692473e-37)
(0.065234224 -0.015593129 1.0430935e-19 0.0044746681 -1.8022221e-20 1.5430977e-35)
(0.078812341 -0.016751645 -5.2193777e-21 0.0045430483 7.7420144e-22 3.381446e-38)
(0.094164749 -0.01772773 -4.0407094e-20 0.0046436515 5.0845428e-21 1.7868911e-36)
(0.11117892 -0.018497745 2.0865615e-20 0.0048294485 -2.1724604e-21 4.297629e-37)
(0.12970444 -0.019098739 -1.1072971e-20 0.0051601611 9.546708e-22 1.0829482e-37)
(0.14964813 -0.019637775 -3.3195148e-20 0.0056716635 2.2360621e-21 9.0985403e-37)
(0.17102232 -0.02023015 5.2778603e-19 0.0063268678 -2.6545859e-20 2.1720497e-34)
(0.19390041 -0.020902923 -6.0349783e-20 0.0069932388 2.055026e-21 2.7246974e-36)
(0.21822064 -0.02151303 5.6402553e-20 0.0075042086 -1.103544e-21 2.3233928e-36)
(0.24352687 -0.021753745 -5.2991699e-19 0.0077418246 2.8943873e-21 2.0432076e-34)
(0.26877629 -0.021278866 2.8666096e-19 0.007699326 2.3609239e-21 6.0832048e-35)
(0.2924165 -0.019862934 2.2991999e-19 0.0074714715 5.1031986e-21 4.0722376e-35)
(0.31262408 -0.017435167 2.1089614e-19 0.0071723935 7.7236993e-21 3.6590304e-35)
(0.32752148 -0.014010552 1.9218892e-19 0.0068812114 1.0014847e-20 3.3394248e-35)
(0.33511504 -0.0095695237 2.8053489e-19 0.0066207033 1.9453184e-20 8.0879255e-35)
(0.33319651 -0.0040082709 -5.1185597e-19 0.0063627949 -4.5680217e-20 3.17868e-34)
(0.31922732 0.0027044488 2.8099047e-19 0.0060975221 3.1730686e-20 1.1859078e-34)
(0.29054597 0.010240562 3.69322e-19 0.0058626615 5.2471966e-20 2.6944268e-34)
(0.24606921 0.017501129 -2.2688413e-19 0.0057832261 -4.0457316e-20 1.43675e-34)
(0.18799729 0.022333469 -5.789374e-20 0.0059002264 -1.2906718e-20 1.4542287e-35)
(0.12607554 0.022794652 -3.8338183e-20 0.0060774693 -1.0591632e-20 1.1029676e-35)
(0.07227474 0.018208062 1.4230653e-19 0.0056395873 4.7620593e-20 2.8573094e-34)
(0.036206547 0.01206587 7.2689079e-20 0.0045619776 2.9166104e-20 1.5420272e-34)
(0.015173781 0.0064966858 -2.0864034e-21 0.0030971189 -1.0415536e-21 2.9936094e-37)
(1.0730689e-08 -8.4191122e-08 4.2232766e-24 6.6055109e-07 -3.2656688e-23 1.7987321e-37)
(1.0590006e-07 -8.1375913e-07 -2.9680077e-23 6.2532088e-06 2.2409793e-22 1.436398e-36)
(3.333199e-07 -2.5092692e-06 4.0050343e-23 1.8890989e-05 -2.9476914e-22 9.5487175e-37)
(7.4640468e-07 -5.4927055e-06 -2.1874656e-23 4.0424451e-05 1.5663225e-22 1.3640287e-37)
(1.4157625e-06 -1.0163911e-05 -1.0725838e-23 7.298161e-05 7.4591894e-23 1.7808287e-38)
(2.4357892e-06 -1.7019873e-05 1.2083099e-22 0.00011896116 -8.1452971e-22 1.3191959e-36)
(3.9322726e-06 -2.6672934e-05 -3.9113005e-23 0.00018100754 2.5495853e-22 8.4672426e-38)
(6.0723812e-06 -3.9870572e-05 -1.0435806e-22 0.00026195696 6.5598621e-22 3.8200851e-37)
(9.0779335e-06 -5.7516503e-05 -9.9378807e-24 0.00036474445 6.0057535e-23 2.2507423e-39)
(1.3242702e-05 -8.0691071e-05 -1.0385917e-22 0.00049226137 6.014785e-22 1.6258764e-37)
(1.8954867e-05 -0.00011066864 1.7775533e-22 0.00064715267 -9.8313955e-22 3.191847e-37)
(2.6725934e-05 -0.00014892857 -1.5029613e-22 0.00083154691 7.9104572e-22 1.544e-37)
(3.7227753e-05 -0.00019715548 -6.7149367e-22 0.0010467176 3.3506898e-21 2.0996284e-36)
(5.1339353e-05 -0.00025722296 -2.3607494e-23 0.0012926872 1.112486e-22 1.7756391e-39)
(7.0205671e-05 -0.00033115501 7.4965866e-22 0.0015678021 -3.3227403e-21 1.2310412e-36)
(9.5310318e-05 -0.00042106007 6.4034473e-22 0.0018683363 -2.6584109e-21 6.1878699e-37)
(0.00012856457 -0.00052903527 -6.6372495e-22 0.002188208 2.5697633e-21 4.5902789e-37)
(0.00017241544 -0.00065704696 7.660501e-23 0.0025189298 -2.7536675e-22 4.2354371e-39)
(0.00022997534 -0.00080680351 1.8700907e-21 0.0028499284 -6.2131201e-21 1.7504482e-36)
(0.00030517807 -0.00097965586 2.7317605e-21 0.0031693575 -8.3495141e-21 2.6011858e-36)
(0.00040296857 -0.0011765804 -3.7279454e-21 0.0034654564 1.0433709e-20 3.3898523e-36)
(0.00052953778 -0.0013983133 -4.4695618e-21 0.0037283675 1.1402156e-20 3.4306444e-36)
(0.00069262271 -0.001645704 7.1358271e-21 0.0039521126 -1.651898e-20 6.2045877e-36)
(0.00090189421 -0.0019203067 -1.0425447e-20 0.0041362215 2.1808362e-20 9.4849106e-36)
(0.0011695314 -0.0022252049 -2.1207629e-20 0.0042863864 3.9933733e-20 2.8414349e-35)
(0.0015111201 -0.0025659183 5.8304461e-20 0.0044136775 -9.8492428e-20 1.5740613e-34)
(0.001945514 -0.0029500144 -3.720157e-20 0.0045324083 5.6222384e-20 4.7576317e-35)
(0.0024968392 -0.0033872902 6.3472534e-20 0.0046558619 -8.5631686e-20 1.0418801e-34)
(0.0031982553 -0.0038896038 -9.0759453e-20 0.0047909143 1.0911836e-19 1.6239501e-34)
(0.0040886218 -0.0044686972 1.1533749e-19 0.0049447985 -1.233836e-19 2.02349e-34)
(0.0052147078 -0.0051376936 -1.3508971e-19 0.005125653 1.2838351e-19 2.1672006e-34)
(0.0066384681 -0.0059105378 2.5633885e-20 0.005334133 -2.1612581e-20 6.1631419e-36)
(0.008435475 -0.0067987867 9.9458942e-20 0.0055675096 -7.4307532e-20 7.3940265e-35)
(0.010695688 -0.0078122531 -6.2765886e-20 0.0058219071 4.1506031e-20 2.3711011e-35)
(0.013526707 -0.0089585031 2.1880567e-20 0.006092037 -1.2793044e-20 2.3424284e-36)
(0.017053856 -0.010241199 7.0917284e-21 0.0063710425 -3.6620481e-21 2.0199068e-37)
(0.021419361 -0.011657913 9.6871801e-20 0.0066501465 -4.4145258e-20 3.1118266e-35)
(0.026779 -0.0131971 3.4827281e-20 0.0069185364 -1.3988155e-20 3.3530327e-36)
(0.033294963 -0.014834377 3.8563434e-20 0.0071639696 -1.362156e-20 3.4627456e-36)
(0.041123362 -0.016528678 4.1651416e-20 0.0073747942 -1.2903945e-20 3.4399002e-36)
(0.050395835 -0.018219555 -2.3067959e-19 0.0075440577 6.2435987e-20 9.0706283e-35)
(0.06119554 -0.01982893 1.0938223e-19 0.0076772989 -2.572155e-20 1.7720907e-35)
(0.07353232 -0.021271829 1.8730399e-20 0.0078033641 -3.8078249e-21 4.5416789e-37)
(0.087330006 -0.022480723 -2.2963124e-19 0.0079840671 3.9660275e-20 6.1124417e-35)
(0.10244055 -0.023441441 -1.2298905e-19 0.0083137408 1.7830115e-20 1.5824878e-35)
(0.11871453 -0.024232602 6.3258148e-20 0.0088973866 -7.5329279e-21 3.8458359e-36)
(0.13610391 -0.02502413 2.3840456e-19 0.0097892314 -2.2537542e-20 5.0941035e-35)
(0.15467879 -0.025967765 -1.063812e-19 0.010903323 7.6701895e-21 9.6436428e-36)
(0.17452546 -0.027060099 3.1552001e-19 0.011997315 -1.5828891e-20 8.214439e-35)
(0.19550279 -0.028052506 1.7226374e-19 0.012777127 -5.2017626e-21 2.4169743e-35)
(0.21697872 -0.028503783 2.3608492e-19 0.013054857 -2.6885595e-21 4.5703873e-35)
(0.23774413 -0.027981133 6.2201101e-19 0.012848362 4.8152091e-21 3.2672307e-34)
(0.25622083 -0.026263807 -4.6565968e-19 0.012342146 -1.2461791e-20 1.9309698e-34)
(0.27075643 -0.023341532 1.4500464e-19 0.011739043 6.8722883e-21 2.0269587e-35)
(0.27981766 -0.019280289 -2.3391858e-19 0.011167563 -1.6049362e-20 5.8949737e-35)
(0.28187562 -0.014068055 -2.0490246e-19 0.01065664 -1.9132852e-20 5.2340942e-35)
(0.27526735 -0.0075678407 -7.2331099e-20 0.010149019 -8.8599195e-21 7.878334e-36)
(0.25811995 0.00028812152 -5.7980044e-19 0.0096171216 -9.1052771e-20 6.4288257e-34)
(0.22857564 0.0091026277 -1.3300007e-19 0.009123715 -2.6780881e-20 4.5867678e-35)
(0.18646661 0.017545792 2.4970497e-19 0.0089130645 6.4484112e-20 2.3737186e-34)
(0.13456476 0.022904972 7.3847308e-20 0.0091190764 2.4423135e-20 3.37252e-35)
(0.082912677 0.022849445 -4.0709346e-20 0.0094566723 -1.7099947e-20 1.8791039e-35)
(0.042472747 0.017259942 -5.9300226e-20 0.0087504394 -3.088984e-20 8.0333687e-35)
(0.018388267 0.010478334 -6.2689154e-20 0.0069072343 -3.9761827e-20 1.9479567e-34)
(0.006503698 0.0050357669 3.0413259e-21 0.0044967892 2.4105272e-21 1.1329786e-36)
(2.1868012e-08 -1.3892694e-07 1.9100223e-23 8.8260084e-07 -1.2016894e-22 1.6698985e-36)
(2.1180822e-07 -1.3309829e-06 1.408224e-23 8.3638424e-06 -8.7391007e-23 1.5070026e-37)
(6.5533383e-07 -4.0712778e-06 -1.8632772e-23 2.5293544e-05 1.1387086e-22 9.8829007e-38)
(1.4399063e-06 -8.8328772e-06 -9.8194552e-23 5.4186815e-05 5.9029075e-22 1.3478625e-36)
(2.6765153e-06 -1.6190814e-05 7.214112e-23 9.795135e-05 -4.2606876e-22 4.0476919e-37)
(4.5062557e-06 -2.6839739e-05 -1.3431411e-22 0.0001598861 7.7825116e-22 8.3894871e-37)
(7.1080615e-06 -4.1611497e-05 7.337294e-23 0.00024365896 -4.1635664e-22 1.5716105e-37)
(1.0708248e-05 -6.1492314e-05 2.1683604e-23 0.00035324702 -1.2025202e-22 8.9222544e-39)
(1.5592635e-05 -8.7639289e-05 -1.5035511e-22 0.00049282791 8.1301623e-22 2.8612262e-37)
(2.2121657e-05 -0.00012139366 -3.932655e-22 0.00066660547 2.0681131e-21 1.3305579e-36)
(3.0749247e-05 -0.00016428846 -2.3798102e-23 0.00087855527 1.2137542e-22 3.3574168e-39)
(4.2046425e-05 -0.00021804719 9.3465063e-22 0.0011320761 -4.6091261e-21 3.6086651e-36)
(5.673073e-05 -0.00028456948 -1.5453101e-21 0.001429542 7.3443751e-21 6.9225352e-36)
(7.5703035e-05 -0.00036589936 2.9747656e-21 0.0017717608 -1.3578095e-20 1.8100141e-35)
(0.00010009356 -0.00046417232 -9.2528511e-22 0.0021573723 4.0408681e-21 1.2403274e-36)
(0.00013131966 -0.00058153882 2.3371859e-21 0.0025822473 -9.726516e-21 5.6203888e-36)
(0.00017115836 -0.00072006603 -3.3565443e-21 0.0030390012 1.3254247e-20 8.2514284e-36)
(0.00022183834 -0.00088162773 2.587466e-21 0.0035167768 -9.6506088e-21 3.4968954e-36)
(0.0002861566 -0.0010678023 -4.8479297e-22 0.0040014947 1.6996523e-21 8.7752033e-38)
(0.00036762843 -0.0012798171 -2.3289834e-21 0.0044767722 7.6367567e-21 1.4512942e-36)
(0.00047068148 -0.0015185921 6.6931253e-21 0.0049256372 -2.0419679e-20 8.6215274e-36)