/*--------------------------------*- C++ -*----------------------------------*\
  =========                 |
  \\      /  F ield         | OpenFOAM: The Open Source CFD Toolbox
   \\    /   O peration     | Website:  https://openfoam.org
    \\  /    A nd           | Version:  13
     \\/     M anipulation  |
\*---------------------------------------------------------------------------*/
FoamFile
{
    format      ascii;
    class       volScalarField;
    location    "26.798457";
    object      pPrime2Mean;
}
// * * * * * * * * * * * * * * * * * * * * * * * * * * * * * * * * * * * * * //

dimensions      [0 4 -4 0 0 0 0];

internalField   nonuniform List<scalar> 
17140
(
11620.336
11620.336
11620.336
11620.336
11620.335
11620.334
11620.332
11620.33
11620.326
11620.321
11620.315
11620.307
11620.297
11620.285
11620.269
11620.248
11620.223
11620.191
11620.151
11620.101
11620.037
11619.958
11619.859
11619.734
11619.576
11619.377
11619.126
11618.81
11618.411
11617.908
11617.276
11616.481
11615.485
11614.242
11612.694
11610.774
11608.402
11605.485
11601.914
11597.563
11592.288
11585.928
11578.3
11569.197
11558.391
11545.629
11530.63
11513.091
11492.678
11469.029
11441.749
11410.413
11374.561
11333.696
11287.283
11234.748
11175.468
11108.772
11033.931
10950.168
10856.62
10752.39
10636.435
10507.721
10365.021
11620.622
11620.622
11620.622
11620.621
11620.621
11620.619
11620.618
11620.615
11620.611
11620.607
11620.6
11620.593
11620.582
11620.57
11620.554
11620.533
11620.508
11620.476
11620.436
11620.385
11620.322
11620.243
11620.144
11620.019
11619.861
11619.663
11619.413
11619.098
11618.7
11618.198
11617.567
11616.774
11615.779
11614.538
11612.991
11611.073
11608.703
11605.787
11602.217
11597.868
11592.596
11586.239
11578.614
11569.516
11558.715
11545.959
11530.969
11513.438
11493.035
11469.397
11442.13
11410.809
11374.973
11334.126
11287.735
11235.225
11175.972
11109.307
11034.5
10950.775
10857.27
10753.088
10637.188
10508.537
10365.899
11621.328
11621.328
11621.328
11621.328
11621.327
11621.326
11621.324
11621.321
11621.317
11621.313
11621.306
11621.299
11621.289
11621.276
11621.26
11621.24
11621.214
11621.183
11621.143
11621.093
11621.03
11620.951
11620.852
11620.728
11620.572
11620.375
11620.126
11619.812
11619.416
11618.917
11618.288
11617.498
11616.507
11615.268
11613.725
11611.81
11609.443
11606.531
11602.965
11598.62
11593.354
11587.005
11579.388
11570.301
11559.513
11546.773
11531.8
11514.291
11493.912
11470.301
11443.065
11411.78
11375.985
11335.186
11288.849
11236.398
11177.213
11110.624
11035.902
10952.272
10858.872
10754.808
10639.04
10510.538
10368.048
11622.477
11622.477
11622.477
11622.477
11622.476
11622.475
11622.473
11622.47
11622.467
11622.462
11622.456
11622.448
11622.438
11622.426
11622.41
11622.39
11622.365
11622.334
11622.294
11622.245
11622.183
11622.105
11622.007
11621.884
11621.729
11621.534
11621.287
11620.976
11620.583
11620.087
11619.462
11618.676
11617.689
11616.455
11614.916
11613.006
11610.644
11607.737
11604.177
11599.84
11594.584
11588.246
11580.644
11571.574
11560.808
11548.092
11533.15
11515.674
11495.335
11471.768
11444.583
11413.356
11377.629
11336.906
11290.656
11238.304
11179.229
11112.764
11038.181
10954.704
10861.476
10757.603
10642.047
10513.786
10371.534
11624.093
11624.094
11624.093
11624.093
11624.092
11624.091
11624.089
11624.087
11624.083
11624.078
11624.072
11624.065
11624.055
11624.042
11624.027
11624.007
11623.982
11623.951
11623.912
11623.864
11623.802
11623.725
11623.629
11623.507
11623.354
11623.161
11622.917
11622.609
11622.22
11621.728
11621.108
11620.327
11619.346
11618.117
11616.584
11614.68
11612.324
11609.425
11605.875
11601.549
11596.307
11589.986
11582.404
11573.359
11562.622
11549.941
11535.04
11517.613
11497.327
11473.823
11446.71
11415.566
11379.932
11339.318
11293.19
11240.975
11182.056
11115.765
11041.376
10958.116
10865.129
10761.523
10646.266
10518.342
10376.426
11626.195
11626.196
11626.195
11626.195
11626.194
11626.193
11626.191
11626.188
11626.185
11626.18
11626.174
11626.166
11626.157
11626.145
11626.129
11626.11
11626.085
11626.054
11626.016
11625.968
11625.908
11625.832
11625.737
11625.617
11625.466
11625.276
11625.035
11624.731
11624.346
11623.859
11623.245
11622.47
11621.496
11620.274
11618.749
11616.852
11614.506
11611.617
11608.079
11603.769
11598.545
11592.246
11584.691
11575.677
11564.979
11552.344
11537.496
11520.13
11499.916
11476.493
11449.473
11418.436
11382.926
11342.452
11296.483
11244.448
11185.731
11119.667
11045.532
10962.553
10869.879
10766.622
10651.755
10524.27
10382.792
11628.804
11628.804
11628.804
11628.804
11628.803
11628.801
11628.799
11628.797
11628.793
11628.789
11628.783
11628.775
11628.765
11628.753
11628.738
11628.719
11628.695
11628.665
11628.627
11628.58
11628.52
11628.446
11628.352
11628.235
11628.086
11627.899
11627.662
11627.362
11626.983
11626.502
11625.894
11625.127
11624.16
11622.947
11621.43
11619.544
11617.21
11614.334
11610.813
11606.521
11601.32
11595.048
11587.527
11578.553
11567.902
11555.324
11540.542
11523.252
11503.126
11479.804
11452.901
11421.998
11386.641
11346.341
11300.569
11248.758
11190.292
11124.509
11050.688
10968.061
10875.777
10772.953
10658.571
10531.632
10390.705
11631.942
11631.942
11631.942
11631.941
11631.94
11631.939
11631.937
11631.934
11631.931
11631.926
11631.92
11631.913
11631.903
11631.891
11631.876
11631.858
11631.834
11631.805
11631.768
11631.721
11631.663
11631.59
11631.499
11631.383
11631.238
11631.054
11630.822
11630.526
11630.153
11629.679
11629.079
11628.319
11627.361
11626.158
11624.652
11622.778
11620.458
11617.599
11614.096
11609.828
11604.655
11598.417
11590.935
11582.01
11571.416
11558.905
11544.202
11527.004
11506.983
11483.784
11457.022
11426.28
11391.108
11351.018
11305.484
11253.942
11195.778
11130.334
11056.891
10974.686
10882.873
10780.572
10666.774
10540.495
10400.236
11635.636
11635.636
11635.636
11635.636
11635.635
11635.633
11635.631
11635.628
11635.625
11635.62
11635.614
11635.607
11635.597
11635.586
11635.571
11635.553
11635.53
11635.501
11635.465
11635.419
11635.363
11635.291
11635.202
11635.089
11634.947
11634.767
11634.539
11634.249
11633.882
11633.415
11632.822
11632.072
11631.124
11629.931
11628.438
11626.578
11624.273
11621.434
11617.954
11613.713
11608.572
11602.373
11594.939
11586.07
11575.544
11563.112
11548.501
11531.411
11511.516
11488.461
11461.865
11431.314
11396.359
11356.517
11311.263
11260.037
11202.228
11137.183
11064.186
10982.478
10891.218
10789.534
10676.425
10550.925
10411.459
11639.915
11639.915
11639.915
11639.914
11639.913
11639.912
11639.91
11639.907
11639.903
11639.899
11639.893
11639.886
11639.876
11639.865
11639.85
11639.833
11639.81
11639.782
11639.747
11639.703
11639.647
11639.578
11639.491
11639.381
11639.241
11639.065
11638.842
11638.558
11638.196
11637.736
11637.151
11636.409
11635.471
11634.29
11632.81
11630.966
11628.679
11625.862
11622.408
11618.199
11613.095
11606.942
11599.562
11590.758
11580.309
11567.969
11553.465
11536.499
11516.749
11493.862
11467.459
11437.129
11402.427
11362.871
11317.941
11267.081
11209.684
11145.1
11072.618
10991.485
10900.868
10799.898
10687.59
10562.995
10424.452
11644.809
11644.808
11644.808
11644.807
11644.806
11644.805
11644.803
11644.8
11644.796
11644.792
11644.786
11644.779
11644.77
11644.758
11644.744
11644.727
11644.705
11644.677
11644.643
11644.6
11644.546
11644.478
11644.393
11644.285
11644.149
11643.977
11643.757
11643.477
11643.121
11642.667
11642.09
11641.357
11640.429
11639.259
11637.794
11635.966
11633.7
11630.907
11627.483
11623.309
11618.247
11612.145
11604.827
11596.098
11585.737
11573.5
11559.117
11542.294
11522.709
11500.014
11473.832
11443.756
11409.342
11370.114
11325.555
11275.113
11218.186
11154.129
11082.236
11001.761
10911.879
10811.727
10700.335
10576.774
10439.29
11650.344
11650.343
11650.343
11650.342
11650.341
11650.339
11650.338
11650.335
11650.331
11650.327
11650.321
11650.314
11650.305
11650.294
11650.28
11650.263
11650.241
11650.214
11650.181
11650.138
11650.086
11650.019
11649.936
11649.83
11649.696
11649.527
11649.311
11649.035
11648.683
11648.235
11647.664
11646.939
11646.02
11644.863
11643.412
11641.603
11639.36
11636.593
11633.201
11629.066
11624.052
11618.008
11610.76
11602.113
11591.85
11579.73
11565.484
11548.822
11529.424
11506.946
11481.015
11451.226
11417.14
11378.282
11334.144
11284.174
11227.779
11164.317
11093.09
11013.359
10924.307
10825.082
10714.727
10592.337
10456.056
11656.544
11656.544
11656.544
11656.543
11656.542
11656.54
11656.538
11656.535
11656.531
11656.527
11656.522
11656.514
11656.506
11656.495
11656.481
11656.464
11656.443
11656.416
11656.383
11656.342
11656.29
11656.225
11656.142
11656.038
11655.907
11655.739
11655.525
11655.253
11654.905
11654.461
11653.897
11653.179
11652.271
11651.126
11649.691
11647.9
11645.68
11642.943
11639.586
11635.495
11630.534
11624.554
11617.383
11608.829
11598.676
11586.685
11572.592
11556.11
11536.922
11514.689
11489.04
11459.573
11425.854
11387.412
11343.744
11294.304
11238.504
11175.709
11105.229
11026.332
10938.213
10840.029
10730.835
10609.759
10474.826
11663.431
11663.431
11663.43
11663.429
11663.428
11663.426
11663.424
11663.421
11663.418
11663.414
11663.408
11663.401
11663.392
11663.382
11663.368
11663.351
11663.33
11663.304
11663.272
11663.231
11663.18
11663.115
11663.034
11662.931
11662.8
11662.634
11662.423
11662.153
11661.808
11661.369
11660.81
11660.1
11659.202
11658.07
11656.651
11654.881
11652.687
11649.98
11646.663
11642.619
11637.717
11631.808
11624.723
11616.271
11606.24
11594.393
11580.47
11564.187
11545.235
11523.273
11497.938
11468.83
11435.519
11397.541
11354.396
11305.546
11250.407
11188.354
11118.705
11040.738
10953.658
10856.629
10748.729
10629.114
10495.678
11671.023
11671.023
11671.022
11671.021
11671.02
11671.019
11671.017
11671.014
11671.01
11671.006
11671
11670.994
11670.985
11670.974
11670.961
11670.944
11670.923
11670.898
11670.866
11670.825
11670.774
11670.71
11670.63
11670.527
11670.398
11670.233
11670.023
11669.756
11669.414
11668.979
11668.426
11667.724
11666.836
11665.719
11664.317
11662.569
11660.402
11657.73
11654.455
11650.464
11645.626
11639.796
11632.805
11624.465
11614.568
11602.88
11589.146
11573.086
11554.392
11532.732
11507.744
11479.033
11446.173
11408.707
11366.14
11317.941
11263.534
11202.301
11133.572
11056.634
10970.701
10874.951
10768.478
10650.474
10518.69
11679.342
11679.342
11679.342
11679.341
11679.34
11679.338
11679.336
11679.333
11679.33
11679.326
11679.32
11679.313
11679.305
11679.294
11679.281
11679.265
11679.244
11679.218
11679.186
11679.146
11679.096
11679.032
11678.952
11678.851
11678.722
11678.559
11678.35
11678.085
11677.747
11677.316
11676.769
11676.076
11675.199
11674.096
11672.713
11670.989
11668.852
11666.217
11662.988
11659.054
11654.287
11648.542
11641.655
11633.44
11623.69
11612.178
11598.652
11582.836
11564.428
11543.1
11518.493
11490.217
11457.854
11420.951
11379.019
11331.535
11277.932
11217.602
11149.884
11074.076
10989.405
10895.057
10790.149
10673.914
10543.939
11688.416
11688.415
11688.415
11688.414
11688.413
11688.412
11688.409
11688.407
11688.403
11688.399
11688.394
11688.387
11688.378
11688.368
11688.355
11688.338
11688.318
11688.293
11688.261
11688.221
11688.171
11688.107
11688.028
11687.927
11687.799
11687.636
11687.429
11687.166
11686.831
11686.405
11685.865
11685.18
11684.316
11683.228
11681.865
11680.166
11678.06
11675.466
11672.287
11668.416
11663.726
11658.075
11651.301
11643.222
11633.635
11622.316
11609.018
11593.47
11575.376
11554.41
11530.219
11502.421
11470.6
11434.311
11393.074
11346.372
11293.65
11234.307
11167.696
11093.124
11009.83
10917.011
10813.809
10699.503
10571.498
11698.271
11698.271
11698.27
11698.27
11698.269
11698.267
11698.265
11698.263
11698.259
11698.255
11698.249
11698.243
11698.234
11698.224
11698.211
11698.194
11698.174
11698.148
11698.117
11698.077
11698.027
11697.963
11697.884
11697.783
11697.655
11697.494
11697.288
11697.027
11696.695
11696.274
11695.74
11695.065
11694.212
11693.14
11691.798
11690.126
11688.055
11685.504
11682.38
11678.577
11673.971
11668.421
11661.771
11653.84
11644.431
11633.323
11620.275
11605.02
11587.267
11566.695
11542.959
11515.679
11484.449
11448.829
11408.348
11362.498
11310.733
11252.467
11187.06
11113.831
11032.034
10940.876
10839.525
10727.312
10601.443
11708.938
11708.938
11708.938
11708.937
11708.936
11708.934
11708.932
11708.93
11708.926
11708.922
11708.917
11708.91
11708.901
11708.891
11708.877
11708.861
11708.84
11708.815
11708.783
11708.742
11708.692
11708.629
11708.549
11708.448
11708.321
11708.16
11707.955
11707.696
11707.368
11706.951
11706.423
11705.757
11704.916
11703.861
11702.541
11700.898
11698.863
11696.359
11693.294
11689.564
11685.048
11679.61
11673.093
11665.324
11656.109
11645.231
11632.454
11617.518
11600.134
11579.991
11556.746
11530.03
11499.44
11464.544
11424.882
11379.956
11329.231
11272.133
11208.03
11136.256
11056.075
10966.712
10867.361
10757.41
10633.843
11720.44
11720.44
11720.44
11720.439
11720.438
11720.436
11720.434
11720.432
11720.428
11720.424
11720.419
11720.412
11720.403
11720.392
11720.379
11720.362
11720.342
11720.315
11720.283
11720.242
11720.192
11720.128
11720.048
11719.947
11719.82
11719.659
11719.456
11719.199
11718.873
11718.461
11717.94
11717.283
11716.455
11715.417
11714.12
11712.507
11710.512
11708.058
11705.057
11701.406
11696.988
11691.669
11685.297
11677.703
11668.697
11658.069
11645.587
11630.994
11614.011
11594.331
11571.618
11545.509
11515.609
11481.496
11442.718
11398.791
11349.193
11293.354
11230.659
11160.45
11082.009
10994.579
10897.38
10789.863
10668.771
11732.794
11732.794
11732.794
11732.793
11732.792
11732.791
11732.789
11732.786
11732.782
11732.778
11732.773
11732.766
11732.757
11732.746
11732.733
11732.716
11732.695
11732.669
11732.636
11732.595
11732.544
11732.48
11732.4
11732.299
11732.172
11732.013
11731.811
11731.556
11731.235
11730.828
11730.315
11729.668
11728.855
11727.835
11726.563
11724.982
11723.03
11720.63
11717.697
11714.131
11709.817
11704.626
11698.412
11691.007
11682.227
11671.868
11659.702
11645.481
11628.929
11609.747
11587.607
11562.15
11532.992
11499.721
11461.898
11419.049
11370.66
11316.178
11254.993
11186.465
11109.891
11024.534
10929.644
10824.737
10706.293
11746.01
11746.01
11746.01
11746.009
11746.008
11746.007
11746.005
11746.002
11745.999
11745.995
11745.989
11745.982
11745.974
11745.963
11745.95
11745.933
11745.912
11745.886
11745.853
11745.812
11745.762
11745.698
11745.619
11745.519
11745.394
11745.236
11745.037
11744.787
11744.47
11744.071
11743.567
11742.933
11742.136
11741.138
11739.894
11738.35
11736.443
11734.102
11731.242
11727.766
11723.565
11718.513
11712.466
11705.264
11696.728
11686.657
11674.833
11661.009
11644.921
11626.273
11604.744
11579.986
11551.623
11519.258
11482.461
11440.771
11393.68
11340.649
11281.081
11214.352
11139.776
11056.636
10964.213
10862.095
10746.472
11760.097
11760.097
11760.096
11760.096
11760.095
11760.093
11760.091
11760.089
11760.086
11760.082
11760.076
11760.07
11760.061
11760.051
11760.038
11760.022
11760.001
11759.976
11759.944
11759.905
11759.855
11759.793
11759.716
11759.619
11759.496
11759.343
11759.149
11758.904
11758.595
11758.206
11757.714
11757.095
11756.319
11755.346
11754.134
11752.631
11750.776
11748.498
11745.717
11742.34
11738.26
11733.355
11727.488
11720.504
11712.228
11702.468
11691.007
11677.611
11662.016
11643.936
11623.059
11599.047
11571.537
11540.144
11504.449
11463.995
11418.295
11366.812
11308.971
11244.161
11171.716
11090.938
11001.144
10901.998
10789.369
11775.064
11775.064
11775.063
11775.063
11775.062
11775.061
11775.059
11775.057
11775.054
11775.05
11775.045
11775.039
11775.031
11775.021
11775.009
11774.994
11774.975
11774.951
11774.921
11774.883
11774.836
11774.777
11774.703
11774.61
11774.493
11774.345
11774.158
11773.922
11773.623
11773.246
11772.77
11772.171
11771.418
11770.476
11769.302
11767.845
11766.047
11763.841
11761.147
11757.876
11753.926
11749.18
11743.506
11736.755
11728.757
11719.327
11708.255
11695.31
11680.238
11662.762
11642.579
11619.364
11592.767
11562.415
11527.893
11488.763
11444.541
11394.709
11338.706
11275.94
11205.762
11127.495
11040.492
10944.504
10835.042
11790.93
11790.93
11790.93
11790.929
11790.928
11790.927
11790.926
11790.924
11790.921
11790.918
11790.914
11790.908
11790.901
11790.892
11790.881
11790.867
11790.849
11790.827
11790.8
11790.765
11790.722
11790.667
11790.598
11790.51
11790.399
11790.258
11790.08
11789.855
11789.569
11789.207
11788.75
11788.173
11787.448
11786.541
11785.41
11784.006
11782.273
11780.146
11777.548
11774.394
11770.585
11766.01
11760.543
11754.039
11746.338
11737.257
11726.595
11714.126
11699.608
11682.773
11663.331
11640.968
11615.347
11586.1
11552.83
11515.104
11472.456
11424.38
11370.331
11309.735
11241.964
11166.358
11082.31
10989.669
10883.545
11807.721
11807.721
11807.721
11807.721
11807.72
11807.719
11807.718
11807.716
11807.714
11807.711
11807.707
11807.702
11807.696
11807.688
11807.678
11807.666
11807.65
11807.63
11807.605
11807.574
11807.534
11807.483
11807.419
11807.338
11807.234
11807.102
11806.934
11806.72
11806.448
11806.103
11805.666
11805.115
11804.423
11803.554
11802.471
11801.127
11799.466
11797.425
11794.933
11791.906
11788.25
11783.859
11778.614
11772.374
11764.986
11756.273
11746.042
11734.079
11720.148
11703.995
11685.343
11663.886
11639.301
11611.229
11579.287
11543.054
11502.076
11455.863
11403.888
11345.592
11280.369
11207.577
11126.648
11037.548
10934.93
11825.465
11825.465
11825.465
11825.465
11825.465
11825.464
11825.463
11825.461
11825.459
11825.457
11825.453
11825.449
11825.443
11825.436
11825.427
11825.416
11825.402
11825.384
11825.361
11825.333
11825.296
11825.25
11825.19
11825.114
11825.017
11824.894
11824.735
11824.533
11824.276
11823.949
11823.535
11823.012
11822.353
11821.528
11820.497
11819.217
11817.634
11815.688
11813.31
11810.421
11806.93
11802.738
11797.727
11791.767
11784.709
11776.385
11766.612
11755.184
11741.877
11726.451
11708.634
11688.139
11664.651
11637.827
11607.292
11572.641
11533.434
11489.196
11439.415
11383.554
11321.022
11251.199
11173.555
11088.19
10989.252
11844.185
11844.185
11844.185
11844.184
11844.184
11844.183
11844.182
11844.181
11844.179
11844.177
11844.174
11844.169
11844.165
11844.158
11844.15
11844.14
11844.126
11844.11
11844.088
11844.062
11844.028
11843.984
11843.928
11843.857
11843.766
11843.649
11843.5
11843.31
11843.067
11842.759
11842.368
11841.874
11841.252
11840.472
11839.498
11838.287
11836.788
11834.943
11832.688
11829.945
11826.63
11822.648
11817.887
11812.223
11805.516
11797.606
11788.317
11777.456
11764.813
11750.153
11733.222
11713.746
11691.42
11665.915
11636.871
11603.894
11566.561
11524.413
11476.953
11423.662
11363.969
11297.27
11223.078
11141.645
11046.567
11863.888
11863.888
11863.888
11863.887
11863.887
11863.886
11863.885
11863.884
11863.882
11863.88
11863.877
11863.873
11863.868
11863.862
11863.854
11863.844
11863.831
11863.815
11863.795
11863.769
11863.737
11863.695
11863.642
11863.574
11863.488
11863.377
11863.237
11863.057
11862.829
11862.54
11862.173
11861.71
11861.127
11860.395
11859.48
11858.342
11856.931
11855.195
11853.068
11850.481
11847.353
11843.593
11839.097
11833.749
11827.413
11819.941
11811.166
11800.906
11788.963
11775.115
11759.122
11740.721
11719.623
11695.513
11668.043
11636.838
11601.487
11561.547
11516.538
11465.956
11409.252
11345.837
11275.266
11197.961
11106.934
11884.57
11884.57
11884.57
11884.57
11884.569
11884.569
11884.568
11884.566
11884.564
11884.562
11884.559
11884.555
11884.55
11884.544
11884.536
11884.526
11884.513
11884.498
11884.478
11884.453
11884.421
11884.381
11884.33
11884.266
11884.183
11884.079
11883.947
11883.778
11883.566
11883.296
11882.954
11882.524
11881.981
11881.3
11880.447
11879.385
11878.067
11876.442
11874.452
11872.029
11869.098
11865.574
11861.36
11856.345
11850.404
11843.395
11835.163
11825.54
11814.336
11801.345
11786.342
11769.076
11749.274
11726.636
11700.829
11671.494
11638.235
11600.627
11558.204
11510.478
11456.917
11396.948
11330.172
11257.202
11170.416
11906.219
11906.219
11906.218
11906.218
11906.218
11906.217
11906.216
11906.214
11906.213
11906.21
11906.207
11906.203
11906.198
11906.192
11906.184
11906.175
11906.162
11906.147
11906.127
11906.103
11906.073
11906.034
11905.986
11905.925
11905.848
11905.75
11905.627
11905.471
11905.274
11905.025
11904.71
11904.314
11903.814
11903.186
11902.398
11901.414
11900.193
11898.686
11896.838
11894.587
11891.864
11888.59
11884.674
11880.012
11874.487
11867.967
11860.31
11851.358
11840.933
11828.847
11814.886
11798.817
11780.381
11759.294
11735.242
11707.879
11676.828
11641.681
11601.984
11557.266
11507.009
11450.653
11387.854
11319.441
11237.084
11928.818
11928.818
11928.818
11928.818
11928.817
11928.816
11928.815
11928.814
11928.812
11928.81
11928.807
11928.803
11928.799
11928.792
11928.785
11928.776
11928.764
11928.75
11928.732
11928.708
11928.68
11928.644
11928.599
11928.543
11928.472
11928.382
11928.269
11928.127
11927.948
11927.722
11927.436
11927.076
11926.621
11926.047
11925.327
11924.426
11923.305
11921.92
11920.221
11918.151
11915.648
11912.636
11909.033
11904.744
11899.657
11893.654
11886.603
11878.355
11868.753
11857.618
11844.756
11829.946
11812.948
11793.495
11771.29
11746.006
11717.284
11684.73
11647.91
11606.362
11559.58
11507.011
11448.357
11384.69
11307.11
11952.355
11952.355
11952.355
11952.354
11952.354
11952.354
11952.353
11952.351
11952.35
11952.348
11952.345
11952.342
11952.338
11952.332
11952.325
11952.317
11952.307
11952.294
11952.278
11952.257
11952.232
11952.2
11952.16
11952.109
11952.046
11951.966
11951.866
11951.74
11951.58
11951.379
11951.124
11950.802
11950.393
11949.877
11949.226
11948.41
11947.393
11946.136
11944.593
11942.714
11940.44
11937.704
11934.432
11930.532
11925.906
11920.446
11914.029
11906.524
11897.786
11887.653
11875.944
11862.459
11846.973
11829.237
11808.976
11785.883
11759.615
11729.797
11696.009
11657.804
11614.686
11566.084
11511.706
11453.116
11380.543
11976.821
11976.821
11976.821
11976.821
11976.821
11976.82
11976.819
11976.818
11976.817
11976.815
11976.813
11976.81
11976.807
11976.803
11976.797
11976.79
11976.782
11976.771
11976.758
11976.74
11976.719
11976.692
11976.659
11976.616
11976.562
11976.494
11976.408
11976.299
11976.161
11975.985
11975.763
11975.48
11975.119
11974.66
11974.081
11973.353
11972.444
11971.32
11969.94
11968.26
11966.227
11963.781
11960.852
11957.361
11953.218
11948.326
11942.576
11935.851
11928.02
11918.937
11908.439
11896.344
11882.445
11866.515
11848.298
11827.509
11803.827
11776.895
11746.309
11711.635
11672.377
11627.909
11578.011
11524.794
11457.462
12002.208
12002.208
12002.208
12002.208
12002.207
12002.207
12002.206
12002.205
12002.205
12002.203
12002.202
12002.2
12002.197
12002.194
12002.19
12002.185
12002.179
12002.171
12002.16
12002.147
12002.131
12002.11
12002.084
12002.05
12002.007
12001.951
12001.88
12001.789
12001.673
12001.525
12001.334
12001.09
12000.777
12000.377
11999.871
11999.233
11998.437
11997.452
11996.243
11994.771
11992.989
11990.845
11988.275
11985.21
11981.571
11977.274
11972.222
11966.313
11959.432
11951.451
11942.222
11931.584
11919.35
11905.314
11889.243
11870.879
11849.921
11826.035
11798.833
11767.891
11732.699
11692.632
11647.349
11599.802
11538.109
12028.507
12028.506
12028.506
12028.506
12028.506
12028.506
12028.505
12028.505
12028.504
12028.503
12028.503
12028.501
12028.5
12028.498
12028.495
12028.492
12028.488
12028.483
12028.476
12028.467
12028.456
12028.441
12028.422
12028.396
12028.363
12028.32
12028.264
12028.19
12028.095
12027.973
12027.813
12027.607
12027.342
12027.002
12026.57
12026.026
12025.347
12024.507
12023.476
12022.221
12020.701
12018.868
12016.672
12014.051
12010.939
12007.261
12002.939
11997.884
11991.998
11985.168
11977.267
11968.151
11957.66
11945.609
11931.793
11915.976
11897.889
11877.218
11853.594
11826.598
11795.755
11760.339
11719.883
11678.277
11622.73
12055.698
12055.699
12055.699
12055.698
12055.698
12055.698
12055.698
12055.698
12055.697
12055.697
12055.697
12055.696
12055.695
12055.694
12055.693
12055.691
12055.689
12055.687
12055.683
12055.678
12055.671
12055.661
12055.648
12055.63
12055.605
12055.573
12055.53
12055.472
12055.397
12055.297
12055.168
12054.999
12054.782
12054.502
12054.147
12053.7
12053.142
12052.453
12051.606
12050.575
12049.325
12047.817
12046.009
12043.849
12041.283
12038.253
12034.692
12030.529
12025.68
12020.052
12013.536
12006.012
11997.342
11987.37
11975.915
11962.774
11947.707
11930.423
11910.592
11887.813
11861.6
11831.188
11795.919
11760.496
11711.524
12083.756
12083.756
12083.756
12083.756
12083.756
12083.756
12083.755
12083.756
12083.755
12083.755
12083.755
12083.755
12083.754
12083.754
12083.753
12083.753
12083.752
12083.75
12083.748
12083.745
12083.741
12083.735
12083.726
12083.713
12083.695
12083.671
12083.638
12083.594
12083.535
12083.458
12083.357
12083.225
12083.055
12082.837
12082.561
12082.213
12081.78
12081.245
12080.589
12079.788
12078.817
12077.646
12076.238
12074.557
12072.56
12070.203
12067.436
12064.201
12060.433
12056.056
12050.985
12045.121
12038.351
12030.549
12021.566
12011.225
11999.33
11985.631
11969.826
11951.542
11930.322
11905.368
11875.89
11846.891
11804.488
12112.628
12112.628
12112.628
12112.628
12112.628
12112.627
12112.627
12112.627
12112.627
12112.626
12112.626
12112.626
12112.626
12112.626
12112.625
12112.625
12112.624
12112.623
12112.622
12112.62
12112.617
12112.612
12112.605
12112.596
12112.582
12112.564
12112.539
12112.506
12112.463
12112.406
12112.333
12112.238
12112.117
12111.961
12111.765
12111.519
12111.214
12110.838
12110.376
12109.813
12109.129
12108.303
12107.311
12106.126
12104.72
12103.064
12101.121
12098.851
12096.204
12093.127
12089.555
12085.414
12080.623
12075.084
12068.683
12061.282
12052.718
12042.789
12031.257
12017.802
12002.007
11983.094
11960.264
11937.567
11902.234
12142.254
12142.254
12142.253
12142.253
12142.253
12142.253
12142.252
12142.252
12142.252
12142.251
12142.251
12142.25
12142.25
12142.249
12142.248
12142.247
12142.246
12142.245
12142.243
12142.241
12142.238
12142.233
12142.227
12142.22
12142.208
12142.194
12142.176
12142.152
12142.123
12142.086
12142.039
12141.982
12141.91
12141.818
12141.703
12141.561
12141.386
12141.171
12140.908
12140.589
12140.202
12139.733
12139.169
12138.498
12137.705
12136.774
12135.686
12134.414
12132.93
12131.202
12129.186
12126.837
12124.104
12120.923
12117.216
12112.883
12107.815
12101.857
12094.835
12086.525
12076.599
12064.446
12049.387
12033.961
12007.384
12173.895
12173.894
12173.894
12173.894
12173.893
12173.893
12173.892
12173.892
12173.891
12173.89
12173.889
12173.888
12173.887
12173.885
12173.884
12173.882
12173.88
12173.877
12173.874
12173.87
12173.866
12173.86
12173.853
12173.845
12173.835
12173.823
12173.81
12173.795
12173.779
12173.761
12173.741
12173.721
12173.699
12173.674
12173.647
12173.617
12173.584
12173.546
12173.502
12173.449
12173.384
12173.305
12173.212
12173.103
12172.98
12172.839
12172.678
12172.491
12172.267
12171.999
12171.671
12171.268
12170.771
12170.154
12169.38
12168.397
12167.143
12165.536
12163.471
12160.829
12157.43
12152.935
12147.352
12142.246
12132.486
12207.182
12207.182
12207.181
12207.181
12207.18
12207.179
12207.179
12207.178
12207.177
12207.176
12207.174
12207.173
12207.171
12207.169
12207.166
12207.164
12207.16
12207.156
12207.152
12207.147
12207.14
12207.134
12207.126
12207.118
12207.109
12207.1
12207.093
12207.087
12207.086
12207.089
12207.1
12207.121
12207.154
12207.202
12207.268
12207.359
12207.479
12207.633
12207.821
12208.052
12208.332
12208.67
12209.078
12209.57
12210.16
12210.863
12211.691
12212.658
12213.777
12215.065
12216.539
12218.215
12220.108
12222.232
12224.596
12227.201
12230.042
12233.112
12236.388
12239.867
12243.535
12247.349
12251.671
12257.246
12261.446
12240.404
12240.404
12240.403
12240.402
12240.402
12240.401
12240.4
12240.399
12240.398
12240.397
12240.395
12240.394
12240.392
12240.39
12240.387
12240.385
12240.381
12240.378
12240.373
12240.369
12240.364
12240.358
12240.352
12240.347
12240.342
12240.34
12240.342
12240.348
12240.364
12240.391
12240.433
12240.495
12240.582
12240.699
12240.856
12241.062
12241.327
12241.661
12242.076
12242.587
12243.209
12243.963
12244.874
12245.967
12247.271
12248.816
12250.634
12252.758
12255.225
12258.078
12261.364
12265.132
12269.435
12274.323
12279.853
12286.081
12293.062
12300.863
12309.552
12319.229
12330.008
12342.065
12355.818
12371.718
12389.479
12273.418
12273.418
12273.417
12273.416
12273.416
12273.415
12273.414
12273.414
12273.413
12273.412
12273.411
12273.409
12273.408
12273.406
12273.404
12273.402
12273.4
12273.397
12273.394
12273.392
12273.389
12273.386
12273.384
12273.383
12273.385
12273.39
12273.402
12273.422
12273.455
12273.505
12273.577
12273.678
12273.817
12274.004
12274.25
12274.569
12274.976
12275.49
12276.128
12276.915
12277.876
12279.044
12280.453
12282.144
12284.159
12286.542
12289.345
12292.621
12296.432
12300.848
12305.946
12311.807
12318.52
12326.177
12334.879
12344.735
12355.867
12368.409
12382.515
12398.382
12416.233
12436.394
12459.352
12485.692
12516.235
12306.068
12306.068
12306.067
12306.067
12306.066
12306.066
12306.065
12306.064
12306.064
12306.063
12306.062
12306.062
12306.061
12306.06
12306.059
12306.059
12306.058
12306.058
12306.058
12306.058
12306.059
12306.06
12306.064
12306.069
12306.079
12306.094
12306.118
12306.153
12306.206
12306.281
12306.386
12306.529
12306.723
12306.98
12307.315
12307.746
12308.296
12308.987
12309.847
12310.908
12312.206
12313.783
12315.687
12317.97
12320.688
12323.902
12327.681
12332.101
12337.248
12343.218
12350.117
12358.06
12367.17
12377.581
12389.441
12402.911
12418.173
12435.43
12454.916
12476.919
12501.771
12529.922
12561.971
12598.688
12641.209
12338.229
12338.228
12338.228
12338.227
12338.227
12338.226
12338.226
12338.226
12338.226
12338.225
12338.225
12338.225
12338.226
12338.226
12338.227
12338.228
12338.23
12338.232
12338.234
12338.238
12338.243
12338.25
12338.259
12338.273
12338.291
12338.318
12338.355
12338.408
12338.483
12338.586
12338.726
12338.915
12339.166
12339.493
12339.918
12340.463
12341.154
12342.023
12343.103
12344.435