/*--------------------------------*- C++ -*----------------------------------*\
  =========                 |
  \\      /  F ield         | OpenFOAM: The Open Source CFD Toolbox
   \\    /   O peration     | Website:  https://openfoam.org
    \\  /    A nd           | Version:  13
     \\/     M anipulation  |
\*---------------------------------------------------------------------------*/
FoamFile
{
    format      ascii;
    class       volVectorField;
    location    "26.798457";
    object      UMean;
}
// * * * * * * * * * * * * * * * * * * * * * * * * * * * * * * * * * * * * * //

dimensions      [0 1 -1 0 0 0 0];

internalField   nonuniform List<vector> 
17140
(
(-2.5209965e-06 0.00011801858 -1.2841792e-22)
(-2.8614063e-05 0.00036378634 -1.050792e-23)
(-8.4426959e-05 0.00063310384 6.946253e-22)
(-0.00018141255 0.00092754104 -7.6399775e-22)
(-0.0003301175 0.001248743 8.9366073e-23)
(-0.0005449004 0.001598237 -2.9259604e-22)
(-0.00084344215 0.0019773812 -4.9294921e-22)
(-0.0012471188 0.0023872769 2.4112354e-22)
(-0.0017816999 0.0028286621 7.8982845e-22)
(-0.0024780317 0.0033017838 1.9400349e-21)
(-0.0033727357 0.0038062484 -2.8832136e-21)
(-0.0045088887 0.0043408513 2.5757813e-21)
(-0.0059366448 0.0049033911 3.949674e-22)
(-0.0077137216 0.0054904719 -2.2460144e-21)
(-0.0099056629 0.0060973133 2.5036768e-22)
(-0.012585763 0.0067175795 -1.9954926e-21)
(-0.015834529 0.007343265 7.5213731e-23)
(-0.01973856 0.0079646632 -1.6379679e-23)
(-0.024388741 0.0085704661 -1.2065146e-21)
(-0.029877719 0.0091480374 1.5808141e-21)
(-0.036296738 0.0096838944 -7.675678e-22)
(-0.043732094 0.010164425 1.4912943e-22)
(-0.05226159 0.010576813 1.1037262e-21)
(-0.061951891 0.010910153 -1.1092288e-21)
(-0.072858436 0.011156677 -1.7825542e-21)
(-0.085025474 0.011313076 1.4494682e-21)
(-0.098484941 0.011381651 7.1680583e-21)
(-0.11326782 0.01137021 8.4523441e-22)
(-0.12940571 0.011291487 -7.5433597e-21)
(-0.14693719 0.01116063 -1.7703905e-21)
(-0.16590232 0.010987932 -6.3812377e-21)
(-0.18633234 0.010776595 8.4859722e-21)
(-0.20826098 0.0105255 -2.2178483e-21)
(-0.23171186 0.010231689 -1.0724106e-21)
(-0.25669451 0.0098909203 -1.0539441e-20)
(-0.28319573 0.0094972914 4.6676274e-21)
(-0.31116937 0.0090434395 -7.0195394e-21)
(-0.34052393 0.0085209528 -4.7489011e-21)
(-0.371108 0.0079209321 -2.1657669e-21)
(-0.40269373 0.0072360196 6.5760517e-21)
(-0.43496091 0.0064622946 1.2324246e-20)
(-0.46748157 0.005600959 1.1101498e-20)
(-0.49970173 0.0046560333 4.8096748e-21)
(-0.53093194 0.003630802 -2.2983192e-20)
(-0.56034507 0.0025258982 -1.6547944e-20)
(-0.58697217 0.001342689 4.0095145e-21)
(-0.60981246 7.8086097e-05 -2.6798591e-20)
(-0.62789839 -0.0012782608 -8.9495116e-21)
(-0.64010305 -0.0027298618 8.9833294e-21)
(-0.64560511 -0.0042450749 2.1707538e-20)
(-0.64363744 -0.0057821786 -1.3248702e-20)
(-0.63358948 -0.0073118679 -8.3235041e-21)
(-0.61480475 -0.0088396345 2.1647454e-20)
(-0.58681239 -0.010347536 1.0256033e-20)
(-0.54893079 -0.011747872 7.3735497e-21)
(-0.50085028 -0.012924338 -5.8083244e-21)
(-0.44222408 -0.013734607 1.6079097e-20)
(-0.37307504 -0.013956418 1.3641152e-20)
(-0.29313149 -0.013291463 3.4992437e-21)
(-0.20363824 -0.011459755 -9.1159584e-21)
(-0.10459077 -0.008337517 -7.3129908e-21)
(-0.00037587388 -0.0041029929 -2.7588462e-20)
(0.11042075 0.00060017207 -4.119981e-21)
(0.21690852 0.0048408154 3.4990889e-20)
(0.33053095 0.0069248976 -2.7453387e-20)
(-2.2693618e-05 0.00053103555 3.6419678e-23)
(-9.0357926e-05 0.0016359529 -3.6372272e-21)
(-0.00019109802 0.0028454328 3.2375421e-21)
(-0.00033643703 0.0041662258 -8.832077e-22)
(-0.00053694792 0.0056049466 -1.8249986e-21)
(-0.00080695841 0.007167551 3.4890904e-21)
(-0.0011640085 0.0088590393 -3.640591e-21)
(-0.0016292319 0.010683034 3.2073086e-22)
(-0.0022280177 0.012641268 -1.0025217e-21)
(-0.0029906694 0.014732966 -1.6735671e-23)
(-0.0039530753 0.016954151 -3.3589746e-21)
(-0.0051573624 0.019296844 5.3518983e-21)
(-0.0066524954 0.021748221 4.4323763e-22)
(-0.0084947475 0.024289744 -4.390724e-21)
(-0.010747958 0.02689636 1.3550068e-21)
(-0.01348347 0.029535871 8.6440202e-22)
(-0.016779632 0.032168632 -5.5076384e-21)
(-0.020720733 0.034747776 1.8054418e-20)
(-0.025395305 0.037220199 -1.1379354e-20)
(-0.030893712 0.039528525 1.3724276e-20)
(-0.037305152 0.041614254 -2.043517e-20)
(-0.044714256 0.043422099 5.0522863e-21)
(-0.053197709 0.044905317 2.102156e-21)
(-0.062821653 0.046031434 -6.9168141e-21)
(-0.073641536 0.046787421 2.5130623e-20)
(-0.08570253 0.04718324 3.7640233e-21)
(-0.099037317 0.047251849 -1.9820736e-20)
(-0.1136777 0.047041898 2.2411425e-20)
(-0.1296562 0.046609094 -3.1501356e-21)
(-0.14701096 0.046003873 -3.0768182e-20)
(-0.16578133 0.045265315 3.2470309e-21)
(-0.1859971 0.044417818 2.4843813e-20)
(-0.20769013 0.043473024 5.9029231e-22)
(-0.23088135 0.042433456 -1.879384e-20)
(-0.25557664 0.041293509 2.1121273e-20)
(-0.28175834 0.040039459 -9.5333734e-21)
(-0.30937494 0.038650021 1.1340998e-20)
(-0.33832845 0.037097452 3.5977813e-20)
(-0.36845985 0.035349016 8.0112371e-21)
(-0.39953288 0.033370068 3.1325812e-20)
(-0.43121758 0.031127928 -4.0111018e-20)
(-0.46307387 0.028593797 -3.652801e-20)
(-0.49453271 0.02574216 -6.1109659e-21)
(-0.52488273 0.022549564 4.9215499e-20)
(-0.55326434 0.018999693 -2.2765079e-20)
(-0.57867484 0.015100018 -7.7477945e-21)
(-0.60004721 0.010885524 4.1831851e-21)
(-0.61635546 0.0063931484 1.269669e-20)
(-0.62658969 0.0016818532 -6.1382221e-21)
(-0.62982486 -0.0031387293 1.0953521e-20)
(-0.62529823 -0.007986833 6.5535965e-20)
(-0.61238603 -0.012809527 3.1325652e-21)
(-0.59050672 -0.017580396 -1.4074131e-20)
(-0.55917726 -0.022277296 3.1387295e-20)
(-0.51788029 -0.026817775 -2.7006772e-20)
(-0.46633227 -0.031060717 7.7531499e-20)
(-0.40417261 -0.034849891 2.2384786e-20)
(-0.33156711 -0.037918714 -6.4477439e-20)
(-0.2482918 -0.03989681 1.1056955e-20)
(-0.15565995 -0.040360691 1.2986832e-20)
(-0.053748208 -0.038922756 2.6707081e-21)
(0.05270041 -0.035677041 -3.5933452e-20)
(0.16527353 -0.030888152 7.1481509e-20)
(0.27308589 -0.02631486 2.1562006e-20)
(0.388631 -0.022654903 3.6519636e-20)
(-6.5462765e-05 0.00093520677 2.0062591e-21)
(-0.00022103058 0.0028811847 -1.0949503e-21)
(-0.00041677274 0.0050114048 -2.9124471e-22)
(-0.00066412823 0.0073378774 2.7638046e-22)
(-0.00097378444 0.0098722606 -1.3395414e-21)
(-0.0013599044 0.01262507 -9.940167e-23)
(-0.0018396774 0.015605144 -1.2743223e-21)
(-0.0024336376 0.018818906 -1.3742228e-21)
(-0.0031662748 0.022269451 1.1253493e-20)
(-0.0040666341 0.025955473 -1.0065026e-20)
(-0.0051689287 0.029870015 4.8271224e-21)
(-0.0065131374 0.03399907 7.0891698e-21)
(-0.008145556 0.038320066 -1.4104544e-20)
(-0.01011924 0.042800322 -1.7507015e-21)
(-0.012494254 0.047395609 6.7968969e-21)
(-0.015337647 0.052048996 4.6953226e-21)
(-0.018723035 0.056690295 -5.4776641e-21)
(-0.022729688 0.061236413 1.9958781e-20)
(-0.027441036 0.06559308 -1.1892382e-20)
(-0.032942553 0.069658352 5.9241856e-21)
(-0.039319073 0.073328248 -2.0174319e-20)
(-0.046651744 0.076504597 -5.2981131e-21)
(-0.055014951 0.079104742 1.1172443e-20)
(-0.06447384 0.081071982 -1.6981313e-20)
(-0.075083977 0.082384981 -6.7359593e-21)
(-0.086892429 0.083063891 8.2369874e-21)
(-0.099933519 0.083170032 4.7148937e-20)
(-0.11424109 0.082792595 2.1501124e-20)
(-0.12984872 0.082029928 -1.0954274e-20)
(-0.14679368 0.080968954 1.1694142e-20)
(-0.16511467 0.079678801 -7.5348728e-21)
(-0.18483804 0.078206223 -4.2557971e-20)
(-0.20599157 0.076576372 1.4386338e-20)
(-0.22859029 0.074797489 4.320795e-20)
(-0.25263233 0.07286262 -1.4693247e-20)
(-0.27809028 0.070750294 -2.0541402e-20)
(-0.30490068 0.068425371 3.5727399e-20)
(-0.33295109 0.065840593 1.085466e-20)
(-0.36206509 0.062939207 -1.956326e-20)
(-0.39198588 0.059658862 -7.8925328e-21)
(-0.42235878 0.055936806 3.7610548e-20)
(-0.45271278 0.051712388 -1.0795622e-20)
(-0.48243945 0.046927507 -1.5439539e-20)
(-0.51077844 0.041528796 -4.0666792e-20)
(-0.53680881 0.035480859 7.6939719e-20)
(-0.55946824 0.028799225 -4.9229675e-20)
(-0.57766218 0.021573303 -1.2135808e-20)
(-0.59031001 0.013911593 -4.8206449e-20)
(-0.59639383 0.0059186917 -5.7393519e-20)
(-0.59503667 -0.0022170297 -2.8800076e-21)
(-0.58556009 -0.01033268 1.2078261e-20)
(-0.56743313 -0.018347092 -8.9767498e-20)
(-0.54018003 -0.026245884 -3.842081e-20)
(-0.50337516 -0.034012338 -3.976375e-20)
(-0.45661907 -0.041557392 -1.3128984e-20)
(-0.39970897 -0.048720887 -1.0349838e-19)
(-0.33242827 -0.055314136 4.1517908e-20)
(-0.25509193 -0.061037209 -1.2983301e-20)
(-0.16753144 -0.065438966 -1.0833719e-19)
(-0.071286893 -0.067954687 -4.3909638e-20)
(0.033567189 -0.067876394 5.3604199e-20)
(0.14180337 -0.065331506 1.8816397e-19)
(0.25541751 -0.060158002 -6.1454108e-20)
(0.36258059 -0.055171596 -9.9904046e-20)
(0.47720274 -0.049547078 -4.3375517e-20)
(-0.00012948257 0.0013167517 -6.687609e-21)
(-0.00041657926 0.0040573612 7.8453097e-21)
(-0.00075448195 0.0070582859 -2.8377511e-21)
(-0.0011544499 0.010336796 3.0871564e-22)
(-0.0016273381 0.013909638 -6.1045091e-21)
(-0.0021870683 0.017792057 6.3221171e-21)
(-0.0028502832 0.02199703 -9.5976596e-21)
(-0.0036366042 0.026534247 4.5232998e-21)
(-0.0045691574 0.031408837 1.7217725e-20)
(-0.0056750818 0.036619859 -4.1498852e-21)
(-0.0069860548 0.042158549 -1.5835792e-20)
(-0.0085388029 0.048006333 4.8503046e-21)
(-0.010375583 0.054132663 3.267996e-22)
(-0.01254457 0.060492786 -1.2785562e-20)
(-0.015100103 0.067025615 4.0211677e-20)
(-0.018102696 0.073651988 -2.4838413e-20)
(-0.021618749 0.08027368 -2.37914e-22)
(-0.025719844 0.086773691 1.3946598e-20)
(-0.030481566 0.093018442 -3.5744176e-20)
(-0.035981806 0.098862456 1.7052237e-20)
(-0.042298579 0.10415617 2.5724511e-20)
(-0.049507504 0.10875698 1.0532603e-20)
(-0.057679202 0.11254319 -5.2894179e-20)
(-0.066877064 0.11542926 -2.8012406e-20)
(-0.077156662 0.11737991 1.8438137e-20)
(-0.088567426 0.11841947 -1.0865413e-20)
(-0.10114666 0.11863281 4.1484989e-20)
(-0.11493118 0.11814854 -1.2076891e-20)
(-0.12995545 0.11710628 3.3075927e-20)
(-0.14625634 0.11563172 -1.9009323e-20)
(-0.16387186 0.11382521 1.1852377e-20)
(-0.18282325 0.11175743 -4.4229847e-20)
(-0.20313196 0.10946842 6.4681085e-21)
(-0.22480437 0.10697265 -3.4226189e-20)
(-0.2478273 0.10426211 3.3171493e-20)
(-0.27215914 0.10130766 1.0546068e-20)
(-0.29771879 0.098060267 -1.3466464e-19)
(-0.32437248 0.094453031 -3.5213474e-20)
(-0.35191844 0.090404656 2.9460265e-20)
(-0.38006999 0.085824561 -2.9034237e-20)
(-0.40843708 0.080618657 7.3760444e-21)
(-0.4365053 0.074692528 4.6810005e-20)
(-0.46361386 0.067953494 -2.2124699e-21)
(-0.4889411 0.060318213 -1.5398188e-20)
(-0.51149963 0.051737291 7.6535338e-21)
(-0.53018629 0.042247526 -3.3781161e-21)
(-0.5439098 0.031989144 -1.0448549e-20)
(-0.55156906 0.021146407 1.6355794e-19)
(-0.55220793 0.0099167317 -1.8114382e-20)
(-0.54507114 -0.0014220971 1.6703258e-20)
(-0.52962468 -0.012648288 -1.5649326e-19)
(-0.50546453 -0.023659453 8.589432e-20)
(-0.47221986 -0.034453632 7.056825e-20)
(-0.42955461 -0.045027413 6.7793673e-20)
(-0.37717188 -0.055292653 6.5876258e-20)
(-0.3150155 -0.065080707 1.0477055e-19)
(-0.24301606 -0.074178857 -2.1198073e-19)
(-0.16165331 -0.082275547 1.3265896e-19)
(-0.070823711 -0.088836812 2.0567167e-19)
(0.027657154 -0.093183864 -1.5356913e-19)
(0.13369309 -0.094248039 -5.0333199e-20)
(0.2414754 -0.09224559 -4.5323404e-20)
(0.35364112 -0.086418515 2.3178047e-19)
(0.45733947 -0.0808087 1.7235604e-19)
(0.56668071 -0.073194367 -7.6758111e-21)
(-0.00021186602 0.0016619355 4.6800386e-21)
(-0.00066826818 0.0051224058 -1.1430563e-20)
(-0.0011891947 0.0089132695 9.3231616e-21)
(-0.001785691 0.013056991 -3.5253169e-21)
(-0.0024688438 0.017575414 -1.2743248e-21)
(-0.0032522838 0.022488691 1.0976695e-20)
(-0.0041519727 0.027814315 -2.7846762e-21)
(-0.0051863838 0.033565862 -5.9197146e-21)
(-0.0063769158 0.039751409 -4.5542519e-22)
(-0.0077482836 0.046371657 -3.8747633e-21)
(-0.0093289272 0.053417716 5.4403408e-21)
(-0.011151407 0.060868588 -3.7951308e-21)
(-0.013252783 0.06868838 -1.4038537e-20)
(-0.015674931 0.076823392 -4.0793407e-22)
(-0.018464753 0.085199244 1.0855821e-20)
(-0.021674242 0.09371844 7.7432228e-21)
(-0.025360311 0.10225875 -6.716177e-21)
(-0.029584352 0.11067314 6.5580553e-22)
(-0.034411444 0.11879201 1.3378646e-20)
(-0.039909184 0.12642858 1.6489771e-20)
(-0.04614615 0.13338828 -1.9078462e-20)
(-0.053190086 0.13948254 -1.9480254e-20)
(-0.061105978 0.14454662 2.6623693e-20)
(-0.06995427 0.14845976 -3.3449223e-20)
(-0.079790066 0.15116446 -5.880922e-20)
(-0.090664612 0.15268025 1.4090317e-19)
(-0.10262073 0.1531073 -7.8752843e-20)
(-0.11569782 0.15260923 1.1817069e-19)
(-0.12993088 0.15136646 -1.4964947e-19)
(-0.14535893 0.14954727 1.6903527e-19)
(-0.16201784 0.14728321 -1.7673416e-19)
(-0.1799235 0.14467103 3.0164814e-20)
(-0.19908885 0.14176803 1.046495e-19)
(-0.21950961 0.13859617 -5.9529652e-20)
(-0.24115859 0.13514698 1.8784293e-20)
(-0.26397637 0.13138372 5.6043797e-21)
(-0.28786005 0.12724332 6.8223946e-20)
(-0.31264985 0.12263923 2.2176586e-20)
(-0.33811375 0.1174656 2.2230744e-20)
(-0.36393031 0.11160309 2.2332577e-20)
(-0.38966861 0.10492493 -1.1388135e-19)
(-0.41476563 0.097300798 4.9908537e-20)
(-0.43850547 0.088602396 7.6180645e-21)
(-0.46000782 0.078718397 -9.0469654e-20)
(-0.47823624 0.06759534 -4.5275604e-20)
(-0.49208794 0.055308254 2.23082e-20)
(-0.50051246 0.042066657 7.9429083e-20)
(-0.50248106 0.028123674 -3.4579267e-20)
(-0.49714799 0.013784366 9.9177507e-20)
(-0.48390333 -0.00057968737 5.35097e-20)
(-0.46233594 -0.014691773 7.3742231e-20)
(-0.43214618 -0.028452066 1.9675969e-19)
(-0.39302843 -0.041890758 -1.5269014e-19)
(-0.34470256 -0.055023009 4.9416555e-20)
(-0.28696798 -0.067746567 -8.6787919e-20)
(-0.21994527 -0.079868263 -8.3223836e-20)
(-0.14377773 -0.091166334 -3.2754633e-20)
(-0.05914081 -0.10135088 -3.0740537e-19)
(0.033978954 -0.1097831 -8.4661969e-20)
(0.1334103 -0.11569406 1.9755712e-19)
(0.23901549 -0.11758122 7.6023927e-20)
(0.34431765 -0.11594514 -5.8779608e-20)
(0.45259791 -0.10934331 -1.2361442e-19)
(0.55084048 -0.10276292 -1.930731e-19)
(0.6515756 -0.09310799 1.5205593e-20)
(-0.00030818999 0.0019576019 1.4153536e-20)
(-0.00096264671 0.006035968 3.6642569e-21)
(-0.0016977652 0.010506443 -2.9700058e-21)
(-0.0025243775 0.015396531 -1.0970185e-20)
(-0.0034538799 0.02073311 6.0146596e-21)
(-0.0044996112 0.026541389 -8.6662492e-21)
(-0.0056767921 0.032843772 3.7545439e-21)
(-0.0070026174 0.039658429 8.9550854e-22)
(-0.0084965381 0.046997478 -5.0796334e-21)
(-0.010180511 0.054864817 -1.0974212e-20)
(-0.012079265 0.063253533 -5.5034333e-22)
(-0.014220559 0.072142919 1.8169471e-20)
(-0.016635423 0.081495128 -2.5251423e-20)
(-0.019358371 0.091251582 4.1017747e-20)
(-0.02242756 0.10132937 -1.0795844e-20)
(-0.025884857 0.11161792 2.3121417e-20)
(-0.029775803 0.12197663 -2.8242845e-20)
(-0.034149418 0.13223401 1.8552934e-20)
(-0.03905783 0.14218941 -2.9748547e-21)
(-0.0445557 0.15161854 -1.2237758e-20)
(-0.050699437 0.16028359 3.0226464e-20)
(-0.057546252 0.16794907 -4.3438083e-20)
(-0.065153102 0.17440292 4.8130517e-20)
(-0.073575622 0.17948139 8.3886193e-21)
(-0.082867347 0.18309412 -8.4370499e-20)
(-0.093080328 0.18524356 8.6921058e-20)
(-0.10426415 0.18603257 -5.7639452e-20)
(-0.11646044 0.1856501 6.5766605e-20)
(-0.12970739 0.18432014 6.2145335e-21)
(-0.14404639 0.18225501 3.9034255e-21)
(-0.15950907 0.1796184 -2.74265e-20)
(-0.17610903 0.17653592 1.7500317e-21)
(-0.19384777 0.17308563 -1.0565795e-19)
(-0.21270933 0.16929901 2.902771e-20)
(-0.23265036 0.16516814 8.7120757e-20)
(-0.25359138 0.16064905 -4.1049844e-20)
(-0.27540537 0.15566504 3.4057008e-20)
(-0.2979044 0.15011034 -3.4205733e-20)
(-0.32082443 0.14385488 -1.9148374e-19)
(-0.34380751 0.13675011 1.0614087e-19)
(-0.36638083 0.12863523 2.5892074e-20)
(-0.38793428 0.11934317 -1.4653367e-19)
(-0.40770409 0.10871118 8.8103327e-21)
(-0.42476893 0.096605988 1.8000563e-20)
(-0.43808087 0.082984054 1.9035268e-19)
(-0.4466028 0.067975513 4.3638295e-20)
(-0.44935495 0.051867327 -6.7755002e-20)
(-0.44545361 0.034977252 -6.8553715e-20)
(-0.43416671 0.01771782 -9.636492e-20)
(-0.41497762 0.00054104294 -1.1774701e-19)
(-0.38753544 -0.016231322 -7.1375182e-20)
(-0.35160889 -0.03250715 -1.114481e-19)
(-0.30693366 -0.048354074 3.8232592e-20)
(-0.25328298 -0.063795901 -2.3645295e-19)
(-0.19056689 -0.078699083 -1.5877207e-20)
(-0.11911584 -0.092841098 -1.39188e-20)
(-0.039292988 -0.10598915 -7.5242778e-21)
(0.047950228 -0.11791662 3.3077981e-19)
(0.14256385 -0.12787071 1.3223447e-19)
(0.24190299 -0.13503437 -2.0771161e-19)
(0.34571092 -0.13742725 -3.056751e-19)
(0.44710959 -0.13586633 -1.3976975e-19)
(0.54931797 -0.12847896 -4.6538958e-20)
(0.64043849 -0.12057752 2.7382976e-19)
(0.7306669 -0.10881883 -6.9801348e-20)
(-0.00041256794 0.0021920633 -2.6507405e-21)
(-0.0012820258 0.006762052 -6.1614846e-21)
(-0.0022496093 0.011775311 1.4880467e-20)
(-0.0033262516 0.017264046 -5.5438277e-22)
(-0.0045236409 0.02326002 -7.2581514e-21)
(-0.0058548836 0.029793555 -3.2025479e-21)
(-0.0073344878 0.03689231 -2.3680678e-21)
(-0.0089783641 0.044579748 4.6755674e-21)
(-0.010803963 0.052873185 -2.4259339e-20)
(-0.012830372 0.061781414 1.8361799e-20)
(-0.015078425 0.071301854 -8.8988833e-22)
(-0.017570784 0.081417198 -1.1198423e-20)
(-0.020332031 0.092091599 4.2122531e-20)
(-0.023388735 0.10326646 -4.2253212e-20)
(-0.02676951 0.11485606 5.6776192e-21)
(-0.030505057 0.12674337 3.542176e-20)
(-0.034628199 0.13877653 -3.367536e-20)
(-0.039173901 0.15076692 1.1929237e-20)
(-0.044179285 0.16248987 -2.3491744e-20)
(-0.049683659 0.17368934 3.0638828e-20)
(-0.055728533 0.18408794 5.8539987e-20)
(-0.062357654 0.19340367 -5.9059511e-20)
(-0.069616995 0.2013734 -8.8156636e-20)
(-0.07755468 0.20778211 1.7341094e-19)
(-0.086220663 0.21249388 -1.4170491e-19)
(-0.095666653 0.21547839 8.3710596e-20)
(-0.10594671 0.21682455 -2.1988273e-20)
(-0.11710848 0.21673239 5.268869e-20)
(-0.12919489 0.21546801 -5.4878298e-20)
(-0.14224544 0.21328723 -7.4779296e-20)
(-0.15629191 0.21039291 5.0472821e-20)
(-0.17134732 0.20694079 8.4232865e-20)
(-0.18739964 0.20303322 -7.5709655e-21)
(-0.20442067 0.19871504 -3.1946921e-21)
(-0.22234971 0.19398093 -5.578974e-20)
(-0.24108615 0.18878101 2.4304837e-20)
(-0.26047825 0.18302596 8.9529302e-20)
(-0.28030977 0.17659157 4.5077303e-20)
(-0.30028472 0.16932375 -6.9397928e-20)
(-0.32000949 0.16104456 5.510582e-20)
(-0.33897204 0.15155893 -4.6579735e-20)
(-0.35652233 0.14066416 1.5804118e-20)
(-0.37186415 0.12816742 5.9109931e-20)
(-0.38406502 0.11392473 -1.4070201e-19)
(-0.3921168 0.097920586 -8.3201538e-20)
(-0.39510239 0.080348766 -5.3567299e-20)
(-0.39216101 0.061563695 1.6633841e-19)
(-0.38255203 0.0419417 1.0683616e-19)
(-0.36560273 0.021966334 1.241195e-19)
(-0.34079481 0.0021683808 2.1476127e-19)
(-0.30781007 -0.017070431 -7.3611802e-20)
(-0.26647815 -0.035658448 1.5509179e-20)
(-0.21657321 -0.0537048 1.2313345e-19)
(-0.15795165 -0.071236997 3.6315174e-19)
(-0.090681368 -0.088069363 2.4170371e-19)
(-0.015341386 -0.10394159 9.6477428e-20)
(0.067541205 -0.11860471 2.8631487e-19)
(0.15676511 -0.13193963 -1.9758203e-19)
(0.25219573 -0.14304062 2.0754537e-20)
(0.35064395 -0.15105249 3.3484292e-19)
(0.45142088 -0.1536238 2.3273611e-19)
(0.5478612 -0.1517884 1.1114608e-20)
(0.64252792 -0.14356471 -3.8671158e-19)
(0.72507098 -0.13427428 4.0791807e-20)
(0.80329218 -0.12029353 -5.9677277e-20)
(-0.00051803405 0.0023558162 -1.0371523e-20)
(-0.0016051346 0.0072712529 5.0999929e-21)
(-0.0028080519 0.012668594 -6.8935219e-21)
(-0.0041381331 0.018584249 -3.920855e-21)
(-0.005607352 0.025054557 1.0952953e-20)
(-0.007228686 0.032114864 1.0236863e-20)
(-0.0090160387 0.039798285 -1.0521356e-20)
(-0.010984155 0.048134165 1.2678144e-21)
(-0.013148611 0.057146078 2.9431709e-22)
(-0.015525759 0.066849386 2.0988561e-20)
(-0.018132655 0.077248238 -2.3128045e-21)
(-0.020986972 0.088331983 -4.2671607e-20)
(-0.024106894 0.10007102 3.4303756e-20)
(-0.027511014 0.11241206 -1.1919376e-21)
(-0.031218245 0.12527308 -2.3331901e-20)
(-0.03524777 0.13853815 -2.028537e-21)
(-0.039619063 0.15205268 5.2163176e-21)
(-0.044352045 0.1656201 2.3817303e-20)
(-0.049467395 0.17900084 -4.4280723e-20)
(-0.054987093 0.19191534 7.9153144e-20)
(-0.060935234 0.20405291 -1.7401833e-20)
(-0.067339043 0.21508783 1.301638e-20)
(-0.074230082 0.22470406 -1.0958075e-20)
(-0.081645404 0.2326276 4.4516307e-22)
(-0.089628243 0.23866334 -6.7585227e-20)
(-0.098227983 0.24272968 -6.8782262e-20)
(-0.10749953 0.24488117 1.3882105e-19)
(-0.11749987 0.2453085 2.3508031e-20)
(-0.12827633 0.2443033 -8.3425477e-20)
(-0.13986579 0.24217469 -3.0128937e-20)
(-0.1523037 0.23917365 -6.8952052e-20)
(-0.16560209 0.23548227 7.8996459e-20)
(-0.1797396 0.23123284 3.4930709e-20)
(-0.19467269 0.22648976 -8.2085451e-20)
(-0.21032328 0.22125344 3.4870743e-20)
(-0.22656992 0.2154708 1.6401425e-20)
(-0.24323653 0.20904155 -4.9473344e-20)
(-0.26007936 0.2018242 -1.2983251e-19)
(-0.27677176 0.19364136 -3.9486483e-20)
(-0.29288662 0.18428618 2.6523151e-20)
(-0.30787764 0.17353087 6.2937902e-20)
(-0.32106573 0.16114107 6.4846953e-20)
(-0.33164229 0.14690249 7.1448654e-20)
(-0.33869731 0.13067492 1.4900972e-19)
(-0.34131311 0.11248773 -4.0333826e-21)
(-0.3387136 0.092602337 6.1988987e-20)
(-0.33018162 0.071411397 -3.3154863e-19)
(-0.31505358 0.04931854 -9.0933484e-20)
(-0.29263038 0.026845946 -1.0307266e-19)
(-0.26239131 0.0046162795 -2.8347377e-19)
(-0.22410016 -0.016901563 3.2963987e-19)
(-0.17765442 -0.037615158 -7.3450528e-20)
(-0.12287061 -0.057667433 -2.3668025e-19)
(-0.059715511 -0.077071864 -2.9281792e-19)
(0.011567497 -0.095577445 -3.7647769e-20)
(0.090151253 -0.11290402 9.5919233e-20)
(0.1753732 -0.12879694 1.571119e-19)
(0.26594041 -0.14323799 -6.7451052e-20)
(0.36150419 -0.15514992 1.2384382e-19)
(0.4583307 -0.16359131 -1.0541432e-19)
(0.55507933 -0.16605 -3.6188582e-20)
(0.64567409 -0.1635995 -1.0873075e-19)
(0.73183793 -0.15436754 4.8219664e-19)
(0.80418137 -0.14345266 1.5693468e-20)
(0.8684718 -0.12719499 1.9647214e-19)
(-0.00061694703 0.0024423429 9.6517271e-21)
(-0.001908402 0.007543296 1.878063e-21)
(-0.003332497 0.013150648 -2.0650477e-21)
(-0.0049010468 0.019304365 -1.0156646e-20)
(-0.0066263901 0.02604485 1.2191614e-20)
(-0.0085214974 0.033412163 -1.0364102e-20)
(-0.010599835 0.041444846 -4.9594094e-21)
(-0.012875212 0.05017846 2.6661157e-22)
(-0.015361619 0.059643661 4.2031539e-21)
(-0.018073031 0.0698638 2.3961479e-20)
(-0.02102316 0.080851925 -4.0356862e-20)
(-0.024225183 0.092607148 4.8672493e-20)
(-0.027691434 0.10511028 -1.4360558e-20)
(-0.031433097 0.11831878 -1.9596592e-20)
(-0.035459921 0.1321611 3.0260232e-20)
(-0.03978 0.1465306 -6.0134679e-20)
(-0.044399701 0.1612796 7.3588195e-20)
(-0.049323797 0.17621425 1.1667194e-21)
(-0.054555939 0.19109137 4.3230953e-20)
(-0.060099558 0.20561901 -1.7427666e-19)
(-0.065959298 0.21946269 4.2942385e-20)
(-0.072142999 0.23225949 1.8098929e-19)
(-0.078664129 0.24364194 -8.7333229e-20)
(-0.085544366 0.25327196 -1.0636468e-19)
(-0.092815774 0.26088247 2.7342067e-20)
(-0.10052175 0.26632053 1.4591631e-19)
(-0.10871598 0.2695813 -2.25703e-19)
(-0.11745886 0.27081979 2.550297e-19)
(-0.1268084 0.27032663 -2.0435937e-19)
(-0.1368053 0.26845771 3.9798159e-20)
(-0.1474765 0.26553187 -6.9204097e-20)
(-0.15883766 0.26177081 -9.9829427e-20)
(-0.17086697 0.25732499 4.0006415e-20)
(-0.18350372 0.25228614 1.0529976e-20)
(-0.19665398 0.24667036 1.5080473e-19)
(-0.21017452 0.24042555 -2.9688401e-20)
(-0.22386568 0.23344272 7.6374518e-20)
(-0.23745715 0.22556443 -6.4924078e-20)
(-0.25059296 0.21659122 3.8862966e-20)
(-0.26281506 0.20628906 2.5260522e-20)
(-0.27354847 0.19440111 2.1643183e-20)
(-0.28209657 0.18066857 2.1474632e-20)
(-0.28765797 0.16486784 -1.3042434e-19)
(-0.28937179 0.14687856 -1.0192197e-19)
(-0.28644256 0.126786 2.8651443e-20)
(-0.27821196 0.10491364 -1.7899511e-20)
(-0.26408302 0.081652506 7.4338088e-20)
(-0.24338521 0.057393154 -1.4587023e-19)
(-0.21541087 0.032688502 -1.6826076e-19)
(-0.17977422 0.0082721221 -4.8437129e-20)
(-0.13638093 -0.015302486 -1.2705967e-19)
(-0.085168076 -0.037937596 4.0558826e-21)
(-0.025960891 -0.059799756 6.1573218e-20)
(0.041147259 -0.080880905 3.0022111e-19)
(0.11574026 -0.10084887 -1.5133513e-19)
(0.19679116 -0.11941677 6.1760951e-20)
(0.28358636 -0.13633684 -1.8342611e-19)
(0.37489861 -0.15164134 3.1286377e-19)
(0.46995631 -0.16403236 -1.8239591e-19)
(0.56444065 -0.17241274 6.3941965e-20)
(0.6565589 -0.17428073 -7.9684986e-23)
(0.74066496 -0.17087962 5.2039582e-20)
(0.81724246 -0.16041925 1.9534499e-19)
(0.87711597 -0.14799543 -3.721277e-19)
(0.92523134 -0.12983059 3.8368832e-19)
(-0.00070144711 0.0024488394 -2.1371612e-20)
(-0.0021677454 0.0075691886 -1.0644765e-20)
(-0.0037813011 0.013205242 1.6722831e-20)
(-0.0055544104 0.019399679 -4.4054317e-22)
(-0.0074998288 0.026196217 -1.5149534e-20)
(-0.0096306411 0.033639049 -7.9318649e-21)
(-0.011960081 0.041771791 1.6748455e-20)
(-0.01450132 0.050636187 -2.755156e-21)
(-0.017267179 0.060270367 3.8958444e-20)
(-0.020269803 0.070706626 -7.6185326e-21)
(-0.023520256 0.081968591 -1.9557241e-22)
(-0.027028065 0.094067699 2.8270421e-20)
(-0.03080072 0.10699886 -9.1152261e-20)
(-0.034843136 0.12073528 4.2788496e-20)
(-0.039157137 0.13522241 7.7343114e-20)
(-0.043740999 0.1503712 -8.3299844e-20)
(-0.048589161 0.16605092 1.0375573e-20)
(-0.053692196 0.18208221 -5.983597e-20)
(-0.05903723 0.19823154 -4.5189627e-20)
(-0.06460896 0.21420847 1.4483402e-19)
(-0.070391449 0.22966816 -1.1100641e-19)
(-0.07637087 0.24422171 1.4938197e-19)
(-0.082539041 0.25745697 -1.7981552e-20)
(-0.088897584 0.26897152 7.5154006e-20)
(-0.095461861 0.27841701 -1.6735601e-19)
(-0.1022637 0.28554986 4.0553082e-20)
(-0.10935136 0.29027791 1.0458945e-19)
(-0.11678558 0.29268813 -2.5804591e-19)
(-0.12463026 0.29303844 1.143394e-19)
(-0.13293867 0.29170095 1.2509204e-19)
(-0.14173719 0.28906102 -1.0513527e-19)
(-0.15102834 0.28541703 -1.4141322e-20)
(-0.16079556 0.28095791 7.2523119e-20)
(-0.17097345 0.27578923 -4.0631738e-20)
(-0.18144657 0.26994235 6.2973893e-20)
(-0.19205507 0.26337642 -2.2367569e-19)
(-0.20257651 0.25597993 1.1842435e-19)
(-0.2127135 0.24758277 7.1747936e-20)
(-0.22208073 0.23796581 1.4797343e-19)
(-0.23019121 0.22687101 1.9539957e-20)
(-0.23644687 0.21401812 -1.5968277e-19)
(-0.24014359 0.1991333 6.4312231e-20)
(-0.24050166 0.18199697 9.4721023e-20)
(-0.23672411 0.16252333 1.4854942e-20)
(-0.22813327 0.1408538 -9.0780765e-20)
(-0.21414899 0.11735556 -7.9212079e-20)
(-0.19423993 0.092390976 2.3874612e-19)
(-0.16772371 0.06632299 1.2537551e-19)
(-0.13405766 0.039745975 2.7019799e-19)
(-0.093117345 0.013492435 9.4410021e-20)
(-0.044933975 -0.011837575 3.6514941e-20)
(0.010586641 -0.036161812 2.6981469e-19)
(0.073629414 -0.059647059 1.062393e-19)
(0.1439939 -0.082223842 -3.5883932e-19)
(0.22111416 -0.10346584 2.89772e-19)
(0.30385657 -0.12308471 -2.6844232e-19)
(0.39166093 -0.14085487 1.2995729e-19)
(0.48336481 -0.15674951 -6.3359845e-19)
(0.5774735 -0.16925032 -3.1972914e-19)
(0.66934897 -0.17718441 1.3038433e-19)
(0.75663124 -0.1782208 2.0559269e-19)
(0.83339112 -0.1735085 3.4557442e-19)
(0.89828749 -0.16155679 6.0984613e-20)
(0.94254797 -0.14751105 4.8131398e-20)
(0.97295221 -0.12789017 -5.1255039e-19)
(-0.00076421275 0.0023768429 -3.844763e-22)
(-0.0023606742 0.0073531812 1.9746756e-20)
(-0.0041154921 0.012838978 -2.3294857e-20)
(-0.0060413948 0.018878589 -1.1219866e-20)
(-0.008151556 0.025518053 2.2494923e-20)
(-0.010459266 0.032804799 7.2955347e-21)
(-0.01297772 0.040786779 -3.5437912e-20)
(-0.015719772 0.049511411 3.8210154e-20)
(-0.018697555 0.059024117 8.0801542e-21)
(-0.021922042 0.06936641 3.2238095e-20)
(-0.02540252 0.080573383 -8.5913716e-20)
(-0.029145978 0.092670474 -1.0529577e-21)
(-0.033156421 0.10566941 7.7916874e-20)
(-0.037434115 0.11956315 -8.4184774e-20)
(-0.041974813 0.13431976 6.0741971e-20)
(-0.046769017 0.14987526 2.2735053e-20)
(-0.051801366 0.16612551 -4.8030441e-20)
(-0.057050298 0.18291774 4.3915009e-20)
(-0.062488188 0.20004236 5.9338905e-20)
(-0.068082162 0.21722674 -1.2839101e-21)
(-0.073795955 0.23413308 -9.6975291e-20)
(-0.079592924 0.25036329 6.1175127e-20)
(-0.085440482 0.26547431 -3.4814156e-20)
(-0.091315562 0.27900693 -1.7215989e-19)
(-0.097210585 0.29052927 -5.8775645e-20)
(-0.10313856 0.29969234 1.6327686e-19)
(-0.10913533 0.30628889 -1.6649011e-20)
(-0.11525698 0.31030006 1.9200752e-19)
(-0.12157042 0.31191005 -1.1597493e-19)
(-0.12813735 0.3114688 6.2357019e-20)
(-0.13499539 0.30940064 -9.2138861e-20)
(-0.14214954 0.30609099 -2.2818568e-20)
(-0.14956549 0.30180403 1.1696003e-19)
(-0.15716866 0.29668088 -1.2264009e-19)
(-0.16484236 0.29077506 -1.8207694e-19)
(-0.17240889 0.28405494 1.8862016e-20)
(-0.17962172 0.27640733 2.0235471e-19)
(-0.18615799 0.26765242 -2.6195429e-19)
(-0.19160365 0.25755588 5.725047e-20)
(-0.19544533 0.24584168 -1.2310765e-19)
(-0.19706747 0.23221407 1.9040442e-20)
(-0.19576729 0.21639428 -1.9383207e-19)
(-0.19079531 0.19817791 -9.3041825e-20)
(-0.18142507 0.17751866 -1.1492844e-19)
(-0.1670537 0.15461282 4.6156819e-19)
(-0.1471658 0.12984655 1.4945083e-19)
(-0.12126848 0.10355585 -1.9827053e-19)
(-0.088782936 0.076091026 1.6040521e-19)
(-0.049497077 0.048091122 1.3336328e-19)
(-0.0035435628 0.020425396 -1.4997817e-19)
(0.048999215 -0.0063282359 -7.8192776e-20)
(0.10831341 -0.032120968 -1.8295294e-19)
(0.17460115 -0.057048917 -8.8776496e-20)
(0.24760559 -0.080943714 3.0409263e-19)
(0.32664584 -0.10329762 1.7174173e-19)
(0.41066668 -0.12384781 2.7719861e-20)
(0.49940385 -0.14234472 -1.1287636e-21)
(0.59155056 -0.15860215 1.5689217e-19)
(0.68472925 -0.17087887 -2.2831782e-19)
(0.77395256 -0.17783648 -2.9754625e-19)
(0.85565442 -0.17735282 -8.3817111e-20)
(0.92288981 -0.17080049 -6.3893788e-19)
(0.97235022 -0.15715974 -5.1015986e-19)
(0.99835346 -0.14214891 -1.3028367e-19)
(1.0108719 -0.12239148 -6.9628012e-20)
(-0.00079925369 0.002232593 1.2986087e-20)
(-0.0024687216 0.0069139369 8.275924e-21)
(-0.0043029662 0.012083404 -1.7222141e-20)
(-0.0063150255 0.017785819 2.953935e-20)
(-0.0085184161 0.024068315 7.4015643e-21)
(-0.010926656 0.030980347 -3.1749009e-20)