/*--------------------------------*- C++ -*----------------------------------*\
  =========                 |
  \\      /  F ield         | OpenFOAM: The Open Source CFD Toolbox
   \\    /   O peration     | Website:  https://openfoam.org
    \\  /    A nd           | Version:  13
     \\/     M anipulation  |
\*---------------------------------------------------------------------------*/
FoamFile
{
    format      ascii;
    class       volScalarField;
    location    "2.003482";
    object      nut;
}
// * * * * * * * * * * * * * * * * * * * * * * * * * * * * * * * * * * * * * //

dimensions      [0 2 -1 0 0 0 0];

internalField   nonuniform List<scalar> 
17140
(
6.5736949e-19
1.2785018e-16
3.4054022e-15
3.4525944e-14
2.0882902e-13
9.2541526e-13
3.342664e-12
1.0464237e-11
2.9496585e-11
7.6781248e-11
1.8782896e-10
4.372896e-10
9.7800424e-10
2.1162887e-09
4.455368e-09
9.1660284e-09
1.8493346e-08
3.6699715e-08
7.1812518e-08
1.3885524e-07
2.6581213e-07
5.0459614e-07
9.5090159e-07
1.778295e-06
3.2877416e-06
5.9411815e-06
9.840029e-06
1.1286257e-05
1.2491527e-05
1.3497798e-05
1.4428741e-05
1.5437821e-05
1.6657523e-05
1.8189884e-05
2.0136291e-05
2.2640062e-05
2.5932337e-05
3.0399738e-05
3.6728481e-05
4.6277694e-05
6.2321029e-05
8.9565259e-05
9.7219152e-05
0.00010638503
0.0001171678
0.00012906144
0.00014130787
0.00014895341
0.00015832252
0.00015712238
0.00015013112
0.00014066295
0.00013201002
0.00012649413
0.00012579133
0.00013126667
0.00014466409
0.00016856175
0.00020764823
0.00026936605
0.00036258491
0.00046315159
0.00049654819
0.00065647699
0.0009263209
6.4975391e-19
1.2636895e-16
3.3659517e-15
3.4126067e-14
2.0641127e-13
9.1470556e-13
3.3039961e-12
1.0343233e-11
2.9155594e-11
7.5893693e-11
1.8565721e-10
4.3222984e-10
9.6667232e-10
2.0917118e-09
4.4034488e-09
9.058693e-09
1.8275351e-08
3.6263365e-08
7.0949379e-08
1.3716416e-07
2.6252486e-07
4.9825014e-07
9.3874607e-07
1.7553085e-06
3.2454392e-06
5.8679474e-06
9.8730949e-06
1.1332616e-05
1.2549665e-05
1.3564162e-05
1.4497562e-05
1.5503266e-05
1.6715328e-05
1.8235679e-05
2.0162513e-05
2.263026e-05
2.5850604e-05
3.0177519e-05
3.6263195e-05
4.5473301e-05
6.1183985e-05
8.535018e-05
9.1528434e-05
9.8698729e-05
0.00010709549
0.00011667921
0.00012697707
0.00013360624
0.00014192225
0.00014407987
0.00014093278
0.00013492104
0.00012872133
0.00012474086
0.00012494712
0.00013102386
0.00014497714
0.00016952003
0.00020936973
0.00027183321
0.00036543672
0.00045858789
0.00049314103
0.00065145256
0.00092640482
6.3201397e-19
1.2291873e-16
3.274051e-15
3.3194297e-14
2.0077512e-13
8.8972622e-13
3.2137504e-12
1.0060627e-11
2.8358585e-11
7.3817471e-11
1.8057251e-10
4.203729e-10
9.4009331e-10
2.0340145e-09
4.2814533e-09
8.806263e-09
1.7762226e-08
3.5235372e-08
6.8914094e-08
1.3317279e-07
2.547576e-07
4.8323543e-07
9.0993231e-07
1.7006613e-06
3.1443578e-06
5.6912577e-06
9.8493219e-06
1.1439643e-05
1.2683017e-05
1.3712205e-05
1.4646459e-05
1.5639759e-05
1.6826868e-05
1.8308401e-05
2.0175369e-05
2.2544963e-05
2.5596832e-05
2.9634232e-05
3.5236437e-05
4.3650341e-05
5.7952708e-05
7.5762483e-05
7.904734e-05
8.2675531e-05
8.7077172e-05
9.2494012e-05
9.9035222e-05
0.0001041375
0.00011081067
0.00011726136
0.00012042421
0.00012072838
0.0001195337
0.00011914104
0.00012184112
0.00012958728
0.00014497928
0.00017103486
0.00021255384
0.00027661556
0.00037111168
0.00045091044
0.00048806237
0.00064440569
0.00092679688
6.0410664e-19
1.1749108e-16
3.1294795e-15
3.1728495e-14
1.9190862e-13
8.5042964e-13
3.071777e-12
9.6160266e-12
2.7104703e-11
7.0551063e-11
1.7257307e-10
4.0171953e-10
8.9828121e-10
1.9432574e-09
4.0895817e-09
8.4093219e-09
1.6955546e-08
3.3619755e-08
6.5716469e-08
1.2690408e-07
2.4256176e-07
4.5966072e-07
8.6466841e-07
1.6146668e-06
2.9845947e-06
5.4091804e-06
9.4032282e-06
1.161281e-05
1.2902699e-05
1.39577e-05
1.4893565e-05
1.5864356e-05
1.7006282e-05
1.8416361e-05
2.0172572e-05
2.2366255e-05
2.5134096e-05
2.8710801e-05
3.3556699e-05
4.0649962e-05
5.2383968e-05
6.2774951e-05
6.2858672e-05
6.2924009e-05
6.3466902e-05
6.5141499e-05
6.8572929e-05
7.2976678e-05
7.922409e-05
8.7563293e-05
9.6019155e-05
0.00010276396
0.00010688219
0.00011055145
0.00011604858
0.00012622576
0.00014384355
0.000172157
0.00021606157
0.00028240254
0.00037834911
0.00044244773
0.00048313714
0.00063864425
0.00092772941
5.6673279e-19
1.1022233e-16
2.9358686e-15
2.9765492e-14
1.8003465e-13
7.978041e-13
2.8816501e-12
9.0206432e-12
2.5425638e-11
6.6177301e-11
1.6186273e-10
3.7674841e-10
8.4231939e-10
1.8218226e-09
3.8329556e-09
7.8786962e-09
1.5877913e-08
3.1463279e-08
6.1452701e-08
1.1855519e-07
2.2634053e-07
4.283482e-07
8.0461947e-07
1.5006315e-06
2.7723934e-06
5.0321808e-06
8.7979435e-06
1.1868048e-05
1.3227353e-05
1.432283e-05
1.5263931e-05
1.6204094e-05
1.7281015e-05
1.8586771e-05
2.018206e-05
2.2125897e-05
2.4506202e-05
2.7480797e-05
3.1336442e-05
3.658046e-05
4.5115143e-05
4.8908737e-05
4.638822e-05
4.3796016e-05
4.1746336e-05
4.1171757e-05
4.3017906e-05
4.7407197e-05
5.5850054e-05
6.5567657e-05
7.5975456e-05
8.7191285e-05
9.4814e-05
0.00010098289
0.00010914035
0.0001219288
0.00014214075
0.00017317502
0.00021998678
0.00028916114
0.00038711157
0.00043353464
0.00047863427
0.00063477678
0.00092947717
5.211461e-19
1.0135629e-16
2.6997125e-15
2.7371132e-14
1.6555152e-13
7.3361557e-13
2.6497539e-12
8.2944875e-12
2.3377904e-11
6.0843723e-11
1.4880394e-10
3.4630835e-10
7.7412198e-10
1.6738991e-09
3.5205287e-09
7.2331728e-09
1.4568188e-08
2.8845485e-08
5.6284326e-08
1.0845234e-07
2.067499e-07
3.9061095e-07
7.3239165e-07
1.3636244e-06
2.5171299e-06
4.5755826e-06
8.0515664e-06
1.2231273e-05
1.3687855e-05
1.4844039e-05
1.5798704e-05
1.6703152e-05
1.7697963e-05
1.8872794e-05
2.0273744e-05
2.1931892e-05
2.3795707e-05
2.5895907e-05
2.8592631e-05
3.2060881e-05
3.7369025e-05
3.595362e-05
3.1828189e-05
2.7898634e-05
2.4955451e-05
2.3340902e-05
2.4229593e-05
2.8348611e-05
3.8339388e-05
5.0807088e-05
6.2098013e-05
7.3798023e-05
8.4738498e-05
9.3269337e-05
0.00010366566
0.00011868362
0.00014136818
0.00017521335
0.0002251933
0.00029755401
0.0003979164
0.00042419198
0.00047472007
0.00063296582
0.00093206756
4.6900425e-19
9.1215366e-17
2.4295991e-15
2.4632491e-14
1.4898602e-13
6.6019937e-13
2.3845291e-12
7.4640099e-12
2.1036172e-11
5.4745126e-11
1.3387473e-10
3.1151733e-10
6.9620528e-10
1.5049792e-09
3.1639975e-09
6.4971778e-09
1.3076599e-08
2.5868414e-08
5.0416706e-08
9.7005778e-08
1.846042e-07
3.4805448e-07
6.5111793e-07
1.2096316e-06
2.2296922e-06
4.0569059e-06
7.1838436e-06
1.2026196e-05
1.432737e-05
1.5577626e-05
1.6563871e-05
1.7433796e-05
1.8332233e-05
1.9350094e-05
2.0514557e-05
2.1727409e-05
2.3041788e-05
2.4407678e-05
2.5844021e-05
2.7527518e-05
3.0095792e-05
2.5245533e-05
2.0567494e-05
1.6414141e-05
1.3420808e-05
1.1961177e-05
1.1957209e-05
1.4984391e-05
2.4062713e-05
3.9066076e-05
5.3418134e-05
6.579281e-05
7.9821064e-05
9.0142689e-05
0.00010167534
0.00011817403
0.00014289628
0.00017936361
0.00023252734
0.0003082032
0.00041117367
0.00041464224
0.00047146157
0.00063316201
0.00093544742
4.1220766e-19
8.0169148e-17
2.1353723e-15
2.1649383e-14
1.3094197e-13
5.8023212e-13
2.095648e-12
6.5595104e-12
1.8485944e-11
4.8104418e-11
1.1762164e-10
2.7365191e-10
6.1143729e-10
1.3213081e-09
2.776622e-09
5.6982996e-09
1.1459621e-08
2.2646185e-08
4.4078117e-08
8.4668518e-08
1.6079673e-07
3.0243026e-07
5.6420867e-07
1.0452121e-06
1.9223482e-06
3.4975648e-06
6.2259737e-06
1.0581758e-05
1.5220173e-05
1.6615021e-05
1.7655245e-05
1.8502532e-05
1.929542e-05
2.0114002e-05
2.0947676e-05
2.1795453e-05
2.2539381e-05
2.3108996e-05
2.3427102e-05
2.3600804e-05
2.2255555e-05
1.7240211e-05
1.2795257e-05
9.2223007e-06
7.0360943e-06
6.07629e-06
6.1057948e-06
7.9133801e-06
1.4050876e-05
2.8970205e-05
4.7432394e-05
6.1915932e-05
7.8073968e-05
9.1144333e-05
0.00010331987
0.00012093325
0.00014739265
0.00018629437
0.00024257105
0.00032156363
0.00039603052
0.00040523943
0.00046900638
0.00063534117
0.00093950926
3.5299142e-19
6.8652315e-17
1.8286096e-15
1.8539195e-14
1.1212953e-13
4.968615e-13
1.7944847e-12
5.6166164e-12
1.5827727e-11
4.1183553e-11
1.006866e-10
2.3421029e-10
5.231805e-10
1.1301968e-09
2.3738957e-09
4.8686939e-09
9.7828829e-09
1.9310994e-08
3.7532127e-08
7.1962067e-08
1.3635393e-07
2.5575196e-07
4.7560723e-07
8.780753e-07
1.6100858e-06
2.9261045e-06
5.2288347e-06
9.012284e-06
1.4467165e-05
1.8116619e-05
1.9262644e-05
2.0087286e-05
2.0746509e-05
2.1354923e-05
2.1886045e-05
2.2293324e-05
2.2459897e-05
2.2272668e-05
2.1640271e-05
2.0638841e-05
1.6360432e-05
1.1775446e-05
8.0326188e-06
5.4633836e-06
4.1202109e-06
3.5667929e-06
3.7011303e-06
4.8840558e-06
8.7354195e-06
2.1572259e-05
4.1705328e-05
5.9347928e-05
7.7384816e-05
9.4139165e-05
0.00010756791
0.00012648316
0.00015473612
0.00019611037
0.00025552429
0.00033785495
0.00037574056
0.00039637666
0.00046742374
0.00063939531
0.00094408586
2.9377549e-19
5.7135555e-17
1.5218492e-15
1.5429049e-14
9.3317603e-14
4.1349542e-13
1.4933514e-12
4.6738822e-12
1.3170244e-11
3.4265693e-11
8.376285e-11
1.9480815e-10
4.3505381e-10
9.3949303e-10
1.9723884e-09
4.04259e-09
8.1158314e-09
1.6001676e-08
3.1053024e-08
5.9423268e-08
1.1231899e-07
2.1003614e-07
3.8919849e-07
7.1569002e-07
1.3072304e-06
2.3697204e-06
4.2416262e-06
7.3912609e-06
1.2183196e-05
1.8195643e-05
2.1666061e-05
2.2503019e-05
2.3046902e-05
2.3403019e-05
2.3570471e-05
2.3502788e-05
2.3080689e-05
2.2175188e-05
2.0690859e-05
1.6948681e-05
1.2331071e-05
8.3505275e-06
5.3736996e-06
3.7083245e-06
2.8953627e-06
2.5820166e-06
2.7374919e-06
3.5724393e-06
6.3668731e-06
1.6985427e-05
3.7476279e-05
5.8178122e-05
7.8338647e-05
9.8369528e-05
0.00011347952
0.0001340623
0.0001644029
0.00020851561
0.00027125656
0.00035685201
0.00035675915
0.0003884064
0.00046679063
0.00064502697
0.00094909015
2.3697768e-19
4.6089075e-17
1.227614e-15
1.244589e-14
7.5274007e-14
3.3353661e-13
1.2045403e-12
3.7697914e-12
1.0621973e-11
2.7633206e-11
6.7541053e-11
1.5705311e-10
3.5065154e-10
7.5697089e-10
1.588459e-09
3.2536253e-09
6.5263097e-09
1.2852869e-08
2.4904434e-08
4.756269e-08
8.9672289e-08
1.6715384e-07
3.0854295e-07
5.6484573e-07
1.0268627e-06
1.8541574e-06
3.3161448e-06
5.8194167e-06
9.8050101e-06
1.5280673e-05
2.107935e-05
2.5478244e-05
2.6816853e-05
2.6847117e-05
2.6535628e-05
2.587015e-05
2.4731783e-05
2.2224996e-05
1.8312393e-05
1.3948354e-05
9.7850424e-06
6.378134e-06
4.0930554e-06
2.9299092e-06
2.4191556e-06
2.262458e-06
2.3767037e-06
3.0216377e-06
5.3019517e-06
1.4706401e-05
3.5437113e-05
5.8391168e-05
8.0887995e-05
0.00010355648
0.00012039015
0.00014299828
0.00017585267
0.00022310991
0.00028948907
0.00032596596
0.00033961508
0.00038154442
0.000467034
0.00065201102
0.00095432999
1.8479309e-19
3.593982e-17
9.5727843e-16
9.7050739e-15
5.8696491e-14
2.6007666e-13
9.3921542e-13
2.9392812e-12
8.281348e-12
2.1542129e-11
5.2646867e-11
1.2239939e-10
2.7321845e-10
5.8962887e-10
1.2367762e-09
2.5318055e-09
5.0744188e-09
9.9827886e-09
1.9315264e-08
3.6817668e-08
6.9240107e-08
1.2865298e-07
2.3652701e-07
4.3093814e-07
7.7923876e-07
1.3997328e-06
2.4953568e-06
4.3908697e-06
7.5137669e-06
1.2138349e-05
1.7741126e-05
2.2726491e-05
2.5754276e-05
2.6824958e-05
2.6451463e-05
2.5145358e-05
2.2931807e-05
1.9817465e-05
1.6023792e-05
1.1999528e-05
8.3224454e-06
5.4113734e-06
3.5761237e-06
2.674504e-06
2.299158e-06
2.1843074e-06
2.2379603e-06
2.7920524e-06
4.8418204e-06
1.3831931e-05
3.5029295e-05
5.9707289e-05
8.4573907e-05
0.00010902538
0.00012767831
0.0001527281
0.00018863801
0.00023954776
0.00028641839
0.0002990152
0.00032461312
0.00037579318
0.0004681853
0.00066021528
0.00095966646
1.389515e-19
2.7024215e-17
7.1980358e-16
7.2974467e-15
4.4134489e-14
1.9554992e-13
7.0616655e-13
2.2098514e-12
6.2258104e-12
1.6193747e-11
3.9571562e-11
9.1986898e-11
2.0529162e-10
4.4291942e-10
9.2871136e-10
1.9002303e-09
3.8059977e-09
7.4804856e-09
1.4455182e-08
2.7505738e-08
5.1607049e-08
9.5594394e-08
1.7505477e-07
3.1737762e-07
5.7058981e-07
1.0186201e-06
1.8063224e-06
3.1739923e-06
5.4781264e-06
9.0980142e-06
1.4023453e-05
1.9244307e-05
2.3110166e-05
2.4732367e-05
2.4699915e-05
2.3377695e-05
2.1145881e-05
1.8135833e-05
1.4590475e-05
1.0940935e-05
7.645076e-06
5.1435085e-06
3.5853994e-06
2.7725748e-06
2.4272151e-06
2.2507257e-06
2.2091972e-06
2.7005854e-06
4.6725672e-06
1.3967637e-05
3.6243666e-05
6.2426323e-05
8.9521042e-05
0.00011449169
0.00013507192
0.0001629568
0.00020248413
0.00023777503
0.00025248124
0.00027620437
0.00031178455
0.00037111993
0.00047021046
0.00066964091
0.0009648247
1.005342e-19
1.9552542e-17
5.2078997e-16
5.2797795e-15
3.1931294e-14
1.4147706e-13
5.1088263e-13
1.5986654e-12
4.5036532e-12
1.1713419e-11
2.8620538e-11
6.6522307e-11
1.4843763e-10
3.2019028e-10
6.7118996e-10
1.3728087e-09
2.7482105e-09
5.3975848e-09
1.0419638e-08
1.9798407e-08
3.7072018e-08
6.8481883e-08
1.2494545e-07
2.2545466e-07
4.0295787e-07
7.1451837e-07
1.2584213e-06
2.2005468e-06
3.8044032e-06
6.4235833e-06
1.0323715e-05
1.5187548e-05
1.9698108e-05
2.2289403e-05
2.2874337e-05
2.1956378e-05
1.9914153e-05
1.7090289e-05
1.3840125e-05
1.0535453e-05
7.6820184e-06
5.3685008e-06
3.8937088e-06
3.2090111e-06
2.8371944e-06
2.5387198e-06
2.3603228e-06
2.8550578e-06
4.9111276e-06
1.5451458e-05
3.8995739e-05
6.6549498e-05
9.5451567e-05
0.00011974165
0.00014258461
0.00017372409
0.0001897086
0.00020313421
0.00022576032
0.00025749045
0.0003010879
0.000367501
0.00047299669
0.00067989858
0.000969851
6.9894418e-20
1.3593506e-17
3.6206733e-16
3.6706146e-15
2.2198975e-14
9.8354077e-14
3.5515127e-13
1.1113002e-12
3.1305139e-12
8.1415317e-12
1.9891443e-11
4.6229087e-11
1.0314392e-10
2.2245845e-10
4.6624317e-10
9.5341154e-10
1.9080381e-09
3.7457948e-09
7.2262073e-09
1.3716903e-08
2.5646332e-08
4.7272205e-08
8.5980685e-08
1.5448745e-07
2.745894e-07
4.835879e-07
8.4519688e-07
1.4673019e-06
2.5272148e-06
4.2926796e-06
7.0815031e-06
1.1019308e-05
1.5538597e-05
1.9185477e-05
2.0815289e-05
2.0542199e-05
1.8982988e-05
1.6623337e-05
1.3700738e-05
1.0782414e-05
7.8954149e-06
5.9680359e-06
4.6202905e-06
4.0839972e-06
3.5505709e-06
2.9361048e-06
2.5869948e-06
3.1521956e-06
5.6874455e-06
1.8946691e-05
4.3387755e-05
7.1975376e-05
0.00010166231
0.00012467431
0.00014253196
0.00014715431
0.00015908044
0.00017774484
0.000205474
0.00024274903
0.00029252277
0.00036484225
0.00047620279
0.00069053474
0.00097463846
4.6662797e-20
9.0752693e-18
2.4172196e-16
2.4505415e-15
1.4820049e-14
6.5659716e-14
2.3708621e-13
7.4183439e-13
2.0896349e-12
5.4342177e-12
1.3276112e-11
3.0852622e-11
6.8832262e-11
1.4844633e-10
3.1110405e-10
6.3612811e-10
1.2729573e-09
2.4986771e-09
4.8190942e-09
9.1433726e-09
1.7080906e-08
3.1439401e-08
5.7053776e-08
1.0216379e-07
1.8071574e-07
3.1623873e-07
5.4838779e-07
9.4380643e-07
1.6130615e-06
2.7323484e-06
4.5534337e-06
7.3395972e-06
1.109669e-05
1.5133074e-05
1.7967754e-05
1.8915137e-05
1.8118751e-05
1.599973e-05
1.2557794e-05
9.5950512e-06
7.3370976e-06
6.0805208e-06
5.7775738e-06
5.3325475e-06
4.3694162e-06
3.180103e-06
2.7703185e-06
3.5164479e-06
7.1261262e-06
2.321321e-05
4.9726384e-05
7.8784025e-05
0.0001073088
0.00010855511
0.00011281951
0.00012218057
0.00013766024
0.00015956658
0.0001907643
0.00023178241
0.00028604825
0.00036297455
0.00047960508
0.00070089467
0.0009791608
2.9934891e-20
5.821922e-18
1.5506789e-16
1.5720432e-15
9.5070455e-15
4.2119689e-14
1.5208257e-13
4.7584354e-13
1.3403228e-12
3.4854316e-12
8.5147401e-12
1.9786839e-11
4.4143472e-11
9.5201692e-11
1.9952507e-10
4.0801301e-10
8.1659282e-10
1.6031996e-09
3.0927124e-09
5.8688359e-09
1.0963242e-08
2.016951e-08
3.6557178e-08
6.531144e-08
1.1510272e-07
2.0033504e-07
3.4487778e-07
5.8823492e-07
9.9546533e-07
1.6717932e-06
2.7790806e-06
4.5361756e-06
7.1438724e-06
1.0542407e-05
1.4085752e-05
1.6331029e-05
1.554472e-05
1.3259949e-05
1.0883207e-05
8.7674489e-06
7.1248138e-06
6.2491038e-06
7.202301e-06
6.3992311e-06
4.5342485e-06
3.0335159e-06
2.8615385e-06
4.0105402e-06
1.0249982e-05
2.960168e-05
5.7081617e-05
8.6469017e-05
8.3801042e-05
8.5938124e-05
9.3557858e-05
0.00010535678
0.00012301399
0.00014718154
0.00018082221
0.0002242401
0.00028153741
0.00036180121
0.00048305226
0.00071025751
0.00098327122
1.8501943e-20
3.5983707e-18
9.5842967e-17
9.7162737e-16
5.8759051e-15
2.6031861e-14
9.3991289e-14
2.940751e-13
8.2830088e-13
2.1538738e-12
5.261661e-12
1.222706e-11
2.7278328e-11
5.883285e-11
1.2331721e-10
2.5222531e-10
5.0496015e-10
9.9182327e-10
1.9144539e-09
3.6356066e-09
6.7970714e-09
1.2514682e-08
2.2693991e-08
4.0530426e-08
7.1298306e-08
1.2360576e-07
2.1146832e-07
3.5765856e-07
5.9902346e-07
9.9466819e-07
1.6370972e-06
2.6625285e-06
4.2437207e-06
6.5220892e-06
9.4216597e-06
1.2381873e-05
1.1993192e-05
1.0993897e-05
9.4896522e-06
8.1004151e-06
6.9380159e-06
6.479892e-06
7.8460262e-06
6.4156961e-06
3.8847058e-06
2.7689218e-06
3.0790749e-06
4.9161325e-06
1.5556947e-05
3.7794291e-05
6.5954413e-05
6.6376176e-05
6.5924125e-05
7.1652935e-05
8.1043846e-05
9.4433918e-05
0.00011358721
0.00013952069
0.00017483353
0.00021964661
0.00027882626
0.00036132061
0.00048636564
0.00071786825
0.0009869366
1.10738e-20
2.1536982e-18
5.7363814e-17
5.8153367e-16
3.5167736e-15
1.5579971e-14
5.6252086e-14
1.7599378e-13
4.9569534e-13
1.2889503e-12
3.1487084e-12
7.3170184e-12
1.6324787e-11
3.5212041e-11
7.3819664e-11
1.5103042e-10
3.0250199e-10
5.9454906e-10
1.148642e-09
2.1838208e-09
4.0885605e-09
7.5397022e-09
1.3694515e-08
2.4493784e-08
4.3131412e-08
7.4771644e-08
1.2761062e-07
2.1452447e-07
3.557229e-07
5.8344854e-07
9.474884e-07
1.5223547e-06
2.4110982e-06
3.7332436e-06
5.5699031e-06
7.8566031e-06
8.8201986e-06
8.6322365e-06
7.9933539e-06
7.1794652e-06
6.4189112e-06
6.5081432e-06
7.4021894e-06
4.8266394e-06
2.8637819e-06
2.6425271e-06
3.4765068e-06
7.7718345e-06
2.2793594e-05
4.782425e-05
5.4407854e-05
5.2169555e-05
5.5473658e-05
6.2879825e-05
7.3377647e-05
8.7947893e-05
0.0001083096
0.00013562826
0.00017200122
0.00021750207
0.00027772761
0.00036151579
0.00048917536
0.00072313953
0.00098993603
6.4765413e-21
1.2595957e-18
3.3549307e-17
3.4010915e-16
2.0567591e-15
9.1116933e-15
3.2897507e-14
1.0292308e-13
2.8988242e-13
7.5376744e-13
1.8413382e-12
4.2790331e-12
9.5474351e-12
2.0596106e-11
4.3187803e-11
8.8390737e-11
1.7713506e-10
3.4842203e-10
6.738779e-10
1.283087e-09
2.4067586e-09
4.4484946e-09
8.1008703e-09
1.4527867e-08
2.5644039e-08
4.4532987e-08
7.6067285e-08
1.2782296e-07
2.1138592e-07
3.4390813e-07
5.5092723e-07
8.707351e-07
1.357669e-06
2.0795025e-06
3.1018438e-06
4.4521762e-06
5.8414817e-06
6.0933151e-06
6.0651048e-06
5.8154505e-06
5.6624203e-06
6.37559e-06
4.7061499e-06
2.8031001e-06
2.3040226e-06
2.7562805e-06
4.6304888e-06
1.3500216e-05
3.3056626e-05
5.0063629e-05
4.2959283e-05
4.4368238e-05
4.9659006e-05
5.8054868e-05
6.9355419e-05
8.4937215e-05
0.00010630119
0.00013461656
0.00017157717
0.00021734065
0.00027802995
0.00036232695
0.00049092111
0.00072594614
0.00099228067
3.7590514e-21
7.3108255e-19
1.9472359e-17
1.9740235e-16
1.193754e-15
5.28843e-15
1.9093538e-14
5.973548e-14
1.6824395e-13
4.3747863e-13
1.0687155e-12
2.4836771e-12
5.5421202e-12
1.1957563e-11
2.5080104e-11
5.1350737e-11
1.0296792e-10
2.0271118e-10
3.9253877e-10
7.4865524e-10
1.4073906e-09
2.6085758e-09
4.7661214e-09
8.5788854e-09
1.5197847e-08
2.6465973e-08
4.5278332e-08
7.6099637e-08
1.257176e-07
2.0426886e-07
3.2638852e-07
5.1155127e-07
7.854084e-07
1.1798789e-06
1.7311115e-06
2.4598144e-06
3.3355642e-06
3.8612444e-06
3.969914e-06
4.0850243e-06
4.522951e-06
3.4771727e-06
2.3960028e-06
1.9525372e-06
2.2429162e-06
3.496651e-06
8.3690988e-06
2.1605062e-05
4.4548058e-05
3.7814936e-05
3.701265e-05
4.0604064e-05
4.7098376e-05
5.6160652e-05
6.816582e-05
8.4627688e-05
0.00010670091
0.00013568228
0.00017290182
0.00021876341
0.00027954355
0.00036367697
0.00049122642
0.0007270941
0.00099422288
2.2210292e-21
4.3195899e-19
1.1505222e-17
1.1663514e-16
7.0533046e-16
3.1246832e-15
1.1281548e-14
3.5295586e-14
9.9411717e-14
2.5850667e-13
6.3154438e-13
1.46784e-12
3.275844e-12
7.0694432e-12
1.4832427e-11
3.0383202e-11
6.096509e-11
1.2013519e-10
2.3294311e-10
4.450753e-10
8.3870937e-10
1.559379e-09
2.8601754e-09
5.1717574e-09
9.2079051e-09
1.6118913e-08
2.7697258e-08
4.6653592e-08
7.6969494e-08
1.2442176e-07
1.9737818e-07
3.0759498e-07
4.70207e-07
7.0108638e-07
1.0119106e-06
1.4064712e-06
1.869173e-06
2.301486e-06
2.4427891e-06
2.5392205e-06
2.1487023e-06
1.7455565e-06
1.5615603e-06
1.8369009e-06
2.9618804e-06
5.7136792e-06
1.4953101e-05
3.4235468e-05
3.627373e-05
3.2291405e-05
3.5024179e-05
3.9908325e-05
4.7006291e-05
5.6516307e-05
6.9122433e-05
8.6234545e-05
0.00010873812
0.00013815702
0.0001754464
0.00022146246
0.00028216084
0.00036561158
0.00049051352
0.00072787272
0.00099607403
1.3854932e-21
2.6945909e-19
7.1770617e-18
7.2758703e-17
4.4000224e-16
1.9493017e-15
7.0381443e-15
2.2020821e-14
6.2027439e-14
1.6131093e-13
3.9414728e-13
9.1625951e-13
2.0453998e-12
4.4156607e-12
9.2689803e-12
1.899915e-11
3.8155565e-11
7.5274663e-11
1.4618254e-10
2.7987233e-10
5.2879843e-10
9.865461e-10
1.8173642e-09
3.3037882e-09
5.9198579e-09
1.0437101e-08
1.806593e-08
3.0616052e-08
5.067374e-08
8.1762161e-08
1.2852774e-07
1.970903e-07
2.9509722e-07
4.3214013e-07
6.1485076e-07
8.4053709e-07
1.08265e-06
1.286723e-06
1.3256429e-06
1.2247166e-06
1.1818876e-06
1.1575865e-06
1.5210642e-06
2.6446275e-06
4.4159539e-06
1.0658598e-05
2.5418753e-05
3.9099562e-05
3.0511591e-05
3.1796911e-05
3.5691982e-05
4.114611e-05
4.8567409e-05
5.8463138e-05
7.1520223e-05
8.9051986e-05
0.00011179881
0.00014152957
0.00017883355
0.00022522309
0.00028592253
0.0003683966
0.00049033894
0.00072893324
0.00099668739
9.4123333e-22
1.8305697e-19
4.8757649e-18
4.9429705e-17
2.9893092e-16
1.3243892e-15
4.7821703e-15
1.4963819e-14
4.2155041e-14
1.09649e-13
2.679773e-13
6.2314107e-13
1.391594e-12
3.0056966e-12
6.3133319e-12
1.2951422e-11
2.6037499e-11
5.1437254e-11
1.0006367e-10
1.9199949e-10
3.6378777e-10
6.8109892e-10
1.2602122e-09
2.303211e-09
4.1529273e-09
7.3720907e-09
1.2846073e-08
2.1893679e-08
3.6357992e-08
5.8639075e-08
9.1654508e-08
1.387144e-07
2.0314516e-07
2.8721363e-07
3.9077958e-07
5.0645397e-07
6.1502798e-07
6.7816677e-07
7.3371535e-07
7.7307412e-07
8.9361456e-07
1.3400149e-06
2.3585887e-06
3.7144538e-06
8.015402e-06
1.8897891e-05
3.7898105e-05
3.3276277e-05
3.1574008e-05
3.4204023e-05
3.799214e-05
4.3656886e-05
5.1254214e-05
6.1396747e-05
7.4754584e-05
9.255032e-05
0.00011544561
0.00014543801
0.00018283336
0.00022990019
0.00029102211
0.00037254349
0.00049265999
0.00072947475
0.00099623089
6.9802387e-22
1.3575628e-19
3.6159234e-18
3.6658273e-17
2.2170181e-16
9.822841e-16
3.5471538e-15
1.1100517e-14
3.1275978e-14
8.1366366e-14
1.9890224e-13
4.6265539e-13
1.0335906e-12
2.2335202e-12
4.6942599e-12
9.6373655e-12
1.9393571e-11
3.8358309e-11
7.473288e-11
1.4366455e-10
2.7283969e-10
5.1228451e-10
9.5114845e-10
1.7454982e-09
3.1620976e-09
5.6415592e-09
9.8771481e-09
1.6892539e-08
2.8070147e-08
4.5074484e-08
6.9643306e-08
1.0326738e-07
1.4676483e-07
1.9966188e-07
2.5943891e-07
3.2142857e-07
3.8504504e-07
4.6774751e-07
5.9904057e-07
8.0132173e-07
1.2485742e-06
2.0181531e-06
3.152855e-06
6.4018682e-06
1.4351462e-05
3.0151634e-05
3.8145477e-05
3.3678791e-05
3.4536028e-05
3.7080171e-05
4.109937e-05
4.6809513e-05
5.4514835e-05
6.4840097e-05
7.8413733e-05
9.6380339e-05
0.00011940101
0.00014964681
0.00018732731
0.00023536923
0.00029770922
0.00037856444
0.00049927567
0.00072592025
0.00098188575
5.557261e-22
1.0808136e-19
2.8788014e-18
2.9185625e-17
1.7651242e-16
7.8209163e-16
2.8243688e-15
8.8391961e-15
2.4906761e-14
6.4803498e-14
1.5843567e-13
3.6859216e-13
8.2362817e-13
1.7802869e-12
3.7429434e-12
7.6875006e-12
1.547773e-11
3.0632479e-11
5.9726706e-11
1.1492501e-10
2.1850958e-10
4.1084844e-10
7.6411606e-10
1.4051696e-09
2.5518487e-09
4.5662288e-09
8.0186481e-09
1.3747547e-08
2.2863791e-08
3.6643847e-08
5.6294925e-08
8.2713347e-08
1.1644524e-07
1.5841974e-07
2.1058221e-07
2.7983336e-07
3.548982e-07
5.082646e-07
7.1968431e-07
1.0915838e-06
1.6766658e-06
2.6539746e-06
5.2930649e-06
1.1367375e-05
2.4219509e-05
4.4762544e-05
3.8452699e-05
3.6996506e-05
3.8227156e-05
4.048e-05
4.4509245e-05
5.022607e-05
5.8022815e-05
6.8503857e-05
8.2245086e-05
0.00010033203
0.00012350366
0.0001540148
0.00019224632
0.00024145752
0.00030610578
0.00038667113
0.00051318774
0.00071015538
0.00093810502
4.7775738e-22
9.2917473e-20
2.4749038e-18
2.5090865e-17
1.5174763e-16
6.7236411e-16
2.4281126e-15
7.5990864e-15
2.1412535e-14
5.5712543e-14
1.3621137e-13
3.1689493e-13
7.0813047e-13
1.5307021e-12
3.2184038e-12
6.6107463e-12
1.3311511e-11
2.6350068e-11
5.1390706e-11
9.8924109e-11
1.8819684e-10
3.5416199e-10
6.5954252e-10
1.2151837e-09
2.2129167e-09
3.9750025e-09
7.0199828e-09
1.2127956e-08
2.0370353e-08
3.3054665e-08
5.160355e-08
7.741903e-08
1.1213366e-07
1.5888262e-07
2.2481523e-07
3.0316707e-07
4.0581476e-07
6.0732439e-07
9.1033922e-07
1.3968929e-06
2.2446436e-06
4.4634813e-06
9.2787363e-06
1.9635809e-05
3.7956975e-05
4.6293986e-05
4.1846849e-05
4.129749e-05
4.1595414e-05
4.4008855e-05
4.7975618e-05
5.3720651e-05
6.1633092e-05
7.225178e-05
8.6117712e-05
0.00010429904
0.0001276657
0.00015846735
0.00019749336
0.0002479182
0.00031595414
0.00039680424
0.00053686472
0.00069259901
0.00090324516
4.5106384e-22
8.7725877e-20
2.3366149e-18
2.368863e-17
1.4326398e-16
6.3475317e-16
2.2921798e-15
7.1732312e-15
2.0211053e-14
5.258169e-14
1.2854294e-13
2.9901649e-13
6.6808041e-13
1.4438807e-12
3.035255e-12
6.2331592e-12
1.2548134e-11
2.4832682e-11
4.8419758e-11
9.3188102e-11
1.7727407e-10
3.3366586e-10
6.2173522e-10
1.1469421e-09
2.0932957e-09
3.7736882e-09
6.70035e-09
1.1666366e-08
1.9807489e-08
3.2587434e-08
5.1693477e-08
7.914751e-08
1.1778462e-07
1.7307358e-07
2.4958596e-07
3.383632e-07
5.0007853e-07
7.5414895e-07
1.1792795e-06
1.9258543e-06
3.7612882e-06
7.6537073e-06
1.6076934e-05
3.2004254e-05
5.2946278e-05
4.8339607e-05
4.5423687e-05
4.4313297e-05
4.5195739e-05
4.7542898e-05
5.1442976e-05
5.7231555e-05
6.5246116e-05
7.5974807e-05
8.9938429e-05
0.00010822096
0.00013183007
0.00016296316
0.00020290356
0.00025448894
0.00032651401
0.00040859096
0.00057693311
0.00075131351
0.00092663438
4.6783897e-22
9.0988305e-20
2.4234959e-18
2.4568991e-17
1.4858298e-16
6.5828278e-16
2.3769595e-15
7.4377641e-15
2.0953598e-14
5.4504465e-14
1.3321615e-13
3.0980965e-13
6.9198352e-13
1.4949851e-12
3.1412698e-12
6.447377e-12
1.2971e-11
2.5649999e-11
4.9969288e-11
9.6074135e-11
1.8256312e-10
3.4322173e-10
6.3880213e-10
1.1771921e-09
2.1468076e-09
3.8689118e-09
6.8723905e-09
1.1989227e-08
2.0449978e-08
3.3938627e-08
5.4604137e-08
8.4947795e-08
1.2864314e-07
1.9336088e-07
2.831672e-07
4.1125374e-07
6.3525247e-07
1.0100826e-06
1.6708778e-06
3.1791713e-06
6.3636862e-06
1.3358289e-05
2.7005516e-05
4.5864273e-05
5.6338994e-05
5.0723914e-05
4.8562509e-05
4.7763555e-05
4.8466609e-05
5.071125e-05
5.4690828e-05
6.0620291e-05
6.8770101e-05
7.9598355e-05
9.3650309e-05
0.00011206313
0.00013595456
0.00016746843
0.0002082776
0.00026096765
0.00033690294
0.00042094215
0.00063694406
0.00093145117
0.00099379084
5.4223426e-22
1.0545703e-19
2.8088558e-18
2.8475173e-17
1.7219965e-16
7.6287028e-16
2.7543855e-15
8.6178514e-15
2.4274845e-14
6.3133098e-14
1.54274e-13
3.5869274e-13
8.0092651e-13
1.7297232e-12
3.6329299e-12
7.4526594e-12
1.4984344e-11
2.9610299e-11
5.763697e-11
1.1071218e-10
2.1015457e-10
3.9462585e-10
7.336558e-10
1.3508104e-09
2.4623836e-09
4.4390189e-09
7.8966512e-09
1.3811345e-08
2.3635266e-08
3.9358032e-08
6.3485172e-08
9.9269425e-08
1.5261116e-07
2.3193951e-07
3.464365e-07
5.4915725e-07
8.7764045e-07
1.463149e-06
2.7196286e-06
5.3714662e-06
1.1199513e-05
2.2755845e-05
3.9843936e-05
5.9858718e-05
5.6484095e-05
5.3139223e-05
5.0810704e-05
5.0315928e-05
5.1230774e-05
5.3684521e-05
5.7810457e-05
6.3866596e-05
7.213681e-05
8.3056896e-05
9.7210501e-05
0.00011579873
0.00014000864
0.00017193707
0.00021347343
0.00026729774
0.00034649382
0.0004339581
0.00071640682
0.00099386556
0.00099421398
7.0782895e-22
1.3766283e-19
3.6666462e-18
3.7170746e-17
2.2478034e-16
9.9577886e-16
3.5951556e-15
1.1247788e-14
3.1680631e-14
8.2386736e-14
2.0130235e-13
4.6797965e-13
1.0448088e-12
2.2560619e-12
4.73752e-12
9.716572e-12
1.953142e-11
3.8584894e-11
7.5089047e-11
1.4422262e-10
2.7380368e-10
5.1437626e-10
9.5676718e-10
1.7621675e-09
3.2116885e-09
5.783429e-09
1.0261716e-08
1.7867429e-08
3.0375769e-08
5.0228215e-08
8.0711327e-08
1.2633706e-07
1.9540484e-07
3.0312273e-07
4.8161562e-07
7.7425708e-07
1.2976687e-06
2.35794e-06
4.5863616e-06
9.4464843e-06
1.9146732e-05
3.4517422e-05
5.3072443e-05
5.9875288e-05
5.6449758e-05
5.366653e-05
5.2611501e-05
5.2527869e-05
5.3684875e-05
5.6342378e-05
6.0667955e-05
6.6893953e-05
7.5286457e-05
8.6299459e-05
0.00010058687
0.00011940705
0.00014396622
0.00017630364
0.00021844038
0.00027336921
0.00035442764
0.00044534194
0.00091381786
0.00099412198
0.00099432112
1.0077725e-21
1.9599766e-19
5.2203913e-18
5.2921857e-17
3.200309e-16
1.4177393e-15
5.1186021e-15
1.6014071e-14
4.5105628e-14
1.1730015e-13
2.86614e-13
6.6632618e-13
1.4876936e-12
3.212561e-12
6.7465796e-12
1.3838461e-11
2.7821039e-11
5.4976319e-11
1.070194e-10
2.0558905e-10
3.9027263e-10
7.3274124e-10
1.3611345e-09
2.5008412e-09
4.5395325e-09
8.1236649e-09
1.4285249e-08
2.4591002e-08
4.1312281e-08
6.7646671e-08
1.0821245e-07
1.7000284e-07
2.6848227e-07
4.3079841e-07
6.9392323e-07
1.1594828e-06
2.0695786e-06
3.9562623e-06
8.015577e-06
1.6145476e-05
2.9758737e-05
4.7014197e-05
6.1778095e-05
5.8202089e-05
5.5853731e-05
5.4570723e-05
5.385791e-05
5.4092817e-05
5.5605455e-05
5.8561638e-05
6.3136305e-05
6.9585051e-05
7.8144106e-05
8.9288588e-05
0.00010376299
0.00012287241
0.0001477933
0.00018051447
0.00022316781
0.00027893518
0.00035999272
0.00045507282
0.00096369707
0.00099510787
0.00099891951
1.4908408e-21
2.8994766e-19
7.7227526e-18
7.8289794e-17
4.7343918e-16
2.0973564e-15
7.5723798e-15
2.3691348e-14
6.6731046e-14
1.7354315e-13
4.2405382e-13
9.8588976e-13
2.201285e-12
4.7537744e-12
9.9838281e-12
2.0479837e-11
4.1174255e-11
8.1354752e-11
1.5832049e-10
3.0395232e-10
5.7635139e-10
1.0800522e-09
2.0000091e-09
3.6565181e-09
6.589702e-09
1.1682898e-08
2.0316678e-08
3.4550305e-08
5.7379096e-08
9.3118277e-08