/*--------------------------------*- C++ -*----------------------------------*\
  =========                 |
  \\      /  F ield         | OpenFOAM: The Open Source CFD Toolbox
   \\    /   O peration     | Website:  https://openfoam.org
    \\  /    A nd           | Version:  13
     \\/     M anipulation  |
\*---------------------------------------------------------------------------*/
FoamFile
{
    format      ascii;
    class       volScalarField;
    location    "44.800932";
    object      p;
}
// * * * * * * * * * * * * * * * * * * * * * * * * * * * * * * * * * * * * * //

dimensions      [0 2 -2 0 0 0 0];

internalField   nonuniform List<scalar> 
17140
(
-0.31035235
-0.31035909
-0.31036708
-0.3103756
-0.31038494
-0.31039524
-0.31040658
-0.31041902
-0.31043267
-0.31044759
-0.31046387
-0.3104816
-0.31050084
-0.31052167
-0.31054412
-0.31056824
-0.31059403
-0.31062149
-0.31065059
-0.31068127
-0.3107135
-0.31074723
-0.31078252
-0.31081957
-0.31085887
-0.31090145
-0.31094925
-0.3110057
-0.3110765
-0.31117072
-0.31130167
-0.31148679
-0.31174524
-0.31209229
-0.31253202
-0.31305238
-0.31362586
-0.31421543
-0.31478227
-0.31529225
-0.31572044
-0.31605182
-0.31627807
-0.31640789
-0.31646174
-0.31645082
-0.31639144
-0.31631383
-0.31625752
-0.31629102
-0.3165352
-0.31720385
-0.318672
-0.32142401
-0.32628235
-0.33381764
-0.34436289
-0.3581203
-0.36871344
-0.34535287
-0.25319586
-0.18064139
-0.13331841
-0.15724545
-0.13969721
-0.31001041
-0.31001685
-0.31002468
-0.31003274
-0.31004156
-0.3100513
-0.31006203
-0.3100738
-0.3100867
-0.31010081
-0.31011622
-0.31013298
-0.31015118
-0.31017087
-0.31019209
-0.31021487
-0.31023921
-0.3102651
-0.31029249
-0.31032132
-0.31035152
-0.31038303
-0.31041586
-0.31045017
-0.31048638
-0.31052543
-0.31056911
-0.31062062
-0.31068538
-0.31077199
-0.31089309
-0.31106531
-0.31130694
-0.31163258
-0.31204621
-0.31253628
-0.31307629
-0.31363029
-0.31416044
-0.31463333
-0.31502443
-0.31531915
-0.31550987
-0.31560527
-0.31562636
-0.31558803
-0.31551236
-0.31543965
-0.31542721
-0.31557575
-0.31606226
-0.31720394
-0.31953465
-0.32379677
-0.33117324
-0.34281894
-0.35949063
-0.38287911
-0.40548221
-0.38743279
-0.27944605
-0.1873652
-0.11435098
-0.12359233
-0.098866308
-0.30972706
-0.30973304
-0.30974031
-0.3097478
-0.309756
-0.30976506
-0.30977503
-0.30978597
-0.30979797
-0.3098111
-0.30982543
-0.30984103
-0.30985796
-0.30987627
-0.309896
-0.30991716
-0.30993976
-0.30996377
-0.30998912
-0.31001575
-0.31004356
-0.31007247
-0.31010245
-0.3101336
-0.31016627
-0.31020128
-0.31024027
-0.31028619
-0.31034409
-0.31042203
-0.31053189
-0.31068933
-0.31091163
-0.31121269
-0.31159642
-0.31205202
-0.31255422
-0.31306849
-0.31355818
-0.31399076
-0.31434226
-0.3145985
-0.31475269
-0.31481344
-0.31480206
-0.31473718
-0.3146463
-0.31457917
-0.31460962
-0.31486832
-0.31558526
-0.31717779
-0.32033328
-0.32605011
-0.33585631
-0.35146022
-0.37402249
-0.40733814
-0.44193375
-0.42574083
-0.30183134
-0.18285902
-0.091906671
-0.090136664
-0.061827104
-0.30949963
-0.30950507
-0.30951168
-0.3095185
-0.30952597
-0.30953422
-0.30954331
-0.30955328
-0.30956422
-0.30957619
-0.30958926
-0.30960349
-0.30961893
-0.30963562
-0.30965361
-0.30967289
-0.30969347
-0.30971529
-0.30973829
-0.30976238
-0.30978745
-0.30981339
-0.30984013
-0.30986771
-0.30989641
-0.30992691
-0.30996069
-0.31000041
-0.31005072
-0.31011905
-0.31021642
-0.3103574
-0.31055812
-0.3108317
-0.31118203
-0.31159917
-0.31205939
-0.3125298
-0.3129752
-0.31336416
-0.31367332
-0.31388902
-0.31400527
-0.31403057
-0.31398622
-0.31389443
-0.3137875
-0.31372374
-0.31379135
-0.31414668
-0.31506817
-0.31707327
-0.32098369
-0.32805701
-0.34017181
-0.35943962
-0.38741403
-0.43035744
-0.47618859
-0.46060008
-0.31928958
-0.17709535
-0.06777503
-0.056935629
-0.027026702
-0.3093246
-0.30932943
-0.30933527
-0.30934133
-0.30934797
-0.30935531
-0.30936338
-0.30937226
-0.30938199
-0.30939265
-0.30940428
-0.30941695
-0.3094307
-0.30944557
-0.30946158
-0.30947874
-0.30949702
-0.30951637
-0.30953673
-0.30955797
-0.30957998
-0.30960261
-0.30962575
-0.30964939
-0.30967372
-0.3096993
-0.3097274
-0.30976039
-0.30980247
-0.30986038
-0.30994419
-0.31006726
-0.31024448
-0.31048806
-0.31080187
-0.31117695
-0.31159126
-0.31201385
-0.31241121
-0.31275315
-0.31301709
-0.3131899
-0.31326642
-0.31325485
-0.31317634
-0.31305615
-0.31293044
-0.31286486
-0.31295873
-0.31338787
-0.31447255
-0.31680686
-0.32140063
-0.32966899
-0.34380773
-0.36630638
-0.39916117
-0.45064839
-0.50352229
-0.48802843
-0.33109969
-0.16624387
-0.044116153
-0.024570382
0.003308501
-0.30919683
-0.30920098
-0.30920599
-0.30921121
-0.30921693
-0.30922326
-0.30923022
-0.30923788
-0.30924628
-0.30925549
-0.30926554
-0.30927649
-0.30928837
-0.30930122
-0.30931506
-0.30932986
-0.30934562
-0.30936226
-0.30937971
-0.30939783
-0.30941649
-0.30943551
-0.30945475
-0.30947412
-0.30949374
-0.30951404
-0.30953606
-0.30956188
-0.30959519
-0.30964202
-0.30971141
-0.30981543
-0.3099676
-0.31017916
-0.31045386
-0.31078377
-0.31114867
-0.31151977
-0.31186546
-0.31215702
-0.31237277
-0.31250012
-0.31253477
-0.31248442
-0.31236974
-0.31221847
-0.31206944
-0.31199405
-0.31209874
-0.31257093
-0.31375786
-0.31641117
-0.32158997
-0.330726
-0.34622452
-0.37118506
-0.40842109
-0.46615735
-0.52281041
-0.50273902
-0.33349719
-0.1492271
-0.026207684
0.0033986802
0.029399894
-0.30911
-0.30911342
-0.30911753
-0.30912185
-0.30912658
-0.30913182
-0.30913759
-0.30914393
-0.3091509
-0.30915854
-0.30916689
-0.30917598
-0.30918586
-0.30919654
-0.30920802
-0.3092203
-0.30923334
-0.30924707
-0.30926139
-0.30927617
-0.30929123
-0.3093064
-0.30932147
-0.30933633
-0.30935096
-0.30936568
-0.30938132
-0.30939962
-0.30942376
-0.30945901
-0.30951336
-0.30959751
-0.30972353
-0.30990158
-0.3101352
-0.31041741
-0.31072994
-0.31104626
-0.31133692
-0.31157483
-0.31173935
-0.31181849
-0.3118088
-0.31171725
-0.31156367
-0.31137758
-0.31119924
-0.31110406
-0.31120065
-0.31166772
-0.31297457
-0.31593297
-0.32147711
-0.3311162
-0.3473724
-0.37344367
-0.41447034
-0.47527286
-0.53215167
-0.50428963
-0.33128274
-0.13490434
-0.015049278
0.021746103
0.049684829
-0.30905688
-0.30905954
-0.3090627
-0.30906607
-0.30906977
-0.30907386
-0.30907838
-0.30908335
-0.30908881
-0.3090948
-0.30910135
-0.3091085
-0.30911626
-0.30912465
-0.30913366
-0.30914327
-0.30915344
-0.3091641
-0.30917513
-0.30918639
-0.30919768
-0.3092088
-0.30921951
-0.30922963
-0.30923907
-0.30924799
-0.309257
-0.30926752
-0.30928221
-0.30930556
-0.30934448
-0.30940825
-0.30950747
-0.30965109
-0.30984231
-0.31007503
-0.31033284
-0.31059165
-0.31082426
-0.31100543
-0.31111573
-0.3111438
-0.31108699
-0.31095148
-0.31075579
-0.31053037
-0.31031553
-0.3101897
-0.31025398
-0.31069343
-0.31213658
-0.31525694
-0.32091785
-0.33074546
-0.34728197
-0.3734348
-0.41721317
-0.47793716
-0.53094097
-0.49294223
-0.32356753
-0.12556357
-0.013490856
0.029250305
0.063143642
-0.30902917
-0.30903105
-0.30903329
-0.30903569
-0.30903833
-0.30904124
-0.30904446
-0.30904802
-0.30905193
-0.30905623
-0.30906094
-0.30906607
-0.30907166
-0.30907768
-0.30908415
-0.30909101
-0.30909824
-0.30910573
-0.30911336
-0.30912099
-0.3091284
-0.30913535
-0.30914159
-0.30914685
-0.30915097
-0.30915396
-0.30915623
-0.30915884
-0.30916393
-0.30917525
-0.30919858
-0.30924184
-0.30931411
-0.30942302
-0.30957124
-0.3097534
-0.30995488
-0.310154
-0.310326
-0.31044766
-0.31050088
-0.31047502
-0.31036799
-0.31018548
-0.30994429
-0.30967435
-0.30941518
-0.30924781
-0.30925111
-0.30969942
-0.31117929
-0.31431797
-0.31990155
-0.32957805
-0.34580339
-0.37218467
-0.41669166
-0.4741316
-0.51949271
-0.47173015
-0.30488414
-0.12409494
-0.018371137
0.030107735
0.068334027
-0.3090189
-0.30902002
-0.30902134
-0.30902277
-0.30902434
-0.30902608
-0.30902801
-0.30903014
-0.3090325
-0.3090351
-0.30903795
-0.30904107
-0.30904445
-0.3090481
-0.30905199
-0.30905609
-0.30906033
-0.30906462
-0.30906882
-0.30907278
-0.30907625
-0.30907899
-0.30908068
-0.30908103
-0.30907976
-0.30907676
-0.3090722
-0.30906683
-0.30906227
-0.30906151
-0.30906928
-0.30909209
-0.30913757
-0.30921197
-0.30931726
-0.30944864
-0.309593
-0.30973106
-0.3098405
-0.30990029
-0.30989385
-0.30981137
-0.309651
-0.30941815
-0.30912773
-0.30880758
-0.30849595
-0.30827225
-0.30818204
-0.30865724
-0.31010793
-0.31308147
-0.31839391
-0.32757536
-0.34317918
-0.36973929
-0.41354466
-0.46496695
-0.49881525
-0.44151068
-0.2817225
-0.12268388
-0.024554825
0.022432508
0.066440746
-0.30901713
-0.30901751
-0.30901795
-0.30901842
-0.30901895
-0.30901955
-0.30902021
-0.30902096
-0.30902179
-0.30902273
-0.30902376
-0.3090249
-0.30902613
-0.30902744
-0.30902881
-0.30903018
-0.30903148
-0.30903261
-0.30903343
-0.30903375
-0.30903334
-0.3090319
-0.30902909
-0.30902456
-0.30901795
-0.30900899
-0.30899766
-0.30898436
-0.30897024
-0.30895754
-0.30895001
-0.30895279
-0.30897252
-0.30901357
-0.3090765
-0.30915751
-0.30924458
-0.30932084
-0.30936633
-0.30936235
-0.30929397
-0.30915234
-0.30893577
-0.30864913
-0.30830541
-0.30792897
-0.30755731
-0.30725467
-0.30707191
-0.30751375
-0.30887687
-0.31153512
-0.31638141
-0.32492122
-0.34009657
-0.36554554
-0.40697597
-0.45101106
-0.47037908
-0.40468381
-0.25920104
-0.12217916
-0.032325371
0.012600926
0.055929251
-0.30901702
-0.30901668
-0.30901628
-0.30901586
-0.30901541
-0.30901491
-0.30901438
-0.30901381
-0.3090132
-0.30901255
-0.30901185
-0.3090111
-0.30901027
-0.30900935
-0.30900829
-0.30900704
-0.30900552
-0.30900361
-0.30900116
-0.30899797
-0.30899378
-0.30898829
-0.30898111
-0.30897181
-0.30895996
-0.30894515
-0.30892715
-0.30890604
-0.30888248
-0.30885802
-0.30883548
-0.30881831
-0.30881288
-0.3088209
-0.30884258
-0.30887475
-0.30890561
-0.30892053
-0.30890173
-0.30883286
-0.30870082
-0.30849788
-0.30822244
-0.30787878
-0.3074776
-0.30703895
-0.30660077
-0.30620108
-0.30595628
-0.30627928
-0.30744242
-0.3096743
-0.31404039
-0.32200467
-0.33615237
-0.35927901
-0.397221
-0.43121123
-0.43575391
-0.36783467
-0.2385684
-0.12147187
-0.039976862
0.0027894811
0.044115086
-0.3090104
-0.30900942
-0.30900825
-0.30900702
-0.30900566
-0.30900417
-0.30900254
-0.30900076
-0.30899883
-0.30899672
-0.30899442
-0.30899193
-0.3089892
-0.30898621
-0.30898291
-0.30897923
-0.30897507
-0.30897032
-0.30896481
-0.30895832
-0.30895057
-0.30894123
-0.30892987
-0.308916
-0.30889908
-0.30887857
-0.30885401
-0.30882513
-0.30879213
-0.30875581
-0.30871816
-0.30867872
-0.30865635
-0.30863951
-0.30861629
-0.30860014
-0.30857518
-0.30852918
-0.30844599
-0.30831156
-0.30811459
-0.30784855
-0.30751176
-0.30710799
-0.30664469
-0.30613813
-0.3056239
-0.30510879
-0.30481524
-0.30496611
-0.30580415
-0.30761074
-0.31149664
-0.31836239
-0.33063705
-0.35210374
-0.38575009
-0.40671693
-0.39879816
-0.33179818
-0.22166623
-0.12112355
-0.047565535
-0.0078541786
0.031422654
-0.30899331
-0.30899177
-0.30898994
-0.30898798
-0.30898584
-0.30898348
-0.30898089
-0.30897804
-0.30897493
-0.30897154
-0.30896784
-0.3089638
-0.30895938
-0.30895455
-0.30894924
-0.30894338
-0.30893687
-0.30892956
-0.30892128
-0.3089118
-0.30890082
-0.30888796
-0.30887278
-0.3088547
-0.30883312
-0.30880734
-0.3087767
-0.30874067
-0.30869899
-0.3086519
-0.30860078
-0.30854435
-0.30848781
-0.30843754
-0.30838288
-0.30832346
-0.3082471
-0.30814326
-0.30799747
-0.30779808
-0.30753574
-0.30720529
-0.30680494
-0.30633784
-0.30580646
-0.30522571
-0.30461639
-0.30398186
-0.30359585
-0.30352493
-0.30399566
-0.30537207
-0.30829083
-0.31371003
-0.32448849
-0.34437932
-0.36891411
-0.37913719
-0.36073068
-0.3008767
-0.20608772
-0.12165109
-0.054695295
-0.017687276
0.018979387
-0.30896046
-0.30895846
-0.30895609
-0.30895355
-0.30895076
-0.30894768
-0.3089443
-0.30894058
-0.30893651
-0.30893205
-0.30892718
-0.30892185
-0.30891603
-0.30890965
-0.30890266
-0.30889496
-0.30888643
-0.30887694
-0.30886628
-0.30885421
-0.3088404
-0.30882445
-0.30880584
-0.30878397
-0.3087581
-0.30872742
-0.30869107
-0.30864822
-0.30859823
-0.30854085
-0.3084758
-0.30840842
-0.30832554
-0.30823676
-0.30814981
-0.30804773
-0.3079228
-0.30776298
-0.30755641
-0.30729299
-0.30696534
-0.30656945
-0.30610339
-0.3055691
-0.30496319
-0.30430161
-0.30357955
-0.30284996
-0.30224968
-0.30193824
-0.30201937
-0.30264868
-0.30462076
-0.30926944
-0.31909789
-0.3356791
-0.35038688
-0.35093793
-0.32332733
-0.27527565
-0.1928453
-0.12145377
-0.061098626
-0.027112075
0.0072728345
-0.30891133
-0.30890899
-0.30890621
-0.30890324
-0.30889997
-0.30889636
-0.30889238
-0.308888
-0.3088832
-0.30887794
-0.30887217
-0.30886586
-0.30885895
-0.30885139
-0.30884308
-0.30883394
-0.30882383
-0.3088126
-0.30880003
-0.30878584
-0.3087697
-0.30875114
-0.30872962
-0.30870442
-0.30867473
-0.30863955
-0.30859782
-0.30854839
-0.30849018
-0.30842238
-0.30834417
-0.30825729
-0.30815602
-0.30804284
-0.30792208
-0.30777633
-0.30760319
-0.3073892
-0.30712365
-0.30679758
-0.30640505
-0.30594287
-0.30540865
-0.30480161
-0.30411368
-0.3033603
-0.302513
-0.30167574
-0.30081712
-0.30022481
-0.29975062
-0.29967565
-0.3013498
-0.30532573
-0.31322344
-0.32297868
-0.32937463
-0.32295601
-0.29658569
-0.25176978
-0.18244095
-0.12125399
-0.066815446
-0.035444228
-0.003197841
-0.30884499
-0.30884245
-0.30883944
-0.30883621
-0.30883265
-0.30882872
-0.30882438
-0.3088196
-0.30881435
-0.30880859
-0.30880226
-0.30879533
-0.30878773
-0.30877939
-0.30877023
-0.30876012
-0.30874894
-0.30873651
-0.30872259
-0.30870687
-0.30868899
-0.30866844
-0.3086446
-0.30861667
-0.3085837
-0.30854453
-0.30849784
-0.30844217
-0.30837597
-0.30829782
-0.30820639
-0.30810102
-0.3079803
-0.30784203
-0.30768621
-0.30750347
-0.30728553
-0.30702107
-0.30669975
-0.30631341
-0.30585688
-0.3053272
-0.30472054
-0.30403102
-0.30324953
-0.30237818
-0.3014097
-0.30036465
-0.2993005
-0.29830328
-0.29739233
-0.29717705
-0.29830206
-0.30099252
-0.30481728
-0.30941285
-0.31033773
-0.29634209
-0.27312496
-0.232635
-0.17345399
-0.12067623
-0.071701965
-0.042892457
-0.012612043
-0.30876588
-0.3087633
-0.30876022
-0.30875692
-0.30875329
-0.30874927
-0.30874482
-0.30873992
-0.30873452
-0.30872859
-0.30872207
-0.30871491
-0.30870704
-0.30869839
-0.30868886
-0.30867833
-0.30866665
-0.30865362
-0.30863898
-0.30862242
-0.3086035
-0.30858167
-0.30855624
-0.30852632
-0.30849081
-0.30844836
-0.30839741
-0.30833614
-0.30826259
-0.30817474
-0.30807066
-0.30794864
-0.30780691
-0.30764325
-0.30745494
-0.30723507
-0.30697463
-0.30666247
-0.30628823
-0.30584377
-0.30532353
-0.3047237
-0.30403624
-0.30325126
-0.30235763
-0.30135027
-0.30021266
-0.29892933
-0.29762318
-0.29630327
-0.29532291
-0.29475182
-0.29495467
-0.29468591
-0.29542899
-0.29560964
-0.29026205
-0.27791676
-0.25322353
-0.21673484
-0.16573655
-0.11986007
-0.075781016
-0.049256138
-0.020733278
-0.30867798
-0.3086755
-0.30867256
-0.3086694
-0.30866591
-0.30866204
-0.30865776
-0.30865303
-0.30864782
-0.30864208
-0.30863576
-0.3086288
-0.30862114
-0.30861269
-0.30860334
-0.30859298
-0.30858142
-0.30856847
-0.30855384
-0.30853717
-0.30851799
-0.3084957
-0.3084695
-0.30843841
-0.30840116
-0.30835622
-0.30830172
-0.3082355
-0.30815514
-0.30805804
-0.30794161
-0.30780337
-0.30764095
-0.30745172
-0.30723222
-0.30697625
-0.30667508
-0.30631765
-0.30589306
-0.30539195
-0.30480667
-0.30413054
-0.3033484
-0.30244792
-0.30141248
-0.30024321
-0.29888965
-0.29745868
-0.29593408
-0.29463121
-0.29324879
-0.29173463
-0.28964329
-0.28755145
-0.28520497
-0.28175931
-0.27411996
-0.25945672
-0.23594118
-0.20317274
-0.15886301
-0.11875716
-0.079064024
-0.054680256
-0.027805244
-0.30859031
-0.30858812
-0.30858551
-0.3085827
-0.30857959
-0.30857614
-0.30857232
-0.30856809
-0.30856341
-0.30855825
-0.30855254
-0.30854625
-0.30853929
-0.30853157
-0.308523
-0.30851342
-0.30850267
-0.30849051
-0.30847664
-0.30846066
-0.30844205
-0.30842014
-0.30839405
-0.30836265
-0.30832453
-0.30827791
-0.30822065
-0.30815019
-0.30806363
-0.3079578
-0.30782942
-0.30767529
-0.30749239
-0.30727766
-0.30702746
-0.30673614
-0.30639544
-0.30599433
-0.30552075
-0.30496231
-0.3043069
-0.30354247
-0.30264286
-0.30160399
-0.30041145
-0.29906141
-0.29763028
-0.2960696
-0.29462113
-0.29286415
-0.2904291
-0.28707519
-0.28360987
-0.27955267
-0.27444244
-0.26815738
-0.25884903
-0.24419571
-0.22137348
-0.19157404
-0.15271097
-0.11739577
-0.081583897
-0.059136847
-0.033756897
-0.30851137
-0.30850964
-0.30850758
-0.30850535
-0.30850288
-0.30850013
-0.30849706
-0.30849367
-0.3084899
-0.30848572
-0.30848108
-0.30847593
-0.3084702
-0.3084638
-0.30845662
-0.30844851
-0.30843928
-0.30842867
-0.30841637
-0.30840193
-0.30838477
-0.30836416
-0.30833909
-0.30830832
-0.30827024
-0.30822282
-0.30816362
-0.30808969
-0.30799762
-0.30788366
-0.30774387
-0.30757434
-0.30737141
-0.30713164
-0.30685132
-0.3065253
-0.30614577
-0.30570129
-0.30517763
-0.30455676
-0.30382073
-0.30294751
-0.30192514
-0.30073203
-0.29939989
-0.29800566
-0.29658146
-0.29499779
-0.29311632
-0.29020374
-0.28616119
-0.28152656
-0.27639234
-0.27047084
-0.26298193
-0.25607255
-0.24549783
-0.23023852
-0.20843016
-0.18138671
-0.14706408
-0.11579491
-0.083412704
-0.062749876
-0.038767744
-0.30845532
-0.30845425
-0.30845296
-0.30845156
-0.30844999
-0.30844823
-0.30844625
-0.30844404
-0.30844157
-0.3084388
-0.3084357
-0.3084322
-0.30842825
-0.30842375
-0.3084186
-0.30841262
-0.30840563
-0.30839734
-0.30838739
-0.30837531
-0.30836044
-0.30834196
-0.30831877
-0.30828945
-0.30825219
-0.30820473
-0.30814428
-0.30806749
-0.30797048
-0.30784892
-0.30769823
-0.30751384
-0.30729152
-0.30702742
-0.30671778
-0.30635773
-0.30593949
-0.30545028
-0.30487252
-0.30417972
-0.30334643
-0.30237495
-0.30118841
-0.29991715
-0.29857599
-0.29725747
-0.29572758
-0.29370832
-0.29067717
-0.28609159
-0.28082504
-0.27497518
-0.268348
-0.2603637
-0.25325401
-0.24465671
-0.2330731
-0.2178886
-0.197125
-0.17239541
-0.14182574
-0.1139625
-0.084592325
-0.065556317
-0.042857827
-0.30843604
-0.30843583
-0.30843555
-0.30843522
-0.30843484
-0.30843438
-0.30843383
-0.30843318
-0.30843241
-0.30843149
-0.3084304
-0.30842908
-0.30842746
-0.30842546
-0.30842296
-0.30841979
-0.30841574
-0.3084105
-0.30840366
-0.30839469
-0.30838289
-0.30836729
-0.30834669
-0.3083195
-0.3082837
-0.30823675
-0.30817555
-0.30809636
-0.30799484
-0.30786614
-0.30770513
-0.3075067
-0.30726599
-0.30697877
-0.30664109
-0.30624777
-0.3057899
-0.30525183
-0.30461115
-0.30383412
-0.30291352
-0.30180806
-0.30065327
-0.29938668
-0.29811001
-0.29666767
-0.2946075
-0.29150649
-0.28676456
-0.28116729
-0.2751578
-0.26765358
-0.25921699
-0.25205882
-0.24340556
-0.23390378
-0.22181592
-0.20667355
-0.18694478
-0.16428851
-0.13688347
-0.11192265
-0.085196936
-0.067654104
-0.046153471
-0.3084774
-0.30847824
-0.30847922
-0.30848023
-0.3084813
-0.30848244
-0.30848365
-0.30848492
-0.30848624
-0.3084876
-0.30848896
-0.30849029
-0.30849151
-0.30849255
-0.30849327
-0.30849348
-0.30849296
-0.30849134
-0.3084882
-0.30848291
-0.30847467
-0.30846244
-0.30844483
-0.30842008
-0.30838596
-0.30833968
-0.3082778
-0.30819624
-0.30809026
-0.30795456
-0.30778345
-0.30757141
-0.30731336
-0.30700407
-0.30663948
-0.30621334
-0.30571381
-0.30512256
-0.30442499
-0.30356403
-0.30258531
-0.30152252
-0.30041943
-0.29920302
-0.29778416
-0.29572815
-0.29261358
-0.28782108
-0.28205055
-0.27592548
-0.26800162
-0.25974828
-0.25169738
-0.24320294
-0.23399122
-0.22381248
-0.21133936
-0.19645193
-0.17775877
-0.15690371
-0.13216052
-0.1096792
-0.085272424
-0.069098867
-0.048707504
-0.30860502
-0.30860711
-0.30860955
-0.30861211
-0.30861488
-0.30861789
-0.30862114
-0.30862463
-0.30862837
-0.30863234
-0.30863652
-0.30864088
-0.30864533
-0.30864979
-0.30865412
-0.30865809
-0.30866144
-0.30866377
-0.30866456
-0.30866312
-0.30865854
-0.30864962
-0.30863483
-0.30861221
-0.3085793
-0.30853306
-0.30846978
-0.30838511
-0.30827398
-0.30813073
-0.30794936
-0.30772616
-0.30745084
-0.30712046
-0.30673151
-0.30627477
-0.30573552
-0.30510315
-0.30434239
-0.30350067
-0.30254418
-0.30154952
-0.30046752
-0.29906275
-0.29702554
-0.29392459
-0.28915968
-0.28328475
-0.27715226
-0.26913559
-0.26052997
-0.252277
-0.24349136
-0.23463605
-0.22489013
-0.21422025
-0.20160954
-0.18703524
-0.1693209
-0.15006606
-0.12759404
-0.10725034
-0.084880297
-0.069966532
-0.050615051
-0.3088633
-0.30886671
-0.30887071
-0.30887493
-0.3088795
-0.30888449
-0.30888989
-0.30889573
-0.308902
-0.3089087
-0.30891582
-0.3089233
-0.30893107
-0.30893901
-0.30894696
-0.30895467
-0.30896182
-0.30896794
-0.30897243
-0.30897451
-0.30897313
-0.30896695
-0.30895429
-0.308933
-0.30890044
-0.30885341
-0.30878804
-0.30869987
-0.30858393
-0.30843468
-0.30824354
-0.30799934
-0.30770892
-0.30736241
-0.30694943
-0.30647079
-0.30588762
-0.30523081
-0.30449844
-0.30368905
-0.30280284
-0.30180112
-0.30045449
-0.29845704
-0.29538912
-0.29071191
-0.28476758
-0.27867048
-0.27069336
-0.26183688
-0.25336832
-0.24466634
-0.23560829
-0.22622618
-0.21607465
-0.20509999
-0.19245974
-0.17827094
-0.16149484
-0.14365719
-0.12312846
-0.10463804
-0.084060533
-0.07030547
-0.051929114
-0.30930248
-0.30930716
-0.30931267
-0.30931848
-0.30932479
-0.30933166
-0.30933911
-0.30934715
-0.3093558
-0.30936505
-0.30937486
-0.30938519
-0.30939593
-0.30940694
-0.30941802
-0.30942886
-0.30943906
-0.3094481
-0.30945525
-0.30945959
-0.30945994
-0.3094548
-0.30944228
-0.30942008
-0.30938536
-0.30933475
-0.30926419
-0.30916949
-0.30904801
-0.30887758
-0.30866126
-0.30842319
-0.30812774
-0.30776228
-0.30732567
-0.30682461
-0.30627021
-0.30559871
-0.30489887
-0.30413136
-0.30318714
-0.30190542
-0.29994296
-0.296949
-0.2924096
-0.28641917
-0.28038208
-0.27255523
-0.26352907
-0.2549291
-0.24612465
-0.23706415
-0.22763918
-0.21792329
-0.20750665
-0.19635536
-0.18380256
-0.1700378
-0.15414093
-0.13756996
-0.11872285
-0.10185371
-0.082859853
-0.070180227
-0.052715188
-0.30998669
-0.3099924
-0.3099991
-0.31000618
-0.31001384
-0.31002218
-0.31003122
-0.31004095
-0.3100514
-0.31006253
-0.3100743
-0.31008663
-0.31009939
-0.3101124
-0.31012538
-0.31013797
-0.31014968
-0.31015985
-0.31016763
-0.31017196
-0.31017147
-0.31016446
-0.31014885
-0.31012213
-0.31008131
-0.31002256
-0.30994085
-0.30983872
-0.3097055
-0.30954137
-0.30932695
-0.30904742
-0.30871704
-0.30834355
-0.30791946
-0.30739956
-0.30683304
-0.30621181
-0.30549189
-0.30462167
-0.30339809
-0.30147251
-0.2985392
-0.29425852
-0.28822149
-0.28221341
-0.2746352
-0.26551552
-0.25679721
-0.24795391
-0.23880547
-0.22944496
-0.21976167
-0.20976656
-0.19915817
-0.18793423
-0.17553806
-0.16222282
-0.14715393
-0.13172126
-0.11433879
-0.098897303
-0.081309302
-0.069623935
-0.053023414
-0.31099527
-0.31100148
-0.31100878
-0.31101646
-0.31102477
-0.31103378
-0.31104351
-0.31105395
-0.3110651
-0.31107691
-0.3110893
-0.31110216
-0.31111532
-0.31112852
-0.31114142
-0.31115356
-0.31116433
-0.31117294
-0.31117839
-0.31117943
-0.31117448
-0.31116165
-0.31113861
-0.31110262
-0.31105037
-0.31097748
-0.31088031
-0.31077852
-0.31065744
-0.31044659
-0.31017666
-0.30989469
-0.30956095
-0.30915947
-0.30869752
-0.3081816
-0.30759941
-0.30693378
-0.30610086
-0.30491011
-0.30304554
-0.30013366
-0.29606613
-0.29023731
-0.28431972
-0.27693021
-0.26774802
-0.25892532
-0.25005647
-0.24085578
-0.23143592
-0.22180728
-0.21188481
-0.20169173
-0.19097872
-0.17976539
-0.16758533
-0.15473506
-0.14044239
-0.12603981
-0.10994618
-0.095773815
-0.079441588
-0.068684182
-0.052896935
-0.31240029
-0.31240642
-0.3124136
-0.31242114
-0.31242924
-0.31243799
-0.31244737
-0.31245736
-0.31246791
-0.31247895
-0.31249036
-0.31250196
-0.3125135
-0.31252466
-0.31253497
-0.31254384
-0.31255053
-0.31255406
-0.31255321
-0.3125465
-0.31253211
-0.31250786
-0.31247072
-0.31241694
-0.31235196
-0.31228332
-0.31219156
-0.3120229
-0.31180547
-0.31158215
-0.31131262
-0.31098494
-0.31060274
-0.3101628
-0.3096705
-0.30911683
-0.30847598
-0.30766514
-0.3064872
-0.30463966
-0.30179251
-0.2976856
-0.29213006
-0.28612641
-0.27910044
-0.27007535
-0.26122891
-0.25238887
-0.24314053
-0.23367623
-0.22399748
-0.21413352
-0.204027
-0.19369433
-0.18293432
-0.17179461
-0.15987053
-0.14749217
-0.13392986
-0.12046666
-0.10551764
-0.092482514
-0.077279897
-0.067388737
-0.052375446
-0.31428122
-0.31428674
-0.31429317
-0.31429986
-0.31430699
-0.3143146
-0.31432264
-0.31433106
-0.31433976
-0.3143486
-0.31435741
-0.31436591
-0.31437376
-0.31438049
-0.3143855
-0.31438803
-0.3143871
-0.3143815
-0.31436975
-0.31435002
-0.31431985
-0.31427627
-0.31422171
-0.31415872
-0.31407463
-0.31394205
-0.31376209
-0.31356071
-0.313329
-0.31304606
-0.3127119
-0.3123234
-0.31188649
-0.31139761
-0.31084782
-0.31021183
-0.30939957
-0.30822365
-0.30639431
-0.30360794
-0.29961851
-0.29421827
-0.28815698
-0.2814653
-0.27263798
-0.26360197
-0.25489278
-0.24565888
-0.23613205
-0.22639645
-0.21647405
-0.20640656
-0.1961489
-0.18572849
-0.17497667
-0.16396284
-0.15232699
-0.14042402
-0.1275512
-0.11495141
-0.10102986
-0.089023361
-0.074845015
-0.065768856
-0.051489078
-0.31674184
-0.31674633
-0.3167515
-0.31675678
-0.31676229
-0.316768
-0.31677384
-0.31677967
-0.31678534
-0.31679063
-0.31679524
-0.31679878
-0.31680074
-0.3168005
-0.31679722
-0.31678988
-0.31677721
-0.31675765
-0.31672926
-0.31668966
-0.31663618
-0.31657084
-0.31648584
-0.31636542
-0.31620985
-0.31602666
-0.31581172
-0.31555261
-0.31524553
-0.31488665
-0.31447822
-0.31402135
-0.31351295
-0.31294732
-0.31229104
-0.31145423
-0.31025746
-0.30842856
-0.30568631
-0.30182099
-0.29660782
-0.2906524
-0.28410238
-0.27567614
-0.2665966
-0.2578609
-0.24848751
-0.23885793
-0.22901189
-0.21899678
-0.20884585
-0.19860037
-0.18822856
-0.1777654
-0.16706547
-0.15621876
-0.14489513
-0.1334681
-0.12125005
-0.10945079
-0.096461852
-0.085394429
-0.072153447
-0.063847989
-0.050267434
-0.31993441
-0.31993739
-0.3199407
-0.3199439
-0.31994699
-0.31994991
-0.31995248
-0.3199545
-0.3199557
-0.31995574
-0.31995417
-0.31995043
-0.3199438
-0.31993338
-0.31991805
-0.31989644
-0.31986685
-0.31982726
-0.31977519
-0.3197078
-0.319622
-0.31951396
-0.31937457
-0.31920323
-0.31900055
-0.31875703
-0.31846711
-0.31812682
-0.31773593
-0.31729539
-0.31680391
-0.31626058
-0.31565612
-0.31495395
-0.31406233
-0.31281241
-0.31095177
-0.30821581
-0.30443878
-0.29940086
-0.29348319
-0.28705577
-0.27880858
-0.26991442
-0.26103623
-0.25157351
-0.24183921
-0.23187554
-0.22171846
-0.21144087
-0.20107887
-0.19068245
-0.18022898
-0.16976285
-0.15915458
-0.14851058
-0.13751978
-0.12656914
-0.11497751
-0.10392728
-0.091795011
-0.081592905
-0.069218157
-0.061646239
-0.048733762
-0.32413753
-0.32413804
-0.32413833
-0.32413819
-0.32413746
-0.32413596
-0.32413344
-0.32412957
-0.32412394
-0.32411604
-0.32410524
-0.32409073
-0.32407153
-0.32404641
-0.32401389
-0.32397216
-0.32391904
-0.32385195
-0.32376786
-0.32366311
-0.32353383
-0.32337567
-0.32318357
-0.3229528
-0.32267783
-0.32235425
-0.3219798
-0.32155305
-0.32107228
-0.32053706
-0.31994536
-0.31928329
-0.31850967
-0.31753305
-0.31619033
-0.31425711
-0.31147675
-0.30771567
-0.30281034
-0.29685844
-0.29046467
-0.28240321
-0.27351529
-0.26458801
-0.25505888
-0.24520129
-0.23506206
-0.2247149
-0.21423684
-0.20369755
-0.19313924
-0.182617
-0.17211383
-0.16168162
-0.15120063
-0.14079046
-0.13015074
-0.11967762
-0.10869046
-0.098347814
-0.08701232
-0.077615091
-0.066049875
-0.05918147
-0.046910883
-0.32969035
-0.32968681
-0.32968221
-0.3296767
-0.3296699
-0.32966147
-0.32965103
-0.32963812
-0.32962214
-0.32960238
-0.32957796
-0.32954779
-0.32951058
-0.32946472
-0.32940831
-0.32933907
-0.3292543
-0.32915086
-0.32902512
-0.32887297
-0.32868983
-0.32847068
-0.32821036
-0.32790429
-0.32754865
-0.32713977
-0.32667456
-0.32615138
-0.3255685
-0.32491942
-0.32418481
-0.32331778
-0.32222463
-0.32075019
-0.31868451
-0.31580656
-0.31195437
-0.30708975
-0.30108108
-0.29461838
-0.28663392
-0.27768511
-0.26861288
-0.25899997
-0.24896833
-0.23861614
-0.22802972
-0.2173015
-0.2065045
-0.1957157
-0.18498121
-0.17436054
-0.16383997
-0.15347745
-0.14315821
-0.13301139
-0.12274108
-0.1127488
-0.10235072
-0.092683163
-0.082098556
-0.073456401
-0.062657006
-0.05646662
-0.044815912
-0.33700601
-0.33699633
-0.33698435
-0.33697078
-0.33695494
-0.33693628
-0.33691427
-0.33688825
-0.33685743
-0.33682083
-0.33677729
-0.33672541
-0.33666351
-0.33658959
-0.3365013
-0.33639588
-0.33627012
-0.33612033
-0.33594233
-0.33573161
-0.33548346
-0.33519304
-0.33485552
-0.33446607
-0.3340204
-0.33351512
-0.33294672
-0.33230968
-0.33159211
-0.33076744
-0.3297814
-0.32853649
-0.32688126
-0.32461925
-0.32154517
-0.31750653
-0.31243997
-0.30632317
-0.29960885
-0.29167162
-0.28259127
-0.27330137
-0.2635196
-0.25326222
-0.2426434
-0.23176144
-0.22071155
-0.20958737
-0.19847135
-0.18744478
-0.17655559
-0.1658657
-0.1553618
-0.1451054
-0.13498257
-0.12512853
-0.11524729
-0.10574206
-0.095924186
-0.086907194
-0.077039703
-0.069110646
-0.059045708
-0.053504591
-0.042476744
-0.34649679
-0.34647844
-0.34645608
-0.34643127
-0.34640289
-0.34637014
-0.34633229
-0.3462885
-0.34623771
-0.34617868
-0.34610994
-0.34602976
-0.34593614
-0.34582662
-0.34569839
-0.34554835
-0.34537288
-0.34516798
-0.34492925
-0.34465194
-0.34433099
-0.34396131
-0.34353793
-0.34305595
-0.34251021
-0.34189425
-0.34119788
-0.34040247
-0.33947291
-0.33834624
-0.33691928
-0.33504191
-0.33252594
-0.32918146
-0.32485997
-0.31949576
-0.31308756
-0.305919
-0.2978472
-0.28851675
-0.27890103
-0.26883079
-0.2582507
-0.24727595
-0.23601041
-0.22455779
-0.21301863
-0.20149328
-0.19006659
-0.17882147
-0.16780527
-0.15708008
-0.14663041
-0.13651879
-0.12662893
-0.11709865
-0.10762871
-0.098620461
-0.089380441
-0.080996881
-0.071823992
-0.064574586
-0.05522497
-0.050324854
-0.039884592
-0.35860392
-0.35857423
-0.35853833
-0.35849893
-0.35845442
-0.35840369
-0.35834581
-0.35827965
-0.35820387
-0.35811677
-0.35801691
-0.35790594
-0.35777787
-0.35762238
-0.3574436
-0.35724241
-0.35701067
-0.35674382
-0.35643735
-0.35608628
-0.3556852
-0.35522837
-0.35470936
-0.35412041
-0.35345084
-0.35268415
-0.35179304
-0.35073189
-0.34942713
-0.34776804
-0.34560371
-0.34275311
-0.33903784
-0.33432398
-0.32853256
-0.32170419
-0.31405731
-0.30555816
-0.29585486
-0.28577064
-0.27524105
-0.26414909
-0.25267496
-0.24090515
-0.22894026
-0.21688716
-0.2048491
-0.19292777
-0.18120822
-0.16977247
-0.15866483
-0.14794501