/*--------------------------------*- C++ -*----------------------------------*\
  =========                 |
  \\      /  F ield         | OpenFOAM: The Open Source CFD Toolbox
   \\    /   O peration     | Website:  https://openfoam.org
    \\  /    A nd           | Version:  13
     \\/     M anipulation  |
\*---------------------------------------------------------------------------*/
FoamFile
{
    format      ascii;
    class       volScalarField;
    location    "38.899851";
    object      yPlus;
}
// * * * * * * * * * * * * * * * * * * * * * * * * * * * * * * * * * * * * * //

dimensions      [];

internalField   uniform 0;

boundaryField
{
    inlet
    {
        type            calculated;
        value           uniform 0;
    }
    outlet
    {
        type            calculated;
        value           uniform 0;
    }
    cylinder
    {
        type            calculated;
        value           nonuniform List<scalar> 
132
(
1.7483611e-07
1.7419778e-07
1.7296243e-07
1.7109516e-07
1.6858264e-07
1.6542143e-07
1.6161727e-07
1.5718567e-07
1.5215257e-07
1.4655478e-07
1.4044072e-07
1.338703e-07
1.2691483e-07
1.1965531e-07
1.1218436e-07
1.0460489e-07
9.702389e-08
8.9555247e-08
8.2315003e-08
7.5415817e-08
6.8957108e-08
6.3011096e-08
5.7599613e-08
5.2662993e-08
4.8030965e-08
4.3421674e-08
3.8505736e-08
3.3034159e-08
2.6994583e-08
2.0697954e-08
1.4716234e-08
9.6949709e-09
6.1898104e-09
4.5680628e-09
4.6495e-09
5.5726402e-09
6.9262234e-09
8.6486051e-09
1.0768293e-08
1.3339246e-08
1.6483949e-08
2.0309857e-08
2.4493325e-08
2.8967209e-08
3.3603626e-08
3.8286253e-08
4.2917244e-08
4.7422033e-08
5.174755e-08
5.5860212e-08
5.9736589e-08
6.3368828e-08
6.6741966e-08
6.9839412e-08
7.2714176e-08
7.5336647e-08
7.7697039e-08
7.9820212e-08
8.1704129e-08
8.3357702e-08
8.4780671e-08
8.5956197e-08
8.6905538e-08
8.7611398e-08
8.8102147e-08
8.835706e-08
1.7484429e-07
1.7424614e-07
1.7305716e-07
1.7121773e-07
1.6869689e-07
1.6550624e-07
1.6166252e-07
1.5717735e-07
1.5207449e-07
1.4639145e-07
1.4017966e-07
1.3350437e-07
1.2644428e-07
1.1909095e-07
1.1154738e-07
1.039255e-07
9.6343961e-08
8.8922423e-08
8.1776968e-08
7.5012564e-08
6.8704289e-08
6.2885155e-08
5.7520289e-08
5.2487076e-08
4.7572979e-08
4.25043e-08
3.7024845e-08
3.1027174e-08
2.465922e-08
1.8333698e-08
1.2634499e-08
8.1448476e-09
5.330903e-09
4.4360079e-09
4.9106636e-09
6.0037642e-09
7.4699926e-09
9.3029305e-09
1.1539177e-08
1.4232484e-08
1.7494855e-08
2.1426921e-08
2.5685287e-08
3.0199659e-08
3.484139e-08
3.9505835e-08
4.4099585e-08
4.854944e-08
5.2813289e-08
5.6857874e-08
6.0663563e-08
6.4224243e-08
6.7522805e-08
7.0544046e-08
7.3371872e-08
7.5919886e-08
7.8225417e-08
8.0283052e-08
8.2115526e-08
8.3711449e-08
8.5075367e-08
8.6197296e-08
8.7088596e-08
8.7742269e-08
8.8169168e-08
8.8371145e-08
)
;
    }
    frontAndBack
    {
        type            empty;
    }
}


// ************************************************************************* //
