/*--------------------------------*- C++ -*----------------------------------*\
  =========                 |
  \\      /  F ield         | OpenFOAM: The Open Source CFD Toolbox
   \\    /   O peration     | Website:  https://openfoam.org
    \\  /    A nd           | Version:  13
     \\/     M anipulation  |
\*---------------------------------------------------------------------------*/
FoamFile
{
    format      ascii;
    class       volScalarField;
    location    "13.597122";
    object      p;
}
// * * * * * * * * * * * * * * * * * * * * * * * * * * * * * * * * * * * * * //

dimensions      [0 2 -2 0 0 0 0];

internalField   nonuniform List<scalar> 
17140
(
-0.10903087
-0.10916094
-0.10931807
-0.10947863
-0.10965269
-0.10984298
-0.11004983
-0.11027382
-0.1105156
-0.1107757
-0.11105454
-0.11135242
-0.1116697
-0.11200683
-0.11236468
-0.11274492
-0.11315055
-0.11358675
-0.11406193
-0.11458925
-0.11518833
-0.11588769
-0.11672753
-0.1177631
-0.11906869
-0.1207471
-0.12293474
-0.12568885
-0.12891882
-0.13264641
-0.13712366
-0.14257308
-0.14916931
-0.15713188
-0.16670493
-0.17815369
-0.19176747
-0.20785617
-0.22673983
-0.24872999
-0.27410106
-0.30305046
-0.33564706
-0.37180115
-0.4112104
-0.45305229
-0.49595997
-0.53916888
-0.58149245
-0.62140289
-0.65700737
-0.68629466
-0.70780638
-0.71684481
-0.71231369
-0.69113957
-0.64589128
-0.57362097
-0.4650473
-0.31690391
-0.14116096
0.0064699593
0.1084028
0.14191325
0.14767678
-0.10935846
-0.10948695
-0.10964207
-0.10980072
-0.10997272
-0.11016078
-0.11036522
-0.11058664
-0.11082567
-0.11108287
-0.11135862
-0.11165327
-0.11196714
-0.1123007
-0.11265484
-0.11303118
-0.11343272
-0.11386459
-0.11433515
-0.11485744
-0.11545098
-0.11614408
-0.11697668
-0.11800372
-0.11929903
-0.12096456
-0.12313584
-0.12587484
-0.12909364
-0.132806
-0.13726218
-0.14268839
-0.14925818
-0.15719076
-0.16673011
-0.17814149
-0.19171421
-0.20775835
-0.22659431
-0.24853355
-0.27385184
-0.30274795
-0.33529177
-0.37139867
-0.41076454
-0.45254584
-0.49541717
-0.53862317
-0.58096038
-0.62091145
-0.656605
-0.68603357
-0.70746587
-0.71744019
-0.71344204
-0.69231324
-0.64832392
-0.57735443
-0.47043595
-0.32364435
-0.14776192
0.00070783292
0.10381707
0.13844693
0.14493943
-0.11215785
-0.11228129
-0.11243043
-0.11258291
-0.11274827
-0.11292913
-0.11312583
-0.11333893
-0.11356908
-0.11381678
-0.11408242
-0.11436633
-0.11466879
-0.11499024
-0.11533147
-0.11569402
-0.11608072
-0.11649652
-0.11694949
-0.11745233
-0.11802412
-0.1186926
-0.11949706
-0.12049162
-0.12174906
-0.12336904
-0.12548501
-0.12817471
-0.13135899
-0.13502675
-0.13942395
-0.14478983
-0.15129581
-0.1591616
-0.16863215
-0.1799742
-0.19347832
-0.20945582
-0.22822857
-0.25010955
-0.27537549
-0.30422391
-0.33672462
-0.37279862
-0.41213328
-0.45378734
-0.49657335
-0.53977673
-0.58211025
-0.62208145
-0.65786351
-0.68752487
-0.7091626
-0.71959577
-0.71664399
-0.69660115
-0.65418898
-0.58569777
-0.48162275
-0.33675173
-0.16032993
-0.010289253
0.094595025
0.13078084
0.13854844
-0.11740863
-0.11752332
-0.11766154
-0.11780354
-0.11795766
-0.11812631
-0.11830985
-0.11850882
-0.11872384
-0.11895538
-0.11920381
-0.1194694
-0.11975237
-0.12005307
-0.12037217
-0.12071102
-0.12107219
-0.12146025
-0.12188282
-0.12235198
-0.12288606
-0.1235119
-0.12426764
-0.12520607
-0.12639833
-0.12794043
-0.12996194
-0.13256591
-0.1356888
-0.13928584
-0.1435881
-0.14885702
-0.15526183
-0.16302329
-0.17238828
-0.18362608
-0.1970293
-0.21291269
-0.23160034
-0.25340652
-0.27860741
-0.30739721
-0.33984342
-0.37587083
-0.41513331
-0.45653606
-0.4992242
-0.5423983
-0.58468076
-0.62462331
-0.66046183
-0.69033434
-0.71235253
-0.72364587
-0.7217752
-0.70317017
-0.66315762
-0.59809102
-0.49805445
-0.35559508
-0.17850434
-0.026723347
0.080227281
0.11814443
0.12790277
-0.12494923
-0.12505175
-0.12517483
-0.12530222
-0.12544066
-0.12559228
-0.12575743
-0.12593668
-0.12613055
-0.12633951
-0.12656385
-0.1268038
-0.1270595
-0.12733118
-0.12761933
-0.12792506
-0.12825059
-0.1286
-0.12898027
-0.12940267
-0.12988449
-0.13045131
-0.13113974
-0.13200073
-0.13310315
-0.1345383
-0.13642993
-0.13891284
-0.14194905
-0.14545179
-0.14962547
-0.15476131
-0.16102798
-0.16864719
-0.17786799
-0.1889636
-0.20223003
-0.21798454
-0.23655383
-0.25825336
-0.28335585
-0.31204787
-0.34439185
-0.38030625
-0.41935976
-0.46044645
-0.50303137
-0.54604754
-0.58820113
-0.62804683
-0.66392388
-0.69403833
-0.71653264
-0.72878193
-0.72831534
-0.71149755
-0.67414094
-0.6131251
-0.5177317
-0.3779298
-0.20035093
-0.047117504
0.061455353
0.10136333
0.11375714
-0.13449707
-0.1345843
-0.13468843
-0.13479742
-0.13491611
-0.13504623
-0.13518821
-0.13534253
-0.13550971
-0.13569012
-0.13588403
-0.13609158
-0.13631284
-0.13654793
-0.13679714
-0.13706131
-0.13734226
-0.13764353
-0.13797135
-0.13833601
-0.1387536
-0.13924818
-0.13985448
-0.14062114
-0.14161428
-0.14292115
-0.14465804
-0.14696778
-0.14986978
-0.15327583
-0.15731387
-0.16227543
-0.16836758
-0.17580679
-0.18484474
-0.1957578
-0.20884578
-0.22442934
-0.24283659
-0.26438124
-0.28933076
-0.31786002
-0.35002629
-0.38572444
-0.4243655
-0.46516812
-0.50757677
-0.55027195
-0.59218511
-0.63184732
-0.667711
-0.69806557
-0.72113283
-0.73445601
-0.73549579
-0.72069994
-0.68619512
-0.62944416
-0.53900764
-0.40156575
-0.22454204
-0.070302952
0.039356034
0.081369464
0.09703823
-0.14563566
-0.14570503
-0.14578711
-0.14587448
-0.14596991
-0.14607474
-0.14618939
-0.14631433
-0.14644998
-0.14659669
-0.14675465
-0.14692396
-0.14710461
-0.14729659
-0.14750006
-0.14771557
-0.14794456
-0.14819
-0.14845735
-0.14875583
-0.14910016
-0.14951269
-0.15002597
-0.15068593
-0.15155536
-0.15271745
-0.15428058
-0.15638157
-0.15911023
-0.16240653
-0.16630446
-0.17106177
-0.17694961
-0.18417574
-0.19299368
-0.2036835
-0.21654866
-0.23191134
-0.25009998
-0.27142558
-0.29614671
-0.32442363
-0.3563052
-0.39163428
-0.42973781
-0.47025735
-0.51231961
-0.55457907
-0.59613373
-0.63552308
-0.67131037
-0.70188132
-0.72552879
-0.7399428
-0.74252642
-0.72978486
-0.6982952
-0.64555112
-0.55921778
-0.42441751
-0.24769248
-0.094266205
0.015522604
0.059617285
0.079089388
-0.15784504
-0.15789489
-0.15795406
-0.15801732
-0.15808673
-0.15816332
-0.15824744
-0.1583395
-0.15843985
-0.15854877
-0.15866642
-0.15879283
-0.15892797
-0.15907175
-0.15922418
-0.15938563
-0.15955719
-0.15974133
-0.15994274
-0.16016963
-0.16043528
-0.16076022
-0.16117465
-0.16172147
-0.16245971
-0.16346797
-0.1648472
-0.16672417
-0.16923637
-0.17239119
-0.17615049
-0.1807068
-0.18636313
-0.19334681
-0.20191068
-0.21233747
-0.22493277
-0.24001974
-0.25792486
-0.27895425
-0.3033556
-0.33127558
-0.36275155
-0.39754035
-0.43510474
-0.47520112
-0.51672561
-0.55849556
-0.59957186
-0.63862055
-0.67430197
-0.7050619
-0.72923768
-0.74466407
-0.74871184
-0.73788336
-0.70921086
-0.66016321
-0.5769721
-0.44411989
-0.27026882
-0.11984115
-0.0080990923
0.037551026
0.060965565
-0.17053069
-0.17055982
-0.17059465
-0.17063228
-0.17067397
-0.17072041
-0.1707719
-0.17082876
-0.17089127
-0.17095964
-0.17103399
-0.17111435
-0.17120064
-0.17129276
-0.17139068
-0.17149464
-0.17160552
-0.17172542
-0.1718584
-0.17201175
-0.17219746
-0.17243425
-0.17274998
-0.17318447
-0.17379271
-0.17464831
-0.17584624
-0.1775034
-0.17975527
-0.18271086
-0.18635506
-0.19073369
-0.1961321
-0.20285616
-0.21113719
-0.22126342
-0.23354182
-0.24829468
-0.26584557
-0.28649459
-0.31047885
-0.33793375
-0.368891
-0.40304573
-0.44004334
-0.4794692
-0.52029739
-0.56154054
-0.60208568
-0.64074337
-0.67627955
-0.70716529
-0.73181407
-0.74815029
-0.7534621
-0.74430622
-0.71820442
-0.67191719
-0.59060842
-0.45839947
-0.28744157
-0.13811197
-0.032084033
0.016181511
0.043436512
-0.18305914
-0.18306725
-0.18307735
-0.18308887
-0.18310228
-0.18311791
-0.18313597
-0.18315669
-0.18318026
-0.18320685
-0.18323653
-0.18326933
-0.18330518
-0.18334403
-0.18338586
-0.18343094
-0.18348008
-0.18353516
-0.18359988
-0.18368081
-0.18378888
-0.18394122
-0.18416349
-0.18449258
-0.18497952
-0.1856927
-0.18672086
-0.18817415
-0.19018006
-0.19286943
-0.19633054
-0.20059056
-0.20577521
-0.2121964
-0.22017096
-0.22996855
-0.24189118
-0.25625702
-0.27338483
-0.29356997
-0.31704232
-0.34393023
-0.37425651
-0.40772134
-0.44403632
-0.48264973
-0.52267155
-0.56326053
-0.60326461
-0.64149726
-0.67683377
-0.70776773
-0.73283024
-0.74992009
-0.75625644
-0.74834928
-0.72427103
-0.67969521
-0.59837448
-0.46595942
-0.30119242
-0.15074757
-0.055241441
-0.0036755886
0.026974477
-0.19480502
-0.19479276
-0.19477887
-0.19476499
-0.19475082
-0.1947363
-0.19472157
-0.19470675
-0.19469195
-0.19467723
-0.19466266
-0.19464826
-0.19463401
-0.19461994
-0.19460614
-0.194593
-0.19458142
-0.19457329
-0.19457216
-0.19458421
-0.19461962
-0.19469427
-0.19483198
-0.195067
-0.19544678
-0.19603483
-0.19691347
-0.1981858
-0.19997406
-0.20240968
-0.2056138
-0.20968378
-0.21472141
-0.22091136
-0.22855927
-0.23798902
-0.2495074
-0.26342451
-0.28005914
-0.29969969
-0.32256769
-0.34878656
-0.37833736
-0.41106704
-0.44666495
-0.48442067
-0.52355981
-0.56332438
-0.60269931
-0.6404942
-0.67558916
-0.7065049
-0.7318422
-0.74944883
-0.7564293
-0.74931823
-0.72667623
-0.68206535
-0.59923154
-0.46710265
-0.30970298
-0.16545201
-0.074252022
-0.021744159
0.011751437
-0.20520048
-0.20516952
-0.20513356
-0.20509623
-0.20505649
-0.20501396
-0.20496864
-0.20492054
-0.20486966
-0.20481597
-0.2047595
-0.20470024
-0.20463826
-0.20457366
-0.20450671
-0.20443798
-0.2043686
-0.20430066
-0.2042378
-0.20418612
-0.20415541
-0.20416078
-0.20422463
-0.20437908
-0.20466854
-0.20515232
-0.20590702
-0.20702865
-0.2086329
-0.21085043
-0.21381343
-0.21764233
-0.22245952
-0.22843444
-0.23580515
-0.24487563
-0.25596742
-0.26939684
-0.28547774
-0.30449677
-0.32667977
-0.35215329
-0.38087919
-0.41278338
-0.44750289
-0.48431629
-0.52255831
-0.56145419
-0.60009994
-0.63737702
-0.67214255
-0.70293449
-0.72839953
-0.74620931
-0.75338063
-0.74675481
-0.724483
-0.67785115
-0.59253141
-0.4610202
-0.30985292
-0.1781662
-0.090373295
-0.038072488
-0.0022192422
-0.21378498
-0.213738
-0.21368306
-0.21362549
-0.21356358
-0.21349663
-0.21342452
-0.21334712
-0.21326428
-0.21317589
-0.21308188
-0.21298221
-0.21287697
-0.21276635
-0.21265076
-0.21253098
-0.21240842
-0.21228545
-0.21216597
-0.21205626
-0.21196604
-0.21191002
-0.2119097
-0.21199565
-0.21220989
-0.21260829
-0.21326278
-0.21426302
-0.21571735
-0.21775167
-0.22050295
-0.22410737
-0.22869801
-0.2344294
-0.24151563
-0.25023571
-0.26090014
-0.27382415
-0.28931306
-0.30764898
-0.32906446
-0.35369719
-0.38154393
-0.4124701
-0.44611101
-0.4818922
-0.51919298
-0.55722724
-0.59510486
-0.63177069
-0.66611392
-0.69666542
-0.7220249
-0.73965448
-0.74661258
-0.74009225
-0.71658805
-0.66671507
-0.57840418
-0.44921024
-0.30823576
-0.18730215
-0.1037943
-0.052535133
-0.01497531
-0.22025128
-0.22019188
-0.22012215
-0.22004869
-0.21996928
-0.2198829
-0.21978932
-0.21968823
-0.21957936
-0.21946243
-0.21933726
-0.21920375
-0.2190619
-0.21891194
-0.21875435
-0.21859005
-0.21842063
-0.21824873
-0.2180785
-0.21791642
-0.21777228
-0.2176606
-0.21760232
-0.21762691
-0.21777464
-0.21809883
-0.21866786
-0.2195665
-0.22089667
-0.22277732
-0.22534233
-0.22873439
-0.23309784
-0.23858662
-0.24538972
-0.25375493
-0.26396896
-0.27634048
-0.29117582
-0.3087561
-0.32931022
-0.35298344
-0.37979814
-0.40962746
-0.44214713
-0.4768418
-0.51312145
-0.5502375
-0.58731733
-0.62331621
-0.65714061
-0.68731687
-0.71225634
-0.72924267
-0.73571973
-0.72852349
-0.70232236
-0.64851982
-0.55755933
-0.43314929
-0.30294445
-0.1939626
-0.11507941
-0.065286845
-0.026568621
-0.22447821
-0.22441067
-0.22433117
-0.2242471
-0.22415585
-0.22405615
-0.22394766
-0.2238299
-0.22370243
-0.2235648
-0.22341668
-0.2232578
-0.22308806
-0.22290757
-0.22271676
-0.22251653
-0.22230851
-0.22209538
-0.22188137
-0.22167297
-0.22147989
-0.22131636
-0.22120276
-0.22116756
-0.22124955
-0.22149999
-0.22198454
-0.22278447
-0.22399696
-0.22573471
-0.22812512
-0.23130837
-0.23543338
-0.2406566
-0.24715184
-0.25513236
-0.26486919
-0.27665129
-0.29077354
-0.30751432
-0.32710929
-0.34971912
-0.37539065
-0.40402407
-0.43533632
-0.46886726
-0.50406284
-0.54020063
-0.57642894
-0.6116823
-0.6448986
-0.67446311
-0.69866875
-0.71468463
-0.7204081
-0.71134498
-0.68163171
-0.62358441
-0.53110645
-0.4143397
-0.29661369
-0.19847527
-0.12427914
-0.076354201
-0.037010998
-0.22653906
-0.22646809
-0.22638429
-0.22629537
-0.22619852
-0.22609231
-0.22597626
-0.22584975
-0.22571215
-0.22556286
-0.22540133
-0.22522709
-0.22503985
-0.22483948
-0.2246262
-0.22440071
-0.2241644
-0.22391971
-0.22367057
-0.22342311
-0.22318652
-0.2229743
-0.22280577
-0.22270803
-0.22271807
-0.22288504
-0.2232722
-0.22395816
-0.22503709
-0.22661776
-0.228822
-0.23178371
-0.2356478
-0.24057172
-0.24671469
-0.25431673
-0.26350744
-0.2746065
-0.28793688
-0.30375183
-0.32228819
-0.34372194
-0.36813019
-0.39545128
-0.42545007
-0.45772806
-0.49176813
-0.52686843
-0.56218357
-0.59662927
-0.62911183
-0.65781203
-0.68100836
-0.69594553
-0.70035353
-0.68849989
-0.65489575
-0.59268447
-0.50468774
-0.39402478
-0.28873435
-0.20122333
-0.13166063
-0.085872951
-0.046332924
-0.22668926
-0.22661931
-0.22653602
-0.22644802
-0.22635185
-0.226246
-0.22612987
-0.22600273
-0.22586382
-0.22571234
-0.22554755
-0.22536876
-0.22517538
-0.224967
-0.22474349
-0.22450513
-0.22425283
-0.22398845
-0.22371522
-0.22343835
-0.22316589
-0.22290984
-0.22268764
-0.22252404
-0.22245322
-0.22252116
-0.2227879
-0.2233291
-0.22423652
-0.22561694
-0.22758975
-0.23028452
-0.23383949
-0.23840679
-0.24414067
-0.25112333
-0.25980197
-0.27025772
-0.28269981
-0.29745822
-0.31479582
-0.33491327
-0.35791756
-0.38379353
-0.41236317
-0.44328787
-0.47609067
-0.51008473
-0.54443245
-0.5780027
-0.60959482
-0.63723878
-0.65937828
-0.67305558
-0.6756412
-0.66049487
-0.62188761
-0.55859798
-0.47318899
-0.37786758
-0.28049398
-0.20243131
-0.13738415
-0.093908667
-0.05454482
-0.22531758
-0.22525257
-0.22517448
-0.22509251
-0.22500268
-0.22490339
-0.22479403
-0.22467381
-0.22454182
-0.22439715
-0.22423888
-0.22406609
-0.22387794
-0.22367366
-0.2234527
-0.22321481
-0.22296025
-0.22269003
-0.22240629
-0.22211287
-0.22181601
-0.22152541
-0.22125556
-0.22102753
-0.22087104
-0.22082698
-0.22094989
-0.22131021
-0.22199544
-0.22310968
-0.22477109
-0.22710792
-0.23025411
-0.23434926
-0.23953775
-0.24598501
-0.25390977
-0.26337807
-0.27490307
-0.28856916
-0.30460809
-0.32327952
-0.34473931
-0.36903016
-0.39604691
-0.42551869
-0.45700677
-0.4898312
-0.52318286
-0.55578111
-0.58640149
-0.61302013
-0.63418123
-0.64647493
-0.64688743
-0.62718737
-0.58538151
-0.5241112
-0.44174351
-0.35829115
-0.27287043
-0.20232187
-0.1416264
-0.10057548
-0.061684729
-0.22288864
-0.22283166
-0.22276266
-0.22269068
-0.22261154
-0.22252373
-0.22242661
-0.22231938
-0.22220109
-0.22207075
-0.22192731
-0.2217697
-0.22159685
-0.22140769
-0.22120127
-0.2209768
-0.22073382
-0.22047241
-0.22019346
-0.21989914
-0.21959351
-0.21928335
-0.21897938
-0.21869777
-0.21846217
-0.21830606
-0.21827555
-0.21843211
-0.21885478
-0.21964112
-0.22090592
-0.22277763
-0.22539213
-0.22889106
-0.23340466
-0.23912464
-0.24613502
-0.25482619
-0.26519777
-0.27741736
-0.29193285
-0.30898006
-0.32873464
-0.35129396
-0.37662813
-0.40455798
-0.43467508
-0.46632826
-0.49864845
-0.53028069
-0.56007508
-0.58591567
-0.60633713
-0.6171763
-0.61509517
-0.5903676
-0.54707726
-0.48630851
-0.41657561
-0.33963295
-0.2644067
-0.20091652
-0.14450253
-0.10594478
-0.067783978
-0.2198661
-0.219819
-0.21976149
-0.21970187
-0.21963611
-0.21956284
-0.21948148
-0.21939124
-0.2192912
-0.21918036
-0.21905765
-0.21892194
-0.218772
-0.21860659
-0.21842446
-0.2182244
-0.21800536
-0.21776656
-0.21750775
-0.21722948
-0.21693361
-0.21662391
-0.21630704
-0.21599375
-0.21570056
-0.21545192
-0.21528278
-0.21524158
-0.21539326
-0.21582172
-0.21663076
-0.21794292
-0.2198946
-0.22263408
-0.22630302
-0.23108512
-0.23707849
-0.24444874
-0.25332714
-0.26408266
-0.2769748
-0.29224141
-0.31013916
-0.33083096
-0.35441188
-0.38076142
-0.40952459
-0.44002203
-0.47141067
-0.50230932
-0.5317235
-0.55719789
-0.57691632
-0.58532817
-0.57711468
-0.55050545
-0.50706529
-0.45276635
-0.39013587
-0.32298758
-0.25599686
-0.19860311
-0.14619833
-0.11012514
-0.072899591
-0.2166585
-0.21662174
-0.21657693
-0.2165304
-0.2164789
-0.2164213
-0.21635705
-0.21628547
-0.2162057
-0.21611682
-0.21601782
-0.21590758
-0.21578488
-0.21564842
-0.2154968
-0.21532858
-0.21514232
-0.21493667
-0.2147105
-0.21446308
-0.21419445
-0.21390576
-0.21359998
-0.21328273
-0.21296351
-0.21265729
-0.21238659
-0.21218405
-0.21209548
-0.21218299
-0.21252783
-0.21323209
-0.214417
-0.2162218
-0.21879208
-0.2222926
-0.22686025
-0.23270256
-0.2400507
-0.24909731
-0.26010957
-0.27342977
-0.28934919
-0.3081201
-0.32992496
-0.35474667
-0.38225448
-0.41182814
-0.44263671
-0.47337278
-0.50298037
-0.52817037
-0.54604891
-0.55012026
-0.53703649
-0.51218549
-0.46738072
-0.42253752
-0.36605738
-0.30679823
-0.24703212
-0.19531851
-0.14677774
-0.11319096
-0.077069577
-0.2135512
-0.21352456
-0.21349287
-0.21345862
-0.21342052
-0.21337782
-0.21333001
-0.21327649
-0.21321656
-0.21314942
-0.21307418
-0.21298987
-0.21289537
-0.21278948
-0.21267087
-0.2125381
-0.21238964
-0.21222392
-0.21203936
-0.21183449
-0.21160814
-0.21135959
-0.21108904
-0.21079802
-0.21049018
-0.21017224
-0.20985523
-0.20955624
-0.20930065
-0.20912484
-0.20907954
-0.20923357
-0.20967334
-0.21051421
-0.21189357
-0.2139728
-0.2169265
-0.2209633
-0.22631971
-0.23325808
-0.2420977
-0.25323006
-0.2670286
-0.28386354
-0.30395313
-0.3273906
-0.35390189
-0.38289634
-0.41389231
-0.44504378
-0.47527059
-0.49869837
-0.51323475
-0.51238489
-0.49872001
-0.47173434
-0.43577208
-0.39340438
-0.34353924
-0.29140561
-0.23797486
-0.1913336
-0.14641009
-0.11524897
-0.080349766
-0.21074498
-0.21072686
-0.21070515
-0.21068161
-0.21065535
-0.21062582
-0.21059263
-0.21055531
-0.21051334
-0.21046608
-0.21041289
-0.21035297
-0.21028537
-0.21020898
-0.21012257
-0.21002475
-0.20991411
-0.20978919
-0.20964848
-0.20949043
-0.20931344
-0.20911594
-0.20889646
-0.20865363
-0.20838673
-0.20809627
-0.20778416
-0.20745442
-0.20711418
-0.20677497
-0.20645521
-0.20618896
-0.2060204
-0.20599868
-0.2062329
-0.20685474
-0.20804405
-0.21003488
-0.21312
-0.21765311
-0.224046
-0.23276628
-0.24430766
-0.25917215
-0.27768798
-0.30009397
-0.32614694
-0.35593352
-0.38771851
-0.41973363
-0.44787431
-0.46737397
-0.47815222
-0.47481649
-0.46000569
-0.43495422
-0.40359412
-0.3667302
-0.32268357
-0.27651252
-0.22866677
-0.18666232
-0.14516022
-0.11636772
-0.082792992
-0.20822852
-0.20821744
-0.20820415
-0.20818969
-0.2081735
-0.20815523
-0.20813461
-0.20811141
-0.20808519
-0.20805445
-0.20801761
-0.20797457
-0.20792587
-0.20787157
-0.20781127
-0.20774477
-0.20767199
-0.20759244
-0.2075046
-0.20740596
-0.20729335
-0.20716317
-0.20701028
-0.20683052
-0.20662377
-0.20638964
-0.20612365
-0.2058206
-0.20547399
-0.20507403
-0.20462999
-0.20411437
-0.20349418
-0.20282487
-0.20215016
-0.20152295
-0.20109347
-0.20109436
-0.20186429
-0.20385843
-0.20762958
-0.21380979
-0.22308294
-0.23613484
-0.25335807
-0.27534589
-0.30220308
-0.33325465
-0.36485377
-0.39498675
-0.41841636
-0.43404095
-0.43606304
-0.43993214
-0.4221425
-0.40274653
-0.37540543
-0.34221346
-0.30304393
-0.26216947
-0.21928806
-0.18146737
-0.14315834
-0.11664703
-0.084458373
-0.20599915
-0.20599514
-0.20599028
-0.20598491
-0.20597878
-0.20597181
-0.20596422
-0.20595503
-0.20593762
-0.20591269
-0.20590104
-0.20591137
-0.20592368
-0.20592131
-0.20590108
-0.20586054
-0.20580153
-0.20573589
-0.2056711
-0.20560562
-0.20553724
-0.20546211
-0.20537411
-0.20526532
-0.20512997
-0.20496379
-0.20475995
-0.20450834
-0.20419462
-0.20379781
-0.20329222
-0.20264534
-0.20180632
-0.20075559
-0.19946447
-0.19793985
-0.19627991
-0.19467928
-0.19349623
-0.19327191
-0.19471487
-0.19863541
-0.20570715
-0.21717443
-0.23407728
-0.25674163
-0.28404886
-0.31376646
-0.34321494
-0.36876755
-0.38903926
-0.40067655
-0.40456783
-0.39984647
-0.39162564
-0.37313535
-0.34860143
-0.31926632
-0.28454775
-0.24829913
-0.20981866
-0.17579564
-0.14047331
-0.11615334
-0.085396555
-0.20393941
-0.20394263
-0.20394635
-0.20395022
-0.20395431
-0.20395864
-0.20396319
-0.20396785
-0.20397255
-0.20397794
-0.20398508
-0.20399708
-0.20401351
-0.20402434
-0.20402127
-0.20400206
-0.20397787
-0.20396928
-0.20397019
-0.20395652
-0.20392011
-0.20386756
-0.20381962
-0.20377928
-0.20371192
-0.20360461
-0.20346427
-0.20327698
-0.20302163
-0.20266827
-0.2021775
-0.20149839
-0.2005744
-0.19934428
-0.19776934
-0.19578621
-0.19342895
-0.19084084
-0.18833898
-0.18653071
-0.18619029
-0.18826402
-0.19420372
-0.20560144
-0.22229878
-0.24390773
-0.26910728
-0.29653609
-0.32098795
-0.34305809
-0.36190248
-0.36946129
-0.37532296
-0.37029578
-0.36133273
-0.345491
-0.3240481
-0.29794617
-0.26706098
-0.23488856
-0.20032703
-0.16974176
-0.13719965
-0.11496922
-0.085666246
-0.2021769
-0.2021887
-0.20220259
-0.20221726
-0.20223315
-0.20225047
-0.20226925
-0.2022895
-0.20231126
-0.20233467
-0.20235967
-0.20238394
-0.20240605
-0.20242841
-0.20245184
-0.20247446
-0.20249636
-0.20251919
-0.20254502
-0.20257226
-0.20259661
-0.20261721
-0.2026347
-0.20265115
-0.2026417
-0.20256279
-0.2024217
-0.20224228
-0.20200093
-0.20164968
-0.20114995
-0.20047424
-0.19956975
-0.19830733
-0.196579
-0.19437052
-0.19171169
-0.18867842
-0.1856386
-0.18313475
-0.18230591
-0.18403358
-0.189386
-0.19946052
-0.21426156
-0.23364038
-0.25648334
-0.27928321
-0.29944423
-0.32119826
-0.33449554
-0.34393315
-0.34430762
-0.34166788
-0.33422204
-0.32026407
-0.30110051
-0.27792721
-0.25046943
-0.22189561
-0.19082792
-0.16336014
-0.13340409
-0.11315829
-0.085317738
-0.20075837
-0.2007788
-0.20080283
-0.20082824
-0.20085579
-0.20088584
-0.20091845
-0.20095371
-0.20099168
-0.20103237
-0.20107574
-0.20112168
-0.20117008
-0.20122071
-0.20127303
-0.20132634
-0.20137974
-0.20143209
-0.20148187
-0.20152788
-0.20156766
-0.20158762
-0.20157277
-0.20154566
-0.20153621
-0.20151667
-0.20144037
-0.20130523
-0.20112884
-0.20087639
-0.20046449
-0.19982873
-0.19884691
-0.19755043
-0.19606081
-0.19413786
-0.19172826
-0.18896408
-0.18604004
-0.18369497
-0.18256772
-0.18348836
-0.18794368
-0.19641581
-0.20945144
-0.2262518
-0.24549101
-0.263979
-0.28321724
-0.2999319
-0.30959314
-0.3168724
-0.3192263
-0.31655339
-0.30920276
-0.29677122
-0.27975524
-0.25916304
-0.23469744
-0.20930109
-0.18135215
-0.15670904
-0.12915464
-0.11078712
-0.084401033
-0.20058821
-0.20061124
-0.20063842
-0.20066707
-0.20069814
-0.20073204
-0.20076886
-0.20080869
-0.20085161
-0.20089765
-0.20094679
-0.20099891
-0.20105382
-0.20111123
-0.20117069
-0.20123163
-0.20129327
-0.20135465
-0.20141453
-0.20147139
-0.20152329
-0.20156768
-0.20160085
-0.20161843
-0.20161689
-0.20159084
-0.20152713
-0.20140671
-0.20121362
-0.20094129
-0.2005443
-0.20003031
-0.19941389
-0.19851223
-0.19721527
-0.19550072
-0.19344991
-0.19118456
-0.18870823
-0.18640436
-0.18505704
-0.18556958
-0.18893568
-0.19595673
-0.20677842
-0.22067873
-0.23658066
-0.25160475
-0.26673513
-0.27902002
-0.28809454
-0.29416791
-0.29535473
-0.29272187
-0.28608956
-0.27502048
-0.259797
-0.24147367
-0.21965344
-0.19707262
-0.17191414
-0.14983407
-0.12450807
-0.1079127
-0.082962026
-0.2015423
-0.20156194
-0.20158508
-0.20160958
-0.20163618
-0.20166522
-0.20169681
-0.20173102
-0.20176795
-0.20180763
-0.20185006
-0.20189516
-0.20194279
-0.2019927
-0.20204451
-0.20209773
-0.20215168
-0.2022055
-0.20225813
-0.20230827
-0.20235437
-0.20239457
-0.20242668
-0.2024486
-0.20245819
-0.20244522
-0.20239309
-0.20230123
-0.20220188
-0.20212495
-0.20196671
-0.20155372
-0.2009344
-0.20022039
-0.19931001
-0.19802408
-0.196342
-0.1943213
-0.19205245
-0.18990606
-0.18847427
-0.18853869
-0.19104683
-0.19659616
-0.20527414
-0.21629531
-0.22734369
-0.23945708
-0.25186465
-0.26156552
-0.26850166
-0.27286002
-0.27373445
-0.27109271
-0.26477385
-0.25475721
-0.24109955
-0.22477031
-0.20527434
-0.18518871
-0.16252979
-0.14277522
-0.1195162
-0.10458981
-0.081044603
-0.2036486
-0.20366115
-0.20367594
-0.20369161
-0.20370862
-0.2037272
-0.20374741
-0.2037693
-0.20379292
-0.20381828
-0.20384536
-0.2038741
-0.20390436
-0.20393594
-0.20396854
-0.20400174
-0.20403502
-0.20406769
-0.20409893
-0.20412771
-0.20415279
-0.20417253
-0.20418616
-0.20419513
-0.20421099
-0.20420809
-0.2042062
-0.20421764
-0.20410935
-0.20388903
-0.20368852
-0.20344889
-0.20305171
-0.2024618
-0.20162569
-0.20047644
-0.19900876
-0.19723336
-0.19523116
-0.19325661
-0.19181437
-0.19158021
-0.19332725
-0.19750722
-0.20382335
-0.21067477
-0.21961796
-0.23001386
-0.23819599
-0.24530969
-0.2505723
-0.25364291
-0.25373896
-0.25089216
-0.24491813
-0.23582413
-0.22351474
-0.20893347
-0.19148941
-0.1736213
-0.15320686
-0.13556512
-0.1142231
-0.10086687
-0.078689488
-0.20631898
-0.20632473
-0.20633148
-0.20633859
-0.20634625
-0.20635457
-0.20636352
-0.20637311
-0.2063833
-0.20639404
-0.20640524
-0.20641676
-0.2064284
-0.20643989
-0.20645087
-0.20646086
-0.20646927
-0.20647539
-0.20647826
-0.20647636
-0.20646853
-0.20646175
-0.20645069
-0.20643665
-0.20642264
-0.20635368
-0.20622027
-0.20610161
-0.20599371
-0.2058246
-0.20558583
-0.20526389
-0.20482542
-0.20424402
-0.20347699
-0.20247449
-0.20119956
-0.19963929
-0.19784473
-0.1960115
-0.19456016
-0.19400657
-0.19503693
-0.19745622
-0.20098241
-0.20662041
-0.21356912
-0.21952982
-0.2254393
-0.23053212
-0.23407174
-0.23581282
-0.2352244
-0.23217529
-0.22642153
-0.21806813
-0.20692113
-0.19387352
-0.17824097
-0.16234645
-0.14395162
-0.12823114
-0.10866823
-0.096789192
-0.075935447
-0.20939596
-0.20939768
-0.20939962
-0.20940152
-0.20940341
-0.20940523
-0.20940692
-0.20940836
-0.20940942
-0.2094099
-0.20940958
-0.20940813
-0.20940517
-0.20940018
-0.20939252
-0.20938142
-0.20936591
-0.20934478
-0.20931652
-0.20927948
-0.20923368
-0.20917646
-0.20909955
-0.2089999
-0.20886674
-0.2087105
-0.20853839
-0.20833177
-0.20808456
-0.20778564
-0.20743192
-0.20701568
-0.20651604
-0.20590985
-0.20516638
-0.2042401
-0.20307674
-0.20162852
-0.19991481
-0.19809605
-0.19649402
-0.19551199
-0.19557576
-0.19656131
-0.19896314
-0.20243779
-0.20588143
-0.20986689
-0.21360343
-0.21668976
-0.21868253
-0.21925709
-0.21795055
-0.21463403
-0.20905244
-0.20133186
-0.19119487
-0.17949631
-0.16546979
-0.15133704
-0.13476523
-0.12079463
-0.10288491
-0.092396139
-0.072820256
-0.21289437
-0.21289419
-0.21289379
-0.21289305
-0.21289187
-0.2128901
-0.21288758
-0.21288407
-0.21287929
-0.2128729
-0.21286445
-0.21285337
-0.21283899
-0.21282045
-0.2127967
-0.21276646
-0.21272816
-0.21267994
-0.2126196
-0.21254488
-0.21245254
-0.21233304
-0.21218796
-0.21201992
-0.2118177
-0.21157723
-0.21129408
-0.21096488
-0.21058947
-0.21016763
-0.20969541
-0.20916852
-0.20858121
-0.2079171
-0.20714058
-0.20618836
-0.20497932
-0.20344239
-0.2016057
-0.19959799
-0.19765058
-0.19618433
-0.19537923
-0.19534534
-0.1958348
-0.19695918
-0.19857034
-0.20042494
-0.20221085
-0.20361072
-0.20419768
-0.20368919
-0.20171298
-0.19813386
-0.1926747
-0.18548408
-0.17622713
-0.16571981
-0.15312251
-0.14056738
-0.12564711
-0.1132727
-0.096902706
-0.087724744
-0.069378279
-0.21730728
-0.21730488
-0.21730173
-0.21729791
-0.21729315
-0.21728719
-0.21727975
-0.21727048
-0.21725892
-0.21724454
-0.21722666
-0.21720445
-0.2171769
-0.21714277
-0.21710057
-0.21704848
-0.21698435
-0.21690562
-0.21680929
-0.21669189
-0.2165495
-0.21637766
-0.21617189
-0.21592708
-0.21563804
-0.21530085
-0.21491331
-0.21447384
-0.21398128
-0.21343662
-0.21284282
-0.21219991
-0.2114989
-0.21071159
-0.20978021
-0.20861762
-0.20712997
-0.20526205
-0.2030786
-0.20062104
-0.19829122
-0.19632329
-0.19451543
-0.19278809
-0.19160646
-0.19109909
-0.19093197
-0.19104404
-0.19117736
-0.19106467
-0.1903932
-0.18892142
-0.18632427
-0.18248494
-0.17712157
-0.17039131
-0.16191167
-0.15246376
-0.14114648
-0.13001003
-0.116593
-0.10567669
-0.090745373
-0.08280127
-0.06564158
-0.22307795
-0.22307113
-0.22306263
-0.22305295
-0.22304158
-0.22302809
-0.22301208
-0.22299303
-0.22297032
-0.22294318
-0.2229107
-0.22287175
-0.222825
-0.22276882
-0.22270129
-0.22262011
-0.22252258
-0.22240554
-0.22226536
-0.22209789
-0.22189851
-0.22166214
-0.22138372
-0.22105841
-0.22068179
-0.22024968
-0.2197591
-0.2192093
-0.21860129
-0.21793653
-0.21721398
-0.21642395
-0.21553881
-0.21450312
-0.21323209
-0.21162775
-0.20961211
-0.20718544
-0.20438303
-0.20131647
-0.19844051
-0.19521778
-0.19210039
-0.18910508
-0.18675829
-0.1847517
-0.18306947
-0.18164184
-0.18030408
-0.17887058
-0.17708866
-0.17476127
-0.17160949
-0.16753722
-0.16225843
-0.15593614
-0.14815211
-0.1396549
-0.12949284
-0.11963855
-0.10759777
-0.098014963
-0.084435508
-0.077654094
-0.061648182
-0.23060568
-0.23059175
-0.23057475
-0.23055583
-0.23053414
-0.23050903
-0.23047993
-0.23044614
-0.23040683
-0.23036098
-0.23030741
-0.23024468
-0.2301711
-0.23008465
-0.22998297
-0.22986331
-0.22972245
-0.22955671
-0.22936199
-0.22913377
-0.22886716
-0.22855707
-0.22819818
-0.22778536
-0.2273142
-0.22678129
-0.22618419
-0.22552122
-0.22478997
-0.22398413
-0.22308761
-0.22206636
-0.22086076
-0.21938338
-0.21753565
-0.21523217
-0.21244094
-0.20918759
-0.2055178
-0.201848
-0.19764592
-0.19310441
-0.18885986
-0.18498639
-0.18130005
-0.17792859
-0.17486891
-0.17208049
-0.16945873
-0.16686826
-0.16411437
-0.16104329
-0.15741028
-0.15314129
-0.14795082
-0.14200459
-0.13485588
-0.12722249
-0.11811362
-0.10942553
-0.098653963
-0.090291622
-0.077990526
-0.072295152
-0.057391126
-0.24025712
-0.24023341
-0.24020474
-0.24017323
-0.24013756
-0.24009684
-0.24005029
-0.23999696
-0.23993575
-0.23986542
-0.23978443
-0.23969101
-0.23958311
-0.23945838
-0.23931412
-0.2391472
-0.23895405
-0.23873065
-0.23847255
-0.23817489
-0.23783255
-0.2374403
-0.23699294
-0.23648543
-0.23591301
-0.23527092
-0.23455362
-0.23375279
-0.2328538
-0.23183015
-0.23063651
-0.22920357
-0.22743831
-0.22523707
-0.22251779
-0.21922412
-0.21537521
-0.21104041
-0.20651863
-0.20151267
-0.19589707
-0.19060524
-0.18532235
-0.18012457
-0.17518919
-0.17055897
-0.16624961
-0.16225245
-0.15850071
-0.15490605
-0.151316
-0.14761281
-0.14358013
-0.13916384
-0.13407968
-0.128494
-0.12193855