/*--------------------------------*- C++ -*----------------------------------*\
  =========                 |
  \\      /  F ield         | OpenFOAM: The Open Source CFD Toolbox
   \\    /   O peration     | Website:  https://openfoam.org
    \\  /    A nd           | Version:  13
     \\/     M anipulation  |
\*---------------------------------------------------------------------------*/
FoamFile
{
    format      ascii;
    class       volScalarField;
    location    "13.597122";
    object      pPrime2Mean;
}
// * * * * * * * * * * * * * * * * * * * * * * * * * * * * * * * * * * * * * //

dimensions      [0 4 -4 0 0 0 0];

internalField   nonuniform List<scalar> 
17140
(
22895.869
22895.87
22895.871
22895.871
22895.87
22895.868
22895.865
22895.861
22895.855
22895.846
22895.835
22895.82
22895.801
22895.778
22895.747
22895.708
22895.659
22895.598
22895.52
22895.423
22895.3
22895.147
22894.954
22894.711
22894.405
22894.02
22893.533
22892.918
22892.142
22891.164
22889.932
22888.386
22886.447
22884.026
22881.011
22877.269
22872.645
22866.953
22859.981
22851.48
22841.168
22828.723
22813.782
22795.936
22774.73
22749.654
22720.153
22685.62
22645.389
22598.743
22544.902
22483.024
22412.203
22331.462
22239.755
22135.956
22018.857
21887.161
21739.466
21574.275
21389.957
21184.711
20956.505
20703.137
20422.287
22896.439
22896.44
22896.44
22896.44
22896.439
22896.437
22896.434
22896.429
22896.423
22896.415
22896.403
22896.389
22896.37
22896.346
22896.316
22896.276
22896.227
22896.166
22896.088
22895.99
22895.868
22895.714
22895.521
22895.279
22894.973
22894.589
22894.104
22893.491
22892.717
22891.74
22890.512
22888.968
22887.033
22884.614
22881.602
22877.863
22873.242
22867.553
22860.584
22852.088
22841.781
22829.342
22814.409
22796.571
22775.375
22750.313
22720.827
22686.311
22646.1
22599.476
22545.661
22483.813
22413.025
22332.322
22240.658
22136.908
22019.864
21888.228
21740.599
21575.482
21391.245
21186.091
20957.99
20704.74
20424.008
22897.848
22897.849
22897.849
22897.849
22897.848
22897.846
22897.843
22897.838
22897.832
22897.824
22897.812
22897.798
22897.779
22897.755
22897.724
22897.686
22897.637
22897.575
22897.498
22897.401
22897.279
22897.126
22896.934
22896.693
22896.39
22896.007
22895.524
22894.914
22894.144
22893.172
22891.948
22890.41
22888.481
22886.069
22883.062
22879.33
22874.714
22869.032
22862.071
22853.584
22843.289
22830.865
22815.95
22798.135
22776.965
22751.934
22722.486
22688.012
22647.849
22601.279
22547.526
22485.749
22415.044
22334.435
22242.877
22139.246
22022.337
21890.85
21743.385
21578.448
21394.412
21189.484
20961.635
20708.672
20428.23
22900.141
22900.142
22900.143
22900.143
22900.141
22900.139
22900.136
22900.131
22900.125
22900.117
22900.106
22900.091
22900.072
22900.048
22900.018
22899.98
22899.931
22899.871
22899.794
22899.698
22899.578
22899.426
22899.236
22898.997
22898.696
22898.316
22897.838
22897.233
22896.468
22895.502
22894.286
22892.755
22890.834
22888.43
22885.432
22881.709
22877.103
22871.431
22864.483
22856.012
22845.736
22833.337
22818.45
22800.671
22779.544
22754.563
22725.175
22690.768
22650.684
22604.203
22550.55
22488.889
22418.317
22337.861
22246.476
22143.041
22026.349
21895.105
21747.909
21583.266
21399.558
21194.996
20967.557
20715.061
20435.082
22903.365
22903.365
22903.365
22903.365
22903.364
22903.362
22903.358
22903.354
22903.347
22903.339
22903.327
22903.313
22903.294
22903.27
22903.24
22903.202
22903.154
22903.094
22903.019
22902.924
22902.805
22902.655
22902.467
22902.231
22901.933
22901.557
22901.083
22900.484
22899.726
22898.769
22897.561
22896.04
22894.129
22891.736
22888.75
22885.038
22880.445
22874.789
22867.859
22859.411
22849.163
22836.797
22821.953
22804.223
22783.155
22758.245
22728.939
22694.628
22654.651
22608.294
22554.784
22493.286
22422.901
22342.659
22251.515
22148.353
22031.968
21901.066
21754.247
21590.022
21406.777
21202.731
20975.87
20724.028
20444.703
22907.552
22907.553
22907.553
22907.552
22907.551
22907.549
22907.545
22907.541
22907.535
22907.526
22907.514
22907.5
22907.482
22907.458
22907.428
22907.39
22907.343
22907.283
22907.209
22907.115
22906.997
22906.849
22906.664
22906.43
22906.136
22905.766
22905.297
22904.706
22903.956
22903.008
22901.812
22900.302
22898.405
22896.025
22893.053
22889.356
22884.781
22879.146
22872.24
22863.822
22853.611
22841.29
22826.498
22808.834
22787.843
22763.024
22733.824
22699.635
22659.799
22613.602
22560.277
22498.992
22428.851
22348.886
22258.058
22155.252
22039.266
21908.809
21762.484
21598.804
21416.165
21212.795
20986.688
20735.7
20457.23
22912.745
22912.745
22912.745
22912.744
22912.743
22912.74
22912.737
22912.732
22912.725
22912.717
22912.705
22912.691
22912.672
22912.649
22912.619
22912.582
22912.535
22912.476
22912.402
22912.31
22912.194
22912.049
22911.866
22911.637
22911.347
22910.982
22910.52
22909.937
22909.198
22908.261
22907.077
22905.581
22903.698
22901.335
22898.38
22894.703
22890.15
22884.542
22877.668
22869.287
22859.122
22846.856
22832.131
22814.547
22793.65
22768.944
22739.875
22705.837
22666.175
22620.178
22567.082
22506.063
22436.225
22356.605
22266.167
22163.802
22048.312
21918.408
21772.698
21609.702
21427.82
21225.294
21000.129
20750.206
20472.807
22918.984
22918.984
22918.983
22918.982
22918.98
22918.978
22918.974
22918.969
22918.962
22918.953
22918.942
22918.927
22918.909
22918.885
22918.856
22918.82
22918.773
22918.716
22918.643
22918.553
22918.439
22918.296
22918.117
22917.891
22917.608
22917.249
22916.795
22916.221
22915.493
22914.57
22913.4
22911.92
22910.053
22907.709
22904.774
22901.121
22896.595
22891.019
22884.183
22875.848
22865.738
22853.538
22838.893
22821.404
22800.622
22776.049
22747.136
22713.28
22673.827
22628.072
22575.255
22514.554
22445.081
22365.876
22275.908
22174.074
22059.18
21929.943
21784.975
21622.806
21441.845
21240.338
21016.311
20767.676
20491.579
22926.318
22926.318
22926.317
22926.316
22926.314
22926.311
22926.307
22926.302
22926.295
22926.286
22926.275
22926.261
22926.242
22926.219
22926.19
22926.154
22926.108
22926.052
22925.981
22925.891
22925.78
22925.641
22925.465
22925.245
22924.967
22924.616
22924.17
22923.606
22922.89
22921.98
22920.825
22919.362
22917.514
22915.189
22912.279
22908.652
22904.158
22898.619
22891.829
22883.547
22873.501
22861.379
22846.828
22829.449
22808.8
22784.384
22755.654
22722.011
22682.806
22637.336
22584.847
22524.524
22455.48
22376.764
22287.349
22186.139
22071.947
21943.496
21799.405
21638.214
21458.338
21258.039
21035.359
20788.246
20513.695
22934.801
22934.801
22934.801
22934.8
22934.798
22934.794
22934.79
22934.785
22934.777
22934.769
22934.757
22934.742
22934.724
22934.702
22934.673
22934.638
22934.593
22934.538
22934.468
22934.382
22934.273
22934.136
22933.965
22933.75
22933.477
22933.133
22932.696
22932.142
22931.437
22930.54
22929.4
22927.954
22926.126
22923.823
22920.938
22917.342
22912.884
22907.387
22900.647
22892.427
22882.454
22870.421
22855.977
22838.727
22818.23
22793.994
22765.474
22732.078
22693.158
22648.02
22595.913
22536.025
22467.48
22389.329
22300.555
22200.068
22086.688
21959.145
21816.07
21656.015
21477.406
21278.516
21057.399
20812.055
20539.304
22944.491
22944.49
22944.49
22944.488
22944.486
22944.482
22944.478
22944.473
22944.466
22944.456
22944.445
22944.431
22944.412
22944.39
22944.362
22944.327
22944.284
22944.229
22944.161
22944.076
22943.97
22943.837
22943.67
22943.458
22943.192
22942.854
22942.425
22941.879
22941.185
22940.3
22939.174
22937.745
22935.936
22933.656
22930.798
22927.234
22922.815
22917.366
22910.682
22902.531
22892.641
22880.708
22866.384
22849.279
22828.955
22804.921
22776.64
22743.525
22704.933
22660.174
22608.503
22549.116
22481.141
22403.637
22315.596
22215.934
22103.482
21976.98
21835.071
21676.322
21499.166
21301.886
21082.559
20839.241
20568.559
22955.438
22955.437
22955.436
22955.434
22955.432
22955.428
22955.425
22955.419
22955.411
22955.402
22955.39
22955.376
22955.359
22955.336
22955.308
22955.274
22955.231
22955.178
22955.111
22955.028
22954.924
22954.793
22954.628
22954.422
22954.159
22953.827
22953.405
22952.866
22952.181
22951.306
22950.193
22948.779
22946.989
22944.733
22941.903
22938.375
22933.998
22928.6
22921.979
22913.902
22904.105
22892.284
22878.096
22861.152
22841.018
22817.213
22789.201
22756.401
22718.178
22673.848
22622.673
22563.855
22496.526
22419.756
22332.545
22233.818
22122.417
21997.094
21856.508
21699.239
21523.726
21328.27
21110.971
20869.949
20601.612
22967.687
22967.686
22967.686
22967.684
22967.681
22967.678
22967.673
22967.667
22967.66
22967.651
22967.64
22967.625
22967.607
22967.585
22967.558
22967.524
22967.481
22967.429
22967.363
22967.281
22967.179
22967.05
22966.888
22966.683
22966.425
22966.097
22965.679
22965.147
22964.468
22963.603
22962.502
22961.103
22959.332
22957.099
22954.3
22950.808
22946.477
22941.134
22934.58
22926.588
22916.892
22905.195
22891.155
22874.391
22854.471
22830.917
22803.204
22770.757
22732.949
22689.101
22638.485
22580.304
22513.703
22437.756
22351.476
22253.799
22143.576
22019.576
21880.474
21724.867
21551.203
21357.793
21142.768
20904.32
20638.616
22981.28
22981.279
22981.278
22981.276
22981.273
22981.27
22981.265
22981.259
22981.252
22981.243
22981.232
22981.217
22981.199
22981.178
22981.15
22981.116
22981.075
22981.023
22980.958
22980.877
22980.775
22980.648
22980.488
22980.285
22980.029
22979.704
22979.29
22978.762
22978.09
22977.234
22976.143
22974.759
22973.007
22970.8
22968.032
22964.579
22960.296
22955.013
22948.533
22940.632
22931.048
22919.487
22905.612
22889.045
22869.36
22846.087
22818.706
22786.651
22749.305
22705.997
22656.001
22598.532
22532.739
22457.711
22372.467
22275.959
22167.048
22044.524
21907.08
21753.324
21581.713
21390.577
21178.083
20942.498
20679.724
22996.254
22996.253
22996.252
22996.25
22996.247
22996.244
22996.239
22996.233
22996.226
22996.217
22996.206
22996.192
22996.174
22996.152
22996.125
22996.092
22996.05
22995.999
22995.935
22995.854
22995.754
22995.627
22995.468
22995.267
22995.012
22994.689
22994.278
22993.755
22993.088
22992.24
22991.16
22989.791
22988.06
22985.879
22983.145
22979.733
22975.502
22970.284
22963.885
22956.082
22946.621
22935.209
22921.515
22905.164
22885.739
22862.775
22835.764
22804.145
22767.311
22724.598
22675.29
22618.608
22553.71
22479.697
22395.601
22300.384
22192.927
22072.038
21936.427
21784.717
21615.375
21426.748
21217.049
20984.627
20725.087
23012.654
23012.653
23012.652
23012.65
23012.647
23012.644
23012.64
23012.634
23012.626
23012.617
23012.606
23012.592
23012.574
23012.553
23012.526
23012.493
23012.452
23012.401
23012.337
23012.257
23012.157
23012.031
23011.873
23011.673
23011.42
23011.099
23010.69
23010.171
23009.51
23008.67
23007.602
23006.248
23004.538
23002.385
22999.685
22996.32
22992.145
22986.996
22980.684
22972.99
22963.661
22952.413
22938.917
22922.804
22903.665
22881.044
22854.439
22823.302
22787.032
22744.976
22696.424
22640.605
22576.692
22503.796
22420.96
22327.164
22221.308
22102.218
21968.624
21819.159
21652.303
21466.431
21259.798
21030.848
20774.855
23030.533
23030.532
23030.531
23030.53
23030.527
23030.524
23030.519
23030.513
23030.506
23030.497
23030.487
23030.472
23030.455
23030.434
23030.408
23030.375
23030.333
23030.283
23030.219
23030.14
23030.04
23029.915
23029.756
23029.557
23029.305
23028.986
23028.579
23028.064
23027.408
23026.575
23025.519
23024.182
23022.494
23020.369
23017.707
23014.387
23010.271
23005.199
22998.981
22991.406
22982.223
22971.152
22957.873
22942.023
22923.198
22900.953
22874.797
22844.188
22808.537
22767.199
22719.472
22664.599
22601.763
22530.087
22448.631
22356.388
22252.286
22135.169
22003.775
21856.758
21692.615
21509.749
21306.462
21081.302
20829.176
23049.95
23049.95
23049.948
23049.947
23049.944
23049.941
23049.937
23049.931
23049.924
23049.915
23049.904
23049.891
23049.873
23049.852
23049.826
23049.793
23049.752
23049.701
23049.638
23049.558
23049.459
23049.333
23049.175
23048.977
23048.724
23048.406
23048.002
23047.489
23046.838
23046.013
23044.968
23043.647
23041.98
23039.884
23037.259
23033.99
23029.939
23024.947
23018.833
23011.384
23002.361
22991.484
22978.44
22962.877
22944.397
22922.565
22896.899
22866.868
22831.892
22791.335
22744.509
22690.665
22629.001
22558.652
22478.697
22388.15
22285.959
22170.985
22041.987
21897.624
21736.426
21556.824
21357.172
21136.128
20888.195
23070.965
23070.964
23070.963
23070.961
23070.959
23070.956
23070.952
23070.946
23070.94
23070.931
23070.92
23070.906
23070.889
23070.868
23070.841
23070.808
23070.767
23070.716
23070.652
23070.571
23070.471
23070.345
23070.187
23069.988
23069.736
23069.418
23069.015
23068.505
23067.859
23067.041
23066.006
23064.699
23063.054
23060.987
23058.403
23055.185
23051.202
23046.297
23040.293
23032.984
23024.13
23013.465
23000.679
22985.428
22967.325
22945.944
22920.813
22891.41
22857.166
22817.458
22771.606
22718.879
22658.483
22589.573
22511.245
22422.54
22322.421
22209.769
22083.356
21941.864
21783.849
21607.779
21412.057
21195.46
20952.054
23093.624
23093.623
23093.623
23093.621
23093.619
23093.616
23093.612
23093.606
23093.6
23093.591
23093.58
23093.566
23093.549
23093.527
23093.501
23093.467
23093.426
23093.374
23093.309
23093.228
23093.127
23093.001
23092.842
23092.642
23092.391
23092.073
23091.672
23091.165
23090.523
23089.713
23088.688
23087.397
23085.773
23083.736
23081.191
23078.029
23074.117
23069.306
23063.42
23056.259
23047.592
23037.154
23024.647
23009.736
22992.044
22971.152
22946.601
22917.878
22884.427
22845.635
22800.837
22749.313
22690.286
22622.927
22546.359
22459.644
22361.763
22251.616
22127.985
21989.583
21834.997
21662.729
21471.24
21259.432
21020.891
23117.963
23117.963
23117.962
23117.961
23117.959
23117.955
23117.951
23117.946
23117.939
23117.93
23117.919
23117.906
23117.888
23117.867
23117.84
23117.806
23117.764
23117.712
23117.647
23117.566
23117.465
23117.338
23117.179
23116.979
23116.729
23116.413
23116.014
23115.512
23114.877
23114.076
23113.064
23111.79
23110.19
23108.185
23105.685
23102.579
23098.744
23094.032
23088.273
23081.271
23072.803
23062.611
23050.408
23035.864
23018.616
22998.254
22974.329
22946.34
22913.742
22875.935
22832.269
22782.036
22724.478
22658.79
22584.121
22499.551
22404.078
22296.615
22175.97
22040.885
21889.978
21721.791
21534.844
21328.173
21094.837
23144.003
23144.003
23144.002
23144
23143.998
23143.996
23143.992
23143.986
23143.979
23143.971
23143.96
23143.946
23143.929
23143.908
23143.881
23143.848
23143.806
23143.754
23143.689
23143.609
23143.509
23143.383
23143.225
23143.028
23142.781
23142.468
23142.076
23141.58
23140.956
23140.167
23139.174
23137.923
23136.351
23134.385
23131.934
23128.894
23125.141
23120.536
23114.912
23108.082
23099.827
23089.9
23078.022
23063.876
23047.105
23027.313
23004.06
22976.858
22945.175
22908.422
22865.964
22817.112
22761.13
22697.241
22624.616
22542.346
22449.45
22344.858
22227.407
22095.871
21948.9
21785.078
21602.986
21401.805
21174.02
23171.757
23171.757
23171.757
23171.756
23171.754
23171.751
23171.747
23171.742
23171.736
23171.727
23171.717
23171.704
23171.687
23171.667
23171.641
23171.609
23171.568
23171.518
23171.455
23171.377
23171.279
23171.157
23171.004
23170.811
23170.57
23170.266
23169.882
23169.399
23168.789
23168.019
23167.049
23165.826
23164.293
23162.374
23159.982
23157.017
23153.359
23148.872
23143.396
23136.749
23128.724
23119.082
23107.554
23093.833
23077.574
23058.392
23035.858
23009.497
22978.787
22943.154
22901.982
22854.605
22800.315
22738.36
22667.917
22588.107
22497.958
22396.429
22282.389
22154.638
22011.867
21852.697
21675.779
21480.45
21258.557
23201.25
23201.25
23201.249
23201.248
23201.246
23201.244
23201.24
23201.235
23201.23
23201.222
23201.212
23201.2
23201.185
23201.165
23201.141
23201.111
23201.073
23201.026
23200.967
23200.892
23200.8
23200.683
23200.537
23200.353
23200.121
23199.828
23199.459
23198.992
23198.402
23197.657
23196.717
23195.533
23194.046
23192.184
23189.864
23186.987
23183.438
23179.084
23173.772
23167.328
23159.552
23150.217
23139.064
23125.797
23110.084
23091.551
23069.78
23044.308
23014.623
22980.178
22940.377
22894.579
22842.102
22782.207
22714.095
22636.902
22549.68
22451.415
22341.004
22217.284
22078.981
21924.757
21753.333
21564.222
21348.563
23232.514
23232.514
23232.514
23232.513
23232.511
23232.509
23232.506
23232.502
23232.497
23232.49
23232.482
23232.47
23232.457
23232.439
23232.418
23232.39
23232.355
23232.312
23232.258
23232.189
23232.103
23231.994
23231.858
23231.684
23231.465
23231.188
23230.836
23230.39
23229.825
23229.11
23228.206
23227.066
23225.634
23223.84
23221.604
23218.829
23215.405
23211.204
23206.077
23199.857
23192.354
23183.35
23172.597
23159.815
23144.681
23126.832
23105.862
23081.323
23052.727
23019.546
22981.207
22937.096
22886.551
22828.847
22763.214
22688.802
22604.689
22509.892
22403.338
22283.9
22150.338
22001.356
21835.752
21653.232
21444.143
23265.603
23265.603
23265.602
23265.602
23265.601
23265.599
23265.596
23265.593
23265.588
23265.582
23265.575
23265.565
23265.553
23265.538
23265.519
23265.494
23265.463
23265.424
23265.374
23265.313
23265.234
23265.134
23265.007
23264.846
23264.641
23264.38
23264.048
23263.625
23263.088
23262.407
23261.544
23260.454
23259.085
23257.368
23255.226
23252.568
23249.285
23245.253
23240.331
23234.358
23227.152
23218.506
23208.185
23195.917
23181.392
23164.261
23144.135
23120.585
23093.143
23061.309
23024.528
22982.21
22933.711
22878.339
22815.331
22743.869
22663.057
22571.94
22469.476
22354.573
22226.033
22082.595
21923.133
21747.586
21545.402
23300.571
23300.571
23300.571
23300.57
23300.57
23300.568
23300.566
23300.563
23300.559
23300.554
23300.548
23300.539
23300.528
23300.515
23300.497
23300.475
23300.448
23300.413
23300.367
23300.31
23300.239
23300.146
23300.03
23299.88
23299.688
23299.444
23299.131
23298.732
23298.223
23297.578
23296.758
23295.724
23294.422
23292.79
23290.752
23288.22
23285.092
23281.247
23276.549
23270.845
23263.962
23255.701
23245.837
23234.112
23220.231
23203.86
23184.628
23162.126
23135.914
23105.508
23070.378
23029.959
22983.634
22930.726
22870.5
22802.163
22724.849
22637.629
22539.495
22429.392
22306.155
22168.566
22015.575
21847.386
21652.446
23337.464
23337.464
23337.464
23337.463
23337.462
23337.461
23337.459
23337.456
23337.453
23337.448
23337.442
23337.434
23337.425
23337.412
23337.396
23337.376
23337.35
23337.317
23337.275
23337.222
23337.155
23337.069
23336.959
23336.818
23336.638
23336.408
23336.113
23335.737
23335.257
23334.648
23333.876
23332.9
23331.67
23330.129
23328.202
23325.807
23322.844
23319.199
23314.742
23309.326
23302.786
23294.935
23285.558
23274.412
23261.214
23245.649
23227.365
23205.976
23181.068
23152.17
23118.79
23080.384
23036.353
22986.052
22928.77
22863.74
22790.126
22707.03
22613.474
22508.436
22390.794
22259.361
22113.168
21952.725
21765.385
23376.298
23376.298
23376.298
23376.298
23376.297
23376.296
23376.294
23376.291
23376.288
23376.283
23376.277
23376.27
23376.26
23376.248
23376.232
23376.212
23376.187
23376.155
23376.116
23376.064
23376
23375.918
23375.813
23375.68
23375.509
23375.291
23375.013
23374.659
23374.208
23373.636
23372.912
23371.997
23370.844
23369.397
23367.588
23365.337
23362.548
23359.114
23354.91
23349.8
23343.626
23336.211
23327.354
23316.822
23304.351
23289.641
23272.362
23252.155
23228.62
23201.323
23169.793
23133.508
23091.902
23044.355
22990.183
22928.649
22858.946
22780.206
22691.482
22591.788
22480.034
22355.073
22216.012
22063.701
21884.339
23417.064
23417.064
23417.064
23417.064
23417.062
23417.061
23417.059
23417.057
23417.053
23417.048
23417.042
23417.035
23417.025
23417.012
23416.997
23416.977
23416.952
23416.921
23416.882
23416.832
23416.77
23416.69
23416.59
23416.462
23416.3
23416.094
23415.832
23415.5
23415.079
23414.545
23413.871
23413.019
23411.947
23410.6
23408.913
23406.812
23404.205
23400.991
23397.055
23392.267
23386.481
23379.53
23371.224
23361.346
23349.645
23335.841
23319.629
23300.67
23278.588
23252.981
23223.401
23189.356
23150.308
23105.664
23054.775
22996.931
22931.356
22857.215
22773.59
22679.525
22573.966
22455.794
22324.209
22180.438
22009.428
23459.734
23459.734
23459.734
23459.733
23459.732
23459.731
23459.728
23459.726
23459.722
23459.718
23459.711
23459.704
23459.694
23459.682
23459.666
23459.647
23459.623
23459.592
23459.553
23459.506
23459.445
23459.369
23459.273
23459.153
23459
23458.807
23458.563
23458.254
23457.865
23457.372
23456.75
23455.966
23454.977
23453.734
23452.175
23450.229
23447.812
23444.829
23441.173
23436.725
23431.348
23424.888
23417.166
23407.979
23397.092
23384.249
23369.164
23351.521
23330.975
23307.149
23279.624
23247.939
23211.584
23170.002
23122.573
23068.621
23007.401
22938.112
22859.863
22771.727
22672.678
22561.625
22437.875
22303.081
22140.794
23504.278
23504.278
23504.278
23504.278
23504.277
23504.275
23504.273
23504.27
23504.267
23504.262
23504.256
23504.249
23504.24
23504.228
23504.213
23504.195
23504.171
23504.142
23504.107
23504.061
23504.005
23503.934
23503.844
23503.733
23503.592
23503.414
23503.191
23502.909
23502.554
23502.106
23501.541
23500.827
23499.926
23498.79
23497.364
23495.579
23493.359
23490.617
23487.256
23483.164
23478.218
23472.274
23465.168
23456.71
23446.684
23434.855
23420.958
23404.702
23385.773
23363.822
23338.461
23309.259
23275.74
23237.38
23193.595
23143.744
23087.116
23022.942
22950.361
22868.473
22776.273
22672.682
22557.097
22431.654
22278.776
23550.671
23550.671
23550.671
23550.67
23550.669
23550.668
23550.666
23550.663
23550.661
23550.656
23550.651
23550.645
23550.636
23550.625
23550.612
23550.596
23550.575
23550.549
23550.517
23550.476
23550.426
23550.362
23550.283
23550.183
23550.058
23549.899
23549.7
23549.45
23549.134
23548.735
23548.229
23547.589
23546.779
23545.755
23544.464
23542.846
23540.83
23538.339
23535.285
23531.568
23527.074
23521.674
23515.215
23507.523
23498.404
23487.639
23474.989
23460.194
23442.966
23422.986
23399.899
23373.308
23342.77
23307.798
23267.846
23222.314
23170.525
23111.744
23045.142
22969.842
22884.862
22789.087
22681.926
22566.487
22423.471
23598.896
23598.896
23598.895
23598.895
23598.894
23598.894
23598.892
23598.89
23598.887
23598.884
23598.879
23598.874
23598.867
23598.858
23598.847
23598.834
23598.816
23598.795
23598.768
23598.734
23598.692
23598.638
23598.571
23598.486
23598.379
23598.243
23598.072
23597.856
23597.582
23597.233
23596.791
23596.228
23595.51
23594.599
23593.447
23592
23590.196
23587.967
23585.235
23581.91
23577.891
23573.059
23567.277
23560.388
23552.216
23542.568
23531.229
23517.968
23502.526
23484.616
23463.914
23440.063
23412.655
23381.242
23345.32
23304.332
23257.641
23204.549
23144.257
23075.918
22998.542
22910.913
22812.579
22707.726
22575.034
23648.935
23648.935
23648.935
23648.935
23648.934
23648.933
23648.931
23648.93
23648.928
23648.926
23648.922
23648.918
23648.913
23648.907
23648.899
23648.889
23648.876
23648.86
23648.839
23648.813
23648.781
23648.739
23648.686
23648.618
23648.532
23648.421
23648.279
23648.099
23647.868
23647.571
23647.191
23646.704
23646.079
23645.282
23644.272
23643.002
23641.419
23639.464
23637.068
23634.152
23630.628
23626.388
23621.312
23615.261
23608.081
23599.602
23589.636
23577.982
23564.412
23548.67
23530.47
23509.489
23485.362
23457.683
23425.995
23389.785
23348.465
23301.376
23247.755
23186.769
23117.408
23038.45
22949.206
22855.526
22733.94
23700.773
23700.773
23700.773
23700.772
23700.772
23700.771
23700.77
23700.77
23700.768
23700.766
23700.765
23700.762
23700.759
23700.755
23700.75
23700.743
23700.735
23700.724
23700.71
23700.693
23700.67
23700.64
23700.601
23700.55
23700.483
23700.397
23700.284
23700.137
23699.946
23699.7
23699.379
23698.966
23698.434
23697.753
23696.889
23695.803
23694.449
23692.779
23690.733
23688.243
23685.233
23681.609
23677.267
23672.09
23665.943
23658.684
23650.155
23640.182
23628.57
23615.097
23599.512
23581.533
23560.841
23537.076
23509.829
23478.642
23442.98
23402.229
23355.659
23302.45
23241.657
23171.864
23092.131
23010.156
22900.678
23754.372
23754.372
23754.372
23754.372
23754.372
23754.371
23754.371
23754.37
23754.369
23754.368
23754.368
23754.366
23754.365
23754.362
23754.36
23754.356
23754.352
23754.346
23754.338
23754.328
23754.313
23754.293
23754.267
23754.23
23754.181
23754.115
23754.027
23753.911
23753.757
23753.556
23753.294
23752.953
23752.513
23751.949
23751.235
23750.339
23749.224
23747.849
23746.165
23744.116
23741.636
23738.651
23735.072
23730.801
23725.731
23719.745
23712.715
23704.497
23694.928
23683.824
23670.969
23656.127
23639.024
23619.355
23596.764
23570.851
23541.141
23507.067
23467.971
23423.071
23371.402
23311.469
23241.955
23172.163
23075.639
23809.678
23809.677
23809.677
23809.677
23809.677
23809.676
23809.676
23809.676
23809.675
23809.675
23809.674
23809.674
23809.672
23809.672
23809.67
23809.669
23809.667
23809.664
23809.659
23809.652
23809.644
23809.63
23809.611
23809.585
23809.548
23809.498
23809.43
23809.339
23809.217
23809.058
23808.85
23808.58
23808.232
23807.788
23807.227
23806.526
23805.655
23804.584
23803.274
23801.679
23799.749
23797.424
23794.634
23791.305
23787.355
23782.696
23777.229
23770.839
23763.399
23754.76
23744.751
23733.179
23719.822
23704.43
23686.711
23666.317
23642.859
23615.848
23584.687
23548.646
23506.814
23457.639
23399.534
23342.398
23258.817
23866.586
23866.586
23866.586
23866.585
23866.585
23866.585
23866.584
23866.584
23866.583
23866.582
23866.582
23866.581
23866.581
23866.58
23866.579
23866.578
23866.576
23866.574
23866.571
23866.566
23866.559
23866.549
23866.534
23866.514
23866.485
23866.446
23866.394
23866.323
23866.231
23866.11
23865.955
23865.756
23865.502
23865.18
23864.776
23864.274
23863.655
23862.895
23861.967
23860.84
23859.475
23857.83
23855.858
23853.505
23850.719
23847.439
23843.595
23839.106
23833.876
23827.797
23820.743
23812.567
23803.109
23792.179
23779.548
23764.947
23748.053
23728.474
23705.733
23679.207
23648.066
23610.792
23565.787
23521.071
23451.417
23924.979
23924.979
23924.978
23924.978
23924.977
23924.976
23924.976
23924.975
23924.974
23924.973
23924.972
23924.971
23924.969
23924.968
23924.966
23924.964
23924.962
23924.959
23924.955
23924.949
23924.942
23924.932
23924.919
23924.902
23924.877
23924.845
23924.803
23924.751
23924.684
23924.6
23924.497
23924.369
23924.212
23924.013
23923.769
23923.47
23923.106
23922.664
23922.128
23921.481
23920.698
23919.755
23918.627
23917.287
23915.708
23913.857
23911.695
23909.173
23906.234
23902.812
23898.825
23894.181
23888.779
23882.495
23875.174
23866.621
23856.616
23844.861
23831.008
23814.621
23795.045
23771.091
23741.399
23711.006
23658.606
23987.339
23987.339
23987.338
23987.337
23987.336
23987.336
23987.334
23987.333
23987.331
23987.329
23987.327
23987.325
23987.323
23987.32
23987.316
23987.313
23987.308
23987.302
23987.295
23987.287
23987.277
23987.264
23987.248
23987.229
23987.206
23987.178
23987.145
23987.108
23987.065
23987.018
23986.966
23986.91
23986.848
23986.782
23986.71
23986.632
23986.548
23986.454
23986.348
23986.224
23986.077
23985.902
23985.7
23985.468
23985.206
23984.912
23984.579
23984.192
23983.737
23983.192
23982.53
23981.721
23980.726
23979.495
23977.954
23976.003
23973.516
23970.336
23966.25
23961.032
23954.319
23945.453
23934.434
23924.373
23905.117
24052.937
24052.936
24052.935
24052.934
24052.933
24052.931
24052.93
24052.928
24052.926
24052.924
24052.921
24052.918
24052.914
24052.91
24052.905
24052.899
24052.892
24052.884
24052.874
24052.862
24052.849
24052.834
24052.815
24052.796
24052.774
24052.751
24052.728
24052.708
24052.694
24052.687
24052.694
24052.717
24052.764
24052.841
24052.953
24053.113
24053.331
24053.613
24053.965
24054.399
24054.931
24055.578
24056.363
24057.315
24058.459
24059.826
24061.441
24063.33
24065.521
24068.044
24070.932
24074.219
24077.935
24082.107
24086.749
24091.869
24097.452
24103.486
24109.927
24116.771
24123.983
24131.491
24139.988
24150.973
24159.228
24118.398
24118.397
24118.396
24118.394
24118.393
24118.392
24118.39
24118.388
24118.386
24118.384
24118.381
24118.377
24118.374
24118.369
24118.364
24118.358
24118.351
24118.343
24118.334
24118.324
24118.312
24118.298
24118.284
24118.268
24118.254
24118.243
24118.237
24118.24
24118.257
24118.297
24118.364
24118.469
24118.622
24118.835
24119.126
24119.512
24120.014
24120.652
24121.451
24122.437
24123.644
24125.111
24126.886
24129.021
24131.574
24134.602
24138.167
24142.335
24147.182
24152.789
24159.249
24166.66
24175.124
24184.743
24195.624
24207.883
24221.625
24236.983
24254.089
24273.147
24294.371
24318.121
24345.204
24376.53
24411.511
24183.441
24183.44
24183.439
24183.437
24183.437
24183.435
24183.433
24183.432
24183.43
24183.428
24183.425
24183.423
24183.419
24183.416
24183.412
24183.408
24183.402
24183.397
24183.39
24183.383
24183.375
24183.367
24183.359
24183.353
24183.35
24183.353
24183.366
24183.395
24183.446
24183.53
24183.656
24183.839
24184.096
24184.446
24184.912
24185.52
24186.304
24187.296
24188.535
24190.066
24191.94
24194.222
24196.981
24200.294
24204.247
24208.928
24214.434
24220.874
24228.369
24237.057
24247.087
24258.623
24271.837
24286.912
24304.044
24323.453
24345.373
24370.074
24397.856
24429.11
24464.271
24503.987
24549.211
24601.106
24661.276
24247.758
24247.757
24247.756
24247.754
24247.754
24247.752
24247.751
24247.75
24247.748
24247.747
24247.746
24247.744
24247.742
24247.741
24247.739
24247.738
24247.736
24247.734
24247.732
24247.731
24247.73
24247.731
24247.733
24247.739
24247.751
24247.773
24247.81
24247.868
24247.958
24248.092
24248.283
24248.55
24248.916
24249.404
24250.045
24250.877
24251.941
24253.284
24254.96
24257.031
24259.57
24262.659
24266.394
24270.875
24276.214
24282.531
24289.961
24298.656
24308.783
24320.534
24334.115
24349.753
24367.692
24388.194
24411.55
24438.08
24468.139
24502.132
24540.516
24583.86
24632.817
24688.277
24751.413
24823.757
24907.529
24311.102
24311.101
24311.1
24311.099
24311.099
24311.097
24311.097
24311.097
24311.096
24311.095
24311.095
24311.095
24311.096
24311.096
24311.098
24311.099
24311.102
24311.105
24311.109
24311.114
24311.122
24311.132
24311.146
24311.167
24311.196
24311.24
24311.304
24311.398
24311.531
24311.721
24311.983
24312.339
24312.817
24313.446
24314.266
24315.321
24316.666
24318.359
24320.469