/*--------------------------------*- C++ -*----------------------------------*\
  =========                 |
  \\      /  F ield         | OpenFOAM: The Open Source CFD Toolbox
   \\    /   O peration     | Website:  https://openfoam.org
    \\  /    A nd           | Version:  13
     \\/     M anipulation  |
\*---------------------------------------------------------------------------*/
FoamFile
{
    format      ascii;
    class       volScalarField;
    location    "4000";
    object      nut;
}
// * * * * * * * * * * * * * * * * * * * * * * * * * * * * * * * * * * * * * //

dimensions      [0 2 -1 0 0 0 0];

internalField   nonuniform List<scalar> 
800
(
4.90037e-05
4.90047e-05
4.90052e-05
4.90055e-05
4.90056e-05
4.90058e-05
4.90058e-05
4.90056e-05
4.90051e-05
4.90051e-05
4.9005e-05
4.90048e-05
4.90049e-05
4.90048e-05
4.90048e-05
4.90046e-05
4.90044e-05
4.90047e-05
4.90047e-05
4.90045e-05
0.000140976
0.000140973
0.00014097
0.000140966
0.000140963
0.000140962
0.000140961
0.000140958
0.00014096
0.000140958
0.000140958
0.000140957
0.000140957
0.000140957
0.000140959
0.000140958
0.00014096
0.000140961
0.000140963
0.000140964
0.000242849
0.000242841
0.000242834
0.000242826
0.000242821
0.000242819
0.000242817
0.000242816
0.000242813
0.000242814
0.000242816
0.000242818
0.00024282
0.000242822
0.000242823
0.000242824
0.000242823
0.000242823
0.00024282
0.000242819
0.000358179
0.000358174
0.000358168
0.000358164
0.000358158
0.000358154
0.00035815
0.000358149
0.000358148
0.000358151
0.000358154
0.000358155
0.000358157
0.000358155
0.000358155
0.000358156
0.000358153
0.00035815
0.000358143
0.00035814
0.000484923
0.00048492
0.000484918
0.000484917
0.000484911
0.000484906
0.000484899
0.000484897
0.000484898
0.000484896
0.000484896
0.000484896
0.000484894
0.000484894
0.000484892
0.000484892
0.000484888
0.000484885
0.000484878
0.000484879
0.000621862
0.000621858
0.000621856
0.000621851
0.000621844
0.000621838
0.000621832
0.000621825
0.000621824
0.000621817
0.000621817
0.000621819
0.000621816
0.000621818
0.000621817
0.000621817
0.000621814
0.00062181
0.000621811
0.00062181
0.000767977
0.000767966
0.000767957
0.000767947
0.000767941
0.000767932
0.000767927
0.00076792
0.000767915
0.000767914
0.000767912
0.000767914
0.000767916
0.000767915
0.000767914
0.000767913
0.000767912
0.00076791
0.000767909
0.000767906
0.000922163
0.00092215
0.000922137
0.000922127
0.000922121
0.000922112
0.000922106
0.000922102
0.000922097
0.0009221
0.000922101
0.0009221
0.000922098
0.000922097
0.000922096
0.000922093
0.00092209
0.000922085
0.000922077
0.000922078
0.00108311
0.0010831
0.0010831
0.00108309
0.00108308
0.00108307
0.00108307
0.00108307
0.00108307
0.00108307
0.00108307
0.00108306
0.00108306
0.00108306
0.00108305
0.00108305
0.00108304
0.00108303
0.00108302
0.00108302
0.00124923
0.00124923
0.00124922
0.00124922
0.00124921
0.0012492
0.0012492
0.00124919
0.00124919
0.00124919
0.00124919
0.00124918
0.00124918
0.00124918
0.00124917
0.00124916
0.00124915
0.00124915
0.00124914
0.00124915
0.00141853
0.00141852
0.00141851
0.00141851
0.0014185
0.0014185
0.00141849
0.00141849
0.00141848
0.00141848
0.00141847
0.00141847
0.00141847
0.00141846
0.00141845
0.00141844
0.00141843
0.00141843
0.00141843
0.00141843
0.00158855
0.00158854
0.00158853
0.00158853
0.00158852
0.00158852
0.00158851
0.00158851
0.0015885
0.00158849
0.00158849
0.00158848
0.00158847
0.00158847
0.00158846
0.00158846
0.00158844
0.00158843
0.00158843
0.00158844
0.00175638
0.00175637
0.00175637
0.00175636
0.00175636
0.00175636
0.00175635
0.00175634
0.00175633
0.00175632
0.00175632
0.00175631
0.0017563
0.00175629
0.00175629
0.00175628
0.00175627
0.00175627
0.00175626
0.00175627
0.00191861
0.00191861
0.00191861
0.00191861
0.00191861
0.0019186
0.0019186
0.00191858
0.00191857
0.00191856
0.00191855
0.00191854
0.00191854
0.00191853
0.00191852
0.00191851
0.00191851
0.00191851
0.0019185
0.00191851
0.00207133
0.00207134
0.00207134
0.00207133
0.00207133
0.00207132
0.00207131
0.00207129
0.00207128
0.00207127
0.00207125
0.00207125
0.00207124
0.00207124
0.00207123
0.00207123
0.00207123
0.00207123
0.00207123
0.00207124
0.00221005
0.00221004
0.00221003
0.00221002
0.00221001
0.00221
0.00220999
0.00220998
0.00220998
0.00220997
0.00220995
0.00220995
0.00220994
0.00220994
0.00220994
0.00220994
0.00220993
0.00220993
0.00220994
0.00220995
0.00232971
0.00232971
0.0023297
0.00232969
0.00232968
0.00232967
0.00232967
0.00232967
0.00232966
0.00232966
0.00232966
0.00232965
0.00232965
0.00232964
0.00232964
0.00232963
0.00232963
0.00232963
0.00232963
0.00232964
0.00242492
0.00242492
0.00242491
0.00242491
0.00242491
0.00242491
0.00242491
0.00242491
0.00242491
0.0024249
0.0024249
0.00242489
0.00242489
0.00242488
0.00242488
0.00242488
0.00242488
0.00242488
0.00242488
0.00242487
0.00248988
0.00248988
0.00248989
0.00248989
0.0024899
0.0024899
0.0024899
0.00248989
0.00248989
0.00248988
0.00248988
0.00248987
0.00248987
0.00248987
0.00248987
0.00248987
0.00248986
0.00248986
0.00248986
0.00248986
0.00251855
0.00251855
0.00251856
0.00251857
0.00251857
0.00251857
0.00251857
0.00251857
0.00251857
0.00251857
0.00251856
0.00251856
0.00251856
0.00251856
0.00251855
0.00251855
0.00251855
0.00251855
0.00251855
0.00251855
0.00250521
0.00250522
0.00250522
0.00250521
0.00250522
0.00250522
0.00250522
0.00250522
0.00250522
0.00250522
0.00250522
0.00250522
0.00250523
0.00250523
0.00250523
0.00250523
0.00250523
0.00250524
0.00250524
0.00250523
0.00245206
0.00245206
0.00245206
0.00245205
0.00245206
0.00245206
0.00245206
0.00245205
0.00245206
0.00245206
0.00245207
0.00245207
0.00245208
0.00245208
0.00245209
0.00245209
0.00245209
0.0024521
0.0024521
0.0024521
0.00236787
0.00236786
0.00236787
0.00236787
0.00236787
0.00236788
0.00236788
0.00236788
0.00236789
0.0023679
0.0023679
0.0023679
0.0023679
0.0023679
0.00236791
0.00236791
0.00236792
0.00236792
0.00236792
0.00236792
0.00225985
0.00225985
0.00225986
0.00225987
0.00225988
0.00225989
0.0022599
0.0022599
0.00225991
0.00225992
0.00225992
0.00225992
0.00225993
0.00225993
0.00225993
0.00225993
0.00225994
0.00225994
0.00225993
0.00225993
0.00213414
0.00213416
0.00213417
0.00213418
0.00213419
0.00213421
0.00213422
0.00213422
0.00213423
0.00213423
0.00213424
0.00213425
0.00213425
0.00213425
0.00213425
0.00213426
0.00213426
0.00213427
0.00213426
0.00213425
0.00199588
0.00199588
0.00199589
0.00199589
0.0019959
0.0019959
0.00199591
0.00199592
0.00199593
0.00199593
0.00199593
0.00199594
0.00199594
0.00199594
0.00199595
0.00199596
0.00199596
0.00199596
0.00199597
0.00199597
0.0018491
0.00184911
0.00184911
0.00184911
0.00184912
0.00184912
0.00184912
0.00184913
0.00184913
0.00184913
0.00184913
0.00184913
0.00184914
0.00184914
0.00184915
0.00184916
0.00184917
0.00184917
0.00184919
0.00184919
0.00169713
0.00169714
0.00169715
0.00169716
0.00169717
0.00169717
0.00169717
0.00169717
0.00169717
0.00169717
0.00169717
0.00169718
0.00169718
0.00169719
0.00169719
0.0016972
0.00169721
0.00169722
0.00169722
0.00169722
0.00154265
0.00154265
0.00154265
0.00154266
0.00154267
0.00154267
0.00154267
0.00154267
0.00154267
0.00154268
0.00154268
0.00154269
0.00154269
0.0015427
0.0015427
0.0015427
0.00154271
0.00154271
0.00154271
0.00154271
0.00138767
0.00138767
0.00138767
0.00138768
0.00138768
0.00138769
0.0013877
0.0013877
0.0013877
0.0013877
0.00138771
0.00138772
0.00138772
0.00138772
0.00138773
0.00138773
0.00138773
0.00138774
0.00138774
0.00138774
0.00123381
0.00123382
0.00123383
0.00123384
0.00123385
0.00123385
0.00123386
0.00123386
0.00123387
0.00123387
0.00123388
0.00123388
0.00123388
0.00123389
0.00123389
0.00123389
0.00123389
0.0012339
0.0012339
0.0012339
0.00108237
0.00108238
0.0010824
0.0010824
0.00108241
0.00108242
0.00108243
0.00108243
0.00108243
0.00108244
0.00108244
0.00108245
0.00108245
0.00108245
0.00108245
0.00108245
0.00108245
0.00108246
0.00108246
0.00108246
0.0009343
0.000934308
0.000934321
0.000934329
0.000934339
0.000934342
0.000934346
0.000934352
0.000934351
0.000934354
0.000934353
0.000934359
0.000934365
0.000934367
0.000934364
0.000934369
0.00093437
0.000934371
0.000934374
0.000934373
0.00079035
0.000790354
0.00079036
0.000790367
0.000790371
0.000790376
0.00079038
0.000790386
0.000790391
0.000790387
0.000790383
0.000790382
0.000790382
0.000790387
0.000790393
0.000790396
0.0007904
0.000790407
0.00079041
0.000790409
0.000651166
0.000651167
0.000651168
0.000651168
0.000651171
0.000651174
0.000651174
0.000651178
0.00065118
0.000651182
0.000651184
0.000651182
0.000651182
0.000651186
0.000651191
0.000651195
0.000651199
0.000651205
0.00065121
0.000651213
0.000517391
0.000517392
0.000517392
0.000517391
0.000517391
0.00051739
0.000517389
0.000517388
0.000517389
0.000517394
0.000517397
0.0005174
0.000517404
0.000517405
0.000517406
0.000517407
0.000517411
0.000517413
0.000517416
0.000517423
0.000389834
0.000389835
0.000389836
0.000389839
0.000389839
0.00038984
0.000389841
0.00038984
0.000389841
0.000389843
0.000389845
0.000389846
0.00038985
0.000389852
0.000389853
0.000389852
0.000389854
0.000389853
0.000389852
0.000389851
0.00026983
0.000269829
0.00026983
0.000269832
0.000269833
0.000269835
0.000269838
0.000269838
0.000269842
0.000269841
0.000269842
0.000269844
0.000269844
0.000269845
0.000269844
0.000269845
0.000269845
0.000269846
0.000269844
0.000269841
0.000160033
0.000160032
0.000160032
0.000160033
0.000160033
0.000160033
0.000160034
0.000160037
0.000160038
0.000160039
0.00016004
0.000160042
0.000160043
0.000160044
0.000160045
0.000160046
0.000160045
0.000160045
0.000160045
0.000160044
5.6464e-05
5.64643e-05
5.64643e-05
5.64644e-05
5.64642e-05
5.64643e-05
5.64645e-05
5.64643e-05
5.64643e-05
5.6464e-05
5.64641e-05
5.64642e-05
5.64643e-05
5.64643e-05
5.64641e-05
5.64641e-05
5.64638e-05
5.64639e-05
5.64639e-05
5.64639e-05
)
;

boundaryField
{
    movingWall
    {
        type            nutkWallFunction;
        Cmu             0.09;
        kappa           0.41;
        E               9.8;
        value           nonuniform List<scalar> 
20
(
6.71002e-06
6.71003e-06
6.71003e-06
6.71002e-06
6.71002e-06
6.71001e-06
6.71001e-06
6.71e-06
6.71e-06
6.71e-06
6.71e-06
6.71e-06
6.71e-06
6.71e-06
6.71e-06
6.71e-06
6.71e-06
6.71001e-06
6.71001e-06
6.71002e-06
)
;
    }
    bottomWall
    {
        type            nutkWallFunction;
        Cmu             0.09;
        kappa           0.41;
        E               9.8;
        value           nonuniform List<scalar> 
20
(
5.73914e-06
5.73917e-06
5.73919e-06
5.73921e-06
5.73921e-06
5.7392e-06
5.7392e-06
5.73918e-06
5.73916e-06
5.73915e-06
5.73914e-06
5.73913e-06
5.73913e-06
5.73913e-06
5.73913e-06
5.73914e-06
5.73913e-06
5.73914e-06
5.73914e-06
5.73914e-06
)
;
    }
    cyc_half0
    {
        type            cyclic;
    }
    cyc_half1
    {
        type            cyclic;
    }
    frontAndBack
    {
        type            empty;
    }
}


// ************************************************************************* //
