/*--------------------------------*- C++ -*----------------------------------*\
  =========                 |
  \\      /  F ield         | OpenFOAM: The Open Source CFD Toolbox
   \\    /   O peration     | Website:  https://openfoam.org
    \\  /    A nd           | Version:  13
     \\/     M anipulation  |
\*---------------------------------------------------------------------------*/
FoamFile
{
    format      ascii;
    class       volScalarField;
    location    "4000";
    object      p;
}
// * * * * * * * * * * * * * * * * * * * * * * * * * * * * * * * * * * * * * //

dimensions      [0 2 -2 0 0 0 0];

internalField   nonuniform List<scalar> 
800
(
-2.62705e-06
1.88232e-05
-1.46954e-05
-3.49695e-05
-2.77967e-05
-9.43446e-06
1.5491e-05
1.39423e-05
2.19174e-05
-8.81411e-06
-9.80284e-05
-9.8567e-05
-8.5764e-05
-7.7624e-05
-6.37648e-05
-4.86099e-05
-2.40111e-05
-9.14834e-06
1.34842e-05
-1.52985e-05
7.3e-07
8.97825e-06
-1.4974e-05
-3.86083e-05
-2.81187e-05
-1.09732e-05
1.16369e-05
1.68746e-08
2.29529e-05
-5.34454e-06
-9.95385e-05
-9.74157e-05
-8.53335e-05
-8.07331e-05
-6.24633e-05
-4.87002e-05
-2.57926e-05
-8.52066e-06
8.79228e-06
-1.22832e-05
-7.3671e-07
6.04008e-06
-1.68211e-05
-4.66413e-05
-2.87193e-05
-1.14417e-05
2.00567e-06
4.88381e-06
3.03853e-05
-1.09971e-05
-9.83039e-05
-9.57324e-05
-9.94552e-05
-8.64174e-05
-6.29869e-05
-4.67213e-05
-2.21915e-05
-9.50362e-06
4.17901e-06
-1.62721e-06
-8.51846e-07
1.2427e-05
-1.70203e-05
-5.48818e-05
-3.31518e-05
-1.68435e-05
-2.56913e-06
1.88407e-05
3.21827e-05
-3.53198e-05
-9.67853e-05
-9.30993e-05
-9.97482e-05
-8.86046e-05
-7.27434e-05
-4.66032e-05
-1.61007e-05
-5.91832e-06
2.79307e-06
3.27536e-06
6.39264e-06
1.7965e-05
-3.0463e-05
-5.61836e-05
-3.79524e-05
-2.56088e-05
-1.33134e-05
1.93476e-05
2.51951e-05
-4.68761e-05
-9.12397e-05
-8.88082e-05
-9.94627e-05
-9.05877e-05
-8.3514e-05
-5.02155e-05
-5.58828e-06
3.97211e-06
-2.07355e-07
-3.02116e-06
1.23779e-05
4.31694e-06
-2.60911e-05
-4.73823e-05
-4.1129e-05
-3.15214e-05
-2.58585e-05
2.16354e-05
3.64437e-05
-3.32709e-05
-9.6972e-05
-8.5167e-05
-9.35304e-05
-9.1814e-05
-9.20049e-05
-5.07623e-05
1.54991e-05
1.16211e-05
-2.02535e-05
-8.99607e-06
1.07418e-05
1.26564e-06
-2.87888e-05
-4.65019e-05
-4.29379e-05
-3.66204e-05
-3.25385e-05
2.42871e-05
3.88349e-05
-2.22121e-05
-9.08657e-05
-8.70054e-05
-9.10646e-05
-8.88987e-05
-9.51638e-05
-5.6147e-05
3.30597e-05
1.49477e-05
-1.70832e-05
-7.49997e-06
1.14493e-05
1.06265e-05
-2.83502e-05
-6.00733e-05
-5.38646e-05
-3.88795e-05
-3.58601e-05
2.34162e-05
2.741e-05
-2.35909e-05
-7.67563e-05
-9.2517e-05
-0.000100719
-8.57719e-05
-9.52373e-05
-6.14212e-05
1.79496e-05
2.68101e-05
6.3513e-06
-1.95695e-05
1.91527e-05
1.22865e-05
-3.62736e-05
-6.39361e-05
-5.66683e-05
-5.8977e-05
-4.06061e-05
1.76584e-05
1.15216e-05
-2.30052e-05
-4.76043e-05
-9.08164e-05
-0.000105422
-7.63215e-05
-9.78631e-05
-6.06007e-05
1.22967e-05
3.05854e-05
3.44604e-06
-1.80948e-05
2.6964e-05
-1.06425e-05
-5.16103e-05
-4.99353e-05
-6.02609e-05
-9.69063e-05
-4.47707e-05
8.56981e-06
2.59834e-05
1.72759e-05
-2.77975e-05
-0.000101881
-9.1185e-05
-5.67744e-05
-8.92557e-05
-6.21859e-05
-4.04715e-06
2.73333e-05
5.85639e-06
-4.73362e-06
4.42724e-05
-1.99343e-05
-6.91884e-05
-6.04952e-05
-8.5392e-05
-0.000117204
-4.81941e-05
2.73866e-06
2.05769e-05
2.62165e-05
-1.10839e-05
-8.05314e-05
-8.0513e-05
-4.8793e-05
-6.26205e-05
-5.6831e-05
-2.41325e-05
1.35017e-05
-1.62553e-05
4.00553e-06
6.15997e-05
-7.02204e-06
-8.28504e-05
-9.68864e-05
-0.000123361
-0.000122303
-5.54788e-05
-5.26792e-06
9.32798e-06
2.8194e-05
1.09714e-05
-4.64233e-05
-6.69376e-05
-7.25355e-05
-5.91247e-05
-3.11323e-05
-2.37872e-05
-4.64714e-06
-3.26584e-06
1.24581e-05
5.99297e-05
1.15108e-05
-9.60211e-05
-0.000121312
-0.000134901
-0.000126723
-6.93358e-05
-1.62008e-05
5.45234e-06
2.46334e-05
4.32102e-05
-6.28949e-06
-5.49913e-05
-8.26051e-05
-3.76681e-05
-1.6658e-05
-2.21575e-05
-2.69888e-05
-2.19648e-05
6.57646e-06
6.61275e-05
3.38199e-05
-9.97196e-05
-0.000134722
-0.000155327
-0.000149018
-8.91452e-05
-2.59412e-05
7.81641e-06
1.18035e-05
4.6999e-05
3.49286e-05
-2.59239e-05
-7.26115e-05
-3.91425e-05
-2.26112e-05
-4.19806e-05
-2.50927e-05
-2.58824e-05
6.99259e-06
5.44387e-05
6.42719e-06
-9.71223e-05
-0.000112727
-0.000165103
-0.000165261
-0.000101765
-1.46425e-05
6.53516e-06
6.80136e-06
3.20107e-05
6.0002e-05
1.63171e-05
-6.18305e-05
-5.26155e-05
-6.26113e-05
-1.86792e-05
1.49662e-05
-2.48141e-05
-2.60746e-06
3.86455e-05
-1.73924e-05
-6.80903e-05
-8.51314e-05
-0.000179391
-0.000170799
-0.000116114
-3.21416e-05
2.95786e-05
3.3672e-05
1.19905e-05
4.79487e-05
1.96011e-05
-4.75405e-05
-6.29691e-05
-6.94017e-05
-1.93083e-05
8.12112e-06
5.53324e-06
1.14909e-05
7.04549e-05
-4.1263e-05
-7.53585e-05
-4.92874e-05
-0.000159823
-0.000179511
-0.000146457
-7.6967e-05
-6.31745e-06
1.51047e-05
5.42954e-05
6.61456e-05
2.23062e-05
-3.54247e-05
-7.32562e-05
-5.22464e-05
-3.40887e-06
1.61047e-05
-1.33059e-05
2.39608e-05
7.89136e-05
-4.90226e-05
-6.844e-05
-2.51762e-05
-0.000163771
-0.000205829
-0.000157133
-0.000100316
-5.91868e-05
-7.54956e-06
5.84292e-05
6.62931e-05
6.05988e-05
-1.9766e-05
-8.64294e-05
-5.39146e-05
3.79707e-06
5.35035e-05
6.93592e-06
4.6208e-05
-3.0907e-05
-6.0977e-05
-1.86523e-05
-7.028e-05
-0.000153933
-0.000168815
-0.00013575
-0.000105007
-8.4271e-05
-1.96387e-05
4.55764e-05
7.85007e-05
5.42335e-05
-6.24501e-05
-8.03569e-05
-2.74701e-05
1.29287e-05
3.10033e-05
4.49137e-05
5.54087e-05
-5.02872e-05
-9.90854e-05
-9.19029e-05
-8.68988e-05
-9.99492e-05
-9.8805e-05
-7.69988e-05
-6.97261e-05
-0.000115267
-7.0985e-05
-2.64132e-06
3.58253e-05
4.23473e-05
-3.79856e-05
-6.49542e-05
-6.75197e-06
1.8585e-05
4.28028e-05
6.64077e-05
-4.16594e-06
-5.48233e-05
-5.69895e-05
-5.63248e-05
-7.72572e-05
-6.52804e-05
-3.7395e-05
-9.1491e-05
-0.00010353
-0.000105483
-0.000119721
-6.32334e-05
8.46245e-06
5.5632e-05
3.95408e-05
-4.31711e-05
-2.06481e-05
3.65274e-05
6.84658e-05
6.24475e-05
-6.36261e-05
-3.42098e-05
-1.30696e-06
3.01693e-06
-7.38672e-05
-2.3144e-05
4.82821e-05
-6.51837e-05
-0.000118497
-0.000150301
-0.000170147
-9.7512e-05
-2.33219e-05
7.42884e-07
-2.24434e-06
-2.47883e-05
-1.26808e-05
2.34646e-05
4.51833e-05
6.38643e-05
-4.06409e-05
-1.66992e-05
-1.31399e-05
9.80545e-06
-3.75305e-05
1.80975e-06
0.00010875
-4.24689e-06
-0.000147772
-0.000199403
-0.000188551
-0.000127828
-3.34199e-05
-2.2979e-05
-1.39171e-05
8.26179e-06
2.4489e-05
-1.56982e-06
1.00295e-05
2.68822e-05
-4.2089e-06
1.85101e-05
1.79802e-05
-2.78952e-05
1.05973e-06
1.60479e-05
7.69071e-05
-1.79609e-05
-0.000166186
-0.000175196
-0.000157631
-0.000113263
-3.70239e-05
-2.1482e-05
-2.5053e-05
-1.20978e-05
-2.41613e-05
-3.20687e-06
2.31745e-05
-4.08903e-06
-3.71828e-05
1.86951e-05
-1.70906e-05
-1.1279e-05
1.40048e-05
-1.89856e-05
2.3788e-05
4.86663e-05
-0.000139475
-0.000164802
-0.000115431
-7.31799e-05
-3.95486e-05
-2.1824e-05
-1.49796e-05
-3.53234e-05
-7.32919e-05
-3.03307e-05
3.01966e-05
-1.58456e-05
-2.816e-05
-2.38186e-05
-3.93003e-05
3.9448e-06
2.91442e-05
-4.4078e-05
-2.22223e-05
-3.14019e-05
-0.00011989
-8.5313e-05
-6.33065e-05
-5.7425e-05
-2.39063e-05
-2.37729e-05
-4.73147e-05
-5.02836e-05
-7.82957e-05
-5.8444e-05
-3.43487e-06
3.4531e-05
-1.36239e-05
-9.47596e-06
-9.78684e-06
-2.16215e-06
1.22646e-05
-4.76618e-05
-3.80803e-05
-7.31942e-05
-0.00011126
-2.28331e-05
3.23976e-05
-5.7987e-05
-7.89439e-05
-1.23076e-05
-5.26208e-05
-4.9426e-05
-7.18588e-05
-8.95239e-05
-3.30177e-05
1.72516e-05
-6.49994e-06
-1.06642e-05
-3.47069e-05
-1.78543e-05
-3.30755e-05
-3.98616e-05
-2.17273e-05
-4.82266e-05
-0.000101668
-5.01399e-06
9.69769e-05
-2.71098e-05
-9.70642e-05
-4.01585e-05
-4.8767e-05
-6.14868e-05
-9.73955e-05
-9.55637e-05
-4.69745e-05
-2.38872e-05
1.62189e-05
-3.61626e-05
-3.93654e-05
-1.10439e-05
-7.13712e-05
-6.8258e-05
-1.26717e-05
-1.26743e-05
-8.19527e-05
4.52152e-06
9.29418e-05
-1.79121e-05
-6.69096e-05
-8.57838e-05
-6.1322e-05
-5.83764e-05
-0.000105384
-7.98755e-05
-2.11369e-05
-2.85505e-05
3.59217e-06
-2.12169e-05
-4.46224e-05
-2.86255e-05
-8.15403e-05
-6.82722e-05
-1.75374e-05
-3.13092e-05
-4.89238e-05
2.00011e-05
3.90615e-05
-3.00976e-05
-3.78041e-05
-6.40298e-05
-5.21518e-05
-6.72038e-05
-0.000127339
-7.40191e-05
-1.76783e-05
-3.67548e-05
-4.49146e-06
-9.56459e-06
-5.8977e-05
-4.01493e-05
-9.3089e-05
-6.77429e-05
-1.417e-05
-1.73602e-05
-2.19182e-05
1.90721e-05
2.64853e-05
-4.93461e-05
-3.2853e-05
-3.71206e-05
-7.86237e-05
-7.74246e-05
-0.000110975
-8.12199e-05
-3.11102e-05
-3.48158e-05
-5.19495e-06
-3.71881e-05
-7.5416e-05
-6.00691e-05
-9.21929e-05
-6.05708e-05
-1.64314e-05
2.88736e-06
4.44669e-05
1.51252e-05
-5.94976e-06
-3.82558e-05
-1.32595e-05
-4.76352e-05
-9.35722e-05
-7.51767e-05
-8.27592e-05
-8.55859e-05
-2.31569e-05
-4.08065e-05
-1.22222e-05
-6.35271e-05
-9.5035e-05
-7.5174e-05
-9.92725e-05
-5.24845e-05
-2.05345e-06
7.54978e-06
6.36585e-05
5.02938e-06
-2.73054e-05
-3.07812e-05
-4.7856e-05
-3.35938e-05
-4.48862e-05
-8.00986e-05
-7.88135e-05
-6.39935e-05
-2.81265e-07
-2.49508e-05
-3.21891e-06
-6.91701e-05
-0.000123273
-0.000100758
-9.95832e-05
-4.91026e-05
8.26376e-06
8.85129e-06
4.88169e-05
2.26079e-05
-2.79391e-05
-3.0419e-05
-5.50218e-05
-3.48709e-05
-2.97352e-05
-9.2479e-05
-7.60028e-05
-2.26791e-05
1.53019e-05
-2.40507e-05
-1.11967e-05
-9.21777e-05
-0.000147646
-0.000123398
-9.25125e-05
-5.05921e-05
7.61719e-07
-3.23618e-06
4.35339e-05
2.63662e-05
-2.15958e-06
-1.20083e-05
-5.35019e-05
-5.3254e-05
-3.69102e-05
-7.74966e-05
-6.6978e-05
-1.3036e-05
3.29088e-05
-7.72373e-07
-3.37305e-05
-7.83527e-05
-0.000158391
-0.000134535
-0.000100567
-5.07733e-05
1.02034e-05
-4.63148e-06
3.11922e-05
2.51363e-05
-6.35167e-08
1.23518e-05
-6.53708e-05
-6.52624e-05
-4.34862e-05
-6.85744e-05
-4.33146e-05
-7.5525e-06
3.46954e-05
-3.2765e-05
-4.67172e-05
-8.43669e-05
-0.000168566
-0.000144828
-9.85512e-05
-5.04773e-05
1.02189e-05
-1.80914e-06
2.74181e-05
2.40425e-06
5.97783e-06
2.64561e-05
-7.29889e-05
-6.67381e-05
-3.47512e-05
-5.43434e-05
-2.39042e-05
-3.74156e-06
2.99636e-05
-5.43709e-05
-5.30076e-05
-8.57816e-05
-0.000164487
-0.000160285
-9.53513e-05
-4.62346e-05
-6.63095e-07
3.79732e-06
3.24017e-05
3.34218e-06
9.0026e-06
1.80844e-05
-7.75073e-05
-6.84147e-05
-3.16857e-05
-3.99839e-05
-1.35225e-05
1.29281e-06
5.06934e-06
-5.27246e-05
-6.24969e-05
-5.41242e-05
-0.000164473
-0.000168317
-9.19871e-05
-3.84829e-05
-3.92567e-06
7.90445e-06
1.69293e-06
9.67897e-08
1.07642e-05
-7.81936e-06
-6.55012e-05
-6.0759e-05
-2.47449e-05
-4.41409e-05
-4.08875e-06
7.91225e-06
-1.4142e-05
-3.93982e-05
-7.49683e-05
-4.68644e-05
-0.000162287
-0.000174258
-9.10728e-05
-3.06516e-05
-5.68315e-06
8.2945e-06
-7.50266e-06
5.67959e-06
4.49954e-06
-3.93801e-06
-5.30982e-05
-5.46103e-05
-3.08655e-05
-4.60396e-05
9.2567e-06
3.05034e-05
-2.34182e-05
-4.93868e-05
-8.34468e-05
)
;

boundaryField
{
    movingWall
    {
        type            zeroGradient;
    }
    bottomWall
    {
        type            zeroGradient;
    }
    cyc_half0
    {
        type            cyclic;
    }
    cyc_half1
    {
        type            cyclic;
    }
    frontAndBack
    {
        type            empty;
    }
}


// ************************************************************************* //
