/*--------------------------------*- C++ -*----------------------------------*\
  =========                 |
  \\      /  F ield         | OpenFOAM: The Open Source CFD Toolbox
   \\    /   O peration     | Website:  https://openfoam.org
    \\  /    A nd           | Version:  13
     \\/     M anipulation  |
\*---------------------------------------------------------------------------*/
FoamFile
{
    format      ascii;
    class       surfaceScalarField;
    location    "4000";
    object      phi;
}
// * * * * * * * * * * * * * * * * * * * * * * * * * * * * * * * * * * * * * //

dimensions      [0 3 -1 0 0 0 0];

internalField   nonuniform List<scalar> 
1540
(
3.69865e-05
1.78834e-10
3.6987e-05
-5.22767e-10
3.69874e-05
-3.5924e-10
3.69871e-05
2.4874e-10
3.69868e-05
3.27986e-10
3.69868e-05
-3.14836e-13
3.69866e-05
1.23382e-10
3.69857e-05
8.85686e-10
3.69857e-05
-3.69915e-12
3.69861e-05
-3.82116e-10
3.6986e-05
6.64573e-11
3.69863e-05
-2.75086e-10
3.69867e-05
-3.23582e-10
3.69864e-05
3.00186e-10
3.69864e-05
3.90657e-11
3.69861e-05
2.73459e-10
3.69859e-05
2.22124e-10
3.6986e-05
-9.97534e-11
3.69857e-05
2.47888e-10
-1.61148e-10
4.56249e-05
-5.41565e-10
4.56254e-05
-1.02745e-09
4.56258e-05
-7.16113e-10
4.56255e-05
4.34065e-10
4.56252e-05
6.2263e-10
4.56248e-05
3.87314e-10
4.56241e-05
7.64729e-10
4.56243e-05
6.72515e-10
4.56249e-05
-6.35032e-10
4.56244e-05
1.72742e-10
4.56246e-05
-9.68772e-11
4.56244e-05
-9.24571e-11
4.56236e-05
4.95923e-10
4.56235e-05
4.25544e-10
4.5624e-05
-4.27032e-10
4.56242e-05
6.88451e-11
4.56241e-05
3.39234e-10
4.56238e-05
8.54016e-11
4.56238e-05
3.02175e-10
-5.90309e-10
5.19377e-05
-3.3367e-10
5.19374e-05
-8.08744e-10
5.19377e-05
-9.43804e-10
5.1938e-05
1.15115e-10
5.19379e-05
6.47515e-10
5.19376e-05
6.4087e-10
5.19378e-05
6.1135e-10
5.19382e-05
2.63322e-10
5.19377e-05
-1.79944e-10
5.19372e-05
7.32731e-10
5.19369e-05
1.5162e-10
5.19365e-05
3.29124e-10
5.19369e-05
1.38537e-10
5.1937e-05
3.03354e-10
5.19365e-05
1.11059e-10
5.19367e-05
-1.81313e-10
5.19375e-05
-4.56815e-10
5.1938e-05
-3.8993e-10
5.19382e-05
2.7426e-11
-2.6701e-10
5.76193e-05
-5.68109e-11
5.7619e-05
-5.53863e-10
5.76184e-05
-2.86541e-10
5.76185e-05
-3.97665e-11
5.7619e-05
1.55499e-10
5.76193e-05
2.75811e-10
5.76191e-05
8.65988e-10
5.76182e-05
1.15311e-09
5.76176e-05
4.05541e-10
5.7618e-05
3.08031e-10
5.76185e-05
-3.12619e-10
5.7619e-05
-1.55301e-10
5.76189e-05
1.91188e-10
5.76191e-05
2.05264e-10
5.76193e-05
-1.10585e-10
5.76195e-05
-4.37295e-10
5.76197e-05
-6.13822e-10
5.76199e-05
-6.29911e-10
5.76201e-05
-2.04927e-10
2.20434e-10
6.31292e-05
1.26592e-10
6.31284e-05
2.5673e-10
6.31284e-05
-3.7176e-10
6.31288e-05
-4.10896e-10
6.31288e-05
8.72965e-11
6.31286e-05
4.63493e-10
6.31288e-05
6.99203e-10
6.31289e-05
1.05881e-09
6.31293e-05
-6.95451e-12
6.31293e-05
3.27668e-10
6.31286e-05
3.84035e-10
6.3129e-05
-5.42021e-10
6.31294e-05
-2.04403e-10
6.31294e-05
1.76929e-10
6.31296e-05
-2.281e-10
6.31297e-05
-6.34147e-10
6.31298e-05
-7.16849e-10
6.31293e-05
-1.40096e-10
6.3129e-05
1.21931e-10
-1.72952e-10
6.86737e-05
4.98127e-11
6.86738e-05
1.33299e-10
6.86739e-05
-4.32268e-10
6.86737e-05
-2.78241e-10
6.86736e-05
1.97435e-10
6.86731e-05
9.14054e-10
6.8673e-05
8.20085e-10
6.86735e-05
5.23545e-10
6.86734e-05
1.49336e-10
6.86734e-05
3.32436e-10
6.86737e-05
9.08319e-11
6.86734e-05
-2.19874e-10
6.86733e-05
-1.25385e-10
6.86737e-05
-2.05179e-10
6.86738e-05
-3.4956e-10
6.86736e-05
-4.23469e-10
6.86733e-05
-4.62948e-10
6.8673e-05
1.4587e-10
6.86731e-05
4.0643e-11
-7.1277e-10
7.43654e-05
-4.50402e-10
7.43664e-05
-8.15743e-10
7.43668e-05
-7.91238e-10
7.43663e-05
1.31772e-10
7.43661e-05
4.4255e-10
7.43661e-05
8.82469e-10
7.43658e-05
1.1076e-09
7.43657e-05
6.26412e-10
7.43654e-05
4.65189e-10
7.43654e-05
3.1673e-10
7.43658e-05
-2.89294e-10
7.43655e-05
4.21216e-11
7.43656e-05
-1.54162e-10
7.43659e-05
-5.27532e-10
7.4366e-05
-4.74594e-10
7.43657e-05
-1.3841e-10
7.43651e-05
1.56243e-10
7.43656e-05
-3.7637e-10
7.43657e-05
-3.36365e-11
8.7324e-12
8.02816e-05
-3.19614e-10
8.02817e-05
-9.0251e-10
8.02812e-05
-3.5278e-10
8.02812e-05
1.67195e-10
8.02812e-05
4.51592e-10
8.02807e-05
1.32577e-09
8.02806e-05
1.25859e-09
8.02802e-05
9.49679e-10
8.02798e-05
8.90179e-10
8.02796e-05
4.99223e-10
8.02804e-05
-1.00301e-09
8.02814e-05
-1.01072e-09
8.02815e-05
-1.87109e-10
8.02814e-05
-4.21483e-10
8.02815e-05
-6.52356e-10
8.02817e-05
-3.40831e-10
8.02821e-05
-2.16148e-10
8.02822e-05
-4.99434e-10
8.0282e-05
1.59701e-10
2.91905e-10
8.6477e-05
-3.14601e-10
8.64767e-05
-5.86373e-10
8.64763e-05
3.46881e-11
8.64768e-05
-2.88092e-10
8.64766e-05
5.94705e-10
8.64758e-05
2.10561e-09
8.64755e-05
1.55708e-09
8.64752e-05
1.31449e-09
8.64754e-05
6.18864e-10
8.64763e-05
-3.27876e-10
8.64764e-05
-1.09476e-09
8.64758e-05
-3.94923e-10
8.6476e-05
-3.99342e-10
8.64768e-05
-1.19642e-09
8.64772e-05
-1.05103e-09
8.64771e-05
-3.13596e-10
8.64765e-05
3.2637e-10
8.64763e-05
-2.59893e-10
8.64768e-05
-3.8644e-10
1.27243e-10
9.30004e-05
-9.01317e-10
9.30003e-05
-4.35806e-10
9.30004e-05
-8.05409e-11
9.30002e-05
-8.7178e-11
9.29999e-05
8.9149e-10
9.30003e-05
1.7334e-09
9.30006e-05
1.16851e-09
9.30008e-05
1.16411e-09
9.30001e-05
1.3646e-09
9.29998e-05
-2.15017e-12
9.29996e-05
-9.55948e-10
9.29997e-05
-4.446e-10
9.30004e-05
-1.07086e-09
9.30002e-05
-1.01391e-09
9.30003e-05
-1.16675e-09
9.30003e-05
-4.22792e-10
9.30002e-05
4.31803e-10
9.29998e-05
1.73176e-10
9.29992e-05
1.93246e-10
-5.07501e-10
9.98959e-05
-1.00954e-09
9.98965e-05
-9.51676e-10
9.98967e-05
-3.17149e-10
9.98959e-05
7.56295e-10
9.98957e-05
1.09265e-09
9.98962e-05
1.18457e-09
9.9896e-05
1.33519e-09
9.98962e-05
1.03846e-09
9.98969e-05
5.76641e-10
9.98967e-05
2.12788e-10
9.98958e-05
2.20376e-11
9.9896e-05
-6.52982e-10
9.98961e-05
-1.20769e-09
9.98952e-05
-1.21371e-10
9.9894e-05
2.13823e-11
9.98943e-05
-7.33658e-10
9.98949e-05
-1.91236e-10
9.98945e-05
5.54347e-10
9.98952e-05
-5.32009e-10
-1.08266e-09
0.000107207
-8.50771e-10
0.000107206
-4.35383e-10
0.000107206
-2.42637e-10
0.000107207
4.35216e-10
0.000107207
6.02697e-10
0.000107208
4.73526e-10
0.000107208
7.80392e-10
0.000107209
7.71263e-10
0.000107209
5.86627e-10
0.000107208
7.20842e-10
0.000107208
3.22549e-10
0.000107208
-1.11207e-09
0.000107208
-8.53434e-10
0.000107208
1.15397e-10
0.000107207
2.85814e-10
0.000107207
-2.48249e-10
0.000107207
-4.71517e-10
0.000107208
5.63667e-11
0.000107207
-2.34616e-10
-7.52444e-10
0.000114977
-1.00626e-09
0.000114978
-7.70634e-10
0.000114978
-1.43391e-10
0.000114978
-6.80913e-12
0.000114978
1.39419e-10
0.000114978
4.75549e-10
0.000114979
3.72455e-10
0.000114979
4.77931e-10
0.000114979
6.40554e-10
0.000114979
7.87839e-10
0.000114979
5.86062e-10
0.000114977
9.62874e-11
0.000114977
-3.04519e-10
0.000114977
-4.69357e-10
0.000114978
-1.11032e-10
0.000114977
7.26762e-10
0.000114976
7.6579e-10
0.000114976
-8.45375e-10
0.000114977
-9.84202e-10
-5.72238e-10
0.000123251
-4.53056e-10
0.000123251
-4.36472e-10
0.000123251
-6.561e-10
0.000123252
-4.39923e-10
0.000123252
-5.29202e-10
0.000123253
-2.53084e-10
0.000123254
-9.58832e-11
0.000123254
4.77746e-11
0.000123254
5.76734e-10
0.000123254
6.06558e-10
0.000123254
7.66357e-10
0.000123254
3.66622e-10
0.000123253
3.03894e-10
0.000123252
2.57734e-10
0.000123252
3.58351e-10
0.000123251
1.15299e-09
0.000123252
5.45886e-10
0.000123252
-1.32841e-09
0.000123252
-7.90751e-10
-2.61982e-10
0.00013208
-3.57653e-10
0.00013208
-7.17413e-10
0.000132081
-1.54944e-09
0.000132082
-1.70634e-09
0.000132083
-7.2867e-10
0.000132083
-3.09353e-10
0.000132082
3.28372e-10
0.000132081
8.20754e-10
0.000132082
-5.88804e-11
0.000132083
-4.9031e-10
0.000132083
1.00642e-09
0.000132082
1.14096e-09
0.000132081
1.32374e-09
0.00013208
9.03886e-10
0.00013208
8.12233e-10
0.00013208
5.12391e-10
0.00013208
6.29829e-10
0.000132079
-1.55612e-10
0.00013208
-1.09904e-09
-6.07826e-10
0.000141521
-9.49479e-10
0.000141521
-8.17111e-10
0.000141521
-1.29801e-09
0.000141521
-1.7188e-09
0.000141521
-1.40866e-09
0.000141522
-5.0974e-10
0.000141522
1.60994e-10
0.000141522
8.79936e-10
0.000141521
8.68189e-10
0.00014152
6.51664e-10
0.00014152
5.33361e-10
0.000141521
5.14299e-10
0.00014152
1.52951e-09
0.000141521
6.61543e-10
0.00014152
1.13109e-09
0.00014152
3.69389e-10
0.000141521
-2.8665e-11
0.000141521
3.98467e-10
0.000141519
-2.26353e-11
-1.24134e-09
0.000151633
-4.72354e-10
0.000151633
-1.78068e-10
0.000151633
-1.11111e-09
0.000151632
-1.23735e-09
0.000151632
-7.41729e-10
0.000151632
-7.12063e-10
0.000151632
-2.79645e-10
0.000151632
6.15165e-10
0.000151632
7.97629e-10
0.000151632
1.1477e-09
0.000151631
1.13912e-09
0.000151631
8.00102e-10
0.000151632
1.50766e-10
0.000151632
6.68382e-10
0.000151632
1.06148e-09
0.000151632
4.46214e-10
0.000151632
-9.34745e-11
0.000151634
-9.13821e-10
0.000151634
-5.67923e-10
-7.26615e-10
0.000162485
6.54259e-10
0.000162485
-2.67824e-10
0.000162484
-3.91662e-10
0.000162483
4.67512e-10
0.000162482
-5.82246e-10
0.000162483
-1.22554e-09
0.000162484
-1.10397e-09
0.000162485
-7.20925e-10
0.000162486
9.88097e-11
0.000162486
4.85432e-10
0.000162487
5.27855e-10
0.000162487
4.92526e-10
0.000162486
7.91045e-10
0.000162486
1.32623e-09
0.000162486
1.12021e-09
0.000162486
-9.56684e-11
0.000162487
-8.26682e-10
0.000162486
-2.46052e-10
0.000162486
-6.99799e-10
4.82079e-11
0.000174166
1.0293e-09
0.000174165
7.87407e-10
0.000174163
1.45399e-09
0.000174163
1.60636e-10
0.000174165
-1.79128e-09
0.000174165
-1.47892e-09
0.000174165
-1.57072e-09
0.000174166
-1.01263e-09
0.000174166
-2.24947e-13
0.000174166
3.9539e-10
0.000174165
1.05826e-09
0.000174164
1.20905e-09
0.000174164
7.86638e-10
0.000174165
4.05339e-10
0.000174167
-4.82135e-10
0.000174167
-6.61537e-10
0.000174167
-8.8261e-10
0.000174167
-3.25465e-10
0.000174167
2.01537e-10
7.39021e-10
0.00018677
1.25151e-09
0.00018677
3.42529e-10
0.000186772
-1.722e-10
0.000186772
-2.16765e-10
0.000186771
-7.90362e-10
0.000186771
-1.03653e-09
0.00018677
-8.29168e-10
0.00018677
-5.11323e-10
0.000186769
-6.61414e-11
0.000186769
6.72573e-10
0.000186769
1.25996e-09
0.000186769
1.00195e-09
0.000186769
3.99359e-10
0.000186771
-8.0349e-10
0.000186771
-5.52786e-10
0.00018677
1.32249e-10
0.000186769
-3.81707e-10
0.000186769
-2.79601e-10
0.00018677
-3.43781e-11
1.06017e-09
0.000189172
-5.15805e-10
0.000189173
-5.8386e-10
0.000189173
-9.36414e-10
0.000189174
-2.80391e-10
0.000189174
-8.7799e-10
0.000189173
-7.95532e-10
0.000189173
-2.92151e-10
0.000189173
-3.10047e-10
0.000189172
9.9292e-11
0.000189172
9.367e-10
0.000189173
5.51768e-10
0.000189173
9.33203e-10
0.000189173
4.63059e-10
0.000189171
7.11612e-10
0.000189171
-1.12232e-10
0.000189171
-3.17103e-10
0.00018917
1.03192e-09
0.000189169
8.07718e-10
0.000189168
1.18383e-10
1.43952e-10
0.000180725
-1.39073e-09
0.000180725
-6.41393e-10
0.000180724
-5.47985e-11
0.000180724
1.61858e-10
0.000180723
-8.13707e-10
0.000180723
-5.18584e-10
0.000180724
-8.17396e-10
0.000180722
9.38198e-10
0.000180721
1.17147e-09
0.000180721
7.86992e-10
0.000180722
-2.25987e-10
0.000180724
-7.46949e-10
0.000180725
-5.57779e-10
0.000180725
4.36774e-10
0.000180724
7.8227e-10
0.000180724
-3.8835e-10
0.000180725
5.35509e-10
0.000180724
1.64687e-09
0.000180723
1.12621e-09
-4.81841e-10
0.000172592
-1.42298e-09
0.000172592
-2.50274e-11
0.00017259
1.19317e-09
0.000172591
-1.78937e-11
0.000172591
-7.44471e-10
0.000172589
6.64962e-10
0.000172588
7.28875e-10
0.000172588
5.93558e-10
0.000172589
-3.94727e-11
0.00017259
-2.03571e-10
0.000172591
-6.62148e-10
0.000172591
-1.11643e-09
0.000172591
-4.76471e-10
0.000172591
-1.10446e-10
0.000172592
-7.91913e-11
0.000172591
6.23439e-10
0.000172591
6.64566e-10
0.000172593
2.03152e-10
0.000172592
1.26828e-09
-5.02784e-12
0.000164792
5.40935e-10
0.000164791
7.42202e-10
0.000164792
2.76758e-10
0.000164793
-5.74506e-10
0.000164791
4.3166e-10
0.00016479
1.98403e-09
0.000164791
2.30824e-10
0.000164791
6.4278e-11
0.000164792
-4.07447e-10
0.000164792
-6.47584e-10
0.000164792
-8.62923e-10
0.000164792
-8.36233e-10
0.000164792
-1.09449e-09
0.000164793
-8.9448e-10
0.000164793
4.60354e-10
0.000164793
2.78695e-10
0.000164793
9.182e-10
0.000164793
-8.75762e-11
0.000164794
-2.04327e-11
6.04084e-10
0.000157333
7.52171e-10
0.000157333
8.49357e-10
0.000157333
4.27047e-10
0.000157332
-8.43251e-11
0.000157332
5.04294e-10
0.000157332
2.03454e-09
0.000157331
1.74648e-09
0.000157331
1.2221e-10
0.000157332
-1.65129e-09
0.000157332
-1.19651e-09
0.000157332
-4.42744e-10
0.000157332
-1.13312e-09
0.000157332
-1.16046e-09
0.000157332
-4.32427e-10
0.000157332
1.34235e-10
0.000157332
1.07799e-10
0.000157333
1.3573e-10
0.000157332
6.09443e-10
0.000157333
-2.60004e-10
9.60033e-11
0.000150214
2.1929e-10
0.000150214
6.29671e-10
0.000150214
6.02856e-11
0.000150214
1.56172e-10
0.000150214
5.94938e-10
0.000150215
8.69044e-10
0.000150216
1.26413e-09
0.000150215
5.65905e-10
0.000150214
-6.863e-10
0.000150214
-1.34533e-09
0.000150215
-9.36992e-10
0.000150214
-4.05034e-10
0.000150214
-9.98582e-10
0.000150214
-2.15399e-10
0.000150214
-1.0994e-10
0.000150215
-6.66776e-10
0.000150215
1.60334e-13
0.000150214
1.0972e-09
0.000150213
1.1309e-09
-1.11633e-10
0.000143438
6.07201e-10
0.000143438
1.14446e-09
0.000143437
7.63995e-10
0.000143436
1.25156e-09
0.000143436
5.23953e-10
0.000143437
-1.03157e-10
0.000143438
3.26834e-10
0.000143439
-1.15685e-10
0.000143439
-8.37513e-10
0.000143439
-1.29268e-09
0.000143438
-4.95482e-10
0.000143437
3.58908e-10
0.000143437
-2.42654e-10
0.000143437
-7.2919e-10
0.000143438
-6.8711e-10
0.000143437
4.38465e-10
0.000143437
-2.33649e-10
0.000143438
-3.1212e-10
0.000143439
7.58177e-10
-4.85695e-11
0.000136999
5.91759e-10
0.000137
5.76783e-10
0.000137
6.56588e-10
0.000137
1.63554e-09
0.000136999
1.19454e-09
0.000136999
-2.56389e-11
0.000136999
4.36031e-11
0.000137
-7.28689e-10
0.000136999
-5.73571e-10
0.000136998
6.94107e-11
0.000136997
-7.01621e-11
0.000136998
2.30996e-10
0.000136998
-3.45165e-10
0.000136997
-4.89375e-10
0.000136997
-6.87697e-10
0.000136998
-3.74999e-10
0.000136999
-6.45237e-10
0.000136999
-7.94907e-10
0.000137
1.35531e-12
7.55932e-10
0.000130895
-2.10179e-10
0.000130896
-2.04738e-10
0.000130896
8.14936e-10
0.000130896
1.46146e-09
0.000130896
1.04114e-09
0.000130895
9.77814e-10
0.000130895
-2.50301e-10
0.000130896
-1.4237e-09
0.000130896
-4.49519e-10
0.000130895
1.14036e-09
0.000130894
1.67025e-10
0.000130895
-1.61611e-10
0.000130895
-8.57287e-10
0.000130896
-7.67552e-10
0.000130896
-7.22873e-10
0.000130896
-8.3374e-10
0.000130896
-7.26134e-10
0.000130895
5.77282e-11
0.000130894
9.57281e-10
8.64525e-10
0.000125123
1.52176e-10
0.000125123
-9.04747e-11
0.000125124
6.73274e-10
0.000125124
1.32052e-09
0.000125124
8.04189e-10
0.000125124
7.08692e-10
0.000125124
-5.087e-10
0.000125124
-1.16573e-09
0.000125124
-6.50607e-10
0.000125125
6.32744e-10
0.000125124
4.9607e-10
0.000125124
-3.15932e-10
0.000125125
-9.35676e-10
0.000125123
2.44335e-10
0.000125123
-6.79725e-10
0.000125124
-1.041e-09
0.000125123
-1.83037e-10
0.000125123
1.48463e-10
0.000125124
3.40645e-10
7.71565e-10
0.00011968
6.83422e-10
0.000119679
1.19286e-09
0.000119678
1.03393e-09
0.000119679
7.74646e-10
0.000119679
7.85712e-10
0.000119679
5.2594e-10
0.000119679
-5.88707e-10
0.00011968
-1.58043e-09
0.00011968
-7.01389e-10
0.00011968
5.62903e-10
0.00011968
-2.3994e-10
0.00011968
-1.82943e-10
0.000119679
-8.52313e-11
0.000119679
7.55553e-11
0.00011968
-8.59852e-10
0.000119679
-8.21417e-10
0.00011968
-1.07698e-09
0.000119681
-4.12232e-10
0.000119681
5.61758e-10
9.47197e-10
0.000114567
6.81932e-10
0.000114567
1.52127e-09
0.000114567
1.06346e-09
0.000114566
9.46814e-10
0.000114566
7.83418e-10
0.000114567
3.30441e-10
0.000114566
-1.95587e-11
0.000114565
-8.59559e-10
0.000114565
-7.99922e-10
0.000114566
-2.56232e-10
0.000114566
3.44498e-11
0.000114565
9.61054e-10
0.000114565
-1.67649e-10
0.000114565
-7.44267e-10
0.000114565
-4.59541e-10
0.000114565
-5.34894e-10
0.000114565
-1.38918e-09
0.000114565
-1.09959e-10
0.000114566
-3.12381e-10
-1.51086e-10
0.000109787
-7.79706e-11
0.000109788
8.23655e-10
0.000109788
1.31199e-09
0.000109788
1.06369e-09
0.000109788
3.00084e-10
0.000109788
2.34396e-10
0.000109787
7.79516e-10
0.000109786
5.69736e-10
0.000109786
-8.90889e-10
0.000109787
-1.34468e-09
0.000109787
-5.28725e-10
0.000109788
4.63362e-10
0.000109788
1.19525e-10
0.000109787
1.59701e-10
0.000109787
-4.77315e-10
0.000109787
-8.65823e-10
0.000109787
-9.27029e-10
0.000109787
-2.84103e-10
0.000109787
-2.41625e-10
1.96245e-10
0.000105356
1.84227e-10
0.000105357
4.52893e-11
0.000105357
7.65492e-10
0.000105357
9.51641e-10
0.000105357
9.18081e-10
0.000105357
4.12432e-10
0.000105357
2.04303e-10
0.000105357
8.78307e-10
0.000105356
-2.69404e-10
0.000105356
-9.6428e-10
0.000105356
-8.68436e-10
0.000105357
-5.28187e-10
0.000105357
3.55149e-10
0.000105356
9.68796e-10
0.000105356
-4.39935e-10
0.000105356
-1.24846e-09
0.000105356
-5.014e-10
0.000105355
1.67271e-10
0.000105356
-9.32717e-10
1.67838e-10
0.000101298
-2.67496e-10
0.000101299
-4.57269e-10
0.000101299
2.76744e-10
0.0001013
7.67975e-10
0.0001013
7.23418e-10
0.0001013
1.69108e-10
0.0001013
2.35728e-11
0.000101301
2.37609e-10
0.0001013
6.74275e-10
0.000101298
3.78349e-10
0.000101298
-4.06005e-10
0.000101297
9.88416e-11
0.000101298
-2.5558e-11
0.000101299
1.80755e-11
0.000101299
-6.73554e-10
0.000101298
-8.25424e-10
0.000101298
-5.18213e-10
0.000101299
-8.69839e-10
0.000101298
1.81435e-10
6.20931e-10
9.76639e-05
-7.5199e-11
9.76635e-05
-4.19043e-11
9.76629e-05
8.40334e-10
9.76631e-05
5.33877e-10
9.76637e-05
1.02932e-10
9.76635e-05
3.42824e-10
9.76634e-05
3.09776e-11
9.76638e-05
-2.06978e-10
9.76634e-05
1.00825e-09
9.76637e-05
8.80548e-11
9.76637e-05
-4.66304e-10
9.76636e-05
2.18613e-10
9.76633e-05
2.71355e-10
9.76635e-05
-1.20589e-10
9.76638e-05
-8.96976e-10
9.76636e-05
-6.1574e-10
9.76631e-05
-4.31732e-11
9.76628e-05
-6.23121e-10
9.76635e-05
-4.86838e-10
1.58326e-10
9.45457e-05
7.30333e-11
9.45456e-05
7.2938e-12
9.45457e-05
8.01547e-10
9.45457e-05
5.31289e-10
9.45455e-05
2.41675e-10
9.45453e-05
4.7291e-10
9.45452e-05
8.02376e-11
9.45448e-05
1.39367e-10
9.45454e-05
4.34149e-10
9.45456e-05
-1.28194e-10
9.45451e-05
2.86478e-11
9.45451e-05
2.04904e-10
9.45454e-05
1.85871e-11
9.45455e-05
-2.55154e-10
9.45451e-05
-4.39231e-10
9.45448e-05
-2.79842e-10
9.45447e-05
2.57987e-11
9.45444e-05
-3.05342e-10
9.4545e-05
-1.02929e-09
-6.13358e-10
9.21462e-05
1.20433e-10
9.21461e-05
1.04551e-10
9.21463e-05
5.07764e-10
9.21468e-05
2.55793e-11
9.21471e-05
-8.23534e-11
9.21474e-05
1.68183e-10
9.21472e-05
2.05569e-10
9.21467e-05
6.4575e-10
9.21471e-05
4.07914e-12
9.21472e-05
-2.66358e-10
9.21467e-05
5.21901e-10
9.2147e-05
-1.3594e-10
9.21473e-05
-2.73442e-10
9.21474e-05
-2.80145e-10
9.21469e-05
8.08847e-11
9.21467e-05
-5.40885e-11
9.21469e-05
-1.56389e-10
9.21461e-05
5.52671e-10
9.21459e-05
-8.97023e-10
-8.07394e-10
9.09623e-05
7.01422e-11
9.09626e-05
-2.3191e-10
9.09629e-05
1.92606e-10
9.09627e-05
2.2858e-10
9.09627e-05
-9.99894e-11
9.09632e-05
-3.37871e-10
9.0963e-05
2.71865e-10
9.09633e-05
3.70187e-10
9.09633e-05
-6.11631e-11
9.0963e-05
-3.08259e-11
9.09638e-05
-2.56113e-10
9.09637e-05
-2.45025e-11
9.09634e-05
7.38704e-11
9.09628e-05
3.34254e-10
9.09628e-05
1.4529e-10
9.09628e-05
-8.37662e-11
9.09629e-05
-2.37042e-10
9.09634e-05
1.40289e-10
9.09626e-05
-1.23831e-10
-3.63174e-10
9.29243e-05
9.2924e-05
9.29242e-05
9.29244e-05
9.29243e-05
9.29239e-05
9.29242e-05
9.29245e-05
9.29244e-05
9.29244e-05
9.29242e-05
9.29242e-05
9.29243e-05
9.29246e-05
9.29248e-05
9.29247e-05
9.29245e-05
9.29246e-05
9.29245e-05
)
;

boundaryField
{
    movingWall
    {
        type            calculated;
        value           uniform 0;
    }
    bottomWall
    {
        type            calculated;
        value           uniform 0;
    }
    cyc_half0
    {
        type            cyclic;
        value           nonuniform List<scalar> 
40
(
-0.000189169
-0.000186769
-0.000174166
-0.000162486
-0.000151634
-0.00014152
-0.00013208
-0.000123252
-0.000114977
-0.000107207
-9.98958e-05
-9.29998e-05
-8.6477e-05
-8.02817e-05
-7.43649e-05
-6.86736e-05
-6.31293e-05
-5.76196e-05
-5.19379e-05
-4.56242e-05
-3.69858e-05
-0.000180724
-0.000172592
-0.000164794
-0.000157333
-0.000150213
-0.000143439
-0.000136999
-0.000130894
-0.000125124
-0.000119681
-0.000114567
-0.000109786
-0.000105356
-0.000101298
-9.7664e-05
-9.45458e-05
-9.21462e-05
-9.09622e-05
-9.29242e-05
)
;
    }
    cyc_half1
    {
        type            cyclic;
        value           nonuniform List<scalar> 
40
(
0.000189169
0.000186769
0.000174166
0.000162486
0.000151634
0.00014152
0.00013208
0.000123252
0.000114977
0.000107207
9.98958e-05
9.29998e-05
8.6477e-05
8.02817e-05
7.43649e-05
6.86736e-05
6.31293e-05
5.76196e-05
5.19379e-05
4.56242e-05
3.69858e-05
0.000180724
0.000172592
0.000164794
0.000157333
0.000150213
0.000143439
0.000136999
0.000130894
0.000125124
0.000119681
0.000114567
0.000109786
0.000105356
0.000101298
9.7664e-05
9.45458e-05
9.21462e-05
9.09622e-05
9.29242e-05
)
;
    }
    frontAndBack
    {
        type            empty;
    }
}


// ************************************************************************* //
