/*--------------------------------*- C++ -*----------------------------------*\
  =========                 |
  \\      /  F ield         | OpenFOAM: The Open Source CFD Toolbox
   \\    /   O peration     | Website:  https://openfoam.org
    \\  /    A nd           | Version:  13
     \\/     M anipulation  |
\*---------------------------------------------------------------------------*/
FoamFile
{
    format      ascii;
    class       volVectorField;
    location    "4000";
    object      U;
}
// * * * * * * * * * * * * * * * * * * * * * * * * * * * * * * * * * * * * * //

dimensions      [0 1 -1 0 0 0 0];

internalField   nonuniform List<vector> 
800
(
(2.70731 9.2438e-07 0)
(2.70734 -7.96136e-06 0)
(2.70737 -3.4584e-06 0)
(2.70737 3.32234e-06 0)
(2.70736 3.98148e-06 0)
(2.70734 -3.54619e-07 0)
(2.70735 7.79403e-07 0)
(2.7073 1.09695e-05 0)
(2.70723 7.84937e-07 0)
(2.70728 -5.88732e-06 0)
(2.70728 -7.13183e-07 0)
(2.7073 -3.53218e-06 0)
(2.70732 -5.66476e-06 0)
(2.70732 5.20882e-06 0)
(2.7073 1.16162e-06 0)
(2.70732 2.65577e-06 0)
(2.70726 3.76153e-06 0)
(2.70729 -1.64412e-07 0)
(2.70727 4.59598e-06 0)
(2.70723 2.24716e-07 0)
(3.152 -4.87434e-06 0)
(3.15202 -1.98966e-05 0)
(3.15205 -1.24297e-05 0)
(3.15205 7.87285e-06 0)
(3.15204 1.03988e-05 0)
(3.15202 3.97687e-06 0)
(3.15197 8.8217e-06 0)
(3.15191 1.01996e-05 0)
(3.15205 -8.93688e-06 0)
(3.15192 -1.95799e-06 0)
(3.15199 -2.32997e-06 0)
(3.15199 -5.5259e-06 0)
(3.15194 4.961e-06 0)
(3.15188 2.94687e-06 0)
(3.15193 -6.94591e-06 0)
(3.15195 3.31331e-06 0)
(3.15196 5.1759e-06 0)
(3.15193 -2.07366e-07 0)
(3.15193 2.66002e-06 0)
(3.15191 -9.03068e-06 0)
(3.38655 -9.60264e-06 0)
(3.38652 -1.42989e-05 0)
(3.38651 -1.2723e-05 0)
(3.38654 6.36378e-06 0)
(3.38656 1.28875e-05 0)
(3.38655 1.11499e-05 0)
(3.38651 1.66333e-05 0)
(3.38657 1.27829e-05 0)
(3.38659 -5.71869e-06 0)
(3.38646 9.02892e-06 0)
(3.38652 2.64555e-06 0)
(3.38647 4.51753e-06 0)
(3.38644 3.78126e-06 0)
(3.38651 1.18072e-05 0)
(3.38648 2.39996e-08 0)
(3.38643 1.9877e-06 0)
(3.38651 -2.54844e-06 0)
(3.38654 -2.91532e-06 0)
(3.38658 4.98677e-06 0)
(3.38654 -9.63948e-06 0)
(3.54594 -3.52323e-06 0)
(3.54592 -1.19501e-05 0)
(3.54588 -2.0103e-05 0)
(3.54584 -5.27534e-06 0)
(3.5459 7.56972e-06 0)
(3.54592 9.78708e-06 0)
(3.54593 1.53092e-05 0)
(3.54588 1.35801e-05 0)
(3.54583 -1.06555e-06 0)
(3.54579 1.53946e-05 0)
(3.54588 -3.93063e-06 0)
(3.54589 4.32353e-06 0)
(3.5459 4.38714e-06 0)
(3.5459 3.43043e-06 0)
(3.54592 6.21564e-07 0)
(3.54593 -9.24176e-06 0)
(3.54594 -8.64204e-06 0)
(3.54595 -9.76817e-06 0)
(3.54597 -1.55832e-06 0)
(3.54595 1.10439e-06 0)
(3.66676 2.25839e-06 0)
(3.66672 -1.0994e-05 0)
(3.66665 -9.21907e-07 0)
(3.66672 -1.6171e-06 0)
(3.66672 2.10242e-06 0)
(3.66673 6.97344e-06 0)
(3.66668 1.55619e-05 0)
(3.66675 2.6112e-05 0)
(3.66669 1.16299e-05 0)
(3.66677 2.23224e-06 0)
(3.66672 3.73413e-06 0)
(3.66668 -7.2072e-06 0)
(3.66675 -3.61027e-07 0)
(3.66675 1.62688e-06 0)
(3.66676 -4.77836e-06 0)
(3.66676 -1.10922e-05 0)
(3.66677 -1.69756e-05 0)
(3.66678 -8.52289e-06 0)
(3.6667 -3.14546e-07 0)
(3.66673 1.47754e-06 0)
(3.76468 4.28824e-06 0)
(3.76469 9.58246e-06 0)
(3.76468 -8.70669e-06 0)
(3.76469 -7.54517e-06 0)
(3.76468 1.32966e-06 0)
(3.76468 1.23804e-05 0)
(3.76461 9.4716e-06 0)
(3.76468 1.46815e-05 0)
(3.76469 -3.55605e-06 0)
(3.76461 8.35414e-06 0)
(3.76469 5.81318e-06 0)
(3.7647 -8.45794e-06 0)
(3.76462 -1.64045e-06 0)
(3.76469 7.87036e-07 0)
(3.76468 -5.57659e-06 0)
(3.7647 -9.72794e-06 0)
(3.76465 -8.85943e-06 0)
(3.76468 1.2958e-06 0)
(3.7646 -2.99166e-06 0)
(3.76469 -1.10225e-05 0)
(3.84763 -7.73304e-06 0)
(3.8477 -6.45421e-06 0)
(3.84773 -1.24725e-05 0)
(3.84772 -2.71053e-06 0)
(3.8477 7.53385e-06 0)
(3.8477 1.83304e-05 0)
(3.84768 2.32682e-05 0)
(3.84769 1.03684e-05 0)
(3.84769 9.06895e-06 0)
(3.84761 7.25454e-06 0)
(3.84769 -6.99331e-07 0)
(3.8477 -3.0861e-06 0)
(3.84763 -1.27242e-06 0)
(3.8477 -7.82583e-06 0)
(3.84769 -7.42076e-06 0)
(3.84771 -5.07122e-06 0)
(3.84766 -9.75328e-07 0)
(3.84763 -2.36607e-07 0)
(3.84771 3.85214e-06 0)
(3.84765 -9.69641e-06 0)
(3.9204 -7.12729e-06 0)
(3.92041 -1.65293e-05 0)
(3.92041 -1.37603e-05 0)
(3.92035 6.74911e-06 0)
(3.92041 1.02966e-05 0)
(3.92036 2.28379e-05 0)
(3.92035 2.12258e-05 0)
(3.92036 1.6208e-05 0)
(3.92031 7.82636e-06 0)
(3.92031 2.56611e-06 0)
(3.9203 -1.31914e-05 0)
(3.92039 -1.01118e-05 0)
(3.92038 -7.38574e-06 0)
(3.9204 -6.90099e-06 0)
(3.92039 -1.08823e-05 0)
(3.92041 -4.96126e-06 0)
(3.92042 -1.10189e-06 0)
(3.92042 -1.4069e-05 0)
(3.92042 1.83124e-06 0)
(3.92041 5.31708e-06 0)
(3.98569 -6.62585e-06 0)
(3.9857 -1.44279e-05 0)
(3.98565 4.16485e-07 0)
(3.98566 -8.9371e-07 0)
(3.9857 9.7562e-06 0)
(3.98565 2.93252e-05 0)
(3.98562 3.13315e-05 0)
(3.98563 2.20885e-05 0)
(3.98557 1.81225e-05 0)
(3.98565 3.80224e-06 0)
(3.98567 -2.33187e-05 0)
(3.98566 -1.72419e-05 0)
(3.9856 -1.31242e-06 0)
(3.98568 -1.90591e-05 0)
(3.98569 -1.79113e-05 0)
(3.9857 -6.63233e-06 0)
(3.98569 -9.92764e-07 0)
(3.98564 -2.80975e-06 0)
(3.98566 -3.06336e-06 0)
(3.98569 9.61649e-06 0)
(4.04553 -1.24992e-05 0)
(4.04555 -1.15197e-05 0)
(4.0455 -7.08923e-07 0)
(4.04557 -4.55492e-06 0)
(4.04548 1.37156e-05 0)
(4.04553 4.42289e-05 0)
(4.04555 2.84017e-05 0)
(4.04555 2.73205e-05 0)
(4.04556 1.95644e-05 0)
(4.04548 -1.05042e-06 0)
(4.04554 -2.49072e-05 0)
(4.04547 -2.60091e-06 0)
(4.04554 -1.64368e-05 0)
(4.04553 -2.52883e-05 0)
(4.04552 -2.85607e-05 0)
(4.04553 -6.38503e-06 0)
(4.04554 7.83784e-06 0)
(4.04553 -6.03391e-07 0)
(4.04547 2.48274e-07 0)
(4.04549 -7.71483e-06 0)
(4.10135 -2.00431e-05 0)
(4.10137 -1.38125e-05 0)
(4.10138 -2.42154e-06 0)
(4.1014 5.42164e-06 0)
(4.1013 2.11809e-05 0)
(4.10137 3.04411e-05 0)
(4.10139 2.51506e-05 0)
(4.10132 2.16419e-05 0)
(4.1014 1.89628e-05 0)
(4.10139 3.50197e-07 0)
(4.10138 -6.96852e-06 0)
(4.10131 -1.25934e-05 0)
(4.10139 -2.48715e-05 0)
(4.10135 -4.8541e-06 0)
(4.1013 -5.20181e-06 0)
(4.10125 -1.60578e-05 0)
(4.10133 3.31275e-06 0)
(4.1013 8.61344e-07 0)
(4.10128 -5.57691e-06 0)
(4.10136 -1.7196e-05 0)
(4.15423 -1.7904e-05 0)
(4.15424 -1.4138e-05 0)
(4.15417 -1.05137e-05 0)
(4.15425 1.66595e-05 0)
(4.15419 2.03369e-05 0)
(4.15427 1.84715e-05 0)
(4.15428 2.1377e-05 0)
(4.15429 1.80592e-05 0)
(4.1543 1.31472e-05 0)
(4.15431 1.09304e-05 0)
(4.15425 5.45198e-06 0)
(4.15428 -2.19627e-05 0)
(4.15428 -2.39978e-05 0)
(4.15427 -2.06974e-06 0)
(4.15427 3.85934e-06 0)
(4.15422 -7.19855e-06 0)
(4.15424 -6.77715e-06 0)
(4.15425 1.66076e-05 0)
(4.15425 -7.66242e-06 0)
(4.15425 -1.83439e-05 0)
(4.20502 -1.73836e-05 0)
(4.20503 -1.14137e-05 0)
(4.20502 1.17893e-06 0)
(4.20505 6.22352e-07 0)
(4.20505 8.99945e-06 0)
(4.20507 6.66086e-06 0)
(4.20507 1.05999e-05 0)
(4.20509 1.2758e-05 0)
(4.20508 1.24662e-05 0)
(4.20509 1.45699e-05 0)
(4.20508 8.33363e-06 0)
(4.20508 -8.97742e-06 0)
(4.20497 -8.03159e-06 0)
(4.20503 -4.5442e-06 0)
(4.20505 2.20342e-06 0)
(4.20503 5.06287e-06 0)
(4.20497 -3.45757e-06 0)
(4.20494 -1.64757e-05 0)
(4.20503 -1.13185e-05 0)
(4.20502 -1.14692e-05 0)
(4.2544 -1.04546e-05 0)
(4.25434 -1.09936e-05 0)
(4.25436 -1.04815e-05 0)
(4.25441 -4.78694e-06 0)
(4.25438 -9.56225e-06 0)
(4.25445 3.43839e-06 0)
(4.25446 3.54645e-06 0)
(4.25447 2.86012e-06 0)
(4.25447 1.19218e-05 0)
(4.25448 1.57549e-05 0)
(4.25448 1.39081e-05 0)
(4.25447 2.77122e-06 0)
(4.25445 -2.10021e-06 0)
(4.25442 -6.2693e-07 0)
(4.25443 1.71604e-06 0)
(4.25436 1.79887e-05 0)
(4.2544 1.63937e-05 0)
(4.2544 -2.16303e-05 0)
(4.2544 -1.94751e-05 0)
(4.2544 -9.81982e-06 0)
(4.30298 -1.87203e-05 0)
(4.30298 -1.00312e-05 0)
(4.30299 -1.7104e-05 0)
(4.30306 -2.69917e-05 0)
(4.30306 -1.4132e-05 0)
(4.30308 -6.86704e-06 0)
(4.30308 1.57131e-06 0)
(4.30305 9.45343e-06 0)
(4.30302 8.62867e-06 0)
(4.30309 -9.33422e-06 0)
(4.30309 1.58888e-05 0)
(4.30307 2.36806e-05 0)
(4.30302 1.75005e-05 0)
(4.303 5.62721e-06 0)
(4.303 7.935e-06 0)
(4.30295 1.82621e-05 0)
(4.30304 1.65242e-05 0)
(4.30298 -1.71118e-05 0)
(4.30293 -1.76605e-05 0)
(4.303 -2.83639e-06 0)
(4.35155 -6.849e-06 0)
(4.3515 -2.13138e-05 0)
(4.35156 -3.49267e-05 0)
(4.35149 -2.51829e-05 0)
(4.35154 -2.14833e-05 0)
(4.35156 -8.90979e-06 0)
(4.35156 4.09964e-06 0)
(4.35156 1.8946e-05 0)
(4.35155 4.50148e-06 0)
(4.3515 1.42354e-05 0)
(4.35147 1.9406e-05 0)
(4.35156 7.08601e-06 0)
(4.35146 3.05419e-05 0)
(4.35154 2.09844e-05 0)
(4.35153 2.53576e-05 0)
(4.35147 7.28458e-06 0)
(4.35154 6.41938e-06 0)
(4.35154 5.75853e-06 0)
(4.3515 -1.3729e-05 0)
(4.35147 -2.41541e-05 0)
(4.40053 -1.44767e-05 0)
(4.4005 -1.23065e-05 0)
(4.40052 -2.56633e-05 0)
(4.40051 -3.81634e-05 0)
(4.40045 -2.07027e-05 0)
(4.40049 -1.27777e-05 0)
(4.40048 1.28974e-06 0)
(4.4005 1.49144e-05 0)
(4.40049 1.8828e-05 0)
(4.4005 1.68644e-05 0)
(4.40046 1.64743e-05 0)
(4.40046 2.61064e-05 0)
(4.40044 2.72499e-05 0)
(4.40053 1.29296e-05 0)
(4.40046 1.83906e-05 0)
(4.40052 1.14715e-05 0)
(4.40045 -2.49374e-06 0)
(4.40053 -6.19352e-06 0)
(4.40054 -3.94569e-06 0)
(4.40054 -2.15692e-05 0)
(4.45049 -5.04091e-06 0)
(4.45053 -2.819e-06 0)
(4.45054 -1.56777e-05 0)
(4.45048 -6.24566e-06 0)
(4.45042 -1.41031e-05 0)
(4.45049 -1.95686e-05 0)
(4.45046 -1.46429e-05 0)
(4.45053 1.00752e-06 0)
(4.45054 9.45606e-06 0)
(4.45056 1.63131e-05 0)
(4.45057 1.73777e-05 0)
(4.45058 4.05433e-06 0)
(4.4506 5.11015e-08 0)
(4.4505 2.20337e-05 0)
(4.45058 2.43002e-05 0)
(4.45051 7.09703e-07 0)
(4.45059 -1.05897e-05 0)
(4.45059 -9.89173e-06 0)
(4.45052 -1.12782e-05 0)
(4.45061 -1.30022e-06 0)
(4.50247 2.02128e-05 0)
(4.50246 1.11661e-05 0)
(4.50241 8.90558e-06 0)
(4.50235 1.12858e-05 0)
(4.50242 -2.38642e-05 0)
(4.50244 -2.84176e-05 0)
(4.50243 -2.70566e-05 0)
(4.50245 -2.20769e-05 0)
(4.50245 -3.68454e-06 0)
(4.50246 6.3322e-06 0)
(4.50245 1.49371e-05 0)
(4.50241 2.1307e-05 0)
(4.50242 1.6409e-05 0)
(4.50239 1.86694e-05 0)
(4.50248 6.79786e-06 0)
(4.50248 -9.9792e-06 0)
(4.50249 -1.85553e-05 0)
(4.5025 -7.33582e-06 0)
(4.50251 -4.44441e-06 0)
(4.50241 -8.47067e-07 0)
(4.55704 2.57157e-05 0)
(4.55701 8.57215e-06 0)
(4.55706 1.90029e-05 0)
(4.55708 -6.25885e-07 0)
(4.55709 -2.28113e-05 0)
(4.55702 -2.35335e-05 0)
(4.55708 -2.6764e-05 0)
(4.55699 -1.25243e-05 0)
(4.55703 4.11372e-06 0)
(4.55702 9.88605e-06 0)
(4.557 2.26218e-05 0)
(4.557 1.89592e-05 0)
(4.55702 9.26122e-06 0)
(4.557 -1.02572e-06 0)
(4.55708 -1.88221e-05 0)
(4.55703 -5.08563e-06 0)
(4.55702 -1.09788e-05 0)
(4.55701 -3.51276e-06 0)
(4.55703 1.07931e-07 0)
(4.55699 2.08585e-05 0)
(4.61377 1.08254e-05 0)
(4.61379 -2.84142e-07 0)
(4.61381 -1.18443e-05 0)
(4.61382 -1.16962e-05 0)
(4.61383 -1.76382e-05 0)
(4.61381 -1.98706e-05 0)
(4.61382 -1.44118e-05 0)
(4.6138 -9.82046e-06 0)
(4.6138 6.46063e-07 0)
(4.61379 1.4323e-05 0)
(4.6138 2.52739e-05 0)
(4.6138 2.01096e-05 0)
(4.61381 9.58667e-06 0)
(4.6138 -7.15813e-06 0)
(4.61372 3.64871e-06 0)
(4.61378 -3.85599e-06 0)
(4.61376 6.99876e-06 0)
(4.6137 1.49016e-06 0)
(4.6137 1.72237e-06 0)
(4.61367 1.91623e-05 0)
(4.67039 -2.24952e-05 0)
(4.6704 -1.32468e-05 0)
(4.67039 -1.36868e-05 0)
(4.67032 3.62635e-06 0)
(4.6704 -1.75697e-05 0)
(4.6703 -1.4359e-05 0)
(4.67036 -1.31956e-05 0)
(4.67037 9.44675e-06 0)
(4.67028 -3.16186e-06 0)
(4.67032 2.20942e-05 0)
(4.67028 -3.562e-06 0)
(4.67036 2.85372e-06 0)
(4.67037 1.42914e-06 0)
(4.67039 1.83391e-05 0)
(4.6704 6.27111e-06 0)
(4.67033 -6.07878e-07 0)
(4.67039 1.77788e-05 0)
(4.67038 2.55825e-05 0)
(4.67034 7.46705e-06 0)
(4.6703 -7.13469e-06 0)
(4.72598 -3.03312e-05 0)
(4.72597 -9.16032e-06 0)
(4.72594 1.17046e-05 0)
(4.72589 3.0432e-06 0)
(4.72596 -1.97011e-05 0)
(4.7259 2.32183e-06 0)
(4.72587 1.01688e-06 0)
(4.72582 1.04626e-05 0)
(4.72588 2.12821e-05 0)
(4.72591 2.57472e-06 0)
(4.72592 -8.54544e-06 0)
(4.72594 -1.70204e-05 0)
(4.72595 -5.96938e-06 0)
(4.7259 -1.13751e-06 0)
(4.72599 8.46678e-06 0)
(4.72597 1.60901e-06 0)
(4.7259 7.49976e-06 0)
(4.72597 2.33886e-05 0)
(4.726 2.594e-05 0)
(4.72593 -5.17453e-06 0)
(4.78129 -6.47002e-06 0)
(4.78118 9.3688e-06 0)
(4.78123 1.81938e-05 0)
(4.78125 -6.26235e-06 0)
(4.78125 7.12735e-07 0)
(4.7812 2.21899e-05 0)
(4.78115 1.08217e-05 0)
(4.78121 3.76941e-06 0)
(4.78123 -1.35526e-06 0)
(4.78123 -6.05197e-06 0)
(4.78125 -1.35798e-05 0)
(4.78125 -1.95633e-05 0)
(4.7812 -2.24629e-05 0)
(4.78128 -1.19339e-05 0)
(4.78128 -2.53626e-06 0)
(4.78122 9.54644e-06 0)
(4.78129 2.02044e-05 0)
(4.78123 -1.62528e-06 0)
(4.7813 1.33952e-05 0)
(4.78129 5.18279e-06 0)
(4.83682 1.18528e-05 0)
(4.83679 1.64847e-05 0)
(4.83681 7.16832e-06 0)
(4.83681 -8.38075e-06 0)
(4.83675 1.13864e-05 0)
(4.83682 4.67896e-05 0)
(4.83674 2.12923e-05 0)
(4.8367 1.01518e-05 0)
(4.83676 -2.68947e-05 0)
(4.83678 -2.04675e-05 0)
(4.83679 -1.42093e-05 0)
(4.83676 -2.12234e-05 0)
(4.83682 -2.40716e-05 0)
(4.83673 -1.3247e-05 0)
(4.83681 1.60151e-05 0)
(4.83673 -1.87598e-06 0)
(4.83682 1.08622e-05 0)
(4.83681 5.76491e-06 0)
(4.83674 -2.92751e-06 0)
(4.83682 5.91273e-06 0)
(4.89312 9.48923e-06 0)
(4.89307 1.36363e-05 0)
(4.89312 4.18426e-06 0)
(4.89313 -3.70436e-06 0)
(4.89305 7.34349e-06 0)
(4.89315 2.91248e-05 0)
(4.89313 3.23232e-05 0)
(4.89314 7.34592e-06 0)
(4.89314 -1.70328e-05 0)
(4.89307 -2.51678e-05 0)
(4.89313 -1.40166e-05 0)
(4.89314 -1.68894e-05 0)
(4.89305 -2.26888e-05 0)
(4.89312 -3.55659e-06 0)
(4.89304 -1.26771e-05 0)
(4.89313 -3.34398e-06 0)
(4.89312 7.90148e-07 0)
(4.89313 1.64087e-05 0)
(4.89309 6.3437e-06 0)
(4.89302 4.32656e-06 0)
(4.95079 1.06797e-05 0)
(4.95076 1.77723e-05 0)
(4.95076 8.39198e-06 0)
(4.95072 1.72505e-05 0)
(4.95066 1.42398e-05 0)
(4.95075 8.15387e-06 0)
(4.9507 1.68192e-05 0)
(4.95079 3.61027e-06 0)
(4.9508 -1.5129e-05 0)
(4.95078 -3.16873e-05 0)
(4.95077 -1.37758e-05 0)
(4.95077 -3.52696e-06 0)
(4.95073 -7.76779e-06 0)
(4.95069 -9.99929e-06 0)
(4.95077 -5.62823e-06 0)
(4.95075 5.3322e-07 0)
(4.95068 -3.27482e-06 0)
(4.95077 8.17433e-06 0)
(4.95078 2.20751e-05 0)
(4.95078 -4.95786e-06 0)
(5.01021 1.30691e-05 0)
(5.01029 1.85264e-05 0)
(5.0103 1.46191e-05 0)
(5.0103 3.56375e-05 0)
(5.01022 1.29106e-05 0)
(5.01029 -9.05705e-06 0)
(5.01019 9.2345e-07 0)
(5.01028 -1.11537e-05 0)
(5.0103 -1.49508e-05 0)
(5.01024 -7.84558e-06 0)
(5.01016 -1.00599e-05 0)
(5.01022 7.25893e-06 0)
(5.0102 -4.64076e-06 0)
(5.0102 -1.42209e-05 0)
(5.01019 -8.64371e-06 0)
(5.01019 2.76145e-06 0)
(5.01026 -9.83812e-06 0)
(5.01022 -9.55885e-06 0)
(5.01029 2.33451e-06 0)
(5.0103 7.42199e-06 0)
(5.07219 2.91144e-06 0)
(5.07228 2.63129e-06 0)
(5.07229 1.48721e-05 0)
(5.07225 2.12324e-05 0)
(5.07229 2.69524e-05 0)
(5.07228 1.58101e-05 0)
(5.07219 4.39191e-06 0)
(5.07228 -2.46142e-05 0)
(5.0723 -1.07467e-05 0)
(5.07225 8.67734e-06 0)
(5.07219 6.59048e-06 0)
(5.07225 1.75839e-06 0)
(5.07221 -2.02283e-05 0)
(5.0723 -1.15686e-05 0)
(5.07221 -1.67942e-05 0)
(5.07229 -1.55226e-05 0)
(5.07229 -1.30096e-05 0)
(5.07228 -1.17698e-05 0)
(5.07221 1.25849e-05 0)
(5.07222 1.57973e-05 0)
(5.13748 -2.81586e-06 0)
(5.13748 -3.1494e-06 0)
(5.13748 1.36423e-05 0)
(5.13748 3.2951e-05 0)
(5.1375 1.86089e-05 0)
(5.1375 1.73068e-05 0)
(5.1375 -1.70622e-05 0)
(5.13751 -2.6295e-05 0)
(5.13751 -8.78001e-06 0)
(5.13751 2.68098e-05 0)
(5.13752 5.27449e-06 0)
(5.13752 -2.29425e-06 0)
(5.13752 -9.12011e-06 0)
(5.13752 8.88365e-07 0)
(5.13743 -1.28555e-05 0)
(5.1375 -2.19509e-05 0)
(5.13751 -7.43391e-06 0)
(5.13742 7.66745e-06 0)
(5.13749 1.30349e-05 0)
(5.1375 1.54125e-05 0)
(5.20676 9.30156e-06 0)
(5.20676 1.01448e-05 0)
(5.20666 1.6416e-05 0)
(5.20671 1.86039e-05 0)
(5.20673 1.42889e-05 0)
(5.2067 1.39676e-05 0)
(5.20674 -3.12271e-06 0)
(5.2067 -2.34418e-05 0)
(5.20679 -1.27984e-05 0)
(5.20668 4.50956e-06 0)
(5.20677 3.92464e-07 0)
(5.20679 -7.29266e-06 0)
(5.20674 -1.90448e-05 0)
(5.20671 -9.62517e-06 0)
(5.20677 -1.54509e-05 0)
(5.2067 -1.54239e-05 0)
(5.20677 -1.26942e-05 0)
(5.20678 -1.27005e-05 0)
(5.20679 9.68342e-06 0)
(5.20679 1.813e-05 0)
(5.28127 1.95892e-05 0)
(5.28128 2.75392e-05 0)
(5.28126 2.14709e-05 0)
(5.28126 1.753e-05 0)
(5.28125 1.5302e-05 0)
(5.28126 6.39151e-06 0)
(5.28127 -1.08598e-05 0)
(5.28121 -2.5357e-05 0)
(5.28118 -1.82525e-05 0)
(5.28122 9.78028e-06 0)
(5.28126 2.86803e-07 0)
(5.2812 4.73645e-06 0)
(5.28114 2.43441e-06 0)
(5.28121 -1.17757e-06 0)
(5.28124 -1.19116e-05 0)
(5.28115 -1.42186e-05 0)
(5.28122 -2.71872e-05 0)
(5.28119 5.48338e-06 0)
(5.28117 1.05216e-05 0)
(5.28128 5.82253e-06 0)
(5.36244 3.01657e-07 0)
(5.36253 2.49925e-05 0)
(5.36254 2.41259e-05 0)
(5.36248 2.12489e-05 0)
(5.36254 9.30941e-06 0)
(5.36253 5.21742e-06 0)
(5.36254 5.77753e-06 0)
(5.36246 -1.11602e-05 0)
(5.36237 -2.00448e-05 0)
(5.36247 -2.03165e-05 0)
(5.36249 -4.49273e-06 0)
(5.36252 1.85487e-05 0)
(5.36253 1.11952e-07 0)
(5.36251 -5.6963e-06 0)
(5.36243 -1.09648e-05 0)
(5.36249 -1.33664e-05 0)
(5.3625 -2.19328e-05 0)
(5.36244 -6.9045e-06 0)
(5.36249 -9.719e-06 0)
(5.36246 4.54027e-06 0)
(5.45261 8.50948e-07 0)
(5.45269 9.02607e-06 0)
(5.45273 2.30997e-05 0)
(5.45273 2.15955e-05 0)
(5.45275 1.53125e-05 0)
(5.45266 7.41574e-06 0)
(5.45272 1.07248e-05 0)
(5.45275 2.07612e-05 0)
(5.45262 -8.76185e-06 0)
(5.45269 -2.92887e-05 0)
(5.45261 -1.47624e-05 0)
(5.45271 -6.22686e-07 0)
(5.45271 9.45198e-06 0)
(5.4527 8.30678e-06 0)
(5.45262 -1.28395e-05 0)
(5.45269 -2.35142e-05 0)
(5.45268 -1.51929e-05 0)
(5.45264 -5.50043e-06 0)
(5.45262 -1.26664e-05 0)
(5.45273 3.72516e-06 0)
(5.555 -3.36461e-06 0)
(5.55504 -5.33492e-06 0)
(5.55508 7.38373e-06 0)
(5.55508 1.89639e-05 0)
(5.5551 1.72888e-05 0)
(5.5551 6.84679e-06 0)
(5.55511 3.85403e-06 0)
(5.55514 1.43275e-05 0)
(5.55514 5.32465e-06 0)
(5.55505 -3.36203e-06 0)
(5.555 -1.8521e-05 0)
(5.55499 -8.72626e-06 0)
(5.55493 -4.15982e-06 0)
(5.55503 1.38333e-05 0)
(5.55504 -6.80151e-06 0)
(5.55505 -1.77273e-05 0)
(5.555 -6.96226e-06 0)
(5.55508 -5.174e-06 0)
(5.55506 -7.57451e-06 0)
(5.55499 -9.17813e-08 0)
(5.67482 3.49771e-06 0)
(5.67482 -5.4787e-06 0)
(5.67479 9.76403e-06 0)
(5.67474 8.65578e-06 0)
(5.67481 6.61153e-06 0)
(5.67482 4.2951e-06 0)
(5.67477 -1.59093e-07 0)
(5.67486 -6.04607e-06 0)
(5.67475 1.47774e-05 0)
(5.67483 7.21015e-06 0)
(5.67481 -6.10426e-06 0)
(5.6748 7.66529e-06 0)
(5.6748 5.14551e-06 0)
(5.67479 -2.02782e-06 0)
(5.67481 -1.67607e-05 0)
(5.67482 -1.64022e-05 0)
(5.67479 -1.27569e-05 0)
(5.67477 -1.19886e-05 0)
(5.67474 2.57518e-07 0)
(5.67485 1.64087e-05 0)
(5.82096 -1.41721e-05 0)
(5.82096 -2.13213e-06 0)
(5.82096 2.30102e-05 0)
(5.82095 1.24175e-05 0)
(5.82097 4.65896e-06 0)
(5.82093 7.73705e-06 0)
(5.82094 1.51295e-06 0)
(5.82092 4.67709e-06 0)
(5.82088 1.86677e-05 0)
(5.82099 2.37379e-06 0)
(5.82093 -1.98182e-06 0)
(5.8209 2.81662e-06 0)
(5.82094 1.82099e-06 0)
(5.82094 -4.22043e-06 0)
(5.82097 -1.46961e-05 0)
(5.82088 -9.1371e-06 0)
(5.82092 3.74789e-06 0)
(5.82089 -1.06906e-05 0)
(5.82085 -2.16271e-05 0)
(5.82097 -6.91303e-06 0)
(6.01123 1.46171e-05 0)
(6.01125 6.26574e-06 0)
(6.01123 7.12322e-06 0)
(6.01129 5.13438e-06 0)
(6.0113 3.55584e-08 0)
(6.01132 6.60398e-06 0)
(6.01133 2.96332e-06 0)
(6.0113 8.22215e-06 0)
(6.01125 3.927e-06 0)
(6.01135 -7.32611e-06 0)
(6.01129 3.07342e-06 0)
(6.01125 2.196e-06 0)
(6.01134 -3.99317e-06 0)
(6.01133 -4.96181e-06 0)
(6.01133 -2.00969e-06 0)
(6.01125 -3.19345e-06 0)
(6.01131 3.63358e-06 0)
(6.01128 -7.12904e-06 0)
(6.01119 -1.8624e-05 0)
(6.01127 -1.53038e-05 0)
(6.28757 2.74072e-06 0)
(6.28757 -3.54019e-06 0)
(6.28762 9.24375e-06 0)
(6.28763 2.98557e-06 0)
(6.28758 -8.79559e-07 0)
(6.28763 -7.26195e-06 0)
(6.28765 4.92878e-06 0)
(6.28759 6.43979e-06 0)
(6.28769 -3.66156e-06 0)
(6.2876 -1.05343e-06 0)
(6.28767 -6.10781e-07 0)
(6.28767 -3.53902e-06 0)
(6.28767 -1.41814e-08 0)
(6.28765 1.04046e-06 0)
(6.28758 1.14399e-06 0)
(6.28764 -9.22341e-07 0)
(6.28758 -1.29819e-05 0)
(6.28769 2.02388e-05 0)
(6.28757 -1.17842e-05 0)
(6.2876 -1.21329e-05 0)
(6.80592 -3.20218e-06 0)
(6.80585 -4.26434e-06 0)
(6.80589 1.1671e-06 0)
(6.80591 3.16078e-06 0)
(6.80591 -1.13847e-06 0)
(6.80589 3.59115e-06 0)
(6.80586 5.0134e-06 0)
(6.80595 7.96437e-06 0)
(6.80587 1.2295e-06 0)
(6.80594 2.45861e-07 0)
(6.80589 6.37703e-06 0)
(6.80589 4.411e-06 0)
(6.8059 2.88243e-06 0)
(6.8059 5.2159e-06 0)
(6.80594 4.24704e-06 0)
(6.80592 9.32876e-07 0)
(6.80594 1.16e-06 0)
(6.80588 -7.01214e-06 0)
(6.80594 -1.74949e-06 0)
(6.8059 -4.44612e-06 0)
)
;

boundaryField
{
    movingWall
    {
        type            fixedValue;
        value           uniform (10 0 0);
    }
    bottomWall
    {
        type            noSlip;
    }
    cyc_half0
    {
        type            cyclic;
    }
    cyc_half1
    {
        type            cyclic;
    }
    frontAndBack
    {
        type            empty;
    }
}


// ************************************************************************* //
