/*--------------------------------*- C++ -*----------------------------------*\
  =========                 |
  \\      /  F ield         | OpenFOAM: The Open Source CFD Toolbox
   \\    /   O peration     | Website:  https://openfoam.org
    \\  /    A nd           | Version:  13
     \\/     M anipulation  |
\*---------------------------------------------------------------------------*/
FoamFile
{
    format      ascii;
    class       volVectorField;
    location    "4000";
    object      wallShearStress;
}
// * * * * * * * * * * * * * * * * * * * * * * * * * * * * * * * * * * * * * //

dimensions      [0 2 -2 0 0 0 0];

internalField   uniform (0 0 0);

boundaryField
{
    movingWall
    {
        type            calculated;
        value           nonuniform List<vector> 
20
(
(0.0401393 7.72215e-08 0)
(0.0401402 8.73484e-08 0)
(0.0401397 -5.34741e-08 0)
(0.0401394 -6.36801e-08 0)
(0.0401394 3.22567e-08 0)
(0.0401396 -3.00011e-08 0)
(0.0401401 -1.15463e-07 0)
(0.0401389 -1.3988e-07 0)
(0.0401399 -1.78216e-08 0)
(0.0401389 -1.69901e-08 0)
(0.0401396 -7.47821e-08 0)
(0.0401396 -7.77384e-08 0)
(0.0401395 -5.72544e-08 0)
(0.0401394 -1.14318e-07 0)
(0.0401389 -8.25347e-08 0)
(0.0401392 -1.25772e-08 0)
(0.040139 2.26732e-09 0)
(0.0401397 1.14973e-07 0)
(0.040139 2.17229e-08 0)
(0.0401396 8.86696e-08 0)
)
;
    }
    bottomWall
    {
        type            calculated;
        value           nonuniform List<vector> 
20
(
(-0.0301538 4.05719e-08 0)
(-0.0301542 1.47816e-07 0)
(-0.0301547 6.98346e-08 0)
(-0.0301548 -5.66534e-08 0)
(-0.0301546 -7.81615e-08 0)
(-0.0301544 7.50301e-10 0)
(-0.0301545 -3.26917e-08 0)
(-0.0301538 -2.2234e-07 0)
(-0.030153 -1.92046e-08 0)
(-0.0301535 1.14474e-07 0)
(-0.0301535 2.10034e-08 0)
(-0.0301537 7.0541e-08 0)
(-0.0301539 9.50172e-08 0)
(-0.0301539 -8.52765e-08 0)
(-0.0301537 -1.9614e-08 0)
(-0.0301539 -6.27211e-08 0)
(-0.0301532 -6.88651e-08 0)
(-0.0301536 7.34229e-09 0)
(-0.0301534 -9.92664e-08 0)
(-0.030153 1.95172e-08 0)
)
;
    }
    cyc_half0
    {
        type            cyclic;
    }
    cyc_half1
    {
        type            cyclic;
    }
    frontAndBack
    {
        type            empty;
    }
}


// ************************************************************************* //
