/*--------------------------------*- C++ -*----------------------------------*\
  =========                 |
  \\      /  F ield         | OpenFOAM: The Open Source CFD Toolbox
   \\    /   O peration     | Website:  https://openfoam.org
    \\  /    A nd           | Version:  13
     \\/     M anipulation  |
\*---------------------------------------------------------------------------*/
FoamFile
{
    format      ascii;
    class       volScalarField;
    location    "37.098162";
    object      omega;
}
// * * * * * * * * * * * * * * * * * * * * * * * * * * * * * * * * * * * * * //

dimensions      [0 0 -1 0 0 0 0];

internalField   nonuniform List<scalar> 
17140
(
4528389.9
731657.66
224626.36
95289.488
48487.725
27617.64
16960.881
10985.519
7400.0381
5136.0963
3649.1
2641.4385
1941.1818
1444.4083
1085.9066
823.45075
628.96101
483.33458
373.31828
289.55952
225.35973
175.85853
137.48893
107.6069
84.235332
65.884799
51.426403
40.00088
30.953135
23.78478
18.119005
13.672867
10.232384
7.627486
5.7088993
4.3346839
3.3714869
2.7043686
2.2439629
1.9263321
1.7080731
1.5604539
1.4645452
1.4099067
1.3869124
1.3840398
1.4010548
1.4351984
1.4838712
1.5453598
1.6187527
1.7036703
1.7993213
1.9031368
2.0130077
2.1307419
2.2617706
2.4170096
2.6104576
2.8778817
3.2337606
3.497839
3.4480021
3.2037793
2.8708528
4528420.9
731663.27
224628.42
95290.546
48488.357
27618.056
16961.173
10985.733
7400.1989
5136.22
3649.1962
2641.5136
1941.2403
1444.4532
1085.9402
823.47482
628.97683
483.34316
373.3204
289.55583
225.35073
175.84463
137.4705
107.58422
84.208693
65.854495
51.392793
39.964452
30.914584
23.745082
18.07947
13.635112
10.198135
7.5981983
5.6853633
4.3168536
3.3586696
2.695602
2.2383235
1.9230759
1.7066569
1.5605029
1.4658361
1.4123494
1.3902158
1.3881753
1.4062084
1.4414359
1.4913528
1.5543508
1.6296543
1.7170582
1.8158936
1.9235169
2.0376275
2.1592857
2.2914731
2.438755
2.610048
2.8220856
3.0611111
3.2358194
3.1885218
2.9890199
2.8225576
4528451.2
731668.24
224629.96
95291.199
48488.692
27618.247
16961.29
10985.808
7400.2495
5136.2549
3649.2208
2641.5312
1941.2529
1444.4623
1085.9468
823.47953
628.98007
483.34522
373.32147
289.55599
225.34999
175.84296
137.46779
107.58035
84.203513
65.847867
51.384617
39.954708
30.903374
23.732678
18.066338
13.621903
10.185614
7.5871027
5.676224
4.3098842
3.3537934
2.6925766
2.2368664
1.9229421
1.7076681
1.562559
1.4689833
1.4166231
1.3954539
1.3944834
1.4140002
1.4509721
1.5030471
1.5688102
1.6477586
1.7400347
1.8451484
1.9602484
2.083055
2.2142342
2.3542111
2.5019221
2.659138
2.8272373
2.9796394
3.0715521
3.0016864
2.8844978
2.8852758
4528483
731673.42
224631.57
95291.883
48489.04
27618.446
16961.414
10985.89
7400.3064
5136.2962
3649.2522
2641.5562
1941.2739
1444.4808
1085.9638
823.4958
628.99622
483.36165
373.33846
289.57371
225.36852
175.86229
137.48783
107.60091
84.224348
65.86865
51.404986
39.974275
30.921754
23.749501
18.081273
13.634673
10.196048
7.5952198
5.6822935
4.3143926
3.3573095
2.6956144
2.2398241
1.9261105
1.7112672
1.56677
1.4741375
1.4229065
1.4028133
1.4032878
1.4248466
1.4643729
1.5197387
1.5898395
1.6746242
1.7747848
1.8899585
2.0169266
2.1539466
2.3015547
2.4571541
2.6140504
2.7697993
2.9073352
2.9976
3.0303233
2.9512301
2.9300371
3.0412467
4528516.9
731678.92
224633.26
95292.6
48489.405
27618.657
16961.547
10985.98
7400.3711
5136.3457
3649.2923
2641.5908
1941.3053
1444.5108
1085.9936
823.52629
629.02803
483.39527
373.37424
289.61188
225.4092
175.90547
137.53339
107.64861
84.273814
65.919396
51.456394
40.025599
30.972113
23.797867
18.126467
13.675425
10.231183
7.6239856
5.704685
4.3311999
3.3698067
2.7051387
2.2475102
1.9328256
1.7176584
1.5733403
1.481508
1.4314495
1.4125809
1.4150354
1.4393103
1.4824018
1.5424869
1.6189291
1.7123661
1.8242366
1.954007
2.0981781
2.2566047
2.4297398
2.6106153
2.7853573
2.9455049
3.0614644
3.1107711
3.0949768
3.0226265
3.1075417
3.204916
4528552.1
731684.59
224635
95293.34
48489.786
27618.879
16961.688
10986.077
7400.4436
5136.4033
3649.3413
2641.635
1941.3475
1444.5528
1086.0367
823.57151
629.07611
483.44678
373.42961
289.67138
225.47299
175.97356
137.60563
107.72469
84.353254
66.001522
51.540326
40.110224
31.056044
23.879397
18.203551
13.745766
10.292547
7.6747846
5.7445804
4.3612551
3.3920126
2.7216959
2.2603395
1.9434176
1.7271269
1.5825401
1.4913791
1.4426013
1.425192
1.43025
1.45812
1.5060601
1.5726946
1.6580787
1.7638478
1.8922455
2.0419444
2.2102642
2.4003071
2.6120637
2.8316258
3.0337346
3.1987869
3.2990334
3.3230652
3.2754937
3.237307
3.3900649
3.3709473
4528588.7
731690.44
224636.79
95294.106
48490.183
27619.112
16961.838
10986.183
7400.5239
5136.4691
3649.3991
2641.6891
1941.4006
1444.6068
1086.0932
823.63152
629.14054
483.51628
373.50469
289.7524
225.56014
176.06685
137.70491
107.82961
84.463213
66.115684
51.657561
40.229059
31.174593
23.995282
18.31385
13.847128
10.381628
7.7490763
5.8033088
4.405681
3.4248204
2.7459753
2.278847
1.9583192
1.7400493
1.594726
1.5041133
1.4568343
1.4411975
1.4496315
1.4822302
1.5366716
1.6122429
1.7100156
1.8329779
1.9837474
2.1598045
2.3624579
2.5998334
2.870685
3.1501435
3.3936341
3.5595268
3.6388869
3.6237781
3.5617134
3.5553138
3.6495747
3.5063895
4528626.6
731696.51
224638.64
95294.901
48490.597
27619.356
16961.998
10986.297
7400.612
5136.543
3649.4658
2641.7527
1941.4642
1444.6725
1086.1626
823.70591
629.22086
483.6033
373.599
289.85443
225.67013
176.18488
137.83082
107.963
84.603427
66.261738
51.808102
40.382288
31.328157
24.146153
18.458254
13.980663
10.499796
7.8483462
5.8823296
4.4657799
3.4693079
2.7788328
2.3037107
1.9780874
1.7569173
1.6103852
1.520302
1.4746525
1.4613068
1.4741092
1.5129072
1.5760125
1.6636982
1.7785353
1.9250388
2.1048545
2.3162438
2.5696696
2.8797953
3.243533
3.6188081
3.9260961
4.0909962
4.1285539
4.0533625
3.9458946
3.9254418
3.9158779
3.6039302
4528664.7
731702.75
224640.57
95295.726
48491.025
27619.609
16962.165
10986.418
7400.7075
5136.6246
3649.5405
2641.8252
1941.5376
1444.7492
1086.2442
823.79376
629.31607
483.70676
373.71139
289.97626
225.80174
176.32637
137.98208
108.12364
84.772733
66.438634
51.991063
40.569239
31.516334
24.331944
18.637088
14.147114
10.648192
7.9740321
5.9831964
4.5430298
3.5267533
2.821315
2.3357787
2.0034307
1.7783607
1.6301144
1.5405132
1.4969103
1.4864758
1.5049313
1.5518621
1.6265127
1.7306398
1.8690081
2.0468146
2.2635484
2.5253025
2.8567924
3.2813578
3.7936534
4.3225635
4.7301838
4.8996201
4.8537269
4.6602016
4.4616321
4.3800217
4.1739498
3.4523846
4528704.9
731709.26
224642.57
95296.584
48491.469
27619.875
16962.341
10986.547
7400.81
5136.7132
3649.6226
2641.9058
1941.6199
1444.8356
1086.3365
823.89359
629.42456
483.82489
373.83997
290.1159
225.95284
176.48914
138.15646
108.30928
84.968932
66.644272
52.204508
40.788216
31.737756
24.551708
18.849917
14.346638
10.827579
8.1274075
6.1074865
4.6390577
3.5986395
2.8746809
2.3760985
2.035244
1.8051952
1.6547264
1.5656339
1.5245981
1.517991
1.5438086
1.6014638
1.6915822
1.818183
1.9889519
2.2065358
2.4723956
2.8109884
3.2652761
3.8708899
4.6148167
5.3682062
5.9069479
6.0788444
5.8854956
5.4737343
5.1187257
4.830067
4.2876239
2.6039057
4528746.8
731716
224644.65
95297.475
48491.933
27620.151
16962.526
10986.682
7400.9186
5136.8079
3649.7111
2641.993
1941.7094
1444.93
1086.4379
824.00335
629.54407
483.95525
373.98208
290.27048
226.12043
176.67003
138.35069
108.51658
85.188678
66.875368
52.445298
41.036327
31.989892
24.803407
19.095338
14.578588
11.038129
8.3094069
6.2566794
4.7555772
3.6866399
2.9404173
2.425949
2.0746504
1.8384733
1.6853149
1.5968497
1.5590233
1.557651
1.5931545
1.6650979
1.7761643
1.9338218
2.1481458
2.4155304
2.7538767
3.2141201
3.8624456
4.746375
5.8113107
6.804102
7.1620917
6.9074387
6.4382781
5.8714345
5.4009742
4.7837443
3.2739569
1.3216977
4528789.6
731722.95
224646.8
95298.396
48492.415
27620.439
16962.717
10986.823
7401.0323
5136.9074
3649.8044
2642.0853
1941.8044
1445.0304
1086.5457
824.12036
629.67165
484.09461
374.13422
290.43626
226.30048
176.86479
138.56034
108.74099
85.42734
67.1273
52.708921
41.309289
32.268835
25.083674
19.37071
14.841232
11.279152
8.5203751
6.4319626
4.8942683
3.7925672
3.0202383
2.4868699
2.1230461
1.8795354
1.7233911
1.6359256
1.6017668
1.608105
1.6564945
1.747795
1.8877326
2.0887939
2.3587161
2.694271
3.1481971
3.8031324
4.7531327
6.0267599
7.4010827
7.8173652
7.6121497
6.9793575
5.9245244
4.9907879
4.1790527
2.7490008
1.3468894
0.59955482
4528834.7
731730.22
224649.04
95299.354
48492.914
27620.737
16962.916
10986.969
7401.1501
5137.0103
3649.9008
2642.1807
1941.9026
1445.1341
1086.6572
824.2414
629.80374
484.23905
374.29214
290.60861
226.48804
177.06816
138.77986
108.97672
85.678963
67.394037
52.989381
41.601282
32.569104
25.387574
19.671874
15.131436
11.548744
8.7597317
6.6339463
5.0565775
3.918268
3.1160569
2.5606879
2.1821619
1.9300658
1.7709084
1.6850055
1.6557469
1.6730953
1.7391616
1.8573769
2.0381794
2.3001642
2.6401018
3.0825226
3.7261148
4.6923021
6.0868685
7.7733177
8.3460022
8.1046764
7.2417697
5.3668585
3.4776305
2.244916
1.561462
1.0164037
0.57826726
0.32870998
4528880.1
731737.64
224651.33
95300.339
48493.428
27621.044
16963.121
10987.119
7401.2701
5137.1147
3649.9982
2642.2767
1942.0011
1445.2381
1086.7689
824.36261
629.93608
484.3839
374.45071
290.78197
226.67714
177.27374
139.00247
109.21665
85.936167
67.66802
53.27906
41.904773
32.883443
25.708352
19.992852
15.444301
11.843389
9.0255452
6.8622681
5.2434094
4.0654337
3.229914
2.6495487
2.2542067
1.9924638
1.8303828
1.7471908
1.7252903
1.7583987
1.8496099
2.006621
2.2474185
2.5934085
3.0319636
3.6552113
4.6140443
6.0694088
8.0056306
8.8569793
8.6047809
7.6261613
5.1957529
2.7468923
1.6068552
1.0236897
0.70450245
0.47995104
0.33318954
0.23559254
4528926.9
731745.29
224653.7
95301.36
48493.96
27621.36
16963.33
10987.271
7401.3909
5137.2188
3650.0944
2642.3708
1942.0972
1445.339
1086.877
824.47983
630.06403
484.524
374.60428
290.95018
226.86105
177.47428
139.22042
109.45257
86.190317
67.940288
53.568783
42.210529
33.202752
26.03729
20.325609
15.772841
12.157539
9.3140493
7.115095
5.4546921
4.2352943
3.3638235
2.755898
2.341948
2.0699124
1.9055221
1.8271077
1.8169851
1.8733664
2.001905
2.2175102
2.5502547
3.0099166
3.6152699
4.5542568
6.0416321
8.1775102
9.3718407
9.1647078
8.2135899
5.555462
2.7378294
1.486986
0.89868839
0.59419803
0.42532495
0.31053358
0.24773118
0.19744429
4528977.9
731753.49
224656.19
95302.423
48494.51
27621.685
16963.544
10987.425
7401.5111
5137.3206
3650.187
2642.4602
1942.1875
1445.4332
1086.9774
824.58836
630.18235
484.65358
374.74647
291.10625
227.03218
177.66158
139.42489
109.67505
86.431464
68.200418
53.847757
42.507526
33.515967
26.363533
20.659822
16.107663
12.483198
9.6191264
7.3885487
5.6888209
4.4281803
3.5195198
2.8824362
2.4488829
2.1668528
2.0019747
1.9318015
1.941531
2.0337664
2.220598
2.5297154
3.0043485
3.6323613
4.5512047
6.0520702
8.3551074
9.8999196
9.7813977
8.9050281
6.2207398
2.9955136
1.5627353
0.91053375
0.59273024
0.41893022
0.31708482
0.24463144
0.20947121
0.17094343
4529031.7
731762
224658.79
95303.53
48495.081
27622.02
16963.761
10987.578
7401.6287
5137.418
3650.2736
2642.5421
1942.2687
1445.517
1087.0659
824.68354
630.28581
484.76681
374.87083
291.24305
227.18271
177.82709
139.6066
109.87411
86.648899
68.437049
54.104047
42.783377
33.810421
26.674363
20.983027
16.436954
12.809744
9.9319955
7.6762002
5.9420435
4.6429686
3.6981093
3.0320522
2.5794843
2.2895826
2.1282032
2.0736081
2.1170355
2.2674114
2.5506121
3.0165719
3.6955121
4.6351707
6.1554548
8.5774387
10.462527
10.435061
9.6266899
7.0571479
3.4050534
1.745938
0.99317281
0.63404113
0.44705203
0.33513433
0.26353445
0.21028054
0.17857575
0.14934659
4529085.9
731770.69
224661.46
95304.671
48495.667
27622.362
16963.979
10987.73
7401.7418
5137.5088
3650.3517
2642.6136
1942.3378
1445.5866
1087.1384
824.76069
630.3692
484.85784
374.97085
291.35339
227.30469
177.96208
139.756
110.03936
86.831407
68.638146
54.324849
43.024593
34.072068
26.955369
21.280732
16.746556
13.123872
10.24068
7.9683642
6.2077889
4.8765151
3.899736
3.2078828
2.7398036
2.4473323
2.2980362
2.2749707
2.3750912
2.6265382
3.0777008
3.7999875
4.8015656
6.3741199
8.9073048
11.060101
11.133809
10.388713
7.9661382
3.9190895
2.0042445
1.1200326
0.70243988
0.48840779
0.36352376
0.27868007
0.219897
0.17618681
0.15543644
0.13569986
4529139.6
731779.57
224664.2
95305.835
48496.265
27622.709
16964.198
10987.877
7401.8486
5137.5908
3650.4186
2642.6717
1942.3913
1445.6383
1087.1905
824.81495
630.42706
484.92063
375.03982
291.42983
227.38993
178.05756
139.86326
110.16009
86.96738
68.791197
54.496761
43.21693
34.285911
27.190946
21.536919
17.020302
13.409684
10.530639
8.2527434
6.4768931
5.1235985
4.1236247
3.4138467
2.9388752
2.6555321
2.5370316
2.5732944
2.7768708
3.2129676
3.9633542
5.059768
6.7048148
9.3668614
11.713408
11.86885
11.17084
8.8763882
4.4936158
2.3090067
1.2656351
0.77284274
0.52736764
0.38690025
0.29437173
0.22856059
0.18596165
0.15705813
0.14205894
0.12364507
4529196.7
731788.83
224667.05
95307.045
48496.884
27623.062
16964.417
10988.022
7401.9481
5137.6626
3650.4727
2642.7144
1942.4266
1445.6691
1087.2189
824.84246
630.45501
484.95018
375.07212
291.46605
227.43137
178.10567
139.91971
110.22674
87.046344
68.884778
54.607413
43.347106
34.437829
27.366238
21.736178
17.242544
13.651824
10.787165
8.5160075
6.7387435
5.3779789
4.3693866
3.6567854
3.1926348
2.9426113
2.8917696
3.0380298
3.4457526
4.2201518
5.4295265
7.177796
9.9416783
12.436861
12.642118
11.972396
9.7761674
5.1358326
2.6695654
1.4426094
0.86076341
0.57891004
0.42129897
0.31953015
0.24958834
0.20140339
0.16963585
0.14359031
0.13010776
0.11521267
4529258.1
731798.61
224670.03
95308.302
48497.521
27623.422
16964.636
10988.16
7402.0387
5137.7222
3650.5118
2642.7391
1942.441
1445.6758
1087.2198
824.83909
630.44841
484.94134
375.06199
291.45562
227.42178
178.09826
139.91612
110.22898
87.056876
68.90649
54.643596
43.401338
34.513708
27.466829
21.863741
17.398254
13.83519
10.995691
8.7453652
6.9839398
5.6356557
4.6410071
3.9519281
3.5322615
3.363822
3.4443787
3.812186
4.6116984
5.9391814
7.8137725
10.654823
13.234849
13.474894
12.813521
10.651337
5.855464
3.0791861
1.6384293
0.95963358
0.64134968
0.46777425
0.35573416
0.27779771
0.2224459
0.18096079
0.15108841
0.13073102
0.1203371
0.10867547
4529319.5
731808.54
224673.08
95309.592
48498.172
27623.786
16964.852
10988.293
7402.1191
5137.7686
3650.5344
2642.7443
1942.4327
1445.6567
1087.1915
824.80278
630.4051
484.89184
375.00709
291.39621
227.35891
178.03326
139.85061
110.165
86.996848
68.853358
54.60081
43.372891
34.504207
27.48177
21.908678
17.477444
13.950604
11.148273
8.9351516
7.2110386
5.9025334
4.95625
4.3353804
4.021974
4.0258373
4.3531676
5.1708242
6.611744
8.6285594
11.515189
14.119109
14.394408
13.722923
11.539671
6.640497
3.5200624
1.8532267
1.0792098
0.7210808
0.52014386
0.38960396
0.3006735
0.23823253
0.19161202
0.15866442
0.1377807
0.12263347
0.11391233
0.10317918
4529381.2
731818.67
224676.2
95310.914
48498.836
27624.154
16965.067
10988.419
7402.1894
5137.8016
3650.5404
2642.7297
1942.4014
1445.6112
1087.1334
824.73307
630.32458
484.80114
374.90687
291.28725
227.24222
177.91017
139.72287
110.03487
86.86721
68.727717
54.483365
43.268502
34.418298
27.420059
21.877383
17.48375
14.002625
11.251675
9.0962283
7.4380735
6.2087404
5.3650318
4.8887746
4.7936342
5.0933642
5.9302647
7.4777179
9.6408954
12.529723
15.100482
15.394214
14.701379
12.47108
7.4630311
3.9851825
2.097621
1.2188719
0.80878283
0.57363754
0.42521107
0.329022
0.26077642
0.2094897
0.17327442
0.14834942
0.13020543
0.11548644
0.10807901
0.098908216
4529447.3
731829.36
224679.48
95312.287
48499.523
27624.531
16965.282
10988.54
7402.2511
5137.8225
3650.5315
2642.6972
1942.3493
1445.5418
1087.0482
824.63307
630.21041
484.67335
374.76603
291.13409
227.07775
177.73577
139.54047
109.84701
86.677161
68.539608
54.302226
43.100314
34.269984
27.299431
21.793081
17.445117
14.019871
11.338834
9.2698588
7.7200355
6.6310768
5.9782897
5.7752793
6.045619
6.9046805
8.5464506
10.857532
13.717417
16.18864
16.47191
15.748851
13.449399
8.3165472
4.4967939
2.3877845
1.3871737
0.90779962
0.63430675
0.46867497
0.36390976
0.28910415
0.23242868
0.19188466
0.16060254
0.13726198
0.12063012
0.10994321
0.10279195
0.095565151
4529517.1
731840.53
224682.89
95313.721
48500.237
27624.92
16965.5
10988.659
7402.3079
5137.8357
3650.5123
2642.6523
1942.2825
1445.4556
1086.9442
824.51206
630.07306
484.5202
374.59766
290.95129
226.88163
177.52792
139.32306
109.62296
86.450296
68.314766
54.085411
42.898811
34.092457
27.156028
21.695588
17.407061
14.05911
11.479821
9.5440138
8.1703799
7.3197621
6.9981436
7.2330863
8.1081541
9.8248856
12.269927
15.1054
17.411324
17.632647
16.868466
14.478808
9.2043061
5.0713316
2.7225308
1.5707045
1.0091275
0.69919972
0.51805745
0.40283089
0.31811771
0.25341266
0.20566527
0.17031128
0.14473886
0.12684136
0.11493693
0.10517523
0.099845937
0.092380161
4529588.1
731851.96
224686.4
95315.201
48500.973
27625.321
16965.725
10988.782
7402.3647
5137.8473
3650.4902
2642.6033
1942.2109
1445.3639
1086.8339
824.3843
629.92863
484.3598
374.42209
290.76159
226.67923
177.31478
139.10186
109.39724
86.224646
68.095038
53.87891
42.714526
33.941314
27.05108
21.653001
17.450379
14.219697
11.796487
10.069651
8.9784367
8.5132404
8.6947659
9.5592823
11.331993
13.849158
16.683762
18.81674
18.899433
18.062801
15.540002
10.137616
5.7163331
3.0972673
1.7684293
1.1223557
0.78103287
0.58041098
0.44773175
0.34923462
0.27720093
0.22588278
0.18727722
0.15839005
0.13767789
0.12191366
0.10999634
0.10139152
0.095833898
0.090231372
4529661.3
731863.83
224690.03
95316.734
48501.737
27625.738
16965.961
10988.913
7402.4291
5137.866
3650.4753
2642.5621
1942.1479
1445.2819
1086.7349
824.2698
629.79969
484.21754
374.26777
290.59678
226.50594
177.13568
138.92041
109.21793
86.05322
67.938707
53.746586
42.61741
33.894253
27.07463
21.775503
17.707009
14.654963
12.470776
11.064805
10.404219
10.498219
11.311805
13.088081
15.637492
18.411056
20.419404
20.30841
19.35264
16.63159
11.116292
6.4297931
3.5067092
1.9837091
1.2532187
0.87722731
0.6482051
0.49193114
0.38184186
0.30533819
0.24950042
0.20521239
0.17194146
0.14764708
0.12823673
0.11475472
0.10497552
0.098272517
0.093476785
0.088185713
4529737.4
731876.14
224693.82
95318.326
48502.535
27626.18
16966.217
10989.063
7402.5125
5137.9052
3650.4831
2642.5463
1942.1135
1445.2324
1086.6728
824.19702
629.71799
484.12866
374.17362
290.49962
226.40856
177.04157
138.83402
109.145
86.001181
67.917419
53.769407
42.702157
34.063803
27.358396
22.211532
18.344627
15.559984
13.729739
12.788853
12.726281
13.445818
15.13874
17.6426
20.401398
22.205567
21.902317
20.758856
17.753093
12.143808
7.1955662
3.9482972
2.2228455
1.4061844
0.98648605
0.72259916
0.54377603
0.42329647
0.33986813
0.27522281
0.22435712
0.18705516
0.15816056
0.1363538
0.12098271
0.10997553
0.10202266
0.095333133
0.091233053
0.086607986
4529816
731888.84
224697.73
95319.983
48503.374
27626.653
16966.502
10989.242
7402.6275
5137.9791
3650.5298
2642.5745
1942.1291
1445.2395
1086.6746
824.19634
629.7174
484.13084
374.18154
290.51675
226.43912
177.09079
138.90852
109.25322
86.153945
68.12866
54.057086
43.089884
34.583025
28.050017
23.128461
19.555852
17.153274
15.81259
15.49021
16.053435
17.567012
19.933709
22.606064
24.200427
23.756228
22.323243
18.915359
13.229325
8.0194071
4.4355038
2.4992296
1.5839256
1.1074885
0.80442426
0.60461398
0.47072617
0.37487378
0.30184443
0.24607094
0.20483643
0.17222992
0.14804691
0.13089427
0.11699959
0.10664717
0.098516257
0.093266808
0.089150135
0.085297996
4529897.8
731902.1
224701.79
95321.712
48504.257
27627.16
16966.819
10989.453
7402.777
5138.0915
3650.6201
2642.6525
1942.2015
1445.3116
1086.7508
824.28047
629.81346
484.243
374.31448
290.67588
226.63089
177.32304
139.19092
109.59787
86.576209
68.648255
54.69961
43.888221
35.579475
29.299015
24.699147
21.534222
19.641617
18.923506
19.241079
20.46304
22.586377
25.052255
26.358629
25.723346
24.009599
20.157004
14.379023
8.8976063
4.9656349
2.8070023
1.7777575
1.2359366
0.89550801
0.67553368
0.52514158
0.41452081
0.33348231
0.2730052
0.22559301
0.18872164
0.16072725
0.13975287
0.12306309
0.11075904
0.10222003
0.095980841
0.091030876
0.087661635
0.084245089
4529983.7
731915.9
224706.02
95323.517
48505.186
27627.701
16967.167
10989.696
7402.9608
5138.2426
3650.7545
2642.781
1942.3321
1445.4508
1086.9041
824.4535
630.01183
484.47288
374.58284
290.99084
227.00211
177.76218
139.71229
110.21921
87.319772
69.541968
55.778561
45.196557
37.172254
31.244078
27.07744
24.436672
23.158669
23.122075
23.917524
25.697456
27.77824
28.690213
27.856508
25.818055
21.511891
15.580915
9.8134152
5.5350727
3.15057
1.9951086
1.3826301
1.0043498
0.76011295
0.58754179
0.46050116
0.36928274
0.30177764
0.24868885
0.20670881
0.17513477
0.15028907
0.13143788
0.11767732
0.10765477
0.10000237
0.093968889
0.089549542
0.08630784
0.083357398
4530071.7
731930.11
224710.41
95325.392
48506.159
27628.279
16967.549
10989.975
7403.1843
5138.4384
3650.9402
2642.9686
1942.531
1445.6688
1087.1486
824.73181
630.33176
484.8431
375.01327
291.4931
227.59002
178.4525
140.52533
111.17989
88.458706
70.896829
57.39543
47.131281
39.490939
34.021426
30.390703
28.35201
27.708416
28.103235
29.275998
30.934221
31.152011
30.112408
27.648471
22.92383
16.785274
10.735671
6.1431787
3.5369323
2.2412148
1.5473322
1.1261809
0.85147054
0.65462741
0.51164643
0.40993015
0.33380624
0.27525744
0.22861019
0.19184337
0.16357026
0.14204423
0.1264162
0.11396525
0.10424403
0.097154209
0.091697674
0.088014898
0.085071269
0.08254478
4530163.2
731944.94
224714.97
95327.347
48507.185
27628.901
16967.974
10990.299
7403.4583
5138.6917
3651.1918
2643.2324
1942.8179
1445.9885
1087.5106
825.1456
630.80792
485.39347
375.65151
292.23526
228.45519
179.46351
141.70978
112.57103
90.09652
72.828817
59.67694
49.824429
42.661506
37.729136
34.671251
33.187307
32.99661
33.49667
34.304525
33.806404
32.386051
29.411337
24.341849
17.980986
11.678492
6.818911
3.9870521
2.5243641
1.732894
1.2618254
0.95458935
0.73369905
0.57484464
0.45952318
0.37205766
0.3053336
0.25332176
0.2115846
0.17878264
0.15467874
0.13515604
0.1200009
0.10894596
0.10083871
0.094848253
0.090317749
0.086696213
0.084206462
0.081955566
4530257.7
731960.24
224719.69
95329.395
48508.277
27629.58
16968.457
10990.685
7403.8017
5139.024
3651.5343
2643.6008
1943.2252
1446.4467
1088.0314
825.74175
631.49318
486.18354
376.56465
293.29293
229.68289
180.89168
143.37477
114.51606
92.372403
75.485511
62.757544
53.386332
46.746397
42.344095
39.757048
38.560004
38.329746
37.994013
36.807379
34.683679
31.230538
25.820594
19.203536
12.667187
7.5765899
4.4960033
2.8344039
1.932091
1.4096769
1.0699456
0.82509459
0.64646852
0.51407386
0.4132545
0.33797806
0.28016199
0.23453605
0.19737772
0.16851466
0.14592866
0.12837916
0.11654718
0.10664963
0.099034512
0.093335178
0.08878411
0.085766166
0.083377708
0.081299728
4530355.2
731976.04
224724.59
95331.54
48509.446
27630.33
16969.012
10991.152
7404.2371
5139.4619
3651.9982
2644.1087
1943.7926
1447.0881
1088.7617
826.57681
632.45078
487.28402
377.83171
294.75453
231.37232
182.84864
145.64427
117.14568
95.404237
78.953874
66.69449
57.809847
51.634928
47.605185
45.224367
43.767855
42.191033
39.951051
37.244894
33.171371
27.333554
20.435092
13.701935
8.4035632
5.0567668
3.1795759
2.1607354
1.5830291
1.2064867
0.93177892
0.72922717
0.57716939
0.46339935
0.37832981
0.31295108
0.26123686
0.21932764
0.18521352
0.158771
0.13959762
0.12424899
0.11215603
0.10265821
0.096234427
0.091207289
0.087550382
0.084662023
0.082563776
0.080827889
4530457.6
731992.59
224729.73
95333.808
48510.703
27631.162
16969.654
10991.715
7404.7814
5140.025
3652.6059
2644.7816
1944.5488
1447.9451
1089.7377
827.69146
633.72611
488.74523
379.50771
296.67833
233.58068
185.38056
148.54124
120.44973
99.156038
83.18532
71.397763
62.898036
56.959427
52.852146
49.738714
46.776133
43.632536
40.12888
35.283627
28.943194
21.76356
14.856192
9.3435036
5.7059798
3.5893148
2.4327087
1.7810233
1.3558849
1.047541
0.82014693
0.64989927
0.52150507
0.42441628
0.34843129
0.28957849
0.24280439
0.20516425
0.17470813
0.15164231
0.13342626
0.11873229
0.10876615
0.10089728
0.095032185
0.09025868
0.086613791
0.084026703
0.082124251
0.08037576
4530563.2
732009.74
224735.09
95336.197
48512.051
27632.083
16970.392
10992.386
7405.4487
5140.7289
3653.3748
2645.6386
1945.5147
1449.0401
1090.9826
829.10864
635.33989
490.58216
381.59671
299.05026
236.26731
188.41266
151.94368
124.23523
103.31714
87.687984
76.14564
67.680489
61.392533
56.375459
51.957872
47.788378
43.285636
37.593063
30.719788
23.249236
16.149255
10.391071
6.4362638
4.0554457
2.7363813
1.9948028
1.5185919
1.1799689
0.92985688
0.73853257
0.59173805
0.4782635
0.39110127
0.32397006
0.2716654
0.22935233
0.19451391
0.16615327
0.14439623
0.12839925
0.11575339
0.10645371
0.098414983
0.092862459
0.088498184
0.085528741
0.083162539
0.081417472
0.079899972
4530672.5
732027.48
224740.65
95338.7
48513.491
27633.093
16971.225
10993.163
7406.2369
5141.5706
3654.3008
2646.6738
1946.6815
1450.3603
1092.4782
830.80255
637.25644
492.74672
384.03481
301.78569
239.31881
191.78847
155.63341
128.19809
107.46621
91.869852
80.155488
71.215837
64.095585
58.089696
52.60461
46.873974
40.256461
32.793178
24.977897
17.630507
11.586292
7.291252
4.6185979
3.1040782
2.2499828
1.7136107
1.338662
1.057916
0.83887498
0.66914024
0.53941511
0.43994651
0.36383609
0.3031468
0.2550834
0.21574671
0.18368603
0.15806214
0.13909774
0.12416811
0.11176204
0.10317784
0.09628776
0.091680633
0.087769472
0.084802929
0.082710395
0.081118427
0.079673461
4530784.7
732045.81
224746.41
95341.313
48515.013
27634.175
16972.131
10994.018
7407.1112
5142.5087
3655.3351
2647.8306
1947.9844
1451.8319
1094.1409
832.67906
639.36897
495.11596
386.67786
304.71276
242.52807
195.25874
159.31442
131.99914
111.24437
95.420637
83.207862
73.517776
65.456108
58.277755
51.081642
43.405618
35.251574
27.007851
19.344939
12.97034
8.3045048
5.2964107
3.5380441
2.5391519
1.9281105
1.510221
1.1962565
0.9508546
0.76108582
0.6146961
0.50116866
0.41154336
0.34127262
0.28567163
0.24178986
0.20569539
0.17595884
0.15204791
0.13381658
0.12003935
0.10933334
0.10174285
0.095072635
0.090519495
0.086608378
0.084204189
0.082030935
0.080577866
0.079289965
4530901
732061.38
224749.51
95341.813
48514.972
27634.083
16972.136
10994.171
7407.4343
5143.0134
3656.0306
2648.7262
1949.0907
1453.1606
1095.7045
834.48985
641.43737
497.44821
389.27228
307.55465
245.58311
198.46506
162.5742
135.17152
114.14319
97.821678
84.866703
74.238037
64.91802
56.036942
47.163253
38.213807
29.449684
21.394236
14.627795
9.5375943
6.1312036
4.0691042
2.8867637
2.1821077
1.7130801
1.363144
1.089169
0.87444735
0.70467412
0.57045107
0.46575523
0.38413647
0.32122907
0.27038984
0.22967821
0.19568381
0.16785297
0.14577532
0.12967895
0.11713801
0.10642098
0.099155559
0.093097539
0.089163341
0.085813043
0.083419864
0.08162208
0.080340743
0.07913056
4531685.4
732195.47
224794.65
95363.207
48527.12
27641.873
16977.604
10998.302
7410.7581
5145.8411
3658.5581
2651.0844
1951.3712
1455.4303
1098.0129
836.87284
643.91825
500.03667
391.96154
310.31698
248.36427
201.17858
165.09737
137.34569
115.7826
98.74678
84.841237
72.854629
61.956474
51.628995
41.677795
32.229427
23.66143
16.436068
10.887159
7.0568001
4.6628381
3.2741788
2.4598041
1.9308972
1.5418021
1.2371145
0.99483859
0.80116832
0.64842869
0.52972037
0.43725897
0.36326172
0.30448492
0.25695054
0.21911764
0.1875457
0.16164404
0.14119998
0.1256173
0.11356072
0.10437897
0.098045506
0.092244643
0.088521655
0.085084146
0.083059427
0.081200075
0.07985002
0.07887893
4531684.6
732191.78
224791.68
95361.03
48525.64
27640.896
16977.002
10997.999
7410.7063
5146.0136
3658.9389
2651.6647
1952.1464
1456.3974
1099.168
838.20819
645.41894
501.6763
393.69725
312.08409
250.07129
202.70422
166.29312
138.0417
115.75931
97.683975
82.481604
69.16238
57.065321
45.860065
35.530532
26.307677
18.53391
12.477208
8.1816425
5.4070373
3.7610269
2.7960792
2.185114
1.7488319
1.4106546
1.1394744
0.92090846
0.74707676
0.60897707
0.49872074
0.41130186
0.34204921
0.2884791
0.24468041
0.20950195
0.17975137
0.15537333
0.13604472
0.12216677
0.11146743
0.1021004
0.095893885
0.090576455
0.087280303
0.084289485
0.082375237
0.08070369
0.079660499
0.078739951
4531684.8
732191.89
224791.79
95361.187
48525.845
27641.152
16977.316
10998.376
7411.1537
5146.5374
3659.5451
2652.3584
1952.9311
1457.273
1100.1296
839.24336
646.50449
502.77476
394.75312
313.02096
250.79056
203.07608
166.14599
137.15377
113.9272
94.803371
78.540694
64.275575
51.498756
40.023296
29.917823
21.391941
14.644785
9.7172251
6.4162352
4.3933057
3.2036831
2.4780685
1.9842822
1.6086103
1.3053687
1.0579989
0.85813579
0.69735015
0.56907882
0.46843627
0.38977225
0.32641155
0.2760139
0.23453147
0.20140293
0.17335698
0.15043835
0.13262127
0.11904998
0.10848584
0.10040512
0.095087184
0.089948229
0.086805011
0.083838176
0.082112083
0.080475852
0.079409344
0.078548749
4531684.9
732191.98
224791.85
95361.26
48525.94
27641.273
16977.466
10998.56
7411.3743
5146.7983
3659.8488
2652.7057
1953.32
1457.6974
1100.5773
839.69324
646.92405
503.11619
394.94901
312.97854
250.38481
202.16278
164.5794
134.81779
110.74519
90.768179
73.745704
58.934105
45.937654
34.640594
25.106626
17.451582
11.713711
7.7370633
5.2219989
3.7309117
2.8469257
2.2725623
1.8470139
1.5049744
1.2245662
0.99561608
0.81002285
0.6614036
0.54285233
0.44795548
0.37222627
0.31146128
0.26443783
0.22557545
0.19445653
0.16794644
0.14615925
0.12888703
0.1165811
0.10720687
0.098846827
0.093459821
0.088690183
0.085858339
0.083191538
0.08157289
0.080078662
0.079179329
0.078436547
4531686.1
732192.08
224791.86
95361.248
48525.924
27641.258
16977.452
10998.548
7411.367
5146.7953
3659.849
2652.7058
1953.3128
1457.6706
1100.5108
839.55685
646.67447
502.69451
394.27944
311.97033
248.9395
200.17898
161.967
131.51752
106.75266
86.157263
68.68368
53.678918
40.810188
29.972384
21.173573
14.414594
9.579864
6.4029214
4.4665701
3.3234187
2.6140343
2.117673
1.7314147
1.4160009
1.1555096
0.94135902
0.76735256
0.6269249
0.51429096