/*--------------------------------*- C++ -*----------------------------------*\
  =========                 |
  \\      /  F ield         | OpenFOAM: The Open Source CFD Toolbox
   \\    /   O peration     | Website:  https://openfoam.org
    \\  /    A nd           | Version:  13
     \\/     M anipulation  |
\*---------------------------------------------------------------------------*/
FoamFile
{
    format      ascii;
    class       volScalarField;
    location    "12.596801";
    object      k;
}
// * * * * * * * * * * * * * * * * * * * * * * * * * * * * * * * * * * * * * //

dimensions      [0 2 -2 0 0 0 0];

internalField   nonuniform List<scalar> 
17140
(
8.0254339e-11
2.521867e-09
2.0622025e-08
8.8687254e-08
2.7291649e-07
6.8868386e-07
1.527074e-06
3.0943995e-06
5.870177e-06
1.0591166e-05
1.8371679e-05
3.0873289e-05
5.0539717e-05
8.0913655e-05
0.00012704848
0.00019601338
0.00029745501
0.00044410624
0.00065200178
0.00093995527
0.0013275896
0.0018310064
0.0024553424
0.0031845647
0.0039714849
0.0047346535
0.0053711942
0.0057707225
0.0059403794
0.0059812828
0.0059063587
0.0057634074
0.0056059904
0.0054555011
0.0053153227
0.0051841773
0.005060803
0.0049445233
0.0048351768
0.0047328387
0.0046375438
0.0045491072
0.0044666713
0.00438467
0.004289125
0.0041630032
0.003990125
0.0039128681
0.003846621
0.0038212081
0.0038120693
0.0038216139
0.0038507454
0.00389758
0.0039598234
0.0040265151
0.0040955975
0.0041460349
0.0041086355
0.0037991296
0.0036192775
0.0029998034
0.002407778
0.0019025174
0.0014867448
7.9455399e-11
2.4967617e-09
2.0416787e-08
8.7805055e-08
2.7020361e-07
6.8184392e-07
1.5119229e-06
3.0637368e-06
5.8121001e-06
1.0486589e-05
1.8190736e-05
3.0570209e-05
5.0045684e-05
8.012713e-05
0.0001258226
0.00019414049
0.00029464956
0.00043998937
0.00064609489
0.00093169566
0.0013163878
0.001816369
0.0024370756
0.0031630427
0.003947901
0.0047111056
0.0053501513
0.0057539022
0.0059268782
0.0059703655
0.0058981935
0.0057570151
0.0056011095
0.0054523725
0.0053144853
0.005186396
0.0050672853
0.0049569098
0.0048554707
0.0047641475
0.004684873
0.0046175489
0.004559156
0.0045109736
0.0044546918
0.0043700815
0.0042745854
0.0042553935
0.0042675239
0.0043330465
0.0044199798
0.0045436887
0.0046880302
0.0048613499
0.005017883
0.0051536927
0.0052493278
0.0052990384
0.0050690883
0.0045065198
0.0041163114
0.0033099157
0.0026287807
0.0020695836
0.0015911322
7.7541655e-11
2.4366253e-09
1.9925037e-08
8.5690292e-08
2.6369629e-07
6.6542526e-07
1.4755247e-06
2.9900092e-06
5.6723217e-06
1.0234633e-05
1.7754305e-05
2.9838319e-05
4.8851177e-05
7.8222924e-05
0.00012285068
0.0001895938
0.00028782972
0.00042996857
0.00063170023
0.00091154845
0.0012890479
0.0017806434
0.0023925319
0.0031106814
0.0038907797
0.0046545244
0.0053006887
0.0057189204
0.0059044744
0.005955367
0.0058920931
0.0057571941
0.0056063481
0.0054633995
0.0053334266
0.005216017
0.0051113373
0.0050206105
0.0049439044
0.0048836675
0.0048526551
0.0048429987
0.0048598649
0.0049173557
0.0049883514
0.0050432941
0.0051228434
0.0053114898
0.0055656171
0.0059047086
0.0062814369
0.0066979936
0.0070732314
0.0073659448
0.0075703299
0.0076903445
0.0075536802
0.0072437639
0.0064874192
0.0051385874
0.0041589712
0.0029617306
0.0021117622
0.0014960594
0.001034017
7.4487128e-11
2.3406417e-09
1.9140156e-08
8.2314892e-08
2.5330974e-07
6.3921834e-07
1.4174252e-06
2.8723176e-06
5.449177e-06
9.8323672e-06
1.7057418e-05
2.8669433e-05
4.6942989e-05
7.5180013e-05
0.00011809949
0.00018232083
0.00027691217
0.00041391045
0.00060860215
0.00087916266
0.0012449982
0.0017229079
0.0023202574
0.0030252708
0.0037969266
0.0045605823
0.0052177115
0.0056626813
0.0058735027
0.0059366047
0.0058889651
0.0057663211
0.0056267011
0.0054966863
0.0053831401
0.0052875493
0.0052115648
0.0051669552
0.0051496022
0.005152786
0.0052189851
0.0053338239
0.005525829
0.0058066236
0.0061447431
0.0064677101
0.0069353604
0.0075832663
0.0083649203
0.0092834489
0.010253786
0.011225293
0.011969423
0.0124471
0.012701976
0.012572179
0.011421761
0.010178317
0.008407135
0.0060219391
0.0041028514
0.0026606486
0.0016988079
0.0011028615
0.00072682533
7.0358775e-11
2.210915e-09
1.8079351e-08
7.7752873e-08
2.3927176e-07
6.03798e-07
1.3388988e-06
2.7132434e-06
5.147558e-06
9.2885993e-06
1.6115299e-05
2.7088997e-05
4.4362417e-05
7.1063679e-05
0.00011166965
0.00017247272
0.00026211778
0.00039212776
0.00057722698
0.00083509236
0.0011849158
0.0016439237
0.0022210163
0.0029074653
0.0036667976
0.0044295663
0.0051012823
0.0055831002
0.0058307464
0.005912178
0.0058876081
0.0057841653
0.0056622459
0.0055528087
0.005466486
0.0054175372
0.0053986584
0.0054047679
0.0054720436
0.0055980047
0.0058164721
0.0061391184
0.0066047108
0.0072249878
0.0079576317
0.008735711
0.0098659116
0.011223887
0.012838789
0.014631474
0.016500731
0.018310416
0.019790698
0.020652998
0.021032145
0.020453481
0.017901733
0.014605098
0.010648342
0.0065928792
0.0038644985
0.0021611019
0.001236984
0.00075641396
0.00050724479
6.5291215e-11
2.0516752e-09
1.6777211e-08
7.2152974e-08
2.2203998e-07
5.6031878e-07
1.2425045e-06
2.5179683e-06
4.7772815e-06
8.6210044e-06
1.4958511e-05
2.5148114e-05
4.1192521e-05
6.6005524e-05
0.00010376476
0.00016035714
0.0002439001
0.00036527086
0.00053847765
0.00078054244
0.0011103294
0.0015455063
0.0020967778
0.0027591395
0.0035018366
0.004262157
0.0049511192
0.0054771518
0.0057693731
0.0058788756
0.0058841177
0.005808317
0.005710877
0.0056345561
0.005597759
0.0055901168
0.005627264
0.0057254569
0.0059071824
0.0061896071
0.0066096853
0.0072001967
0.0080074016
0.0090398294
0.010240258
0.01172309
0.013624522
0.015847029
0.018428946
0.021222022
0.024107974
0.026869786
0.02926376
0.030661597
0.031242594
0.030275437
0.026067402
0.020016643
0.012678495
0.0068142824
0.0034060586
0.0017021638
0.00092842432
0.00057726689
0.00040312694
5.9461643e-11
1.8684904e-09
1.5279267e-08
6.5710993e-08
2.0221685e-07
5.1030049e-07
1.1316106e-06
2.2933118e-06
4.3512667e-06
7.8528408e-06
1.3627263e-05
2.291403e-05
3.7542602e-05
6.0178763e-05
9.4652907e-05
0.00014637933
0.00022285679
0.0003341973
0.00049354519
0.00071710129
0.0010232477
0.0014300165
0.0019500304
0.002582469
0.0033032388
0.0040577357
0.0047639093
0.00533188
0.0056824387
0.0058351644
0.0058745224
0.0058356722
0.0057733897
0.0057421724
0.0057390716
0.0057873829
0.0059033414
0.0061072587
0.0064254639
0.0068895092
0.0075437991
0.0084367954
0.009617776
0.01108614
0.012835883
0.015050532
0.017730492
0.0208181
0.024307325
0.028013538
0.031786916
0.035378986
0.038528379
0.040464881
0.041266155
0.039957281
0.034035354
0.02442934
0.013590641
0.0064135911
0.0027341634
0.0012253829
0.00064225131
0.0004316659
0.00032968355
5.3067742e-11
1.6675724e-09
1.363631e-08
5.8645341e-08
1.8047432e-07
4.5543794e-07
1.0099722e-06
2.0468732e-06
3.8839022e-06
7.0099969e-06
1.2166281e-05
2.0461472e-05
3.3533983e-05
5.3775387e-05
8.4630649e-05
0.00013098653
0.00019964521
0.0002998455
0.00044372266
0.00064647097
0.0009257734
0.0012998129
0.0017830034
0.0023788156
0.0030703348
0.0038120516
0.004530003
0.0051374166
0.0055591693
0.0057769785
0.0058540426
0.0058607991
0.0058435913
0.0058427475
0.0058877723
0.0060007004
0.006202528
0.0065191702
0.0069836537
0.0076378781
0.0085339757
0.0097296613
0.011272391
0.013153891
0.015448786
0.018294611
0.021662528
0.025503081
0.029732128
0.034156457
0.038583402
0.042747209
0.046347603
0.048573084
0.049481467
0.047685625
0.039771772
0.02640543
0.013616671
0.0053484508
0.0019985093
0.00087292867
0.00049933627
0.0003648023
0.00029556133
4.6331348e-11
1.4558918e-09
1.1905336e-08
5.120112e-08
1.5756658e-07
3.9763377e-07
8.8180618e-07
1.7871913e-06
3.3913681e-06
6.1216138e-06
1.062598e-05
1.787483e-05
2.9304031e-05
4.7013543e-05
7.4036605e-05
0.00011469276
0.00017502799
0.0002633187
0.00039055994
0.00057075169
0.00082062304
0.0011581948
0.0015993595
0.0021517176
0.0028057939
0.0035261475
0.0042485806
0.0048913135
0.0053812429
0.005677262
0.0058163132
0.0058694103
0.0058953241
0.0059355311
0.0060304022
0.0062077907
0.0064941801
0.0069211866
0.0075283603
0.0083644029
0.0094873668
0.010958248
0.012819142
0.015068234
0.017824382
0.021163062
0.025045655
0.029424393
0.034198611
0.039131584
0.043969334
0.048408915
0.052086626
0.054161636
0.054830714
0.051872317
0.042102129
0.026516536
0.011234972
0.0038383749
0.0013302165
0.00061036152
0.0003860705
0.00031077579
0.000264551
3.94922e-11
1.2409823e-09
1.0147955e-08
4.3643289e-08
1.3430891e-07
3.3894511e-07
7.5167319e-07
1.5235046e-06
2.8911797e-06
5.2192634e-06
9.0610458e-06
1.5245795e-05
2.5002342e-05
4.0131555e-05
6.3242339e-05
9.8065521e-05
0.000149854
0.00022585895
0.00033582922
0.00049239714
0.00071106767
0.0010093103
0.0014040076
0.0019064272
0.0025143971
0.0032031907
0.0039200642
0.0045904041
0.0051398572
0.0055232552
0.0057423265
0.0058538904
0.00592222
0.0060069902
0.006148293
0.0063857385
0.0067505143
0.0072777091
0.0080111221
0.0090035155
0.010315674
0.012008712
0.014121195
0.016669743
0.019764149
0.023441316
0.027663977
0.032373389
0.037440047
0.042633326
0.047661707
0.052085587
0.055407732
0.05699515
0.056755135
0.052667922
0.041275219
0.0222868
0.0079961126
0.0024583614
0.00089467494
0.00046265761
0.00033266807
0.00028518777
0.00024728956
3.2793835e-11
1.0304962e-09
8.4267343e-09
3.6240864e-08
1.1152917e-07
2.814612e-07
6.2420617e-07
1.265201e-06
2.4011444e-06
4.3350669e-06
7.5271701e-06
1.2667886e-05
2.0781813e-05
3.3373732e-05
5.2630299e-05
8.1692178e-05
0.00012500864
0.00018877503
0.00028142399
0.0004140784
0.00060075877
0.00085795057
0.0012028922
0.0016497515
0.0022030489
0.0028488952
0.0035474888
0.0042340415
0.0048350951
0.0052965924
0.0056060523
0.0057954012
0.0059113417
0.0060383044
0.0062313163
0.006517714
0.0069407001
0.0075430088
0.008372322
0.0094840371
0.010938666
0.012793066
0.015082083
0.017832153
0.021128971
0.024983046
0.029361036
0.034189729
0.039321504
0.044524418
0.049459241
0.053560432
0.056197208
0.057049067
0.055445871
0.049875154
0.035442487
0.015841006
0.004770579
0.001507762
0.00060857975
0.00036292795
0.00028754361
0.00025543989
0.00022425079
2.6464223e-11
8.3159769e-10
6.8002669e-09
2.924592e-08
9.0003089e-08
2.2713941e-07
5.0374545e-07
1.0210766e-06
1.9379523e-06
3.4991472e-06
6.0766304e-06
1.0229007e-05
1.6786461e-05
2.6970859e-05
4.256325e-05
6.6133033e-05
0.00010134294
0.00015333808
0.00022920875
0.00033847397
0.00049344695
0.00070919473
0.0010025812
0.0013896375
0.0018804445
0.0024713398
0.0031363452
0.0038233845
0.0044633333
0.0049941616
0.0053871348
0.0056563284
0.0058475831
0.0060148427
0.0062328468
0.0065599587
0.0070379665
0.0077034204
0.0086042604
0.0097917858
0.011321891
0.013249036
0.015615054
0.018451981
0.021798838
0.02564138
0.029965416
0.034691226
0.039664095
0.044649011
0.049319789
0.052949786
0.054745912
0.054327387
0.051360583
0.043431291
0.025900787
0.0091493197
0.0027076264
0.00091059392
0.00043376571
0.00030616135
0.00026270602
0.00023850328
0.00021025867
2.0699815e-11
6.5045987e-10
5.3190362e-09
2.2875585e-08
7.0398924e-08
1.7766633e-07
3.9403195e-07
7.987157e-07
1.5160026e-06
2.7375144e-06
4.7546216e-06
8.0052948e-06
1.3141342e-05
2.1124076e-05
3.3358956e-05
5.188228e-05
7.9614595e-05
0.00012069384
0.00018089173
0.00026809056
0.00039274023
0.00056810542
0.00080993016
0.0011348985
0.0015570581
0.0020815343
0.0026960684
0.0033638819
0.0040251888
0.0046140804
0.0050857782
0.0054353845
0.0056957929
0.0059238603
0.0061788072
0.0065243972
0.0070119779
0.0076859132
0.0085937451
0.0097859692
0.011316696
0.013238467
0.015594277
0.018416065
0.021728254
0.025503949
0.029707668
0.034258186
0.038983464
0.043611835
0.047688442
0.050353851
0.050771741
0.049264593
0.044567977
0.03340787
0.015476107
0.004711457
0.0014468321
0.00056218936
0.00032978797
0.00026587022
0.00023186341
0.00021199596
0.00019055673
1.5651166e-11
4.918137e-10
4.0217278e-09
1.7296236e-08
5.3228753e-08
1.3433467e-07
2.9793392e-07
6.0393628e-07
1.1463496e-06
2.0701612e-06
3.5959461e-06
6.0555308e-06
9.9433742e-06
1.5990095e-05
2.5266827e-05
3.9331706e-05
6.0432302e-05
9.1778963e-05
0.00013790092
0.00020508371
0.0003018525
0.00043939334
0.00063167059
0.00089478567
0.0012448583
0.0016935674
0.0022409395
0.0028668295
0.0035262311
0.0041566126
0.0047005824
0.0051312897
0.0054632446
0.0057426599
0.0060318494
0.0063954255
0.0068865829
0.0075568617
0.0084540624
0.0096264972
0.011124212
0.012995019
0.015281873
0.018013849
0.021192953
0.024766527
0.028675508
0.032811362
0.03699746
0.040935913
0.04408281
0.045482693
0.044842472
0.042078388
0.035322115
0.021229519
0.0072715468
0.0022414927
0.00076979341
0.0003763622
0.00027071115
0.00023731399
0.00021084943
0.00019585856
0.00017779451
1.1410087e-11
3.585442e-10
2.9319345e-09
1.2609345e-08
3.8804952e-08
9.7933206e-08
2.1720241e-07
4.4029324e-07
8.3575698e-07
1.5093451e-06
2.6220072e-06
4.4160316e-06
7.2528287e-06
1.1667272e-05
1.8445386e-05
2.8734579e-05
4.4198379e-05
6.7230232e-05
0.00010124179
0.00015103681
0.00022326542
0.00032691214
0.00047368528
0.00067801909
0.00095616069
0.0013235432
0.0017895894
0.0023498554
0.0029779128
0.0036234553
0.0042243947
0.0047361785
0.0051468522
0.0054846951
0.0058040456
0.0061698349
0.0066428763
0.0072776418
0.0081223795
0.0092231619
0.010624896
0.012369913
0.014496013
0.017025625
0.019936381
0.023171241
0.026650327
0.030237364
0.033731642
0.036824696
0.038902104
0.038886741
0.037399524
0.033217877
0.02382564
0.010192102
0.0032624852
0.0010645265
0.00044748008
0.00028475895
0.00024116649
0.00020967574
0.00018605905
0.00017739528
0.00016431632
8.0037874e-12
2.5150649e-10
2.0566496e-09
8.8449966e-09
2.7220197e-08
6.8696273e-08
1.5235882e-07
3.0884914e-07
5.8625842e-07
1.0587861e-06
1.8393912e-06
3.0981967e-06
5.0891592e-06
8.1885749e-06
1.2950458e-05
2.018581e-05
3.1075334e-05
4.732816e-05
7.1401909e-05
0.00010680038
0.00015846027
0.00023321967
0.00034031491
0.00049175514
0.00070225075
0.00098811003
0.0013642448
0.0018384476
0.0024031534
0.0030279056
0.0036601086
0.0042417949
0.0047348448
0.0051427872
0.0055029211
0.0058739275
0.0063200534
0.0068991762
0.0076625387
0.0086543731
0.0099148349
0.011478688
0.013374627
0.015618403
0.018177241
0.020975708
0.023914511
0.026841855
0.029526265
0.031659491
0.032329985
0.031518128
0.028900434
0.022911914
0.012136087
0.0042798143
0.0014029243
0.00053812471
0.00030251931
0.00023907499
0.00020657801
0.00018684684
0.00017358024
0.00016536886
0.00015423568
5.3950512e-12
1.6953101e-10
1.3863083e-09
5.9620545e-09
1.8347946e-08
4.6304859e-08
1.0269697e-07
2.0817708e-07
3.951597e-07
7.1365912e-07
1.2398243e-06
2.088367e-06
3.4306005e-06
5.5205544e-06
8.7326896e-06
1.3616233e-05
2.0973203e-05
3.196988e-05
4.8294731e-05
7.2378958e-05
0.00010769723
0.00015916151
0.00023360132
0.00034027563
0.00049125826
0.00070135407
0.00098692717
0.0013627418
0.0018359846
0.0023978686
0.0030165917
0.0036396645
0.0042116612
0.0047025638
0.0051208329
0.0055102378
0.0059307804
0.0064478933
0.0071142999
0.0079734627
0.0090608138
0.010402933
0.012018258
0.013914732
0.016054394
0.01834813
0.020675763
0.022865261
0.024701997
0.0256635
0.025300589
0.023694641
0.019871028
0.012362124
0.0050631157
0.0017151032
0.00063186184
0.00032010281
0.00023966896
0.00021486288
0.00019000645
0.00017364583
0.00015997914
0.00015374882
0.00014520106
3.494245e-12
1.0980114e-10
8.97877e-10
3.8614592e-09
1.1883381e-08
2.998988e-08
6.6511954e-08
1.3482394e-07
2.5591562e-07
4.6217164e-07
8.0289722e-07
1.352367e-06
2.2215164e-06
3.5748893e-06
5.6551753e-06
8.8187018e-06
1.3586733e-05
2.07195e-05
3.1322686e-05
4.699954e-05
7.0065387e-05
0.00010384331
0.0001530565
0.0002243148
0.00032664641
0.00047191886
0.00067480978
0.00095170821
0.0013176387
0.0017803631
0.0023320778
0.0029424172
0.0035605197
0.0041335947
0.004633653
0.005070982
0.0054994617
0.0059584583
0.0065207312
0.0072342777
0.0081321787
0.0092338414
0.010545278
0.012062033
0.01374439
0.015498014
0.017186708
0.018640685
0.019586281
0.01945865
0.018494147
0.016024459
0.01118615
0.0052609316
0.0019215544
0.00070810879
0.0003362279
0.00023581376
0.00021476263
0.00018795256
0.00016963651
0.00015918381
0.00015157566
0.00014637508
0.00013854709
2.1775848e-12
6.8427127e-11
5.5954818e-10
2.4064147e-09
7.4055208e-09
1.8688943e-08
4.1447821e-08
8.4015179e-08
1.5946753e-07
2.8797752e-07
5.0025268e-07
8.4254296e-07
1.3839132e-06
2.226787e-06
3.5222229e-06
5.4920466e-06
8.4609459e-06
1.2903054e-05
1.9509604e-05
2.9287046e-05
4.3698661e-05
6.4866647e-05
9.5854358e-05
0.00014104583
0.00020662399
0.00030110913
0.00043582715
0.00062500653
0.00088487483
0.0012309208
0.0016724549
0.0022046804
0.0028014596
0.0034161986
0.0039972859
0.0045102222
0.0049734749
0.0054269933
0.0059148223
0.0064937558
0.0072040447
0.0080644964
0.0090732459
0.010214488
0.011441913
0.012667842
0.013738205
0.014547721
0.014525674
0.013952968
0.012337012
0.0093589257
0.0049175031
0.0020021594
0.00075293659
0.00034707082
0.00023238213
0.00020736552
0.00018863488
0.00017067037
0.00015923542
0.00015073629
0.00014250604
0.00013798222
0.00013192386
1.3093764e-12
4.1145048e-11
3.3645428e-10
1.4469631e-09
4.4528594e-09
1.1237306e-08
2.4921278e-08
5.0514202e-08
9.5875968e-08
1.7312942e-07
3.0072365e-07
5.0643648e-07
8.3173124e-07
1.338068e-06
2.1160393e-06
3.2986016e-06
5.0802659e-06
7.7450026e-06
1.1706936e-05
1.7569843e-05
2.6214237e-05
3.8924433e-05
5.7572265e-05
8.487744e-05
0.00012476349
0.00018281515
0.00026680385
0.0003871645
0.00055719221
0.00079247816
0.0011087197
0.0015170718
0.0020170469
0.0025893507
0.0031947972
0.0037829742
0.0043221132
0.0048122105
0.0052805223
0.0057733331
0.0063312356
0.0069799883
0.0077196866
0.0085203116
0.0093488937
0.010084342
0.010702226
0.010728063
0.010394765
0.0093583179
0.0074924084
0.0043108775
0.0019107748
0.00075184682
0.00034768058
0.00022827167
0.0002004602
0.00019413714
0.0001752669
0.0001600091
0.00015013606
0.0001430982
0.00013649674
0.00013259488
0.00012769712
7.6278269e-13
2.3969216e-11
1.9600261e-10
8.4293071e-10
2.5940012e-09
6.5461793e-09
1.4517357e-08
2.9425111e-08
5.5846499e-08
1.0083952e-07
1.751422e-07
2.9491561e-07
4.8427012e-07
7.7891881e-07
1.2314564e-06
1.9189884e-06
2.954174e-06
4.501257e-06
6.7994314e-06
1.0197066e-05
1.520207e-05
2.2556238e-05
3.334493e-05
4.9157675e-05
7.231917e-05
0.0001062105
0.00015569075
0.00022759531
0.000331209
0.00047849143
0.0006836937
0.00096182626
0.0013251785
0.00177745
0.0023074403
0.0028852373
0.003470163
0.0040285296
0.0045444661
0.0050284629
0.0055082286
0.0060074107
0.0065330172
0.0070809503
0.0075709062
0.008001917
0.0080505302
0.0078425691
0.0071703434
0.0059326578
0.003625061
0.0016853309
0.00071377347
0.00034158699
0.0002231519
0.00019420542
0.00019065285
0.00017366068
0.00015636568
0.00014778137
0.00014086549
0.00013525181
0.00013053357
0.00012743959
0.00012310419
4.3245307e-13
1.3589137e-11
1.1112183e-10
4.7789026e-10
1.4706309e-09
3.7112195e-09
8.2301714e-09
1.6681228e-08
3.1658387e-08
5.716084e-08
9.9271118e-08
1.671398e-07
2.7441052e-07
4.4127693e-07
6.974475e-07
1.0864173e-06
1.6716288e-06
2.5453799e-06
3.8417542e-06
5.7554977e-06
8.5697507e-06
1.2697063e-05
1.8740363e-05
2.7583709e-05
4.0526695e-05
5.9480747e-05
8.7247611e-05
0.00012789208
0.00018719864
0.00027312576
0.00039606696
0.00056849436
0.00080377108
0.0011135951
0.0015041568
0.0019706611
0.0024939991
0.0030448677
0.0035923166
0.004113959
0.0046061614
0.005044533
0.0054628925
0.0058237538
0.0061417144
0.0061833912
0.0060368423
0.0055574705
0.0046476564
0.0028264121
0.0013551524
0.00062577783
0.00032277333
0.00021595318
0.00018746068
0.00018423047
0.00017039563
0.00015497644
0.00014806992
0.00014208999
0.00013605418
0.00013132188
0.00012628494
0.00012317019
0.00011996666
2.4081514e-13
7.5672226e-12
6.1879019e-11
2.6611611e-10
8.1892544e-10
2.0665862e-09
4.5828955e-09
9.2886049e-09
1.7627832e-08
3.1826678e-08
5.5270187e-08
9.3049292e-08
1.5275127e-07
2.4559821e-07
3.8808442e-07
6.043274e-07
9.2944347e-07
1.4144007e-06
2.133015e-06
3.1921174e-06
4.7464068e-06
7.0202622e-06
1.0340122e-05
1.5182848e-05
2.2248181e-05
3.2566832e-05
4.7659303e-05
6.976252e-05
0.00010213814
0.0001494584
0.00021822523
0.00031706711
0.00045654099
0.00064803751
0.00090158891
0.0012227799
0.0016101533
0.0020521678
0.0025288207
0.0030132127
0.0034842113
0.0039155392
0.0042679005
0.0045659696
0.0046469577
0.0045399824
0.0041912117
0.0033888857
0.0019577014
0.00098924621
0.00050696373
0.00028900787
0.0002052029
0.00018006107
0.00017712386
0.0001674336
0.0001531678
0.00014681971
0.00014050061
0.00013404886
0.00012906405
0.00012511084
0.00012140105
0.00011926396
0.00011667788
1.3513761e-13
4.2464775e-12
3.4724436e-11
1.4933502e-10
4.5954923e-10
1.159675e-09
2.5716678e-09
5.2121043e-09
9.8910571e-09
1.7856948e-08
3.1007499e-08
5.2195435e-08
8.5669785e-08
1.3771125e-07
2.1754352e-07
3.3863931e-07
5.2058719e-07
7.9176608e-07
1.1931874e-06
1.7839945e-06
2.6493956e-06
3.9122278e-06
5.7498401e-06
8.4188894e-06
1.2293004e-05
1.791912e-05
2.6100558e-05
3.8020482e-05
5.5418881e-05
8.0832496e-05
0.00011789278
0.00017165345
0.00024883537
0.00035784882
0.00050792933
0.00070742254
0.00096050206
0.0012651971
0.0016123922
0.0019846515
0.0023595869
0.0027077349
0.0029949808
0.0031623004
0.003104968
0.0028425724
0.002135575
0.0012332687
0.00068137067
0.00038682183
0.00024873107
0.00019130457
0.00017251802
0.00016990644
0.00016359423
0.00015142441
0.00014508444
0.000139063
0.00013343773
0.00012942929
0.00012574729
0.00012210908
0.00011867261
0.0001163009
0.00011402572
8.283258e-14
2.6028785e-12
2.1284352e-11
9.1534896e-11
2.8167995e-10
7.1081697e-10
1.5762758e-09
3.194653e-09
6.062371e-09
1.0944354e-08
1.9003055e-08
3.1985196e-08
5.2490721e-08
8.4358476e-08
1.332171e-07
2.0726918e-07
3.1840793e-07
4.8380021e-07
7.2812778e-07
1.0867687e-06
1.6103265e-06
2.3711165e-06
3.4725375e-06
5.0627775e-06
7.353971e-06
1.064993e-05
1.538702e-05
2.2197797e-05
3.2006425e-05
4.6158876e-05
6.6603338e-05
9.6113616e-05
0.00013851801
0.00019882275
0.00028321181
0.00039851236
0.00055091729
0.00074349608
0.00097364239
0.0012304332
0.0014961684
0.0017398033
0.0019212676
0.0018939306
0.0016931929
0.0011628248
0.00071661283
0.00044130147
0.00028726876
0.0002102281
0.00017692594
0.00016535254
0.00016361555
0.00016010335
0.00015068404
0.00014426238
0.00013817273
0.00013312536
0.00012905505
0.00012517145
0.00012079633
0.00011741289
0.000114576
0.00011340022
0.00011182463
6.3244062e-14
1.9873435e-12
1.6251046e-11
6.9889348e-11
2.1507254e-10
5.42742e-10
1.2035861e-09
2.4393914e-09
4.6293222e-09
8.3576977e-09
1.451262e-08
2.4428689e-08
4.0092428e-08
6.443648e-08
1.0175879e-07
1.5831685e-07
2.4316551e-07
3.6933172e-07
5.5545171e-07
8.2803885e-07
1.2246052e-06
1.7979342e-06
2.6219039e-06
3.7994362e-06
5.4734706e-06
7.8425712e-06
1.1184126e-05
1.5884195e-05
2.2478864e-05
3.1726116e-05
4.4704076e-05
6.293953e-05
8.8593486e-05
0.00012462919
0.00017490886
0.00024402545
0.00033664467
0.00045607033
0.0006018126
0.00076515927
0.00092641131
0.001037363
0.0010084263
0.0008471127
0.00057569172
0.00039884516
0.00027957103
0.0002117496
0.00017826226
0.00016336071
0.00015859381
0.00015881449
0.00015765986
0.00015171441
0.00014455767
0.00013802206
0.0001332658
0.00012911592
0.0001246027
0.00012075091
0.00011779408
0.00011526159
0.00011242204
0.00011071481
0.00010948306
6.1791553e-14
1.9417037e-12
1.5877946e-11
6.8285756e-11
2.1014228e-10
5.3031716e-10
1.1760867e-09
2.3838112e-09
4.5242484e-09
8.1689665e-09
1.4187065e-08
2.3885243e-08
3.9209553e-08
6.303445e-08
9.9574565e-08
1.5496773e-07
2.3809471e-07
3.6172247e-07
5.4408299e-07
8.1102754e-07
1.1989221e-06
1.7584683e-06
2.5596355e-06
3.6978661e-06
5.301601e-06
7.5411942e-06
1.0640195e-05
1.488961e-05
2.0665692e-05
2.8457982e-05
3.8921573e-05
5.29515e-05
7.1797279e-05
9.7178488e-05
0.00013133
0.0001768506
0.00023597582
0.00030850106
0.00038803954
0.00045823444
0.0004876544
0.00045635387
0.00036151617
0.00028300589
0.00021802943
0.00018310453
0.00016008649
0.00015156846
0.00015219322
0.00015370292
0.00015656863
0.00015628078
0.000152704
0.00014408579
0.00013768061
0.00013336456
0.00012934158
0.00012481199
0.00012152613
0.00011850461
0.00011502294
0.00011218413
0.00011004272
0.0001090505
0.00010824453
6.6281208e-14
2.0827875e-12
1.7031762e-11
7.3249116e-11
2.254223e-10
5.6889957e-10
1.2617196e-09
2.5575726e-09
4.8545206e-09
8.7664572e-09
1.5227266e-08
2.5641787e-08
4.2103423e-08
6.7706045e-08
1.069883e-07
1.6656208e-07
2.5599396e-07
3.8902842e-07
5.8526257e-07
8.7239848e-07
1.2892011e-06
1.8892594e-06
2.7455664e-06
3.9557487e-06
5.6474198e-06
7.9830206e-06
1.1162577e-05
1.542351e-05
2.103988e-05
2.8314388e-05
3.7567237e-05
4.9147088e-05
6.3458207e-05
8.100989e-05
0.0001022264
0.00012681307
0.00015401256
0.00018021905
0.00020033383
0.00020114244
0.0001823683
0.000159036
0.00014006822
0.00012723704
0.0001224588
0.00012787539
0.00013348251
0.00014501294
0.00015145026
0.00015590261
0.00015591992
0.00015268206
0.00014382083
0.00013786255
0.00013433939
0.00013001258
0.00012564589
0.00012231359
0.00011874034
0.00011509493
0.0001122795
0.00011000548
0.00010787895
0.00010698467
0.00010644094
6.3282581e-14
1.988561e-12
1.626127e-11
6.9935729e-11
2.1522675e-10
5.431734e-10
1.2046761e-09
2.4419744e-09
4.6351764e-09
8.3705035e-09
1.4539748e-08
2.4484378e-08
4.0203129e-08
6.4649213e-08
1.0215292e-07
1.5901757e-07
2.443515e-07
3.7121423e-07
5.5816819e-07
8.3132981e-07
1.2269902e-06
1.7948007e-06
2.6013522e-06
3.7336821e-06
5.30167e-06
7.437502e-06
1.0289955e-05
1.4010608e-05
1.8733126e-05
2.4544813e-05
3.1449223e-05
3.9383435e-05
4.8174706e-05
5.7532065e-05
6.7008999e-05
7.5904464e-05
8.2619776e-05
8.4759668e-05
8.09901e-05
7.7146051e-05
7.5080091e-05
7.657114e-05
8.2769338e-05
9.0059882e-05
0.00010412619
0.00012593139
0.00014815835
0.00015491349
0.0001567491
0.00015634554
0.00015298606
0.00014379354
0.00013848834
0.00013488662
0.00013045921
0.00012606022
0.00012287453
0.00011913576
0.0001159621
0.00011341439
0.00011087315
0.00010857677
0.00010667834
0.00010594243
0.00010555726
4.8768479e-14
1.5324756e-12
1.2531626e-11
5.3894936e-11
1.6585843e-10
4.1856954e-10
9.2828442e-10
1.8815919e-09
3.5711947e-09
6.4483396e-09
1.119913e-08
1.8854902e-08
3.0950863e-08
4.9752508e-08
7.8576229e-08
1.2223891e-07
1.8768075e-07
2.8481429e-07
4.276566e-07
6.3579319e-07
9.3618606e-07
1.3652503e-06
1.970947e-06
2.814331e-06
3.9695184e-06
5.5204134e-06
7.5519889e-06
1.0133985e-05
1.3299556e-05
1.7011238e-05
2.1137895e-05
2.5458376e-05
2.9654585e-05
3.3405532e-05
3.6205008e-05
3.7520013e-05
3.7108914e-05
3.6725815e-05
3.8240616e-05
4.2509569e-05
4.8302096e-05
5.869198e-05
7.4022026e-05
9.4559126e-05
0.00013248597
0.00015106509
0.00015675694
0.00015782705
0.0001569442
0.00015326838
0.00014394709
0.00013879823
0.00013532197
0.00013065447
0.00012695318
0.00012362475
0.00012013389
0.00011697896
0.00011427247
0.0001113205
0.00010860462
0.00010653756
0.00010490163
0.00010435239
0.00010409933
3.027013e-14
9.5119154e-13
7.7781909e-12
3.3451157e-11
1.0294054e-10
2.5977291e-10
5.7606792e-10
1.1675362e-09
2.2156065e-09
3.9997988e-09
6.9447481e-09
1.1688043e-08
1.9177394e-08
3.0808723e-08
4.86206e-08
7.5564926e-08
1.1587834e-07
1.7558203e-07
2.6313664e-07
3.9026786e-07
5.729472e-07
8.3244556e-07
1.1962499e-06
1.6984214e-06
2.3787037e-06
3.2792232e-06
4.4375635e-06
5.8751851e-06
7.5822674e-06
9.4987899e-06
1.1508631e-05
1.3443483e-05
1.5103179e-05
1.6287261e-05
1.6977543e-05
1.7786841e-05
1.9628527e-05
2.2615275e-05
2.7310288e-05
3.6455727e-05
4.9656177e-05
6.9821226e-05
9.7284455e-05
0.00013600832
0.00015390323
0.0001589154
0.00015927036
0.00015814704
0.00015401991
0.00014454414
0.00013963948
0.0001357867
0.00013144723
0.0001278821
0.00012460515
0.0001207292
0.00011781958
0.000114819
0.0001119863
0.00010939278
0.00010725367
0.00010556102
0.00010401415
0.00010357566
0.00010326006
1.5791393e-14
4.9621895e-13
4.0577008e-12
1.7450306e-11
5.3698388e-11
1.3550067e-10
3.0045615e-10
6.0886471e-10
1.1552203e-09
2.0849948e-09
3.6189603e-09
6.0881691e-09
9.9838598e-09
1.6028019e-08
2.5272086e-08
3.9233201e-08
6.007908e-08
9.0873159e-08
1.3588934e-07
2.0099741e-07
2.9410051e-07
4.2556789e-07
6.0853803e-07
8.5885772e-07
1.1942928e-06
1.6325363e-06
2.1875013e-06
2.8637552e-06
3.6503277e-06
4.5160895e-06
5.4122985e-06
6.2911701e-06
7.1477828e-06
8.2080341e-06
9.7069502e-06
1.1904824e-05
1.580152e-05
2.1822597e-05
3.2487258e-05
4.8754689e-05
7.116084e-05
9.9543718e-05
0.00013515807
0.00015481566
0.00016112536
0.00016136822
0.00015991071
0.00015501686
0.00014561892
0.00014060675
0.00013637134
0.00013202028
0.0001287799
0.00012506754
0.00012148807
0.00011853151
0.00011578446
0.00011285702
0.00011049812
0.00010820305
0.00010604342
0.00010407511
0.00010263517
0.0001023499
0.0001019377
7.5637769e-15
2.3767902e-13
1.9435413e-12
8.3580998e-12
2.5718676e-11
6.4893559e-11
1.438803e-10
2.9153145e-10
5.5303689e-10
9.9791724e-10
1.7315831e-09
2.9119164e-09
4.7728478e-09
7.6575567e-09
1.2064672e-08
1.8711648e-08
2.8620083e-08
4.3227801e-08
6.4531126e-08
9.5256804e-08
1.3905438e-07
2.006843e-07
2.861522e-07
4.0270916e-07
5.586057e-07
7.625385e-07
1.0228053e-06
1.3466373e-06
1.7410477e-06
2.21774e-06
2.7904776e-06
3.5523034e-06
4.674822e-06
6.396736e-06
9.122766e-06
1.3590228e-05
2.0814215e-05
3.2506398e-05
4.918431e-05
7.1268556e-05
9.888484e-05
0.00013210292
0.00015502138
0.00016326486
0.00016387422
0.00016209065
0.00015644824
0.00014712296
0.00014198907
0.0001372122
0.00013295651
0.00012964811
0.00012598708
0.0001224296
0.00011975772
0.00011653155
0.0001138716
0.00011128412
0.00010891339
0.00010648694
0.00010452244
0.0001031043
0.00010198811
0.00010175234
0.00010125854
4.2317112e-15
1.3297437e-13
1.0873502e-12
4.6760461e-12
1.4388348e-11
3.6303656e-11
8.0488249e-11
1.6307825e-10
3.0934513e-10
5.581669e-10
9.6849932e-10
1.6286718e-09
2.6696392e-09
4.2837159e-09
6.750818e-09
1.0474833e-08
1.6033401e-08
2.4245059e-08
3.6258277e-08
5.3667255e-08
7.865961e-08
1.1420189e-07
1.6427297e-07
2.3416916e-07
3.3090107e-07
4.6389374e-07
6.4631054e-07
8.9785391e-07
1.2510617e-06
1.7614618e-06
2.5264966e-06
3.7123932e-06
5.6134989e-06
8.690365e-06
1.3601912e-05
2.1285782e-05
3.2925871e-05
4.9201346e-05
7.084891e-05
9.8494966e-05
0.00013090128
0.00015672738
0.00016577862
0.00016669904