/*--------------------------------*- C++ -*----------------------------------*\
  =========                 |
  \\      /  F ield         | OpenFOAM: The Open Source CFD Toolbox
   \\    /   O peration     | Website:  https://openfoam.org
    \\  /    A nd           | Version:  13
     \\/     M anipulation  |
\*---------------------------------------------------------------------------*/
FoamFile
{
    format      ascii;
    class       volVectorField;
    location    "0.002";
    object      U;
}
// * * * * * * * * * * * * * * * * * * * * * * * * * * * * * * * * * * * * * //

dimensions      [0 1 -1 0 0 0 0];

internalField   nonuniform List<vector> 
1000
(
(-5.10555e-13 0 0)
(-7.29365e-13 0 0)
(-8.31476e-13 0 0)
(-6.41841e-13 0 0)
(-8.31476e-13 0 0)
(-6.12666e-13 0 0)
(-7.43952e-13 0 0)
(-4.95968e-13 0 0)
(-6.41841e-13 0 0)
(-5.25143e-13 0 0)
(-5.10555e-13 0 0)
(-3.64682e-13 0 0)
(-6.27254e-13 0 0)
(-2.77159e-13 0 0)
(-7.58539e-13 0 0)
(-3.50095e-13 0 0)
(-5.25143e-13 0 0)
(-1.75048e-13 0 0)
(-1.75048e-13 0 0)
(1.45873e-14 0 0)
(2.91746e-14 0 0)
(2.18809e-13 0 0)
(3.7927e-13 0 0)
(3.50095e-13 0 0)
(2.62571e-13 0 0)
(1.45873e-13 0 0)
(1.45873e-13 0 0)
(7.29365e-14 0 0)
(2.47984e-13 0 0)
(2.04222e-13 0 0)
(1.02111e-13 0 0)
(1.45873e-13 0 0)
(2.91746e-13 0 0)
(2.77159e-13 0 0)
(3.93857e-13 0 0)
(2.47984e-13 0 0)
(1.45873e-13 0 0)
(1.02111e-13 0 0)
(-1.45873e-14 0 0)
(-2.91746e-14 0 0)
(-4.37619e-14 0 0)
(4.37619e-14 0 0)
(2.18809e-13 0 0)
(2.18809e-13 0 0)
(1.31286e-13 0 0)
(1.6046e-13 0 0)
(-1.45873e-14 0 0)
(2.33397e-13 0 0)
(-4.37619e-14 0 0)
(2.91746e-14 0 0)
(-3.06333e-13 0 0)
(4.37619e-14 0 0)
(-2.77159e-13 0 0)
(-1.31286e-13 0 0)
(-1.89635e-13 0 0)
(1.31286e-13 0 0)
(-1.6046e-13 0 0)
(-1.16698e-13 0 0)
(-2.18809e-13 0 0)
(-1.6046e-13 0 0)
(-5.83492e-14 0 0)
(-2.33397e-13 0 0)
(-3.20921e-13 0 0)
(-7.29365e-14 0 0)
(-1.01605e-27 0 0)
(-4.37619e-14 0 0)
(4.37619e-14 0 0)
(-4.37619e-14 0 0)
(1.45873e-14 0 0)
(-1.75048e-13 0 0)
(-1.45873e-14 0 0)
(-1.16698e-13 0 0)
(1.45873e-13 0 0)
(-2.04222e-13 0 0)
(8.75238e-14 0 0)
(-1.45873e-14 0 0)
(1.45873e-13 0 0)
(2.62571e-13 0 0)
(3.50095e-13 0 0)
(2.47984e-13 0 0)
(3.64682e-13 0 0)
(3.50095e-13 0 0)
(3.50095e-13 0 0)
(4.37619e-13 0 0)
(2.77159e-13 0 0)
(4.23032e-13 0 0)
(2.33397e-13 0 0)
(3.06333e-13 0 0)
(2.77159e-13 0 0)
(2.62571e-13 0 0)
(3.64682e-13 0 0)
(2.04222e-13 0 0)
(3.64682e-13 0 0)
(1.89635e-13 0 0)
(3.50095e-13 0 0)
(1.45873e-13 0 0)
(2.91746e-13 0 0)
(-2.91746e-14 0 0)
(8.75238e-14 0 0)
(-1.45873e-14 0 0)
(-8.75238e-14 0 0)
(-1.6046e-13 0 0)
(1.31286e-13 0 0)
(2.91746e-14 0 0)
(5.83492e-14 0 0)
(-4.37619e-14 0 0)
(-4.37619e-14 0 0)
(-1.31286e-13 0 0)
(5.83492e-14 0 0)
(-2.33397e-13 0 0)
(-2.47984e-13 0 0)
(-4.52206e-13 0 0)
(-3.20921e-13 0 0)
(-4.23032e-13 0 0)
(-1.75048e-13 0 0)
(-2.18809e-13 0 0)
(-2.33397e-13 0 0)
(5.83492e-14 0 0)
(-1.45873e-13 0 0)
(7.29365e-14 0 0)
(6.39608e-27 0 0)
(3.06333e-13 0 0)
(2.91746e-14 0 0)
(1.6046e-13 0 0)
(1.02111e-13 0 0)
(2.62571e-13 0 0)
(1.75048e-13 0 0)
(1.89635e-13 0 0)
(-1.02111e-13 0 0)
(1.45873e-14 0 0)
(-2.77159e-13 0 0)
(-1.6046e-13 0 0)
(-3.35508e-13 0 0)
(-2.04222e-13 0 0)
(-4.81381e-13 0 0)
(-1.02111e-13 0 0)
(-2.47984e-13 0 0)
(-1.20853e-27 0 0)
(-1.89635e-13 0 0)
(-8.75238e-14 0 0)
(-1.45873e-14 0 0)
(-2.91746e-14 0 0)
(4.37619e-14 0 0)
(-8.75238e-14 0 0)
(2.91746e-14 0 0)
(-2.04222e-13 0 0)
(-2.47984e-13 0 0)
(-1.45873e-13 0 0)
(-1.89635e-13 0 0)
(-3.06333e-13 0 0)
(-2.18809e-13 0 0)
(-2.33397e-13 0 0)
(-1.75048e-13 0 0)
(-4.37619e-14 0 0)
(5.83492e-14 0 0)
(8.75238e-14 0 0)
(-8.75238e-14 0 0)
(1.89635e-13 0 0)
(1.89635e-13 0 0)
(1.89635e-13 0 0)
(2.33397e-13 0 0)
(3.06333e-13 0 0)
(4.37619e-13 0 0)
(3.93857e-13 0 0)
(4.23032e-13 0 0)
(3.64682e-13 0 0)
(2.77159e-13 0 0)
(3.64682e-13 0 0)
(2.04222e-13 0 0)
(4.37619e-13 0 0)
(2.33397e-13 0 0)
(4.52206e-13 0 0)
(2.77159e-13 0 0)
(3.35508e-13 0 0)
(3.20921e-13 0 0)
(1.16698e-13 0 0)
(1.75048e-13 0 0)
(-4.37619e-14 0 0)
(-1.02111e-13 0 0)
(-2.18809e-13 0 0)
(-4.37619e-13 0 0)
(-4.37619e-13 0 0)
(-3.06333e-13 0 0)
(-2.77159e-13 0 0)
(-2.18809e-13 0 0)
(-1.02111e-13 0 0)
(-8.75238e-14 0 0)
(-2.91746e-14 0 0)
(5.83492e-14 0 0)
(-4.37619e-14 0 0)
(-5.83492e-14 0 0)
(-1.45873e-14 0 0)
(-1.16698e-13 0 0)
(-3.06333e-13 0 0)
(-2.33397e-13 0 0)
(-2.91746e-13 0 0)
(-4.08444e-13 0 0)
(-4.37619e-13 0 0)
(-5.83492e-13 0 0)
(-3.50095e-13 0 0)
(-7.0019e-13 0 0)
(-8.31476e-13 0 0)
(-6.71016e-13 0 0)
(-8.89825e-13 0 0)
(-6.41841e-13 0 0)
(-8.02301e-13 0 0)
(-3.50095e-13 0 0)
(-5.25143e-13 0 0)
(-4.52206e-13 0 0)
(-3.7927e-13 0 0)
(-2.91746e-13 0 0)
(-1.45873e-13 0 0)
(-1.45873e-14 0 0)
(-3.20921e-13 0 0)
(-2.62571e-13 0 0)
(-4.23032e-13 0 0)
(-1.75048e-13 0 0)
(-3.64682e-13 0 0)
(5.83492e-14 0 0)
(-3.50095e-13 0 0)
(1.45873e-14 0 0)
(-2.91746e-13 0 0)
(7.29365e-14 0 0)
(-1.75048e-13 0 0)
(-1.16698e-13 0 0)
(-2.47984e-13 0 0)
(-1.6046e-13 0 0)
(1.45873e-14 0 0)
(-4.37619e-14 0 0)
(-1.89635e-13 0 0)
(-3.06333e-13 0 0)
(-1.16698e-13 0 0)
(-1.45873e-13 0 0)
(1.31286e-13 0 0)
(2.18809e-13 0 0)
(3.06333e-13 0 0)
(2.18809e-13 0 0)
(3.20921e-13 0 0)
(4.23032e-13 0 0)
(4.23032e-13 0 0)
(4.66793e-13 0 0)
(1.31286e-13 0 0)
(3.35508e-13 0 0)
(7.29365e-14 0 0)
(3.20921e-13 0 0)
(3.35508e-13 0 0)
(5.68905e-13 0 0)
(3.7927e-13 0 0)
(5.25143e-13 0 0)
(4.95968e-13 0 0)
(3.93857e-13 0 0)
(4.81381e-13 0 0)
(4.08444e-13 0 0)
(4.81381e-13 0 0)
(5.98079e-13 0 0)
(6.85603e-13 0 0)
(5.3973e-13 0 0)
(4.95968e-13 0 0)
(3.93857e-13 0 0)
(1.6046e-13 0 0)
(5.3973e-13 0 0)
(4.81381e-13 0 0)
(4.66793e-13 0 0)
(4.08444e-13 0 0)
(4.81381e-13 0 0)
(3.06333e-13 0 0)
(3.20921e-13 0 0)
(2.62571e-13 0 0)
(4.37619e-13 0 0)
(4.95968e-13 0 0)
(4.81381e-13 0 0)
(5.83492e-13 0 0)
(5.10555e-13 0 0)
(4.08444e-13 0 0)
(4.08444e-13 0 0)
(1.89635e-13 0 0)
(4.37619e-13 0 0)
(3.64682e-13 0 0)
(4.66793e-13 0 0)
(4.52206e-13 0 0)
(5.68905e-13 0 0)
(5.98079e-13 0 0)
(1.00652e-12 0 0)
(8.46063e-13 0 0)
(1.21075e-12 0 0)
(1.06487e-12 0 0)
(1.25451e-12 0 0)
(1.25451e-12 0 0)
(1.25451e-12 0 0)
(1.12322e-12 0 0)
(1.47332e-12 0 0)
(9.48174e-13 0 0)
(1.41497e-12 0 0)
(9.62762e-13 0 0)
(1.16698e-12 0 0)
(1.16698e-12 0 0)
(1.25451e-12 0 0)
(1.23992e-12 0 0)
(1.35662e-12 0 0)
(1.07946e-12 0 0)
(9.62762e-13 0 0)
(1.0357e-12 0 0)
(6.41841e-13 0 0)
(8.75238e-13 0 0)
(5.83492e-13 0 0)
(9.04412e-13 0 0)
(1.0357e-12 0 0)
(8.31476e-13 0 0)
(1.13781e-12 0 0)
(1.0357e-12 0 0)
(1.05029e-12 0 0)
(9.77349e-13 0 0)
(9.19e-13 0 0)
(9.77349e-13 0 0)
(7.73127e-13 0 0)
(7.73127e-13 0 0)
(6.71016e-13 0 0)
(1.00652e-12 0 0)
(7.0019e-13 0 0)
(8.89825e-13 0 0)
(8.16889e-13 0 0)
(9.04412e-13 0 0)
(8.75238e-13 0 0)
(9.91936e-13 0 0)
(7.43952e-13 0 0)
(8.16889e-13 0 0)
(5.68905e-13 0 0)
(6.56428e-13 0 0)
(7.43952e-13 0 0)
(7.0019e-13 0 0)
(6.12666e-13 0 0)
(8.02301e-13 0 0)
(4.81381e-13 0 0)
(5.10555e-13 0 0)
(4.66793e-13 0 0)
(1.89635e-13 0 0)
(3.64682e-13 0 0)
(1.16698e-13 0 0)
(4.37619e-13 0 0)
(1.16698e-13 0 0)
(1.89635e-13 0 0)
(2.70217e-27 0 0)
(1.02111e-13 0 0)
(1.26533e-27 0 0)
(2.04222e-13 0 0)
(-7.29365e-14 0 0)
(1.31286e-13 0 0)
(-1.31286e-13 0 0)
(7.29365e-14 0 0)
(-1.31286e-13 0 0)
(7.29365e-14 0 0)
(-5.83492e-14 0 0)
(7.29365e-14 0 0)
(-1.45873e-14 0 0)
(-8.75238e-14 0 0)
(-2.91746e-14 0 0)
(-1.02111e-13 0 0)
(-1.6046e-13 0 0)
(-1.6046e-13 0 0)
(-2.04222e-13 0 0)
(-1.6046e-13 0 0)
(-5.83492e-14 0 0)
(-2.18809e-13 0 0)
(-8.75238e-14 0 0)
(-1.89635e-13 0 0)
(-1.02111e-13 0 0)
(-7.29365e-14 0 0)
(-4.37619e-14 0 0)
(1.45873e-13 0 0)
(7.14777e-13 0 0)
(1.91094e-12 0 0)
(5.26601e-12 0 0)
(1.22825e-11 0 0)
(2.85911e-11 0 0)
(6.5672e-11 0 0)
(1.48995e-10 0 0)
(3.34808e-10 0 0)
(7.45265e-10 0 0)
(1.64504e-09 0 0)
(3.59924e-09 0 0)
(7.8047e-09 0 0)
(1.67717e-08 0 0)
(3.57085e-08 0 0)
(7.53176e-08 0 0)
(1.57352e-07 0 0)
(3.25557e-07 0 0)
(6.66939e-07 0 0)
(1.3526e-06 0 0)
(2.71517e-06 0 0)
(5.39367e-06 0 0)
(1.06009e-05 0 0)
(2.06101e-05 0 0)
(3.96282e-05 0 0)
(7.53382e-05 0 0)
(0.000141583 0 0)
(0.000262957 0 0)
(0.00048253 0 0)
(0.00087461 0 0)
(0.00156543 0 0)
(0.00276601 0 0)
(0.00482329 0 0)
(0.0082978 0 0)
(0.0140788 0 0)
(0.0235506 0 0)
(0.0388249 0 0)
(0.0630555 0 0)
(0.100848 0 0)
(0.158767 0 0)
(0.245931 0 0)
(0.374656 0 0)
(0.561072 0 0)
(0.825591 0 0)
(1.19307 0 0)
(1.69241 0 0)
(2.35542 0 0)
(3.21462 0 0)
(4.29977 0 0)
(5.63331 0 0)
(7.22616 0 0)
(9.07598 0 0)
(11.1677 0 0)
(13.4762 0 0)
(15.9702 0 0)
(18.6167 0 0)
(21.3845 0 0)
(24.247 0 0)
(27.1831 0 0)
(30.1769 0 0)
(33.2172 0 0)
(36.2962 0 0)
(39.4088 0 0)
(42.5514 0 0)
(45.7216 0 0)
(48.9173 0 0)
(52.1371 0 0)
(55.3795 0 0)
(58.6434 0 0)
(61.9274 0 0)
(65.2306 0 0)
(68.5517 0 0)
(71.8899 0 0)
(75.244 0 0)
(78.6132 0 0)
(81.9965 0 0)
(85.3929 0 0)
(88.8018 0 0)
(92.2221 0 0)
(95.6531 0 0)
(99.0939 0 0)
(102.544 0 0)
(106.002 0 0)
(109.467 0 0)
(112.939 0 0)
(116.417 0 0)
(119.9 0 0)
(123.387 0 0)
(126.878 0 0)
(130.371 0 0)
(133.866 0 0)
(137.362 0 0)
(140.857 0 0)
(144.352 0 0)
(147.845 0 0)
(151.336 0 0)
(154.822 0 0)
(158.304 0 0)
(161.78 0 0)
(165.249 0 0)
(168.711 0 0)
(172.163 0 0)
(175.604 0 0)
(179.034 0 0)
(182.451 0 0)
(185.853 0 0)
(189.24 0 0)
(192.609 0 0)
(195.959 0 0)
(199.288 0 0)
(202.595 0 0)
(205.877 0 0)
(209.134 0 0)
(212.362 0 0)
(215.559 0 0)
(218.724 0 0)
(221.855 0 0)
(224.948 0 0)
(228.001 0 0)
(231.012 0 0)
(233.979 0 0)
(236.898 0 0)
(239.766 0 0)
(242.582 0 0)
(245.341 0 0)
(248.042 0 0)
(250.68 0 0)
(253.254 0 0)
(255.76 0 0)
(258.196 0 0)
(260.558 0 0)
(262.844 0 0)
(265.051 0 0)
(267.177 0 0)
(269.22 0 0)
(271.177 0 0)
(273.048 0 0)
(274.829 0 0)
(276.521 0 0)
(278.123 0 0)
(279.633 0 0)
(281.052 0 0)
(282.38 0 0)
(283.619 0 0)
(284.768 0 0)
(285.831 0 0)
(286.808 0 0)
(287.703 0 0)
(288.518 0 0)
(289.256 0 0)
(289.921 0 0)
(290.517 0 0)
(291.048 0 0)
(291.517 0 0)
(291.93 0 0)
(292.29 0 0)
(292.602 0 0)
(292.871 0 0)
(293.1 0 0)
(293.294 0 0)
(293.458 0 0)
(293.595 0 0)
(293.709 0 0)
(293.804 0 0)
(293.884 0 0)
(293.952 0 0)
(294.011 0 0)
(294.066 0 0)
(294.12 0 0)
(294.175 0 0)
(294.235 0 0)
(294.303 0 0)
(294.382 0 0)
(294.474 0 0)
(294.58 0 0)
(294.702 0 0)
(294.841 0 0)
(294.996 0 0)
(295.167 0 0)
(295.35 0 0)
(295.543 0 0)
(295.742 0 0)
(295.943 0 0)
(296.14 0 0)
(296.327 0 0)
(296.5 0 0)
(296.652 0 0)
(296.778 0 0)
(296.873 0 0)
(296.933 0 0)
(296.956 0 0)
(296.94 0 0)
(296.885 0 0)
(296.794 0 0)
(296.668 0 0)
(296.513 0 0)
(296.333 0 0)
(296.136 0 0)
(295.926 0 0)
(295.711 0 0)
(295.496 0 0)
(295.288 0 0)
(295.089 0 0)
(294.903 0 0)
(294.732 0 0)
(294.578 0 0)
(294.441 0 0)
(294.319 0 0)
(294.213 0 0)
(294.118 0 0)
(294.035 0 0)
(293.959 0 0)
(293.888 0 0)
(293.82 0 0)
(293.75 0 0)
(293.677 0 0)
(293.595 0 0)
(293.502 0 0)
(293.393 0 0)
(293.263 0 0)
(293.107 0 0)
(292.919 0 0)
(292.691 0 0)
(292.415 0 0)
(292.081 0 0)
(291.676 0 0)
(291.187 0 0)
(290.596 0 0)
(289.883 0 0)
(289.021 0 0)
(287.982 0 0)
(286.729 0 0)
(285.216 0 0)
(283.388 0 0)
(281.178 0 0)
(278.499 0 0)
(275.247 0 0)
(271.285 0 0)
(266.438 0 0)
(260.48 0 0)
(253.107 0 0)
(243.91 0 0)
(232.308 0 0)
(217.446 0 0)
(198.004 0 0)
(171.933 0 0)
(136.658 0 0)
(91.9609 0 0)
(47.1373 0 0)
(17.6187 0 0)
(5.21419 0 0)
(1.36852 0 0)
(0.341804 0 0)
(0.0840293 0 0)
(0.0205711 0 0)
(0.00503036 0 0)
(0.0012296 0 0)
(0.000300483 0 0)
(7.34143e-05 0 0)
(1.79327e-05 0 0)
(4.37939e-06 0 0)
(1.06926e-06 0 0)
(2.61003e-07 0 0)
(6.3695e-08 0 0)
(1.55404e-08 0 0)
(3.79056e-09 0 0)
(9.24427e-10 0 0)
(2.25418e-10 0 0)
(5.50817e-11 0 0)
(1.3362e-11 0 0)
(3.44261e-12 0 0)
(8.46064e-13 0 0)
(3.93858e-13 0 0)
(-1.45873e-14 0 0)
(2.62572e-13 0 0)
(2.47984e-13 0 0)
(2.77159e-13 0 0)
(2.91746e-14 0 0)
(3.35508e-13 0 0)
(2.04222e-13 0 0)
(2.62572e-13 0 0)
(8.75239e-14 0 0)
(2.47984e-13 0 0)
(1.89635e-13 0 0)
(-4.3762e-14 0 0)
(2.33397e-13 0 0)
(7.29366e-14 0 0)
(3.50096e-13 0 0)
(3.12389e-28 0 0)
(5.83493e-14 0 0)
(1.02111e-13 0 0)
(1.45873e-14 0 0)
(1.31286e-13 0 0)
(4.3762e-14 0 0)
(1.45873e-13 0 0)
(1.31286e-13 0 0)
(1.34973e-27 0 0)
(-2.91746e-14 0 0)
(-2.47984e-13 0 0)
(-4.3762e-14 0 0)
(-4.3762e-14 0 0)
(-2.04222e-13 0 0)
(-8.75239e-14 0 0)
(-8.75239e-14 0 0)
(1.45873e-14 0 0)
(-1.31286e-13 0 0)
(-1.45873e-13 0 0)
(-7.29366e-14 0 0)
(-2.77159e-13 0 0)
(-3.06334e-13 0 0)
(-1.31286e-13 0 0)
(-6.27255e-13 0 0)
(-3.50096e-13 0 0)
(-4.81381e-13 0 0)
(-3.64683e-13 0 0)
(-3.06334e-13 0 0)
(-4.3762e-13 0 0)
(-3.93858e-13 0 0)
(-4.3762e-13 0 0)
(-3.93858e-13 0 0)
(-4.23032e-13 0 0)
(-6.27255e-13 0 0)
(-5.83493e-13 0 0)
(-7.73128e-13 0 0)
(-3.64683e-13 0 0)
(-5.68905e-13 0 0)
(-5.25143e-13 0 0)
(-4.95969e-13 0 0)
(-5.54318e-13 0 0)
(-5.10556e-13 0 0)
(-4.52207e-13 0 0)
(-7.43953e-13 0 0)
(-3.7927e-13 0 0)
(-7.43953e-13 0 0)
(-4.95969e-13 0 0)
(-4.66794e-13 0 0)
(-7.14779e-13 0 0)
(-7.14779e-13 0 0)
(-7.43953e-13 0 0)
(-7.14779e-13 0 0)
(-5.10556e-13 0 0)
(-5.39731e-13 0 0)
(-4.08445e-13 0 0)
(-7.43953e-13 0 0)
(-5.9808e-13 0 0)
(-7.43953e-13 0 0)
(-6.85604e-13 0 0)
(-9.04414e-13 0 0)
(-6.27255e-13 0 0)
(-8.75239e-13 0 0)
(-7.43953e-13 0 0)
(-7.73128e-13 0 0)
(-6.12667e-13 0 0)
(-6.85604e-13 0 0)
(-7.73128e-13 0 0)
(-5.39731e-13 0 0)
(-6.56429e-13 0 0)
(-2.47984e-13 0 0)
(-4.52207e-13 0 0)
(-2.77159e-13 0 0)
(-1.6046e-13 0 0)
(-2.33397e-13 0 0)
(-8.75239e-14 0 0)
(-2.04222e-13 0 0)
(-2.62572e-13 0 0)
(-1.02111e-13 0 0)
(-4.3762e-14 0 0)
(1.6046e-13 0 0)
(-1.45873e-13 0 0)
(-1.02111e-13 0 0)
(-2.33397e-13 0 0)
(-2.62572e-13 0 0)
(-2.91746e-13 0 0)
(-5.83493e-14 0 0)
(-2.91746e-14 0 0)
(4.3762e-14 0 0)
(4.3762e-14 0 0)
(3.20921e-13 0 0)
(-1.16699e-13 0 0)
(5.83493e-14 0 0)
(1.75048e-13 0 0)
(-2.62572e-13 0 0)
(2.91746e-13 0 0)
(-3.7927e-13 0 0)
(2.1881e-13 0 0)
(-1.89635e-13 0 0)
(2.91746e-14 0 0)
(-7.29366e-14 0 0)
(1.45873e-13 0 0)
(4.3762e-14 0 0)
(5.83493e-14 0 0)
(8.75239e-14 0 0)
(1.31286e-13 0 0)
(4.3762e-14 0 0)
(-3.20921e-13 0 0)
(-1.75048e-13 0 0)
(-5.39731e-13 0 0)
(7.29366e-14 0 0)
(-3.50096e-13 0 0)
(-2.91746e-14 0 0)
(-3.20921e-13 0 0)
(1.31286e-13 0 0)
(-3.20921e-13 0 0)
(5.83493e-14 0 0)
(-3.06334e-13 0 0)
(2.91746e-14 0 0)
(-1.6046e-13 0 0)
(1.31286e-13 0 0)
(-2.91746e-13 0 0)
(2.91746e-14 0 0)
(-2.33397e-13 0 0)
(8.75239e-14 0 0)
(-1.89635e-13 0 0)
(8.75239e-14 0 0)
(1.16699e-13 0 0)
(-2.33397e-13 0 0)
(7.29366e-14 0 0)
(2.91746e-14 0 0)
(7.29366e-14 0 0)
(-4.3762e-14 0 0)
(1.31286e-13 0 0)
(-1.31286e-13 0 0)
(1.16699e-13 0 0)
(1.02111e-13 0 0)
(8.75239e-14 0 0)
(2.91746e-14 0 0)
(1.02111e-13 0 0)
(-4.3762e-14 0 0)
(4.3762e-14 0 0)
(-1.89635e-13 0 0)
(-1.16699e-13 0 0)
(-1.89635e-13 0 0)
(-1.31286e-13 0 0)
(5.83493e-14 0 0)
(-5.83493e-14 0 0)
(3.20921e-13 0 0)
(7.29366e-14 0 0)
(3.20921e-13 0 0)
(8.75239e-14 0 0)
(1.6046e-13 0 0)
(-1.89635e-13 0 0)
(7.29366e-14 0 0)
(-1.16699e-13 0 0)
(1.31286e-13 0 0)
(-1.6046e-13 0 0)
(1.45873e-13 0 0)
(1.45873e-13 0 0)
(2.91746e-14 0 0)
(1.31286e-13 0 0)
(2.91746e-13 0 0)
(5.83493e-14 0 0)
(-1.3884e-28 0 0)
(-1.02111e-13 0 0)
(2.47984e-13 0 0)
(-1.31286e-13 0 0)
(4.3762e-14 0 0)
(-2.33397e-13 0 0)
(3.64683e-13 0 0)
(-1.16699e-13 0 0)
(2.04222e-13 0 0)
(-1.89635e-13 0 0)
(-7.29366e-14 0 0)
(-1.6046e-13 0 0)
(5.83493e-14 0 0)
(1.45873e-14 0 0)
(1.31286e-13 0 0)
(3.18703e-27 0 0)
(1.45873e-14 0 0)
(-1.75048e-13 0 0)
(-8.75239e-14 0 0)
(-3.06334e-13 0 0)
(4.3762e-14 0 0)
(-3.35508e-13 0 0)
(1.6046e-13 0 0)
(-2.33397e-13 0 0)
(1.45873e-14 0 0)
(-4.23032e-13 0 0)
(-1.31286e-13 0 0)
(-1.6046e-13 0 0)
(1.16699e-13 0 0)
(5.25143e-13 0 0)
(-1.45873e-14 0 0)
(4.3762e-13 0 0)
(5.83493e-14 0 0)
(4.23032e-13 0 0)
(4.3762e-13 0 0)
(4.3762e-13 0 0)
(6.85604e-13 0 0)
(5.10556e-13 0 0)
(7.14779e-13 0 0)
(7.5854e-13 0 0)
(6.56429e-13 0 0)
(7.73128e-13 0 0)
(4.81381e-13 0 0)
(5.9808e-13 0 0)
(2.33397e-13 0 0)
(1.02111e-13 0 0)
(-4.3762e-14 0 0)
(5.83493e-14 0 0)
(-2.1881e-13 0 0)
(-2.1881e-13 0 0)
(-2.1881e-13 0 0)
(-7.29366e-14 0 0)
(-2.04222e-13 0 0)
(-8.75239e-14 0 0)
(2.91746e-14 0 0)
(-1.89635e-13 0 0)
(1.89635e-13 0 0)
(-1.02111e-13 0 0)
(8.75239e-14 0 0)
(-1.75048e-13 0 0)
(-8.75239e-14 0 0)
(-1.6046e-13 0 0)
(8.75239e-14 0 0)
(2.77159e-13 0 0)
(4.52207e-13 0 0)
(2.77159e-13 0 0)
(3.64683e-13 0 0)
(1.31286e-13 0 0)
(-1.45873e-13 0 0)
(8.75239e-14 0 0)
(-1.31286e-13 0 0)
(-5.83493e-14 0 0)
(1.45873e-14 0 0)
(-7.29366e-14 0 0)
(-1.31286e-13 0 0)
(-3.47414e-27 0 0)
(-7.29366e-14 0 0)
(1.89635e-13 0 0)
(5.83493e-14 0 0)
(-5.83493e-14 0 0)
(-5.83493e-14 0 0)
(-7.29366e-14 0 0)
(4.3762e-13 0 0)
(1.31286e-13 0 0)
(5.83493e-13 0 0)
(4.3762e-14 0 0)
(4.66794e-13 0 0)
(4.3762e-14 0 0)
(5.39731e-13 0 0)
(4.66794e-13 0 0)
(7.00191e-13 0 0)
(5.54318e-13 0 0)
(3.7927e-13 0 0)
(1.31286e-13 0 0)
(1.45873e-14 0 0)
(2.91746e-14 0 0)
(2.91746e-14 0 0)
(-4.3762e-14 0 0)
(-7.29366e-14 0 0)
(8.75239e-14 0 0)
(-5.83493e-14 0 0)
(-4.3762e-14 0 0)
(-1.16699e-13 0 0)
(-1.75048e-13 0 0)
(-1.6046e-13 0 0)
(-1.45873e-13 0 0)
(1.45873e-14 0 0)
(-8.75239e-14 0 0)
(-8.75239e-14 0 0)
(-1.75048e-13 0 0)
(-1.16699e-13 0 0)
(5.83493e-14 0 0)
(1.31286e-13 0 0)
(1.89635e-13 0 0)
(6.27302e-27 0 0)
(1.6046e-13 0 0)
(1.6046e-13 0 0)
(3.7927e-13 0 0)
(2.1881e-13 0 0)
(1.75048e-13 0 0)
(2.1881e-13 0 0)
(2.47984e-13 0 0)
(3.7927e-13 0 0)
(1.75048e-13 0 0)
(2.47984e-13 0 0)
(1.89635e-13 0 0)
(3.64683e-13 0 0)
(2.62572e-13 0 0)
(1.45873e-13 0 0)
(5.39731e-13 0 0)
(3.64683e-13 0 0)
(5.9808e-13 0 0)
(3.20921e-13 0 0)
(5.39731e-13 0 0)
(4.3762e-13 0 0)
(3.20921e-13 0 0)
(2.77159e-13 0 0)
(2.47984e-13 0 0)
(-1.45873e-14 0 0)
(1.45873e-13 0 0)
(4.08445e-13 0 0)
(3.20921e-13 0 0)
(2.77159e-13 0 0)
(3.93858e-13 0 0)
(3.06334e-13 0 0)
(3.50096e-13 0 0)
(3.06334e-13 0 0)
(1.45873e-13 0 0)
(5.10556e-13 0 0)
(4.23032e-13 0 0)
(3.35508e-13 0 0)
(2.1881e-13 0 0)
(2.77159e-13 0 0)
(1.89635e-13 0 0)
(4.81381e-13 0 0)
(1.6046e-13 0 0)
(3.64683e-13 0 0)
(1.31286e-13 0 0)
(2.1881e-13 0 0)
(-1.45873e-13 0 0)
(2.91746e-14 0 0)
(-1.45873e-14 0 0)
(-2.77159e-13 0 0)
(-6.97353e-28 0 0)
(-1.31286e-13 0 0)
(2.1881e-13 0 0)
(1.31286e-13 0 0)
(2.04222e-13 0 0)
(1.89635e-13 0 0)
(-5.83493e-14 0 0)
(-1.75048e-13 0 0)
(-2.77159e-13 0 0)
(-1.89635e-13 0 0)
(-3.20921e-13 0 0)
(-1.6046e-13 0 0)
(-2.91746e-13 0 0)
(-3.06334e-13 0 0)
(-5.39731e-13 0 0)
(-6.85604e-13 0 0)
(-6.12667e-13 0 0)
(-5.83493e-13 0 0)
)
;

boundaryField
{
    sides
    {
        type            zeroGradient;
    }
    empty
    {
        type            empty;
    }
}


// ************************************************************************* //
