/*--------------------------------*- C++ -*----------------------------------*\
  =========                 |
  \\      /  F ield         | OpenFOAM: The Open Source CFD Toolbox
   \\    /   O peration     | Website:  https://openfoam.org
    \\  /    A nd           | Version:  13
     \\/     M anipulation  |
\*---------------------------------------------------------------------------*/
FoamFile
{
    format      ascii;
    class       volScalarField;
    location    "19.99889";
    object      k;
}
// * * * * * * * * * * * * * * * * * * * * * * * * * * * * * * * * * * * * * //

dimensions      [0 2 -2 0 0 0 0];

internalField   nonuniform List<scalar> 
17140
(
1.2131964e-10
3.8122782e-09
3.1173876e-08
1.3406126e-07
4.1250649e-07
1.0407808e-06
2.3074379e-06
4.6750862e-06
8.868478e-06
1.6003231e-05
2.7772545e-05
4.6716084e-05
7.6604224e-05
0.00012298226
0.00019393284
0.00030112901
0.0004612606
0.0006979122
0.0010439286
0.0015441771
0.0022583162
0.0032625635
0.0046483244
0.0065138567
0.0089436285
0.011971713
0.015536468
0.019455518
0.023459807
0.02728465
0.03075306
0.033795458
0.036418143
0.038663472
0.040583189
0.042226651
0.043637795
0.044856187
0.045919184
0.046864307
0.047731027
0.048561365
0.049399451
0.05028789
0.051263361
0.052351636
0.053563921
0.05489875
0.05634369
0.057877417
0.059470208
0.061077206
0.062630616
0.064034315
0.065103956
0.06570054
0.065782705
0.064987335
0.063355446
0.060757828
0.057117211
0.05304216
0.048444072
0.042639952
0.035218368
1.1979653e-10
3.7644171e-09
3.078258e-08
1.3237911e-07
4.0733285e-07
1.0277339e-06
2.2785287e-06
4.6165498e-06
8.7575148e-06
1.580316e-05
2.7425666e-05
4.6133276e-05
7.5649918e-05
0.00012145299
0.000191527
0.00029740495
0.00045557985
0.00068936482
0.0010312399
0.0015256002
0.0022315277
0.0032246034
0.0045956666
0.0064427492
0.0088508825
0.011855995
0.01539969
0.019303241
0.023299688
0.027123679
0.030595649
0.033643371
0.036271633
0.0385221
0.040446461
0.042094301
0.043509901
0.044733002
0.04580122
0.04675245
0.047626639
0.048466412
0.049316499
0.050220886
0.051218317
0.052337803
0.053593405
0.054988759
0.056518893
0.058171372
0.059928052
0.061762043
0.063624489
0.065443929
0.067117683
0.068584836
0.069766808
0.070438005
0.070672273
0.070237099
0.068922566
0.066844491
0.062586037
0.055643147
0.044938388
1.1699799e-10
3.6764771e-09
3.006347e-08
1.2928664e-07
3.9781741e-07
1.0037264e-06
2.225306e-06
4.508725e-06
8.5530035e-06
1.5434199e-05
2.6785575e-05
4.5057127e-05
7.3886588e-05
0.00011862519
0.0001870748
0.00029050732
0.00044504783
0.0006735006
0.0010076592
0.0014910254
0.0021815822
0.0031536829
0.0044970427
0.0063091747
0.0086760333
0.011636891
0.015139393
0.019011832
0.0229916
0.02681255
0.030290609
0.033348735
0.035988635
0.03825067
0.040186366
0.041845677
0.043273436
0.044510054
0.045593794
0.046563205
0.04745901
0.048324906
0.049207004
0.050151459
0.05120005
0.052385321
0.053727653
0.055241899
0.056931547
0.058797021
0.060835727
0.063036892
0.0653794
0.067834537
0.070374632
0.072996233
0.075638341
0.078188317
0.08056385
0.08256598
0.083733327
0.08396274
0.081407611
0.074291585
0.059435981
1.1291976e-10
3.5483253e-09
2.901554e-08
1.2478008e-07
3.8395087e-07
9.6874101e-07
2.147746e-06
4.351593e-06
8.2549671e-06
1.4896497e-05
2.5852714e-05
4.3488688e-05
7.1316441e-05
0.00011450312
0.000180584
0.00028044952
0.00042968672
0.00065035453
0.00097323892
0.0014405262
0.0021085724
0.0030498961
0.0043524978
0.0061130114
0.0084185702
0.011313156
0.0147532
0.018577539
0.022530544
0.026345525
0.029832045
0.032905882
0.035563941
0.037844466
0.039798613
0.04147683
0.04292478
0.044183823
0.045293199
0.046292479
0.047223548
0.048131567
0.049064585
0.050071563
0.05119818
0.052481885
0.05395358
0.055633504
0.05753778
0.059680214
0.0620732
0.064723327
0.067632992
0.070810547
0.074280742
0.078072152
0.082143938
0.086363913
0.090483177
0.094265693
0.09729284
0.098857371
0.097399604
0.08958111
0.067140268
1.0761511e-10
3.3816349e-09
2.7652473e-08
1.1891831e-07
3.6591443e-07
9.2323492e-07
2.0468621e-06
4.1472076e-06
7.8673009e-06
1.4197081e-05
2.4639269e-05
4.1448427e-05
6.7972966e-05
0.00010914037
0.00017213862
0.00026736093
0.00040969223
0.00062021742
0.00092840259
0.0013747049
0.0020133294
0.0029143436
0.0041634028
0.0058558089
0.0080799596
0.010885683
0.014240778
0.017998271
0.021912654
0.025717511
0.029214414
0.032309417
0.034992612
0.037299052
0.039279171
0.040983954
0.04246012
0.043750257
0.044894885
0.045934909
0.04691369
0.047878162
0.048878681
0.049967384
0.051194295
0.052602988
0.054231211
0.056108929
0.058262563
0.060717209
0.063496281
0.066616805
0.070094368
0.073958502
0.078260152
0.083038301
0.088252477
0.093690797
0.098925889
0.10369353
0.10751183
0.10960291
0.10756048
0.097215856
0.068785752
1.0118267e-10
3.1795056e-09
2.5999616e-08
1.1181032e-07
3.4404332e-07
8.6805387e-07
1.9245291e-06
3.8993664e-06
7.3972058e-06
1.3348935e-05
2.3167748e-05
3.8974145e-05
6.3917994e-05
0.00010263583
0.00016189382
0.00025148067
0.00038542674
0.00058362921
0.00087394045
0.0012946946
0.0018974378
0.0027491703
0.0039325331
0.0055409281
0.0076638713
0.010357831
0.013604238
0.017274002
0.021135471
0.024924163
0.028432462
0.031554031
0.034269744
0.036610038
0.038624048
0.040363218
0.041875476
0.04320488
0.044393486
0.045483784
0.046520824
0.047553499
0.048634627
0.049819531
0.05116227
0.052711702
0.054512837
0.056603116
0.059016911
0.061786399
0.064939474
0.068494069
0.072466071
0.076888651
0.081817932
0.087291116
0.093257845
0.099409457
0.10512547
0.11014243
0.11378015
0.11509548
0.11143853
0.098422843
0.062110966
9.3765004e-11
2.9464176e-09
2.4093604e-08
1.0361364e-07
3.1882231e-07
8.0442081e-07
1.7834581e-06
3.6135606e-06
6.8550943e-06
1.2370837e-05
2.1470708e-05
3.6120523e-05
5.9241002e-05
9.5132712e-05
0.0001500744
0.00023315556
0.00035741668
0.00054137618
0.00081100719
0.0012021594
0.0017632425
0.0025575876
0.0036641202
0.0051736471
0.0071763735
0.0097357383
0.012848581
0.016407255
0.020198339
0.023962055
0.027481167
0.030634265
0.033390153
0.035772748
0.03782898
0.039610487
0.04116646
0.042542597
0.043782691
0.044930987
0.046034336
0.047143614
0.048314004
0.049603641
0.051069862
0.052765004
0.054741481
0.057040452
0.059700818
0.062756453
0.066232243
0.070137442
0.074476565
0.079272698
0.084574654
0.09041443
0.096725725
0.10309929
0.10872774
0.11335003
0.11613876
0.11613417
0.11021446
0.09068231
0.047063659
8.5545898e-11
2.6881453e-09
2.1981653e-08
9.4531333e-08
2.9087619e-07
7.3391207e-07
1.6271432e-06
3.2968681e-06
6.2543881e-06
1.1286993e-05
1.9590121e-05
3.2958078e-05
5.4057407e-05
8.6815818e-05
0.00013697067
0.00021283394
0.00032634346
0.00049447809
0.00074110476
0.001099273
0.0016138251
0.0023438531
0.00336385
0.0047612082
0.0066260757
0.0090286281
0.011982183
0.015403727
0.019102979
0.022829015
0.026355748
0.029544271
0.032347986
0.034781773
0.03688899
0.038720929
0.040327941
0.041757445
0.04305509
0.04426696
0.045441704
0.046632038
0.047895171
0.049291417
0.050880503
0.052718165
0.05485427
0.057339677
0.060210312
0.063496074
0.067211773
0.071350138
0.075896144
0.080855042
0.086264716
0.092147612
0.098398075
0.10452968
0.10959622
0.11332362
0.11475261
0.11276601
0.10271198
0.071707579
0.028576765
7.6745176e-11
2.4115964e-09
1.9720242e-08
8.4806273e-08
2.6095231e-07
6.5841313e-07
1.459764e-06
2.9577555e-06
5.6111431e-06
1.0126363e-05
1.7576211e-05
2.9571202e-05
4.8505385e-05
7.7906492e-05
0.00012293058
0.00019105364
0.00029302574
0.00044416253
0.0006660462
0.00098866945
0.0014529416
0.0021131999
0.0030387971
0.0043127888
0.0060241987
0.0082490623
0.011017332
0.014273081
0.017854347
0.021524756
0.025051889
0.028277636
0.031136296
0.033630434
0.035797836
0.037688504
0.039353619
0.040842269
0.042201982
0.043480666
0.044728655
0.046000197
0.047353961
0.048851561
0.05055384
0.052517959
0.054791135
0.05741839
0.060443314
0.063881134
0.06773078
0.071963384
0.076540223
0.081448821
0.086710461
0.092322372
0.098119783
0.10358942
0.10769245
0.11005665
0.1096268
0.10459345
0.087378945
0.044165998
0.014268343
6.7610301e-11
2.1245473e-09
1.7372971e-08
7.4711966e-08
2.298922e-07
5.8004706e-07
1.2860271e-06
2.6057573e-06
4.9434416e-06
8.9215642e-06
1.5485553e-05
2.6054985e-05
4.2740687e-05
6.8654365e-05
0.00010834682
0.00016842238
0.00025838986
0.00039182157
0.00058789372
0.00087335786
0.0012849078
0.0018716926
0.0026972625
0.0038393534
0.005384512
0.0074130914
0.0099707359
0.01302989
0.016461853
0.020051964
0.023566357
0.026827455
0.029746694
0.032310212
0.034547367
0.036505345
0.038235492
0.039788318
0.041213126
0.042559535
0.043879337
0.045227871
0.046664488
0.04825099
0.050047697
0.052110406
0.054488697
0.057216902
0.060317578
0.063807134
0.067667823
0.071848959
0.076290038
0.080963383
0.085848861
0.090877014
0.095791474
0.10020897
0.10302452
0.10355315
0.1008041
0.090500654
0.060293054
0.019864464
0.0062982664
5.8405526e-11
1.8353017e-09
1.5007736e-08
6.4540374e-08
1.9859419e-07
5.010804e-07
1.1109572e-06
2.2510531e-06
4.2705911e-06
7.7074295e-06
1.3378575e-05
2.2511023e-05
3.6929786e-05
5.9326414e-05
9.3639776e-05
0.00014559145
0.00022343037
0.00033895329
0.00050887404
0.00075660249
0.0011144368
0.0016260152
0.0023485149
0.0033533759
0.00472311
0.0065402301
0.0088639207
0.011694669
0.014940965
0.018418042
0.021898296
0.025186893
0.028169268
0.030810255
0.03312685
0.035161066
0.036963234
0.038584754
0.040076435
0.041489372
0.042876477
0.044293641
0.045799988
0.047456219
0.049320474
0.051444842
0.053873046
0.056636132
0.059747256
0.063199507
0.066951722
0.070928395
0.075056834
0.079267087
0.08349139
0.087587906
0.091376569
0.094469959
0.095577786
0.093999552
0.087138557
0.067753912
0.026381531
0.0081622096
0.0025934405
4.9397549e-11
1.5522401e-09
1.2693066e-08
5.4586222e-08
1.6796513e-07
4.2380108e-07
9.3962637e-07
1.9039188e-06
3.6120826e-06
6.5191266e-06
1.1316299e-05
1.9041939e-05
3.1240908e-05
5.01926e-05
7.9234877e-05
0.00012322087
0.00018915696
0.00028708258
0.00043126186
0.00064175482
0.00094640186
0.0013831475
0.002002369
0.0028683288
0.0040578723
0.005653048
0.0077232597
0.010294726
0.013315096
0.016637635
0.020051565
0.02335069
0.026393133
0.029117221
0.031522418
0.033642055
0.035523502
0.037218074
0.038777572
0.040254179
0.041701482
0.043175285
0.044733521
0.04643444
0.048332343
0.050473443
0.052893098
0.05561116
0.058627627
0.061917434
0.065417415
0.06903798
0.072692055
0.076252069
0.079587558
0.082538891
0.085088196
0.086444059
0.085467137
0.080439309
0.066030187
0.031072944
0.0098354114
0.0030383315
0.0010084421
4.0840699e-11
1.2833545e-09
1.0494319e-08
4.513059e-08
1.3886994e-07
3.5039131e-07
7.7687268e-07
1.5741569e-06
2.9865125e-06
5.3902157e-06
9.3569772e-06
1.5745737e-05
2.5834815e-05
4.1511124e-05
6.553953e-05
0.00010194373
0.00015654037
0.00023768016
0.00035726069
0.00053208083
0.00078559048
0.0011500237
0.0016687264
0.002398095
0.0034077732
0.0047764995
0.0065796296
0.0088646976
0.011617536
0.014735897
0.018038372
0.021318028
0.02440806
0.027215806
0.029716877
0.031930919
0.033899268
0.035671486
0.037299464
0.038835878
0.0403344
0.04185002
0.043438509
0.04515432
0.047046283
0.049152832
0.051498756
0.05409083
0.056913803
0.059923722
0.063039706
0.066176755
0.069189396
0.071913974
0.074169954
0.075899519
0.076921815
0.076123945
0.071970484
0.060139769
0.031224664
0.010335966
0.0032740162
0.0010817996
0.00041809896
3.2954159e-11
1.0355323e-09
8.4678108e-09
3.6415657e-08
1.1205379e-07
2.8273131e-07
6.2686482e-07
1.2702144e-06
2.4099067e-06
4.3496233e-06
7.5508275e-06
1.2706944e-05
2.085023e-05
3.3504986e-05
5.2906036e-05
8.2308469e-05
0.0001264237
0.0001920279
0.00028880063
0.00043046076
0.00063626435
0.00093289476
0.0013566669
0.0019557035
0.0027911859
0.0039357912
0.0054660488
0.0074445763
0.0098909409
0.012750235
0.015883201
0.019097086
0.022208086
0.025090799
0.027690458
0.030006429
0.032069366
0.033924332
0.035621779
0.037213928
0.038753757
0.040294591
0.041889025
0.043586435
0.045428632
0.047444683
0.049646793
0.052027318
0.054554761
0.057166799
0.059780835
0.062306207
0.064522032
0.066239183
0.067331025
0.06774225
0.066742549
0.062658723
0.052030758
0.026948694
0.0098751744
0.0032343152
0.0010850561
0.00042606525
0.00022221999
2.5912884e-11
8.1427122e-10
6.6585006e-09
2.863477e-08
8.8111643e-08
2.2232228e-07
4.9293141e-07
9.9883665e-07
1.8950654e-06
3.4204589e-06
5.9379867e-06
9.9931499e-06
1.6398181e-05
2.6352875e-05
4.1617172e-05
6.4756384e-05
9.9487629e-05
0.00015116565
0.00022745757
0.00033926738
0.00050197687
0.00073705794
0.0010740534
0.0015527629
0.0022251056
0.0031554093
0.0044167116
0.0060794061
0.0081890038
0.010735578
0.013630259
0.016713483
0.019798376
0.022731736
0.025423427
0.027844647
0.030008727
0.031951873
0.033720534
0.035364934
0.036936255
0.038485125
0.040059839
0.041703423
0.043449197
0.045315537
0.047300441
0.049380762
0.051508995
0.053610605
0.055632281
0.057403403
0.058652886
0.059257998
0.059187891
0.057830857
0.053204823
0.042375956
0.020936864
0.0082984658
0.0029955441
0.0010542754
0.000417701
0.00022311152
0.00016227548
1.9837343e-11
6.2335698e-10
5.0973468e-09
2.1921074e-08
6.7453235e-08
1.7019819e-07
3.7736538e-07
7.6467136e-07
1.4508106e-06
2.6186578e-06
4.5461512e-06
7.6510461e-06
1.2555474e-05
2.0178662e-05
3.1869536e-05
4.9595504e-05
7.6209918e-05
0.00011582878
0.00017435736
0.00026021878
0.0003853469
0.00056650758
0.0008269894
0.0011986196
0.0017238437
0.002457135
0.0034641325
0.0048156679
0.0065730246
0.0087628519
0.011348592
0.014217766
0.017206128
0.020142287
0.022902582
0.025422771
0.027690366
0.029726152
0.031568347
0.033262605
0.034856611
0.036396932
0.037926236
0.039479786
0.041080864
0.042735774
0.044427441
0.046115784
0.047740781
0.049237414
0.050567463
0.051430726
0.05155828
0.051119141
0.049348556
0.044049504
0.031797443
0.015169738
0.0063040039
0.0024672912
0.00095508009
0.00040258265
0.00021676281
0.00016130887
0.00014325161
1.4777002e-11
4.6434386e-10
3.7970574e-09
1.6329211e-08
5.0246706e-08
1.267834e-07
2.8110802e-07
5.6962727e-07
1.0807679e-06
1.9507758e-06
3.3867318e-06
5.6999132e-06
9.3539344e-06
1.5033932e-05
2.3745596e-05
3.6956375e-05
5.6795967e-05
8.6339679e-05
0.00013000659
0.0001941148
0.0002876473
0.00042329077
0.00061880685
0.00089875959
0.0012965095
0.0018561085
0.0026331616
0.0036927524
0.0051013597
0.006909575
0.0091262695
0.011694705
0.01449069
0.017353609
0.020133073
0.022727774
0.025090977
0.027219331
0.029136326
0.030878769
0.032488074
0.034004725
0.035463993
0.036891578
0.038298702
0.039677367
0.040995677
0.042195254
0.043224104
0.04406368
0.044533691
0.044332602
0.04346363
0.040991301
0.034934368
0.021443073
0.010012442
0.0044286369
0.0018566894
0.00078570133
0.00036453742
0.00020944482
0.00015573077
0.00014161287
0.00013552576
1.0715976e-11
3.3673255e-10
2.7535473e-09
1.1841618e-08
3.6438048e-08
9.1941765e-08
2.0385799e-07
4.1309531e-07
7.837862e-07
1.4147471e-06
2.4561743e-06
4.1338463e-06
6.7840568e-06
1.0903834e-05
1.7222867e-05
2.6806159e-05
4.1200008e-05
6.2638818e-05
9.4336789e-05
0.00014089709
0.00020888136
0.00030759338
0.00045013765
0.00065480606
0.00094679746
0.0013601341
0.0019393109
0.0027395756
0.0038237318
0.0052524047
0.0070654167
0.0092570688
0.011757995
0.014441176
0.017155784
0.019771482
0.022202263
0.024411622
0.026399402
0.02818695
0.029804844
0.031284241
0.032650332
0.033916554
0.035078628
0.036109666
0.03696724
0.037582345
0.037961288
0.038021482
0.037522481
0.036176736
0.032855931
0.025344914
0.013262502
0.006416892
0.0028994782
0.0013058471
0.00060325034
0.00031114538
0.00019443329
0.00015162547
0.00013653577
0.000133666
0.00012913702
7.5786221e-12
2.3814611e-10
1.9473803e-09
8.3747141e-09
2.5770093e-08
6.5024514e-08
1.4417724e-07
2.9216275e-07
5.5434274e-07
1.0006126e-06
1.7372114e-06
2.9238417e-06
4.7983813e-06
7.7124116e-06
1.2182117e-05
1.8960961e-05
2.9143124e-05
4.4310254e-05
6.6738941e-05
9.9692872e-05
0.00014783201
0.00021778125
0.00031891105
0.00046438752
0.00067253645
0.0009685059
0.0013860492
0.0019688853
0.0027704198
0.0038496312
0.0052603266
0.0070324193
0.0091496945
0.011537103
0.014071544
0.01661556
0.019052771
0.02130836
0.023349129
0.025171846
0.026789144
0.028217477
0.029467512
0.03053588
0.031396098
0.031995077
0.03230823
0.032272969
0.031980511
0.031141195
0.029267916
0.025121183
0.016007853
0.0080229848
0.0038800494
0.0018482735
0.00087897223
0.00044628701
0.00025723709
0.00017723633
0.00014457933
0.00013365206
0.00012918374
0.00012730817
0.00012406588
5.2465149e-12
1.6486334e-10
1.348129e-09
5.7976441e-09
1.7840212e-08
4.5015837e-08
9.9813814e-08
2.0226727e-07
3.8378374e-07
6.9275829e-07
1.2027505e-06
2.0243374e-06
3.3222207e-06
5.3398211e-06
8.4345108e-06
1.3127923e-05
2.0177571e-05
3.0678509e-05
4.6207222e-05
6.9024643e-05
0.00010236152
0.00015081741
0.00022091419
0.00032185358
0.00046653108
0.00067283959
0.00096522525
0.0013762745
0.0019477277
0.0027296641
0.0037757703
0.0051323348
0.0068204793
0.008817238
0.011047378
0.013396101
0.015738621
0.017969733
0.020019169
0.021850071
0.023447656
0.024805265
0.025911421
0.026737724
0.027224339
0.027310109
0.027049096
0.02633797
0.025160066
0.022817705
0.01756285
0.0094481572
0.004810482
0.0023359167
0.0011466591
0.00058890634
0.0003296391
0.00021331845
0.00016112952
0.00013854588
0.00012923132
0.00012687383
0.00012359807
0.00012261939
0.0001197884
3.5798785e-12
1.1249198e-10
9.1987573e-10
3.9559479e-09
1.2173129e-08
3.0716585e-08
6.8109166e-08
1.3802232e-07
2.6189068e-07
4.7274321e-07
8.2078398e-07
1.3814809e-06
2.2672385e-06
3.6441758e-06
5.7561557e-06
8.9590878e-06
1.3769747e-05
2.0935057e-05
3.1530144e-05
4.7096742e-05
6.983796e-05
0.00010289135
0.00015070963
0.00021958699
0.00031837585
0.00045943833
0.0006598518
0.00094280733
0.0013389441
0.0018869753
0.0026323414
0.0036220025
0.0048937374
0.0064604963
0.0082952311
0.010325746
0.012446985
0.014545457
0.016522424
0.018304519
0.019840557
0.021089338
0.022004591
0.022517207
0.022529481
0.022139119
0.021189954
0.019496029
0.01671019
0.010722254
0.0055629237
0.0027922952
0.0014077439
0.00072529205
0.00040202097
0.00025194999
0.00018215514
0.00014908609
0.00013358829
0.00012660986
0.00012336596
0.00012167719
0.00011926875
0.00011829442
0.00011578382
2.4376696e-12
7.6599887e-11
6.2637736e-10
2.6937618e-09
8.2892458e-09
2.0916675e-08
4.6380434e-08
9.3991853e-08
1.7835044e-07
3.2195387e-07
5.5899981e-07
9.4089577e-07
1.5442088e-06
2.4820895e-06
3.9206273e-06
6.1021868e-06
9.378598e-06
1.425822e-05
2.1472484e-05
3.2069722e-05
4.7547074e-05
7.0035314e-05
0.00010255672
0.00014938255
0.00021652354
0.00031239127
0.0004486629
0.00064135057
0.00091198727
0.0012886413
0.001806099
0.0025040748
0.0034216365
0.004587212
0.0060050906
0.007644123
0.0094353399
0.011281688
0.013075811
0.014715779
0.016110365
0.01717157
0.017800044
0.017860664
0.01743152
0.016362976
0.014496879
0.010999725
0.0061539921
0.0032506453
0.0016445236
0.00085136235
0.00047415155
0.00029090632
0.00020366679
0.00016211591
0.0001413983
0.00013051961
0.00012508871
0.00012206248
0.00011898141
0.00011747622
0.0001151006
0.00011444176
0.00011262809
1.6923712e-12
5.3180072e-11
4.3486781e-10
1.870177e-09
5.7549807e-09
1.4522129e-08
3.2202129e-08
6.5261212e-08
1.2383882e-07
2.2356099e-07
3.8818179e-07
6.5341139e-07
1.0724385e-06
1.7238644e-06
2.7230571e-06
4.2383419e-06
6.5140057e-06
9.9028753e-06
1.4912294e-05
2.2268793e-05
3.3008725e-05
4.8604801e-05
7.1141905e-05
0.00010355992
0.00014998613
0.00021618416
0.0003101466
0.0004428479
0.00062913592
0.00088865283
0.0012464645
0.0017327438
0.0023804041
0.0032196616
0.0042684723
0.0055210596
0.0069388598
0.0084494738
0.0099530553
0.011331959
0.012457527
0.013185406
0.013342253
0.012947167
0.011878067
0.0099099846
0.0064060003
0.0034928226
0.0018465213
0.00097774394
0.00053666584
0.00032668523
0.00022579845
0.0001757615
0.00015057611
0.00013702241
0.00012935269
0.00012463699
0.0001217081
0.00011824955
0.00011578182
0.00011364094
0.00011186092
0.00011147684
0.00010997578
1.2366078e-12
3.8858443e-11
3.1775664e-10
1.3665427e-09
4.2052414e-09
1.0611773e-08
2.3531905e-08
4.7692113e-08
9.0504687e-08
1.6339425e-07
2.8373027e-07
4.7762792e-07
7.8398861e-07
1.2603041e-06
1.9909596e-06
3.0990656e-06
4.7632517e-06
7.2414066e-06
1.0904099e-05
1.6281416e-05
2.4128271e-05
3.5514981e-05
5.1952026e-05
7.556058e-05
0.00010930319
0.00015729152
0.00022518875
0.00032071919
0.00045428049
0.00063960425
0.00089430503
0.0012399687
0.0017011706
0.0023025171
0.0030627232
0.0039855405
0.0050488446
0.0061956087
0.0073304033
0.0083235579
0.0090143466
0.009208632
0.0088699757
0.0078977387
0.0060129561
0.0035579059
0.0019671997
0.0010595392
0.00058938092
0.00035560385
0.00024242079
0.00018835638
0.00016042275
0.00014467564
0.00013531622
0.0001294207
0.00012536931
0.00012195457
0.00011810257
0.00011530222
0.00011244388
0.00011103777
0.00010890135
0.00010866677
0.00010743611
9.7912518e-13
3.0767482e-11
2.5159531e-10
1.0820188e-09
3.3297349e-09
8.4026842e-09
1.8633875e-08
3.7767096e-08
7.1674433e-08
1.2940815e-07
2.2473354e-07
3.7835103e-07
6.2110253e-07
9.9857725e-07
1.5776998e-06
2.4561128e-06
3.7754795e-06
5.7402542e-06
8.6440264e-06
1.290627e-05
1.9123243e-05
2.8137898e-05
4.1134914e-05
5.9768296e-05
8.6330037e-05
0.00012396869
0.00017696513
0.00025106731
0.00035387241
0.00049521063
0.0006874244
0.00094533866
0.0012855192
0.0017241285
0.0022725392
0.0029301122
0.0036740887
0.0044481778
0.005155064
0.0056606218
0.0058022658
0.0055251509
0.0046690803
0.0031898618
0.0018957336
0.0010806171
0.00061599231
0.00037207768
0.00025220673
0.00019349303
0.00016654773
0.0001523795
0.00014259017
0.00013584545
0.00013065203
0.00012642489
0.00012246082
0.00011809989
0.00011540863
0.00011238725
0.00011053474
0.00010849607
0.00010659035
0.0001063299
0.00010535944
8.3726163e-13
2.630966e-11
2.1514303e-10
9.2525825e-10
2.847371e-09
7.1855843e-09
1.5935323e-08
3.2299041e-08
6.1300506e-08
1.1068565e-07
1.9223577e-07
3.2367186e-07
5.3140318e-07
8.544759e-07
1.3502204e-06
2.1022893e-06
3.2320399e-06
4.914558e-06
7.401063e-06
1.1049978e-05
1.6369578e-05
2.4075799e-05
3.5169314e-05
5.1036149e-05
7.3575391e-05
0.00010535535
0.00014979434
0.0002113523
0.00029570213
0.00040982501
0.00056193616
0.00076107793
0.0010160473
0.0013331901
0.0017126633
0.0021426542
0.0025915904
0.0030011864
0.0032858607
0.0033388072
0.0030883744
0.0024549954
0.0016020509
0.00097744968
0.00058479407
0.0003642508
0.00024733356
0.00019206784
0.00016571798
0.00015244569
0.00014783971
0.00014305611
0.00013768642
0.00013245244
0.00012758513
0.00012279066
0.00011872682
0.00011593115
0.00011293152
0.00011057465
0.00010807067
0.00010631444
0.00010462433
0.00010434012
0.00010350178
7.3313139e-13
2.3037539e-11
1.8838626e-10
8.1019058e-10
2.4932836e-09
6.2920853e-09
1.3954049e-08
2.828384e-08
5.3681578e-08
9.6932283e-08
1.6835688e-07
2.8348143e-07
4.6544609e-07
7.4846486e-07
1.1827698e-06
1.8416389e-06
2.8313244e-06
4.3049792e-06
6.4820163e-06
9.6747228e-06
1.432432e-05
2.1048894e-05
3.0705477e-05
4.4467584e-05
6.3916956e-05
9.1143584e-05
0.00012883868
0.00018035155
0.00024965879
0.00034115991
0.00045924086
0.00060748849
0.00078740628
0.00099632213
0.001225202
0.001454497
0.0016515579
0.0017690243
0.0017595539
0.0015775667
0.0011712439
0.00077182817
0.00049026701
0.00031969746
0.00022173992
0.00017518791
0.00015333106
0.0001475714
0.00014574655
0.00014521554
0.00014396729
0.00014030655
0.00013430239
0.00012832943
0.00012348165
0.0001196926
0.00011691216
0.00011337884
0.0001109112
0.00010817682
0.00010639931
0.00010467479
0.00010299615
0.00010262597
0.00010190126
6.0791439e-13
1.9102787e-11
1.5621043e-10
6.7181213e-10
2.0674323e-09
5.2173734e-09
1.1570548e-08
2.3452377e-08
4.4510914e-08
8.0371045e-08
1.3958792e-07
2.3502886e-07
3.858659e-07
6.2043343e-07
9.8030377e-07
1.5260627e-06
2.3454331e-06
3.5645968e-06
5.3637899e-06
7.9984559e-06
1.182735e-05
1.7348818e-05
2.5245706e-05
3.6437503e-05
5.2134565e-05
7.3882615e-05
0.00010357508
0.00014339648
0.00019564447
0.00026235661
0.00034470863
0.00044222069
0.00055161616
0.00066593629
0.00077383673
0.00085746043
0.00089395643
0.00085327544
0.00071661655
0.0005200172
0.00035956048
0.00024592169
0.00017833112
0.00014448486
0.00012891763
0.00013234275
0.00013616523
0.00014298617
0.00014623998
0.00014556013
0.0001428993
0.00013596317
0.00012929617
0.0001246906
0.00012123238
0.00011780036
0.00011406987
0.0001113643
0.00010887869
0.00010675484
0.0001048128
0.00010287103
0.00010141823
0.00010114987
0.00010062452
4.483993e-13
1.4090261e-11
1.152209e-10
4.9552575e-10
1.524909e-09
3.8481761e-09
8.5338002e-09
1.7296361e-08
3.2825076e-08
5.9265204e-08
1.0291893e-07
1.732598e-07
2.8439257e-07
4.5714134e-07
7.2201671e-07
1.1233995e-06
1.7253845e-06
2.6198469e-06
3.9374033e-06
5.8619949e-06
8.6497239e-06
1.2652145e-05
1.8343161e-05
2.6346512e-05
3.7457001e-05
5.2642405e-05
7.300439e-05
9.9666927e-05
0.00013355705
0.00017504063
0.00022342798
0.00027640696
0.00032965273
0.00037630864
0.00040668618
0.00040987983
0.00037692354
0.00030449563
0.00022733528
0.00016488305
0.00012732643
0.00010557451
9.8428812e-05
0.00010476262
0.00011495748
0.00013237442
0.00014682754
0.00014954458
0.00014862202
0.00014550866
0.00013752182
0.00013060696
0.00012641906
0.00012263441
0.00011866455
0.00011480628
0.00011229401
0.00010955105
0.00010734541
0.00010503921
0.00010314505
0.00010162986
0.00010031592
9.9918423e-05
9.9473434e-05
2.8369551e-13
8.9146869e-12
7.2898089e-11
3.1350581e-10
9.6474598e-10
2.4344864e-09
5.3984599e-09
1.0940731e-08
2.0760961e-08
3.7477737e-08
6.5069433e-08
1.0951084e-07
1.7968649e-07
2.8869171e-07
4.5567116e-07
7.0839207e-07
1.0868026e-06
1.6478764e-06
2.4720708e-06
3.6716874e-06
5.4012381e-06
7.8694543e-06
1.1351615e-05
1.6199119e-05
2.2840364e-05
3.1762768e-05
4.3460804e-05
5.8330773e-05
7.6498752e-05
9.7569042e-05
0.00012035207
0.00014260669
0.00016091391
0.00017077729
0.00016722224
0.00014936246
0.00012267183
9.7807672e-05
8.0615412e-05
6.8481825e-05
6.8462434e-05
7.4195975e-05
8.5900719e-05
0.00010915073
0.00013987069
0.00014987495
0.00015244331
0.00015139711
0.00014790381
0.0001391458
0.00013238887
0.00012815085
0.00012396746
0.00011960649
0.00011610063
0.00011337853
0.00011041906
0.00010787509
0.00010569116
0.00010364062
0.00010209625
0.00010028659
9.9037306e-05
9.876715e-05
9.8508277e-05
1.5184991e-13
4.7716384e-12
3.9018847e-11
1.6780156e-10
5.1635572e-10
1.3029274e-09
2.889003e-09
5.8542941e-09
1.1107234e-08
2.0046396e-08
3.4794539e-08
5.8535491e-08
9.5995366e-08
1.5412415e-07
2.4305149e-07
3.774107e-07
5.7814413e-07
8.7491399e-07
1.3092293e-06
1.9383333e-06
2.8397249e-06
4.1158335e-06
5.8977102e-06
8.3455153e-06
1.1641938e-05
1.5972652e-05
2.1486183e-05
2.8225012e-05
3.6027483e-05
4.4409273e-05
5.2453317e-05
5.8770724e-05
6.154844e-05
5.9826023e-05
5.4790084e-05
4.89725e-05
4.4063225e-05
4.0972996e-05
4.3386588e-05
4.8227744e-05
5.9703085e-05
7.8836391e-05
0.00011445276
0.00014221946
0.00015298966
0.00015517098
0.00015410334
0.00015054284
0.00014155829
0.00013466878
0.00013003992
0.00012527537
0.00012107143
0.00011762751
0.00011459292
0.00011114507
0.00010869972
0.00010636524
0.00010439111
0.00010246347
0.00010065706
9.9188954e-05
9.816053e-05
9.7893457e-05
9.7688633e-05
6.8615296e-14
2.1561208e-12
1.7630951e-11
7.5820561e-11
2.333035e-10
5.8865696e-10
1.3051029e-09
2.6442716e-09
5.0158685e-09
9.0500573e-09
1.5702071e-08
2.6402141e-08
4.3268418e-08
6.9406214e-08
1.0932324e-07
1.694967e-07
2.591314e-07
3.9114445e-07
5.8339115e-07
8.6009435e-07
1.2533291e-06
1.8042106e-06
2.5630952e-06
3.5875967e-06
4.9365889e-06
6.6576628e-06
8.7659013e-06
1.121291e-05
1.3850336e-05
1.6400439e-05
1.845368e-05
1.9621149e-05
2.0045524e-05
2.0196527e-05
2.0448783e-05
2.1838525e-05
2.5003598e-05
2.9518306e-05
3.9345127e-05
5.5989691e-05
8.1778304e-05
0.00011790749
0.00014311853
0.00015478802
0.00015775869
0.00015674256
0.00015332274
0.00014437063
0.00013706163
0.0001318136
0.00012672871
0.00012268461
0.00011925177
0.00011561392
0.00011221194
0.00010971024
0.00010734282
0.00010504079
0.00010312543
0.00010115948
9.9757911e-05
9.8238001e-05
9.7249803e-05
9.6951612e-05
9.6872054e-05
2.6585964e-14
8.3541728e-13
6.8312612e-12
2.9376465e-11
9.0387968e-11
2.280418e-10
5.0552333e-10
1.0240533e-09
1.9420085e-09
3.5027079e-09
6.0744131e-09
1.0207358e-08
1.6714173e-08
2.678185e-08
4.2125146e-08
6.5192441e-08
9.9434354e-08
1.4964055e-07
2.2233718e-07
3.2621025e-07
4.7246956e-07
6.7498537e-07
9.4990887e-07
1.3143437e-06
1.7835227e-06
2.3660539e-06
3.057418e-06
3.833508e-06
4.648992e-06
5.4573058e-06
6.3064399e-06
7.3237805e-06
8.6299479e-06
1.0378018e-05
1.2958174e-05
1.7730745e-05
2.513368e-05
3.8292708e-05
5.7875808e-05
8.401799e-05
0.0001160387
0.00014032434
0.0001555211
0.00016017828
0.00015929749
0.00015623486
0.0001475249
0.00013956944
0.00013378954
0.00012855375
0.00012455698
0.00012080936
0.00011697875
0.00011359137
0.00011106908
0.00010818832
0.00010585855
0.00010376445
0.00010194566
0.00010023666
9.8696971e-05
9.7294394e-05
9.6422599e-05
9.6265506e-05
9.6154965e-05
1.0062535e-14
3.1619701e-13
2.585543e-12
1.1118396e-11
3.4208843e-11
8.6301619e-11
1.9129859e-10
3.8747696e-10
7.3470117e-10
1.3248889e-09
2.2970532e-09
3.8587049e-09
6.3159636e-09
1.0115357e-08
1.5900931e-08
2.4590682e-08
3.7476143e-08
5.6347489e-08
8.3642824e-08
1.2261295e-07
1.7748106e-07
2.5356059e-07
3.5727994e-07
4.9606425e-07
6.7807185e-07
9.1190578e-07
1.2065542e-06
1.5778203e-06
2.0580496e-06
2.7201832e-06
3.6912507e-06
5.1333845e-06
7.3532797e-06
1.0860143e-05
1.6712435e-05
2.5982674e-05
3.9842831e-05
5.8808353e-05
8.3169487e-05
0.00011227652
0.00013843088
0.0001574926
0.00016277456
0.00016201866
0.00015934825
0.00015096451
0.00014209431
0.00013601517
0.00013063363
0.00012640743
0.00012233124
0.00011849001
0.00011524551
0.00011223039
0.00010918823
0.00010675333
0.00010474522
0.00010267073
0.00010095438
9.9186604e-05
9.7820996e-05
9.653281e-05
9.5794644e-05
9.5530899e-05
9.5278009e-05
5.806273e-15
1.8245213e-13
1.4919294e-12
6.4158151e-12
1.9741179e-11
4.980758e-11
1.1042146e-10
2.2370985e-10
4.2431821e-10
7.6553018e-10
1.3281208e-09
2.2330706e-09
3.6596922e-09
5.8712755e-09
9.251089e-09
1.4352499e-08
2.1968172e-08
3.3224895e-08
4.9712854e-08
7.3661968e-08
1.0818521e-07