/*--------------------------------*- C++ -*----------------------------------*\
  =========                 |
  \\      /  F ield         | OpenFOAM: The Open Source CFD Toolbox
   \\    /   O peration     | Website:  https://openfoam.org
    \\  /    A nd           | Version:  13
     \\/     M anipulation  |
\*---------------------------------------------------------------------------*/
FoamFile
{
    format      ascii;
    class       surfaceScalarField;
    location    "19.99889";
    object      phi;
}
// * * * * * * * * * * * * * * * * * * * * * * * * * * * * * * * * * * * * * //

dimensions      [0 3 -1 0 0 0 0];

internalField   nonuniform List<scalar> 
34068
(
-4.6549711e-08
1.0873114e-07
-6.2181426e-08
-2.0691869e-07
3.7507795e-07
-2.1470898e-07
-5.1859619e-07
7.2969291e-07
-4.1801541e-07
-1.028395e-06
1.1945982e-06
-6.8479937e-07
-1.7944438e-06
1.7965466e-06
-1.0304978e-06
-2.8885324e-06
2.5678855e-06
-1.473797e-06
-4.3988608e-06
3.5475435e-06
-2.0372151e-06
-6.4332268e-06
4.7821326e-06
-2.7477666e-06
-9.1226903e-06
6.3271619e-06
-3.6376984e-06
-1.2625735e-05
8.248347e-06
-4.7453023e-06
-1.7132913e-05
1.0622966e-05
-6.1157872e-06
-2.287194e-05
1.3541222e-05
-7.8021953e-06
-3.0113132e-05
1.7107514e-05
-9.8663217e-06
-3.9175005e-05
2.1441481e-05
-1.2379607e-05
-5.042976e-05
2.6678661e-05
-1.5423906e-05
-6.4308178e-05
3.2970497e-05
-1.9092079e-05
-8.130332e-05
4.0483392e-05
-2.348825e-05
-0.00010197209
4.9396385e-05
-2.872761e-05
-0.00012693349
5.9896912e-05
-3.4935516e-05
-0.00015686185
7.2174053e-05
-4.2245694e-05
-0.00019247319
8.6408465e-05
-5.0797124e-05
-0.00023450242
0.00010275845
-6.0729223e-05
-0.0002836695
0.000121342
-7.2174916e-05
-0.00034063486
0.00014221691
-8.5251558e-05
-0.00040594939
0.00016536601
-0.00010005148
-0.00048001471
0.00019070315
-0.00011663782
-0.00056308032
0.00021812228
-0.00013505668
-0.00065530161
0.00024759687
-0.00015537558
-0.00075685053
0.00027928811
-0.00017773919
-0.00086802785
0.00031358656
-0.00020240924
-0.00098932706
0.00035106345
-0.00022976424
-0.0011214449
0.00039239086
-0.00026027306
-0.001265267
0.00043829347
-0.00029447134
-0.0014218565
0.00048954312
-0.00033295358
-0.0015924578
0.00054697834
-0.00037637702
-0.00177852
0.00061153253
-0.00042547039
-0.0019817406
0.00068426319
-0.00048104255
-0.0022041328
0.00076637942
-0.00054398724
-0.0024481182
0.00085926535
-0.00061527998
-0.0027166496
0.00096449298
-0.00069596154
-0.0030133635
0.0010838131
-0.00078709928
-0.0033427607
0.0012191118
-0.00088971462
-0.0037104258
0.0013723288
-0.0010046637
-0.0041232693
0.0015453152
-0.0011324718
-0.0045897043
0.0017395381
-0.001273103
-0.0051198475
0.0019556847
-0.0014255415
-0.005726039
0.0021934031
-0.0015872115
-0.0064234327
0.0024506751
-0.0017532815
-0.0072306492
0.002722797
-0.0019155805
-0.0081706984
0.0030010685
-0.0020610192
-0.0092721259
0.0032708469
-0.0021694195
-0.010570412
0.0035090678
-0.0022107813
-0.012109581
0.0036808978
-0.0021417295
-0.013943048
0.0037373965
-0.0019039293
-0.016131005
0.0036105906
-0.0014226335
-0.018732693
0.0032101178
-0.0006084298
-0.021790472
0.0024149018
0.00064287691
-0.025314329
0.0010976263
0.0024262308
-0.029258788
-0.00089006042
0.0048345195
-0.033485284
-0.0038288125
0.0080553091
-0.037675576
-0.0077474183
0.01193771
-0.040605434
-0.012658921
0.015588778
-0.040243263
-0.018091917
0.017729746
-0.033915351
-0.022318126
0.015990213
-0.022659643
-0.019256771
0.0080010631
-4.585033e-08
1.5458147e-07
-2.0382095e-07
5.3304858e-07
-5.1086614e-07
1.0367381e-06
-1.0131523e-06
1.6968843e-06
-1.7680226e-06
2.551417e-06
-2.8463237e-06
3.6461867e-06
-4.3351334e-06
5.0363532e-06
-6.3409309e-06
6.78793e-06
-8.9932518e-06
8.9794828e-06
-1.244884e-05
1.1703935e-05
-1.6896311e-05
1.5070436e-05
-2.2561265e-05
1.9206176e-05
-2.9711802e-05
2.4258051e-05
-3.8664214e-05
3.0393893e-05
-4.9788629e-05
3.7803075e-05
-6.3514152e-05
4.6696021e-05
-8.0332873e-05
5.7302113e-05
-0.00010080185
6.9865362e-05
-0.00012554189
8.4636951e-05
-0.00015523144
0.0001018636
-0.00019059365
0.00012177068
-0.00023237427
0.00014453908
-0.00028130843
0.00017027616
-0.0003380761
0.00019898458
-0.00040325112
0.00023054103
-0.00047725849
0.00026471051
-0.00056036622
0.00030123002
-0.0006527374
0.00033996805
-0.00075453788
0.00038108858
-0.00086605151
0.00042510019
-0.00098774997
0.00047276192
-0.0011203076
0.00052494845
-0.0012645876
0.00058257351
-0.0014216291
0.0006465846
-0.0015926476
0.00071799682
-0.0017790549
0.0007979399
-0.0019824992
0.00088770747
-0.0022049267
0.00098880687
-0.0024486684
0.0011030071
-0.0027165551
0.0012323797
-0.003012061
0.001379319
-0.0033394737
0.0015465245
-0.0037040984
0.0017369534
-0.0041124736
0.0019536904
-0.0045725207
0.0021995852
-0.0050936982
0.0024768622
-0.0056874751
0.00278718
-0.0063678036
0.0031310036
-0.0071516502
0.0035066437
-0.0080597295
0.0039091477
-0.0091173501
0.0043284676
-0.010355334
0.0047470514
-0.011810834
0.0051363977
-0.013527165
0.0054537281
-0.015549831
0.0056332563
-0.017918089
0.0055783754
-0.020648437
0.0051452497
-0.023724238
0.004173428
-0.027090898
0.0024765994
-0.030620312
-0.00029939864
-0.033896868
-0.0044708623
-0.03593937
-0.010616419
-0.035041436
-0.018989851
-0.028376601
-0.028982961
-0.037380442
-0.013655802
-4.4094759e-08
1.9867623e-07
-1.9604955e-07
6.8500337e-07
-4.9146034e-07
1.3321489e-06
-9.7481899e-07
2.180243e-06
-1.70142e-06
3.2780179e-06
-2.7396242e-06
4.6843909e-06
-4.1735125e-06
6.4702415e-06
-6.1059937e-06
8.7204113e-06
-8.6623768e-06
1.1535866e-05
-1.1994472e-05
1.5036031e-05
-1.6285196e-05
1.936116e-05
-2.1753684e-05
2.4674664e-05
-2.8660808e-05
3.1165175e-05
-3.7314997e-05
3.9048081e-05
-4.8078046e-05
4.8566124e-05
-6.1370587e-05
5.9988562e-05
-7.7676582e-05
7.3608108e-05
-9.7546015e-05
8.9734795e-05
-0.00012159458
0.00010868551
-0.0001504988
0.00013076783
-0.00018498456
0.00015625644
-0.00022580661
0.00018536113
-0.00027371696
0.00021818651
-0.0003294212
0.00025468882
-0.00039352673
0.00029464655
-0.00046649547
0.00033767925
-0.00054862649
0.00038336105
-0.00064009641
0.00043143796
-0.00074106009
0.00048205227
-0.00085176931
0.0005358094
-0.00097265238
0.00059364499
-0.0011043366
0.00065663269
-0.0012476366
0.00072587347
-0.0014035378
0.00080248585
-0.0015731929
0.00088765184
-0.0017579342
0.00098268123
-0.0019593067
0.00108908
-0.00217912
0.0012086202
-0.0024195235
0.0013434107
-0.002683106
0.0014959622
-0.0029730202
0.0016692332
-0.0032931324
0.0018666367
-0.0036482006
0.0020920216
-0.0040440377
0.0023495275
-0.0044875996
0.0026431472
-0.0049871016
0.0029763642
-0.0055523614
0.0033524397
-0.0061950747
0.0037737169
-0.0069291394
0.0042407083
-0.0077710485
0.0047510568
-0.0087402327
0.0052976518
-0.0098592204
0.0058660391
-0.01115334
0.0064305169
-0.012649275
0.006949664
-0.014369897
0.0073538783
-0.016325266
0.0075337435
-0.018496248
0.0073162318
-0.020826569
0.0065037495
-0.023227625
0.004877655
-0.025527756
0.0020007326
-0.027274774
-0.0027238441
-0.027592299
-0.010298894
-0.024995524
-0.021586625
-0.016575338
-0.037403147
-0.053818404
-0.00013737563
-4.1221369e-08
2.398976e-07
-1.833298e-07
8.271118e-07
-4.5969102e-07
1.6085101e-06
-9.120402e-07
2.6325922e-06
-1.5922908e-06
3.9582685e-06
-2.5646833e-06
5.6567834e-06
-3.9083283e-06
7.8138865e-06
-5.7201691e-06
1.0532252e-05
-8.1184394e-06
1.3934136e-05
-1.124662e-05
1.8164212e-05
-1.5277951e-05
2.339249e-05
-2.042045e-05
2.9817163e-05
-2.6922443e-05
3.7667168e-05
-3.507843e-05
4.7204068e-05
-4.5235132e-05
5.8722826e-05
-5.7797345e-05
7.2550774e-05
-7.3233083e-05
8.9043847e-05
-9.2077231e-05
0.00010857894
-0.00011493258
0.00013154087
-0.00014246672
0.00015830197
-0.00017540283
0.00018919254
-0.00021450184
0.00022446013
-0.00026053343
0.0002642181
-0.00031423448
0.00030838987
-0.00037625662
0.00035666869
-0.00044711354
0.00040853617
-0.00052715045
0.00046339795
-0.00061656666
0.00052085417
-0.00071550401
0.00058098962
-0.00082416804
0.00064447344
-0.00094292126
0.00071239821
-0.0010723175
0.00078602896
-0.0012130941
0.00086665
-0.0013661516
0.00095554341
-0.0015325431
0.0010540433
-0.0017134773
0.0011636154
-0.0019103397
0.0012859424
-0.002124731
0.0014230114
-0.0023585239
0.0015772036
-0.0026139416
0.0017513798
-0.0028936536
0.0019489452
-0.0032008929
0.002173876
-0.0035395974
0.002430726
-0.0039145036
0.0027244337
-0.0043311413
0.0030597849
-0.0047959264
0.0034411493
-0.0053162971
0.0038728104
-0.0059007555
0.0043581754
-0.006558924
0.0048988768
-0.0073015363
0.0054936691
-0.0081402
0.0061363156
-0.0090867509
0.00681259
-0.010151899
0.0074956652
-0.011342748
0.0081405125
-0.012656966
0.0086680964
-0.01407405
0.008950828
-0.015539828
0.0087820098
-0.016959032
0.0079229529
-0.018204801
0.0061234241
-0.0190482
0.0028441321
-0.019002062
-0.0027699827
-0.017176788
-0.012124168
-0.012294115
-0.026469299
-0.0013630331
-0.048334229
-0.072731346
0.017549909
-3.7209957e-08
2.7710755e-07
-1.6555702e-07
9.5545886e-07
-4.1527577e-07
1.8582289e-06
-8.2422831e-07
3.0415447e-06
-1.4395705e-06
4.5736108e-06
-2.3197469e-06
6.5369598e-06
-3.5368447e-06
9.0309842e-06
-5.1793831e-06
1.217479e-05
-7.3555504e-06
1.6110304e-05
-1.0196989e-05
2.100565e-05
-1.3863097e-05
2.7058599e-05
-1.8545942e-05
3.4500008e-05
-2.4475674e-05
4.35969e-05
-3.1926479e-05
5.4654874e-05
-4.1222812e-05
6.8019158e-05
-5.2745719e-05
8.4073681e-05
-6.6938742e-05
0.00010323687
-8.4312774e-05
0.00012595298
-0.00010544885
0.00015267694
-0.00013099739
0.00018385051
-0.00016167203
0.00021986719
-0.00019823549
0.00026102359
-0.00024147453
0.00030745714
-0.00029216166
0.00035907701
-0.00035100325
0.00041551028
-0.00041858061
0.00047611353
-0.00049530341
0.00054012075
-0.00058140792
0.00060695868
-0.00067702579
0.00067660749
-0.00078230486
0.00074975251
-0.00089751928
0.00082761263
-0.0010231213
0.00091163096
-0.0011597397
0.0010032684
-0.0013081568
0.0011039606
-0.0014692878
0.0012151743
-0.0016441717
0.0013384994
-0.0018339773
0.001475748
-0.0020400226
0.0016290567
-0.002263809
0.00180099
-0.0025070703
0.0019946411
-0.002771833
0.002213708
-0.0030604912
0.0024625343
-0.0033758943
0.0027461291
-0.0037213632
0.0030699025
-0.0041005963
0.003439018
-0.0045176978
0.0038582509
-0.004977089
0.0043322016
-0.0054833186
0.004864405
-0.0060408247
0.005456383
-0.0066535293
0.0061063737
-0.0073240755
0.0068068618
-0.0080524913
0.0075410058
-0.0088339996
0.0082771735
-0.0096557654
0.0089622783
-0.010490574
0.0095029048
-0.011288347
0.0097486014
-0.011961954
0.0094556165
-0.012379298
0.0083402968
-0.012374757
0.0061188831
-0.011657594
0.0021269691
-0.0096965521
-0.0047310244
-0.0054951161
-0.016325604
0.002181459
-0.034145874
0.015956746
-0.062109516
-0.094278159
0.037503559
-3.2067496e-08
3.0917505e-07
-1.4276404e-07
1.0661554e-06
-3.5829574e-07
2.0737605e-06
-7.1153639e-07
3.3947854e-06
-1.243513e-06
5.1055874e-06
-2.0051843e-06
7.2986311e-06
-3.0595712e-06
1.0085371e-05
-4.4842727e-06
1.3599492e-05
-6.3744588e-06
1.800049e-05
-8.8463548e-06
2.3477546e-05
-1.2041301e-05
3.0253545e-05
-1.6130424e-05
3.8589131e-05
-2.1319945e-05
4.8786421e-05
-2.7857074e-05
6.1192003e-05
-3.6036453e-05
7.6198537e-05
-4.6206931e-05
9.4244159e-05
-5.8778365e-05
0.0001158083
-7.4227857e-05
0.00014140247
-9.3104613e-05
0.00017155369
-0.00011603213
0.00020677803
-0.00014370583
0.00024754088
-0.00017688368
0.00029420144
-0.00021636663
0.00034694009
-0.00026296513
0.00040567552
-0.00031744937
0.00046999452
-0.00038048485
0.00053914901
-0.0004525676
0.00061220351
-0.00053399172
0.0006883828
-0.00062488923
0.00076750499
-0.00072534422
0.0008502075
-0.00083552137
0.00093778978
-0.00095574144
0.001031851
-0.0010864915
0.0011340185
-0.0012283995
0.0012458686
-0.0013822028
0.0013689775
-0.001548724
0.0015050205
-0.0017288577
0.0016558817
-0.001923567
0.001823766
-0.0021338894
0.0020113124
-0.0023609498
0.0022217015
-0.0026059799
0.0024587381
-0.0028703428
0.0027268972
-0.0031555482
0.0030313345
-0.0034631877
0.003377542
-0.0037947836
0.0037706139
-0.0041516919
0.0042151592
-0.0045348054
0.004715315
-0.0049441543
0.0052737539
-0.0053783907
0.0058906193
-0.0058340417
0.0065620247
-0.0063043448
0.0072771649
-0.0067774005
0.0080140614
-0.0072333622
0.0087331353
-0.0076405093
0.0093694254
-0.0079477275
0.009810123
-0.0080746493
0.0098755231
-0.007901237
0.0092822043
-0.0072626679
0.0077017276
-0.0059563034
0.0048125186
-0.0036127095
-0.00021662486
0.00037236177
-0.0087160957
0.0071016136
-0.023054855
0.017933305
-0.044977565
0.034986712
-0.079162922
-0.11819033
0.058898882
-2.5851511e-08
3.3502656e-07
-1.1520209e-07
1.155506e-06
-2.8937025e-07
2.2479287e-06
-5.7517314e-07
3.6805883e-06
-1.0061841e-06
5.5365984e-06
-1.6242562e-06
7.9167032e-06
-2.4813519e-06
1.0942467e-05
-3.6417471e-06
1.4759887e-05
-5.1846667e-06
1.9543409e-05
-7.2074201e-06
2.55003e-05
-9.8291081e-06
3.2875233e-05
-1.3194989e-05
4.1955012e-05
-1.7481511e-05
5.3072942e-05
-2.2902148e-05
6.661264e-05
-2.9713935e-05
8.3010325e-05
-3.8224692e-05
0.00010275492
-4.880072e-05
0.00012638433
-6.1874577e-05
0.00015447633
-7.7952246e-05
0.00018763136
-9.7618705e-05
0.00022644449
-0.00012154017
0.00027146235
-0.00015046052
0.00032312178
-0.00018518863
0.00038166821
-0.00022657193
0.00044705881
-0.00027545077
0.00051887336
-0.00033259081
0.00059628905
-0.00039859959
0.00067821228
-0.0004738581
0.00076364131
-0.00055852014
0.00085216704
-0.00065260915
0.00094429651
-0.00075616335
0.001041344
-0.00086934188
0.0011450296
-0.00099245405
0.0012571306
-0.0011259349
0.0013793495
-0.0012703026
0.0015133452
-0.001426116
0.0016608339
-0.0015939394
0.0018237052
-0.001774312
0.0020041386
-0.0019677196
0.00220472
-0.0021745683
0.0024285502
-0.0023951549
0.0026793248
-0.0026296343
0.0029613766
-0.002877955
0.0032796552
-0.0031397184
0.0036393054
-0.0034139752
0.0040448707
-0.0036989831
0.0045001671
-0.0039917302
0.0050080621
-0.0042873515
0.0055693752
-0.0045783771
0.006181645
-0.0048537241
0.0068373717
-0.0050972739
0.0075207146
-0.0052857027
0.0082024903
-0.0053852409
0.0088326735
-0.0053467106
0.009330895
-0.0050962261
0.0095596385
-0.0045193935
0.0092986905
-0.0034561727
0.0082189835
-0.0017199386
0.0059654935
0.00092613809
0.0021664419
0.0049482187
-0.0042387054
0.011089192
-0.014857069
0.020506719
-0.032472383
0.034691114
-0.05916196
0.055123078
-0.099594887
-0.14358428
0.080517025
-1.8677627e-08
3.5370419e-07
-8.3373705e-08
1.2202021e-06
-2.0973996e-07
2.374295e-06
-4.1756504e-07
3.8884133e-06
-7.3176561e-07
5.8507989e-06
-1.1835957e-06
8.3685333e-06
-1.8121298e-06
1.1571001e-05
-2.6660837e-06
1.5613841e-05
-3.8060156e-06
2.0683341e-05
-5.3070231e-06
2.7001307e-05
-7.2619999e-06
3.483021e-05
-9.7855514e-06
4.4478564e-05
-1.3018718e-05
5.6306109e-05
-1.7134533e-05
7.0728455e-05
-2.2344602e-05
8.8220394e-05
-2.8906637e-05
0.00010931695
-3.7132997e-05
0.00013461069
-4.7400023e-05
0.00016474335
-6.0157724e-05
0.00020038906
-7.5938971e-05
0.00024222574
-9.5366945e-05
0.00029089032
-0.00011915847
0.00034691331
-0.00014811978
0.00041062951
-0.00018312917
0.0004820682
-0.0002250991
0.00056084329
-0.00027490848
0.00064609842
-0.00033330338
0.00073660719
-0.00040078927
0.0008311272
-0.00047757765
0.00092895541
-0.00056364862
0.0010303675
-0.00065890548
0.0011366008
-0.00076331721
0.0012494413
-0.00087697719
0.0013707906
-0.0010000863
0.0015024586
-0.0011329001
0.0016461589
-0.0012756669
0.0018036006
-0.0014285664
0.0019766048
-0.001591649
0.0021672211
-0.0017647696
0.0023778406
-0.0019475168
0.0026112973
-0.0021391297
0.0028709377
-0.0023384003
0.0031606472
-0.0025435304
0.0034847853
-0.0027519215
0.0038476965
-0.0029599154
0.0042528646
-0.0031624086
0.0047026603
-0.0033522323
0.0051978859
-0.0035194057
0.0057365486
-0.0036501925
0.0063124317
-0.0037259143
0.0069130935
-0.0037214103
0.0075162106
-0.0036027272
0.0080838072
-0.0033235186
0.0085534648
-0.0028190179
0.0088263944
-0.0019871252
0.0087277458
-0.000669599
0.0079811643
0.0013249884
0.0062243961
0.0041842338
0.0031062481
0.0082085101
-0.0018578344
0.013982181
-0.010012377
0.022406716
-0.023281604
0.034722865
-0.044788531
0.052474351
-0.076913447
0.075747553
-0.12286809
-0.1681977
0.10036098
-1.0723548e-08
3.6442773e-07
-4.8066167e-08
1.2575447e-06
-1.2136625e-07
2.4475951e-06
-2.4257381e-07
4.0096209e-06
-4.2693112e-07
6.0351562e-06
-6.9383058e-07
8.6354327e-06
-1.0679004e-06
1.1945071e-05
-1.5803554e-06
1.6126296e-05
-2.2707153e-06
2.1373701e-05
-3.1889472e-06
2.7919539e-05
-4.398165e-06
3.6039428e-05
-5.9780001e-06
4.6058399e-05
-8.0288143e-06
5.8356923e-05
-1.0676864e-05
7.3376504e-05
-1.4080703e-05
9.1624233e-05
-1.8438902e-05
0.00011367515
-2.3999273e-05
0.00014017106
-3.1069568e-05
0.00017181365
-4.0029675e-05
0.00020934917
-5.1344658e-05
0.00025354072
-6.5577701e-05
0.00030512336
-8.3401223e-05
0.00036473683
-0.00010560245
0.00043283074
-0.00013307782
0.00050954358
-0.00016680627
0.00059457173
-0.00020778725
0.0006870794
-0.00025693108
0.00078575102
-0.00031491276
0.00088910889
-0.00038205449
0.00099609714
-0.00045833158
0.0011066446
-0.00054351929
0.0012217886
-0.00063737362
0.0013432956
-0.00073973292
0.0014731499
-0.00085051944
0.0016132451
-0.00096968038
0.0017653199
-0.0010971061
0.0019310264
-0.0012325408
0.0021120394
-0.0013754865
0.0023101668
-0.0015250979
0.002527452
-0.0016800613
0.0027662607
-0.0018384554
0.0030293318
-0.0019975842
0.0033197761
-0.0021537583
0.0036409594
-0.0023020202
0.0039959584
-0.0024358242
0.0043866685
-0.0025465186
0.0048133547
-0.0026226165
0.0052739838
-0.0026489263
0.0057628583
-0.0026054236
0.006268929
-0.0024659286
0.0067735986
-0.0021965687
0.0072468507
-0.0017536652
0.0076409037
-0.0010795233
0.0078793229
-8.8748337e-05
0.0078356194
0.0013625065
0.007276491
0.00347015
0.0058735207
0.0064244778
0.0032700683
0.010421074
-0.00089034766
0.015878444
-0.0073152051
0.02352423
-0.017658162
0.034433121
-0.034190495
0.049935112
-0.060290522
0.071223017
-0.098201352
0.095563187
-0.14720826
-0.18865954
0.11602503
-2.2347283e-09
3.6666246e-07
-1.0364748e-08
1.2656747e-06
-2.6953548e-08
2.4641839e-06
-5.5524888e-08
4.0381922e-06
-1.0090744e-07
6.0805388e-06
-1.6969815e-07
8.7042234e-06
-2.7089497e-07
1.2046268e-05
-4.1673522e-07
1.6272136e-05
-6.2383989e-07
2.1580806e-05
-9.1471491e-07
2.8210414e-05
-1.3197959e-06
3.6444509e-05
-1.880099e-06
4.6618702e-05
-2.6507628e-06
5.9127587e-05
-3.7056524e-06
7.4431394e-05
-5.143316e-06
9.3061896e-05
-7.0946096e-06
0.00011562644
-9.7322708e-06
0.00014280872
-1.3282835e-05
0.00017536421
-1.8040912e-05
0.00021410725
-2.4385964e-05
0.00025988577
-3.2800964e-05
0.00031353836
-4.3891582e-05
0.00037582745
-5.8402967e-05
0.00044734213
-7.7228051e-05
0.00052836866
-0.0001013964
0.00061874008
-0.00013202479
0.00071770779
-0.00017020665
0.00082393289
-0.0002168347
0.00093573693
-0.00027241261
0.001051675
-0.00033697765
0.0011712096
-0.00041020945
0.0012950204
-0.00049164113
0.0014247273
-0.0005808188
0.0015623276
-0.00067733888
0.0017097652
-0.00078079188
0.0018687729
-0.00089066211
0.0020408966
-0.0010062088
0.0022275861
-0.0011263336
0.0024302916
-0.0012494313
0.0026505497
-0.001373218
0.0028900474
-0.0014945323
0.0031506461
-0.0016090973
0.0034343412
-0.0017112296
0.0037430916
-0.0017935058
0.0040782346
-0.0018463741
0.0044395368
-0.0018575217
0.0048245023
-0.0018110488
0.0052275109
-0.0016865033
0.0056383129
-0.0014575852
0.0060400108
-0.0010906979
0.0064067113
-0.0005435858
0.0066997386
0.00023693821
0.0068603796
0.0013213699
0.0067948913
0.0028303387
0.0063266506
0.0049493028
0.0051575269
0.0078846121
0.0029382115
0.011812229
-0.00065754821
0.016988683
-0.0060668021
0.0239924
-0.014318922
0.03372783
-0.027393592
0.047456107
-0.047918771
0.066431621
-0.079266037
0.090128001
-0.12189773
0.11214993
-0.16923019
-0.20284518
0.12633557
6.4722599e-09
3.601902e-07
2.8332393e-08
1.2438146e-06
7.0009477e-08
2.4225068e-06
1.3669516e-07
3.9715066e-06
2.3435634e-07
5.9828776e-06
3.6969241e-07
8.5688873e-06
5.4999916e-07
1.1865961e-05
7.8288323e-07
1.6039252e-05
1.0757732e-06
2.1287916e-05
1.435118e-06
2.7851069e-05
1.8651601e-06
3.6014467e-05
2.3660831e-06
4.6117779e-05
2.9313702e-06
5.85623e-05
3.5439933e-06
7.3818771e-05
4.1712066e-06
9.2434683e-05
4.7573732e-06
0.00011504028
5.2143887e-06
0.00014235171
5.4092113e-06
0.00017516939
5.1478406e-06
0.00021436862
4.1554137e-06
0.0002608782
2.0522663e-06
0.00031564151
-1.6732142e-06
0.00037955293
-7.6930381e-06
0.00045336195
-1.686373e-05
0.00053753935
-3.0234772e-05
0.00063211113
-4.9020065e-05
0.00073649308
-7.4499714e-05
0.00084941254
-0.00010782686
0.00096906407
-0.00014977339
0.0010936216
-0.0002005412
0.0012219774
-0.00025978397
0.0013542631
-0.00032682787
0.0014917712
-0.00040089707
0.0016363968
-0.00048121563
0.0017900838
-0.00056696527
0.0019545225
-0.00065717399
0.0021311054
-0.0007505682
0.0023209803
-0.00084540174
0.0025251252
-0.00093926112
0.0027444091
-0.0010288412
0.0029796275
-0.0011096852
0.00323149
-0.0011758777
0.0035005337
-0.0012196816
0.0037868954
-0.0012311466
0.0040896997
-0.0011976557
0.0044060459
-0.0011031876
0.0047300341
-0.0009273999
0.0050517232
-0.00064455164
0.0053554646
-0.00022206281
0.005617522
0.00038111217
0.0058035363
0.001215381
0.0058654698
0.0023435
0.0057322606
0.0038596886
0.0052787027
0.0059267377
0.0042596016
0.0087518342
0.0023324304
0.012537716
-0.00084767025
0.01746698
-0.0055868125
0.023939488
-0.01253931
0.032719576
-0.023099011
0.044932675
-0.039606691
0.061929289
-0.064915385
0.084018297
-0.10135504
0.1070185
-0.14489794
0.12306826
-0.18527994
-0.21108902
0.1313121
1.5011825e-08
3.4517838e-07
6.6316927e-08
1.1925095e-06
1.6525865e-07
2.323565e-06
3.2566339e-07
3.8111018e-06
5.642304e-07
5.7443106e-06
9.0091468e-07
8.2322031e-06
1.3593127e-06
1.1407563e-05
1.9669757e-06
1.5431589e-05
2.7556112e-06
2.049928e-05
3.7610794e-06
2.6845601e-05
5.0230427e-06
3.4752503e-05
6.5841268e-06
4.4556695e-05
8.4883011e-06
5.6658126e-05
1.0778193e-05
7.1528879e-05
1.3490903e-05
8.9721973e-05
1.6651765e-05
0.00011187942
2.0265408e-05
0.00013873806
2.4303284e-05
0.00017113151
2.8686777e-05
0.00020998513
3.3265033e-05
0.00025629994
3.7786678e-05
0.00031111987
4.1865274e-05
0.00037547433
4.4939691e-05
0.00045028753
4.6233271e-05
0.00053624577
4.4722501e-05
0.0006336219
3.9137428e-05
0.00074207816
2.8032787e-05
0.00086051718
9.9764553e-06
0.0009871204
-1.6148255e-05
0.0011197463
-5.0865063e-05
0.0012566942
-9.3913131e-05
0.0013973112
-0.00014444837
0.0015423064
-0.00020139679
0.0016933452
-0.0002635674
0.0018522544
-0.00032967753
0.0020206327
-0.00039824323
0.0021996711
-0.00046740902
0.0023901461
-0.00053473716
0.0025924533
-0.00059696682
0.0028066388
-0.00064973658
0.0030323973
-0.00068726374
0.0032690172
-0.00070197048
0.0035152405
-0.00068405029
0.0037689753
-0.00062101192
0.0040266614
-0.00049715997
0.004282194
-0.00029276525
0.0045256394
1.6987567e-05
0.0047419704
0.00046300755
0.0049094447
0.0010843859
0.0049961436
0.0019296947
0.0049582275
0.0030578729
0.0047372916
0.0045451307
0.0042450029
0.0065225413
0.003301292
0.0091848735
0.0015972694
0.012749051
-0.0012317473
0.017407318
-0.0055059367
0.023433689
-0.011613184
0.03145539
-0.020561011
0.042446804
-0.034090424
0.057712141
-0.054872028
0.078082275
-0.08528552
0.10078132
-0.12405409
0.11862311
-0.16273972
0.12819501
-0.19485185
-0.21601658
0.13312258
2.2913159e-08
3.2226522e-07
1.0150082e-07
1.1139218e-06
2.5356991e-07
2.1714959e-06
5.0105239e-07
3.5636193e-06
8.7074791e-07
5.3746151e-06
1.3951555e-06
7.7077955e-06
2.1133612e-06
1.0689357e-05
3.071974e-06
1.4472977e-05
4.3260445e-06
1.924521e-05
5.9399002e-06
2.5231745e-05
7.9877893e-06
3.2704614e-05
1.0554122e-05
4.1990363e-05
1.3733128e-05
5.347912e-05
1.7627526e-05
6.763448e-05
2.2345778e-05
8.5003721e-05
2.7997293e-05
0.0001062279
3.4684784e-05
0.00013205057
4.2492706e-05
0.00016332359
5.147067e-05
0.00020100716
6.1610236e-05
0.00024616037
7.2813746e-05
0.00029991636
8.4853884e-05
0.0003634342
9.7323741e-05
0.00043781768
0.00010957985
0.00052398966
0.00012068633
0.00062251542
0.00012938128
0.0007333832
0.00013410638
0.00085579208
0.00013316001
0.00098806677
0.00012503345
0.0011278729
0.00010882321
0.0012729045
8.4503014e-05
0.0014216314
5.2901223e-05
0.0015739082
1.5255163e-05
0.0017309913
-2.6770746e-05
0.0018942803
-7.1354838e-05
0.0020652167
-0.00011642893
0.0022447452
-0.00015950185
0.002433219
-0.00019740108
0.0026303525
-0.00022598624
0.0028352239
-0.00023981964
0.0030462307
-0.0002317858
0.0032609833
-0.00019265257
0.0034761072
-0.00011056853
0.0036868912
2.947191e-05
0.0038866209
0.00024619506
0.0040654708
0.00056300281
0.0042088317
0.001009121
0.0042958522
0.0016208979
0.0042976678
0.0024440101
0.0041730314
0.0035349666
0.003867271
0.0049624904
0.0033097678
0.0068266496
0.0023808437
0.0093000424
0.00082789923
0.012600031
-0.0017027191
0.016943855
-0.0055755715
0.022557484
-0.011119566
0.029948062
-0.019003762
0.039998728
-0.030611677
0.053868555
-0.047960251
0.072559338
-0.07356281
0.094343157
-0.10706934
0.11280196
-0.14251289
0.12385165
-0.17378941
0.12960293
-0.20060313
-0.21985865
0.133445
2.9756729e-08
2.9250849e-07
1.320213e-07
1.0116572e-06
3.3027742e-07
1.9732398e-06
6.5360104e-07
3.2402957e-06
1.1377438e-06
4.8904723e-06
1.8263666e-06
7.0191727e-06
2.7724353e-06
9.7432884e-06
4.0397377e-06
1.3205674e-05
5.7045348e-06
1.7580413e-05
7.857243e-06
2.3079037e-05
1.0604086e-05
2.9957771e-05
1.4068554e-05
3.8525895e-05
1.8392439e-05
4.9155234e-05
2.3736126e-05
6.2290793e-05
3.0277644e-05
7.8462203e-05
3.8209844e-05
9.82957e-05
4.7734829e-05
0.00012252559
5.9054387e-05
0.00015200403
7.235501e-05
0.00018770654
8.7785578e-05
0.00023072981
0.00010542551
0.00028227642
0.00012524116
0.00034361855
0.00014702857
0.00041603027
0.00017034274
0.00050067549
0.00019441881
0.00059843935
0.00021810172
0.00070970029
0.00023982411
0.00083406968
0.00025770188
0.00097018901
0.000269813
0.0011157617
0.00027468374
0.0012680337
0.00027185145
0.0014244637
0.00026155294
0.0015842067
0.00024534355
0.0017472006
0.00022545885
0.001914165
0.00020427794
0.0020863977
0.00018444162
0.0022645815
0.00016911858
0.0024485421
0.00016226509
0.002637206
0.00016893348
0.0028285555
0.00019564751
0.0030195166
0.00025084128
0.0032057896
0.00034536281
0.0033815857
0.00049304644
0.0035392076
0.00071133398
0.0036683334
0.0010219496
0.0037548552
0.0014518634
0.0037789178
0.0020347833
0.0037129323
0.0028125748
0.0035198764
0.0038381006
0.0031475055
0.0051770494
0.0025283222
0.0069114743
0.0015753428
0.0091815157
0.00011080241
0.01220066
-0.002191245
0.016204484
-0.0057065432
0.021419965
-0.010791052
0.02826483
-0.017964431
0.037578169
-0.028317101
0.050400268
-0.043433776
0.06761788
-0.065177862
0.08808361
-0.094028541
0.10633998
-0.12532571
0.11802601
-0.15419892
0.12491257
-0.18067598
0.12936456
-0.20505512
-0.2241265
0.13363241
3.5110834e-08
2.5739765e-07
1.5594241e-07
8.9082566e-07
3.9050288e-07
1.7386794e-06
7.736014e-07
2.8571972e-06
1.3482187e-06
4.315855e-06
2.1671135e-06
6.2002779e-06
3.2946407e-06
8.6157612e-06
4.8088374e-06
1.1691477e-05
6.8037238e-06
1.5585526e-05
9.3918183e-06
2.0490942e-05
1.2706787e-05
2.6642802e-05
1.6906138e-05
3.4326545e-05
2.2173698e-05
4.3887673e-05
2.8721712e-05
5.5742779e-05
3.6791969e-05
7.0391946e-05
4.6655452e-05
8.8432217e-05
5.8609492e-05
0.00011057155
7.2971357e-05
0.00013764217
9.0066316e-05
0.00017061158
0.0001102083
0.00021058782
0.00013367017
0.00025881455
0.00016064037
0.00031664835
0.00019116269
0.00038550796
0.00022505649
0.00046678168
0.00026181889
0.00056167694
0.0003005195
0.00067099969
0.00033971926
0.00079486992
0.0003774803
0.00093242797
0.00041157093
0.0010816711
0.00043994291
0.0012396618
0.00046101245
0.0014033941
0.00047477762
0.0015704416
0.00048291157
0.0017390667
0.00048763635
0.0019094402
0.00049184238
0.0020821916
0.00049887917
0.0022575447
0.00051274385
0.0024346774
0.00053823408
0.0026117158
0.00058134266
0.002785447
0.00064967647
0.0029511828
0.00075295317
0.0031025129
0.00090357174
0.0032309671
0.0011172604
0.0033255189
0.0014137971
0.0033717967
0.0018178003
0.0033508519
0.0023598228
0.0032368953
0.0030781542
0.002994601
0.0040207499
0.0025772806
0.0052486826
0.0019195728
0.0068392093
0.00093779554
0.0089009178
-0.00048636564
0.011630464
-0.0026187434
0.015280873
-0.0058416547
0.020102048
-0.010527718
0.026480089
-0.017169093
0.035211535
-0.026695877
0.04729284
-0.040398405
0.06330645
-0.059447386
0.082250952
-0.084122364
0.099658808
-0.1114364
0.11144138
-0.13710828
0.11891978
-0.16167732
0.12428428
-0.18604048
0.12862627
-0.20939711
-0.22934936
0.13384914
3.8555043e-08
2.1884261e-07
1.7140289e-07
7.5797781e-07
4.2958324e-07
1.480499e-06
8.5178782e-07
2.4349926e-06
1.4859646e-06
3.6816781e-06
2.3911941e-06
5.2950484e-06
3.6398864e-06
7.3670689e-06
5.3203065e-06
1.0011057e-05
7.5394523e-06
1.336638e-05
1.0426299e-05
1.7604096e-05
1.4135361e-05
2.293374e-05
1.8850519e-05
2.9611387e-05
2.4788988e-05
3.7949204e-05
3.2205158e-05
4.832661e-05
4.139401e-05
6.1203093e-05
5.2693482e-05
7.7132746e-05
6.648499e-05
9.678004e-05
8.3190839e-05
0.00012093632
0.00010326696
0.00015053546
0.00012718836
0.00018666642
0.00015542444
0.00023057847
0.00018839991
0.00028367289
0.00022643656
0.0003474713
0.00026967104
0.00042354721
0.00031794529
0.00051340269
0.00037067319
0.00061827178
0.00042670335
0.00073883977
0.00048423096
0.00087490036
0.00054085646
0.0010250456
0.00059393274
0.0011865855
0.00064146155
0.0013558653
0.00068319774
0.0015287054
0.00071925147
0.001703013
0.00075139541
0.0018772963
0.0007830968
0.0020504902
0.00081876498
0.0022218765
0.00086318268
0.0023902597
0.00092207334
0.0025528251
0.0010024174
0.0027051029
0.0011129031
0.0028406971
0.0012644868
0.0029509291
0.0014710362
0.0030244178
0.0017500641
0.003046491
0.0021235764
0.0029982844
0.0026190541
0.0028553743
0.0032708146
0.0025851348
0.0041221375
0.002143278
0.005228327
0.0014710911
0.0066616683
0.00048623162
0.0085166732
-0.00091720941
0.01095994
-0.0029296324
0.014249622
-0.0059084253
0.018678276
-0.010270309
0.024654037
-0.016503479
0.032957358
-0.025472414
0.044526734
-0.038265254
0.059607723
-0.055479394
0.076930375
-0.076770038
0.092993874
-0.10018586
0.10445343
-0.12289596
0.11209016
-0.14474501
0.11793857
-0.16752573
0.12290908
-0.191011
0.12805124
-0.21453926
-0.23542602
0.13412789
3.9916815e-08
1.789258e-07