/*--------------------------------*- C++ -*----------------------------------*\
  =========                 |
  \\      /  F ield         | OpenFOAM: The Open Source CFD Toolbox
   \\    /   O peration     | Website:  https://openfoam.org
    \\  /    A nd           | Version:  13
     \\/     M anipulation  |
\*---------------------------------------------------------------------------*/
FoamFile
{
    format      ascii;
    class       volSymmTensorField;
    location    "34.399487";
    object      UPrime2Mean;
}
// * * * * * * * * * * * * * * * * * * * * * * * * * * * * * * * * * * * * * //

dimensions      [0 2 -2 0 0 0 0];

internalField   nonuniform List<symmTensor> 
17140
(
(5.4837098e-12 -3.4749236e-10 -1.0918731e-27 2.3587456e-08 1.7627635e-26 6.2277296e-41)
(3.8334837e-10 -5.0810743e-09 -4.9457426e-28 2.2525071e-07 3.9217693e-27 5.5331178e-43)
(3.3515648e-09 -2.0526507e-08 8.0600768e-26 6.8543194e-07 -4.1414314e-25 2.4121329e-39)
(1.572119e-08 -5.6437868e-08 -1.7195109e-25 1.478998e-06 6.3958018e-25 2.9151967e-39)
(5.2629087e-08 -1.2675658e-07 3.4438132e-26 2.6963383e-06 -9.861714e-26 3.9840874e-41)
(1.4445267e-07 -2.5157688e-07 -1.7893819e-25 4.445445e-06 4.1002308e-25 4.2674811e-40)
(3.4780121e-07 -4.5897273e-07 -4.5529401e-25 6.8539461e-06 8.5381323e-25 1.2095736e-39)
(7.6276715e-07 -7.8714722e-07 3.2426573e-25 1.0070861e-05 -5.051457e-25 2.8829795e-40)
(1.5595829e-06 -1.2868652e-06 1.5093178e-24 1.4267788e-05 -1.9733098e-24 3.0887507e-39)
(3.0188269e-06 -2.0239389e-06 5.1572809e-24 1.9639155e-05 -5.7044093e-24 1.858233e-38)
(5.5907153e-06 -3.0814158e-06 -1.0480103e-23 2.6401036e-05 9.8679785e-24 4.0860883e-38)
(9.980577e-06 -4.5609132e-06 1.2632363e-23 3.4787904e-05 -1.0173649e-23 3.2452544e-38)
(1.7269176e-05 -6.5822902e-06 2.5877506e-24 4.5046627e-05 -1.7890575e-24 7.6029357e-40)
(2.9077641e-05 -9.2805323e-06 -1.9378268e-23 5.7426889e-05 1.1545511e-23 2.4319655e-38)
(4.778694e-05 -1.2798494e-05 2.8282542e-24 7.2167305e-05 -1.454989e-24 2.9979452e-40)
(7.6820076e-05 -1.7274014e-05 -2.9219313e-23 8.9476587e-05 1.3010239e-23 1.8810716e-38)
(0.00012099061 -2.2820234e-05 1.4055129e-24 0.0001095095 -5.4299848e-25 2.6052798e-41)
(0.00018691252 -2.9498758e-05 -4.1055204e-25 0.00013233796 1.3679745e-25 1.3044139e-42)
(0.00028345398 -3.7287147e-05 -3.681923e-23 0.00015791836 1.0709898e-23 6.561135e-39)
(0.00042220232 -4.6044923e-05 6.0536682e-23 0.00018605756 -1.5310071e-23 1.1000873e-38)
(0.00061789473 -5.5485882e-05 -3.6715371e-23 0.00021638109 8.0728413e-24 2.5403755e-39)
(0.00088876558 -6.5167665e-05 8.7156768e-24 0.00024830894 -1.6706032e-24 9.1950214e-41)
(0.0012567768 -7.4510189e-05 7.9548318e-23 0.00028104661 -1.3242986e-23 4.9493139e-39)
(0.0017477704 -8.285134e-05 -9.7120197e-23 0.00031360214 1.4064696e-23 4.8680477e-39)
(0.0023917687 -8.9539309e-05 -1.8727355e-22 0.00034484453 2.3585497e-23 1.2186957e-38)
(0.0032231992 -9.4028323e-05 1.8027045e-22 0.00037362232 -1.9753836e-23 7.7687149e-39)
(0.0042809316 -9.5882816e-05 1.0518104e-21 0.00039894997 -1.001489e-22 1.8498831e-37)
(0.0056112756 -9.4899448e-05 1.4608164e-22 0.0004202145 -1.2066406e-23 2.5363484e-39)
(0.0072694513 -9.111355e-05 -1.4911282e-21 0.00043730832 1.0717142e-22 1.9343011e-37)
(0.0093203539 -8.4147742e-05 -4.0412064e-22 0.0004506166 2.519789e-23 1.0489815e-38)
(0.011841931 -7.3819233e-05 -1.6571663e-21 0.0004607961 8.9675458e-23 1.3289194e-37)
(0.014925788 -6.0259554e-05 2.491497e-21 0.00046840718 -1.1688038e-22 2.2968583e-37)
(0.018680015 -4.2930592e-05 -7.3923581e-22 0.0004738483 2.9939835e-23 1.5592774e-38)
(0.02322905 -2.0893998e-05 -3.9907755e-22 0.00047739824 1.3950042e-23 3.5681232e-39)
(0.028713526 7.3346772e-06 -4.4291032e-21 0.00047922129 1.3235777e-22 3.4626918e-37)
(0.035288399 4.3760687e-05 2.177157e-21 0.00047936452 -5.5535152e-23 6.7087611e-38)
(0.043118899 9.0894925e-05 -3.6689549e-21 0.00047779916 7.8997079e-23 1.5339178e-37)
(0.052373 0.00015177319 -2.7598834e-21 0.00047449195 4.9732865e-23 7.0760141e-38)
(0.063208597 0.00022997015 -1.3977445e-21 0.00046953015 2.0791785e-23 1.4933185e-38)
(0.075753293 0.00032965643 4.6458736e-21 0.00046332569 -5.6338908e-23 1.3789978e-37)
(0.090075626 0.00045534472 9.576921e-21 0.00045684382 -9.2240463e-23 4.9281467e-37)
(0.1061485 0.00061145936 9.4249606e-21 0.00045166765 -6.9893195e-23 4.0621427e-37)
(0.12380758 0.00080121334 4.4303586e-21 0.00044973634 -2.4120069e-23 7.7316752e-38)
(0.14271892 0.0010254583 -2.3120941e-20 0.00045287705 8.423753e-23 1.8240382e-36)
(0.16236849 0.0012809346 -1.7972733e-20 0.00046251971 3.6577589e-23 9.6892132e-37)
(0.18206575 0.0015573739 4.6568288e-21 0.00047973254 -2.6964461e-24 5.7992246e-38)
(0.20106263 0.0018414679 -3.3147928e-20 0.00050575673 -2.541728e-23 2.6500271e-36)
(0.21866534 0.0021234696 -1.1696793e-20 0.0005429005 -2.3585697e-23 3.0163849e-37)
(0.23412597 0.0023941436 1.228212e-20 0.00059508721 3.9182675e-23 3.0850149e-37)
(0.2470878 0.0026426879 3.0746703e-20 0.00066684293 1.319275e-22 1.819061e-36)
(0.25723181 0.0028604105 -1.9207068e-20 0.00076417061 -1.0218305e-22 6.7820937e-37)
(0.26436163 0.0030472144 -1.22055e-20 0.0008958465 -7.6776479e-23 2.6559553e-37)
(0.26827969 0.0032155941 3.1794812e-20 0.0010729539 2.3136379e-22 1.7742025e-36)
(0.26907826 0.0033651353 1.4893139e-20 0.0013074903 1.2340066e-22 3.8931648e-37)
(0.26695956 0.0034650802 1.0429722e-20 0.001612009 9.7534699e-23 1.9435123e-37)
(0.26257864 0.003476528 -8.0096538e-21 0.0020020656 -8.4486002e-23 1.1800223e-37)
(0.25687121 0.0033790034 2.0840217e-20 0.0024929986 2.4767469e-22 8.4544625e-37)
(0.2504159 0.003173887 1.6695406e-20 0.0031185814 2.2617172e-22 5.8133691e-37)
(0.24371649 0.0029048108 3.9650764e-21 0.0039473984 6.1920746e-23 3.6012766e-38)
(0.23647506 0.0026608611 -9.6327822e-21 0.0051740742 -1.7469844e-22 2.3670775e-37)
(0.2278858 0.0025324612 -6.974538e-21 0.0071017639 -1.4569657e-22 1.438228e-37)
(0.21720185 0.0023560093 -2.3613024e-20 0.0098472387 -5.3487265e-22 1.9571235e-36)
(0.20189197 0.0017875334 -3.1032869e-21 0.012412316 -6.638269e-23 4.1940639e-38)
(0.18474726 0.0011388353 2.3182931e-20 0.013361112 3.6531055e-22 2.9620136e-36)
(0.15882205 0.00055160144 -1.5298295e-20 0.013248604 -1.3270041e-22 1.7702078e-36)
(2.4221975e-10 -5.6833605e-09 1.3130517e-27 1.3340198e-07 -2.5687221e-26 5.0434247e-42)
(3.7986221e-09 -6.8860618e-08 -4.3641603e-25 1.2637252e-06 6.773882e-24 6.6392958e-38)
(1.6972908e-08 -2.5094241e-07 7.4328627e-25 3.8177598e-06 -9.4484694e-24 5.2576045e-38)
(5.2812254e-08 -6.4195499e-07 -3.3622576e-25 8.1726326e-06 3.5639572e-24 3.9074516e-39)
(1.3520766e-07 -1.3690968e-06 -1.070875e-24 1.4767814e-05 9.6238751e-24 1.6674737e-38)
(3.0696853e-07 -2.6148405e-06 3.0143905e-24 2.4106212e-05 -2.325439e-23 6.0881913e-38)
(6.4177924e-07 -4.6341472e-06 -4.4862971e-24 3.675182e-05 2.9936739e-23 6.6155987e-38)
(1.2624948e-06 -7.7754926e-06 5.5096071e-25 5.332185e-05 -3.1960141e-24 5.1241356e-40)
(2.3689396e-06 -1.2506446e-05 -2.3583343e-24 7.44712e-05 1.193461e-23 4.9943596e-39)
(4.2790645e-06 -1.9442233e-05 -5.423437e-26 0.00010086679 2.4008732e-25 1.426796e-42)
(7.4888102e-06 -2.9375928e-05 -1.4229955e-23 0.00013314933 5.5225694e-23 5.5662847e-38)
(1.2757388e-05 -4.3307199e-05 2.9938506e-23 0.00017188047 -1.0204426e-22 1.4050736e-37)
(2.1226148e-05 -6.246477e-05 3.2488345e-24 0.00021747428 -9.7395945e-24 9.5813118e-40)
(3.4580185e-05 -8.8315397e-05 -4.1829326e-23 0.00027011399 1.1042605e-22 9.3267569e-38)
(5.5261949e-05 -0.00012254985 1.6648124e-23 0.00032965841 -3.8737654e-23 8.7857728e-39)
(8.6744452e-05 -0.00016703457 1.362362e-23 0.00039554698 -2.7958554e-23 3.5353585e-39)
(0.00013386731 -0.00022371763 -1.1074696e-22 0.00046671833 2.0051949e-22 1.4180213e-37)
(0.00020323099 -0.00029448107 4.5938316e-22 0.00054156326 -7.3398598e-22 1.4980869e-36)
(0.00030363295 -0.00038094064 -3.640006e-22 0.00061793724 5.1317755e-22 5.8374024e-37)
(0.00044651543 -0.00048421017 5.4836909e-22 0.00069325674 -6.8196392e-22 8.3147616e-37)
(0.00064638287 -0.00060467099 -1.0111583e-21 0.0007646942 1.1088069e-21 1.7978966e-36)
(0.00092114426 -0.00074181259 3.0704792e-22 0.00082946616 -2.9673114e-22 1.0691574e-37)
(0.0012923496 -0.00089422701 1.5535564e-22 0.00088517834 -1.3223713e-22 1.7936855e-38)
(0.0017853562 -0.0010598389 -6.1892154e-22 0.00093016053 4.6362681e-22 1.8921642e-37)
(0.0024296431 -0.0012364253 2.6850076e-21 0.0009637112 -1.7694365e-21 2.4155939e-36)
(0.003259118 -0.0014222542 4.7982518e-22 0.00098619694 -2.7791271e-22 5.3077309e-38)
(0.0043120292 -0.001616495 -2.9399698e-21 0.00099895004 1.4976993e-21 1.4091137e-36)
(0.0056339884 -0.0018197434 3.8733849e-21 0.0010038196 -1.7342961e-21 1.7537285e-36)
(0.0072795185 -0.0020338531 -6.183281e-22 0.0010029594 2.4359968e-22 3.2919793e-38)
(0.0093125208 -0.0022606606 -7.0280205e-21 0.00099878142 2.4308387e-21 3.13572e-36)
(0.011809769 -0.0025024131 8.3590395e-22 0.00099316411 -2.540816e-22 3.3645644e-38)
(0.014861359 -0.0027613049 7.3432642e-21 0.00098695771 -1.956524e-21 1.9741562e-36)
(0.018573476 -0.0030381784 2.1451067e-22 0.00098019595 -4.9768272e-23 1.2535145e-39)
(0.023068129 -0.0033323374 -7.0557353e-21 0.00097239456 1.4403302e-21 1.1058572e-36)
(0.02848288 -0.0036411282 8.8745607e-21 0.00096278825 -1.5817264e-21 1.3865956e-36)
(0.034968779 -0.0039596108 -4.4892945e-21 0.00095049921 6.9710277e-22 2.8352568e-37)
(0.042686095 -0.0042800062 5.8893682e-21 0.00093466482 -7.9602935e-22 3.9646249e-37)
(0.051796462 -0.0045907659 2.0850586e-20 0.00091454927 -2.4462419e-21 4.0484649e-36)
(0.0624497 -0.0048753847 5.1743007e-21 0.00088974135 -5.2581925e-22 2.0501111e-37)
(0.074763253 -0.0051111993 2.222359e-20 0.00086050801 -1.9522349e-21 3.1588872e-36)
(0.088793151 -0.0052688627 -3.1073949e-20 0.00082826464 2.3513802e-21 5.2172511e-36)
(0.10449737 -0.0053134041 -3.1100868e-20 0.00079589465 2.0162936e-21 4.4390298e-36)
(0.12169466 -0.0052078905 -5.7690198e-21 0.00076782371 3.1824818e-22 1.3029181e-37)
(0.14003216 -0.0049199463 4.9147267e-20 0.00074991055 -2.2865409e-21 8.3278855e-36)
(0.15897233 -0.0044308068 -2.4809837e-20 0.00074920785 9.6021904e-22 1.8578952e-36)
(0.17780639 -0.0037477405 -9.0924963e-21 0.00077330605 2.8758487e-22 2.2195845e-37)
(0.19574721 -0.0029089565 5.072267e-21 0.00082894574 -1.2778938e-22 6.323041e-38)
(0.21207022 -0.0019693007 1.6503124e-20 0.0009194044 -3.1754323e-22 6.0901814e-37)
(0.22617187 -0.00099619863 -8.3205557e-21 0.0010417474 1.155358e-22 1.4401887e-37)
(0.23760737 -4.9518292e-05 1.5440119e-20 0.0011907856 -1.3795483e-22 4.6694292e-37)
(0.24609803 0.00084701981 9.4276183e-20 0.0013643894 -4.176553e-22 1.6684063e-35)
(0.25147308 0.0016846868 4.5269783e-21 0.0015679546 -8.3069144e-25 3.7519159e-38)
(0.25367013 0.0024449443 -2.0380657e-20 0.0018157477 -7.5271751e-23 7.4997227e-37)
(0.25284227 0.0030872262 4.4903761e-20 0.0021233435 3.3894538e-22 3.6546773e-36)
(0.2494703 0.0035398112 -3.7644249e-20 0.0025044389 -4.2831259e-22 2.6222909e-36)
(0.2443251 0.0037360474 1.0396382e-19 0.0029676586 1.5827637e-21 2.077477e-35)
(0.23840397 0.0036866867 2.8624627e-20 0.0035146811 5.5447532e-22 1.6639587e-36)
(0.23245956 0.0034437998 -7.6976609e-20 0.0041624446 -1.8334155e-21 1.2998521e-35)
(0.22695621 0.0031614926 1.2400557e-20 0.0049636367 3.6368941e-22 3.6987321e-37)
(0.22150568 0.0029987623 1.3220588e-20 0.0061060262 4.6809514e-22 4.7646792e-37)
(0.21492166 0.0031013027 2.4451509e-21 0.0079392998 1.0368822e-22 1.9027959e-38)
(0.20637608 0.0031703829 -2.9630388e-20 0.010647551 -1.4586718e-21 3.3430582e-36)
(0.19281759 0.0027952669 5.1427437e-20 0.013102972 2.7182208e-21 1.2671117e-35)
(0.17745044 0.0023980584 1.3596737e-20 0.013917575 7.1527527e-22 1.1355497e-36)
(0.15218238 0.0015915871 1.9073201e-20 0.013801247 1.0160147e-21 3.1364137e-36)
(2.0003522e-09 -2.8574599e-08 1.9056255e-25 4.0819001e-07 -2.5491889e-24 1.5329399e-38)
(2.2811731e-08 -2.9681926e-07 -3.0096096e-25 3.8645274e-06 3.6745963e-24 6.0651479e-39)
(8.1154847e-08 -9.7224142e-07 -1.3691214e-25 1.1668483e-05 1.5274721e-24 4.2900036e-40)
(2.0632101e-07 -2.2655148e-06 1.9621622e-25 2.4964455e-05 -1.9998448e-24 3.8571191e-40)
(4.4414911e-07 -4.4619925e-06 -1.3574325e-24 4.5081766e-05 1.265404e-23 9.0579622e-39)
(8.6740055e-07 -7.9537538e-06 -1.3953997e-25 7.353555e-05 1.1906849e-24 5.0077789e-41)
(1.5895734e-06 -1.3270159e-05 -2.4050641e-24 0.00011201647 1.8768938e-23 8.1772107e-39)
(2.7851569e-06 -2.1114719e-05 -3.4434292e-24 0.0001623624 2.4539982e-23 9.4930022e-39)
(4.7194485e-06 -3.2409665e-05 3.6939624e-23 0.00022650457 -2.39949e-22 6.3414943e-37)
(7.7911383e-06 -4.8344838e-05 -4.2908944e-23 0.00030638144 2.5355056e-22 5.0553915e-37)
(1.2592625e-05 -7.0429105e-05 2.6526368e-23 0.00040381216 -1.4231358e-22 1.1576844e-37)
(1.9993878e-05 -0.00010053862 4.99364e-23 0.00052032313 -2.4279229e-22 2.4850521e-37)
(3.1256983e-05 -0.00014095378 -1.2661874e-22 0.00065692461 5.5691828e-22 9.7691795e-37)
(4.8189212e-05 -0.00019437256 -1.997133e-23 0.00081384135 7.9329006e-23 1.4959639e-38)
(7.3342497e-05 -0.00026388426 9.7827557e-23 0.00099021196 -3.503379e-22 2.228099e-37)
(0.00011026571 -0.00035288426 8.5068428e-23 0.0011837879 -2.7420031e-22 1.0513016e-37)
(0.0001638124 -0.00046491077 -1.2432191e-22 0.0013906828 3.6007217e-22 1.4104145e-37)
(0.00024050012 -0.00060338973 5.6505307e-22 0.0016052437 -1.4680101e-21 1.8421038e-36)
(0.00034890767 -0.00077128953 -4.1742233e-22 0.001820132 9.7109199e-22 6.4072514e-37)
(0.00050008529 -0.00097071426 2.5686367e-22 0.0020266994 -5.3412885e-22 1.5579547e-37)
(0.00070794335 -0.0012025043 -1.0711437e-21 0.0022157152 1.9874358e-21 1.7595235e-36)
(0.00098958333 -0.0014659583 -3.4242725e-22 0.0023784299 5.6589204e-22 1.1807438e-37)
(0.0013655472 -0.0017588201 8.7153045e-22 0.0025078456 -1.2806913e-21 5.0922742e-37)
(0.0018600125 -0.0020776757 -1.5882263e-21 0.0025999417 2.071758e-21 1.1418046e-36)
(0.0025011298 -0.0024188634 -7.5164055e-22 0.0026545187 8.6894155e-22 1.7517474e-37)
(0.0033214946 -0.0027796728 1.0725394e-21 0.002675368 -1.0981284e-21 2.5035348e-37)
(0.0043578269 -0.0031590455 7.1967256e-21 0.0026695391 -6.5151596e-21 7.9991668e-36)
(0.0056539963 -0.0035585755 3.8162928e-21 0.0026452905 -3.0522377e-21 1.6252051e-36)
(0.0072626532 -0.003982082 -2.2070028e-21 0.002610495 1.5596129e-21 4.0276086e-37)
(0.009245212 -0.0044336948 2.7378752e-21 0.0025721365 -1.7054186e-21 4.5973546e-37)
(0.011675472 -0.0049181072 -1.9545234e-21 0.0025350884 1.0741569e-21 1.7997473e-37)
(0.014639651 -0.0054395523 -1.2687449e-20 0.0025013094 6.1303213e-21 5.7858169e-36)
(0.018239096 -0.0060001936 4.8298917e-21 0.0024704193 -2.0504077e-21 6.5255603e-37)
(0.022589715 -0.0065994627 1.6337752e-20 0.0024405328 -6.0832103e-21 5.864616e-36)
(0.027821409 -0.0072333846 -6.1271547e-21 0.0024089616 1.9997568e-21 6.6038852e-37)
(0.034075598 -0.0078938894 -9.6584777e-21 0.002372707 2.7558282e-21 1.3111078e-36)
(0.041500422 -0.0085677022 1.8721266e-20 0.0023287017 -4.666001e-21 3.992364e-36)
(0.050242196 -0.009234546 6.375142e-21 0.0022739646 -1.3856993e-21 3.774248e-37)
(0.060431425 -0.0098648187 -1.2524902e-20 0.0022058897 2.3732245e-21 1.2132697e-36)
(0.072161477 -0.010417323 -5.5270789e-21 0.0021229332 9.1094788e-22 1.9810805e-37)
(0.085459017 -0.01083804 2.9178985e-20 0.0020256791 -4.1691027e-21 4.6425291e-36)
(0.10024722 -0.011061881 -8.9643942e-21 0.0019182546 1.1059895e-21 3.7794301e-37)
(0.11630555 -0.01101905 -1.4092693e-20 0.0018098052 1.4948711e-21 8.0130816e-37)
(0.1332393 -0.01064712 -4.0572074e-20 0.0017157746 3.6700772e-21 5.7679385e-36)
(0.15046779 -0.0099084166 8.2375879e-20 0.0016580209 -6.2844114e-21 2.103023e-35)
(0.16725387 -0.0088141698 -5.6591694e-20 0.0016625575 3.587834e-21 8.8635916e-36)
(0.18282599 -0.0074418103 -1.5072649e-20 0.0017521623 7.8022386e-22 5.6573309e-37)
(0.19648887 -0.0059067466 -6.2052692e-20 0.0019333233 2.5452003e-21 8.8817913e-36)
(0.20770197 -0.0043253379 -7.6958297e-20 0.0021894307 2.4140021e-21 1.2760539e-35)
(0.21612592 -0.002804419 -4.020167e-21 0.0024922266 9.304319e-23 3.2780668e-38)
(0.22163062 -0.0013997739 1.7294714e-20 0.0028185191 -2.5199435e-22 5.8516443e-37)
(0.22420295 -0.00012954534 -1.278444e-19 0.0031675176 8.6747843e-22 3.1446762e-35)
(0.22396152 0.00097558761 -5.4399328e-20 0.003562735 -1.2877916e-23 5.6629408e-36)
(0.22122514 0.0018389433 -5.5290091e-20 0.0040318433 -3.8751378e-22 5.9132089e-36)
(0.21668512 0.0023560635 -1.7805489e-20 0.004589751 -2.4824787e-22 6.3023818e-37)
(0.21124218 0.0024531729 -1.3355464e-19 0.0052302882 -2.722903e-21 3.7163563e-35)
(0.20599214 0.002182709 5.1057972e-20 0.0059270149 1.4142942e-21 5.7834603e-36)
(0.20167279 0.0016915909 -1.475636e-20 0.0066588736 -5.1710512e-22 5.2865453e-37)
(0.19849605 0.0012734091 -1.1440235e-19 0.0074424485 -5.0566584e-21 3.5192906e-35)
(0.19583359 0.0011854531 -4.2392456e-20 0.0084452922 -2.3292336e-21 5.5156724e-36)
(0.19183987 0.0015880568 4.6255693e-20 0.01006176 3.1038134e-21 7.7826178e-36)
(0.18567936 0.0020182811 1.4378298e-19 0.012537959 1.144815e-20 9.1874977e-35)
(0.17369185 0.0019916123 -4.0449703e-20 0.014604404 -3.6092781e-21 9.3710017e-36)
(0.16051774 0.0020848955 -5.6896582e-20 0.01501422 -5.4701457e-21 2.4349508e-35)
(0.13636244 0.0013496921 -2.02076e-20 0.014629881 -2.1482846e-21 4.4672307e-36)
(7.8988607e-09 -8.0316209e-08 -1.2487695e-24 8.1666407e-07 1.2287167e-23 1.7191889e-37)
(8.1639793e-08 -7.9459517e-07 4.0466637e-24 7.7343499e-06 -3.8074896e-23 3.1529989e-37)
(2.6756242e-07 -2.4997504e-06 -2.3911683e-24 2.3360043e-05 2.1464731e-23 4.1225026e-38)
(6.2596365e-07 -5.5927882e-06 3.7630729e-25 4.9995589e-05 -3.2165257e-24 4.8724509e-40)
(1.2428317e-06 -1.0590102e-05 -1.0205268e-23 9.0318989e-05 8.2958071e-23 1.9045365e-37)
(2.2429554e-06 -1.8169275e-05 1.4049424e-23 0.00014738898 -1.0844975e-22 2.0392489e-37)
(3.8061144e-06 -2.920982e-05 -2.7790047e-23 0.0002246269 2.032274e-22 4.6933235e-37)
(6.1896755e-06 -4.4840903e-05 1.6799931e-23 0.00032576277 -1.1605389e-22 1.039239e-37)
(9.76036e-06 -6.6496899e-05 8.1243446e-23 0.00045473136 -5.2847655e-22 1.502678e-36)
(1.5037982e-05 -9.5977453e-05 -2.4651655e-23 0.00061550257 1.5049579e-22 8.6913515e-38)
(2.2755106e-05 -0.00013550814 -1.1788224e-22 0.00081182982 6.7316399e-22 1.26124e-36)
(3.3937386e-05 -0.00018779457 4.4992826e-23 0.0010469019 -2.3952629e-22 1.1760308e-37)
(5.0010243e-05 -0.00025605928 3.7426973e-24 0.0013228905 -1.8512725e-23 5.2568456e-40)
(7.2937962e-05 -0.00034404583 -1.8265164e-22 0.0016403983 8.3675903e-22 8.0585292e-37)
(0.00010540128 -0.00045596998 7.0957651e-22 0.0019978346 -3.0006945e-21 7.8886415e-36)
(0.00015101826 -0.00059639438 -5.400494e-22 0.0023907775 2.1012967e-21 2.9727904e-36)
(0.00021461053 -0.00077000361 -6.3718878e-24 0.0028114243 2.273718e-23 2.6973494e-40)
(0.00030251211 -0.0009812639 4.5659742e-22 0.0032482762 -1.4894175e-21 9.0809883e-37)
(0.00042291111 -0.0012339714 -1.4284756e-21 0.0036862419 4.2457633e-21 5.8472223e-36)
(0.00058620648 -0.0015307278 8.278645e-22 0.004107353 -2.234814e-21 1.2998325e-36)
(0.00080535598 -0.0018724331 1.5103299e-21 0.0044922289 -3.69117e-21 2.8836177e-36)
(0.001096191 -0.0022579444 7.4489691e-22 0.0048222918 -1.642958e-21 4.7134401e-37)
(0.001477684 -0.0026840911 -4.458602e-21 0.0050824976 8.8489426e-21 1.1497186e-35)
(0.0019721862 -0.0031462296 -2.8039741e-21 0.0052640635 4.9929253e-21 3.129977e-36)
(0.0026057952 -0.0036394793 2.1625338e-21 0.005366449 -3.4463518e-21 1.303844e-36)
(0.0034090193 -0.0041604716 -1.4986792e-21 0.0053978681 2.1316469e-21 4.4282263e-37)
(0.0044162855 -0.004708246 6.6041597e-21 0.0053738837 -8.3695687e-21 6.2146217e-36)
(0.005668737 -0.0052857677 -2.2183962e-21 0.0053132125 2.4997824e-21 5.1331642e-37)
(0.0072159404 -0.0058989224 6.9383062e-21 0.0052327807 -6.9416176e-21 3.7402482e-36)
(0.0091155704 -0.006554303 -4.5219697e-21 0.0051468901 4.0102551e-21 1.2011134e-36)
(0.011436742 -0.0072590632 3.2153214e-21 0.0050655241 -2.5218429e-21 4.6306726e-37)
(0.014259611 -0.0080193589 -1.3448634e-20 0.0049928482 9.3175287e-21 6.2920451e-36)
(0.017677991 -0.0088385351 2.1915958e-21 0.0049281951 -1.3390155e-21 1.313911e-37)
(0.021798332 -0.0097159153 -1.3112e-20 0.0048677056 7.0481325e-21 3.7060831e-36)
(0.026738731 -0.010645914 1.4138709e-20 0.0048057555 -6.6805136e-21 3.4510353e-36)
(0.032625913 -0.011616989 5.0986717e-21 0.0047359374 -2.1134302e-21 3.5917174e-37)
(0.039589677 -0.012610009 -7.0768806e-20 0.0046515066 2.5736653e-20 5.6971274e-35)
(0.047753479 -0.013595647 -2.0564939e-20 0.0045455689 6.5491993e-21 3.9522338e-36)
(0.057219527 -0.014531063 1.8847954e-20 0.0044115122 -5.2501222e-21 2.7686633e-36)
(0.068046722 -0.015356707 -2.0393465e-20 0.0042441804 4.9589952e-21 2.7226378e-36)
(0.080221045 -0.015994813 5.7672958e-21 0.0040420286 -1.2202396e-21 1.8336017e-37)
(0.093619918 -0.016352087 3.9195523e-20 0.0038103822 -7.2022109e-21 7.3126183e-36)
(0.10797527 -0.016329384 -1.9605763e-21 0.003565589 3.1161115e-22 1.6024479e-38)
(0.12284816 -0.015840146 -1.536557e-20 0.0033387373 2.0892807e-21 8.4678361e-37)
(0.13762591 -0.014837891 7.9353065e-21 0.0031765708 -9.0942602e-22 2.0365988e-37)
(0.15158082 -0.013353866 -4.3377552e-21 0.0031361163 4.1880656e-22 5.1317589e-38)
(0.16401386 -0.011516044 -1.2911187e-20 0.0032656445 1.0239195e-21 4.3116122e-37)
(0.17432628 -0.0095068953 2.0616777e-19 0.0035749717 -1.3154275e-20 1.0292959e-34)
(0.18214539 -0.0075060435 -2.3828465e-20 0.0040218952 1.1691468e-21 1.2911823e-36)
(0.18733413 -0.0056556201 2.2519665e-20 0.0045376665 -8.2636411e-22 1.1010135e-36)
(0.18994425 -0.0040161393 -2.1447416e-19 0.0050661244 5.3549911e-21 9.682406e-35)
(0.19011166 -0.0026008643 1.178505e-19 0.0055999502 -1.6740732e-21 2.882738e-35)
(0.18809593 -0.0014526772 9.6391088e-20 0.006181194 -3.576506e-22 1.9297789e-35)
(0.18436251 -0.00067873622 9.0486858e-20 0.0068583132 5.5811789e-22 1.733979e-35)
(0.17973134 -0.00040161624 8.4877881e-20 0.0076499618 1.3470197e-21 1.5825357e-35)
(0.175179 -0.00067305247 1.2849282e-19 0.0085281909 3.2965896e-21 3.8328685e-35)
(0.17171394 -0.0013605522 -2.4558691e-19 0.0094245273 -8.8854375e-21 1.5063929e-34)
(0.16985311 -0.0022010333 1.4309609e-19 0.010267122 6.8086459e-21 5.6201501e-35)
(0.16932569 -0.0027460241 2.0310003e-19 0.011018766 1.2318563e-20 1.2769369e-34)
(0.16908772 -0.0026427825 -1.3774214e-19 0.01180159 -1.0566194e-20 6.8090906e-35)
(0.16657364 -0.001804142 -3.9869591e-20 0.013081319 -3.7919422e-21 6.8919992e-36)
(0.16130652 -0.00089324082 -3.0979753e-20 0.015126552 -3.5400648e-21 5.2273146e-36)
(0.14910535 -0.0004416435 1.3695782e-19 0.016524664 1.8179047e-20 1.3541606e-34)
(0.13612024 0.00028568844 8.6304991e-20 0.016301542 1.2842125e-20 7.3080751e-35)
(0.1126629 -0.00015764404 -3.0258324e-21 0.015467766 -5.1529909e-22 1.4187132e-37)
(2.1221779e-08 -1.6645562e-07 1.4583776e-24 1.3056164e-06 -1.1217761e-23 8.5239543e-38)
(2.105986e-07 -1.6142258e-06 -9.6513947e-24 1.2373153e-05 7.2428612e-23 6.806623e-37)
(6.6574393e-07 -4.9892774e-06 1.257236e-23 3.7393093e-05 -9.1827889e-23 4.5248271e-37)
(1.4984273e-06 -1.0953749e-05 -6.7271836e-24 8.0083143e-05 4.7752189e-23 6.4636894e-38)
(2.8588171e-06 -2.0342491e-05 -3.2634084e-24 0.00014478203 2.2484187e-23 8.4387708e-39)
(4.9510244e-06 -3.4210204e-05 3.6606649e-23 0.00023646492 -2.4442914e-22 6.2512436e-37)
(8.0515563e-06 -5.3878308e-05 -1.1844177e-23 0.00036072412 7.6482988e-23 4.0123547e-38)
(1.253372e-05 -8.098712e-05 -3.167693e-23 0.00052369424 1.9731392e-22 1.8102162e-37)
(1.8900482e-05 -0.00011755389 -3.0277096e-24 0.00073189925 1.8139474e-23 1.0665554e-39)
(2.7827751e-05 -0.00016603209 -3.1823626e-23 0.00099199534 1.8281958e-22 7.7045154e-38)
(4.0221104e-05 -0.00022936682 5.4828942e-23 0.0013103816 -3.0104198e-22 1.5125165e-37)
(5.7289361e-05 -0.00031103772 -4.6707475e-23 0.0016926522 2.4427115e-22 7.3165392e-38)
(8.0639042e-05 -0.00041507715 -2.1047538e-22 0.0021428724 1.0448005e-21 9.9494995e-37)
(0.00011239389 -0.00054604673 -7.4791334e-24 0.0026626797 3.51133e-23 8.4142146e-40)
(0.0001553436 -0.00070895103 2.3944789e-22 0.0032502449 -1.0591322e-21 5.8335458e-37)
(0.00021312503 -0.00090906478 2.0666387e-22 0.0038991772 -8.5796682e-22 2.9322565e-37)
(0.00029043755 -0.0011516514 -2.1652975e-22 0.0045975304 8.4035949e-22 2.1752079e-37)
(0.00039329136 -0.0014415603 2.520175e-23 0.0053271424 -9.1061113e-23 2.0070674e-39)
(0.00052928359 -0.001782713 6.2324327e-22 0.0060636187 -2.0880029e-21 8.294946e-37)
(0.00070789293 -0.0021775257 9.2031318e-22 0.0067772995 -2.846613e-21 1.2326426e-36)
(0.00094078081 -0.0026263728 -1.2687671e-21 0.0074354924 3.6078228e-21 1.6063803e-36)
(0.0012420881 -0.0031272605 -1.5358433e-21 0.008006046 3.9980145e-21 1.6257187e-36)
(0.0016287248 -0.0036759246 2.4739773e-21 0.0084619614 -5.8712516e-21 2.9402545e-36)
(0.0021206647 -0.0042665552 -3.6450212e-21 0.0087862399 7.8547461e-21 4.4947708e-36)
(0.0027413523 -0.0048932912 -7.4729232e-21 0.0089757033 1.4566934e-20 1.3465246e-35)
(0.0035184546 -0.0055523987 2.0677579e-20 0.009042424 -3.6335146e-20 7.4593472e-35)
(0.0044837031 -0.0062436011 -1.3272023e-20 0.0090119536 2.0957061e-20 2.2546148e-35)
(0.0056745298 -0.0069714644 2.2774239e-20 0.0089170011 -3.2221812e-20 4.9374325e-35)
(0.0071361452 -0.0077440635 -3.27223e-20 0.0087870222 4.13794e-20 7.6958727e-35)
(0.0089218882 -0.008571048 4.1779615e-20 0.008646703 -4.7103e-20 9.5893144e-35)
(0.011094492 -0.0094618717 -4.9147957e-20 0.0085134564 4.92804e-20 1.027038e-34)
(0.013726313 -0.010424451 9.3568209e-21 0.0083951779 -8.3268202e-21 2.9207253e-36)
(0.016901329 -0.01146313 3.6490004e-20 0.0082913848 -2.8753189e-20 3.504039e-35)
(0.020713802 -0.012576829 -2.3117094e-20 0.0081958307 1.6103338e-20 1.1236676e-35)
(0.025266717 -0.013757993 8.0864191e-21 0.0080989572 -4.9722205e-21 1.1100789e-36)
(0.030668179 -0.014991226 2.620869e-21 0.0079895864 -1.4214179e-21 9.5724021e-38)
(0.037025132 -0.01625119 3.6080302e-20 0.007855701 -1.721828e-20 1.4746904e-35)
(0.044433136 -0.017499341 1.303636e-20 0.0076847092 -5.4707762e-21 1.5889897e-36)
(0.052960863 -0.018679831 1.4513195e-20 0.0074640759 -5.3454781e-21 1.6409715e-36)
(0.062628014 -0.019715759 1.5679094e-20 0.0071831975 -5.0632587e-21 1.6301497e-36)
(0.073376813 -0.020507781 -8.7140203e-20 0.0068370658 2.4593143e-20 4.2985075e-35)
(0.085039347 -0.02093839 4.1482304e-20 0.0064323449 -1.0195394e-20 8.3977874e-36)
(0.097306978 -0.02088564 7.1934966e-21 0.0059953911 -1.5348191e-21 2.152226e-37)
(0.10971419 -0.020249185 -8.8013351e-20 0.0055797242 1.6124833e-20 2.8966105e-35)
(0.12165366 -0.01899001 -4.7483375e-20 0.0052681076 7.4181087e-21 7.499175e-36)
(0.1324702 -0.01718104 2.4547216e-20 0.0051612983 -3.2345466e-21 1.8224866e-36)
(0.14160732 -0.01501885 9.3499696e-20 0.0053393182 -1.0165441e-20 2.414006e-35)
(0.14866259 -0.012750226 -4.2058166e-20 0.005807186 3.7279508e-21 4.5699613e-36)
(0.15347757 -0.010601152 1.2638748e-19 0.0064816904 -8.7167565e-21 3.8926658e-35)
(0.15610483 -0.0087180446 6.9925093e-20 0.0072345807 -3.6380264e-21 1.1453581e-35)
(0.15671066 -0.0071370507 9.7275191e-20 0.0079689999 -3.590265e-21 2.1658262e-35)
(0.15550409 -0.0058520459 2.6111002e-19 0.008679077 -5.7101247e-21 1.5482851e-34)
(0.1528142 -0.0049192214 -1.9967778e-19 0.0094401516 1.6422476e-21 9.1505912e-35)
(0.14919268 -0.0044780839 6.3880227e-20 0.010330555 3.9818781e-22 9.6054828e-36)
(0.14551935 -0.0046576974 -1.0633967e-19 0.011370911 -1.9328103e-21 2.7935885e-35)
(0.14274137 -0.0054597838 -9.6997162e-20 0.012502751 -3.0913364e-21 2.4804246e-35)
(0.14162521 -0.0066379533 -3.6027064e-20 0.01360533 -1.6772161e-21 3.7335573e-36)
(0.14228844 -0.0077839957 -3.0847529e-19 0.014536595 -1.8788047e-20 3.0466883e-34)
(0.14382421 -0.0083029449 -7.6978762e-20 0.015200694 -6.0670708e-21 2.17375e-35)
(0.14470115 -0.0077900921 1.6102e-19 0.015657423 1.630151e-20 1.1249609e-34)
(0.14182665 -0.0064046019 5.4448613e-20 0.016486213 7.0097887e-21 1.5983274e-35)
(0.13559908 -0.004962258 -3.5702525e-20 0.017868364 -5.6087234e-21 8.9056468e-36)
(0.12176401 -0.0038792534 -6.2827369e-20 0.018377842 -1.1653372e-20 3.8072458e-35)
(0.10747306 -0.0025800911 -8.2141193e-20 0.017348128 -1.7737765e-20 9.2318773e-35)
(0.085448145 -0.0026822382 4.8908675e-21 0.016028119 1.2448512e-21 5.3693773e-37)
(4.4778289e-08 -2.8441735e-07 6.635095e-24 1.8065287e-06 -4.16015e-23 7.913409e-37)
(4.3557275e-07 -2.731988e-06 4.6113301e-24 1.71356e-05 -2.8493014e-23 7.1411759e-38)
(1.3519252e-06 -8.3706097e-06 -5.8846522e-24 5.1828588e-05 3.5760097e-23 4.6831734e-38)
(2.9820594e-06 -1.8201542e-05 -3.0365678e-23 0.00011110089 1.8132066e-22 6.3870662e-37)
(5.568856e-06 -3.3460707e-05 2.2064673e-23 0.00020106496 -1.2934169e-22 1.9180651e-37)
(9.4267421e-06 -5.5667099e-05 -4.0907745e-23 0.0003287673 2.3513911e-22 3.9754968e-37)
(1.4961743e-05 -8.6672277e-05 2.2346971e-23 0.00050218048 -1.2575408e-22 7.4473374e-38)
(2.2696441e-05 -0.00012871142 6.6222829e-24 0.00073012256 -3.6411618e-23 4.2279597e-39)
(3.3302049e-05 -0.00018445577 -4.6127065e-23 0.0010220726 2.4724977e-22 1.3558406e-37)
(4.7638607e-05 -0.00025706015 -1.2137976e-22 0.0013878445 6.3269451e-22 6.3050775e-37)
(6.6805374e-05 -0.00035019933 -7.4088783e-24 0.0018370777 3.7455895e-23 1.5909693e-39)
(9.2203373e-05 -0.00046808287 2.929871e-22 0.0023785023 -1.4322895e-21 1.7100305e-36)
(0.00012561259 -0.00061543545 -4.8891951e-22 0.0030189465 2.3041607e-21 3.2803704e-36)
(0.00016928619 -0.0007974258 9.5057581e-22 0.003762074 -4.3044405e-21 8.577095e-36)
(0.00022606438 -0.0010195245 -2.9882152e-22 0.004606883 1.2955894e-21 5.8775355e-37)
(0.00029950993 -0.0012872708 7.632998e-22 0.0055460654 -3.1568414e-21 2.6633365e-36)
(0.00039406725 -0.0016059319 -1.1086435e-21 0.0065644242 4.3563469e-21 3.9101178e-36)
(0.00051524586 -0.0019800514 8.6451718e-22 0.0076376654 -3.2140572e-21 1.657084e-36)
(0.00066982817 -0.002412908 -1.6377217e-22 0.008732009 5.7351249e-22 4.1583458e-38)
(0.00086610126 -0.002905943 -7.9570552e-22 0.0098051428 2.6126434e-21 6.8773391e-37)
(0.0011141124 -0.0034582748 2.3114404e-21 0.01080901 -7.0821067e-21 4.0855546e-36)
(0.0014259503 -0.0040664725 -3.8861806e-21 0.011694681 1.105705e-20 8.1842039e-36)