/*--------------------------------*- C++ -*----------------------------------*\
  =========                 |
  \\      /  F ield         | OpenFOAM: The Open Source CFD Toolbox
   \\    /   O peration     | Website:  https://openfoam.org
    \\  /    A nd           | Version:  13
     \\/     M anipulation  |
\*---------------------------------------------------------------------------*/
FoamFile
{
    format      ascii;
    class       volVectorField;
    location    "24.101562";
    object      UMean;
}
// * * * * * * * * * * * * * * * * * * * * * * * * * * * * * * * * * * * * * //

dimensions      [0 1 -1 0 0 0 0];

internalField   nonuniform List<vector> 
17140
(
(-2.7333994e-06 0.00012707053 -1.4542904e-22)
(-3.1372757e-05 0.00039173275 -1.1976351e-23)
(-9.2690687e-05 0.00068170887 7.9166197e-22)
(-0.00019930097 0.00099854441 -8.7070832e-22)
(-0.0003627911 0.0013438436 1.0184575e-22)
(-0.00059894712 0.001719056 -3.3345001e-22)
(-0.00092720504 0.0021254213 -5.6176086e-22)
(-0.0013710591 0.0025638733 2.74762e-22)
(-0.0019588261 0.0030349249 8.9998479e-22)
(-0.0027243939 0.0035385318 2.2104779e-21)
(-0.0037079837 0.0040739327 -3.2848432e-21)
(-0.0049568905 0.0046394711 2.934294e-21)
(-0.0065261561 0.0052324009 4.4990553e-22)
(-0.0084790905 0.0058486855 -2.5578878e-21)
(-0.010887542 0.0064828071 2.8508625e-22)
(-0.013831791 0.0071276044 -2.2716668e-21)
(-0.01739993 0.0077741775 8.5581812e-23)
(-0.021686595 0.0084118914 -1.8656155e-23)
(-0.026790942 0.0090285299 -1.3722488e-21)
(-0.032813827 0.0096106469 1.7971685e-21)
(-0.039854295 0.010144153 -8.7227481e-22)
(-0.048005644 0.010615161 1.6935087e-22)
(-0.057351536 0.011011062 1.252906e-21)
(-0.067963124 0.011321788 -1.2585324e-21)
(-0.07989907 0.011541187 -2.0212789e-21)
(-0.093205757 0.011668448 1.6424823e-21)
(-0.10791627 0.011709261 8.1180195e-21)
(-0.12406332 0.01167547 9.5681185e-22)
(-0.14168132 0.011584009 -8.5317995e-21)
(-0.16081374 0.011453485 -2.0011723e-21)
(-0.18150715 0.011295366 -7.2072096e-21)
(-0.20379967 0.011111017 9.5758752e-21)
(-0.22773299 0.010895075 -2.5007897e-21)
(-0.25333764 0.010639417 -1.2080438e-21)
(-0.280628 0.010335205 -1.186376e-20)
(-0.30959259 0.0099732461 5.2498404e-21)
(-0.34018285 0.0095441964 -7.8912949e-21)
(-0.37229957 0.0090386156 -5.3364262e-21)
(-0.40577685 0.0084472301 -2.4330407e-21)
(-0.44036368 0.0077630002 7.3857849e-21)
(-0.47570621 0.0069832095 1.3841232e-20)
(-0.51133031 0.0061114389 1.2468415e-20)
(-0.5466212 0.0051551868 5.4024229e-21)
(-0.58081256 0.0041221513 -2.5822729e-20)
(-0.61298397 0.0030183799 -1.859763e-20)
(-0.64205584 0.0018523161 4.5074187e-21)
(-0.66691233 0.00062921209 -3.0137312e-20)
(-0.68647413 -0.00065179657 -1.0067935e-20)
(-0.69948515 -0.001981755 1.010921e-20)
(-0.70503005 -0.0033101298 2.4435328e-20)
(-0.70225835 -0.0045729384 -1.4916697e-20)
(-0.69049736 -0.005718167 -9.3727219e-21)
(-0.66903758 -0.0067333402 2.4378287e-20)
(-0.63737821 -0.0075847428 1.1549651e-20)
(-0.59482217 -0.0081797514 8.3019256e-21)
(-0.5410653 -0.0084211431 -6.5394107e-21)
(-0.47584635 -0.0082479053 1.8090448e-20)
(-0.39919215 -0.0076105394 1.5340759e-20)
(-0.3110254 -0.0065162396 3.9320662e-21)
(-0.21246682 -0.0050593643 -1.0239808e-20)
(-0.10393024 -0.0035513907 -8.2074435e-21)
(0.010729759 -0.0024913829 -3.0942527e-20)
(0.13174913 -0.0024112191 -4.6157716e-21)
(0.24958527 -0.0038827529 3.9212021e-20)
(0.37316992 -0.0068742648 -3.0725421e-20)
(-2.4855114e-05 0.00058152401 4.1249071e-23)
(-9.9067886e-05 0.001791456 -4.145753e-21)
(-0.00020963386 0.0031157447 3.6901449e-21)
(-0.00036922688 0.0045616087 -1.0066517e-21)
(-0.00058945807 0.0061360886 -2.0800475e-21)
(-0.00088606991 0.0078454656 3.9766079e-21)
(-0.0012783324 0.0096949345 -4.149114e-21)
(-0.0017894601 0.011688137 3.6551548e-22)
(-0.0024473374 0.013826598 -1.1424497e-21)
(-0.0032852393 0.016109048 -1.9079999e-23)
(-0.0043425638 0.018530656 -3.8272421e-21)
(-0.0056655428 0.021082163 6.0973041e-21)
(-0.0073078914 0.023748955 5.0491116e-22)
(-0.0093313121 0.026510128 -5.0008732e-21)
(-0.011805761 0.029337618 1.542973e-21)
(-0.014809357 0.032195545 9.8409671e-22)
(-0.018427806 0.035039918 -6.2688025e-21)
(-0.022753202 0.037818932 2.0542903e-20)
(-0.027882113 0.040474122 -1.294308e-20)
(-0.033912907 0.042942617 1.5604099e-20)
(-0.040942405 0.045160703 -2.3223455e-20)
(-0.049062131 0.047068715 5.7387794e-21)
(-0.058354587 0.048617029 2.3864286e-21)
(-0.068890445 0.049772473 -7.848347e-21)
(-0.08072849 0.050524104 2.8497726e-20)
(-0.093916255 0.05088711 4.2663976e-21)
(-0.10848778 0.050902683 -2.2448705e-20)
(-0.1244768 0.050629595 2.5367778e-20)
(-0.14191882 0.050134025 -3.5624e-21)
(-0.16085688 0.049474961 -3.477935e-20)
(-0.1813367 0.048696304 3.6667806e-21)
(-0.20339464 0.047822353 2.8039766e-20)
(-0.22707011 0.046860234 6.6671367e-22)
(-0.25239043 0.045805614 -2.117579e-20)
(-0.27936574 0.04464592 2.3778643e-20)
(-0.30797949 0.043361573 -1.0725813e-20)
(-0.33817707 0.041926648 1.2750541e-20)
(-0.36985201 0.040309543 4.0434746e-20)
(-0.40282991 0.038474044 9.001783e-21)
(-0.43685041 0.036382427 3.5191872e-20)
(-0.47154874 0.033999667 -4.5056014e-20)
(-0.50643726 0.031295617 -4.1035513e-20)
(-0.54088433 0.028244536 -6.8670377e-21)
(-0.57409915 0.02482397 5.5305284e-20)
(-0.60512498 0.021020695 -2.5592651e-20)
(-0.63284442 0.016849645 -8.7133086e-21)
(-0.65606768 0.012358492 4.7037212e-21)
(-0.67365006 0.0075993392 1.4286568e-20)
(-0.68446503 0.0026513211 -6.9086781e-21)
(-0.68748153 -0.0023469515 1.2334496e-20)
(-0.68185363 -0.0072848745 7.3806805e-20)
(-0.66689394 -0.012081148 3.5274796e-21)
(-0.64197711 -0.016683939 -1.585162e-20)
(-0.60659119 -0.021049527 3.5354849e-20)
(-0.56022619 -0.025083113 -3.0414471e-20)
(-0.50261472 -0.028657863 8.7290282e-20)
(-0.43349149 -0.031700301 2.5192531e-20)
(-0.35305687 -0.034110064 -7.2513712e-20)
(-0.26128421 -0.03582519 1.2428318e-20)
(-0.15934475 -0.036804095 1.4586326e-20)
(-0.047681362 -0.037115989 2.9959825e-21)
(0.069508151 -0.037118416 -4.0271254e-20)
(0.19267412 -0.036996697 8.0055781e-20)
(0.31203952 -0.038058142 2.4139692e-20)
(0.43740761 -0.039075327 4.0871702e-20)
(-7.1830473e-05 0.0010261519 2.272379e-21)
(-0.00024257626 0.0031612591 -1.2482327e-21)
(-0.00045745217 0.0054982838 -3.3201387e-22)
(-0.00072902461 0.0080502087 3.1505909e-22)
(-0.0010690218 0.010829592 -1.5269929e-21)
(-0.0014929911 0.013847691 -1.133193e-22)
(-0.0020197998 0.017113876 -1.4525703e-21)
(-0.0026719847 0.020634806 -1.5663868e-21)
(-0.0034764196 0.024413429 1.2826147e-20)
(-0.0044649716 0.028447791 -1.1470794e-20)
(-0.0056751696 0.032729669 5.5008326e-21)
(-0.0071508536 0.037243025 8.0778098e-21)
(-0.008942773 0.041962351 -1.6069331e-20)
(-0.011109059 0.046850983 -1.9943335e-21)
(-0.013715487 0.051859529 7.7409813e-21)
(-0.016835424 0.056924643 5.3463285e-21)
(-0.020549351 0.06196845 -6.2354324e-21)
(-0.024943828 0.066899012 2.2712806e-20)
(-0.030109819 0.07161231 -1.3528202e-20)
(-0.036140332 0.075996228 6.7365383e-21)
(-0.043127442 0.079936897 -2.2929718e-20)
(-0.051158921 0.083327521 -6.0187426e-21)
(-0.060314858 0.086079235 1.2685233e-20)
(-0.070664978 0.088132795 -1.9270292e-20)
(-0.082268379 0.089469064 -7.6402388e-21)
(-0.095174886 0.090115797 9.335714e-21)
(-0.10942055 0.090147131 5.34098e-20)
(-0.12504153 0.089668434 2.4343076e-20)
(-0.14207464 0.088794792 -1.2391447e-20)
(-0.16056196 0.087626953 1.3223279e-20)
(-0.18054844 0.086242733 -8.510066e-21)
(-0.20206636 0.084690744 -4.8041452e-20)
(-0.22515029 0.082991493 1.6226528e-20)
(-0.24982067 0.081144718 4.8696385e-20)
(-0.2760788 0.079134089 -1.6542651e-20)
(-0.3038971 0.076929664 -2.3115057e-20)
(-0.3332076 0.07448896 4.0182475e-20)
(-0.36388777 0.071757967 1.2204979e-20)
(-0.39574387 0.068673305 -2.198614e-20)
(-0.42849271 0.065166081 -8.8676531e-21)
(-0.46174208 0.061167471 4.2261375e-20)
(-0.49497002 0.056611523 -1.212964e-20)
(-0.5275011 0.051435826 -1.7350485e-20)
(-0.55849011 0.0455842 -4.5714304e-20)
(-0.58691211 0.039021733 8.6511968e-20)
(-0.61158346 0.031771983 -5.5375785e-20)
(-0.63128387 0.023943181 -1.3658907e-20)
(-0.64480793 0.015667348 -5.4263561e-20)
(-0.65102043 0.0070750851 -6.4625004e-20)
(-0.64894411 -0.0016060415 -3.2434925e-21)
(-0.63782759 -0.010173004 1.3613671e-20)
(-0.61708821 -0.018509827 -1.0115054e-19)
(-0.5862211 -0.026573648 -4.3293378e-20)
(-0.54478355 -0.034320895 -4.4802056e-20)
(-0.49240458 -0.041644704 -1.4792644e-20)
(-0.42891846 -0.048388758 -1.1655081e-19)
(-0.35424215 -0.054436686 4.6737304e-20)
(-0.26875628 -0.059656469 -1.4596997e-20)
(-0.1725134 -0.063932801 -1.2174497e-19)
(-0.066914411 -0.067074627 -4.9303917e-20)
(0.047623258 -0.068872702 6.0110602e-20)
(0.16647168 -0.069638347 2.1090007e-19)
(0.29035953 -0.069153354 -6.8823292e-20)
(0.40852763 -0.069622619 -1.1190514e-19)
(0.5315064 -0.068071235 -4.8531612e-20)
(-0.00014216653 0.0014457228 -7.5757232e-21)
(-0.00045739218 0.0044545909 8.9455885e-21)
(-0.00082840029 0.0077489461 -3.2356903e-21)
(-0.0012675411 0.011347536 3.5199759e-22)
(-0.0017867149 0.01526849 -6.9602982e-21)
(-0.0024011855 0.019528232 7.2081623e-21)
(-0.0031291985 0.024140641 -1.0942452e-20)
(-0.0039922622 0.029115916 5.1567716e-21)
(-0.0050157231 0.034459171 1.9628153e-20)
(-0.0062293203 0.04016877 -4.7304447e-21)
(-0.0076677581 0.046234395 -1.80499e-20)
(-0.009371261 0.052634857 5.5277916e-21)
(-0.011386094 0.059335721 3.7233782e-22)
(-0.01376498 0.066286859 -1.4567422e-20)
(-0.016567351 0.073420125 4.5806532e-20)
(-0.019859352 0.080647477 -2.8287592e-20)
(-0.023713494 0.087859939 -2.7089634e-22)
(-0.028207864 0.094927997 1.5873875e-20)
(-0.033424798 0.10170413 -4.0668735e-20)
(-0.039448997 0.10802809 1.9393301e-20)
(-0.046365096 0.11373574 2.9242877e-20)
(-0.054254892 0.11867139 1.1967767e-20)
(-0.06319449 0.12270341 -6.0066766e-20)
(-0.073251891 0.12574135 -3.1794265e-20)
(-0.084486439 0.12775155 2.0913513e-20)
(-0.096950844 0.12876763 -1.2318634e-20)
(-0.11068471 0.12889129 4.7001929e-20)
(-0.12572775 0.12827323 -1.3675397e-20)
(-0.14211789 0.12707598 3.7429443e-20)
(-0.15989682 0.12544462 -2.1496093e-20)
(-0.17910858 0.12349233 1.3395256e-20)
(-0.19977951 0.12129396 -4.9943066e-20)
(-0.22193674 0.11888506 7.2966744e-21)
(-0.24559064 0.11627008 -3.858578e-20)
(-0.27072964 0.1134292 3.7365705e-20)
(-0.29731016 0.11032215 1.1874874e-20)
(-0.32524455 0.10688975 -1.5149958e-19)
(-0.35438658 0.10305539 -3.9601207e-20)
(-0.38451436 0.098727922 3.3119002e-20)
(-0.41531159 0.093806654 -3.2634649e-20)
(-0.44634684 0.088187544 8.2924167e-21)
(-0.47705003 0.081766676 5.2614102e-20)
(-0.50668774 0.074442724 -2.4862358e-21)
(-0.53434682 0.066125679 -1.7317117e-20)
(-0.55892869 0.05676454 8.6080206e-21)
(-0.5792047 0.046406156 -3.8078674e-21)
(-0.5939587 0.035215245 -1.1766313e-20)
(-0.60196315 0.023408369 1.8416892e-19)
(-0.60215234 0.011220077 -2.0406915e-20)
(-0.59368568 -0.0010211793 1.8820141e-20)
(-0.57597436 -0.01304453 -1.7636658e-19)
(-0.54857994 -0.024706814 9.6807997e-20)
(-0.51111917 -0.035974012 7.9547846e-20)
(-0.46325673 -0.046810493 7.6413306e-20)
(-0.40474798 -0.057102106 7.4235591e-20)
(-0.33560844 -0.066674795 1.1801581e-19)
(-0.25594411 -0.075386434 -2.3866067e-19)
(-0.16634129 -0.083090123 1.49251e-19)
(-0.066957533 -0.089612935 2.3115091e-19)
(0.040516348 -0.09466412 -1.7239331e-19)
(0.15564283 -0.097717874 -5.6449295e-20)
(0.27324058 -0.099076713 -5.0829676e-20)
(0.39456593 -0.097938467 2.5934864e-19)
(0.50780959 -0.097514957 1.9297103e-19)
(0.62309824 -0.093290927 -8.5882778e-21)
(-0.00023266248 0.0018250605 5.3024678e-21)
(-0.00073383627 0.0056249612 -1.3037443e-20)
(-0.0013058229 0.0097872925 1.0633624e-20)
(-0.00196072 0.014336497 -4.020759e-21)
(-0.0027106663 0.019296286 -1.45339e-21)
(-0.0035705845 0.024688453 1.2518702e-20)
(-0.0045579467 0.030531807 -3.1756961e-21)
(-0.0056929697 0.036840776 -6.7507135e-21)
(-0.0069990672 0.043623661 -5.1931077e-22)
(-0.0085032744 0.050880562 -4.4181061e-21)
(-0.010236693 0.058600938 6.2026919e-21)
(-0.012234919 0.066760828 -4.3264285e-21)
(-0.014538452 0.075319791 -1.6001876e-20)
(-0.017193034 0.084217703 -4.6500833e-22)
(-0.020249868 0.09337162 1.2369319e-20)
(-0.023765676 0.10267312 8.8207328e-21)
(-0.027802499 0.1119866 -7.6487477e-21)
(-0.032427191 0.12114925 7.4642338e-22)
(-0.037710535 0.12997366 1.522526e-20)
(-0.043725937 0.13825393 1.8758379e-20)
(-0.05054773 0.14577622 -2.1692958e-20)
(-0.058249177 0.15233419 -2.2138448e-20)
(-0.066900371 0.157749 3.024e-20)
(-0.076566321 0.16189175 -3.7971898e-20)
(-0.087306161 0.16470508 -6.6724645e-20)
(-0.099174938 0.16621838 1.5977006e-19)
(-0.11221871 0.16655171 -8.9244519e-20)
(-0.12648033 0.1658962 1.3383833e-19)
(-0.14199854 0.16446125 -1.6938438e-19)
(-0.15881745 0.1624407 1.9120329e-19)
(-0.17697862 0.15998322 -1.9977101e-19)
(-0.19650208 0.15719251 3.4067636e-20)
(-0.21740501 0.15412207 1.1810736e-19)
(-0.23968541 0.15078251 -6.7129993e-20)
(-0.26331569 0.14715125 2.1165375e-20)
(-0.28823228 0.14317761 6.3084123e-21)
(-0.3143232 0.13878549 7.6778646e-20)
(-0.3414133 0.13387559 2.4949015e-20)
(-0.36924718 0.12832891 2.5006658e-20)
(-0.39747007 0.12201236 2.5110455e-20)
(-0.42560527 0.11478515 -1.280404e-19)
(-0.45302897 0.10650301 5.6116839e-20)
(-0.47894679 0.097024522 8.5713311e-21)
(-0.50238081 0.086228007 -1.0176698e-19)
(-0.52217845 0.074057381 -5.094708e-20)
(-0.53711219 0.060601618 2.5105689e-20)
(-0.54601228 0.046102409 8.9441768e-20)
(-0.54773286 0.030853129 -3.894279e-20)
(-0.54133251 0.015208778 1.1175904e-19)
(-0.52613464 -0.00039637712 6.0317146e-20)
(-0.50169033 -0.01562791 8.3134385e-20)
(-0.46768197 -0.030341596 2.218906e-19)
(-0.42380616 -0.044533613 -1.7219235e-19)
(-0.36980068 -0.05818122 5.5746671e-20)
(-0.30554412 -0.071145792 -9.7845968e-20)
(-0.23127054 -0.083215238 -9.3796606e-20)
(-0.14735299 -0.094233291 -3.6897962e-20)
(-0.054626382 -0.10407846 -3.4590509e-19)
(0.046612707 -0.11250653 -9.5156512e-20)
(0.1543014 -0.11915049 2.218006e-19)
(0.26795438 -0.12311185 8.5201737e-20)
(0.38174909 -0.12486399 -6.5854327e-20)
(0.49751877 -0.12293569 -1.3833578e-19)
(0.60324447 -0.12119723 -2.1612573e-19)
(0.70703502 -0.11423079 1.6997847e-20)
(-0.00033842276 0.0021496357 1.6039213e-20)
(-0.0010570193 0.0066278096 4.1808511e-21)
(-0.0018641011 0.011536119 -3.3886023e-21)
(-0.0027715119 0.016904532 -1.2516234e-20)
(-0.0037917124 0.022762279 6.862173e-21)
(-0.0049392808 0.029136691 -9.8870586e-21)
(-0.0062308468 0.036051952 4.2832739e-21)
(-0.0076851894 0.043527507 1.0215749e-21)
(-0.0093235437 0.051576064 -5.7943302e-21)
(-0.01116987 0.060201188 -1.251734e-20)
(-0.013251142 0.069394453 -6.2777173e-22)
(-0.015597623 0.079132142 2.0719932e-20)
(-0.018243126 0.089371573 -2.8792105e-20)
(-0.021225238 0.10004715 4.6760848e-20)
(-0.024585487 0.11106639 -1.2304844e-20)
(-0.028369405 0.12230636 2.6347173e-20)
(-0.03262648 0.13361103 -3.2173374e-20)
(-0.037409931 0.14479047 2.1127954e-20)
(-0.042776292 0.15562292 -3.3862395e-21)
(-0.048784775 0.16586093 -1.3924546e-20)
(-0.055496409 0.17524292 3.4376951e-20)
(-0.062973012 0.18351076 -4.9377012e-20)
(-0.071276055 0.19043352 5.4681461e-20)
(-0.080465539 0.19583523 9.5265543e-21)
(-0.090599226 0.19962282 -9.5747073e-20)
(-0.10173344 0.20180777 9.8585952e-20)
(-0.11392215 0.20251439 -6.5335149e-20)
(-0.12721101 0.20196341 7.4506793e-20)
(-0.14164256 0.20041425 7.0411422e-21)
(-0.15726366 0.19811116 4.4206024e-21)
(-0.17411102 0.19523961 -3.1009376e-20)
(-0.19220175 0.19193561 1.9805503e-21)
(-0.21153973 0.18827474 -1.1928666e-19)
(-0.23210937 0.18427633 3.2741845e-20)
(-0.25386462 0.17991608 9.8207883e-20)
(-0.2767193 0.17513323 -4.6239615e-20)
(-0.30053451 0.16983508 3.8338751e-20)
(-0.32510387 0.16390004 -3.8494751e-20)
(-0.35013653 0.15718154 -2.1541419e-19)
(-0.37523733 0.14951358 1.1938452e-19)
(-0.39988334 0.1407171 2.9122754e-20)
(-0.42339875 0.1306065 -1.6482994e-19)
(-0.44493651 0.11900154 9.9039437e-21)
(-0.46347372 0.10575557 2.0249662e-20)
(-0.47784584 0.090822947 2.1427654e-19)
(-0.48689953 0.074353484 4.9137502e-20)
(-0.48954509 0.05667487 -7.6326639e-20)
(-0.48479974 0.038152516 -7.7251375e-20)
(-0.471851 0.019261703 -1.0863327e-19)
(-0.45012945 0.00052771185 -1.3278905e-19)
(-0.41925792 -0.01766233 -8.0517227e-20)
(-0.37900162 -0.035168492 -1.2571604e-19)
(-0.32911318 -0.052022451 4.3119454e-20)
(-0.26940419 -0.068202344 -2.6675782e-19)
(-0.19989683 -0.083524639 -1.7924649e-20)
(-0.12108436 -0.097731937 -1.5689397e-20)
(-0.033620207 -0.11065245 -8.4897186e-21)
(0.061317823 -0.12223169 3.72293e-19)
(0.16332343 -0.13215564 1.486186e-19)
(0.26985402 -0.14003222 -2.3315145e-19)
(0.38032677 -0.14454949 -3.425248e-19)
(0.48855384 -0.14638643 -1.5648233e-19)
(0.59629521 -0.14362987 -5.2062324e-20)
(0.69253964 -0.1401753 3.0640524e-19)
(0.7828066 -0.13043441 -7.8008471e-20)
(-0.00045293542 0.0024065501 -3.0046018e-21)
(-0.0014073747 0.0074234134 -7.032889e-21)
(-0.0024694054 0.012926461 1.6984687e-20)
(-0.0036509657 0.018950819 -6.3273204e-22)
(-0.0049648153 0.025531072 -8.2840942e-21)
(-0.0064252526 0.03270016 -3.6551252e-21)
(-0.0080480943 0.040488028 -2.7026132e-21)
(-0.0098506739 0.048919924 5.3358098e-21)
(-0.011851988 0.058014247 -2.7683312e-20)
(-0.014072799 0.067779921 2.0951598e-20)
(-0.016535748 0.078213251 -1.015362e-21)
(-0.019265441 0.089294221 -1.2775198e-20)
(-0.022288543 0.1009823 4.8046295e-20)
(-0.025633843 0.11321179 -4.8186834e-20)
(-0.029332314 0.12588708 6.4733309e-21)
(-0.033417153 0.13887798 4.0377258e-20)
(-0.037923815 0.15201596 -3.8374983e-20)
(-0.042890027 0.16509211 1.358894e-20)
(-0.048355815 0.177858 -2.6750323e-20)
(-0.054363536 0.19003107 3.4873323e-20)
(-0.060957911 0.20130593 6.6598529e-20)
(-0.068186093 0.21137307 -6.7153899e-20)
(-0.076097692 0.21994524 -1.0018581e-19)
(-0.084744748 0.22679 1.9696054e-19)
(-0.094181468 0.2317644 -1.6085666e-19)
(-0.10446424 0.23484445 9.4970981e-20)
(-0.11565245 0.23614008 -2.4930386e-20)
(-0.12779885 0.23588576 5.9707594e-20)
(-0.14095157 0.23438922 -6.2147387e-20)
(-0.1551555 0.2319447 -8.4639134e-20)
(-0.17044744 0.22878254 5.7085439e-20)
(-0.18684345 0.22507282 9.5212358e-20)
(-0.20433176 0.22091766 -8.5480497e-21)
(-0.22288248 0.21634955 -3.6032147e-21)
(-0.24242964 0.21134482 -6.2913015e-20)
(-0.26286324 0.20583404 2.739152e-20)
(-0.28401678 0.19970886 1.0083741e-19)
(-0.30565245 0.19282609 5.075227e-20)
(-0.32744407 0.18501181 -7.8107115e-20)
(-0.34895713 0.17606681 6.2004836e-20)
(-0.3696255 0.16577348 -5.2414815e-20)
(-0.38872954 0.15390614 1.7775135e-20)
(-0.40538676 0.14025057 6.6523683e-20)
(-0.41856281 0.1246476 -1.5840031e-19)
(-0.42713846 0.10708214 -9.3686535e-20)
(-0.43009541 0.087774305 -6.034814e-20)
(-0.42647825 0.067126626 1.8748058e-19)
(-0.41546587 0.045569759 1.2046362e-19)
(-0.39631527 0.023658753 1.4000071e-19)
(-0.36846001 0.0020081113 2.4232128e-19)
(-0.33156588 -0.018925628 -8.3092482e-20)
(-0.28547519 -0.038998427 1.7510351e-20)
(-0.22999723 -0.058281483 1.39004e-19)
(-0.16505474 -0.076747505 4.0991335e-19)
(-0.090871467 -0.094144393 2.727394e-19)
(-0.0082481869 -0.1101581 1.0881074e-19)
(0.081933163 -0.12459514 3.2265065e-19)
(0.17817861 -0.13751678 -2.2247132e-19)
(0.27995987 -0.14851222 2.3321914e-20)
(0.38420439 -0.15717738 3.7586994e-19)
(0.49001808 -0.16191063 2.6081771e-19)
(0.59145545 -0.16347024 1.2469986e-20)
(0.68966179 -0.15980935 -4.3220365e-19)
(0.77492926 -0.15452633 4.5582318e-20)
(0.85019293 -0.14194315 -6.6676623e-20)
(-0.0005684998 0.0025853293 -1.1759067e-20)
(-0.0017613876 0.0079793635 5.8237969e-21)
(-0.0030811943 0.013901801 -7.8717275e-21)
(-0.0045402972 0.020392378 -4.4771441e-21)
(-0.0061517469 0.027490699 1.2506566e-20)
(-0.0079296746 0.035235221 1.1688518e-20)
(-0.0098892029 0.043661881 -1.2012794e-20)
(-0.012046351 0.052802385 1.4474874e-21)
(-0.014418016 0.062682013 3.3600538e-22)
(-0.017021909 0.073316909 2.3958965e-20)
(-0.019876473 0.084710776 -2.6397216e-21)
(-0.023000775 0.096850918 -4.8699517e-20)
(-0.02641439 0.10970366 3.9143729e-20)
(-0.030137282 0.12320916 -1.3597702e-21)
(-0.034189698 0.13727582 -2.6613073e-20)
(-0.038592114 0.15177463 -2.3131407e-21)
(-0.04336526 0.16653401 5.9464325e-21)
(-0.04853029 0.18133619 2.7141275e-20)
(-0.054109138 0.19591619 -5.0440547e-20)
(-0.06012513 0.20996543 9.0124038e-20)
(-0.06660391 0.22314158 -1.9803398e-20)
(-0.073574596 0.2350868 1.4805754e-20)
(-0.08107116 0.24545529 -1.2456129e-20)
(-0.08913377 0.25394952 5.0679578e-22)
(-0.097809632 0.26036134 -7.6743876e-20)
(-0.10715306 0.26461054 -7.8057836e-20)
(-0.11722487 0.26676988 1.5745461e-19)
(-0.12808868 0.2670647 2.6649608e-20)
(-0.13979787 0.26583269 -9.4513989e-20)
(-0.15239468 0.26342898 -3.4111528e-20)
(-0.16591992 0.26013901 -7.8030145e-20)
(-0.18038825 0.25616324 8.9327224e-20)
(-0.19577683 0.25163713 3.9471499e-20)
(-0.21203796 0.24661361 -9.2678677e-20)
(-0.22908571 0.24107328 3.9338699e-20)
(-0.24678641 0.23494088 1.8504285e-20)
(-0.26494636 0.2280941 -5.5738929e-20)
(-0.2832972 0.22036932 -1.4622729e-19)
(-0.30147894 0.21156591 -4.4465024e-20)
(-0.31902019 0.20145196 2.9857261e-20)
(-0.33531723 0.18977302 7.0845184e-20)
(-0.3496188 0.17626771 7.3003938e-20)
(-0.36102955 0.1606974 8.0451074e-20)
(-0.36854122 0.14290649 1.6782276e-19)
(-0.37113665 0.12292913 -4.544881e-21)
(-0.36795635 0.10106019 6.9854045e-20)
(-0.35820721 0.077744425 -3.7386333e-19)
(-0.34115721 0.053442971 -1.0257669e-19)
(-0.31603877 0.028754633 -1.1631558e-19)
(-0.2822893 0.0043977543 -3.2000704e-19)
(-0.23967484 -0.019071374 3.7224303e-19)
(-0.18812612 -0.041502867 -8.2958717e-20)
(-0.12751841 -0.062998668 -2.6733367e-19)
(-0.057921577 -0.083505794 -3.3067057e-19)
(0.020211297 -0.10268886 -4.2479771e-20)
(0.10576077 -0.1201954 1.0826307e-19)
(0.19763096 -0.1358254 1.7715584e-19)
(0.2941808 -0.14975161 -7.5992248e-20)
(0.39464203 -0.16145886 1.3920226e-19)
(0.49549884 -0.17052428 -1.1829772e-19)
(0.59547262 -0.17519777 -4.0513379e-20)
(0.68922557 -0.17616166 -1.2155239e-19)
(0.77708731 -0.17138714 5.3890299e-19)
(0.84985348 -0.16394807 1.7498746e-20)
(0.90825292 -0.14852281 2.1973525e-19)
(-0.00067667461 0.0026788096 1.0945885e-20)
(-0.0020930177 0.0082733747 2.1455844e-21)
(-0.0036546221 0.014422957 -2.3591467e-21)
(-0.0053743605 0.021171192 -1.1602884e-20)
(-0.0072656619 0.028562144 1.3927208e-20)
(-0.0093426247 0.03663945 -1.1839087e-20)
(-0.011619863 0.045445011 -5.6649835e-21)
(-0.014112333 0.055017378 3.045098e-22)
(-0.016835157 0.065389627 4.8004871e-21)
(-0.019803391 0.076586708 2.7364522e-20)
(-0.023031761 0.088622137 -4.6083481e-20)
(-0.026534345 0.10149399 5.5571869e-20)
(-0.030324238 0.11518008 -1.6393511e-20)
(-0.034413208 0.12963244 -2.2366649e-20)
(-0.038811379 0.14477101 3.4529703e-20)
(-0.043526989 0.16047707 -6.8600639e-20)
(-0.048566316 0.17658663 8.3921794e-20)
(-0.053933832 0.1928849 1.3303296e-21)
(-0.059632739 0.20910288 4.9263479e-20)
(-0.065665989 0.22491818 -1.9850203e-19)
(-0.072037902 0.2399621 4.8886515e-20)
(-0.078756397 0.25383553 2.0593467e-19)
(-0.085835742 0.26613572 -9.9312947e-20)
(-0.093299476 0.27649418 -1.2088737e-19)
(-0.1011829 0.28462319 3.1056459e-20)
(-0.10953422 0.29036385 1.6565424e-19)
(-0.11841345 0.29372378 -2.5608617e-19)
(-0.12788854 0.29488976 2.8920552e-19)
(-0.13802521 0.2941998 -2.316161e-19)
(-0.14887025 0.29206279 4.5079295e-20)
(-0.16045508 0.28884149 -7.8344255e-20)
(-0.17279813 0.28478202 -1.1294182e-19)
(-0.18587545 0.28004065 4.5217154e-20)
(-0.19961946 0.27470001 1.1887226e-20)
(-0.21392578 0.26875619 1.7022147e-19)
(-0.22863604 0.26213273 -3.347789e-20)
(-0.24353008 0.25469565 8.6099324e-20)
(-0.25831006 0.24626221 -7.3170623e-20)
(-0.27258366 0.2366063 4.3766572e-20)
(-0.28584555 0.2254652 2.8453235e-20)
(-0.29746077 0.21255164 2.4382228e-20)
(-0.30665938 0.19757655 2.418688e-20)
(-0.31255518 0.1802904 -1.469304e-19)
(-0.31419591 0.16055904 -1.1486625e-19)
(-0.31070216 0.13847814 3.229654e-20)
(-0.301348 0.11441105 -2.0194037e-20)
(-0.28547726 0.088800382 8.3850684e-20)
(-0.26235473 0.062092853 -1.6465762e-19)
(-0.23120961 0.03492229 -1.9002247e-19)
(-0.19163827 0.0081320773 -5.4728555e-20)
(-0.14357705 -0.017624508 -1.435462e-19)
(-0.087018931 -0.04218648 4.5805363e-21)
(-0.021874613 -0.065675292 6.9559183e-20)
(0.051612273 -0.088003764 3.3926309e-19)
(0.13274732 -0.10873621 -1.7096708e-19)
(0.22012332 -0.12749566 6.9769937e-20)
(0.31249488 -0.14409719 -2.0685507e-19)
(0.40822938 -0.15878232 3.5235333e-19)
(0.50617346 -0.17092309 -2.0509654e-19)
(0.60251204 -0.17997346 7.1701704e-20)
(0.695905 -0.1842306 -8.5562997e-23)
(0.78145458 -0.1843159 5.8236784e-20)
(0.85815887 -0.17815856 2.1815591e-19)
(0.91627708 -0.16857754 -4.1615338e-19)
(0.95568651 -0.15074586 4.2891775e-19)
(-0.00076878361 0.0026839428 -2.4243699e-20)
(-0.0023756826 0.008295664 -1.2166605e-20)
(-0.0041437246 0.014472259 1.911322e-20)
(-0.0060862903 0.021260335 -5.0350613e-22)
(-0.0082172453 0.028707596 -1.7314061e-20)
(-0.010550789 0.036862217 -9.064819e-21)
(-0.013101253 0.045771687 1.9139712e-20)
(-0.015882864 0.055481367 -3.1483719e-21)
(-0.018909427 0.066032577 4.4514901e-20)
(-0.022193956 0.077460138 -8.7043141e-21)
(-0.025748227 0.08978925 -2.2344309e-22)
(-0.029582274 0.10303161 3.2291752e-20)
(-0.033703827 0.11718062 -1.0410083e-19)
(-0.038117727 0.13220571 4.8857086e-20)
(-0.042825351 0.14804566 8.8291822e-20)
(-0.047824113 0.16460117 -9.5065176e-20)
(-0.053107149 0.181727 1.1837585e-20)
(-0.058663306 0.19922439 -6.823976e-20)
(-0.064477615 0.21683497 -5.1514581e-20)
(-0.070532455 0.23423794 1.6502774e-19)
(-0.076809568 0.25105306 -1.2641883e-19)
(-0.083293148 0.26685231 1.7003095e-19)
(-0.08997382 0.28118332 -2.0454895e-20)
(-0.096853311 0.29360622 8.5446112e-20)
(-0.10394889 0.3037432 -1.9016367e-19)
(-0.11129647 0.311335 4.6054989e-20)
(-0.11895068 0.31629282 1.1871603e-19)
(-0.12698039 0.31872875 -2.9273856e-19)
(-0.13545846 0.31894574 1.296377e-19)
(-0.14444604 0.31737249 1.4175664e-19)
(-0.15397415 0.31444783 -1.1906719e-19)
(-0.16404647 0.31050522 -1.6009511e-20)
(-0.17464437 0.30574514 8.2024421e-20)
(-0.18569424 0.30026551 -4.5919741e-20)
(-0.19706696 0.29407783 7.1120937e-20)
(-0.20858503 0.28711584 -2.5243919e-19)
(-0.22000264 0.27924059 1.3358217e-19)
(-0.23099189 0.27025363 8.0895785e-20)
(-0.24112812 0.2599059 1.6679621e-19)
(-0.24987435 0.24790725 2.2036777e-20)
(-0.25657071 0.23394388 -1.7992487e-19)
(-0.26043993 0.21770948 7.2470999e-20)
(-0.26062125 0.19895842 1.0674865e-19)
(-0.25623518 0.17759436 1.6732797e-20)
(-0.24653569 0.15377476 -1.0239575e-19)
(-0.23088692 0.12791104 -8.9385034e-20)
(-0.20870992 0.10041357 2.6951684e-19)
(-0.1792622 0.07169851 1.415918e-19)
(-0.14196496 0.042446706 3.0526938e-19)
(-0.096717411 0.013613311 1.0670263e-19)
(-0.04361326 -0.014093608 4.1287271e-20)
(0.017363364 -0.040525184 3.0512911e-19)
(0.086278467 -0.065797091 1.2011947e-19)
(0.16272028 -0.089743289 -4.0572402e-19)
(0.24575131 -0.11181507 3.2752168e-19)
(0.33373554 -0.13161921 -3.031781e-19)
(0.42546042 -0.14901542 1.4662633e-19)
(0.51929296 -0.16425092 -7.1367023e-19)
(0.61360505 -0.17657152 -3.5938384e-19)
(0.70479069 -0.18547333 1.4614879e-19)
(0.7914664 -0.18924971 2.2999783e-19)
(0.86824977 -0.18820745 3.8623649e-19)
(0.93188917 -0.18036835 6.8019981e-20)
(0.972214 -0.16838317 5.3832003e-20)
(0.99147513 -0.14864306 -5.7288112e-19)
(-0.00083675527 0.00260249 -4.3625566e-22)
(-0.0025845899 0.0080511183 2.257981e-20)
(-0.0045055411 0.014057331 -2.6636376e-20)
(-0.006613444 0.020669564 -1.2828943e-20)
(-0.0089226016 0.027938066 2.5720149e-20)
(-0.011447416 0.03591457 8.3411904e-21)
(-0.014202152 0.044651335 -4.0515132e-20)
(-0.017200663 0.054199982 4.3681809e-20)
(-0.02045597 0.064609881 9.2365104e-21)
(-0.023979776 0.075926036 3.6848208e-20)
(-0.027781877 0.088186323 -9.8188317e-20)
(-0.031869493 0.10141792 -1.2031507e-21)
(-0.036246502 0.11563285 8.9021179e-20)
(-0.040912615 0.13082239 -9.6162744e-20)
(-0.045862519 0.14695035 6.9367419e-20)
(-0.051085071 0.16394518 2.5956047e-20)
(-0.056562629 0.1816911 -5.4816758e-20)
(-0.062270704 0.20001871 5.0100379e-20)
(-0.068178125 0.21869614 6.7668085e-20)
(-0.07424798 0.23742224 -1.463229e-21)
(-0.080439713 0.25582445 -1.1047653e-19)
(-0.086712516 0.2734644 6.9654972e-20)
(-0.093030302 0.28985526 -3.9618159e-20)
(-0.099367838 0.30449398 -1.9579993e-19)
(-0.10571744 0.31690994 -6.6812077e-20)
(-0.11209472 0.32672692 1.8549354e-19)
(-0.1185411 0.33372855 -1.890504e-20)
(-0.12512097 0.33791 2.1790815e-19)
(-0.13191115 0.33949339 -1.3154776e-19)
(-0.13898269 0.33888444 7.0696563e-20)
(-0.14637948 0.33656761 -1.0440151e-19)
(-0.154108 0.33297574 -2.584249e-20)
(-0.16212956 0.32839515 1.3235598e-19)
(-0.1703596 0.32296408 -1.386834e-19)
(-0.17866672 0.31671761 -2.057746e-19)
(-0.18685281 0.30959756 2.1275342e-20)
(-0.19464487 0.30146072 2.2838757e-19)
(-0.20168665 0.29209599 -2.955146e-19)
(-0.20752184 0.28123617 6.4556691e-20)
(-0.21158474 0.26857029 -1.388017e-19)
(-0.21319692 0.25376668 2.147112e-20)
(-0.21158382 0.23651309 -2.1853903e-19)
(-0.20591985 0.21658022 -1.0491532e-19)
(-0.19540609 0.193915 -1.296579e-19)
(-0.17938255 0.16873533 5.209126e-19)
(-0.15728939 0.1414732 1.6875509e-19)
(-0.12859585 0.11250927 -2.2395464e-19)
(-0.092682423 0.082245901 1.8127752e-19)
(-0.049349528 0.051414684 1.5078833e-19)
(0.0012004066 0.02101359 -1.6963346e-19)
(0.058795535 -0.0082713628 -8.8462804e-20)
(0.12351394 -0.036323826 -2.0700375e-19)
(0.19539044 -0.063175259 -1.0044826e-19)
(0.27387282 -0.08853971 3.4403695e-19)
(0.35776852 -0.1117719 1.94244e-19)
(0.44534046 -0.13250405 3.1342125e-20)
(0.53550923 -0.15062841 -1.261248e-21)
(0.62655924 -0.16633403 1.7677769e-19)
(0.71670349 -0.17878661 -2.5646254e-19)
(0.80282141 -0.18723623 -3.3352067e-19)
(0.88275914 -0.18996191 -9.3791757e-20)
(0.94909831 -0.18724938 -7.1404074e-19)
(0.99587164 -0.17746993 -5.6967073e-19)
(1.0155403 -0.16378736 -1.456181e-19)
(1.0154357 -0.14352802 -7.7737867e-20)
(-0.00087400108 0.0024414177 1.4738534e-20)
(-0.0026994283 0.007560579 9.4670941e-21)
(-0.0047047622 0.013213408 -1.9700496e-20)
(-0.0069041563 0.019448843 3.3789264e-20)
(-0.0093122691 0.02631832 8.466125e-21)
(-0.01194373 0.033875797 -3.6314013e-20)
(-0.014812894 0.042177032 1.858644e-22)