/*--------------------------------*- C++ -*----------------------------------*\
  =========                 |
  \\      /  F ield         | OpenFOAM: The Open Source CFD Toolbox
   \\    /   O peration     | Website:  https://openfoam.org
    \\  /    A nd           | Version:  13
     \\/     M anipulation  |
\*---------------------------------------------------------------------------*/
FoamFile
{
    format      ascii;
    class       volScalarField;
    location    "0.02";
    object      mag(U);
}
// * * * * * * * * * * * * * * * * * * * * * * * * * * * * * * * * * * * * * //

dimensions      [0 1 -1 0 0 0 0];

internalField   nonuniform List<scalar> 
1000
(
15.171
15.9687
16.5823
17.2212
17.8593
18.4972
19.1352
19.7733
20.4116
21.05
21.6885
22.3271
22.9659
23.6047
24.2438
24.8829
25.5222
26.1615
26.8011
27.4407
28.0805
28.7203
29.3603
30.0005
30.6407
31.2811
31.9216
32.5622
33.2029
33.8438
34.4848
35.1259
35.7671
36.4085
37.0499
37.6915
38.3332
38.9751
39.617
40.2591
40.9013
41.5436
42.1861
42.8286
43.4713
44.1141
44.757
45.4001
46.0432
46.6865
47.3299
47.9735
48.6171
49.2609
49.9048
50.5488
51.1929
51.8372
52.4816
53.1261
53.7707
54.4154
55.0603
55.7052
56.3503
56.9956
57.6409
58.2863
58.9319
59.5776
60.2234
60.8694
61.5154
62.1616
62.8079
63.4543
64.1009
64.7475
65.3943
66.0412
66.6882
67.3354
67.9826
68.63
69.2775
69.9251
70.5729
71.2207
71.8687
72.5168
73.165
73.8134
74.4618
75.1104
75.7591
76.4079
77.0569
77.7059
78.3551
79.0044
79.6538
80.3034
80.953
81.6028
82.2527
82.9027
83.5528
84.2031
84.8535
85.504
86.1546
86.8053
87.4562
88.1072
88.7583
89.4095
90.0609
90.7123
91.3639
92.0156
92.6674
93.3194
93.9715
94.6236
95.276
95.9284
96.5809
97.2336
97.8864
98.5393
99.1924
99.8455
100.499
101.152
101.806
102.459
103.113
103.767
104.421
105.075
105.73
106.384
107.038
107.693
108.348
109.003
109.658
110.313
110.968
111.623
112.279
112.934
113.59
114.246
114.902
115.558
116.214
116.87
117.527
118.183
118.84
119.496
120.153
120.81
121.467
122.124
122.782
123.439
124.097
124.754
125.412
126.069
126.727
127.385
128.043
128.701
129.36
130.018
130.676
131.335
131.993
132.652
133.31
133.969
134.628
135.287
135.945
136.604
137.263
137.922
138.581
139.241
139.9
140.559
141.218
141.877
142.536
143.196
143.855
144.514
145.173
145.832
146.491
147.151
147.81
148.469
149.128
149.787
150.445
151.104
151.763
152.422
153.08
153.739
154.397
155.055
155.713
156.371
157.029
157.687
158.344
159.001
159.658
160.315
160.972
161.629
162.285
162.941
163.597
164.252
164.907
165.562
166.217
166.871
167.525
168.179
168.832
169.485
170.138
170.79
171.441
172.093
172.743
173.394
174.044
174.693
175.342
175.99
176.638
177.285
177.931
178.577
179.223
179.867
180.511
181.154
181.797
182.439
183.08
183.72
184.36
184.998
185.636
186.273
186.909
187.544
188.178
188.811
189.443
190.074
190.704
191.333
191.961
192.588
193.214
193.838
194.461
195.083
195.704
196.323
196.941
197.558
198.173
198.787
199.399
200.01
200.619
201.227
201.833
202.438
203.041
203.642
204.242
204.84
205.436
206.03
206.622
207.213
207.801
208.388
208.973
209.555
210.136
210.714
211.291
211.865
212.437
213.007
213.574
214.14
214.703
215.263
215.822
216.377
216.931
217.482
218.03
218.576
219.12
219.66
220.198
220.734
221.267
221.797
222.324
222.849
223.371
223.89
224.406
224.919
225.43
225.937
226.442
226.944
227.443
227.938
228.431
228.921
229.408
229.892
230.373
230.851
231.325
231.797
232.266
232.731
233.194
233.653
234.11
234.563
235.013
235.46
235.904
236.345
236.783
237.218
237.65
238.079
238.505
238.928
239.348
239.764
240.178
240.589
240.997
241.403
241.805
242.204
242.601
242.995
243.386
243.774
244.16
244.543
244.923
245.3
245.675
246.047
246.417
246.784
247.149
247.511
247.871
248.228
248.583
248.935
249.286
249.633
249.979
250.322
250.664
251.003
251.34
251.674
252.007
252.338
252.666
252.993
253.317
253.64
253.961
254.28
254.597
254.912
255.225
255.537
255.847
256.155
256.461
256.766
257.069
257.37
257.67
257.968
258.264
258.559
258.853
259.144
259.435
259.723
260.011
260.296
260.581
260.863
261.145
261.425
261.703
261.98
262.256
262.53
262.803
263.075
263.345
263.613
263.881
264.147
264.412
264.675
264.937
265.198
265.457
265.715
265.971
266.227
266.481
266.733
266.985
267.235
267.484
267.731
267.977
268.222
268.465
268.708
268.948
269.188
269.426
269.663
269.898
270.133
270.366
270.597
270.828
271.056
271.284
271.51
271.735
271.959
272.181
272.402
272.622
272.84
273.057
273.273
273.487
273.7
273.912
274.122
274.331
274.539
274.745
274.95
275.153
275.355
275.556
275.756
275.954
276.151
276.346
276.54
276.733
276.924
277.114
277.303
277.49
277.676
277.86
278.043
278.225
278.406
278.585
278.762
278.939
279.114
279.287
279.46
279.631
279.8
279.969
280.135
280.301
280.465
280.628
280.789
280.95
281.108
281.266
281.422
281.577
281.73
281.883
282.033
282.183
282.331
282.478
282.623
282.768
282.911
283.052
283.193
283.332
283.469
283.606
283.741
283.875
284.008
284.139
284.269
284.398
284.526
284.652
284.777
284.901
285.023
285.145
285.265
285.384
285.501
285.618
285.733
285.847
285.96
286.072
286.182
286.292
286.4
286.507
286.613
286.718
286.821
286.924
287.025
287.125
287.224
287.322
287.419
287.515
287.609
287.703
287.795
287.887
287.977
288.066
288.154
288.242
288.328
288.413
288.497
288.58
288.662
288.743
288.823
288.902
288.98
289.057
289.134
289.209
289.283
289.356
289.429
289.5
289.571
289.64
289.709
289.777
289.844
289.91
289.975
290.039
290.102
290.165
290.227
290.288
290.348
290.407
290.465
290.523
290.58
290.636
290.691
290.745
290.799
290.852
290.904
290.955
291.006
291.056
291.105
291.153
291.201
291.248
291.294
291.34
291.384
291.429
291.472
291.515
291.557
291.599
291.64
291.68
291.72
291.759
291.797
291.835
291.872
291.908
291.944
291.98
292.014
292.049
292.082
292.115
292.148
292.18
292.211
292.242
292.272
292.302
292.331
292.36
292.388
292.416
292.443
292.47
292.496
292.522
292.547
292.572
292.596
292.62
292.643
292.666
292.689
292.711
292.732
292.753
292.774
292.794
292.814
292.834
292.853
292.871
292.89
292.907
292.925
292.942
292.959
292.975
292.991
293.006
293.021
293.036
293.05
293.065
293.078
293.092
293.104
293.117
293.129
293.141
293.153
293.164
293.175
293.186
293.196
293.206
293.215
293.225
293.234
293.242
293.251
293.259
293.266
293.274
293.281
293.288
293.294
293.3
293.306
293.312
293.317
293.322
293.327
293.331
293.336
293.339
293.343
293.346
293.349
293.352
293.354
293.357
293.358
293.36
293.361
293.362
293.363
293.363
293.363
293.363
293.363
293.362
293.361
293.359
293.358
293.356
293.354
293.351
293.348
293.345
293.341
293.338
293.334
293.329
293.324
293.319
293.314
293.308
293.302
293.296
293.289
293.282
293.275
293.267
293.259
293.251
293.242
293.233
293.224
293.214
293.204
293.193
293.182
293.171
293.159
293.147
293.135
293.122
293.109
293.095
293.081
293.067
293.052
293.037
293.021
293.005
292.988
292.971
292.954
292.936
292.917
292.898
292.879
292.859
292.839
292.818
292.797
292.775
292.753
292.73
292.706
292.682
292.658
292.633
292.608
292.581
292.555
292.528
292.5
292.471
292.442
292.413
292.382
292.352
292.32
292.288
292.255
292.222
292.188
292.153
292.118
292.082
292.045
292.008
291.97
291.931
291.892
291.852
291.811
291.769
291.727
291.684
291.64
291.595
291.55
291.504
291.457
291.409
291.361
291.312
291.262
291.211
291.16
291.107
291.054
291
290.946
290.89
290.834
290.777
290.719
290.66
290.601
290.54
290.479
290.417
290.355
290.291
290.227
290.162
290.096
290.029
289.962
289.893
289.824
289.755
289.684
289.613
289.541
289.468
289.395
289.321
289.246
289.17
289.094
289.017
288.94
288.861
288.783
288.703
288.623
288.543
288.462
288.38
288.298
288.216
288.133
288.049
287.965
287.881
287.796
287.711
287.626
287.54
287.454
287.368
287.282
287.195
287.108
287.022
286.935
286.847
286.76
286.673
286.586
286.499
286.412
286.325
286.238
286.151
286.065
285.978
285.892
285.807
285.721
285.636
285.551
285.467
285.383
285.299
285.217
285.134
285.052
284.971
284.89
284.81
284.731
284.652
284.574
284.496
284.42
284.344
284.269
284.195
284.122
284.049
283.978
283.907
283.837
283.769
283.701
283.634
283.568
283.503
283.439
283.376
283.315
283.254
283.194
283.136
283.078
283.022
282.966
282.912
282.859
282.806
282.755
282.706
282.657
282.609
282.562
282.517
282.472
282.429
282.387
282.345
282.305
282.266
282.228
282.191
282.155
282.121
282.087
282.054
282.022
281.992
281.962
281.933
281.905
281.878
281.852
281.827
281.803
281.78
281.758
281.737
281.716
281.697
281.678
281.66
281.643
281.627
281.611
281.597
281.583
281.57
281.557
281.545
281.535
281.524
281.515
281.506
281.498
281.49
281.483
281.477
281.471
281.467
281.462
)
;

boundaryField
{
    sides
    {
        type            calculated;
        value           nonuniform List<scalar> 2(281.462 15.171);
    }
    empty
    {
        type            empty;
    }
}


// ************************************************************************* //
