/*--------------------------------*- C++ -*----------------------------------*\
  =========                 |
  \\      /  F ield         | OpenFOAM: The Open Source CFD Toolbox
   \\    /   O peration     | Website:  https://openfoam.org
    \\  /    A nd           | Version:  13
     \\/     M anipulation  |
\*---------------------------------------------------------------------------*/
FoamFile
{
    format      ascii;
    class       surfaceScalarField;
    location    "0.02";
    object      phi;
}
// * * * * * * * * * * * * * * * * * * * * * * * * * * * * * * * * * * * * * //

dimensions      [1 0 -1 0 0 0 0];

internalField   nonuniform List<scalar> 
999
(
34.4954
35.8906
37.2855
38.6799
40.0738
41.4676
42.8612
44.2547
45.6481
47.0413
48.4345
49.8274
51.22
52.6124
54.0044
55.396
56.7872
58.1781
59.5685
60.9585
62.3481
63.7373
65.1261
66.5144
67.9023
69.2897
70.6768
72.0634
73.4495
74.8353
76.2206
77.6054
78.9899
80.3739
81.7575
83.1406
84.5233
85.9055
87.2874
88.6687
90.0497
91.4302
92.8102
94.1899
95.569
96.9478
98.3261
99.7039
101.081
102.458
103.835
105.211
106.587
107.962
109.336
110.711
112.085
113.458
114.831
116.203
117.576
118.947
120.318
121.689
123.059
124.429
125.798
127.167
128.536
129.904
131.271
132.638
134.005
135.371
136.737
138.102
139.467
140.831
142.195
143.559
144.922
146.284
147.647
149.008
150.369
151.73
153.09
154.45
155.81
157.169
158.527
159.885
161.243
162.6
163.956
165.312
166.668
168.023
169.378
170.733
172.086
173.44
174.793
176.145
177.497
178.849
180.2
181.551
182.901
184.251
185.6
186.949
188.297
189.645
190.993
192.34
193.687
195.033
196.378
197.724
199.068
200.413
201.757
203.1
204.443
205.786
207.128
208.469
209.81
211.151
212.492
213.831
215.171
216.51
217.848
219.186
220.524
221.861
223.198
224.534
225.87
227.205
228.54
229.875
231.209
232.543
233.876
235.209
236.541
237.873
239.205
240.536
241.866
243.197
244.526
245.856
247.185
248.513
249.841
251.169
252.496
253.823
255.149
256.475
257.8
259.125
260.45
261.774
263.098
264.421
265.744
267.066
268.388
269.709
271.03
272.351
273.671
274.99
276.309
277.628
278.946
280.264
281.581
282.898
284.214
285.53
286.845
288.16
289.474
290.788
292.101
293.413
294.725
296.037
297.348
298.658
299.968
301.277
302.586
303.894
305.201
306.508
307.814
309.12
310.425
311.729
313.032
314.335
315.637
316.939
318.239
319.539
320.838
322.137
323.434
324.731
326.027
327.322
328.616
329.909
331.201
332.493
333.783
335.072
336.361
337.648
338.934
340.219
341.504
342.786
344.068
345.349
346.628
347.906
349.183
350.458
351.733
353.005
354.277
355.546
356.815
358.082
359.347
360.61
361.872
363.133
364.391
365.648
366.903
368.156
369.407
370.656
371.903
373.148
374.391
375.632
376.87
378.107
379.34
380.572
381.801
383.027
384.251
385.472
386.691
387.906
389.119
390.329
391.536
392.739
393.94
395.137
396.331
397.522
398.709
399.893
401.073
402.249
403.422
404.591
405.755
406.916
408.072
409.225
410.373
411.516
412.655
413.789
414.919
416.044
417.163
418.278
419.388
420.492
421.591
422.685
423.773
424.855
425.932
427.002
428.067
429.125
430.178
431.223
432.263
433.296
434.322
435.341
436.353
437.359
438.357
439.348
440.331
441.307
442.276
443.236
444.189
445.134
446.071
446.999
447.919
448.831
449.735
450.629
451.515
452.392
453.261
454.12
454.97
455.811
456.642
457.465
458.277
459.081
459.874
460.658
461.432
462.197
462.951
463.695
464.43
465.154
465.869
466.573
467.267
467.95
468.624
469.287
469.94
470.583
471.215
471.837
472.448
473.05
473.641
474.222
474.792
475.353
475.903
476.443
476.973
477.492
478.002
478.502
478.992
479.472
479.942
480.403
480.854
481.296
481.728
482.151
482.565
482.969
483.365
483.752
484.129
484.499
484.859
485.212
485.556
485.891
486.219
486.539
486.851
487.155
487.452
487.742
488.024
488.299
488.568
488.829
489.084
489.332
489.574
489.81
490.039
490.263
490.48
490.692
490.899
491.1
491.296
491.486
491.672
491.853
492.029
492.2
492.367
492.529
492.687
492.841
492.991
493.137
493.28
493.418
493.553
493.684
493.812
493.937
494.059
494.177
494.293
494.405
494.515
494.622
494.726
494.827
494.927
495.023
495.118
495.21
495.299
495.387
495.472
495.556
495.637
495.717
495.795
495.87
495.944
496.017
496.087
496.157
496.224
496.29
496.354
496.417
496.479
496.539
496.598
496.655
496.711
496.766
496.82
496.872
496.924
496.974
497.023
497.071
497.118
497.163
497.208
497.252
497.295
497.337
497.378
497.417
497.457
497.495
497.532
497.568
497.604
497.639
497.673
497.706
497.738
497.77
497.801
497.831
497.86
497.889
497.916
497.944
497.97
497.996
498.021
498.046
498.069
498.093
498.115
498.137
498.159
498.179
498.2
498.219
498.238
498.257
498.274
498.292
498.309
498.325
498.341
498.356
498.371
498.385
498.398
498.412
498.424
498.437
498.449
498.46
498.471
498.481
498.491
498.501
498.51
498.519
498.527
498.535
498.543
498.55
498.557
498.564
498.57
498.575
498.581
498.586
498.59
498.595
498.599
498.602
498.606
498.609
498.612
498.614
498.616
498.618
498.62
498.621
498.622
498.623
498.623
498.624
498.624
498.624
498.623
498.622
498.621
498.62
498.619
498.617
498.616
498.614
498.611
498.609
498.606
498.604
498.601
498.598
498.594
498.591
498.587
498.583
498.579
498.575
498.571
498.567
498.562
498.557
498.553
498.548
498.543
498.538
498.532
498.527
498.521
498.516
498.51
498.504
498.498
498.492
498.486
498.48
498.474
498.468
498.461
498.455
498.448
498.441
498.435
498.428
498.421
498.414
498.407
498.4
498.393
498.386
498.379
498.372
498.365
498.357
498.35
498.343
498.335
498.328
498.32
498.313
498.305
498.298
498.29
498.283
498.275
498.267
498.26
498.252
498.244
498.237
498.229
498.221
498.214
498.206
498.198
498.19
498.183
498.175
498.167
498.159
498.151
498.144
498.136
498.128
498.12
498.112
498.105
498.097
498.089
498.081
498.073
498.066
498.058
498.05
498.042
498.035
498.027
498.019
498.011
498.003
497.996
497.988
497.98
497.972
497.965
497.957
497.949
497.941
497.934
497.926
497.918
497.911
497.903
497.895
497.887
497.88
497.872
497.864
497.856
497.849
497.841
497.833
497.825
497.818
497.81
497.802
497.794
497.787
497.779
497.771
497.763
497.755
497.747
497.74
497.732
497.724
497.716
497.708
497.7
497.692
497.684
497.676
497.668
497.66
497.652
497.644
497.635
497.627
497.619
497.611
497.602
497.594
497.586
497.577
497.569
497.56
497.552
497.543
497.535
497.526
497.517
497.508
497.5
497.491
497.482
497.473
497.464
497.455
497.445
497.436
497.427
497.417
497.408
497.398
497.389
497.379
497.369
497.359
497.349
497.339
497.329
497.319
497.309
497.298
497.288
497.277
497.267
497.256
497.245
497.234
497.223
497.212
497.2
497.189
497.178
497.166
497.154
497.142
497.13
497.118
497.106
497.093
497.081
497.068
497.055
497.042
497.029
497.016
497.003
496.989
496.975
496.962
496.948
496.933
496.919
496.905
496.89
496.875
496.86
496.845
496.83
496.814
496.799
496.783
496.767
496.751
496.734
496.718
496.701
496.684
496.667
496.65
496.632
496.615
496.597
496.579
496.56
496.542
496.523
496.504
496.485
496.466
496.447
496.427
496.407
496.387
496.367
496.346
496.326
496.305
496.284
496.262
496.241
496.219
496.197
496.175
496.152
496.13
496.107
496.084
496.061
496.038
496.014
495.99
495.966
495.942
495.918
495.893
495.868
495.843
495.818
495.793
495.767
495.741
495.715
495.689
495.663
495.637
495.61
495.583
495.556
495.529
495.502
495.475
495.447
495.419
495.392
495.364
495.336
495.307
495.279
495.251
495.222
495.194
495.165
495.136
495.108
495.079
495.05
495.021
494.992
494.963
494.933
494.904
494.875
494.846
494.817
494.788
494.759
494.73
494.701
494.672
494.643
494.614
494.585
494.556
494.528
494.499
494.471
494.443
494.415
494.387
494.359
494.332
494.304
494.277
494.25
494.223
494.196
494.17
494.144
494.118
494.092
494.067
494.042
494.017
493.993
493.968
493.944
493.921
493.898
493.875
493.852
493.83
493.808
493.786
493.765
493.744
493.724
493.704
493.684
493.665
493.646
493.627
493.609
493.592
493.574
493.557
493.541
493.524
493.509
493.493
493.478
493.464
493.449
493.435
493.422
493.408
493.396
493.383
493.371
493.359
493.347
493.336
493.325
493.315
493.304
493.294
493.284
493.275
493.265
493.256
493.247
493.238
493.23
493.221
493.213
493.205
493.196
493.188
493.18
493.173
493.165
493.157
493.149
493.141
493.133
493.125
493.117
493.109
493.101
493.093
493.084
493.076
493.067
493.058
493.049
493.039
493.03
493.02
493.009
492.999
492.988
492.977
492.965
492.953
492.941
492.928
492.915
492.901
492.887
492.873
492.857
492.842
492.826
492.809
492.792
492.774
492.755
492.736
492.716
492.696
492.675
492.653
492.63
492.606
492.582
492.557
492.53
492.503
492.475
492.445
492.415
492.383
492.35
492.315
492.279
492.242
492.202
492.161
492.117
)
;

boundaryField
{
    sides
    {
        type            calculated;
        value           nonuniform List<scalar> 2(492.072 -33.099);
    }
    empty
    {
        type            empty;
    }
}


// ************************************************************************* //
