/*--------------------------------*- C++ -*----------------------------------*\
  =========                 |
  \\      /  F ield         | OpenFOAM: The Open Source CFD Toolbox
   \\    /   O peration     | Website:  https://openfoam.org
    \\  /    A nd           | Version:  13
     \\/     M anipulation  |
\*---------------------------------------------------------------------------*/
FoamFile
{
    format      ascii;
    class       volVectorField;
    location    "0.02";
    object      U;
}
// * * * * * * * * * * * * * * * * * * * * * * * * * * * * * * * * * * * * * //

dimensions      [0 1 -1 0 0 0 0];

internalField   nonuniform List<vector> 
1000
(
(15.171 0 0)
(15.9687 0 0)
(16.5823 0 0)
(17.2212 0 0)
(17.8593 0 0)
(18.4972 0 0)
(19.1352 0 0)
(19.7733 0 0)
(20.4116 0 0)
(21.05 0 0)
(21.6885 0 0)
(22.3271 0 0)
(22.9659 0 0)
(23.6047 0 0)
(24.2438 0 0)
(24.8829 0 0)
(25.5222 0 0)
(26.1615 0 0)
(26.8011 0 0)
(27.4407 0 0)
(28.0805 0 0)
(28.7203 0 0)
(29.3603 0 0)
(30.0005 0 0)
(30.6407 0 0)
(31.2811 0 0)
(31.9216 0 0)
(32.5622 0 0)
(33.2029 0 0)
(33.8438 0 0)
(34.4848 0 0)
(35.1259 0 0)
(35.7671 0 0)
(36.4085 0 0)
(37.0499 0 0)
(37.6915 0 0)
(38.3332 0 0)
(38.9751 0 0)
(39.617 0 0)
(40.2591 0 0)
(40.9013 0 0)
(41.5436 0 0)
(42.1861 0 0)
(42.8286 0 0)
(43.4713 0 0)
(44.1141 0 0)
(44.757 0 0)
(45.4001 0 0)
(46.0432 0 0)
(46.6865 0 0)
(47.3299 0 0)
(47.9735 0 0)
(48.6171 0 0)
(49.2609 0 0)
(49.9048 0 0)
(50.5488 0 0)
(51.1929 0 0)
(51.8372 0 0)
(52.4816 0 0)
(53.1261 0 0)
(53.7707 0 0)
(54.4154 0 0)
(55.0603 0 0)
(55.7052 0 0)
(56.3503 0 0)
(56.9956 0 0)
(57.6409 0 0)
(58.2863 0 0)
(58.9319 0 0)
(59.5776 0 0)
(60.2234 0 0)
(60.8694 0 0)
(61.5154 0 0)
(62.1616 0 0)
(62.8079 0 0)
(63.4543 0 0)
(64.1009 0 0)
(64.7475 0 0)
(65.3943 0 0)
(66.0412 0 0)
(66.6882 0 0)
(67.3354 0 0)
(67.9826 0 0)
(68.63 0 0)
(69.2775 0 0)
(69.9251 0 0)
(70.5729 0 0)
(71.2207 0 0)
(71.8687 0 0)
(72.5168 0 0)
(73.165 0 0)
(73.8134 0 0)
(74.4618 0 0)
(75.1104 0 0)
(75.7591 0 0)
(76.4079 0 0)
(77.0569 0 0)
(77.7059 0 0)
(78.3551 0 0)
(79.0044 0 0)
(79.6538 0 0)
(80.3034 0 0)
(80.953 0 0)
(81.6028 0 0)
(82.2527 0 0)
(82.9027 0 0)
(83.5528 0 0)
(84.2031 0 0)
(84.8535 0 0)
(85.504 0 0)
(86.1546 0 0)
(86.8053 0 0)
(87.4562 0 0)
(88.1072 0 0)
(88.7583 0 0)
(89.4095 0 0)
(90.0609 0 0)
(90.7123 0 0)
(91.3639 0 0)
(92.0156 0 0)
(92.6674 0 0)
(93.3194 0 0)
(93.9715 0 0)
(94.6236 0 0)
(95.276 0 0)
(95.9284 0 0)
(96.5809 0 0)
(97.2336 0 0)
(97.8864 0 0)
(98.5393 0 0)
(99.1924 0 0)
(99.8455 0 0)
(100.499 0 0)
(101.152 0 0)
(101.806 0 0)
(102.459 0 0)
(103.113 0 0)
(103.767 0 0)
(104.421 0 0)
(105.075 0 0)
(105.73 0 0)
(106.384 0 0)
(107.038 0 0)
(107.693 0 0)
(108.348 0 0)
(109.003 0 0)
(109.658 0 0)
(110.313 0 0)
(110.968 0 0)
(111.623 0 0)
(112.279 0 0)
(112.934 0 0)
(113.59 0 0)
(114.246 0 0)
(114.902 0 0)
(115.558 0 0)
(116.214 0 0)
(116.87 0 0)
(117.527 0 0)
(118.183 0 0)
(118.84 0 0)
(119.496 0 0)
(120.153 0 0)
(120.81 0 0)
(121.467 0 0)
(122.124 0 0)
(122.782 0 0)
(123.439 0 0)
(124.097 0 0)
(124.754 0 0)
(125.412 0 0)
(126.069 0 0)
(126.727 0 0)
(127.385 0 0)
(128.043 0 0)
(128.701 0 0)
(129.36 0 0)
(130.018 0 0)
(130.676 0 0)
(131.335 0 0)
(131.993 0 0)
(132.652 0 0)
(133.31 0 0)
(133.969 0 0)
(134.628 0 0)
(135.287 0 0)
(135.945 0 0)
(136.604 0 0)
(137.263 0 0)
(137.922 0 0)
(138.581 0 0)
(139.241 0 0)
(139.9 0 0)
(140.559 0 0)
(141.218 0 0)
(141.877 0 0)
(142.536 0 0)
(143.196 0 0)
(143.855 0 0)
(144.514 0 0)
(145.173 0 0)
(145.832 0 0)
(146.491 0 0)
(147.151 0 0)
(147.81 0 0)
(148.469 0 0)
(149.128 0 0)
(149.787 0 0)
(150.445 0 0)
(151.104 0 0)
(151.763 0 0)
(152.422 0 0)
(153.08 0 0)
(153.739 0 0)
(154.397 0 0)
(155.055 0 0)
(155.713 0 0)
(156.371 0 0)
(157.029 0 0)
(157.687 0 0)
(158.344 0 0)
(159.001 0 0)
(159.658 0 0)
(160.315 0 0)
(160.972 0 0)
(161.629 0 0)
(162.285 0 0)
(162.941 0 0)
(163.597 0 0)
(164.252 0 0)
(164.907 0 0)
(165.562 0 0)
(166.217 0 0)
(166.871 0 0)
(167.525 0 0)
(168.179 0 0)
(168.832 0 0)
(169.485 0 0)
(170.138 0 0)
(170.79 0 0)
(171.441 0 0)
(172.093 0 0)
(172.743 0 0)
(173.394 0 0)
(174.044 0 0)
(174.693 0 0)
(175.342 0 0)
(175.99 0 0)
(176.638 0 0)
(177.285 0 0)
(177.931 0 0)
(178.577 0 0)
(179.223 0 0)
(179.867 0 0)
(180.511 0 0)
(181.154 0 0)
(181.797 0 0)
(182.439 0 0)
(183.08 0 0)
(183.72 0 0)
(184.36 0 0)
(184.998 0 0)
(185.636 0 0)
(186.273 0 0)
(186.909 0 0)
(187.544 0 0)
(188.178 0 0)
(188.811 0 0)
(189.443 0 0)
(190.074 0 0)
(190.704 0 0)
(191.333 0 0)
(191.961 0 0)
(192.588 0 0)
(193.214 0 0)
(193.838 0 0)
(194.461 0 0)
(195.083 0 0)
(195.704 0 0)
(196.323 0 0)
(196.941 0 0)
(197.558 0 0)
(198.173 0 0)
(198.787 0 0)
(199.399 0 0)
(200.01 0 0)
(200.619 0 0)
(201.227 0 0)
(201.833 0 0)
(202.438 0 0)
(203.041 0 0)
(203.642 0 0)
(204.242 0 0)
(204.84 0 0)
(205.436 0 0)
(206.03 0 0)
(206.622 0 0)
(207.213 0 0)
(207.801 0 0)
(208.388 0 0)
(208.973 0 0)
(209.555 0 0)
(210.136 0 0)
(210.714 0 0)
(211.291 0 0)
(211.865 0 0)
(212.437 0 0)
(213.007 0 0)
(213.574 0 0)
(214.14 0 0)
(214.703 0 0)
(215.263 0 0)
(215.822 0 0)
(216.377 0 0)
(216.931 0 0)
(217.482 0 0)
(218.03 0 0)
(218.576 0 0)
(219.12 0 0)
(219.66 0 0)
(220.198 0 0)
(220.734 0 0)
(221.267 0 0)
(221.797 0 0)
(222.324 0 0)
(222.849 0 0)
(223.371 0 0)
(223.89 0 0)
(224.406 0 0)
(224.919 0 0)
(225.43 0 0)
(225.937 0 0)
(226.442 0 0)
(226.944 0 0)
(227.443 0 0)
(227.938 0 0)
(228.431 0 0)
(228.921 0 0)
(229.408 0 0)
(229.892 0 0)
(230.373 0 0)
(230.851 0 0)
(231.325 0 0)
(231.797 0 0)
(232.266 0 0)
(232.731 0 0)
(233.194 0 0)
(233.653 0 0)
(234.11 0 0)
(234.563 0 0)
(235.013 0 0)
(235.46 0 0)
(235.904 0 0)
(236.345 0 0)
(236.783 0 0)
(237.218 0 0)
(237.65 0 0)
(238.079 0 0)
(238.505 0 0)
(238.928 0 0)
(239.348 0 0)
(239.764 0 0)
(240.178 0 0)
(240.589 0 0)
(240.997 0 0)
(241.403 0 0)
(241.805 0 0)
(242.204 0 0)
(242.601 0 0)
(242.995 0 0)
(243.386 0 0)
(243.774 0 0)
(244.16 0 0)
(244.543 0 0)
(244.923 0 0)
(245.3 0 0)
(245.675 0 0)
(246.047 0 0)
(246.417 0 0)
(246.784 0 0)
(247.149 0 0)
(247.511 0 0)
(247.871 0 0)
(248.228 0 0)
(248.583 0 0)
(248.935 0 0)
(249.286 0 0)
(249.633 0 0)
(249.979 0 0)
(250.322 0 0)
(250.664 0 0)
(251.003 0 0)
(251.34 0 0)
(251.674 0 0)
(252.007 0 0)
(252.338 0 0)
(252.666 0 0)
(252.993 0 0)
(253.317 0 0)
(253.64 0 0)
(253.961 0 0)
(254.28 0 0)
(254.597 0 0)
(254.912 0 0)
(255.225 0 0)
(255.537 0 0)
(255.847 0 0)
(256.155 0 0)
(256.461 0 0)
(256.766 0 0)
(257.069 0 0)
(257.37 0 0)
(257.67 0 0)
(257.968 0 0)
(258.264 0 0)
(258.559 0 0)
(258.853 0 0)
(259.144 0 0)
(259.435 0 0)
(259.723 0 0)
(260.011 0 0)
(260.296 0 0)
(260.581 0 0)
(260.863 0 0)
(261.145 0 0)
(261.425 0 0)
(261.703 0 0)
(261.98 0 0)
(262.256 0 0)
(262.53 0 0)
(262.803 0 0)
(263.075 0 0)
(263.345 0 0)
(263.613 0 0)
(263.881 0 0)
(264.147 0 0)
(264.412 0 0)
(264.675 0 0)
(264.937 0 0)
(265.198 0 0)
(265.457 0 0)
(265.715 0 0)
(265.971 0 0)
(266.227 0 0)
(266.481 0 0)
(266.733 0 0)
(266.985 0 0)
(267.235 0 0)
(267.484 0 0)
(267.731 0 0)
(267.977 0 0)
(268.222 0 0)
(268.465 0 0)
(268.708 0 0)
(268.948 0 0)
(269.188 0 0)
(269.426 0 0)
(269.663 0 0)
(269.898 0 0)
(270.133 0 0)
(270.366 0 0)
(270.597 0 0)
(270.828 0 0)
(271.056 0 0)
(271.284 0 0)
(271.51 0 0)
(271.735 0 0)
(271.959 0 0)
(272.181 0 0)
(272.402 0 0)
(272.622 0 0)
(272.84 0 0)
(273.057 0 0)
(273.273 0 0)
(273.487 0 0)
(273.7 0 0)
(273.912 0 0)
(274.122 0 0)
(274.331 0 0)
(274.539 0 0)
(274.745 0 0)
(274.95 0 0)
(275.153 0 0)
(275.355 0 0)
(275.556 0 0)
(275.756 0 0)
(275.954 0 0)
(276.151 0 0)
(276.346 0 0)
(276.54 0 0)
(276.733 0 0)
(276.924 0 0)
(277.114 0 0)
(277.303 0 0)
(277.49 0 0)
(277.676 0 0)
(277.86 0 0)
(278.043 0 0)
(278.225 0 0)
(278.406 0 0)
(278.585 0 0)
(278.762 0 0)
(278.939 0 0)
(279.114 0 0)
(279.287 0 0)
(279.46 0 0)
(279.631 0 0)
(279.8 0 0)
(279.969 0 0)
(280.135 0 0)
(280.301 0 0)
(280.465 0 0)
(280.628 0 0)
(280.789 0 0)
(280.95 0 0)
(281.108 0 0)
(281.266 0 0)
(281.422 0 0)
(281.577 0 0)
(281.73 0 0)
(281.883 0 0)
(282.033 0 0)
(282.183 0 0)
(282.331 0 0)
(282.478 0 0)
(282.623 0 0)
(282.768 0 0)
(282.911 0 0)
(283.052 0 0)
(283.193 0 0)
(283.332 0 0)
(283.469 0 0)
(283.606 0 0)
(283.741 0 0)
(283.875 0 0)
(284.008 0 0)
(284.139 0 0)
(284.269 0 0)
(284.398 0 0)
(284.526 0 0)
(284.652 0 0)
(284.777 0 0)
(284.901 0 0)
(285.023 0 0)
(285.145 0 0)
(285.265 0 0)
(285.384 0 0)
(285.501 0 0)
(285.618 0 0)
(285.733 0 0)
(285.847 0 0)
(285.96 0 0)
(286.072 0 0)
(286.182 0 0)
(286.292 0 0)
(286.4 0 0)
(286.507 0 0)
(286.613 0 0)
(286.718 0 0)
(286.821 0 0)
(286.924 0 0)
(287.025 0 0)
(287.125 0 0)
(287.224 0 0)
(287.322 0 0)
(287.419 0 0)
(287.515 0 0)
(287.609 0 0)
(287.703 0 0)
(287.795 0 0)
(287.887 0 0)
(287.977 0 0)
(288.066 0 0)
(288.154 0 0)
(288.242 0 0)
(288.328 0 0)
(288.413 0 0)
(288.497 0 0)
(288.58 0 0)
(288.662 0 0)
(288.743 0 0)
(288.823 0 0)
(288.902 0 0)
(288.98 0 0)
(289.057 0 0)
(289.134 0 0)
(289.209 0 0)
(289.283 0 0)
(289.356 0 0)
(289.429 0 0)
(289.5 0 0)
(289.571 0 0)
(289.64 0 0)
(289.709 0 0)
(289.777 0 0)
(289.844 0 0)
(289.91 0 0)
(289.975 0 0)
(290.039 0 0)
(290.102 0 0)
(290.165 0 0)
(290.227 0 0)
(290.288 0 0)
(290.348 0 0)
(290.407 0 0)
(290.465 0 0)
(290.523 0 0)
(290.58 0 0)
(290.636 0 0)
(290.691 0 0)
(290.745 0 0)
(290.799 0 0)
(290.852 0 0)
(290.904 0 0)
(290.955 0 0)
(291.006 0 0)
(291.056 0 0)
(291.105 0 0)
(291.153 0 0)
(291.201 0 0)
(291.248 0 0)
(291.294 0 0)
(291.34 0 0)
(291.384 0 0)
(291.429 0 0)
(291.472 0 0)
(291.515 0 0)
(291.557 0 0)
(291.599 0 0)
(291.64 0 0)
(291.68 0 0)
(291.72 0 0)
(291.759 0 0)
(291.797 0 0)
(291.835 0 0)
(291.872 0 0)
(291.908 0 0)
(291.944 0 0)
(291.98 0 0)
(292.014 0 0)
(292.049 0 0)
(292.082 0 0)
(292.115 0 0)
(292.148 0 0)
(292.18 0 0)
(292.211 0 0)
(292.242 0 0)
(292.272 0 0)
(292.302 0 0)
(292.331 0 0)
(292.36 0 0)
(292.388 0 0)
(292.416 0 0)
(292.443 0 0)
(292.47 0 0)
(292.496 0 0)
(292.522 0 0)
(292.547 0 0)
(292.572 0 0)
(292.596 0 0)
(292.62 0 0)
(292.643 0 0)
(292.666 0 0)
(292.689 0 0)
(292.711 0 0)
(292.732 0 0)
(292.753 0 0)
(292.774 0 0)
(292.794 0 0)
(292.814 0 0)
(292.834 0 0)
(292.853 0 0)
(292.871 0 0)
(292.89 0 0)
(292.907 0 0)
(292.925 0 0)
(292.942 0 0)
(292.959 0 0)
(292.975 0 0)
(292.991 0 0)
(293.006 0 0)
(293.021 0 0)
(293.036 0 0)
(293.05 0 0)
(293.065 0 0)
(293.078 0 0)
(293.092 0 0)
(293.104 0 0)
(293.117 0 0)
(293.129 0 0)
(293.141 0 0)
(293.153 0 0)
(293.164 0 0)
(293.175 0 0)
(293.186 0 0)
(293.196 0 0)
(293.206 0 0)
(293.215 0 0)
(293.225 0 0)
(293.234 0 0)
(293.242 0 0)
(293.251 0 0)
(293.259 0 0)
(293.266 0 0)
(293.274 0 0)
(293.281 0 0)
(293.288 0 0)
(293.294 0 0)
(293.3 0 0)
(293.306 0 0)
(293.312 0 0)
(293.317 0 0)
(293.322 0 0)
(293.327 0 0)
(293.331 0 0)
(293.336 0 0)
(293.339 0 0)
(293.343 0 0)
(293.346 0 0)
(293.349 0 0)
(293.352 0 0)
(293.354 0 0)
(293.357 0 0)
(293.358 0 0)
(293.36 0 0)
(293.361 0 0)
(293.362 0 0)
(293.363 0 0)
(293.363 0 0)
(293.363 0 0)
(293.363 0 0)
(293.363 0 0)
(293.362 0 0)
(293.361 0 0)
(293.359 0 0)
(293.358 0 0)
(293.356 0 0)
(293.354 0 0)
(293.351 0 0)
(293.348 0 0)
(293.345 0 0)
(293.341 0 0)
(293.338 0 0)
(293.334 0 0)
(293.329 0 0)
(293.324 0 0)
(293.319 0 0)
(293.314 0 0)
(293.308 0 0)
(293.302 0 0)
(293.296 0 0)
(293.289 0 0)
(293.282 0 0)
(293.275 0 0)
(293.267 0 0)
(293.259 0 0)
(293.251 0 0)
(293.242 0 0)
(293.233 0 0)
(293.224 0 0)
(293.214 0 0)
(293.204 0 0)
(293.193 0 0)
(293.182 0 0)
(293.171 0 0)
(293.159 0 0)
(293.147 0 0)
(293.135 0 0)
(293.122 0 0)
(293.109 0 0)
(293.095 0 0)
(293.081 0 0)
(293.067 0 0)
(293.052 0 0)
(293.037 0 0)
(293.021 0 0)
(293.005 0 0)
(292.988 0 0)
(292.971 0 0)
(292.954 0 0)
(292.936 0 0)
(292.917 0 0)
(292.898 0 0)
(292.879 0 0)
(292.859 0 0)
(292.839 0 0)
(292.818 0 0)
(292.797 0 0)
(292.775 0 0)
(292.753 0 0)
(292.73 0 0)
(292.706 0 0)
(292.682 0 0)
(292.658 0 0)
(292.633 0 0)
(292.608 0 0)
(292.581 0 0)
(292.555 0 0)
(292.528 0 0)
(292.5 0 0)
(292.471 0 0)
(292.442 0 0)
(292.413 0 0)
(292.382 0 0)
(292.352 0 0)
(292.32 0 0)
(292.288 0 0)
(292.255 0 0)
(292.222 0 0)
(292.188 0 0)
(292.153 0 0)
(292.118 0 0)
(292.082 0 0)
(292.045 0 0)
(292.008 0 0)
(291.97 0 0)
(291.931 0 0)
(291.892 0 0)
(291.852 0 0)
(291.811 0 0)
(291.769 0 0)
(291.727 0 0)
(291.684 0 0)
(291.64 0 0)
(291.595 0 0)
(291.55 0 0)
(291.504 0 0)
(291.457 0 0)
(291.409 0 0)
(291.361 0 0)
(291.312 0 0)
(291.262 0 0)
(291.211 0 0)
(291.16 0 0)
(291.107 0 0)
(291.054 0 0)
(291 0 0)
(290.946 0 0)
(290.89 0 0)
(290.834 0 0)
(290.777 0 0)
(290.719 0 0)
(290.66 0 0)
(290.601 0 0)
(290.54 0 0)
(290.479 0 0)
(290.417 0 0)
(290.355 0 0)
(290.291 0 0)
(290.227 0 0)
(290.162 0 0)
(290.096 0 0)
(290.029 0 0)
(289.962 0 0)
(289.893 0 0)
(289.824 0 0)
(289.755 0 0)
(289.684 0 0)
(289.613 0 0)
(289.541 0 0)
(289.468 0 0)
(289.395 0 0)
(289.321 0 0)
(289.246 0 0)
(289.17 0 0)
(289.094 0 0)
(289.017 0 0)
(288.94 0 0)
(288.861 0 0)
(288.783 0 0)
(288.703 0 0)
(288.623 0 0)
(288.543 0 0)
(288.462 0 0)
(288.38 0 0)
(288.298 0 0)
(288.216 0 0)
(288.133 0 0)
(288.049 0 0)
(287.965 0 0)
(287.881 0 0)
(287.796 0 0)
(287.711 0 0)
(287.626 0 0)
(287.54 0 0)
(287.454 0 0)
(287.368 0 0)
(287.282 0 0)
(287.195 0 0)
(287.108 0 0)
(287.022 0 0)
(286.935 0 0)
(286.847 0 0)
(286.76 0 0)
(286.673 0 0)
(286.586 0 0)
(286.499 0 0)
(286.412 0 0)
(286.325 0 0)
(286.238 0 0)
(286.151 0 0)
(286.065 0 0)
(285.978 0 0)
(285.892 0 0)
(285.807 0 0)
(285.721 0 0)
(285.636 0 0)
(285.551 0 0)
(285.467 0 0)
(285.383 0 0)
(285.299 0 0)
(285.217 0 0)
(285.134 0 0)
(285.052 0 0)
(284.971 0 0)
(284.89 0 0)
(284.81 0 0)
(284.731 0 0)
(284.652 0 0)
(284.574 0 0)
(284.496 0 0)
(284.42 0 0)
(284.344 0 0)
(284.269 0 0)
(284.195 0 0)
(284.122 0 0)
(284.049 0 0)
(283.978 0 0)
(283.907 0 0)
(283.837 0 0)
(283.769 0 0)
(283.701 0 0)
(283.634 0 0)
(283.568 0 0)
(283.503 0 0)
(283.439 0 0)
(283.376 0 0)
(283.315 0 0)
(283.254 0 0)
(283.194 0 0)
(283.136 0 0)
(283.078 0 0)
(283.022 0 0)
(282.966 0 0)
(282.912 0 0)
(282.859 0 0)
(282.806 0 0)
(282.755 0 0)
(282.706 0 0)
(282.657 0 0)
(282.609 0 0)
(282.562 0 0)
(282.517 0 0)
(282.472 0 0)
(282.429 0 0)
(282.387 0 0)
(282.345 0 0)
(282.305 0 0)
(282.266 0 0)
(282.228 0 0)
(282.191 0 0)
(282.155 0 0)
(282.121 0 0)
(282.087 0 0)
(282.054 0 0)
(282.022 0 0)
(281.992 0 0)
(281.962 0 0)
(281.933 0 0)
(281.905 0 0)
(281.878 0 0)
(281.852 0 0)
(281.827 0 0)
(281.803 0 0)
(281.78 0 0)
(281.758 0 0)
(281.737 0 0)
(281.716 0 0)
(281.697 0 0)
(281.678 0 0)
(281.66 0 0)
(281.643 0 0)
(281.627 0 0)
(281.611 0 0)
(281.597 0 0)
(281.583 0 0)
(281.57 0 0)
(281.557 0 0)
(281.545 0 0)
(281.535 0 0)
(281.524 0 0)
(281.515 0 0)
(281.506 0 0)
(281.498 0 0)
(281.49 0 0)
(281.483 0 0)
(281.477 0 0)
(281.471 0 0)
(281.467 0 0)
(281.462 0 0)
)
;

boundaryField
{
    sides
    {
        type            zeroGradient;
    }
    empty
    {
        type            empty;
    }
}


// ************************************************************************* //
