/*--------------------------------*- C++ -*----------------------------------*\
  =========                 |
  \\      /  F ield         | OpenFOAM: The Open Source CFD Toolbox
   \\    /   O peration     | Website:  https://openfoam.org
    \\  /    A nd           | Version:  13
     \\/     M anipulation  |
\*---------------------------------------------------------------------------*/
FoamFile
{
    format      ascii;
    class       volScalarField;
    location    "0.01";
    object      rho;
}
// * * * * * * * * * * * * * * * * * * * * * * * * * * * * * * * * * * * * * //

dimensions      [1 -3 0 0 0 0 0];

internalField   nonuniform List<scalar> 
1000
(
0.997575
0.997575
0.997575
0.997575
0.997575
0.997575
0.997575
0.997575
0.997575
0.997575
0.997575
0.997575
0.997575
0.997575
0.997575
0.997575
0.997575
0.997575
0.997575
0.997575
0.997575
0.997575
0.997575
0.997575
0.997575
0.997575
0.997575
0.997575
0.997575
0.997575
0.997575
0.997575
0.997575
0.997575
0.997575
0.997575
0.997575
0.997575
0.997575
0.997575
0.997575
0.997575
0.997575
0.997575
0.997575
0.997575
0.997575
0.997575
0.997575
0.997575
0.997575
0.997575
0.997575
0.997575
0.997575
0.997575
0.997575
0.997575
0.997575
0.997575
0.997575
0.997575
0.997575
0.997575
0.997575
0.997575
0.997575
0.997575
0.997575
0.997575
0.997575
0.997575
0.997575
0.997575
0.997575
0.997575
0.997575
0.997575
0.997575
0.997575
0.997575
0.997575
0.997574
0.997574
0.997574
0.997574
0.997574
0.997574
0.997573
0.997572
0.997571
0.997569
0.997566
0.997561
0.997553
0.997541
0.997523
0.997494
0.997451
0.997387
0.997292
0.997152
0.996948
0.996658
0.996251
0.995705
0.995015
0.994186
0.993214
0.992099
0.990846
0.989466
0.987974
0.986386
0.984721
0.982992
0.981215
0.979401
0.977559
0.975695
0.973814
0.971921
0.970017
0.968106
0.966188
0.964266
0.962339
0.96041
0.958478
0.956545
0.954611
0.952676
0.95074
0.948805
0.94687
0.944936
0.943002
0.94107
0.939139
0.937209
0.93528
0.933353
0.931428
0.929504
0.927583
0.925663
0.923745
0.92183
0.919917
0.918005
0.916097
0.91419
0.912286
0.910384
0.908485
0.906588
0.904694
0.902803
0.900913
0.899027
0.897143
0.895262
0.893383
0.891507
0.889634
0.887764
0.885896
0.884031
0.882168
0.880309
0.878452
0.876598
0.874747
0.872899
0.871053
0.869211
0.867371
0.865534
0.8637
0.861868
0.86004
0.858214
0.856392
0.854572
0.852755
0.850941
0.84913
0.847321
0.845516
0.843714
0.841914
0.840117
0.838324
0.836533
0.834745
0.83296
0.831178
0.829398
0.827622
0.825849
0.824078
0.822311
0.820546
0.818785
0.817026
0.81527
0.813518
0.811768
0.810021
0.808277
0.806536
0.804797
0.803062
0.80133
0.799601
0.797874
0.796151
0.79443
0.792713
0.790998
0.789286
0.787578
0.785872
0.784169
0.782469
0.780772
0.779078
0.777387
0.775699
0.774014
0.772331
0.770652
0.768976
0.767302
0.765632
0.763965
0.7623
0.760638
0.75898
0.757324
0.755671
0.754022
0.752375
0.750731
0.74909
0.747452
0.745817
0.744185
0.742556
0.74093
0.739306
0.737686
0.736069
0.734455
0.732843
0.731235
0.729629
0.728027
0.726428
0.724831
0.723237
0.721647
0.720059
0.718475
0.716893
0.715314
0.713738
0.712166
0.710596
0.709029
0.707465
0.705905
0.704347
0.702792
0.70124
0.699691
0.698145
0.696602
0.695063
0.693526
0.691992
0.690461
0.688933
0.687408
0.685886
0.684368
0.682852
0.681339
0.679829
0.678323
0.676819
0.675318
0.673821
0.672326
0.670835
0.669346
0.667861
0.666378
0.664899
0.663423
0.66195
0.66048
0.659013
0.657549
0.656088
0.65463
0.653176
0.651724
0.650276
0.64883
0.647388
0.645949
0.644513
0.643081
0.641651
0.640224
0.638801
0.637381
0.635964
0.63455
0.63314
0.631732
0.630328
0.628927
0.627529
0.626135
0.624743
0.623355
0.621971
0.620589
0.619211
0.617836
0.616464
0.615096
0.61373
0.612369
0.61101
0.609655
0.608303
0.606955
0.60561
0.604268
0.60293
0.601595
0.600263
0.598935
0.597611
0.596289
0.594972
0.593658
0.592347
0.59104
0.589736
0.588436
0.587139
0.585846
0.584556
0.583271
0.581988
0.58071
0.579435
0.578163
0.576896
0.575632
0.574371
0.573115
0.571862
0.570613
0.569367
0.568126
0.566888
0.565654
0.564424
0.563198
0.561976
0.560758
0.559543
0.558333
0.557127
0.555924
0.554726
0.553531
0.552341
0.551155
0.549973
0.548795
0.547621
0.546452
0.545286
0.544125
0.542968
0.541816
0.540668
0.539524
0.538384
0.537249
0.536118
0.534992
0.53387
0.532753
0.53164
0.530532
0.529429
0.52833
0.527236
0.526146
0.525061
0.523981
0.522906
0.521836
0.52077
0.519709
0.518653
0.517602
0.516557
0.515516
0.51448
0.513449
0.512424
0.511403
0.510388
0.509378
0.508373
0.507373
0.506379
0.50539
0.504407
0.503429
0.502456
0.501489
0.500528
0.499572
0.498622
0.497677
0.496738
0.495805
0.494877
0.493955
0.493039
0.492129
0.491225
0.490327
0.489435
0.488548
0.487668
0.486794
0.485926
0.485064
0.484208
0.483358
0.482515
0.481678
0.480847
0.480023
0.479205
0.478393
0.477588
0.476789
0.475996
0.47521
0.474431
0.473658
0.472892
0.472132
0.471379
0.470633
0.469893
0.46916
0.468434
0.467715
0.467002
0.466296
0.465597
0.464904
0.464219
0.46354
0.462868
0.462203
0.461545
0.460893
0.460249
0.459611
0.458981
0.458357
0.45774
0.45713
0.456527
0.455931
0.455341
0.454759
0.454183
0.453615
0.453053
0.452498
0.45195
0.451408
0.450874
0.450346
0.449825
0.449311
0.448804
0.448303
0.447809
0.447322
0.446842
0.446368
0.4459
0.445439
0.444985
0.444537
0.444096
0.443661
0.443233
0.442811
0.442395
0.441985
0.441582
0.441185
0.440794
0.440409
0.44003
0.439658
0.439291
0.43893
0.438575
0.438226
0.437883
0.437545
0.437213
0.436887
0.436566
0.436251
0.435941
0.435637
0.435338
0.435044
0.434756
0.434472
0.434194
0.433921
0.433653
0.433389
0.433131
0.432877
0.432628
0.432384
0.432145
0.43191
0.431679
0.431453
0.431232
0.431014
0.430801
0.430593
0.430388
0.430187
0.429991
0.429798
0.429609
0.429424
0.429243
0.429066
0.428892
0.428722
0.428555
0.428392
0.428232
0.428076
0.427923
0.427773
0.427627
0.427483
0.427343
0.427206
0.427071
0.42694
0.426811
0.426685
0.426562
0.426442
0.426324
0.426209
0.426097
0.425987
0.42588
0.425774
0.425672
0.425571
0.425473
0.425377
0.425284
0.425192
0.425102
0.425015
0.424929
0.424846
0.424764
0.424685
0.424607
0.42453
0.424456
0.424383
0.424312
0.424243
0.424175
0.424109
0.424044
0.423981
0.42392
0.423859
0.4238
0.423743
0.423686
0.423631
0.423578
0.423525
0.423474
0.423424
0.423375
0.423327
0.42328
0.423234
0.423189
0.423145
0.423102
0.42306
0.423019
0.422979
0.42294
0.422901
0.422863
0.422827
0.42279
0.422755
0.42272
0.422686
0.422653
0.42262
0.422588
0.422556
0.422525
0.422495
0.422465
0.422435
0.422406
0.422378
0.42235
0.422322
0.422295
0.422268
0.422242
0.422216
0.42219
0.422165
0.42214
0.422115
0.422091
0.422066
0.422042
0.422019
0.421995
0.421972
0.421949
0.421926
0.421903
0.42188
0.421857
0.421835
0.421813
0.42179
0.421768
0.421746
0.421724
0.421701
0.421679
0.421657
0.421635
0.421613
0.42159
0.421568
0.421545
0.421523
0.4215
0.421478
0.421455
0.421432
0.421408
0.421385
0.421362
0.421338
0.421314
0.42129
0.421265
0.42124
0.421215
0.42119
0.421164
0.421138
0.421112
0.421086
0.421058
0.421031
0.421003
0.420975
0.420946
0.420917
0.420887
0.420857
0.420826
0.420795
0.420763
0.42073
0.420697
0.420663
0.420628
0.420593
0.420557
0.42052
0.420482
0.420443
0.420403
0.420363
0.420321
0.420278
0.420233
0.420187
0.42014
0.420092
0.420041
0.419989
0.419934
0.419878
0.419818
0.419756
0.419691
0.419622
0.419549
0.419472
0.41939
0.419301
0.419207
0.419105
0.418994
0.418874
0.418743
0.418599
0.418442
0.418269
0.418079
0.417868
0.417635
0.417376
0.41709
0.416773
0.416421
0.41603
0.415598
0.415119
0.414589
0.414005
0.41336
0.412651
0.411871
0.411017
0.410083
0.409065
0.407956
0.406753
0.40545
0.404044
0.402531
0.400907
0.399169
0.397315
0.395343
0.393251
0.39104
0.38871
0.386262
0.383699
0.381023
0.378238
0.375349
0.372363
0.369284
0.366122
0.362884
0.359578
0.356215
0.352805
0.349357
0.345883
0.342394
0.338901
0.335416
0.331949
0.328511
0.325114
0.321767
0.318481
0.315264
0.312126
0.309074
0.306115
0.303256
0.300502
0.297858
0.295327
0.292913
0.290617
0.288441
0.286384
0.284447
0.282629
0.280927
0.27934
0.277864
0.276497
0.275233
0.27407
0.273002
0.272026
0.271136
0.270327
0.269595
0.268934
0.268341
0.267808
0.267334
0.266911
0.266537
0.266207
0.265918
0.265664
0.265443
0.265252
0.265087
0.264946
0.264825
0.264723
0.264638
0.264567
0.264508
0.26446
0.264422
0.264392
0.264369
0.264352
0.26434
0.264333
0.264329
0.264328
0.26433
0.264333
0.264338
0.264345
0.264353
0.264361
0.264371
0.26438
0.26439
0.2644
0.264411
0.264421
0.264431
0.264442
0.264452
0.264462
0.264472
0.264482
0.264491
0.264501
0.26451
0.264519
0.264528
0.264536
0.264545
0.264553
0.264561
0.264569
0.264577
0.264585
0.264592
0.2646
0.264607
0.264614
0.264621
0.264628
0.264636
0.264643
0.264649
0.264656
0.264663
0.26467
0.264677
0.264684
0.264692
0.264699
0.264706
0.264714
0.264721
0.264729
0.264737
0.264745
0.264754
0.264763
0.264772
0.264782
0.264792
0.264802
0.264813
0.264825
0.264837
0.26485
0.264863
0.264877
0.264892
0.264908
0.264925
0.264944
0.264963
0.264983
0.265005
0.265028
0.265053
0.265079
0.265107
0.265137
0.265169
0.265203
0.265239
0.265278
0.265319
0.265364
0.265411
0.265461
0.265515
0.265572
0.265634
0.265699
0.265769
0.265844
0.265923
0.266008
0.266099
0.266196
0.266299
0.266409
0.266526
0.266651
0.266785
0.266926
0.267077
0.267238
0.267409
0.26759
0.267783
0.267987
0.268203
0.268432
0.268674
0.26893
0.269199
0.269482
0.26978
0.270091
0.270416
0.270755
0.271107
0.271471
0.271847
0.272233
0.272627
0.273029
0.273436
0.273846
0.274257
0.274667
0.275072
0.27547
0.275859
0.276236
0.276599
0.276944
0.277272
0.277579
0.277864
0.278127
0.278367
0.278582
0.278774
0.278942
0.279087
0.27921
0.279311
0.279391
0.279452
0.279495
0.279521
0.279528
)
;

boundaryField
{
    sides
    {
        type            calculated;
        value           nonuniform List<scalar> 2(0.279528 0.997575);
    }
    empty
    {
        type            empty;
    }
}


// ************************************************************************* //
