/*--------------------------------*- C++ -*----------------------------------*\
  =========                 |
  \\      /  F ield         | OpenFOAM: The Open Source CFD Toolbox
   \\    /   O peration     | Website:  https://openfoam.org
    \\  /    A nd           | Version:  13
     \\/     M anipulation  |
\*---------------------------------------------------------------------------*/
FoamFile
{
    format      ascii;
    class       volVectorField;
    location    "0.01";
    object      U;
}
// * * * * * * * * * * * * * * * * * * * * * * * * * * * * * * * * * * * * * //

dimensions      [0 1 -1 0 0 0 0];

internalField   nonuniform List<vector> 
1000
(
(4.27408e-12 0 0)
(2.78909e-12 0 0)
(4.13842e-12 0 0)
(3.46011e-12 0 0)
(3.7183e-12 0 0)
(3.74018e-12 0 0)
(3.75769e-12 0 0)
(3.3084e-12 0 0)
(2.41711e-12 0 0)
(3.05312e-12 0 0)
(1.57251e-12 0 0)
(3.30256e-12 0 0)
(2.53965e-12 0 0)
(3.41343e-12 0 0)
(2.01451e-12 0 0)
(3.51116e-12 0 0)
(3.4178e-12 0 0)
(4.71024e-12 0 0)
(4.42433e-12 0 0)
(6.53073e-12 0 0)
(5.51546e-12 0 0)
(6.33672e-12 0 0)
(5.87722e-12 0 0)
(6.86332e-12 0 0)
(7.35637e-12 0 0)
(7.68896e-12 0 0)
(7.49787e-12 0 0)
(7.02816e-12 0 0)
(6.06832e-12 0 0)
(6.27254e-12 0 0)
(7.23822e-12 0 0)
(7.44973e-12 0 0)
(6.6343e-12 0 0)
(5.56943e-12 0 0)
(7.49495e-12 0 0)
(7.08651e-12 0 0)
(8.43875e-12 0 0)
(6.27691e-12 0 0)
(8.19952e-12 0 0)
(5.85242e-12 0 0)
(7.91361e-12 0 0)
(6.67806e-12 0 0)
(8.89387e-12 0 0)
(6.51906e-12 0 0)
(8.20681e-12 0 0)
(8.71591e-12 0 0)
(9.36504e-12 0 0)
(1.02403e-11 0 0)
(1.00244e-11 0 0)
(8.59338e-12 0 0)
(8.17472e-12 0 0)
(8.64006e-12 0 0)
(8.90846e-12 0 0)
(7.52121e-12 0 0)
(8.4723e-12 0 0)
(8.78155e-12 0 0)
(1.21352e-11 0 0)
(1.73939e-11 0 0)
(2.57116e-11 0 0)
(4.39763e-11 0 0)
(7.78466e-11 0 0)
(1.41854e-10 0 0)
(2.56636e-10 0 0)
(4.70684e-10 0 0)
(8.61254e-10 0 0)
(1.57906e-09 0 0)
(2.88513e-09 0 0)
(5.25332e-09 0 0)
(9.52428e-09 0 0)
(1.71905e-08 0 0)
(3.08807e-08 0 0)
(5.52101e-08 0 0)
(9.82269e-08 0 0)
(1.73898e-07 0 0)
(3.06327e-07 0 0)
(5.36885e-07 0 0)
(9.36179e-07 0 0)
(1.62403e-06 0 0)
(2.80263e-06 0 0)
(4.81117e-06 0 0)
(8.21528e-06 0 0)
(1.39527e-05 0 0)
(2.35686e-05 0 0)
(3.95932e-05 0 0)
(6.61446e-05 0 0)
(0.000109882 0 0)
(0.000181506 0 0)
(0.000298097 0 0)
(0.000486737 0 0)
(0.00079008 0 0)
(0.00127483 0 0)
(0.00204459 0 0)
(0.00325903 0 0)
(0.0051625 0 0)
(0.00812589 0 0)
(0.0127076 0 0)
(0.0197408 0 0)
(0.0304571 0 0)
(0.0466564 0 0)
(0.0709365 0 0)
(0.106987 0 0)
(0.159935 0 0)
(0.23669 0 0)
(0.346079 0 0)
(0.498106 0 0)
(0.700542 0 0)
(0.95557 0 0)
(1.26288 0 0)
(1.62318 0 0)
(2.03654 0 0)
(2.50104 0 0)
(3.01287 0 0)
(3.56677 0 0)
(4.1567 0 0)
(4.7765 0 0)
(5.42039 0 0)
(6.08334 0 0)
(6.76124 0 0)
(7.45083 0 0)
(8.14962 0 0)
(8.85576 0 0)
(9.56786 0 0)
(10.2849 0 0)
(11.006 0 0)
(11.7307 0 0)
(12.4584 0 0)
(13.1887 0 0)
(13.9213 0 0)
(14.6559 0 0)
(15.3923 0 0)
(16.1304 0 0)
(16.8699 0 0)
(17.6108 0 0)
(18.3528 0 0)
(19.0959 0 0)
(19.8401 0 0)
(20.5851 0 0)
(21.331 0 0)
(22.0776 0 0)
(22.825 0 0)
(23.573 0 0)
(24.3217 0 0)
(25.0709 0 0)
(25.8207 0 0)
(26.5709 0 0)
(27.3217 0 0)
(28.0729 0 0)
(28.8245 0 0)
(29.5765 0 0)
(30.3289 0 0)
(31.0816 0 0)
(31.8347 0 0)
(32.5881 0 0)
(33.3418 0 0)
(34.0957 0 0)
(34.85 0 0)
(35.6045 0 0)
(36.3592 0 0)
(37.1142 0 0)
(37.8694 0 0)
(38.6249 0 0)
(39.3805 0 0)
(40.1364 0 0)
(40.8924 0 0)
(41.6486 0 0)
(42.405 0 0)
(43.1615 0 0)
(43.9183 0 0)
(44.6751 0 0)
(45.4321 0 0)
(46.1893 0 0)
(46.9466 0 0)
(47.7041 0 0)
(48.4616 0 0)
(49.2193 0 0)
(49.9771 0 0)
(50.7351 0 0)
(51.4931 0 0)
(52.2512 0 0)
(53.0095 0 0)
(53.7678 0 0)
(54.5263 0 0)
(55.2848 0 0)
(56.0435 0 0)
(56.8022 0 0)
(57.561 0 0)
(58.3199 0 0)
(59.0788 0 0)
(59.8379 0 0)
(60.597 0 0)
(61.3561 0 0)
(62.1154 0 0)
(62.8747 0 0)
(63.6341 0 0)
(64.3935 0 0)
(65.153 0 0)
(65.9126 0 0)
(66.6722 0 0)
(67.4318 0 0)
(68.1915 0 0)
(68.9513 0 0)
(69.7111 0 0)
(70.4709 0 0)
(71.2308 0 0)
(71.9907 0 0)
(72.7506 0 0)
(73.5106 0 0)
(74.2706 0 0)
(75.0307 0 0)
(75.7908 0 0)
(76.5509 0 0)
(77.311 0 0)
(78.0712 0 0)
(78.8313 0 0)
(79.5915 0 0)
(80.3517 0 0)
(81.112 0 0)
(81.8722 0 0)
(82.6325 0 0)
(83.3927 0 0)
(84.153 0 0)
(84.9133 0 0)
(85.6736 0 0)
(86.4338 0 0)
(87.1941 0 0)
(87.9544 0 0)
(88.7147 0 0)
(89.475 0 0)
(90.2352 0 0)
(90.9955 0 0)
(91.7557 0 0)
(92.516 0 0)
(93.2762 0 0)
(94.0364 0 0)
(94.7966 0 0)
(95.5568 0 0)
(96.3169 0 0)
(97.077 0 0)
(97.8371 0 0)
(98.5972 0 0)
(99.3572 0 0)
(100.117 0 0)
(100.877 0 0)
(101.637 0 0)
(102.397 0 0)
(103.157 0 0)
(103.917 0 0)
(104.676 0 0)
(105.436 0 0)
(106.196 0 0)
(106.955 0 0)
(107.715 0 0)
(108.474 0 0)
(109.234 0 0)
(109.993 0 0)
(110.753 0 0)
(111.512 0 0)
(112.271 0 0)
(113.03 0 0)
(113.789 0 0)
(114.548 0 0)
(115.307 0 0)
(116.066 0 0)
(116.824 0 0)
(117.583 0 0)
(118.341 0 0)
(119.1 0 0)
(119.858 0 0)
(120.616 0 0)
(121.375 0 0)
(122.133 0 0)
(122.89 0 0)
(123.648 0 0)
(124.406 0 0)
(125.163 0 0)
(125.921 0 0)
(126.678 0 0)
(127.435 0 0)
(128.192 0 0)
(128.949 0 0)
(129.706 0 0)
(130.463 0 0)
(131.219 0 0)
(131.976 0 0)
(132.732 0 0)
(133.488 0 0)
(134.244 0 0)
(134.999 0 0)
(135.755 0 0)
(136.51 0 0)
(137.265 0 0)
(138.02 0 0)
(138.775 0 0)
(139.53 0 0)
(140.284 0 0)
(141.038 0 0)
(141.792 0 0)
(142.546 0 0)
(143.3 0 0)
(144.053 0 0)
(144.806 0 0)
(145.559 0 0)
(146.312 0 0)
(147.064 0 0)
(147.817 0 0)
(148.568 0 0)
(149.32 0 0)
(150.072 0 0)
(150.823 0 0)
(151.574 0 0)
(152.324 0 0)
(153.075 0 0)
(153.825 0 0)
(154.574 0 0)
(155.324 0 0)
(156.073 0 0)
(156.822 0 0)
(157.57 0 0)
(158.318 0 0)
(159.066 0 0)
(159.814 0 0)
(160.561 0 0)
(161.307 0 0)
(162.054 0 0)
(162.8 0 0)
(163.546 0 0)
(164.291 0 0)
(165.036 0 0)
(165.78 0 0)
(166.524 0 0)
(167.268 0 0)
(168.011 0 0)
(168.754 0 0)
(169.496 0 0)
(170.238 0 0)
(170.979 0 0)
(171.72 0 0)
(172.461 0 0)
(173.2 0 0)
(173.94 0 0)
(174.679 0 0)
(175.417 0 0)
(176.155 0 0)
(176.892 0 0)
(177.629 0 0)
(178.365 0 0)
(179.101 0 0)
(179.836 0 0)
(180.57 0 0)
(181.304 0 0)
(182.037 0 0)
(182.77 0 0)
(183.502 0 0)
(184.233 0 0)
(184.964 0 0)
(185.694 0 0)
(186.423 0 0)
(187.151 0 0)
(187.879 0 0)
(188.606 0 0)
(189.333 0 0)
(190.058 0 0)
(190.783 0 0)
(191.507 0 0)
(192.23 0 0)
(192.952 0 0)
(193.674 0 0)
(194.395 0 0)
(195.114 0 0)
(195.833 0 0)
(196.551 0 0)
(197.268 0 0)
(197.984 0 0)
(198.699 0 0)
(199.414 0 0)
(200.127 0 0)
(200.839 0 0)
(201.55 0 0)
(202.26 0 0)
(202.969 0 0)
(203.677 0 0)
(204.384 0 0)
(205.09 0 0)
(205.795 0 0)
(206.498 0 0)
(207.2 0 0)
(207.902 0 0)
(208.601 0 0)
(209.3 0 0)
(209.997 0 0)
(210.693 0 0)
(211.388 0 0)
(212.082 0 0)
(212.774 0 0)
(213.464 0 0)
(214.154 0 0)
(214.841 0 0)
(215.528 0 0)
(216.213 0 0)
(216.896 0 0)
(217.578 0 0)
(218.258 0 0)
(218.937 0 0)
(219.614 0 0)
(220.29 0 0)
(220.964 0 0)
(221.636 0 0)
(222.306 0 0)
(222.975 0 0)
(223.642 0 0)
(224.307 0 0)
(224.97 0 0)
(225.632 0 0)
(226.291 0 0)
(226.949 0 0)
(227.605 0 0)
(228.259 0 0)
(228.91 0 0)
(229.56 0 0)
(230.208 0 0)
(230.853 0 0)
(231.496 0 0)
(232.138 0 0)
(232.777 0 0)
(233.414 0 0)
(234.048 0 0)
(234.68 0 0)
(235.31 0 0)
(235.938 0 0)
(236.563 0 0)
(237.186 0 0)
(237.806 0 0)
(238.424 0 0)
(239.039 0 0)
(239.652 0 0)
(240.262 0 0)
(240.869 0 0)
(241.474 0 0)
(242.076 0 0)
(242.676 0 0)
(243.272 0 0)
(243.866 0 0)
(244.457 0 0)
(245.045 0 0)
(245.63 0 0)
(246.212 0 0)
(246.792 0 0)
(247.368 0 0)
(247.941 0 0)
(248.511 0 0)
(249.078 0 0)
(249.642 0 0)
(250.202 0 0)
(250.76 0 0)
(251.314 0 0)
(251.865 0 0)
(252.412 0 0)
(252.956 0 0)
(253.497 0 0)
(254.034 0 0)
(254.568 0 0)
(255.099 0 0)
(255.625 0 0)
(256.149 0 0)
(256.668 0 0)
(257.184 0 0)
(257.697 0 0)
(258.205 0 0)
(258.71 0 0)
(259.212 0 0)
(259.709 0 0)
(260.203 0 0)
(260.693 0 0)
(261.179 0 0)
(261.661 0 0)
(262.139 0 0)
(262.614 0 0)
(263.084 0 0)
(263.551 0 0)
(264.013 0 0)
(264.471 0 0)
(264.926 0 0)
(265.376 0 0)
(265.822 0 0)
(266.265 0 0)
(266.703 0 0)
(267.136 0 0)
(267.566 0 0)
(267.992 0 0)
(268.413 0 0)
(268.831 0 0)
(269.244 0 0)
(269.653 0 0)
(270.057 0 0)
(270.458 0 0)
(270.854 0 0)
(271.246 0 0)
(271.633 0 0)
(272.017 0 0)
(272.396 0 0)
(272.771 0 0)
(273.141 0 0)
(273.508 0 0)
(273.87 0 0)
(274.228 0 0)
(274.581 0 0)
(274.931 0 0)
(275.276 0 0)
(275.617 0 0)
(275.953 0 0)
(276.286 0 0)
(276.614 0 0)
(276.938 0 0)
(277.257 0 0)
(277.573 0 0)
(277.884 0 0)
(278.191 0 0)
(278.494 0 0)
(278.793 0 0)
(279.088 0 0)
(279.379 0 0)
(279.665 0 0)
(279.948 0 0)
(280.226 0 0)
(280.5 0 0)
(280.771 0 0)
(281.037 0 0)
(281.3 0 0)
(281.558 0 0)
(281.813 0 0)
(282.064 0 0)
(282.311 0 0)
(282.554 0 0)
(282.793 0 0)
(283.028 0 0)
(283.26 0 0)
(283.488 0 0)
(283.712 0 0)
(283.933 0 0)
(284.15 0 0)
(284.364 0 0)
(284.573 0 0)
(284.78 0 0)
(284.983 0 0)
(285.182 0 0)
(285.378 0 0)
(285.571 0 0)
(285.76 0 0)
(285.946 0 0)
(286.128 0 0)
(286.308 0 0)
(286.484 0 0)
(286.657 0 0)
(286.827 0 0)
(286.993 0 0)
(287.157 0 0)
(287.318 0 0)
(287.475 0 0)
(287.63 0 0)
(287.782 0 0)
(287.93 0 0)
(288.076 0 0)
(288.22 0 0)
(288.36 0 0)
(288.498 0 0)
(288.633 0 0)
(288.765 0 0)
(288.895 0 0)
(289.022 0 0)
(289.146 0 0)
(289.268 0 0)
(289.388 0 0)
(289.505 0 0)
(289.619 0 0)
(289.731 0 0)
(289.841 0 0)
(289.949 0 0)
(290.054 0 0)
(290.157 0 0)
(290.258 0 0)
(290.357 0 0)
(290.454 0 0)
(290.548 0 0)
(290.641 0 0)
(290.731 0 0)
(290.82 0 0)
(290.906 0 0)
(290.991 0 0)
(291.073 0 0)
(291.154 0 0)
(291.233 0 0)
(291.31 0 0)
(291.385 0 0)
(291.459 0 0)
(291.531 0 0)
(291.601 0 0)
(291.67 0 0)
(291.737 0 0)
(291.802 0 0)
(291.866 0 0)
(291.928 0 0)
(291.989 0 0)
(292.048 0 0)
(292.106 0 0)
(292.162 0 0)
(292.218 0 0)
(292.271 0 0)
(292.323 0 0)
(292.374 0 0)
(292.424 0 0)
(292.473 0 0)
(292.52 0 0)
(292.566 0 0)
(292.611 0 0)
(292.654 0 0)
(292.697 0 0)
(292.738 0 0)
(292.778 0 0)
(292.817 0 0)
(292.856 0 0)
(292.893 0 0)
(292.929 0 0)
(292.964 0 0)
(292.998 0 0)
(293.031 0 0)
(293.063 0 0)
(293.095 0 0)
(293.125 0 0)
(293.155 0 0)
(293.184 0 0)
(293.212 0 0)
(293.239 0 0)
(293.265 0 0)
(293.29 0 0)
(293.315 0 0)
(293.339 0 0)
(293.363 0 0)
(293.385 0 0)
(293.407 0 0)
(293.428 0 0)
(293.449 0 0)
(293.469 0 0)
(293.488 0 0)
(293.507 0 0)
(293.525 0 0)
(293.543 0 0)
(293.56 0 0)
(293.576 0 0)
(293.592 0 0)
(293.607 0 0)
(293.622 0 0)
(293.636 0 0)
(293.65 0 0)
(293.664 0 0)
(293.677 0 0)
(293.689 0 0)
(293.701 0 0)
(293.713 0 0)
(293.724 0 0)
(293.735 0 0)
(293.745 0 0)
(293.755 0 0)
(293.765 0 0)
(293.774 0 0)
(293.783 0 0)
(293.792 0 0)
(293.8 0 0)
(293.808 0 0)
(293.816 0 0)
(293.824 0 0)
(293.831 0 0)
(293.837 0 0)
(293.844 0 0)
(293.85 0 0)
(293.856 0 0)
(293.862 0 0)
(293.868 0 0)
(293.873 0 0)
(293.878 0 0)
(293.883 0 0)
(293.888 0 0)
(293.892 0 0)
(293.897 0 0)
(293.901 0 0)
(293.905 0 0)
(293.908 0 0)
(293.912 0 0)
(293.915 0 0)
(293.919 0 0)
(293.922 0 0)
(293.925 0 0)
(293.928 0 0)
(293.93 0 0)
(293.933 0 0)
(293.935 0 0)
(293.938 0 0)
(293.94 0 0)
(293.942 0 0)
(293.944 0 0)
(293.946 0 0)
(293.948 0 0)
(293.95 0 0)
(293.951 0 0)
(293.953 0 0)
(293.955 0 0)
(293.956 0 0)
(293.957 0 0)
(293.959 0 0)
(293.96 0 0)
(293.961 0 0)
(293.962 0 0)
(293.963 0 0)
(293.964 0 0)
(293.965 0 0)
(293.966 0 0)
(293.967 0 0)
(293.968 0 0)
(293.969 0 0)
(293.97 0 0)
(293.971 0 0)
(293.972 0 0)
(293.972 0 0)
(293.973 0 0)
(293.974 0 0)
(293.975 0 0)
(293.976 0 0)
(293.976 0 0)
(293.977 0 0)
(293.978 0 0)
(293.979 0 0)
(293.98 0 0)
(293.981 0 0)
(293.982 0 0)
(293.983 0 0)
(293.985 0 0)
(293.986 0 0)
(293.988 0 0)
(293.99 0 0)
(293.992 0 0)
(293.994 0 0)
(293.996 0 0)
(293.999 0 0)
(294.003 0 0)
(294.006 0 0)
(294.01 0 0)
(294.015 0 0)
(294.02 0 0)
(294.026 0 0)
(294.033 0 0)
(294.041 0 0)
(294.049 0 0)
(294.059 0 0)
(294.069 0 0)
(294.081 0 0)
(294.094 0 0)
(294.108 0 0)
(294.124 0 0)
(294.142 0 0)
(294.161 0 0)
(294.181 0 0)
(294.204 0 0)
(294.228 0 0)
(294.255 0 0)
(294.283 0 0)
(294.313 0 0)
(294.345 0 0)
(294.38 0 0)
(294.416 0 0)
(294.454 0 0)
(294.494 0 0)
(294.536 0 0)
(294.579 0 0)
(294.624 0 0)
(294.671 0 0)
(294.718 0 0)
(294.767 0 0)
(294.816 0 0)
(294.866 0 0)
(294.917 0 0)
(294.967 0 0)
(295.017 0 0)
(295.066 0 0)
(295.114 0 0)
(295.161 0 0)
(295.206 0 0)
(295.249 0 0)
(295.29 0 0)
(295.328 0 0)
(295.363 0 0)
(295.395 0 0)
(295.423 0 0)
(295.447 0 0)
(295.466 0 0)
(295.482 0 0)
(295.492 0 0)
(295.498 0 0)
(295.499 0 0)
(295.495 0 0)
(295.486 0 0)
(295.472 0 0)
(295.454 0 0)
(295.43 0 0)
(295.403 0 0)
(295.37 0 0)
(295.334 0 0)
(295.295 0 0)
(295.252 0 0)
(295.206 0 0)
(295.157 0 0)
(295.107 0 0)
(295.054 0 0)
(295.001 0 0)
(294.946 0 0)
(294.892 0 0)
(294.837 0 0)
(294.783 0 0)
(294.729 0 0)
(294.677 0 0)
(294.626 0 0)
(294.576 0 0)
(294.528 0 0)
(294.483 0 0)
(294.439 0 0)
(294.398 0 0)
(294.36 0 0)
(294.323 0 0)
(294.289 0 0)
(294.258 0 0)
(294.229 0 0)
(294.202 0 0)
(294.177 0 0)
(294.155 0 0)
(294.135 0 0)
(294.116 0 0)
(294.1 0 0)
(294.085 0 0)
(294.072 0 0)
(294.061 0 0)
(294.05 0 0)
(294.042 0 0)
(294.034 0 0)
(294.027 0 0)
(294.021 0 0)
(294.016 0 0)
(294.012 0 0)
(294.009 0 0)
(294.006 0 0)
(294.004 0 0)
(294.002 0 0)
(294.001 0 0)
(294 0 0)
(293.999 0 0)
(293.998 0 0)
(293.998 0 0)
(293.998 0 0)
(293.998 0 0)
(293.999 0 0)
(293.999 0 0)
(294 0 0)
(294 0 0)
(294.001 0 0)
(294.002 0 0)
(294.003 0 0)
(294.003 0 0)
(294.004 0 0)
(294.005 0 0)
(294.006 0 0)
(294.007 0 0)
(294.008 0 0)
(294.009 0 0)
(294.01 0 0)
(294.011 0 0)
(294.012 0 0)
(294.013 0 0)
(294.014 0 0)
(294.015 0 0)
(294.016 0 0)
(294.017 0 0)
(294.018 0 0)
(294.019 0 0)
(294.02 0 0)
(294.021 0 0)
(294.022 0 0)
(294.023 0 0)
(294.023 0 0)
(294.024 0 0)
(294.025 0 0)
(294.025 0 0)
(294.026 0 0)
(294.027 0 0)
(294.027 0 0)
(294.027 0 0)
(294.028 0 0)
(294.028 0 0)
(294.028 0 0)
(294.028 0 0)
(294.028 0 0)
(294.027 0 0)
(294.027 0 0)
(294.026 0 0)
(294.025 0 0)
(294.024 0 0)
(294.023 0 0)
(294.021 0 0)
(294.019 0 0)
(294.017 0 0)
(294.014 0 0)
(294.011 0 0)
(294.008 0 0)
(294.004 0 0)
(293.999 0 0)
(293.994 0 0)
(293.989 0 0)
(293.982 0 0)
(293.975 0 0)
(293.968 0 0)
(293.959 0 0)
(293.95 0 0)
(293.939 0 0)
(293.928 0 0)
(293.915 0 0)
(293.901 0 0)
(293.886 0 0)
(293.87 0 0)
(293.852 0 0)
(293.832 0 0)
(293.811 0 0)
(293.787 0 0)
(293.762 0 0)
(293.734 0 0)
(293.704 0 0)
(293.671 0 0)
(293.636 0 0)
(293.597 0 0)
(293.556 0 0)
(293.511 0 0)
(293.462 0 0)
(293.409 0 0)
(293.352 0 0)
(293.29 0 0)
(293.224 0 0)
(293.152 0 0)
(293.074 0 0)
(292.99 0 0)
(292.899 0 0)
(292.802 0 0)
(292.696 0 0)
(292.583 0 0)
(292.46 0 0)
(292.329 0 0)
(292.187 0 0)
(292.034 0 0)
(291.869 0 0)
(291.693 0 0)
(291.503 0 0)
(291.299 0 0)
(291.079 0 0)
(290.844 0 0)
(290.593 0 0)
(290.323 0 0)
(290.035 0 0)
(289.727 0 0)
(289.399 0 0)
(289.05 0 0)
(288.678 0 0)
(288.284 0 0)
(287.867 0 0)
(287.427 0 0)
(286.964 0 0)
(286.478 0 0)
(285.969 0 0)
(285.438 0 0)
(284.887 0 0)
(284.316 0 0)
(283.729 0 0)
(283.127 0 0)
(282.512 0 0)
(281.888 0 0)
(281.257 0 0)
(280.623 0 0)
(279.99 0 0)
(279.361 0 0)
(278.74 0 0)
(278.128 0 0)
(277.531 0 0)
(276.95 0 0)
(276.389 0 0)
(275.848 0 0)
(275.329 0 0)
(274.835 0 0)
(274.364 0 0)
(273.918 0 0)
(273.497 0 0)
(273.098 0 0)
(272.723 0 0)
(272.368 0 0)
(272.032 0 0)
(271.714 0 0)
(271.41 0 0)
(271.112 0 0)
)
;

boundaryField
{
    sides
    {
        type            zeroGradient;
    }
    empty
    {
        type            empty;
    }
}


// ************************************************************************* //
