/*--------------------------------*- C++ -*----------------------------------*\
  =========                 |
  \\      /  F ield         | OpenFOAM: The Open Source CFD Toolbox
   \\    /   O peration     | Website:  https://openfoam.org
    \\  /    A nd           | Version:  13
     \\/     M anipulation  |
\*---------------------------------------------------------------------------*/
FoamFile
{
    format      ascii;
    class       volScalarField;
    location    "39.896157";
    object      yPlus;
}
// * * * * * * * * * * * * * * * * * * * * * * * * * * * * * * * * * * * * * //

dimensions      [];

internalField   uniform 0;

boundaryField
{
    inlet
    {
        type            calculated;
        value           uniform 0;
    }
    outlet
    {
        type            calculated;
        value           uniform 0;
    }
    cylinder
    {
        type            calculated;
        value           nonuniform List<scalar> 
132
(
1.221867e-07
1.2109829e-07
1.1958771e-07
1.1764169e-07
1.1526359e-07
1.124646e-07
1.0926286e-07
1.0568334e-07
1.0175772e-07
9.7524092e-08
9.3026811e-08
8.8315842e-08
8.3446046e-08
7.847634e-08
7.3468611e-08
6.8487333e-08
6.3598011e-08
5.8864479e-08
5.4345134e-08
5.0086264e-08
4.6113444e-08
4.241907e-08
3.8948278e-08
3.5590024e-08
3.2185601e-08
2.8566301e-08
2.461492e-08
2.0340515e-08
1.5921708e-08
1.1677802e-08
7.9838449e-09
5.1757187e-09
3.5088254e-09
3.0759985e-09
3.4549962e-09
4.2100466e-09
5.2026637e-09
6.4301904e-09
7.9175329e-09
9.6993745e-09
1.1842846e-08
1.4429242e-08
1.7235032e-08
2.0220132e-08
2.3308353e-08
2.6434409e-08
2.9536035e-08
3.256381e-08
3.5485329e-08
3.8274272e-08
4.0914413e-08
4.3397373e-08
4.5713285e-08
4.7855919e-08
4.985158e-08
5.1664622e-08
5.3314384e-08
5.4799662e-08
5.6126309e-08
5.7288213e-08
5.8276999e-08
5.9106112e-08
5.9775057e-08
6.0283095e-08
6.0634143e-08
6.0820487e-08
1.2282002e-07
1.2299696e-07
1.2273873e-07
1.2200348e-07
1.2076554e-07
1.1900696e-07
1.1671775e-07
1.138969e-07
1.1055366e-07
1.0670848e-07
1.0239411e-07
9.765615e-08
9.2553115e-08
8.7156172e-08
8.1547724e-08
7.5819343e-08
7.006832e-08
6.4393224e-08
5.8886483e-08
5.3625425e-08
4.8659886e-08
4.3997651e-08
3.959319e-08
3.5347212e-08
3.1125016e-08
2.6800076e-08
2.2318336e-08
1.7756564e-08
1.3334933e-08
9.3680033e-09
6.1796882e-09
4.0421607e-09
3.1217765e-09
3.2275637e-09
3.8400508e-09
4.71343e-09
5.8080482e-09
7.1401635e-09
8.7371128e-09
1.0629727e-08
1.2877128e-08
1.5554697e-08
1.8422049e-08
2.1440946e-08
2.4537152e-08
2.7644198e-08
3.0707546e-08
3.3685835e-08
3.6547543e-08
3.9273265e-08
4.1845682e-08
4.4264219e-08
4.6512323e-08
4.8582234e-08
5.0523143e-08
5.2266013e-08
5.385884e-08
5.5282042e-08
5.6551855e-08
5.7649822e-08
5.8583068e-08
5.9354117e-08
5.9967123e-08
6.0418427e-08
6.0708878e-08
6.0841324e-08
)
;
    }
    frontAndBack
    {
        type            empty;
    }
}


// ************************************************************************* //
