/*--------------------------------*- C++ -*----------------------------------*\
  =========                 |
  \\      /  F ield         | OpenFOAM: The Open Source CFD Toolbox
   \\    /   O peration     | Website:  https://openfoam.org
    \\  /    A nd           | Version:  13
     \\/     M anipulation  |
\*---------------------------------------------------------------------------*/
FoamFile
{
    format      ascii;
    class       volScalarField;
    location    "8.3991";
    object      yPlus;
}
// * * * * * * * * * * * * * * * * * * * * * * * * * * * * * * * * * * * * * //

dimensions      [];

internalField   uniform 0;

boundaryField
{
    inlet
    {
        type            calculated;
        value           uniform 0;
    }
    outlet
    {
        type            calculated;
        value           uniform 0;
    }
    cylinder
    {
        type            calculated;
        value           nonuniform List<scalar> 
132
(
2.7306246e-07
2.7150985e-07
2.6791209e-07
2.6220206e-07
2.543891e-07
2.4449516e-07
2.3264128e-07
2.1899103e-07
2.0375804e-07
1.8721767e-07
1.6969407e-07
1.5155792e-07
1.3322215e-07
1.1512621e-07
9.7711511e-08
8.1396573e-08
6.6536483e-08
5.3393684e-08
4.2108332e-08
3.269637e-08
2.505968e-08
1.9038448e-08
1.447862e-08
1.1291837e-08
9.4439566e-09
8.7154407e-09
8.5391248e-09
8.1871608e-09
7.2519643e-09
5.8559279e-09
4.4017955e-09
3.278004e-09
2.7742669e-09
2.9102643e-09
3.4604916e-09
4.2832237e-09
5.3355462e-09
6.6535006e-09
8.270854e-09
1.0230809e-08
1.2620703e-08
1.5537093e-08
1.8737563e-08
2.2175166e-08
2.5756036e-08
2.9395235e-08
3.3017319e-08
3.6559613e-08
3.9978734e-08
4.3242439e-08
4.6329623e-08
4.9230443e-08
5.1933026e-08
5.4430123e-08
5.6751938e-08
5.8857156e-08
6.0772552e-08
6.2493404e-08
6.402649e-08
6.5363486e-08
6.6502769e-08
6.7456804e-08
6.8225099e-08
6.8805924e-08
6.9203949e-08
6.9411904e-08
2.7256005e-07
2.6999937e-07
2.6540262e-07
2.5872591e-07
2.4998475e-07
2.3924467e-07
2.2665283e-07
2.1237618e-07
1.9664582e-07
1.7975133e-07
1.620334e-07
1.4387677e-07
1.2570027e-07
1.0793961e-07
9.1023694e-08
7.5340362e-08
6.1209116e-08
4.8843402e-08
3.8333777e-08
2.9651808e-08
2.2667552e-08
1.7220329e-08
1.3173754e-08
1.0479772e-08
9.0704537e-09
8.6157556e-09
8.4643278e-09
7.9272455e-09
6.8095938e-09
5.3600815e-09
3.9849523e-09
3.0385559e-09
2.7561465e-09
3.0369053e-09
3.6759992e-09
4.5600376e-09
5.6789326e-09
7.0711164e-09
8.7693939e-09
1.0816055e-08
1.3293954e-08
1.6295191e-08
1.9561496e-08
2.3042549e-08
2.6644264e-08
3.0287369e-08
3.389734e-08
3.7413322e-08
4.0798032e-08
4.4020684e-08
4.7062646e-08
4.9918883e-08
5.2573061e-08
5.5014248e-08
5.7297916e-08
5.9348555e-08
6.1220459e-08
6.2890981e-08
6.4378324e-08
6.5662959e-08
6.6757959e-08
6.7664715e-08
6.8386256e-08
6.8919539e-08
6.9266444e-08
6.9429105e-08
)
;
    }
    frontAndBack
    {
        type            empty;
    }
}


// ************************************************************************* //
