/*--------------------------------*- C++ -*----------------------------------*\
  =========                 |
  \\      /  F ield         | OpenFOAM: The Open Source CFD Toolbox
   \\    /   O peration     | Website:  https://openfoam.org
    \\  /    A nd           | Version:  13
     \\/     M anipulation  |
\*---------------------------------------------------------------------------*/
FoamFile
{
    format      ascii;
    class       volScalarField;
    location    "19.599861";
    object      pPrime2Mean;
}
// * * * * * * * * * * * * * * * * * * * * * * * * * * * * * * * * * * * * * //

dimensions      [0 4 -4 0 0 0 0];

internalField   nonuniform List<scalar> 
17140
(
15823.359
15823.36
15823.36
15823.36
15823.36
15823.359
15823.358
15823.355
15823.352
15823.348
15823.342
15823.334
15823.324
15823.311
15823.294
15823.273
15823.245
15823.209
15823.164
15823.106
15823.031
15822.935
15822.813
15822.656
15822.454
15822.196
15821.865
15821.443
15820.906
15820.225
15819.366
15818.284
15816.928
15815.233
15813.123
15810.503
15807.264
15803.279
15798.397
15792.448
15785.238
15776.546
15766.121
15753.685
15738.924
15721.49
15701.001
15677.04
15649.149
15616.833
15579.556
15536.738
15487.753
15431.929
15368.539
15296.805
15215.884
15124.869
15022.773
14908.542
14781.013
14638.955
14480.978
14305.637
14111.332
15823.76
15823.761
15823.761
15823.761
15823.761
15823.76
15823.759
15823.756
15823.753
15823.749
15823.743
15823.735
15823.724
15823.711
15823.694
15823.672
15823.644
15823.607
15823.561
15823.502
15823.426
15823.33
15823.206
15823.047
15822.844
15822.585
15822.254
15821.831
15821.294
15820.614
15819.756
15818.677
15817.323
15815.63
15813.522
15810.904
15807.669
15803.686
15798.807
15792.863
15785.657
15776.97
15766.553
15754.124
15739.371
15721.947
15701.469
15677.519
15649.641
15617.34
15580.08
15537.281
15488.319
15432.52
15369.159
15297.458
15216.574
15125.6
15023.551
14909.371
14781.9
14639.906
14482.003
14306.745
14112.522
15824.753
15824.754
15824.754
15824.754
15824.754
15824.753
15824.751
15824.748
15824.745
15824.74
15824.734
15824.725
15824.714
15824.7
15824.682
15824.659
15824.629
15824.592
15824.544
15824.483
15824.405
15824.306
15824.18
15824.019
15823.814
15823.553
15823.22
15822.798
15822.262
15821.584
15820.729
15819.652
15818.303
15816.615
15814.511
15811.898
15808.668
15804.691
15799.82
15793.885
15786.69
15778.016
15767.613
15755.202
15740.47
15723.069
15702.618
15678.697
15650.851
15618.586
15581.368
15538.617
15489.709
15433.973
15370.684
15299.064
15218.271
15127.401
15025.467
14911.415
14784.087
14642.252
14484.524
14309.465
14115.443
15826.359
15826.359
15826.36
15826.36
15826.359
15826.358
15826.356
15826.353
15826.349
15826.344
15826.337
15826.327
15826.316
15826.3
15826.281
15826.257
15826.225
15826.186
15826.136
15826.073
15825.992
15825.891
15825.762
15825.599
15825.392
15825.13
15824.797
15824.375
15823.841
15823.166
15822.314
15821.243
15819.898
15818.216
15816.118
15813.513
15810.29
15806.323
15801.464
15795.542
15788.364
15779.711
15769.332
15756.95
15742.251
15724.888
15704.478
15680.604
15652.81
15620.604
15583.453
15540.781
15491.963
15436.329
15373.157
15301.67
15221.028
15130.326
15028.58
14914.737
14787.641
14646.063
14488.622
14313.885
14120.184
15828.599
15828.599
15828.599
15828.599
15828.598
15828.597
15828.594
15828.591
15828.587
15828.581
15828.573
15828.564
15828.551
15828.535
15828.515
15828.489
15828.456
15828.415
15828.363
15828.298
15828.216
15828.112
15827.982
15827.817
15827.609
15827.346
15827.014
15826.594
15826.062
15825.391
15824.544
15823.477
15822.138
15820.462
15818.372
15815.775
15812.563
15808.609
15803.766
15797.864
15790.709
15782.084
15771.74
15759.397
15744.744
15727.432
15707.08
15683.27
15655.549
15623.426
15586.371
15543.808
15495.117
15439.629
15376.622
15305.322
15224.891
15134.425
15032.944
14919.395
14792.626
14651.41
14494.371
14320.088
14126.839
15831.494
15831.494
15831.494
15831.494
15831.493
15831.491
15831.489
15831.485
15831.481
15831.474
15831.467
15831.456
15831.443
15831.427
15831.405
15831.379
15831.345
15831.304
15831.251
15831.185
15831.102
15830.997
15830.866
15830.701
15830.494
15830.232
15829.902
15829.484
15828.955
15828.287
15827.445
15826.383
15825.05
15823.381
15821.299
15818.713
15815.514
15811.577
15806.754
15800.877
15793.753
15785.164
15774.863
15762.571
15747.976
15730.73
15710.452
15686.725
15659.098
15627.084
15590.154
15547.736
15499.211
15443.911
15381.12
15310.065
15229.909
15139.753
15038.616
14925.45
14799.106
14658.363
14501.85
14328.159
14135.503
15835.073
15835.074
15835.073
15835.073
15835.072
15835.07
15835.067
15835.064
15835.059
15835.052
15835.044
15835.034
15835.021
15835.004
15834.983
15834.956
15834.923
15834.881
15834.828
15834.762
15834.68
15834.576
15834.446
15834.282
15834.076
15833.816
15833.489
15833.074
15832.549
15831.885
15831.046
15829.99
15828.663
15827.001
15824.929
15822.355
15819.172
15815.255
15810.457
15804.61
15797.523
15788.979
15778.732
15766.502
15751.978
15734.812
15714.625
15691.001
15663.492
15631.613
15594.84
15552.601
15504.283
15449.22
15386.697
15315.945
15236.132
15146.36
15045.651
14932.963
14807.149
14666.994
14511.137
14338.185
14146.274
15839.369
15839.369
15839.369
15839.368
15839.367
15839.365
15839.362
15839.359
15839.354
15839.348
15839.339
15839.329
15839.316
15839.3
15839.279
15839.253
15839.22
15839.179
15839.127
15839.063
15838.982
15838.88
15838.752
15838.591
15838.388
15838.131
15837.806
15837.395
15836.874
15836.213
15835.379
15834.328
15833.006
15831.353
15829.291
15826.732
15823.567
15819.673
15814.903
15809.093
15802.05
15793.56
15783.375
15771.218
15756.778
15739.708
15719.629
15696.13
15668.764
15637.049
15600.465
15558.444
15510.375
15455.597
15393.398
15323.013
15243.612
15154.301
15054.11
14941.997
14816.823
14677.379
14522.313
14350.255
14159.246
15844.42
15844.42
15844.419
15844.418
15844.417
15844.415
15844.412
15844.409
15844.404
15844.398
15844.39
15844.38
15844.367
15844.351
15844.331
15844.306
15844.274
15844.235
15844.185
15844.122
15844.044
15843.945
15843.82
15843.661
15843.461
15843.208
15842.886
15842.478
15841.96
15841.304
15840.473
15839.427
15838.112
15836.467
15834.417
15831.873
15828.729
15824.861
15820.125
15814.355
15807.364
15798.934
15788.822
15776.75
15762.406
15745.446
15725.496
15702.144
15674.947
15643.427
15607.067
15565.304
15517.53
15463.088
15401.271
15331.317
15252.401
15163.635
15064.052
14952.617
14828.196
14689.59
14535.459
14364.459
14174.524
15850.266
15850.266
15850.266
15850.265
15850.263
15850.261
15850.258
15850.255
15850.25
15850.244
15850.237
15850.227
15850.215
15850.199
15850.18
15850.156
15850.125
15850.087
15850.039
15849.978
15849.902
15849.805
15849.683
15849.528
15849.33
15849.08
15848.761
15848.355
15847.84
15847.187
15846.361
15845.319
15844.011
15842.375
15840.338
15837.811
15834.689
15830.85
15826.151
15820.429
15813.494
15805.134
15795.103
15783.125
15768.891
15752.059
15732.256
15709.075
15682.075
15650.782
15614.682
15573.219
15525.788
15471.737
15410.362
15340.908
15262.554
15174.417
15075.538
14964.887
14841.341
14703.708
14550.666
14380.896
14192.211
15856.945
15856.945
15856.945
15856.944
15856.942
15856.94
15856.937
15856.934
15856.929
15856.923
15856.916
15856.906
15856.894
15856.879
15856.861
15856.837
15856.808
15856.771
15856.724
15856.665
15856.59
15856.496
15856.375
15856.222
15856.027
15855.778
15855.461
15855.057
15854.544
15853.894
15853.071
15852.034
15850.734
15849.108
15847.085
15844.576
15841.48
15837.673
15833.015
15827.344
15820.472
15812.188
15802.247
15790.375
15776.264
15759.576
15739.94
15716.955
15690.181
15659.148
15623.348
15582.229
15535.192
15481.588
15420.72
15351.836
15274.125
15186.708
15088.633
14978.881
14856.337
14719.819
14568.023
14399.662
14212.412
15864.491
15864.491
15864.49
15864.489
15864.487
15864.485
15864.482
15864.479
15864.474
15864.468
15864.461
15864.451
15864.439
15864.425
15864.406
15864.383
15864.354
15864.317
15864.271
15864.213
15864.139
15864.045
15863.925
15863.773
15863.579
15863.331
15863.015
15862.612
15862.101
15861.453
15860.634
15859.603
15858.311
15856.697
15854.689
15852.201
15849.132
15845.36
15840.747
15835.132
15828.33
15820.128
15810.285
15798.529
15784.554
15768.027
15748.581
15725.816
15699.298
15668.562
15633.104
15592.377
15545.787
15492.69
15432.395
15364.159
15287.174
15200.572
15103.407
14994.67
14873.257
14738.002
14587.619
14420.855
14235.235
15872.927
15872.926
15872.925
15872.924
15872.923
15872.92
15872.917
15872.914
15872.909
15872.903
15872.895
15872.886
15872.874
15872.859
15872.84
15872.817
15872.788
15872.751
15872.704
15872.646
15872.572
15872.478
15872.358
15872.206
15872.011
15871.764
15871.448
15871.046
15870.537
15869.891
15869.077
15868.053
15866.771
15865.17
15863.18
15860.715
15857.676
15853.943
15849.38
15843.825
15837.097
15828.985
15819.249
15807.619
15793.795
15777.447
15758.212
15735.694
15709.465
15679.063
15643.991
15603.706
15557.618
15505.091
15445.44
15377.93
15301.759
15216.069
15119.922
15012.325
14892.184
14758.349
14609.55
14444.579
14260.785
15882.273
15882.273
15882.272
15882.27
15882.269
15882.266
15882.263
15882.259
15882.254
15882.248
15882.24
15882.23
15882.218
15882.203
15882.184
15882.16
15882.131
15882.093
15882.046
15881.987
15881.912
15881.817
15881.697
15881.544
15881.349
15881.101
15880.786
15880.386
15879.878
15879.237
15878.429
15877.414
15876.143
15874.557
15872.587
15870.149
15867.143
15863.453
15858.943
15853.455
15846.807
15838.791
15829.17
15817.679
15804.022
15787.872
15768.871
15746.629
15720.723
15690.695
15656.054
15616.261
15570.733
15518.841
15459.908
15393.205
15317.941
15233.265
15138.253
15031.924
14913.202
14780.945
14633.91
14470.931
14289.17
15892.552
15892.552
15892.551
15892.55
15892.548
15892.546
15892.542
15892.538
15892.533
15892.527
15892.519
15892.508
15892.496
15892.48
15892.461
15892.436
15892.406
15892.368
15892.32
15892.26
15892.184
15892.089
15891.967
15891.814
15891.618
15891.371
15891.057
15890.658
15890.155
15889.519
15888.718
15887.713
15886.457
15884.889
15882.942
15880.533
15877.565
15873.922
15869.47
15864.054
15857.492
15849.58
15840.086
15828.747
15815.272
15799.341
15780.6
15758.664
15733.115
15703.504
15669.339
15630.091
15585.183
15533.994
15475.855
15410.044
15335.781
15252.227
15158.471
15053.547
14936.392
14805.881
14660.792
14500.011
14320.495
15903.792
15903.792
15903.791
15903.789
15903.788
15903.785
15903.782
15903.778
15903.772
15903.766
15903.758
15903.747
15903.735
15903.719
15903.699
15903.674
15903.643
15903.605
15903.556
15903.495
15903.419
15903.323
15903.201
15903.047
15902.852
15902.605
15902.293
15901.898
15901.399
15900.77
15899.979
15898.987
15897.745
15896.198
15894.278
15891.902
15888.975
15885.383
15880.995
15875.656
15869.188
15861.389
15852.032
15840.859
15827.586
15811.896
15793.442
15771.843
15746.69
15717.535
15683.896
15645.247
15601.02
15550.603
15493.336
15428.506
15355.344
15273.024
15180.651
15077.271
14961.839
14833.244
14690.288
14531.917
14354.864
15916.028
15916.028
15916.027
15916.026
15916.024
15916.022
15916.018
15916.014
15916.009
15916.002
15915.994
15915.984
15915.971
15915.955
15915.934
15915.91
15915.878
15915.84
15915.791
15915.73
15915.653
15915.557
15915.435
15915.282
15915.088
15914.843
15914.533
15914.142
15913.649
15913.028
15912.248
15911.269
15910.046
15908.522
15906.629
15904.29
15901.408
15897.873
15893.553
15888.297
15881.931
15874.255
15865.048
15854.058
15841.006
15825.58
15807.44
15786.212
15761.491
15732.837
15699.772
15661.778
15618.296
15568.724
15512.41
15448.653
15376.696
15295.727
15204.867
15103.177
14989.626
14863.119
14722.489
14566.748
14392.379
15929.302
15929.302
15929.301
15929.3
15929.298
15929.296
15929.292
15929.288
15929.283
15929.276
15929.268
15929.258
15929.245
15929.229
15929.209
15929.184
15929.153
15929.114
15929.066
15929.005
15928.929
15928.833
15928.712
15928.56
15928.367
15928.125
15927.819
15927.432
15926.946
15926.333
15925.564
15924.601
15923.396
15921.896
15920.036
15917.735
15914.902
15911.427
15907.181
15902.015
15895.759
15888.218
15879.175
15868.385
15855.574
15840.437
15822.64
15801.817
15777.566
15749.456
15717.016
15679.735
15637.065
15588.412
15533.135
15470.546
15399.901
15320.405
15231.193
15131.34
15019.832
14895.592
14757.485
14604.598
14433.142
15943.654
15943.654
15943.653
15943.652
15943.65
15943.648
15943.645
15943.641
15943.636
15943.629
15943.621
15943.611
15943.598
15943.583
15943.563
15943.538
15943.508
15943.469
15943.422
15943.361
15943.286
15943.191
15943.072
15942.922
15942.732
15942.493
15942.191
15941.81
15941.331
15940.727
15939.97
15939.021
15937.837
15936.363
15934.535
15932.277
15929.496
15926.085
15921.918
15916.849
15910.712
15903.318
15894.454
15883.882
15871.333
15856.511
15839.087
15818.701
15794.961
15767.441
15735.677
15699.17
15657.38
15609.722
15555.569
15494.246
15425.026
15347.129
15259.702
15161.838
15052.536
14930.745
14795.365
14645.563
14477.251
15959.119
15959.119
15959.118
15959.117
15959.116
15959.114
15959.111
15959.107
15959.102
15959.096
15959.088
15959.078
15959.066
15959.051
15959.032
15959.008
15958.978
15958.94
15958.893
15958.835
15958.761
15958.668
15958.551
15958.403
15958.217
15957.983
15957.686
15957.312
15956.841
15956.248
15955.503
15954.571
15953.408
15951.961
15950.168
15947.953
15945.227
15941.884
15937.801
15932.837
15926.83
15919.595
15910.926
15900.591
15888.327
15873.844
15856.823
15836.91
15813.721
15786.838
15755.806
15720.134
15679.292
15632.708
15579.768
15519.815
15452.138
15375.966
15290.466
15194.74
15087.814
14968.66
14836.215
14689.734
14524.8
15975.725
15975.725
15975.725
15975.724
15975.722
15975.72
15975.717
15975.714
15975.709
15975.703
15975.696
15975.687
15975.675
15975.66
15975.642
15975.619
15975.59
15975.554
15975.509
15975.452
15975.38
15975.29
15975.177
15975.033
15974.852
15974.623
15974.334
15973.968
15973.508
15972.927
15972.198
15971.286
15970.146
15968.728
15966.972
15964.803
15962.134
15958.863
15954.871
15950.019
15944.151
15937.089
15928.632
15918.552
15906.596
15892.48
15875.892
15856.489
15833.893
15807.694
15777.448
15742.674
15702.851
15657.422
15605.79
15547.317
15481.298
15406.985
15323.549
15230.119
15125.742
15009.416
14880.12
14737.199
14575.882
15993.495
15993.495
15993.494
15993.494
15993.492
15993.49
15993.488
15993.485
15993.48
15993.475
15993.468
15993.459
15993.448
15993.434
15993.417
15993.395
15993.368
15993.334
15993.29
15993.236
15993.168
15993.082
15992.973
15992.835
15992.66
15992.439
15992.159
15991.805
15991.358
15990.794
15990.084
15989.195
15988.083
15986.699
15984.983
15982.864
15980.256
15977.062
15973.165
15968.434
15962.716
15955.84
15947.611
15937.807
15926.182
15912.46
15896.339
15877.482
15855.521
15830.057
15800.652
15766.836
15728.104
15683.917
15633.696
15576.807
15512.57
15440.242
15359.017
15268.044
15166.394
15053.092
14927.161
14788.045
14630.581
16012.451
16012.451
16012.45
16012.45
16012.449
16012.447
16012.445
16012.442
16012.438
16012.433
16012.426
16012.418
16012.408
16012.395
16012.379
16012.359
16012.334
16012.302
16012.261
16012.21
16012.146
16012.064
16011.961
16011.83
16011.664
16011.452
16011.184
16010.844
16010.414
16009.87
16009.184
16008.323
16007.245
16005.901
16004.232
16002.168
15999.628
15996.517
15992.723
15988.121
15982.565
15975.889
15967.904
15958.396
15947.126
15933.827
15918.205
15899.933
15878.652
15853.968
15825.458
15792.664
15755.102
15712.247
15663.535
15608.343
15546.008
15475.8
15396.934
15308.583
15209.841
15099.763
14977.415
14842.353
14688.98
16032.624
16032.624
16032.624
16032.623
16032.622
16032.62
16032.618
16032.616
16032.612
16032.608
16032.602
16032.595
16032.585
16032.574
16032.559
16032.54
16032.517
16032.487
16032.45
16032.403
16032.343
16032.266
16032.169
16032.046
16031.889
16031.688
16031.433
16031.109
16030.698
16030.177
16029.52
16028.692
16027.654
16026.356
16024.742
16022.742
16020.279
16017.261
16013.581
16009.12
16003.738
15997.276
15989.551
15980.359
15969.469
15956.623
15941.535
15923.884
15903.32
15879.462
15851.901
15820.201
15783.891
15742.463
15695.356
15641.978
15581.666
15513.715
15437.362
15351.802
15256.155
15149.501
15030.96
14900.203
14751.156
16054.049
16054.049
16054.049
16054.048
16054.047
16054.046
16054.044
16054.042
16054.039
16054.034
16054.029
16054.023
16054.014
16054.003
16053.99
16053.973
16053.951
16053.924
16053.89
16053.846
16053.79
16053.719
16053.628
16053.512
16053.363
16053.174
16052.933
16052.625
16052.234
16051.739
16051.111
16050.32
16049.326
16048.08
16046.528
16044.603
16042.228
16039.316
16035.765
16031.459
16026.266
16020.033
16012.588
16003.734
15993.251
15980.886
15966.36
15949.36
15929.553
15906.57
15880.024
15849.492
15814.518
15774.603
15729.212
15677.755
15619.595
15554.045
15480.361
15397.764
15305.4
15202.377
15087.865
14961.672
14817.183
16076.763
16076.763
16076.763
16076.762
16076.761
16076.76
16076.759
16076.756
16076.754
16076.75
16076.745
16076.739
16076.731
16076.721
16076.708
16076.692
16076.672
16076.646
16076.614
16076.572
16076.52
16076.452
16076.366
16076.256
16076.116
16075.936
16075.707
16075.415
16075.044
16074.573
16073.977
16073.224
16072.277
16071.09
16069.607
16067.766
16065.491
16062.698
16059.29
16055.155
16050.168
16044.184
16037.04
16028.549
16018.494
16006.632
15992.695
15976.386
15957.379
15935.332
15909.868
15880.574
15847.016
15808.712
15765.136
15715.721
15659.844
15596.841
15525.988
15446.532
15357.643
15258.458
15148.199
15026.832
14887.13
16100.794
16100.794
16100.794
16100.794
16100.793
16100.792
16100.79
16100.788
16100.786
16100.782
16100.777
16100.771
16100.764
16100.754
16100.742
16100.726
16100.706
16100.681
16100.65
16100.61
16100.559
16100.494
16100.411
16100.305
16100.17
16099.999
16099.78
16099.502
16099.15
16098.703
16098.138
16097.424
16096.526
16095.4
16093.992
16092.242
16090.077
16087.416
16084.165
16080.218
16075.456
16069.743
16062.92
16054.809
16045.204
16033.875
16020.563
16004.982
15986.83
15965.778
15941.454
15913.476
15881.419
15844.82
15803.169
15755.916
15702.458
15642.153
15574.298
15498.163
15412.946
15317.809
15212.028
15095.753
14961.07
16126.156
16126.156
16126.156
16126.156
16126.155
16126.154
16126.152
16126.15
16126.147
16126.144
16126.139
16126.133
16126.125
16126.115
16126.103
16126.087
16126.067
16126.042
16126.011
16125.971
16125.92
16125.856
16125.775
16125.672
16125.541
16125.376
16125.167
16124.901
16124.566
16124.143
16123.609
16122.935
16122.088
16121.026
16119.698
16118.046
16116
16113.481
16110.4
16106.656
16102.135
16096.707
16090.224
16082.518
16073.392
16062.627
16049.975
16035.17
16017.927
15997.92
15974.808
15948.222
15917.754
15882.958
15843.343
15798.378
15747.481
15690.03
15625.344
15552.715
15471.368
15380.492
15279.417
15168.5
15039.079
16152.846
16152.846
16152.846
16152.846
16152.845
16152.844
16152.842
16152.84
16152.837
16152.833
16152.828
16152.822
16152.814
16152.804
16152.791
16152.775
16152.755
16152.729
16152.697
16152.657
16152.607
16152.543
16152.463
16152.362
16152.236
16152.076
16151.876
16151.623
16151.305
16150.906
16150.403
16149.772
16148.978
16147.983
16146.738
16145.188
16143.266
16140.897
16137.996
16134.467
16130.201
16125.077
16118.958
16111.681
16103.062
16092.894
16080.944
16066.964
16050.676
16031.778
16009.949
15984.833
15956.042
15923.151
15885.688
15843.141
15794.95
15740.514
15679.173
15610.242
15532.971
15446.571
15350.431
15245.14
15121.241
16180.848
16180.848
16180.848
16180.848
16180.847
16180.845
16180.844
16180.841
16180.838
16180.834
16180.829
16180.823
16180.815
16180.804
16180.791
16180.775
16180.755
16180.729
16180.697
16180.657
16180.607
16180.545
16180.467
16180.37
16180.248
16180.096
16179.905
16179.667
16179.369
16178.995
16178.527
16177.938
16177.2
16176.274
16175.115
16173.67
16171.877
16169.665
16166.952
16163.648
16159.654
16154.854
16149.118
16142.297
16134.216
16124.68
16113.474
16100.363
16085.086
16067.362
16046.885
16023.321
15996.3
15965.418
15930.226
15890.233
15844.9
15793.645
15735.833
15670.799
15597.815
15516.112
15425.141
15325.757
15207.639
16210.142
16210.142
16210.141
16210.141
16210.14
16210.139
16210.137
16210.135
16210.132
16210.128
16210.123
16210.116
16210.108
16210.098
16210.086
16210.07
16210.05
16210.025
16209.995
16209.957
16209.909
16209.85
16209.776
16209.684
16209.57
16209.428
16209.251
16209.03
16208.754
16208.409
16207.977
16207.435
16206.753
16205.898
16204.828
16203.491
16201.831
16199.78
16197.264
16194.198
16190.49
16186.032
16180.703
16174.363
16166.849
16157.982
16147.562
16135.369
16121.16
16104.674
16085.624
16063.695
16038.54
16009.776
15976.977
15939.678
15897.358
15849.461
15795.368
15734.438
15665.961
15589.182
15503.629
15410.461
15298.367
16240.713
16240.713
16240.713
16240.712
16240.712
16240.71
16240.709
16240.707
16240.704
16240.7
16240.696
16240.69
16240.682
16240.673
16240.661
16240.647
16240.629
16240.606
16240.578
16240.544
16240.5
16240.446
16240.379
16240.296
16240.193
16240.064
16239.904
16239.704
16239.454
16239.141
16238.748
16238.254
16237.632
16236.85
16235.869
16234.644
16233.121
16231.239
16228.928
16226.112
16222.704
16218.606
16213.705
16207.871
16200.955
16192.793
16183.201
16171.975
16158.892
16143.71
16126.162
16105.955
16082.764
16056.23
16025.953
15991.492
15952.35
15907.992
15857.822
15801.214
15737.477
15665.86
15585.958
15499.257
15393.668
16272.559
16272.559
16272.559
16272.559
16272.558
16272.557
16272.555
16272.554
16272.551
16272.548
16272.544
16272.539
16272.533
16272.525
16272.515
16272.503
16272.487
16272.468
16272.444
16272.414
16272.376
16272.33
16272.272
16272.2
16272.109
16271.997
16271.856
16271.68
16271.458
16271.179
16270.827
16270.383
16269.822
16269.115
16268.227
16267.118
16265.737
16264.03
16261.935
16259.38
16256.287
16252.566
16248.114
16242.81
16236.522
16229.101
16220.378
16210.17
16198.272
16184.461
16168.492
16150.095
16128.97
16104.782
16077.158
16045.684
16009.891
15969.266
15923.232
15871.182
15812.44
15746.237
15672.166
15592.374
15493.621
16305.684
16305.684
16305.684
16305.684
16305.683
16305.682
16305.681
16305.68
16305.678
16305.675
16305.672
16305.668
16305.663
16305.656
16305.648
16305.638
16305.625
16305.609
16305.59
16305.565
16305.534
16305.495
16305.447
16305.386
16305.31
16305.214
16305.093
16304.941
16304.748
16304.504
16304.193
16303.8
16303.302
16302.673
16301.883
16300.893
16299.661
16298.138
16296.267
16293.985
16291.222
16287.896
16283.911
16279.163
16273.533
16266.887
16259.078
16249.937
16239.282
16226.909
16212.597
16196.1
16177.144
16155.421
16130.588
16102.258
16069.992
16033.303
15991.635
15944.399
15890.925
15830.356
15762.391
15689.923
15598.322
16340.086
16340.086
16340.086
16340.086
16340.085
16340.085
16340.084
16340.083
16340.081
16340.079
16340.076
16340.073
16340.069
16340.063
16340.057
16340.048
16340.038
16340.025
16340.008
16339.988
16339.962
16339.93
16339.89
16339.839
16339.775
16339.694
16339.592
16339.462
16339.297
16339.086
16338.818
16338.477
16338.044
16337.497
16336.807
16335.943
16334.867
16333.535
16331.899
16329.903
16327.484
16324.568
16321.071
16316.903
16311.961
16306.128
16299.273
16291.25
16281.894
16271.028
16258.451
16243.945
16227.264
16208.13
16186.228
16161.204
16132.654
16100.118
16063.065
16020.92
15972.986
15918.419
15856.746
15792.005
15708.103
16375.749
16375.749
16375.749
16375.749
16375.748
16375.748
16375.747
16375.746
16375.744
16375.742
16375.74
16375.737
16375.733
16375.728
16375.722
16375.714
16375.705
16375.693
16375.679
16375.661
16375.638
16375.61
16375.575
16375.532
16375.477
16375.408
16375.321
16375.211
16375.072
16374.894
16374.668
16374.38
16374.015
16373.551
16372.967
16372.234
16371.321
16370.19
16368.799
16367.101
16365.038
16362.547
16359.56
16355.998
16351.774
16346.788
16340.929
16334.071
16326.073
16316.779
16306.017
16293.594
16279.295
16262.875
16244.051
16222.504
16197.866
16169.712
16137.541
16100.773
16058.769
16010.545
15955.448
15898.803
15823.3
16412.631
16412.631
16412.63
16412.63
16412.629
16412.629
16412.628
16412.626
16412.625
16412.623
16412.62
16412.617
16412.613
16412.608
16412.601
16412.594
16412.584
16412.573
16412.559
16412.541
16412.52
16412.494
16412.462
16412.423
16412.375
16412.316
16412.243
16412.151
16412.036
16411.89
16411.706
16411.472
16411.175
16410.798
16410.322
16409.725
16408.979
16408.056
16406.919
16405.527
16403.833
16401.787
16399.33
16396.399
16392.923
16388.82
16383.999
16378.354
16371.769
16364.115
16355.246
16345
16333.192
16319.612
16304.015
16286.121
16265.599
16242.065
16215.057
16184.04
16148.348
16106.946
16058.913
16010.694
15944.18
16450.666
16450.665
16450.665
16450.665
16450.664
16450.663
16450.662
16450.66
16450.658
16450.656
16450.653
16450.649
16450.645
16450.639
16450.632
16450.624
16450.614
16450.602
16450.587
16450.57
16450.549
16450.524
16450.494
16450.458
16450.416
16450.365
16450.304
16450.23
16450.138
16450.024
16449.88
16449.699
16449.469
16449.179
16448.813
16448.354
16447.781
16447.071
16446.194
16445.118
16443.808
16442.222
16440.317
16438.044
16435.346
16432.162
16428.419
16424.036
16418.921
16412.973
16406.076
16398.1
16388.892
16378.28
16366.06
16351.99
16335.793
16317.141
16295.621
16270.731
16241.843
16207.882
16167.736
16128.278
16070.727
16489.766
16489.766
16489.765
16489.765
16489.764
16489.763
16489.762
16489.76
16489.758
16489.755
16489.752
16489.748
16489.744
16489.738
16489.731
16489.722
16489.712
16489.7
16489.686
16489.669
16489.649
16489.625
16489.598
16489.567
16489.531
16489.489
16489.44
16489.383
16489.314
16489.229
16489.126
16488.996
16488.834
16488.63
16488.375
16488.057
16487.66
16487.167
16486.557
16485.808
16484.893
16483.785
16482.453
16480.863
16478.974
16476.743
16474.119
16471.045
16467.456
16463.279
16458.431
16452.813
16446.311
16438.793
16430.098
16420.04
16408.389
16394.878
16379.177
16360.867
16339.372
16313.643
16282.56
16251.698
16203.777
16529.84
16529.84
16529.839
16529.839
16529.838
16529.837
16529.835
16529.834
16529.832
16529.829
16529.826
16529.823
16529.818
16529.813
16529.806
16529.799
16529.79
16529.779
16529.767
16529.753
16529.736
16529.717
16529.695
16529.67
16529.642
16529.611
16529.574
16529.533
16529.485
16529.429
16529.363
16529.285
16529.191
16529.075
16528.932
16528.756
16528.537
16528.265
16527.929
16527.515
16527.009
16526.396
16525.658
16524.776
16523.725
16522.481
16521.016
16519.297
16517.289
16514.95
16512.228
16509.062
16505.375
16501.077
16496.06
16490.189
16483.306
16475.211
16465.66
16454.359
16440.861
16424.343
16403.854
16382.894
16346.847
16572.615
16572.615
16572.614
16572.614
16572.613
16572.612
16572.61
16572.609
16572.607
16572.605
16572.602
16572.599
16572.596
16572.592
16572.587
16572.581
16572.574
16572.566
16572.556
16572.545
16572.533
16572.519
16572.503
16572.485
16572.465
16572.444
16572.42
16572.395
16572.369
16572.341
16572.314
16572.287
16572.263
16572.24
16572.219
16572.195
16572.169
16572.139
16572.102
16572.054
16571.996
16571.923
16571.835
16571.725
16571.587
16571.416
16571.211
16570.965
16570.673
16570.325
16569.908
16569.401
16568.769
16567.973
16566.958
16565.656
16563.978
16561.816
16559.024
16555.447
16550.844
16544.759
16537.191
16530.306
16517.171
16617.62
16617.62
16617.619
16617.618
16617.618
16617.617
16617.616
16617.614
16617.613
16617.611
16617.609
16617.607
16617.605
16617.602
16617.598
16617.594
16617.59
16617.584
16617.578
16617.571
16617.564
16617.555
16617.546
16617.535
16617.525
16617.515
16617.506
16617.5
16617.498
16617.504
16617.521
16617.553
16617.606
16617.684
16617.79
16617.932
16618.116
16618.346
16618.626
16618.969
16619.386
16619.89
16620.491
16621.202
16622.036
16623.013
16624.152
16625.479
16627.018
16628.795
16630.837
16633.165
16635.795
16638.74
16642.007
16645.599
16649.507
16653.721
16658.212
16662.979
16668.004
16673.24
16679.168
16686.832
16692.633
16662.551
16662.551
16662.55
16662.55
16662.549
16662.548
16662.548
16662.547
16662.546
16662.545
16662.544
16662.543
16662.542
16662.541
16662.54
16662.539
16662.538
16662.537
16662.536
16662.535
16662.534
16662.533
16662.533
16662.533
16662.535
16662.538
16662.546
16662.561
16662.585
16662.625
16662.687
16662.779
16662.909
16663.085
16663.318
16663.618
16663.999
16664.476
16665.068
16665.796
16666.685
16667.76
16669.048
16670.579
16672.387
16674.512
16677.001
16679.907
16683.286
16687.2
16691.712
16696.892
16702.806
16709.523
16717.111
16725.646
16735.202
16745.868
16757.737
16770.951
16785.666
16802.131
16820.907
16842.625
16866.89
16707.212
16707.211
16707.21
16707.21
16707.21
16707.209
16707.209
16707.209
16707.208
16707.208
16707.209
16707.209
16707.21
16707.211
16707.213
16707.215
16707.218
16707.221
16707.226
16707.231
16707.237
16707.245
16707.255
16707.266
16707.281
16707.299
16707.325
16707.362
16707.415
16707.49
16707.598
16707.747
16707.953
16708.227
16708.583
16709.039
16709.616
16710.34
16711.238
16712.346
16713.7
16715.34
16717.308
16719.653
16722.429
16725.699
16729.534
16734.016
16739.233
16745.281
16752.264
16760.294
16769.492
16779.984
16791.9
16805.388
16820.604
16837.735
16856.989
16878.638
16902.989
16930.492
16961.807
16997.738
17039.402
16751.405
16751.405
16751.404
16751.404
16751.404
16751.404
16751.404
16751.404
16751.405
16751.406
16751.407
16751.409
16751.412
16751.415
16751.42
16751.425
16751.432
16751.44
16751.449
16751.461
16751.475
16751.491
16751.51
16751.533
16751.56
16751.595
16751.64
16751.7
16751.781
16751.893
16752.048
16752.26
16752.545
16752.918
16753.399
16754.013
16754.787
16755.756
16756.96
16758.444
16760.257
16762.454
16765.095
16768.244
16771.979
16776.385
16781.558
16787.606
16794.65
16802.82
16812.26
16823.128
16835.593
16849.841
16866.064
16884.48
16905.328
16928.887
16955.475
16985.486
17019.376
17057.762
17101.456
17151.515
17209.482
16794.971
16794.97
16794.97
16794.97
16794.97
16794.97
16794.971
16794.971
16794.973
16794.975
16794.977
16794.98
16794.985
16794.99
16794.997
16795.005
16795.015
16795.027
16795.041
16795.058
16795.078
16795.101
16795.129
16795.162
16795.202
16795.251
16795.314
16795.397
16795.508
16795.659
16795.864
16796.139
16796.503
16796.978
16797.587
16798.36
16799.332
16800.547
16802.054
16803.909
16806.175
16808.921