/*--------------------------------*- C++ -*----------------------------------*\
  =========                 |
  \\      /  F ield         | OpenFOAM: The Open Source CFD Toolbox
   \\    /   O peration     | Website:  https://openfoam.org
    \\  /    A nd           | Version:  13
     \\/     M anipulation  |
\*---------------------------------------------------------------------------*/
FoamFile
{
    format      ascii;
    class       volScalarField;
    location    "0.07";
    object      rho;
}
// * * * * * * * * * * * * * * * * * * * * * * * * * * * * * * * * * * * * * //

dimensions      [1 -3 0 0 0 0 0];

internalField   nonuniform List<scalar> 
1000
(
0.175427
0.175427
0.175428
0.175429
0.175431
0.175432
0.175434
0.175436
0.175438
0.17544
0.175443
0.175445
0.175448
0.175452
0.175455
0.175459
0.175463
0.175467
0.175471
0.175475
0.17548
0.175485
0.17549
0.175496
0.175501
0.175507
0.175513
0.175519
0.175525
0.175531
0.175538
0.175545
0.175552
0.175559
0.175567
0.175574
0.175582
0.17559
0.175598
0.175606
0.175615
0.175623
0.175632
0.175641
0.175651
0.17566
0.175669
0.175679
0.175689
0.175699
0.175709
0.17572
0.175731
0.175741
0.175752
0.175763
0.175775
0.175786
0.175798
0.175809
0.175821
0.175834
0.175846
0.175858
0.175871
0.175884
0.175897
0.17591
0.175923
0.175936
0.17595
0.175964
0.175977
0.175992
0.176006
0.17602
0.176034
0.176049
0.176064
0.176079
0.176094
0.176109
0.176124
0.17614
0.176155
0.176171
0.176187
0.176203
0.176219
0.176235
0.176252
0.176268
0.176285
0.176302
0.176319
0.176336
0.176353
0.17637
0.176387
0.176405
0.176422
0.17644
0.176458
0.176476
0.176494
0.176512
0.17653
0.176548
0.176567
0.176585
0.176603
0.176622
0.176641
0.17666
0.176678
0.176697
0.176716
0.176735
0.176754
0.176774
0.176793
0.176812
0.176832
0.176851
0.176871
0.17689
0.17691
0.176929
0.176949
0.176969
0.176988
0.177008
0.177028
0.177048
0.177068
0.177088
0.177108
0.177128
0.177148
0.177167
0.177187
0.177207
0.177227
0.177247
0.177267
0.177287
0.177307
0.177327
0.177347
0.177367
0.177387
0.177407
0.177427
0.177447
0.177467
0.177486
0.177506
0.177526
0.177545
0.177565
0.177585
0.177604
0.177624
0.177643
0.177662
0.177682
0.177701
0.17772
0.177739
0.177759
0.177778
0.177797
0.177815
0.177834
0.177853
0.177872
0.17789
0.177909
0.177927
0.177946
0.177964
0.177982
0.178001
0.178019
0.178037
0.178055
0.178073
0.178091
0.178108
0.178126
0.178144
0.178161
0.178179
0.178196
0.178214
0.178231
0.178248
0.178265
0.178282
0.178299
0.178316
0.178333
0.17835
0.178367
0.178383
0.1784
0.178416
0.178433
0.178449
0.178465
0.178481
0.178497
0.178513
0.178529
0.178545
0.178561
0.178576
0.178592
0.178607
0.178622
0.178638
0.178653
0.178667
0.178682
0.178697
0.178711
0.178726
0.17874
0.178754
0.178768
0.178782
0.178796
0.178809
0.178823
0.178836
0.178849
0.178862
0.178875
0.178887
0.1789
0.178912
0.178924
0.178936
0.178948
0.178959
0.178971
0.178982
0.178993
0.179004
0.179014
0.179024
0.179035
0.179045
0.179054
0.179064
0.179073
0.179083
0.179092
0.1791
0.179109
0.179117
0.179125
0.179133
0.179141
0.179149
0.179156
0.179163
0.17917
0.179176
0.179183
0.179189
0.179195
0.179201
0.179206
0.179212
0.179217
0.179222
0.179226
0.179231
0.179235
0.179239
0.179243
0.179247
0.17925
0.179253
0.179256
0.179259
0.179261
0.179263
0.179265
0.179267
0.179268
0.17927
0.179271
0.179271
0.179272
0.179272
0.179272
0.179272
0.179271
0.17927
0.179269
0.179268
0.179267
0.179265
0.179263
0.179262
0.17926
0.179258
0.179256
0.179254
0.179252
0.179249
0.179247
0.179245
0.179242
0.17924
0.179237
0.179234
0.179231
0.179228
0.179225
0.179222
0.179218
0.179215
0.179211
0.179208
0.179204
0.1792
0.179196
0.179192
0.179188
0.179183
0.179179
0.179174
0.17917
0.179165
0.17916
0.179155
0.17915
0.179144
0.179139
0.179134
0.179128
0.179122
0.179117
0.179111
0.179105
0.179099
0.179092
0.179086
0.17908
0.179073
0.179067
0.17906
0.179053
0.179046
0.179039
0.179032
0.179025
0.179018
0.17901
0.179003
0.178995
0.178988
0.17898
0.178972
0.178964
0.178956
0.178948
0.17894
0.178932
0.178923
0.178915
0.178906
0.178898
0.178889
0.17888
0.178872
0.178863
0.178854
0.178845
0.178836
0.178826
0.178817
0.178808
0.178798
0.178789
0.178779
0.17877
0.17876
0.17875
0.17874
0.17873
0.178721
0.178711
0.1787
0.17869
0.17868
0.17867
0.17866
0.178649
0.178639
0.178628
0.178618
0.178607
0.178596
0.178586
0.178575
0.178564
0.178553
0.178542
0.178531
0.17852
0.178509
0.178498
0.178487
0.178476
0.178464
0.178453
0.178442
0.17843
0.178419
0.178407
0.178396
0.178384
0.178372
0.178361
0.178349
0.178337
0.178325
0.178314
0.178302
0.17829
0.178278
0.178266
0.178254
0.178242
0.17823
0.178217
0.178205
0.178193
0.178181
0.178169
0.178156
0.178144
0.178132
0.178119
0.178107
0.178094
0.178082
0.178069
0.178057
0.178044
0.178032
0.178019
0.178006
0.177994
0.177981
0.177968
0.177955
0.177943
0.17793
0.177917
0.177904
0.177891
0.177878
0.177866
0.177853
0.17784
0.177827
0.177814
0.177801
0.177788
0.177775
0.177762
0.177749
0.177735
0.177722
0.177709
0.177696
0.177683
0.17767
0.177657
0.177643
0.17763
0.177617
0.177604
0.17759
0.177577
0.177564
0.17755
0.177537
0.177524
0.177511
0.177497
0.177484
0.17747
0.177457
0.177444
0.17743
0.177417
0.177404
0.17739
0.177377
0.177363
0.17735
0.177336
0.177323
0.17731
0.177296
0.177283
0.177269
0.177256
0.177242
0.177229
0.177215
0.177202
0.177188
0.177175
0.177161
0.177148
0.177134
0.177121
0.177107
0.177094
0.17708
0.177067
0.177053
0.17704
0.177026
0.177013
0.176999
0.176986
0.176972
0.176959
0.176945
0.176932
0.176918
0.176905
0.176891
0.176878
0.176865
0.176851
0.176838
0.176824
0.176811
0.176797
0.176784
0.17677
0.176757
0.176744
0.17673
0.176717
0.176703
0.17669
0.176676
0.176663
0.17665
0.176636
0.176623
0.17661
0.176596
0.176583
0.17657
0.176556
0.176543
0.17653
0.176516
0.176503
0.17649
0.176476
0.176463
0.17645
0.176437
0.176424
0.17641
0.176397
0.176384
0.176371
0.176358
0.176344
0.176331
0.176318
0.176305
0.176292
0.176279
0.176266
0.176253
0.17624
0.176227
0.176214
0.176201
0.176188
0.176175
0.176162
0.176149
0.176136
0.176123
0.17611
0.176097
0.176084
0.176071
0.176058
0.176046
0.176033
0.17602
0.176007
0.175994
0.175982
0.175969
0.175956
0.175944
0.175931
0.175918
0.175906
0.175893
0.17588
0.175868
0.175855
0.175843
0.17583
0.175818
0.175805
0.175793
0.17578
0.175768
0.175755
0.175743
0.17573
0.175718
0.175706
0.175693
0.175681
0.175669
0.175657
0.175644
0.175632
0.17562
0.175608
0.175596
0.175583
0.175571
0.175559
0.175547
0.175535
0.175523
0.175511
0.175499
0.175487
0.175475
0.175463
0.175451
0.175439
0.175428
0.175416
0.175404
0.175392
0.17538
0.175369
0.175357
0.175345
0.175334
0.175322
0.17531
0.175299
0.175287
0.175276
0.175264
0.175253
0.175241
0.17523
0.175218
0.175207
0.175195
0.175184
0.175173
0.175161
0.17515
0.175139
0.175128
0.175116
0.175105
0.175094
0.175083
0.175072
0.175061
0.17505
0.175039
0.175028
0.175017
0.175006
0.174995
0.174984
0.174973
0.174962
0.174951
0.174941
0.17493
0.174919
0.174908
0.174898
0.174887
0.174876
0.174866
0.174855
0.174845
0.174834
0.174824
0.174813
0.174803
0.174792
0.174782
0.174772
0.174761
0.174751
0.174741
0.174731
0.17472
0.17471
0.1747
0.17469
0.17468
0.17467
0.17466
0.17465
0.17464
0.17463
0.17462
0.17461
0.1746
0.17459
0.17458
0.174571
0.174561
0.174551
0.174541
0.174532
0.174522
0.174513
0.174503
0.174493
0.174484
0.174474
0.174465
0.174456
0.174446
0.174437
0.174427
0.174418
0.174409
0.1744
0.17439
0.174381
0.174372
0.174363
0.174354
0.174345
0.174336
0.174327
0.174318
0.174309
0.1743
0.174291
0.174282
0.174274
0.174265
0.174256
0.174247
0.174239
0.17423
0.174222
0.174213
0.174204
0.174196
0.174187
0.174179
0.174171
0.174162
0.174154
0.174146
0.174137
0.174129
0.174121
0.174113
0.174104
0.174096
0.174088
0.17408
0.174072
0.174064
0.174056
0.174048
0.17404
0.174033
0.174025
0.174017
0.174009
0.174002
0.173994
0.173986
0.173979
0.173971
0.173964
0.173956
0.173949
0.173941
0.173934
0.173926
0.173919
0.173912
0.173904
0.173897
0.17389
0.173883
0.173876
0.173869
0.173862
0.173855
0.173848
0.173841
0.173834
0.173827
0.17382
0.173813
0.173806
0.1738
0.173793
0.173786
0.17378
0.173773
0.173767
0.17376
0.173754
0.173747
0.173741
0.173734
0.173728
0.173722
0.173715
0.173709
0.173703
0.173697
0.173691
0.173685
0.173679
0.173673
0.173667
0.173661
0.173655
0.173649
0.173643
0.173637
0.173632
0.173626
0.17362
0.173615
0.173609
0.173604
0.173598
0.173593
0.173587
0.173582
0.173576
0.173571
0.173566
0.173561
0.173555
0.17355
0.173545
0.17354
0.173535
0.17353
0.173525
0.17352
0.173515
0.17351
0.173506
0.173501
0.173496
0.173492
0.173487
0.173482
0.173478
0.173473
0.173469
0.173464
0.17346
0.173456
0.173451
0.173447
0.173443
0.173439
0.173434
0.17343
0.173426
0.173422
0.173418
0.173414
0.17341
0.173406
0.173403
0.173399
0.173395
0.173391
0.173388
0.173384
0.173381
0.173377
0.173374
0.17337
0.173367
0.173363
0.17336
0.173357
0.173354
0.17335
0.173347
0.173344
0.173341
0.173338
0.173335
0.173332
0.173329
0.173326
0.173324
0.173321
0.173318
0.173316
0.173313
0.17331
0.173308
0.173305
0.173303
0.173301
0.173298
0.173296
0.173294
0.173291
0.173289
0.173287
0.173285
0.173283
0.173281
0.173279
0.173277
0.173275
0.173274
0.173272
0.17327
0.173268
0.173267
0.173265
0.173264
0.173262
0.173261
0.173259
0.173258
0.173257
0.173255
0.173254
0.173253
0.173252
0.173251
0.17325
0.173249
0.173248
0.173247
0.173246
0.173246
0.173245
0.173244
0.173244
0.173243
0.173242
0.173242
0.173241
0.173241
0.173241
0.17324
0.17324
0.17324
0.17324
0.17324
0.17324
0.17324
0.17324
0.17324
0.17324
0.17324
0.173241
0.173241
0.173241
0.173242
0.173242
0.173243
0.173244
0.173244
0.173245
0.173245
)
;

boundaryField
{
    sides
    {
        type            calculated;
        value           nonuniform List<scalar> 2(0.173245 0.175427);
    }
    empty
    {
        type            empty;
    }
}


// ************************************************************************* //
