/*--------------------------------*- C++ -*----------------------------------*\
  =========                 |
  \\      /  F ield         | OpenFOAM: The Open Source CFD Toolbox
   \\    /   O peration     | Website:  https://openfoam.org
    \\  /    A nd           | Version:  13
     \\/     M anipulation  |
\*---------------------------------------------------------------------------*/
FoamFile
{
    format      ascii;
    class       surfaceScalarField;
    location    "0.005";
    object      CrankNicolson:ddtCorrDdt0(phi);
}
// * * * * * * * * * * * * * * * * * * * * * * * * * * * * * * * * * * * * * //

dimensions      [1 0 -2 0 0 0 0];

internalField   nonuniform List<scalar> 
999
(
-2.70381e-08
-2.04615e-09
-2.83563e-08
5.85595e-08
1.94528e-08
5.27185e-09
-4.18589e-08
-2.30963e-08
-1.28726e-08
1.46812e-08
-1.52369e-08
-1.86355e-08
-1.29338e-08
3.31747e-08
2.79775e-08
-1.96866e-09
3.64828e-09
-3.4723e-08
2.62237e-08
-2.15876e-08
-1.58486e-08
-2.98686e-10
5.7697e-09
2.18303e-08
-1.70238e-10
2.91186e-09
-3.83034e-08
2.666e-08
-1.52309e-08
1.98976e-08
-5.43933e-09
-2.22046e-08
1.29465e-08
1.61085e-08
5.59247e-09
-1.49656e-08
-2.62801e-08
1.28816e-08
2.15197e-08
-6.29788e-08
-6.10132e-09
-2.17604e-08
-2.39685e-09
1.09973e-08
-1.33077e-08
-5.74811e-08
1.04499e-08
5.76095e-09
-7.20899e-09
-2.92141e-08
-1.78898e-09
4.47921e-09
-1.68585e-09
-1.28764e-08
3.96354e-08
2.53718e-08
4.1189e-08
2.6755e-08
-7.21446e-09
2.48669e-08
1.27527e-09
-4.74058e-09
-1.77066e-08
-2.95319e-09
3.3502e-09
1.67991e-08
2.33492e-10
2.97529e-08
-4.66871e-08
1.15997e-08
-4.23602e-09
9.24712e-09
-3.00001e-08
5.97698e-09
4.72451e-09
-2.24366e-09
3.08197e-08
-1.51826e-08
-8.09285e-09
2.28284e-09
-4.65752e-09
-1.61449e-08
1.37991e-08
1.36849e-08
-1.21408e-08
7.05327e-09
-2.27274e-08
2.14414e-08
-4.87498e-09
-2.18809e-08
-5.1667e-08
-3.31818e-09
4.30925e-09
-4.87701e-09
-8.88064e-09
1.27726e-08
-1.50769e-08
-1.59502e-08
-6.03202e-08
-1.34084e-08
-4.18908e-08
-1.81285e-08
-4.60334e-08
-2.22341e-08
3.19898e-08
2.65059e-09
-1.38738e-08
-1.86581e-08
2.23102e-08
-1.32805e-08
3.28073e-08
-2.98499e-08
-2.50356e-08
1.21507e-08
3.87748e-08
-1.77158e-08
-5.44845e-09
3.28213e-08
1.09279e-08
1.24813e-08
-1.75024e-08
9.55962e-09
-3.47599e-08
-1.99912e-08
1.87427e-08
-8.20795e-10
-2.1762e-08
1.71847e-08
8.23412e-09
-2.33319e-08
-3.94986e-08
-3.92471e-09
4.85644e-08
-3.64464e-08
-3.72346e-08
-4.1417e-08
1.36229e-08
8.85356e-10
-1.56093e-08
1.78054e-08
2.13366e-08
9.6067e-09
-2.31107e-08
2.51991e-08
-2.14711e-08
9.18222e-09
-1.72842e-08
2.55297e-09
-1.29948e-08
-6.60924e-09
8.86853e-09
-3.03731e-08
-3.81609e-08
-7.701e-08
8.96505e-09
-1.64568e-08
-6.41435e-09
-4.94941e-08
-4.10139e-08
-1.40102e-08
9.35766e-10
-8.5021e-09
2.26361e-09
1.89726e-08
-9.63338e-09
-5.1873e-09
4.83926e-09
-5.03503e-09
2.11551e-08
-1.51821e-08
4.64785e-09
-1.74944e-08
-6.50034e-09
-1.9823e-09
2.92194e-08
3.76404e-08
2.56225e-08
-4.48976e-09
9.13383e-09
1.62773e-08
3.24289e-08
1.06618e-08
8.96932e-10
3.16429e-08
1.26205e-08
1.23075e-08
1.29274e-08
5.99269e-09
-2.47356e-08
-2.27993e-08
-1.28673e-08
-6.8361e-08
-3.05636e-08
-3.7254e-08
-3.23291e-08
-8.04382e-09
-4.35102e-09
1.318e-08
2.17401e-08
1.59367e-08
1.51832e-08
2.73793e-08
4.82492e-08
-1.29516e-08
-6.24531e-09
3.21834e-08
-8.75318e-09
-1.00297e-08
-3.07004e-08
-4.41312e-08
-2.86721e-08
2.89872e-08
2.01946e-08
1.8901e-08
1.23164e-08
3.51974e-08
1.07954e-08
1.79564e-08
-1.17998e-11
1.04646e-08
3.18337e-08
1.35355e-08
5.80331e-10
2.34552e-08
2.85443e-09
1.22535e-08
3.8178e-08
6.30336e-09
-6.1289e-08
-5.21686e-08
2.828e-08
3.41181e-08
3.13679e-08
1.1417e-08
4.44415e-08
-2.71864e-08
-6.2103e-10
-1.373e-08
7.4725e-11
1.26286e-08
-3.00297e-08
-1.76177e-08
4.85434e-09
1.31665e-08
9.87059e-09
1.35085e-08
-4.89533e-08
-8.22322e-09
-2.20104e-08
-3.4054e-09
1.72272e-08
3.317e-08
8.22809e-08
1.34806e-07
2.10189e-07
4.93741e-07
1.06123e-06
2.1842e-06
4.55335e-06
9.38707e-06
1.92854e-05
3.94559e-05
8.01263e-05
0.000161232
0.000322029
0.000638147
0.00125454
0.00244633
0.00473111
0.00907334
0.0172533
0.0325247
0.0607755
0.112551
0.20654
0.375507
0.676262
1.20618
2.13022
3.72442
6.44498
11.036
18.6947
31.3208
51.8835
84.9531
137.45
219.673
346.67
539.998
829.892
1257.79
1879.07
2765.66
4008.15
5716.48
8018.59
11055.9
14974.6
19913.4
25985.8
33261.4
41746.8
51369.8
61972.6
73314.9
85089.7
96949.4
108538
119524
129626
138640
146477
153138
158678
163187
166773
169547
171617
173083
174033
174546
174690
174522
174091
173438
172598
171600
170468
169221
167879
166453
164957
163400
161791
160137
158444
156717
154961
153179
151375
149552
147712
145858
143992
142115
140231
138340
136444
134544
132643
130740
128838
126938
125041
123148
121260
119378
117503
115636
113779
111930
110092
108265
106450
104648
102858
101082
99319.9
97572.1
95839.3
94121.6
92419.5
90733.2
89063.1
87409.4
85772.3
84152
82548.7
80962.6
79393.7
77842.1
76308.1
74791.6
73292.7
71811.5
70348
68902.3
67474.3
66064
64671.5
63296.8
61939.7
60600.4
59278.7
57974.6
56688.1
55419.1
54167.6
52933.4
51716.6
50517.1
49334.8
48169.5
47021.3
45890.1
44775.7
43678.1
42597.2
41532.8
40485
39453.6
38438.4
37439.5
36456.7
35489.9
34539
33603.9
32684.4
31780.6
30892.2
30019.2
29161.4
28318.8
27491.2
26678.6
25880.7
25097.6
24329
23575
22835.3
22109.8
21398.5
20701.2
20017.8
19348.2
18692.2
18049.9
17421
16805.4
16203.1
15613.9
15037.7
14474.4
13923.8
13385.9
12860.6
12347.6
11847
11358.7
10882.4
10418.1
9965.63
9524.96
9095.94
8678.45
8272.4
7877.67
7494.14
7121.71
6760.28
6409.71
6069.92
5740.79
5422.22
5114.09
4816.3
4528.73
4251.29
3983.86
3726.34
3478.61
3240.58
3012.14
2793.17
2583.58
2383.25
2192.07
2009.93
1836.74
1672.37
1516.73
1369.69
1231.15
1100.98
979.08
865.316
759.573
661.725
571.644
489.192
414.226
346.592
286.129
232.664
186.011
145.965
112.297
84.7528
63.0399
46.8254
35.7248
29.2916
27.0028
28.2427
32.2851
38.2764
45.2237
51.9938
57.3321
59.9147
58.4473
51.8237
39.3429
20.9617
-2.47552
-29.0851
-55.9644
-79.4614
-95.7139
-101.355
-94.1905
-73.6539
-40.9172
1.31011
49.1813
98.191
143.516
180.407
204.578
212.606
202.355
173.436
127.626
69.1416
4.57458
-57.632
-108.31
-138.642
-142.141
-116.259
-63.2577
10.0032
93.2868
174.788
242.987
288.261
303.481
285.275
234.618
157.035
62.3382
-36.2521
-123.69
-185.323
-209.576
-189.767
-126.589
-28.6359
88.8847
206.961
306.365
371.097
391.065
362.942
291.261
187.863
70.2236
-41.215
-126.46
-169.611
-162.09
-104.159
-5.81058
114.927
235.578
333.932
392.571
402.2
362.867
284.223
183.622
82.6866
2.92756
-38.6759
-33.2834
18.127
104.666
208.016
306.689
380.989
417.458
411.761
369.267
303.757
234.01
179.284
154.744
167.914
217.134
292.098
376.727
453.522
508.192
533.295
529.88
506.953
478.783
460.865
465.686
499.469
560.849
641.695
729.906
813.313
883.512
938.475
983.163
1028.06
1086.07
1168.72
1282.86
1428.9
1601.05
1790.47
1991.87
2215.36
2506.01
2974.2
3838.97
5483.4
8515.03
13815.5
22555
36139.2
56060.9
83637.8
119653
163952
215110
270287
325395
375593
416029
442645
452811
445662
422083
384418
336028
280810
222785
165766
113113
67526.9
30875.9
4058.16
-13059.8
-21571.3
-23301.4
-20454
-15215.2
-9415.35
-4325.85
-613.829
1572.43
2442.61
2386.76
1825.03
1107.28
466.422
15.5895
-226.701
-300.003
-267.001
-187.876
-106.4
-46.2814
-14.2782
-6.3098
-13.6205
-27.3318
-40.8949
-50.754
-55.8819
-56.8544
-54.9432
-51.4693
-47.4659
-43.5864
-40.1568
-37.2796
-34.933
-33.0404
-31.5087
-30.2457
-29.1674
-28.2034
-27.3011
-26.4306
-25.5841
-24.772
-24.0126
-23.3227
-22.7102
-22.1746
-21.7149
-21.3404
-21.0809
-20.9867
-21.1185
-21.527
-22.2315
-23.2042
-24.3699
-25.6197
-26.8372
-27.9256
-28.8283
-29.5356
-30.0785
-30.514
-30.9081
-31.3227
-31.808
-32.3991
-33.1153
-33.9577
-34.9037
-35.9123
-36.9349
-37.9115
-38.7794
-39.5266
-40.1712
-40.6532
-40.9872
-41.4739
-42.1261
-42.4819
-43.3479
-46.0078
-47.6002
-46.3188
-50.6258
-58.0939
-44.8211
-33.7057
-76.3786
-71.7568
55.2673
-31.8963
-298.896
200.985
713.429
-889.92
-940.481
4031.31
1139.93
-10183.6
7140.81
28839.7
-33297.4
-46451.5
145969
57756.4
-419462
209666
1.18524e+06
-1.24292e+06
-2.65389e+06
7.25723e+06
8.83959e+06
3.13494e+06
647830
102937
16833
2784.87
460.925
76.2669
12.6182
2.08761
0.345379
0.0571401
0.00945332
0.00156397
0.000258736
4.28223e-05
7.08876e-06
1.07764e-06
2.63281e-07
2.89226e-08
6.92885e-09
9.23808e-11
-4.93685e-09
-5.26638e-09
-5.20004e-09
-6.36607e-10
2.54587e-10
5.81205e-09
-1.82306e-09
-7.35604e-09
4.4076e-10
4.77059e-09
-2.27642e-09
-1.81442e-09
2.27935e-09
-4.23516e-09
-4.88449e-09
2.31425e-09
5.43135e-09
1.97753e-09
-5.96952e-09
6.30635e-10
-2.7736e-09
-3.64743e-10
5.21357e-09
-2.62127e-09
-2.65611e-09
4.06759e-09
-1.61349e-09
3.90332e-09
-5.36704e-09
1.55331e-10
3.55846e-09
-6.61644e-09
-5.04517e-10
-4.89042e-09
-3.57129e-09
-5.75875e-10
-2.79346e-09
-1.01156e-08
3.4057e-10
-2.1577e-10
1.59318e-09
-2.08011e-09
-3.30595e-09
-6.03002e-09
-4.52645e-09
-1.70353e-09
-4.53876e-09
1.27161e-09
-1.14691e-09
2.78933e-09
1.55198e-09
6.59638e-10
3.59209e-09
3.79385e-09
-4.64871e-11
3.99766e-09
-2.31982e-10
-9.1077e-10
-3.82034e-10
-1.31873e-10
-3.87372e-09
-4.70257e-09
-1.94486e-10
-4.23941e-10
-2.76578e-09
1.68884e-09
1.01119e-09
1.86451e-10
2.42111e-09
-7.26876e-10
-2.71779e-09
-3.47766e-09
-8.26838e-11
7.68371e-10
7.58606e-10
1.98421e-09
4.93287e-10
2.69919e-09
4.068e-09
1.55342e-09
6.50655e-10
4.47287e-09
-3.58431e-09
-1.72453e-09
4.62431e-10
7.32616e-10
3.70095e-09
1.14006e-09
1.88759e-09
-3.76324e-09
-9.48982e-10
-2.71139e-09
-2.86907e-09
-3.45112e-09
-1.43818e-09
-3.9333e-09
-3.12188e-09
-2.37488e-09
-3.6466e-10
1.97382e-09
1.30738e-09
-4.25907e-10
4.62942e-10
-5.23243e-11
-2.94452e-10
-3.62768e-09
1.36893e-09
-1.35868e-09
5.80291e-09
3.78883e-09
1.84567e-09
-2.98371e-09
-3.15534e-09
-2.52554e-10
7.33688e-10
3.35385e-09
1.46251e-09
-1.70688e-10
-4.32386e-09
-1.97672e-09
-4.05566e-09
-5.62334e-09
1.13436e-09
6.56453e-10
-3.25397e-09
-1.09005e-09
1.31216e-09
4.79164e-09
-6.67535e-10
3.8104e-09
3.06843e-09
4.48321e-09
-1.49949e-09
1.30386e-09
6.04947e-09
-5.16186e-10
2.99478e-09
-5.22717e-09
4.92079e-09
7.40526e-10
-3.11684e-09
-7.8051e-09
-1.03007e-08
-6.23358e-09
-5.96396e-09
-4.05754e-10
1.60558e-09
-6.82614e-10
1.18053e-09
-1.85355e-09
-2.69367e-09
9.40347e-10
5.55599e-10
2.49482e-09
5.42583e-09
-9.99621e-12
9.17494e-10
4.96779e-09
-1.36694e-09
3.54341e-09
4.03272e-10
3.51403e-09
2.70243e-09
1.10458e-09
-5.89049e-09
-3.57572e-09
6.11742e-09
-5.94239e-10
-2.1641e-09
-5.17728e-09
-2.28287e-09
-4.6041e-09
1.67062e-09
3.11204e-09
-2.47838e-09
-1.59503e-09
-1.17475e-09
-6.05414e-11
-1.49184e-09
-5.46636e-10
8.50562e-09
4.50923e-09
9.03845e-09
-7.83642e-10
7.19964e-09
8.703e-09
5.93163e-09
5.71111e-09
-4.00742e-09
7.11355e-09
5.39209e-09
3.20184e-09
3.49248e-10
-2.37223e-11
2.17942e-09
6.94124e-11
4.63995e-10
-2.18909e-09
-3.30981e-09
1.59291e-09
-6.84378e-09
-2.93628e-09
-8.44717e-09
-4.98857e-09
-4.51591e-09
)
;

boundaryField
{
    sides
    {
        type            calculated;
        value           nonuniform List<scalar> 2(-1.43201e-09 1.60082e-09);
    }
    empty
    {
        type            empty;
    }
}


// ************************************************************************* //
