/*--------------------------------*- C++ -*----------------------------------*\
  =========                 |
  \\      /  F ield         | OpenFOAM: The Open Source CFD Toolbox
   \\    /   O peration     | Website:  https://openfoam.org
    \\  /    A nd           | Version:  13
     \\/     M anipulation  |
\*---------------------------------------------------------------------------*/
FoamFile
{
    format      ascii;
    class       volScalarField;
    location    "0.005";
    object      CrankNicolson:ddt0(rho,e);
}
// * * * * * * * * * * * * * * * * * * * * * * * * * * * * * * * * * * * * * //

dimensions      [1 -1 -3 0 0 0 0];

internalField   nonuniform List<scalar> 
1000
(
-2.11465e-06
1.05072e-06
-1.49132e-06
-2.31078e-06
-1.22789e-06
8.3634e-07
-1.91163e-06
-4.7323e-07
-4.14057e-06
-2.72121e-06
-7.76522e-08
-2.29295e-06
1.46645e-06
-3.79638e-06
-8.20979e-07
4.16773e-06
1.91984e-06
6.54227e-07
-2.11557e-06
2.22005e-06
-3.48842e-06
-2.00144e-06
7.56137e-07
-1.41645e-06
3.91973e-06
-1.69699e-06
-1.17501e-07
2.52104e-06
5.14721e-07
8.75372e-07
1.12143e-06
-1.60319e-06
4.61446e-07
2.79747e-09
4.02416e-07
5.30504e-07
-2.70279e-06
-1.6009e-06
9.54693e-07
7.3872e-07
-4.30049e-07
-1.06318e-06
1.598e-06
-2.42372e-06
2.32857e-06
-9.09282e-07
-2.01248e-06
-3.2101e-06
-1.45955e-06
1.09542e-06
-2.42342e-06
1.69781e-06
-2.99739e-06
2.14223e-06
-2.89719e-07
-2.39812e-06
-4.19037e-06
2.05536e-07
-2.15221e-07
9.13241e-08
-1.62472e-06
2.06842e-06
2.60357e-07
-8.74464e-08
-1.81826e-07
2.66544e-06
-2.19165e-06
3.66384e-07
1.12555e-06
-5.68107e-07
-5.29394e-07
9.15245e-07
-3.51957e-07
-2.09548e-06
9.91004e-08
1.44006e-07
-2.54394e-06
2.65306e-06
3.26655e-06
-1.64133e-06
1.01432e-06
1.04188e-06
-1.74869e-07
-1.96944e-06
7.15424e-07
-2.41549e-09
9.29856e-07
-2.04334e-06
3.49247e-06
-1.41554e-06
3.75126e-07
-7.43337e-07
1.09026e-06
1.64675e-06
-1.27573e-07
7.74609e-07
-1.63902e-06
4.34448e-08
1.5808e-06
-4.87311e-07
-3.83705e-07
4.23431e-06
2.76472e-06
1.2654e-06
-1.69907e-06
-5.92338e-07
-1.78471e-06
-2.67912e-06
-3.36511e-06
8.30773e-07
-1.95972e-06
8.50555e-07
3.21763e-06
7.18105e-07
1.73502e-06
-9.57156e-07
5.45617e-07
-2.30594e-07
-1.313e-06
-2.07713e-06
-3.35784e-07
-2.79321e-06
3.18684e-06
-1.62859e-06
-2.31489e-07
7.45661e-07
-1.21184e-06
-1.427e-06
-1.94239e-06
2.3356e-06
-1.26601e-06
-9.65643e-07
-1.86785e-07
3.02803e-06
-2.41726e-06
-2.73089e-07
-2.3467e-06
1.77691e-06
7.16686e-07
1.64294e-06
3.36891e-06
1.34443e-06
-2.48757e-06
1.25264e-06
2.23839e-07
-1.96956e-06
8.05097e-07
-2.745e-06
4.9099e-07
-4.41119e-07
-2.38734e-07
-4.26408e-07
2.40569e-06
-3.58101e-06
-2.31919e-06
2.65016e-06
3.54597e-06
4.02455e-06
2.64784e-06
1.50976e-06
-1.1057e-07
-1.93708e-07
-4.89853e-07
-2.50254e-06
9.6342e-07
-3.85247e-08
4.2708e-06
-1.09542e-06
-3.90457e-06
-1.57243e-06
5.80779e-08
2.29756e-06
2.72473e-08
3.8898e-07
7.43707e-08
5.49697e-07
-3.48999e-06
2.47753e-08
1.68601e-07
1.60891e-06
-1.3642e-06
-1.93572e-06
9.75878e-07
2.09916e-06
2.3606e-06
-2.23621e-06
-3.84154e-06
3.66657e-07
-8.86304e-07
-4.3947e-06
9.19665e-09
1.73222e-06
2.60504e-06
1.45151e-07
8.81879e-07
3.46482e-06
1.11678e-08
8.61886e-07
-1.37185e-06
4.08009e-09
1.7191e-07
-2.28797e-06
-2.38002e-06
-8.80025e-07
1.89492e-06
-5.46462e-07
-2.75802e-06
1.59766e-06
3.69695e-06
1.15811e-06
1.52238e-06
1.15825e-07
2.64586e-06
3.49477e-06
9.98055e-07
3.36943e-06
2.69853e-06
1.69672e-06
-5.7965e-07
-2.67672e-06
-2.0831e-06
-1.65334e-06
-2.89455e-06
1.20098e-06
-2.72502e-06
2.64321e-06
-1.93582e-06
-1.50311e-06
2.53534e-06
-5.08411e-07
-2.35584e-06
3.74785e-07
-5.24122e-07
-4.94236e-06
2.49508e-06
4.07427e-06
-1.49049e-07
2.55573e-06
1.23758e-06
3.71549e-07
2.43283e-06
1.08265e-06
-7.69873e-07
-3.48229e-06
-1.45944e-06
-2.74436e-06
1.81994e-06
4.19456e-06
-1.73446e-06
1.54335e-06
-2.27013e-06
4.89909e-07
-1.23673e-06
-1.80334e-06
-3.05028e-06
-6.96619e-06
-2.09068e-05
-4.92794e-05
-0.00010297
-0.000216112
-0.000441845
-0.000910904
-0.00185458
-0.00375241
-0.00752434
-0.0149837
-0.0295937
-0.0579827
-0.112659
-0.2171
-0.414848
-0.785926
-1.47598
-2.74738
-5.06788
-9.26252
-16.7708
-30.0758
-53.4119
-93.9132
-163.452
-281.534
-479.78
-808.75
-1348.12
-2221.58
-3618.07
-5821.46
-9250.61
-14512
-22466.1
-34306.4
-51649.6
-76627.3
-111967
-161041
-227858
-316962
-433207
-581381
-765692
-989123
-1.25276e+06
-1.55516e+06
-1.89202e+06
-2.25605e+06
-2.63742e+06
-3.02449e+06
-3.40491e+06
-3.76683e+06
-4.09988e+06
-4.39607e+06
-4.65094e+06
-4.8636e+06
-5.03551e+06
-5.16962e+06
-5.26965e+06
-5.3396e+06
-5.38345e+06
-5.40491e+06
-5.40734e+06
-5.39369e+06
-5.36653e+06
-5.32805e+06
-5.2801e+06
-5.22424e+06
-5.1618e+06
-5.09388e+06
-5.02139e+06
-4.94511e+06
-4.86568e+06
-4.78364e+06
-4.69946e+06
-4.61351e+06
-4.52613e+06
-4.43758e+06
-4.34811e+06
-4.25793e+06
-4.1672e+06
-4.07609e+06
-3.98472e+06
-3.89324e+06
-3.80173e+06
-3.7103e+06
-3.61904e+06
-3.52803e+06
-3.43735e+06
-3.34707e+06
-3.25724e+06
-3.16794e+06
-3.07922e+06
-2.99113e+06
-2.90372e+06
-2.81704e+06
-2.73113e+06
-2.64603e+06
-2.56178e+06
-2.47842e+06
-2.39597e+06
-2.31447e+06
-2.23394e+06
-2.15442e+06
-2.07591e+06
-1.99845e+06
-1.92205e+06
-1.84673e+06
-1.77249e+06
-1.69936e+06
-1.62735e+06
-1.55646e+06
-1.48671e+06
-1.41809e+06
-1.35062e+06
-1.2843e+06
-1.21913e+06
-1.15512e+06
-1.09226e+06
-1.03055e+06
-970000
-910601
-852353
-795252
-739296
-684481
-630802
-578254
-526833
-476532
-427346
-379268
-332292
-286411
-241619
-197907
-155268
-113696
-73180.8
-33716.1
4706.54
42095.4
78458.7
113805
148143
181480
213826
245189
275579
305003
333471
360991
387573
413225
437957
461777
484695
506718
527858
548121
567518
586058
603749
620600
636621
651820
666206
679789
692576
704578
715803
726259
735956
744903
753107
760579
767326
773357
778681
783306
787241
790495
793076
794993
796253
796865
796839
796181
794900
793005
790503
787403
783712
779440
774594
769181
763210
756689
749626
742028
733903
725260
716104
706446
696291
685647
674523
662925
650861
638339
625365
611947
598093
583809
569103
553982
538452
522522
506197
489486
472393
454928
437095
418902
400355
381460
362225
342655
322758
302540
282008
261169
240032
218608
196907
174944
152739
130316
107709
84962.6
62140.3
39327
16638.9
-5766.42
-27677.3
-48813.4
-68809.8
-87201.3
-103412
-116756
-126456
-131694
-131704
-125906
-114085
-96577.8
-74414.7
-49385
-23846.5
-600.604
17515.7
28176.7
30080.4
23254.2
9042.65
-10194.4
-31544.6
-51991.1
-68803.6
-79664.6
-82755.2
-76977.2
-62068.3
-38708.6
-8603.87
25494.9
59894.4
90264.5
112126
121658
116148
94613.5
58544.9
11910.5
-39418.3
-88698.3
-129495
-156654
-166958
-159276
-134252
-94696.4
-45284.2
7896.05
57983.6
98189.4
122738
127907
112566
78463.2
30529.5
-23894.2
-76374.9
-118945
-145469
-152609
-140089
-110410
-68755.4
-22131
21733.5
55638.4
74099.9
74376.4
56793
24782.9
-15584.1
-56819.6
-91542.5
-113929
-120781
-111949
-90120.1
-60365.2
-29082
-2709.26
13539.7
16698.7
6563.47
-14391.8
-41516.3
-69084.2
-91617.1
-105090
-107761
-100371
-85867.4
-68657.4
-53528.7
-44528.8
-44057.7
-52397
-67776
-86882.1
-105783
-120968
-130221
-133114
-130984
-126500
-122886
-123033
-128765
-140432
-156954
-176243
-195921
-214074
-229846
-243683
-257193
-272683
-292513
-318454
-351232
-390388
-434597
-482663
-535589
-600351
-696215
-864325
-1.18071e+06
-1.77163e+06
-2.82814e+06
-4.61468e+06
-7.46429e+06
-1.17525e+07
-1.78439e+07
-2.60117e+07
-3.63383e+07
-4.86193e+07
-6.23016e+07
-7.6486e+07
-9.00146e+07
-1.01633e+08
-1.1019e+08
-1.14831e+08
-1.15115e+08
-1.11061e+08
-1.03104e+08
-9.19928e+07
-7.86698e+07
-6.41542e+07
-4.94458e+07
-3.54538e+07
-2.29422e+07
-1.24839e+07
-4.42326e+06
1.14883e+06
4.39296e+06
5.68341e+06
5.53446e+06
4.50501e+06
3.10526e+06
1.72801e+06
617541
-124598
-507674
-608486
-529763
-368611
-198182
-61670.4
24694.4
63782
68536.5
54381.4
34297.5
16665.6
5236.06
303.335
246.299
2861.55
6228.86
9092.63
10883.7
11547
11316.1
10521
9465.78
8372.19
7370.7
6516.86
5815.48
5243.26
4765.92
4349.35
3965.95
3597.25
3233.93
2874.15
2521.07
2180.39
1858.35
1560.67
1292.18
1057.01
858.803
700.725
585.022
512.273
480.555
484.829
516.862
565.783
619.25
664.971
692.269
693.378
664.295
605.176
520.356
418.085
309.865
209.193
129.512
81.4802
70.0618
92.355
137.236
187.286
222.435
224.817
183.986
99.02
-24.6116
-177.139
-343.933
-514.748
-689.812
-851.689
-962.43
-1035.64
-1089.44
-994.471
-763.225
-817.013
-968.022
-330.546
-208.776
-2175.46
-1129.4
4251.04
-1095.27
-10043.1
15312.7
27957.8
-46506.7
-20719.1
187838
-5539.67
-413153
495215
1.1152e+06
-1.76297e+06
-1.25836e+06
6.8697e+06
289158
-1.7839e+07
1.62325e+07
4.73286e+07
-5.98364e+07
-3.60422e+07
3.40687e+08
1.5177e+08
-9.559e+06
-4.96832e+06
-626734
-99215.3
-16628
-2768.06
-458.719
-75.9196
-12.5613
-2.07819
-0.343819
-0.0568829
-0.00941075
-0.00155782
-0.000257558
-4.19781e-05
-7.89528e-06
-1.03575e-06
-8.33108e-08
-2.84087e-07
6.48898e-07
4.47083e-07
1.22136e-08
-4.17582e-07
2.7167e-07
-2.19727e-09
9.86509e-07
-7.18207e-08
1.09263e-06
2.08371e-07
3.29374e-07
6.77054e-07
3.37344e-07
-3.92604e-07
-1.62091e-07
-9.09157e-07
2.26213e-07
-7.5969e-07
-6.06196e-07
-3.73921e-07
-6.25537e-07
3.35773e-08
8.34778e-07
-3.9229e-07
6.80832e-07
-1.26379e-07
-1.94413e-07
1.65389e-07
-3.95494e-07
1.62297e-07
6.07135e-07
2.20296e-07
-3.37198e-08
-1.23514e-08
2.31477e-07
-7.06884e-07
6.35499e-08
4.17451e-07
3.2085e-07
1.72107e-07
6.01711e-07
5.84537e-07
5.55762e-07
1.99763e-07
-5.29302e-07
-3.35257e-07
-3.6308e-07
-6.1453e-07
7.99408e-08
-1.64447e-08
7.29886e-08
-4.41345e-08
-1.07371e-06
-2.72721e-07
1.41529e-07
-1.10064e-07
-5.08598e-07
6.02479e-08
1.03881e-07
5.1795e-07
-3.35909e-07
-5.39652e-07
1.9611e-07
-5.9418e-08
-3.3618e-07
5.62586e-07
-4.62905e-07
-3.4665e-07
3.27072e-07
-3.25132e-07
-3.59907e-08
-3.94308e-07
-7.02104e-07
-1.36482e-07
-2.4149e-08
1.82775e-07
-7.71549e-07
-4.59315e-07
-1.62848e-08
1.17187e-07
-7.07938e-08
-8.2817e-07
-2.73243e-07
6.39572e-07
1.68284e-07
1.08043e-07
1.60903e-08
5.81828e-07
-6.41719e-07
-3.39944e-07
-2.36154e-07
3.63152e-07
5.57986e-07
7.21534e-08
1.44603e-06
-5.23868e-07
-4.74933e-07
-2.71799e-07
4.42784e-07
-2.04305e-08
-4.52728e-07
-1.85105e-07
1.66283e-07
-2.70657e-07
8.20572e-08
2.33278e-07
-6.77268e-08
9.91691e-08
5.61408e-08
-3.58088e-07
-1.97681e-08
1.29662e-07
-9.6607e-07
-2.01947e-07
-1.86983e-07
3.24115e-09
3.42566e-07
1.60775e-08
-2.93078e-07
-5.97706e-07
1.81121e-07
7.42916e-08
-3.159e-07
5.22957e-07
-3.32801e-07
-6.18175e-08
-9.99075e-07
-3.81765e-07
2.98627e-07
-1.2166e-07
-2.54127e-07
6.7977e-07
-2.3566e-07
1.02171e-07
-5.67876e-07
8.70218e-08
-3.87228e-07
3.03031e-07
5.39569e-07
-5.20942e-08
1.79348e-07
-4.78244e-07
6.50635e-08
3.0973e-07
-4.58067e-07
4.52634e-08
6.91861e-09
6.69381e-08
4.85116e-08
-1.63154e-07
-3.91685e-07
-6.3882e-07
1.9815e-07
-4.37338e-08
-2.48536e-07
1.64323e-07
2.22578e-09
1.22961e-06
-2.4884e-07
9.37542e-07
-8.25752e-07
-3.79248e-07
1.35894e-07
-3.64099e-07
5.38364e-07
6.30075e-07
-6.96096e-07
1.37056e-07
-2.7747e-07
-4.07306e-08
-3.57035e-07
1.04375e-07
-2.4597e-07
-2.73561e-07
-1.10714e-07
-8.86534e-08
-6.35237e-08
-2.89012e-07
2.8737e-07
-2.27996e-07
6.40975e-07
1.11105e-07
-2.03737e-07
-5.57938e-07
6.50605e-07
-1.10039e-07
-8.92997e-08
5.12755e-07
1.27819e-07
-4.94765e-08
4.89036e-07
-3.79658e-07
6.5241e-08
6.66096e-08
2.27005e-08
-1.88243e-07
-1.22588e-07
9.59128e-07
9.02801e-07
1.0979e-07
4.7826e-07
-3.99705e-07
6.17063e-07
3.81413e-07
5.05214e-07
9.50775e-07
)
;

boundaryField
{
    sides
    {
        type            calculated;
        value           nonuniform List<scalar> 2(9.50775e-07 -2.11465e-06);
    }
    empty
    {
        type            empty;
    }
}


// ************************************************************************* //
