/*--------------------------------*- C++ -*----------------------------------*\
  =========                 |
  \\      /  F ield         | OpenFOAM: The Open Source CFD Toolbox
   \\    /   O peration     | Website:  https://openfoam.org
    \\  /    A nd           | Version:  13
     \\/     M anipulation  |
\*---------------------------------------------------------------------------*/
FoamFile
{
    format      ascii;
    class       volScalarField;
    location    "0.005";
    object      CrankNicolson:ddt0(rho);
}
// * * * * * * * * * * * * * * * * * * * * * * * * * * * * * * * * * * * * * //

dimensions      [1 -3 -1 0 0 0 0];

internalField   nonuniform List<scalar> 
1000
(
2.0813e-11
1.97662e-11
9.41015e-12
1.05203e-12
2.96966e-11
8.53015e-12
-3.24691e-11
2.4655e-11
-6.13678e-12
-3.33193e-11
7.41522e-12
-2.059e-12
1.21078e-11
4.35803e-12
-1.4848e-11
-4.99965e-11
9.8056e-13
1.91482e-13
5.14596e-11
-4.30605e-13
2.60247e-11
5.7067e-11
1.59091e-11
-4.51315e-11
-1.4974e-11
1.03403e-11
-1.24518e-14
9.1623e-12
-1.09424e-11
-1.01276e-11
-2.76675e-12
-1.66482e-11
-1.05545e-12
5.40419e-13
-8.79114e-12
-6.59238e-14
1.67128e-11
5.24025e-12
-3.33405e-11
-1.9881e-11
3.1475e-11
9.94814e-12
8.91512e-12
2.93083e-11
-4.70014e-12
-1.52404e-13
1.24954e-11
2.73006e-11
1.46355e-11
4.38418e-14
3.84901e-11
-6.546e-12
2.02853e-11
-3.068e-11
-7.68732e-13
7.55419e-12
-1.39945e-11
-5.4263e-11
-3.68034e-11
-5.74909e-12
-3.27967e-11
5.30912e-11
1.3328e-12
-4.05529e-12
-4.88679e-11
-4.98096e-11
2.92734e-11
-1.91209e-11
2.23693e-11
-1.27625e-11
1.23437e-11
5.95114e-13
4.15114e-12
6.51675e-12
5.12032e-12
2.06806e-12
2.59723e-11
-4.12758e-11
-8.67014e-13
7.46796e-12
-6.42416e-12
-2.47341e-11
-5.90475e-14
6.19948e-14
-8.24218e-12
2.24562e-14
-3.74347e-12
2.42204e-11
-5.05327e-13
-3.75939e-11
-2.02909e-11
8.32668e-12
2.40333e-24
-6.09864e-15
5.18384e-14
-1.95155e-12
1.40064e-12
-6.28574e-14
1.40584e-11
-2.60093e-13
-5.46309e-12
2.70773e-11
-3.61771e-11
3.53463e-11
-2.5212e-12
-3.51801e-11
9.64345e-12
-2.53403e-12
8.61902e-12
1.81097e-11
2.53757e-11
-2.50183e-13
-3.46496e-11
-1.04165e-11
1.66507e-11
-1.04093e-12
1.66444e-11
-1.45569e-11
4.14708e-11
-1.25239e-11
8.70969e-11
2.0408e-11
-9.36844e-12
-1.55271e-11
1.54087e-11
-9.71179e-12
-1.32864e-11
2.19877e-11
7.2877e-12
3.57124e-11
3.95045e-11
-2.55633e-11
-1.95537e-11
2.45045e-11
-1.71046e-11
-4.3715e-11
-5.7241e-12
-4.79036e-11
-1.57426e-11
-2.38173e-11
-2.02129e-12
-2.18169e-11
8.14042e-13
3.99563e-11
-5.676e-12
-1.7836e-13
-4.1771e-12
2.50296e-11
-2.49788e-14
-1.90007e-12
-7.71412e-13
-5.3818e-12
-2.18535e-11
-1.2494e-11
-3.6419e-12
-5.75019e-11
-1.53039e-11
-1.45712e-11
3.8652e-11
3.23518e-11
-4.93799e-12
-5.96333e-13
-4.13289e-12
3.01474e-11
-2.60184e-11
4.19793e-12
2.15649e-11
-5.5524e-14
1.66536e-11
-1.66877e-11
-4.68067e-13
-3.80927e-13
2.61857e-11
1.40406e-11
1.5776e-11
4.97159e-11
4.23123e-11
3.05049e-15
1.53679e-12
-2.99735e-13
4.14148e-12
-8.06894e-12
-3.33594e-12
-7.42782e-11
-3.04363e-11
-2.04591e-11
1.44195e-11
9.9808e-12
-4.2048e-11
9.72653e-13
3.7367e-13
-8.21854e-14
1.49214e-11
-3.70022e-12
-6.40905e-12
1.39048e-11
-2.33765e-14
-1.66732e-11
1.33797e-13
-3.55855e-12
-2.70872e-11
1.40679e-12
-4.97585e-12
2.1272e-11
-4.05041e-11
6.32247e-13
-4.94708e-12
3.08539e-13
-5.41233e-11
-1.41476e-12
7.26093e-12
-1.3061e-11
-3.50094e-12
-8.12746e-12
2.4539e-11
9.74574e-12
-1.34491e-11
-3.12427e-11
-4.16311e-12
8.30764e-12
7.34791e-13
-9.07454e-12
4.37299e-11
2.02694e-13
-2.05035e-14
-3.05338e-11
-2.10383e-11
-2.09426e-11
4.67704e-11
4.09581e-11
-1.68005e-12
-3.58222e-11
-5.04738e-12
-1.61307e-11
-9.49719e-12
1.63954e-11
1.81035e-12
-2.1593e-12
1.94445e-12
-4.44014e-12
-4.31873e-11
-1.45775e-11
6.46762e-12
-5.10873e-12
7.33552e-12
1.92935e-11
-2.33372e-11
-3.59198e-11
-1.37341e-11
1.66474e-11
2.94625e-11
-2.12256e-12
1.29352e-11
-5.85303e-11
-1.20478e-10
-2.3689e-10
-4.70231e-10
-1.02165e-09
-2.06333e-09
-4.20887e-09
-8.84123e-09
-1.81197e-08
-3.68479e-08
-7.45828e-08
-1.49607e-07
-2.97741e-07
-5.87915e-07
-1.15161e-06
-2.23737e-06
-4.31097e-06
-8.23642e-06
-1.56016e-05
-2.92958e-05
-5.45234e-05
-0.000100561
-0.000183769
-0.000332689
-0.000596547
-0.00105927
-0.00186226
-0.00324078
-0.00558131
-0.00951031
-0.0160293
-0.0267166
-0.0440214
-0.0716856
-0.11533
-0.183247
-0.287446
-0.444961
-0.679429
-1.02287
-1.51752
-2.21747
-3.18971
-4.51402
-6.2812
-8.58882
-11.5343
-15.205
-19.6664
-24.9487
-31.0357
-37.8565
-45.284
-53.1408
-61.2126
-69.2676
-77.0781
-84.4397
-91.1878
-97.2222
-102.511
-107.07
-110.942
-114.188
-116.875
-119.072
-120.845
-122.251
-123.345
-124.173
-124.774
-125.181
-125.425
-125.528
-125.511
-125.391
-125.182
-124.896
-124.543
-124.131
-123.668
-123.159
-122.61
-122.023
-121.404
-120.754
-120.077
-119.375
-118.649
-117.902
-117.135
-116.35
-115.548
-114.729
-113.895
-113.048
-112.187
-111.315
-110.431
-109.537
-108.634
-107.722
-106.802
-105.875
-104.941
-104.002
-103.057
-102.108
-101.156
-100.199
-99.2402
-98.2788
-97.3156
-96.351
-95.3856
-94.4195
-93.4534
-92.4875
-91.5221
-90.5576
-89.5942
-88.6323
-87.672
-86.7137
-85.7575
-84.8036
-83.8523
-82.9036
-81.9578
-81.0151
-80.0754
-79.1391
-78.2061
-77.2767
-76.3509
-75.4288
-74.5104
-73.596
-72.6855
-71.779
-70.8767
-69.9784
-69.0844
-68.1946
-67.3091
-66.428
-65.5513
-64.6789
-63.811
-62.9477
-62.0888
-61.2344
-60.3847
-59.5395
-58.6989
-57.8629
-57.0316
-56.205
-55.383
-54.5656
-53.753
-52.945
-52.1418
-51.3433
-50.5494
-49.7603
-48.9759
-48.1963
-47.4213
-46.6511
-45.8856
-45.1248
-44.3688
-43.6174
-42.8708
-42.1288
-41.3916
-40.6591
-39.9312
-39.2081
-38.4896
-37.7758
-37.0666
-36.3621
-35.6623
-34.9671
-34.2765
-33.5905
-32.9091
-32.2324
-31.5602
-30.8926
-30.2296
-29.5711
-28.9172
-28.2678
-27.6229
-26.9826
-26.3467
-25.7153
-25.0884
-24.466
-23.848
-23.2344
-22.6253
-22.0205
-21.4202
-20.8242
-20.2326
-19.6454
-19.0625
-18.484
-17.9097
-17.3398
-16.7742
-16.2128
-15.6557
-15.1028
-14.5541
-14.0097
-13.4694
-12.9333
-12.4014
-11.8736
-11.35
-10.8304
-10.3149
-9.80345
-9.29602
-8.79257
-8.29309
-7.79752
-7.30585
-6.81804
-6.33403
-5.85381
-5.37733
-4.90457
-4.43551
-3.97016
-3.50857
-3.05084
-2.59714
-2.14777
-1.70318
-1.26408
-0.831495
-0.406937
0.00746746
0.408747
0.792831
1.15425
1.48584
1.77845
2.02082
2.19971
2.30056
2.30888
2.21255
2.00514
1.68974
1.28257
0.814905
0.331503
-0.112604
-0.460681
-0.665902
-0.702274
-0.570951
-0.299694
0.0638175
0.461886
0.83641
1.13613
1.31952
1.35635
1.22994
0.9382
0.494868
-0.0691467
-0.704844
-1.346
-1.91343
-2.32362
-2.50192
-2.39445
-1.98253
-1.29565
-0.411632
0.555258
1.47529
2.22665
2.71437
2.88153
2.71092
2.22132
1.46899
0.541854
-0.448504
-1.37759
-2.12209
-2.57666
-2.6717
-2.38577
-1.75349
-0.868198
0.132411
1.09139
1.86176
2.33201
2.44275
2.19141
1.62812
0.850082
-0.013995
-0.823709
-1.44905
-1.7917
-1.80241
-1.48874
-0.915438
-0.194309
0.538121
1.14832
1.53197
1.63259
1.44908
1.03226
0.474847
-0.107693
-0.600151
-0.910106
-0.985698
-0.824711
-0.473272
-0.0156134
0.44576
0.813611
1.01726
1.02671
0.856368
0.559543
0.214648
-0.0939899
-0.29585
-0.349902
-0.252608
-0.0365628
0.239136
0.505209
0.700334
0.786216
0.755768
0.632599
0.462971
0.30205
0.198601
0.182327
0.257218
0.402472
0.580206
0.747739
0.870519
0.931806
0.936406
0.907772
0.879716
0.885474
0.947671
1.07223
1.24795
1.45194
1.65988
1.86003
2.07055
2.36144
2.88352
3.90623
5.86283
9.39503
15.3807
24.9203
39.255
59.5935
86.8462
121.294
162.266
207.924
255.266
300.423
339.198
367.749
383.218
384.149
370.61
344.05
306.966
262.501
214.056
164.972
118.284
76.5409
41.6533
14.7666
-3.81822
-14.6383
-18.9432
-18.4488
-15.019
-10.3546
-5.76475
-2.06367
0.410139
1.68738
2.02387
1.76191
1.22512
0.657307
0.202424
-0.0854441
-0.215845
-0.231885
-0.184927
-0.1182
-0.0596166
-0.0216688
-0.0053382
-0.00522627
-0.0139984
-0.0252691
-0.0348714
-0.0409256
-0.0432594
-0.0426511
-0.0401898
-0.0368682
-0.0334022
-0.0302081
-0.027463
-0.0251883
-0.0233219
-0.0217699
-0.020437
-0.0192416
-0.0181223
-0.0170405
-0.0159787
-0.0149382
-0.0139334
-0.0129863
-0.0121202
-0.0113551
-0.0107051
-0.0101795
-0.00978584
-0.00953271
-0.00943079
-0.00949031
-0.00971497
-0.0100948
-0.0106011
-0.0111859
-0.0117886
-0.0123467
-0.0128091
-0.0131457
-0.0133525
-0.0134495
-0.0134745
-0.0134738
-0.0134935
-0.0135739
-0.0137442
-0.0140202
-0.0144014
-0.0148686
-0.0153839
-0.0158977
-0.0163558
-0.0167035
-0.016904
-0.0169594
-0.0168851
-0.0166966
-0.0164979
-0.0164233
-0.0163676
-0.0162808
-0.0166789
-0.0173981
-0.0169976
-0.0167981
-0.0199094
-0.0206071
-0.0143773
-0.0204071
-0.0363855
-0.0066544
0.0269093
-0.0599236
-0.0573322
0.236315
0.0813419
-0.569112
0.436428
1.72399
-1.77196
-2.48254
8.71279
3.82662
-23.0155
12.1634
66.9795
-67.678
-121.38
324.568
193.742
-1034.95
430.988
4034.77
2937.81
885.028
169.487
27.0479
4.43788
0.734333
0.121533
0.020109
0.00332698
0.000550426
9.10636e-05
1.50657e-05
2.49249e-06
4.12359e-07
6.82274e-08
1.1286e-08
1.86986e-09
3.09126e-10
6.47402e-11
6.24387e-12
4.82633e-12
9.27173e-14
-7.25741e-12
-3.91379e-14
3.13776e-12
3.51313e-13
1.44604e-14
-4.75288e-12
1.04343e-12
-6.03635e-12
1.09305e-12
-8.08578e-12
6.53689e-13
-3.36003e-13
-3.16373e-14
1.21893e-14
2.39949e-13
6.3142e-12
-2.0738e-12
-5.35677e-12
2.88688e-12
3.0239e-12
2.07999e-12
-2.0837e-12
1.29584e-12
-2.86111e-12
4.87902e-14
-1.33681e-13
6.47094e-13
7.24528e-12
-1.88862e-12
-4.95765e-13
3.43177e-12
-3.97697e-12
-9.00314e-13
-8.94539e-13
-1.74466e-13
-3.3141e-12
-7.15125e-12
-4.07391e-12
-6.38853e-12
-2.30728e-12
-3.31351e-12
-2.28138e-12
-2.60711e-12
-1.94606e-12
2.57565e-12
-4.59856e-14
1.3292e-12
5.44963e-13
4.63387e-12
-2.54096e-13
-1.34529e-13
4.16458e-12
1.3255e-13
3.59743e-13
8.27858e-13
7.26958e-12
-6.60556e-14
-2.42035e-13
-1.25802e-13
-3.67956e-12
2.08624e-12
-2.1955e-12
4.2488e-13
9.69727e-14
-4.48882e-12
8.58728e-14
2.00462e-12
1.65508e-12
-2.6018e-12
-3.26523e-12
1.04088e-12
2.86234e-12
1.04074e-12
1.29672e-12
-1.38466e-12
5.2705e-12
-3.30779e-15
-2.83634e-13
-8.94429e-13
7.59535e-12
7.41423e-12
1.62772e-13
5.20734e-13
-6.77982e-13
9.84633e-13
-7.4671e-13
-8.38539e-13
1.01137e-12
9.40602e-13
2.82825e-13
-2.71669e-12
-2.89079e-12
-3.00283e-12
-5.56618e-12
-3.34518e-12
-2.06826e-14
7.95445e-14
-1.0402e-12
1.00672e-12
7.87131e-12
-1.83732e-14
-9.75625e-13
-5.23421e-13
-8.96968e-14
-3.88309e-12
-2.63655e-13
-5.66475e-13
6.53682e-13
2.60651e-12
-1.63011e-12
-3.70219e-12
1.03061e-12
5.03353e-12
-2.11419e-13
6.61575e-13
4.72134e-12
-6.69392e-13
2.76046e-12
-1.1852e-12
-1.20542e-12
2.14003e-13
3.51744e-12
-1.99345e-13
6.02137e-12
4.48962e-13
2.60277e-12
3.15494e-12
-3.51459e-12
-5.05539e-13
2.7374e-12
1.06726e-12
-5.23954e-13
3.77757e-12
7.04608e-12
3.41334e-13
7.93634e-12
1.89178e-12
-3.32009e-12
5.17867e-13
-4.41635e-13
-1.93158e-12
5.86498e-13
-4.55547e-12
-4.98055e-12
-1.13841e-12
3.95577e-12
-1.59858e-13
-5.32719e-13
2.01672e-12
5.01309e-12
4.4307e-12
-2.08967e-12
-1.11825e-12
-1.02893e-12
-3.01376e-13
2.08765e-14
-6.27656e-12
-2.14255e-13
-3.48094e-12
6.666e-12
2.99536e-12
4.15592e-12
-4.1001e-13
-2.97602e-12
1.78891e-12
7.30438e-12
4.15475e-12
2.01592e-12
-2.25039e-12
1.98714e-12
-1.92914e-12
-2.7648e-13
4.07217e-15
-4.54592e-12
-7.36169e-13
2.14052e-13
1.97848e-13
-8.52465e-14
3.89626e-12
5.41757e-12
-7.19647e-13
3.24409e-12
8.24129e-12
7.18807e-12
2.0151e-12
-7.84878e-13
-4.72848e-12
2.58764e-12
5.39295e-12
1.63246e-12
7.0375e-13
5.60363e-12
6.81624e-13
4.60269e-13
2.66886e-12
-1.80377e-12
-7.09157e-12
-7.18397e-12
-4.07828e-12
-9.18203e-12
2.05258e-13
-5.23089e-12
-3.99412e-12
-7.95261e-12
-6.16547e-12
)
;

boundaryField
{
    sides
    {
        type            calculated;
        value           nonuniform List<scalar> 2(-6.16547e-12 2.0813e-11);
    }
    empty
    {
        type            empty;
    }
}


// ************************************************************************* //
