/*--------------------------------*- C++ -*----------------------------------*\
  =========                 |
  \\      /  F ield         | OpenFOAM: The Open Source CFD Toolbox
   \\    /   O peration     | Website:  https://openfoam.org
    \\  /    A nd           | Version:  13
     \\/     M anipulation  |
\*---------------------------------------------------------------------------*/
FoamFile
{
    format      ascii;
    class       volScalarField;
    location    "0.005";
    object      CrankNicolson:ddt0(p);
}
// * * * * * * * * * * * * * * * * * * * * * * * * * * * * * * * * * * * * * //

dimensions      [1 -1 -3 0 0 0 0];

internalField   nonuniform List<scalar> 
1000
(
1.63669e-06
6.89654e-06
-5.7395e-06
-4.34602e-07
2.25523e-06
-2.69752e-06
-6.34228e-06
-1.07424e-06
-4.88423e-06
-1.09528e-06
1.38493e-06
-2.5208e-06
3.77055e-06
6.20334e-07
-8.98455e-07
-2.33385e-06
8.45019e-07
-1.94993e-07
3.18938e-06
-2.45008e-07
-4.84754e-07
4.93925e-06
1.57244e-06
-8.31173e-06
3.16184e-06
1.88863e-06
1.3932e-07
2.14844e-06
-1.23032e-06
1.93748e-06
3.63382e-07
-4.02344e-06
-4.1337e-07
1.41051e-07
-1.03819e-06
-6.07895e-07
-2.1374e-06
2.69252e-07
-1.29151e-06
-6.44393e-06
1.58379e-06
2.80804e-07
4.50986e-06
5.00754e-07
6.24049e-07
-1.91605e-06
8.88066e-07
-3.44098e-06
-1.42873e-07
-1.67081e-09
1.90721e-06
-1.47031e-06
2.68329e-06
-1.23525e-06
-9.66418e-08
-1.89128e-06
-5.4813e-06
-6.08147e-06
-6.63325e-06
-4.57799e-07
-6.38674e-06
5.45009e-06
5.64256e-07
5.6144e-07
-3.15161e-06
-4.19767e-06
2.43851e-06
-3.68712e-06
1.75427e-06
-3.36291e-06
-3.00753e-07
1.97375e-07
-2.74438e-07
-2.18577e-06
1.08178e-07
3.90425e-07
3.39582e-06
-2.06357e-06
-1.51224e-06
2.00356e-06
-4.17807e-06
8.12547e-07
2.21876e-07
-5.30167e-07
-2.15407e-06
3.10991e-09
5.45965e-07
1.76814e-07
2.0923e-06
-4.95934e-06
-2.36952e-06
1.07967e-06
-5.32907e-10
1.83187e-09
1.79856e-08
5.21973e-06
5.88633e-08
-1.95258e-08
4.11564e-06
2.26819e-06
-5.45677e-07
5.9537e-06
-1.72236e-06
2.17758e-06
-1.73241e-07
-7.64662e-07
-4.37586e-07
-2.9916e-06
-2.56551e-06
2.27216e-06
1.09776e-06
1.6807e-06
1.01495e-07
5.46763e-07
2.42546e-06
-2.24628e-06
1.08999e-06
-7.47176e-07
5.2416e-07
-4.90921e-06
1.36881e-05
4.96993e-07
5.2201e-06
-1.48257e-06
2.13904e-06
-2.57074e-06
-3.78649e-06
3.96502e-06
2.831e-06
7.37525e-06
2.43468e-06
-1.52171e-06
1.50564e-07
1.68584e-06
1.14415e-06
-2.04636e-06
-2.95212e-06
-6.27184e-06
4.98793e-07
-3.85505e-06
-9.83702e-07
6.42736e-06
-6.28848e-06
5.42918e-06
2.31898e-07
2.32635e-07
-7.15387e-07
4.75504e-07
-4.9685e-08
3.0238e-07
-2.49276e-07
-1.66464e-06
5.85827e-06
-5.73087e-06
-1.603e-06
-5.25679e-06
1.76863e-07
-2.1656e-06
8.01424e-06
1.61516e-07
-1.19087e-06
-1.27169e-07
-5.54735e-07
2.31484e-06
6.74476e-07
-2.80947e-07
6.84443e-06
-2.72525e-06
-2.43915e-06
-7.02579e-06
-5.8456e-08
-2.37644e-07
3.36627e-07
3.61879e-06
2.34994e-06
4.34533e-06
3.40261e-06
3.99706e-10
-4.96137e-07
-6.86418e-08
-5.52158e-07
-3.78644e-06
-3.8597e-07
-7.75956e-06
-2.52518e-06
-5.76177e-06
7.09189e-07
1.66625e-06
-1.85516e-06
-2.59474e-06
-5.84432e-08
4.95155e-07
5.77828e-06
-7.52479e-08
-4.80896e-06
4.32985e-06
-2.45146e-08
-2.41274e-06
5.63268e-07
-1.42142e-06
-5.35176e-07
1.81295e-06
-1.5006e-06
8.86758e-07
-6.78991e-06
7.56755e-08
-2.72767e-06
3.45317e-06
-5.18406e-06
-6.15947e-08
4.30197e-06
-1.7375e-06
-5.30318e-07
1.43356e-06
-1.99356e-07
1.00446e-06
-1.61353e-06
-4.36792e-06
-4.36556e-06
3.3024e-06
-3.72285e-06
-3.39236e-06
1.74025e-06
1.67444e-06
-2.1859e-06
9.09691e-07
-3.75034e-06
-8.17845e-06
1.99406e-06
3.2171e-06
-2.83573e-07
-9.70665e-06
-4.48218e-06
-9.53605e-07
-1.74572e-06
4.47382e-06
-1.5402e-07
1.67174e-06
2.6249e-07
-4.01905e-07
-5.04384e-06
-1.08367e-06
1.07628e-06
-2.83724e-07
2.10511e-06
7.8774e-07
1.20407e-06
-2.4903e-06
-3.00825e-06
4.3247e-06
7.63114e-07
-6.74682e-07
5.96319e-07
-8.72049e-06
-1.64466e-05
-3.10113e-05
-6.70195e-05
-0.000145647
-0.000290584
-0.000596022
-0.00123597
-0.00254419
-0.00516727
-0.0104695
-0.0209983
-0.0417937
-0.0825233
-0.161656
-0.314077
-0.605169
-1.15625
-2.19023
-4.11279
-7.6546
-14.1181
-25.8006
-46.7093
-83.7564
-148.727
-261.476
-455.038
-783.685
-1335.39
-2250.8
-3751.53
-6181.57
-10066.4
-16195.3
-25733.1
-40366.1
-62486.6
-95414.1
-143645
-213111
-311405
-447932
-633889
-882008
-1.20596e+06
-1.61938e+06
-2.13446e+06
-2.76024e+06
-3.50082e+06
-4.35365e+06
-5.30849e+06
-6.34714e+06
-7.44433e+06
-8.56965e+06
-9.6903e+06
-1.07741e+07
-1.17924e+07
-1.27222e+07
-1.35497e+07
-1.42706e+07
-1.48874e+07
-1.54066e+07
-1.58368e+07
-1.61878e+07
-1.64694e+07
-1.6691e+07
-1.68611e+07
-1.69871e+07
-1.70756e+07
-1.71324e+07
-1.71622e+07
-1.7169e+07
-1.71563e+07
-1.7127e+07
-1.70835e+07
-1.70278e+07
-1.69616e+07
-1.68863e+07
-1.68031e+07
-1.6713e+07
-1.66167e+07
-1.65152e+07
-1.64088e+07
-1.62982e+07
-1.61837e+07
-1.60658e+07
-1.59448e+07
-1.58209e+07
-1.56944e+07
-1.55656e+07
-1.54346e+07
-1.53016e+07
-1.51669e+07
-1.50305e+07
-1.48926e+07
-1.47534e+07
-1.46129e+07
-1.44714e+07
-1.43289e+07
-1.41856e+07
-1.40415e+07
-1.38968e+07
-1.37516e+07
-1.3606e+07
-1.346e+07
-1.33138e+07
-1.31675e+07
-1.30211e+07
-1.28747e+07
-1.27283e+07
-1.25821e+07
-1.24362e+07
-1.22905e+07
-1.21451e+07
-1.20001e+07
-1.18556e+07
-1.17115e+07
-1.1568e+07
-1.1425e+07
-1.12826e+07
-1.11409e+07
-1.09998e+07
-1.08594e+07
-1.07197e+07
-1.05808e+07
-1.04427e+07
-1.03053e+07
-1.01687e+07
-1.0033e+07
-9.89807e+06
-9.76401e+06
-9.63081e+06
-9.49848e+06
-9.36704e+06
-9.2365e+06
-9.10685e+06
-8.97811e+06
-8.85028e+06
-8.72338e+06
-8.5974e+06
-8.47234e+06
-8.34822e+06
-8.22504e+06
-8.10279e+06
-7.98149e+06
-7.86112e+06
-7.7417e+06
-7.62322e+06
-7.50569e+06
-7.38909e+06
-7.27345e+06
-7.15874e+06
-7.04498e+06
-6.93215e+06
-6.82027e+06
-6.70932e+06
-6.59931e+06
-6.49023e+06
-6.38209e+06
-6.27487e+06
-6.16858e+06
-6.06321e+06
-5.95876e+06
-5.85523e+06
-5.75262e+06
-5.65091e+06
-5.55012e+06
-5.45023e+06
-5.35123e+06
-5.25314e+06
-5.15594e+06
-5.05962e+06
-4.9642e+06
-4.86965e+06
-4.77598e+06
-4.68319e+06
-4.59126e+06
-4.5002e+06
-4.41e+06
-4.32066e+06
-4.23216e+06
-4.14452e+06
-4.05771e+06
-3.97175e+06
-3.88662e+06
-3.80232e+06
-3.71885e+06
-3.63619e+06
-3.55435e+06
-3.47332e+06
-3.3931e+06
-3.31368e+06
-3.23506e+06
-3.15723e+06
-3.08019e+06
-3.00393e+06
-2.92845e+06
-2.85375e+06
-2.77981e+06
-2.70664e+06
-2.63423e+06
-2.56257e+06
-2.49167e+06
-2.42151e+06
-2.35209e+06
-2.28341e+06
-2.21546e+06
-2.14823e+06
-2.08173e+06
-2.01595e+06
-1.95088e+06
-1.88652e+06
-1.82286e+06
-1.75991e+06
-1.69764e+06
-1.63607e+06
-1.57518e+06
-1.51497e+06
-1.45544e+06
-1.39657e+06
-1.33838e+06
-1.28084e+06
-1.22396e+06
-1.16773e+06
-1.11214e+06
-1.05719e+06
-1.00288e+06
-949189
-896123
-843673
-791831
-740591
-689945
-639886
-590407
-541502
-493162
-445383
-398161
-351496
-305392
-259860
-214921
-170613
-126994
-84156.4
-42232.5
-1415.37
38022.7
75704.9
111121
143595
172259
196035
213643
223663
224659
215408
195222
164339
124294
78128.6
30275.9
-13773.8
-48339.8
-68727.5
-72335.2
-59290.5
-32390.6
3580.85
42857.8
79667.7
108945
126629
129815
116940
87859.2
43948.3
-11761
-74483.1
-137741
-193755
-234283
-251888
-241182
-200315
-132231
-44693.2
50921.3
141727
215662
263385
279340
261918
213114
138564
46957.8
-50734.6
-142304
-215653
-260437
-269786
-241575
-179265
-92095.9
6329.74
100532
176041
221918
232363
207178
151385
74587
-10558.3
-90277.1
-151832
-185608
-186784
-156139
-100078
-29602.7
41882.4
101290
138418
147763
129251
87912.2
32856
-24607
-73213.4
-103947
-111764
-96482
-62650.5
-18527.9
25863.4
61034.4
80105.3
80169.7
62661.9
32806.4
-1740.69
-32765.2
-53415.3
-59722.3
-51374.1
-31577.9
-6107.34
18288.6
35648.5
42258.5
37438.9
23490.8
4903.02
-12986.8
-25478.5
-29733.2
-25412.3
-14582.1
-958.639
11283.4
18758.4
19797.9
14800.8
5941.14
-3643.38
-10904.9
-13834.8
-12012.2
-6598.07
186.17
5897.92
8724.22
8049.45
4559.41
-122.607
-4109.89
-5969.73
-5215.65
-2409.09
1146.71
3987.68
5112.34
4394.73
2594.31
917.594
310.019
870.466
1800.04
1997.23
884.455
-1173.89
-3229.01
-4542.34
-5074.99
-5280.15
-5515.08
-5693.98
-5446.54
-4515.57
-2975.64
-1156.75
561.882
1899.25
2698.34
2909.09
2587.74
1894
1049.42
263.523
-328.45
-683.389
-828.163
-822.692
-731.118
-607.582
-491.673
-407.501
-364.223
-358.511
-379.26
-413.181
-449.208
-480.471
-504.079
-519.887
-529.312
-534.625
-538.568
-543.967
-553.201
-567.627
-587.164
-610.259
-634.293
-656.36
-674.165
-686.73
-694.661
-699.856
-704.797
-711.689
-721.79
-735.155
-750.862
-767.566
-784.123
-800.005
-815.348
-830.663
-846.394
-862.595
-878.928
-895.021
-911.007
-927.937
-947.811
-973.097
-1005.9
-1047.12
-1095.96
-1150.05
-1206.18
-1261.31
-1313.43
-1361.98
-1407.67
-1451.7
-1495.01
-1537.76
-1579.37
-1619.11
-1656.86
-1693.73
-1731.88
-1773.73
-1821.38
-1875.48
-1933.65
-1991.82
-2048.07
-2100.31
-2144.56
-2189.19
-2250.44
-2308.67
-2342.66
-2419.87
-2527.88
-2441.65
-2324.92
-2720.42
-2864.83
-1860.45
-2536.28
-5245.38
-1252.71
4939
-7640.96
-10918.4
34542.2
20989.2
-87049.4
44140.3
282529
-215178
-464063
1.24573e+06
907175
-3.47312e+06
957098
1.0805e+07
-8.01762e+06
-2.17425e+07
4.55175e+07
4.22669e+07
-1.48381e+08
3.73406e+07
6.21546e+08
4.13941e+08
1.02529e+08
1.83764e+07
2.99926e+06
493555
81583.5
13495.8
2232.74
369.389
61.1126
10.1106
1.67271
0.276735
0.0457835
0.00757492
0.0012535
0.000208173
3.37892e-05
7.39781e-06
9.78058e-07
2.64391e-07
7.40379e-08
-5.45542e-07
-8.79802e-08
1.02899e-06
-1.00178e-07
-6.92174e-08
-4.43591e-07
-3.20427e-08
-4.76735e-07
2.99227e-07
-9.32553e-07
8.64753e-07
4.63708e-08
-3.77249e-07
6.7342e-10
-2.8028e-07
5.51566e-07
-8.86551e-07
-7.30082e-07
1.62785e-07
8.30329e-08
6.7798e-08
7.23059e-07
2.03515e-07
4.76973e-07
-1.10311e-07
-3.79633e-07
2.00174e-07
4.21e-07
-6.06313e-07
7.92655e-07
1.17054e-07
-1.12168e-07
-6.11429e-07
4.93252e-08
-4.69707e-07
-2.2635e-07
-6.99081e-07
-1.85323e-07
-6.94055e-07
-6.48022e-08
-1.38305e-07
-7.01605e-07
-7.88938e-07
-5.11531e-07
1.0763e-07
-8.79909e-08
-5.08624e-08
-7.40639e-08
2.35695e-07
-8.78811e-08
1.66003e-08
1.5028e-07
1.78819e-08
2.59367e-08
3.28366e-07
6.82804e-07
-8.53608e-08
-1.94194e-07
2.04934e-07
-5.74014e-07
2.8232e-08
-4.77484e-07
-8.52599e-09
1.88993e-08
2.5572e-07
1.44241e-07
-4.21366e-08
5.70843e-07
-3.00386e-07
-4.96391e-07
-4.09454e-07
5.08251e-07
6.81979e-08
-1.34806e-07
-3.70917e-08
7.63441e-07
-3.4076e-07
-7.11773e-08
7.2477e-08
7.72583e-07
6.38747e-07
-1.69076e-08
8.26444e-07
-2.54328e-07
1.10603e-07
-2.31383e-08
9.93651e-08
-2.61887e-07
-7.33392e-07
-3.85695e-08
2.90818e-07
-3.31739e-07
-4.83068e-07
-1.31789e-07
-6.45326e-07
-8.22187e-07
1.19943e-07
-1.91896e-07
7.99936e-08
7.6743e-07
1.6466e-09
-1.10837e-07
1.72181e-07
1.6518e-07
-4.13251e-07
5.79118e-07
-2.82838e-07
5.09303e-08
2.05396e-07
-4.08673e-07
-2.46874e-08
-5.55023e-07
5.52112e-07
-9.23993e-07
-3.36814e-08
3.8749e-07
1.29052e-08
3.78898e-07
-1.80192e-07
-1.50285e-07
-5.73673e-09
3.26512e-07
5.23236e-08
2.48731e-07
-7.64277e-08
2.11982e-07
5.88456e-07
-4.69157e-07
1.88436e-07
3.56382e-07
3.38358e-07
-6.68666e-08
1.3649e-07
1.11842e-06
6.92285e-08
8.90286e-07
5.2292e-07
-1.08214e-07
2.55473e-07
-1.53262e-07
-3.54473e-07
-3.80001e-08
-3.94176e-07
-3.29403e-07
-5.11583e-08
2.06262e-07
-1.16579e-07
-3.50535e-07
1.07631e-07
6.20636e-07
2.11726e-07
-5.6356e-07
1.84209e-08
-3.05548e-07
2.2913e-07
1.18242e-08
-3.77573e-07
-2.48643e-07
7.14814e-08
5.63285e-07
1.2372e-07
1.39095e-07
-1.11016e-07
-8.53872e-08
3.3662e-07
9.07945e-07
4.4392e-07
3.6818e-07
-6.37753e-07
-2.85767e-07
-2.8084e-07
-3.08014e-07
7.03979e-08
-7.49089e-07
3.43771e-08
-4.19109e-08
4.09652e-08
-3.11396e-09
7.65707e-07
6.11005e-07
7.18646e-08
3.93485e-07
5.64091e-07
1.1728e-06
9.51611e-09
-5.08836e-08
-2.09269e-07
1.64295e-07
1.20685e-06
1.87772e-07
1.36799e-07
9.01988e-07
-1.25146e-07
3.12343e-08
-1.62151e-07
-4.76679e-07
-3.66412e-07
-2.33655e-07
-5.07585e-07
-9.39705e-07
7.70988e-08
-2.98138e-08
-1.37425e-07
-9.35788e-07
-6.72391e-07
)
;

boundaryField
{
    sides
    {
        type            calculated;
        value           nonuniform List<scalar> 2(-6.72391e-07 1.63669e-06);
    }
    empty
    {
        type            empty;
    }
}


// ************************************************************************* //
