/*--------------------------------*- C++ -*----------------------------------*\
  =========                 |
  \\      /  F ield         | OpenFOAM: The Open Source CFD Toolbox
   \\    /   O peration     | Website:  https://openfoam.org
    \\  /    A nd           | Version:  13
     \\/     M anipulation  |
\*---------------------------------------------------------------------------*/
FoamFile
{
    format      ascii;
    class       volScalarField;
    location    "0.005";
    object      p_0;
}
// * * * * * * * * * * * * * * * * * * * * * * * * * * * * * * * * * * * * * //

dimensions      [1 -1 -2 0 0 0 0];

internalField   nonuniform List<scalar> 
1000
(
100000
100000
100000
100000
100000
100000
100000
100000
100000
100000
100000
100000
100000
100000
100000
100000
100000
100000
100000
100000
100000
100000
100000
100000
100000
100000
100000
100000
100000
100000
100000
100000
100000
100000
100000
100000
100000
100000
100000
100000
100000
100000
100000
100000
100000
100000
100000
100000
100000
100000
100000
100000
100000
100000
100000
100000
100000
100000
100000
100000
100000
100000
100000
100000
100000
100000
100000
100000
100000
100000
100000
100000
100000
100000
100000
100000
100000
100000
100000
100000
100000
100000
100000
100000
100000
100000
100000
100000
100000
100000
100000
100000
100000
100000
100000
100000
100000
100000
100000
100000
100000
100000
100000
100000
100000
100000
100000
100000
100000
100000
100000
100000
100000
100000
100000
100000
100000
100000
100000
100000
100000
100000
100000
100000
100000
100000
100000
100000
100000
100000
100000
100000
100000
100000
100000
100000
100000
100000
100000
100000
100000
100000
100000
100000
100000
100000
100000
100000
100000
100000
100000
100000
100000
100000
100000
100000
100000
100000
100000
100000
100000
100000
100000
100000
100000
100000
100000
100000
100000
100000
100000
100000
100000
100000
100000
100000
100000
100000
100000
100000
100000
100000
100000
100000
100000
100000
100000
100000
100000
100000
100000
100000
100000
100000
100000
100000
100000
100000
100000
100000
100000
100000
100000
100000
100000
100000
100000
100000
100000
100000
100000
100000
100000
100000
100000
100000
100000
100000
100000
100000
100000
100000
100000
100000
100000
100000
100000
100000
100000
100000
100000
100000
100000
100000
100000
100000
100000
100000
100000
100000
100000
100000
100000
100000
100000
100000
100000
100000
100000
100000
100000
100000
100000
100000
100000
100000
100000
100000
100000
100000
100000
100000
100000
100000
100000
100000
100000
100000
100000
100000
100000
100000
100000
100000
100000
100000
100000
100000
100000
100000
100000
100000
99999.9
99999.9
99999.8
99999.7
99999.5
99999.1
99998.6
99997.7
99996.4
99994.4
99991.2
99986.6
99979.7
99969.8
99955.6
99935.6
99908.1
99870.8
99821.1
99756.1
99672.9
99568.3
99439.4
99283.5
99098.6
98883.5
98637.6
98361.3
98055.8
97723
97365.2
96985.1
96585.3
96168.4
95736.8
95292.6
94837.6
94373.6
93902
93424
92940.7
92453
91961.7
91467.3
90970.5
90471.8
89971.5
89470
88967.6
88464.6
87961.3
87457.8
86954.3
86451
85948
85445.5
84943.6
84442.4
83942
83442.5
82944
82446.6
81950.4
81455.4
80961.7
80469.4
79978.5
79489.1
79001.3
78515
78030.4
77547.6
77066.4
76587.1
76109.6
75633.9
75160.2
74688.3
74218.5
73750.6
73284.7
72820.8
72359
71899.3
71441.6
70986
70532.6
70081.3
69632.1
69185.1
68740.2
68297.5
67856.9
67418.6
66982.4
66548.4
66116.6
65686.9
65259.5
64834.3
64411.2
63990.4
63571.7
63155.2
62740.9
62328.8
61918.9
61511.2
61105.6
60702.2
60301
59901.9
59505
59110.3
58717.7
58327.3
57939
57552.9
57168.8
56786.9
56407.2
56029.5
55653.9
55280.5
54909.1
54539.9
54172.7
53807.6
53444.5
53083.5
52724.6
52367.8
52012.9
51660.1
51309.4
50960.6
50613.9
50269.2
49926.5
49585.7
49247
48910.2
48575.4
48242.6
47911.7
47582.8
47255.9
46930.8
46607.7
46286.6
45967.3
45650
45334.5
45021
44709.3
44399.5
44091.7
43785.6
43481.5
43179.2
42878.8
42580.2
42283.4
41988.5
41695.4
41404.2
41114.7
40827.1
40541.3
40257.3
39975.2
39694.8
39416.2
39139.4
38864.5
38591.3
38319.9
38050.3
37782.5
37516.4
37252.2
36989.8
36729.2
36470.4
36213.4
35958.2
35704.9
35453.4
35203.7
34956
34710.1
34466.2
34224.1
33984.1
33746.1
33510.1
33276.2
33044.5
32814.9
32587.7
32362.8
32140.4
31920.6
31703.5
31489.4
31278.3
31070.5
30866.3
30666
30469.9
30278.6
30092.5
29912.4
29738.8
29572.8
29415.5
29268.1
29132.2
29009.6
28902.5
28813.4
28745.2
28701.4
28685.5
28701.6
28753.7
28845.6
28980.6
29160.4
29384.5
29649.5
29947.8
30267.1
30591
30899.1
31169.2
31380.1
31514.3
31561.5
31520
31397.1
31207.1
30969.6
30706.3
30438.9
30187.1
29968.2
29795.9
29680.2
29627.2
29638.8
29712.5
29841.2
30013.2
30212.5
30420.1
30615.3
30778.5
30893
30948.6
30942
30878.2
30768.6
30629.2
30478.2
30333.7
30211.3
30123.6
30078.1
30077.4
30118.7
30194.4
30292.8
30399.9
30501.1
30583
30635.5
30653.4
30636.8
30591.2
30525.8
30451.9
30381.3
30324.1
30287.8
30276.1
30288.7
30321.4
30367.4
30418
30464.4
30499.2
30517.5
30517.7
30501.6
30473.6
30440.1
30407.6
30382
30367.3
30365.1
30374.6
30392.7
30414.9
30436.5
30453.1
30462
30462.2
30454.6
30441.7
30426.9
30413.6
30404.5
30401.1
30403.6
30410.5
30420
30429.3
30436.4
30439.9
30439.4
30435.4
30429.6
30423.5
30418.7
30416.3
30416.6
30419.1
30422.9
30426.7
30429.6
30430.9
30430.4
30428.5
30426.1
30423.8
30422.3
30422
30422.8
30424.2
30425.7
30426.8
30427.3
30427.1
30426.3
30425.4
30424.7
30424.4
30424.5
30425
30425.5
30425.9
30426
30425.9
30425.6
30425.2
30425
30425
30425
30425.1
30425.1
30425
30424.9
30424.9
30424.9
30425.1
30425.3
30425.4
30425.6
30425.8
30426
30426.1
30426.3
30426.3
30426.3
30426.3
30426.2
30426.1
30426
30425.9
30425.9
30425.9
30425.9
30425.9
30425.9
30425.9
30426
30426
30426
30426
30426
30426
30426
30426
30426
30426
30426
30426
30426.1
30426.1
30426.1
30426.1
30426.1
30426.1
30426.1
30426.1
30426.1
30426.1
30426.1
30426.1
30426.1
30426.2
30426.2
30426.2
30426.2
30426.2
30426.2
30426.2
30426.2
30426.2
30426.3
30426.3
30426.3
30426.3
30426.3
30426.4
30426.4
30426.4
30426.4
30426.4
30426.5
30426.5
30426.5
30426.5
30426.5
30426.5
30426.5
30426.5
30426.6
30426.6
30426.6
30426.6
30426.7
30426.7
30426.7
30426.7
30426.8
30426.8
30426.8
30426.8
30426.8
30426.9
30426.9
30426.9
30427
30427
30427
30427
30427.1
30427.1
30427.2
30427.2
30427.2
30427.3
30427.4
30427.4
30427.4
30427.5
30427.5
30427.5
30427.4
30427.6
30427.5
30426.9
30427.4
30428.3
30425.3
30422.7
30430.1
30427.3
30401.5
30418.4
30465.7
30362.4
30266
30577.5
30536.7
29505.2
30098.9
32300.7
26798.7
16272.9
11338.3
10231.1
10037.8
10006.2
10001
10000.2
10000
10000
10000
10000
10000
10000
10000
10000
10000
10000
10000
10000
10000
10000
10000
10000
10000
10000
10000
10000
10000
10000
10000
10000
10000
10000
10000
10000
10000
10000
10000
10000
10000
10000
10000
10000
10000
10000
10000
10000
10000
10000
10000
10000
10000
10000
10000
10000
10000
10000
10000
10000
10000
10000
10000
10000
10000
10000
10000
10000
10000
10000
10000
10000
10000
10000
10000
10000
10000
10000
10000
10000
10000
10000
10000
10000
10000
10000
10000
10000
10000
10000
10000
10000
10000
10000
10000
10000
10000
10000
10000
10000
10000
10000
10000
10000
10000
10000
10000
10000
10000
10000
10000
10000
10000
10000
10000
10000
10000
10000
10000
10000
10000
10000
10000
10000
10000
10000
10000
10000
10000
10000
10000
10000
10000
10000
10000
10000
10000
10000
10000
10000
10000
10000
10000
10000
10000
10000
10000
10000
10000
10000
10000
10000
10000
10000
10000
10000
10000
10000
10000
10000
10000
10000
10000
10000
10000
10000
10000
10000
10000
10000
10000
10000
10000
10000
10000
10000
10000
10000
10000
10000
10000
10000
10000
10000
10000
10000
10000
10000
10000
10000
10000
10000
10000
10000
10000
10000
10000
10000
10000
10000
10000
10000
10000
10000
10000
10000
10000
10000
10000
10000
10000
10000
10000
10000
10000
10000
10000
10000
10000
10000
10000
10000
10000
10000
10000
10000
10000
10000
)
;

boundaryField
{
    sides
    {
        type            calculated;
        value           nonuniform List<scalar> 2(10000 100000);
    }
    empty
    {
        type            empty;
    }
}


// ************************************************************************* //
