/*--------------------------------*- C++ -*----------------------------------*\
  =========                 |
  \\      /  F ield         | OpenFOAM: The Open Source CFD Toolbox
   \\    /   O peration     | Website:  https://openfoam.org
    \\  /    A nd           | Version:  13
     \\/     M anipulation  |
\*---------------------------------------------------------------------------*/
FoamFile
{
    format      ascii;
    class       surfaceScalarField;
    location    "0.005";
    object      phi_0;
}
// * * * * * * * * * * * * * * * * * * * * * * * * * * * * * * * * * * * * * //

dimensions      [1 0 -1 0 0 0 0];

internalField   nonuniform List<scalar> 
999
(
-1.06264e-11
-1.1647e-11
-1.08854e-11
-1.03927e-11
-1.17038e-11
-1.13151e-11
-1.06439e-11
-1.11174e-11
-9.51402e-12
-8.18777e-12
-8.45293e-12
-7.97861e-12
-7.66369e-12
-7.12788e-12
-6.55408e-12
-6.47565e-12
-7.18149e-12
-6.79978e-12
-6.91287e-12
-7.52356e-12
-7.98317e-12
-7.9697e-12
-8.13882e-12
-7.20003e-12
-7.4573e-12
-7.09688e-12
-6.86392e-12
-7.8854e-12
-8.19941e-12
-8.09273e-12
-9.25616e-12
-8.41169e-12
-8.2204e-12
-8.13831e-12
-7.34301e-12
-7.5947e-12
-8.02198e-12
-7.4651e-12
-7.39884e-12
-6.8942e-12
-7.98641e-12
-8.02347e-12
-8.60977e-12
-8.79915e-12
-9.14528e-12
-9.386e-12
-1.0367e-11
-1.06886e-11
-1.08979e-11
-1.13268e-11
-1.17769e-11
-1.14024e-11
-1.06591e-11
-1.07129e-11
-9.86915e-12
-9.41197e-12
-8.64171e-12
-7.23935e-12
-6.51838e-12
-6.34231e-12
-5.76889e-12
-7.22698e-12
-7.55346e-12
-7.97426e-12
-7.16831e-12
-5.76667e-12
-6.0911e-12
-5.87328e-12
-6.98004e-12
-7.01521e-12
-6.8394e-12
-7.23428e-12
-7.4283e-12
-6.86746e-12
-6.99756e-12
-7.16647e-12
-7.15717e-12
-6.85347e-12
-8.31148e-12
-7.62275e-12
-8.15208e-12
-8.28432e-12
-8.21187e-12
-7.78731e-12
-7.51282e-12
-8.15443e-12
-7.98134e-12
-7.90454e-12
-9.01945e-12
-7.93281e-12
-6.63701e-12
-5.89498e-12
-5.64837e-12
-6.03634e-12
-5.9563e-12
-6.30627e-12
-5.91749e-12
-6.96327e-12
-7.62795e-12
-7.88492e-12
-8.01496e-12
-9.68629e-12
-1.05609e-11
-1.20365e-11
-1.16328e-11
-1.02739e-11
-1.03814e-11
-9.80912e-12
-9.01722e-12
-9.68076e-12
-9.77075e-12
-9.59589e-12
-9.56194e-12
-9.46254e-12
-1.03113e-11
-9.8793e-12
-9.49862e-12
-8.99879e-12
-8.95035e-12
-7.36317e-12
-9.08901e-12
-9.35612e-12
-1.00036e-11
-8.51463e-12
-8.40373e-12
-8.68573e-12
-8.11975e-12
-7.6298e-12
-7.0722e-12
-8.35007e-12
-7.82796e-12
-6.51933e-12
-6.56099e-12
-7.53609e-12
-6.70819e-12
-5.77879e-12
-5.24091e-12
-4.44326e-12
-4.08779e-12
-3.75946e-12
-4.36869e-12
-4.32928e-12
-3.83338e-12
-4.84079e-12
-4.75759e-12
-4.4574e-12
-4.06466e-12
-4.42544e-12
-4.05811e-12
-3.56561e-12
-3.61132e-12
-2.98099e-12
-2.77888e-12
-2.19155e-12
-1.15027e-12
-6.79553e-13
-1.12944e-12
-1.8084e-12
-2.87744e-12
-3.70393e-12
-3.49285e-12
-2.8742e-12
-3.40587e-12
-3.63862e-12
-2.88237e-12
-2.97847e-12
-3.96186e-12
-3.57824e-12
-2.46952e-12
-1.69264e-12
-1.63169e-12
-1.55599e-12
-1.76407e-12
-1.59576e-12
-1.85147e-12
-2.61257e-12
-3.09109e-12
-3.42795e-12
-4.34324e-12
-4.02148e-12
-3.55119e-12
-3.07105e-12
-3.9996e-12
-3.18495e-12
-3.01742e-12
-1.59093e-12
-9.91941e-13
-4.25575e-13
6.44131e-13
1.70537e-12
2.22609e-12
1.41678e-12
5.45439e-13
7.0252e-15
3.299e-13
-3.74309e-13
-1.94653e-13
5.72731e-13
1.42953e-13
3.70834e-13
9.78673e-13
1.55256e-12
2.57244e-12
2.48592e-12
3.29976e-12
3.21635e-12
3.82299e-12
3.11119e-12
3.56048e-12
3.06111e-12
2.18953e-12
2.63824e-12
2.45042e-12
1.77994e-12
4.33881e-13
-3.86063e-13
-3.35042e-13
3.25524e-13
8.36515e-13
1.95336e-12
2.52725e-12
3.05505e-12
3.03899e-12
3.28095e-12
3.14922e-12
3.44073e-12
4.36085e-12
5.73451e-12
3.74299e-12
3.26202e-12
4.09996e-12
5.10798e-12
5.36554e-12
6.54652e-12
6.13862e-12
4.59382e-12
4.80514e-12
4.19319e-12
4.43404e-12
4.44133e-12
4.34692e-12
4.21667e-12
3.12737e-12
3.68704e-12
4.20592e-12
4.52954e-12
5.39256e-12
5.55381e-12
6.07615e-12
5.56654e-12
5.10525e-12
5.5494e-12
5.01006e-12
6.99491e-12
1.02316e-11
1.88123e-11
3.70145e-11
7.69264e-11
1.58858e-10
3.29148e-10
6.81968e-10
1.40673e-09
2.88212e-09
5.86507e-09
1.18481e-08
2.37574e-08
4.72735e-08
9.33386e-08
1.82834e-07
3.55272e-07
6.84729e-07
1.30879e-06
2.48063e-06
4.66156e-06
8.684e-06
1.60348e-05
2.93423e-05
5.32042e-05
9.55752e-05
0.000170066
0.000299697
0.00052295
0.000903362
0.00154454
0.0026132
0.00437405
0.00724148
0.0118547
0.0191846
0.0306824
0.0484809
0.075658
0.116573
0.177274
0.265972
0.39356
0.574121
0.825369
1.16892
1.63029
2.23849
3.02515
4.0231
5.26453
6.77879
8.59015
10.7158
13.1643
15.935
19.0181
22.3957
26.0432
29.9321
34.0326
38.3154
42.7531
47.3206
51.9956
56.7585
61.5923
66.4823
71.4161
76.3831
81.374
86.3812
91.3982
96.4193
101.44
106.455
111.463
116.458
121.44
126.405
131.352
136.279
141.183
146.064
150.92
155.75
160.553
165.328
170.074
174.79
179.476
184.13
188.752
193.341
197.897
202.418
206.906
211.359
215.776
220.157
224.503
228.812
233.084
237.319
241.516
245.676
249.799
253.883
257.929
261.937
265.907
269.838
273.731
277.585
281.4
285.177
288.915
292.614
296.275
299.898
303.481
307.027
310.534
314.002
317.432
320.825
324.179
327.495
330.773
334.014
337.217
340.382
343.511
346.602
349.656
352.673
355.653
358.597
361.504
364.376
367.211
370.01
372.773
375.501
378.193
380.85
383.473
386.06
388.612
391.13
393.614
396.063
398.478
400.86
403.208
405.522
407.804
410.052
412.267
414.45
416.6
418.718
420.803
422.857
424.879
426.87
428.829
430.756
432.653
434.519
436.355
438.16
439.934
441.679
443.394
445.079
446.735
448.361
449.958
451.527
453.066
454.577
456.06
457.515
458.941
460.34
461.711
463.054
464.371
465.66
466.922
468.158
469.367
470.55
471.707
472.838
473.943
475.022
476.076
477.104
478.108
479.086
480.04
480.97
481.875
482.756
483.612
484.445
485.255
486.04
486.803
487.542
488.259
488.952
489.623
490.272
490.898
491.502
492.084
492.645
493.183
493.701
494.197
494.672
495.126
495.559
495.972
496.364
496.736
497.087
497.419
497.731
498.023
498.296
498.549
498.783
498.998
499.195
499.372
499.531
499.671
499.793
499.897
499.983
500.051
500.102
500.135
500.151
500.151
500.135
500.103
500.057
499.997
499.926
499.845
499.757
499.665
499.573
499.484
499.404
499.337
499.285
499.253
499.24
499.244
499.262
499.289
499.317
499.34
499.352
499.349
499.331
499.298
499.252
499.199
499.145
499.096
499.058
499.039
499.041
499.07
499.123
499.2
499.293
499.393
499.489
499.568
499.62
499.636
499.614
499.555
499.466
499.357
499.242
499.134
499.045
498.986
498.964
498.982
499.037
499.122
499.225
499.332
499.428
499.498
499.533
499.527
499.484
499.409
499.316
499.218
499.131
499.065
499.031
499.032
499.065
499.123
499.195
499.267
499.326
499.363
499.371
499.349
499.303
499.242
499.177
499.119
499.077
499.058
499.063
499.087
499.123
499.162
499.195
499.214
499.215
499.197
499.165
499.124
499.083
499.049
499.026
499.018
499.021
499.033
499.047
499.057
499.059
499.049
499.029
499.001
498.97
498.939
498.914
498.895
498.883
498.875
498.868
498.858
498.842
498.819
498.789
498.754
498.717
498.679
498.643
498.608
498.572
498.534
498.491
498.441
498.383
498.317
498.243
498.16
498.065
497.95
497.794
497.559
497.183
496.568
495.571
494.001
491.617
488.144
483.292
476.801
468.484
458.274
446.257
432.689
417.979
402.65
387.284
372.46
358.698
346.419
335.919
327.357
320.758
316.026
312.965
311.299
310.708
310.861
311.446
312.204
312.942
313.543
313.957
314.188
314.27
314.254
314.186
314.105
314.035
313.986
313.959
313.951
313.955
313.963
313.973
313.98
313.985
313.987
313.988
313.988
313.988
313.989
313.99
313.991
313.993
313.995
313.997
313.998
314
314.001
314.002
314.003
314.004
314.005
314.006
314.007
314.008
314.008
314.009
314.01
314.01
314.011
314.011
314.012
314.012
314.013
314.013
314.014
314.014
314.014
314.015
314.015
314.015
314.016
314.016
314.017
314.017
314.018
314.018
314.019
314.019
314.02
314.02
314.021
314.022
314.022
314.023
314.023
314.024
314.024
314.025
314.026
314.026
314.027
314.028
314.028
314.029
314.03
314.03
314.031
314.032
314.032
314.033
314.034
314.034
314.035
314.036
314.037
314.037
314.039
314.039
314.038
314.04
314.043
314.033
314.03
314.053
314.035
313.966
314.037
314.137
313.788
313.635
314.556
314.069
311.39
314.097
318.952
305.97
298.22
339.618
322.379
160.988
43.4752
8.07411
1.29463
0.212714
0.0351985
0.00582515
0.000963822
0.000159461
2.63817e-05
4.36463e-06
7.2209e-07
1.19463e-07
1.97633e-08
3.26897e-09
5.40024e-10
8.86254e-11
1.37337e-11
1.41154e-12
-1.1622e-12
-1.40174e-12
-1.52352e-12
-1.63999e-12
-1.49175e-12
-1.52741e-12
-1.5349e-12
-1.66211e-12
-1.63201e-12
-1.55846e-12
-1.61366e-12
-1.55571e-12
-1.68976e-12
-1.57915e-12
-1.55917e-12
-1.51563e-12
-1.5893e-12
-1.58695e-12
-1.46095e-12
-1.62425e-12
-1.53444e-12
-1.35365e-12
-1.28893e-12
-1.31619e-12
-1.31385e-12
-1.23731e-12
-1.21485e-12
-1.12788e-12
-1.15526e-12
-1.23319e-12
-1.25157e-12
-1.43205e-12
-1.37097e-12
-1.47606e-12
-1.56568e-12
-1.28766e-12
-1.3485e-12
-1.22727e-12
-1.01887e-12
-9.08753e-13
-7.21317e-13
-6.76909e-13
-4.2851e-13
-2.88705e-13
-2.88567e-13
-1.86907e-13
-2.39715e-13
-8.83033e-14
-2.85127e-14
-1.28858e-13
-2.99659e-13
-3.41618e-13
-4.84773e-13
-5.1452e-13
-4.53291e-13
-3.90984e-13
-4.31638e-13
-5.20969e-13
-5.31708e-13
-7.34581e-13
-7.64668e-13
-6.79583e-13
-7.63822e-13
-6.12286e-13
-5.62446e-13
-4.58619e-13
-4.94993e-13
-5.35295e-13
-4.70881e-13
-3.34004e-13
-3.30353e-13
-4.29427e-13
-2.53297e-13
-1.3338e-13
-1.26776e-13
-1.57502e-13
-1.59645e-13
-1.03648e-13
-1.14847e-13
-1.68359e-13
-9.78932e-14
-1.10027e-13
-1.72851e-13
-3.12343e-13
-3.86733e-13
-4.27868e-13
-5.95957e-13
-4.45348e-13
-4.18897e-13
-4.12997e-13
-5.75235e-13
-6.71199e-13
-7.09663e-13
-6.49829e-13
-7.3035e-13
-6.04237e-13
-5.3079e-13
-3.70634e-13
-2.74041e-13
-1.3817e-13
-2.72314e-13
-3.38553e-13
-3.47391e-13
-6.12769e-13
-6.518e-13
-6.23205e-13
-6.17106e-13
-6.38984e-13
-6.06775e-13
-5.79005e-13
-5.89879e-13
-5.77685e-13
-7.01126e-13
-7.44889e-13
-6.51534e-13
-5.40416e-13
-5.6428e-13
-4.73255e-13
-4.15508e-13
-4.89629e-13
-4.84508e-13
-6.43689e-13
-4.46743e-13
-5.04782e-13
-4.73074e-13
-4.55851e-13
-5.03236e-13
-6.10381e-13
-6.06656e-13
-6.76585e-13
-6.61178e-13
-5.86495e-13
-6.13305e-13
-6.26931e-13
-7.42559e-13
-7.77129e-13
-8.82537e-13
-1.11631e-12
-1.09367e-12
-1.2732e-12
-1.38149e-12
-1.31047e-12
-1.28709e-12
-1.23456e-12
-1.05113e-12
-9.45785e-13
-6.73568e-13
-4.9377e-13
-4.65126e-13
-5.22267e-13
-5.5157e-13
-4.85269e-13
-4.82695e-13
-4.69756e-13
-5.82367e-13
-5.02222e-13
-4.17962e-13
-4.51266e-13
-5.94943e-13
-5.23056e-13
-5.13554e-13
-5.38666e-13
-4.95082e-13
-5.75323e-13
-6.29354e-13
-7.13591e-13
-6.83164e-13
-5.64248e-13
-4.62761e-13
-4.61079e-13
-6.6919e-13
-6.69289e-13
-5.98744e-13
-4.35902e-13
-4.41387e-13
-2.79335e-13
-2.96633e-13
-1.52442e-13
-1.19533e-13
-4.80135e-14
-1.03338e-13
-1.68411e-13
-1.93454e-13
-2.89533e-13
-3.83109e-13
-4.44396e-13
-6.68806e-13
-9.44236e-13
-1.00849e-12
-1.04132e-12
-9.53857e-13
-1.0389e-12
-1.17565e-12
-1.30164e-12
-1.31089e-12
-1.51834e-12
-1.59209e-12
-1.6288e-12
-1.73151e-12
-1.62921e-12
-1.61184e-12
-1.49944e-12
-1.34403e-12
-1.22289e-12
-1.13895e-12
-1.05639e-12
-7.91202e-13
-5.28713e-13
)
;

boundaryField
{
    sides
    {
        type            calculated;
        value           nonuniform List<scalar> 2(-3.85626e-13 1.04192e-11);
    }
    empty
    {
        type            empty;
    }
}


// ************************************************************************* //
