/*--------------------------------*- C++ -*----------------------------------*\
  =========                 |
  \\      /  F ield         | OpenFOAM: The Open Source CFD Toolbox
   \\    /   O peration     | Website:  https://openfoam.org
    \\  /    A nd           | Version:  13
     \\/     M anipulation  |
\*---------------------------------------------------------------------------*/
FoamFile
{
    format      ascii;
    class       volScalarField;
    location    "0.005";
    object      rho;
}
// * * * * * * * * * * * * * * * * * * * * * * * * * * * * * * * * * * * * * //

dimensions      [1 -3 0 0 0 0 0];

internalField   nonuniform List<scalar> 
1000
(
0.997575
0.997575
0.997575
0.997575
0.997575
0.997575
0.997575
0.997575
0.997575
0.997575
0.997575
0.997575
0.997575
0.997575
0.997575
0.997575
0.997575
0.997575
0.997575
0.997575
0.997575
0.997575
0.997575
0.997575
0.997575
0.997575
0.997575
0.997575
0.997575
0.997575
0.997575
0.997575
0.997575
0.997575
0.997575
0.997575
0.997575
0.997575
0.997575
0.997575
0.997575
0.997575
0.997575
0.997575
0.997575
0.997575
0.997575
0.997575
0.997575
0.997575
0.997575
0.997575
0.997575
0.997575
0.997575
0.997575
0.997575
0.997575
0.997575
0.997575
0.997575
0.997575
0.997575
0.997575
0.997575
0.997575
0.997575
0.997575
0.997575
0.997575
0.997575
0.997575
0.997575
0.997575
0.997575
0.997575
0.997575
0.997575
0.997575
0.997575
0.997575
0.997575
0.997575
0.997575
0.997575
0.997575
0.997575
0.997575
0.997575
0.997575
0.997575
0.997575
0.997575
0.997575
0.997575
0.997575
0.997575
0.997575
0.997575
0.997575
0.997575
0.997575
0.997575
0.997575
0.997575
0.997575
0.997575
0.997575
0.997575
0.997575
0.997575
0.997575
0.997575
0.997575
0.997575
0.997575
0.997575
0.997575
0.997575
0.997575
0.997575
0.997575
0.997575
0.997575
0.997575
0.997575
0.997575
0.997575
0.997575
0.997575
0.997575
0.997575
0.997575
0.997575
0.997575
0.997575
0.997575
0.997575
0.997575
0.997575
0.997575
0.997575
0.997575
0.997575
0.997575
0.997575
0.997575
0.997575
0.997575
0.997575
0.997575
0.997575
0.997575
0.997575
0.997575
0.997575
0.997575
0.997575
0.997575
0.997575
0.997575
0.997575
0.997575
0.997575
0.997575
0.997575
0.997575
0.997575
0.997575
0.997575
0.997575
0.997575
0.997575
0.997575
0.997575
0.997575
0.997575
0.997575
0.997575
0.997575
0.997575
0.997575
0.997575
0.997575
0.997575
0.997575
0.997575
0.997575
0.997575
0.997575
0.997575
0.997575
0.997575
0.997575
0.997575
0.997575
0.997575
0.997575
0.997575
0.997575
0.997575
0.997575
0.997575
0.997575
0.997575
0.997575
0.997575
0.997575
0.997575
0.997575
0.997575
0.997575
0.997575
0.997575
0.997575
0.997575
0.997575
0.997575
0.997575
0.997575
0.997575
0.997575
0.997575
0.997575
0.997575
0.997575
0.997575
0.997575
0.997575
0.997575
0.997575
0.997575
0.997575
0.997575
0.997575
0.997575
0.997575
0.997575
0.997575
0.997575
0.997575
0.997575
0.997575
0.997575
0.997575
0.997575
0.997575
0.997575
0.997575
0.997575
0.997575
0.997575
0.997575
0.997575
0.997575
0.997575
0.997575
0.997575
0.997575
0.997575
0.997575
0.997575
0.997575
0.997575
0.997575
0.997575
0.997575
0.997575
0.997575
0.997575
0.997575
0.997575
0.997575
0.997575
0.997575
0.997575
0.997575
0.997575
0.997574
0.997574
0.997574
0.997574
0.997574
0.997574
0.997573
0.997572
0.99757
0.997567
0.997562
0.997555
0.997544
0.997527
0.997501
0.997462
0.997406
0.997324
0.997209
0.997048
0.996827
0.99653
0.996138
0.995628
0.994981
0.994172
0.993183
0.991996
0.990597
0.98898
0.987143
0.98509
0.982832
0.980382
0.977757
0.974977
0.97206
0.969022
0.965881
0.96265
0.959342
0.955968
0.952537
0.949059
0.945539
0.941983
0.938398
0.934787
0.931154
0.927502
0.923834
0.920152
0.916458
0.912755
0.909043
0.905325
0.901601
0.897873
0.894141
0.890407
0.886671
0.882934
0.879198
0.875462
0.871727
0.867994
0.864264
0.860537
0.856813
0.853094
0.849379
0.845669
0.841964
0.838265
0.834572
0.830886
0.827207
0.823535
0.81987
0.816214
0.812565
0.808925
0.805293
0.801671
0.798057
0.794453
0.790858
0.787272
0.783697
0.780131
0.776575
0.77303
0.769495
0.76597
0.762456
0.758953
0.75546
0.751978
0.748507
0.745047
0.741598
0.73816
0.734734
0.731318
0.727914
0.724521
0.721139
0.717769
0.71441
0.711063
0.707726
0.704402
0.701089
0.697787
0.694497
0.691219
0.687952
0.684696
0.681452
0.67822
0.674999
0.67179
0.668593
0.665407
0.662232
0.65907
0.655918
0.652779
0.649651
0.646534
0.643429
0.640336
0.637254
0.634184
0.631125
0.628078
0.625043
0.622019
0.619006
0.616005
0.613015
0.610037
0.607071
0.604115
0.601172
0.598239
0.595319
0.592409
0.589511
0.586624
0.583749
0.580885
0.578033
0.575192
0.572362
0.569543
0.566736
0.56394
0.561156
0.558383
0.555621
0.55287
0.550131
0.547403
0.544686
0.541981
0.539287
0.536604
0.533932
0.531272
0.528623
0.525986
0.523359
0.520744
0.518141
0.515549
0.512968
0.510399
0.507841
0.505295
0.502761
0.500238
0.497726
0.495227
0.492739
0.490264
0.4878
0.485348
0.482909
0.480482
0.478068
0.475666
0.473277
0.470901
0.468539
0.46619
0.463856
0.461535
0.45923
0.456939
0.454665
0.452406
0.450165
0.447942
0.445737
0.443553
0.44139
0.439249
0.437133
0.435043
0.432982
0.430953
0.428958
0.427003
0.425091
0.423228
0.421421
0.419677
0.418007
0.416421
0.414933
0.413559
0.412318
0.411232
0.410328
0.409636
0.409189
0.409026
0.409188
0.409715
0.410646
0.412013
0.413832
0.416098
0.418773
0.421779
0.424993
0.428246
0.431336
0.434043
0.436153
0.437497
0.43797
0.437556
0.436326
0.434423
0.432041
0.429395
0.426704
0.424164
0.421951
0.420205
0.419029
0.418486
0.418596
0.419335
0.42063
0.422364
0.424376
0.426471
0.428444
0.430095
0.431257
0.431825
0.431767
0.431129
0.430027
0.42862
0.427093
0.425625
0.424379
0.423479
0.423007
0.422988
0.423396
0.424155
0.425147
0.426232
0.427259
0.428094
0.428633
0.428822
0.428661
0.428202
0.427539
0.426787
0.426063
0.425473
0.425093
0.424962
0.425079
0.425404
0.425866
0.426377
0.42685
0.427207
0.427396
0.427402
0.42724
0.426954
0.426609
0.426271
0.426001
0.425841
0.425808
0.425895
0.426071
0.426293
0.42651
0.426678
0.426768
0.426768
0.426687
0.426551
0.426392
0.426247
0.426143
0.426097
0.426111
0.426172
0.42626
0.426348
0.426413
0.426442
0.426428
0.426379
0.426307
0.426232
0.426168
0.426128
0.426115
0.426125
0.426147
0.426171
0.426184
0.426179
0.426155
0.426114
0.426065
0.426016
0.425973
0.425939
0.425914
0.425894
0.425872
0.425842
0.425802
0.425749
0.425686
0.425614
0.425537
0.42545
0.425345
0.425201
0.424979
0.424617
0.424023
0.423064
0.421569
0.419326
0.416097
0.411641
0.405749
0.398284
0.389217
0.378655
0.366849
0.354171
0.341079
0.328071
0.315628
0.304174
0.294043
0.285457
0.278525
0.273244
0.269512
0.267146
0.265906
0.265519
0.265708
0.26622
0.266848
0.267442
0.267914
0.268232
0.268402
0.268457
0.268437
0.26838
0.268315
0.26826
0.268223
0.268204
0.268199
0.268202
0.268209
0.268216
0.268222
0.268226
0.268227
0.268228
0.268228
0.268228
0.268229
0.26823
0.268231
0.268232
0.268233
0.268235
0.268236
0.268237
0.268238
0.268239
0.26824
0.268241
0.268241
0.268242
0.268243
0.268243
0.268244
0.268244
0.268245
0.268245
0.268246
0.268246
0.268246
0.268247
0.268247
0.268247
0.268247
0.268248
0.268248
0.268248
0.268248
0.268249
0.268249
0.268249
0.268249
0.26825
0.26825
0.26825
0.26825
0.268251
0.268251
0.268251
0.268251
0.268252
0.268252
0.268252
0.268253
0.268253
0.268253
0.268253
0.268254
0.268254
0.268254
0.268255
0.268255
0.268255
0.268255
0.268256
0.268256
0.268256
0.268257
0.268257
0.268257
0.268258
0.268258
0.268259
0.268259
0.268259
0.26826
0.26826
0.268259
0.26826
0.268261
0.268258
0.268256
0.268264
0.268258
0.268231
0.26825
0.268291
0.268175
0.268095
0.268411
0.268309
0.267305
0.268045
0.269958
0.265695
0.261941
0.275983
0.272728
0.210307
0.151823
0.130289
0.125619
0.124847
0.124721
0.124701
0.124697
0.124697
0.124697
0.124697
0.124697
0.124697
0.124697
0.124697
0.124697
0.124697
0.124697
0.124697
0.124697
0.124697
0.124697
0.124697
0.124697
0.124697
0.124697
0.124697
0.124697
0.124697
0.124697
0.124697
0.124697
0.124697
0.124697
0.124697
0.124697
0.124697
0.124697
0.124697
0.124697
0.124697
0.124697
0.124697
0.124697
0.124697
0.124697
0.124697
0.124697
0.124697
0.124697
0.124697
0.124697
0.124697
0.124697
0.124697
0.124697
0.124697
0.124697
0.124697
0.124697
0.124697
0.124697
0.124697
0.124697
0.124697
0.124697
0.124697
0.124697
0.124697
0.124697
0.124697
0.124697
0.124697
0.124697
0.124697
0.124697
0.124697
0.124697
0.124697
0.124697
0.124697
0.124697
0.124697
0.124697
0.124697
0.124697
0.124697
0.124697
0.124697
0.124697
0.124697
0.124697
0.124697
0.124697
0.124697
0.124697
0.124697
0.124697
0.124697
0.124697
0.124697
0.124697
0.124697
0.124697
0.124697
0.124697
0.124697
0.124697
0.124697
0.124697
0.124697
0.124697
0.124697
0.124697
0.124697
0.124697
0.124697
0.124697
0.124697
0.124697
0.124697
0.124697
0.124697
0.124697
0.124697
0.124697
0.124697
0.124697
0.124697
0.124697
0.124697
0.124697
0.124697
0.124697
0.124697
0.124697
0.124697
0.124697
0.124697
0.124697
0.124697
0.124697
0.124697
0.124697
0.124697
0.124697
0.124697
0.124697
0.124697
0.124697
0.124697
0.124697
0.124697
0.124697
0.124697
0.124697
0.124697
0.124697
0.124697
0.124697
0.124697
0.124697
0.124697
0.124697
0.124697
0.124697
0.124697
0.124697
0.124697
0.124697
0.124697
0.124697
0.124697
0.124697
0.124697
0.124697
0.124697
0.124697
0.124697
0.124697
0.124697
0.124697
0.124697
0.124697
0.124697
0.124697
0.124697
0.124697
0.124697
0.124697
0.124697
0.124697
0.124697
0.124697
0.124697
0.124697
0.124697
0.124697
0.124697
0.124697
0.124697
0.124697
0.124697
0.124697
0.124697
0.124697
0.124697
0.124697
0.124697
0.124697
0.124697
0.124697
0.124697
0.124697
0.124697
0.124697
0.124697
0.124697
0.124697
0.124697
0.124697
0.124697
0.124697
0.124697
0.124697
0.124697
0.124697
)
;

boundaryField
{
    sides
    {
        type            calculated;
        value           nonuniform List<scalar> 2(0.124697 0.997575);
    }
    empty
    {
        type            empty;
    }
}


// ************************************************************************* //
