/*--------------------------------*- C++ -*----------------------------------*\
  =========                 |
  \\      /  F ield         | OpenFOAM: The Open Source CFD Toolbox
   \\    /   O peration     | Website:  https://openfoam.org
    \\  /    A nd           | Version:  13
     \\/     M anipulation  |
\*---------------------------------------------------------------------------*/
FoamFile
{
    format      ascii;
    class       volScalarField;
    location    "0.005";
    object      rho_0;
}
// * * * * * * * * * * * * * * * * * * * * * * * * * * * * * * * * * * * * * //

dimensions      [1 -3 0 0 0 0 0];

internalField   nonuniform List<scalar> 
1000
(
0.997575
0.997575
0.997575
0.997575
0.997575
0.997575
0.997575
0.997575
0.997575
0.997575
0.997575
0.997575
0.997575
0.997575
0.997575
0.997575
0.997575
0.997575
0.997575
0.997575
0.997575
0.997575
0.997575
0.997575
0.997575
0.997575
0.997575
0.997575
0.997575
0.997575
0.997575
0.997575
0.997575
0.997575
0.997575
0.997575
0.997575
0.997575
0.997575
0.997575
0.997575
0.997575
0.997575
0.997575
0.997575
0.997575
0.997575
0.997575
0.997575
0.997575
0.997575
0.997575
0.997575
0.997575
0.997575
0.997575
0.997575
0.997575
0.997575
0.997575
0.997575
0.997575
0.997575
0.997575
0.997575
0.997575
0.997575
0.997575
0.997575
0.997575
0.997575
0.997575
0.997575
0.997575
0.997575
0.997575
0.997575
0.997575
0.997575
0.997575
0.997575
0.997575
0.997575
0.997575
0.997575
0.997575
0.997575
0.997575
0.997575
0.997575
0.997575
0.997575
0.997575
0.997575
0.997575
0.997575
0.997575
0.997575
0.997575
0.997575
0.997575
0.997575
0.997575
0.997575
0.997575
0.997575
0.997575
0.997575
0.997575
0.997575
0.997575
0.997575
0.997575
0.997575
0.997575
0.997575
0.997575
0.997575
0.997575
0.997575
0.997575
0.997575
0.997575
0.997575
0.997575
0.997575
0.997575
0.997575
0.997575
0.997575
0.997575
0.997575
0.997575
0.997575
0.997575
0.997575
0.997575
0.997575
0.997575
0.997575
0.997575
0.997575
0.997575
0.997575
0.997575
0.997575
0.997575
0.997575
0.997575
0.997575
0.997575
0.997575
0.997575
0.997575
0.997575
0.997575
0.997575
0.997575
0.997575
0.997575
0.997575
0.997575
0.997575
0.997575
0.997575
0.997575
0.997575
0.997575
0.997575
0.997575
0.997575
0.997575
0.997575
0.997575
0.997575
0.997575
0.997575
0.997575
0.997575
0.997575
0.997575
0.997575
0.997575
0.997575
0.997575
0.997575
0.997575
0.997575
0.997575
0.997575
0.997575
0.997575
0.997575
0.997575
0.997575
0.997575
0.997575
0.997575
0.997575
0.997575
0.997575
0.997575
0.997575
0.997575
0.997575
0.997575
0.997575
0.997575
0.997575
0.997575
0.997575
0.997575
0.997575
0.997575
0.997575
0.997575
0.997575
0.997575
0.997575
0.997575
0.997575
0.997575
0.997575
0.997575
0.997575
0.997575
0.997575
0.997575
0.997575
0.997575
0.997575
0.997575
0.997575
0.997575
0.997575
0.997575
0.997575
0.997575
0.997575
0.997575
0.997575
0.997575
0.997575
0.997575
0.997575
0.997575
0.997575
0.997575
0.997575
0.997575
0.997575
0.997575
0.997575
0.997575
0.997575
0.997575
0.997575
0.997575
0.997575
0.997575
0.997575
0.997575
0.997575
0.997575
0.997575
0.997575
0.997575
0.997575
0.997575
0.997575
0.997575
0.997575
0.997575
0.997575
0.997575
0.997575
0.997575
0.997575
0.997575
0.997574
0.997574
0.997574
0.997574
0.997574
0.997573
0.997572
0.997571
0.997568
0.997565
0.997558
0.997549
0.997534
0.997512
0.997479
0.99743
0.997359
0.997258
0.997116
0.99692
0.996654
0.9963
0.995838
0.995245
0.994499
0.99358
0.992468
0.991149
0.989612
0.987855
0.985879
0.983693
0.981308
0.978742
0.976013
0.973139
0.970139
0.967028
0.963823
0.960536
0.957178
0.953761
0.950293
0.94678
0.943231
0.939649
0.93604
0.932408
0.928755
0.925086
0.921401
0.917705
0.913998
0.910282
0.906559
0.90283
0.899096
0.895358
0.891618
0.887875
0.884132
0.880388
0.876645
0.872903
0.869163
0.865425
0.861689
0.857957
0.85423
0.850506
0.846787
0.843074
0.839366
0.835665
0.831969
0.828281
0.8246
0.820926
0.81726
0.813602
0.809952
0.806311
0.802679
0.799056
0.795442
0.791837
0.788242
0.784657
0.781082
0.777517
0.773962
0.770417
0.766883
0.763359
0.759846
0.756344
0.752852
0.749372
0.745902
0.742444
0.738996
0.73556
0.732135
0.728722
0.725319
0.721928
0.718549
0.71518
0.711824
0.708478
0.705145
0.701822
0.698512
0.695213
0.691925
0.688649
0.685385
0.682132
0.678891
0.675662
0.672444
0.669237
0.666043
0.66286
0.659689
0.656529
0.653381
0.650244
0.647119
0.644006
0.640905
0.637815
0.634736
0.631669
0.628614
0.625571
0.622538
0.619518
0.616509
0.613511
0.610526
0.607551
0.604588
0.601637
0.598697
0.595768
0.592851
0.589946
0.587052
0.584169
0.581298
0.578438
0.57559
0.572753
0.569927
0.567113
0.56431
0.561518
0.558738
0.555969
0.553212
0.550466
0.547731
0.545007
0.542295
0.539595
0.536905
0.534227
0.53156
0.528905
0.526261
0.523628
0.521007
0.518397
0.515799
0.513212
0.510637
0.508073
0.505521
0.50298
0.500451
0.497934
0.495429
0.492935
0.490454
0.487984
0.485527
0.483082
0.480649
0.478229
0.475822
0.473428
0.471047
0.468679
0.466325
0.463985
0.461659
0.459348
0.457053
0.454773
0.452509
0.450263
0.448035
0.445825
0.443636
0.441467
0.439322
0.437201
0.435106
0.43304
0.431006
0.429007
0.427047
0.42513
0.423263
0.421451
0.419703
0.418029
0.416438
0.414946
0.413568
0.412322
0.411232
0.410324
0.409628
0.409177
0.409011
0.40917
0.409694
0.410624
0.41199
0.413809
0.416076
0.418753
0.421763
0.42498
0.428238
0.431333
0.434044
0.436158
0.437503
0.437977
0.437562
0.436329
0.434423
0.432036
0.429387
0.426692
0.424151
0.421938
0.420193
0.41902
0.418481
0.418596
0.419342
0.420644
0.422384
0.424399
0.426496
0.428468
0.430114
0.43127
0.431829
0.431761
0.431115
0.430005
0.428593
0.427064
0.425598
0.424356
0.423464
0.423001
0.422992
0.42341
0.424176
0.425173
0.426258
0.427283
0.428112
0.428642
0.428821
0.42865
0.428184
0.427516
0.426762
0.426041
0.425457
0.425084
0.424962
0.425088
0.425418
0.425884
0.426396
0.426865
0.427216
0.427399
0.427397
0.427228
0.426939
0.426592
0.426256
0.42599
0.425836
0.425809
0.425901
0.42608
0.426303
0.426518
0.426683
0.426768
0.426764
0.426679
0.426541
0.426382
0.426238
0.426137
0.426095
0.426112
0.426175
0.426263
0.42635
0.426414
0.426439
0.426423
0.426372
0.4263
0.426224
0.426162
0.426123
0.426112
0.426123
0.426146
0.426168
0.42618
0.426173
0.426147
0.426106
0.426056
0.426007
0.425964
0.425931
0.425906
0.425884
0.425861
0.42583
0.425788
0.425733
0.425668
0.425594
0.425514
0.425422
0.425308
0.425147
0.424893
0.424477
0.423795
0.422703
0.421016
0.418515
0.414955
0.410102
0.403761
0.395824
0.386298
0.375334
0.363221
0.350361
0.337231
0.324331
0.312129
0.301027
0.291328
0.28322
0.27678
0.271971
0.268668
0.266665
0.26571
0.265525
0.265838
0.266405
0.267036
0.2676
0.268027
0.268298
0.26843
0.268457
0.268422
0.26836
0.268297
0.268247
0.268215
0.268201
0.268199
0.268204
0.268212
0.268218
0.268223
0.268226
0.268228
0.268228
0.268228
0.268228
0.268229
0.26823
0.268231
0.268233
0.268234
0.268235
0.268236
0.268238
0.268239
0.268239
0.26824
0.268241
0.268242
0.268242
0.268243
0.268243
0.268244
0.268244
0.268245
0.268245
0.268246
0.268246
0.268246
0.268247
0.268247
0.268247
0.268248
0.268248
0.268248
0.268248
0.268248
0.268249
0.268249
0.268249
0.268249
0.26825
0.26825
0.26825
0.26825
0.268251
0.268251
0.268251
0.268252
0.268252
0.268252
0.268252
0.268253
0.268253
0.268253
0.268254
0.268254
0.268254
0.268254
0.268255
0.268255
0.268255
0.268256
0.268256
0.268256
0.268256
0.268257
0.268257
0.268257
0.268258
0.268258
0.268259
0.268259
0.268259
0.26826
0.268259
0.268259
0.268261
0.26826
0.268256
0.26826
0.268265
0.268244
0.268232
0.268281
0.268249
0.26809
0.268235
0.268498
0.267763
0.267316
0.269413
0.268595
0.262106
0.267755
0.281189
0.243405
0.1735
0.136596
0.126811
0.125037
0.124753
0.124706
0.124698
0.124697
0.124697
0.124697
0.124697
0.124697
0.124697
0.124697
0.124697
0.124697
0.124697
0.124697
0.124697
0.124697
0.124697
0.124697
0.124697
0.124697
0.124697
0.124697
0.124697
0.124697
0.124697
0.124697
0.124697
0.124697
0.124697
0.124697
0.124697
0.124697
0.124697
0.124697
0.124697
0.124697
0.124697
0.124697
0.124697
0.124697
0.124697
0.124697
0.124697
0.124697
0.124697
0.124697
0.124697
0.124697
0.124697
0.124697
0.124697
0.124697
0.124697
0.124697
0.124697
0.124697
0.124697
0.124697
0.124697
0.124697
0.124697
0.124697
0.124697
0.124697
0.124697
0.124697
0.124697
0.124697
0.124697
0.124697
0.124697
0.124697
0.124697
0.124697
0.124697
0.124697
0.124697
0.124697
0.124697
0.124697
0.124697
0.124697
0.124697
0.124697
0.124697
0.124697
0.124697
0.124697
0.124697
0.124697
0.124697
0.124697
0.124697
0.124697
0.124697
0.124697
0.124697
0.124697
0.124697
0.124697
0.124697
0.124697
0.124697
0.124697
0.124697
0.124697
0.124697
0.124697
0.124697
0.124697
0.124697
0.124697
0.124697
0.124697
0.124697
0.124697
0.124697
0.124697
0.124697
0.124697
0.124697
0.124697
0.124697
0.124697
0.124697
0.124697
0.124697
0.124697
0.124697
0.124697
0.124697
0.124697
0.124697
0.124697
0.124697
0.124697
0.124697
0.124697
0.124697
0.124697
0.124697
0.124697
0.124697
0.124697
0.124697
0.124697
0.124697
0.124697
0.124697
0.124697
0.124697
0.124697
0.124697
0.124697
0.124697
0.124697
0.124697
0.124697
0.124697
0.124697
0.124697
0.124697
0.124697
0.124697
0.124697
0.124697
0.124697
0.124697
0.124697
0.124697
0.124697
0.124697
0.124697
0.124697
0.124697
0.124697
0.124697
0.124697
0.124697
0.124697
0.124697
0.124697
0.124697
0.124697
0.124697
0.124697
0.124697
0.124697
0.124697
0.124697
0.124697
0.124697
0.124697
0.124697
0.124697
0.124697
0.124697
0.124697
0.124697
0.124697
0.124697
0.124697
0.124697
0.124697
0.124697
0.124697
0.124697
0.124697
0.124697
0.124697
0.124697
0.124697
0.124697
0.124697
0.124697
0.124697
0.124697
0.124697
0.124697
0.124697
0.124697
0.124697
0.124697
)
;

boundaryField
{
    sides
    {
        type            calculated;
        value           nonuniform List<scalar> 2(0.124697 0.997575);
    }
    empty
    {
        type            empty;
    }
}


// ************************************************************************* //
