/*--------------------------------*- C++ -*----------------------------------*\
  =========                 |
  \\      /  F ield         | OpenFOAM: The Open Source CFD Toolbox
   \\    /   O peration     | Website:  https://openfoam.org
    \\  /    A nd           | Version:  13
     \\/     M anipulation  |
\*---------------------------------------------------------------------------*/
FoamFile
{
    format      ascii;
    class       volVectorField;
    location    "0.005";
    object      U_0;
}
// * * * * * * * * * * * * * * * * * * * * * * * * * * * * * * * * * * * * * //

dimensions      [0 1 -1 0 0 0 0];

internalField   nonuniform List<vector> 
1000
(
(-2.63058e-12 0 0)
(-2.73269e-12 0 0)
(-2.9126e-12 0 0)
(-2.56736e-12 0 0)
(-2.86397e-12 0 0)
(-2.78131e-12 0 0)
(-2.94663e-12 0 0)
(-2.45553e-12 0 0)
(-2.81049e-12 0 0)
(-2.08112e-12 0 0)
(-2.20754e-12 0 0)
(-1.86231e-12 0 0)
(-2.11516e-12 0 0)
(-1.75534e-12 0 0)
(-1.85745e-12 0 0)
(-1.51222e-12 0 0)
(-1.85259e-12 0 0)
(-1.62405e-12 0 0)
(-1.77479e-12 0 0)
(-1.7602e-12 0 0)
(-2.05681e-12 0 0)
(-1.83314e-12 0 0)
(-2.07626e-12 0 0)
(-1.89635e-12 0 0)
(-1.78937e-12 0 0)
(-1.93039e-12 0 0)
(-1.67754e-12 0 0)
(-1.88662e-12 0 0)
(-1.92552e-12 0 0)
(-2.14919e-12 0 0)
(-2.07626e-12 0 0)
(-2.24158e-12 0 0)
(-2.03736e-12 0 0)
(-1.9936e-12 0 0)
(-1.9936e-12 0 0)
(-1.87204e-12 0 0)
(-1.94011e-12 0 0)
(-2.02277e-12 0 0)
(-1.80882e-12 0 0)
(-1.81855e-12 0 0)
(-1.82341e-12 0 0)
(-1.97415e-12 0 0)
(-2.12002e-12 0 0)
(-2.09571e-12 0 0)
(-2.38745e-12 0 0)
(-2.10543e-12 0 0)
(-2.63058e-12 0 0)
(-2.46039e-12 0 0)
(-2.88828e-12 0 0)
(-2.61113e-12 0 0)
(-3.05847e-12 0 0)
(-2.74241e-12 0 0)
(-2.9904e-12 0 0)
(-2.54791e-12 0 0)
(-2.61113e-12 0 0)
(-2.26103e-12 0 0)
(-2.33883e-12 0 0)
(-2.00818e-12 0 0)
(-1.74561e-12 0 0)
(-1.56084e-12 0 0)
(-1.5268e-12 0 0)
(-1.5657e-12 0 0)
(-1.97415e-12 0 0)
(-1.84286e-12 0 0)
(-1.92552e-12 0 0)
(-1.61919e-12 0 0)
(-1.41011e-12 0 0)
(-1.54139e-12 0 0)
(-1.62891e-12 0 0)
(-1.67268e-12 0 0)
(-1.75048e-12 0 0)
(-1.81855e-12 0 0)
(-1.76993e-12 0 0)
(-1.81369e-12 0 0)
(-1.7213e-12 0 0)
(-1.9158e-12 0 0)
(-1.76993e-12 0 0)
(-1.75534e-12 0 0)
(-1.86231e-12 0 0)
(-2.02277e-12 0 0)
(-1.9936e-12 0 0)
(-2.0714e-12 0 0)
(-2.01305e-12 0 0)
(-2.09571e-12 0 0)
(-1.80882e-12 0 0)
(-2.0325e-12 0 0)
(-2.01791e-12 0 0)
(-2.05195e-12 0 0)
(-2.00332e-12 0 0)
(-2.29507e-12 0 0)
(-1.66781e-12 0 0)
(-1.60946e-12 0 0)
(-1.45387e-12 0 0)
(-1.37607e-12 0 0)
(-1.44414e-12 0 0)
(-1.57543e-12 0 0)
(-1.52194e-12 0 0)
(-1.6435e-12 0 0)
(-1.77479e-12 0 0)
(-1.94497e-12 0 0)
(-1.94984e-12 0 0)
(-2.27076e-12 0 0)
(-2.52846e-12 0 0)
(-2.84452e-12 0 0)
(-2.87856e-12 0 0)
(-2.78617e-12 0 0)
(-2.62571e-12 0 0)
(-2.55764e-12 0 0)
(-2.30479e-12 0 0)
(-2.4847e-12 0 0)
(-2.33883e-12 0 0)
(-2.51874e-12 0 0)
(-2.34855e-12 0 0)
(-2.38745e-12 0 0)
(-2.54305e-12 0 0)
(-2.4847e-12 0 0)
(-2.55278e-12 0 0)
(-2.17837e-12 0 0)
(-2.3291e-12 0 0)
(-2.15892e-12 0 0)
(-1.838e-12 0 0)
(-2.54791e-12 0 0)
(-2.23672e-12 0 0)
(-2.44094e-12 0 0)
(-2.04222e-12 0 0)
(-2.08598e-12 0 0)
(-2.19296e-12 0 0)
(-1.89635e-12 0 0)
(-1.96442e-12 0 0)
(-1.7602e-12 0 0)
(-2.17351e-12 0 0)
(-1.67268e-12 0 0)
(-1.74075e-12 0 0)
(-1.71158e-12 0 0)
(-1.80396e-12 0 0)
(-1.4879e-12 0 0)
(-1.30799e-12 0 0)
(-1.36634e-12 0 0)
(-9.04412e-13 0 0)
(-1.12322e-12 0 0)
(-9.09275e-13 0 0)
(-1.12808e-12 0 0)
(-9.33587e-13 0 0)
(-1.13781e-12 0 0)
(-1.15726e-12 0 0)
(-1.16212e-12 0 0)
(-1.08918e-12 0 0)
(-1.03084e-12 0 0)
(-1.04056e-12 0 0)
(-1.04542e-12 0 0)
(-7.87714e-13 0 0)
(-9.38449e-13 0 0)
(-6.41841e-13 0 0)
(-6.8074e-13 0 0)
(-2.77159e-13 0 0)
(-3.25783e-13 0 0)
(-6.32116e-14 0 0)
(-4.23032e-13 0 0)
(-5.49455e-13 0 0)
(-8.36338e-13 0 0)
(-8.70375e-13 0 0)
(-7.97439e-13 0 0)
(-8.21751e-13 0 0)
(-8.801e-13 0 0)
(-8.84963e-13 0 0)
(-6.32116e-13 0 0)
(-9.91936e-13 0 0)
(-8.46063e-13 0 0)
(-7.92576e-13 0 0)
(-4.13307e-13 0 0)
(-5.10555e-13 0 0)
(-2.43122e-13 0 0)
(-4.42481e-13 0 0)
(-3.69545e-13 0 0)
(-4.76518e-13 0 0)
(-5.5918e-13 0 0)
(-6.71016e-13 0 0)
(-7.92576e-13 0 0)
(-9.38449e-13 0 0)
(-1.1135e-12 0 0)
(-9.48174e-13 0 0)
(-8.02301e-13 0 0)
(-9.04412e-13 0 0)
(-8.46063e-13 0 0)
(-7.97439e-13 0 0)
(-6.51566e-13 0 0)
(-2.91746e-13 0 0)
(-2.13947e-13 0 0)
(4.86243e-14 0 0)
(2.82021e-13 0 0)
(4.71656e-13 0 0)
(5.05693e-13 0 0)
(2.77159e-13 0 0)
(-5.34868e-14 0 0)
(1.9936e-13 0 0)
(-1.36148e-13 0 0)
(-1.45529e-26 0 0)
(-6.32116e-14 0 0)
(2.23672e-13 0 0)
(-1.41011e-13 0 0)
(3.20921e-13 0 0)
(2.43122e-13 0 0)
(4.66793e-13 0 0)
(6.75878e-13 0 0)
(7.34227e-13 0 0)
(7.92576e-13 0 0)
(8.41201e-13 0 0)
(8.84963e-13 0 0)
(8.46063e-13 0 0)
(8.75238e-13 0 0)
(6.17529e-13 0 0)
(6.85603e-13 0 0)
(5.73767e-13 0 0)
(5.2028e-13 0 0)
(2.52846e-13 0 0)
(-5.34868e-14 0 0)
(-1.11836e-13 0 0)
(2.91746e-14 0 0)
(5.83492e-14 0 0)
(5.05693e-13 0 0)
(4.18169e-13 0 0)
(7.09915e-13 0 0)
(7.3909e-13 0 0)
(8.70375e-13 0 0)
(7.73127e-13 0 0)
(8.50926e-13 0 0)
(9.82211e-13 0 0)
(1.17671e-12 0 0)
(1.21561e-12 0 0)
(9.33587e-13 0 0)
(8.65513e-13 0 0)
(1.23992e-12 0 0)
(1.17671e-12 0 0)
(1.58029e-12 0 0)
(1.55598e-12 0 0)
(1.36148e-12 0 0)
(1.17671e-12 0 0)
(1.21561e-12 0 0)
(1.0746e-12 0 0)
(1.08918e-12 0 0)
(1.14753e-12 0 0)
(1.01139e-12 0 0)
(9.48174e-13 0 0)
(7.87714e-13 0 0)
(1.07946e-12 0 0)
(9.09275e-13 0 0)
(1.39552e-12 0 0)
(1.25937e-12 0 0)
(1.57057e-12 0 0)
(1.33717e-12 0 0)
(1.45873e-12 0 0)
(1.30799e-12 0 0)
(1.29827e-12 0 0)
(1.38093e-12 0 0)
(2.15406e-12 0 0)
(3.45233e-12 0 0)
(6.77823e-12 0 0)
(1.37315e-11 0 0)
(2.83674e-11 0 0)
(5.8709e-11 0 0)
(1.21906e-10 0 0)
(2.51748e-10 0 0)
(5.17436e-10 0 0)
(1.05627e-09 0 0)
(2.14069e-09 0 0)
(4.30729e-09 0 0)
(8.60035e-09 0 0)
(1.70414e-08 0 0)
(3.35013e-08 0 0)
(6.53362e-08 0 0)
(1.26393e-07 0 0)
(2.425e-07 0 0)
(4.61388e-07 0 0)
(8.70417e-07 0 0)
(1.62792e-06 0 0)
(3.01803e-06 0 0)
(5.5454e-06 0 0)
(1.0097e-05 0 0)
(1.82152e-05 0 0)
(3.25523e-05 0 0)
(5.76181e-05 0 0)
(0.000100992 0 0)
(0.000175257 0 0)
(0.000301053 0 0)
(0.000511791 0 0)
(0.000860845 0 0)
(0.00143231 0 0)
(0.0023568 0 0)
(0.00383409 0 0)
(0.00616503 0 0)
(0.00979522 0 0)
(0.0153732 0 0)
(0.0238254 0 0)
(0.0364499 0 0)
(0.0550272 0 0)
(0.0819455 0 0)
(0.120331 0 0)
(0.174171 0 0)
(0.248405 0 0)
(0.348967 0 0)
(0.482741 0 0)
(0.657414 0 0)
(0.881201 0 0)
(1.16246 0 0)
(1.50918 0 0)
(1.92848 0 0)
(2.42605 0 0)
(3.00574 0 0)
(3.66927 0 0)
(4.41615 0 0)
(5.24379 0 0)
(6.14779 0 0)
(7.12243 0 0)
(8.16131 0 0)
(9.25785 0 0)
(10.4057 0 0)
(11.5988 0 0)
(12.8318 0 0)
(14.0999 0 0)
(15.3989 0 0)
(16.725 0 0)
(18.0752 0 0)
(19.4467 0 0)
(20.8371 0 0)
(22.2446 0 0)
(23.6674 0 0)
(25.1041 0 0)
(26.5534 0 0)
(28.0143 0 0)
(29.4858 0 0)
(30.9672 0 0)
(32.4577 0 0)
(33.9568 0 0)
(35.4638 0 0)
(36.9784 0 0)
(38.5 0 0)
(40.0283 0 0)
(41.563 0 0)
(43.1036 0 0)
(44.65 0 0)
(46.2017 0 0)
(47.7586 0 0)
(49.3204 0 0)
(50.8868 0 0)
(52.4577 0 0)
(54.0329 0 0)
(55.612 0 0)
(57.195 0 0)
(58.7817 0 0)
(60.3718 0 0)
(61.9652 0 0)
(63.5618 0 0)
(65.1614 0 0)
(66.7638 0 0)
(68.369 0 0)
(69.9767 0 0)
(71.5868 0 0)
(73.1993 0 0)
(74.814 0 0)
(76.4309 0 0)
(78.0497 0 0)
(79.6704 0 0)
(81.2929 0 0)
(82.9171 0 0)
(84.543 0 0)
(86.1704 0 0)
(87.7993 0 0)
(89.4296 0 0)
(91.0613 0 0)
(92.6943 0 0)
(94.3284 0 0)
(95.9638 0 0)
(97.6002 0 0)
(99.2377 0 0)
(100.876 0 0)
(102.516 0 0)
(104.156 0 0)
(105.797 0 0)
(107.44 0 0)
(109.083 0 0)
(110.726 0 0)
(112.371 0 0)
(114.016 0 0)
(115.662 0 0)
(117.308 0 0)
(118.956 0 0)
(120.603 0 0)
(122.252 0 0)
(123.901 0 0)
(125.55 0 0)
(127.2 0 0)
(128.85 0 0)
(130.501 0 0)
(132.152 0 0)
(133.804 0 0)
(135.456 0 0)
(137.109 0 0)
(138.762 0 0)
(140.415 0 0)
(142.069 0 0)
(143.723 0 0)
(145.377 0 0)
(147.032 0 0)
(148.687 0 0)
(150.342 0 0)
(151.997 0 0)
(153.653 0 0)
(155.308 0 0)
(156.964 0 0)
(158.621 0 0)
(160.277 0 0)
(161.934 0 0)
(163.591 0 0)
(165.248 0 0)
(166.905 0 0)
(168.562 0 0)
(170.219 0 0)
(171.876 0 0)
(173.534 0 0)
(175.192 0 0)
(176.849 0 0)
(178.507 0 0)
(180.165 0 0)
(181.822 0 0)
(183.48 0 0)
(185.138 0 0)
(186.796 0 0)
(188.453 0 0)
(190.111 0 0)
(191.769 0 0)
(193.426 0 0)
(195.084 0 0)
(196.741 0 0)
(198.398 0 0)
(200.055 0 0)
(201.712 0 0)
(203.369 0 0)
(205.026 0 0)
(206.682 0 0)
(208.339 0 0)
(209.995 0 0)
(211.65 0 0)
(213.306 0 0)
(214.961 0 0)
(216.616 0 0)
(218.27 0 0)
(219.924 0 0)
(221.578 0 0)
(223.231 0 0)
(224.884 0 0)
(226.536 0 0)
(228.188 0 0)
(229.839 0 0)
(231.489 0 0)
(233.139 0 0)
(234.788 0 0)
(236.437 0 0)
(238.084 0 0)
(239.731 0 0)
(241.376 0 0)
(243.021 0 0)
(244.665 0 0)
(246.307 0 0)
(247.948 0 0)
(249.588 0 0)
(251.226 0 0)
(252.863 0 0)
(254.498 0 0)
(256.131 0 0)
(257.762 0 0)
(259.391 0 0)
(261.017 0 0)
(262.641 0 0)
(264.262 0 0)
(265.88 0 0)
(267.495 0 0)
(269.105 0 0)
(270.712 0 0)
(272.314 0 0)
(273.911 0 0)
(275.502 0 0)
(277.087 0 0)
(278.664 0 0)
(280.234 0 0)
(281.795 0 0)
(283.345 0 0)
(284.885 0 0)
(286.411 0 0)
(287.922 0 0)
(289.415 0 0)
(290.889 0 0)
(292.341 0 0)
(293.765 0 0)
(295.159 0 0)
(296.517 0 0)
(297.832 0 0)
(299.098 0 0)
(300.306 0 0)
(301.444 0 0)
(302.501 0 0)
(303.462 0 0)
(304.308 0 0)
(305.02 0 0)
(305.574 0 0)
(305.942 0 0)
(306.095 0 0)
(305.999 0 0)
(305.623 0 0)
(304.934 0 0)
(303.906 0 0)
(302.525 0 0)
(300.793 0 0)
(298.737 0 0)
(296.416 0 0)
(293.925 0 0)
(291.395 0 0)
(288.983 0 0)
(286.863 0 0)
(285.203 0 0)
(284.137 0 0)
(283.749 0 0)
(284.054 0 0)
(285.002 0 0)
(286.484 0 0)
(288.35 0 0)
(290.432 0 0)
(292.559 0 0)
(294.572 0 0)
(296.331 0 0)
(297.723 0 0)
(298.665 0 0)
(299.102 0 0)
(299.017 0 0)
(298.426 0 0)
(297.387 0 0)
(295.992 0 0)
(294.372 0 0)
(292.682 0 0)
(291.089 0 0)
(289.756 0 0)
(288.816 0 0)
(288.358 0 0)
(288.407 0 0)
(288.927 0 0)
(289.826 0 0)
(290.975 0 0)
(292.225 0 0)
(293.427 0 0)
(294.447 0 0)
(295.182 0 0)
(295.564 0 0)
(295.571 0 0)
(295.225 0 0)
(294.587 0 0)
(293.756 0 0)
(292.85 0 0)
(291.993 0 0)
(291.299 0 0)
(290.854 0 0)
(290.702 0 0)
(290.844 0 0)
(291.234 0 0)
(291.796 0 0)
(292.431 0 0)
(293.04 0 0)
(293.534 0 0)
(293.848 0 0)
(293.948 0 0)
(293.838 0 0)
(293.55 0 0)
(293.147 0 0)
(292.704 0 0)
(292.297 0 0)
(291.992 0 0)
(291.832 0 0)
(291.832 0 0)
(291.976 0 0)
(292.226 0 0)
(292.525 0 0)
(292.815 0 0)
(293.044 0 0)
(293.175 0 0)
(293.193 0 0)
(293.106 0 0)
(292.941 0 0)
(292.739 0 0)
(292.542 0 0)
(292.391 0 0)
(292.311 0 0)
(292.311 0 0)
(292.383 0 0)
(292.502 0 0)
(292.64 0 0)
(292.763 0 0)
(292.847 0 0)
(292.877 0 0)
(292.853 0 0)
(292.786 0 0)
(292.697 0 0)
(292.609 0 0)
(292.543 0 0)
(292.511 0 0)
(292.517 0 0)
(292.555 0 0)
(292.612 0 0)
(292.671 0 0)
(292.717 0 0)
(292.739 0 0)
(292.736 0 0)
(292.711 0 0)
(292.673 0 0)
(292.635 0 0)
(292.607 0 0)
(292.596 0 0)
(292.601 0 0)
(292.62 0 0)
(292.646 0 0)
(292.668 0 0)
(292.683 0 0)
(292.685 0 0)
(292.677 0 0)
(292.663 0 0)
(292.647 0 0)
(292.636 0 0)
(292.631 0 0)
(292.635 0 0)
(292.643 0 0)
(292.653 0 0)
(292.661 0 0)
(292.665 0 0)
(292.666 0 0)
(292.665 0 0)
(292.667 0 0)
(292.675 0 0)
(292.693 0 0)
(292.721 0 0)
(292.758 0 0)
(292.802 0 0)
(292.848 0 0)
(292.891 0 0)
(292.927 0 0)
(292.952 0 0)
(292.96 0 0)
(292.949 0 0)
(292.915 0 0)
(292.858 0 0)
(292.78 0 0)
(292.688 0 0)
(292.589 0 0)
(292.49 0 0)
(292.4 0 0)
(292.329 0 0)
(292.282 0 0)
(292.265 0 0)
(292.279 0 0)
(292.321 0 0)
(292.384 0 0)
(292.457 0 0)
(292.531 0 0)
(292.595 0 0)
(292.644 0 0)
(292.676 0 0)
(292.691 0 0)
(292.693 0 0)
(292.686 0 0)
(292.675 0 0)
(292.664 0 0)
(292.655 0 0)
(292.649 0 0)
(292.646 0 0)
(292.645 0 0)
(292.646 0 0)
(292.647 0 0)
(292.648 0 0)
(292.65 0 0)
(292.65 0 0)
(292.651 0 0)
(292.651 0 0)
(292.651 0 0)
(292.651 0 0)
(292.651 0 0)
(292.651 0 0)
(292.651 0 0)
(292.651 0 0)
(292.651 0 0)
(292.651 0 0)
(292.651 0 0)
(292.651 0 0)
(292.651 0 0)
(292.651 0 0)
(292.651 0 0)
(292.651 0 0)
(292.652 0 0)
(292.652 0 0)
(292.652 0 0)
(292.652 0 0)
(292.652 0 0)
(292.652 0 0)
(292.652 0 0)
(292.652 0 0)
(292.652 0 0)
(292.652 0 0)
(292.653 0 0)
(292.653 0 0)
(292.653 0 0)
(292.653 0 0)
(292.653 0 0)
(292.653 0 0)
(292.653 0 0)
(292.653 0 0)
(292.653 0 0)
(292.653 0 0)
(292.653 0 0)
(292.653 0 0)
(292.654 0 0)
(292.654 0 0)
(292.654 0 0)
(292.654 0 0)
(292.654 0 0)
(292.655 0 0)
(292.655 0 0)
(292.655 0 0)
(292.655 0 0)
(292.655 0 0)
(292.656 0 0)
(292.656 0 0)
(292.656 0 0)
(292.656 0 0)
(292.656 0 0)
(292.657 0 0)
(292.657 0 0)
(292.657 0 0)
(292.658 0 0)
(292.658 0 0)
(292.658 0 0)
(292.658 0 0)
(292.659 0 0)
(292.659 0 0)
(292.659 0 0)
(292.66 0 0)
(292.66 0 0)
(292.66 0 0)
(292.661 0 0)
(292.661 0 0)
(292.661 0 0)
(292.661 0 0)
(292.662 0 0)
(292.662 0 0)
(292.662 0 0)
(292.662 0 0)
(292.663 0 0)
(292.662 0 0)
(292.662 0 0)
(292.663 0 0)
(292.662 0 0)
(292.657 0 0)
(292.658 0 0)
(292.66 0 0)
(292.638 0 0)
(292.621 0 0)
(292.656 0 0)
(292.623 0 0)
(292.457 0 0)
(292.525 0 0)
(292.73 0 0)
(292.06 0 0)
(291.451 0 0)
(293.032 0 0)
(292.391 0 0)
(286.105 0 0)
(288.966 0 0)
(295.729 0 0)
(250.757 0 0)
(132.884 0 0)
(36.0584 0 0)
(6.64201 0 0)
(1.1281 0 0)
(0.185914 0 0)
(0.0307152 0 0)
(0.00508065 0 0)
(0.000840543 0 0)
(0.000139061 0 0)
(2.30066e-05 0 0)
(3.80625e-06 0 0)
(6.29708e-07 0 0)
(1.04178e-07 0 0)
(1.72334e-08 0 0)
(2.84939e-09 0 0)
(4.69123e-10 0 0)
(7.5572e-11 0 0)
(1.03619e-11 0 0)
(-7.43953e-13 0 0)
(-2.55278e-12 0 0)
(-3.07306e-12 0 0)
(-3.1071e-12 0 0)
(-3.11196e-12 0 0)
(-2.96123e-12 0 0)
(-3.00012e-12 0 0)
(-3.29673e-12 0 0)
(-3.25783e-12 0 0)
(-3.23838e-12 0 0)
(-3.2238e-12 0 0)
(-3.0682e-12 0 0)
(-3.31618e-12 0 0)
(-3.25783e-12 0 0)
(-3.19462e-12 0 0)
(-3.08279e-12 0 0)
(-3.04875e-12 0 0)
(-3.23352e-12 0 0)
(-3.00012e-12 0 0)
(-3.18976e-12 0 0)
(-3.11196e-12 0 0)
(-2.81535e-12 0 0)
(-2.74242e-12 0 0)
(-2.48957e-12 0 0)
(-2.69865e-12 0 0)
(-2.57223e-12 0 0)
(-2.47498e-12 0 0)
(-2.32425e-12 0 0)
(-2.28048e-12 0 0)
(-2.32425e-12 0 0)
(-2.62085e-12 0 0)
(-2.53819e-12 0 0)
(-2.91746e-12 0 0)
(-2.76673e-12 0 0)
(-3.22866e-12 0 0)
(-2.72297e-12 0 0)
(-2.72297e-12 0 0)
(-2.59654e-12 0 0)
(-2.06167e-12 0 0)
(-2.05681e-12 0 0)
(-1.43928e-12 0 0)
(-1.49763e-12 0 0)
(-1.04056e-12 0 0)
(-8.36339e-13 0 0)
(-4.47344e-13 0 0)
(-6.27255e-13 0 0)
(-1.9936e-13 0 0)
(-6.02942e-13 0 0)
(1.94498e-13 0 0)
(-3.20921e-13 0 0)
(-2.1881e-13 0 0)
(-7.92578e-13 0 0)
(-7.7799e-13 0 0)
(-1.10864e-12 0 0)
(-8.50927e-13 0 0)
(-9.968e-13 0 0)
(-6.90466e-13 0 0)
(-1.05029e-12 0 0)
(-9.62763e-13 0 0)
(-1.35662e-12 0 0)
(-1.46846e-12 0 0)
(-1.44414e-12 0 0)
(-1.51222e-12 0 0)
(-1.28368e-12 0 0)
(-1.29827e-12 0 0)
(-7.87715e-13 0 0)
(-1.19616e-12 0 0)
(-8.89826e-13 0 0)
(-1.10377e-12 0 0)
(-6.51567e-13 0 0)
(-8.65514e-13 0 0)
(-5.39731e-13 0 0)
(-8.89826e-13 0 0)
(-2.47984e-13 0 0)
(-2.43122e-13 0 0)
(-2.62572e-13 0 0)
(-3.5982e-13 0 0)
(-2.72297e-13 0 0)
(-1.70185e-13 0 0)
(-2.43122e-13 0 0)
(-4.03582e-13 0 0)
(1.94498e-14 0 0)
(-5.05694e-13 0 0)
(-3.16059e-13 0 0)
(-8.65514e-13 0 0)
(-6.75879e-13 0 0)
(-1.08919e-12 0 0)
(-1.02597e-12 0 0)
(-8.46064e-13 0 0)
(-8.60652e-13 0 0)
(-9.67625e-13 0 0)
(-1.32745e-12 0 0)
(-1.37121e-12 0 0)
(-1.41497e-12 0 0)
(-1.32745e-12 0 0)
(-1.33717e-12 0 0)
(-1.12809e-12 0 0)
(-9.579e-13 0 0)
(-5.25143e-13 0 0)
(-3.5982e-13 0 0)
(-3.88995e-13 0 0)
(-5.15419e-13 0 0)
(-7.9744e-13 0 0)
(-9.33588e-13 0 0)
(-1.21075e-12 0 0)
(-1.3858e-12 0 0)
(-1.06487e-12 0 0)
(-1.40038e-12 0 0)
(-1.14267e-12 0 0)
(-1.24478e-12 0 0)
(-1.14754e-12 0 0)
(-1.13295e-12 0 0)
(-1.32258e-12 0 0)
(-1.39066e-12 0 0)
(-1.48304e-12 0 0)
(-1.16699e-12 0 0)
(-1.11836e-12 0 0)
(-9.33588e-13 0 0)
(-9.87075e-13 0 0)
(-8.21752e-13 0 0)
(-1.0357e-12 0 0)
(-1.12809e-12 0 0)
(-1.02597e-12 0 0)
(-9.87075e-13 0 0)
(-9.67625e-13 0 0)
(-9.48176e-13 0 0)
(-9.82213e-13 0 0)
(-1.03084e-12 0 0)
(-1.27882e-12 0 0)
(-1.19616e-12 0 0)
(-1.46359e-12 0 0)
(-1.14754e-12 0 0)
(-1.26423e-12 0 0)
(-1.21561e-12 0 0)
(-1.39552e-12 0 0)
(-1.50736e-12 0 0)
(-1.53167e-12 0 0)
(-2.13461e-12 0 0)
(-2.08599e-12 0 0)
(-2.50902e-12 0 0)
(-2.63058e-12 0 0)
(-2.73269e-12 0 0)
(-2.65975e-12 0 0)
(-2.49929e-12 0 0)
(-2.29021e-12 0 0)
(-1.9547e-12 0 0)
(-1.53167e-12 0 0)
(-1.09891e-12 0 0)
(-9.87075e-13 0 0)
(-8.84964e-13 0 0)
(-1.20102e-12 0 0)
(-9.7735e-13 0 0)
(-1.00652e-12 0 0)
(-8.65514e-13 0 0)
(-1.04056e-12 0 0)
(-1.17671e-12 0 0)
(-8.02302e-13 0 0)
(-9.62763e-13 0 0)
(-9.7735e-13 0 0)
(-1.19616e-12 0 0)
(-1.00652e-12 0 0)
(-1.07946e-12 0 0)
(-9.968e-13 0 0)
(-1.20588e-12 0 0)
(-1.09891e-12 0 0)
(-1.44901e-12 0 0)
(-1.32258e-12 0 0)
(-1.29341e-12 0 0)
(-9.62763e-13 0 0)
(-9.43313e-13 0 0)
(-1.12322e-12 0 0)
(-1.40524e-12 0 0)
(-1.1135e-12 0 0)
(-1.15726e-12 0 0)
(-7.53678e-13 0 0)
(-7.43953e-13 0 0)
(-6.12667e-13 0 0)
(-3.84133e-13 0 0)
(-3.93858e-13 0 0)
(6.80741e-14 0 0)
(-3.35508e-13 0 0)
(-1.27504e-25 0 0)
(-6.66154e-13 0 0)
(-1.50736e-13 0 0)
(-9.43313e-13 0 0)
(-6.22392e-13 0 0)
(-1.29827e-12 0 0)
(-1.41497e-12 0 0)
(-2.10544e-12 0 0)
(-2.05195e-12 0 0)
(-1.9936e-12 0 0)
(-1.93039e-12 0 0)
(-2.27562e-12 0 0)
(-2.40691e-12 0 0)
(-2.74728e-12 0 0)
(-2.68407e-12 0 0)
(-3.3405e-12 0 0)
(-2.93691e-12 0 0)
(-3.67114e-12 0 0)
(-3.17031e-12 0 0)
(-3.36481e-12 0 0)
(-2.94178e-12 0 0)
(-2.87856e-12 0 0)
(-2.63058e-12 0 0)
(-2.3048e-12 0 0)
(-2.1492e-12 0 0)
(-1.88176e-12 0 0)
(-1.32745e-12 0 0)
(-8.02302e-13 0 0)
)
;

boundaryField
{
    sides
    {
        type            calculated;
        value           nonuniform List<vector> 2((-8.02302e-13 0 0) (-2.63058e-12 0 0));
    }
    empty
    {
        type            empty;
    }
}


// ************************************************************************* //
