/*--------------------------------*- C++ -*----------------------------------*\
  =========                 |
  \\      /  F ield         | OpenFOAM: The Open Source CFD Toolbox
   \\    /   O peration     | Website:  https://openfoam.org
    \\  /    A nd           | Version:  13
     \\/     M anipulation  |
\*---------------------------------------------------------------------------*/
FoamFile
{
    format      ascii;
    class       volSymmTensorField;
    location    "32.000287";
    object      UPrime2Mean;
}
// * * * * * * * * * * * * * * * * * * * * * * * * * * * * * * * * * * * * * //

dimensions      [0 2 -2 0 0 0 0];

internalField   nonuniform List<symmTensor> 
17140
(
(5.851259e-12 -3.7240319e-10 -1.1789252e-27 2.5242066e-08 1.8870159e-26 6.6945326e-41)
(3.8925828e-10 -5.485167e-09 -5.4576739e-28 2.4104504e-07 4.1927578e-27 5.9478717e-43)
(3.3662658e-09 -2.2246051e-08 8.9654432e-26 7.3345954e-07 -4.4235358e-25 2.5929425e-39)
(1.5720369e-08 -6.1357396e-08 -1.9224047e-25 1.5825144e-06 6.8264463e-25 3.1337153e-39)
(5.2504078e-08 -1.3817264e-07 3.8627655e-26 2.8847673e-06 -1.0519001e-25 4.2827281e-41)
(1.439019e-07 -2.7490729e-07 -2.011538e-25 4.7554914e-06 4.3709631e-25 4.5873645e-40)
(3.4613033e-07 -5.0273603e-07 -5.1257279e-25 7.3307966e-06 9.0966975e-25 1.3002412e-39)
(7.5854002e-07 -8.6430305e-07 3.6540907e-25 1.0769434e-05 -5.3787257e-25 3.0990827e-40)
(1.5500297e-06 -1.4166352e-06 1.7015747e-24 1.5253967e-05 -2.0998672e-24 3.3202782e-39)
(2.9988685e-06 -2.2342524e-06 5.8149067e-24 2.0990912e-05 -6.0662426e-24 1.997523e-38)
(5.5513888e-06 -3.412157e-06 -1.1814828e-23 2.8209294e-05 1.0486313e-23 4.3923743e-38)
(9.9065483e-06 -5.0681817e-06 1.423569e-23 3.7156969e-05 -1.0802587e-23 3.4885128e-38)
(1.7134882e-05 -7.3439273e-06 2.9143112e-24 4.809392e-05 -1.8980289e-24 8.1728379e-40)
(2.8841419e-05 -1.0403199e-05 -2.1809417e-23 6.1281692e-05 1.2236633e-23 2.6142609e-38)
(4.7382263e-05 -1.4426617e-05 3.1801777e-24 7.696815e-05 -1.5404381e-24 3.222665e-40)
(7.6142747e-05 -1.9600924e-05 -3.2823367e-23 9.5366896e-05 1.3757633e-23 2.0220727e-38)
(0.00011988043 -2.6101799e-05 1.5776164e-24 0.00011663111 -5.733621e-25 2.8005652e-41)
(0.00018512789 -3.4069755e-05 -4.5955892e-25 0.0001408222 1.4431751e-25 1.4021904e-42)
(0.00028063758 -4.3580433e-05 -4.1218332e-23 0.00016787459 1.1273869e-23 7.0529402e-39)
(0.00041783676 -5.461321e-05 6.7691293e-23 0.00019755937 -1.6085279e-23 1.1825466e-38)
(0.00061124801 -6.7025416e-05 -4.1002682e-23 0.00022945078 8.4637942e-24 2.730794e-39)
(0.00087882844 -8.0542435e-05 9.7252893e-24 0.00026290175 -1.7469656e-24 9.8842464e-41)
(0.0012421977 -9.4774051e-05 8.8643648e-23 0.00029703687 -1.3812875e-23 5.3202953e-39)
(0.0017267986 -0.00010926403 -1.0810387e-22 0.0003307747 1.462658e-23 5.2329363e-39)
(0.0023622245 -0.0001235709 -2.082515e-22 0.00036289615 2.4445697e-23 1.3100436e-38)
(0.0031824757 -0.00013734181 2.0030677e-22 0.0003921788 -2.0397008e-23 8.3510185e-39)
(0.0042260339 -0.00015027695 1.1676914e-21 0.00041760455 -1.0300586e-22 1.9885404e-37)
(0.0055390059 -0.0001622247 1.6201498e-22 0.00043858645 -1.2362595e-23 2.7264591e-39)
(0.0071766431 -0.00017315325 -1.6531506e-21 0.00045511086 1.0928425e-22 2.0792845e-37)
(0.0092040024 -0.00018244508 -4.4768766e-22 0.00046771233 2.558992e-23 1.1276066e-38)
(0.011699485 -0.00018961066 -1.8348739e-21 0.00047720503 9.067888e-23 1.4285265e-37)
(0.014755492 -0.00019451677 2.7573461e-21 0.00048425245 -1.1769194e-22 2.4690152e-37)
(0.018481186 -0.00019646399 -8.1754687e-22 0.00048927266 3.0034329e-23 1.6761505e-38)
(0.023002454 -0.00019458691 -4.4118123e-22 0.00049248107 1.3930866e-23 3.8355655e-39)
(0.028461894 -0.00018774274 -4.8927315e-21 0.00049392083 1.315838e-22 3.7222328e-37)
(0.035017193 -0.00017447873 2.4040627e-21 0.00049349857 -5.4866303e-23 7.2116072e-38)
(0.042837378 -0.00015294338 -4.0485444e-21 0.00049105551 7.7469915e-23 1.6488912e-37)
(0.052095508 -0.00012080281 -3.043722e-21 0.00048644642 4.826908e-23 7.6063929e-38)
(0.062955985 -7.5223961e-05 -1.5406105e-21 0.00047966066 1.9892721e-23 1.6052501e-38)
(0.075554269 -1.2816582e-05 5.1191609e-21 0.00047102695 -5.2761076e-23 1.4823607e-37)
(0.089967787 7.0101427e-05 1.0547541e-20 0.00046144583 -8.3723665e-23 5.2975384e-37)
(0.10617877 0.00017708277 1.0376001e-20 0.00045244684 -6.0335669e-23 4.3666237e-37)
(0.12403215 0.00031036146 4.8757206e-21 0.00044588528 -1.9046386e-23 8.3112108e-38)
(0.14320298 0.00046963688 -2.54301e-20 0.00044340788 5.4915516e-23 1.9607618e-36)
(0.16318722 0.0006503273 -1.9758237e-20 0.00044611066 1.1301274e-23 1.0415486e-36)
(0.18330651 0.00084096882 5.1172082e-21 0.00045456379 4.566718e-24 6.2339179e-38)
(0.20282997 0.0010277278 -3.6405529e-20 0.00046933813 -8.2542317e-23 2.8486664e-36)
(0.22108809 0.0012017782 -1.2838929e-20 0.00049188117 -4.5859538e-23 3.2424859e-37)
(0.23736158 0.0013576528 1.3473281e-20 0.00052510704 6.5064965e-23 3.3162609e-37)
(0.25132962 0.001491952 3.3706286e-20 0.00057243632 2.0356556e-22 1.9554139e-36)
(0.26269472 0.0016080951 -2.1040929e-20 0.00063868973 -1.5158462e-22 7.2904646e-37)
(0.27126336 0.0017236314 -1.3360241e-20 0.00073147378 -1.11268e-22 2.8550393e-37)
(0.2768128 0.0018755205 3.4769534e-20 0.00086082074 3.2912941e-22 1.907192e-36)
(0.27939167 0.0020940554 1.6268319e-20 0.0010385806 1.7237205e-22 4.1849843e-37)
(0.27912445 0.0023816673 1.1377463e-20 0.001279203 1.3293289e-22 2.0891908e-37)
(0.27656829 0.0027219911 -8.7216002e-21 0.0016005776 -1.1029396e-22 1.2684719e-37)
(0.27251436 0.0030790016 2.2647652e-20 0.0020134388 3.023303e-22 9.0881643e-37)
(0.26735612 0.0033661867 1.8094773e-20 0.0025175948 2.4582603e-22 6.2491036e-37)
(0.26138619 0.0034337726 4.2838487e-21 0.0030950196 5.5914902e-23 3.8712025e-38)
(0.2541571 0.0030952059 -1.036885e-20 0.0037561495 -1.1925946e-22 2.5444951e-37)
(0.24486659 0.002274142 -7.4797449e-21 0.0046048955 -6.5673687e-23 1.5460256e-37)
(0.23297052 0.001084352 -2.5231528e-20 0.0059263131 -1.3561022e-22 2.1038125e-36)
(0.21593538 0.00012652928 -3.3041017e-21 0.0078607308 -1.0534863e-23 4.5084147e-38)
(0.19692776 6.7840782e-05 2.4587353e-20 0.0094998828 1.3103464e-22 3.1840207e-36)
(0.16911717 0.00091136138 -1.6193244e-20 0.0097420573 -2.3541082e-22 1.9028878e-36)
(2.474195e-10 -5.8098476e-09 1.4461909e-27 1.3647688e-07 -2.8414547e-26 5.4214579e-42)
(3.8513255e-09 -7.0132366e-08 -4.8472004e-25 1.2931388e-06 7.5421259e-24 7.1369673e-38)
(1.7129988e-08 -2.5497315e-07 8.294616e-25 3.9074053e-06 -1.0558803e-23 5.6517064e-38)
(5.3120173e-08 -6.5106367e-07 -3.7647121e-25 8.3662236e-06 3.9912069e-24 4.2003482e-39)
(1.3564882e-07 -1.3865206e-06 -1.2018112e-24 1.5120767e-05 1.0788885e-23 1.7924649e-38)
(3.0735868e-07 -2.6450592e-06 3.3883175e-24 2.4687734e-05 -2.6078176e-23 6.5445524e-38)
(6.415756e-07 -4.683299e-06 -5.0481865e-24 3.7647175e-05 3.3568778e-23 7.1114935e-38)
(1.2604555e-06 -7.8519049e-06 6.2036826e-25 5.4634738e-05 -3.5823759e-24 5.5082325e-40)
(2.3625477e-06 -1.2621345e-05 -2.6562652e-24 7.63262e-05 1.3369382e-23 5.3687286e-39)
(4.2635746e-06 -1.9610656e-05 -6.1043149e-26 0.00010341168 2.6857246e-25 1.5337467e-42)
(7.4557088e-06 -2.9617931e-05 -1.6025396e-23 0.00013655719 6.1762216e-23 5.983524e-38)
(1.2691962e-05 -4.3649442e-05 3.3703456e-23 0.00017635124 -1.140058e-22 1.5103954e-37)
(2.1103715e-05 -6.2942631e-05 3.6553004e-24 0.00022323557 -1.0868571e-23 1.029951e-39)
(3.4360373e-05 -8.8975849e-05 -4.7029477e-23 0.00027742076 1.2307011e-22 1.0025873e-37)
(5.4880156e-05 -0.0001234554 1.8702721e-23 0.00033879118 -4.3114871e-23 9.4443367e-39)
(8.6099409e-05 -0.00016826881 1.5290327e-23 0.00040680823 -3.1071637e-23 3.8003614e-39)
(0.00013280333 -0.00022539306 -1.241624e-22 0.00048042657 2.2249235e-22 1.5243129e-37)
(0.00020151336 -0.00029675029 5.1447518e-22 0.00055804473 -8.1309536e-22 1.6103799e-36)
(0.00030091484 -0.00038401238 -4.0719447e-22 0.00063751476 5.6752896e-22 6.2749585e-37)
(0.00044229518 -0.0004883717 6.1272656e-22 0.0007162356 -7.5287407e-22 8.9380119e-37)
(0.00063995157 -0.00061031901 -1.1285568e-21 0.00079134521 1.2219488e-21 1.9326611e-36)
(0.00091152554 -0.00074949369 3.423217e-22 0.00086000575 -3.2642921e-22 1.1492977e-37)
(0.0012782372 -0.00090468763 1.7302803e-22 0.00091974651 -1.4521674e-22 1.9281331e-38)
(0.0017650591 -0.0010740813 -6.8857925e-22 0.00096879814 5.0820651e-22 2.0339929e-37)
(0.0024010564 -0.0012557616 2.984568e-21 0.0010063402 -1.9362369e-21 2.5966556e-36)
(0.003219725 -0.0014483387 5.328049e-22 0.0010326106 -3.0356706e-22 5.7055727e-38)
(0.0042589338 -0.0016513007 -3.2628572e-21 0.0010488196 1.6334624e-21 1.5147331e-36)
(0.0055640925 -0.0018654914 4.2956463e-21 0.0010567159 -1.8885683e-21 1.8851778e-36)
(0.0071897518 -0.0020928785 -6.8559198e-22 0.0010584043 2.6493199e-22 3.5387245e-38)
(0.0091999617 -0.0023351961 -7.7848899e-21 0.0010563329 2.6399771e-21 3.3707532e-36)
(0.011671937 -0.002594474 9.2565571e-22 0.0010524497 -2.7565702e-22 3.6167488e-38)
(0.014696562 -0.0028726856 8.1246263e-21 0.00104766 -2.120454e-21 2.1221256e-36)
(0.01838109 -0.0031705323 2.3673688e-22 0.0010420318 -5.386901e-23 1.3474721e-39)
(0.022848997 -0.0034874389 -7.7976321e-21 0.0010350954 1.5586646e-21 1.1887448e-36)
(0.028239842 -0.0038212117 9.8024342e-21 0.0010260814 -1.7105695e-21 1.4905257e-36)
(0.034707444 -0.0041676579 -4.9555023e-21 0.0010140871 7.5336271e-22 3.04777e-37)
(0.042415888 -0.004519894 6.4988348e-21 0.00099819986 -8.5963359e-22 4.2617888e-37)
(0.051531891 -0.004867289 2.2993436e-20 0.00097760627 -2.639116e-21 4.3519149e-36)
(0.062211723 -0.005194209 5.7023083e-21 0.00095179293 -5.6657538e-22 2.203777e-37)
(0.07458055 -0.0054787564 2.4481791e-20 0.00092091091 -2.1002191e-21 3.3956622e-36)
(0.088703041 -0.0056921933 -3.4220247e-20 0.00088625953 2.5242726e-21 5.6083123e-36)
(0.10454617 -0.0058000347 -3.4231334e-20 0.00085060192 2.1584341e-21 4.7717613e-36)
(0.12193751 -0.0057658926 -6.3445667e-21 0.00081820703 3.394153e-22 1.4005805e-37)
(0.14053287 -0.0055583078 5.405325e-20 0.00079467974 -2.4250998e-21 8.9521139e-36)
(0.15980424 -0.0051599971 -2.7266803e-20 0.00078664447 1.0108625e-21 1.9971576e-36)
(0.17905478 -0.0045800487 -9.9869691e-21 0.00080102405 2.9944792e-22 2.3859589e-37)
(0.19751388 -0.0038582205 5.571315e-21 0.00084356936 -1.3064941e-22 6.7969977e-38)
(0.21448034 -0.0030496168 1.8110774e-20 0.00091598819 -3.1577509e-22 6.5466871e-37)
(0.22938101 -0.0022188228 -9.1256527e-21 0.0010130786 1.0908223e-22 1.5481419e-37)
(0.24180165 -0.0014165652 1.6921054e-20 0.0011272895 -1.1600547e-22 5.0194399e-37)
(0.25148255 -0.00065051847 1.0324273e-19 0.0012543501 -2.2282214e-22 1.7934664e-35)
(0.25825188 9.2732667e-05 4.953555e-21 0.001398326 1.1469636e-23 4.0331505e-38)
(0.26202098 0.0008218861 -2.2277803e-20 0.001573746 -1.4301657e-22 8.0618817e-37)
(0.26289617 0.0015283689 4.9024781e-20 0.0017989999 5.1424239e-22 3.9286204e-36)
(0.26128512 0.0021725752 -4.1037271e-20 0.0020956223 -5.9287606e-22 2.8188481e-36)
(0.25785886 0.0027086538 1.1312427e-19 0.0024851408 2.0600589e-21 2.2331954e-35)
(0.25346306 0.0031280312 3.1074247e-20 0.0029800888 6.7843597e-22 1.78868e-36)
(0.24866196 0.003385233 -8.3319708e-20 0.0035809141 -2.0813204e-21 1.3972807e-35)
(0.2437135 0.0034247878 1.3374662e-20 0.0042647416 3.7371511e-22 3.9759628e-37)
(0.23809914 0.0031223422 1.4202582e-20 0.0050217182 4.2334098e-22 5.1218018e-37)
(0.2307018 0.0024801969 2.6164248e-21 0.0059227247 8.1128354e-23 2.0454131e-38)
(0.22090668 0.0015990719 -3.1590202e-20 0.0071960611 -1.0236579e-21 3.5936254e-36)
(0.20544949 0.0010283315 5.4596503e-20 0.0089482095 1.9153308e-21 1.3620839e-35)
(0.18778048 0.0015343948 1.4356897e-20 0.010405387 6.1780447e-22 1.2206629e-36)
(0.16005718 0.0026830876 2.000574e-20 0.010548233 1.2069327e-21 3.3714935e-36)
(2.014667e-09 -2.8783086e-08 2.1106577e-25 4.1122584e-07 -2.8289173e-24 1.6478424e-38)
(2.2939001e-08 -2.9875739e-07 -3.3581628e-25 3.8935335e-06 4.1077701e-24 6.5197826e-39)
(8.1503218e-08 -9.7797758e-07 -1.5340132e-25 1.1756953e-05 1.7148204e-24 4.6115761e-40)
(2.0695543e-07 -2.2775016e-06 2.2042545e-25 2.5155613e-05 -2.250782e-24 4.146243e-40)
(4.4501035e-07 -4.4830159e-06 -1.5272833e-24 4.543032e-05 1.4260128e-23 9.7369338e-39)
(8.6816571e-07 -7.9868576e-06 -1.5711698e-25 7.4109584e-05 1.3422473e-24 5.383155e-41)
(1.5894087e-06 -1.3318469e-05 -2.7095722e-24 0.00011289952 2.116012e-23 8.7901621e-39)
(2.7822998e-06 -2.1181133e-05 -3.8799134e-24 0.00016365562 2.7656031e-23 1.0204583e-38)
(4.7105416e-06 -3.2496455e-05 4.1619574e-23 0.0002283289 -2.7026456e-22 6.816843e-37)
(7.7701552e-06 -4.8453028e-05 -4.8331623e-23 0.00030887981 2.8536183e-22 5.4343356e-37)
(1.254919e-05 -7.0557664e-05 2.9865483e-23 0.00040715159 -1.6001892e-22 1.2444626e-37)
(1.9910687e-05 -0.00010068346 5.6188327e-23 0.00052469655 -2.7269932e-22 2.6713274e-37)
(3.1105887e-05 -0.00014110658 -1.423698e-22 0.00066255261 6.2476694e-22 1.050146e-36)
(4.7925407e-05 -0.00019451973 -2.2435883e-23 0.00082097384 8.8871109e-23 1.6080987e-38)
(7.2896017e-05 -0.00026400619 1.0980289e-22 0.00099912978 -3.9193253e-22 2.395113e-37)
(0.00010952923 -0.00035295574 9.5383667e-23 0.0011948049 -3.0628175e-22 1.130105e-37)
(0.00016262414 -0.00046490366 -1.3924722e-22 0.0014041485 4.0155455e-22 1.5161361e-37)
(0.00023862046 -0.00060327965 6.3217452e-22 0.0016215477 -1.6343839e-21 1.9801836e-36)
(0.00034598818 -0.00077106925 -4.6648363e-22 0.0018397088 1.0793148e-21 6.8875222e-37)
(0.00049562926 -0.00097041716 2.8671428e-22 0.0020500344 -5.9260166e-22 1.6747345e-37)
(0.00070125781 -0.0012022421 -1.1943194e-21 0.0022433493 2.2012103e-21 1.8914119e-36)
(0.00097972481 -0.0014659765 -3.8139156e-22 0.0024109577 6.2567255e-22 1.2692483e-37)
(0.0013512661 -0.001759574 9.6972955e-22 0.0025459044 -1.4135854e-21 5.4739715e-37)
(0.0018397049 -0.0020799227 -1.7654587e-21 0.0026441817 2.2828949e-21 1.2273895e-36)
(0.0024728133 -0.0024237626 -8.3468899e-22 0.0027055528 9.5588292e-22 1.8830505e-37)
(0.0032828158 -0.0027888658 1.1903942e-21 0.002733705 -1.2063488e-21 2.691187e-37)
(0.0043060876 -0.0031746648 7.9810035e-21 0.0027355076 -7.1464759e-21 8.5987406e-36)
(0.0055863165 -0.003583188 4.2290397e-21 0.0027189559 -3.3433783e-21 1.7470212e-36)
(0.0071762018 -0.0040185466 -2.4450683e-21 0.0026916308 1.7066617e-21 4.3294924e-37)
(0.009137316 -0.0044849048 3.0302528e-21 0.0026603154 -1.8638257e-21 4.9419435e-37)
(0.011543894 -0.0049868249 -2.1634532e-21 0.002629742 1.173262e-21 1.9346435e-37)
(0.014482945 -0.0055283662 -1.4030801e-20 0.0026017623 6.6895886e-21 6.219482e-36)
(0.018056899 -0.0061115728 5.3384982e-21 0.0025759645 -2.2361115e-21 7.0146715e-37)
(0.022383162 -0.0067360422 1.8047068e-20 0.0025505246 -6.6305726e-21 6.3041883e-36)
(0.027593686 -0.0073983685 -6.7667505e-21 0.0025228844 2.1790726e-21 7.0988668e-37)
(0.033832711 -0.0080914065 -1.0658238e-20 0.002490177 3.0012879e-21 1.4093801e-36)
(0.041252219 -0.0088029843 2.0647087e-20 0.0024493987 -5.0791034e-21 4.2916076e-36)
(0.050003569 -0.0095139225 7.0256265e-21 0.0023975319 -1.5073779e-21 4.0571453e-37)
(0.060223575 -0.010195569 -1.3800192e-20 0.0023318389 2.5801734e-21 1.3042099e-36)
(0.072013037 -0.010807412 -6.087866e-21 0.0022505793 9.8954629e-22 2.1295721e-37)
(0.085406788 -0.011295754 3.2118049e-20 0.0021541152 -4.5229791e-21 4.9905124e-36)
(0.10033636 -0.011595525 -9.8671585e-21 0.0020463774 1.1981016e-21 4.0627186e-37)
(0.11658932 -0.011636958 -1.5501444e-20 0.001936376 1.6156549e-21 8.6137101e-37)
(0.13377884 -0.011358202 -4.4598012e-20 0.0018394739 3.954363e-21 6.2002833e-36)
(0.15133297 -0.010723109 9.0510534e-20 0.0017773921 -6.7421858e-21 2.2606589e-35)
(0.1685257 -0.0097453139 -6.2142226e-20 0.0017757355 3.8255526e-21 9.5279817e-36)
(0.18460156 -0.0085049577 -1.6536077e-20 0.0018562143 8.2463809e-22 6.0813925e-37)
(0.19888845 -0.0071187781 -6.8053557e-20 0.0020227579 2.6520956e-21 9.5475503e-36)
(0.21087373 -0.0056999624 -8.4343273e-20 0.0022542714 2.45852e-21 1.3717041e-35)
(0.22024348 -0.0043441185 -4.4018231e-21 0.0025175899 9.1215543e-23 3.5237846e-38)
(0.22688054 -0.0030874076 1.8919988e-20 0.0027855868 -2.2537097e-22 6.2902723e-37)
(0.23076333 -0.0019221244 -1.3974476e-19 0.0030558873 5.3232543e-22 3.3803939e-35)
(0.23197725 -0.00085007926 -5.9396106e-20 0.0033537864 -2.1054304e-22 6.08742e-36)
(0.23078863 8.279803e-05 -6.0285765e-20 0.0037132529 -6.4213668e-22 6.3564446e-36)
(0.22781233 0.00079994931 -1.9381133e-20 0.0041631153 -3.4588064e-22 6.7747851e-37)
(0.22384413 0.0012415351 -1.4506929e-19 0.0047206184 -3.5383549e-21 3.9949174e-35)
(0.21982723 0.0014280901 5.5311906e-20 0.0053855195 1.7335243e-21 6.2169565e-36)
(0.21631785 0.0013907811 -1.5934213e-20 0.0061393968 -5.9926654e-22 5.6827849e-37)
(0.21334359 0.0011982731 -1.2302954e-19 0.0069360283 -5.4314918e-21 3.7830698e-35)
(0.21023001 0.00081947424 -4.5388885e-20 0.0077296803 -2.2896012e-21 5.9290808e-36)
(0.20529271 0.00035123236 4.9322411e-20 0.0085518239 2.7751798e-21 8.3659342e-36)
(0.19785187 -6.5387057e-05 1.5275735e-19 0.009579505 9.5918678e-21 9.8761147e-35)
(0.18370521 -1.2568469e-05 -4.2748918e-20 0.010932381 -3.0584651e-21 1.0073375e-35)
(0.16770912 0.0013359133 -5.9626311e-20 0.011990786 -5.2251628e-21 2.6174563e-35)
(0.14036936 0.0030220311 -2.0958823e-20 0.01176765 -2.4427765e-21 4.8020627e-36)
(7.9127718e-09 -8.0461194e-08 -1.3852577e-24 8.1817442e-07 1.3643952e-23 1.8480521e-37)
(8.1737711e-08 -7.9580728e-07 4.5222256e-24 7.7487e-06 -4.2597657e-23 3.3893435e-37)
(2.6775149e-07 -2.5029678e-06 -2.6835509e-24 2.3403949e-05 2.412233e-23 4.43152e-38)
(6.2608382e-07 -5.5985712e-06 4.2340306e-25 5.0090666e-05 -3.6244546e-24 5.2376833e-40)
(1.2424153e-06 -1.0598257e-05 -1.1498336e-23 9.0492424e-05 9.3609055e-23 2.0472981e-37)
(2.2409937e-06 -1.8178269e-05 1.5839709e-23 0.00014767424 -1.2244058e-22 2.1921083e-37)
(3.8006884e-06 -2.921593e-05 -3.1335877e-23 0.00022506435 2.2944207e-22 5.0451286e-37)
(6.1773842e-06 -4.4837044e-05 1.8941122e-23 0.00032640039 -1.3098143e-22 1.1171389e-37)
(9.7354461e-06 -6.6471027e-05 9.1562586e-23 0.00045562547 -5.9608578e-22 1.6153167e-36)
(1.4991011e-05 -9.5910448e-05 -2.7768504e-23 0.00061671852 1.6962001e-22 9.3428427e-38)
(2.2670997e-05 -0.00013537108 -1.3269324e-22 0.00081344308 7.5796808e-22 1.3557807e-36)
(3.3792502e-05 -0.00018754536 5.0606035e-23 0.0010489996 -2.6941123e-22 1.2641843e-37)
(4.9768173e-05 -0.00025563868 4.206726e-24 0.0013255741 -2.0801591e-23 5.6508898e-40)
(7.2543448e-05 -0.00034337298 -2.0504214e-22 0.0016437878 9.3872298e-22 8.6625829e-37)
(0.00010477164 -0.00045493805 7.9571085e-22 0.0020020758 -3.3615051e-21 8.4799599e-36)
(0.00015003143 -0.00059486711 -6.0492202e-22 0.0023960545 2.3503595e-21 3.1956251e-36)
(0.00021308887 -0.00076781442 -7.1284515e-24 0.0028179775 2.5389704e-23 2.8995372e-40)
(0.0003002007 -0.00097821978 5.1023384e-22 0.0032564279 -1.6605112e-21 9.7616788e-37)
(0.00041944988 -0.0012298657 -1.5943698e-21 0.003696433 4.7254611e-21 6.2855154e-36)
(0.00058109541 -0.0015253659 9.2293441e-22 0.0041201856 -2.483089e-21 1.3972643e-36)
(0.000797914 -0.0018656772 1.6818589e-21 0.0045085128 -4.0942437e-21 3.0997649e-36)
(0.0010855106 -0.0022497837 8.2855693e-22 0.0048430859 -1.8192218e-21 5.0667439e-37)
(0.0014625861 -0.0026747389 -4.9546586e-21 0.0051091266 9.7827071e-21 1.2358972e-35)
(0.0019511826 -0.0031362468 -3.1129566e-21 0.005298096 5.5108877e-21 3.3645871e-36)
(0.0025770737 -0.0036299124 2.3991146e-21 0.0054096145 -3.7984585e-21 1.4015741e-36)
(0.0033704596 -0.0041529751 -1.6611026e-21 0.0054519105 2.3457637e-21 4.7601444e-37)
(0.0043654839 -0.0047051207 7.3158614e-21 0.0054403634 -9.1987696e-21 6.6804361e-36)
(0.0056031457 -0.005289917 -2.4558524e-21 0.0053932634 2.743995e-21 5.5179167e-37)
(0.0071331035 -0.0059137046 7.6771044e-21 0.0053269137 -7.611693e-21 4.0205942e-36)
(0.0090132213 -0.0065832359 -5.0012818e-21 0.0052550506 4.3933998e-21 1.2911411e-36)
(0.011313049 -0.0073056137 3.5537613e-21 0.0051871927 -2.7602644e-21 4.9777575e-37)
(0.014113551 -0.008086868 -1.4858967e-20 0.0051271197 1.0192557e-20 6.763654e-36)
(0.017509645 -0.0089302446 2.4206653e-21 0.0050739716 -1.4641442e-21 1.4123925e-37)
(0.021609325 -0.0098352705 -1.4471907e-20 0.0050239511 7.7023902e-21 3.9838663e-36)
(0.026532795 -0.010797021 1.5598171e-20 0.0049717 -7.2982553e-21 3.7097021e-36)
(0.032409657 -0.011805028 5.6197556e-21 0.004911129 -2.3074837e-21 3.8609316e-37)
(0.03937355 -0.012841429 -7.7996053e-20 0.0048356971 2.8097023e-20 6.1241499e-35)
(0.047552888 -0.013878119 -2.265165e-20 0.0047385166 7.1464087e-21 4.2484714e-36)
(0.057055945 -0.01487322 2.0753323e-20 0.0046127839 -5.7263513e-21 2.9761875e-36)
(0.067948597 -0.015767705 -2.244504e-20 0.0044530099 5.4052099e-21 2.9267132e-36)
(0.080224307 -0.016483769 6.3424047e-21 0.0042572698 -1.3285909e-21 1.9710409e-37)
(0.093768 -0.016927616 4.310034e-20 0.0040306124 -7.8336944e-21 7.860741e-36)
(0.10831876 -0.016999593 -2.1559899e-21 0.0037893859 3.3843764e-22 1.7225601e-38)
(0.12344464 -0.016613356 -1.68747e-20 0.0035650474 2.2631235e-21 9.1025584e-37)
(0.13854078 -0.015724036 8.7155272e-21 0.0034049289 -9.8208258e-22 2.189255e-37)
(0.15288996 -0.014366012 -4.7491217e-21 0.003366382 4.5012178e-22 5.5164354e-38)
(0.16580869 -0.012671316 -1.4149615e-20 0.0034966787 1.0932104e-21 4.6348028e-37)
(0.17672071 -0.01082461 2.2589383e-19 0.003801591 -1.3899446e-20 1.1064496e-34)
(0.1852786 -0.009001545 -2.6086226e-20 0.0042311546 1.2151847e-21 1.3879667e-36)
(0.191365 -0.0073300275 2.4632997e-20 0.0047078829 -8.3548112e-22 1.1835433e-36)
(0.1950347 -0.0058467711 -2.3437013e-19 0.0051690466 5.1221414e-21 1.0408179e-34)
(0.1964033 -0.0045359739 1.2864288e-19 0.005605598 -1.375323e-21 3.0988213e-35)
(0.19568683 -0.0034118445 1.0507563e-19 0.0060636291 2.4500751e-23 2.0744301e-35)
(0.19329125 -0.0025544848 9.8486371e-20 0.0066018659 1.0435946e-21 1.8639526e-35)
(0.18995654 -0.0020654521 9.2203581e-20 0.0072588645 1.9134528e-21 1.7011566e-35)
(0.18655311 -0.0019927777 1.3924565e-19 0.0080400411 4.2928805e-21 4.1201625e-35)
(0.18394269 -0.0022518946 -2.6532689e-19 0.0089183483 -1.0929204e-20 1.6193037e-34)
(0.1824841 -0.0027135276 1.5402107e-19 0.0098424598 7.9446666e-21 6.0413995e-35)
(0.18178699 -0.0031722089 2.1766267e-19 0.010726136 1.3524055e-20 1.3726463e-34)
(0.18087386 -0.0035336935 -1.4694041e-19 0.011469171 -1.0787878e-20 7.3194403e-35)
(0.17742551 -0.0036259057 -4.2373496e-20 0.012077244 -3.5873057e-21 7.4085624e-36)
(0.17086813 -0.0032741596 -3.2808743e-20 0.012669591 -3.1831293e-21 5.6191076e-36)
(0.1561889 -0.0024058763 1.4425618e-19 0.013449516 1.6663806e-20 1.4556589e-34)
(0.13987495 -0.00022647819 8.9852115e-20 0.013895216 1.2816064e-20 7.8558402e-35)
(0.11267053 0.0019036248 -3.1083434e-21 0.013101723 -5.7910029e-22 1.5250548e-37)
(2.1197751e-08 -1.6627017e-07 1.6179258e-24 1.3041855e-06 -1.2452516e-23 9.1628759e-38)
(2.1029697e-07 -1.6121667e-06 -1.0785976e-23 1.2359319e-05 8.1002436e-23 7.3168399e-37)
(6.646215e-07 -4.9822795e-06 1.4111865e-23 3.7351349e-05 -1.0316919e-22 4.8640031e-37)
(1.4954851e-06 -1.0936845e-05 -7.5707203e-24 7.9993718e-05 5.3798031e-23 6.9482004e-38)
(2.8523537e-06 -2.0307976e-05 -3.6777261e-24 0.00014461968 2.5368131e-23 9.0713316e-39)
(4.9382526e-06 -3.4146421e-05 4.1277666e-23 0.00023619746 -2.7594188e-22 6.7198296e-37)
(8.0280399e-06 -5.3768011e-05 -1.3356512e-23 0.00036031074 8.6347508e-23 4.313116e-38)
(1.2492561e-05 -8.0805328e-05 -3.5711107e-23 0.00052308375 2.2268412e-22 1.9459078e-37)
(1.8831149e-05 -0.00011726508 -3.4117309e-24 0.00073102819 2.0460819e-23 1.1465031e-39)
(2.7714408e-05 -0.00016558662 -3.5834044e-23 0.00099078658 2.0604567e-22 8.2820362e-38)
(4.0040244e-05 -0.00022869651 6.168699e-23 0.0013087435 -3.3896428e-22 1.6258928e-37)
(5.7006476e-05 -0.00031005044 -5.2500521e-23 0.0016904795 2.7474593e-22 7.8649773e-38)
(8.0204024e-05 -0.00041365069 -2.3632808e-22 0.0021400494 1.1736977e-21 1.06953e-36)
(0.00011173469 -0.00054402202 -8.3864784e-24 0.0026590891 3.9384168e-23 9.0449325e-40)
(0.00015435763 -0.0007061254 2.6823768e-22 0.0032457809 -1.1865399e-21 6.270819e-37)
(0.00021166773 -0.00090518667 2.3122087e-22 0.003893772 -9.597127e-22 3.1520534e-37)
(0.0002883074 -0.001146418 -2.4194563e-22 0.0045911907 9.3851779e-22 2.3382574e-37)
(0.00039021067 -0.0014346218 2.8132575e-23 0.0053200064 -1.0156373e-22 2.1575126e-39)
(0.00052487463 -0.0017736868 6.946482e-22 0.0060560294 -2.3243529e-21 8.9167159e-37)
(0.00070164941 -0.002166027 1.0244643e-21 0.0067699009 -3.1635185e-21 1.3250383e-36)
(0.0009320355 -0.0026120679 -1.4107086e-21 0.0074293333 4.0029437e-21 1.72679e-36)
(0.0012299787 -0.0031099495 -1.7058122e-21 0.0080026825 4.4288081e-21 1.7475773e-36)
(0.0016121621 -0.0036556565 2.7450451e-21 0.0084635259 -6.493871e-21 3.1606452e-36)
(0.0020983095 -0.0042437749 -4.0406598e-21 0.0087954427 8.6746184e-21 4.8316806e-36)
(0.0027116115 -0.0048690054 -8.2770385e-21 0.0089957306 1.6064071e-20 1.4474541e-35)
(0.0034795074 -0.0055283294 2.288708e-20 0.0090767033 -4.0017229e-20 8.0184631e-35)
(0.0044335347 -0.006222254 -1.4681211e-20 0.0090638093 2.3052431e-20 2.4236087e-35)
(0.0056110337 -0.006956086 2.5177628e-20 0.0089892152 -3.5402647e-20 5.3075142e-35)
(0.0070573558 -0.0077384876 -3.6158385e-20 0.008881371 4.5419369e-20 8.2727084e-35)
(0.008826092 -0.0085793815 4.6145395e-20 0.0087639076 -5.1656579e-20 1.0308068e-34)
(0.010980417 -0.0094882398 -5.4260291e-20 0.0086533536 5.4005125e-20 1.104018e-34)
(0.01359351 -0.010472892 1.0326861e-20 0.0085568231 -9.1204213e-21 3.1396425e-36)
(0.016750484 -0.011537598 4.025032e-20 0.0084733696 -3.1475748e-20 3.7666781e-35)
(0.020547187 -0.012681506 -2.5488258e-20 0.0083967395 1.7621526e-20 1.2078902e-35)
(0.025088757 -0.013897788 8.9122153e-21 0.0083177544 -5.4394357e-21 1.1932831e-36)
(0.030486209 -0.015172232 2.8884014e-21 0.0082257537 -1.5549773e-21 1.0289883e-37)
(0.036850298 -0.016480887 3.9725433e-20 0.0081090815 -1.8824148e-20 1.5852244e-35)
(0.044281376 -0.017786486 1.4344333e-20 0.0079551898 -5.9782092e-21 1.7080917e-36)
(0.052853825 -0.019034077 1.5958664e-20 0.0077512558 -5.8379396e-21 1.7639709e-36)
(0.062593736 -0.020147047 1.7239312e-20 0.0074861498 -5.5280294e-21 1.7523378e-36)
(0.073449994 -0.021025608 -9.5770712e-20 0.0071542782 2.6831054e-20 4.6207043e-35)
(0.085261241 -0.021551239 4.5570327e-20 0.0067619635 -1.1111909e-20 9.0272507e-36)
(0.09772504 -0.021600999 7.8914676e-21 0.0063358338 -1.6695196e-21 2.3135512e-37)
(0.11038202 -0.02107453 -9.6581183e-20 0.0059305398 1.7514437e-20 3.1137306e-35)
(0.12263205 -0.019934754 -5.2069282e-20 0.0056306352 8.0347301e-21 8.0612915e-36)
(0.13383016 -0.018258884 2.6907008e-20 0.0055384034 -3.4898643e-21 1.9590948e-36)
(0.14343567 -0.016249171 1.0239081e-19 0.0057329609 -1.0905616e-20 2.5949542e-35)
(0.15106785 -0.014155099 -4.6029657e-20 0.0062128633 3.9656446e-21 4.9125145e-36)
(0.15658969 -0.01219658 1.3817388e-19 0.006882583 -9.1509546e-21 4.1844522e-35)
(0.16006461 -0.010501338 7.6369026e-20 0.0076000174 -3.7364536e-21 1.2312119e-35)
(0.16164862 -0.0090768088 1.0612425e-19 0.0082588137 -3.5407034e-21 2.328172e-35)
(0.16151621 -0.0078855643 2.8447919e-19 0.0088519295 -5.0775215e-21 1.6643412e-34)
(0.15994255 -0.0069574039 -2.1722821e-19 0.0094619356 7.8540956e-22 9.8364963e-35)
(0.15741499 -0.0064107128 6.9362236e-20 0.010181722 7.9189707e-22 1.0325484e-35)
(0.15473354 -0.0063621071 -1.1522539e-19 0.011057663 -2.7761963e-21 3.0029854e-35)
(0.15274246 -0.0068229476 -1.0481425e-19 0.012074512 -4.0136233e-21 2.6663464e-35)
(0.15208017 -0.0076148482 -3.8801471e-20 0.013165765 -2.0621127e-21 4.0134033e-36)
(0.15275595 -0.0084817349 -3.3089065e-19 0.01423062 -2.2069034e-20 3.2750473e-34)
(0.15384338 -0.0090800548 -8.2205817e-20 0.015135648 -6.7457956e-21 2.3366771e-35)
(0.1540066 -0.0091918319 1.7122024e-19 0.015712453 1.6977963e-20 1.2092781e-34)
(0.15035197 -0.0086454511 5.7758e-20 0.015965995 6.8416243e-21 1.7181239e-35)
(0.14270977 -0.0072639158 -3.7775213e-20 0.015939795 -5.2665058e-21 9.5731407e-36)
(0.12608268 -0.0054620301 -6.5982088e-20 0.016014831 -1.1125007e-20 4.0926087e-35)
(0.108175 -0.0027192023 -8.4970458e-20 0.015690853 -1.8164854e-20 9.9238426e-35)
(0.082364406 -0.00040726695 4.9410148e-21 0.014228943 1.39386e-21 5.7718319e-37)
(4.4639121e-08 -2.8353617e-07 7.3563282e-24 1.8009494e-06 -4.6141689e-23 8.5065683e-37)
(4.3412897e-07 -2.7231936e-06 5.1493677e-24 1.7082083e-05 -3.183395e-23 7.6764722e-38)
(1.3472226e-06 -8.3429471e-06 -6.6006651e-24 5.1666362e-05 4.0138934e-23 5.0342199e-38)
(2.9711422e-06 -1.8139642e-05 -3.4151514e-23 0.0001107522 2.0409591e-22 6.8658349e-37)
(5.5473582e-06 -3.3343336e-05 2.4850916e-23 0.00020043138 -1.458097e-22 2.0618415e-37)
(9.3882905e-06 -5.5465178e-05 -4.6099092e-23 0.00032772542 2.6524069e-22 4.2734964e-37)
(1.4897132e-05 -8.6346343e-05 2.5183218e-23 0.00050057724 -1.4185902e-22 8.0055829e-38)
(2.2592508e-05 -0.00012820842 7.4602126e-24 0.00072777027 -4.1061283e-23 4.5448835e-39)
(3.3140139e-05 -0.00018370507 -5.1934099e-23 0.001018744 2.7866578e-22 1.457473e-37)
(4.7392498e-05 -0.00025596864 -1.3655648e-22 0.0013832686 7.1253806e-22 6.7776998e-37)
(6.6438465e-05 -0.00034864551 -8.32606e-24 0.0018309366 4.2135067e-23 1.7102268e-39)
(9.1664983e-05 -0.0004659101 3.2898134e-22 0.0023704316 -1.6098204e-21 1.8382125e-36)
(0.00012483301 -0.00061244437 -5.483544e-22 0.0030085395 2.5866425e-21 3.526263e-36)
(0.00016817029 -0.00079336644 1.0648322e-21 0.0037488934 -4.8258814e-21 9.220023e-36)
(0.00022448328 -0.0010140892 -3.3430772e-22 0.0045904844 1.4505118e-21 6.3181074e-37)
(0.00029729055 -0.0012800886 8.5279152e-22 0.0055260351 -3.5290659e-21 2.8629762e-36)
(0.00039097921 -0.0015965682 -1.236963e-21 0.0065404404 4.8626345e-21 4.2032136e-36)
(0.00051098563 -0.001968015 9.632724e-22 0.007609585 -3.5819687e-21 1.7812959e-36)
(0.00066400045 -0.0023976701 -1.822474e-22 0.0086999852 6.3818624e-22 4.4700464e-38)
(0.00085819804 -0.0028869758 -8.8431672e-22 0.0097697774 2.9026188e-21 7.392848e-37)
(0.0011034909 -0.0034351139 2.5657072e-21 0.010771527 -7.8558331e-21 4.3917967e-36)
(0.0014118117 -0.0040388119 -4.3088641e-21 0.011657104 1.2246568e-20 8.7976665e-36)