/*--------------------------------*- C++ -*----------------------------------*\
  =========                 |
  \\      /  F ield         | OpenFOAM: The Open Source CFD Toolbox
   \\    /   O peration     | Website:  https://openfoam.org
    \\  /    A nd           | Version:  13
     \\/     M anipulation  |
\*---------------------------------------------------------------------------*/
FoamFile
{
    format      ascii;
    class       volVectorField;
    location    "45.197447";
    object      UMean;
}
// * * * * * * * * * * * * * * * * * * * * * * * * * * * * * * * * * * * * * //

dimensions      [0 1 -1 0 0 0 0];

internalField   nonuniform List<vector> 
17140
(
(-1.6359938e-06 7.7710343e-05 -6.5181839e-23)
(-1.7991176e-05 0.00023969092 -5.0164618e-24)
(-5.2914116e-05 0.00041736738 3.3174999e-22)
(-0.00011350396 0.0006118207 -3.6495724e-22)
(-0.0002063727 0.00082418908 4.2700301e-23)
(-0.00034049683 0.0010555498 -1.3983613e-22)
(-0.00052694152 0.0013068862 -2.3566436e-22)
(-0.00077909836 0.0015790353 1.1535745e-22)
(-0.0011131318 0.001872622 3.7801494e-22)
(-0.0015484178 0.0021879811 9.2909884e-22)
(-0.0021079992 0.0025250635 -1.3820691e-21)
(-0.0028190354 0.0028833308 1.2359844e-21)
(-0.0037132243 0.0032616382 1.8969325e-22)
(-0.0048271523 0.0036581093 -1.0809574e-21)
(-0.0062025162 0.0040700134 1.2069971e-22)
(-0.0078861523 0.0044936525 -9.6436186e-22)
(-0.0099297942 0.004924279 3.6510976e-23)
(-0.012389486 0.0053560597 -7.8928105e-24)
(-0.015324586 0.0057821156 -5.8847761e-22)
(-0.018796332 0.0061946597 7.7441259e-22)
(-0.022866008 0.0065852575 -3.7753368e-22)
(-0.027592846 0.0069452216 7.3853912e-23)
(-0.033031886 0.0072661315 5.486207e-22)
(-0.039232279 0.0075404603 -5.5407123e-22)
(-0.046237023 0.007762275 -8.9525766e-22)
(-0.054082617 0.0079280011 7.3233656e-22)
(-0.062797881 0.0080370997 3.6395788e-21)
(-0.072409966 0.0080920381 4.3079439e-22)
(-0.082944364 0.0080980404 -3.8702835e-21)
(-0.094427589 0.0080617913 -9.1224058e-22)
(-0.10688284 0.0079874859 -3.3063501e-21)
(-0.12032315 0.0078760345 4.4227466e-21)
(-0.1347581 0.0077272872 -1.1618066e-21)
(-0.15018764 0.0075417764 -5.6578073e-22)
(-0.16660214 0.0073206079 -5.5903126e-21)
(-0.1839797 0.0070642175 2.4930789e-21)
(-0.20228145 0.0067715897 -3.7679068e-21)
(-0.22144407 0.0064402379 -2.5608737e-21)
(-0.24137051 0.0060667893 -1.1718404e-21)
(-0.26191974 0.0056485775 3.5695162e-21)
(-0.28289759 0.005185082 6.6984235e-21)
(-0.30404833 0.0046791188 6.0368898e-21)
(-0.32504508 0.004135583 2.6148551e-21)
(-0.34548627 0.0035592308 -1.2471431e-20)
(-0.36489622 0.0029531502 -8.9608835e-21)
(-0.38272383 0.0023208581 2.1663173e-21)
(-0.39840868 0.0016629138 -1.443929e-20)
(-0.41142064 0.00097429485 -4.8082336e-21)
(-0.42114383 0.00025168026 4.8132983e-21)
(-0.42715194 -0.00049142376 1.1601986e-20)
(-0.42904869 -0.0012434449 -7.0670143e-21)
(-0.42653379 -0.0020149017 -4.4333533e-21)
(-0.41924258 -0.0028618629 1.1518002e-20)
(-0.40690809 -0.0038643175 5.4544187e-21)
(-0.38897655 -0.0051067948 3.9232484e-21)
(-0.36506413 -0.0067105493 -3.0889348e-21)
(-0.33420506 -0.0088031308 8.5749103e-21)
(-0.2955262 -0.011482251 7.2879719e-21)
(-0.24625628 -0.014610951 1.879503e-21)
(-0.18461094 -0.016675813 -4.9115427e-21)
(-0.10697686 -0.01490991 -3.9909315e-21)
(-0.018602914 -0.0092872864 -1.5234192e-20)
(0.084514266 -0.0021824523 -2.3101659e-21)
(0.18539973 0.0046267273 1.9803972e-20)
(0.2965488 0.0081670748 -1.5759064e-20)
(-1.4311144e-05 0.00033496076 1.8472135e-23)
(-5.6829386e-05 0.0010322785 -1.736122e-21)
(-0.00012003459 0.0017960395 1.5455411e-21)
(-0.00021110473 0.0026306482 -4.2173934e-22)
(-0.00033667556 0.0035404513 -8.7158872e-22)
(-0.00050570867 0.004529426 1.6667569e-21)
(-0.0007291973 0.0056010037 -1.7398365e-21)
(-0.001020403 0.0067578185 1.5334564e-22)
(-0.0013952708 0.0080013901 -4.7957427e-22)
(-0.001872861 0.0093317535 -7.9766035e-24)
(-0.0024757851 0.010747031 -1.6093134e-21)
(-0.0032306381 0.012242946 2.56712e-21)
(-0.0041684076 0.013812307 2.128667e-22)
(-0.0053248119 0.015444462 -2.112119e-21)
(-0.0067405179 0.017124806 6.5321682e-22)
(-0.0084611768 0.018834361 4.1765576e-22)
(-0.010537202 0.020549567 -2.6675973e-21)
(-0.013023217 0.022242354 8.7729978e-21)
(-0.015977115 0.023880681 -5.5496361e-21)
(-0.019458699 0.025429625 6.7196638e-21)
(-0.023527935 0.026853183 -1.0050945e-20)
(-0.028242948 0.028116756 2.4971669e-21)
(-0.033657973 0.029190229 1.0446188e-21)
(-0.03982169 0.030051274 -3.4534987e-21)
(-0.046776921 0.030688347 1.261788e-20)
(-0.054560523 0.031102719 1.8979209e-21)
(-0.063201557 0.031308466 -1.0059875e-20)
(-0.072727461 0.031328207 1.1430519e-20)
(-0.083164088 0.031188206 -1.6182834e-21)
(-0.094537562 0.030911607 -1.5852112e-20)
(-0.10687058 0.030515824 1.6838172e-21)
(-0.12017533 0.030012131 1.2929388e-20)
(-0.13446044 0.029408529 3.0538966e-22)
(-0.14972453 0.028712754 -9.8943403e-21)
(-0.16595606 0.027931683 1.1190732e-20)
(-0.18313073 0.027068391 -5.0799135e-21)
(-0.20120658 0.026119773 6.0833942e-21)
(-0.22011643 0.025076213 1.9377944e-20)
(-0.23975861 0.02392302 4.3275716e-21)
(-0.25998694 0.022643322 1.6970271e-20)
(-0.28060121 0.021221281 -2.1770295e-20)
(-0.30133815 0.019643818 -1.9825083e-20)
(-0.32186151 0.017900614 -3.3100965e-21)
(-0.34175613 0.015983348 2.6672651e-20)
(-0.36052622 0.013888082 -1.2301003e-20)
(-0.37759961 0.011624736 -4.1744389e-21)
(-0.39237518 0.0092188443 2.2533119e-21)
(-0.40428628 0.0066953585 6.810429e-21)
(-0.41278394 0.0040887902 -3.2843001e-21)
(-0.41737726 0.0014579561 5.8427718e-21)
(-0.4176689 -0.0011648284 3.4898745e-20)
(-0.41334632 -0.0037829035 1.6672829e-21)
(-0.40408203 -0.0064468065 -7.4800681e-21)
(-0.38959191 -0.0092592901 1.6666199e-20)
(-0.36940653 -0.012352526 -1.4345675e-20)
(-0.34312771 -0.0159186 4.1206666e-20)
(-0.30972902 -0.020207337 1.1901837e-20)
(-0.26833336 -0.025538361 -3.4398478e-20)
(-0.21598921 -0.032017356 5.9113459e-21)
(-0.15110086 -0.037990161 7.0078027e-21)
(-0.071121297 -0.039940923 1.4598586e-21)
(0.019021227 -0.037545995 -1.986263e-20)
(0.12325218 -0.032016618 4.0102911e-20)
(0.22477328 -0.025708483 1.223847e-20)
(0.33715585 -0.021050076 2.096205e-20)
(-4.1082878e-05 0.00058691144 1.017499e-21)
(-0.00013866924 0.0018087277 -5.2208145e-22)
(-0.00026144171 0.0031469291 -1.3887996e-22)
(-0.00041654734 0.0046092821 1.3183203e-22)
(-0.00061071473 0.0062033899 -6.3903129e-22)
(-0.00085282589 0.0079362251 -4.7393855e-23)
(-0.001153684 0.0098137939 -6.0826988e-22)
(-0.0015262235 0.011840677 -6.5621762e-22)
(-0.0019858587 0.014019509 5.3778377e-21)
(-0.0025509209 0.016350312 -4.8133816e-21)
(-0.0032430313 0.018829745 2.3105772e-21)
(-0.0040875091 0.02145024 3.3967862e-21)
(-0.0051137467 0.024199081 -6.7676577e-21)
(-0.0063555281 0.027057446 -8.4112494e-22)
(-0.0078512414 0.029999508 3.273094e-21)
(-0.0096439314 0.032991696 2.2661472e-21)
(-0.011781123 0.035992295 -2.6510392e-21)
(-0.014314354 0.038951574 9.6897052e-21)
(-0.017298357 0.041812718 -5.7954008e-21)
(-0.020789857 0.044513796 2.8979071e-21)
(-0.024846026 0.046990983 -9.9147756e-21)
(-0.029522676 0.049183079 -2.616198e-21)
(-0.034872385 0.051037123 5.5458045e-21)
(-0.040942917 0.052514441 -8.4721285e-21)
(-0.047776803 0.053596091 -3.3760353e-21)
(-0.055411636 0.054286388 4.1560079e-21)
(-0.063877049 0.054612673 2.3897173e-20)
(-0.073201298 0.054617528 1.0945887e-20)
(-0.083410511 0.054348036 -5.6139563e-21)
(-0.094530023 0.05384444 6.007966e-21)
(-0.10658203 0.053138004 -3.9035656e-21)
(-0.11957676 0.052250867 -2.2113175e-20)
(-0.13352075 0.051199399 7.5167381e-21)
(-0.14840964 0.049998485 2.2698513e-20)
(-0.1642279 0.048660686 -7.7800671e-21)
(-0.18094584 0.047191826 -1.0927511e-20)
(-0.19851463 0.045586888 1.9106736e-20)
(-0.21685849 0.043829166 5.8258297e-21)
(-0.23586521 0.041892644 -1.0551915e-20)
(-0.25537603 0.039746054 -4.2698955e-21)
(-0.27517555 0.037357484 2.0359199e-20)
(-0.29498143 0.034696872 -5.8558988e-21)
(-0.3144331 0.031736871 -8.3627837e-21)
(-0.33308505 0.028454198 -2.1979409e-20)
(-0.35040338 0.024836636 4.151079e-20)
(-0.36577812 0.020901664 -2.648715e-20)
(-0.37858856 0.016709476 -6.501648e-21)
(-0.38823131 0.012329378 -2.5789709e-20)
(-0.39414666 0.007823696 -3.0624489e-20)
(-0.39586424 0.0032971036 -1.5322725e-21)
(-0.39302671 -0.0011728951 6.4031654e-21)
(-0.38536263 -0.0055800896 -4.7609903e-20)
(-0.37258555 -0.0099954269 -2.0362056e-20)
(-0.35441855 -0.014551497 -2.1071703e-20)
(-0.33041444 -0.019424383 -6.9505358e-21)
(-0.30014588 -0.024883563 -5.4900708e-20)
(-0.26256188 -0.031303129 2.2009213e-20)
(-0.21669528 -0.039255941 -6.8960426e-21)
(-0.15915755 -0.049012051 -5.7901008e-20)
(-0.089185652 -0.058653583 -2.3643964e-20)
(-0.0047523822 -0.063880431 2.9268833e-20)
(0.088143134 -0.064337513 1.0397517e-19)
(0.19383834 -0.060049226 -3.4472645e-20)
(0.29486864 -0.05408699 -5.6591451e-20)
(0.4064255 -0.048031567 -2.4916657e-20)
(-8.1144816e-05 0.00082518161 -3.3886532e-21)
(-0.00026110725 0.0025434175 3.7343656e-21)
(-0.0004729914 0.0044257943 -1.3509738e-21)
(-0.00072387003 0.0064834441 1.4700969e-22)
(-0.0010205927 0.0087272481 -2.9073198e-21)
(-0.0013719413 0.011167245 3.0120265e-21)
(-0.0017884253 0.01381218 -4.5740486e-21)
(-0.002282455 0.016668877 2.1570412e-21)
(-0.0028686667 0.01974149 8.2145883e-21)
(-0.0035642683 0.023030575 -1.9816426e-21)
(-0.0043893974 0.026532007 -7.5676643e-21)
(-0.0053674273 0.030235792 2.3207171e-21)
(-0.0065253384 0.034124749 1.5678907e-22)
(-0.007893986 0.038173121 -6.1349723e-21)
(-0.0095082975 0.042345251 1.9334508e-20)
(-0.011407353 0.046594473 -1.197142e-20)
(-0.013634276 0.05086243 -1.1490564e-22)
(-0.016235879 0.055079133 6.7620305e-21)
(-0.019262032 0.059164135 -1.7394021e-20)
(-0.022764708 0.063029155 8.3329093e-21)
(-0.026796715 0.066582538 1.2626798e-20)
(-0.03141021 0.069735637 5.1929288e-21)
(-0.036655106 0.072410849 -2.6221093e-20)
(-0.042577631 0.074550505 -1.3955694e-20)
(-0.049219772 0.076124996 9.2410028e-21)
(-0.056619939 0.077138199 -5.467977e-21)
(-0.064808925 0.077627936 2.0997261e-20)
(-0.073816165 0.07765613 -6.1401828e-21)
(-0.083667779 0.077289903 1.6899758e-20)
(-0.094388442 0.076587883 -9.7621124e-21)
(-0.10599976 0.075595726 6.1092151e-21)
(-0.11850905 0.074347089 -2.2928954e-20)
(-0.13191959 0.072867108 3.3745651e-21)
(-0.14622267 0.071177707 -1.7935216e-20)
(-0.16139692 0.069297038 1.7493839e-20)
(-0.1774049 0.067233709 5.5815835e-21)
(-0.19418764 0.064980923 -7.1843737e-20)
(-0.21165666 0.062515019 -1.8864511e-20)
(-0.22968435 0.059798496 1.5850728e-20)
(-0.24809367 0.056785455 -1.5661802e-20)
(-0.26664736 0.053427187 3.9787547e-21)
(-0.28503624 0.049675499 2.5297467e-20)
(-0.3028672 0.045484797 -1.1974852e-21)
(-0.31965636 0.040816758 -8.2942526e-21)
(-0.33482767 0.035653826 4.1255483e-21)
(-0.34774312 0.030028802 -1.7916933e-21)
(-0.35777872 0.024034316 -5.5766826e-21)
(-0.36431196 0.017786358 8.7284935e-20)
(-0.36680992 0.011402854 -9.6364034e-21)
(-0.36486132 0.0050406924 8.8681524e-21)
(-0.35817779 -0.0011912207 -8.2921455e-20)
(-0.34653608 -0.0072816934 4.5465197e-20)
(-0.32967697 -0.013323451 3.7297931e-20)
(-0.30732415 -0.019485844 3.5821406e-20)
(-0.27900561 -0.025997577 3.4814725e-20)
(-0.24426827 -0.033220468 5.5419119e-20)
(-0.20193968 -0.041662066 -1.122442e-19)
(-0.15079652 -0.052220606 7.0363282e-20)
(-0.087011705 -0.06512833 1.0971925e-19)
(-0.011205252 -0.078135339 -8.2634705e-20)
(0.078214015 -0.086175031 -2.7435732e-20)
(0.17385359 -0.088897918 -2.5001292e-20)
(0.27992643 -0.085281351 1.3045633e-19)
(0.37887736 -0.079364491 9.7929691e-20)
(0.4865454 -0.071618311 -4.5151396e-21)
(-0.00013276147 0.0010414115 2.3685438e-21)
(-0.00041889017 0.0032107304 -5.4284594e-21)
(-0.00074564115 0.005588292 4.4283632e-21)
(-0.0011199996 0.0081885454 -1.6748075e-21)
(-0.0015489974 0.011025651 -6.055279e-22)
(-0.0020412856 0.014112828 5.2176378e-21)
(-0.0026070093 0.017461778 -1.324372e-21)
(-0.0032579277 0.021081923 -2.8164705e-21)
(-0.0040076862 0.024979452 -2.1686782e-22)
(-0.0048720786 0.02915619 -1.8460695e-21)
(-0.0058693255 0.033608247 2.5942715e-21)
(-0.0070203315 0.038324497 -1.8119137e-21)
(-0.0083489627 0.043284861 -6.7111118e-21)
(-0.0098822923 0.048458501 -1.9497224e-22)
(-0.011650757 0.053802062 5.2096926e-21)
(-0.013688262 0.059258116 3.7246917e-21)
(-0.016032142 0.064754089 -3.2393475e-21)
(-0.018722952 0.070202084 3.1802096e-22)
(-0.021804057 0.075500015 6.4993321e-21)
(-0.025320978 0.080534649 8.0424009e-21)
(-0.029320512 0.08518693 -9.3479899e-21)
(-0.033849648 0.089339941 -9.5919494e-21)
(-0.038954378 0.092889198 1.317784e-20)
(-0.044678526 0.095754357 -1.6641581e-20)
(-0.051063075 0.097890399 -2.9405501e-20)
(-0.058146729 0.099295554 7.0836367e-20)
(-0.065962744 0.10001337 -3.9793329e-20)
(-0.074541287 0.10012264 5.9984651e-20)
(-0.08390807 0.099710258 -7.6325373e-20)
(-0.094088483 0.098855516 8.6604891e-20)
(-0.10510257 0.097618266 -9.0972123e-20)
(-0.1169546 0.096044551 1.5613894e-20)
(-0.1296434 0.094169107 5.4407624e-20)
(-0.14315498 0.092020964 -3.1127609e-20)
(-0.15746079 0.089623785 9.8841648e-21)
(-0.17251377 0.08698886 2.9732079e-21)
(-0.18824246 0.084107729 3.6293621e-20)
(-0.20454291 0.080950007 1.1841342e-20)
(-0.22126911 0.077466923 1.1903761e-20)
(-0.23822259 0.073597737 1.2010466e-20)
(-0.2551407 0.069276173 -6.1344775e-20)
(-0.27168391 0.064434606 2.6897413e-20)
(-0.28742437 0.059008507 4.0860292e-21)
(-0.30184067 0.052945595 -4.8646909e-20)
(-0.31432392 0.046228732 -2.428205e-20)
(-0.32423097 0.038915913 1.1949754e-20)
(-0.33095485 0.031142997 4.2378417e-20)
(-0.3339061 0.023068242 -1.8420859e-20)
(-0.3326033 0.014873597 5.2627266e-20)
(-0.32670317 0.0067704536 2.8321925e-20)
(-0.31596425 -0.0011043691 3.8970307e-20)
(-0.30018491 -0.0087501044 1.0374255e-19)
(-0.2790922 -0.016294835 -8.0451877e-20)
(-0.25235435 -0.023951202 2.5973544e-20)
(-0.21943506 -0.031994086 -4.5710096e-20)
(-0.17979913 -0.040881105 -4.3855007e-20)
(-0.13205857 -0.051294087 -1.721336e-20)
(-0.074675335 -0.064470797 -1.6255893e-19)
(-0.0037153962 -0.080338444 -4.5089601e-20)
(0.07881255 -0.096235672 1.062224e-19)
(0.17333038 -0.10638962 4.1570282e-20)
(0.27127655 -0.11060664 -3.2589983e-20)
(0.37640824 -0.10706354 -6.9592908e-20)
(0.47191281 -0.10061309 -1.0985549e-19)
(0.57270529 -0.090823548 8.85734e-21)
(-0.00019326173 0.0012275809 7.1524414e-21)
(-0.00060389242 0.0037860633 1.7351626e-21)
(-0.0010654076 0.0065917879 -1.4068848e-21)
(-0.0015847143 0.0096624181 -5.1971203e-21)
(-0.0021690819 0.013015342 2.8500934e-21)
(-0.0028270391 0.016667035 -4.1080063e-21)
(-0.0035683389 0.020632381 1.7804795e-21)
(-0.0044040266 0.02492381 4.24858e-22)
(-0.0053466308 0.029550205 -2.4116195e-21)
(-0.0064103357 0.034515583 -5.2141502e-21)
(-0.0076111684 0.039817524 -2.6137461e-22)
(-0.0089671836 0.045445354 8.651725e-21)
(-0.010498645 0.051378104 -1.2040629e-20)
(-0.012228193 0.057582302 1.9593623e-20)
(-0.014180982 0.064009737 -5.1679804e-21)
(-0.016384772 0.070595379 1.1094273e-20)
(-0.018869955 0.077255819 -1.3592569e-20)
(-0.021669486 0.083888595 8.9585623e-21)
(-0.024818713 0.09037304 -1.4426596e-21)
(-0.028355069 0.096573287 -5.9581754e-21)
(-0.032317621 0.10234406 1.4782443e-20)
(-0.036746503 0.10753973 -2.1350239e-20)
(-0.041682234 0.11202654 2.3778197e-20)
(-0.047164977 0.11569707 4.1608222e-21)
(-0.053233882 0.11848475 -4.2116449e-20)
(-0.059927158 0.12037511 4.360839e-20)
(-0.067281063 0.12141014 -2.9067042e-20)
(-0.075326073 0.12167991 3.3312679e-20)
(-0.084088867 0.12129291 3.1455967e-21)
(-0.093595502 0.12034992 1.9816139e-21)
(-0.10386309 0.1189254 -1.4090424e-20)
(-0.11489459 0.11707894 8.9190749e-22)
(-0.12668274 0.11485619 -5.4785553e-20)
(-0.13920782 0.1122936 1.5148457e-20)
(-0.15243311 0.10942023 4.5676832e-20)
(-0.16630083 0.10625004 -2.1656932e-20)
(-0.18072581 0.10277328 1.8074317e-20)
(-0.19558741 0.098953453 -1.8222088e-20)
(-0.21072005 0.09473095 -1.0242459e-19)
(-0.2259026 0.090030093 5.692897e-20)
(-0.24084611 0.084766264 1.3900178e-20)
(-0.25518115 0.07885185 -7.8702922e-20)
(-0.26844888 0.072203977 4.7597459e-21)
(-0.28010005 0.06475982 9.6723685e-21)
(-0.28951405 0.056510744 1.0180782e-19)
(-0.29607983 0.047549682 2.3284802e-20)
(-0.29922298 0.038060259 -3.6038698e-20)
(-0.29842714 0.02823997 -3.6369084e-20)
(-0.29325991 0.018334252 -5.0971948e-20)
(-0.28340985 0.0085998819 -6.2100688e-20)
(-0.26863192 -0.00080573713 -3.7554998e-20)
(-0.24871465 -0.0098978332 -5.8621786e-20)
(-0.22332649 -0.01884627 2.0113726e-20)
(-0.19204838 -0.027905883 -1.2410016e-19)
(-0.15423299 -0.037396697 -8.2789015e-21)
(-0.10915965 -0.04788701 -7.29921e-21)
(-0.055179836 -0.060234827 -3.8793504e-21)
(0.0097384733 -0.075946879 1.7448788e-19)
(0.088849411 -0.094476576 7.0315738e-20)
(0.17867785 -0.11262578 -1.1168148e-19)
(0.27792429 -0.12406803 -1.6728813e-19)
(0.37733619 -0.1288248 -7.7667987e-20)
(0.47995868 -0.1246571 -2.6235776e-20)
(0.57019526 -0.11708575 1.5652877e-19)
(0.66151673 -0.10474424 -4.0534124e-20)
(-0.00025908258 0.0013765457 -1.3372528e-21)
(-0.00080540083 0.0042474112 -2.9082892e-21)
(-0.0014137661 0.0073980704 7.025003e-21)
(-0.0020912002 0.010849189 -2.6189199e-22)
(-0.0028452095 0.014621275 -3.4283417e-21)
(-0.0036842444 0.018734081 -1.513168e-21)
(-0.0046176917 0.023205862 -1.1193429e-21)
(-0.0056558868 0.028052457 2.2112977e-21)
(-0.0068102147 0.03328611 -1.1480799e-20)
(-0.0080931906 0.038914029 8.697352e-21)
(-0.0095185464 0.044936655 -4.2172148e-22)
(-0.01110131 0.051345624 -5.3158221e-21)
(-0.012857889 0.058121431 2.0025922e-20)
(-0.014806144 0.065230851 -2.0124244e-20)
(-0.01696546 0.072624243 2.7107145e-21)
(-0.019356813 0.080232916 1.695009e-20)
(-0.022002825 0.087966899 -1.6163014e-20)
(-0.024927818 0.095713609 5.746746e-21)
(-0.028157853 0.10333802 -1.1358495e-20)
(-0.031720774 0.11068519 1.4878795e-20)
(-0.035646222 0.1175859 2.8561677e-20)
(-0.039965635 0.12386625 -2.8962418e-20)
(-0.044712193 0.1293612 -4.3450953e-20)
(-0.049920653 0.13393154 8.5929165e-20)
(-0.055626984 0.13748186 -7.0587378e-20)
(-0.06186804 0.13997599 4.1908364e-20)
(-0.068681521 0.14144474 -1.1066858e-20)
(-0.076100264 0.14198131 2.6630392e-20)
(-0.084152624 0.14171504 -2.7878278e-20)
(-0.092862583 0.14076802 -3.8130217e-20)
(-0.10224675 0.13923325 2.5864043e-20)
(-0.1123077 0.13718414 4.3320527e-20)
(-0.12303079 0.13467843 -3.923773e-21)
(-0.13439035 0.13176113 -1.6673012e-21)
(-0.14634099 0.12846692 -2.9164124e-20)
(-0.15881385 0.1248128 1.2772772e-20)
(-0.1717099 0.12078845 4.7312496e-20)
(-0.18489175 0.11635206 2.3916998e-20)
(-0.19817425 0.11143368 -3.6981937e-20)
(-0.21131389 0.10594274 2.9467962e-20)
(-0.22399669 0.099776214 -2.4920603e-20)
(-0.23582715 0.09282709 8.4938783e-21)
(-0.24632397 0.084996588 3.1638059e-20)
(-0.25492697 0.076217781 -7.5169647e-20)
(-0.26103307 0.066500952 -4.4380969e-20)
(-0.26409389 0.05597871 -2.8478723e-20)
(-0.263594 0.044876063 8.8119054e-20)
(-0.25908552 0.033425445 5.6430145e-20)
(-0.25014835 0.021913419 6.537987e-20)
(-0.23643907 0.010639164 1.1283257e-19)
(-0.21767966 -0.00021256484 -3.8558471e-20)
(-0.19362811 -0.010672693 8.1129649e-21)
(-0.16385849 -0.020959607 6.4388547e-20)
(-0.127848 -0.031375563 1.8983381e-19)
(-0.084764203 -0.042285902 1.2638196e-19)
(-0.033654287 -0.054373713 5.0472923e-20)
(0.027580892 -0.06869472 1.5009917e-19)
(0.10125109 -0.086809226 -1.038862e-19)
(0.18927802 -0.10750669 1.1035135e-20)
(0.28631891 -0.12703553 1.8000176e-19)
(0.38928687 -0.13875788 1.2726743e-19)
(0.4891225 -0.1430592 6.0776968e-21)
(0.58733581 -0.1375914 -2.1980495e-19)
(0.67001756 -0.12832424 2.3637793e-20)
(0.74947609 -0.11313041 -3.497685e-20)
(-0.0003259962 0.0014824665 -5.2224174e-21)
(-0.0010105032 0.0045767067 2.3985535e-21)
(-0.0017684487 0.0079756318 -3.2426674e-21)
(-0.002607161 0.011702593 -1.8447364e-21)
(-0.0035343878 0.015781023 5.1549246e-21)
(-0.0045585704 0.020233873 4.8195757e-21)
(-0.005688801 0.025082874 -4.9558881e-21)
(-0.0069347827 0.030347604 5.9739671e-22)
(-0.008306839 0.036044282 1.3877634e-22)
(-0.0098158996 0.042184286 9.9068068e-21)
(-0.011473478 0.048772333 -1.093272e-21)
(-0.013291639 0.055804291 -2.0188812e-20)
(-0.015282964 0.063264641 1.625474e-20)
(-0.017460512 0.071123586 -5.6616293e-22)
(-0.019837799 0.079333923 -1.1101212e-20)
(-0.022428791 0.087827833 -9.6793692e-22)
(-0.025247949 0.096513913 2.4963773e-21)
(-0.028310345 0.10527495 1.1438775e-20)
(-0.031631864 0.11396707 -2.1350849e-20)
(-0.035229539 0.1224213 3.8332405e-20)
(-0.039122026 0.13044834 -8.4700924e-21)
(-0.043330179 0.13784789 6.3648321e-21)
(-0.047877704 0.14442276 -5.3917931e-21)
(-0.052791725 0.14999765 2.164412e-22)
(-0.058103028 0.15444057 -3.3584431e-20)
(-0.063845777 0.15768294 -3.4355504e-20)
(-0.070056786 0.15973269 6.9670755e-20)
(-0.07677301 0.16067432 1.1847776e-20)
(-0.084024055 0.16064854 -4.225285e-20)
(-0.0918312 0.15980461 -1.5328845e-20)
(-0.1002124 0.15825931 -3.5186007e-20)
(-0.10916943 0.15609711 4.0516339e-20)
(-0.1186826 0.15339014 1.7993122e-20)
(-0.12871846 0.15019426 -4.2522177e-20)
(-0.13922312 0.14655038 1.8171982e-20)
(-0.150117 0.14247948 8.5454476e-21)
(-0.16128768 0.13797169 -2.6084581e-20)
(-0.17258162 0.13298096 -6.8708171e-20)
(-0.18379481 0.12742781 -2.0952507e-20)
(-0.19466248 0.12120736 1.4133345e-20)
(-0.20484826 0.11419911 3.3581347e-20)
(-0.21393655 0.10627893 3.4594858e-20)
(-0.22143488 0.097337072 3.8088999e-20)
(-0.22679121 0.087310783 7.9331219e-20)
(-0.2294488 0.076238851 -2.1314331e-21)
(-0.22893264 0.064295483 3.2877117e-20)
(-0.22479838 0.051729098 -1.7497843e-19)
(-0.21662352 0.038787693 -4.7851954e-20)
(-0.20394487 0.025778403 -5.409087e-20)
(-0.18637532 0.013047982 -1.4836217e-19)
(-0.16362169 0.00082129035 1.7210684e-19)
(-0.13538689 -0.01095231 -3.8286493e-20)
(-0.10112399 -0.022542183 -1.2325811e-19)
(-0.060151688 -0.034299964 -1.5252283e-19)
(-0.011371555 -0.046640264 -1.9669539e-20)
(0.046479154 -0.060384287 4.9934463e-20)
(0.11601484 -0.076712379 8.2057316e-20)
(0.19921394 -0.09702193 -3.5379317e-20)
(0.29628112 -0.11918593 6.5941026e-20)
(0.39992515 -0.13904543 -5.6814329e-20)
(0.50552663 -0.15010242 -1.9996345e-20)
(0.60409863 -0.15292184 -6.126648e-20)
(0.69546684 -0.14537042 2.7422727e-19)
(0.76789711 -0.13401305 9.4414784e-21)
(0.83291862 -0.1158154 1.1434967e-19)
(-0.00038935143 0.0015412957 4.8504081e-21)
(-0.001204856 0.004761361 8.7987752e-22)
(-0.0021047439 0.0083023458 -9.677153e-22)
(-0.0030966905 0.012189883 -4.7606557e-21)
(-0.0041887371 0.016449998 5.7162454e-21)
(-0.0053893947 0.021108641 -4.8612796e-21)
(-0.0067075672 0.026190975 -2.327224e-21)
(-0.0081524665 0.031720494 1.2523241e-22)
(-0.0097335337 0.037717862 1.9750691e-21)
(-0.011460331 0.044199454 1.1269195e-20)
(-0.013342415 0.051175533 -1.9000821e-20)
(-0.015389185 0.058648035 2.294651e-20)
(-0.017609722 0.066607904 -6.7814392e-21)
(-0.020012623 0.075031997 -9.2715535e-21)
(-0.022605847 0.083879597 1.435004e-20)
(-0.025396602 0.093088667 -2.8594943e-20)
(-0.028391321 0.10257212 3.5102902e-20)
(-0.031595745 0.11221454 5.5770885e-22)
(-0.035015214 0.12187005 2.0781373e-20)
(-0.038655194 0.13136231 -8.4162819e-20)
(-0.042522105 0.14048784 2.0841561e-20)
(-0.046624461 0.14902397 8.8285816e-20)
(-0.050974234 0.15674253 -4.2834232e-20)
(-0.055588276 0.16342943 -5.2443982e-20)
(-0.060489436 0.16890885 1.3556056e-20)
(-0.065706876 0.17306833 7.2681006e-20)
(-0.071275132 0.17587848 -1.1298032e-19)
(-0.077231586 0.17739987 1.2822546e-19)
(-0.083610606 0.17776922 -1.0319014e-19)
(-0.090434318 0.17715934 2.0182522e-20)
(-0.097714556 0.17572245 -3.5219791e-20)
(-0.10545472 0.17356144 -5.1010833e-20)
(-0.11363514 0.17075477 2.0575469e-20)
(-0.12221338 0.16737222 5.4610887e-21)
(-0.13112793 0.16346526 7.8264869e-20)
(-0.14028819 0.15906035 -1.5528617e-20)
(-0.14956906 0.15414925 4.0070417e-20)
(-0.15880155 0.14868288 -3.4177629e-20)
(-0.16776362 0.14257346 2.0606659e-20)
(-0.17617058 0.13570308 1.3390822e-20)
(-0.18366668 0.12793608 1.1475917e-20)
(-0.18982258 0.1191354 1.1415429e-20)
(-0.19414562 0.10918729 -6.9246542e-20)
(-0.19610674 0.098042339 -5.3973419e-20)
(-0.195213 0.085773881 1.5166e-20)
(-0.19104703 0.072593839 -9.410444e-21)
(-0.18321882 0.058749567 3.9122661e-20)
(-0.17127699 0.044479721 -7.6383006e-20)
(-0.15471984 0.030105117 -8.7813985e-20)
(-0.13318392 0.016028118 -2.5193721e-20)
(-0.10637991 0.0025075499 -6.6085935e-20)
(-0.073903992 -0.010529805 2.111633e-21)
(-0.035024778 -0.023408074 3.1991508e-20)
(0.011188842 -0.036539206 1.5564609e-19)
(0.066159377 -0.050376751 -7.8507898e-20)
(0.13152928 -0.065888223 3.2027779e-20)
(0.21020545 -0.084219549 -9.5700876e-20)
(0.30341315 -0.10631616 1.6446067e-19)
(0.40945264 -0.129122 -9.6695502e-20)
(0.51898182 -0.14813799 3.4770451e-20)
(0.6256194 -0.15734756 -3.5596719e-23)
(0.72012336 -0.15773943 2.9078261e-20)
(0.80138574 -0.14757152 1.1184941e-19)
(0.86036827 -0.13402486 -2.1426876e-19)
(0.90834693 -0.11331136 2.2411612e-19)
(-0.0004443507 0.0015512183 -1.0719021e-20)
(-0.0013737539 0.0047955695 -4.9680799e-21)
(-0.0023972202 0.0083677614 7.8065187e-21)
(-0.0035227839 0.012295183 -2.056972e-22)
(-0.0047588155 0.016605986 -7.0762246e-21)
(-0.0061139723 0.021328743 -3.7063394e-21)
(-0.0075970957 0.026491816 7.8302955e-21)
(-0.0092170901 0.032122571 -1.2887811e-21)
(-0.010982765 0.038246324 1.8238708e-20)
(-0.012902646 0.044884992 -3.570082e-21)
(-0.01498475 0.052055365 -9.1670145e-23)
(-0.01723632 0.059766954 1.3280381e-20)
(-0.019663539 0.068019349 -4.2892685e-20)
(-0.02227122 0.07679903 2.0175189e-20)
(-0.025062506 0.086075671 3.6554773e-20)
(-0.028038604 0.095797955 -3.9481222e-20)
(-0.031198615 0.10588913 4.9323511e-21)
(-0.034539512 0.11624265 -2.8558371e-20)
(-0.038056379 0.1267186 -2.1658633e-20)
(-0.041742993 0.13714168 6.9739214e-20)
(-0.045592849 0.14730239 -5.3718585e-20)
(-0.049600733 0.15696258 7.2667245e-20)
(-0.053764736 0.16586737 -8.7967952e-21)
(-0.058088597 0.17376409 3.6952236e-20)
(-0.062583865 0.18042798 -8.2731146e-20)
(-0.067271285 0.18569166 2.0145269e-20)
(-0.072180494 0.18947236 5.219732e-20)
(-0.077347285 0.19178805 -1.2936818e-19)
(-0.082807751 0.19275305 5.7576634e-20)
(-0.088589784 0.19254601 6.3221431e-20)
(-0.094703513 0.19135384 -5.33588e-20)
(-0.10114365 0.18931944 -7.1917573e-21)
(-0.10789356 0.18653864 3.7115307e-20)
(-0.1149089 0.1830854 -2.0900823e-20)
(-0.12211712 0.17901959 3.2548536e-20)
(-0.12941977 0.17437796 -1.1625056e-19)
(-0.13667978 0.16915721 6.1848089e-20)
(-0.14371267 0.16330748 3.7635859e-20)
(-0.15027842 0.15673461 7.7882311e-20)
(-0.15607349 0.14930996 1.0253336e-20)
(-0.16072573 0.14088616 -8.4507198e-20)
(-0.1637975 0.13131874 3.405359e-20)
(-0.16480381 0.12049755 5.0143587e-20)
(-0.1632463 0.10839482 7.8976331e-21)
(-0.15869158 0.095117971 -4.7775097e-20)
(-0.15075416 0.080905066 -4.156712e-20)
(-0.13906241 0.065985373 1.248942e-19)
(-0.12312809 0.050578177 6.5387088e-20)
(-0.10250411 0.035021478 1.4049817e-19)
(-0.076909283 0.019761915 4.896561e-20)
(-0.04602059 0.0050644011 1.8887274e-20)
(-0.0092434708 -0.0091868576 1.3936349e-19)
(0.034434032 -0.023369056 5.4890232e-20)
(0.086278851 -0.037932721 -1.8535856e-19)
(0.14806911 -0.053362597 1.4987731e-19)
(0.2218 -0.07069905 -1.3923903e-19)
(0.31057848 -0.090858047 6.7838107e-20)
(0.41486936 -0.11406512 -3.3368324e-19)
(0.52997673 -0.13639256 -1.7071454e-19)
(0.64395979 -0.153326 7.1286807e-20)
(0.74855725 -0.15968426 1.1432115e-19)
(0.83462762 -0.15693842 1.9488696e-19)
(0.90130062 -0.14407455 3.5281398e-20)
(0.94289233 -0.12876855 2.7635718e-20)
(0.97138024 -0.10642001 -2.9959137e-19)
(-0.00048650102 0.0015130314 -1.9247944e-22)
(-0.0015033953 0.004681497 9.1823351e-21)
(-0.0026219578 0.0081751714 -1.083466e-20)
(-0.0038505563 0.012022556 -5.2199551e-21)
(-0.0051978932 0.01625331 1.0469123e-20)
(-0.0066728294 0.02089807 3.3967992e-21)
(-0.0082842621 0.025987926 -1.6508455e-20)
(-0.010040983 0.031553786 1.7811403e-20)
(-0.011951458 0.037625485 3.7695151e-21)
(-0.014023575 0.044230616 1.5054237e-20)
(-0.016264333 0.051392999 -4.0166277e-20)
(-0.018679484 0.059130703 -4.9327295e-22)
(-0.021273129 0.067453563 3.6543789e-20)
(-0.024047265 0.076360063 -3.956547e-20)
(-0.027001332 0.085833605 2.8618702e-20)
(-0.030131756 0.095838065 1.074265e-20)
(-0.033431582 0.10631282 -2.2771567e-20)
(-0.036890251 0.11716742 2.0901121e-20)
(-0.040493654 0.12827648 2.8361351e-20)
(-0.044224575 0.13947562 -6.1715605e-22)
(-0.04806374 0.15055975 -4.6807052e-20)
(-0.051991528 0.16128551 2.9680979e-20)
(-0.0559905 0.17137977 -1.6981024e-20)
(-0.060048507 0.18055607 -8.4440155e-20)
(-0.064162059 0.18853981 -2.8967768e-20)
(-0.068339117 0.19510045 8.0895568e-20)
(-0.072600155 0.20008585 -8.284844e-21)
(-0.076976284 0.20344957 9.5974351e-20)
(-0.081503407 0.20525978 -5.8217582e-20)
(-0.08621247 0.20567861 3.1409089e-20)
(-0.091118518 0.2049116 -4.6592817e-20)
(-0.09621641 0.20314761 -1.1574436e-20)
(-0.10147845 0.20052071 5.9622982e-20)
(-0.10685516 0.19712023 -6.2817529e-20)
(-0.11227466 0.19301627 -9.3636598e-20)
(-0.11762996 0.18825299 9.8527193e-21)
(-0.12277156 0.18283183 1.0520612e-19)
(-0.12750069 0.17670408 -1.3683136e-19)
(-0.13155981 0.16977243 3.0047285e-20)
(-0.13462797 0.16190152 -6.474583e-20)
(-0.13631963 0.15293715 1.0010305e-20)
(-0.13619355 0.14273334 -1.0216385e-19)
(-0.13377656 0.13118991 -4.9025661e-20)
(-0.12860368 0.11830307 -6.0362798e-20)
(-0.12027346 0.10421289 2.4183129e-19)
(-0.10842168 0.08916807 7.7999388e-20)
(-0.092673873 0.073380078 -1.0323232e-19)
(-0.07256683 0.05705565 8.3231407e-20)
(-0.04779113 0.040548287 6.8970367e-20)
(-0.018122137 0.024306535 -7.7374517e-20)
(0.016887703 0.0085554999 -4.0263863e-20)
(0.058125181 -0.0068836064 -9.4114243e-20)
(0.10698287 -0.022402135 -4.5672911e-20)
(0.16510576 -0.038464344 1.565675e-19)
(0.23462274 -0.055540165 8.8674875e-20)
(0.31821359 -0.074637988 1.4341619e-20)
(0.41941835 -0.096219961 -4.2156013e-22)
(0.53641891 -0.11950745 8.2111045e-20)
(0.65965631 -0.13996046 -1.2310991e-19)
(0.77439678 -0.15342188 -1.6275078e-19)
(0.87115048 -0.1560878 -4.6444817e-20)
(0.94188413 -0.15028633 -3.6072354e-19)
(0.98734155 -0.13557535 -2.9235975e-19)
(1.0071928 -0.11975635 -7.5303124e-20)
(1.0151874 -0.098018305 -4.0766278e-20)