/*--------------------------------*- C++ -*----------------------------------*\
  =========                 |
  \\      /  F ield         | OpenFOAM: The Open Source CFD Toolbox
   \\    /   O peration     | Website:  https://openfoam.org
    \\  /    A nd           | Version:  13
     \\/     M anipulation  |
\*---------------------------------------------------------------------------*/
FoamFile
{
    format      ascii;
    class       volScalarField;
    location    "9.802385";
    object      pMean;
}
// * * * * * * * * * * * * * * * * * * * * * * * * * * * * * * * * * * * * * //

dimensions      [0 2 -2 0 0 0 0];

internalField   nonuniform List<scalar> 
17140
(
4.8226051
4.8224263
4.8222102
4.821991
4.821754
4.8214961
4.8212169
4.820916
4.8205928
4.8202467
4.8198777
4.8194852
4.819069
4.8186281
4.8181605
4.8176625
4.8171277
4.8165453
4.8158985
4.8151628
4.8143032
4.8132714
4.812004
4.8104183
4.8084084
4.8058587
4.8026916
4.7988336
4.7941172
4.7883273
4.781259
4.7726849
4.7623532
4.7499938
4.7353215
4.7180462
4.6978886
4.6746089
4.6480484
4.618191
4.5852451
4.5497411
4.5126569
4.4755271
4.4404544
4.410108
4.3874036
4.3749907
4.3752323
4.3897249
4.4189782
4.4625819
4.5189018
4.5859053
4.6601333
4.7362654
4.8082515
4.8684676
4.908936
4.9238757
4.9144362
4.8848069
4.8443489
4.7964252
4.7486701
4.8195678
4.8193929
4.8191818
4.8189672
4.8187353
4.8184828
4.8182094
4.8179148
4.8175981
4.8172592
4.8168977
4.8165134
4.8161059
4.8156744
4.8152169
4.8147299
4.8142073
4.8136383
4.8130067
4.8122881
4.8114477
4.8104379
4.809195
4.8076371
4.8056586
4.803142
4.8000075
4.7961822
4.7915014
4.7857484
4.7787164
4.7701774
4.7598782
4.747547
4.732897
4.7156351
4.6954798
4.6721877
4.6455972
4.6156886
4.5826676
4.5470644
4.5098573
4.4725833
4.437368
4.406866
4.3839777
4.3714808
4.3717038
4.3861597
4.4153746
4.4589258
4.515312
4.5823414
4.6565059
4.7326789
4.8048234
4.8653727
4.9062772
4.9216868
4.9126959
4.8834626
4.8433495
4.7957418
4.7483218
4.8123405
4.8121751
4.8119758
4.8117725
4.8115525
4.8113129
4.8110534
4.8107736
4.8104729
4.8101509
4.8098074
4.8094424
4.8090554
4.808646
4.8082124
4.8077516
4.8072575
4.8067202
4.806124
4.8054452
4.8046499
4.8036909
4.8025058
4.8010131
4.7991083
4.7966708
4.7936138
4.7898662
4.7852697
4.7796049
4.7726606
4.7642069
4.7539875
4.7417265
4.7271328
4.7099076
4.6897627
4.6664475
4.6397923
4.6097702
4.5765806
4.540752
4.5032675
4.4656749
4.4301323
4.3993124
4.3761292
4.3633938
4.3634721
4.3778555
4.4070084
4.4504639
4.5068192
4.5738787
4.6480655
4.7243601
4.796868
4.8581315
4.8999672
4.9163715
4.9083445
4.8800091
4.8407644
4.7939247
4.7471586
4.8010741
4.8009235
4.8007428
4.800557
4.800356
4.8001368
4.7998993
4.7996429
4.7993671
4.7990718
4.7987567
4.7984219
4.7980673
4.7976925
4.7972963
4.7968759
4.796426
4.7959377
4.7953959
4.7947784
4.7940521
4.7931713
4.7920744
4.7906815
4.7888896
4.786575
4.7836392
4.7800108
4.775544
4.770017
4.7632101
4.7548909
4.7447984
4.7326509
4.7181498
4.7009881
4.6808676
4.6575265
4.6307833
4.6005994
4.5671657
4.531009
4.4931187
4.4550626
4.4190389
4.3877473
4.3641508
4.3511073
4.3509844
4.3652567
4.3943436
4.4377328
4.4940676
4.5611183
4.635299
4.7117216
4.7846876
4.8469066
4.8900366
4.9078665
4.9013099
4.8744315
4.8366598
4.7911623
4.7455361
4.78615
4.7860193
4.7858633
4.7857013
4.7855256
4.7853338
4.7851258
4.7849009
4.7846587
4.7843992
4.7841222
4.783828
4.7835166
4.7831879
4.7828411
4.7824742
4.7820826
4.7816582
4.7811874
4.7806492
4.7800123
4.7792323
4.7782496
4.7769855
4.7753397
4.7731875
4.7704146
4.7669418
4.7626417
4.7572967
4.7506728
4.7425339
4.732613
4.7206211
4.7062502
4.6891826
4.6691075
4.6457491
4.6189106
4.5885393
4.5548151
4.5182628
4.4798822
4.4412705
4.4046729
4.3728319
4.3487615
4.3353622
4.3350284
4.3492165
4.3782787
4.4216508
4.4780192
4.5451328
4.6193619
4.6959252
4.7693933
4.8326837
4.8773039
4.8968217
4.8920902
4.867136
4.8313577
4.7876553
4.7435514
4.7681894
4.768083
4.767957
4.7678241
4.7676795
4.7675214
4.7673494
4.7671633
4.7669624
4.7667468
4.7665166
4.766272
4.7660134
4.7657409
4.7654542
4.7651516
4.7648296
4.7644812
4.7640941
4.7636488
4.7631161
4.7624537
4.7616037
4.7604896
4.7590135
4.7570535
4.7544784
4.751192
4.7470858
4.7419554
4.735552
4.7276318
4.717922
4.7061246
4.6919213
4.6749822
4.6549818
4.6316283
4.6047075
4.5741502
4.5401244
4.5031525
4.4642475
4.4250454
4.3878409
4.3554326
4.3308876
4.3171411
4.3166235
4.3307777
4.3598856
4.4033235
4.4598059
4.5270486
4.6013665
4.6780646
4.7520173
4.8163659
4.8625074
4.883871
4.8812507
4.8586329
4.8253159
4.7838107
4.7415498
4.7480275
4.7479486
4.7478551
4.7477555
4.7476468
4.7475274
4.7473972
4.7472555
4.7471023
4.7469374
4.7467611
4.7465737
4.7463755
4.7461672
4.7459485
4.7457184
4.7454741
4.7452096
4.7449142
4.7445701
4.74415
4.7436139
4.7429063
4.7419531
4.7406592
4.7389063
4.7365542
4.7334807
4.7295823
4.7246818
4.7185259
4.7108526
4.7013848
4.6898153
4.6758149
4.6590408
4.6391524
4.6158409
4.5888734
4.5581634
4.5238656
4.486501
4.4470986
4.4073388
4.3695631
4.3366297
4.3116458
4.2975724
4.2968867
4.3110352
4.3402443
4.3838452
4.4405644
4.508054
4.5825475
4.6594142
4.7338253
4.7991138
4.846717
4.8699167
4.8695227
4.849503
4.818951
4.7798509
4.7396182
4.7266651
4.7266158
4.726557
4.7264939
4.7264242
4.7263472
4.7262624
4.7261696
4.7260687
4.7259595
4.7258422
4.7257174
4.7255854
4.7254466
4.7253014
4.725149
4.724987
4.7248104
4.7246097
4.7243689
4.7240624
4.7236528
4.7230872
4.7222944
4.7211819
4.7196351
4.7175156
4.7146749
4.7109894
4.7063153
4.7004149
4.6930048
4.6837995
4.672484
4.6587189
4.6421485
4.622418
4.5992013
4.5722477
4.5414528
4.506959
4.4692857
4.4294804
4.389264
4.35102
4.3176547
4.2922809
4.2778731
4.2769859
4.2911118
4.3204489
4.3642637
4.4212918
4.4891318
4.5639174
4.6410676
4.7159305
4.7819905
4.8307896
4.8555666
4.8575559
4.8402499
4.8126163
4.7760188
4.7379208
4.7052033
4.7051846
4.7051617
4.7051362
4.7051073
4.7050743
4.7050371
4.7049955
4.7049492
4.7048983
4.7048432
4.7047839
4.7047209
4.7046548
4.7045856
4.7045128
4.7044344
4.7043458
4.7042384
4.7040973
4.7038992
4.7036087
4.7031757
4.7025318
4.7015879
4.7002321
4.6983301
4.6957273
4.6922666
4.6878004
4.6821364
4.6749945
4.666061
4.655017
4.6415153
4.6251897
4.6056722
4.5826217
4.5557712
4.5250002
4.4904395
4.4526077
4.4125703
4.372077
4.3335431
4.2998876
4.2741882
4.2594396
4.2583074
4.2723577
4.3017573
4.3457559
4.4031381
4.4713887
4.5464945
4.6239102
4.6990627
4.765575
4.815198
4.8417726
4.8458418
4.8312717
4.8065497
4.7724129
4.7364574
4.6847602
4.6847716
4.6847839
4.6847957
4.6848069
4.6848177
4.6848278
4.6848371
4.6848456
4.6848533
4.6848602
4.6848668
4.6848733
4.6848799
4.6848864
4.6848924
4.6848955
4.6848916
4.6848723
4.6848238
4.684724
4.6845395
4.6842225
4.6837077
4.6829091
4.6817184
4.6800043
4.6776139
4.6743791
4.6701246
4.6646629
4.6577572
4.6490978
4.6383415
4.6251331
4.6090988
4.5898622
4.5670709
4.5404458
4.5098539
4.4754173
4.4376546
4.3976444
4.3571463
4.3185875
4.2848638
4.2589856
4.2439813
4.2426066
4.2564992
4.2858911
4.3300917
4.387814
4.4563893
4.5317435
4.6093406
4.6847639
4.751625
4.8019473
4.8291934
4.8347776
4.82285
4.8009184
4.7691417
4.7353135
4.6663647
4.6664037
4.6664489
4.6664952
4.666544
4.6665959
4.6666505
4.666708
4.6667685
4.666832
4.6668986
4.6669684
4.6670416
4.667118
4.6671974
4.6672786
4.6673592
4.6674344
4.6674964
4.6675314
4.6675181
4.6674246
4.6672052
4.6667969
4.6661168
4.6650599
4.6634985
4.6612821
4.6582413
4.6541925
4.6489369
4.642243
4.6338281
4.6233595
4.6104739
4.5947882
4.5759193
4.5535096
4.5272732
4.4970704
4.4630192
4.4256388
4.3860126
4.3458922
4.3076917
4.274239
4.2484754
4.2334292
4.2318898
4.2456241
4.2749453
4.3190616
4.3767503
4.44531
4.5206339
4.5982291
4.6736458
4.7401874
4.7901558
4.8174488
4.8247367
4.8151573
4.7958211
4.7662532
4.7345006
4.6508657
4.6509287
4.651002
4.6510783
4.6511598
4.6512476
4.6513415
4.6514418
4.6515487
4.6516622
4.6517825
4.6519098
4.6520439
4.6521844
4.6523307
4.6524812
4.6526329
4.6527809
4.6529163
4.6530258
4.6530881
4.6530725
4.6529343
4.6526128
4.6520276
4.6510767
4.6496358
4.6475581
4.6446754
4.6408024
4.6357392
4.6292574
4.6210894
4.6109165
4.598382
4.5831077
4.5647128
4.5428385
4.5171983
4.4876527
4.4543201
4.4177186
4.378922
4.3396555
4.3022808
4.2695341
4.2442822
4.2295012
4.2280043
4.2415008
4.2702215
4.3136996
4.3707731
4.4387366
4.5134712
4.5905083
4.6652619
4.7306441
4.7798011
4.8072983
4.8158953
4.8082988
4.791336
4.7638205
4.7341055
4.6388328
4.6389141
4.6390092
4.6391089
4.6392162
4.6393325
4.6394578
4.6395928
4.6397375
4.6398924
4.6400576
4.6402333
4.6404194
4.6406152
4.64082
4.6410317
4.641247
4.6414603
4.6416627
4.6418404
4.6419722
4.6420278
4.6419638
4.6417206
4.6412199
4.6403623
4.6390258
4.6370675
4.6343239
4.6306096
4.6257228
4.6194513
4.6115417
4.6016934
4.5895726
4.5748033
4.5570133
4.5358538
4.5110544
4.4824793
4.4502505
4.414878
4.3774077
4.3395154
4.3034685
4.2718885
4.2475476
4.2333853
4.2319209
4.2447848
4.2724518
4.3148259
4.3707332
4.4374604
4.5110161
4.5869617
4.6604934
4.7242329
4.772001
4.7987355
4.8082305
4.8023379
4.7875195
4.761898
4.7341688
4.6305082
4.6306014
4.6307105
4.6308256
4.6309501
4.6310857
4.6312326
4.6313917
4.6315633
4.6317481
4.6319464
4.6321585
4.6323843
4.6326236
4.6328753
4.6331372
4.633406
4.6336761
4.6339385
4.6341792
4.6343778
4.6345044
4.6345168
4.6343571
4.6339488
4.6331937
4.6319718
4.6301423
4.6275462
4.6240081
4.6193415
4.61327
4.605662
4.5961989
4.5845519
4.5703878
4.5533701
4.5331527
4.5094722
4.4822115
4.4514974
4.4178222
4.3821858
4.3461767
4.3119199
4.2818937
4.2588332
4.2452939
4.2436498
4.2555798
4.2819234
4.3226805
4.3768245
4.4416912
4.513488
4.5877622
4.6592327
4.7203682
4.7657402
4.7916572
4.8017967
4.7973253
4.7844368
4.7605588
4.7347767
4.6257655
4.625863
4.6259781
4.6260997
4.6262318
4.6263763
4.6265338
4.626705
4.6268909
4.6270922
4.6273096
4.6275437
4.6277947
4.6280625
4.6283464
4.6286448
4.6289547
4.6292707
4.6295847
4.6298837
4.6301484
4.6303507
4.6304507
4.6303932
4.6301044
4.6294895
4.628431
4.6267898
4.6244074
4.6211043
4.6166976
4.61106
4.6038146
4.5946929
4.583658
4.5702695
4.554181
4.5351079
4.512827
4.4872292
4.4584323
4.4268987
4.3935559
4.3598483
4.3277261
4.299589
4.277774
4.2647084
4.2627018
4.2734606
4.2980789
4.3368203
4.3886697
4.4511311
4.5206252
4.592511
4.6610472
4.7187675
4.7614122
4.786127
4.7966029
4.7932997
4.782145
4.7598635
4.7359753
4.6241884
4.6242837
4.6243971
4.6245164
4.6246467
4.6247897
4.6249464
4.6251177
4.6253047
4.6255085
4.62573
4.6259701
4.6262298
4.6265091
4.6268082
4.6271261
4.6274607
4.6278079
4.6281611
4.6285094
4.628836
4.6291163
4.6293144
4.6293805
4.6292457
4.6288197
4.6279892
4.6266154
4.6245391
4.6215854
4.6175733
4.6123206
4.6055312
4.5972081
4.5868803
4.5742967
4.5593477
4.541717
4.5211601
4.4975718
4.4710659
4.4420571
4.4113537
4.380233
4.3505299
4.3242186
4.3035116
4.2907736
4.2881083
4.2974624
4.3201332
4.3565013
4.4056519
4.4653348
4.5320196
4.6007618
4.6653898
4.7191144
4.7585797
4.7820144
4.7926578
4.7903006
4.7807011
4.7598819
4.7378386
4.625081
4.6251684
4.6252732
4.6253829
4.6255031
4.6256358
4.6257818
4.6259423
4.6261184
4.6263116
4.626523
4.6267541
4.6270058
4.6272794
4.6275753
4.6278938
4.6282339
4.6285933
4.6289675
4.6293487
4.629724
4.6300737
4.6303681
4.6305649
4.6306046
4.6304064
4.6298638
4.6288453
4.6271955
4.6247372
4.6212842
4.6166316
4.6106477
4.6030777
4.5936505
4.5823874
4.5688588
4.5528669
4.5342781
4.5129917
4.4890803
4.4628678
4.4350219
4.4067024
4.3793276
4.3547047
4.3349785
4.3222152
4.3187058
4.3264783
4.3470133
4.3807662
4.4269721
4.4836203
4.547013
4.6117421
4.6716811
4.7209902
4.7573741
4.7793252
4.7899756
4.7883644
4.7801551
4.7606684
4.740411
4.6277034
4.6277785
4.6278695
4.6279642
4.6280683
4.6281837
4.6283115
4.6284525
4.6286083
4.6287804
4.6289699
4.6291786
4.6294082
4.6296601
4.6299356
4.6302361
4.6305618
4.6309125
4.6312861
4.6316783
4.6320811
4.6324812
4.6328572
4.6331772
4.6333948
4.6334438
4.6332356
4.6326533
4.6315511
4.6297574
4.6270832
4.6233222
4.6182993
4.6118146
4.60374
4.593792
4.5819089
4.5679615
4.5516504
4.5329319
4.5118386
4.4885906
4.4637545
4.4381317
4.4129414
4.3898778
4.3707456
4.3577441
4.3532089
4.3593058
4.3775684
4.4085738
4.4518275
4.5053286
4.5647933
4.624563
4.6795204
4.7240393
4.7574957
4.7780114
4.7885481
4.7875168
4.7805534
4.7622761
4.7437549
4.6312788
4.6313396
4.6314136
4.6314905
4.6315752
4.6316697
4.6317747
4.6318914
4.632021
4.632165
4.6323248
4.6325024
4.6326993
4.6329176
4.633159
4.6334257
4.6337192
4.6340407
4.6343907
4.6347681
4.6351695
4.6355881
4.6360117
4.63642
4.6367816
4.6370505
4.6371599
4.6370181
4.6365056
4.6354717
4.6337392
4.6311097
4.6273857
4.622357
4.6158745
4.6077954
4.5980115
4.586271
4.5725018
4.5565916
4.538468
4.5183019
4.4963761
4.4732976
4.4501346
4.4282183
4.4094119
4.3959051
4.3901794
4.3945138
4.4104734
4.4388467
4.4792667
4.5294163
4.5842922
4.6388398
4.6881063
4.7284425
4.7589203
4.7780485
4.7883713
4.7877762
4.7819343
4.7647504
4.7479113
4.6352033
4.6352496
4.635306
4.6353646
4.6354296
4.6355024
4.6355836
4.6356743
4.6357758
4.6358893
4.6360162
4.6361583
4.6363173
4.6364953
4.6366943
4.6369169
4.6371654
4.637442
4.637749
4.6380879
4.6384592
4.6388614
4.6392901
4.6397362
4.6401833
4.6406053
4.6409619
4.641194
4.6412188
4.640925
4.6401722
4.6387907
4.6365934
4.6333789
4.6289677
4.6231627
4.6157729
4.6067036
4.5958071
4.5828922
4.5678942
4.5507564
4.5316056
4.5108852
4.4893147
4.4682038
4.449385
4.4352004
4.4281987
4.4307776
4.4446885
4.4708406
4.5087233
4.5550536
4.6049466
4.6537247
4.6976109
4.7338319
4.7616527
4.7794053
4.7894349
4.7891542
4.784325
4.7681337
4.7529323
4.6390298
4.6390627
4.6391021
4.6391442
4.6391912
4.6392439
4.639303
4.6393695
4.6394442
4.6395283
4.639623
4.6397299
4.6398507
4.639987
4.6401413
4.6403159
4.6405135
4.6407367
4.6409888
4.6412727
4.6415916
4.6419474
4.6423414
4.6427727
4.6432387
4.6437307
4.6442318
4.6447148
4.6451372
4.6454382
4.6455326
4.6453049
4.6446111
4.6432774
4.6411127
4.6379073
4.6334432
4.627499
4.6198481
4.6102755
4.5985194
4.5843858
4.5678657
4.5490982
4.5287522
4.5080973
4.4890538
4.4740982
4.4659511
4.4672201
4.4797863
4.5043231
4.5395545
4.5815247
4.6261553
4.6686935
4.7079027
4.7402646
4.7656374
4.7820426
4.791726
4.7916583
4.7877459
4.7724562
4.7588526
4.6425352
4.642557
4.642583
4.6426112
4.6426427
4.6426782
4.6427182
4.6427636
4.6428149
4.6428736
4.6429406
4.6430168
4.6431032
4.6432013
4.6433125
4.643439
4.6435837
4.6437498
4.6439409
4.6441606
4.6444129
4.6447025
4.6450343
4.6454137
4.6458452
4.6463328
4.6468784
4.6474804
4.6481332
4.6488242
4.6495263
4.6501924
4.6507514
4.6510977
4.6510798
4.6504923
4.6490748
4.6465143
4.6424427
4.636439
4.6280706
4.6169686
4.6028293
4.5857407
4.5663605
4.5459735
4.5266961
4.511128
4.5023574
4.5031854
4.5152355
4.538473
4.5705366
4.6077254
4.6466412
4.6839622
4.7186913
4.747678
4.770811
4.7859149
4.795222
4.7952879
4.7922148
4.7777463
4.7657091
4.6456795
4.6456918
4.6457066
4.6457226
4.6457408
4.6457613
4.6457848
4.6458128
4.6458461
4.6458823
4.6459192
4.6459586
4.6460052
4.6460637
4.6461382
4.6462291
4.6463343
4.6464538
4.6465893
4.6467438
4.6469238
4.6471367
4.6473903
4.6476939
4.6480575
4.648492
4.6490116
4.6496346
4.6503797
4.6512675
4.6523222
4.6535601
4.6549822
4.6565674
4.658245
4.6598653
4.6611754
4.6617824
4.6611718
4.6587203
4.6537292
4.6455258
4.6336905
4.6182612
4.5998247
4.5798116
4.5605428
4.5451166
4.5369721
4.5384667
4.5504197
4.5719386
4.6000505
4.6328218
4.6663432
4.6993282
4.7300902
4.7560426
4.7771139
4.7909771
4.7998976
4.800038
4.797743
4.7840246
4.7735188
4.6485126
4.6485159
4.6485201
4.6485247
4.6485302
4.648537
4.6485461
4.6485575
4.6485714
4.6485875
4.6486054
4.6486258
4.6486495
4.6486775
4.6487105
4.6487485
4.6487952
4.6488599
4.6489453
4.6490461
4.6491629
4.6493062
4.6494904
4.6497279
4.6500257
4.650394
4.6508575
4.651447
4.6521971
4.6531507
4.654357
4.655875
4.6577683
4.6600914
4.6628542
4.6659748
4.6692425
4.6722755
4.6744739
4.6750113
4.6729779
4.6675116
4.6579704
4.6442826
4.6269742
4.607872
4.5899574
4.5764425
4.5702845
4.5728667
4.5844636
4.6033255
4.628337
4.656234
4.6856918
4.7146876
4.7420051
4.7652721
4.784479
4.797181
4.8057245
4.8058993
4.804336
4.791306
4.7823048
4.6510544
4.6510482
4.6510409
4.6510331
4.6510248
4.651016
4.6510071
4.6509986
4.6509907
4.6509835
4.6509774
4.6509725
4.6509699
4.6509707
4.6509742
4.6509796
4.650989
4.65101
4.6510504
4.6511076
4.6511786
4.6512732
4.6514036
4.651579
4.6518109
4.6521162
4.6525199
4.653061
4.6537868
4.6547478
4.6560046
4.6576301
4.659718
4.6623633
4.6656178
4.6694722
4.6737788
4.6781958
4.6821515
4.6848175
4.6851612
4.6820659
4.6747209
4.6629544
4.6477932
4.631385
4.6165289
4.6058848
4.6019046
4.6053478
4.6161917
4.6327307
4.6544321
4.6786235
4.7044485
4.7300809
4.7544387
4.7753238
4.7928533
4.8044825
4.8126729
4.8128592
4.8119933
4.7996005
4.792096
4.6531234
4.6531077
4.6530893
4.65307
4.6530487
4.6530251
4.6529997
4.6529733
4.6529467
4.6529201
4.6528939
4.6528679
4.652842
4.652816
4.6527904
4.6527663
4.6527456
4.6527316
4.6527287
4.6527409
4.6527715
4.6528265
4.6529167
4.6530556
4.6532587
4.6535428
4.6539279
4.6544457
4.6551429
4.6560721
4.6572935
4.6588849
4.6609446
4.6635867
4.6669072
4.6709342
4.6755771
4.6805791
4.6854681
4.6894354
4.6913838
4.6901753
4.6850823
4.676239
4.6644644
4.6516193
4.6402466
4.6329741
4.6308104
4.6349811
4.6449451
4.6601087
4.6785496
4.6998958
4.7227762
4.7455395
4.7673426
4.7861383
4.8021802
4.8128363
4.820711
4.8209034
4.8207098
4.8089217
4.8029141
4.6541974
4.654176
4.6541508
4.6541243
4.6540957
4.6540647
4.6540312
4.6539953
4.6539569
4.6539161
4.6538734
4.653829
4.6537837
4.6537384
4.6536942
4.6536524
4.6536151
4.6535849
4.6535663
4.6535645
4.653585
4.6536324
4.6537118
4.6538317
4.6540067
4.6542542
4.654597
4.6550685
4.6557063
4.6565612
4.6577122
4.6592338
4.6611949
4.6636988
4.6668408
4.6706785
4.6752195
4.6803171
4.6855517
4.690209
4.693406
4.6941901
4.6917618
4.6860748
4.677819
4.6690068
4.6617287
4.6571551
4.656787
4.6618484
4.6713509
4.684721
4.7013413
4.7203453
4.7407386
4.7610775
4.7807016
4.7976779
4.812414
4.822202
4.8298066
4.830012
4.8304738
4.8192609
4.814768
4.6538407
4.6538201
4.6537961
4.6537707
4.6537433
4.6537137
4.6536819
4.6536478
4.6536114
4.6535731
4.6535329
4.6534913
4.6534489
4.6534062
4.6533644
4.6533249
4.6532893
4.6532599
4.6532398
4.6532327
4.6532433
4.6532777
4.6533427
4.6534485
4.6536107
4.6538449
4.6541666
4.6546057
4.6551975
4.6559844
4.6570332
4.658407
4.6601594
4.662412
4.6653129
4.6689332
4.6733162
4.6783884
4.683864
4.6892151
4.6936486
4.6962147
4.6963361
4.6937445
4.6892753
4.6844919
4.6805865
4.6786247
4.6804963
4.6862728
4.6953766
4.7077659
4.7228922
4.7400201
4.758404
4.7767166
4.7944951
4.8099035
4.823512
4.832541
4.8399247
4.8401687
4.8412816
4.8306577
4.8276736
4.6520495
4.6520356
4.6520194
4.6520024
4.651984
4.6519642
4.6519429
4.6519202
4.6518962
4.6518709
4.6518448
4.651818
4.6517911
4.6517647
4.6517399
4.6517178
4.6517
4.6516884
4.6516859
4.6516957
4.6517217
4.6517694
4.6518463
4.6519618
4.6521294
4.6523643
4.6526823
4.6531056
4.6536612
4.6543869
4.6553409
4.6566128
4.658303
4.6604847
4.6632556
4.6667583
4.6711017
4.6762769
4.6820724
4.688048
4.6935701
4.6978068
4.7001657
4.7005014
4.6994912
4.6982446
4.6974602
4.6983742
4.7020993
4.70841
4.717568
4.7293534
4.7434187
4.759102
4.7758529
4.7924837
4.8087164
4.8227894
4.8354371
4.8438151
4.8510395
4.8513542
4.8531198
4.8430954
4.8415897
4.6492497
4.6492444
4.6492381
4.6492316
4.6492247
4.6492175
4.6492099
4.6492022
4.6491944
4.6491868
4.6491796
4.6491733
4.6491683
4.6491654
4.6491655
4.6491697
4.6491797
4.6491978
4.6492265
4.6492692
4.6493299
4.6494147
4.649531
4.6496879
4.6498948
4.6501626
4.6505152
4.6509777
4.6515807
4.6523796
4.6534183
4.6547386
4.6564327
4.6586355
4.6614861
4.665113
4.6696009
4.6749921
4.6811646
4.68777
4.6942257
4.6999034
4.7042219
4.7071469
4.7092216
4.7110356
4.7131492
4.716441
4.7216746
4.728936
4.7383588
4.749829
4.763135
4.777701
4.793153
4.8084083
4.8233619
4.8363102
4.8481581
4.8559988
4.8631257
4.8635492
4.8659695
4.8565608
4.8565393
4.6458643
4.6458655
4.6458672
4.6458691
4.6458716
4.6458746
4.6458784
4.6458831
4.6458892
4.6458969
4.6459065
4.6459188
4.6459343
4.6459542
4.6459794
4.6460116
4.6460527
4.6461051
4.6461712
4.6462552
4.6463639
4.6465044
4.646683
4.6469097
4.6471948
4.6475551
4.6480247
4.648628
4.6493756
4.6503069
4.6514876
4.6529856
4.6548948
4.6573274
4.6604034
4.6642699
4.669061
4.6748314
4.6814656
4.688693
4.6960291
4.7029492
4.7090009
4.7142366
4.7189651
4.7232563
4.7277662
4.7332912
4.7400311
4.748212
4.7580329
4.7694048
4.7822111
4.7959471
4.8103824
4.8245255
4.8384368
4.8504509
4.8616549
4.8690479
4.8761457
4.8767148
4.8798292
4.8709952
4.8726169
4.6420217
4.6420269
4.6420334
4.6420406
4.6420489
4.6420586
4.6420699
4.6420833
4.6420991
4.6421179
4.6421403
4.6421671
4.6421993
4.6422382
4.6422854
4.642343
4.6424134
4.6424998
4.6426065
4.6427385
4.6429026
4.643106
4.6433585
4.6436748
4.6440714
4.6445641
4.6451723
4.6459257
4.6468599
4.648013
4.6494426
4.6512251
4.6534512
4.6562236
4.6596876
4.6640141
4.6693188
4.6756438
4.6828982
4.690827
4.6990503
4.7071434
4.7147527
4.7219654
4.7286558
4.7352615
4.7420467
4.7493354
4.7574391
4.7665699
4.7768877
4.7883208
4.800826
4.8139582
4.827614
4.8408724
4.8539483
4.8651988
4.8758963
4.8829321
4.8900868
4.8908166
4.8946858
4.8863887
4.8897016
4.6374864
4.6374947
4.6375049
4.6375161
4.6375291
4.6375441
4.6375617
4.6375824
4.6376065
4.637635
4.6376687
4.6377087
4.6377564
4.6378134
4.6378819
4.6379645
4.6380644
4.6381856
4.6383331
4.6385134
4.638734
4.6390048
4.6393389
4.63975
4.6402547
4.640875
4.6416375
4.6425726
4.6437207
4.6451321
4.6468745
4.6490176
4.6516497
4.6549251
4.6590022
4.6640076
4.6700492
4.6771518
4.6851949
4.6939669
4.7031114
4.7123194
4.7213988
4.7302397
4.738888
4.7474297
4.7560098
4.7648772
4.7742628
4.7843114
4.7951716
4.8067759
4.8191348
4.8318487
4.8449222
4.8574892
4.8699092
4.8805481
4.8908664
4.8976334
4.9049307
4.9058228
4.9105265
4.9027364
4.9077652
4.6318414
4.6318537
4.6318688
4.6318856
4.6319047
4.6319268
4.6319524
4.6319822
4.6320169
4.6320574
4.632105
4.6321612
4.6322273
4.6323058
4.6323992
4.6325105
4.632644
4.6328041
4.632997
4.6332301
4.6335123
4.6338552
4.6342723
4.6347807
4.6354003
4.6361566
4.6370822
4.6382199
4.6396176
4.6413276
4.6434187
4.6460064
4.6492289
4.6532142
4.658108
4.6640369
4.6710636
4.6791598
4.6881614
4.6979002
4.7080423
4.7184146
4.7289164
4.7393308
4.7496758
4.7597955
4.7699445
4.7802146
4.790762
4.8016859
4.8131093
4.8249588
4.8372869
4.8497268
4.8623783
4.8744158
4.8863334
4.8964943
4.9065445
4.9131295
4.9206336
4.9217497
4.9272987
4.9200425
4.926795
4.6247133
4.6247321
4.6247548
4.6247797
4.624808
4.6248405
4.6248777
4.6249206
4.6249701
4.6250273
4.6250938
4.6251712
4.6252616
4.6253674
4.6254919
4.6256387
4.6258122
4.6260182
4.6262636
4.6265566
4.6269074
4.6273289
4.6278377
4.6284528
4.6292026
4.6301185
4.6312328
4.632592
4.6342627
4.6363344
4.6389126
4.6421203
4.6460988
4.6510002
4.6569557
4.6640445
4.6722678
4.6815328
4.6916786
4.7024868
4.7137786
4.7254937
4.7373597
4.7491728
4.7608932
4.7724926
4.7840333
4.7955598
4.8071719
4.8189178
4.8309003
4.8430383
4.8554174
4.8676941
4.8800508
4.891692
4.9032364
4.913036
4.9229155
4.929392
4.9371768
4.9385283
4.9449802
4.9382584
4.9467275
4.6157828
4.6158102
4.6158435
4.6158795
4.6159202
4.6159666
4.6160192
4.6160794
4.6161482
4.6162271
4.6163177
4.6164222
4.6165429
4.616683
4.6168457
4.6170353
4.6172572
4.6175178
4.6178251
4.6181869
4.6186163
4.6191322
4.6197512
4.6204934
4.6213867
4.6224729
4.6238108
4.6254666
4.627525
4.6300945
4.6333092
4.637323
4.6422945
4.6483639
4.6556226
4.6640857
4.6736853
4.6842836
4.6957021
4.7077323
4.7204244
4.733447
4.7465689
4.7596765
4.772738
4.7856672
4.7984616
4.8111211
4.8236989
4.8362047
4.8487254
4.8611708
4.8736536
4.8858473
4.8980061
4.9093574
4.9206335
4.9301694
4.9399608
4.9464184
4.9544988
4.9561677
4.9634967
4.9573699
4.9674914
4.6048973
4.6049357
4.6049821
4.6050321
4.6050881
4.6051515
4.6052233
4.6053045
4.6053968
4.6055017
4.6056214
4.6057582
4.6059151
4.6060955
4.6063023
4.6065365
4.6068084
4.6071341
4.6075161
4.6079577
4.6084739
4.6090868
4.6098233
4.610713
4.6117938
4.613119
4.6147585
4.6168041
4.6193734
4.6226098
4.6266781
4.6317497
4.637979
4.6454733
4.6542597
4.6642773
4.675411
4.6874741
4.7002823
4.7138102
4.7278933
4.7421517
4.7565419
4.7709602
4.785293
4.7994499
4.8133879
4.8270715
4.8405225
4.8537214
4.8667447
4.8794953
4.8921092
4.9042733
4.9163036
4.927445
4.9385345
4.9478978
4.9576724
4.9641715
4.972601
4.9746384
4.9828291
4.9772735
4.9891144
4.5919189
4.5919702
4.5920318
4.592098
4.5921724
4.5922565
4.5923512
4.5924573
4.592576
4.5927066
4.5928499
4.5930166
4.5932196
4.5934518
4.5937054
4.5939917
4.594324
4.5947117
4.5951656
4.5956988
4.5963261
4.597069
4.5979592
4.5990386
4.6003624
4.6020044
4.6040616
4.6066584
4.6099473
4.6141045
4.6193164
4.6257524
4.6335382
4.6427151
4.653226
4.6649615
4.6777309
4.6913438
4.7057568
4.7208131
4.7361819
4.7517712
4.7674908
4.7831776
4.7987191
4.8140122
4.8289885
4.8435901
4.8578179
4.8716341
4.8851084
4.89814
4.9108865
4.9230489
4.9349948
4.9459908
4.9569557
4.9662092
4.9760211
4.9826361
4.9914509
4.9939463
5.0029204
4.9982951
5.0111872
4.5772189
4.5772855
4.5773637
4.5774445
4.5775339
4.5776405
4.5777657
4.5778984
4.5780365
4.578191
4.5783693
4.5785742
4.5788089
4.5790779
4.579387
4.5797425
4.580151
4.5806196
4.5811605
4.5817936
4.582544
4.5834435
4.584535
4.5858762
4.5875446
4.589642
4.5922991
4.5956759
4.5999579
4.6053414
4.6120106
4.6201013
4.6296774
4.6406936
4.6530506
4.6665741
4.6810172
4.6963569
4.7124175
4.7288769
4.7456468
4.7626197
4.7796281
4.7965347
4.8132129
4.8295469
4.8454551
4.8608655
4.8757685
4.8901161
4.9039756
4.9172491
4.9301079
4.942273
4.9541545
4.9650395
4.975919
4.9851201
4.9949995
5.0017825
5.0109796
5.0140024
5.0237405
5.0198205
5.033999
4.5611074
4.5611924
4.5612825
4.5613727
4.5614765
4.5615961
4.5617325
4.561888
4.5620653
4.5622668
4.5624943
4.562749
4.5630321
4.5633476
4.5637042
4.5641114
4.5645792
4.5651206
4.5657531
4.5665005
4.5673944
4.568478
4.5698096
4.5714678
4.5735568
4.5762106
4.5795961
4.5839096
4.589365
4.5961711
4.6044996
4.6144355
4.6259793
4.6390585
4.6534419
4.6688913
4.6853349
4.7025345
4.7201806
4.7381731
4.756421
4.7747529
4.7930285
4.8111025
4.8288409
4.8461225
4.8628589
4.8789734
4.8944512
4.9092413
4.9234134
4.9368726
4.949808
4.9619623
4.9737789
4.9845757
4.9953893
5.0045742
5.0145493
5.021569
5.0311498
5.0349354
5.0452952
5.0432112
5.0587876
4.5440459
4.5441387
4.5442487
4.5443671
4.5444978
4.5446432
4.5448049
4.5449848
4.545185
4.5454085
4.5456585
4.5459389
4.5462548
4.5466122
4.5470194
4.5474866
4.5480276
4.5486607
4.5494106
4.5503108
4.5514067
4.5527595
4.5544512
4.55659
4.5593143
4.5627957
4.567237
4.5728614
4.5798921
4.5885214
4.598868
4.610947
4.6247134
4.6399386
4.6563882
4.6739158
4.6922801
4.7111336
4.7303835
4.7499386
4.7696226
4.7892919
4.8087915
4.8279709
4.8466889
4.8648238
4.8822858
4.8989989
4.9149474
4.9300869
4.9444801
4.9580551
4.971008
4.9831148
4.9948441
5.0055497
5.0163046
5.0255006
5.0355877
5.0428939
5.0528569
5.0575458
5.0683153
5.0694562
5.0821852
4.5286685
4.5287717
4.5288977
4.5290278
4.5291709
4.52933
4.5295066
4.5297028
4.5299212
4.530165
4.5304382
4.5307457
4.5310938
4.5314907
4.5319474
4.5324785
4.5331035
4.5338488
4.5347502
4.5358561
4.5372315
4.5389628
4.5411625
4.5439743
4.5475747
4.5521716
4.5579946
4.5652748
4.5742162
4.5849585
4.5975373
4.6119246
4.6279215
4.6452539
4.6637161
4.6830462
4.7029515
4.7233602
4.7441495
4.7651297
4.7861438
4.8070234
4.827608
4.8477369
4.8672685
4.8860821
4.9040923
4.9212291
4.9374799
4.9528084
4.9672825
4.9808518
4.9937186
5.0057092
5.017284
5.0278842
5.0385327
5.0477749
5.0579217
5.0656078
5.075884
5.0815129
5.0928237
5.0958684
5.108705
4.51718
4.5172895
4.5174229
4.5175602
4.5177111
4.5178786
4.5180643
4.5182706
4.5185005
4.5187576
4.519047
4.5193749
4.5197494
4.5201817
4.5206866
4.521284
4.5220014
4.5228752
4.5239549
4.5253068
4.5270183
4.5292027
4.5320043
4.5356
4.5401993
4.5460351
4.5533475
4.5623572
4.5732302
4.5860399
4.6007611
4.6172732
4.6353194
4.6545306
4.6746671
4.6955217
4.7170041
4.7389178
4.7610662
4.7832936
4.8054277
4.8272947
4.8487268
4.8695647
4.8896694
4.9089281
4.9272624
4.9446125
4.960969
4.9763094
4.9907043
5.0041373
5.0168084
5.0286046
5.0399589
5.0504222
5.0609226
5.0702238
5.0803836
5.0885118
5.0989856
5.1057319
5.117296
5.1227448
5.1353855
4.5127657
4.5128759
4.5130101
4.5131482
4.5132998
4.513468
4.5136546
4.5138622
4.5140943
4.5143556
4.514652
4.5149914
4.5153845
4.515846
4.5163956
4.5170599
4.5178752
4.51889
4.520169
4.5217978
4.5238866
4.5265755
4.530037
4.5344755
4.5401221
4.5472204
4.5560024
4.5666584
4.5793007
4.5939354
4.6104672
4.6287142
4.6482531
4.6688609
4.6904495
4.7127629
4.73554
4.7586163
4.7818252
4.8049918
4.8279388
4.850487
4.8724655
4.8937189
4.9141151
4.933551
4.9519575
4.9692848
4.9855275
5.0006799
5.0148189
5.027965
5.0403161
5.0518225
5.0628752
5.0731477
5.083445
5.0927809
5.1029126
5.1114667
5.1221182
5.1298969
5.1417843
5.1490186
5.1621591
4.5167683
4.5168748
4.5170032
4.5171364
4.5172825
4.5174447
4.517625
4.5178266
4.5180536
4.5183113
4.5186074
4.5189517
4.519358
4.5198451
4.520438
4.5211713
4.5220909
4.5232582
4.5247536
4.5266814
4.5291739
4.5323942
4.5365375
4.541827
4.5485029
4.556804
4.5669401
4.5790583
4.5932126
4.6093428
4.6273072
4.6467962
4.6675306
4.689428
4.7121162
4.7353655
4.7590084
4.7828641
4.8067522
4.8304889
4.8538872
4.8767636
4.8989482
4.9202922
4.9406722
4.9599958
4.9782035
4.9952548
5.0111516
5.0259067
5.0396067
5.0523109
5.0642127
5.075323
5.0859881
5.0959996
5.1060402
5.1153698
5.1254437
5.1343952
5.1452175
5.1539953
5.1662331
5.1753201
5.1890497
4.531058
4.5311563
4.5312731
4.5313963
4.5315314
4.5316818
4.5318496
4.5320387
4.5322534
4.5325008
4.5327895
4.533132
4.5335452
4.534052
4.5346836
4.5354821
4.5365034
4.5378209
4.5395298
4.5417513
4.5446358
4.5483645
4.5531474
4.5592162
4.5668092
4.5761491
4.5874129
4.6007014
4.6160142
4.6332425
4.6521864
4.6725673
4.694176
4.716706
4.7399437
4.7636919
4.7877604
4.8119624
4.8361065
4.8599984