/*--------------------------------*- C++ -*----------------------------------*\
  =========                 |
  \\      /  F ield         | OpenFOAM: The Open Source CFD Toolbox
   \\    /   O peration     | Website:  https://openfoam.org
    \\  /    A nd           | Version:  13
     \\/     M anipulation  |
\*---------------------------------------------------------------------------*/
FoamFile
{
    format      ascii;
    class       volScalarField;
    location    "45.296123";
    object      k;
}
// * * * * * * * * * * * * * * * * * * * * * * * * * * * * * * * * * * * * * //

dimensions      [0 2 -2 0 0 0 0];

internalField   nonuniform List<scalar> 
17140
(
5.5064967e-12
1.7303327e-10
1.4149508e-09
6.0852273e-09
1.8726589e-08
4.7258448e-08
1.0480543e-07
2.1243301e-07
4.0319134e-07
7.2804821e-07
1.2645432e-06
2.1293475e-06
3.4964092e-06
5.6230538e-06
8.8873684e-06
1.3841506e-05
2.1287324e-05
3.2383099e-05
4.8793075e-05
7.2895209e-05
0.0001080665
0.00015906876
0.00023255848
0.00033773827
0.00048714453
0.00069750951
0.00099051566
0.0013930301
0.001936024
0.00265089
0.0035615955
0.0046722426
0.0059538008
0.007340345
0.008745352
0.010092652
0.011339573
0.012478611
0.013525632
0.014507708
0.015456063
0.016403707
0.017385479
0.018438472
0.019599358
0.02090421
0.02239103
0.024096008
0.026051421
0.028280518
0.030788339
0.033543869
0.036474633
0.03947555
0.042351899
0.044415145
0.044806552
0.041227693
0.029119887
0.012532189
0.0070474748
0.01256146
0.035547133
0.048694633
0.02390392
5.3828788e-12
1.6914877e-10
1.3831891e-09
5.9486525e-09
1.8306359e-08
4.6198063e-08
1.0245393e-07
2.0766678e-07
3.9414497e-07
7.1171218e-07
1.2361671e-06
2.0815612e-06
3.4179366e-06
5.4968419e-06
8.6878794e-06
1.3530822e-05
2.0809571e-05
3.165653e-05
4.7698899e-05
7.1262014e-05
0.00010564878
0.00015551785
0.00022738421
0.00033026025
0.00047643396
0.0006823271
0.00096926062
0.0013637329
0.0018964429
0.0025987982
0.0034953647
0.004591712
0.0058610815
0.0072398401
0.0086425078
0.0099921329
0.011244231
0.012389668
0.013443392
0.014432244
0.015387697
0.016343127
0.01733389
0.01839743
0.019570653
0.020889924
0.02239356
0.024118122
0.026094987
0.028344341
0.030862517
0.033601708
0.036469709
0.039318062
0.041748133
0.042989351
0.042096543
0.036306694
0.021768159
0.0094279127
0.0058234614
0.0092614384
0.024938942
0.050907223
0.031932528
5.2219357e-12
1.6409136e-10
1.3418324e-09
5.7707841e-09
1.7758938e-08
4.4816379e-08
9.9389123e-08
2.0145299e-07
3.8234771e-07
6.9040216e-07
1.1991394e-06
2.0191847e-06
3.3154693e-06
5.3319787e-06
8.4272012e-06
1.3124684e-05
2.0184786e-05
3.070596e-05
4.6266774e-05
6.9123397e-05
0.00010248123
0.00015086291
0.00022059641
0.00032044176
0.00046235557
0.00066234181
0.0009412282
0.001324996
0.0018439314
0.0025293821
0.0034065879
0.0044829107
0.0057344839
0.0071007202
0.0084976887
0.0098476214
0.011103756
0.012254779
0.013314341
0.014308822
0.015269754
0.016230745
0.01722738
0.018297495
0.019478559
0.020807336
0.022322216
0.024059148
0.026047444
0.028304134
0.030816704
0.033529332
0.036328109
0.039027584
0.041061647
0.041815953
0.040098756
0.032712437
0.01760189
0.0099832555
0.0057643929
0.0064709034
0.015656566
0.04997095
0.042309481
5.0247395e-12
1.5789476e-10
1.2911601e-09
5.5528518e-09
1.7088225e-08
4.3123553e-08
9.5634272e-08
1.9384051e-07
3.678957e-07
6.6429822e-07
1.1537847e-06
1.9427855e-06
3.1899747e-06
5.1300783e-06
8.1079785e-06
1.2627356e-05
1.9419742e-05
2.9542007e-05
4.4513125e-05
6.650447e-05
9.8601781e-05
0.0001451606
0.00021227864
0.00030840441
0.00044508375
0.00063779946
0.00090675734
0.0012772732
0.001779073
0.0024433438
0.0032960288
0.0043465502
0.0055745096
0.0069231378
0.0083106628
0.0096585854
0.010917446
0.012073178
0.01313768
0.014136591
0.01510132
0.016065599
0.017065149
0.018138025
0.019322019
0.02065382
0.022171362
0.023909805
0.025897349
0.028147104
0.030637841
0.033306854
0.036042305
0.038622263
0.040393253
0.040899062
0.038910282
0.030958001
0.017642673
0.013117624
0.0068154889
0.0042959665
0.011113212
0.043477032
0.049783724
4.7943988e-12
1.5065665e-10
1.2319712e-09
5.2982931e-09
1.63048e-08
4.1146297e-08
9.1248665e-08
1.8494959e-07
3.5101741e-07
6.338134e-07
1.1008215e-06
1.8535754e-06
3.0434464e-06
4.8943537e-06
7.7353007e-06
1.2046784e-05
1.8526686e-05
2.818334e-05
4.2466137e-05
6.3447385e-05
9.4072929e-05
0.00013850273
0.00020256453
0.00029434069
0.00042489241
0.00060908389
0.00086637557
0.0012212709
0.0017027798
0.0023418021
0.0031649599
0.0041839262
0.0053822757
0.0067078333
0.0080817094
0.009424915
0.010684957
0.011844418
0.012912928
0.013915044
0.014881842
0.015847048
0.016846385
0.017917942
0.019099635
0.020427917
0.021939999
0.023669921
0.025644182
0.027868907
0.030323564
0.032948282
0.035625345
0.038115722
0.03979636
0.040274931
0.038477964
0.031266082
0.020960481
0.016244021
0.0080127144
0.0031058912
0.007524725
0.032206008
0.053745902
4.5350875e-12
1.4250818e-10
1.1653381e-09
5.0117197e-09
1.5422857e-08
3.8920432e-08
8.6311771e-08
1.7494139e-07
3.3201882e-07
5.9950054e-07
1.0412105e-06
1.7531734e-06
2.8785443e-06
4.6290856e-06
7.3159378e-06
1.1393516e-05
1.752185e-05
2.6654655e-05
4.0162999e-05
6.0007635e-05
8.8976756e-05
0.00013100965
0.00019162898
0.00027850225
0.00040213946
0.00057669724
0.00082077501
0.001157921
0.0016162671
0.002226272
0.0030151525
0.003996927
0.0051595491
0.0064561877
0.0078116731
0.0091469608
0.010406315
0.011568371
0.012639903
0.013643976
0.014611083
0.015574777
0.016570629
0.017636547
0.018810377
0.020128154
0.021626084
0.023336711
0.025284417
0.027469094
0.029873442
0.032449626
0.035075811
0.037519857
0.039276339
0.03995764
0.038720938
0.032892934
0.026655492
0.018567625
0.0083835235
0.002652831
0.004835043
0.018138396
0.053212528
4.2517988e-12
1.3360627e-10
1.092544e-09
4.6986501e-09
1.4459378e-08
3.6488829e-08
8.0918681e-08
1.6400871e-07
3.1126602e-07
5.6202093e-07
9.7610079e-07
1.6435151e-06
2.6984484e-06
4.3393907e-06
6.8579804e-06
1.0680157e-05
1.6424619e-05
2.4985432e-05
3.7648105e-05
5.6251458e-05
8.341123e-05
0.00012282504
0.00017968087
0.00026118989
0.00037725354
0.00054124236
0.00077078999
0.0010883541
0.0015210233
0.0020986357
0.0028488556
0.0037880311
0.0049087715
0.0061702758
0.0075020271
0.0088255839
0.010081939
0.011245225
0.012318702
0.013323456
0.014289082
0.015248756
0.016237726
0.017293478
0.018453566
0.019753398
0.021227875
0.022907665
0.024814189
0.026946143
0.029284684
0.031803727
0.034386626
0.036837024
0.03879293
0.039917178
0.039393154
0.035779509
0.031503223
0.019690218
0.0079419797
0.0022535022
0.0029907613
0.010793086
0.043304497
3.9501445e-12
1.2412725e-10
1.0150306e-09
4.3652857e-09
1.3433451e-08
3.389966e-08
7.5176248e-08
1.5236816e-07
2.8917025e-07
5.221174e-07
9.0678311e-07
1.5267748e-06
2.5067302e-06
4.0310142e-06
6.3705115e-06
9.9208568e-06
1.5256754e-05
2.3208771e-05
3.4971296e-05
5.2253227e-05
7.7486399e-05
0.0001141104
0.0001669552
0.00024274256
0.00035071856
0.00050340205
0.00071736969
0.0010138643
0.0014187681
0.0019610981
0.0026687556
0.0035602856
0.0046330712
0.0058529162
0.0071549479
0.0084622251
0.0097126877
0.010875493
0.011949688
0.01295379
0.013916108
0.014869187
0.015847761
0.016888622
0.018028778
0.019302824
0.020743967
0.02238056
0.02422919
0.026292958
0.028552827
0.031000717
0.033541475
0.036033657
0.038275952
0.039941719
0.040227117
0.038245143
0.033655445
0.019006185
0.0061022605
0.001761784
0.0015836222
0.0058622565
0.02475493
3.6361401e-12
1.1426013e-10
9.3434336e-10
4.0182726e-09
1.2365532e-08
3.1204555e-08
6.9198982e-08
1.402519e-07
2.661722e-07
4.8058589e-07
8.3464021e-07
1.4052815e-06
2.3072147e-06
3.7101098e-06
5.8632589e-06
9.1307666e-06
1.4041559e-05
2.1360116e-05
3.2185956e-05
4.8092629e-05
7.1320226e-05
0.00010503896
0.00015370432
0.0002235248
0.0003230562
0.00046391473
0.0006615454
0.00093586738
0.0013114004
0.001816126
0.0024779169
0.0033172612
0.0043362544
0.0055077128
0.0067733962
0.0080589937
0.0092999167
0.01046004
0.011533475
0.012535488
0.013492618
0.014436458
0.015400995
0.016422066
0.01753579
0.018775759
0.020173158
0.021753571
0.023527937
0.025503057
0.027668614
0.030026209
0.032512489
0.035048884
0.037578769
0.039731185
0.040447954
0.038778773
0.033190746
0.014986456
0.0040282937
0.0012543238
0.00069701068
0.0025346622
0.010746697
3.3159654e-12
1.0419912e-10
8.5207083e-10
3.6644429e-09
1.1276645e-08
2.8456572e-08
6.3104565e-08
1.2789848e-07
2.4272471e-07
4.382442e-07
7.6109278e-07
1.2814279e-06
2.1038317e-06
3.3829982e-06
5.3462142e-06
8.3254498e-06
1.2802971e-05
1.9475876e-05
2.9346927e-05
4.3851553e-05
6.5033994e-05
9.5788954e-05
0.00014018823
0.00020391279
0.00029480617
0.00042354702
0.00060439308
0.00085585053
0.0012009344
0.0016663726
0.0022796991
0.00306298
0.0040227666
0.0051390755
0.0063612014
0.0076187808
0.0088455782
0.010000132
0.011070933
0.012069228
0.013019195
0.013951066
0.014897792
0.015893988
0.016974503
0.018171628
0.019514272
0.021024811
0.022708742
0.024573098
0.026620757
0.02885866
0.031253558
0.033778245
0.036464672
0.038937232
0.039504014
0.03700203
0.027908055
0.0084102202
0.002324624
0.00075958305
0.00035207837
0.0010256663
0.0051309868
2.995729e-12
9.4136184e-11
7.6978262e-10
3.3105469e-09
1.0187562e-08
2.5708135e-08
5.7009267e-08
1.1554358e-07
2.1927512e-07
3.9590014e-07
6.8754399e-07
1.157577e-06
1.9004615e-06
3.0559203e-06
4.8292426e-06
7.5202721e-06
1.1564621e-05
1.7592002e-05
2.6508376e-05
3.9610906e-05
5.8747601e-05
8.6536762e-05
0.00012666446
0.00018427991
0.0002665055
0.00038306462
0.00054699299
0.00077531779
0.0010894284
0.0015145878
0.0020776546
0.0028018118
0.0036976171
0.0047522086
0.0059231309
0.0071453874
0.0083523519
0.0094975259
0.010563221
0.011555834
0.012496475
0.013413508
0.014338489
0.01530452
0.016344783
0.017489843
0.01876603
0.020192034
0.021768254
0.023497553
0.025392686
0.027463015
0.029688776
0.032067914
0.034726139
0.037086098
0.03686281
0.032273558
0.016015793
0.0043585504
0.0012317082
0.00043617005
0.00021973865
0.0003799937
0.0016858895
2.6812277e-12
8.4253456e-11
6.8896803e-10
2.9629897e-09
9.1179948e-09
2.3008986e-08
5.1023396e-08
1.0341079e-07
1.9624778e-07
3.5431996e-07
6.1532469e-07
1.0359696e-06
1.7007835e-06
2.7347939e-06
4.321697e-06
6.7298005e-06
1.0348914e-05
1.5742581e-05
2.3721668e-05
3.5447437e-05
5.2574851e-05
7.7449932e-05
0.00011337805
0.00016498207
0.0002386676
0.00034320243
0.00049038778
0.00069573227
0.00097890603
0.0013635166
0.0018754036
0.0025383377
0.0033662576
0.0043530496
0.0054649328
0.0066436652
0.0078238233
0.0089546179
0.010011864
0.010996279
0.011925089
0.012824171
0.013723236
0.014653537
0.015646188
0.016729475
0.017926697
0.01925211
0.020701194
0.022263843
0.023956876
0.025784043
0.027723995
0.029840436
0.032318775
0.033267669
0.031305178
0.021109107
0.0064071047
0.001833008
0.00059140656
0.00025807897
0.00016577655
0.00019560067
0.00043987615
2.3777343e-12
7.4716643e-11
6.1098223e-10
2.6275994e-09
8.0858794e-09
2.0404387e-08
4.5247317e-08
9.1703522e-08
1.7402869e-07
3.1420062e-07
5.4564527e-07
9.186438e-07
1.5081439e-06
2.4249995e-06
3.832081e-06
5.9672787e-06
9.1762195e-06
1.3958603e-05
2.1033515e-05
3.1430972e-05
4.6619348e-05
6.8681149e-05
0.00010055261
0.00014634477
0.0002117634
0.00030463751
0.00043554387
0.00061846156
0.00087128133
0.001215797
0.0016765017
0.0022771909
0.0030344169
0.0039481455
0.0049933137
0.0061196267
0.0072646849
0.0083746504
0.0094189006
0.010391746
0.011305633
0.012183208
0.013051795
0.013940374
0.014877555
0.015888662
0.016993232
0.018199792
0.019498643
0.020848903
0.022273625
0.023767515
0.025373725
0.027139712
0.02824123
0.026744224
0.020310425
0.0071701569
0.0021881359
0.00070929667
0.0002931641
0.00017555285
0.00014246209
0.00014267052
0.00016998743
2.0898374e-12
6.5669915e-11
5.3700398e-10
2.3094452e-09
7.1068127e-09
1.7933693e-08
3.9768299e-08
8.0598617e-08
1.5295344e-07
2.7614785e-07
4.7955752e-07
8.0736996e-07
1.3254486e-06
2.1312093e-06
3.3677772e-06
5.2442024e-06
8.0642158e-06
1.2266966e-05
1.848446e-05
2.7622129e-05
4.0971075e-05
6.0363145e-05
8.8382784e-05
0.000128652
0.00018620511
0.00026796514
0.00038331641
0.00054472664
0.00076828416
0.0010738536
0.0014842927
0.0020228631
0.0027078764
0.0035444477
0.0045158397
0.0055805138
0.0066809576
0.0077619893
0.008787119
0.0097437597
0.01063868
0.011490436
0.012323285
0.01316341
0.014036358
0.014963673
0.015959828
0.017025242
0.018140888
0.019221564
0.02031017
0.021467837
0.022669605
0.023164541
0.021509151
0.015406357
0.006456989
0.0021881675
0.00073580956
0.0003052628
0.00017718527
0.00014148686
0.00013156337
0.00012678617
0.00012431724
1.8213049e-12
5.723169e-11
4.6800172e-10
2.0126919e-09
6.1936107e-09
1.5629241e-08
3.4658029e-08
7.0241336e-08
1.332976e-07
2.4065905e-07
4.1792488e-07
7.0360131e-07
1.1550825e-06
1.8572567e-06
2.9348413e-06
4.5699994e-06
7.0273995e-06
1.0689723e-05
1.610775e-05
2.4070633e-05
3.5703896e-05
5.2604983e-05
7.7028795e-05
0.00011213802
0.00016233402
0.00023368082
0.00033442248
0.00047556198
0.00067140113
0.00093981055
0.0013017814
0.0017795281
0.0023922409
0.0031490546
0.0040407146
0.005034733
0.006080139
0.0071224183
0.0081203587
0.009054399
0.0099248384
0.01074521
0.011535865
0.012319458
0.013117667
0.013947289
0.014815558
0.01571096
0.016585787
0.017355568
0.018114112
0.018861267
0.018786557
0.016810369
0.010435295
0.0047391416
0.001905549
0.00070401524
0.00029885031
0.00017660667
0.00013856552
0.00012907099
0.00012261333
0.00012019138
0.00011186157
1.5750006e-12
4.9491957e-11
4.0471148e-10
1.7405051e-09
5.3560146e-09
1.3515605e-08
2.9970989e-08
6.074205e-08
1.1527052e-07
2.0811199e-07
3.6140303e-07
6.0844106e-07
9.988558e-07
1.6060505e-06
2.5378681e-06
3.9518226e-06
6.0767695e-06
9.2436126e-06
1.3928626e-05
2.0814261e-05
3.0873991e-05
4.5489767e-05
6.6613044e-05
9.6982555e-05
0.0001404133
0.00020216945
0.00028942477
0.00041179032
0.00058183567
0.00081542715
0.0011315299
0.0015508744
0.0020926849
0.0027688795
0.0035764845
0.0044916945
0.0054712619
0.0064633915
0.0074238422
0.0083265579
0.0091648377
0.0099462498
0.010686219
0.011402806
0.01211248
0.012825923
0.01353952
0.014223448
0.014800306
0.015276358
0.015563539
0.015117758
0.012764478
0.0068387874
0.0031655051
0.0013946385
0.00060266326
0.00028038952
0.00017094086
0.00013647965
0.00012494843
0.00012123013
0.0001141461
0.00011174596
0.00010619773
1.3528053e-12
4.2509822e-11
3.4761644e-10
1.4949621e-09
4.600414e-09
1.1608902e-08
2.5742899e-08
5.2173097e-08
9.9009363e-08
1.7875405e-07
3.104211e-07
5.2261081e-07
8.5795161e-07
1.3794912e-06
2.1798571e-06
3.3943386e-06
5.219498e-06
7.9395439e-06
1.1963542e-05
1.7877654e-05
2.6518045e-05
3.907188e-05
5.7215904e-05
8.3304188e-05
0.00012061799
0.00017368975
0.00024870698
0.00035398349
0.000500445
0.00070199579
0.00097549272
0.0013398475
0.0018135737
0.0024101503
0.003131419
0.0039613068
0.0048645609
0.005793991
0.0067043605
0.0075641566
0.0083595746
0.0090913634
0.0097687822
0.010403714
0.011005333
0.01157501
0.012093041
0.012507387
0.012787134
0.012763711
0.011953837
0.0092380825
0.0045908906
0.0020960644
0.00095602735
0.0004581164
0.00024549536
0.00016091162
0.00013177677
0.00012209997
0.00011730376
0.0001132218
0.0001089955
0.00010632451
9.9917904e-05
1.1556153e-12
3.6313433e-11
2.9694663e-10
1.2770519e-09
3.9298511e-09
9.9168045e-09
2.1990747e-08
4.4568859e-08
8.4579259e-08
1.527026e-07
2.6518249e-07
4.4645226e-07
7.3292967e-07
1.1784766e-06
1.8622248e-06
2.89975e-06
4.4589698e-06
6.782669e-06
1.022028e-05
1.5272498e-05
2.2653546e-05
3.3377443e-05
4.8876421e-05
7.1161476e-05
0.00010303638
0.0001483761
0.00021247598
0.00030246441
0.00042774078
0.00060033842
0.00083500265
0.0011486075
0.0015583487
0.0020781146
0.0027129453
0.0034530085
0.0042706507
0.0051244462
0.0059700825
0.0067721022
0.0075099841
0.0081769813
0.0087746598
0.0093062664
0.0097709252
0.010154154
0.010412403
0.010501462
0.010318857
0.0092926126
0.0062886937
0.0030341566
0.0014110343
0.00066041322
0.00033977343
0.00020484761
0.00014893454
0.00012631788
0.00011812152
0.0001148451
0.00011148889
0.00010835516
0.00010377724
0.00010097461
9.6171065e-05
9.8330272e-13
3.0898769e-11
2.5266914e-10
1.086633e-09
3.3438889e-09
8.4382e-09
1.8712048e-08
3.7924245e-08
7.1970425e-08
1.2993972e-07
2.2565557e-07
3.7991128e-07
6.2369955e-07
1.002859e-06
1.5847335e-06
2.4676813e-06
3.794601e-06
5.7720942e-06
8.6974963e-06
1.2996814e-05
1.9277655e-05
2.8402536e-05
4.1589484e-05
6.0548399e-05
8.766286e-05
0.00012622688
0.00018074264
0.00025727487
0.00036383333
0.00051070764
0.00071059303
0.0009782143
0.0013289956
0.0017762473
0.0023266386
0.0029747687
0.0036994262
0.0044650802
0.0052297905
0.0059557995
0.0066166494
0.0071975957
0.0076906309
0.0080873481
0.0083720643
0.0085079811
0.008444564
0.0080903735
0.0069404661
0.0040888391
0.0020178861
0.00095156625
0.00046764411
0.00025931583
0.00017314046
0.00013762553
0.00012221142
0.0001154463
0.00011176837
0.00010975174
0.00010579259
0.0001030065
9.9624156e-05
9.6719395e-05
9.2585085e-05
8.3474514e-13
2.6230576e-11
2.1449588e-10
9.2246612e-10
2.8387119e-09
7.1634558e-09
1.5885419e-08
3.2195861e-08
6.1100386e-08
1.1031625e-07
1.9158079e-07
3.2254991e-07
5.2954059e-07
8.5147656e-07
1.345543e-06
2.09526e-06
3.221964e-06
4.9010714e-06
7.3850089e-06
1.1035382e-05
1.6367822e-05
2.4114051e-05
3.530695e-05
5.1395716e-05
7.4399163e-05
0.00010710505
0.00015332054
0.00021817035
0.00030842047
0.00043276744
0.00060196712
0.00082857345
0.0011259301
0.0015059792
0.0019756017
0.0025319137
0.0031583527
0.003824481
0.0044913146
0.0051201185
0.005679401
0.0061460321
0.0065004729
0.006719933
0.0067684742
0.0066188972
0.0061379668
0.004884971
0.00270523
0.0013251927
0.00065074732
0.00033965031
0.00020601874
0.00015129304
0.00012927446
0.00011940158
0.00011415047
0.00011076057
0.00010800013
0.00010406988
0.00010195788
9.9009879e-05
9.5364532e-05
9.3323283e-05
8.9394557e-05
7.0784111e-13
2.2242817e-11
1.8188682e-10
7.8222866e-10
2.4071716e-09
6.0745258e-09
1.3470823e-08
2.7302512e-08
5.1814936e-08
9.3553513e-08
1.6247373e-07
2.7355169e-07
4.4911077e-07
7.221687e-07
1.1412342e-06
1.777154e-06
2.732848e-06
4.1570931e-06
6.2639473e-06
9.3599746e-06
1.388216e-05
2.0450292e-05
2.9938612e-05
4.3572533e-05
6.3056926e-05
9.0742144e-05
0.00012983139
0.00018462585
0.00026078824
0.00036557534
0.0005079373
0.0006983006
0.00094775032
0.0012662561
0.0016596848
0.0021258388
0.0026507314
0.0032075056
0.0037598338
0.0042687433
0.0046985498
0.0050177998
0.0051955392
0.0051912747
0.0049937262
0.0044771024
0.0032460706
0.0017488036
0.00088028613
0.00044967329
0.00025474658
0.0001707585
0.00013609074
0.00012350481
0.00011752889
0.00011395453
0.00011072052
0.00010724943
0.00010336865
0.00010120076
9.7875809e-05
9.5823694e-05
9.2863526e-05
9.0168429e-05
8.702347e-05
5.9950918e-13
1.8838654e-11
1.5404994e-10
6.6251411e-10
2.0387836e-09
5.1449471e-09
1.1409559e-08
2.3125183e-08
4.3888108e-08
7.9243318e-08
1.3762504e-07
2.3172151e-07
3.8044644e-07
6.1177511e-07
9.6680801e-07
1.5055703e-06
2.3152546e-06
3.5218844e-06
5.3067364e-06
7.9293288e-06
1.1759379e-05
1.7320846e-05
2.535196e-05
3.6885877e-05
5.335695e-05
7.6737044e-05
0.00010970365
0.00015583492
0.0002198131
0.00030759223
0.00042644347
0.00058472747
0.00079116493
0.0010533229
0.001375106
0.0017534111
0.0021748745
0.0026145258
0.0030379899
0.0034065708
0.0036816944
0.0038259921
0.0038009018
0.0035859663
0.0030777333
0.0020456063
0.0010945325
0.00057705628
0.0003162783
0.0001977597
0.00014645643
0.00012597063
0.00011842228
0.00011653797
0.00011469545
0.00011150856
0.00010717108
0.00010363105
0.00010117874
9.8290726e-05
9.5692027e-05
9.2656724e-05
8.995219e-05
8.8201748e-05
8.5113197e-05
5.0576867e-13
1.5893001e-11
1.299624e-10
5.5892354e-10
1.7200101e-09
4.3405531e-09
9.6258476e-09
1.9510251e-08
3.7028278e-08
6.6858948e-08
1.1611962e-07
1.9551786e-07
3.2101529e-07
5.1622092e-07
8.1581959e-07
1.270463e-06
1.9537177e-06
2.971887e-06
4.4778229e-06
6.6902238e-06
9.9203882e-06
1.4608945e-05
2.1375647e-05
3.1085769e-05
4.4936661e-05
6.4567071e-05
9.2188897e-05
0.00013073449
0.00018399994
0.00025674244
0.00035465432
0.00048408604
0.00065133347
0.00086127473
0.0011152142
0.0014080884
0.0017258191
0.0020442648
0.0023309077
0.0025485977
0.0026592659
0.0026275495
0.0024318268
0.001973733
0.0012470878
0.00068543059
0.00037447643
0.00022543777
0.00015726907
0.0001298256
0.00011806013
0.00011559169
0.00011542382
0.00011468843
0.00011247904
0.00010752876
0.00010412341
0.00010135326
9.8398299e-05
9.5631602e-05
9.2941962e-05
9.0868979e-05
8.8060622e-05
8.5939403e-05
8.331568e-05
4.2209026e-13
1.3263537e-11
1.0846045e-10
4.6645213e-10
1.4354491e-09
3.6224746e-09
8.033486e-09
1.6282979e-08
3.0903772e-08
5.5801419e-08
9.6916889e-08
1.6318806e-07
2.6793838e-07
4.3087393e-07
6.8094295e-07
1.060413e-06
1.6306567e-06
2.4803206e-06
3.7367877e-06
5.5821473e-06
8.2752442e-06
1.2181772e-05
1.7814736e-05
2.5887767e-05
3.7383445e-05
5.3637397e-05
7.6435608e-05
0.00010811565
0.0001516504
0.00021067287
0.00028937117
0.00039214456
0.00052287603
0.00068368311
0.00087308518
0.0010837894
0.0013008879
0.0015014218
0.0016560696
0.0017320734
0.0016995976
0.0015413669
0.0011839326
0.00073355791
0.00041785196
0.00024708807
0.00016194367
0.0001288014
0.00011549401
0.00011246528
0.00011343304
0.00011540267
0.0001154061
0.00011384052
0.00010895086
0.00010504003
0.00010177005
9.8893479e-05
9.6001228e-05
9.3639214e-05
9.1152373e-05
8.876785e-05
8.656923e-05
8.4803219e-05
8.2147945e-05
3.4422717e-13
1.0816811e-11
8.8452786e-11
3.8040637e-10
1.1706572e-09
2.9542632e-09
6.5516448e-09
1.3279539e-08
2.5203655e-08
4.5509269e-08
7.9041599e-08
1.330897e-07
2.1851829e-07
3.5139461e-07
5.5531626e-07
8.6472663e-07
1.3296126e-06
2.022122e-06
3.0458203e-06
4.5485297e-06
6.7399424e-06
9.9154474e-06
1.4487756e-05
2.1027811e-05
3.0315769e-05
4.3401091e-05
6.1667036e-05
8.6888058e-05
0.00012125715
0.00016734284
0.00022791233
0.00030553211
0.00040185291
0.00051652055
0.00064572764
0.00078076177
0.00090711277
0.0010047565
0.0010497776
0.0010202792
0.00089777244
0.00065764434
0.00040755736
0.00025028393
0.00016132951
0.00012131906
0.00010468675
0.00010431548
0.0001067102
0.00011245952
0.00011692492
0.00011670747
0.00011517881
0.00011020717
0.0001053659
0.00010213018
9.9448556e-05
9.6679501e-05
9.4276123e-05
9.1697313e-05
8.9391807e-05
8.7231913e-05
8.4787982e-05
8.3174788e-05
8.1038796e-05
2.6952502e-13
8.4694102e-12
6.9257279e-11
2.9785271e-10
9.1660742e-10
2.3131427e-09
5.1298264e-09
1.039761e-08
1.97338e-08
3.5632103e-08
6.1885421e-08
1.0419891e-07
1.7107465e-07
2.7508197e-07
4.3467303e-07
6.7676383e-07
1.040382e-06
1.5817874e-06
2.381599e-06
3.5546113e-06
5.2631315e-06
7.7347715e-06
1.1285598e-05
1.6349201e-05
2.3511284e-05
3.354734e-05
4.7457154e-05
6.6483382e-05
9.2091555e-05
0.00012587546
0.00016933745
0.00022348405
0.00028819619
0.00036139429
0.00043812475
0.00050984919
0.00056433858
0.00058631108
0.00056283596
0.00048091138
0.0003447143
0.00022383902
0.00014672434
0.00010775164
9.057047e-05
8.8463331e-05
9.3113839e-05
0.00010256406
0.00011560289
0.00011826334
0.00011815029
0.00011663057
0.0001115687
0.00010614237
0.00010312429
0.00010049751
9.7551622e-05
9.4949788e-05
9.2167856e-05
8.9992136e-05
8.7665108e-05
8.5708932e-05
8.3835346e-05
8.2142813e-05
7.9994017e-05
1.981673e-13
6.2271016e-12
5.0921101e-11
2.1899434e-10
6.7392677e-10
1.7007028e-09
3.7715803e-09
7.6444478e-09
1.4508131e-08
2.6195402e-08
4.5493319e-08
7.6592867e-08
1.2573706e-07
2.0215027e-07
3.1936341e-07
4.970926e-07
7.6388343e-07
1.1608024e-06
1.7465357e-06
2.604338e-06
3.8513324e-06
5.6506552e-06
8.2267665e-06
1.1883754e-05
1.7025384e-05
2.4173612e-05
3.3978771e-05
4.7209312e-05
6.4701749e-05
8.7243574e-05
0.00011535588
0.00014895471
0.00018690126
0.00022647216
0.00026297896
0.0002896321
0.00029795881
0.00028136947
0.00023306976
0.00016884631
0.00011866648
8.7463588e-05
7.3080222e-05
6.984311e-05
7.3891631e-05
8.444086e-05
0.0001043719
0.00011694774
0.00012010173
0.00011981822
0.00011828521
0.00011319436
0.00010719249
0.00010421821
0.00010124467
9.8265183e-05
9.551659e-05
9.2916942e-05
9.0741015e-05
8.8533147e-05
8.6572743e-05
8.4598338e-05
8.2586888e-05
8.1131401e-05
7.9309822e-05
1.3350048e-13
4.1950447e-12
3.4304212e-11
1.4752996e-10
4.5399987e-10
1.1456825e-09
2.5406697e-09
5.1493777e-09
9.7722997e-09
1.7643209e-08
3.0637594e-08
5.1574261e-08
8.4649284e-08
1.3605672e-07
2.1487084e-07
3.3429114e-07
5.1338409e-07
7.7949428e-07
1.1715367e-06
1.7444116e-06
2.5747808e-06
3.7683612e-06
5.4686577e-06
7.8665356e-06
1.120904e-05
1.5804168e-05
2.2015654e-05
3.0238269e-05
4.0839861e-05
5.4054429e-05
6.9815873e-05
8.7528723e-05
0.00010581642
0.00012232355
0.00013366322
0.00013563706
0.00012622101
0.00010417865
8.0124587e-05
6.2613741e-05
5.3146152e-05
5.0852201e-05
5.450225e-05
6.297222e-05
8.1650092e-05
0.00010713416
0.00011842179
0.00012167645
0.00012144892
0.00011994525
0.00011484195
0.00010852393
0.00010519561
0.00010207072
9.9155893e-05
9.6519828e-05
9.3925992e-05
9.1588958e-05
8.9164562e-05
8.7124293e-05
8.501662e-05
8.3331268e-05
8.1631371e-05
8.0238934e-05
7.8634224e-05
8.0448054e-14
2.5279527e-12
2.0671789e-11
8.8901031e-11
2.7357409e-10
6.9035362e-10
1.5308667e-09
3.1025393e-09
5.8873702e-09
1.062794e-08
1.8452415e-08
3.105506e-08
5.0955268e-08
8.1866698e-08
1.2921939e-07
2.0089161e-07
3.0822458e-07
4.6740978e-07
7.0135127e-07
1.0421034e-06
1.5339498e-06
2.2370866e-06
3.2316496e-06
4.6213954e-06
6.5356084e-06
9.1266559e-06
1.2559e-05
1.6983803e-05
2.2492356e-05
2.9042401e-05
3.6359737e-05
4.3830276e-05
5.0419907e-05
5.4674157e-05
5.4812419e-05
5.0888653e-05
4.4197651e-05
3.8101758e-05
3.3786738e-05
3.3701193e-05
3.6942257e-05
4.3389682e-05
5.6889793e-05
8.2642446e-05
0.00010710416
0.00011895462
0.00012321979
0.00012311329
0.00012168456
0.00011676842
0.00010994082
0.00010643307
0.00010295301
0.00010022113
9.7498253e-05
9.4882657e-05
9.2257354e-05
8.991199e-05
8.7827528e-05
8.5966068e-05
8.4230626e-05
8.2536695e-05
8.0831435e-05
7.9449884e-05
7.8000418e-05
4.248347e-14
1.334974e-12
1.0916397e-11
4.694635e-11
1.4446373e-10
3.6453355e-10
8.0830636e-10
1.6380083e-09
3.1078759e-09
5.6093539e-09
9.7366451e-09
1.6381098e-08
2.6866116e-08
4.3138426e-08
6.8036706e-08
1.0566457e-07
1.619011e-07
2.4508652e-07
3.6692e-07
5.4359287e-07
7.9714267e-07
1.1569287e-06
1.6609699e-06
2.3566093e-06
3.2995366e-06
4.549623e-06
6.1613921e-06
8.1665317e-06
1.0546814e-05
1.3198024e-05
1.5892698e-05
1.8255808e-05
1.9772253e-05
2.0091391e-05
1.968535e-05
1.9078487e-05
1.8876203e-05
2.0043285e-05
2.2467671e-05
2.8331594e-05
3.8296493e-05
5.648779e-05
8.3112207e-05
0.00010613217
0.00011853522
0.00012434195
0.00012481439
0.0001234896
0.00011882075
0.00011157253
0.0001077449
0.00010409196
0.00010117151
9.8562658e-05
9.5835988e-05
9.3253059e-05
9.0871729e-05
8.8754521e-05
8.672187e-05
8.4851904e-05
8.2964637e-05
8.1438918e-05
7.9982676e-05
7.8832345e-05
7.7621922e-05
1.9508418e-14
6.1301929e-13
5.0127613e-12
2.1557123e-11
6.6333375e-11
1.673731e-10
3.7109598e-10
7.5191962e-10
1.4264005e-09
2.5738522e-09
4.4661625e-09
7.5105664e-09
1.2310471e-08
1.97511e-08
3.111869e-08
4.8263943e-08
7.3821997e-08
1.1150099e-07
1.6644723e-07
2.4568311e-07
3.5858781e-07
5.1734095e-07
7.371645e-07
1.0360673e-06
1.4336231e-06
1.9481285e-06
2.591467e-06
3.3612517e-06
4.2310522e-06
5.1415797e-06
5.9990978e-06
6.7132916e-06
7.347204e-06
8.1079752e-06
9.1841686e-06
1.0691031e-05
1.2885824e-05
1.7419521e-05
2.5139489e-05
3.7914863e-05
5.6916559e-05
8.0890803e-05
0.00010254005
0.00011743744
0.000125357
0.00012645264
0.00012529009
0.00012108393
0.00011333014
0.00010926366
0.00010530423
0.00010229941
9.9478991e-05
9.6929038e-05
9.4260428e-05
9.1891675e-05
8.9541876e-05
8.7481051e-05
8.5485929e-05
8.3850736e-05
8.2310261e-05
8.0902549e-05
7.936734e-05
7.8223368e-05
7.7126587e-05
8.1427049e-15
2.5587036e-13
2.092275e-12
8.9975167e-12
2.76851e-11
6.9850758e-11
1.5485646e-10
3.1372862e-10
5.9503262e-10
1.0734205e-09
1.8619589e-09
3.1297506e-09
5.1268755e-09
8.2192962e-09
1.2937045e-08
2.0039614e-08
3.0602733e-08
4.6130073e-08
6.8690992e-08
1.0107962e-07
1.4697932e-07
2.1109757e-07
2.9920777e-07
4.1800108e-07
5.7462599e-07
7.7582676e-07
1.0267624e-06
1.3300414e-06
1.6864809e-06
2.1019137e-06
2.5984721e-06
3.2077178e-06
4.0276618e-06
5.3496907e-06
7.3801785e-06
1.0543867e-05
1.6103222e-05
2.496422e-05
3.7916847e-05
5.5619507e-05
7.7361853e-05
9.9176215e-05
0.00011763445
0.00012659175
0.00012811076
0.00012709989
0.00012346461
0.00011531507
0.00011090268
0.0001067098
0.00010345853
0.00010054399
9.7904049e-05
9.5474493e-05
9.2919413e-05
9.0575568e-05
8.8339659e-05
8.6421912e-05
8.4669273e-05
8.3028593e-05
8.1351406e-05
7.9965346e-05
7.8696023e-05
7.768416e-05
7.6728584e-05
3.8650859e-15
1.2145357e-13
9.9313491e-13
4.2708001e-12
1.3140941e-11
3.3154461e-11
7.3500146e-11
1.4890181e-10
2.8240638e-10
5.0944279e-10
8.8368128e-10
1.4854218e-09
2.4334978e-09
3.902005e-09
6.1435501e-09
9.5211376e-09
1.4551216e-08
2.1960686e-08
3.2760649e-08
4.8339226e-08
7.0574813e-08
1.0197048e-07
1.458122e-07
2.06365e-07
2.8915639e-07
4.0148293e-07
5.5346286e-07
7.6031006e-07
1.0470839e-06
1.4569646e-06
2.0580396e-06
2.9672349e-06
4.3964363e-06
6.7046998e-06
1.0394792e-05
1.6241326e-05
2.4929444e-05
3.7139901e-05
5.3677313e-05
7.4576539e-05
9.7129293e-05
0.00011764373
0.00012776558
0.00012982752
0.00012894581
0.00012570275
0.00011753102
0.00011275917
0.00010821387
0.00010478932
0.00010164111
9.9004551e-05
9.6500775e-05
9.4102828e-05
9.1544732e-05
8.9344748e-05
8.7274781e-05
8.5460617e-05
8.3621508e-05
8.2134268e-05
8.0730552e-05
7.9541331e-05
7.8205899e-05
7.7311103e-05
7.645276e-05
3.1780081e-15
9.9863653e-14
8.1660355e-13
3.5117597e-12
1.0805956e-11
2.7265477e-11
6.0452435e-11
1.2249251e-10
2.3238594e-10
4.1938641e-10
7.2790873e-10
1.2246149e-09
2.0085899e-09
3.2258776e-09
5.0901457e-09
7.9119305e-09
1.2139869e-08
1.8418694e-08
2.7670811e-08
4.1211531e-08
6.0913636e-08
8.9447301e-08
1.3064175e-07
1.9005708e-07
2.7594311e-07
4.0072303e-07
5.8352991e-07
8.5469969e-07
1.2632826e-06
1.8892127e-06
2.8619439e-06
4.3872575e-06
6.780624e-06
1.0511309e-05
1.6200776e-05
2.452271e-05
3.6210808e-05
5.2152131e-05
7.2621343e-05
9.5476488e-05
0.00011654069
0.00012868159