/*--------------------------------*- C++ -*----------------------------------*\
  =========                 |
  \\      /  F ield         | OpenFOAM: The Open Source CFD Toolbox
   \\    /   O peration     | Website:  https://openfoam.org
    \\  /    A nd           | Version:  13
     \\/     M anipulation  |
\*---------------------------------------------------------------------------*/
FoamFile
{
    format      ascii;
    class       volScalarField;
    location    "12.799999";
    object      yPlus;
}
// * * * * * * * * * * * * * * * * * * * * * * * * * * * * * * * * * * * * * //

dimensions      [];

internalField   uniform 0;

boundaryField
{
    inlet
    {
        type            calculated;
        value           uniform 0;
    }
    outlet
    {
        type            calculated;
        value           uniform 0;
    }
    cylinder
    {
        type            calculated;
        value           nonuniform List<scalar> 
132
(
5.9871286e-07
5.9575449e-07
5.8850924e-07
5.7677621e-07
5.6056059e-07
5.4002478e-07
5.1540762e-07
4.8696686e-07
4.5505877e-07
4.2017315e-07
3.8293003e-07
3.4404859e-07
3.0433877e-07
2.6469445e-07
2.2605943e-07
1.8938132e-07
1.5552514e-07
1.2519718e-07
9.886092e-08
7.6682897e-08
5.8548674e-08
4.4103544e-08
3.2928233e-08
2.4676485e-08
1.9304258e-08
1.6816973e-08
1.6553258e-08
1.7090507e-08
1.667757e-08
1.4640384e-08
1.1536324e-08
8.3304698e-09
5.755494e-09
4.2800155e-09
4.1158551e-09
4.7993079e-09
5.9762892e-09
7.5327781e-09
9.5159634e-09
1.1988464e-08
1.5092519e-08
1.8987293e-08
2.3391502e-08
2.8236224e-08
3.337871e-08
3.8678538e-08
4.4004865e-08
4.9242872e-08
5.4310519e-08
5.9153271e-08
6.373259e-08
6.8032358e-08
7.202997e-08
7.5702712e-08
7.9096248e-08
8.2204231e-08
8.5008901e-08
8.7517674e-08
8.9741966e-08
9.1689361e-08
9.3372111e-08
9.4769201e-08
9.5895666e-08
9.6748434e-08
9.733047e-08
9.7637226e-08
5.9736231e-07
5.9171069e-07
5.8177936e-07
5.6748143e-07
5.4893389e-07
5.2635378e-07
4.9990535e-07
4.6987357e-07
4.3669222e-07
4.0090554e-07
3.6315306e-07
3.2416542e-07
2.8476931e-07
2.4586717e-07
2.0838957e-07
1.7324138e-07
1.4121052e-07
1.1288726e-07
8.8596349e-08
6.8379309e-08
5.2012825e-08
3.9108174e-08
2.9268787e-08
2.2257388e-08
1.8138304e-08
1.6680339e-08
1.6913462e-08
1.721011e-08
1.6127529e-08
1.3526906e-08
1.0265202e-08
7.2393447e-09
5.0452769e-09
4.0825935e-09
4.292458e-09
5.1778161e-09
6.4823576e-09
8.1671697e-09
1.029039e-08
1.2914716e-08
1.6186894e-08
2.0250947e-08
2.4794378e-08
2.9740694e-08
3.4940322e-08
4.0261931e-08
4.5574228e-08
5.0766348e-08
5.5774055e-08
6.0541251e-08
6.5039346e-08
6.9254846e-08
7.3165265e-08
7.6742513e-08
8.0062296e-08
8.3077969e-08
8.579522e-08
8.8213639e-08
9.0354767e-08
9.2217385e-08
9.3823771e-08
9.5131734e-08
9.6180516e-08
9.6947215e-08
9.7441177e-08
9.766885e-08
)
;
    }
    frontAndBack
    {
        type            empty;
    }
}


// ************************************************************************* //
