/*--------------------------------*- C++ -*----------------------------------*\
  =========                 |
  \\      /  F ield         | OpenFOAM: The Open Source CFD Toolbox
   \\    /   O peration     | Website:  https://openfoam.org
    \\  /    A nd           | Version:  13
     \\/     M anipulation  |
\*---------------------------------------------------------------------------*/
FoamFile
{
    format      ascii;
    class       volScalarField;
    location    "41.30272";
    object      omega;
}
// * * * * * * * * * * * * * * * * * * * * * * * * * * * * * * * * * * * * * //

dimensions      [0 0 -1 0 0 0 0];

internalField   nonuniform List<scalar> 
17140
(
3736295.3
603677.93
185335.27
78621.664
40006.338
22786.784
13994.066
9063.8871
6105.5561
4237.603
3010.6929
2179.2722
1601.4845
1191.5858
895.77107
679.20045
518.70566
398.52514
307.7238
238.58479
185.58106
144.70228
113.00538
88.309024
68.982613
53.798675
41.828452
32.367481
24.88212
18.970382
14.331481
10.73896
8.0140469
6.0011397
4.5532699
3.5327948
2.8210576
2.3255609
1.9798494
1.7385881
1.5716305
1.4590723
1.3884806
1.3518578
1.3398889
1.3471193
1.3730678
1.4152073
1.4718824
1.5423995
1.6270969
1.7272253
1.8439841
1.9769372
2.1269846
2.2993417
2.4976608
2.7123473
2.9092584
3.0251526
3.0600752
3.0411132
3.1650638
3.2279937
2.796433
3736320.9
603682.56
185336.97
78622.536
40006.858
22787.126
13994.305
9064.0611
6105.6861
4237.7018
3010.7683
2179.3295
1601.5272
1191.6164
895.79141
679.21192
518.7093
398.52183
307.71425
238.56969
185.56109
144.67817
112.97791
88.279091
68.951208
53.766886
41.797429
32.338375
24.855994
18.948097
14.31352
10.725355
8.0043862
5.9947236
4.5493127
3.5305693
2.8199709
2.3251658
1.9798269
1.7387145
1.571743
1.4590596
1.3882116
1.3512334
1.3389978
1.3457875
1.3712076
1.4126601
1.4684071
1.5376083
1.6203571
1.7175506
1.8300208
1.9570056
2.0983308
2.2567875
2.4329801
2.6159796
2.7780818
2.8735325
2.9103249
2.9863361
3.374096
3.3172001
2.6657731
3736345.9
603686.66
185338.24
78623.075
40007.133
22787.282
13994.4
9064.1218
6105.7261
4237.7286
3010.7861
2179.3411
1601.5342
1191.6198
895.79207
679.21022
518.70556
398.51631
307.70718
238.5613
185.55166
144.66802
112.96747
88.26886
68.941794
53.758949
41.791632
32.335284
24.855932
18.950987
14.318886
10.732333
8.011942
6.0019567
4.5556758
3.5358868
2.8243075
2.3286604
1.9826237
1.7409396
1.5735056
1.4603918
1.3891062
1.3517042
1.3392177
1.345698
1.3708292
1.4119628
1.4673003
1.5359011
1.6177057
1.7133871
1.82349
1.9468853
2.0825281
2.2317363
2.3938158
2.5583775
2.7020862
2.7948006
2.858711
3.048955
3.5496924
3.3808114
2.5631958
3736372.1
603690.93
185339.56
78623.639
40007.421
22787.447
13994.503
9064.1891
6105.7725
4237.7619
3010.8111
2179.3604
1601.5498
1191.6328
895.80333
679.22033
518.71497
398.52535
307.71616
238.57051
185.56139
144.6786
112.97926
88.28226
68.957229
53.776832
41.812291
32.358854
24.882217
18.97932
14.348014
10.760555
8.0375151
6.0236388
4.5730636
3.5493141
2.8345168
2.3364641
1.98865
1.7456181
1.5771226
1.4632038
1.3913029
1.3534633
1.3407741
1.3471146
1.3722506
1.4134977
1.4690164
1.5378072
1.6197295
1.7153429
1.8250282
1.9474298
2.0811366
2.2267893
2.3834254
2.5436405
2.689082
2.7956513
2.9014535
3.296487
3.6557448
3.4255515
2.4632241
3736400.1
603695.47
185340.96
78624.231
40007.722
22787.621
13994.613
9064.2638
6105.8264
4237.803
3010.8443
2179.3889
1601.5754
1191.657
895.82691
679.24407
518.73938
398.55086
307.74311
238.59922
185.59216
144.71172
113.01505
88.32102
68.999243
53.822307
41.861272
32.411086
24.936967
19.035206
14.40293
10.811886
8.0827442
6.0611464
4.6025697
3.5718407
2.8514804
2.3491859
1.9982237
1.7528945
1.5827561
1.4676761
1.3949933
1.3567285
1.343899
1.3503411
1.3758733
1.4178006
1.4742817
1.5443242
1.6278129
1.7253442
1.8372429
1.9619107
2.0977539
2.2451166
2.4047081
2.5727767
2.7302963
2.8536536
3.0239336
3.5966191
3.7518947
3.4648675
2.3342048
3736429.1
603700.15
185342.4
78624.842
40008.037
22787.805
13994.73
9064.3452
6105.8871
4237.8516
3010.8858
2179.4264
1601.6112
1191.6924
895.8631
679.28175
518.77916
398.59322
307.78847
238.64791
185.64451
144.76801
113.07554
88.385931
69.068716
53.896348
41.93964
32.493135
25.021432
19.119996
14.485064
10.887792
8.1490741
6.1158365
4.6455831
3.6044403
2.8757072
2.3671081
2.0115934
1.7630492
1.5906663
1.4740569
1.4004386
1.3618047
1.348937
1.3558073
1.3822518
1.4256041
1.4840822
1.5567975
1.6438132
1.7459652
1.8636145
1.9948495
2.138197
2.2946851
2.4701732
2.6633583
2.8468714
2.9959076
3.2541687
3.8335417
3.8638849
3.491488
2.1222114
3736459.3
603704.98
185343.87
78625.475
40008.365
22787.998
13994.855
9064.4335
6105.9547
4237.9073
3010.9351
2179.4726
1601.6566
1191.7386
895.91124
679.33274
518.8337
398.65188
307.85172
238.71617
185.7181
144.84724
113.16063
88.47703
69.165844
53.999326
42.047961
32.60577
25.136588
19.234869
14.595768
10.989736
8.2379723
6.1890869
4.7028679
3.6476202
2.9076411
2.3906838
2.0291891
1.776455
1.6011932
1.4826782
1.407992
1.3691036
1.3563641
1.3641192
1.3921831
1.4379829
1.4998961
1.5772932
1.6706584
1.7813473
1.9097159
2.0534052
2.211912
2.3890123
2.5997868
2.828767
3.0292331
3.1872908
3.5361023
4.053677
3.9751557
3.441005
1.7706713
3736490.6
603709.98
185345.4
78626.131
40008.708
22788.2
13994.988
9064.5286
6106.029
4237.9701
3010.992
2179.5272
1601.7112
1191.7951
895.97082
679.39641
518.90226
398.72599
307.93192
238.80291
185.81177
144.94812
113.26892
88.592799
69.289002
54.129519
42.184433
32.747159
25.280652
19.378219
14.733779
11.116936
8.3491636
6.2808961
4.7748737
3.7020364
2.9479963
2.4205495
2.0515481
1.793583
1.6147767
1.4939865
1.4181429
1.3791556
1.3668278
1.3761242
1.4068035
1.4565022
1.5239269
1.6089686
1.7129338
1.8380072
1.9840178
2.1482402
2.3331132
2.5483308
2.8048876
3.0619243
3.2617865
3.4369219
3.8929473
4.3217639
4.0832849
3.0735156
1.4240276
3736522
603715.13
185346.99
78626.812
40009.061
22788.41
13995.127
9064.6301
6106.1096
4238.0394
3011.0558
2179.5893
1601.7743
1191.8609
896.04076
679.4716
518.98359
398.81419
308.02762
238.9066
185.92386
145.06891
113.39858
88.731352
69.436251
54.284961
42.34711
32.915434
25.451919
19.548606
14.898028
11.268796
8.4825859
6.3918081
4.86249
3.7686754
2.9976677
2.4574718
2.0793285
1.8150198
1.631976
1.5085794
1.4316647
1.3925496
1.3812075
1.393005
1.4277329
1.483445
1.5594723
1.6566791
1.7778446
1.9259319
2.09891
2.2955532
2.5247377
2.8032551
3.1080366
3.3900546
3.597529
3.8413746
4.4308298
4.6395518
4.1517094
2.4224474
1.0262602
3736555.2
603720.5
185348.65
78627.521
40009.429
22788.63
13995.274
9064.7378
6106.1959
4238.1144
3011.1257
2179.6581
1601.8446
1191.9348
896.11974
679.55685
519.07609
398.91477
308.13695
239.02526
186.0523
145.20745
113.54739
88.890434
69.605345
54.463467
42.533925
33.10872
25.648796
19.744825
15.087812
11.445191
8.6386862
6.52269
4.9667964
3.848643
3.0576778
2.5023518
2.1133224
1.8414839
1.6534756
1.5271167
1.4491513
1.4105036
1.4007566
1.416426
1.457297
1.5221752
1.6115374
1.7280149
1.8766824
2.0596071
2.2727341
2.5221982
2.8252021
3.1935352
3.5668968
3.9158205
4.1720074
4.5629584
5.1114582
4.8499372
3.7709786
1.5867432
0.65883634
3736589.7
603726.07
185350.36
78628.257
40009.812
22788.859
13995.427
9064.8508
6106.2871
4238.1944
3011.2007
2179.7323
1601.9209
1192.0153
896.20602
679.65024
519.17766
399.02541
308.25744
239.15624
186.19427
145.36078
113.7123
89.066906
69.793113
54.661886
42.741817
33.324136
25.868693
19.964711
15.301535
11.645226
8.8173156
6.6740457
5.0887305
3.9430594
3.1291462
2.5562241
2.1544706
1.8738551
1.6801455
1.5505278
1.4717467
1.4343113
1.4271944
1.4487545
1.4988851
1.5777392
1.6878972
1.8350621
2.0262552
2.2593807
2.5366281
2.8794199
3.3124297
3.8305965
4.3472953
4.8557302
5.2234713
5.7116905
5.5590468
4.8243794
2.4702605
0.9386147
0.43976817
3736625.1
603731.8
185352.13
78629.017
40010.21
22789.097
13995.587
9064.9685
6106.3823
4238.278
3011.2794
2179.8104
1602.0014
1192.1004
896.29751
679.74943
519.28572
399.14333
308.38606
239.29628
186.34631
145.52525
113.88945
89.25679
69.995486
54.876123
42.966744
33.557791
26.107996
20.205085
15.536636
11.86713
9.0176069
6.8458766
5.2289595
4.0529673
3.2132419
2.6202446
2.2038772
1.9132097
1.7130956
1.580048
1.5009321
1.4657689
1.4629646
1.493428
1.5575476
1.6579066
1.8010144
1.9966537
2.2490504
2.558693
2.9520146
3.4724417
4.1544995
4.9637891
5.7389107
6.4612578
6.6492093
6.4039012
5.5918923
3.1741124
1.2238333
0.54761451
0.31814266
3736662.3
603737.8
185353.98
78629.807
40010.622
22789.344
13995.751
9065.0902
6106.4807
4238.3643
3011.3605
2179.8909
1602.0843
1192.1881
896.39176
679.85174
519.39731
399.26526
308.51926
239.44153
186.50428
145.69645
114.07422
89.455253
70.207484
55.101113
43.203642
33.80473
26.361996
20.461655
15.789448
12.108086
9.2377709
7.0374681
5.3876898
4.1791922
3.3111027
2.6956602
2.2628166
1.9608594
1.7537478
1.6173721
1.538845
1.5071901
1.5116903
1.5555861
1.6410439
1.7750386
1.971164
2.238214
2.5789683
3.0252764
3.6429272
4.5041907
5.6416889
6.8907249
7.6562016
7.5555892
7.161437
6.0601821
3.3983011
1.4389886
0.65608152
0.37224801
0.25372572
3736699.8
603743.92
185355.87
78630.62
40011.048
22789.598
13995.921
9065.2146
6106.5808
4238.4517
3011.4423
2179.9716
1602.1674
1192.2758
896.48605
679.95409
519.50904
399.38749
308.65297
239.5876
186.66344
145.86932
114.26123
89.656649
70.423237
55.330829
43.446408
34.058887
26.624808
20.7289
16.055041
12.364021
9.4748465
7.2471146
5.5644063
4.322137
3.4237025
2.7837457
2.3327288
2.0183879
1.8038783
1.6648271
1.5884029
1.5621481
1.5787742
1.6431982
1.7617769
1.9495146
2.2277282
2.5942023
3.0873033
3.7986789
4.8415578
6.2880142
8.0396156
8.6239187
8.4060624
7.6512095
5.9617853
3.0250731
1.4358814
0.72176759
0.41040043
0.28978214
0.21886255
3736738.4
603750.23
185357.82
78631.463
40011.487
22789.859
13996.094
9065.341
6106.6814
4238.5386
3011.5229
2180.0508
1602.2483
1192.361
896.57741
680.05321
519.61724
399.50596
308.78275
239.72962
186.81853
146.03818
114.44443
89.854574
70.636029
55.558306
43.687914
34.313076
26.889329
20.999986
16.32709
12.629412
9.7244348
7.4718024
5.7575462
4.4814997
3.5516543
2.8857035
2.4152105
2.0877345
1.8658248
1.7255416
1.6536636
1.636569
1.6725923
1.7692188
1.9406124
2.2155717
2.6084602
3.138241
3.9290929
5.1430275
6.9044411
8.9844956
9.4578123
9.1180713
7.9607771
5.3976169
2.6764522
1.3495228
0.72768249
0.44433771
0.30553098
0.2428064
0.19339185
3736780.4
603756.99
185359.88
78632.34
40011.94
22790.128
13996.271
9065.4685
6106.7815
4238.6238
3011.6007
2180.1262
1602.3247
1192.4409
896.66275
680.14559
519.71802
399.61634
308.90382
239.86237
186.96385
146.19688
114.61721
90.041968
70.8384
55.775732
43.920071
34.559032
27.147251
21.266738
16.597787
12.897131
9.980464
7.7068913
5.9641327
4.6559259
3.6949459
3.0025249
2.5120301
2.1714079
1.9430258
1.8039714
1.7407548
1.7397387
1.8071575
1.9560108
2.2148901
2.6267893
3.1908938
4.0421721
5.4081171
7.4758483
9.7789648
10.24611
9.7910255
8.2756134
4.95194
2.4586855
1.2784431
0.72306972
0.45755563
0.32860616
0.25526414
0.21462898
0.17102184
3736824.8
603764.02
185362.02
78633.252
40012.411
22790.404
13996.451
9065.5959
6106.8796
4238.7055
3011.6738
2180.1957
1602.3941
1192.5127
896.73889
680.22766
519.80738
399.71419
309.01125
239.98041
187.09345
146.33894
114.77253
90.211288
71.022303
55.974602
44.133974
34.787537
27.389159
21.519703
16.857864
13.158396
10.235047
7.9458653
6.179431
4.8426343
3.8526268
3.1348139
2.6251302
2.2726941
2.040512
1.9075367
1.8587642
1.8875068
2.0072149
2.2446647
2.6547028
3.2702378
4.1642699
5.6535407
8.0191091
10.522275
10.971429
10.43762
8.6686492
4.8135745
2.3778996
1.2573221
0.73190973
0.47565011
0.34350004
0.27415023
0.22427069
0.18803931
0.15358744
3736869.6
603771.19
185364.22
78634.193
40012.895
22790.687
13996.632
9065.7219
6106.9743
4238.7822
3011.7403
2180.2571
1602.454
1192.5735
896.8026
680.2958
519.88126
399.79497
309.10002
240.07818
187.20122
146.45765
114.90313
90.354671
71.179299
56.145921
44.320116
34.988637
27.604746
21.748353
17.096761
13.402899
10.478529
8.1802574
6.3967457
5.0371278
4.0225374
3.2826574
2.7567296
2.3959655
2.1658189
2.0470895
2.025688
2.1076162
2.3190388
2.7151329
3.376431
4.34047
5.9245935
8.5448815
11.248975
11.683763
11.097194
9.1551295
4.9152107
2.4278874
1.2898386
0.76118338
0.50291402
0.36583236
0.28854472
0.23490499
0.19363407
0.16926699
0.14070793
3736913.9
603778.51
185366.48
78635.153
40013.388
22790.973
13996.813
9065.8455
6107.0644
4238.8522
3011.7983
2180.3084
1602.502
1192.6207
896.8508
680.3465
519.9357
399.85427
309.16519
240.15021
187.28109
146.54638
115.00173
90.4642
71.300827
56.2805
44.468706
35.151985
27.78318
21.941475
17.303032
13.619194
10.699851
8.3999454
6.6075604
5.2331979
4.2013105
3.4458314
2.9100428
2.548589
2.3314053
2.2413951
2.2741121
2.4532749
2.8340103
3.5214922
4.5786828
6.2723888
9.1093205
11.987679
12.418577
11.798115
9.7419204
5.2123719
2.5681749
1.3658128
0.8105861
0.53958498
0.3959924
0.30859868
0.24326356
0.20221087
0.17251114
0.15139534
0.12887111
3736961
603786.15
185368.84
78636.152
40013.899
22791.266
13996.996
9065.9663
6107.1488
4238.9142
3011.8463
2180.3475
1602.5357
1192.6515
896.8804
680.37628
519.96681
399.8877
309.20188
240.19108
187.3271
146.59852
115.0611
90.531991
71.378339
56.369127
44.569892
35.26713
27.91347
22.087612
17.464873
13.79531
10.887152
8.593602
6.8020393
5.4235073
4.3850504
3.6247664
3.0908298
2.7435038
2.5590306
2.5279617
2.6666555
3.0313009
3.7366918
4.8931488
6.7159049
9.7523156
12.762911
13.193376
12.55076
10.418016
5.6615265
2.7798667
1.476213
0.87842227
0.58734181
0.43216555
0.33088642
0.25665207
0.20991539
0.17904552
0.15570759
0.13913244
0.11854751
3737011.6
603794.22
185371.3
78637.19
40014.426
22791.565
13997.178
9066.0832
6107.2262
4238.9667
3011.8824
2180.3724
1602.5528
1192.6632
896.88829
680.38161
519.97056
399.89073
309.20499
240.19508
187.33284
146.60697
115.07339
90.549437
71.402493
56.401792
44.613116
35.32313
27.98443
22.175297
17.570594
13.919476
11.02887
8.7506589
6.9711337
5.60169
4.5716194
3.823451
3.3117607
3.0053417
2.8917908
2.982019
3.3283072
4.0598013
5.3241813
7.2784919
10.496811
13.593391
14.017389
13.358574
11.169961
6.2264485
3.0510454
1.6174513
0.96251914
0.6462809
0.47412303
0.35666238
0.27473116
0.22284519
0.18753257
0.16160857
0.1417418
0.12795081
0.11160278
3737062.3
603802.42
185373.81
78638.256
40014.965
22791.867
13997.359
9066.1947
6107.2955
4239.0083
3011.905
2180.3813
1602.5514
1192.6536
896.87215
680.35997
519.94428
399.86051
309.17152
240.15905
187.29503
146.56831
115.03498
90.512601
71.368836
56.373228
44.591911
35.311951
27.986462
22.194444
17.610565
13.98319
11.117466
8.8645371
7.1102015
5.7666211
4.7659115
4.0562773
3.6017947
3.3864111
3.4213623
3.75065
4.5188969
5.9064866
8.0042626
11.340361
14.493796
14.90091
14.226654
11.988429
6.8804478
3.37447
1.7878324
1.0630087
0.71489761
0.51934209
0.38572096
0.2969255
0.24027403
0.19867757
0.16788023
0.14726435
0.12987962
0.11816499
0.1048765
3737113.2
603810.77
185376.4
78639.35
40015.515
22792.173
13997.537
9066.3006
6107.3558
4239.0382
3011.9132
2180.3731
1602.53
1192.6213
896.83019
680.3094
519.8858
399.79473
309.09899
240.08042
187.21108
146.48001
114.94356
90.419649
71.27632
56.283565
44.507995
35.237156
27.924575
22.149496
17.587112
13.986487
11.153926
8.9380973
7.2256357
5.930874
4.9908227
4.3631656
4.0288276
4.0008874
4.3204453
5.1384001
6.6624749
8.917201
12.318306
15.466003
15.856701
15.163302
12.869203
7.5998772
3.7450626
1.9882277
1.1812291
0.79391887
0.56996646
0.42037903
0.32527657
0.26169871
0.21270703
0.17728667
0.15337722
0.13518246
0.12168172
0.11156891
0.099031326
3737167.7
603819.6
185379.1
78640.484
40016.083
22792.485
13997.715
9066.4013
6107.4076
4239.0565
3011.907
2180.3478
1602.489
1192.5664
896.76289
680.23048
519.79587
399.6943
308.98858
239.96063
187.0827
146.34411
114.80157
90.273421
71.128247
56.136641
44.365887
35.104252
27.806004
22.05111
17.51546
13.948699
11.157554
8.9939064
7.3468111
6.1357015
5.307441
4.8378404
4.739927
5.0584512
5.9399241
7.6052533
10.034763
13.451538
16.526998
16.908149
16.18482
13.813263
8.3673876
4.1676368
2.2191139
1.3204494
0.88387439
0.62695613
0.46093225
0.35795516
0.28562234
0.22901249
0.18968497
0.16167837
0.14143673
0.12640009
0.11383019
0.1047202
0.095510608
3737225.4
603828.82
185381.92
78641.666
40016.671
22792.804
13997.894
9066.4983
6107.4524
4239.0652
3011.8888
2180.3082
1602.4312
1192.4926
896.67418
680.12778
519.67977
399.56528
308.84718
239.80752
186.9188
146.17068
114.62031
90.086596
70.93878
55.948235
44.183137
34.932753
27.652451
21.923399
17.4228
13.901828
11.168961
9.0838878
7.5420017
6.4741068
5.8470552
5.6709791
5.9914196
6.9467013
8.7549343
11.369733
14.764943
17.701725
18.050789
17.286513
14.81272
9.1682873
4.6425759
2.4912906
1.4802378
0.98197835
0.68961262
0.50775782
0.39470213
0.31191439
0.24858799
0.20502418
0.17291931
0.149202
0.13143765
0.11834351
0.10797639
0.10048505
0.091610373
3737283.9
603838.24
185384.81
78642.886
40017.276
22793.132
13998.076
9066.5951
6107.4946
4239.0694
3011.8645
2180.261
1602.3646
1192.4087
896.57438
680.0129
519.55049
399.4222
308.69098
239.63908
186.73929
145.98169
114.42401
89.885797
70.737135
55.75037
43.994825
34.761103
27.506134
21.812906
17.360557
13.905372
11.266365
9.3090061
7.9431328
7.1221885
6.848873
7.163495
8.1834127
10.120089
12.913414
16.296248
19.019987
19.285546
18.469287
15.867553
10.001688
5.1767192
2.8004964
1.6526852
1.0839146
0.76062944
0.56302355
0.4366836
0.34148127
0.27203892
0.22390167
0.18669444
0.15888159
0.13815592
0.12368168
0.11207996
0.10306847
0.096311949
0.088667165
3737344.3
603848.04
185387.81
78644.148
40017.904
22793.472
13998.266
9066.6971
6107.5405
4239.0765
3011.8428
2180.2164
1602.3007
1192.3279
896.47821
679.90253
519.42683
399.28618
308.54363
239.48169
186.57353
145.80975
114.24873
89.710869
70.567241
55.591426
43.854201
34.647809
27.431699
21.793493
17.420368
14.076731
11.590019
9.8429885
8.7705756
8.3620575
8.6451485
9.7030737
11.74223
14.646987
18.032402
20.542511
20.621404
19.735511
16.974836
10.862236
5.7673006
3.1424038
1.835741
1.1971033
0.84596654
0.62984462
0.48340383
0.37448907
0.29865913
0.24521093
0.20218831
0.17016967
0.14683771
0.1299294
0.11673307
0.10687771
0.09889715
0.092603869
0.086741584
3737407.1
603858.19
185390.93
78645.458
40018.558
22793.831
13998.471
9066.8123
6107.5995
4239.0974
3011.8361
2180.1885
1602.2558
1192.2686
896.40665
679.82024
519.33523
399.18671
308.4379
239.37165
186.46157
145.69885
114.14261
89.614282
70.486317
55.53421
43.831525
34.674839
27.52912
21.988204
17.747574
14.584793
12.345198
10.937588
10.331176
10.537918
11.578307
13.670367
16.647083
19.940572
22.283277
22.115189
21.083831
18.086767
11.764073
6.4245308
3.5179458
2.0366782
1.3272408
0.94759283
0.70359039
0.5331337
0.41016465
0.32898288
0.2689356
0.22048973
0.1845538
0.15808444
0.13799063
0.12260765
0.11126442
0.10225976
0.095519759
0.090514017
0.084797977
3737471.9
603868.67
185394.16
78646.822
40019.245
22794.215
13998.698
9066.9502
6107.6826
4239.1449
3011.8592
2180.1944
1602.2491
1192.2528
896.38426
679.79351
519.30629
399.15777
308.41143
239.35056
186.44947
145.7003
114.16352
89.662239
70.571165
55.668747
44.032442
34.963969
27.935731
22.552843
18.52497
15.648054
13.793533
12.901032
12.968388
13.907888
15.97943
18.940325
22.169467
24.255156
23.841545
22.560683
19.171286
12.704845
7.1389507
3.914581
2.2497113
1.4731254
1.0575201
0.78103133
0.58628286
0.45353363
0.36475531
0.29678829
0.24181823
0.2018851
0.17088563
0.1472039
0.1294868
0.11638009
0.10648749
0.098992489
0.092609208
0.087747835
0.083197536
3737539.4
603879.61
185397.5
78648.246
40019.969
22794.627
13998.951
9067.115
6107.7949
4239.2249
3011.9192
2180.2423
1602.2905
1192.2919
896.42463
679.83841
519.35902
399.22189
308.49103
239.45046
186.5755
145.85963
114.3651
89.917408
70.89447
56.079149
44.555036
35.632403
28.795001
23.661951
19.961933
17.514835
16.22075
16.042564
16.831026
18.751846
21.600012
24.707272
26.430046
25.890849
24.219247
20.263399
13.682557
7.8995188
4.3268697
2.4893117
1.6407111
1.1820267
0.86753568
0.65332376
0.50787497
0.40671321
0.32578733
0.26523741
0.22069269
0.18568134
0.15834513
0.13837701
0.12306477
0.1116771
0.10256089
0.095348667
0.090225154
0.086003606
0.082100792
3737610.3
603891
185400.99
78649.732
40020.731
22795.069
13999.232
9067.3085
6107.9386
4239.3404
3012.0197
2180.3367
1602.3855
1192.3927
896.53598
679.96499
519.50572
399.39413
308.69504
239.69364
186.8668
146.21007
114.78844
90.431109
71.520991
56.847776
45.503791
36.810483
30.265867
25.507132
22.283872
20.437096
19.878644
20.432453
22.073716
24.686555
27.570906
28.809818
28.03261
25.999551
21.423964
14.712472
8.6847472
4.7566997
2.7525407
1.8246307
1.3132126
0.96320313
0.72814129
0.56745903
0.4471335
0.35608699
0.29117662
0.24383337
0.20349843
0.1727035
0.14902277
0.13113395
0.11742623
0.10684383
0.099044036
0.093227403
0.088315246
0.084634591
0.081127791
3737682.9
603902.72
185404.61
78651.277
40021.531
22795.541
13999.541
9067.5315
6108.115
4239.4929
3012.163
2180.4809
1602.5383
1192.5609
896.726
680.18331
519.75942
399.69122
309.0449
240.10745
187.35817
146.7958
115.48949
91.274028
72.539258
58.083778
47.011219
38.656784
32.534588
28.298636
25.711336
24.612277
24.821757
25.993605
28.237778
30.748221
31.364959
30.335809
27.819896
22.622594
15.739381
9.4527663
5.2047044
3.0408104
2.0263871
1.4582364
1.0728448
0.8169611
0.63359237
0.49674628
0.39557352
0.3266459
0.27070013
0.22441589
0.18835346
0.16142404
0.14017971
0.1245894
0.11236337
0.10361713
0.096350151
0.090746024
0.086295149
0.083057856
0.080196399
3737758.4
603914.96
185408.37
78652.886
40022.372
22796.048
13999.885
9067.7911
6108.3323
4239.6925
3012.3609
2180.6887
1602.7657
1192.8165
897.01827
680.52136
520.15333
400.15262
309.58748
240.74768
188.11624
147.69633
116.56299
92.5582
74.080969
59.94072
49.253738
41.368586
35.810486
32.236181
30.391439
30.064225
30.728679
32.15663
34.147211
34.028144
32.706168
29.558582
23.834366
16.753034
10.214242
5.6974339
3.369112
2.25458
1.6192321
1.1967803
0.91451205
0.70733887
0.55228064
0.44255504
0.36101723
0.29615581
0.24396013
0.2066041
0.17573879
0.15204235
0.13332332
0.1194565
0.10856915
0.10008738
0.09361303
0.088846585
0.08515553
0.082298589
0.079649835
3737836.4
603927.56
185412.25
78654.568
40023.267
22796.603
14000.28
9068.1076
6108.6145
4239.9672
3012.646
2180.9979
1603.1107
1193.2084
897.46852
681.04229
520.75891
400.85913
310.41421
241.71781
189.2577
149.04329
118.15702
94.449648
76.330035
62.617845
52.438478
45.144115
40.250662
37.381321
36.211552
36.353244
37.228231
37.792825
36.995459
35.090962
31.223812
25.053559
17.745955
10.976099
6.2400489
3.7456217
2.5058564
1.7914468
1.3311413
1.0225059
0.79072175
0.61954409
0.49532978
0.40164397
0.32640657
0.27328638
0.23090533
0.19546793
0.16587921
0.14424728
0.12717005
0.11466614
0.10462192
0.097545003
0.091788314
0.087459302
0.083672476
0.081066574
0.078814962
3737916.9
603940.6
185416.3
78656.341
40024.237
22797.231
14000.751
9068.5099
6108.9952
4240.3554
3013.0624
2181.4589
1603.6306
1193.8015
898.14973
681.82817
521.66837
401.9143
311.64142
243.1487
190.9305
151.00429
120.46204
97.161978
79.51039
66.316976
56.725564
50.065633
45.803396
43.46658
42.603098
42.435873
41.779699
40.040657
37.443021
32.905684
26.287869
18.701384
11.747776
6.8426131
4.1670686
2.7746947
1.9766502
1.4816889
1.1460465
0.88868914
0.69720146
0.55597958
0.44662647
0.36465927
0.30332089
0.25499407
0.21196413
0.18063731
0.15555405
0.13705033
0.12188465
0.11080882
0.10191907
0.095190061
0.089624229
0.085752005
0.082725484
0.080553102
0.078478395
3738001.3
603954.26
185420.55
78658.23
40025.298
22797.948
14001.319
9069.0211
6109.5016
4240.8894
3013.6472
2182.1139
1604.3737
1194.6507
899.12434
682.94981
522.96198
403.40922
313.37265
245.15837
193.26794
153.72509
123.62379
100.81933
83.709172
71.089227
62.061409
55.923611
52.063429
49.767069
48.087846
45.997261
43.33193
39.933019
34.595487
27.476741
19.632968
12.570275
7.5328199
4.6466903
3.0752358
2.1890669
1.6564152
1.2862309
0.99880583
0.78461001
0.62375369
0.50066317
0.40811459
0.33861721
0.28028649
0.2366005
0.20145787
0.17372093
0.14941375
0.13175612
0.11751269
0.10734793
0.098921507
0.093004414
0.088357477
0.084898166
0.081808269
0.079850082
0.077919962
3738088.5
603968.43
185425
78660.234
40026.455
22798.765
14001.999
9069.6613
6110.157
4241.5956
3014.4308
2182.9975
1605.3789
1195.7995
900.44058
684.4603
524.69726
405.40426
315.66703
247.79532
196.2945
157.19033
127.57611
105.30132
88.751918
76.665485
68.048318
62.023585
57.701387
54.114895
50.599952
46.974283
42.505096
36.326944
28.729153
20.689134
13.542712
8.3418085
5.1896278
3.4102246
2.4265871
1.84616
1.4360034
1.1191678
0.88430523
0.70416748
0.56505084
0.45997468
0.37756089
0.31294779
0.26301156
0.22478899
0.18887518
0.16230481
0.14091375
0.12600404
0.11340265
0.10431097
0.096859642
0.091482117
0.086721035
0.083631289
0.080984135
0.079188548
0.077491795
3738178.6
603983.1
185429.62
78662.352
40027.713
22799.686
14002.795
9070.4354
6110.9667
4242.4797
3015.4189
2184.1153
1606.651
1197.251
902.0982
686.35298
526.85661
407.86437
318.46367
250.96417
199.86648
161.18463
131.98956
110.09402
93.831371
81.891014
73.084142
66.369535
60.85207
55.917095
51.073955
45.380545
38.32538
30.232342
21.967953
14.674707
9.2369748
5.7805219
3.7860401
2.6990431
2.0602005
1.6073039
1.2630749
1.0041728
0.80011656
0.64021414
0.51828442
0.42355158
0.34995205
0.29457879
0.24745343
0.21050046
0.17972955
0.15723506
0.13699394
0.12247864
0.11023359
0.10187423
0.094620167
0.089712221
0.085695158
0.082880323
0.080361391
0.078881725
0.077266028
3738271.2
603998.27
185434.43
78664.587
40029.071
22800.709
14003.701
9071.3324
6111.9161
4243.5226
3016.5871
2185.4366
1608.1517
1198.9579
904.03916
688.55699
529.35346
410.68321
321.62986
254.49449
203.7614
165.41706
136.48964
114.72969
98.384724
86.040505
76.516321
68.814764
62.136333
55.737228
48.659756
40.655104
32.012185
23.46428
15.960927
10.248658
6.4815432
4.259256
3.0354317
2.3077942
1.8004423
1.4242437
1.1360367
0.90455842
0.72475319
0.58627854
0.47866407
0.39545541
0.32962844
0.27663606
0.23397193
0.20205054
0.17145968
0.14893846
0.13023939
0.11772383
0.10696299
0.099386502
0.0930051
0.088577164
0.084587423
0.082040409
0.079770236
0.078357232
0.076863007
3738367.1
604011.18
185437.06
78665.101
40029.169
22800.798
14003.908
9071.7039
6112.4745
4244.2826
3017.5622
2186.641
1609.6013
1200.6704
906.03332
690.85184
531.96593
413.62468
324.90131
258.07905
207.61477
169.45598
140.57992
118.67727
101.93529
88.895985
78.37619
69.435013
61.057241
52.47254
43.45708
34.21179
25.315755
17.535204
11.494026
7.367725
4.8490032
3.4212288
2.5730039
2.0090461
1.6038136
1.2877112
1.0307241
0.82970009
0.67184963
0.54588176
0.44803708
0.37081579
0.3093719
0.26279662
0.22310308
0.19132014
0.16368314
0.14482573
0.12744523
0.11540662
0.10468445
0.097673169
0.09135263
0.08724194
0.083706747
0.081407773
0.079238708
0.077991468
0.076672552
3739014.3
604121.87
185474.39
78682.859
40039.331
22807.4
14008.634
9075.3706
6115.5241
4246.9773
3020.0696
2189.0755
1612.0457
1203.1868
908.66926
693.64216
534.93226
416.77252
328.21477
261.51371
211.08923
172.8439
143.70564
121.31939
103.84525
89.838196
78.02008
67.281757
56.954939
46.747508
36.746383
27.37331
19.225385
12.811971
8.3058956
5.466111
3.8199147
2.857775
2.2466119
1.810295
1.4602422
1.1730792
0.94555031
0.76324228
0.61857921
0.5057189
0.4179718
0.34900924
0.29418409
0.24937293
0.21199363
0.18453175
0.15781589
0.13861525
0.1219617
0.11135553
0.10189165
0.095586897
0.089945918
0.08632577
0.08293122
0.080739024
0.078872921
0.077689148
0.07651007
3739013.7
604118.88
185472.01
78681.165
40038.244
22806.762
14008.344
9075.368
6115.7758
4247.4657
3020.787
2190.0206
1613.2202
1204.5931
910.30742
695.50574
537.00371
419.01693
330.57278
263.89404
213.3625
174.84021
145.22215
122.13172
103.66063
88.246127
74.749915
62.39427
50.766302
39.818484
29.816158
21.196843
14.355987
9.4395758
6.2435539
4.3413549
3.2279693
2.5326542
2.037954
1.6448895
1.32872
1.0767951
0.87223563
0.70932547
0.58086095
0.47753209
0.39624194
0.33097394
0.27818104
0.23796211
0.20361371
0.17604312
0.15099079
0.13497075
0.11973151
0.10966713
0.10019558
0.094215982
0.088741954
0.085189641
0.082162361
0.080310886
0.078441741
0.07729985
0.076362425
3739013.8
604119.03
185472.16
78681.381
40038.525
22807.116
14008.778
9075.8908
6116.3966
4248.1938
3021.6313
2190.9889
1614.3177
1205.8204
911.65749
696.96057
538.52939
420.5585
332.04911
265.1945
214.34915
175.33589
144.99421
120.88388
101.15137
84.404156
69.659847
56.327342
44.185405
33.322736
24.014446
16.544122
11.027778
7.3078264
5.0162031
3.6612152
2.8382374
2.2808461
1.8569257
1.5177918
1.2382664
1.0053495
0.81675101
0.66532722
0.54398782
0.44797199
0.37335579
0.3140277
0.26672996
0.22807515
0.19485314
0.17076535
0.14691425
0.13054327
0.11545947
0.10641301
0.09790233
0.092592907
0.087557438
0.084530425
0.081527782
0.079711564
0.078071611
0.077158661
0.076227041
3739014
604119.13
185472.25
78681.493
40038.672
22807.303
14009.011
9076.1759
6116.7396
4248.6002
3022.1054
2191.5323
1614.9283
1206.4895
912.36708
697.68002
539.21163
421.13496
332.42444
265.23967
213.88875
174.17229
142.94335
117.82683
97.046224
79.323724
63.8227
50.100965
38.04383
27.75528
19.408836
13.091545
8.6916699
5.8912404
4.2198657
3.2330114
2.5973927
2.1273438
1.7457309
1.4244937
1.1577859
0.94245184
0.76837237
0.62897514
0.51838091
0.42917559
0.35882633
0.30167618
0.25514086
0.21957901
0.18885324
0.16472604
0.14168943
0.12767823
0.11393738
0.10523232
0.096740415
0.091605235
0.086705943
0.083735436
0.081042731
0.079471329
0.077878181
0.076904962
0.076102602
3739014.9
604119.22
185472.27
78681.496
40038.678
22807.317
14009.035
9076.214
6116.7944
4248.6733
3022.1966
2191.6379
1615.0392
1206.5889
912.42714
697.65771
539.04403
420.73691
331.68778
264.03817
212.09428
171.66488
139.63294
113.68205
92.125471
73.79865
57.981475
44.31989
32.724621
23.24117
15.90762
10.634683
7.147033
5.0088806
3.7474467
2.9660242
2.4175437
1.9869575
1.6319751
1.3388423
1.096816
0.89573851
0.73143498
0.59901155