/*--------------------------------*- C++ -*----------------------------------*\
  =========                 |
  \\      /  F ield         | OpenFOAM: The Open Source CFD Toolbox
   \\    /   O peration     | Website:  https://openfoam.org
    \\  /    A nd           | Version:  13
     \\/     M anipulation  |
\*---------------------------------------------------------------------------*/
FoamFile
{
    format      ascii;
    class       volVectorField;
    location    "41.30272";
    object      UMean;
}
// * * * * * * * * * * * * * * * * * * * * * * * * * * * * * * * * * * * * * //

dimensions      [0 1 -1 0 0 0 0];

internalField   nonuniform List<vector> 
17140
(
(-1.7275615e-06 7.2113082e-05 -8.6962793e-23)
(-2.2288961e-05 0.00022198666 -6.4411388e-24)
(-6.6907086e-05 0.00038576904 4.2596639e-22)
(-0.0001448312 0.0005641393 -4.6859563e-22)
(-0.00026452335 0.00075779532 5.4824782e-23)
(-0.00043747192 0.00096729448 -1.7953614e-22)
(-0.00067777961 0.0011930152 -3.0255971e-22)
(-0.0010024198 0.0014350933 1.4809448e-22)
(-0.0014317496 0.0016933496 4.8526469e-22)
(-0.0019899919 0.0019672039 1.1926127e-21)
(-0.0027057057 0.0022555797 -1.7738591e-21)
(-0.0036122105 0.0025568038 1.5861407e-21)
(-0.0047479306 0.0028685061 2.434027e-22)
(-0.0061565911 0.0031875275 -1.3865146e-21)
(-0.0078871947 0.0035098551 1.5476564e-22)
(-0.0099936958 0.0038305951 -1.2358095e-21)
(-0.012534294 0.0041440162 4.674484e-23)
(-0.015570282 0.00444368 -1.0098085e-23)
(-0.019164434 0.0047226869 -7.5165931e-22)
(-0.023378997 0.0049740458 9.8732561e-22)
(-0.02827345 0.005191162 -4.8009792e-22)
(-0.033902299 0.0053684028 9.3740676e-23)
(-0.040313699 0.0055016645 6.9313847e-22)
(-0.047550359 0.0055888615 -6.968975e-22)
(-0.055647703 0.0056303209 -1.1203874e-21)
(-0.064633501 0.0056287814 9.1188088e-22)
(-0.074534203 0.005588383 4.5030122e-21)
(-0.085384974 0.0055143935 5.292473e-22)
(-0.097218049 0.0054136291 -4.7276284e-21)
(-0.11005507 0.0052911586 -1.1065232e-21)
(-0.12391821 0.0051491944 -3.9846628e-21)
(-0.1388232 0.0049882728 5.2975359e-21)
(-0.15477841 0.0048082178 -1.3828178e-21)
(-0.17178389 0.0046084613 -6.6946663e-22)
(-0.18982845 0.0043879433 -6.5710599e-21)
(-0.20888441 0.0041451275 2.9128463e-21)
(-0.22890048 0.0038780921 -4.3756808e-21)
(-0.24979265 0.0035846695 -2.9576337e-21)
(-0.27143383 0.0032627808 -1.3467044e-21)
(-0.29364337 0.0029112915 4.0857736e-21)
(-0.31617785 0.0025304763 7.6404786e-21)
(-0.33872188 0.0021220131 6.8667735e-21)
(-0.36087913 0.0016879247 2.9679206e-21)
(-0.38217321 0.0012288053 -1.4134116e-20)
(-0.40204124 0.00074520015 -1.0146608e-20)
(-0.41986701 0.00024243951 2.4517852e-21)
(-0.43507081 -0.00027739114 -1.633664e-20)
(-0.44696425 -0.00080741039 -5.4428448e-21)
(-0.45488344 -0.0013305127 5.4539653e-21)
(-0.45832965 -0.0018190059 1.3165697e-20)
(-0.45689098 -0.0022394619 -8.0345899e-21)
(-0.45020754 -0.0025660538 -5.0533017e-21)
(-0.4379498 -0.0028008621 1.3151871e-20)
(-0.41985625 -0.0029234835 6.2427687e-21)
(-0.39551458 -0.0028866667 4.4992484e-21)
(-0.36476249 -0.0026930541 -3.5474348e-21)
(-0.32699184 -0.0023975943 9.8591674e-21)
(-0.28201463 -0.0021760901 8.3769867e-21)
(-0.22849032 -0.0023736006 2.1543955e-21)
(-0.16703843 -0.0035695328 -5.6129852e-21)
(-0.094906553 -0.0062502167 -4.5205063e-21)
(-0.015520482 -0.010461532 -1.709463e-20)
(0.078605408 -0.014444158 -2.5728204e-21)
(0.17107709 -0.014453727 2.1959694e-20)
(0.27633587 -0.010205269 -1.7406497e-20)
(-1.7509084e-05 0.00040858221 2.4645405e-23)
(-7.0521982e-05 0.0012572012 -2.2289424e-21)
(-0.00015017371 0.0021841414 1.9842296e-21)
(-0.00026571317 0.0031937957 -5.4143828e-22)
(-0.00042561954 0.0042902538 -1.1189354e-21)
(-0.00064131551 0.0054768715 2.1397042e-21)
(-0.00092675822 0.006755998 -2.233444e-21)
(-0.001298694 0.0081286171 1.9684291e-22)
(-0.0017771394 0.0095939071 -6.1557606e-22)
(-0.0023858442 0.011148736 -1.0239744e-23)
(-0.0031527469 0.012787103 -2.0653467e-21)
(-0.0041103814 0.014499545 3.2940619e-21)
(-0.0052962085 0.016272532 2.7310042e-22)
(-0.0067528082 0.01808793 -2.7089995e-21)
(-0.0085278643 0.019922595 8.3745004e-22)
(-0.010673863 0.021748229 5.3513952e-22)
(-0.013247429 0.023531645 -3.4156833e-21)
(-0.016308242 0.025235593 1.122134e-20)
(-0.019917508 0.02682033 -7.0882374e-21)
(-0.024136063 0.028246025 8.5660944e-21)
(-0.029022241 0.029475993 -1.2781366e-20)
(-0.034629775 0.030480542 3.1659927e-21)
(-0.041006443 0.031240908 1.3196506e-21)
(-0.048194892 0.031752509 -4.3420346e-21)
(-0.056231351 0.032026652 1.5787957e-20)
(-0.065144149 0.032088627 2.3595718e-21)
(-0.07495986 0.031968865 -1.2440537e-20)
(-0.085714401 0.031696818 1.4042387e-20)
(-0.097440159 0.031297216 -1.9771214e-21)
(-0.11015844 0.030790179 -1.9220085e-20)
(-0.12389082 0.030189868 2.0288314e-21)
(-0.13865238 0.029506603 1.5474608e-20)
(-0.15445045 0.028748685 3.6214721e-22)
(-0.17128359 0.027921835 -1.1697044e-20)
(-0.18913863 0.027027478 1.3148284e-20)
(-0.20798538 0.026061615 -5.9314688e-21)
(-0.22776935 0.025014799 7.0630806e-21)
(-0.24840264 0.023872925 2.2373756e-20)
(-0.26975355 0.022618626 4.9718694e-21)
(-0.29163586 0.021233658 1.941863e-20)
(-0.31379928 0.019700881 -2.4827831e-20)
(-0.33591962 0.018005134 -2.2546398e-20)
(-0.35758875 0.016132908 -3.7568824e-21)
(-0.3783115 0.014074046 3.022528e-20)
(-0.39750185 0.011830235 -1.3931889e-20)
(-0.41452975 0.0094250184 -4.7274276e-21)
(-0.42874066 0.0068802588 2.5481755e-21)
(-0.4394675 0.0042157802 7.7107221e-21)
(-0.4460679 0.0015041142 -3.7223155e-21)
(-0.44799233 -0.0011712409 6.6347387e-21)
(-0.44481122 -0.0037518656 3.9684074e-20)
(-0.43619217 -0.006197734 1.897091e-21)
(-0.42182451 -0.0084898896 -8.5427183e-21)
(-0.40146467 -0.010618201 1.9092642e-20)
(-0.37477203 -0.012564194 -1.6462247e-20)
(-0.34156485 -0.014353251 4.737294e-20)
(-0.30125666 -0.016088491 1.3702366e-20)
(-0.2537155 -0.018005242 -3.9564462e-20)
(-0.19765268 -0.020442976 6.7902782e-21)
(-0.1335446 -0.024028244 7.99842e-21)
(-0.058581184 -0.029098749 1.6503973e-21)
(0.023867844 -0.036006233 -2.2226364e-20)
(0.12071517 -0.041589803 4.4616169e-20)
(0.21401686 -0.0424163 1.3548109e-20)
(0.31977415 -0.037829342 2.315495e-20)
(-5.1724161e-05 0.00073843568 1.3570924e-21)
(-0.00017494143 0.0022723493 -6.6987167e-22)
(-0.00033034672 0.0039480971 -1.7819144e-22)
(-0.00052707528 0.0057738642 1.6914796e-22)
(-0.00077363773 0.0077572345 -8.198874e-22)
(-0.0010812734 0.0099045206 -6.0807188e-23)
(-0.0014635822 0.012220256 -7.8038196e-22)
(-0.0019367635 0.014706536 -8.4187561e-22)
(-0.0025200198 0.017362244 6.8989729e-21)
(-0.0032360064 0.020182136 -6.17449e-21)
(-0.004111237 0.02315583 2.963708e-21)
(-0.0051764506 0.026266702 4.3564687e-21)
(-0.0064669209 0.029490782 -8.6782469e-21)
(-0.0080226427 0.032795735 -1.0784107e-21)
(-0.0098883357 0.036140082 4.1945437e-21)
(-0.012113199 0.039472873 2.9026743e-21)
(-0.014750345 0.042734078 -3.3932665e-21)
(-0.017855864 0.045856016 1.2389732e-20)
(-0.021487496 0.048766114 -7.3998622e-21)
(-0.025702957 0.051391243 3.6930317e-21)
(-0.030558061 0.053663623 -1.2604295e-20)
(-0.036104845 0.055527947 -3.3152236e-21)
(-0.042390254 0.05694881 7.001977e-21)
(-0.049456772 0.057916958 -1.0647502e-20)
(-0.057342271 0.058452592 -4.2188933e-21)
(-0.06607602 0.058602302 5.1711188e-21)
(-0.075685367 0.058423536 2.952961e-20)
(-0.086207163 0.057970561 1.3434e-20)
(-0.097673588 0.057286006 -6.8503595e-21)
(-0.11010594 0.056405705 7.2749551e-21)
(-0.12352404 0.055356425 -4.7011855e-21)
(-0.13794145 0.054158468 -2.6446267e-20)
(-0.15336306 0.052828627 8.9358836e-21)
(-0.169784 0.051378917 2.6815054e-20)
(-0.18718639 0.049813403 -9.1385552e-21)
(-0.20553404 0.048125711 -1.2754807e-20)
(-0.22476485 0.046298749 2.2172049e-20)
(-0.24478144 0.044306314 6.7233021e-21)
(-0.26544059 0.042115553 -1.2122027e-20)
(-0.2865424 0.03969056 -4.8853185e-21)
(-0.30781957 0.036995796 2.3214565e-20)
(-0.32892615 0.033997542 -6.6603226e-21)
(-0.34942632 0.030664372 -9.4916504e-21)
(-0.36878853 0.026973514 -2.4910923e-20)
(-0.38638941 0.022927375 4.7004387e-20)
(-0.40156521 0.018567955 -2.9981024e-20)
(-0.41362092 0.013951355 -7.3659401e-21)
(-0.4218679 0.0091281129 -2.9208969e-20)
(-0.4256784 0.0042103532 -3.4728462e-20)
(-0.42454456 -0.00065778468 -1.7425826e-21)
(-0.41808546 -0.0053654848 7.3071176e-21)
(-0.4060263 -0.0098611291 -5.4278635e-20)
(-0.38809942 -0.014140141 -2.3276095e-20)
(-0.36409322 -0.018204341 -2.4146508e-20)
(-0.33369344 -0.022050656 -7.9867559e-21)
(-0.29675541 -0.025734392 -6.3180659e-20)
(-0.25271694 -0.029400732 2.5376252e-20)
(-0.20147436 -0.033332715 -7.9479958e-21)
(-0.14158479 -0.037904061 -6.6491165e-20)
(-0.073569953 -0.043807687 -2.6971809e-20)
(0.0056837015 -0.051184261 3.3033915e-20)
(0.092641002 -0.060558432 1.163453e-19)
(0.1927639 -0.067177574 -3.8346487e-20)
(0.28682108 -0.068395841 -6.2701673e-20)
(0.39193439 -0.062866365 -2.7526302e-20)
(-0.00010333701 0.0010505672 -4.5172628e-21)
(-0.00033243783 0.0032335497 4.7862311e-21)
(-0.00060210723 0.0056192489 -1.731492e-21)
(-0.00092127185 0.0082197096 1.8841854e-22)
(-0.0012984999 0.01104612 -3.7261106e-21)
(-0.001744757 0.014107953 3.8602629e-21)
(-0.0022731105 0.017412262 -5.8620768e-21)
(-0.0028989047 0.020962758 2.7643886e-21)
(-0.003640132 0.024758701 1.0527254e-20)
(-0.0045177854 0.028793605 -2.5394414e-21)
(-0.0055562168 0.033053771 -9.6972787e-21)
(-0.0067834401 0.037516714 2.9734706e-21)
(-0.0082314043 0.042149534 2.0085138e-22)
(-0.0099361649 0.046907388 -7.8583581e-21)
(-0.011937912 0.051732255 2.4757775e-20)
(-0.0142808 0.056552321 -1.5322382e-20)
(-0.017012531 0.061282334 -1.4705425e-22)
(-0.020183626 0.065825409 8.6407927e-21)
(-0.0238464 0.070076746 -2.2196172e-20)
(-0.028053633 0.073929634 1.0613612e-20)
(-0.032857074 0.077283846 1.6043381e-20)
(-0.03830592 0.080055959 6.5762996e-21)
(-0.044445625 0.082190414 -3.3085409e-20)
(-0.051318257 0.083669169 -1.7526934e-20)
(-0.05896365 0.084517133 1.1552986e-20)
(-0.067412794 0.084799329 -6.7912919e-21)
(-0.076694809 0.084600933 2.5929749e-20)
(-0.086846858 0.084001523 -7.5314873e-21)
(-0.09790104 0.083062199 2.0595488e-20)
(-0.10987935 0.081835342 -1.1818189e-20)
(-0.12279852 0.080361135 7.3455283e-21)
(-0.13666995 0.078670147 -2.7400704e-20)
(-0.15149481 0.076787632 4.0097414e-21)
(-0.16726315 0.074731843 -2.1176344e-20)
(-0.18395018 0.072509422 2.053304e-20)
(-0.20151061 0.070111733 6.50915e-21)
(-0.21987098 0.06751417 -8.3347075e-20)
(-0.23891995 0.064678162 -2.1766848e-20)
(-0.25849744 0.06155502 1.8206955e-20)
(-0.27838351 0.058090699 -1.7917975e-20)
(-0.29828678 0.054230067 4.5356498e-21)
(-0.31783181 0.049919158 2.8770241e-20)
(-0.3365471 0.045107609 -1.35989e-21)
(-0.35385868 0.039761118 -9.4031039e-21)
(-0.36911235 0.033888452 4.6654972e-21)
(-0.38163469 0.027554139 -2.0355372e-21)
(-0.39070671 0.020843281 -6.3190172e-21)
(-0.39565077 0.013857634 9.8877646e-20)
(-0.39589208 0.0067765189 -1.0919232e-20)
(-0.3910009 -0.00020347692 1.0072566e-20)
(-0.38066518 -0.0069350931 -9.4394379e-20)
(-0.36466432 -0.013358219 5.188799e-20)
(-0.34276206 -0.019480878 4.268709e-20)
(-0.31476767 -0.025325828 4.1116823e-20)
(-0.2803873 -0.030911489 4.0065038e-20)
(-0.23951268 -0.036328307 6.3877775e-20)
(-0.19156264 -0.041768484 -1.2947252e-19)
(-0.13639153 -0.047617686 8.1143542e-20)
(-0.072337971 -0.05422529 1.2605732e-19)
(2.8753254e-05 -0.062397293 -9.412819e-20)
(0.084398078 -0.072008212 -3.0987475e-20)
(0.1760229 -0.0835104 -2.8058337e-20)
(0.27876904 -0.090535843 1.4466291e-19)
(0.37270658 -0.091518561 1.0836049e-19)
(0.47493374 -0.084471462 -4.9670647e-21)
(-0.00017007451 0.001333876 3.155019e-21)
(-0.00053613261 0.0041068667 -6.9466443e-21)
(-0.00095365045 0.0071389773 5.6668398e-21)
(-0.001431293 0.010446151 -2.143198e-21)
(-0.0019777379 0.014043298 -7.7487612e-22)
(-0.0026036165 0.017943338 6.6768265e-21)
(-0.0033213323 0.022156303 -1.6947526e-21)
(-0.0041451691 0.026688195 -3.6041091e-21)
(-0.0050915829 0.031539584 -2.7753493e-22)
(-0.0061794635 0.036703976 -2.3623862e-21)
(-0.0074303973 0.042165951 3.3196481e-21)
(-0.0088689053 0.047899107 -2.3184956e-21)
(-0.010522651 0.053863912 -8.5865516e-21)
(-0.012422579 0.060005627 -2.4974523e-22)
(-0.014602969 0.066252535 6.6629007e-21)
(-0.017101338 0.072514869 4.7618435e-21)
(-0.019958197 0.078684901 -4.1389445e-21)
(-0.02321659 0.08463881 4.0610869e-22)
(-0.026921426 0.09024098 8.2866511e-21)
(-0.031118615 0.095351273 1.0235086e-20)
(-0.035854073 0.099835542 -1.1867944e-20)
(-0.041172701 0.10357899 -1.2140486e-20)
(-0.047117482 0.10650093 1.6616333e-20)
(-0.053729572 0.10856836 -2.0889107e-20)
(-0.061050272 0.10980441 -3.6716882e-20)
(-0.069113837 0.11028752 8.7961873e-20)
(-0.077951892 0.11013054 -4.9103711e-20)
(-0.087600288 0.10943842 7.352487e-20)
(-0.098092638 0.10829278 -9.2950167e-20)
(-0.10945235 0.10676324 1.0475028e-19)
(-0.12169189 0.10490435 -1.0931381e-19)
(-0.13481991 0.10275749 1.8651309e-20)
(-0.14883293 0.10035644 6.4590642e-20)
(-0.16371465 0.09772561 -3.6738941e-20)
(-0.17943176 0.094874289 1.1598798e-20)
(-0.19592793 0.091791662 3.4696861e-21)
(-0.21311561 0.088445644 4.2096153e-20)
(-0.23086649 0.084785291 1.3660077e-20)
(-0.24900066 0.080745884 1.3667578e-20)
(-0.26727514 0.076254636 1.3740166e-20)
(-0.28537137 0.071235758 -6.9953508e-20)
(-0.30288242 0.065613676 3.0592707e-20)
(-0.31930136 0.059319136 4.6402872e-21)
(-0.33402037 0.052311117 -5.5150822e-20)
(-0.34637866 0.04461436 -2.7511754e-20)
(-0.35570927 0.036323984 1.3535876e-20)
(-0.36132107 0.027552769 4.7998291e-20)
(-0.36258732 0.01846476 -2.0885629e-20)
(-0.35899715 0.0093023779 5.9688076e-20)
(-0.35016762 0.00031944021 3.2190695e-20)
(-0.33583085 -0.008306742 4.441707e-20)
(-0.31579649 -0.016521734 1.1851346e-19)
(-0.28982837 -0.024356655 -9.2181642e-20)
(-0.25773689 -0.031853125 2.9830033e-20)
(-0.21923277 -0.039042199 -5.2671334e-20)
(-0.17422206 -0.04605066 -5.0597339e-20)
(-0.12207671 -0.053130069 -1.9914155e-20)
(-0.062585897 -0.060790872 -1.8766403e-19)
(0.0062095921 -0.069341729 -5.1815347e-20)
(0.083690965 -0.079774409 1.2102607e-19)
(0.17400489 -0.091380243 4.6722476e-20)
(0.27021131 -0.10441321 -3.6382227e-20)
(0.3746925 -0.11111342 -7.7196745e-20)
(0.46758574 -0.11110854 -1.2146164e-19)
(0.56469064 -0.10177893 9.765035e-21)
(-0.00024840574 0.0015776677 9.5183249e-21)
(-0.00077532937 0.0048595611 2.2160556e-21)
(-0.0013665984 0.0084506581 -1.7968315e-21)
(-0.0020306238 0.01237079 -6.6375926e-21)
(-0.0027762513 0.016638678 3.6400716e-21)
(-0.0036137738 0.02127098 -5.2467179e-21)
(-0.0045548772 0.026281231 2.2740659e-21)
(-0.0056126763 0.031678529 5.4266191e-22)
(-0.0068019033 0.037465915 -3.0803147e-21)
(-0.0081390603 0.043638449 -6.6602095e-21)
(-0.0096425765 0.050181001 -3.3394851e-22)
(-0.011332947 0.05706576 1.1051158e-20)
(-0.013232853 0.064249587 -1.5379789e-20)
(-0.015367256 0.071671343 2.5025733e-20)
(-0.017763429 0.079249499 -6.5995272e-21)
(-0.020450952 0.08688042 1.4163788e-20)
(-0.023461607 0.094437907 -1.734444e-20)
(-0.026829211 0.10177473 1.1422978e-20)
(-0.030589351 0.10872698 -1.8370217e-21)
(-0.03477905 0.11512205 -7.5753909e-21)
(-0.039436388 0.12079075 1.8751295e-20)
(-0.044600127 0.12558328 -2.7000564e-20)
(-0.050309346 0.12938771 2.9956966e-20)
(-0.056603442 0.13214796 5.2145248e-21)
(-0.063523506 0.13387657 -5.2553179e-20)
(-0.071109522 0.13465697 5.4103985e-20)
(-0.079395012 0.13462463 -3.5840891e-20)
(-0.088413064 0.13391431 4.0801445e-20)
(-0.098202496 0.13263223 3.8231654e-21)
(-0.10878721 0.13086331 2.3901153e-21)
(-0.12017551 0.12867764 -1.6923171e-20)
(-0.13237248 0.12612892 1.0613186e-21)
(-0.14536956 0.12325977 -6.5004688e-20)
(-0.15914347 0.12010092 1.7874657e-20)
(-0.17365146 0.11666445 5.3575763e-20)
(-0.18882485 0.11293751 -2.5258685e-20)
(-0.20456084 0.10888078 2.0965716e-20)
(-0.22071306 0.10443138 -2.1025974e-20)
(-0.23708084 0.099508632 -1.1765292e-19)
(-0.25339767 0.094020648 6.5140207e-20)
(-0.26931848 0.087870253 1.585269e-20)
(-0.28440777 0.080960214 -8.9531522e-20)
(-0.298131 0.073204904 5.4050859e-21)
(-0.30986634 0.064564225 1.0965037e-20)
(-0.31897983 0.055088624 1.1534951e-19)
(-0.32483192 0.044906431 2.6375297e-20)
(-0.32680222 0.034160029 -4.0829203e-20)
(-0.32432377 0.02307081 -4.1233501e-20)
(-0.31691117 0.01193369 -5.7868817e-20)
(-0.30417323 0.0010557234 -7.0659399e-20)
(-0.28585212 -0.0093506027 -4.2859227e-20)
(-0.2617726 -0.019237144 -6.7020906e-20)
(-0.23169314 -0.02865976 2.3102297e-20)
(-0.19541844 -0.037677901 -1.4279138e-19)
(-0.15263852 -0.046330784 -9.5707573e-21)
(-0.10325463 -0.05479202 -8.4542459e-21)
(-0.046501298 -0.063373048 -4.5178374e-21)
(0.017960785 -0.072745803 2.0158431e-19)
(0.092346045 -0.083136888 8.0683386e-20)
(0.17602367 -0.095722446 -1.2691681e-19)
(0.2726459 -0.10894692 -1.8773621e-19)
(0.37332445 -0.12263015 -8.6356222e-20)
(0.47827699 -0.12825599 -2.9056425e-20)
(0.56850986 -0.12640122 1.7279345e-19)
(0.65809472 -0.11410763 -4.465695e-20)
(-0.00033358824 0.0017723601 -1.7776194e-21)
(-0.0010358619 0.0054621441 -3.7057633e-21)
(-0.0018164703 0.0095031635 8.9514354e-21)
(-0.0026839122 0.013918989 -3.3372528e-22)
(-0.0036471691 0.018732199 -4.3686884e-21)
(-0.0047162592 0.023963439 -1.9282308e-21)
(-0.0059021874 0.029630264 -1.4264444e-21)
(-0.0072169092 0.035745729 2.818132e-21)
(-0.0086734041 0.042316603 -1.4632261e-20)
(-0.01028571 0.049341259 1.1085442e-20)
(-0.012068955 0.056807169 -5.3754013e-22)
(-0.014039379 0.064688064 -6.7765515e-21)
(-0.016214339 0.0729408 2.5529394e-20)
(-0.018612314 0.081502116 -2.5654993e-20)
(-0.021252908 0.090285517 3.4554578e-21)
(-0.024156858 0.099178758 2.1603208e-20)
(-0.027346066 0.10804253 -2.0592597e-20)
(-0.030843677 0.11671118 7.3174779e-21)
(-0.034674219 0.12499654 -1.444713e-20)
(-0.038863821 0.13269585 1.8893933e-20)
(-0.043440537 0.13960464 3.618949e-20)
(-0.048434733 0.14553476 -3.6589555e-20)
(-0.053879481 0.1503363 -5.4686646e-20)
(-0.059810859 0.15392029 1.0767049e-19)
(-0.066268584 0.15627704 -8.7997007e-20)
(-0.073296543 0.15748271 5.1949959e-20)
(-0.080932298 0.15768548 -1.3636999e-20)
(-0.089209182 0.15705654 3.2590884e-20)
(-0.098167131 0.15573085 -3.3905334e-20)
(-0.10783237 0.1538068 -4.6052779e-20)
(-0.11821215 0.15137131 3.103961e-20)
(-0.12930559 0.1484927 5.1670635e-20)
(-0.14109949 0.14522338 -4.6556094e-21)
(-0.15356324 0.14160077 -1.9664636e-21)
(-0.16664421 0.13764001 -3.4200966e-20)
(-0.18026117 0.13332684 1.4895864e-20)
(-0.19429607 0.12861541 5.4874897e-20)
(-0.20858461 0.1234314 2.7595969e-20)
(-0.22290612 0.11767846 -4.248619e-20)
(-0.23697201 0.11124568 3.372721e-20)
(-0.25041388 0.10401462 -2.8427869e-20)
(-0.2627743 0.095867859 9.6694253e-21)
(-0.27350433 0.086709218 3.5941955e-20)
(-0.28199465 0.076510456 -8.5268566e-20)
(-0.28766542 0.065354032 -5.0309416e-20)
(-0.28993861 0.053397057 -3.2254939e-20)
(-0.28827132 0.040809487 9.9887477e-20)
(-0.28212608 0.027840101 6.4004795e-20)
(-0.27096916 0.014822547 7.427535e-20)
(-0.25436731 0.0021308294 1.2844424e-19)
(-0.23207778 -0.0099671632 -4.4065194e-20)
(-0.20393883 -0.021425885 9.2426955e-21)
(-0.16969967 -0.032333033 7.3959259e-20)
(-0.12915085 -0.042768428 2.1876058e-19)
(-0.081950588 -0.05277783 1.4605388e-19)
(-0.027931048 -0.06259342 5.844362e-20)
(0.033936268 -0.072585752 1.7380952e-19)
(0.10413097 -0.083583267 -1.2009253e-19)
(0.18503019 -0.095712191 1.2570281e-20)
(0.27595857 -0.11013081 2.0439902e-19)
(0.37902152 -0.12440034 1.4283128e-19)
(0.48379453 -0.13769308 6.816383e-21)
(0.58740432 -0.1413187 -2.4252047e-19)
(0.67233486 -0.13690977 2.5946725e-20)
(0.75163193 -0.12110789 -3.8430807e-20)
(-0.00042002109 0.001910039 -6.9338926e-21)
(-0.0013005265 0.0058901769 3.0485266e-21)
(-0.0022737073 0.010253908 -4.1214942e-21)
(-0.0033483502 0.015028292 -2.3447828e-21)
(-0.0045336202 0.020239694 6.5524669e-21)
(-0.0058393699 0.025912891 6.1265343e-21)
(-0.0072760411 0.032069896 -6.3001645e-21)
(-0.0088545625 0.038728506 7.5945012e-22)
(-0.010586301 0.045900473 1.7649371e-22)
(-0.012482976 0.053589265 1.2597572e-20)
(-0.014556556 0.0617874 -1.3902371e-21)
(-0.016819134 0.070473322 -2.5678267e-20)
(-0.019282809 0.079607881 2.0677028e-20)
(-0.021959559 0.089130527 -7.1993426e-22)
(-0.024861157 0.09895546 -1.412297e-20)
(-0.027999142 0.10896816 -1.2315095e-21)
(-0.031384913 0.11902294 3.1751953e-21)
(-0.035029973 0.12894238 1.4541721e-20)
(-0.038946405 0.13851994 -2.7115248e-20)
(-0.04314762 0.14752691 4.8610305e-20)
(-0.047649379 0.15572513 -1.0718334e-20)
(-0.052471055 0.16288595 8.0310392e-21)
(-0.057636955 0.16881492 -6.7807489e-21)
(-0.063177421 0.17337931 2.6801512e-22)
(-0.069129359 0.17653286 -4.1824731e-20)
(-0.07553631 0.17832947 -4.2540251e-20)
(-0.082444053 0.17891594 8.5753456e-20)
(-0.089888596 0.17849245 1.4485036e-20)
(-0.097903392 0.17723694 -5.1352337e-20)
(-0.10652216 0.17526731 -1.8502799e-20)
(-0.11575474 0.17268094 -4.2194687e-20)
(-0.12559303 0.1695637 4.830908e-20)
(-0.13601873 0.16598063 2.1330931e-20)
(-0.14699379 0.16197637 -5.0135577e-20)
(-0.15845622 0.15757003 2.1308362e-20)
(-0.17031279 0.15274705 9.9584354e-21)
(-0.18243076 0.14745608 -3.0267846e-20)
(-0.19462894 0.14161229 -7.9317839e-20)
(-0.20666808 0.13510444 -2.4076752e-20)
(-0.21823978 0.12780314 1.6181477e-20)
(-0.22895656 0.11957005 3.8328119e-20)
(-0.23834716 0.11027126 3.9384831e-20)
(-0.24586271 0.099807855 4.3281649e-20)
(-0.2509331 0.08817468 9.0041801e-20)
(-0.25304417 0.075493532 -2.4407648e-21)
(-0.25169904 0.061937178 3.726235e-20)
(-0.24640094 0.0476816 -1.9850772e-19)
(-0.23657878 0.032967994 -5.4358999e-20)
(-0.22161541 0.018166611 -6.148032e-20)
(-0.20109489 0.0037458388 -1.6904145e-19)
(-0.17482248 -0.0099560274 1.9665199e-19)
(-0.14263615 -0.022902374 -4.3896632e-20)
(-0.10425204 -0.035209316 -1.4178014e-19)
(-0.059409866 -0.046977256 -1.7601321e-19)
(-0.0076859607 -0.058261437 -2.276362e-20)
(0.051283907 -0.06938056 5.787809e-20)
(0.11879869 -0.080739376 9.5041318e-20)
(0.19543859 -0.093307519 -4.0833223e-20)
(0.2838402 -0.10703385 7.5260029e-20)
(0.38312396 -0.1228102 -6.4341271e-20)
(0.49275104 -0.13730722 -2.2279697e-20)
(0.60029769 -0.14895847 -6.7658644e-20)
(0.69962407 -0.14952576 3.0247955e-19)
(0.77555211 -0.14199319 1.0247107e-20)
(0.84118894 -0.12256921 1.2589437e-19)
(-0.00050145241 0.0019850874 6.4321727e-21)
(-0.0015501291 0.0061261947 1.1153979e-21)
(-0.0027052595 0.010672216 -1.2267889e-21)
(-0.0039759947 0.015653321 -6.0354631e-21)
(-0.0053717821 0.021099421 7.2473294e-21)
(-0.0069024502 0.027039398 -6.1638159e-21)
(-0.008578065 0.033499967 -2.951013e-21)
(-0.010408768 0.040504285 1.5876584e-22)
(-0.012404614 0.048070146 2.5050116e-21)
(-0.014575361 0.056207756 1.4295246e-20)
(-0.016930236 0.064917 -2.4107104e-20)
(-0.019477661 0.074184184 2.9118532e-20)
(-0.022224969 0.08397823 -8.607047e-21)
(-0.025178131 0.094246412 -1.1769682e-20)
(-0.028341519 0.10490981 1.8219312e-20)
(-0.031717776 0.1158588 -3.6306315e-20)
(-0.035307847 0.12694932 4.4562408e-20)
(-0.039111294 0.13800056 7.0810996e-22)
(-0.043126961 0.14879566 2.6350649e-20)
(-0.047354132 0.15908678 -1.0657262e-19)
(-0.051794188 0.16860629 2.633767e-20)
(-0.056452756 0.1770854 1.1125909e-19)
(-0.061342105 0.18428028 -5.3789037e-20)
(-0.066483378 0.19000373 -6.556504e-20)
(-0.071907965 0.19415705 1.686506e-20)
(-0.077657184 0.19675299 8.9895957e-20)
(-0.083779332 0.197918 -1.3890848e-19)
(-0.090320383 0.19786152 1.5668829e-19)
(-0.097311149 0.19680816 -1.253321e-19)
(-0.10478062 0.19492387 2.4353157e-20)
(-0.11274788 0.19231372 -4.2217139e-20)
(-0.12120293 0.18907071 -6.0783569e-20)
(-0.13012133 0.18527704 2.4392657e-20)
(-0.13945816 0.18098993 6.4424289e-21)
(-0.14914191 0.17623411 9.1777502e-20)
(-0.15906784 0.1709958 -1.811921e-20)
(-0.16908947 0.16521942 4.6503328e-20)
(-0.17900984 0.15881082 -3.9465562e-20)
(-0.18857228 0.15164497 2.3703113e-20)
(-0.19745041 0.14357535 1.5338358e-20)
(-0.20524129 0.13444658 1.3096953e-20)
(-0.21146666 0.12411391 1.3002766e-20)
(-0.21559031 0.11248536 -7.8740013e-20)
(-0.21709884 0.099590045 -6.1303155e-20)
(-0.21553407 0.085588875 1.7183658e-20)
(-0.21046487 0.070652761 -1.0682162e-20)
(-0.20138974 0.054931552 4.4429295e-20)
(-0.1876648 0.038637951 -8.6795816e-20)
(-0.16868295 0.022196243 -9.9911893e-20)
(-0.14414947 0.0061800042 -2.8753324e-20)
(-0.11392146 -0.0090188591 -7.5620508e-20)
(-0.077784295 -0.023368468 2.4327793e-21)
(-0.035355822 -0.037016892 3.6836845e-20)
(0.013731609 -0.050083944 1.7987462e-19)
(0.070100083 -0.062637979 -9.0884057e-20)
(0.1343744 -0.075075516 3.7107532e-20)
(0.20804381 -0.08780154 -1.1093273e-19)
(0.29211532 -0.10187061 1.895708e-19)
(0.38962915 -0.11698638 -1.1085476e-19)
(0.49847801 -0.13330381 3.9093626e-20)
(0.61404971 -0.14678276 -4.3288531e-23)
(0.72121958 -0.15542985 3.2200757e-20)
(0.81135434 -0.15210753 1.2308649e-19)
(0.87362241 -0.14139144 -2.3586208e-19)
(0.9217413 -0.11906167 2.4616206e-19)
(-0.00057140544 0.0019948186 -1.4198431e-20)
(-0.0017648425 0.006161602 -6.282064e-21)
(-0.0030768709 0.010742614 9.8716577e-21)
(-0.0045170546 0.015770575 -2.6013656e-22)
(-0.0060952109 0.021278499 -8.9494148e-21)
(-0.0078212966 0.027299101 -4.6879119e-21)
(-0.0097052293 0.033863774 9.9050457e-21)
(-0.011756681 0.041001327 -1.630517e-21)
(-0.013984813 0.048736316 2.3078077e-20)
(-0.016397964 0.057086945 -4.5182156e-21)
(-0.019003281 0.066062419 -1.1592992e-22)
(-0.021806306 0.075659691 1.6815102e-20)
(-0.02481052 0.085859555 -5.432352e-20)
(-0.028016893 0.096622079 2.5558019e-20)
(-0.031423445 0.10788148 4.6318885e-20)
(-0.035024931 0.1195407 -5.0032741e-20)
(-0.038812709 0.13146619 6.249222e-21)
(-0.042774934 0.1434837 -3.6178447e-20)
(-0.046897259 0.15537646 -2.7419602e-20)
(-0.051164154 0.16688736 8.8172531e-20)
(-0.055561048 0.17772725 -6.7789475e-20)
(-0.06007724 0.18759138 9.1453063e-20)
(-0.064709434 0.19618523 -1.1032959e-20)
(-0.069465343 0.20325873 4.6136258e-20)
(-0.074366496 0.20864464 -1.0277754e-19)
(-0.079448928 0.21229235 2.4887605e-20)
(-0.084760132 0.21428342 6.409326e-20)
(-0.090350816 0.21481373 -1.5791294e-19)
(-0.096263315 0.21413464 6.98809e-20)
(-0.10251992 0.21247187 7.623943e-20)
(-0.10913367 0.20997522 -6.3949068e-20)
(-0.11610638 0.20674868 -8.5683846e-21)
(-0.12340847 0.20287609 4.3978818e-20)
(-0.13098708 0.19842483 -2.4641672e-20)
(-0.13876426 0.19343156 3.8171719e-20)
(-0.14662507 0.18788713 -1.3565519e-19)
(-0.15440928 0.18173427 7.1809887e-20)
(-0.16190404 0.17487154 4.3487597e-20)
(-0.16883512 0.1671616 8.9598621e-20)
(-0.17485906 0.15844307 1.1741222e-20)
(-0.17955975 0.14854741 -9.6568051e-20)
(-0.18245663 0.13732644 3.8802738e-20)
(-0.18303456 0.12470588 5.7041328e-20)
(-0.18083266 0.11075114 8.9680722e-21)
(-0.17543107 0.095653272 -5.4243897e-20)
(-0.16642451 0.079572428 -4.7178327e-20)
(-0.15327213 0.062608409 1.4186657e-19)
(-0.13532359 0.044957809 7.434637e-20)
(-0.11214337 0.027104354 1.59994e-19)
(-0.083598518 0.0097004602 5.5853562e-20)
(-0.049531386 -0.0068366903 2.1591349e-20)
(-0.0096035529 -0.022505818 1.6014068e-19)
(0.036742855 -0.037466947 6.3420936e-20)
(0.090088346 -0.051845725 -2.143388e-19)
(0.15134982 -0.065704691 1.7365563e-19)
(0.22137688 -0.079475932 -1.6145321e-19)
(0.30218505 -0.093567396 7.8371575e-20)
(0.39589385 -0.10897884 -3.8352537e-19)
(0.50491983 -0.12490257 -1.9439493e-19)
(0.62385231 -0.14066342 7.9908625e-20)
(0.74250187 -0.15167 1.2697057e-19)
(0.84269527 -0.15616417 2.1517615e-19)
(0.91651546 -0.14884323 3.8706307e-20)
(0.95957939 -0.1355834 3.0435908e-20)
(0.98558994 -0.11194002 -3.2888499e-19)
(-0.00062376454 0.0019400049 -2.5471581e-22)
(-0.0019258904 0.0059983252 1.1584812e-20)
(-0.00335602 0.010467718 -1.3670256e-20)
(-0.0049241314 0.015382709 -6.5866214e-21)
(-0.0066404606 0.020778731 1.321119e-20)
(-0.0085152241 0.026691775 4.2869824e-21)
(-0.010558419 0.033157522 -2.0837503e-20)
(-0.012779592 0.040210294 2.2485797e-20)
(-0.015187497 0.047881618 4.759764e-21)
(-0.017789701 0.056198371 1.9013494e-20)
(-0.020592104 0.065180358 -5.0743279e-20)
(-0.023598402 0.07483726 -6.237374e-22)
(-0.026809475 0.085164814 4.6197024e-20)
(-0.030222734 0.096140183 -5.0033909e-20)
(-0.033831468 0.10771649 3.6202155e-20)
(-0.037624264 0.11981666 1.3592613e-20)
(-0.041584598 0.1323269 -2.8813414e-20)
(-0.045690758 0.14509052 2.644147e-20)
(-0.049916306 0.15790326 3.5855513e-20)
(-0.054231336 0.1705118 -7.7826829e-22)
(-0.058604713 0.18261792 -5.8988486e-20)
(-0.063007514 0.19389076 3.7302227e-20)
(-0.067417509 0.20398966 -2.1265244e-20)
(-0.071824259 0.21259826 -1.0527862e-19)
(-0.0762338 0.21946752 -3.592458e-20)
(-0.080671322 0.22446016 9.9789296e-20)
(-0.08517968 0.22758264 -1.0157808e-20)
(-0.089811538 0.22898657 1.1699407e-19)
(-0.09461584 0.22892352 -7.0585021e-20)
(-0.099624224 0.22766416 3.7844803e-20)
(-0.10484983 0.22542651 -5.582005e-20)
(-0.11028227 0.22235175 -1.3787723e-20)
(-0.11589133 0.2185367 7.0646068e-20)
(-0.12162882 0.21405819 -7.4063804e-20)
(-0.12740918 0.2089601 -1.0984052e-19)
(-0.13310731 0.20323745 1.152051e-20)
(-0.13855024 0.19683294 1.2222293e-19)
(-0.14350914 0.18963992 -1.5822548e-19)
(-0.1476918 0.18151256 3.4602638e-20)
(-0.15073778 0.17227812 -7.4271403e-20)
(-0.1522199 0.16175973 1.144616e-20)
(-0.15165836 0.14981192 -1.1652958e-19)
(-0.14856486 0.13638163 -5.5813344e-20)
(-0.14250684 0.1215759 -6.862717e-20)
(-0.13308947 0.10560512 2.7476318e-19)
(-0.11990369 0.088609827 8.8649832e-20)
(-0.10238695 0.07065143 -1.1734561e-19)
(-0.080032221 0.051925781 9.4643819e-20)
(-0.052657018 0.032966342 7.857524e-20)
(-0.020216993 0.014437273 -8.8316778e-20)
(0.017542265 -0.0032809079 -4.6112656e-20)
(0.061150273 -0.020206041 -1.0826366e-19)
(0.11144415 -0.03647362 -5.2772152e-20)
(0.16933123 -0.052195834 1.8101591e-19)
(0.23602711 -0.067382232 1.0259066e-19)
(0.31301311 -0.082502006 1.6586551e-20)
(0.40366834 -0.097907525 -6.8685569e-22)
(0.51079552 -0.11423226 9.4787766e-20)
(0.63338293 -0.12995257 -1.3924509e-19)
(0.75977879 -0.14343234 -1.8240984e-19)
(0.87330939 -0.15051874 -5.163391e-20)
(0.95559006 -0.15068275 -3.9824251e-19)
(1.0042452 -0.14044887 -3.2158561e-19)
(1.0221169 -0.1263287 -8.2703399e-20)
(1.0247659 -0.10401637 -4.4580442e-20)
(-0.00065344436 0.0018252888 8.5819007e-21)