/*--------------------------------*- C++ -*----------------------------------*\
  =========                 |
  \\      /  F ield         | OpenFOAM: The Open Source CFD Toolbox
   \\    /   O peration     | Website:  https://openfoam.org
    \\  /    A nd           | Version:  13
     \\/     M anipulation  |
\*---------------------------------------------------------------------------*/
FoamFile
{
    format      ascii;
    class       surfaceScalarField;
    location    "20.702224";
    object      phi;
}
// * * * * * * * * * * * * * * * * * * * * * * * * * * * * * * * * * * * * * //

dimensions      [0 3 -1 0 0 0 0];

internalField   nonuniform List<scalar> 
34068
(
-3.7371252e-08
7.1791817e-08
-3.4420565e-08
-1.661508e-07
2.4806545e-07
-1.1928591e-07
-4.1649714e-07
4.8302821e-07
-2.3268186e-07
-8.2609883e-07
7.9101407e-07
-3.8141238e-07
-1.441798e-06
1.189312e-06
-5.7361281e-07
-2.3215069e-06
1.6986779e-06
-8.1896904e-07
-3.5364631e-06
2.3439185e-06
-1.1289623e-06
-5.1738573e-06
3.1545425e-06
-1.5171483e-06
-7.3398711e-06
4.1654838e-06
-1.99947e-06
-1.016315e-05
5.4178906e-06
-2.5946116e-06
-1.3798716e-05
6.9599654e-06
-3.3243993e-06
-1.8432304e-05
8.8478494e-06
-4.2142613e-06
-2.4285063e-05
1.1146514e-05
-5.2937551e-06
-3.1618494e-05
1.3930626e-05
-6.5971949e-06
-4.0739439e-05
1.7285335e-05
-8.1643907e-06
-5.2004766e-05
2.1306895e-05
-1.0041568e-05
-6.5825307e-05
2.6103038e-05
-1.2282497e-05
-8.2668322e-05
3.1792951e-05
-1.4949936e-05
-0.00010305756
3.8506673e-05
-1.8117436e-05
-0.00012756959
4.6383668e-05
-2.1871633e-05
-0.00015682481
5.5570184e-05
-2.6314972e-05
-0.00019147101
6.6214955e-05
-3.1568754e-05
-0.00023215765
7.8462541e-05
-3.7775894e-05
-0.00027949956
9.2444002e-05
-4.51021e-05
-0.0003340319
0.00010826547
-5.3733126e-05
-0.0003961654
0.00012599875
-6.3865255e-05
-0.00046616107
0.00014568419
-7.5688528e-05
-0.00054415056
0.00016736027
-8.9370785e-05
-0.00063021379
0.00019112353
-0.0001050603
-0.00072448643
0.00021719152
-0.00012291888
-0.0008272446
0.00024592788
-0.00014316972
-0.00093893748
0.00027782321
-0.00016613033
-0.001060181
0.00031346488
-0.00019222137
-0.0011917407
0.00035352459
-0.00022196492
-0.0013345226
0.00039876812
-0.00025598619
-0.0014895796
0.00045008055
-0.00029502357
-0.0016581341
0.00050850133
-0.00033994678
-0.0018416194
0.00057526736
-0.00039178204
-0.0020417412
0.00065186476
-0.00045174299
-0.0022605635
0.00074008838
-0.00052126603
-0.0025006228
0.00084210582
-0.00060204658
-0.0027650703
0.00096052001
-0.00069607247
-0.0030578549
0.0010984273
-0.00080564271
-0.0033839512
0.001259446
-0.00093334968
-0.0037495539
0.0014476724
-0.0010820696
-0.0041622569
0.0016675459
-0.0012548428
-0.0046314684
0.0019238184
-0.0014546069
-0.0051688996
0.0022214022
-0.0016839709
-0.0057891045
0.0025648545
-0.0019446496
-0.0065102402
0.0029575871
-0.0022364514
-0.0073550641
0.0034004026
-0.0025555786
-0.0083521978
0.0038889383
-0.0028918045
-0.0095376888
0.0044095468
-0.0032240558
-0.010956871
0.0049339519
-0.0035147698
-0.012665251
0.0054103887
-0.0037020087
-0.014725778
0.0057539901
-0.0036934632
-0.017197113
0.0058295039
-0.0033581684
-0.020119931
0.0054463481
-0.0025235306
-0.023506138
0.0043680768
-0.00098186973
-0.027304294
0.0021848729
0.0016132833
-0.031233237
-0.0016971338
0.0056260766
-0.034705622
-0.0075775614
0.011049946
-0.036198359
-0.015394406
0.016887143
-0.033203277
-0.024408854
0.021413773
-0.031235852
-0.02327998
0.021312555
-3.687075e-08
1.0866257e-07
-1.6393061e-07
3.751253e-07
-4.1094788e-07
7.3004548e-07
-8.1514529e-07
1.1952115e-06
-1.4228031e-06
1.7969698e-06
-2.2911645e-06
2.5670393e-06
-3.4906778e-06
3.5434317e-06
-5.1076142e-06
4.771479e-06
-7.2471019e-06
6.3049714e-06
-1.0036596e-05
8.2073842e-06
-1.3629805e-05
1.0553174e-05
-1.8211048e-05
1.3429093e-05
-2.4000009e-05
1.6935475e-05
-3.1256742e-05
2.1187359e-05
-4.028677e-05
2.6315364e-05
-5.1445946e-05
3.2466071e-05
-6.514459e-05
3.9801682e-05
-8.1850247e-05
4.8498607e-05
-0.00010208811
5.8744539e-05
-0.00012643781
7.0733363e-05
-0.00015552486
8.4657238e-05
-0.00019000484
0.00010069493
-0.00023053806
0.00011899576
-0.0002777535
0.00013965945
-0.00033220354
0.00016271551
-0.00039431763
0.00018811285
-0.00046437398
0.00021574054
-0.0005425153
0.0002455016
-0.00062882254
0.00027743076
-0.00072342208
0.00031179107
-0.00082657408
0.00034907988
-0.00093870927
0.0003899584
-0.0010604246
0.00043518023
-0.0011924657
0.00048556565
-0.0013357155
0.0005420179
-0.0014911977
0.00060556279
-0.0016600964
0.00067740005
-0.0018437932
0.0007589641
-0.0020439237
0.00085199525
-0.0022624576
0.0009586223
-0.0025018048
0.0010814531
-0.0027649492
0.0012236644
-0.0030556186
0.0013890967
-0.0033784971
0.0015823244
-0.0037394002
0.0018085755
-0.0041454247
0.0020735703
-0.0046053197
0.0023837134
-0.0051299083
0.0027459908
-0.0057325345
0.0031674806
-0.0064296841
0.0036547367
-0.0072417706
0.004212489
-0.008194052
0.0048412197
-0.0093176217
0.0055331164
-0.010650344
0.0062666737
-0.01223614
0.0069961856
-0.014119852
0.0076377014
-0.0163326
0.0080422519
-0.01887706
0.0079908078
-0.021723235
0.0072142518
-0.024780606
0.005242244
-0.027787684
0.0013099449
-0.030102057
-0.0052631889
-0.030467287
-0.015029175
-0.026646994
-0.028229148
-0.041595341
-0.016287504
-3.5539587e-08
1.4420215e-07
-1.5803451e-07
4.9762022e-07
-3.962204e-07
9.6823137e-07
-7.8604823e-07
1.5850393e-06
-1.3722457e-06
2.3831672e-06
-2.2101763e-06
3.4049699e-06
-3.3680274e-06
4.7012828e-06
-4.9293821e-06
6.3328337e-06
-6.9961916e-06
8.371781e-06
-9.6922068e-06
1.0903399e-05
-1.3166859e-05
1.4027826e-05
-1.7599608e-05
1.7861842e-05
-2.3204696e-05
2.2540562e-05
-3.0236227e-05
2.821889e-05
-3.8993371e-05
3.5072508e-05
-4.9825438e-05
4.3298138e-05
-6.3136345e-05
5.3112588e-05
-7.9387844e-05
6.4750107e-05
-9.9100578e-05
7.8457273e-05
-0.00012285172
9.4484503e-05
-0.00015126748
0.000113073
-0.00018500852
0.00013443597
-0.00022474592
0.00015873316
-0.00027112617
0.0001860397
-0.00032472612
0.00021631545
-0.00038600472
0.00024939145
-0.0004552693
0.00028500513
-0.0005326825
0.00032291479
-0.00061832742
0.00036307568
-0.00071231272
0.00040577638
-0.00081486659
0.00045163375
-0.00092638126
0.00050147307
-0.0010474127
0.00055621167
-0.0011786624
0.00061681534
-0.0013209629
0.00068431837
-0.0014752759
0.00075987584
-0.0016427061
0.00084483027
-0.0018245304
0.00094078839
-0.0020222455
0.0010497103
-0.0022376357
0.0011740125
-0.0024728643
0.0013166817
-0.0027305888
0.0014813889
-0.0030141076
0.0016726154
-0.0033275354
0.0018957523
-0.0036759377
0.0021569779
-0.0040654336
0.0024630662
-0.0045034778
0.0028217576
-0.0049991374
0.0032416504
-0.0055633671
0.0037317103
-0.0062093642
0.0043007338
-0.0069529475
0.0049560723
-0.0078128605
0.0057011327
-0.0088108341
0.00653109
-0.0099711931
0.0074270327
-0.011318387
0.0083433797
-0.012869806
0.0091891201
-0.014618932
0.0097913779
-0.016520084
0.0098919598
-0.018492403
0.0091865711
-0.020396482
0.007146323
-0.021942427
0.0028558897
-0.022472572
-0.0047330434
-0.020933936
-0.016567811
-0.015110149
-0.034052936
-0.053947363
-0.002758127
-3.3342024e-08
1.7754417e-07
-1.4829718e-07
6.1257538e-07
-3.7188626e-07
1.1918204e-06
-7.379429e-07
1.9510959e-06
-1.2886011e-06
2.9338253e-06
-2.0760673e-06
4.1924361e-06
-3.164724e-06
5.7899396e-06
-4.6335906e-06
7.8017003e-06
-6.5792071e-06
1.0317397e-05
-9.1189512e-06
1.3443143e-05
-1.2394841e-05
1.7303716e-05
-1.6577803e-05
2.2044805e-05
-2.1872408e-05
2.7835168e-05
-2.852197e-05
3.4868451e-05
-3.681388e-05
4.3364418e-05
-4.7084926e-05
5.3569184e-05
-5.9726179e-05
6.5753841e-05
-7.5186873e-05
8.0210801e-05
-9.3976389e-05
9.7246789e-05
-0.00011666313
0.00011717124
-0.0001438687
0.00014027857
-0.00017625528
0.00016682255
-0.00021450381
0.00019698169
-0.00025928111
0.00023081699
-0.00031119554
0.00026822989
-0.0003707469
0.00030894282
-0.00043828518
0.0003525434
-0.00051400428
0.00039863389
-0.00059799326
0.00044706466
-0.00069033631
0.00049811942
-0.00079121367
0.00055251111
-0.00090095775
0.00061121715
-0.0010200596
0.00067531355
-0.0011491508
0.00074590649
-0.0012889838
0.0008241514
-0.0014404236
0.00091131564
-0.0016044518
0.0010088584
-0.001782185
0.0011185216
-0.0019749086
0.0012424339
-0.0021841268
0.0013832307
-0.0024116317
0.0015441865
-0.0026595903
0.0017293475
-0.0029306562
0.0019436814
-0.0032280924
0.0021931884
-0.0035558387
0.0024847242
-0.0039185602
0.0028257878
-0.0043217908
0.0032249881
-0.0047720121
0.0036918718
-0.0052766961
0.0042363943
-0.0058443017
0.0048683394
-0.0064841391
0.0055959098
-0.0072059339
0.0064229275
-0.0080188592
0.0073440153
-0.0089298304
0.0083380039
-0.0099397732
0.0093533225
-0.011035453
0.010284799
-0.01217199
0.010927915
-0.013257336
0.010977306
-0.014166787
0.010096022
-0.01471057
0.0076901063
-0.014559963
0.0027052826
-0.012996904
-0.0062961029
-0.0091175494
-0.020447165
-0.00064896134
-0.042521524
-0.06893699
0.014340665
-3.0266134e-08
2.0781031e-07
-1.3466061e-07
7.1696985e-07
-3.3779234e-07
1.3949522e-06
-6.70513e-07
2.2838166e-06
-1.1712954e-06
3.4346077e-06
-1.8878872e-06
4.9090279e-06
-2.8792689e-06
6.7813213e-06
-4.21798e-06
9.1404114e-06
-5.992829e-06
1.2092246e-05
-8.3120709e-06
1.5762385e-05
-1.1307041e-05
2.0298686e-05
-1.5136315e-05
2.5874079e-05
-1.9990338e-05
3.2689191e-05
-2.609654e-05
4.0974653e-05
-3.3724764e-05
5.0992642e-05
-4.3192862e-05
6.3037282e-05
-5.4872075e-05
7.7433054e-05
-6.9191712e-05
9.4530438e-05
-8.6642333e-05
0.00011469741
-0.0001077763
0.00013830521
-0.00013320416
0.00016570643
-0.00016358479
0.00019720318
-0.00019960683
0.00023300374
-0.00024195897
0.00027316913
-0.00029128755
0.00031755847
-0.0003481447
0.00036579996
-0.00041293828
0.00041733698
-0.00048590831
0.00047160392
-0.00056715787
0.00052831423
-0.00065674314
0.0005877047
-0.00075478159
0.00065054955
-0.00086152359
0.00071795915
-0.00097736953
0.0007911595
-0.0011028528
0.00087138978
-0.001238615
0.00095991355
-0.0013853872
0.0010580879
-0.0015439831
0.0011674543
-0.001715302
0.0012898405
-0.0019003445
0.0014274764
-0.0021002388
0.0015831251
-0.0023162801
0.0017602278
-0.002549981
0.0019630484
-0.0028031376
0.002196838
-0.0030778854
0.0024679363
-0.0033766778
0.0027835165
-0.0037022735
0.0031513835
-0.0040577009
0.0035804155
-0.0044461169
0.0040802878
-0.0048705744
0.0046608518
-0.0053336235
0.0053313885
-0.0058366427
0.006098929
-0.0063786801
0.006964965
-0.0069545627
0.0079198978
-0.0075521164
0.0089355576
-0.0081477536
0.0099489598
-0.0086979052
0.010834951
-0.0091219938
0.011352004
-0.0092865014
0.011141814
-0.0090290917
0.009838612
-0.0081044579
0.0067654725
-0.0061399908
0.00074081544
-0.0023074679
-0.010128626
0.0043162018
-0.027070835
0.015737945
-0.053943267
-0.086925411
0.033726366
-2.6327151e-08
2.3413746e-07
-1.1719152e-07
8.0783422e-07
-2.9410269e-07
1.5718633e-06
-5.840745e-07
2.5737884e-06
-1.0208641e-06
3.8713973e-06
-1.6464584e-06
5.5346222e-06
-2.5128579e-06
7.6477208e-06
-3.6841891e-06
1.0311743e-05
-5.2392196e-06
1.3647277e-05
-7.2742954e-06
1.7797461e-05
-9.9067682e-06
2.2931159e-05
-1.327895e-05
2.9246261e-05
-1.7562617e-05
3.6972858e-05
-2.2964034e-05
4.637607e-05
-2.9729467e-05
5.7758075e-05
-3.8151035e-05
7.145885e-05
-4.857265e-05
8.7854669e-05
-6.1395609e-05
0.0001073534
-7.7083193e-05
0.00013038499
-9.6163272e-05
0.00015738529
-0.00011922744
0.00018877059
-0.00014692476
0.0002249005
-0.00017994753
0.00026602651
-0.00021900594
0.00031222753
-0.00026478917
0.0003633417
-0.00031791266
0.00041892346
-0.00037885897
0.00047828328
-0.00044793308
0.00054067803
-0.00052526635
0.0006056475
-0.00061088912
0.00067332746
-0.00070484402
0.00074450445
-0.00080727705
0.00082039218
-0.00091847039
0.00090235284
-0.0010388292
0.00099174856
-0.0011688506
0.001089935
-0.0013090943
0.0011983316
-0.00146016
0.0013185199
-0.0016226728
0.0014523534
-0.0017972757
0.0016020793
-0.0019846273
0.0017704767
-0.0021854047
0.0019610052
-0.0024003084
0.002177952
-0.0026300719
0.0024266016
-0.0028754417
0.002713306
-0.0031370623
0.0030451372
-0.0034153755
0.0034296967
-0.0037103931
0.0038754331
-0.0040213309
0.0043912255
-0.0043460894
0.0049856104
-0.0046804662
0.0056657653
-0.0050170088
0.0064354716
-0.0053432551
0.0072912112
-0.0056391277
0.0082157705
-0.0058732836
0.0091697135
-0.0059982821
0.010073958
-0.0059408846
0.010777553
-0.0055860283
0.010997147
-0.0047630745
0.01031886
-0.0032766889
0.0083522264
-0.00081849109
0.0043072747
0.0030669116
-0.0031445873
0.009299341
-0.016361055
0.018981788
-0.036753282
0.033803436
-0.068764916
-0.10790402
0.054782041
-2.157629e-08
2.5571375e-07
-9.6115368e-08
8.823733e-07
-2.4137551e-07
1.7171235e-06
-4.7972056e-07
2.8121335e-06
-8.3918229e-07
4.2308591e-06
-1.3547489e-06
6.0501888e-06
-2.0699142e-06
8.3628861e-06
-3.0385444e-06
1.1280373e-05
-4.3271096e-06
1.4935842e-05
-6.017338e-06
1.948769e-05
-8.2093518e-06
2.5123173e-05
-1.1025354e-05
3.2062263e-05
-1.4613876e-05
4.056138e-05
-1.9154695e-05
5.0916888e-05
-2.4864329e-05
6.3467709e-05
-3.200212e-05
7.8596641e-05
-4.0876716e-05
9.6729265e-05
-5.1852658e-05
0.00011832934
-6.5356533e-05
0.00014388887
-8.1881945e-05
0.0001739107
-0.00010199196
0.00020888061
-0.00012631713
0.00024922568
-0.00015554668
0.00029525606
-0.00019040919
0.00034709004
-0.00023163875
0.00040457126
-0.00027992353
0.00046720824
-0.00033583812
0.00053419787
-0.00039977598
0.0006046159
-0.00047191877
0.00067779028
-0.00055228175
0.00075369044
-0.00064082639
0.0008330491
-0.0007375734
0.00091713919
-0.00084265777
0.0010074372
-0.00095632385
0.0011054146
-0.0010788896
0.0012125007
-0.001210704
0.001330146
-0.0013521073
0.0014599232
-0.0015033944
0.0016036405
-0.0016647811
0.001763466
-0.0018363676
0.0019420632
-0.0020181
0.0021427376
-0.0022097229
0.0023695749
-0.0024107204
0.002627599
-0.0026202092
0.0029227949
-0.00283675
0.003261678
-0.0030581153
0.0036510619
-0.0032808825
0.0040982003
-0.0034998508
0.0046101938
-0.0037072463
0.0051930059
-0.003891585
0.005850104
-0.0040361425
0.006580029
-0.0041167688
0.0073718375
-0.0040987999
0.0081978015
-0.0039326672
0.0090035809
-0.0035482381
0.0096895292
-0.0028418031
0.010071118
-0.001658749
0.0098140932
0.00020403707
0.0084560741
0.0029669634
0.0055893
0.007014127
0.00026011117
0.012931072
-0.0090615319
0.021731867
-0.025161851
0.034675906
-0.04969732
0.053132952
-0.087221961
-0.13152945
0.076758386
-1.6105416e-08
2.7181917e-07
-7.1832791e-08
9.3810068e-07
-1.8060319e-07
1.8258939e-06
-3.5939683e-07
2.9909271e-06
-6.2960976e-07
4.501072e-06
-1.0180982e-06
6.4386772e-06
-1.5584572e-06
8.9032451e-06
-2.2925849e-06
1.2014501e-05
-3.2725696e-06
1.5915827e-05
-4.5629904e-06
2.0778111e-05
-6.2436815e-06
2.6803864e-05
-8.4130375e-06
3.4231619e-05
-1.1191973e-05
4.3340316e-05
-1.4728551e-05
5.4453466e-05
-1.9203423e-05
6.7942581e-05
-2.4836015e-05
8.4229233e-05
-3.189149e-05
0.00010378474
-4.0688322e-05
0.00012712617
-5.1606128e-05
0.00015480667
-6.5093119e-05
0.00018739769
-8.1672236e-05
0.00022545972
-0.00010194424
0.00026949769
-0.00012658531
0.00031989713
-0.00015633519
0.00037683992
-0.00019197098
0.00044020706
-0.00023425941
0.00050949666
-0.00028388369
0.00058382215
-0.00034135286
0.00066208506
-0.00040693037
0.00074336779
-0.00048063917
0.00082739925
-0.00056236279
0.00091477272
-0.00065197984
0.0010067562
-0.00074944884
0.0011049062
-0.00085481879
0.0012107846
-0.00096819138
0.0013258733
-0.001089665
0.0014516196
-0.0012192752
0.0015895334
-0.0013569339
0.0017412992
-0.0015023642
0.0019088963
-0.0016550277
0.0020947266
-0.001814038
0.002301748
-0.0019780566
0.0025335935
-0.0021451574
0.0027946998
-0.0023126311
0.0030902686
-0.0024767181
0.0034257649
-0.0026322399
0.0038065838
-0.0027720181
0.0042379784
-0.0028861022
0.0047242779
-0.0029607225
0.0052676262
-0.0029768309
0.0058662125
-0.0029083143
0.0065115124
-0.0027195883
0.0071831115
-0.0023622249
0.0078404381
-0.0017697375
0.0084110934
-0.00085122841
0.0087710201
0.00053574517
0.0086841448
0.0025940245
0.0077558139
0.0055412297
0.0055088689
0.0096339467
0.0014965831
0.015345358
-0.0054513004
0.023429894
-0.017146068
0.035005582
-0.036737539
0.051423193
-0.066114931
0.07340025
-0.10919902
-0.15623979
0.098110589
-1.005144e-08
2.8187061e-07
-4.4949913e-08
9.7299915e-07
-1.1329509e-07
1.8942391e-06
-2.2607638e-07
3.1037084e-06
-3.9728913e-07
4.6722847e-06
-6.4470602e-07
6.6860941e-06
-9.9084521e-07
9.2493843e-06
-1.4641663e-06
1.2487822e-05
-2.1005739e-06
1.6552234e-05
-2.9452746e-06
2.1622811e-05
-4.0550868e-06
2.7913676e-05
-5.50129e-06
3.5677822e-05
-7.3731383e-06
4.5212164e-05
-9.7821125e-06
5.686244e-05
-1.2867122e-05
7.1027591e-05
-1.6800695e-05
8.8162805e-05
-2.1796283e-05
0.00010878033
-2.8116651e-05
0.00013344654
-3.608334e-05
0.00016277336
-4.608672e-05
0.00019740107
-5.8595959e-05
0.00023796896
-7.4167701e-05
0.00028506943
-9.3450932e-05
0.00033918036
-0.00011718439
0.00040057339
-0.00014618011
0.00046920278
-0.0001812836
0.00054460015
-0.0002232996
0.00062583815
-0.00027288162
0.00071166708
-0.0003304159
0.00080090207
-0.0003959717
0.00089295505
-0.000469373
0.00098817402
-0.00055034825
0.0010877315
-0.00063865206
0.00119321
-0.00073410167
0.0013062342
-0.00083654308
0.0014283147
-0.00094578315
0.0015608597
-0.0010615087
0.0017052589
-0.0011831986
0.0018629891
-0.0013100252
0.0020357229
-0.0014407408
0.0022254422
-0.001573541
0.0024345481
-0.0017058982
0.0026659507
-0.0018343464
0.002923148
-0.0019541997
0.0032101219
-0.0020591976
0.0035307629
-0.0021410029
0.003888389
-0.0021884527
0.0042854283
-0.0021866253
0.0047224504
-0.0021155748
0.0051965757
-0.0019485934
0.005699231
-0.0016502337
0.0062131528
-0.0011738234
0.0067067011
-0.00045824892
0.0071248636
0.00057845701
0.0073743875
0.0020557316
0.0072937455
0.0041726625
0.006567214
0.007165628
0.0047628484
0.011239343
0.0014351538
0.016715894
-0.003979968
0.024209558
-0.012944964
0.034669099
-0.027605609
0.04931186
-0.0513803
0.06935801
-0.086161081
0.093656507
-0.13349752
-0.17877261
0.11618933
-3.5950177e-09
2.8546562e-07
-1.6266106e-08
9.8567024e-07
-4.1445484e-08
1.9194184e-06
-8.3690203e-08
3.1459531e-06
-1.490386e-07
4.7376331e-06
-2.4547569e-07
6.7825312e-06
-3.8354873e-07
9.3874574e-06
-5.7716176e-07
1.2681435e-05
-8.4462738e-07
1.68197e-05
-1.2100135e-06
2.1988197e-05
-1.704926e-06
2.8408588e-05
-2.3707689e-06
3.6343665e-05
-3.2616916e-06
4.6103087e-05
-4.4483405e-06
5.8049089e-05
-6.0226171e-06
7.2601868e-05
-8.1036619e-06
9.024385e-05
-1.0845249e-05
0.00011152192
-1.4444869e-05
0.00013704616
-1.9154482e-05
0.00016748298
-2.5293052e-05
0.00020353964
-3.3260413e-05
0.00024593632
-4.3551582e-05
0.0002953606
-5.6769717e-05
0.00035239849
-7.3633977e-05
0.00041743765
-9.4975615e-05
0.00049054441
-0.00012171027
0.00057133481
-0.00015476953
0.00065889741
-0.00019497782
0.00075187538
-0.00024289277
0.00084881702
-0.00029868681
0.00094874909
-0.00036216461
0.0010516518
-0.00043291209
0.001158479
-0.00051045877
0.0012707567
-0.00059435332
0.0013901287
-0.00068414432
0.0015181057
-0.0007793045
0.0016560199
-0.00087912882
0.0018050833
-0.00098261712
0.0019664774
-0.0010883404
0.0021414461
-0.0011942832
0.0023313851
-0.0012976553
0.0025379202
-0.00139466
0.0027629554
-0.0014801991
0.0030086871
-0.0015475035
0.0032774264
-0.0015876913
0.0035709507
-0.0015891321
0.0038898299
-0.0015365403
0.0042328365
-0.001409901
0.0045958111
-0.0011830085
0.0049696833
-0.00082144244
0.005337665
-0.00028045171
0.0056721621
0.00049732216
0.0059289273
0.0015856219
0.0060365639
0.003084913
0.0058750964
0.0051664024
0.005212256
0.0080838711
0.0036497453
0.012061384
0.00078533549
0.017302849
-0.0038063115
0.024270483
-0.010947601
0.033763929
-0.02243841
0.046934441
-0.040776121
0.064995625
-0.069441484
0.088168435
-0.10933389
0.11168891
-0.15701799
-0.195691
0.1286073
3.0338687e-09
2.8243175e-07
1.3200505e-08
9.755036e-07
3.2401638e-08
1.9002173e-06
6.2733639e-08
3.1156211e-06
1.0640669e-07
4.6939601e-06
1.6560478e-07
6.7233331e-06
2.4225556e-07
9.3108066e-06
3.3766632e-07
1.2586024e-05
4.5198504e-07
1.6705381e-05
5.8340456e-07
2.1856778e-05
7.2702892e-07
2.8264964e-05
8.7325515e-07
3.6197439e-05
1.0055604e-06
4.5970781e-05
1.09742e-06
5.7957229e-05
1.108212e-06
7.2591076e-05
9.7770144e-07
9.037436e-05
6.1881422e-07
0.0001118808
-9.1632053e-08
0.00013775661
-1.324703e-06
0.00016871605
-3.3138604e-06
0.0002055288
-6.3723625e-06
0.00024899483
-1.0913069e-05
0.0002999013
-1.7469622e-05
0.00035895505
-2.6715741e-05
0.00042668376
-3.9476019e-05
0.00050330469
-5.6715309e-05
0.0005885741
-7.9484458e-05
0.00068166656
-0.00010879627
0.00078118719
-0.00014543034
0.00088545108
-0.00018973755
0.00099305629
-0.00024157331
0.0011034876
-0.00030041603
0.0012173217
-0.0003655628
0.0013359035
-0.00043626
0.0014608259
-0.0005117141
0.0015935598
-0.00059101856
0.0017353243
-0.00067303327
0.001887098
-0.00075623716
0.0020496813
-0.00083855684
0.0022237658
-0.00091716473
0.002409993
-0.00098823607
0.0026089915
-0.0010466534
0.0028213728
-0.0010856318
0.0030476655
-0.0010962607
0.0032880552
-0.0010669717
0.0035416617
-0.00098277356
0.0038056317
-0.00082418883
0.0040742517
-0.00056606388
0.0043376861
-0.00017588834
0.0045795078
0.000388582
0.0047731946
0.0011815708
0.0048791733
0.0022708779
0.0048396201
0.0037444323
0.0045630096
0.0057394474
0.0038800813
0.0084929141
0.0024587894
0.012273781
-0.00013112189
0.017270692
-0.0042115755
0.023785056
-0.010320675
0.032481777
-0.019644322
0.044361919
-0.034318552
0.060720481
-0.057134683
0.082211294
-0.090932298
0.10598976
-0.13311236
0.1244497
-0.17547793
-0.20598629
0.13474498
9.5637437e-09
2.7286801e-07
4.224785e-08
9.428195e-07
1.052456e-07
1.8372196e-06
2.0726486e-07
3.0136018e-06
3.5873844e-07
4.5424865e-06
5.7201248e-07
6.5100591e-06
8.615201e-07
9.021299e-06
1.2438812e-06
1.2203663e-05
1.7378999e-06
1.6211362e-05
2.3643903e-06
2.1230288e-05
3.1457276e-06
2.7483627e-05
4.1050283e-06
3.5238138e-05
5.2647479e-06
4.4811062e-05
6.6445042e-06
5.6577473e-05
8.2578273e-06
7.0977753e-05
1.0107448e-05
8.8524739e-05
1.2178702e-05
0.00010980955
1.4430451e-05
0.00013550486
1.678294e-05
0.00016636356
1.910195e-05
0.00020320979
2.1178609e-05
0.00024691817
2.2704633e-05
0.00029837528
2.3243477e-05
0.0003584162
2.2199437e-05
0.00042772781
1.8790589e-05
0.00050671354
1.2038518e-05
0.00059532617
7.9970377e-07
0.00069290537
-1.6125184e-05
0.00079811208
-3.9778919e-05
0.00090910482
-7.0780135e-05
0.0010240575
-0.00010913963
0.0011418471
-0.00015429081
0.0012624729
-0.00020532993
0.0013869426
-0.00026117303
0.0015166691
-0.0003206397
0.0016530265
-0.00038239738
0.001797082
-0.00044482811
0.0019495287
-0.00050585087
0.002110704
-0.00056271267
0.0022806276
-0.00061174176
0.0024590221
-0.00064805124
0.002645301
-0.00066517887
0.0028385004
-0.00065463625
0.0030371229
-0.00060536045
0.0032387794
-0.000503081
0.0034393823
-0.00032942828
0.003631979
-6.0698644e-05
0.0038055221
0.00033342343
0.0039435641
0.0008918957
0.0040210355
0.001665123
0.0039999673
0.0027170074
0.0038272889
0.0041278782
0.0034287494
0.0060084142
0.0026824735
0.0085573136
0.0013311819
0.012059818
-0.0010437149
0.016754273
-0.0048255772
0.022860041
-0.010317344
0.030907561
-0.018368195
0.041769698
-0.030506458
0.056624714
-0.049173569
0.076477952
-0.076987921
0.099496478
-0.11395082
0.11913727
-0.15275315
0.13070498
-0.18704564
-0.21206205
0.13678075
1.5661538e-08
2.5720647e-07
6.9396137e-08
8.890849e-07
1.7337998e-07
1.7332357e-06
3.4257129e-07
2.8444105e-06
5.9519297e-07
4.2898648e-06
9.5326821e-07
6.1519839e-06
1.4431816e-06
8.5313856e-06
2.0962601e-06
1.1550584e-05
2.9493246e-06
1.5358298e-05
4.0451628e-06
2.0134449e-05
5.4328496e-06
2.609594e-05
7.1677606e-06
3.3503227e-05
9.3111616e-06
4.2667661e-05
1.1929083e-05
5.3959551e-05
1.5090198e-05
6.7816638e-05
1.8862261e-05
8.4752676e-05
2.3306573e-05
0.00010536524
2.8469723e-05
0.00013034171
3.4371868e-05
0.00016046141
4.0990421e-05
0.00019659124
4.8238175e-05
0.00023967041
5.5934836e-05
0.00029067862
6.3771462e-05
0.00035057958
7.1268821e-05
0.00042023045
7.7733706e-05
0.00050024865
8.2225091e-05
0.00059083478
8.3555159e-05
0.0006915753
8.0368721e-05
0.00080129852
7.1348573e-05
0.00091812497
5.5542898e-05
0.0010398632
3.263579e-05
0.0011647542
3.1265228e-06
0.0012919821
-3.1997425e-05
0.0014220665
-7.1294138e-05
0.0015559658
-0.00011315397
0.0016948863
-0.00015576775
0.0018396958
-0.00019699592
0.0019907569
-0.00023415945
0.0021478675
-0.00026379592
0.0023102641
-0.00028136967
0.0024765958
-0.00028092311
0.0026448544
-0.00025465284
0.0028122302
-0.00019238453
0.0029748545
-8.0931931e-05
0.0031273268
9.6653312e-05
0.003261797
0.00036210879
0.0033665235
0.00074338595
0.0034242449
0.0012761043
0.0034108457
0.002005994
0.0032911458
0.0029924361
0.0030135252
0.004310874
0.0025088511
0.0060571189
0.0016825044
0.0083896377
0.00034995472
0.011579532
-0.0018587123
0.015914046
-0.0053782288
0.021613086
-0.010524618
0.029100576
-0.017804833
0.039190481
-0.028458101
0.052886968
-0.044202945
0.071177074
-0.067463675
0.09301895
-0.098829797
0.11271605
-0.13364792
0.12538243
-0.16541953
0.13241398
-0.19407719
-0.21658613
0.13693806
2.1007519e-08
2.3619895e-07
9.3228703e-08
8.1686371e-07
2.3326074e-07
1.5932037e-06
4.6162381e-07
2.6160475e-06
8.0350815e-07
3.9479805e-06
1.2896205e-06
5.6658715e-06
1.9571381e-06
7.863868e-06
2.8507377e-06
1.0656985e-05
4.0237093e-06
1.4185326e-05
5.5390798e-06
1.8619079e-05
7.4707018e-06
2.4164318e-05
9.9041948e-06
3.1069734e-05
1.2937582e-05
3.9634273e-05
1.668139e-05
5.0215743e-05
2.1257889e-05
6.324014e-05
2.6799021e-05
7.9211544e-05
3.3442445e-05
9.8721815e-05
4.1324817e-05
0.00012245933
5.0571367e-05
0.00015121486
6.1280417e-05
0.00018588219
7.3501319e-05
0.00022744951
8.7204141e-05
0.0002769758
0.00010223956
0.00033554416
0.00011828829
0.00040418171
0.00013480245
0.00048373449
0.00015094723
0.00057469
0.00016556603
0.0006769565
0.00017721386
0.00078965069
0.00018431781
0.00091102102
0.00018551893
0.0010386621
0.00018022235
0.0011700508
0.0001683007
0.0013039038
0.00015093912
0.0014394281
0.00012994586
0.001576959
0.00010734283
0.0017174894
8.5410722e-05
0.0018616279
6.6851147e-05
0.0020093165
5.4988231e-05
0.0021597305
5.4026275e-05
0.0023112261
6.9377396e-05
0.0024612447
0.00010806214
0.0026061697
0.00017919735
0.0027410949
0.00029459821
0.0028594537
0.00046951778
0.0029524073
0.00072354802
0.0030077668
0.0010817964
0.0030082751
0.0015765564
0.0029294849
0.0022490821
0.00273832
0.0031528504
0.0023873776
0.0043575459
0.0018088297
0.0059524459
0.00091395105
0.0080665376
-0.00043158737
0.010942148
-0.0025256552
0.014891703
-0.0058082678
0.020177494
-0.01066402
0.027174518
-0.017521641
0.036660375
-0.02729069
0.049546202
-0.041343927
0.066544674
-0.061201417
0.086895439
-0.08781444
0.10593014
-0.11786449
0.11885328
-0.14657106
0.12678071
-0.17334696
0.13214117
-0.19943765
-0.22110223
0.13665726
2.5291893e-08
2.1090706e-07
1.1235424e-07
7.2980137e-07
2.8137938e-07
1.4241785e-06
5.5743761e-07
2.3399892e-06
9.714485e-07
3.5339696e-06
1.5613181e-06
5.0760019e-06
2.3732201e-06
7.051966e-06
3.4630634e-06
9.5671413e-06
4.8981053e-06
1.2750284e-05
6.758709e-06
1.6758475e-05
9.1401881e-06
2.1782839e-05
1.2154678e-05
2.8055244e-05
1.5932847e-05
3.5856105e-05
2.0625336e-05
4.5523254e-05
2.6403528e-05
5.7461948e-05
3.345929e-05
7.2155782e-05
4.2002991e-05
9.0178113e-05
5.2259096e-05
0.00011220323
6.4457953e-05
0.00013901601
7.8822534e-05
0.0001715176
9.5548025e-05
0.00021072402
0.00011477202
0.0002577518
0.00013653282
0.00031378336
0.00016071352
0.00038000102
0.00018697165
0.00045747636
0.00021465941
0.00054700224
0.00024275178
0.00064886414
0.00026982405
0.00076257842
0.00029416069
0.00088668438
0.00031403539
0.0010187874
0.00032801185
0.0011560743
0.00033579817
0.0012961175
0.00033848469
0.0014367416
0.00033780239
0.0015776413
0.00033612043
0.0017191713
0.00033627995
0.0018614684
0.00034165493
0.0020039415
0.00035626143
0.002145124
0.00038507118
0.0022824163
0.00043437329
0.0024119426
0.0005122268
0.0025283162
0.00062901522
0.0026243065
0.00079813325
0.0026903357
0.0010368436
0.0027136969
0.0013673672
0.0026772431
0.0018183001
0.0025573423
0.0024265881
0.0023211969
0.0032400653
0.0019248428
0.0043218462
0.0013055967
0.0057555748
0.00037510108
0.007652818
-0.00098329215
0.010221277
-0.0030000466
0.013783681
-0.0060880586
0.018659246
-0.010683833
0.025239115
-0.017243889
0.034269078
-0.026551605
0.046628583
-0.039650194
0.062633957
-0.057349302
0.081350565
-0.079918025
0.09906213
-0.105526
0.11177099
-0.13057336
0.12005208
-0.15485215
0.12614673
-0.17944162
0.13106928
-0.2043602
-0.22654642
0.13651347
2.8215632e-08
1.8269143e-07
1.2545154e-07
6.3256546e-07
3.1442964e-07
1.2352004e-06
6.2344811e-07
2.0309708e-06
1.0875395e-06
3.0698782e-06
1.7498214e-06
4.41372e-06
2.663076e-06
6.1387114e-06
3.8915597e-06
8.3386576e-06
5.5130607e-06
1.1128783e-05
7.6212133e-06
1.4650323e-05
1.0328032e-05
1.9076021e-05
1.3766626e-05
2.461665e-05
1.8094016e-05
3.1528715e-05
2.3493843e-05
4.0123426e-05
3.0178799e-05
5.0776992e-05
3.8392304e-05
6.3942278e-05
4.8408933e-05
8.0161484e-05
6.0532685e-05
0.00010007948
7.5092075e-05
0.00012445662
9.2430233e-05
0.00015417945
0.00011288808
0.00019026617
0.00013677765
0.00023386224
0.00016434217
0.00028621884
0.00019569928
0.00034864391
0.00023076428
0.00042241136
0.00026915401
0.00050861251
0.00031008173
0.00060793641
0.00035227484
0.00072038532
0.00039397733
0.00084498188
0.00043315398
0.00097961071
0.00046808423
0.0011211441
0.00049834203
0.0012658597
0.00052362053
0.0014114631
0.00054526902
0.0015559928
0.00056613607
0.0016983043
0.00058979654
0.0018378079
0.00062024654
0.0019734915
0.00066224906
0.0021031214
0.00072157401
0.0022230913
0.00080538477
0.0023281318
0.00092274805
0.0024109529
0.0010852627
0.0024617918
0.0013078484
0.00246775
0.0016097619
0.0024117833
0.0020159667
0.0022710383
0.0025589552
0.0020143538
0.0032811859
0.0015989662
0.0042392101
0.00096681866
0.0055098831
3.4923669e-05
0.007198917
-0.0013139328
0.0094754441
-0.0032598193
0.01266325
-0.0061878526
0.017143657
-0.010568465
0.023387946
-0.016928122
0.032139705
-0.025995648
0.044156621
-0.038568521
0.059389249
-0.054882822
0.076422337
-0.07438239
0.09236949
-0.095865178
0.10435178
-0.1175083
0.11254559
-0.13876716
0.11891665
-0.16122321
0.12459375
-0.18511872
0.13024796