/*--------------------------------*- C++ -*----------------------------------*\
  =========                 |
  \\      /  F ield         | OpenFOAM: The Open Source CFD Toolbox
   \\    /   O peration     | Website:  https://openfoam.org
    \\  /    A nd           | Version:  13
     \\/     M anipulation  |
\*---------------------------------------------------------------------------*/
FoamFile
{
    format      ascii;
    class       volScalarField;
    location    "48.601831";
    object      nut;
}
// * * * * * * * * * * * * * * * * * * * * * * * * * * * * * * * * * * * * * //

dimensions      [0 2 -1 0 0 0 0];

internalField   nonuniform List<scalar> 
17140
(
1.428801e-18
2.7788291e-16
7.4015105e-15
7.5035926e-14
4.5379375e-13
2.0105494e-12
7.2601154e-12
2.2719156e-11
6.400991e-11
1.6652253e-10
4.0706808e-10
9.4688152e-10
2.1155033e-09
4.5719968e-09
9.6110028e-09
1.9737717e-08
3.9738493e-08
7.8658962e-08
1.5343438e-07
2.9551258e-07
5.628716e-07
1.0617187e-06
1.9854847e-06
3.684563e-06
6.7903604e-06
1.2434455e-05
2.2632116e-05
4.0940309e-05
7.3556808e-05
0.00013106215
0.00023091142
0.00040034269
0.00067805917
0.0011113813
0.0017456459
0.0026074148
0.0036897663
0.0049486661
0.006311735
0.007693891
0.009013292
0.010193268
0.011178104
0.011999261
0.012663724
0.013169305
0.01355015
0.013839136
0.014060838
0.014228656
0.014350444
0.014440306
0.014494449
0.01448091
0.014427482
0.014460572
0.014808229
0.015121673
0.014021122
0.0081563013
0.0023084937
0.0017618148
0.0027922882
0.0061615407
0.011094024
1.4449676e-18
2.8102687e-16
7.4852551e-15
7.5884963e-14
4.5892786e-13
2.0332872e-12
7.3421658e-12
2.2975669e-11
6.4731713e-11
1.6839739e-10
4.1164267e-10
9.5749892e-10
2.1391625e-09
4.6229707e-09
9.7177624e-09
1.9955994e-08
4.0175588e-08
7.9518425e-08
1.550971e-07
2.9868202e-07
5.6883046e-07
1.0727755e-06
2.0057373e-06
3.7211785e-06
6.8556708e-06
1.2549291e-05
2.2830751e-05
4.1279468e-05
7.4132116e-05
0.00013203833
0.00023257366
0.0004031022
0.00068240485
0.001117788
0.001754435
0.0026184469
0.0037021182
0.0049604233
0.0063200483
0.0076951166
0.0090031678
0.010166157
0.011128301
0.011927964
0.012565046
0.013040108
0.013386491
0.013635286
0.013808372
0.013915647
0.013962198
0.013960531
0.013900474
0.01374833
0.013550765
0.013505018
0.014086321
0.015269301
0.015643731
0.011935357
0.003423603
0.0020061165
0.0032375567
0.0075909083
0.010333162
1.4503532e-18
2.8207423e-16
7.513148e-15
7.6167593e-14
4.6063485e-13
2.040833e-12
7.3693269e-12
2.3060315e-11
6.4968995e-11
1.6901097e-10
4.1313203e-10
9.6093498e-10
2.146766e-09
4.6392193e-09
9.7514658e-09
2.0024103e-08
4.0310039e-08
7.9778115e-08
1.5558819e-07
2.9959095e-07
5.7047433e-07
1.0756713e-06
2.0106786e-06
3.7292702e-06
6.868182e-06
1.256699e-05
2.2852007e-05
4.1295853e-05
7.4119136e-05
0.00013193678
0.00023225714
0.00040235044
0.00068087824
0.001114995
0.0017497235
0.0026109859
0.0036907768
0.0049435771
0.0062953733
0.0076595644
0.008953151
0.010097193
0.011035935
0.0118126
0.012420771
0.012863051
0.013171561
0.013375329
0.013493079
0.013530657
0.013490317
0.013381681
0.013181528
0.012847148
0.012438763
0.012228377
0.012810227
0.014581722
0.016544038
0.015644668
0.0070669011
0.0028655367
0.0040559671
0.0086859278
0.01001083
1.4436154e-18
2.8076379e-16
7.4782395e-15
7.581353e-14
4.5849117e-13
2.0313171e-12
7.3348706e-12
2.2952112e-11
6.466284e-11
1.682105e-10
4.111638e-10
9.5632573e-10
2.1363879e-09
4.6165882e-09
9.7033914e-09
1.9924149e-08
4.0105816e-08
7.9366652e-08
1.5476818e-07
2.979699e-07
5.6728736e-07
1.0694259e-06
1.9984554e-06
3.7053432e-06
6.8213003e-06
1.2475054e-05
2.2671777e-05
4.0943522e-05
7.3435008e-05
0.00013062508
0.000229795
0.00039787946
0.0006731312
0.0011023546
0.0017304411
0.0025834842
0.003653766
0.0048958574
0.0062354717
0.0075854176
0.0088620822
0.0099858112
0.010900533
0.011652468
0.01222988
0.012636982
0.012904312
0.013058492
0.013114762
0.013074737
0.012938539
0.012710924
0.01234788
0.011790676
0.011101026
0.010574429
0.010987038
0.013083957
0.016140923
0.018410805
0.012539271
0.0053912551
0.0055832268
0.0094894533
0.010161093
1.4234587e-18
2.7684357e-16
7.3738197e-15
7.4754774e-14
4.5208576e-13
2.0029193e-12
7.2322313e-12
2.2630539e-11
6.3755503e-11
1.6584593e-10
4.0537171e-10
9.4282047e-10
2.1061302e-09
4.5509802e-09
9.5649357e-09
1.9638481e-08
3.952743e-08
7.8213912e-08
1.5250061e-07
2.9355708e-07
5.58774e-07
1.0531134e-06
1.9673609e-06
3.6462967e-06
6.7094827e-06
1.226376e-05
2.2273403e-05
4.0194873e-05
7.2036026e-05
0.0001280368
0.00022508712
0.00038954721
0.00065897208
0.001079578
0.0016961317
0.002535252
0.00359013
0.0048160685
0.0061389405
0.0074711319
0.0087282987
0.0098302361
0.010720775
0.011446129
0.011990906
0.012360487
0.012583527
0.012684033
0.012673665
0.01255024
0.012313482
0.011960216
0.011418208
0.010607908
0.0095827754
0.0086334588
0.0086091036
0.010574355
0.014707736
0.019056449
0.017481833
0.010456104
0.0088601335
0.010645978
0.011206551
1.3895791e-18
2.7025444e-16
7.1983134e-15
7.2975353e-14
4.4132209e-13
1.9552133e-12
7.0598766e-12
2.209083e-11
6.2233659e-11
1.6188295e-10
3.9567284e-10
9.2022897e-10
2.055575e-09
4.4415113e-09
9.3342877e-09
1.9163495e-08
3.8567893e-08
7.6306688e-08
1.4876116e-07
2.8630881e-07
5.4485806e-07
1.0266053e-06
1.9171871e-06
3.5518119e-06
6.5322787e-06
1.1932555e-05
2.1656396e-05
3.9049963e-05
6.9923819e-05
0.00012417672
0.00021814287
0.00037736729
0.00063841115
0.0010466485
0.0016466871
0.0024659981
0.0034993164
0.0047033706
0.0060046927
0.0073154373
0.0085503976
0.0096288424
0.010495161
0.011192046
0.0117023
0.01203209
0.012208014
0.012251435
0.012170664
0.011961135
0.011625054
0.011147231
0.010422736
0.0093468741
0.0079735146
0.0065484036
0.0058211804
0.0071884638
0.011724683
0.018000733
0.020388632
0.015979597
0.012766536
0.012739363
0.013353483
1.342153e-18
2.6103072e-16
6.9526351e-15
7.0484544e-14
4.2625638e-13
1.888449e-12
6.8187126e-12
2.1335838e-11
6.0105404e-11
1.5634279e-10
3.8211965e-10
8.886748e-10
1.9850026e-09
4.2887976e-09
9.0127692e-09
1.8501972e-08
3.7232969e-08
7.365679e-08
1.4357382e-07
2.7627365e-07
5.2563744e-07
9.9009888e-07
1.8483313e-06
3.4226893e-06
6.2913007e-06
1.148468e-05
2.0827242e-05
3.7521652e-05
6.7123468e-05
0.00011909245
0.00020904875
0.00036148658
0.00061167291
0.0010038589
0.0015824053
0.0023759094
0.0033812763
0.0045574042
0.0058320575
0.0071174106
0.0083273341
0.0093806462
0.010221777
0.010888579
0.011362381
0.011650174
0.011776488
0.011760223
0.011607001
0.011312773
0.010885876
0.010295898
0.0093857703
0.0080839237
0.0064198762
0.0045665957
0.0029949382
0.0034798451
0.0072721565
0.015270117
0.020409048
0.020100172
0.017168769
0.016414417
0.015962335
1.2818263e-18
2.4929802e-16
6.6401293e-15
6.7316266e-14
4.070939e-13
1.8035364e-12
6.5120288e-12
2.0375868e-11
5.7399829e-11
1.493013e-10
3.6489801e-10
8.4859164e-10
1.8953854e-09
4.09495e-09
8.6048416e-09
1.7663136e-08
3.5541383e-08
7.0301664e-08
1.3701258e-07
2.6359634e-07
5.0139329e-07
9.4413719e-07
1.7618389e-06
3.2609366e-06
5.9903986e-06
1.0927509e-05
1.9800026e-05
3.5636722e-05
6.368543e-05
0.00011287738
0.00019797237
0.00034219073
0.00057920662
0.00095183849
0.0015040404
0.0022657247
0.0032365549
0.0043783805
0.0056208551
0.0068765014
0.0080582648
0.0090846075
0.0098994921
0.010534071
0.010969262
0.011212844
0.011287354
0.011209617
0.010983764
0.010611213
0.010109052
0.0094124336
0.0083632177
0.006896874
0.0050733147
0.0030469219
0.0012905871
0.0011331004
0.0028378837
0.010402753
0.018373434
0.021234898
0.020626324
0.019730396
0.017522299
1.2097283e-18
2.3527586e-16
6.2666409e-15
6.352978e-14
3.8419319e-13
1.7020649e-12
6.1455665e-12
1.92289e-11
5.4167627e-11
1.4089049e-10
3.4433105e-10
8.0073224e-10
1.7884083e-09
3.8636182e-09
8.1181992e-09
1.6662844e-08
3.3525206e-08
6.6305156e-08
1.2920289e-07
2.4852071e-07
4.7259545e-07
8.8961927e-07
1.6594212e-06
3.0697981e-06
5.635705e-06
1.0272603e-05
1.8596491e-05
3.343588e-05
5.9685313e-05
0.00010566996
0.00018516076
0.00031990194
0.00054168651
0.00089156349
0.0014128352
0.0021367976
0.0030663815
0.0041671857
0.0053714957
0.0065926005
0.0077425619
0.0087396596
0.009527382
0.010126667
0.010520697
0.010717704
0.010738369
0.010598004
0.010301164
0.0098619323
0.0093013346
0.0085225851
0.0073833753
0.0058376028
0.00400623
0.0020074902
0.00076068213
0.00041671887
0.0010818168
0.0039497445
0.013643965
0.019355777
0.020935515
0.020144671
0.016014108
1.1274598e-18
2.1927572e-16
5.8404699e-15
5.9209234e-14
3.5806315e-13
1.5862893e-12
5.7274708e-12
1.7920431e-11
5.0480667e-11
1.3129744e-10
3.2087637e-10
7.4616198e-10
1.6664541e-09
3.599959e-09
7.5637007e-09
1.5523445e-08
3.1229558e-08
6.1756901e-08
1.2032038e-07
2.3138707e-07
4.3989694e-07
8.2778862e-07
1.5434311e-06
2.8537037e-06
5.2355269e-06
9.5354887e-06
1.7245549e-05
3.0972734e-05
5.5221807e-05
9.7649611e-05
0.00017093314
0.00029516766
0.0004999982
0.00082434927
0.0013105338
0.0019911452
0.0028727599
0.0039255033
0.0050851183
0.0062661789
0.0073799176
0.0083443937
0.0091041111
0.0096639165
0.010013866
0.010161565
0.010126197
0.0099223044
0.0095579754
0.0090691533
0.0084683288
0.0076358408
0.0064463246
0.0048970202
0.0031300818
0.0013321058
0.00046064631
0.00020686382
0.00050613191
0.0017998993
0.0061074268
0.014315071
0.017153123
0.016830134
0.011685401
1.0370517e-18
2.0169257e-16
5.3721356e-15
5.446127e-14
3.2934868e-13
1.4590672e-12
5.2680619e-12
1.6482759e-11
4.6429963e-11
1.2075895e-10
2.9511305e-10
6.8622836e-10
1.532535e-09
3.3104866e-09
6.9550527e-09
1.4273123e-08
2.8711274e-08
5.6769631e-08
1.1058558e-07
2.1262164e-07
4.0411339e-07
7.6019293e-07
1.4167848e-06
2.6181165e-06
4.8000495e-06
8.7350748e-06
1.5782173e-05
2.831166e-05
5.0412654e-05
8.9029373e-05
0.00015566794
0.00026863958
0.00045520936
0.00075181902
0.0011993656
0.0018314724
0.0026585495
0.0036559493
0.0047637681
0.0058985263
0.0069707929
0.0078976182
0.0086233753
0.0091425669
0.0094452352
0.0095401065
0.0094458882
0.0091774221
0.0087522895
0.0082361957
0.0073277741
0.0067347019
0.0055253418
0.003981138
0.0023752243
0.00087470508
0.00029472807
0.000154952
0.00026242653
0.00098083627
0.0027133088
0.0066014429
0.0099301407
0.0096372608
0.0053872428
9.408845e-19
1.8298933e-16
4.8739671e-15
4.9410882e-14
2.9880575e-13
1.3237477e-12
4.7794327e-12
1.4953728e-11
4.2122135e-11
1.0955243e-10
2.677192e-10
6.2250886e-10
1.3901758e-09
3.0028209e-09
6.3082792e-09
1.2944803e-08
2.6036693e-08
5.1474802e-08
1.0025527e-07
1.9271993e-07
3.6619102e-07
6.8862293e-07
1.2828455e-06
2.3693125e-06
4.3409192e-06
7.8928712e-06
1.424591e-05
2.5525035e-05
4.5389501e-05
8.0046542e-05
0.0001397864
0.00024104602
0.00040852637
0.0006758473
0.0010819942
0.0016611574
0.0024275173
0.0033621974
0.0044105641
0.0054918944
0.006516491
0.0074006737
0.0080868298
0.0085599699
0.008810617
0.0088475593
0.008690433
0.0083562925
0.0078850036
0.0069281568
0.0059951911
0.005777357
0.0045466155
0.0029937426
0.0015869591
0.00051225616
0.00019637033
0.00013243524
0.00015489184
0.0004854365
0.001560096
0.0032861583
0.0041868648
0.0041253535
0.0035780582
8.4156895e-19
1.6367379e-16
4.359491e-15
4.4195199e-14
2.6726362e-13
1.1840046e-12
4.2748475e-12
1.3374838e-11
3.7674084e-11
9.7981906e-11
2.3943788e-10
5.5673153e-10
1.2432365e-09
2.6853017e-09
5.6409079e-09
1.1574473e-08
2.3278264e-08
4.6015807e-08
8.9609154e-08
1.7222075e-07
3.2715644e-07
6.1501614e-07
1.1452398e-06
2.1140305e-06
3.8705789e-06
7.0317222e-06
1.2678478e-05
2.2688629e-05
4.0289114e-05
7.0945913e-05
0.00012372138
0.00021313788
0.00036121361
0.00059845529
0.00096140689
0.001484175
0.0021843409
0.003049085
0.0040298959
0.0050497218
0.006019105
0.0068536271
0.0074933165
0.0079123883
0.008105351
0.0080765263
0.0078505123
0.0074510295
0.0064757234
0.0054322372
0.0050316931
0.0047011525
0.003410515
0.0020649515
0.0008132818
0.00026596584
0.0001382421
0.00011661063
0.00013338521
0.00027234477
0.00072191687
0.0015010915
0.0020786342
0.0021569772
0.0022041615
7.4178696e-19
1.442675e-16
3.8425975e-15
3.895503e-14
2.3557374e-13
1.0436098e-12
3.7679234e-12
1.1788688e-11
3.320579e-11
8.6359392e-11
2.1103146e-10
4.9066874e-10
1.0956744e-09
2.3664766e-09
4.9708942e-09
1.0198979e-08
2.0510096e-08
4.0539177e-08
7.8932701e-08
1.5167306e-07
2.8805346e-07
5.4133749e-07
1.0076338e-06
1.8590565e-06
3.4015015e-06
6.1744082e-06
1.1121249e-05
1.9877183e-05
3.524583e-05
6.196759e-05
0.00010789866
0.00018566097
0.00031454408
0.00052172515
0.00084078386
0.0013049575
0.0019345342
0.0027226663
0.0036276264
0.0045770152
0.0054824506
0.0062584485
0.0068407758
0.0071961622
0.0073236865
0.0072181832
0.0069152674
0.0061150274
0.0050011188
0.0043693934
0.0044997255
0.0034459445
0.0021821162
0.0010911262
0.00035609293
0.00014274751
0.00010638434
0.00011445867
0.0001553747
0.00022066014
0.00037191561
0.00058062433
0.00077139934
0.00087091686
0.00096330111
6.4417276e-19
1.2528283e-16
3.3369343e-15
3.382873e-14
2.045728e-13
9.0626947e-13
3.2720398e-12
1.0237133e-11
2.8835128e-11
7.4991391e-11
1.8324876e-10
4.2606125e-10
9.5137597e-10
2.0547373e-09
4.3158607e-09
8.8544683e-09
1.7804863e-08
3.5188523e-08
6.8505463e-08
1.3161392e-07
2.4990183e-07
4.6950328e-07
8.7359504e-07
1.610976e-06
2.9457497e-06
5.3428718e-06
9.613883e-06
1.7161979e-05
3.0387094e-05
5.333827e-05
9.2719157e-05
0.00015931721
0.00026972478
0.00044767015
0.00072332907
0.0011282062
0.0016842909
0.0023901669
0.0032111973
0.0040805143
0.0049116202
0.0056174524
0.0061291916
0.0064101532
0.0064584661
0.0062637116
0.0057525233
0.0046385854
0.003874638
0.0037884042
0.0031963463
0.0020927946
0.0011577389
0.00040575137
0.00014681583
9.2987723e-05
9.4211813e-05
0.00013158126
0.00019275586
0.00024465467
0.00030979626
0.00039628215
0.00049140549
0.00056729538
0.0006321146
5.5115251e-19
1.0719166e-16
2.855072e-15
2.8943747e-14
1.7503149e-13
7.7539737e-13
2.7995201e-12
8.7587192e-12
2.4670641e-11
6.4160101e-11
1.5677912e-10
3.6451116e-10
8.1391688e-10
1.7578025e-09
3.692011e-09
7.5741609e-09
1.5229312e-08
3.0095628e-08
5.8583684e-08
1.125349e-07
2.1363326e-07
4.0126007e-07
7.4636474e-07
1.3757483e-06
2.5141843e-06
4.5567431e-06
8.1915855e-06
1.4605691e-05
2.5823725e-05
4.5252704e-05
7.8523294e-05
0.0001347
0.00022779285
0.00037809075
0.00061204243
0.00095857773
0.0014401488
0.0020597311
0.0027895417
0.0035687857
0.0043135172
0.0049351318
0.0053601934
0.0055539644
0.0055053169
0.0052093799
0.0042811109
0.0034575394
0.0032121526
0.002743724
0.0018415148
0.0010141419
0.00039597488
0.00014341522
7.6027316e-05
7.45312e-05
0.00010389115
0.00016076724
0.00022146601
0.00022586586
0.00024905638
0.00030109865
0.00033540537
0.00044475543
0.00051538559
4.6478013e-19
9.0393443e-17
2.4076485e-15
2.4407905e-14
1.4760174e-13
6.5388127e-13
2.3607882e-12
7.3860524e-12
2.0804142e-11
5.410421e-11
1.3220553e-10
3.0737318e-10
6.8632033e-10
1.4821966e-09
3.1130363e-09
6.3861148e-09
1.2839783e-08
2.5371639e-08
4.938326e-08
9.4849588e-08
1.8003017e-07
3.3807107e-07
6.2864972e-07
1.1583293e-06
2.1157899e-06
3.8321563e-06
6.8830688e-06
1.2259e-05
2.16446e-05
3.7866178e-05
6.5582697e-05
0.00011228723
0.00018959141
0.00031446589
0.00050948169
0.00080029109
0.001208483
0.001739922
0.00237275
0.003052203
0.0036973335
0.0042184304
0.0045381041
0.0046307071
0.0044670252
0.0038788964
0.0030610824
0.0027432393
0.0022209585
0.0014896627
0.00078621679
0.00032581755
0.00012698428
6.0044601e-05
5.8703054e-05
8.3469517e-05
0.00013345073
0.00016882279
0.00016647955
0.00018516904
0.00020265951
0.00023365947
0.00027262971
0.00038397609
0.00046150432
3.8661446e-19
7.5191286e-17
2.0027355e-15
2.0303029e-14
1.2277833e-13
5.4391241e-13
1.9637527e-12
6.1438633e-12
1.7305251e-11
4.5004649e-11
1.0996975e-10
2.5567345e-10
5.7087484e-10
1.2328553e-09
2.5892858e-09
5.3115161e-09
1.0678763e-08
2.1100239e-08
4.1066396e-08
7.8867883e-08
1.4967678e-07
2.810239e-07
5.2245037e-07
9.6235444e-07
1.7570945e-06
3.1806922e-06
5.7086331e-06
1.0157086e-05
1.7910104e-05
3.1281779e-05
5.4073786e-05
9.2385395e-05
0.00015566945
0.00025781369
0.00041754659
0.00065675434
0.0009949115
0.0014389599
0.0019713109
0.0025423863
0.0030742904
0.0034772005
0.0036735492
0.0036517815
0.0033657372
0.002655336
0.0022712443
0.0017293201
0.0011324991
0.00055465018
0.00023633977
0.00010180137
4.9211418e-05
4.6554135e-05
6.5250059e-05
0.00010417166
0.00014927079
0.00013018768
0.00012818399
0.00014113216
0.00016680285
0.0002011223
0.00024515213
0.00037358707
0.00050527037
3.1764917e-19
6.1778438e-17
1.6454806e-15
1.6681306e-14
1.0087676e-13
4.4688811e-13
1.6134563e-12
5.0479206e-12
1.4218351e-11
3.6976751e-11
9.0353315e-11
2.100657e-10
4.6903795e-10
1.0129204e-09
2.1273427e-09
4.3638307e-09
8.773224e-09
1.7334474e-08
3.3735706e-08
6.47853e-08
1.2294034e-07
2.3079886e-07
4.2900941e-07
7.9006077e-07
1.4420627e-06
2.6092591e-06
4.680105e-06
8.3198273e-06
1.465306e-05
2.5553059e-05
4.4084202e-05
7.5142696e-05
0.00012629591
0.00020866665
0.00033734673
0.00053022867
0.0008036419
0.0011637033
0.001594847
0.0020509897
0.0024569249
0.0027242106
0.0027935893
0.0026452292
0.0021573475
0.0017579842
0.0012917413
0.00081956714
0.00036552228
0.00015931216
7.345083e-05
3.8558073e-05
3.597526e-05
4.9774814e-05
8.3057407e-05
0.000130805
9.6302146e-05
9.2441333e-05
0.00010145243
0.00011671044
0.00014061651
0.00018765692
0.00025489642
0.00041739325
0.00057917848
2.5826545e-19
5.0229106e-17
1.3378618e-15
1.356278e-14
8.2018242e-14
3.6334511e-13
1.3118354e-12
4.1042769e-12
1.1560472e-11
3.0064731e-11
7.3464043e-11
1.7079998e-10
3.8136619e-10
8.235889e-10
1.7297082e-09
3.5481541e-09
7.1333208e-09
1.409417e-08
2.7429174e-08
5.2673281e-08
9.9952721e-08
1.8763465e-07
3.4874987e-07
6.421811e-07
1.1719307e-06
2.1198705e-06
3.8005705e-06
6.7515089e-06
1.1878405e-05
2.0683463e-05
3.561186e-05
6.054658e-05
0.00010145192
0.00016704682
0.00026911402
0.00042156327
0.00063684943
0.00091850232
0.0012504755
0.0015880986
0.0018592735
0.0019832779
0.0019332134
0.0016750975
0.0012579932
0.00091747924
0.0005622511
0.00023040183
0.00010359415
5.0308127e-05
2.8414889e-05
2.6983385e-05
3.9594553e-05
7.0311475e-05
0.00011921325
8.1767343e-05
7.7175941e-05
8.4476201e-05
9.6293173e-05
0.00011334606
0.00013831132
0.00018559212
0.00026594318
0.00048142965
0.00072148621
2.0823174e-19
4.0498245e-17
1.078679e-15
1.0935287e-14
6.6129186e-14
2.9295719e-13
1.0577114e-12
3.3092393e-12
9.3211927e-12
2.424143e-11
5.9235392e-11
1.3772102e-10
3.0751129e-10
6.6410431e-10
1.3947812e-09
2.8611703e-09
5.7523015e-09
1.1365767e-08
2.2119839e-08
4.2478577e-08
8.0609103e-08
1.5132481e-07
2.8126335e-07
5.1790126e-07
9.4506211e-07
1.709229e-06
3.0634697e-06
5.4393563e-06
9.5619553e-06
1.6628097e-05
2.8571305e-05
4.8434647e-05
8.0845392e-05
0.00013247929
0.00021218809
0.0003300686
0.00049425942
0.00070427519
0.00094140615
0.0011611232
0.0012976369
0.0013016431
0.0011567306
0.00085667451
0.00061215696
0.00035511705
0.00014596113
6.5824146e-05
3.3707452e-05
2.0560599e-05
2.0361678e-05
3.2401683e-05
5.8795842e-05
0.00010067409
7.9431436e-05
7.1497992e-05
7.234715e-05
7.7507833e-05
8.7937201e-05
0.00010697495
0.00013864977
0.00019709274
0.00030983168
0.00064691848
0.00083820145
1.6675367e-19
3.2431323e-17
8.6381508e-16
8.7570843e-15
5.2957126e-14
2.3460576e-13
8.4704458e-13
2.6501665e-12
7.4648932e-12
1.9414165e-11
4.744073e-11
1.1030147e-10
2.4629438e-10
5.3191686e-10
1.1171961e-09
2.2918445e-09
4.607907e-09
9.1050935e-09
1.7721256e-08
3.4033978e-08
6.4589211e-08
1.2126085e-07
2.2540122e-07
4.150635e-07
7.574135e-07
1.3697477e-06
2.4544596e-06
4.3559678e-06
7.6509203e-06
1.3286157e-05
2.2779503e-05
3.8490154e-05
6.3931252e-05
0.00010403535
0.00016508563
0.00025359191
0.00037317503
0.00051850971
0.00066749281
0.00077795984
0.00080379449
0.00072924721
0.00055333052
0.00038170392
0.00021030603
8.7066224e-05
4.1495907e-05
2.2319523e-05
1.4957088e-05
1.5673689e-05
2.6345894e-05
4.8717129e-05
8.5163307e-05
7.9162576e-05
6.822469e-05
6.5791496e-05
6.8690636e-05
7.7395468e-05
9.083536e-05
0.00011152737
0.00014616977
0.00021470807
0.00036170994
0.00080320196
0.00087133022
1.3258185e-19
2.578536e-17
6.8679856e-16
6.9625643e-15
4.2105302e-14
1.8653296e-13
6.7348761e-13
2.1071954e-12
5.9356109e-12
1.5437345e-11
3.772414e-11
8.7713306e-11
1.9586519e-10
4.2302658e-10
8.8854094e-10
1.8228907e-09
3.6653077e-09
7.2431345e-09
1.4098615e-08
2.7079381e-08
5.1396483e-08
9.6503359e-08
1.7940015e-07
3.3037972e-07
6.0288846e-07
1.0901797e-06
1.9528891e-06
3.4635706e-06
6.0763323e-06
1.0531024e-05
1.7999321e-05
3.0268322e-05
4.9922616e-05
8.0404621e-05
0.00012569117
0.00018893997
0.0002693918
0.00035732573
0.00042983912
0.00045531021
0.00042065797
0.00033039289
0.00021852898
0.00011512216
4.9617567e-05
2.5024512e-05
1.4822567e-05
1.0851892e-05
1.2416625e-05
2.1462953e-05
4.0569886e-05
7.2151567e-05
7.9093097e-05
6.8846084e-05
6.6162218e-05
6.7159438e-05
7.2514535e-05
8.1110564e-05
9.4957481e-05
0.00011809056
0.00015733809
0.00023609309
0.00042150593
0.00084389107
0.00089236336
1.0419862e-19
2.0265211e-17
5.3976866e-16
5.4720371e-15
3.3091772e-14
1.4660356e-13
5.2933012e-13
1.6561977e-12
4.6653631e-12
1.2134102e-11
2.9653212e-11
6.8950543e-11
1.5397559e-10
3.3257332e-10
6.9859448e-10
1.4333069e-09
2.8821902e-09
5.6960639e-09
1.1088235e-08
2.1299151e-08
4.0428838e-08
7.5914709e-08
1.4112832e-07
2.5988433e-07
4.7415777e-07
8.5705824e-07
1.5341478e-06
2.7174282e-06
4.757337e-06
8.2176593e-06
1.3973481e-05
2.3316981e-05
3.8019008e-05
6.0218117e-05
9.1816331e-05
0.00013301233
0.00017962475
0.00022031504
0.00023781312
0.00022213001
0.00017647935
0.0001142009
5.983642e-05
2.7601146e-05
1.4837979e-05
9.6516215e-06
8.0605195e-06
9.7439427e-06
1.7747686e-05
3.3827541e-05
6.2777309e-05
8.2138747e-05
7.1981869e-05
6.9453457e-05
6.8366778e-05
7.1071288e-05
7.6411673e-05
8.6141106e-05
0.00010200631
0.00012783431
0.0001718773
0.00026093485
0.00047551605
0.00085617784
0.00091188044
8.0113818e-20
1.558105e-17
4.1500532e-16
4.2072332e-15
2.5443174e-14
1.1272025e-13
4.069984e-13
1.2734715e-12
3.5873653e-12
9.3306721e-12
2.2803103e-11
5.3024725e-11
1.1841655e-10
2.5578111e-10
5.3731233e-10
1.1024539e-09
2.2169751e-09
4.3815204e-09
8.5293397e-09
1.6383394e-08
3.1095592e-08
5.8380054e-08
1.0850017e-07
1.9970704e-07
3.6409287e-07
6.5734718e-07
1.1745671e-06
2.0748972e-06
3.6177918e-06
6.2116884e-06
1.0468754e-05
1.724162e-05
2.7582776e-05
4.2470765e-05
6.2109235e-05
8.4660218e-05
0.00010484351
0.00011433432
0.0001074553
8.5441184e-05
5.4343228e-05
2.9025835e-05
1.4741577e-05
8.7168266e-06
6.3919728e-06
5.9246784e-06
7.8377061e-06
1.4483554e-05
2.8742236e-05
5.5636755e-05
8.7247327e-05
7.6110925e-05
7.3116187e-05
7.1094988e-05
7.2506766e-05
7.5635704e-05
8.2103945e-05
9.3091589e-05
0.00011023835
0.00013859766
0.00018643966
0.0002827589
0.00050432901
0.00088960115
0.00092729849
5.9232911e-20
1.1519998e-17
3.0683825e-16
3.1106672e-15
1.8811843e-14
8.3342635e-14
3.0092971e-13
9.4160807e-13
2.6525657e-12
6.8994342e-12
1.6861808e-11
3.9210001e-11
8.7566162e-11
1.8914433e-10
3.9732462e-10
8.1519658e-10
1.639195e-09
3.2392207e-09
6.3044303e-09
1.2106123e-08
2.2967256e-08
4.3092073e-08
8.0013769e-08
1.470819e-07
2.6765218e-07
4.8195853e-07
8.5797176e-07
1.5076347e-06
2.6090607e-06
4.432172e-06
7.3572269e-06
1.185597e-05
1.8370661e-05
2.7004295e-05
3.6956564e-05
4.5921845e-05
5.0262728e-05
4.7341838e-05
3.753681e-05
2.3831225e-05
1.3372637e-05
7.5942609e-06
5.0700152e-06
4.2967037e-06
4.4465588e-06
6.2678975e-06
1.197553e-05
2.5604553e-05
4.9203668e-05
8.2523821e-05
7.9666441e-05
7.6857377e-05
7.4353132e-05
7.4978719e-05
7.6575791e-05
8.065033e-05
8.7974193e-05
0.0001000666
0.0001191052
0.00014987495
0.0002011402
0.00030132164
0.00051282048
0.00090511824
0.00094189893
4.1143118e-20
8.0017761e-18
2.1312934e-16
2.160665e-15
1.3066714e-14
5.7890102e-14
2.0902801e-13
6.5405059e-13
1.8424995e-12
4.792384e-12
1.1712084e-11
2.7233997e-11
6.0816962e-11
1.3135322e-10
2.7588706e-10
5.6592462e-10
1.1376249e-09
2.2471371e-09
4.3710492e-09
8.3869053e-09
1.5894099e-08
2.977719e-08
5.517984e-08
1.0115638e-07
1.8340093e-07
3.2859684e-07
5.8098658e-07
1.0114594e-06
1.728158e-06
2.8840211e-06
4.6687418e-06
7.2602654e-06
1.0698072e-05
1.4658038e-05
1.8221752e-05
1.9951969e-05
1.8773553e-05
1.4831886e-05
9.6978209e-06
5.9886703e-06
3.8424411e-06
3.0322402e-06
2.8741282e-06
3.3768711e-06
5.0565092e-06
1.0491308e-05
2.2825544e-05
4.3765753e-05
7.3576569e-05
8.3107802e-05
8.0674662e-05
7.766048e-05
7.7331945e-05
7.8059882e-05
8.0659174e-05
8.563985e-05
9.3979749e-05
0.00010734274
0.00012779811
0.00016083663
0.00021411949
0.00031428394
0.0005040699
0.00091640709
0.00095098878
2.6144006e-20
5.0846504e-18
1.3543065e-16
1.3729653e-15
8.3030244e-15
3.6785e-14
1.3282048e-13
4.1558705e-13
1.1706903e-12
3.0448184e-12
7.4405802e-12
1.7299358e-11
3.8624818e-11
8.3401705e-11
1.7511251e-10
3.5903906e-10
7.2128593e-10
1.4235344e-09
2.7658477e-09
5.2988594e-09
1.0021564e-08
1.8724614e-08
3.4574556e-08
6.3082561e-08
1.1365326e-07
2.0193025e-07
3.5304451e-07
6.0539944e-07
1.0133313e-06
1.6441993e-06
2.5607855e-06
3.7759882e-06
5.1739964e-06
6.4312733e-06
7.0434887e-06
6.6440521e-06
5.3472716e-06
3.7749612e-06
2.6280867e-06
2.0112314e-06
1.8167269e-06
2.0306763e-06
2.5394889e-06
4.2441396e-06
9.5505011e-06
2.0188431e-05
3.8926545e-05
6.5748564e-05
8.7482663e-05
8.3727085e-05
7.9961272e-05
7.9216515e-05
7.9304308e-05
8.1110039e-05
8.4481175e-05
9.0289716e-05
9.9615946e-05
0.00011421731
0.00013631371
0.00017119541
0.00022596554
0.00032401475
0.00048895321
0.00082393492
0.00096044977
1.4809165e-20
2.8801765e-18
7.671372e-17
7.7769908e-16
4.7030711e-15
2.0835556e-14
7.5228515e-14
2.3537151e-13
6.6297374e-13
1.7240971e-12
4.2124141e-12
9.7914884e-12
2.1854489e-11
4.7168619e-11
9.8976431e-11
2.0277014e-10
4.0691277e-10
8.0193923e-10
1.5551879e-09
2.9720676e-09
5.602661e-09
1.0423426e-08
1.9138648e-08
3.4662179e-08
6.184574e-08
1.0848413e-07
1.8647843e-07
3.1263606e-07
5.0772681e-07
7.9105589e-07
1.1666818e-06
1.5997812e-06
1.993267e-06
2.1938212e-06
2.1122195e-06
1.8232855e-06
1.4717366e-06
1.1831141e-06
1.079264e-06
1.1785332e-06
1.4220894e-06
2.0548062e-06
3.9391385e-06
8.7210141e-06
1.7844262e-05
3.4579457e-05
5.8810606e-05
8.707047e-05
8.4773954e-05
8.0931273e-05
8.0233781e-05
8.0195886e-05
8.1266522e-05
8.3755916e-05
8.7961478e-05
9.4838069e-05
0.00010523039
0.00012104403
0.00014436556
0.00018070812
0.00023567845
0.00032958832
0.00047299768
0.00074370465
0.00096582875
7.3294227e-21
1.4254685e-18
3.79672e-17
3.8489313e-16
2.3275438e-15
1.0311024e-14
3.7226247e-14
1.1645996e-13
3.2798652e-13
8.5277193e-13
2.082956e-12
4.8398441e-12
1.0796896e-11
2.328688e-11
4.881925e-11
9.9893247e-11
2.0014258e-10
3.9361285e-10
7.6123647e-10
1.4495735e-09
2.7198713e-09
5.0294851e-09
9.1618943e-09
1.6422884e-08
2.8910657e-08
4.9827869e-08
8.3698618e-08
1.3613786e-07
2.1247994e-07
3.1433509e-07
4.3374257e-07
5.4741918e-07
6.2263807e-07
6.4595947e-07
6.3451703e-07
6.065058e-07
5.9732359e-07
6.2429233e-07
8.0069552e-07
1.130909e-06
1.8839153e-06
3.6870865e-06
7.6979036e-06
1.5440582e-05
3.0617697e-05
5.2643126e-05
7.825594e-05
8.4669864e-05
8.1112225e-05
8.0324587e-05
8.0204616e-05
8.0960292e-05
8.271977e-05
8.6154493e-05
9.1275699e-05
9.8959207e-05
0.00011025361
0.000127207
0.00015175443
0.00018917728
0.0002436877
0.00033329514
0.00045926834
0.00068947779
0.00094649098
3.1783735e-21
6.1814736e-19
1.6464138e-17
1.6690175e-16
1.0092558e-15
4.4707199e-15
1.6139237e-14
5.048352e-14
1.4214881e-13
3.6948897e-13
9.0216723e-13
2.0951772e-12
4.6708742e-12
1.0065295e-11
2.1076623e-11
4.3061046e-11
8.6104436e-11
1.6890196e-10
3.2556153e-10
6.1727267e-10
1.1517666e-09
2.1145737e-09
3.8166127e-09
6.7608397e-09
1.1722629e-08
1.9817178e-08
3.2483249e-08
5.1247296e-08
7.7089762e-08
1.0938068e-07
1.4508874e-07
1.8126942e-07
2.1698461e-07
2.5234866e-07
2.8712815e-07
3.4078744e-07
4.3860227e-07
6.4804248e-07
1.0352185e-06
1.7790791e-06
3.3413522e-06
6.6631655e-06
1.3481826e-05
2.7332948e-05
4.7156377e-05
7.0376394e-05
8.3267542e-05
8.0350047e-05
7.9213949e-05
7.9275614e-05
7.9906015e-05
8.1327066e-05
8.4046961e-05
8.8275759e-05
9.4084705e-05
0.00010275749
0.00011512211
0.00013312077
0.00015854262
0.00019670932
0.00025066417
0.00033599123
0.00044808661
0.0006522284
0.00088491052
1.3253206e-21
2.5775517e-19
6.8651638e-18
6.9592822e-17
4.2081347e-16
1.8639816e-15
6.7283953e-15
2.1043977e-14
5.9245124e-14
1.5396379e-13
3.7582208e-13
8.7248289e-13
1.9441448e-12
4.1869054e-12
8.7605595e-12
1.7880962e-11
3.5710751e-11
6.9943034e-11
1.3456233e-10
2.5454641e-10
4.7364205e-10
8.6673962e-10
1.5585505e-09
2.7496885e-09
4.7488348e-09
8.0041084e-09
1.3113361e-08
2.0782476e-08
3.1696179e-08
4.6600683e-08
6.670021e-08
9.3652881e-08
1.2910611e-07
1.7894146e-07
2.5221305e-07
3.722521e-07
5.9092805e-07
9.5877487e-07
1.6257603e-06
2.9651461e-06
5.8180788e-06
1.1982444e-05
2.4368599e-05
4.2190455e-05
6.3332746e-05
8.1087892e-05
7.8657362e-05
7.7264958e-05
7.7510193e-05
7.8088691e-05
7.9186362e-05
8.1529697e-05
8.5013129e-05
8.9978858e-05
9.6663817e-05
0.00010619301
0.00011931361
0.00013830912
0.00016463029
0.00020330163
0.00025599072
0.00033716018
0.0004399225
0.00062804074
0.00084058724
7.3905345e-22
1.4373508e-19
3.8283239e-18
3.8808531e-17
2.3467171e-16
1.0395054e-15
3.7524932e-15
1.1737448e-14
3.3048874e-14
8.5903389e-14
2.0975034e-13
4.8714983e-13
1.0861679e-12
2.3411513e-12
4.9043191e-12
1.0026299e-11
2.0068304e-11
3.9424501e-11
7.6159252e-11
1.4486731e-10
2.7158018e-10
5.020028e-10
9.1498555e-10
1.643868e-09
2.9090236e-09
5.0654826e-09
8.6697982e-09
1.456131e-08
2.3966059e-08
3.8567244e-08
6.0739226e-08
9.3993883e-08
1.4351827e-07
2.186657e-07
3.4168247e-07
5.4326166e-07
8.7488745e-07
1.4719555e-06
2.6620822e-06
5.2030194e-06
1.0742168e-05
2.1692426e-05
3.759692e-05
5.7037564e-05
7.8600135e-05
7.6150451e-05
7.4480852e-05
7.4927524e-05
7.5349376e-05
7.6348366e-05
7.8405756e-05
8.1502759e-05
8.5722422e-05
9.1421972e-05
9.8758244e-05
0.00010913351
0.00012324758
0.00014310894
0.00016993842
0.00020887726
0.0002608309
0.00033903328
0.00043403895
0.00060923304
0.00080410622
7.5111001e-22
1.4608036e-19
3.8908463e-18
3.9443668e-17
2.3852672e-16
1.0566847e-15
3.8150779e-15
1.1935837e-14
3.3618106e-14
8.7421825e-14
2.1358897e-13
4.9648015e-13