/*--------------------------------*- C++ -*----------------------------------*\
  =========                 |
  \\      /  F ield         | OpenFOAM: The Open Source CFD Toolbox
   \\    /   O peration     | Website:  https://openfoam.org
    \\  /    A nd           | Version:  13
     \\/     M anipulation  |
\*---------------------------------------------------------------------------*/
FoamFile
{
    format      ascii;
    class       volScalarField;
    location    "48.601831";
    object      yPlus;
}
// * * * * * * * * * * * * * * * * * * * * * * * * * * * * * * * * * * * * * //

dimensions      [];

internalField   uniform 0;

boundaryField
{
    inlet
    {
        type            calculated;
        value           uniform 0;
    }
    outlet
    {
        type            calculated;
        value           uniform 0;
    }
    cylinder
    {
        type            calculated;
        value           nonuniform List<scalar> 
132
(
1.3733921e-07
1.3811401e-07
1.3837116e-07
1.3804937e-07
1.3708222e-07
1.3544105e-07
1.331097e-07
1.3008382e-07
1.2637251e-07
1.2199983e-07
1.170062e-07
1.1144917e-07
1.0540314e-07
9.8957401e-08
9.221676e-08
8.5299125e-08
7.8330781e-08
7.1441033e-08
6.4756378e-08
5.8390452e-08
5.2430276e-08
4.6918744e-08
4.1836054e-08
3.7088535e-08
3.2520888e-08
2.7963416e-08
2.3305439e-08
1.857782e-08
1.398215e-08
9.8365673e-09
6.4775556e-09
4.1828198e-09
3.1235366e-09
3.1489115e-09
3.7184454e-09
4.5577308e-09
5.6144696e-09
6.9023973e-09
8.4476361e-09
1.0281272e-08
1.2461871e-08
1.5062856e-08
1.7851186e-08
2.0789606e-08
2.3806007e-08
2.6834885e-08
2.9822085e-08
3.2727187e-08
3.5518983e-08
3.817777e-08
4.0688396e-08
4.3047511e-08
4.5245556e-08
4.7279388e-08
4.9167241e-08
5.0879538e-08
5.2444139e-08
5.3846288e-08
5.5096448e-08
5.6181149e-08
5.7110383e-08
5.7888439e-08
5.8511516e-08
5.8980837e-08
5.9300612e-08
5.9462427e-08
1.3600182e-07
1.3409112e-07
1.3164787e-07
1.2867819e-07
1.2520697e-07
1.2126736e-07
1.1690127e-07
1.1215704e-07
1.0709165e-07
1.0177656e-07
9.6277246e-08
9.0665929e-08
8.5017633e-08
7.9407403e-08
7.3907864e-08
6.8586889e-08
6.3504896e-08
5.8710737e-08
5.4235675e-08
5.0084659e-08
4.6227486e-08
4.2589892e-08
3.905116e-08
3.5456251e-08
3.1643766e-08
2.7500861e-08
2.3026429e-08
1.836763e-08
1.3808556e-08
9.7025103e-09
6.3857073e-09
4.1278413e-09
3.0978404e-09
3.1417239e-09
3.724627e-09
4.5766108e-09
5.6489515e-09
6.9561335e-09
8.5249978e-09
1.0385359e-08
1.2595109e-08
1.5226227e-08
1.8041477e-08
2.1002621e-08
2.4034515e-08
2.7072371e-08
3.0064117e-08
3.2968648e-08
3.5756716e-08
3.8409683e-08
4.0911687e-08
4.3264359e-08
4.5451766e-08
4.7463465e-08
4.9352617e-08
5.1045111e-08
5.2599902e-08
5.3984348e-08
5.5223672e-08
5.6287961e-08
5.7203927e-08
5.7964154e-08
5.8570416e-08
5.9021694e-08
5.9318284e-08
5.946373e-08
)
;
    }
    frontAndBack
    {
        type            empty;
    }
}


// ************************************************************************* //
