/*--------------------------------*- C++ -*----------------------------------*\
  =========                 |
  \\      /  F ield         | OpenFOAM: The Open Source CFD Toolbox
   \\    /   O peration     | Website:  https://openfoam.org
    \\  /    A nd           | Version:  13
     \\/     M anipulation  |
\*---------------------------------------------------------------------------*/
FoamFile
{
    format      ascii;
    class       volScalarField;
    location    "0.001";
    object      mag(U);
}
// * * * * * * * * * * * * * * * * * * * * * * * * * * * * * * * * * * * * * //

dimensions      [0 1 -1 0 0 0 0];

internalField   nonuniform List<scalar> 
1000
(
1.6046e-13
2.62571e-13
1.6046e-13
2.18809e-13
1.16698e-13
1.31286e-13
5.83492e-14
8.75238e-14
7.29365e-14
5.83492e-14
1.75048e-13
1.45873e-13
2.91746e-14
7.29365e-14
8.75238e-14
1.02111e-13
7.29365e-14
8.75238e-14
1.31286e-13
4.37619e-14
5.83492e-14
2.91746e-14
2.91746e-14
4.37619e-14
4.37619e-14
1.6046e-13
2.91746e-13
2.04222e-13
7.29365e-14
2.91746e-14
1.75048e-13
8.75238e-14
2.04222e-13
1.16698e-13
1.45873e-14
1.31286e-13
5.83492e-14
7.29365e-14
1.6046e-13
4.37619e-14
5.83492e-14
1.45873e-14
1.89635e-13
2.33397e-13
1.02111e-13
1.45873e-14
4.37619e-14
2.91746e-14
5.83492e-14
1.45873e-14
8.20415e-29
1.02111e-13
1.16698e-13
5.83492e-14
1.45873e-14
2.91746e-14
7.29365e-14
5.83492e-14
1.6046e-13
2.91746e-14
2.18809e-13
2.04222e-13
1.31286e-13
1.31286e-13
2.47984e-13
5.83492e-14
1.6046e-13
2.91746e-14
8.75238e-14
1.02111e-13
1.45873e-14
5.83492e-14
1.45873e-14
1.16698e-13
5.83492e-14
5.83492e-14
5.83492e-14
5.83492e-14
8.75238e-14
1.45873e-13
4.37619e-14
7.29365e-14
7.29365e-14
1.45873e-13
1.31286e-13
7.29365e-14
1.16698e-13
1.45873e-14
4.37619e-14
8.75238e-14
2.91746e-14
2.91746e-14
5.80602e-28
4.37619e-14
1.16698e-13
5.83492e-14
1.02111e-13
2.33397e-13
1.02111e-13
1.89635e-13
1.16698e-13
1.89635e-13
1.31286e-13
2.33397e-13
1.02111e-13
2.18809e-13
1.89635e-13
1.31286e-13
5.83492e-14
1.31286e-13
2.62571e-13
1.45873e-13
1.89635e-13
1.89635e-13
2.91746e-13
3.06333e-13
3.35508e-13
2.33397e-13
2.91746e-14
2.91746e-13
8.75238e-14
2.62571e-13
8.75238e-14
8.75238e-14
7.29365e-14
2.62571e-13
1.45873e-13
1.31286e-13
8.75238e-14
1.75048e-13
1.89635e-13
3.50095e-13
4.66793e-13
4.37619e-13
3.93857e-13
4.81381e-13
3.06333e-13
3.93857e-13
2.91746e-13
3.06333e-13
2.77159e-13
3.35508e-13
1.45873e-13
8.75238e-14
1.45873e-14
2.62571e-13
2.77159e-13
4.08444e-13
5.25143e-13
7.58539e-13
4.52206e-13
4.66793e-13
2.91746e-13
1.16698e-13
1.45873e-14
5.83492e-14
8.75238e-14
5.83492e-14
1.02111e-13
1.89635e-13
1.75048e-13
2.47984e-13
3.06333e-13
1.31286e-13
1.45873e-14
1.45873e-13
2.91746e-14
1.45873e-14
1.45873e-14
1.31286e-13
2.62571e-13
5.10555e-13
4.52206e-13
4.37619e-13
4.52206e-13
1.89635e-13
2.77159e-13
1.45873e-13
2.33397e-13
1.89635e-13
1.6046e-13
1.45873e-13
2.91746e-14
1.45873e-14
7.29365e-14
4.37619e-14
1.16698e-13
1.02111e-13
1.02111e-13
1.45873e-14
8.75238e-14
4.37619e-14
2.91746e-14
1.02111e-13
1.6046e-13
1.31286e-13
2.18809e-13
3.06333e-13
7.29365e-14
1.31286e-13
1.45873e-14
2.91746e-14
1.02111e-13
2.04222e-13
1.45873e-13
8.75238e-14
8.75238e-14
1.45873e-14
4.37619e-14
1.16698e-13
5.83492e-14
1.45873e-14
1.45873e-14
1.6046e-13
2.91746e-14
1.31286e-13
2.92106e-28
2.91746e-14
5.83492e-14
7.29365e-14
8.75238e-14
2.18809e-13
1.16698e-13
2.91746e-13
2.91746e-13
3.93857e-13
2.77159e-13
1.89635e-13
2.62571e-13
1.45873e-13
3.50095e-13
1.45873e-13
3.06333e-13
1.75048e-13
2.91746e-14
2.91746e-13
1.6046e-13
2.33397e-13
1.02111e-13
1.16698e-13
1.45873e-14
4.37619e-14
7.29365e-14
8.75238e-14
1.45873e-14
2.91746e-14
2.33397e-13
1.89635e-13
2.77159e-13
1.6046e-13
2.77159e-13
3.50095e-13
3.93857e-13
4.37619e-13
3.7927e-13
3.93857e-13
7.29365e-14
1.6046e-13
1.45873e-13
2.91746e-13
7.29365e-14
1.02111e-13
2.33503e-28
1.16698e-13
8.75238e-14
7.29365e-14
2.91746e-14
2.18809e-13
2.18809e-13
3.35508e-13
2.04222e-13
1.45873e-13
5.83492e-14
1.31286e-13
2.77159e-13
1.16698e-13
3.20921e-13
2.18809e-13
3.93857e-13
4.81381e-13
4.95968e-13
4.08444e-13
4.95968e-13
4.37619e-13
4.08444e-13
4.95968e-13
5.25143e-13
2.47984e-13
5.3973e-13
4.08444e-13
5.98079e-13
4.08444e-13
8.75238e-13
8.46063e-13
9.33587e-13
1.05029e-12
1.0357e-12
9.04412e-13
7.73127e-13
7.58539e-13
6.56428e-13
9.04412e-13
6.56428e-13
8.46063e-13
5.10555e-13
7.43952e-13
6.56428e-13
4.95968e-13
6.12666e-13
4.23032e-13
3.7927e-13
5.25143e-13
3.20921e-13
6.27254e-13
3.50095e-13
6.27254e-13
2.47984e-13
4.81381e-13
1.16698e-13
4.08444e-13
1.45873e-13
2.33397e-13
1.75048e-13
8.75238e-14
7.29365e-14
4.37619e-14
4.37619e-14
2.91746e-14
9.46633e-29
4.37619e-14
1.45873e-14
1.45873e-13
5.83492e-14
1.45873e-14
7.29365e-14
8.75238e-14
1.02111e-13
1.6046e-13
5.83492e-14
2.18809e-13
2.91746e-14
3.20921e-13
2.91746e-14
5.83492e-14
1.89635e-13
2.91746e-14
1.75048e-13
2.91746e-14
2.47984e-13
5.83492e-14
5.83492e-14
1.45873e-13
1.45873e-14
4.37619e-14
4.37619e-14
5.80602e-28
2.91746e-14
8.75238e-14
8.75238e-14
1.16698e-13
8.75238e-14
2.62571e-13
1.89635e-13
2.04222e-13
5.83492e-14
5.23804e-28
1.16698e-13
2.91746e-13
1.16698e-13
2.91746e-14
1.31286e-13
2.18809e-13
1.31286e-13
2.91746e-14
1.31286e-13
7.29365e-14
2.91746e-14
1.45873e-14
1.02111e-13
4.37619e-14
8.75238e-14
1.31286e-13
1.45873e-14
5.83492e-14
7.29365e-14
2.91746e-14
4.37619e-14
1.16698e-13
2.91746e-14
5.83492e-14
1.6046e-13
5.83492e-14
2.91746e-14
1.16698e-13
1.45873e-13
3.06333e-13
2.33397e-13
3.20921e-13
2.04222e-13
5.3973e-13
3.35508e-13
5.68905e-13
3.64682e-13
6.41841e-13
4.52206e-13
4.81381e-13
4.95968e-13
3.64682e-13
2.77159e-13
1.02111e-13
4.37619e-14
2.91746e-14
7.29365e-14
7.29365e-14
8.75238e-14
2.18809e-13
3.06333e-13
4.81381e-13
7.0019e-13
1.53167e-12
3.69059e-12
1.00215e-11
2.75262e-11
7.65979e-11
2.10232e-10
5.72318e-10
1.53862e-09
4.08898e-09
1.07303e-08
2.78026e-08
7.10979e-08
1.79386e-07
4.464e-07
1.09523e-06
2.6483e-06
6.30857e-06
1.47983e-05
3.41675e-05
7.76122e-05
0.000173357
0.000380553
0.000820548
0.00173678
0.00360628
0.00734085
0.0146381
0.0285714
0.0545402
0.101729
0.185224
0.328863
0.568746
0.956964
1.56461
2.4824
3.8166
5.67715
8.15524
11.2953
15.0794
19.4345
24.2548
29.4286
34.8594
40.4748
46.2259
52.0822
58.0247
64.0414
70.1235
76.2638
82.4559
88.6936
94.9709
101.282
107.621
113.982
120.359
126.747
133.139
139.528
145.909
152.274
158.617
164.929
171.203
177.431
183.604
189.712
195.745
201.694
207.547
213.292
218.918
224.413
229.763
234.956
239.979
244.818
249.462
253.897
258.112
262.098
265.845
269.346
272.595
275.589
278.327
280.813
283.05
285.047
286.816
288.372
289.733
290.922
291.962
292.876
293.69
294.424
295.097
295.722
296.307
296.852
297.354
297.802
298.182
298.48
298.681
298.771
298.743
298.595
298.331
297.964
297.508
296.983
296.405
295.789
295.144
294.468
293.755
292.988
292.139
291.177
290.057
288.728
287.126
285.175
282.782
279.832
276.181
271.644
265.985
258.888
249.929
238.51
223.763
204.347
178.193
142.616
97.0097
50.2985
18.8597
5.53226
1.42813
0.349431
0.0840058
0.0200908
0.00479537
0.0011431
0.000272167
6.47243e-05
1.53732e-05
3.64673e-06
8.63902e-07
2.04374e-07
4.82794e-08
1.13882e-08
2.68201e-09
6.30785e-10
1.48018e-10
3.46303e-11
8.11055e-12
1.89635e-12
5.10556e-13
4.3762e-14
1.45873e-14
1.45873e-14
7.29366e-14
1.6046e-13
1.45873e-14
3.06334e-13
1.45873e-13
2.47984e-13
1.31286e-13
4.3762e-14
1.16699e-13
2.47984e-13
1.89635e-13
1.31286e-13
1.16699e-13
1.31286e-13
1.31286e-13
1.31286e-13
1.16699e-13
2.47984e-13
1.89635e-13
2.91746e-14
8.75239e-14
2.47984e-13
1.31286e-13
2.1881e-13
7.29366e-14
8.75239e-14
1.16699e-13
1.31286e-13
2.91746e-13
5.83493e-14
4.3762e-14
4.3762e-14
1.45873e-13
7.29366e-14
8.75239e-14
2.33397e-13
7.29366e-14
5.83493e-14
1.45873e-14
1.16699e-13
8.04638e-28
1.6046e-13
1.45873e-14
1.45873e-14
2.91746e-14
1.45873e-14
4.3762e-14
1.02111e-13
1.75048e-13
4.3762e-14
5.90068e-28
3.20921e-13
5.83493e-14
4.3762e-14
1.31286e-13
1.75048e-13
1.31286e-13
4.3762e-13
8.1689e-13
6.12667e-13
5.39731e-13
4.66794e-13
1.31286e-13
3.35508e-13
1.16699e-13
3.20921e-13
3.7927e-13
3.20921e-13
2.77159e-13
1.16699e-13
4.3762e-14
5.83493e-14
5.83493e-14
8.75239e-14
8.75239e-14
1.16699e-13
8.75239e-14
5.83493e-14
8.75239e-14
3.7927e-13
4.79627e-28
2.77159e-13
8.75239e-14
2.1881e-13
8.75239e-14
1.16699e-13
3.35508e-13
2.91746e-13
1.89635e-13
1.6046e-13
1.75048e-13
4.3762e-14
4.08445e-13
3.06334e-13
4.23032e-13
2.33397e-13
2.04222e-13
1.75048e-13
1.31286e-13
3.93858e-13
4.95969e-13
3.93858e-13
3.93858e-13
1.16699e-13
3.35508e-13
7.29366e-14
2.47984e-13
1.45873e-14
2.91746e-13
3.06334e-13
4.23032e-13
8.75239e-14
6.27255e-13
2.91746e-14
4.52207e-13
7.29366e-14
1.89635e-13
1.31286e-13
2.91746e-14
4.3762e-14
8.75239e-14
1.16699e-13
1.89635e-13
1.16699e-13
2.77159e-13
4.23032e-13
3.64683e-13
4.66794e-13
2.91746e-13
1.16699e-13
1.89635e-13
2.91746e-14
1.16699e-13
5.83493e-14
8.75239e-14
1.16699e-13
5.83493e-14
2.91746e-14
2.91746e-14
2.91746e-14
2.47984e-13
5.83493e-14
7.29366e-14
2.1881e-13
1.6046e-13
1.75048e-13
1.02111e-13
8.75239e-14
5.83493e-14
1.02111e-13
5.83493e-14
1.45873e-14
4.3762e-14
1.16699e-13
1.02111e-13
2.91746e-14
4.3762e-14
1.16699e-13
2.91746e-14
2.91746e-13
5.83493e-14
4.23032e-13
1.89635e-13
4.66794e-13
3.06334e-13
4.3762e-14
3.93858e-13
2.1881e-13
8.75239e-14
5.83493e-14
1.89635e-13
1.02111e-13
3.20921e-13
1.45873e-14
2.91746e-14
2.47984e-13
2.33397e-13
2.04222e-13
7.29366e-14
7.19441e-28
2.91746e-14
1.6046e-13
7.29366e-14
2.91746e-14
3.06334e-13
1.89635e-13
3.20921e-13
2.33397e-13
1.45873e-14
4.95969e-13
1.75048e-13
1.31286e-13
2.91746e-14
2.91746e-14
5.24274e-28
1.89635e-13
1.45873e-13
1.6046e-13
1.16699e-13
1.6046e-13
1.45873e-14
1.6046e-13
3.12597e-28
2.04222e-13
1.31286e-13
1.45873e-14
1.31286e-13
5.83493e-14
1.45873e-13
1.89635e-13
1.16699e-13
1.02111e-13
1.16699e-13
2.04222e-13
2.91746e-14
7.29366e-14
1.02111e-13
7.29366e-14
1.45873e-13
2.91746e-14
2.91746e-14
1.6046e-13
1.02111e-13
2.1881e-13
1.02111e-13
1.16699e-13
1.02111e-13
1.31286e-13
1.02111e-13
8.75239e-14
1.75048e-13
1.31286e-13
4.3762e-14
4.3762e-14
1.6046e-13
2.47984e-13
1.75048e-13
3.06334e-13
1.02111e-13
4.08445e-13
1.75048e-13
1.6046e-13
2.04222e-13
7.29366e-14
1.02111e-13
1.31286e-13
1.02111e-13
7.29366e-14
1.75048e-13
1.02111e-13
9.08768e-28
4.3762e-14
1.6046e-13
1.31286e-13
1.02111e-13
1.45873e-14
1.45873e-13
1.45873e-14
5.83493e-14
1.75048e-13
2.62572e-13
1.02111e-13
2.62572e-13
2.1881e-13
8.75239e-14
2.1881e-13
8.75239e-14
1.45873e-13
1.45873e-14
2.91746e-14
2.77159e-13
1.02111e-13
1.16699e-13
8.75239e-14
1.45873e-13
4.3762e-14
1.75048e-13
4.3762e-14
7.29366e-14
1.45873e-14
1.90004e-27
1.45873e-13
1.83647e-27
4.3762e-14
1.6046e-13
1.16699e-13
1.45873e-14
1.75048e-13
5.83493e-14
3.18069e-27
4.3762e-14
1.15805e-27
1.6046e-13
1.6046e-13
1.02111e-13
2.1881e-13
3.35508e-13
3.06334e-13
5.9808e-13
3.06334e-13
7.73128e-13
6.12667e-13
6.56429e-13
7.00191e-13
6.71017e-13
5.83493e-13
2.77159e-13
1.75048e-13
1.31286e-13
2.1881e-13
3.06334e-13
1.6046e-13
2.1881e-13
1.75048e-13
2.91746e-14
4.3762e-14
1.16699e-13
7.29366e-14
1.75048e-13
3.20921e-13
1.6046e-13
7.29366e-14
3.7927e-13
2.47984e-13
3.06334e-13
2.1881e-13
3.20921e-13
2.1881e-13
1.89635e-13
1.75048e-13
4.3762e-14
4.3762e-14
1.45873e-13
2.91746e-13
2.91746e-13
2.91746e-13
1.02111e-13
2.33397e-13
8.75239e-14
2.91746e-13
3.06334e-13
4.08445e-13
2.47984e-13
1.45873e-13
2.62572e-13
2.33397e-13
1.31286e-13
7.29366e-14
1.75048e-13
2.91746e-14
1.16699e-13
8.75239e-14
3.06334e-13
2.1881e-13
7.29366e-14
1.45873e-13
1.31286e-13
8.75239e-14
1.02111e-13
1.6046e-13
3.20921e-13
1.29574e-27
2.47984e-13
5.83493e-14
1.45873e-14
2.91746e-14
5.83493e-14
1.31286e-13
1.16699e-13
4.23032e-13
1.45873e-14
2.33397e-13
5.83493e-14
1.6046e-13
2.91746e-13
3.93858e-13
2.47984e-13
3.20921e-13
3.50096e-13
4.81381e-13
5.68905e-13
3.35508e-13
4.52207e-13
3.7927e-13
4.95969e-13
2.77159e-13
3.50096e-13
1.75048e-13
3.35508e-13
1.89635e-13
4.3762e-13
2.47984e-13
2.33397e-13
1.45873e-13
2.91746e-14
7.25752e-28
1.89635e-13
8.75239e-14
1.16699e-13
1.31286e-13
1.45873e-14
2.91746e-14
1.45873e-13
2.91746e-14
7.29366e-14
4.3762e-14
1.02111e-13
8.75239e-14
1.75048e-13
4.81381e-13
3.35508e-13
2.62572e-13
2.1881e-13
)
;

boundaryField
{
    sides
    {
        type            calculated;
        value           nonuniform List<scalar> 2(2.1881e-13 1.6046e-13);
    }
    empty
    {
        type            empty;
    }
}


// ************************************************************************* //
