/*--------------------------------*- C++ -*----------------------------------*\
  =========                 |
  \\      /  F ield         | OpenFOAM: The Open Source CFD Toolbox
   \\    /   O peration     | Website:  https://openfoam.org
    \\  /    A nd           | Version:  13
     \\/     M anipulation  |
\*---------------------------------------------------------------------------*/
FoamFile
{
    format      ascii;
    class       surfaceScalarField;
    location    "0.001";
    object      phi;
}
// * * * * * * * * * * * * * * * * * * * * * * * * * * * * * * * * * * * * * //

dimensions      [1 0 -1 0 0 0 0];

internalField   nonuniform List<scalar> 
999
(
6.83791e-13
9.20273e-13
7.65512e-13
8.05008e-13
3.42731e-13
2.88616e-13
-3.67637e-13
-5.4226e-13
-4.49574e-15
7.49743e-13
4.83368e-13
3.9821e-13
3.46168e-13
4.22432e-13
3.31817e-13
8.22942e-14
9.94278e-14
-1.77914e-13
-3.87445e-13
-9.41203e-14
-1.85658e-13
-1.37637e-14
2.02218e-14
-2.63611e-15
3.99574e-13
1.05747e-12
1.20585e-12
5.0961e-13
1.22887e-13
-4.29282e-13
-6.62326e-13
-6.30574e-13
-9.78669e-13
-9.57519e-14
-5.74668e-13
-2.68088e-13
-4.05007e-14
5.65356e-13
5.3339e-13
-9.46156e-14
-4.65561e-15
-5.61413e-13
-6.3991e-13
-8.22491e-13
-1.5075e-13
4.46576e-14
-6.90292e-14
-9.75577e-14
2.00082e-14
-1.19051e-13
2.84523e-13
6.91321e-13
-6.42812e-14
4.89409e-15
8.68285e-14
-1.13594e-13
-1.91145e-14
3.76061e-13
5.36774e-13
4.03012e-13
7.96114e-13
8.24429e-13
3.76061e-13
9.97901e-13
4.55053e-13
5.45227e-13
2.48464e-13
6.05869e-14
5.55715e-14
-3.38895e-13
-5.94795e-14
-1.4758e-13
-2.92524e-13
-5.94795e-14
-8.64302e-14
3.05977e-16
3.77425e-13
-1.77754e-13
-6.31725e-13
-3.77896e-13
-1.4758e-13
-5.15096e-13
-2.9116e-13
-5.79683e-13
-5.47717e-13
-2.30879e-13
-4.9819e-13
6.97487e-14
-1.26086e-13
-3.51387e-13
7.93521e-14
1.25014e-13
-1.21071e-13
1.28665e-13
1.34831e-13
-1.83518e-14
-1.21498e-13
-8.69998e-13
-4.03696e-13
-8.35799e-13
-6.16557e-13
-8.64114e-13
-5.59714e-13
-7.34551e-13
-7.51791e-13
-4.06613e-14
5.84616e-13
3.22548e-13
6.25584e-13
6.47839e-13
9.49404e-13
6.82427e-13
8.32173e-13
8.24642e-13
1.26695e-12
1.3029e-12
1.05044e-12
6.30385e-13
5.95691e-13
7.17121e-13
8.65396e-13
4.99458e-13
4.89748e-13
-2.42251e-15
4.93292e-13
8.94633e-13
5.34755e-13
4.39886e-13
5.81888e-13
5.63283e-13
1.29254e-12
1.46307e-12
1.68428e-12
1.63922e-12
1.77789e-12
1.39597e-12
1.52983e-12
1.25178e-12
1.21982e-12
1.00696e-12
1.21774e-12
1.11001e-12
3.44804e-13
1.96423e-13
-6.60467e-13
-8.52316e-13
-1.32921e-12
-1.9164e-12
-2.38341e-12
-2.89096e-12
-1.58784e-12
-1.46423e-12
-7.88452e-13
-2.72128e-13
1.05807e-13
5.2368e-13
-7.87395e-14
-4.3185e-13
3.90024e-13
7.78927e-13
7.38067e-13
1.12217e-12
1.13515e-12
3.65589e-13
-5.63593e-13
-2.11954e-13
1.11051e-13
2.1656e-15
-3.21052e-13
-8.35303e-13
-1.37546e-12
-1.94067e-12
-1.86343e-12
-1.69749e-12
-1.31525e-12
-1.10845e-12
-6.66633e-13
-5.90971e-13
-8.79281e-13
-7.5452e-13
-5.63593e-13
-4.39982e-13
-4.1865e-14
4.21427e-14
2.95865e-13
3.40163e-13
4.14247e-13
4.04536e-13
1.4727e-13
7.18219e-14
4.16975e-13
1.45197e-13
-1.76764e-13
-5.52946e-13
-5.90971e-13
-7.94336e-13
-1.10981e-12
-8.0727e-13
-4.44449e-13
-3.07249e-13
-2.46755e-13
2.73449e-13
5.98633e-13
7.67585e-13
4.26525e-13
3.4911e-13
3.42731e-13
-3.36795e-14
-1.2178e-13
6.89329e-14
-8.28322e-14
7.18219e-14
4.91273e-13
2.31278e-13
3.58767e-13
4.49596e-13
-8.21769e-14
-1.5075e-13
1.61073e-13
-3.94641e-13
-8.84951e-13
-5.69264e-13
-7.91234e-13
-1.05302e-12
-1.54312e-12
-1.08521e-12
-1.02199e-12
-8.27947e-13
-1.05941e-12
-9.74469e-13
-7.90738e-13
-1.00567e-12
-9.8216e-13
-5.03861e-13
-5.74934e-13
-1.09377e-12
-7.62919e-13
-1.0041e-12
-4.56728e-13
-3.11784e-13
4.66516e-16
3.60132e-13
-2.22105e-13
-4.07143e-14
-6.7665e-14
-6.11809e-13
-7.87141e-13
-1.08695e-12
-7.67172e-13
-9.84835e-13
-1.22917e-12
-1.39157e-12
-1.46565e-12
-1.93528e-12
-1.52795e-12
-9.01483e-13
-4.44289e-13
-5.04074e-13
-9.95963e-13
-1.06503e-12
-3.72933e-13
-1.26086e-13
-3.36433e-13
-9.90825e-14
4.84732e-13
5.44209e-14
7.26832e-13
6.81063e-13
1.16434e-12
9.11379e-13
8.89016e-13
4.82004e-13
2.13877e-13
1.01378e-12
6.85155e-13
1.12883e-12
9.11165e-13
1.26466e-12
1.8284e-12
1.72099e-12
1.82704e-12
2.01972e-12
1.87772e-12
1.73708e-12
1.75001e-12
1.92054e-12
1.53371e-12
1.69453e-12
1.80822e-12
1.84919e-12
2.22151e-12
2.78296e-12
3.10814e-12
3.75497e-12
4.38297e-12
4.11119e-12
3.84831e-12
3.00401e-12
3.14464e-12
2.6899e-12
3.10798e-12
3.26365e-12
2.92496e-12
2.7073e-12
2.47962e-12
2.69551e-12
2.58268e-12
2.11017e-12
1.71688e-12
1.62149e-12
1.71636e-12
1.59242e-12
1.98061e-12
2.23736e-12
1.94e-12
1.8118e-12
1.09245e-12
1.54188e-12
9.87248e-13
1.00743e-12
9.39513e-13
8.32594e-13
4.90169e-13
6.53149e-14
-8.76739e-14
4.21028e-14
2.37209e-13
7.31462e-14
1.35607e-13
7.43698e-14
5.77207e-13
1.47745e-13
-2.18106e-13
2.75235e-13
-1.95195e-13
-3.27913e-13
-4.19451e-13
-4.57477e-13
-7.78709e-13
-4.55102e-13
-8.17709e-13
-3.8885e-13
-2.21631e-13
4.44614e-13
4.40007e-13
3.2632e-13
4.05011e-13
4.25495e-13
4.11478e-13
-2.27856e-14
-2.24573e-13
-2.31253e-13
-4.03271e-14
1.23523e-13
-1.83907e-13
1.69593e-13
-1.7441e-13
4.61955e-14
3.03763e-13
2.01913e-13
1.79002e-13
2.25072e-13
6.39506e-14
2.40948e-13
-9.84473e-14
-4.85932e-13
-4.59409e-13
-8.12908e-13
-4.13921e-13
-3.12887e-13
-8.44378e-13
-4.63147e-13
-3.96467e-13
-1.98986e-13
-1.69094e-13
2.97791e-13
-1.17111e-14
-2.95433e-13
4.64966e-14
1.25897e-13
-1.10886e-13
-4.95555e-13
-1.76827e-14
5.74296e-15
6.25864e-14
-2.26151e-13
-3.77775e-13
-9.87483e-14
-2.04089e-13
-1.74624e-13
-3.36895e-13
6.76892e-14
-2.77891e-13
-3.58656e-13
-1.11889e-12
-1.22883e-12
-1.06635e-12
-1.1865e-12
-1.43888e-12
-1.73628e-12
-1.63284e-12
-1.50535e-12
-2.23464e-12
-2.23977e-12
-1.87256e-12
-1.67724e-12
-1.98625e-12
-1.10218e-12
-9.19826e-13
-1.69307e-13
-9.92799e-14
-1.3805e-13
8.3388e-14
2.43358e-13
7.78693e-13
1.06155e-12
1.45057e-12
2.18695e-12
3.68986e-12
8.8184e-12
2.27066e-11
6.19584e-11
1.72743e-10
4.77634e-10
1.30794e-09
3.54215e-09
9.48146e-09
2.50704e-08
6.54594e-08
1.68722e-07
4.29149e-07
1.0768e-06
2.66441e-06
6.49888e-06
1.56199e-05
3.69775e-05
8.61844e-05
0.000197675
0.000445956
0.000989068
0.00215534
0.00461216
0.00968552
0.0199472
0.0402599
0.0795726
0.153885
0.290932
0.5372
0.967804
1.69932
2.90463
4.82726
7.79004
12.1902
18.4707
27.056
38.2424
52.0543
68.206
86.1812
105.367
125.184
145.174
165.013
184.498
203.509
221.979
239.867
257.15
273.809
289.833
305.213
319.944
334.021
347.444
360.214
372.332
383.803
394.632
404.828
414.397
423.35
431.698
439.452
446.625
453.231
459.284
464.801
469.799
474.295
478.308
481.858
484.965
487.652
489.942
491.857
493.423
494.664
495.607
496.278
496.702
496.908
496.919
496.763
496.462
496.039
495.512
494.899
494.207
493.441
492.59
491.633
490.529
489.213
487.598
485.573
483.002
479.739
475.635
470.554
464.394
457.102
448.687
439.231
428.886
417.87
406.443
394.898
383.528
372.606
362.369
352.998
344.615
337.28
330.993
325.703
321.32
317.726
314.783
312.345
310.263
308.389
306.577
304.685
302.567
300.07
297.029
293.252
288.508
282.513
274.898
265.178
252.687
236.468
215.07
186.297
147.52
98.8183
50.2278
18.5102
5.31796
1.34147
0.324479
0.0777244
0.0185742
0.00443376
0.00105725
0.000251829
5.99141e-05
1.42372e-05
3.37889e-06
8.00852e-07
1.89556e-07
4.48032e-08
1.0574e-08
2.49175e-09
5.8627e-10
1.37738e-10
3.2256e-11
7.53831e-12
1.76768e-12
4.21781e-13
1.31429e-13
-9.28235e-15
9.96614e-15
1.40224e-14
-2.23033e-15
-6.96566e-14
-6.25512e-14
-1.18903e-13
-1.06843e-13
-1.13366e-13
-2.7944e-14
-3.7375e-14
4.75611e-14
7.95315e-14
1.04404e-13
5.05269e-14
4.53187e-14
9.79812e-14
5.77615e-14
4.87548e-14
8.22101e-14
1.12533e-13
3.22976e-14
6.5204e-14
-5.80626e-14
-7.88752e-14
-1.14069e-13
-6.53345e-14
-5.49262e-14
1.51289e-14
-8.25917e-15
4.68455e-14
5.34394e-14
6.13953e-17
7.17082e-15
1.16929e-14
3.1449e-14
-6.41154e-14
-5.45971e-14
-7.08797e-14
2.31171e-15
-2.00692e-14
-4.64231e-14
-4.10524e-14
-4.245e-14
-4.2446e-14
3.41694e-14
-1.38378e-14
-1.60801e-14
1.39098e-14
3.19271e-14
8.73769e-14
6.62311e-14
1.66597e-14
5.16792e-14
1.08519e-13
-2.03982e-14
-5.68778e-15
2.95063e-14
5.55191e-14
1.76486e-13
3.36275e-13
3.56917e-13
2.99736e-13
2.8828e-13
1.25695e-13
1.45447e-13
7.78586e-14
1.05951e-13
2.07666e-13
1.73703e-13
1.62783e-13
1.00906e-13
1.32276e-14
4.89508e-15
5.73974e-15
4.11043e-14
4.47403e-14
-1.74778e-14
5.91427e-15
2.10776e-15
-4.52334e-14
-1.24864e-13
-8.18331e-14
-1.07467e-13
-8.02769e-14
-6.11909e-14
-6.81298e-14
-3.13083e-16
1.23445e-13
1.64351e-13
1.16685e-13
1.0992e-13
-1.60801e-14
-4.69681e-14
-1.42881e-13
-1.76569e-13
-1.89719e-13
-1.57994e-13
-9.85062e-14
-7.89167e-14
-7.64544e-14
-1.63865e-13
-1.96999e-13
-2.24421e-13
-2.41212e-13
-9.79572e-14
-1.41272e-13
-8.87346e-14
-1.13025e-13
-3.91591e-14
-6.04754e-14
-1.61597e-13
-1.90247e-13
-1.66797e-13
-1.49117e-13
-1.86728e-13
-1.08503e-13
-1.43368e-13
-5.40561e-14
-8.52771e-14
-2.18159e-14
-4.13974e-14
-1.99066e-14
5.76983e-16
-4.83613e-16
-1.14922e-13
-8.59967e-14
-1.67188e-13
-2.31652e-13
-2.1101e-13
-1.65574e-13
-1.34857e-13
-5.45557e-14
-7.72776e-14
-3.34099e-14
-6.14986e-14
-2.48989e-14
-4.50454e-14
-8.94929e-15
-2.79665e-16
1.39352e-14
-1.32634e-14
7.0267e-14
6.48923e-14
5.08704e-15
4.04516e-14
-7.89668e-15
2.4173e-14
6.17679e-14
-4.50195e-16
-9.46088e-15
-1.48356e-14
-3.56523e-14
-7.89668e-15
5.64004e-15
3.21605e-14
4.24238e-15
-2.52479e-14
-2.02103e-14
9.27602e-15
6.12563e-14
7.73724e-14
6.09273e-14
1.30588e-13
3.09374e-14
1.09779e-13
3.02258e-14
-9.50033e-14
-8.11216e-14
-1.86216e-13
-9.08144e-14
-3.0103e-14
-5.97639e-14
-8.73529e-14
-7.2801e-14
-1.11635e-13
4.42091e-15
-5.26584e-14
-1.31899e-13
-1.09742e-13
-6.93355e-14
-4.41513e-14
2.24383e-14
4.20158e-14
5.06855e-14
1.39352e-14
8.68987e-14
2.48511e-14
2.67524e-14
5.17086e-14
-8.48827e-14
-1.0453e-13
-1.78058e-13
-9.37308e-14
-1.84716e-14
2.22637e-14
-8.73335e-15
7.51421e-14
7.04375e-14
-6.16729e-16
-7.55562e-15
7.89406e-14
5.95296e-14
2.76345e-14
2.74639e-14
8.10124e-14
7.0267e-14
2.58957e-14
-2.69786e-14
-4.98671e-14
-6.75514e-14
2.20972e-14
8.04889e-15
1.87943e-14
-2.45164e-14
4.86137e-14
2.71229e-14
-1.13701e-14
4.07985e-15
-2.69251e-15
1.49878e-14
5.22496e-14
2.20972e-14
3.61375e-14
4.3584e-14
1.67265e-14
8.60461e-14
5.24242e-14
7.77135e-14
-1.08545e-14
-4.1576e-14
-8.99243e-14
-3.95042e-14
-2.87014e-14
3.50809e-14
-1.77934e-14
-4.22461e-14
-1.24456e-13
-1.19423e-13
-1.25854e-13
-4.44884e-14
-5.99344e-14
-8.29894e-14
2.43355e-14
-2.86304e-15
1.01988e-13
3.61375e-14
1.54994e-14
-3.80531e-14
6.49003e-14
5.63972e-14
1.02503e-13
9.28002e-15
-2.15585e-14
6.10858e-14
1.11e-15
-2.69786e-14
5.65678e-14
1.51583e-14
5.63972e-14
-3.96213e-14
-6.30708e-14
-1.26024e-13
-2.66376e-14
-3.32394e-14
-1.13621e-14
9.14128e-14
8.58755e-14
3.80348e-14
1.13478e-14
7.40775e-14
-3.23453e-14
-4.52159e-14
-7.27476e-14
6.14764e-15
-8.23375e-15
-2.40168e-14
-3.56563e-14
-1.97027e-14
-4.43219e-14
1.82867e-14
2.0188e-14
2.06996e-14
2.20932e-14
4.91213e-14
-3.41205e-15
-7.53724e-14
-6.4627e-14
-2.48989e-14
-6.77099e-14
-2.00358e-14
2.03585e-14
1.30825e-14
9.61309e-15
6.12563e-14
7.18272e-14
6.45592e-14
9.50567e-14
1.07533e-13
2.11168e-13
1.93821e-13
2.47374e-13
3.04388e-13
2.97116e-13
3.30567e-13
3.57425e-13
3.11327e-13
3.27106e-13
2.05082e-13
1.44595e-13
-1.46571e-14
-8.43871e-14
-1.31786e-13
-9.72536e-14
-1.22376e-13
-1.07609e-13
-4.60566e-14
-1.04721e-14
-4.09417e-15
-6.37409e-14
1.63894e-14
-1.95322e-14
-6.13321e-14
2.98848e-14
8.34333e-14
1.69039e-13
1.45992e-13
1.10636e-13
1.40796e-13
1.89478e-13
6.9734e-14
1.22937e-13
2.31204e-14
-3.23334e-14
-2.76942e-14
-1.43364e-13
-1.94178e-13
-9.31141e-14
-1.09393e-13
-1.14377e-13
-5.99344e-14
-9.18335e-14
-1.78911e-13
-1.76169e-13
-1.49636e-13
-1.052e-13
-9.72536e-14
-1.31103e-13
-7.99518e-14
-4.49123e-14
-4.49043e-14
-5.96188e-14
4.38957e-14
4.54599e-14
1.18253e-13
1.12878e-13
7.16313e-14
-1.39749e-14
-8.59433e-14
-5.52298e-14
-4.98631e-14
-8.31599e-14
-8.18157e-14
-1.0537e-13
-5.12608e-14
-5.99344e-14
-2.68081e-14
1.91314e-14
-3.39135e-14
-2.37251e-14
-6.14906e-14
-1.60711e-13
-1.0537e-13
-5.45597e-14
-5.19843e-14
8.05689e-15
1.4167e-13
1.85322e-13
1.53098e-13
1.39228e-13
1.64184e-13
2.40784e-13
2.35247e-13
2.15832e-13
1.8394e-13
2.17558e-13
2.31769e-13
1.83599e-13
1.62616e-13
1.14775e-13
1.3766e-13
1.2379e-13
1.66252e-13
1.73699e-13
1.18082e-13
8.44564e-14
7.80211e-14
-1.90086e-14
-2.89133e-14
-7.55843e-14
-6.60166e-14
-5.92977e-14
-2.96329e-14
-1.31223e-14
8.14986e-14
1.04363e-14
2.24049e-14
2.14517e-15
2.46806e-14
2.92026e-14
6.49003e-14
1.78928e-13
2.03551e-13
1.55715e-13
1.28304e-13
)
;

boundaryField
{
    sides
    {
        type            calculated;
        value           nonuniform List<scalar> 2(1.01863e-13 -6.40284e-13);
    }
    empty
    {
        type            empty;
    }
}


// ************************************************************************* //
