/*--------------------------------*- C++ -*----------------------------------*\
  =========                 |
  \\      /  F ield         | OpenFOAM: The Open Source CFD Toolbox
   \\    /   O peration     | Website:  https://openfoam.org
    \\  /    A nd           | Version:  13
     \\/     M anipulation  |
\*---------------------------------------------------------------------------*/
FoamFile
{
    format      ascii;
    class       volVectorField;
    location    "0.001";
    object      U;
}
// * * * * * * * * * * * * * * * * * * * * * * * * * * * * * * * * * * * * * //

dimensions      [0 1 -1 0 0 0 0];

internalField   nonuniform List<vector> 
1000
(
(1.6046e-13 0 0)
(2.62571e-13 0 0)
(1.6046e-13 0 0)
(2.18809e-13 0 0)
(1.16698e-13 0 0)
(1.31286e-13 0 0)
(-5.83492e-14 0 0)
(-8.75238e-14 0 0)
(-7.29365e-14 0 0)
(5.83492e-14 0 0)
(1.75048e-13 0 0)
(1.45873e-13 0 0)
(2.91746e-14 0 0)
(7.29365e-14 0 0)
(8.75238e-14 0 0)
(1.02111e-13 0 0)
(-7.29365e-14 0 0)
(8.75238e-14 0 0)
(-1.31286e-13 0 0)
(-4.37619e-14 0 0)
(-5.83492e-14 0 0)
(-2.91746e-14 0 0)
(2.91746e-14 0 0)
(-4.37619e-14 0 0)
(4.37619e-14 0 0)
(1.6046e-13 0 0)
(2.91746e-13 0 0)
(2.04222e-13 0 0)
(7.29365e-14 0 0)
(-2.91746e-14 0 0)
(-1.75048e-13 0 0)
(-8.75238e-14 0 0)
(-2.04222e-13 0 0)
(-1.16698e-13 0 0)
(-1.45873e-14 0 0)
(-1.31286e-13 0 0)
(-5.83492e-14 0 0)
(7.29365e-14 0 0)
(1.6046e-13 0 0)
(4.37619e-14 0 0)
(-5.83492e-14 0 0)
(1.45873e-14 0 0)
(-1.89635e-13 0 0)
(-2.33397e-13 0 0)
(-1.02111e-13 0 0)
(1.45873e-14 0 0)
(-4.37619e-14 0 0)
(2.91746e-14 0 0)
(-5.83492e-14 0 0)
(1.45873e-14 0 0)
(-8.20415e-29 0 0)
(1.02111e-13 0 0)
(1.16698e-13 0 0)
(-5.83492e-14 0 0)
(1.45873e-14 0 0)
(2.91746e-14 0 0)
(-7.29365e-14 0 0)
(5.83492e-14 0 0)
(1.6046e-13 0 0)
(2.91746e-14 0 0)
(2.18809e-13 0 0)
(2.04222e-13 0 0)
(1.31286e-13 0 0)
(1.31286e-13 0 0)
(2.47984e-13 0 0)
(5.83492e-14 0 0)
(1.6046e-13 0 0)
(-2.91746e-14 0 0)
(8.75238e-14 0 0)
(-1.02111e-13 0 0)
(1.45873e-14 0 0)
(-5.83492e-14 0 0)
(1.45873e-14 0 0)
(-1.16698e-13 0 0)
(5.83492e-14 0 0)
(-5.83492e-14 0 0)
(5.83492e-14 0 0)
(5.83492e-14 0 0)
(-8.75238e-14 0 0)
(-1.45873e-13 0 0)
(-4.37619e-14 0 0)
(-7.29365e-14 0 0)
(-7.29365e-14 0 0)
(-1.45873e-13 0 0)
(-1.31286e-13 0 0)
(-7.29365e-14 0 0)
(-1.16698e-13 0 0)
(1.45873e-14 0 0)
(-4.37619e-14 0 0)
(-8.75238e-14 0 0)
(-2.91746e-14 0 0)
(2.91746e-14 0 0)
(5.80602e-28 0 0)
(-4.37619e-14 0 0)
(1.16698e-13 0 0)
(-5.83492e-14 0 0)
(1.02111e-13 0 0)
(-2.33397e-13 0 0)
(-1.02111e-13 0 0)
(-1.89635e-13 0 0)
(-1.16698e-13 0 0)
(-1.89635e-13 0 0)
(-1.31286e-13 0 0)
(-2.33397e-13 0 0)
(-1.02111e-13 0 0)
(-2.18809e-13 0 0)
(1.89635e-13 0 0)
(1.31286e-13 0 0)
(5.83492e-14 0 0)
(1.31286e-13 0 0)
(2.62571e-13 0 0)
(1.45873e-13 0 0)
(1.89635e-13 0 0)
(1.89635e-13 0 0)
(2.91746e-13 0 0)
(3.06333e-13 0 0)
(3.35508e-13 0 0)
(2.33397e-13 0 0)
(2.91746e-14 0 0)
(2.91746e-13 0 0)
(8.75238e-14 0 0)
(2.62571e-13 0 0)
(8.75238e-14 0 0)
(8.75238e-14 0 0)
(-7.29365e-14 0 0)
(2.62571e-13 0 0)
(1.45873e-13 0 0)
(1.31286e-13 0 0)
(8.75238e-14 0 0)
(1.75048e-13 0 0)
(1.89635e-13 0 0)
(3.50095e-13 0 0)
(4.66793e-13 0 0)
(4.37619e-13 0 0)
(3.93857e-13 0 0)
(4.81381e-13 0 0)
(3.06333e-13 0 0)
(3.93857e-13 0 0)
(2.91746e-13 0 0)
(3.06333e-13 0 0)
(2.77159e-13 0 0)
(3.35508e-13 0 0)
(1.45873e-13 0 0)
(8.75238e-14 0 0)
(-1.45873e-14 0 0)
(-2.62571e-13 0 0)
(-2.77159e-13 0 0)
(-4.08444e-13 0 0)
(-5.25143e-13 0 0)
(-7.58539e-13 0 0)
(-4.52206e-13 0 0)
(-4.66793e-13 0 0)
(-2.91746e-13 0 0)
(-1.16698e-13 0 0)
(1.45873e-14 0 0)
(5.83492e-14 0 0)
(8.75238e-14 0 0)
(-5.83492e-14 0 0)
(-1.02111e-13 0 0)
(1.89635e-13 0 0)
(1.75048e-13 0 0)
(2.47984e-13 0 0)
(3.06333e-13 0 0)
(1.31286e-13 0 0)
(1.45873e-14 0 0)
(-1.45873e-13 0 0)
(2.91746e-14 0 0)
(-1.45873e-14 0 0)
(1.45873e-14 0 0)
(-1.31286e-13 0 0)
(-2.62571e-13 0 0)
(-5.10555e-13 0 0)
(-4.52206e-13 0 0)
(-4.37619e-13 0 0)
(-4.52206e-13 0 0)
(-1.89635e-13 0 0)
(-2.77159e-13 0 0)
(-1.45873e-13 0 0)
(-2.33397e-13 0 0)
(-1.89635e-13 0 0)
(-1.6046e-13 0 0)
(-1.45873e-13 0 0)
(-2.91746e-14 0 0)
(-1.45873e-14 0 0)
(7.29365e-14 0 0)
(4.37619e-14 0 0)
(1.16698e-13 0 0)
(1.02111e-13 0 0)
(1.02111e-13 0 0)
(-1.45873e-14 0 0)
(8.75238e-14 0 0)
(4.37619e-14 0 0)
(2.91746e-14 0 0)
(-1.02111e-13 0 0)
(-1.6046e-13 0 0)
(-1.31286e-13 0 0)
(-2.18809e-13 0 0)
(-3.06333e-13 0 0)
(-7.29365e-14 0 0)
(-1.31286e-13 0 0)
(-1.45873e-14 0 0)
(-2.91746e-14 0 0)
(1.02111e-13 0 0)
(2.04222e-13 0 0)
(1.45873e-13 0 0)
(8.75238e-14 0 0)
(8.75238e-14 0 0)
(-1.45873e-14 0 0)
(4.37619e-14 0 0)
(-1.16698e-13 0 0)
(5.83492e-14 0 0)
(-1.45873e-14 0 0)
(1.45873e-14 0 0)
(1.6046e-13 0 0)
(2.91746e-14 0 0)
(1.31286e-13 0 0)
(2.92106e-28 0 0)
(-2.91746e-14 0 0)
(5.83492e-14 0 0)
(-7.29365e-14 0 0)
(-8.75238e-14 0 0)
(-2.18809e-13 0 0)
(-1.16698e-13 0 0)
(-2.91746e-13 0 0)
(-2.91746e-13 0 0)
(-3.93857e-13 0 0)
(-2.77159e-13 0 0)
(-1.89635e-13 0 0)
(-2.62571e-13 0 0)
(-1.45873e-13 0 0)
(-3.50095e-13 0 0)
(-1.45873e-13 0 0)
(-3.06333e-13 0 0)
(-1.75048e-13 0 0)
(-2.91746e-14 0 0)
(-2.91746e-13 0 0)
(-1.6046e-13 0 0)
(-2.33397e-13 0 0)
(-1.02111e-13 0 0)
(-1.16698e-13 0 0)
(-1.45873e-14 0 0)
(4.37619e-14 0 0)
(7.29365e-14 0 0)
(-8.75238e-14 0 0)
(-1.45873e-14 0 0)
(-2.91746e-14 0 0)
(-2.33397e-13 0 0)
(-1.89635e-13 0 0)
(-2.77159e-13 0 0)
(-1.6046e-13 0 0)
(-2.77159e-13 0 0)
(-3.50095e-13 0 0)
(-3.93857e-13 0 0)
(-4.37619e-13 0 0)
(-3.7927e-13 0 0)
(-3.93857e-13 0 0)
(-7.29365e-14 0 0)
(-1.6046e-13 0 0)
(-1.45873e-13 0 0)
(-2.91746e-13 0 0)
(-7.29365e-14 0 0)
(-1.02111e-13 0 0)
(-2.33503e-28 0 0)
(-1.16698e-13 0 0)
(8.75238e-14 0 0)
(7.29365e-14 0 0)
(2.91746e-14 0 0)
(2.18809e-13 0 0)
(2.18809e-13 0 0)
(3.35508e-13 0 0)
(2.04222e-13 0 0)
(1.45873e-13 0 0)
(5.83492e-14 0 0)
(1.31286e-13 0 0)
(2.77159e-13 0 0)
(1.16698e-13 0 0)
(3.20921e-13 0 0)
(2.18809e-13 0 0)
(3.93857e-13 0 0)
(4.81381e-13 0 0)
(4.95968e-13 0 0)
(4.08444e-13 0 0)
(4.95968e-13 0 0)
(4.37619e-13 0 0)
(4.08444e-13 0 0)
(4.95968e-13 0 0)
(5.25143e-13 0 0)
(2.47984e-13 0 0)
(5.3973e-13 0 0)
(4.08444e-13 0 0)
(5.98079e-13 0 0)
(4.08444e-13 0 0)
(8.75238e-13 0 0)
(8.46063e-13 0 0)
(9.33587e-13 0 0)
(1.05029e-12 0 0)
(1.0357e-12 0 0)
(9.04412e-13 0 0)
(7.73127e-13 0 0)
(7.58539e-13 0 0)
(6.56428e-13 0 0)
(9.04412e-13 0 0)
(6.56428e-13 0 0)
(8.46063e-13 0 0)
(5.10555e-13 0 0)
(7.43952e-13 0 0)
(6.56428e-13 0 0)
(4.95968e-13 0 0)
(6.12666e-13 0 0)
(4.23032e-13 0 0)
(3.7927e-13 0 0)
(5.25143e-13 0 0)
(3.20921e-13 0 0)
(6.27254e-13 0 0)
(3.50095e-13 0 0)
(6.27254e-13 0 0)
(2.47984e-13 0 0)
(4.81381e-13 0 0)
(1.16698e-13 0 0)
(4.08444e-13 0 0)
(1.45873e-13 0 0)
(2.33397e-13 0 0)
(1.75048e-13 0 0)
(8.75238e-14 0 0)
(-7.29365e-14 0 0)
(4.37619e-14 0 0)
(4.37619e-14 0 0)
(2.91746e-14 0 0)
(9.46633e-29 0 0)
(4.37619e-14 0 0)
(1.45873e-14 0 0)
(1.45873e-13 0 0)
(-5.83492e-14 0 0)
(1.45873e-14 0 0)
(7.29365e-14 0 0)
(-8.75238e-14 0 0)
(-1.02111e-13 0 0)
(-1.6046e-13 0 0)
(-5.83492e-14 0 0)
(-2.18809e-13 0 0)
(-2.91746e-14 0 0)
(-3.20921e-13 0 0)
(2.91746e-14 0 0)
(-5.83492e-14 0 0)
(1.89635e-13 0 0)
(2.91746e-14 0 0)
(1.75048e-13 0 0)
(-2.91746e-14 0 0)
(2.47984e-13 0 0)
(-5.83492e-14 0 0)
(5.83492e-14 0 0)
(-1.45873e-13 0 0)
(-1.45873e-14 0 0)
(4.37619e-14 0 0)
(-4.37619e-14 0 0)
(-5.80602e-28 0 0)
(2.91746e-14 0 0)
(-8.75238e-14 0 0)
(8.75238e-14 0 0)
(1.16698e-13 0 0)
(-8.75238e-14 0 0)
(2.62571e-13 0 0)
(-1.89635e-13 0 0)
(2.04222e-13 0 0)
(-5.83492e-14 0 0)
(-5.23804e-28 0 0)
(-1.16698e-13 0 0)
(-2.91746e-13 0 0)
(-1.16698e-13 0 0)
(-2.91746e-14 0 0)
(-1.31286e-13 0 0)
(-2.18809e-13 0 0)
(-1.31286e-13 0 0)
(2.91746e-14 0 0)
(-1.31286e-13 0 0)
(7.29365e-14 0 0)
(2.91746e-14 0 0)
(-1.45873e-14 0 0)
(-1.02111e-13 0 0)
(4.37619e-14 0 0)
(8.75238e-14 0 0)
(-1.31286e-13 0 0)
(-1.45873e-14 0 0)
(-5.83492e-14 0 0)
(7.29365e-14 0 0)
(-2.91746e-14 0 0)
(-4.37619e-14 0 0)
(-1.16698e-13 0 0)
(2.91746e-14 0 0)
(-5.83492e-14 0 0)
(-1.6046e-13 0 0)
(5.83492e-14 0 0)
(-2.91746e-14 0 0)
(-1.16698e-13 0 0)
(-1.45873e-13 0 0)
(-3.06333e-13 0 0)
(-2.33397e-13 0 0)
(-3.20921e-13 0 0)
(-2.04222e-13 0 0)
(-5.3973e-13 0 0)
(-3.35508e-13 0 0)
(-5.68905e-13 0 0)
(-3.64682e-13 0 0)
(-6.41841e-13 0 0)
(-4.52206e-13 0 0)
(-4.81381e-13 0 0)
(-4.95968e-13 0 0)
(-3.64682e-13 0 0)
(-2.77159e-13 0 0)
(-1.02111e-13 0 0)
(-4.37619e-14 0 0)
(2.91746e-14 0 0)
(-7.29365e-14 0 0)
(7.29365e-14 0 0)
(8.75238e-14 0 0)
(2.18809e-13 0 0)
(3.06333e-13 0 0)
(4.81381e-13 0 0)
(7.0019e-13 0 0)
(1.53167e-12 0 0)
(3.69059e-12 0 0)
(1.00215e-11 0 0)
(2.75262e-11 0 0)
(7.65979e-11 0 0)
(2.10232e-10 0 0)
(5.72318e-10 0 0)
(1.53862e-09 0 0)
(4.08898e-09 0 0)
(1.07303e-08 0 0)
(2.78026e-08 0 0)
(7.10979e-08 0 0)
(1.79386e-07 0 0)
(4.464e-07 0 0)
(1.09523e-06 0 0)
(2.6483e-06 0 0)
(6.30857e-06 0 0)
(1.47983e-05 0 0)
(3.41675e-05 0 0)
(7.76122e-05 0 0)
(0.000173357 0 0)
(0.000380553 0 0)
(0.000820548 0 0)
(0.00173678 0 0)
(0.00360628 0 0)
(0.00734085 0 0)
(0.0146381 0 0)
(0.0285714 0 0)
(0.0545402 0 0)
(0.101729 0 0)
(0.185224 0 0)
(0.328863 0 0)
(0.568746 0 0)
(0.956964 0 0)
(1.56461 0 0)
(2.4824 0 0)
(3.8166 0 0)
(5.67715 0 0)
(8.15524 0 0)
(11.2953 0 0)
(15.0794 0 0)
(19.4345 0 0)
(24.2548 0 0)
(29.4286 0 0)
(34.8594 0 0)
(40.4748 0 0)
(46.2259 0 0)
(52.0822 0 0)
(58.0247 0 0)
(64.0414 0 0)
(70.1235 0 0)
(76.2638 0 0)
(82.4559 0 0)
(88.6936 0 0)
(94.9709 0 0)
(101.282 0 0)
(107.621 0 0)
(113.982 0 0)
(120.359 0 0)
(126.747 0 0)
(133.139 0 0)
(139.528 0 0)
(145.909 0 0)
(152.274 0 0)
(158.617 0 0)
(164.929 0 0)
(171.203 0 0)
(177.431 0 0)
(183.604 0 0)
(189.712 0 0)
(195.745 0 0)
(201.694 0 0)
(207.547 0 0)
(213.292 0 0)
(218.918 0 0)
(224.413 0 0)
(229.763 0 0)
(234.956 0 0)
(239.979 0 0)
(244.818 0 0)
(249.462 0 0)
(253.897 0 0)
(258.112 0 0)
(262.098 0 0)
(265.845 0 0)
(269.346 0 0)
(272.595 0 0)
(275.589 0 0)
(278.327 0 0)
(280.813 0 0)
(283.05 0 0)
(285.047 0 0)
(286.816 0 0)
(288.372 0 0)
(289.733 0 0)
(290.922 0 0)
(291.962 0 0)
(292.876 0 0)
(293.69 0 0)
(294.424 0 0)
(295.097 0 0)
(295.722 0 0)
(296.307 0 0)
(296.852 0 0)
(297.354 0 0)
(297.802 0 0)
(298.182 0 0)
(298.48 0 0)
(298.681 0 0)
(298.771 0 0)
(298.743 0 0)
(298.595 0 0)
(298.331 0 0)
(297.964 0 0)
(297.508 0 0)
(296.983 0 0)
(296.405 0 0)
(295.789 0 0)
(295.144 0 0)
(294.468 0 0)
(293.755 0 0)
(292.988 0 0)
(292.139 0 0)
(291.177 0 0)
(290.057 0 0)
(288.728 0 0)
(287.126 0 0)
(285.175 0 0)
(282.782 0 0)
(279.832 0 0)
(276.181 0 0)
(271.644 0 0)
(265.985 0 0)
(258.888 0 0)
(249.929 0 0)
(238.51 0 0)
(223.763 0 0)
(204.347 0 0)
(178.193 0 0)
(142.616 0 0)
(97.0097 0 0)
(50.2985 0 0)
(18.8597 0 0)
(5.53226 0 0)
(1.42813 0 0)
(0.349431 0 0)
(0.0840058 0 0)
(0.0200908 0 0)
(0.00479537 0 0)
(0.0011431 0 0)
(0.000272167 0 0)
(6.47243e-05 0 0)
(1.53732e-05 0 0)
(3.64673e-06 0 0)
(8.63902e-07 0 0)
(2.04374e-07 0 0)
(4.82794e-08 0 0)
(1.13882e-08 0 0)
(2.68201e-09 0 0)
(6.30785e-10 0 0)
(1.48018e-10 0 0)
(3.46303e-11 0 0)
(8.11055e-12 0 0)
(1.89635e-12 0 0)
(5.10556e-13 0 0)
(4.3762e-14 0 0)
(1.45873e-14 0 0)
(1.45873e-14 0 0)
(7.29366e-14 0 0)
(-1.6046e-13 0 0)
(-1.45873e-14 0 0)
(-3.06334e-13 0 0)
(-1.45873e-13 0 0)
(-2.47984e-13 0 0)
(-1.31286e-13 0 0)
(-4.3762e-14 0 0)
(-1.16699e-13 0 0)
(2.47984e-13 0 0)
(1.89635e-13 0 0)
(1.31286e-13 0 0)
(1.16699e-13 0 0)
(1.31286e-13 0 0)
(1.31286e-13 0 0)
(1.31286e-13 0 0)
(1.16699e-13 0 0)
(2.47984e-13 0 0)
(1.89635e-13 0 0)
(2.91746e-14 0 0)
(8.75239e-14 0 0)
(-2.47984e-13 0 0)
(-1.31286e-13 0 0)
(-2.1881e-13 0 0)
(-7.29366e-14 0 0)
(-8.75239e-14 0 0)
(1.16699e-13 0 0)
(-1.31286e-13 0 0)
(2.91746e-13 0 0)
(-5.83493e-14 0 0)
(4.3762e-14 0 0)
(-4.3762e-14 0 0)
(1.45873e-13 0 0)
(-7.29366e-14 0 0)
(-8.75239e-14 0 0)
(-2.33397e-13 0 0)
(7.29366e-14 0 0)
(-5.83493e-14 0 0)
(-1.45873e-14 0 0)
(-1.16699e-13 0 0)
(-8.04638e-28 0 0)
(-1.6046e-13 0 0)
(1.45873e-14 0 0)
(1.45873e-14 0 0)
(-2.91746e-14 0 0)
(1.45873e-14 0 0)
(4.3762e-14 0 0)
(1.02111e-13 0 0)
(1.75048e-13 0 0)
(4.3762e-14 0 0)
(-5.90068e-28 0 0)
(3.20921e-13 0 0)
(-5.83493e-14 0 0)
(4.3762e-14 0 0)
(-1.31286e-13 0 0)
(1.75048e-13 0 0)
(1.31286e-13 0 0)
(4.3762e-13 0 0)
(8.1689e-13 0 0)
(6.12667e-13 0 0)
(5.39731e-13 0 0)
(4.66794e-13 0 0)
(1.31286e-13 0 0)
(3.35508e-13 0 0)
(1.16699e-13 0 0)
(3.20921e-13 0 0)
(3.7927e-13 0 0)
(3.20921e-13 0 0)
(2.77159e-13 0 0)
(1.16699e-13 0 0)
(4.3762e-14 0 0)
(-5.83493e-14 0 0)
(5.83493e-14 0 0)
(8.75239e-14 0 0)
(8.75239e-14 0 0)
(-1.16699e-13 0 0)
(8.75239e-14 0 0)
(-5.83493e-14 0 0)
(-8.75239e-14 0 0)
(-3.7927e-13 0 0)
(-4.79627e-28 0 0)
(-2.77159e-13 0 0)
(-8.75239e-14 0 0)
(-2.1881e-13 0 0)
(-8.75239e-14 0 0)
(1.16699e-13 0 0)
(3.35508e-13 0 0)
(2.91746e-13 0 0)
(1.89635e-13 0 0)
(1.6046e-13 0 0)
(-1.75048e-13 0 0)
(-4.3762e-14 0 0)
(-4.08445e-13 0 0)
(-3.06334e-13 0 0)
(-4.23032e-13 0 0)
(-2.33397e-13 0 0)
(-2.04222e-13 0 0)
(-1.75048e-13 0 0)
(-1.31286e-13 0 0)
(-3.93858e-13 0 0)
(-4.95969e-13 0 0)
(-3.93858e-13 0 0)
(-3.93858e-13 0 0)
(-1.16699e-13 0 0)
(-3.35508e-13 0 0)
(-7.29366e-14 0 0)
(-2.47984e-13 0 0)
(1.45873e-14 0 0)
(-2.91746e-13 0 0)
(-3.06334e-13 0 0)
(-4.23032e-13 0 0)
(-8.75239e-14 0 0)
(-6.27255e-13 0 0)
(-2.91746e-14 0 0)
(-4.52207e-13 0 0)
(-7.29366e-14 0 0)
(-1.89635e-13 0 0)
(-1.31286e-13 0 0)
(-2.91746e-14 0 0)
(-4.3762e-14 0 0)
(-8.75239e-14 0 0)
(1.16699e-13 0 0)
(-1.89635e-13 0 0)
(-1.16699e-13 0 0)
(-2.77159e-13 0 0)
(-4.23032e-13 0 0)
(-3.64683e-13 0 0)
(-4.66794e-13 0 0)
(-2.91746e-13 0 0)
(-1.16699e-13 0 0)
(-1.89635e-13 0 0)
(-2.91746e-14 0 0)
(-1.16699e-13 0 0)
(-5.83493e-14 0 0)
(-8.75239e-14 0 0)
(-1.16699e-13 0 0)
(5.83493e-14 0 0)
(-2.91746e-14 0 0)
(2.91746e-14 0 0)
(-2.91746e-14 0 0)
(2.47984e-13 0 0)
(5.83493e-14 0 0)
(-7.29366e-14 0 0)
(2.1881e-13 0 0)
(-1.6046e-13 0 0)
(1.75048e-13 0 0)
(1.02111e-13 0 0)
(-8.75239e-14 0 0)
(5.83493e-14 0 0)
(-1.02111e-13 0 0)
(-5.83493e-14 0 0)
(1.45873e-14 0 0)
(4.3762e-14 0 0)
(1.16699e-13 0 0)
(-1.02111e-13 0 0)
(-2.91746e-14 0 0)
(-4.3762e-14 0 0)
(1.16699e-13 0 0)
(2.91746e-14 0 0)
(2.91746e-13 0 0)
(-5.83493e-14 0 0)
(4.23032e-13 0 0)
(-1.89635e-13 0 0)
(4.66794e-13 0 0)
(-3.06334e-13 0 0)
(-4.3762e-14 0 0)
(-3.93858e-13 0 0)
(-2.1881e-13 0 0)
(-8.75239e-14 0 0)
(-5.83493e-14 0 0)
(-1.89635e-13 0 0)
(-1.02111e-13 0 0)
(-3.20921e-13 0 0)
(-1.45873e-14 0 0)
(2.91746e-14 0 0)
(-2.47984e-13 0 0)
(-2.33397e-13 0 0)
(-2.04222e-13 0 0)
(-7.29366e-14 0 0)
(7.19441e-28 0 0)
(2.91746e-14 0 0)
(1.6046e-13 0 0)
(7.29366e-14 0 0)
(-2.91746e-14 0 0)
(3.06334e-13 0 0)
(-1.89635e-13 0 0)
(3.20921e-13 0 0)
(-2.33397e-13 0 0)
(1.45873e-14 0 0)
(-4.95969e-13 0 0)
(-1.75048e-13 0 0)
(-1.31286e-13 0 0)
(2.91746e-14 0 0)
(2.91746e-14 0 0)
(5.24274e-28 0 0)
(1.89635e-13 0 0)
(1.45873e-13 0 0)
(-1.6046e-13 0 0)
(1.16699e-13 0 0)
(1.6046e-13 0 0)
(1.45873e-14 0 0)
(1.6046e-13 0 0)
(3.12597e-28 0 0)
(2.04222e-13 0 0)
(1.31286e-13 0 0)
(-1.45873e-14 0 0)
(-1.31286e-13 0 0)
(-5.83493e-14 0 0)
(-1.45873e-13 0 0)
(1.89635e-13 0 0)
(-1.16699e-13 0 0)
(1.02111e-13 0 0)
(-1.16699e-13 0 0)
(2.04222e-13 0 0)
(-2.91746e-14 0 0)
(-7.29366e-14 0 0)
(1.02111e-13 0 0)
(-7.29366e-14 0 0)
(1.45873e-13 0 0)
(2.91746e-14 0 0)
(2.91746e-14 0 0)
(1.6046e-13 0 0)
(-1.02111e-13 0 0)
(2.1881e-13 0 0)
(1.02111e-13 0 0)
(1.16699e-13 0 0)
(1.02111e-13 0 0)
(-1.31286e-13 0 0)
(-1.02111e-13 0 0)
(-8.75239e-14 0 0)
(-1.75048e-13 0 0)
(1.31286e-13 0 0)
(-4.3762e-14 0 0)
(-4.3762e-14 0 0)
(-1.6046e-13 0 0)
(-2.47984e-13 0 0)
(-1.75048e-13 0 0)
(-3.06334e-13 0 0)
(1.02111e-13 0 0)
(-4.08445e-13 0 0)
(1.75048e-13 0 0)
(-1.6046e-13 0 0)
(2.04222e-13 0 0)
(7.29366e-14 0 0)
(1.02111e-13 0 0)
(-1.31286e-13 0 0)
(1.02111e-13 0 0)
(7.29366e-14 0 0)
(1.75048e-13 0 0)
(1.02111e-13 0 0)
(-9.08768e-28 0 0)
(-4.3762e-14 0 0)
(1.6046e-13 0 0)
(-1.31286e-13 0 0)
(1.02111e-13 0 0)
(-1.45873e-14 0 0)
(1.45873e-13 0 0)
(-1.45873e-14 0 0)
(-5.83493e-14 0 0)
(-1.75048e-13 0 0)
(-2.62572e-13 0 0)
(1.02111e-13 0 0)
(-2.62572e-13 0 0)
(2.1881e-13 0 0)
(8.75239e-14 0 0)
(2.1881e-13 0 0)
(-8.75239e-14 0 0)
(1.45873e-13 0 0)
(1.45873e-14 0 0)
(-2.91746e-14 0 0)
(-2.77159e-13 0 0)
(1.02111e-13 0 0)
(-1.16699e-13 0 0)
(8.75239e-14 0 0)
(-1.45873e-13 0 0)
(4.3762e-14 0 0)
(-1.75048e-13 0 0)
(4.3762e-14 0 0)
(7.29366e-14 0 0)
(1.45873e-14 0 0)
(1.90004e-27 0 0)
(1.45873e-13 0 0)
(1.83647e-27 0 0)
(-4.3762e-14 0 0)
(-1.6046e-13 0 0)
(-1.16699e-13 0 0)
(1.45873e-14 0 0)
(-1.75048e-13 0 0)
(5.83493e-14 0 0)
(3.18069e-27 0 0)
(4.3762e-14 0 0)
(1.15805e-27 0 0)
(1.6046e-13 0 0)
(1.6046e-13 0 0)
(1.02111e-13 0 0)
(2.1881e-13 0 0)
(3.35508e-13 0 0)
(3.06334e-13 0 0)
(5.9808e-13 0 0)
(3.06334e-13 0 0)
(7.73128e-13 0 0)
(6.12667e-13 0 0)
(6.56429e-13 0 0)
(7.00191e-13 0 0)
(6.71017e-13 0 0)
(5.83493e-13 0 0)
(2.77159e-13 0 0)
(1.75048e-13 0 0)
(-1.31286e-13 0 0)
(-2.1881e-13 0 0)
(-3.06334e-13 0 0)
(-1.6046e-13 0 0)
(-2.1881e-13 0 0)
(-1.75048e-13 0 0)
(-2.91746e-14 0 0)
(4.3762e-14 0 0)
(-1.16699e-13 0 0)
(-7.29366e-14 0 0)
(1.75048e-13 0 0)
(-3.20921e-13 0 0)
(1.6046e-13 0 0)
(-7.29366e-14 0 0)
(3.7927e-13 0 0)
(2.47984e-13 0 0)
(3.06334e-13 0 0)
(2.1881e-13 0 0)
(3.20921e-13 0 0)
(2.1881e-13 0 0)
(1.89635e-13 0 0)
(1.75048e-13 0 0)
(-4.3762e-14 0 0)
(-4.3762e-14 0 0)
(-1.45873e-13 0 0)
(-2.91746e-13 0 0)
(-2.91746e-13 0 0)
(-2.91746e-13 0 0)
(-1.02111e-13 0 0)
(-2.33397e-13 0 0)
(-8.75239e-14 0 0)
(-2.91746e-13 0 0)
(-3.06334e-13 0 0)
(-4.08445e-13 0 0)
(-2.47984e-13 0 0)
(-1.45873e-13 0 0)
(-2.62572e-13 0 0)
(-2.33397e-13 0 0)
(-1.31286e-13 0 0)
(-7.29366e-14 0 0)
(-1.75048e-13 0 0)
(2.91746e-14 0 0)
(1.16699e-13 0 0)
(8.75239e-14 0 0)
(3.06334e-13 0 0)
(2.1881e-13 0 0)
(7.29366e-14 0 0)
(-1.45873e-13 0 0)
(-1.31286e-13 0 0)
(-8.75239e-14 0 0)
(-1.02111e-13 0 0)
(-1.6046e-13 0 0)
(-3.20921e-13 0 0)
(1.29574e-27 0 0)
(-2.47984e-13 0 0)
(-5.83493e-14 0 0)
(-1.45873e-14 0 0)
(2.91746e-14 0 0)
(-5.83493e-14 0 0)
(-1.31286e-13 0 0)
(-1.16699e-13 0 0)
(-4.23032e-13 0 0)
(-1.45873e-14 0 0)
(-2.33397e-13 0 0)
(-5.83493e-14 0 0)
(1.6046e-13 0 0)
(2.91746e-13 0 0)
(3.93858e-13 0 0)
(2.47984e-13 0 0)
(3.20921e-13 0 0)
(3.50096e-13 0 0)
(4.81381e-13 0 0)
(5.68905e-13 0 0)
(3.35508e-13 0 0)
(4.52207e-13 0 0)
(3.7927e-13 0 0)
(4.95969e-13 0 0)
(2.77159e-13 0 0)
(3.50096e-13 0 0)
(1.75048e-13 0 0)
(3.35508e-13 0 0)
(1.89635e-13 0 0)
(4.3762e-13 0 0)
(2.47984e-13 0 0)
(2.33397e-13 0 0)
(1.45873e-13 0 0)
(2.91746e-14 0 0)
(-7.25752e-28 0 0)
(-1.89635e-13 0 0)
(-8.75239e-14 0 0)
(-1.16699e-13 0 0)
(-1.31286e-13 0 0)
(-1.45873e-14 0 0)
(2.91746e-14 0 0)
(1.45873e-13 0 0)
(-2.91746e-14 0 0)
(7.29366e-14 0 0)
(-4.3762e-14 0 0)
(1.02111e-13 0 0)
(8.75239e-14 0 0)
(1.75048e-13 0 0)
(4.81381e-13 0 0)
(3.35508e-13 0 0)
(2.62572e-13 0 0)
(2.1881e-13 0 0)
)
;

boundaryField
{
    sides
    {
        type            zeroGradient;
    }
    empty
    {
        type            empty;
    }
}


// ************************************************************************* //
