/*--------------------------------*- C++ -*----------------------------------*\
  =========                 |
  \\      /  F ield         | OpenFOAM: The Open Source CFD Toolbox
   \\    /   O peration     | Website:  https://openfoam.org
    \\  /    A nd           | Version:  13
     \\/     M anipulation  |
\*---------------------------------------------------------------------------*/
FoamFile
{
    format      ascii;
    class       volSymmTensorField;
    location    "48.203462";
    object      UPrime2Mean;
}
// * * * * * * * * * * * * * * * * * * * * * * * * * * * * * * * * * * * * * //

dimensions      [0 2 -2 0 0 0 0];

internalField   nonuniform List<symmTensor> 
17140
(
(6.3391159e-12 -4.0399579e-10 -7.2114225e-28 2.7124858e-08 9.5097905e-27 4.4446111e-41)
(3.8814386e-10 -6.2891519e-09 -3.039431e-28 2.5954693e-07 1.9710626e-27 3.9488406e-43)
(3.2658624e-09 -2.611351e-08 4.8244873e-26 7.9123406e-07 -2.0021278e-25 1.7214759e-39)
(1.5056695e-08 -7.3219946e-08 -1.0108952e-25 1.7106678e-06 3.0257733e-25 2.0804995e-39)
(4.9947832e-08 -1.6690547e-07 2.0011196e-26 3.1255395e-06 -4.6112018e-26 2.8433387e-41)
(1.3633547e-07 -3.3536962e-07 -1.0315857e-25 5.1657377e-06 1.9075939e-25 3.0455894e-40)
(3.270582e-07 -6.1860799e-07 -2.6118608e-25 7.9864929e-06 3.9666435e-25 8.6324102e-40)
(7.1546016e-07 -1.0719853e-06 1.8548399e-25 1.1771479e-05 -2.3472974e-25 2.0575073e-40)
(1.460228e-06 -1.7705756e-06 8.6279671e-25 1.6735608e-05 -9.1914801e-25 2.204361e-39)
(2.8228764e-06 -2.8141084e-06 2.950281e-24 2.312715e-05 -2.6658169e-24 1.3261727e-38)
(5.2230824e-06 -4.3322808e-06 -6.0061923e-24 3.1228689e-05 4.6300432e-24 2.9161356e-38)
(9.3185564e-06 -6.4899693e-06 7.2608213e-24 4.1356241e-05 -4.7970595e-24 2.3160545e-38)
(1.6117648e-05 -9.491586e-06 1.4934884e-24 5.385572e-05 -8.4884028e-25 5.4260202e-40)
(2.7134004e-05 -1.3583419e-05 -1.1228893e-23 6.9095765e-05 5.5087008e-24 1.7356321e-38)
(4.4592854e-05 -1.905242e-05 1.6474105e-24 8.7455862e-05 -6.9919777e-25 2.139558e-40)
(7.1697044e-05 -2.6219549e-05 -1.7111582e-23 0.00010930866 6.2974105e-24 1.342474e-38)
(0.00011295671 -3.5425722e-05 8.2677514e-25 0.00013499557 -2.6415357e-25 1.8593253e-41)
(0.00017457875 -4.700885e-05 -2.449046e-25 0.00016479498 6.81068e-26 9.3092639e-43)
(0.00026489998 -6.1271668e-05 -2.1961227e-23 0.00019888332 5.3088912e-24 4.682527e-39)
(0.00039483365 -7.8442379e-05 3.6324271e-23 0.0002372897 -7.6444949e-24 7.8510701e-39)
(0.00057828458 -9.8633427e-05 -2.2173001e-23 0.00027984668 4.0630201e-24 1.813009e-39)
(0.00083248304 -0.00012180738 5.2863226e-24 0.00032614105 -8.441128e-25 6.5622925e-41)
(0.0011781975 -0.00014776092 4.8572057e-23 0.00037547123 -6.7405831e-24 3.5322229e-39)
(0.0016398478 -0.00017613817 -5.9630637e-23 0.00042682161 7.1986709e-24 3.4742286e-39)
(0.0022457034 -0.00020648179 -1.1553388e-22 0.00047886936 1.210965e-23 8.6975997e-39)
(0.003027997 -0.00023829914 1.1164564e-22 0.00053004485 -1.0152617e-23 5.5443933e-39)
(0.0040228537 -0.00027107636 6.5419262e-22 0.00057866119 -5.1543951e-23 1.3202301e-37)
(0.0052726116 -0.00030441215 9.1290643e-23 0.00062308923 -6.221778e-24 1.8101494e-39)
(0.0068270087 -0.00033805967 -9.336031e-22 0.00066193286 5.4980841e-23 1.3804813e-37)
(0.0087441224 -0.00037149821 -2.539477e-22 0.00069416673 1.2908019e-23 7.4864245e-39)
(0.011092984 -0.00040429457 -1.0439419e-21 0.00071918867 4.5711351e-23 9.4843093e-38)
(0.013953997 -0.00043615315 1.5731599e-21 0.00073685298 -5.9221188e-23 1.6392364e-37)
(0.017421684 -0.00046632986 -4.6828073e-22 0.00074770382 1.510229e-23 1.1128346e-38)
(0.021604349 -0.0004938859 -2.5327937e-22 0.00075305893 6.9736849e-24 2.5465211e-39)
(0.026623639 -0.00051756617 -2.8207561e-21 0.00075470612 6.5623563e-23 2.4712729e-37)
(0.03261218 -0.00053568504 1.3893276e-21 0.00075438734 -2.7143367e-23 4.787944e-38)
(0.039709102 -0.00054600607 -2.3488192e-21 0.00075346368 3.8026842e-23 1.0947326e-37)
(0.048052538 -0.00054566683 -1.7714533e-21 0.00075292599 2.3393807e-23 5.0500309e-38)
(0.057767655 -0.0005311821 -8.9953387e-22 0.00075365874 9.4690894e-24 1.0657543e-38)
(0.068948463 -0.00049852668 2.9942827e-21 0.00075681229 -2.4393857e-23 9.8416495e-38)
(0.081632558 -0.00044349532 6.185736e-21 0.00076416266 -3.7103795e-23 3.5171211e-37)
(0.095769421 -0.00036223841 6.0987555e-21 0.00077833136 -2.4836234e-23 2.8990676e-37)
(0.11118406 -0.00025210007 2.8713505e-21 0.00080277727 -6.7165734e-24 5.5179326e-38)
(0.12754742 -0.00011231672 -1.5024369e-20 0.00084164138 1.1490607e-23 1.301775e-36)
(0.14436454 5.4832376e-05 -1.1704306e-20 0.00089970708 -7.8886388e-24 6.9149649e-37)
(0.16097464 0.000241906 3.0387777e-21 0.00098290809 6.099146e-24 4.1387675e-38)
(0.17665088 0.00043952374 -2.1683411e-20 0.001099493 -7.0662055e-23 1.8912589e-36)
(0.19069693 0.00064158135 -7.6716794e-21 0.0012616018 -3.4105083e-23 2.1527176e-37)
(0.2023582 0.00084309631 8.0784768e-21 0.0014872491 4.5130971e-23 2.2016961e-37)
(0.21121849 0.0010369117 2.0287505e-20 0.0018022232 1.3550678e-22 1.2982169e-36)
(0.21693862 0.0012198815 -1.2717101e-20 0.0022440798 -9.8207515e-23 4.8402066e-37)
(0.21935078 0.0014010704 -8.1129876e-21 0.0028667843 -7.0633664e-23 1.8954886e-37)
(0.21837943 0.001606623 2.1233697e-20 0.0037424747 2.0493784e-22 1.2662049e-36)
(0.21429414 0.0018548917 1.0000899e-20 0.0049602171 1.0481809e-22 2.7784607e-37)
(0.20757618 0.0021344642 7.0487225e-21 0.0066167643 7.8129904e-23 1.3870425e-37)
(0.19918805 0.0024112714 -5.4584483e-21 0.0088116169 -6.1424552e-23 8.4215758e-38)
(0.19042206 0.0026298268 1.4323486e-20 0.011650582 1.5348439e-22 6.0338031e-37)
(0.18222753 0.0027660133 1.1591136e-20 0.015458142 1.0593212e-22 4.1489143e-37)
(0.17535508 0.0029198278 2.7778633e-21 0.021001577 1.7457807e-23 2.5701869e-38)
(0.16990227 0.0032097872 -6.785744e-21 0.029717745 -2.5447501e-23 1.6893571e-37)
(0.16510602 0.0030871581 -4.9151052e-21 0.040414777 -1.7375086e-23 1.0264489e-37)
(0.15918284 0.0017786936 -1.6598093e-20 0.048570213 -1.2118742e-22 1.39678e-36)
(0.14929592 -0.00036626762 -2.1669156e-21 0.05253018 -2.8770451e-23 2.9932619e-38)
(0.13735749 -0.0020849946 1.6067242e-20 0.052121006 3.3733265e-22 2.1139582e-36)
(0.11849736 -0.0025671458 -1.0528475e-20 0.050350743 -3.3356296e-22 1.2633783e-36)
(2.5065039e-10 -5.8946288e-09 8.0890815e-28 1.3867147e-07 -1.5320866e-26 3.599394e-42)
(3.8318149e-09 -7.0582993e-08 -2.5812358e-25 1.3155907e-06 3.8467001e-24 4.7382904e-38)
(1.6854125e-08 -2.5538841e-07 4.3128217e-25 3.979479e-06 -5.2139294e-24 3.7522138e-38)
(5.1802168e-08 -6.496995e-07 -1.9278067e-25 8.5304686e-06 1.9327232e-24 2.7886454e-39)
(1.313842e-07 -1.3798114e-06 -6.0987209e-25 1.543782e-05 5.1703119e-24 1.1900321e-38)
(2.9611061e-07 -2.6269103e-06 1.7105598e-24 2.524285e-05 -1.2444919e-23 4.3449819e-38)
(6.1548179e-07 -4.644333e-06 -2.5421114e-24 3.8558855e-05 1.6012531e-23 4.7213792e-38)
(1.2051116e-06 -7.7788472e-06 3.1226357e-25 5.6065872e-05 -1.7124009e-24 3.6569613e-40)
(2.2527207e-06 -1.2496651e-05 -1.3386143e-24 7.8498292e-05 6.415304e-24 3.5643438e-39)
(4.0566415e-06 -1.9412863e-05 -3.0986944e-26 0.00010662269 1.3029486e-25 1.0182659e-42)
(7.0818415e-06 -2.9323319e-05 -8.1243547e-24 0.00014120346 2.9976729e-23 3.9725129e-38)
(1.2039786e-05 -4.3235871e-05 1.7161069e-23 0.00018295363 -5.5728403e-23 1.0027647e-37)
(1.9999872e-05 -6.2396821e-05 1.8711301e-24 0.00023246952 -5.3563942e-24 6.8379362e-40)
(3.2541161e-05 -8.8305687e-05 -2.421611e-23 0.00029014914 6.1189561e-23 6.6562687e-38)
(5.1953289e-05 -0.00012270915 9.6907994e-24 0.0003560977 -2.1635661e-23 6.2701847e-39)
(8.1494088e-05 -0.000167563 7.9781662e-24 0.00043002759 -1.5750393e-23 2.5230973e-39)
(0.00012570734 -0.00022495029 -6.527265e-23 0.00051116559 1.1399277e-22 1.0120069e-37)
(0.0001907969 -0.00029694632 2.7246033e-22 0.0005981869 -4.2100724e-22 1.0691485e-36)
(0.00028504228 -0.00038542873 -2.1726761e-22 0.00068919933 2.9702467e-22 4.1660161e-37)
(0.00041922689 -0.00049184471 3.2942045e-22 0.00078180234 -3.9831287e-22 5.9340536e-37)
(0.00060703819 -0.00061696936 -6.1114603e-22 0.00087323876 6.5325805e-22 1.2831186e-36)
(0.00086539309 -0.00076071309 1.8666688e-22 0.00096063875 -1.7628304e-22 7.6303458e-38)
(0.0012146527 -0.00092205509 9.4951203e-23 0.0010413292 -7.9163319e-23 1.2801163e-38)
(0.0016787455 -0.0010991843 -3.8039707e-22 0.0011131501 2.7973051e-22 1.3504e-37)
(0.0022853778 -0.0012899132 1.657757e-21 0.0011747029 -1.0745764e-21 1.7239639e-36)
(0.0030662185 -0.0014922381 2.9779719e-22 0.0012254719 -1.6995944e-22 3.7880307e-38)
(0.0040567295 -0.0017047606 -1.8297454e-21 0.0012657559 9.1975498e-22 1.0056608e-36)
(0.0052985127 -0.0019272392 2.4195391e-21 0.0012962721 -1.0701269e-21 1.2516081e-36)
(0.0068405561 -0.0021605507 -3.8672378e-22 0.0013179509 1.5059693e-22 2.3494394e-38)
(0.0087399168 -0.0024057691 -4.4164608e-21 0.0013318774 1.5102329e-21 2.2379185e-36)
(0.01106443 -0.0026643946 5.2610381e-22 0.0013388724 -1.5804142e-22 2.4012458e-38)
(0.01389299 -0.0029378795 4.6410053e-21 0.0013393868 -1.2210988e-21 1.4089285e-36)
(0.017318234 -0.0032267111 1.3714005e-22 0.0013339212 -3.1389699e-23 8.9460942e-40)
(0.021446079 -0.0035301126 -4.4839157e-21 0.0013233043 9.0099223e-22 7.8923502e-37)
(0.026395158 -0.0038455258 5.6544609e-21 0.0013085655 -9.8973808e-22 9.8959359e-37)
(0.032294294 -0.0041681212 -2.8690788e-21 0.0012905823 4.3639078e-22 2.0234798e-37)
(0.039277853 -0.0044902453 3.7701079e-21 0.001269868 -4.9764571e-22 2.8294919e-37)
(0.047477976 -0.004800686 1.3388192e-20 0.00124666 -1.5293836e-21 2.8893219e-36)
(0.057012348 -0.0050837966 3.3325865e-21 0.0012212655 -3.2876565e-22 1.4631271e-37)
(0.06796579 -0.00531869 1.4340015e-20 0.0011945674 -1.2189232e-21 2.2544381e-36)
(0.080364808 -0.0054790323 -2.0082013e-20 0.00116859 1.4654459e-21 3.7234502e-36)
(0.094145831 -0.0055340183 -2.0148879e-20 0.0011469148 1.2557362e-21 3.1680434e-36)
(0.10911919 -0.0054511636 -3.7509147e-21 0.0011349154 1.9837764e-22 9.29863e-38)
(0.1249393 -0.005201199 3.1951446e-20 0.0011398619 -1.4184709e-21 5.9434273e-36)
(0.14109078 -0.0047653841 -1.6181184e-20 0.001170966 5.9551133e-22 1.3259358e-36)
(0.15689698 -0.0041460133 -5.9463637e-21 0.0012394531 1.7805776e-22 1.5840625e-37)
(0.17159799 -0.0033709935 3.31768e-21 0.0013582768 -7.8540797e-23 4.5126046e-38)
(0.18447363 -0.002482726 1.0838239e-20 0.0015409683 -1.9446829e-22 4.3464088e-37)
(0.19489785 -0.0015360922 -5.480063e-21 0.0018012749 7.0123685e-23 1.027826e-37)
(0.20239353 -0.00058502024 1.0207336e-20 0.0021585245 -8.2228695e-23 3.3324504e-37)
(0.20667202 0.00034496309 6.25493e-20 0.002644695 -2.3618409e-22 1.1906987e-35)
(0.2076091 0.0012439935 3.0151132e-21 0.0033119958 6.2559564e-25 2.6776491e-38)
(0.20526744 0.0021008817 -1.3645364e-20 0.0042367591 -5.0818724e-23 5.3523697e-37)
(0.19999415 0.0028913682 3.0246199e-20 0.0055141781 2.131141e-22 2.6082578e-36)
(0.19252012 0.0035598424 -2.5535447e-20 0.0072465681 -2.5592988e-22 1.8714716e-36)
(0.18391262 0.004031715 7.1114762e-20 0.0095309741 8.8788488e-22 1.4826537e-35)
(0.17549247 0.0042534785 1.9772816e-20 0.012452046 2.8659884e-22 1.187537e-36)
(0.16828057 0.0041603676 -5.3728714e-20 0.016291434 -8.454459e-22 9.2768475e-36)
(0.16284767 0.0036650767 8.7409058e-21 0.021744444 1.5330723e-22 2.6397348e-37)
(0.15912191 0.0025026182 9.370679e-21 0.030177597 1.8249725e-22 3.4004998e-37)
(0.15617724 0.00076651914 1.7336841e-21 0.04064621 4.3341418e-23 1.3580066e-38)
(0.15221961 -0.001666415 -2.094358e-20 0.048691533 -7.3868997e-22 2.3859072e-36)
(0.1436915 -0.0042492919 3.6125984e-20 0.052346802 1.6876175e-21 9.0432498e-36)
(0.13283902 -0.0057731006 9.4750238e-21 0.051426685 5.7697133e-22 8.1042994e-37)
(0.11406808 -0.0060278251 1.3227409e-20 0.049253593 1.0480411e-21 2.2384247e-36)
(1.9702115e-09 -2.8158585e-08 1.1634811e-25 4.0245436e-07 -1.5382951e-24 1.0940292e-38)
(2.2355345e-08 -2.91899e-07 -1.7633394e-25 3.813846e-06 2.1185457e-24 4.3285346e-39)
(7.9195106e-08 -9.5444662e-07 -7.850226e-26 1.1524416e-05 8.57011e-25 3.0616614e-40)
(2.0051876e-07 -2.2203263e-06 1.1110669e-25 2.4676656e-05 -1.103451e-24 2.7527233e-40)
(4.3003596e-07 -4.3664475e-06 -7.6396008e-25 4.4602834e-05 6.9199779e-24 6.4644269e-39)
(8.3691895e-07 -7.7731196e-06 -7.8425249e-26 7.2828824e-05 6.4936223e-25 3.5739182e-41)
(1.5287909e-06 -1.2953808e-05 -1.3510725e-24 0.00011106789 1.0223311e-23 5.8358583e-39)
(2.6707646e-06 -2.0591247e-05 -1.9381716e-24 0.00016119793 1.3391317e-23 6.7749043e-39)
(4.5134842e-06 -3.1581423e-05 2.0851317e-23 0.00022521432 -1.3133729e-22 4.5257572e-37)
(7.4330644e-06 -4.7081865e-05 -2.4315462e-23 0.00030515245 1.3939141e-22 3.6078999e-37)
(1.1987786e-05 -6.8563622e-05 1.5100922e-23 0.00040297116 -7.8654469e-23 8.2620904e-38)
(1.899686e-05 -9.786094e-05 2.857776e-23 0.00052039044 -1.3502774e-22 1.7735168e-37)
(2.9648093e-05 -0.00013721156 -7.2869901e-23 0.00065867946 3.1184443e-22 6.9720103e-37)
(4.5641938e-05 -0.00018927616 -1.1566447e-23 0.00081839666 4.4766966e-23 1.0676309e-38)
(6.937938e-05 -0.00025712129 5.7003966e-23 0.00099909378 -1.9923293e-22 1.5901375e-37)
(0.0001042 -0.00034414756 4.9900502e-23 0.0011990104 -1.5726561e-22 7.5028747e-38)
(0.00015467296 -0.00045394342 -7.3416449e-23 0.0014148046 2.0831903e-22 1.0065779e-37)
(0.00022693751 -0.00059004939 3.3596003e-22 0.0016413858 -8.569325e-22 1.3146647e-36)
(0.00032908033 -0.00075563054 -2.4982233e-22 0.0018719319 5.7187115e-22 4.5727029e-37)
(0.00047152567 -0.0009530788 1.5476757e-22 0.0020981771 -3.1740124e-22 1.111876e-37)
(0.00066740405 -0.0011836036 -6.4935944e-22 0.0023110323 1.1910369e-21 1.2557324e-36)
(0.00093286171 -0.001446912 -2.0882818e-22 0.0025015382 3.4194925e-22 8.4267127e-38)
(0.0012872814 -0.0017411124 5.344019e-22 0.0026620537 -7.7990844e-22 3.6342504e-37)
(0.0017534282 -0.0020629814 -9.7894709e-22 0.0027874566 1.2710763e-21 8.148833e-37)
(0.0023576825 -0.0024087123 -4.6570788e-22 0.0028760475 5.3702426e-22 1.2501887e-37)
(0.0031303677 -0.0027749835 6.6655014e-22 0.0029298683 -6.8208724e-22 1.7867289e-37)
(0.0041053977 -0.0031596821 4.4914983e-21 0.0029541826 -4.0707207e-21 5.708871e-36)
(0.005322649 -0.0035629381 2.3908732e-21 0.0029557077 -1.9169145e-21 1.1598828e-36)
(0.006829235 -0.003986903 -1.3848112e-21 0.0029410701 9.8209417e-22 2.8744464e-37)
(0.0086798 -0.0044343395 1.7261339e-21 0.0029160839 -1.0794029e-21 3.2810641e-37)
(0.01093935 -0.004908726 -1.2321141e-21 0.002884913 6.799553e-22 1.2844571e-37)
(0.013683104 -0.0054132478 -8.0336253e-21 0.0028496438 3.8949684e-21 4.1292605e-36)
(0.016999157 -0.005949573 3.0662875e-21 0.0028109055 -1.3047774e-21 4.657206e-37)
(0.020987693 -0.0065169786 1.0403469e-20 0.0027685451 -3.8766303e-21 4.1854961e-36)
(0.025760158 -0.0071114616 -3.9063902e-21 0.002721888 1.2735929e-21 4.7131056e-37)
(0.031436386 -0.0077248826 -6.1810597e-21 0.0026697481 1.7578499e-21 9.3571836e-37)
(0.038139539 -0.0083439924 1.2014652e-20 0.0026104469 -2.9778382e-21 2.8492872e-36)
(0.045987792 -0.0089490747 4.105812e-21 0.0025420352 -8.8547471e-22 2.6936148e-37)
(0.055081486 -0.0095122302 -8.0750214e-21 0.0024627569 1.5146584e-21 8.6588923e-37)
(0.065484164 -0.009995745 -3.569117e-21 0.0023718265 5.8109361e-22 1.4138612e-37)
(0.077196743 -0.010351357 1.889983e-20 0.0022704731 -2.6629939e-21 3.3132812e-36)
(0.090125604 -0.010521729 -5.8077431e-21 0.0021631819 7.052946e-22 2.6973057e-37)
(0.10404728 -0.010445314 -9.158039e-21 0.0020589788 9.5539904e-22 5.7187679e-37)
(0.11858038 -0.010065674 -2.6444704e-20 0.0019726187 2.351968e-21 4.1164479e-36)
(0.13317307 -0.009345807 5.3801828e-20 0.0019250535 -4.0366207e-21 1.5008788e-35)
(0.14712586 -0.0082888894 -3.7065503e-20 0.0019424949 2.3144836e-21 6.3257314e-36)
(0.15969583 -0.0069539526 -9.9122963e-21 0.0020516877 5.0713833e-22 4.037491e-37)
(0.17019277 -0.0054337661 -4.0882274e-20 0.0022706099 1.6665955e-21 6.3387083e-36)
(0.17805885 -0.0038269234 -5.0868792e-20 0.0026048092 1.6036686e-21 9.1068674e-36)
(0.18293196 -0.0022341463 -2.6688258e-21 0.0030582763 6.3477322e-23 2.3394701e-38)
(0.18468213 -0.00071895088 1.1533855e-20 0.0036483734 -1.8043679e-22 4.1761622e-37)
(0.18335755 0.0006887649 -8.5600222e-20 0.004422804 7.2046787e-22 2.2442751e-35)
(0.17921607 0.0019577801 -3.662611e-20 0.0054650284 7.6984651e-23 4.041501e-36)
(0.17277825 0.0030248127 -3.7470866e-20 0.0068803726 -1.4011545e-22 4.2201179e-36)
(0.16497291 0.0037979102 -1.2164559e-20 0.0087731483 -1.1455379e-22 4.4978678e-37)
(0.15696932 0.0041855439 -9.2057161e-20 0.011225653 -1.2889373e-21 2.6522888e-35)
(0.15010688 0.0041619238 3.5567802e-20 0.014280296 6.7252993e-22 4.1275477e-36)
(0.14526927 0.003682556 -1.0388336e-20 0.018151227 -2.379769e-22 3.7729238e-37)
(0.14270891 0.0025126424 -8.1340717e-20 0.023454589 -2.3762342e-21 2.5116707e-35)
(0.14214509 5.3332712e-05 -3.0286357e-20 0.031435563 -1.1510315e-21 3.9364703e-36)
(0.14178633 -0.0030863131 3.3029185e-20 0.041118716 1.6439729e-21 5.5543701e-36)
(0.14000436 -0.0062454058 1.0240916e-19 0.048433819 6.7470728e-21 6.5570231e-35)
(0.13255947 -0.008826358 -2.8646947e-20 0.051237969 -2.4231337e-21 6.6879903e-36)
(0.122979 -0.009763837 -4.0016859e-20 0.049515335 -4.2705733e-21 1.7377984e-35)
(0.10447908 -0.0094918072 -1.4177931e-20 0.04679427 -1.9362783e-21 3.1882132e-36)
(7.6320853e-09 -7.7618145e-08 -7.6356112e-25 7.8937731e-07 7.4704348e-24 1.2269509e-37)
(7.879164e-08 -7.6773732e-07 2.3747483e-24 7.4813633e-06 -2.2163954e-23 2.2502101e-37)
(2.5791027e-07 -2.4144496e-06 -1.3709408e-24 2.2608913e-05 1.2167833e-23 2.9421188e-38)
(6.0259735e-07 -5.4000051e-06 2.128206e-25 4.8417269e-05 -1.7937516e-24 3.4773367e-40)
(1.1948695e-06 -1.0221591e-05 -5.7327766e-24 8.7525743e-05 4.5857305e-23 1.3592164e-37)
(2.1535474e-06 -1.7531539e-05 7.8737973e-24 0.00014293649 -5.9726311e-23 1.4553571e-37)
(3.649557e-06 -2.8176777e-05 -1.5583863e-23 0.00021802242 1.1189061e-22 3.3494987e-37)
(5.9272343e-06 -4.3245079e-05 9.4417215e-24 0.0003164822 -6.3997872e-23 7.4167698e-38)
(9.334367e-06 -6.4119512e-05 4.5828822e-23 0.00044224774 -2.9240489e-22 1.0724211e-36)
(1.4363425e-05 -9.2537381e-05 -1.3966806e-23 0.00059933045 8.3619028e-23 6.2027859e-38)
(2.1707676e-05 -0.00013065026 -6.7148264e-23 0.00079159119 3.7606008e-22 9.0011345e-37)
(3.2337235e-05 -0.00018108023 2.5776417e-23 0.0010224148 -1.3461196e-22 8.3930212e-38)
(4.7599463e-05 -0.00024695916 2.1552089e-24 0.0012942829 -1.0460992e-23 3.7516741e-40)
(6.9350162e-05 -0.00033193902 -1.0602104e-22 0.0016082473 4.7701341e-22 5.751162e-37)
(0.00010012135 -0.00044015379 4.1472551e-22 0.001963324 -1.7240293e-21 5.6299197e-36)
(0.00014332978 -0.00057610909 -3.1788181e-22 0.0023558629 1.2172432e-21 2.1216047e-36)
(0.00020352872 -0.00074447694 -3.7787737e-24 0.0027789779 1.3288397e-23 1.9250303e-40)
(0.00028669979 -0.00094977769 2.7262758e-22 0.0032221754 -8.7774242e-22 6.4808776e-37)
(0.00040057607 -0.0011959496 -8.5889056e-22 0.0036713565 2.5239151e-21 4.1730215e-36)
(0.00055497829 -0.0014858352 5.0109167e-22 0.0041093735 -1.3398345e-21 9.2765996e-37)
(0.00076214009 -0.0018206625 9.2004891e-22 0.0045172944 -2.2315257e-21 2.0579725e-36)
(0.0010369954 -0.0021996542 4.5661497e-22 0.0048764002 -1.0015285e-21 3.3638786e-37)
(0.0013974089 -0.0026199398 -2.7474575e-21 0.005170731 5.4338303e-21 8.2053004e-36)
(0.0018643566 -0.0030769513 -1.7368557e-21 0.0053897411 3.0883642e-21 2.2338018e-36)
(0.0024621894 -0.0035654557 1.3448569e-21 0.0055303759 -2.144601e-21 9.3052899e-37)
(0.0032191294 -0.0040811177 -9.365463e-22 0.0055978815 1.3354363e-21 3.1603449e-37)
(0.0041667904 -0.0046214426 4.1397077e-21 0.0056048528 -5.2687081e-21 4.4352711e-36)
(0.0053423933 -0.0051873169 -1.3954191e-21 0.0055676549 1.5813478e-21 3.6634574e-37)
(0.0067900424 -0.0057823087 4.3763294e-21 0.0055018256 -4.4080072e-21 2.669359e-36)
(0.0085607944 -0.0064110717 -2.8590825e-21 0.0054207102 2.55432e-21 8.5721775e-37)
(0.010715284 -0.0070791154 2.0398536e-21 0.0053340036 -1.6117603e-21 3.3048459e-37)
(0.013323079 -0.0077912691 -8.5486522e-21 0.0052467122 5.9643889e-21 4.4905484e-36)
(0.016465288 -0.008550262 1.3955296e-21 0.0051599413 -8.5790975e-22 9.3772139e-38)
(0.020233339 -0.0093552182 -8.3791978e-21 0.005072146 4.5252715e-21 2.6449805e-36)
(0.024727757 -0.010200449 9.0559691e-21 0.0049800138 -4.2918105e-21 2.4629552e-36)
(0.030054864 -0.011074243 3.2800873e-21 0.0048790415 -1.3609647e-21 2.5633509e-37)
(0.0363211 -0.011957497 -4.5554139e-20 0.0047639391 1.6551137e-20 4.0659506e-35)
(0.043624072 -0.012821805 -1.3275573e-20 0.004629042 4.2153243e-21 2.8206422e-36)
(0.05203902 -0.013627005 1.2188232e-20 0.0044689497 -3.3785899e-21 1.9759462e-36)
(0.061599369 -0.014318868 -1.3215942e-20 0.0042797057 3.1926543e-21 1.943096e-36)
(0.072270951 -0.014828138 3.7510216e-21 0.0040606791 -7.8739626e-22 1.3086037e-37)
(0.083921024 -0.015072716 2.550698e-20 0.0038172031 -4.6453426e-21 5.2188664e-36)
(0.09628574 -0.014965122 -1.2758886e-21 0.0035638846 2.0090505e-22 1.1436356e-38)
(0.10894661 -0.014427016 -1.0057589e-20 0.0033277479 1.3556187e-21 6.0432982e-37)
(0.12132619 -0.013412088 5.1931688e-21 0.0031495829 -5.9028625e-22 1.4534757e-37)
(0.13273706 -0.011938535 -2.8775098e-21 0.0030809605 2.7674919e-22 3.6623765e-38)
(0.14250572 -0.01010648 -8.5326685e-21 0.0031705901 6.7725735e-22 3.0770828e-37)
(0.15003538 -0.008065763 1.3643097e-19 0.0034423369 -8.7923328e-21 7.3458221e-35)
(0.15493235 -0.0059734284 -1.5832295e-20 0.0038861077 7.9617332e-22 9.2148301e-37)
(0.1570396 -0.0039696315 1.5022989e-20 0.00447829 -5.8084177e-22 7.8576463e-37)
(0.15642487 -0.002134192 -1.4376523e-19 0.0052124185 3.9853463e-21 6.9100816e-35)
(0.15331241 -0.00050380719 7.9418052e-20 0.0061302472 -1.4201145e-21 2.057337e-35)
(0.14812232 0.00087364487 6.5383203e-20 0.0073271382 -5.5196591e-22 1.3772352e-35)
(0.14152604 0.0019068558 6.1829257e-20 0.0089221272 3.4476371e-24 1.2374997e-35)
(0.1345615 0.0024903585 5.8497555e-20 0.011019294 4.6735677e-22 1.1294206e-35)
(0.1284119 0.0025533532 8.9436167e-20 0.013667334 1.3833074e-21 2.7354406e-35)
(0.12424375 0.0021524424 -1.7282604e-19 0.016850616 -4.0158627e-21 1.0750849e-34)
(0.12258889 0.0012686972 1.018029e-19 0.020687951 3.2283182e-21 4.0110109e-35)
(0.12336328 -0.00048002103 1.4564577e-19 0.025753425 6.2046668e-21 9.1133242e-35)
(0.12584348 -0.0038720785 -9.900738e-20 0.033049357 -5.7872479e-21 4.8595613e-35)
(0.1273972 -0.0079316887 -2.8621059e-20 0.041507876 -2.2127012e-21 4.9187447e-36)
(0.12648815 -0.011249276 -2.2203575e-20 0.047487474 -2.2054443e-21 3.7306893e-36)
(0.11875795 -0.013407417 9.7274506e-20 0.049047173 1.267964e-20 9.6644932e-35)
(0.10895106 -0.013513754 6.0984198e-20 0.046395876 9.8922252e-21 5.2156902e-35)
(0.090393751 -0.012654446 -2.1442331e-21 0.043108986 -4.1598225e-22 1.0125143e-37)
(2.0319767e-08 -1.5939493e-07 8.958409e-25 1.2503473e-06 -6.8684788e-24 6.0833725e-38)
(2.016327e-07 -1.5461639e-06 -5.69632e-24 1.1856529e-05 4.2546581e-23 4.8576994e-37)
(6.372211e-07 -4.7793268e-06 7.2452036e-24 3.5848226e-05 -5.2562667e-23 3.2292445e-37)
(1.4337656e-06 -1.0493602e-05 -3.8215978e-24 7.6811247e-05 2.6896953e-23 4.6129575e-38)
(2.7344916e-06 -1.9489539e-05 -1.8402517e-24 0.00013893909 1.2553207e-23 6.0225189e-39)
(4.7339333e-06 -3.2778955e-05 2.058874e-23 0.00022705315 -1.3596673e-22 4.461341e-37)
(7.6954426e-06 -5.1630285e-05 -6.6634099e-24 0.00034659109 4.2522092e-23 2.8635076e-38)
(1.1974342e-05 -7.7619354e-05 -1.7864664e-23 0.00050354402 1.0989921e-22 1.2919018e-37)
(1.8049078e-05 -0.00011268608 -1.7133547e-24 0.00070432081 1.0132358e-23 7.6117159e-40)
(2.6562224e-05 -0.00015919286 -1.8097165e-23 0.00095551462 1.0258154e-22 5.4985032e-38)
(3.8374134e-05 -0.00021997987 3.1351671e-23 0.001263545 -1.6980206e-22 1.0794421e-37)
(5.4632756e-05 -0.00029840994 -2.6869279e-23 0.0016341472 1.3859358e-22 5.2216171e-38)
(7.6863125e-05 -0.00039839076 -1.218922e-22 0.0020716918 5.9678942e-22 7.1006914e-37)
(0.00010707979 -0.00052435703 -4.3665809e-24 0.002578339 2.0225455e-23 6.0049991e-40)
(0.00014792838 -0.00068119787 1.4064579e-22 0.0031530382 -6.1393858e-22 4.1632483e-37)
(0.00020285661 -0.00087409871 1.2229887e-22 0.0037904583 -5.0134784e-22 2.0926753e-37)
(0.00027631646 -0.0011082769 -1.2910858e-22 0.0044799821 4.9516564e-22 1.5523902e-37)
(0.00037399913 -0.0013886047 1.5114367e-23 0.0052049912 -5.4013758e-23 1.4323945e-39)
(0.00050309316 -0.0017191128 3.7700908e-22 0.0059427096 -1.2507698e-21 5.9198996e-37)
(0.00067255824 -0.002102421 5.6064028e-22 0.0066649479 -1.7194889e-21 8.7970752e-37)
(0.0008934006 -0.0025391835 -7.7792841e-22 0.0073400206 2.1966313e-21 1.1464365e-36)
(0.0011789361 -0.0030277034 -9.4732718e-22 0.0079359601 2.4526804e-21 1.1602392e-36)
(0.0015450339 -0.0035639127 1.5342962e-21 0.0084247926 -3.627647e-21 2.0983971e-36)
(0.0020103452 -0.0041419175 -2.2719494e-21 0.0087871985 4.8863211e-21 3.2078268e-36)
(0.0025966062 -0.0047552656 -4.6792969e-21 0.0090164162 9.1198529e-21 9.6098871e-36)
(0.0033292183 -0.0053988977 1.2995892e-20 0.009120095 -2.2873181e-20 5.3236013e-35)
(0.0042370665 -0.0060705059 -8.3696252e-21 0.0091192457 1.3258659e-20 1.6090804e-35)
(0.0053538015 -0.0067720138 1.4407797e-20 0.009042922 -2.0478827e-20 3.5237665e-35)
(0.0067193725 -0.0075085995 -2.0755977e-20 0.0089188135 2.6396827e-20 5.4924285e-35)
(0.0083806491 -0.0082874047 2.6568869e-20 0.0087708916 -3.0144497e-20 6.8437564e-35)
(0.010392376 -0.0091158691 -3.1328913e-20 0.0086166817 3.1618692e-20 7.3298293e-35)
(0.012816926 -0.010000361 5.9753039e-21 0.0084657557 -5.3508924e-21 2.0844834e-36)
(0.015726355 -0.010944517 2.337037e-20 0.0083203801 -1.8515195e-20 2.5007858e-35)
(0.019200913 -0.011947072 -1.4839654e-20 0.0081773968 1.0380985e-20 8.0194628e-36)
(0.023327288 -0.013000378 5.2021949e-21 0.0080299919 -3.2074333e-21 7.9224784e-37)
(0.02819483 -0.014088874 1.6869677e-21 0.0078690618 -9.1587876e-22 6.8316964e-38)
(0.033889352 -0.015187403 2.3327783e-20 0.0076842039 -1.1123024e-20 1.0524634e-35)
(0.040483606 -0.016258855 8.4542627e-21 0.0074644224 -3.5385253e-21 1.1340345e-36)
(0.04802339 -0.017251197 9.4415858e-21 0.0071990214 -3.4625394e-21 1.1711302e-36)
(0.056508249 -0.01809475 1.0206132e-20 0.0068793402 -3.2766599e-21 1.1634072e-36)
(0.065866681 -0.018701314 -5.6838776e-20 0.0065017863 1.5928433e-20 3.0677603e-35)
(0.075927688 -0.018967584 2.7115021e-20 0.0060726041 -6.6122189e-21 5.9933283e-36)
(0.086393758 -0.018785914 4.7305412e-21 0.0056141702 -1.0018328e-21 1.5359912e-37)
(0.096825598 -0.018065135 -5.7822085e-20 0.0051711667 1.0516714e-20 2.0672455e-35)
(0.10665389 -0.016763826 -3.1295206e-20 0.0048132364 4.86342e-21 5.3519829e-36)
(0.11525966 -0.014933967 1.6211429e-20 0.0046278772 -2.1330164e-21 1.3006655e-36)
(0.12210103 -0.012732784 6.2016381e-20 0.0046916733 -6.772177e-21 1.7228152e-35)
(0.12676519 -0.010366455 -2.7979716e-20 0.0050294342 2.5175583e-21 3.2614671e-36)
(0.1290681 -0.0080391789 8.4501026e-20 0.0056049822 -6.0103178e-21 2.7780938e-35)
(0.12905324 -0.0059069488 4.6977348e-20 0.0063532202 -2.5929327e-21 8.1741187e-36)
(0.12693296 -0.0040420079 6.5695367e-20 0.007237116 -2.7091379e-21 1.5456938e-35)
(0.12304302 -0.0024720581 1.7747899e-19 0.0082963746 -4.8652471e-21 1.1049708e-34)
(0.11789412 -0.0012565217 -1.366728e-19 0.0096466178 2.0910278e-21 6.5305465e-35)
(0.11224123 -0.00050595795 4.4102108e-20 0.011423797 -1.0878781e-22 6.8551917e-36)
(0.1071398 -0.00031681406 -7.4071709e-20 0.013724245 -5.198355e-22 1.9937206e-35)
(0.10366432 -0.00069985948 -6.8276556e-20 0.01654644 -1.2329095e-21 1.7702266e-35)
(0.10263158 -0.0014910276 -2.5626493e-20 0.019798475 -7.6134233e-22 2.6645649e-36)
(0.10409401 -0.0026707237 -2.2158943e-19 0.023488001 -9.1458739e-21 2.1743712e-34)
(0.1076579 -0.0048476275 -5.5589735e-20 0.02818342 -3.2209617e-21 1.551375e-35)
(0.11205784 -0.0087426227 1.1622313e-19 0.034537019 9.4410213e-21 8.0287048e-35)
(0.11398671 -0.013102577 3.9095629e-20 0.041354982 4.3294868e-21 1.1407057e-35)
(0.11225252 -0.016028908 -2.5558255e-20 0.045605864 -3.6318655e-21 6.3558685e-36)
(0.10295657 -0.017301708 -4.4663445e-20 0.045739509 -8.1979088e-21 2.7171913e-35)
(0.091743041 -0.016468435 -5.8075821e-20 0.04219055 -1.3519178e-20 6.588681e-35)
(0.073707268 -0.015123411 3.4907789e-21 0.038516073 9.8896653e-22 3.832062e-37)
(4.2684197e-08 -2.7112917e-07 4.1010778e-24 1.7222078e-06 -2.5660993e-23 5.6476343e-37)
(4.1532477e-07 -2.6054054e-06 2.7429806e-24 1.6344255e-05 -1.6896222e-23 5.0964561e-38)
(1.2891742e-06 -7.9845625e-06 -3.4172678e-24 4.945365e-05 2.0672629e-23 3.3422492e-38)
(2.8438101e-06 -1.736596e-05 -1.7378321e-23 0.00010605087 1.0317003e-22 4.5582695e-37)
(5.3109298e-06 -3.1932031e-05 1.2530607e-23 0.00019200583 -7.2949279e-23 1.3688692e-37)
(8.9904863e-06 -5.31372e-05 -2.3166018e-23 0.00031409935 1.3213035e-22 2.8372005e-37)
(1.4269807e-05 -8.2755952e-05 1.2658564e-23 0.00048002312 -7.0633069e-23 5.3149561e-38)
(2.1647387e-05 -0.00012293274 3.7599195e-24 0.00069831283 -2.0486004e-23 3.0173766e-39)
(3.1763455e-05 -0.00017623365 -2.628389e-23 0.00097818448 1.3952902e-22 9.6762561e-38)
(4.543826e-05 -0.00024569394 -6.9488537e-23 0.0013292386 3.585319e-22 4.4997587e-37)
(6.3720023e-05 -0.00033485558 -4.2692479e-24 0.0017609919 2.1355755e-23 1.1354304e-39)
(8.7944456e-05 -0.00044778522 1.6969534e-22 0.0022821962 -8.2044672e-22 1.2204017e-36)
(0.00011980828 -0.00058906055 -2.8509192e-22 0.0028999091 1.3284225e-21 2.3411105e-36)
(0.00016145784 -0.00076370564 5.5822064e-22 0.0036183025 -2.4988392e-21 6.1212399e-36)
(0.0002155975 -0.00097706279 -1.767822e-22 0.0044372292 7.576757e-22 4.1946392e-37)
(0.00028561774 -0.0012345758 4.5502891e-22 0.0053506412 -1.8605541e-21 1.9007526e-36)
(0.0003757425 -0.0015414647 -6.6588944e-22 0.0063450355 2.5876154e-21 2.7905489e-36)
(0.00049120227 -0.0019022971 5.2317505e-22 0.0073981865 -1.9243835e-21 1.1826183e-36)
(0.00063842408 -0.0023204563 -9.9808964e-23 0.0084786137 3.4601964e-22 2.9677075e-38)
(0.00082524203 -0.00279757 -4.8837579e-22 0.0095462614 1.5887684e-21 4.9081897e-37)
(0.0010611238 -0.0033329943 1.4280781e-21 0.010554869 -4.3394329e-21 2.9157641e-36)
(0.0013574126 -0.0039235159 -2.4154713e-21 0.011456323 6.8235486e-21 5.8408809e-36)