/*--------------------------------*- C++ -*----------------------------------*\
  =========                 |
  \\      /  F ield         | OpenFOAM: The Open Source CFD Toolbox
   \\    /   O peration     | Website:  https://openfoam.org
    \\  /    A nd           | Version:  13
     \\/     M anipulation  |
\*---------------------------------------------------------------------------*/
FoamFile
{
    format      ascii;
    class       volScalarField;
    location    "18.600584";
    object      pPrime2Mean;
}
// * * * * * * * * * * * * * * * * * * * * * * * * * * * * * * * * * * * * * //

dimensions      [0 4 -4 0 0 0 0];

internalField   nonuniform List<scalar> 
17140
(
16739.532
16739.533
16739.533
16739.533
16739.532
16739.531
16739.528
16739.525
16739.52
16739.514
16739.506
16739.495
16739.481
16739.463
16739.441
16739.412
16739.376
16739.331
16739.274
16739.202
16739.112
16738.999
16738.858
16738.679
16738.454
16738.171
16737.814
16737.363
16736.794
16736.076
16735.173
16734.037
16732.614
16730.836
16728.622
16725.876
16722.483
16718.308
16713.194
16706.962
16699.404
16690.286
16679.342
16666.277
16650.757
16632.415
16610.846
16585.609
16556.22
16522.156
16482.848
16437.681
16385.991
16327.063
16260.127
16184.355
16098.855
16002.664
15894.738
15773.959
15639.106
15488.881
15321.833
15136.432
14930.986
16739.947
16739.948
16739.948
16739.948
16739.947
16739.945
16739.943
16739.939
16739.935
16739.929
16739.92
16739.909
16739.895
16739.877
16739.855
16739.826
16739.79
16739.744
16739.688
16739.616
16739.526
16739.413
16739.271
16739.093
16738.869
16738.586
16738.23
16737.78
16737.213
16736.497
16735.595
16734.462
16733.04
16731.265
16729.054
16726.31
16722.919
16718.746
16713.635
16707.405
16699.851
16690.737
16679.799
16666.739
16651.227
16632.895
16611.336
16586.111
16556.736
16522.688
16483.399
16438.253
16386.587
16327.686
16260.781
16185.045
16099.584
16003.437
15895.56
15774.836
15640.045
15489.89
15322.918
15137.606
14932.247
16740.973
16740.973
16740.974
16740.973
16740.972
16740.971
16740.968
16740.965
16740.96
16740.954
16740.945
16740.935
16740.92
16740.903
16740.88
16740.852
16740.816
16740.77
16740.714
16740.642
16740.553
16740.441
16740.3
16740.123
16739.9
16739.619
16739.264
16738.817
16738.252
16737.54
16736.641
16735.512
16734.096
16732.325
16730.118
16727.378
16723.992
16719.823
16714.718
16708.495
16700.949
16691.846
16680.921
16667.877
16652.384
16634.073
16612.542
16587.347
16558.007
16523.998
16484.754
16439.66
16388.054
16329.221
16262.393
16186.743
16101.381
16005.344
15897.59
15777.002
15642.362
15492.375
15325.59
15140.487
14935.339
16742.642
16742.642
16742.643
16742.643
16742.641
16742.64
16742.638
16742.634
16742.629
16742.623
16742.615
16742.604
16742.59
16742.572
16742.55
16742.522
16742.486
16742.442
16742.385
16742.315
16742.226
16742.115
16741.975
16741.8
16741.579
16741.3
16740.949
16740.505
16739.944
16739.236
16738.344
16737.22
16735.81
16734.045
16731.844
16729.111
16725.732
16721.571
16716.475
16710.263
16702.731
16693.645
16682.74
16669.722
16654.259
16635.985
16614.497
16589.351
16560.068
16526.123
16486.952
16441.942
16390.433
16331.711
16265.009
16189.502
16104.299
16008.442
15900.889
15780.523
15646.129
15496.414
15329.93
15145.168
14940.359
16744.988
16744.989
16744.988
16744.988
16744.987
16744.986
16744.983
16744.98
16744.975
16744.969
16744.96
16744.949
16744.935
16744.918
16744.896
16744.868
16744.833
16744.788
16744.733
16744.663
16744.576
16744.466
16744.328
16744.155
16743.936
16743.66
16743.312
16742.873
16742.317
16741.615
16740.729
16739.613
16738.21
16736.453
16734.261
16731.536
16728.166
16724.017
16718.934
16712.739
16705.226
16696.164
16685.29
16672.307
16656.887
16638.663
16617.234
16592.158
16562.953
16529.098
16490.031
16445.14
16393.766
16335.2
16268.675
16193.368
16108.39
16012.785
15905.513
15785.461
15651.413
15502.08
15336.021
15151.739
14947.408
16748.037
16748.038
16748.038
16748.037
16748.036
16748.035
16748.032
16748.028
16748.024
16748.017
16748.009
16747.998
16747.985
16747.967
16747.945
16747.917
16747.883
16747.839
16747.784
16747.716
16747.629
16747.521
16747.385
16747.213
16746.998
16746.726
16746.382
16745.948
16745.398
16744.703
16743.826
16742.718
16741.325
16739.578
16737.396
16734.683
16731.326
16727.192
16722.126
16715.953
16708.467
16699.437
16688.6
16675.664
16660.299
16642.142
16620.789
16595.802
16566.698
16532.961
16494.028
16449.291
16398.096
16339.732
16273.437
16198.391
16113.705
16018.429
15911.523
15791.878
15658.281
15509.448
15343.945
15160.288
14956.584
16751.82
16751.82
16751.82
16751.819
16751.818
16751.816
16751.814
16751.81
16751.805
16751.798
16751.79
16751.779
16751.766
16751.749
16751.727
16751.699
16751.665
16751.622
16751.568
16751.5
16751.415
16751.309
16751.175
16751.007
16750.794
16750.526
16750.188
16749.76
16749.218
16748.531
16747.662
16746.565
16745.183
16743.448
16741.279
16738.58
16735.239
16731.124
16726.082
16719.936
16712.483
16703.492
16692.704
16679.825
16664.529
16646.452
16625.195
16600.317
16571.34
16537.748
16498.983
16454.44
16403.465
16345.353
16279.344
16204.62
16120.298
16025.429
15918.978
15799.839
15666.804
15518.594
15353.784
15170.911
14967.991
16756.366
16756.366
16756.365
16756.365
16756.363
16756.362
16756.359
16756.355
16756.35
16756.343
16756.335
16756.324
16756.311
16756.294
16756.272
16756.246
16756.212
16756.169
16756.116
16756.05
16755.967
16755.862
16755.731
16755.566
16755.358
16755.094
16754.762
16754.34
16753.807
16753.129
16752.271
16751.185
16749.816
16748.095
16745.941
16743.259
16739.938
16735.846
16730.831
16724.718
16717.305
16708.363
16697.632
16684.822
16669.609
16651.629
16630.486
16605.739
16576.915
16543.499
16504.936
16460.626
16409.918
16352.109
16286.443
16212.107
16128.223
16033.844
15927.94
15809.411
15677.055
15529.597
15365.626
15183.698
14981.734
16761.713
16761.713
16761.713
16761.712
16761.711
16761.708
16761.705
16761.702
16761.696
16761.69
16761.682
16761.671
16761.657
16761.641
16761.62
16761.593
16761.56
16761.519
16761.467
16761.401
16761.32
16761.218
16761.089
16760.928
16760.724
16760.466
16760.14
16759.726
16759.2
16758.533
16757.686
16756.613
16755.256
16753.55
16751.414
16748.752
16745.454
16741.39
16736.408
16730.334
16722.967
16714.081
16703.418
16690.689
16675.572
16657.706
16636.695
16612.104
16583.46
16550.252
16511.929
16467.894
16417.499
16360.047
16294.785
16220.906
16137.536
16043.733
15938.474
15820.663
15689.104
15542.534
15379.555
15198.748
14997.92
16767.901
16767.901
16767.901
16767.9
16767.899
16767.896
16767.893
16767.889
16767.884
16767.878
16767.869
16767.858
16767.845
16767.829
16767.808
16767.782
16767.75
16767.709
16767.658
16767.595
16767.515
16767.416
16767.29
16767.132
16766.933
16766.68
16766.36
16765.954
16765.436
16764.778
16763.942
16762.881
16761.54
16759.849
16757.732
16755.093
16751.821
16747.787
16742.842
16736.813
16729.5
16720.678
16710.093
16697.458
16682.452
16664.717
16643.86
16619.448
16591.012
16558.046
16520.001
16476.284
16426.253
16369.215
16304.421
16231.07
16148.294
16055.158
15950.642
15833.662
15703.03
15557.492
15395.667
15216.163
15016.658
16774.973
16774.972
16774.972
16774.971
16774.969
16774.967
16774.964
16774.96
16774.955
16774.948
16774.939
16774.929
16774.916
16774.9
16774.879
16774.854
16774.822
16774.782
16774.733
16774.671
16774.593
16774.496
16774.373
16774.218
16774.023
16773.776
16773.461
16773.061
16772.551
16771.902
16771.076
16770.027
16768.7
16767.027
16764.929
16762.314
16759.07
16755.072
16750.168
16744.189
16736.936
16728.188
16717.691
16705.161
16690.281
16672.695
16652.012
16627.805
16599.608
16566.918
16529.191
16485.84
16436.225
16379.659
16315.4
16242.653
16160.556
16068.181
15964.516
15848.487
15718.915
15574.561
15414.058
15236.045
15038.059
16782.965
16782.965
16782.965
16782.963
16782.961
16782.959
16782.956
16782.952
16782.946
16782.94
16782.931
16782.921
16782.908
16782.892
16782.872
16782.847
16782.816
16782.777
16782.728
16782.667
16782.591
16782.496
16782.375
16782.224
16782.032
16781.788
16781.478
16781.083
16780.58
16779.939
16779.122
16778.084
16776.771
16775.115
16773.038
16770.449
16767.237
16763.276
16758.418
16752.494
16745.309
16736.643
16726.246
16713.835
16699.094
16681.675
16661.188
16637.212
16609.285
16576.908
16539.543
16496.606
16447.463
16391.432
16327.779
16255.714
16174.386
16082.87
15980.168
15865.213
15736.841
15593.826
15434.821
15258.499
15062.234
16791.912
16791.912
16791.912
16791.91
16791.908
16791.906
16791.903
16791.898
16791.893
16791.887
16791.879
16791.868
16791.855
16791.839
16791.819
16791.795
16791.764
16791.725
16791.677
16791.618
16791.543
16791.449
16791.33
16791.18
16790.991
16790.75
16790.444
16790.054
16789.556
16788.921
16788.113
16787.086
16785.786
16784.148
16782.094
16779.532
16776.353
16772.433
16767.625
16761.763
16754.653
16746.078
16735.79
16723.511
16708.928
16691.693
16671.426
16647.708
16620.083
16588.058
16551.1
16508.627
16460.015
16404.584
16341.611
16270.312
16189.843
16099.291
15997.666
15883.916
15756.893
15615.384
15458.056
15283.629
15089.295
16801.844
16801.844
16801.843
16801.841
16801.84
16801.837
16801.834
16801.83
16801.824
16801.818
16801.81
16801.799
16801.786
16801.771
16801.751
16801.726
16801.696
16801.658
16801.611
16801.552
16801.478
16801.385
16801.267
16801.119
16800.931
16800.693
16800.39
16800.003
16799.509
16798.881
16798.08
16797.065
16795.779
16794.159
16792.128
16789.595
16786.452
16782.576
16777.823
16772.028
16765.002
16756.528
16746.361
16734.227
16719.817
16702.789
16682.765
16659.335
16632.047
16600.415
16563.909
16521.955
16473.932
16419.171
16356.953
16286.506
16206.993
16117.512
16017.087
15904.681
15779.161
15639.324
15483.864
15311.542
15119.355
16812.788
16812.787
16812.787
16812.785
16812.783
16812.781
16812.778
16812.773
16812.768
16812.762
16812.753
16812.743
16812.731
16812.715
16812.695
16812.671
16812.641
16812.603
16812.557
16812.498
16812.424
16812.332
16812.216
16812.069
16811.882
16811.646
16811.344
16810.961
16810.471
16809.849
16809.057
16808.052
16806.781
16805.181
16803.175
16800.672
16797.568
16793.741
16789.048
16783.326
16776.39
16768.027
16757.994
16746.021
16731.802
16715.001
16695.248
16672.136
16645.223
16614.025
16578.02
16536.639
16489.268
16435.247
16373.865
16304.359
16225.902
16137.606
16038.509
15927.591
15803.73
15665.742
15512.339
15342.341
15152.525
16824.776
16824.775
16824.774
16824.773
16824.771
16824.769
16824.766
16824.761
16824.756
16824.75
16824.742
16824.731
16824.719
16824.704
16824.684
16824.66
16824.63
16824.593
16824.546
16824.488
16824.415
16824.323
16824.208
16824.062
16823.876
16823.641
16823.342
16822.961
16822.476
16821.86
16821.076
16820.083
16818.829
16817.248
16815.268
16812.8
16809.737
16805.961
16801.333
16795.693
16788.856
16780.614
16770.728
16758.931
16744.923
16728.374
16708.919
16686.159
16659.657
16628.939
16593.484
16552.732
16506.078
16452.87
16392.406
16323.934
16246.638
16159.645
16062.01
15952.728
15830.691
15694.73
15543.582
15376.13
15188.914
16837.846
16837.846
16837.845
16837.844
16837.842
16837.84
16837.836
16837.832
16837.827
16837.821
16837.813
16837.803
16837.79
16837.775
16837.756
16837.732
16837.702
16837.665
16837.618
16837.561
16837.488
16837.397
16837.281
16837.136
16836.951
16836.717
16836.42
16836.042
16835.561
16834.951
16834.177
16833.196
16831.957
16830.399
16828.447
16826.012
16822.994
16819.276
16814.718
16809.166
16802.438
16794.328
16784.603
16772.999
16759.223
16742.95
16723.823
16701.45
16675.4
16645.204
16610.351
16570.288
16524.418
16472.099
16412.639
16345.295
16269.271
16183.705
16087.671
15980.175
15860.13
15726.377
15577.687
15413.014
15228.631
16852.042
16852.042
16852.041
16852.04
16852.038
16852.035
16852.032
16852.028
16852.023
16852.017
16852.009
16851.999
16851.986
16851.971
16851.952
16851.928
16851.899
16851.861
16851.815
16851.757
16851.684
16851.593
16851.478
16851.333
16851.148
16850.915
16850.62
16850.244
16849.768
16849.163
16848.397
16847.429
16846.207
16844.67
16842.746
16840.35
16837.381
16833.722
16829.242
16823.784
16817.174
16809.209
16799.658
16788.266
16774.744
16758.774
16740.006
16718.054
16692.497
16662.87
16628.674
16589.361
16544.344
16492.991
16434.623
16368.51
16293.869
16209.86
16115.567
16010.015
15892.129
15760.773
15614.75
15453.094
15271.781
16867.406
16867.405
16867.405
16867.403
16867.402
16867.399
16867.396
16867.392
16867.387
16867.381
16867.373
16867.363
16867.351
16867.335
16867.316
16867.292
16867.262
16867.225
16867.178
16867.119
16867.046
16866.955
16866.839
16866.694
16866.509
16866.277
16865.983
16865.61
16865.137
16864.538
16863.781
16862.823
16861.618
16860.104
16858.21
16855.853
16852.934
16849.342
16844.944
16839.59
16833.107
16825.297
16815.938
16804.776
16791.53
16775.891
16757.514
16736.021
16710.997
16681.99
16648.503
16610.004
16565.912
16515.606
16458.42
16393.641
16320.504
16238.183
16145.776
16042.326
15926.773
15798.007
15654.866
15496.468
15318.469
16883.971
16883.971
16883.97
16883.969
16883.967
16883.966
16883.963
16883.959
16883.954
16883.947
16883.939
16883.929
16883.917
16883.901
16883.882
16883.857
16883.827
16883.789
16883.742
16883.683
16883.61
16883.517
16883.401
16883.255
16883.072
16882.84
16882.546
16882.176
16881.707
16881.114
16880.365
16879.42
16878.231
16876.74
16874.877
16872.562
16869.697
16866.174
16861.865
16856.622
16850.277
16842.637
16833.483
16822.571
16809.626
16794.345
16776.392
16755.395
16730.95
16702.611
16669.893
16632.271
16589.176
16540
16484.091
16420.756
16349.245
16268.746
16178.375
16077.184
15964.144
15838.164
15698.125
15543.233
15368.796
16901.765
16901.765
16901.764
16901.763
16901.762
16901.759
16901.756
16901.752
16901.747
16901.741
16901.733
16901.723
16901.71
16901.695
16901.675
16901.651
16901.62
16901.582
16901.535
16901.475
16901.401
16901.309
16901.193
16901.047
16900.864
16900.633
16900.342
16899.975
16899.512
16898.926
16898.187
16897.255
16896.085
16894.619
16892.79
16890.518
16887.711
16884.263
16880.049
16874.925
16868.727
16861.268
16852.338
16841.696
16829.076
16814.182
16796.686
16776.225
16752.402
16724.783
16692.891
16656.212
16614.188
16566.226
16511.696
16449.918
16380.158
16301.619
16213.429
16114.665
16004.318
15881.328
15744.616
15593.485
15422.858
16920.801
16920.801
16920.801
16920.8
16920.798
16920.796
16920.793
16920.789
16920.784
16920.778
16920.77
16920.76
16920.748
16920.732
16920.712
16920.688
16920.658
16920.62
16920.573
16920.514
16920.441
16920.349
16920.234
16920.09
16919.909
16919.681
16919.394
16919.033
16918.576
16918
16917.274
16916.361
16915.212
16913.775
16911.983
16909.761
16907.018
16903.65
16899.537
16894.54
16888.5
16881.237
16872.546
16862.195
16849.925
16835.447
16818.442
16798.556
16775.402
16748.553
16717.545
16681.873
16640.996
16594.341
16541.293
16481.192
16413.307
16336.866
16251.01
16154.842
16047.377
15927.583
15794.425
15647.313
15480.748
16941.091
16941.091
16941.091
16941.09
16941.089
16941.087
16941.084
16941.08
16941.075
16941.069
16941.062
16941.052
16941.04
16941.025
16941.006
16940.982
16940.953
16940.916
16940.87
16940.813
16940.742
16940.652
16940.541
16940.4
16940.224
16940.001
16939.722
16939.368
16938.923
16938.361
16937.652
16936.76
16935.64
16934.238
16932.491
16930.325
16927.652
16924.372
16920.369
16915.509
16909.64
16902.586
16894.152
16884.112
16872.217
16858.185
16841.705
16822.435
16799.994
16773.965
16743.896
16709.298
16669.652
16624.399
16572.945
16514.63
16448.754
16374.55
16291.186
16197.787
16093.395
15977.007
15847.636
15704.805
15542.552
16962.651
16962.651
16962.651
16962.65
16962.649
16962.647
16962.644
16962.641
16962.637
16962.631
16962.624
16962.615
16962.604
16962.589
16962.572
16962.55
16962.522
16962.487
16962.444
16962.39
16962.322
16962.237
16962.13
16961.996
16961.826
16961.613
16961.343
16961.002
16960.571
16960.027
16959.341
16958.476
16957.39
16956.031
16954.337
16952.236
16949.644
16946.463
16942.581
16937.871
16932.186
16925.358
16917.199
16907.492
16895.996
16882.439
16866.52
16847.901
16826.212
16801.052
16771.982
16738.535
16700.204
16656.457
16606.696
16550.293
16486.553
16414.731
16334.02
16243.569
16142.447
16029.677
15904.328
15766.047
15608.354
16985.506
16985.506
16985.506
16985.505
16985.504
16985.503
16985.501
16985.498
16985.494
16985.489
16985.483
16985.474
16985.464
16985.452
16985.436
16985.415
16985.39
16985.358
16985.319
16985.269
16985.206
16985.126
16985.027
16984.9
16984.74
16984.538
16984.28
16983.955
16983.542
16983.02
16982.36
16981.528
16980.482
16979.172
16977.54
16975.514
16973.014
16969.945
16966.2
16961.655
16956.169
16949.585
16941.72
16932.368
16921.298
16908.244
16892.913
16874.979
16854.087
16829.848
16801.846
16769.627
16732.705
16690.553
16642.6
16588.226
16526.756
16457.468
16379.576
16292.256
16194.602
16085.669
15964.577
15831.117
15678.232
17009.695
17009.695
17009.695
17009.694
17009.693
17009.692
17009.69
17009.687
17009.684
17009.68
17009.674
17009.667
17009.658
17009.647
17009.633
17009.615
17009.592
17009.564
17009.528
17009.483
17009.425
17009.352
17009.259
17009.142
17008.992
17008.802
17008.559
17008.25
17007.858
17007.36
17006.73
17005.935
17004.935
17003.682
17002.118
17000.178
16997.78
16994.836
16991.24
16986.876
16981.609
16975.288
16967.74
16958.767
16948.144
16935.619
16920.907
16903.698
16883.649
16860.392
16833.529
16802.615
16767.188
16726.732
16680.697
16628.476
16569.417
16502.817
16427.915
16343.912
16249.931
16145.053
16028.455
15900.096
15752.261
17035.257
17035.257
17035.257
17035.256
17035.256
17035.255
17035.253
17035.251
17035.248
17035.244
17035.24
17035.233
17035.225
17035.215
17035.203
17035.187
17035.166
17035.141
17035.108
17035.066
17035.014
17034.946
17034.861
17034.752
17034.612
17034.433
17034.205
17033.913
17033.542
17033.071
17032.472
17031.718
17030.767
17029.575
17028.087
17026.239
17023.954
17021.146
17017.715
17013.548
17008.518
17002.48
16995.268
16986.695
16976.546
16964.578
16950.523
16934.08
16914.928
16892.718
16867.057
16837.53
16803.685
16765.03
16721.025
16671.087
16614.582
16550.83
16479.093
16398.599
16308.497
16207.897
16096.033
15973.056
15830.52
17062.225
17062.225
17062.225
17062.224
17062.224
17062.223
17062.221
17062.219
17062.217
17062.213
17062.209
17062.203
17062.196
17062.187
17062.175
17062.16
17062.141
17062.117
17062.087
17062.048
17061.999
17061.936
17061.856
17061.753
17061.621
17061.453
17061.238
17060.963
17060.613
17060.169
17059.605
17058.892
17057.994
17056.869
17055.462
17053.714
17051.55
17048.888
17045.633
17041.678
17036.9
17031.162
17024.309
17016.161
17006.514
16995.138
16981.777
16966.148
16947.951
16926.842
16902.456
16874.398
16842.229
16805.477
16763.621
16716.098
16662.296
16601.558
16533.167
16456.377
16370.367
16274.27
16167.378
16050.065
15913.089
17090.611
17090.611
17090.611
17090.611
17090.611
17090.61
17090.608
17090.606
17090.604
17090.6
17090.596
17090.591
17090.583
17090.574
17090.563
17090.548
17090.53
17090.507
17090.478
17090.441
17090.394
17090.334
17090.258
17090.16
17090.035
17089.876
17089.673
17089.414
17089.086
17088.668
17088.139
17087.471
17086.629
17085.574
17084.253
17082.609
17080.573
17078.067
17074.998
17071.266
17066.756
17061.339
17054.866
17047.17
17038.056
17027.307
17014.682
16999.918
16982.725
16962.783
16939.749
16913.24
16882.841
16848.1
16808.515
16763.545
16712.601
16655.047
16590.189
16517.306
16435.602
16344.237
16242.562
16131.197
16000.056
17120.41
17120.41
17120.41
17120.41
17120.409
17120.408
17120.406
17120.404
17120.401
17120.398
17120.394
17120.388
17120.381
17120.372
17120.361
17120.346
17120.328
17120.306
17120.277
17120.241
17120.195
17120.137
17120.064
17119.971
17119.852
17119.702
17119.511
17119.268
17118.961
17118.572
17118.08
17117.458
17116.676
17115.693
17114.462
17112.928
17111.026
17108.68
17105.807
17102.312
17098.086
17093.009
17086.941
17079.724
17071.175
17061.09
17049.244
17035.393
17019.263
17000.556
16978.945
16954.072
16925.542
16892.921
16855.734
16813.46
16765.533
16711.34
16650.209
16581.442
16504.268
16417.868
16321.661
16216.54
16091.508
17151.601
17151.601
17151.6
17151.6
17151.599
17151.598
17151.596
17151.594
17151.592
17151.589
17151.584
17151.578
17151.571
17151.562
17151.551
17151.537
17151.519
17151.497
17151.469
17151.434
17151.39
17151.335
17151.265
17151.177
17151.065
17150.925
17150.747
17150.522
17150.238
17149.878
17149.425
17148.852
17148.131
17147.224
17146.087
17144.667
17142.904
17140.728
17138.06
17134.814
17130.888
17126.171
17120.531
17113.82
17105.868
17096.484
17085.465
17072.578
17057.567
17040.161
17020.052
16996.903
16970.341
16939.956
16905.297
16865.868
16821.123
16770.476
16713.276
16648.843
16576.43
16495.235
16404.758
16306.202
16187.549
17184.161
17184.161
17184.161
17184.161
17184.16
17184.159
17184.157
17184.155
17184.153
17184.15
17184.145
17184.14
17184.133
17184.124
17184.114
17184.1
17184.083
17184.062
17184.036
17184.003
17183.962
17183.911
17183.845
17183.764
17183.661
17183.532
17183.369
17183.164
17182.905
17182.579
17182.167
17181.646
17180.99
17180.161
17179.121
17177.82
17176.202
17174.202
17171.75
17168.764
17165.155
17160.815
17155.627
17149.45
17142.127
17133.487
17123.336
17111.462
17097.634
17081.598
17063.07
17041.735
17017.245
16989.215
16957.218
16920.785
16879.396
16832.488
16779.432
16719.567
16652.162
16576.424
16491.918
16400.2
16288.428
17218.073
17218.073
17218.073
17218.072
17218.072
17218.071
17218.069
17218.067
17218.065
17218.062
17218.058
17218.054
17218.047
17218.04
17218.03
17218.018
17218.003
17217.984
17217.961
17217.931
17217.895
17217.848
17217.791
17217.718
17217.627
17217.511
17217.367
17217.184
17216.954
17216.663
17216.295
17215.829
17215.239
17214.493
17213.553
17212.374
17210.905
17209.09
17206.863
17204.152
17200.874
17196.932
17192.218
17186.602
17179.943
17172.081
17162.842
17152.035
17139.451
17124.855
17107.989
17088.562
17066.25
17040.695
17011.5
16978.223
16940.371
16897.406
16848.72
16793.673
16731.546
16661.524
16583.178
16498.774
16394.215
17253.323
17253.323
17253.323
17253.323
17253.322
17253.322
17253.32
17253.319
17253.317
17253.315
17253.311
17253.307
17253.303
17253.296
17253.288
17253.278
17253.266
17253.25
17253.231
17253.206
17253.175
17253.136
17253.088
17253.026
17252.948
17252.849
17252.725
17252.568
17252.368
17252.114
17251.793
17251.383
17250.861
17250.198
17249.36
17248.308
17246.995
17245.371
17243.38
17240.957
17238.025
17234.501
17230.281
17225.253
17219.287
17212.242
17203.962
17194.277
17182.998
17169.915
17154.792
17137.367
17117.342
17094.388
17068.138
17038.183
17004.058
16965.25
16921.178
16871.219
16814.653
16750.587
16678.696
16602.032
16505.023
17289.899
17289.899
17289.899
17289.899
17289.899
17289.898
17289.897
17289.896
17289.895
17289.893
17289.89
17289.888
17289.884
17289.879
17289.874
17289.866
17289.857
17289.845
17289.831
17289.812
17289.788
17289.758
17289.719
17289.67
17289.608
17289.527
17289.424
17289.293
17289.125
17288.91
17288.634
17288.28
17287.827
17287.249
17286.515
17285.592
17284.442
17283.019
17281.275
17279.151
17276.582
17273.491
17269.788
17265.373
17260.132
17253.942
17246.666
17238.155
17228.245
17216.747
17203.452
17188.125
17170.498
17150.273
17127.117
17100.654
17070.455
17036.036
16996.841
16952.258
16901.552
16843.826
16778.582
16710.087
16621.2
17327.79
17327.79
17327.79
17327.789
17327.789
17327.789
17327.788
17327.788
17327.787
17327.785
17327.784
17327.782
17327.78
17327.777
17327.773
17327.769
17327.763
17327.755
17327.745
17327.733
17327.716
17327.695
17327.666
17327.629
17327.581
17327.519
17327.437
17327.331
17327.193
17327.014
17326.783
17326.484
17326.099
17325.606
17324.98
17324.192
17323.21
17321.996
17320.508
17318.697
17316.505
17313.863
17310.698
17306.921
17302.437
17297.139
17290.913
17283.632
17275.153
17265.313
17253.93
17240.797
17225.68
17208.316
17188.406
17165.615
17139.551
17109.766
17075.726
17036.829
16992.388
16941.362
16883.072
16823.136
16743.103
17366.967
17366.968
17366.968
17366.967
17366.967
17366.967
17366.967
17366.966
17366.966
17366.965
17366.965
17366.963
17366.963
17366.961
17366.959
17366.957
17366.954
17366.95
17366.944
17366.937
17366.926
17366.912
17366.893
17366.867
17366.831
17366.784
17366.721
17366.637
17366.527
17366.382
17366.193
17365.948
17365.631
17365.225
17364.71
17364.062
17363.254
17362.257
17361.034
17359.546
17357.742
17355.568
17352.96
17349.847
17346.149
17341.783
17336.653
17330.655
17323.669
17315.561
17306.173
17295.332
17282.839
17268.469
17251.963
17233.027
17211.314
17186.41
17157.833
17125.011
17087.241
17043.425
16992.607
16941.578
16871.017
17407.393
17407.392
17407.392
17407.392
17407.392
17407.392
17407.391
17407.391
17407.391
17407.391
17407.39
17407.39
17407.389
17407.389
17407.388
17407.387
17407.386
17407.383
17407.38
17407.376
17407.369
17407.36
17407.347
17407.328
17407.302
17407.267
17407.218
17407.153
17407.066
17406.953
17406.805
17406.612
17406.364
17406.046
17405.643
17405.138
17404.511
17403.736
17402.787
17401.631
17400.228
17398.538
17396.508
17394.083
17391.205
17387.808
17383.821
17379.159
17373.73
17367.423
17360.115
17351.665
17341.91
17330.666
17317.721
17302.82
17285.677
17265.937
17243.162
17216.816
17186.238
17150.287
17107.812
17066.037
17004.938
17448.99
17448.99
17448.989
17448.989
17448.989
17448.989
17448.988
17448.988
17448.988
17448.987
17448.987
17448.987
17448.986
17448.986
17448.985
17448.984
17448.983
17448.982
17448.98
17448.977
17448.972
17448.965
17448.955
17448.941
17448.921
17448.893
17448.857
17448.808
17448.743
17448.659
17448.55
17448.41
17448.231
17448.004
17447.716
17447.358
17446.914
17446.368
17445.699
17444.884
17443.895
17442.702
17441.27
17439.56
17437.532
17435.144
17432.343
17429.071
17425.257
17420.822
17415.674
17409.706
17402.801
17394.819
17385.593
17374.926
17362.583
17348.275
17331.656
17312.267
17289.505
17262.256
17229.358
17196.663
17145.748
17491.673
17491.673
17491.672
17491.672
17491.671
17491.671
17491.671
17491.67
17491.67
17491.669
17491.668
17491.668
17491.666
17491.665
17491.664
17491.663
17491.662
17491.66
17491.657
17491.653
17491.648
17491.641
17491.632
17491.621
17491.604
17491.582
17491.554
17491.518
17491.473
17491.417
17491.347
17491.26
17491.153
17491.016
17490.846
17490.636
17490.38
17490.066
17489.684
17489.22
17488.658
17487.978
17487.163
17486.193
17485.048
17483.704
17482.134
17480.299
17478.16
17475.667
17472.761
17469.375
17465.434
17460.848
17455.504
17449.258
17441.951
17433.364
17423.242
17411.265
17396.959
17379.448
17357.746
17335.524
17297.223
17537.258
17537.257
17537.257
17537.257
17537.256
17537.255
17537.254
17537.254
17537.252
17537.251
17537.25
17537.248
17537.246
17537.244
17537.242
17537.239
17537.236
17537.232
17537.227
17537.222
17537.215
17537.206
17537.196
17537.183
17537.168
17537.149
17537.128
17537.104
17537.078
17537.049
17537.017
17536.984
17536.947
17536.907
17536.864
17536.816
17536.764
17536.705
17536.637
17536.556
17536.459
17536.341
17536.202
17536.043
17535.861
17535.655
17535.421
17535.148
17534.824
17534.434
17533.959
17533.376
17532.657
17531.765
17530.646
17529.227
17527.415
17525.096
17522.115
17518.305
17513.402
17506.923
17498.872
17491.516
17477.445
17585.213
17585.213
17585.212
17585.211
17585.21
17585.209
17585.208
17585.207
17585.206
17585.204
17585.202
17585.2
17585.197
17585.194
17585.19
17585.186
17585.181
17585.175
17585.169
17585.161
17585.152
17585.141
17585.129
17585.117
17585.102
17585.088
17585.075
17585.065
17585.06
17585.061
17585.073
17585.098
17585.141
17585.206
17585.297
17585.423
17585.592
17585.808
17586.075
17586.403
17586.802
17587.284
17587.868
17588.573
17589.42
17590.428
17591.618
17593.008
17594.618
17596.471
17598.591
17601.002
17603.727
17606.784
17610.185
17613.935
17618.023
17622.441
17627.156
17632.164
17637.442
17642.933
17649.151
17657.182
17663.223
17633.072
17633.072
17633.071
17633.07
17633.069
17633.068
17633.067
17633.065
17633.064
17633.062
17633.06
17633.057
17633.055
17633.052
17633.048
17633.044
17633.039
17633.034
17633.027
17633.02
17633.013
17633.003
17632.994
17632.985
17632.977
17632.972
17632.972
17632.979
17632.998
17633.033
17633.09
17633.175
17633.295
17633.46
17633.681
17633.973
17634.35
17634.826
17635.419
17636.15
17637.042
17638.124
17639.432
17641.002
17642.878
17645.1
17647.715
17650.771
17654.323
17658.43
17663.161
17668.587
17674.782
17681.822
17689.784
17698.752
17708.806
17720.039
17732.551
17746.489
17762.011
17779.378
17799.183
17822.086
17847.665
17680.63
17680.629
17680.629
17680.628
17680.627
17680.626
17680.625
17680.624
17680.622
17680.621
17680.619
17680.617
17680.615
17680.612
17680.61
17680.607
17680.603
17680.599
17680.595
17680.591
17680.586
17680.581
17680.577
17680.574
17680.575
17680.581
17680.595
17680.622
17680.665
17680.733
17680.833
17680.975
17681.17
17681.434
17681.784
17682.238
17682.821
17683.556
17684.471
17685.6
17686.979
17688.657
17690.683
17693.115
17696.013
17699.444
17703.478
17708.194
17713.682
17720.041
17727.381
17735.822
17745.489
17756.517
17769.049
17783.245
17799.277
17817.341
17837.658
17860.512
17886.223
17915.263
17948.331
17986.273
18030.268
17727.661
17727.66
17727.66
17727.659
17727.658
17727.657
17727.656
17727.655
17727.654
17727.653
17727.652
17727.651
17727.65
17727.649
17727.648
17727.647
17727.646
17727.645
17727.644
17727.644
17727.645
17727.646
17727.65
17727.657
17727.669
17727.689
17727.72
17727.768
17727.84
17727.945
17728.091
17728.294
17728.569
17728.935
17729.412
17730.029
17730.817
17731.807
17733.042
17734.565
17736.43
17738.697
17741.437
17744.722
17748.633
17753.26
17758.7
17765.064
17772.475
17781.073
17791.009
17802.449
17815.57
17830.566
17847.647
17867.049
17889.031
17913.888
17941.956
17973.649
18009.446
18049.997
18096.16
18149.053
18210.302
17773.985
17773.984
17773.983
17773.983
17773.982
17773.981
17773.981
17773.981
17773.98
17773.98
17773.98
17773.98
17773.98
17773.981
17773.982
17773.983
17773.985
17773.988
17773.991
17773.996
17774.003
17774.012
17774.024
17774.042
17774.067
17774.103
17774.154
17774.228
17774.331
17774.476
17774.675
17774.943
17775.3
17775.767
17776.375
17777.155
17778.146
17779.392
17780.944
17782.858
17785.203
17788.055