/*--------------------------------*- C++ -*----------------------------------*\
  =========                 |
  \\      /  F ield         | OpenFOAM: The Open Source CFD Toolbox
   \\    /   O peration     | Website:  https://openfoam.org
    \\  /    A nd           | Version:  13
     \\/     M anipulation  |
\*---------------------------------------------------------------------------*/
FoamFile
{
    format      ascii;
    class       volSymmTensorField;
    location    "42.49892";
    object      UPrime2Mean;
}
// * * * * * * * * * * * * * * * * * * * * * * * * * * * * * * * * * * * * * //

dimensions      [0 2 -2 0 0 0 0];

internalField   nonuniform List<symmTensor> 
17140
(
(5.3498438e-12 -2.9460691e-10 -1.1321988e-27 1.7769347e-08 1.4459306e-26 7.0672586e-41)
(5.8672548e-10 -6.6751488e-09 -4.7037579e-28 1.6905429e-07 2.8450018e-27 6.0603982e-43)
(5.1903091e-09 -3.1150927e-08 7.541533e-26 5.1269354e-07 -2.8503279e-25 2.6409411e-39)
(2.4265528e-08 -9.3390488e-08 -1.5925064e-25 1.1021395e-06 4.2670668e-25 3.1901443e-39)
(8.0842622e-08 -2.2165732e-07 3.1649825e-26 2.0009459e-06 -6.4655124e-26 4.3571797e-41)
(2.2083914e-07 -4.5719211e-07 -1.6362337e-25 3.283676e-06 2.6652511e-25 4.6635846e-40)
(5.2928448e-07 -8.5807522e-07 -4.1498602e-25 5.0365935e-06 5.5271916e-25 1.3206125e-39)
(1.1555362e-06 -1.5038684e-06 2.9488749e-25 7.3579196e-06 -3.262709e-25 3.1440201e-40)
(2.3518302e-06 -2.5009546e-06 1.3711341e-24 1.0357404e-05 -1.2745641e-24 3.3636647e-39)
(4.5306786e-06 -3.9881261e-06 4.6822443e-24 1.4154958e-05 -3.6873121e-24 2.0201165e-38)
(8.3482532e-06 -6.1417838e-06 -9.5112757e-24 1.887802e-05 6.3866388e-24 4.4326289e-38)
(1.4822467e-05 -9.1797523e-06 1.1463161e-23 2.4657343e-05 -6.5970475e-24 3.5113704e-38)
(2.5495675e-05 -1.3362264e-05 2.3489217e-24 3.162093e-05 -1.1633468e-24 8.2005221e-40)
(4.2652021e-05 -1.8988186e-05 -1.7583027e-23 3.988594e-05 7.5192919e-24 2.6131354e-38)
(6.9597669e-05 -2.6384271e-05 2.5662315e-24 4.9548642e-05 -9.5002304e-25 3.2065542e-40)
(0.00011100733 -3.5885261e-05 -2.6497088e-23 6.0672771e-05 8.5104071e-24 2.0009858e-38)
(0.00017333162 -4.780353e-05 1.2714621e-24 7.3277078e-05 -3.5480062e-25 2.753449e-41)
(0.0002652466 -6.2388879e-05 -3.7391669e-25 8.7323198e-05 9.0797519e-26 1.368249e-42)
(0.00039811114 -7.9782528e-05 -3.3214895e-23 0.00010270529 7.0215688e-24 6.8217438e-39)
(0.00058638417 -9.9973902e-05 5.4382639e-23 0.00011924277 -1.0017626e-23 1.1323661e-38)
(0.00084794989 -0.00012277335 -3.2823574e-23 0.00013667712 5.2706421e-24 2.5856107e-39)
(0.0012043138 -0.00014781552 7.7215819e-24 0.00015467313 -1.0822703e-24 9.2428772e-41)
(0.0016807379 -0.00017460804 7.0006959e-23 0.00017282487 -8.5501816e-24 4.9084695e-39)
(0.0023066056 -0.00020263225 -8.4688241e-23 0.00019066802 9.0208652e-24 4.7592219e-39)
(0.0031152396 -0.00023141229 -1.6155068e-22 0.00020770465 1.4998203e-23 1.1738232e-38)
(0.0041441519 -0.00026047988 1.5362806e-22 0.00022344108 -1.242981e-23 7.3697958e-39)
(0.0054379819 -0.00028966629 8.863589e-22 0.00023740929 -6.2385339e-23 1.7283997e-37)
(0.007050351 -0.00031877125 1.2192538e-22 0.00024920525 -7.4473236e-24 2.3349421e-39)
(0.0090434603 -0.00034727331 -1.2305245e-21 0.00025852953 6.5153066e-23 1.7561248e-37)
(0.011490366 -0.00037490073 -3.3092836e-22 0.00026523683 1.5124067e-23 9.3990806e-39)
(0.014478036 -0.00040132172 -1.3465876e-21 0.00026938417 5.294138e-23 1.1762198e-37)
(0.018107993 -0.00042590169 2.0113045e-21 0.000271269 -6.773205e-23 2.0102984e-37)
(0.022497115 -0.00044783062 -5.9413946e-22 0.00027140737 1.7035021e-23 1.351058e-38)
(0.027777461 -0.00046609258 -3.1898726e-22 0.00027040951 7.7474402e-24 3.0641091e-39)
(0.034094806 -0.00047941056 -3.5297112e-21 0.00026881749 7.1842922e-23 2.9502347e-37)
(0.041605408 -0.00048614566 1.7272685e-21 0.00026702318 -2.9213091e-23 5.6767141e-38)
(0.050470046 -0.00048418431 -2.9036305e-21 0.00026529267 4.0182442e-23 1.2901948e-37)
(0.060843854 -0.00047083998 -2.1784003e-21 0.00026385033 2.421891e-23 5.9208335e-38)
(0.072860081 -0.00044275708 -1.1010926e-21 0.00026298757 9.5778067e-24 1.2438895e-38)
(0.08660625 -0.00039587219 3.6495059e-21 0.00026315175 -2.3946717e-23 1.1441427e-37)
(0.10209247 -0.0003255926 7.5120577e-21 0.00026500464 -3.4968619e-23 4.0747033e-37)
(0.11921204 -0.00022715834 7.3815729e-21 0.0002694211 -2.182927e-23 3.3484126e-37)
(0.13769941 -9.6511416e-05 3.4642013e-21 0.00027742768 -4.9756851e-24 6.3558692e-38)
(0.15710712 6.8872874e-05 -1.8072629e-20 0.00029020145 1.2273231e-24 1.4957949e-36)
(0.17678479 0.00026816278 -1.4035509e-20 0.00030916195 -1.6491949e-23 7.9280454e-37)
(0.19592257 0.00049348657 3.6324453e-21 0.00033605761 8.3918162e-24 4.7355857e-38)
(0.21370762 0.0007366268 -2.5838206e-20 0.00037323903 -8.6814668e-23 2.1600042e-36)
(0.22921125 0.0009882703 -9.1088472e-21 0.00042393528 -3.9494975e-23 2.4544645e-37)
(0.24160281 0.0012384455 9.5536886e-21 0.00049249748 5.0207926e-23 2.5064111e-37)
(0.25035415 0.0014766348 2.3885378e-20 0.00058506297 1.4613941e-22 1.4757799e-36)
(0.25510795 0.0016949798 -1.4897497e-20 0.00071066056 -1.0311709e-22 5.4950044e-37)
(0.25564461 0.0018953105 -9.4498414e-21 0.000883065 -7.2362717e-23 2.1493257e-37)
(0.25203017 0.0021018216 2.4585429e-20 0.0011206649 2.059382e-22 1.4341967e-36)
(0.24466446 0.0023213328 1.1502846e-20 0.0014482928 1.0374149e-22 3.1439474e-37)
(0.23435899 0.002536393 8.0506572e-21 0.0018987092 7.6669373e-23 1.5680807e-37)
(0.22237341 0.0027283781 -6.1915359e-21 0.0025191887 -6.0889907e-23 9.5130757e-38)
(0.21016728 0.0028553976 1.613134e-20 0.0033775137 1.565874e-22 6.8108509e-37)
(0.1989269 0.0028388929 1.2976406e-20 0.004599235 1.1821869e-22 4.6802052e-37)
(0.18962337 0.0025795302 3.0994944e-21 0.0064148581 2.4321007e-23 2.8976566e-38)
(0.18232284 0.0020574189 -7.5875659e-21 0.0092579434 -4.7651433e-23 1.9036501e-37)
(0.17603674 0.0015445847 -5.5395478e-21 0.013456826 -2.8997318e-23 1.156196e-37)
(0.16972444 0.0013155133 -1.8922718e-20 0.018245006 -1.363111e-22 1.5727281e-36)
(0.15981317 0.00089755019 -2.5027344e-21 0.021964375 -3.2830825e-23 3.3691643e-38)
(0.14874244 0.00033172922 1.8784821e-20 0.023669011 4.0894309e-22 2.3787314e-36)
(0.12949311 0.00012036001 -1.2411245e-20 0.025062726 -4.0484983e-22 1.4212525e-36)
(3.6513512e-10 -8.5405041e-09 1.3409155e-27 1.9979818e-07 -2.5460565e-26 5.7233107e-42)
(5.8239114e-09 -1.0457175e-07 -4.0962186e-25 1.8867332e-06 6.2030888e-24 7.2719899e-38)
(2.6162452e-08 -3.8344449e-07 6.8701275e-25 5.6827806e-06 -8.4290313e-24 5.7563243e-38)
(8.1480232e-08 -9.850956e-07 -3.0766362e-25 1.2124648e-05 3.1266253e-24 4.2759805e-39)
(2.0827765e-07 -2.1063574e-06 -9.7454199e-25 2.1827114e-05 8.3627132e-24 1.8236226e-38)
(4.7148944e-07 -4.0282397e-06 2.7353985e-24 3.5478543e-05 -2.0108562e-23 6.6532747e-38)
(9.8207084e-07 -7.1408563e-06 -4.0653635e-24 5.3829741e-05 2.5824705e-23 7.2228812e-38)
(1.9236462e-06 -1.1973196e-05 4.9903749e-25 7.7672483e-05 -2.7546064e-24 5.5880685e-40)
(3.5924999e-06 -1.9228033e-05 -2.1362933e-24 0.00010780472 1.0286496e-23 5.4388292e-39)
(6.4560543e-06 -2.9819194e-05 -4.9344119e-26 0.00014497937 2.0805253e-25 1.551083e-42)
(1.1236558e-05 -4.490774e-05 -1.2902636e-23 0.00018983381 4.76654e-23 6.0382253e-38)
(1.9028147e-05 -6.593148e-05 2.7160589e-23 0.00024279911 -8.8155324e-23 1.5202404e-37)
(3.1456487e-05 -9.461948e-05 2.9491897e-24 0.00030399079 -8.4228447e-24 1.0333872e-39)
(5.0890184e-05 -0.00013298013 -3.798645e-23 0.0003730875 9.5572832e-23 1.0020832e-37)
(8.071144e-05 -0.00018324925 1.511831e-23 0.00044921075 -3.3536337e-23 9.3961234e-39)
(0.00012564885 -0.00024778426 1.2368785e-23 0.00053082698 -2.4203945e-23 3.760166e-39)
(0.000192167 -0.00032889443 -1.0046691e-22 0.00061570143 1.7347203e-22 1.4983694e-37)
(0.00028889551 -0.00042860759 4.1596101e-22 0.00070093953 -6.3377401e-22 1.5708838e-36)
(0.00042706567 -0.00054839256 -3.286385e-22 0.00078314906 4.4180764e-22 6.0669285e-37)
(0.00062091089 -0.00068888438 4.9308996e-22 0.00085874252 -5.8477429e-22 8.5544325e-37)
(0.00088798423 -0.00084968944 -9.0405826e-22 0.00092436739 9.4565886e-22 1.8287292e-36)
(0.00124936 -0.0010293666 2.7253718e-22 0.00097740469 -2.5141014e-22 1.0738699e-37)
(0.0017297829 -0.0012256907 1.3665714e-22 0.0010164248 -1.1116954e-22 1.7771597e-38)
(0.0023580483 -0.0014362716 -5.3935218e-22 0.0010414616 3.867757e-22 1.8477632e-37)
(0.0031669501 -0.0016591629 2.3135213e-21 0.0010540036 -1.4628297e-21 2.3236392e-36)
(0.0041933407 -0.0018932996 4.0918429e-22 0.0010565526 -2.2793923e-22 5.0279578e-38)
(0.0054810689 -0.0021390449 -2.4744545e-21 0.0010515757 1.2156265e-21 1.3145267e-36)
(0.0070830845 -0.0023978142 3.2252605e-21 0.0010412197 -1.3951551e-21 1.611812e-36)
(0.0090606138 -0.0026709403 -5.0878084e-22 0.0010274203 1.9381014e-22 2.9836557e-38)
(0.011485508 -0.0029601673 -5.7475796e-21 0.0010114896 1.9195085e-21 2.8048037e-36)
(0.014443247 -0.0032670942 6.7765809e-22 0.00099409493 -1.9843591e-22 2.9728141e-38)
(0.01803351 -0.0035923198 5.928477e-21 0.00097552171 -1.5161671e-21 1.7249127e-36)
(0.022370867 -0.0039352271 1.7424217e-22 0.00095586113 -3.8639998e-23 1.0843034e-39)
(0.027584518 -0.0042936533 -5.6430189e-21 0.00093507419 1.0970153e-21 9.4815141e-37)
(0.033816671 -0.0046635411 7.068532e-21 0.00091296502 -1.1953742e-21 1.179631e-36)
(0.041219141 -0.0050384149 -3.5645767e-21 0.00088916777 5.2344523e-22 2.3957488e-37)
(0.049947118 -0.0054085612 4.655798e-21 0.00086318477 -5.9305676e-22 3.3303964e-37)
(0.060148688 -0.0057599238 1.6450044e-20 0.00083448256 -1.8124016e-21 3.3835174e-36)
(0.07194833 -0.0060728654 4.0766709e-21 0.00080266354 -3.874601e-22 1.7058186e-37)
(0.08542276 -0.0063211854 1.7469332e-20 0.00076771978 -1.4278081e-21 2.6182889e-36)
(0.10056889 -0.0064719687 -2.4373734e-20 0.00073038115 1.7052545e-21 4.3098461e-36)
(0.11726442 -0.0064871384 -2.4376921e-20 0.00069255304 1.4507555e-21 3.6560828e-36)
(0.13522634 -0.0063275768 -4.5247763e-21 0.00065778425 2.2731669e-22 1.0702716e-37)
(0.15398455 -0.0059601115 3.841613e-20 0.00063166693 -1.6066756e-21 6.8247602e-36)
(0.17286296 -0.0053678445 -1.9396186e-20 0.00062200466 6.6588615e-22 1.519296e-36)
(0.19104456 -0.0045642115 -7.1050123e-21 0.00063802797 1.9612071e-22 1.8115321e-37)
(0.20764051 -0.0035822842 3.9506075e-21 0.00068748305 -8.4913174e-23 5.1514514e-38)
(0.22177555 -0.0024679062 1.2861122e-20 0.00077314031 -2.050796e-22 4.9536255e-37)
(0.23269682 -0.0012967998 -6.4762318e-21 0.00089393037 7.1255476e-23 1.169659e-37)
(0.23984682 -0.00013616396 1.2008877e-20 0.0010487175 -7.7426271e-23 3.7870677e-37)
(0.24291061 0.00097340309 7.3218544e-20 0.0012407615 -1.7185979e-22 1.3514169e-35)
(0.24179526 0.0019968728 3.5099705e-21 0.0014832332 5.1477799e-24 3.035539e-38)
(0.2367013 0.0028956048 -1.578212e-20 0.0017977641 -7.5703884e-23 6.0612795e-37)
(0.22818158 0.003616806 3.4745595e-20 0.0022126247 2.7646946e-22 2.9508527e-36)
(0.21726977 0.0040969559 -2.9128627e-20 0.0027618521 -3.1554517e-22 2.1154353e-36)
(0.2052808 0.0042969472 8.0536096e-20 0.0034891375 1.0739738e-21 1.6746088e-35)
(0.1937693 0.004207728 2.2238001e-20 0.0044542654 3.4658248e-22 1.340338e-36)
(0.18398326 0.0038047486 -6.0056697e-20 0.0057691723 -1.0350999e-21 1.0463918e-35)
(0.17678108 0.003121562 9.7384792e-21 0.0076336243 1.8627111e-22 2.9758735e-37)
(0.1720673 0.0022214657 1.0467481e-20 0.010410399 2.1458437e-22 3.8316303e-37)
(0.16838321 0.001444599 1.9536475e-21 0.014383591 4.6004604e-23 1.5295919e-38)
(0.16444312 0.00099502976 -2.3886736e-20 0.018916806 -7.423238e-22 2.686357e-36)
(0.15645717 0.00038612203 4.1689426e-20 0.022477283 1.7828104e-21 1.017865e-35)
(0.14708045 -0.00025088818 1.1056597e-20 0.023801762 6.4508633e-22 9.1191723e-37)
(0.12836594 -0.00078567904 1.5547156e-20 0.024870985 1.2162901e-21 2.5181098e-36)
(3.1041319e-09 -4.4325953e-08 1.9431968e-25 6.3296626e-07 -2.5749491e-24 1.7395935e-38)
(3.5337467e-08 -4.5951611e-07 -2.8421566e-25 5.9767986e-06 3.4469931e-24 6.6431328e-39)
(1.2550792e-07 -1.5025577e-06 -1.2694978e-25 1.8000591e-05 1.4002643e-24 4.696941e-40)
(3.1838193e-07 -3.4943999e-06 1.7989589e-25 3.8403989e-05 -1.806339e-24 4.2208994e-40)
(6.8357994e-07 -6.867012e-06 -1.2372363e-24 6.9132568e-05 1.133383e-23 9.9061743e-39)
(1.3308638e-06 -1.2209586e-05 -1.2693372e-25 0.00011236313 1.0627314e-24 5.4725718e-41)
(2.4302671e-06 -2.0311092e-05 -2.1839901e-24 0.00017046735 1.6702801e-23 8.9278032e-39)
(4.2412035e-06 -3.22097e-05 -3.1268699e-24 0.00024594279 2.1821217e-23 1.0352412e-38)
(7.1548902e-06 -4.9250742e-05 3.3553615e-23 0.00034129975 -2.1330212e-22 6.9057691e-37)
(1.1754037e-05 -7.3146243e-05 -3.9004619e-23 0.00045889484 2.2546881e-22 5.4956178e-37)
(1.8895933e-05 -0.00010603145 2.4133318e-23 0.0006007017 -1.2662433e-22 1.2558039e-37)
(2.9825914e-05 -0.00015050877 4.5474631e-23 0.00076801534 -2.1619317e-22 2.6886264e-37)
(4.6328838e-05 -0.00020966458 -1.1538706e-22 0.00096109486 4.9619204e-22 1.0535833e-36)
(7.0926051e-05 -0.0002870399 -1.8212843e-23 0.0011787645 7.0724266e-23 1.6071439e-38)
(0.00010712394 -0.0003865331 8.9206164e-23 0.0014180146 -3.122709e-22 2.3825713e-37)
(0.00015971602 -0.00051221171 7.7542628e-23 0.0016736727 -2.4428382e-22 1.1179421e-37)
(0.00023513379 -0.00066801757 -1.1318591e-22 0.0019382415 3.2034427e-22 1.4899363e-37)
(0.00034183162 -0.00085736714 5.1337109e-22 0.0022020244 -1.3031136e-21 1.9309139e-36)
(0.00049067966 -0.0010826808 -3.7795025e-22 0.0024536559 8.5898135e-22 6.6559127e-37)
(0.00069532947 -0.0013449222 2.3155112e-22 0.0026811126 -4.7040741e-22 1.6018273e-37)
(0.00097251621 -0.0016432792 -9.5951194e-22 0.0028731779 1.7398642e-21 1.7882148e-36)
(0.0013422731 -0.0019751542 -3.0441065e-22 0.003021178 4.9196151e-22 1.1847243e-37)
(0.0018281085 -0.0023366385 7.6760963e-22 0.0031206226 -1.1042809e-21 5.0390459e-37)
(0.0024574112 -0.0027236118 -1.384686e-21 0.0031722592 1.7708371e-21 1.1133701e-36)
(0.0032616838 -0.0031329663 -6.4852564e-22 0.0031821201 7.3623173e-22 1.682234e-37)
(0.0042761558 -0.0035632646 9.1311167e-22 0.0031600829 -9.2005478e-22 2.3671575e-37)
(0.0055428193 -0.004015681 6.0606509e-21 0.0031163465 -5.4080888e-21 7.4472655e-36)
(0.0071128748 -0.004493562 3.181016e-21 0.0030596499 -2.5101174e-21 1.4905341e-36)
(0.0090450745 -0.0050001722 -1.8190392e-21 0.0029970604 1.2686014e-21 3.6423789e-37)
(0.011408396 -0.0055393367 2.2432768e-21 0.0029334222 -1.3765871e-21 4.1030259e-37)
(0.014284549 -0.0061146042 -1.5841918e-21 0.0028710425 8.5632829e-22 1.5866755e-37)
(0.017768653 -0.0067277808 -1.024448e-20 0.0028102854 4.8530673e-21 5.0443891e-36)
(0.021969551 -0.0073783576 3.8794303e-21 0.0027502485 -1.6098088e-21 5.6330583e-37)
(0.027009347 -0.0080628992 1.3069481e-20 0.0026892723 -4.7425806e-21 5.0182858e-36)
(0.033021462 -0.0087744088 -4.8728468e-21 0.0026252384 1.5459473e-21 5.6077348e-37)
(0.04014678 -0.0095013768 -7.6653292e-21 0.0025557045 2.1205036e-21 1.1059473e-36)
(0.048526901 -0.010226264 1.4816915e-20 0.0024779476 -3.5712136e-21 3.3483258e-36)
(0.058292969 -0.01092344 5.0392677e-21 0.0023890593 -1.0562503e-21 3.1497025e-37)
(0.069548453 -0.01155685 -9.863487e-21 0.0022862546 1.796125e-21 1.008172e-36)
(0.0823444 -0.012078094 -4.341939e-21 0.0021675522 6.8497227e-22 1.64007e-37)
(0.096646813 -0.012426048 2.2915933e-20 0.0020329389 -3.119585e-21 3.8308985e-36)
(0.1122973 -0.012529657 -7.0169728e-21 0.0018861153 8.1966001e-22 3.1098108e-37)
(0.12897282 -0.012315376 -1.1032142e-20 0.0017364882 1.1009254e-21 6.5766035e-37)
(0.14615826 -0.011720859 -3.1762863e-20 0.0016008732 2.6817287e-21 4.7231688e-36)
(0.16314051 -0.010715923 6.4416698e-20 0.0015039706 -4.5428319e-21 1.7185637e-35)
(0.17908578 -0.0093277612 -4.423577e-20 0.001474641 2.5664388e-21 7.2296936e-36)
(0.19311621 -0.0076314967 -1.1788939e-20 0.0015338994 5.5304121e-22 4.6065684e-37)
(0.2044162 -0.0057259786 -4.8439795e-20 0.0016839205 1.7763599e-21 7.2208401e-36)
(0.21233939 -0.0037444465 -6.0016604e-20 0.0019126503 1.6566419e-21 1.0359277e-35)
(0.21649711 -0.0018149987 -3.133351e-21 0.0022002704 6.2921906e-23 2.6576473e-38)
(0.21677282 -2.724099e-05 1.3470052e-20 0.0025354775 -1.6104854e-22 4.7383613e-37)
(0.21328722 0.0015529413 -9.9440439e-20 0.0029302887 4.7900759e-22 2.543562e-35)
(0.20644712 0.0028513525 -4.2274993e-20 0.0034145205 -5.8375275e-23 4.5757534e-36)
(0.19700561 0.0037635492 -4.2954076e-20 0.0040230378 -3.0452516e-22 4.7735146e-36)
(0.18615699 0.0041912733 -1.384722e-20 0.0047853941 -1.7584009e-22 5.0833813e-37)
(0.17531514 0.0040907463 -1.040254e-19 0.0057283819 -1.7911811e-21 2.9952607e-35)
(0.16602836 0.0035084738 3.9927284e-20 0.0068854094 8.8442003e-22 4.6581045e-36)
(0.15937633 0.002528089 -1.1600296e-20 0.0083286124 -3.0239692e-22 4.2552794e-37)
(0.15583373 0.001344082 -9.0597868e-20 0.010206292 -2.7965244e-21 2.8312706e-35)
(0.15484801 0.00016471499 -3.3877573e-20 0.012807235 -1.2393159e-21 4.4352677e-36)
(0.15424124 -0.00063661571 3.7325268e-20 0.016356279 1.6580757e-21 6.2558469e-36)
(0.15270039 -0.0010245646 1.1705159e-19 0.020323427 6.7725157e-21 7.382425e-35)
(0.14605664 -0.0015071773 -3.3080637e-20 0.023291819 -2.5408185e-21 7.527446e-36)
(0.13801329 -0.0017520301 -4.6623389e-20 0.023930326 -4.7279027e-21 1.9553731e-35)
(0.11962369 -0.002218706 -1.6609319e-20 0.024366618 -2.2052694e-21 3.5865267e-36)
(1.2276779e-08 -1.2481322e-07 -1.2778425e-24 1.2689298e-06 1.2518025e-23 1.9509547e-37)
(1.2652495e-07 -1.2315411e-06 3.8536063e-24 1.1987671e-05 -3.6136294e-23 3.4534695e-37)
(4.136813e-07 -3.8653068e-06 -2.2338659e-24 3.6119583e-05 1.9939812e-23 4.5135523e-38)
(9.6522099e-07 -8.6256915e-06 3.4733733e-25 7.7098749e-05 -2.9471177e-24 5.3319892e-40)
(1.9107876e-06 -1.6286518e-05 -9.3581353e-24 0.00013886558 7.5412219e-23 2.0828798e-37)
(3.4372111e-06 -2.7854099e-05 1.2841521e-23 0.00022584327 -9.8170105e-23 2.228513e-37)
(5.8116961e-06 -4.4621666e-05 -2.536846e-23 0.00034287055 1.8359672e-22 5.1241033e-37)
(9.4136331e-06 -6.8230077e-05 1.5329712e-23 0.00049506903 -1.0473816e-22 1.1333133e-37)
(1.477895e-05 -0.00010073587 7.4164436e-23 0.00068762337 -4.7691575e-22 1.6363687e-36)
(2.2660145e-05 -0.00014467895 -2.2515075e-23 0.00092545368 1.3582309e-22 9.4480225e-38)
(3.4106433e-05 -0.00020314115 -1.077636e-22 0.0012127603 6.0787764e-22 1.3680976e-36)
(5.0570028e-05 -0.00027978538 4.1159948e-23 0.0015524272 -2.1638221e-22 1.2723165e-37)
(7.4043503e-05 -0.00037885494 3.4222455e-24 0.0019452933 -1.6710199e-23 5.66902e-40)
(0.00010723402 -0.00050511095 -1.6727556e-22 0.0023893258 7.5635282e-22 8.6566359e-37)
(0.00015377853 -0.00066368138 6.4977203e-22 0.0028787748 -2.7113539e-21 8.434438e-36)
(0.00021850086 -0.00085979495 -4.941786e-22 0.0034034452 1.8967875e-21 3.1606356e-36)
(0.000307707 -0.001098384 -5.822241e-24 0.0039482838 2.0488424e-23 2.8486882e-40)
(0.0004295079 -0.0013835623 4.161667e-22 0.0044935318 -1.3383171e-21 9.5153571e-37)
(0.00059415148 -0.0017180267 -1.2972591e-21 0.0050157018 3.8000831e-21 6.0712095e-36)
(0.00081434084 -0.0021024885 7.4802463e-22 0.0054895657 -1.9897563e-21 1.3355866e-36)
(0.0011055163 -0.0025353099 1.3559221e-21 0.0058911465 -3.2653164e-21 2.9282642e-36)
(0.0014860898 -0.0030125592 6.637144e-22 0.0062013856 -1.4428013e-21 4.7245696e-37)
(0.0019776646 -0.0035287013 -3.9344494e-21 0.0064097576 7.7005407e-21 1.1363211e-35)
(0.0026054687 -0.0040781077 -2.4492676e-21 0.0065167945 4.304386e-21 3.0476961e-36)
(0.0033989529 -0.0046569725 1.8663291e-21 0.0065345048 -2.9388731e-21 1.2500827e-36)
(0.0043909304 -0.0052639199 -1.2799642e-21 0.006483831 1.800651e-21 4.1795249e-37)
(0.0056206035 -0.0059014933 5.571704e-21 0.0063877771 -6.9920026e-21 5.7747021e-36)
(0.0071362566 -0.0065753359 -1.8521874e-21 0.0062657461 2.0677485e-21 4.698258e-37)
(0.0089929093 -0.0072908295 5.7376326e-21 0.0061328972 -5.6856685e-21 3.3753941e-36)
(0.011255129 -0.0080540144 -3.7064206e-21 0.0060000184 3.2520216e-21 1.0696867e-36)
(0.013998724 -0.0088703349 2.6185355e-21 0.0058723986 -2.0279433e-21 4.073782e-37)
(0.017311782 -0.0097427309 -1.0875508e-20 0.0057507519 7.4246143e-21 5.4743972e-36)
(0.021294302 -0.010670626 1.7609112e-21 0.0056326975 -1.0577794e-21 1.1319508e-37)
(0.026057496 -0.01164907 -1.0500299e-20 0.0055139675 5.5354736e-21 3.1652528e-36)
(0.031721362 -0.012667832 1.1273178e-20 0.005389264 -5.2121508e-21 2.9252529e-36)
(0.038410241 -0.013710061 4.0609541e-21 0.0052526489 -1.6432319e-21 3.0246666e-37)
(0.0462454 -0.014750116 -5.6061098e-20 0.0050975965 1.9856389e-20 4.7708136e-35)
(0.055333049 -0.01575058 -1.6260165e-20 0.0049170781 5.0298286e-21 3.2936528e-36)
(0.065746305 -0.01665897 1.4861266e-20 0.0047041066 -4.0085204e-21 2.2977168e-36)
(0.077499977 -0.017405086 -1.6052381e-20 0.0044531125 3.7662984e-21 2.2513894e-36)
(0.090518202 -0.017900677 4.5420565e-21 0.0041625063 -9.234089e-22 1.5114731e-37)
(0.10459663 -0.018043796 3.0775346e-20 0.0038386249 -5.4066846e-21 6.0113761e-36)
(0.11936565 -0.017730343 -1.5337403e-21 0.0035004585 2.3172613e-22 1.3140931e-38)
(0.13426689 -0.016875847 -1.2061429e-20 0.0031838027 1.5484146e-21 6.9288711e-37)
(0.14857559 -0.015450736 6.2085527e-21 0.0029422419 -6.6503198e-22 1.6632161e-37)
(0.16150213 -0.013512987 -3.43004e-21 0.0028362149 3.083663e-22 4.1832325e-38)
(0.17224491 -0.011188548 -1.0128998e-20 0.0029060708 7.4150278e-22 3.5089983e-37)
(0.1801356 -0.00864652 1.6129494e-19 0.0031518027 -9.4255544e-21 8.3643554e-35)
(0.18474616 -0.0060882706 -1.8643753e-20 0.0035384989 8.2632424e-22 1.0478047e-36)
(0.18592677 -0.0036829072 1.7603083e-20 0.0040127117 -5.7756762e-22 8.9233759e-37)
(0.18377083 -0.0015394547 -1.6756791e-19 0.0045406351 3.6667395e-21 7.8380641e-35)
(0.17857932 0.0002588426 9.2020319e-20 0.0051354291 -1.109618e-21 2.3311009e-35)
(0.17091988 0.0016059322 7.5281335e-20 0.0058426132 -1.9783108e-22 1.5589556e-35)
(0.16169115 0.0023613529 7.0703134e-20 0.0067073115 4.1139657e-22 1.399517e-35)
(0.15217616 0.0024156102 6.6425546e-20 0.0077507667 9.0866717e-22 1.2762414e-35)
(0.14378492 0.0017580244 1.0086368e-19 0.0089703692 2.1265649e-21 3.0887561e-35)
(0.13784224 0.00053301893 -1.9371874e-19 0.010354213 -5.5394893e-21 1.2131434e-34)
(0.13505216 -0.0010380338 1.1360949e-19 0.011916135 4.092e-21 4.5234213e-35)
(0.13522705 -0.0025668215 1.625495e-19 0.013737582 7.1410323e-21 1.0272189e-34)
(0.13720608 -0.0037119628 -1.1127168e-19 0.016008208 -6.0473551e-21 5.4749865e-35)
(0.13809681 -0.0041890199 -3.2515987e-20 0.018926466 -2.2054513e-21 5.5396709e-36)
(0.13713447 -0.0042306824 -2.5478057e-20 0.022045048 -2.2366172e-21 4.2001414e-36)
(0.12977443 -0.0043483856 1.1269507e-19 0.024045982 1.3302186e-20 1.087722e-34)
(0.12107276 -0.0040338804 7.1019819e-20 0.02376419 1.0914325e-20 5.8685693e-35)
(0.10218879 -0.0042335528 -2.4991564e-21 0.023420409 -4.8500136e-22 1.1389877e-37)
(3.2939181e-08 -2.5833916e-07 1.4974516e-24 2.0261331e-06 -1.1493695e-23 9.6730924e-38)
(3.2597737e-07 -2.4988424e-06 -9.256696e-24 1.9155496e-05 6.9312337e-23 7.4552713e-37)
(1.0280591e-06 -7.7055817e-06 1.1833837e-23 5.7756728e-05 -8.61201e-23 4.9540375e-37)
(2.3078386e-06 -1.6873829e-05 -6.2579965e-24 0.00012337959 4.4208362e-23 7.0732955e-38)
(4.3903813e-06 -3.124749e-05 -3.015878e-24 0.00022241635 2.0658128e-23 9.2289701e-39)
(7.5791782e-06 -5.2381847e-05 3.372144e-23 0.0003620779 -2.2367808e-22 6.8314037e-37)
(1.2281947e-05 -8.2202881e-05 -1.089474e-23 0.00055030182 6.9840031e-23 4.3806086e-38)
(1.9044122e-05 -0.00012306919 -2.9132389e-23 0.00079555886 1.8003369e-22 1.9740655e-37)
(2.8593315e-05 -0.00017783603 -2.7845803e-24 0.0011065225 1.6541395e-23 1.1614308e-39)
(4.1896781e-05 -0.00024991222 -2.9294383e-23 0.0014915643 1.6677171e-22 8.3751176e-38)
(6.0235196e-05 -0.00034330034 5.0515283e-23 0.0019580392 -2.7470973e-22 1.6406176e-37)
(8.5296124e-05 -0.00046260501 -4.306347e-23 0.0025113383 2.229492e-22 7.9152416e-38)
(0.00011929088 -0.00061299007 -1.9419384e-22 0.003153706 9.5383317e-22 1.0728975e-36)
(0.00016509792 -0.00080006045 -6.9049814e-24 0.0038828707 3.2062846e-23 9.0379331e-40)
(0.00022643519 -0.0010296426 2.2091841e-22 0.0046905985 -9.6601229e-22 6.2363556e-37)
(0.00030806175 -0.0013074405 1.9050646e-22 0.0055613796 -7.8152535e-22 3.1169736e-37)
(0.00041600667 -0.0016385569 -1.992594e-22 0.0064715609 7.638696e-22 2.2966619e-37)
(0.00055781939 -0.0020268973 2.3083759e-23 0.0073893403 -8.2352572e-23 2.1023386e-39)
(0.0007428329 -0.0024745186 5.6941061e-22 0.0082760801 -1.8830073e-21 8.608677e-37)
(0.0009824296 -0.0029810524 8.3633131e-22 0.0090893145 -2.5528852e-21 1.2657743e-36)
(0.0012903041 -0.003543399 -1.1449189e-21 0.0097875419 3.2126771e-21 1.6299783e-36)
(0.0016827248 -0.004155936 -1.3741911e-21 0.010336377 3.5303804e-21 1.6279787e-36)
(0.0021788144 -0.0048114572 2.1919214e-21 0.010714945 -5.1353731e-21 2.9026004e-36)
(0.0028010153 -0.005503024 -3.1950472e-21 0.010920782 6.8003281e-21 4.3706347e-36)
(0.0035759906 -0.0062265448 -6.4770212e-21 0.010971326 1.2477488e-20 1.288999e-35)
(0.0045337023 -0.0069814507 1.770714e-20 0.0109008 -3.0772665e-20 7.0283244e-35)
(0.0057097662 -0.0077724171 -1.123288e-20 0.010750146 1.7553429e-20 2.0911301e-35)
(0.0071482134 -0.0086075567 1.90694e-20 0.010553294 -2.6709651e-20 4.5102884e-35)
(0.0088996691 -0.0094949867 -2.7133848e-20 0.010336693 3.3960948e-20 6.9311591e-35)
(0.011022969 -0.01044316 3.4342631e-20 0.010119866 -3.8287502e-20 8.5226143e-35)
(0.013586218 -0.011459287 -4.0084454e-20 0.0099128623 3.969394e-20 9.0169558e-35)
(0.016668401 -0.012547365 7.5756317e-21 0.00971734 -6.6477886e-21 2.5361525e-36)
(0.020358127 -0.013706518 2.939883e-20 0.0095291264 -2.2798441e-20 3.0130195e-35)
(0.024752638 -0.014929996 -1.8534517e-20 0.0093404046 1.2681303e-20 9.5795874e-36)
(0.029954915 -0.016204023 6.4554302e-21 0.0091413875 -3.8905506e-21 9.39361e-37)
(0.03606868 -0.017506124 2.0802646e-21 0.0089211143 -1.103488e-21 8.0486115e-38)
(0.043190234 -0.018802371 2.8633938e-20 0.0086675564 -1.3332508e-20 1.233131e-35)
(0.051395885 -0.020043634 1.0330952e-20 0.0083677107 -4.2195071e-21 1.3224579e-36)
(0.060723643 -0.021161557 1.1491159e-20 0.0080084763 -4.1074719e-21 1.3601981e-36)
(0.071148307 -0.022065509 1.236992e-20 0.0075790268 -3.863809e-21 1.3465302e-36)
(0.08255063 -0.022642732 -6.8653787e-20 0.0070753842 1.8667047e-20 3.5398953e-35)
(0.094683376 -0.022764925 3.2647545e-20 0.0065076282 -7.6941368e-21 6.8973917e-36)
(0.10714135 -0.022305189 5.680872e-21 0.0059087723 -1.1571238e-21 1.7635207e-37)
(0.11935135 -0.021170938 -6.9181762e-20 0.0053429551 1.2015089e-20 2.3685243e-35)
(0.13063239 -0.019355049 -3.7316176e-20 0.0049058738 5.4947794e-21 6.1203671e-36)
(0.14029954 -0.01696685 1.9257367e-20 0.0047001108 -2.3803718e-21 1.4848445e-36)
(0.14772624 -0.014193585 7.3415304e-20 0.0047848251 -7.4383144e-21 1.9636871e-35)
(0.15246911 -0.011272765 -3.2983062e-20 0.0051505445 2.713594e-21 3.7120919e-36)
(0.15433259 -0.008448204 9.9231532e-20 0.0057241943 -6.2829577e-21 3.1577451e-35)
(0.15334782 -0.0059015754 5.4904732e-20 0.0064047242 -2.5986627e-21 9.2797732e-36)
(0.14974533 -0.0037368387 7.6367373e-20 0.0071325788 -2.5441317e-21 1.7527777e-35)
(0.14393383 -0.0020406371 2.0514981e-19 0.0079307975 -3.9621279e-21 1.2517054e-34)
(0.13657512 -0.00094619831 -1.5696964e-19 0.0088714512 1.1157874e-21 7.3906979e-35)
(0.12865581 -0.00062361381 5.0332107e-20 0.010012371 2.941652e-22 7.7513644e-36)
(0.1214723 -0.0011700036 -8.3933872e-20 0.01135894 -1.2761675e-21 2.252563e-35)
(0.11629945 -0.0025226278 -7.6884037e-20 0.012865325 -2.00415e-21 1.9986282e-35)
(0.11406777 -0.004397414 -2.872004e-20 0.01445997 -1.0712039e-21 3.0064158e-36)
(0.11493427 -0.0063965132 -2.4765814e-19 0.01607589 -1.1529415e-20 2.4519325e-34)
(0.11786013 -0.0079462878 -6.23268e-20 0.017723271 -3.6368381e-21 1.7485246e-35)
(0.12109725 -0.0086510265 1.3157063e-19 0.019475862 9.7570667e-21 9.0449586e-35)
(0.12142915 -0.008532865 4.481733e-20 0.021579715 4.3283115e-21 1.2846285e-35)
(0.11898026 -0.008032088 -2.955161e-20 0.023595379 -3.7220501e-21 7.1553824e-36)
(0.10941166 -0.0075998354 -5.1913415e-20 0.024342975 -8.7106254e-21 3.0580602e-35)
(0.098646295 -0.0067440586 -6.760478e-20 0.02309254 -1.4946914e-20 7.4132667e-35)
(0.07958207 -0.0065560293 4.0436414e-21 0.02193819 1.1389025e-21 4.3107124e-37)
(6.940107e-08 -4.4078338e-07 6.8417754e-24 2.7995252e-06 -4.2843559e-23 8.9802433e-37)
(6.7335614e-07 -4.2237282e-06 4.4529895e-24 2.6494053e-05 -2.747196e-23 7.8216966e-38)
(2.0853007e-06 -1.2912561e-05 -5.5790133e-24 7.9957673e-05 3.3821468e-23 5.1273961e-38)
(4.5882661e-06 -2.8008734e-05 -2.846027e-23 0.00017098082 1.6940989e-22 6.9894307e-37)
(8.5447776e-06 -5.1348431e-05 2.0543536e-23 0.00030858163 -1.1997103e-22 2.0976648e-37)
(1.4419949e-05 -8.5163156e-05 -3.7961024e-23 0.00050299856 2.1726337e-22 4.3444329e-37)
(2.2808653e-05 -0.00013213816 2.0706316e-23 0.00076559306 -1.1596517e-22 8.1308046e-38)
(3.4468427e-05 -0.00019546623 6.1334891e-24 0.0011086172 -3.3547541e-23 4.6106069e-39)
(5.0360963e-05 -0.00027889522 -4.2727049e-23 0.0015447966 2.2771962e-22 1.4764299e-37)
(7.1702784e-05 -0.00038675756 -1.1248384e-22 0.0020866723 5.8270445e-22 6.85374e-37)
(0.00010002708 -0.00052397033 -6.8755896e-24 0.002745647 3.4530042e-23 1.7256654e-39)
(0.00013725814 -0.00069598893 2.7183237e-22 0.0035306888 -1.3193776e-21 1.8498827e-36)
(0.00018580026 -0.00090869496 -4.5381394e-22 0.0044466774 2.1223794e-21 3.5371489e-36)
(0.00024864246 -0.0011681959 8.8234183e-22 0.0054924321 -3.9629171e-21 9.2120541e-36)
(0.00032948014 -0.0014805154 -2.7724556e-22 0.0066585531 1.1916283e-21 6.2825873e-37)
(0.00043285447 -0.0018511602 7.0741109e-22 0.0079253369 -2.8987682e-21 2.8306059e-36)
(0.00056430982 -0.0022845676 -1.0253053e-21 0.0092611936 3.9894586e-21 4.1274118e-36)
(0.00073056939 -0.0027834671 7.9703562e-22 0.010622157 -2.9323956e-21 1.7351508e-36)
(0.00093973054 -0.0033482419 -1.503045e-22 0.011953193 5.2055508e-22 4.3136557e-38)
(0.0012014834 -0.0039764357 -7.2614454e-22 0.013191955 2.3565766e-21 7.0579822e-37)
(0.0015273619 -0.0046626172 2.0945415e-21 0.014275309 -6.33958e-21 4.1424243e-36)
(0.0019310431 -0.0053988509 -3.4915386e-21 0.015148244 9.809035e-21 8.1878781e-36)
(0.0024287143 -0.0061759733 4.4611017e-21 0.015773761 -1.1577636e-20 9.5942757e-36)