/*--------------------------------*- C++ -*----------------------------------*\
  =========                 |
  \\      /  F ield         | OpenFOAM: The Open Source CFD Toolbox
   \\    /   O peration     | Website:  https://openfoam.org
    \\  /    A nd           | Version:  13
     \\/     M anipulation  |
\*---------------------------------------------------------------------------*/
FoamFile
{
    format      ascii;
    class       volScalarField;
    location    "29.403875";
    object      omega;
}
// * * * * * * * * * * * * * * * * * * * * * * * * * * * * * * * * * * * * * //

dimensions      [0 0 -1 0 0 0 0];

internalField   nonuniform List<scalar> 
17140
(
3736295.3
603677.92
185335.26
78621.64
40006.302
22786.737
13994.008
9063.8165
6105.4724
4237.5052
3010.5797
2179.1425
1601.3369
1191.4188
895.58326
678.99019
518.47124
398.26481
307.43567
238.26692
185.23146
144.31898
112.58664
87.853694
68.490863
53.27318
41.276267
31.802579
24.328034
18.46128
13.908703
10.440621
7.8604701
5.9858838
4.6477337
3.7001675
3.028543
2.5494037
2.2049186
1.9559792
1.7762893
1.6480455
1.559007
1.5006032
1.4678919
1.4549078
1.4549897
1.4682792
1.492398
1.5256429
1.5670724
1.6164765
1.6742567
1.7408267
1.8153062
1.8952088
1.9787995
2.0638185
2.1450067
2.2095004
2.251935
2.2848892
2.3283813
2.4030461
2.4430332
3736320.9
603682.55
185336.95
78622.514
40006.826
22787.084
13994.252
9063.9964
6105.6096
4237.6125
3010.6651
2179.2112
1601.3926
1191.4641
895.62013
679.02008
518.49529
398.28394
307.45066
238.27844
185.24014
144.3254
112.59137
87.857306
68.493895
53.276138
41.27958
31.806543
24.332751
18.466617
13.914318
10.446074
7.8653878
5.990083
4.651216
3.7030311
3.0309061
2.5513679
2.2065561
1.9573462
1.7774301
1.648992
1.5597716
1.5011896
1.4683306
1.4552311
1.4551922
1.4683689
1.4923322
1.525334
1.5663521
1.6150442
1.6716069
1.7361898
1.8076904
1.8832483
1.9603521
2.0365066
2.1081017
2.1695126
2.2261092
2.2983588
2.4214686
2.6173005
2.7120382
3736345.9
603686.65
185338.23
78623.055
40007.105
22787.245
13994.353
9064.0647
6105.6583
4237.6494
3010.6946
2179.2361
1601.4148
1191.4847
895.63997
679.03979
518.51529
398.30457
307.47216
238.30103
185.26398
144.35066
112.61819
87.88579
68.524116
53.30807
41.31303
31.841051
24.367493
18.500374
13.945609
10.473523
7.888169
6.0081392
4.6651108
3.713602
3.0389758
2.5576176
2.2115085
1.9613691
1.7807819
1.6518761
1.5623608
1.5036572
1.4708242
1.4578466
1.4581171
1.4717804
1.4963903
1.5302081
1.5722152
1.6220687
1.6799548
1.7459518
1.8186705
1.8949076
1.9720544
2.0481167
2.1215747
2.1917683
2.2725568
2.406436
2.6497922
2.9639223
3.0788888
3736372.1
603690.92
185339.56
78623.622
40007.396
22787.415
13994.462
9064.1402
6105.7145
4237.6941
3010.7327
2179.2706
1601.4476
1191.5172
895.67318
679.07438
518.55183
398.34348
307.51381
238.34568
185.31186
144.40193
112.67295
87.944047
68.585744
53.372731
41.380066
31.909337
24.43531
18.565392
14.005158
10.525211
7.9306439
6.0414611
4.6904645
3.7326538
3.0533409
2.5686046
2.2200962
1.9682747
1.7865398
1.656892
1.5669659
1.508206
1.4755899
1.4629836
1.4640497
1.4788595
1.5050058
1.5408211
1.5853902
1.6385191
1.7005839
1.7717527
1.8503157
1.93264
2.0163901
2.1006346
2.1871255
2.2817516
2.4098675
2.6372762
3.0032846
3.406099
3.4669274
3736400.1
603695.46
185340.95
78624.217
40007.702
22787.595
13994.58
9064.2239
6105.7791
4237.7479
3010.7807
2179.316
1601.4925
1191.5631
895.72121
679.12538
518.60645
398.40223
307.5771
238.41382
185.38509
144.48038
112.75664
88.032879
68.67939
53.47056
41.480993
32.011637
24.536447
18.66201
14.093448
10.601771
7.9935425
6.0907876
4.7279461
3.7607391
3.0744196
2.5846456
2.2325878
1.9783101
1.7949247
1.6642429
1.5737863
1.5150485
1.4828681
1.4709203
1.4733327
1.4900449
1.5187492
1.5579296
1.6068962
1.6657923
1.7354465
1.8162675
1.9059818
2.0007805
2.0994371
2.2027645
2.3167274
2.4537744
2.6439396
2.9700534
3.442076
3.7978484
3.6481304
3736429.1
603700.14
185342.39
78624.832
40008.022
22787.785
13994.706
9064.3153
6105.8518
4237.8103
3010.8382
2179.3719
1601.5492
1191.6222
895.78393
679.19266
518.67903
398.48071
307.66195
238.50541
185.48365
144.58604
112.86937
88.152446
68.805284
53.601871
41.616224
32.148483
24.671579
18.791062
14.21146
10.704276
8.0779409
6.157104
4.7783951
3.7985454
3.1027765
2.606204
2.2493656
1.9917942
1.806216
1.6741873
1.5830777
1.524459
1.4929735
1.4820268
1.4864317
1.5059415
1.5384244
1.5826217
1.6382306
1.7059741
1.7873992
1.8829806
1.9893399
2.1031596
2.2250834
2.3575082
2.5116601
2.6999387
2.959505
3.3823432
3.8919548
3.9879012
3.5945986
3736459.3
603704.97
185343.87
78625.468
40008.356
22787.985
13994.84
9064.4145
6105.9322
4237.8811
3010.9049
2179.4381
1601.6172
1191.694
895.8607
679.27552
518.76885
398.57816
307.76758
238.61963
185.60675
144.71813
113.01038
88.302054
68.962824
53.766185
41.785452
32.31979
24.840904
18.953072
14.360054
10.83386
8.1851047
6.2416503
4.8429092
3.8469829
3.1391405
2.6338614
2.2709011
2.009123
1.8207632
1.6870527
1.5951675
1.5367922
1.5063193
1.4968002
1.5039834
1.527392
1.5651738
1.6164795
1.6816237
1.7622453
1.860807
1.9770284
2.1060928
2.246839
2.4026141
2.5786615
2.7807433
3.0216218
3.3531825
3.853333
4.2385894
4.0658518
3.2393055
3736490.6
603709.98
185345.4
78626.128
40008.704
22788.195
13994.982
9064.5211
6106.0202
4237.9598
3010.9801
2179.5136
1601.6957
1191.7774
895.95046
679.37282
518.87464
398.69324
307.89257
238.75502
185.75286
144.8751
113.17813
88.480202
69.150591
53.962222
41.987598
32.524762
25.043993
19.148064
14.539746
10.991475
8.316275
6.3457481
4.9227201
3.9071057
3.1843753
2.6683174
2.2977689
2.030785
1.8390027
1.7032541
1.6104774
1.5525098
1.5234504
1.5159136
1.5268673
1.5555836
1.6006436
1.6618383
1.7404572
1.8395278
1.9621578
2.1056035
2.2649753
2.4436252
2.6479654
2.8824977
3.1337657
3.4354031
3.8408982
4.3666018
4.4678726
4.0605281
2.6345604
3736522
603715.13
185346.99
78626.814
40009.063
22788.413
13995.131
9064.6345
6106.1148
4238.0455
3011.0629
2179.5976
1601.7835
1191.8711
896.05171
679.48291
518.99463
398.82402
308.03486
238.9094
185.91971
145.05462
113.37026
88.684538
69.366299
54.187829
42.22073
32.761792
25.279687
19.375446
14.750587
11.177799
8.4725921
6.4707566
5.0191759
3.9801137
3.2394894
2.710404
2.3306624
2.0573777
1.861477
1.7233176
1.6295562
1.5722193
1.5450841
1.5402908
1.556315
1.592214
1.6472439
1.7222098
1.8199626
1.9454188
2.1005248
2.2791034
2.4806091
2.7141151
2.9872447
3.2920845
3.6082117
3.9813589
4.4729265
4.8170614
4.5837855
3.6843984
1.7405482
3736555.2
603720.5
185348.65
78627.526
40009.437
22788.641
13995.288
9064.7542
6106.2154
4238.1373
3011.1522
2179.6884
1601.879
1191.9733
896.16247
679.6036
519.12643
398.96792
308.1917
239.07984
186.10423
145.25349
113.58348
88.911761
69.606689
54.43987
42.481936
33.028323
25.545939
19.63384
14.991998
11.393066
8.6549687
6.6179891
5.1336997
4.0673397
3.3056397
2.7610976
2.3704107
2.0896283
1.8888592
1.747913
1.6531311
1.5967437
1.5721508
1.5712254
1.5940787
1.6397544
1.708574
1.8029913
1.9283685
2.0910761
2.2880776
2.5145851
2.7793672
3.095887
3.4702859
3.8710002
4.2737469
4.7320726
5.1687853
5.0476593
4.4629241
2.5563562
1.0510058
3736589.7
603726.07
185350.36
78628.266
40009.826
22788.878
13995.451
9064.8792
6106.3208
4238.2338
3011.2463
2179.7845
1601.9801
1192.0819
896.2803
679.7322
519.26709
399.12174
308.35963
239.26265
186.30252
145.46763
113.81358
89.157573
69.867453
54.714123
42.767202
33.320699
25.839634
19.920882
15.262547
11.636863
8.8639049
6.7885789
5.2677094
4.1702118
3.384123
2.8215267
2.4179957
2.1284171
1.9219817
1.7778883
1.6821823
1.627292
1.6057696
1.610598
1.6427006
1.7018798
1.7901382
1.9126926
2.0784556
2.2911835
2.5433101
2.8434579
3.2101295
3.6578114
4.1900217
4.7240453
5.2153826
5.6791264
5.5798055
5.0668371
3.3532086
1.3691082
0.61657112
3736625.1
603731.8
185352.14
78629.031
40010.23
22789.123
13995.619
9065.0083
6106.4296
4238.3333
3011.3434
2179.8837
1602.0847
1192.1942
896.40228
679.86548
519.41306
399.28162
308.53447
239.45335
186.5098
145.69203
114.05534
89.416594
70.14314
55.00517
43.071273
33.633999
26.156397
20.232988
15.559688
11.907846
9.0992327
6.9832757
5.4224813
4.2901791
3.4763439
2.8929681
2.4745661
2.1748049
1.9618713
1.8142821
1.717978
1.6653053
1.64793
1.6610082
1.70594
1.7842025
1.9006092
2.0649816
2.288049
2.565466
2.9010202
3.3253308
3.8619065
4.5176471
5.286146
5.9608959
6.3944301
6.2276603
5.6589211
3.9446898
1.637804
0.72866238
0.38889033
3736662.3
603737.8
185353.99
78629.825
40010.647
22789.377
13995.793
9065.1408
6106.5407
4238.4345
3011.4417
2179.9839
1602.1901
1192.3073
896.52517
679.99984
519.56037
399.44319
308.71146
239.64679
186.72058
145.92082
114.30259
89.682412
70.42717
55.306366
43.387585
33.961917
26.490417
20.565125
15.879478
12.203417
9.3597868
7.2021586
5.5989381
4.4285781
3.5837467
2.9768242
2.5414485
2.2300738
2.0098322
1.8585122
1.7621648
1.7128115
1.7014871
1.7263186
1.7895348
1.89559
2.0541287
2.280657
2.5789903
2.9504329
3.4308196
4.0712263
4.8868629
5.845378
6.8943403
7.1836575
6.9398072
6.1446344
4.113898
1.8065947
0.81392136
0.44236119
0.28301471
3736699.8
603743.93
185355.88
78630.641
40011.077
22789.637
13995.97
9065.2748
6106.6522
4238.5352
3011.5389
2180.0824
1602.2933
1192.4179
896.64524
680.13113
519.70444
399.60144
308.88515
239.83708
186.92848
146.14722
114.54815
89.947514
70.711762
55.609766
43.708158
34.296631
26.834264
20.910569
16.216262
12.519355
9.6429988
7.4442505
5.7973364
4.5864167
3.7076877
3.074566
2.620144
2.2957715
2.0675431
1.9125392
1.8170233
1.7726909
1.7706066
1.8124861
1.902571
2.0506539
2.273805
2.5856165
2.9876944
3.5242732
4.2679766
5.2752243
6.496353
7.7395651
7.9164772
7.5700801
6.4387828
3.8622518
1.7867357
0.86003882
0.47011864
0.31630793
0.23117105
3736738.4
603750.24
185357.84
78631.487
40011.521
22789.904
13996.151
9065.4093
6106.7625
4238.6335
3011.6327
2180.1767
1602.3915
1192.5228
896.7588
680.25523
519.84067
399.75125
309.0499
240.01803
187.12681
146.36398
114.78425
90.203635
70.988226
55.906343
44.023761
34.628874
27.178883
21.260794
16.562455
12.84947
9.94446
7.7070481
6.0168408
4.7640474
3.8492221
3.1876193
2.7122975
2.3737515
2.1371633
1.9790479
1.8860408
1.8489902
1.8617638
1.9290264
2.0600508
2.274378
2.5913571
3.0169318
3.597935
4.4456807
5.658807
7.2166082
8.5248285
8.6370135
8.1396154
6.5926829
3.42491
1.6704499
0.85688158
0.49472044
0.33038887
0.2584468
0.19683741
3736780.4
603757
185359.9
78632.368
40011.978
22790.177
13996.333
9065.5433
6106.8703
4238.7277
3011.7209
2180.264
1602.4816
1192.6182
896.86178
680.36757
519.96398
399.88702
309.19953
240.18287
187.30817
146.56311
115.00231
90.441608
71.246851
56.185908
44.32383
34.947861
27.513483
21.605313
16.908294
13.185255
10.257451
7.9859696
6.254975
4.9607062
4.008775
3.3171742
2.8196324
2.4662229
2.2214821
2.0617365
1.9739832
1.9488781
1.9851932
2.0918404
2.2879209
2.6053111
3.0474917
3.6635318
4.592503
6.0121268
7.9684285
9.3034386
9.3092942
8.6454019
6.5909283
3.1770644
1.5877716
0.85335574
0.51100652
0.35080826
0.26828832
0.21881865
0.17539838
3736824.8
603764.03
185362.04
78633.283
40012.453
22790.458
13996.517
9065.6755
6106.9739
4238.8158
3011.8014
2180.342
1602.5607
1192.7012
896.95066
680.46415
520.06985
400.00365
309.32835
240.32528
187.46557
146.73689
115.19386
90.652239
71.477719
56.437861
44.597149
35.241878
27.826025
21.932029
17.242018
13.515838
10.572661
8.2738509
6.5070018
5.1739224
4.1856826
3.4639033
2.9438643
2.575884
2.3243523
2.1660808
2.0883799
2.0840758
2.1584368
2.3291714
2.6328073
3.0925287
3.7378258
4.7372487
6.3368957
8.684867
10.034009
9.9664149
9.1389459
6.6421864
3.1605616
1.5827114
0.86791151
0.53485305
0.37001155
0.28595239
0.22809921
0.19028139
0.15457298
3736869.6
603771.2
185364.25
78634.226
40012.938
22790.742
13996.7
9065.8042
6107.0717
4238.8959
3011.872
2180.4082
1602.6261
1192.7683
897.02169
680.54075
520.15354
400.09585
309.43045
240.43868
187.59172
146.87729
115.35008
90.825872
71.67033
56.650855
44.831556
35.498008
28.102966
22.226981
17.549585
13.827596
10.877627
8.5603384
6.765289
5.3988787
4.3776508
3.627621
3.0866364
2.70622
2.4515543
2.3005974
2.2420053
2.2748639
2.4133958
2.6948437
3.172728
3.8477083
4.909729
6.6844374
9.4101712
10.774696
10.640601
9.6834109
6.8425795
3.2403569
1.6268117
0.903189
0.56572085
0.39601464
0.3040325
0.24241293
0.19512142
0.16887359
0.1407595
3736913.9
603778.52
185366.51
78635.187
40013.433
22791.029
13996.882
9065.9279
6107.1619
4238.9661
3011.9303
2180.4599
1602.6746
1192.8163
897.07097
680.59298
520.21011
400.15809
309.49967
240.51623
187.67904
146.97595
115.46176
90.952424
71.813674
56.812923
45.014114
35.702365
28.329526
22.474636
17.815002
14.104665
11.157461
8.8321778
7.0190805
5.6279078
4.580254
3.8069998
3.2496023
2.8620504
2.611721
2.4793494
2.4589378
2.5573913
2.813291
3.296073
4.0375454
5.1548499
7.0961314
10.188454
11.554791
11.356316
10.295403
7.1786685
3.3956045
1.7099607
0.95661217
0.60581807
0.42793055
0.32832796
0.25571261
0.20649479
0.17477757
0.15261468
0.13054777
3736961
603786.17
185368.86
78636.185
40013.943
22791.321
13997.063
9066.0469
6107.2441
4239.0257
3011.9754
2180.4958
1602.7049
1192.8432
897.09642
680.61838
520.23671
400.18704
309.53213
240.55344
187.72237
147.02695
115.5222
91.024279
71.899163
56.914449
45.134145
35.843201
28.492917
22.661221
18.023614
14.331631
11.396228
9.0740164
7.2548545
5.8506042
4.7869836
3.9998446
3.4352941
3.0514979
2.8204314
2.7295897
2.7813507
3.0054696
3.488384
4.3102015
5.5317067
7.618342
11.049757
12.409643
12.132537
10.978334
7.6200151
3.6114477
1.8264821
1.0272309
0.65505969
0.46643058
0.35486592
0.27236442
0.21783645
0.18433536
0.15706156
0.14023352
0.12094295
3737011.6
603794.24
185371.32
78637.222
40014.468
22791.617
13997.242
9066.16
6107.3172
4239.073
3012.0056
2180.514
1602.7144
1192.8464
897.09487
680.61336
520.22925
400.17808
309.52261
240.54437
187.71491
147.02248
115.52241
91.031262
71.915424
56.942906
45.178075
35.906058
28.57794
22.770661
18.158341
14.490623
11.576013
9.2687789
7.4575507
6.0551431
4.9906155
4.2048515
3.6498766
3.2906492
3.1081646
3.1041936
3.2951304
3.7776937
4.6853873
6.0628212
8.3123649
12.006001
13.325107
13.003018
11.731327
8.1346123
3.8784353
1.9723451
1.1152798
0.71359397
0.51103923
0.38436669
0.2920317
0.23357883
0.19438531
0.16595704
0.14376431
0.1290158
0.1141345
3737062.3
603802.43
185373.83
78638.285
40015.003
22791.915
13997.418
9066.266
6107.3799
4239.1071
3012.0195
2180.5129
1602.7016
1192.8241
897.06447
680.57592
520.1856
400.12896
309.46877
240.48666
187.65437
146.96039
115.46034
90.971149
71.859611
56.894189
45.139709
35.881758
28.571906
22.787819
18.203238
14.566053
11.681706
9.4019382
7.6142488
6.232039
5.1873976
4.4268215
3.9105256
3.6151418
3.5398929
3.7029159
4.1944958
5.1899022
6.7553992
9.2198565
13.045855
14.30144
13.932214
12.541348
8.7209349
4.1946342
2.1473181
1.2206228
0.78355127
0.56166412
0.41810671
0.3160985
0.25290349
0.20746941
0.17432432
0.15070722
0.13303263
0.121591
0.1085853
3737113.2
603810.78
185376.41
78639.374
40015.549
22792.215
13997.59
9066.3647
6107.4318
4239.1272
3012.0164
2180.4918
1602.6656
1192.7751
897.00391
680.50456
520.10407
400.03779
309.36851
240.37801
187.53821
146.83794
115.33322
90.841439
71.729963
56.767858
45.020573
35.774262
28.480899
22.718149
18.159805
14.553932
11.706696
9.4678806
7.7214639
6.3823612
5.3867597
4.689079
4.2629005
4.1069731
4.2448138
4.760831
5.8658029
7.6341373
10.31
14.141872
15.339352
14.919304
13.40345
9.3725291
4.5616928
2.352724
1.3439536
0.86631224
0.61933218
0.45560111
0.34485988
0.2748967
0.22266466
0.18481175
0.15830554
0.14021148
0.12524485
0.11473616
0.10352928
3737167.7
603819.61
185379.11
78640.503
40016.111
22792.521
13997.761
9066.4565
6107.4732
4239.1334
3011.9963
2180.4505
1602.6062
1192.6995
896.91314
680.39936
519.98486
399.90494
309.22243
240.21924
187.36757
146.6566
115.14283
90.644239
71.528879
56.566594
44.823672
35.587116
28.309682
22.569666
18.041273
14.47268
11.669629
9.4828556
7.7979643
6.5327116
5.6303594
5.059281
4.8182706
4.9389277
5.5014408
6.7382397
8.7296491
11.567212
15.319055
16.444853
15.969713
14.317426
10.074332
4.9807986
2.5930951
1.4863453
0.96173568
0.6818521
0.4971208
0.37740433
0.30035361
0.24029585
0.19813244
0.16817808
0.14729617
0.13078607
0.11769422
0.1092285
0.10003317
3737225.4
603828.82
185381.92
78641.681
40016.693
22792.834
13997.931
9066.5431
6107.5057
4239.1276
3011.9612
2180.3914
1602.5262
1192.6004
896.79602
680.26474
519.8331
399.7363
309.03723
240.018
187.1511
146.42614
114.90017
90.391844
71.270041
56.305558
44.565749
35.338769
28.078568
22.364609
17.872189
14.35043
11.605929
9.4905
7.8994286
6.7580145
6.0245311
5.6950602
5.8075397
6.4385996
7.8334946
10.051584
12.984357
16.584249
17.628829
17.093342
15.288859
10.80934
5.4619857
2.8749801
1.6544444
1.0699258
0.75110769
0.54467092
0.41636952
0.32945631
0.2615086
0.21388573
0.18026014
0.15540233
0.13667726
0.12300413
0.1127296
0.10525989
0.096985247
3737283.9
603838.25
185384.82
78642.897
40017.292
22793.153
13998.103
9066.6277
6107.5333
4239.1147
3011.917
2180.3214
1602.4336
1192.487
896.66283
680.1124
519.66198
399.54671
308.82958
239.79291
186.90954
146.16956
114.63064
90.112232
70.984161
56.018354
44.283478
35.069186
27.831099
22.150542
17.704938
14.245763
11.582492
9.5801947
8.1434206
7.2157404
6.786188
6.8925166
7.5991762
9.1637379
11.595642
14.580734
17.958371
18.90154
18.298901
16.322077
11.573688
6.0343848
3.226942
1.8540805
1.1869898
0.82457536
0.59937151
0.46001641
0.36143761
0.28473208
0.23257966
0.19404428
0.16551535
0.14403658
0.12900982
0.11751158
0.1080035
0.10118965
0.094168673
3737344.3
603848.04
185387.81
78644.155
40017.914
22793.485
13998.282
9066.7169
6107.564
4239.104
3011.8747
2180.253
1602.3425
1192.3753
896.5318
679.96281
519.49442
399.36175
308.6279
239.57545
186.67765
145.92513
114.37628
89.851436
70.721532
55.759832
44.03662
34.843487
27.638323
22.004923
17.624839
14.258638
11.731377
9.9174324
8.7416176
8.180806
8.2644304
9.0319551
10.737576
13.358962
16.399627
19.480493
20.274553
19.595302
17.424375
12.359918
6.6733804
3.5973963
2.0425674
1.2927962
0.90255873
0.66411401
0.51090236
0.39675111
0.3124099
0.25467423
0.21098143
0.17747282
0.1534852
0.1357849
0.12258653
0.11191162
0.10400611
0.098556403
0.09243471
3737407.1
603858.19
185390.93
78645.461
40018.562
22793.836
13998.477
9066.8198
6107.6083
4239.1077
3011.848
2180.2022
1602.2714
1192.2863
896.42655
679.84261
519.36033
399.21484
308.46942
239.40697
186.50119
145.74335
114.19264
89.670427
70.548861
55.602655
43.904249
34.748396
27.597738
22.043988
17.779115
14.574621
12.268864
10.760971
10.008847
10.030636
10.811839
12.596766
15.327478
18.495174
21.218775
21.755013
20.987198
18.593744
13.178573
7.3504174
3.9854948
2.2470228
1.4299267
1.013985
0.75104649
0.56877254
0.43563173
0.3431258
0.28015207
0.2294735
0.19169262
0.16412323
0.1440064
0.12829539
0.11671786
0.10794303
0.10136279
0.095817182
0.090405835
3737471.9
603868.67
185394.15
78646.821
40019.243
22794.213
13998.695
9066.9467
6107.6784
4239.1399
3011.8534
2180.1877
1602.2414
1192.244
896.37423
679.7822
519.29361
399.14364
308.39578
239.33331
186.43049
145.67935
114.14017
89.635795
70.540544
55.63237
43.987657
34.906291
27.858001
22.443782
18.368815
15.421586
13.465045
12.429277
12.311364
13.044243
14.820814
17.574134
20.787075
23.257518
23.395896
22.465557
19.825366
14.029772
8.0734439
4.4097371
2.4847905
1.5908395
1.132282
0.82838736
0.61839867
0.47342063
0.37855923
0.30881379
0.25152013
0.20847424
0.17763355
0.15362242
0.13583099
0.12229574
0.11254446
0.1044639
0.098162289
0.09368588
0.089268946
3737539.4
603879.61
185397.5
78648.243
40019.965
22794.622
13998.944
9067.1068
6107.785
4239.2132
3011.9054
2180.2261
1602.2717
1192.27
896.39931
679.80923
519.32546
399.18339
308.44691
239.39992
186.51759
145.79317
114.28859
89.828882
70.791263
55.957543
44.409726
35.455721
28.576174
23.385605
19.606809
17.052204
15.612703
15.245155
15.851508
17.510746
20.181138
23.344804
25.513664
25.267782
24.078139
20.993776
14.935553
8.8467444
4.869526
2.7432462
1.7611316
1.2509602
0.91343507
0.68613549
0.53412925
0.42708669
0.34366913
0.27613849
0.22862808
0.19269105
0.16523211
0.14428161
0.12921683
0.11737863
0.10835165
0.10124156
0.096342278
0.092133324
0.087955936
3737610.3
603891
185400.99
78649.73
40020.728
22795.065
13999.226
9067.301
6107.9294
4239.3292
3012.0062
2180.3205
1602.3661
1192.3696
896.50849
679.93235
519.46699
399.34819
308.64054
239.62894
186.78987
146.11842
114.67888
90.299562
71.362189
56.654945
45.267988
36.51973
29.904305
25.053844
21.712142
19.714647
18.970721
19.35501
20.767284
23.232759
26.18902
27.974527
27.437271
25.860396
22.166819
15.90538
9.6593273
5.3477967
3.0178393
1.9444275
1.3852921
1.0163609
0.77052891
0.5972275
0.46922591
0.37064087
0.30141784
0.25059223
0.21083024
0.17851958
0.15513458
0.13707739
0.12361453
0.11285871
0.10521505
0.099109291
0.094206192
0.090320645
0.087047132
3737682.9
603902.72
185404.61
78651.275
40021.528
22795.537
13999.536
9067.5246
6108.1063
4239.4822
3012.1497
2180.4644
1602.5181
1192.5362
896.69584
680.14652
519.71457
399.63656
308.97826
240.02618
187.25893
146.67444
115.34076
91.091493
72.314613
57.806362
46.667487
38.229529
32.002347
27.635681
24.88934
23.605699
23.663265
24.672409
26.808827
29.367691
30.600118
29.79812
27.777664
23.388436
16.918913
10.479129
5.8373551
3.319373
2.1533366
1.5380088
1.1329047
0.8589987
0.6622966
0.51608703
0.41241725
0.33928333
0.28216739
0.23268206
0.19531872
0.16748066
0.14688694
0.13055496
0.11871691
0.10941335
0.10244196
0.096571
0.092590985
0.089355109
0.086334862
3737758.4
603914.96
185408.37
78652.884
40022.368
22796.042
13999.877
9067.7809
6108.3195
4239.6766
3012.3412
2180.6646
1602.7361
1192.7804
896.97428
680.46779
520.08812
400.07324
309.49081
240.62983
187.9722
147.52014
116.34704
92.292973
73.75455
59.538232
48.756868
40.75546
35.056395
31.316248
29.287062
28.777605
29.368122
30.925468
32.983492
33.346435
32.276504
29.730222
24.697053
17.955398
11.279373
6.343492
3.6496844
2.3842073
1.703394
1.2563332
0.95543022
0.73706369
0.57792912
0.46262902
0.37785879
0.30720423
0.25258105
0.21161973
0.18217661
0.15775189
0.13955967
0.12527661
0.11479679
0.10614785
0.099894942
0.095026658
0.091379984
0.088051429
0.085491898
3737836.4
603927.56
185412.25
78654.562
40023.258
22796.591
14000.264
9068.0876
6108.5899
4239.9371
3012.6096
2180.9542
1603.0583
1193.1457
897.39354
680.95269
520.65182
400.73101
310.26071
241.5335
189.03587
148.7756
117.83313
94.056825
75.852855
62.038018
51.734588
44.293798
39.233247
36.183586
34.835965
34.880444
35.647446
36.708984
36.181949
34.721164
31.490556
25.921824
18.907096
12.017556
6.8695645
4.0269821
2.6479089
1.8858541
1.3948369
1.0659655
0.82670143
0.64847995
0.51699724
0.41582905
0.33901352
0.28189701
0.23915626
0.20197353
0.17274356
0.1500131
0.13376911
0.12068563
0.11112648
0.10351916
0.098008285
0.093329411
0.089873887
0.087302222
0.085081151
3737916.9
603940.59
185416.29
78656.328
40024.219
22797.208
14000.723
9068.4748
6108.9526
4240.3043
3013.0014
2181.3863
1603.5446
1193.6999
898.02983
681.68665
521.50123
401.71661
311.40711
242.87023
190.5985
150.6071
119.98515
96.590864
78.831246
65.514308
55.78054
48.963528
44.539978
42.059414
41.076808
41.012618
40.691
39.400575
37.117911
33.234989
27.185688
19.873338
12.79772
7.4986419
4.4888743
2.9479722
2.0812931
1.5441548
1.1890807
0.92501736
0.72649811
0.57646631
0.46379892
0.37891961
0.31674438
0.26342797
0.21963833
0.18583602
0.16182344
0.14265042
0.12831046
0.11665477
0.10824619
0.10117637
0.096063713
0.091986719
0.089119872
0.086556205
0.084422865
3738001.3
603954.25
185420.54
78658.209
40025.27
22797.912
14001.275
9068.9675
6109.437
4240.8122
3013.5556
2182.0057
1604.2465
1194.5013
898.9492
682.74447
522.72106
403.12611
313.03923
244.76456
192.80255
153.17539
122.97637
100.05888
82.821727
70.06404
60.898172
54.625341
50.642834
48.353856
46.897656
45.140865
42.708692
39.706806
35.021138
28.422858
20.799378
13.585883
8.1730817
4.9683841
3.2415696
2.2770245
1.7073716
1.3291665
1.0384631
0.81605601
0.64899992
0.52133674
0.42563268
0.35064563
0.29085552
0.2430579
0.2086576
0.17890984
0.15633985
0.13758744
0.12424475
0.11343027
0.1055267
0.099136292
0.094694601
0.090882849
0.087973469
0.085755456
0.084026028
3738088.5
603968.41
185424.97
78660.204
40026.415
22798.715
14001.937
9069.5858
6110.0664
4241.4878
3014.3035
2182.8479
1605.2037
1195.5948
900.20175
684.1818
524.37254
405.0256
315.22549
247.28094
195.69553
156.49436
126.77102
104.37671
87.700767
75.493072
66.77603
60.712537
56.476746
53.112875
49.864146
46.472677
42.493526
36.876832
29.699062
21.808608
14.503911
8.970176
5.535005
3.6025116
2.5339178
1.9168779
1.4957814
1.1669234
0.91774411
0.73051998
0.58740428
0.47608692
0.39092945
0.32390638
0.27409871
0.23151241
0.19599819
0.16727214
0.14761895
0.13154277
0.11992046
0.11021675
0.10326599
0.097445504
0.093184716
0.089707756
0.087421511
0.085365257
0.083661813
3738178.6
603983.08
185429.59
78662.313
40027.66
22799.62
14002.714
9070.3367
6110.8485
4242.3396
3015.254
2183.9222
1606.4258
1196.9892
901.79446
686.00107
526.44933
407.39354
317.9203
250.33882
199.15012
160.37007
131.07382
109.08162
92.738659
80.751354
71.956405
65.332798
59.983449
55.234881
50.661871
45.453203
38.885784
31.147468
23.006818
15.58483
9.8707905
6.1574295
3.9961077
2.8055671
2.1220792
1.6532605
1.2962089
1.0299564
0.82522656
0.6638366
0.53797923
0.43951008
0.36487213
0.30541021
0.25695941
0.21579937
0.18672532
0.16226172
0.14392435
0.12832883
0.11711396
0.10797106
0.10128983
0.095816234
0.092134718
0.089047655
0.086583163
0.084714262
0.083214819
3738271.2
603998.24
185434.39
78664.539
40029.008
22800.629
14003.604
9071.2143
6111.7748
4243.3553
3016.3904
2185.2066
1607.8839
1198.6472
903.67962
688.14207
528.87586
410.13512
321.00368
253.78357
202.96155
164.52866
135.52046
113.69829
97.323527
84.997481
75.553132
68.004042
61.525871
55.45326
48.838124
41.263885
32.923327
24.476941
16.861345
10.90257
6.8834046
4.4778413
3.142325
2.3730234
1.8535715
1.4693968
1.1775357
0.94253739
0.75452833
0.60932293
0.49738445
0.40936528
0.34148653
0.28585597
0.24361362
0.20778413
0.17848645
0.15370599
0.13726809
0.12332834
0.11357181
0.10537535
0.099435115
0.094609654
0.091077144
0.087987698
0.086058991
0.084442098
0.083012917
3738367.1
604011.15
185437.02
78665.046
40029.097
22800.707
14003.796
9071.5687
6112.3132
4244.092
3017.3387
2186.3803
1609.2988
1200.3207
905.63055
690.38978
531.43829
413.02566
324.22656
257.32704
206.78872
168.56621
139.64644
117.73191
101.02215
88.068726
77.68254
68.961434
60.943112
52.754556
44.092648
35.08683
26.263536
18.38226
12.124752
7.7661422
5.0714481
3.5369587
2.6468998
2.0647008
1.6462163
1.3222512
1.0578192
0.84979706
0.68991117
0.5642388
0.46408998
0.38410354
0.32272636
0.27276986
0.23204764
0.19602302
0.17078781
0.14991179
0.13455165
0.12122464
0.11165176
0.10380324
0.097989671
0.09334369
0.090147713
0.087528745
0.085586583
0.083914749
0.08267837
3739014.3
604121.84
185474.34
78682.8
40039.254
22807.303
14008.516
9075.2275
6115.3536
4246.7761
3019.8341
2188.8015
1611.7287
1202.8218
908.25116
693.16598
534.39378
416.16911
327.54666
260.78561
210.31229
172.03765
142.8995
120.55309
103.16398
89.303323
77.731213
67.302442
57.298579
47.37674
37.569207
28.2551
20.028412
13.436996
8.7262635
5.7196483
3.9602921
2.9409733
2.3000049
1.8495134
1.4960474
1.2067838
0.97771708
0.79482899
0.64613225
0.52787746
0.43526249
0.3621011
0.3056038
0.25773993
0.22093958
0.18977075
0.16501266
0.14325231
0.1292448
0.11707027
0.10860261
0.10160215
0.096375761
0.0924202
0.089377681
0.086705337
0.084998839
0.083602582
0.082542034
3739013.7
604118.85
185471.97
78681.109
40038.171
22806.67
14008.231
9075.2305
6115.6115
4247.2713
3020.5589
2189.7546
1612.9123
1204.2391
909.90322
695.04835
536.4917
418.45167
329.95975
263.24435
212.69432
174.17953
144.6007
121.60064
103.28781
88.09756
74.861559
62.773234
51.380432
40.592083
30.639638
21.953528
14.960853
9.8585141
6.5005231
4.4787298
3.3009395
2.5774504
2.0757179
1.6827332
1.3635021
1.1066518
0.89665032
0.72753452
0.59585856
0.49270523
0.40981636
0.3427526
0.29076329
0.24737774
0.21236675
0.18042865
0.15835828
0.14016655
0.12709107
0.11538663
0.1072067
0.10041325
0.095245528
0.091346888
0.088491436
0.08634424
0.084738925
0.083302324
0.082336151
3739013.8
604119
185472.13
78681.331
40038.46
22807.033
14008.675
9075.7658
6116.2465
4248.0156
3021.4216
2190.7441
1614.0344
1205.4954
911.28856
696.54702
538.07301
420.06472
331.52821
264.66259
213.82816
174.86264
144.61836
120.65148
101.1038
84.569895
70.04505
56.90665
44.898709
34.082595
24.725924
17.130824
11.454582
7.5869057
5.1769658
3.7534544
2.898241
2.3283186
1.8974743
1.5519432
1.2687354
1.0337614
0.84394496
0.69246426
0.56933637
0.46965996
0.39019952
0.32706561
0.27845085
0.23626731
0.20371471
0.17574118
0.15438496
0.1350827
0.12293995
0.11213909
0.10469657
0.098583887
0.093915827
0.090707525
0.08799035
0.085659939
0.084247828
0.082976106
0.082183256
3739014
604119.11
185472.22
78681.453
40038.62
22807.237
14008.928
9076.0739
6116.616
4248.4521
3021.9299
2191.3264
1614.6892
1206.2153
912.05705
697.33537
538.83657
420.73865
332.02186
264.85332
213.55063
173.91536
142.80334
117.83742
97.231955
79.691767
64.355602
50.753644
38.748155
28.433293
19.992032
13.536969
8.9953284
6.0730607
4.3205951
3.2895081
2.6344802
2.1575664
1.7751909
1.4556818
1.1885287
0.97021739
0.79217096
0.64777755
0.53372455
0.44401938
0.37182382
0.31317253
0.26770609
0.22874744
0.19782055
0.16902814
0.14940636
0.13293447
0.12145475
0.11097719
0.1037585
0.097796612
0.093144187
0.089877033
0.087230279
0.085405054
0.084057478
0.082834771
0.082053322
3739014.9
604119.2
185472.25
78681.469
40038.641
22807.269
14008.974
9076.1374
6116.6999
4248.5584
3022.0586
2191.4745
1614.8486
1206.3705
912.18211
697.39008
538.76151
420.45118
331.41574
263.80209
211.92105
171.58403
139.67288
113.86468
92.459734
74.274629
58.567174
44.963217
33.361811
23.810453
16.364022
10.960873
7.353104
5.1276062
3.8156885
3.0121666
2.4569622
2.0250351
1.6685153
1.3718819
1.1263649
0.92287297
0.75723825
0.62448658
0.51673441
0.42900143