/*--------------------------------*- C++ -*----------------------------------*\
  =========                 |
  \\      /  F ield         | OpenFOAM: The Open Source CFD Toolbox
   \\    /   O peration     | Website:  https://openfoam.org
    \\  /    A nd           | Version:  13
     \\/     M anipulation  |
\*---------------------------------------------------------------------------*/
FoamFile
{
    format      ascii;
    class       volScalarField;
    location    "29.403875";
    object      yPlus;
}
// * * * * * * * * * * * * * * * * * * * * * * * * * * * * * * * * * * * * * //

dimensions      [];

internalField   uniform 0;

boundaryField
{
    inlet
    {
        type            calculated;
        value           uniform 0;
    }
    outlet
    {
        type            calculated;
        value           uniform 0;
    }
    cylinder
    {
        type            calculated;
        value           nonuniform List<scalar> 
132
(
2.3316276e-07
2.3240985e-07
2.3084623e-07
2.2839429e-07
2.2506083e-07
2.208383e-07
2.1572924e-07
2.0975027e-07
2.0293333e-07
1.9532645e-07
1.8699466e-07
1.7802049e-07
1.6850367e-07
1.5856121e-07
1.4832516e-07
1.3794126e-07
1.2756475e-07
1.1735889e-07
1.0748967e-07
9.8110136e-08
8.9358087e-08
8.1330096e-08
7.4053629e-08
6.7454369e-08
6.1325542e-08
5.5328025e-08
4.9056836e-08
4.2185877e-08
3.4651883e-08
2.6769269e-08
1.9186244e-08
1.2673326e-08
7.88509e-09
5.2535768e-09
4.8144846e-09
5.6131248e-09
6.9548255e-09
8.6869503e-09
1.0825672e-08
1.3425942e-08
1.6616054e-08
2.0512143e-08
2.4790315e-08
2.9383119e-08
3.4162344e-08
3.9005977e-08
4.3807968e-08
4.8491033e-08
5.2995416e-08
5.7285721e-08
6.1335248e-08
6.5135942e-08
6.8668698e-08
7.191238e-08
7.4925757e-08
7.7678012e-08
8.0162954e-08
8.2390325e-08
8.4369389e-08
8.6106845e-08
8.7613927e-08
8.8855848e-08
8.9867174e-08
9.0625373e-08
9.1147172e-08
9.1425499e-08
2.3308631e-07
2.3214689e-07
2.3039192e-07
2.2777164e-07
2.2426458e-07
2.1986221e-07
2.1456856e-07
2.0840145e-07
2.0139386e-07
1.9359491e-07
1.8507114e-07
1.7590693e-07
1.6620466e-07
1.5608384e-07
1.4567909e-07
1.3513884e-07
1.2462275e-07
1.1430017e-07
1.0433974e-07
9.4901065e-08
8.6123561e-08
7.8105387e-08
7.0871415e-08
6.4332239e-08
5.8250621e-08
5.2252731e-08
4.5917572e-08
3.8947763e-08
3.1372616e-08
2.3633825e-08
1.6457591e-08
1.0589441e-08
6.6189967e-09
4.8742005e-09
5.0273316e-09
6.0634894e-09
7.5416531e-09
9.4056727e-09
1.1686917e-08
1.4441689e-08
1.7789827e-08
2.1837859e-08
2.6235259e-08
3.0911404e-08
3.5730434e-08
4.0577648e-08
4.5357654e-08
4.9993839e-08
5.443799e-08
5.8656268e-08
6.2626042e-08
6.634115e-08
6.9783611e-08
7.2937268e-08
7.5880063e-08
7.8539585e-08
8.0941058e-08
8.3083771e-08
8.4986747e-08
8.6643546e-08
8.8064568e-08
8.9226782e-08
9.0153768e-08
9.0826391e-08
9.1260887e-08
9.1458915e-08
)
;
    }
    frontAndBack
    {
        type            empty;
    }
}


// ************************************************************************* //
