/*--------------------------------*- C++ -*----------------------------------*\
  =========                 |
  \\      /  F ield         | OpenFOAM: The Open Source CFD Toolbox
   \\    /   O peration     | Website:  https://openfoam.org
    \\  /    A nd           | Version:  13
     \\/     M anipulation  |
\*---------------------------------------------------------------------------*/
FoamFile
{
    format      ascii;
    class       volVectorField;
    location    "17.496307";
    object      UMean;
}
// * * * * * * * * * * * * * * * * * * * * * * * * * * * * * * * * * * * * * //

dimensions      [0 1 -1 0 0 0 0];

internalField   nonuniform List<vector> 
17140
(
(-2.6306369e-06 0.00010186122 -2.0802586e-22)
(-3.7323892e-05 0.00031319267 -1.7351021e-23)
(-0.00011314571 0.0005439203 1.1467959e-21)
(-0.00024622141 0.00079519542 -1.2612568e-21)
(-0.00045112922 0.0010682555 1.4752154e-22)
(-0.00074783034 0.0013641589 -4.8298909e-22)
(-0.0011608859 0.0016837334 -8.1365432e-22)
(-0.0017199756 0.0020274805 3.978924e-22)
(-0.0024608492 0.0023954585 1.3032687e-21)
(-0.0034262601 0.0027871463 3.2007003e-21)
(-0.0046669048 0.003201285 -4.7555263e-21)
(-0.0062423232 0.0036357038 4.2472796e-21)
(-0.0082216999 0.0040871366 6.5117915e-22)
(-0.010684455 0.0045510356 -3.7003729e-21)
(-0.013720491 0.0050214111 4.1231077e-22)
(-0.017429944 0.0054907118 -3.2837981e-21)
(-0.021922246 0.0059497965 1.2355437e-22)
(-0.027314357 0.0063880305 -2.703795e-23)
(-0.033728014 0.0067935655 -1.9801063e-21)
(-0.041286001 0.0071538496 2.5907309e-21)
(-0.050107593 0.0074563979 -1.2564847e-21)
(-0.060303596 0.0076898211 2.4347715e-22)
(-0.071971652 0.0078450229 1.8002426e-21)
(-0.085193155 0.0079164237 -1.8063238e-21)
(-0.10003435 0.0079029604 -2.8968375e-21)
(-0.1165477 0.007808637 2.3495428e-21)
(-0.13477145 0.0076421739 1.1594676e-20)
(-0.15474804 0.0074147013 1.365138e-21)
(-0.17652613 0.0071381846 -1.2136191e-20)
(-0.2001677 0.00682354 -2.8420182e-21)
(-0.22574656 0.0064732479 -1.0211609e-20)
(-0.25331622 0.0060832655 1.3538596e-20)
(-0.28292669 0.005652311 -3.5315912e-21)
(-0.31462416 0.0051786007 -1.7031919e-21)
(-0.34843348 0.0046594056 -1.6720204e-20)
(-0.38434693 0.0040915046 7.3927109e-21)
(-0.42231233 0.0034706746 -1.1113879e-20)
(-0.46221397 0.002791628 -7.5166868e-21)
(-0.50384909 0.0020481527 -3.4285415e-21)
(-0.54689927 0.001234199 1.0409234e-20)
(-0.59089851 0.00034418029 1.9521043e-20)
(-0.63520098 -0.00062532311 1.7598279e-20)
(-0.67894914 -0.001675125 7.6313467e-21)
(-0.72106185 -0.0028020624 -3.6531103e-20)
(-0.7602383 -0.0039963364 -2.6346116e-20)
(-0.79495956 -0.0052342151 6.3940266e-21)
(-0.82366304 -0.0064891835 -4.2819153e-20)
(-0.84485229 -0.0077460885 -1.4328944e-20)
(-0.85678862 -0.0089938741 1.4411913e-20)
(-0.85818842 -0.010181311 3.489485e-20)
(-0.84785128 -0.011248108 -2.1336016e-20)
(-0.82481624 -0.012157247 -1.3428322e-20)
(-0.7880873 -0.012931483 3.4969719e-20)
(-0.73696721 -0.013566923 1.6588439e-20)
(-0.67056167 -0.013976476 1.1935453e-20)
(-0.58852363 -0.014060063 -9.4096949e-21)
(-0.49073653 -0.013740421 2.6040633e-20)
(-0.3773985 -0.012908039 2.208682e-20)
(-0.24903057 -0.011448487 5.6581373e-21)
(-0.10778984 -0.0093362093 -1.4735188e-20)
(0.043216842 -0.0067099949 -1.1778682e-20)
(0.19692468 -0.0039934038 -4.4287922e-20)
(0.34685101 -0.0017107758 -6.5622411e-21)
(0.47902856 -0.00010229625 5.5367913e-20)
(0.59616658 0.00045995315 -4.2846665e-20)
(-2.9102154e-05 0.00067862391 5.9026921e-23)
(-0.00011817215 0.002089055 -6.0069153e-21)
(-0.00025278843 0.0036312228 5.3466986e-21)
(-0.000449008 0.0053134377 -1.4584632e-21)
(-0.00072149584 0.0071437635 -3.0136122e-21)
(-0.0010901323 0.0091292753 5.7612059e-21)
(-0.0015792744 0.011275651 -6.0106792e-21)
(-0.0022182481 0.013586586 5.2947207e-22)
(-0.0030422644 0.01606309 -1.6547767e-21)
(-0.0040933162 0.01870264 -2.7681387e-23)
(-0.0054210807 0.021498234 -5.5421119e-21)
(-0.0070837858 0.024437311 8.8273149e-21)
(-0.0091489828 0.027500631 7.3083105e-22)
(-0.011694118 0.030661137 -7.2362408e-21)
(-0.014806782 0.033882951 2.2316549e-21)
(-0.018584479 0.037120653 1.4227202e-21)
(-0.023133754 0.040319068 -9.0591504e-21)
(-0.028568515 0.043413873 2.9667014e-20)
(-0.035007434 0.046333338 -1.8677687e-20)
(-0.042570391 0.049001529 2.24997e-20)
(-0.051374144 0.051343234 -3.3452999e-20)
(-0.06152758 0.053290564 8.2574649e-21)
(-0.073127235 0.054790832 3.4292947e-21)
(-0.086254248 0.055814631 -1.1266064e-20)
(-0.10097532 0.056362426 4.0844517e-20)
(-0.11734463 0.056467624 6.1085668e-21)
(-0.13540168 0.056193094 -3.2064697e-20)
(-0.15519007 0.055616058 3.6169803e-20)
(-0.17675987 0.054812693 -5.0614892e-21)
(-0.20017242 0.05384098 -4.9378912e-20)
(-0.22550003 0.052735967 5.1907217e-21)
(-0.25279574 0.051513183 3.9661236e-20)
(-0.28210772 0.050184487 9.4721433e-22)
(-0.31347757 0.048751666 -2.987411e-20)
(-0.34692617 0.047206341 3.35173e-20)
(-0.38243996 0.045531958 -1.5114415e-20)
(-0.41995925 0.043702646 1.7955901e-20)
(-0.4593589 0.041682493 5.6962089e-20)
(-0.50042453 0.039425373 1.2689197e-20)
(-0.54282388 0.0368763 4.9623449e-20)
(-0.58607432 0.033974411 -6.3559585e-20)
(-0.6295102 0.030657938 -5.7949222e-20)
(-0.67225206 0.026871435 -9.7154725e-21)
(-0.71319084 0.022573713 7.8250327e-20)
(-0.7509863 0.017750787 -3.6281382e-20)
(-0.78408252 0.012441212 -1.2374633e-20)
(-0.81083199 0.0067372182 6.6796537e-21)
(-0.8296587 0.00073139031 2.0340274e-20)
(-0.83901313 -0.0054710502 -9.8517208e-21)
(-0.83746671 -0.011701369 1.7624904e-20)
(-0.82384105 -0.017836619 1.0560067e-19)
(-0.79717186 -0.023797728 5.050645e-21)
(-0.75659439 -0.029547369 -2.2740981e-20)
(-0.70140572 -0.035057787 5.0796558e-20)
(-0.63097367 -0.04022495 -4.3736288e-20)
(-0.54500322 -0.044889716 1.2562779e-19)
(-0.44338151 -0.048929949 3.6280906e-20)
(-0.32649382 -0.052131344 -1.0442404e-19)
(-0.19502611 -0.05415669 1.7898995e-20)
(-0.051152394 -0.05456399 2.0980589e-20)
(0.10187072 -0.052903957 4.2999692e-21)
(0.25675778 -0.0490494 -5.7717187e-20)
(0.40716067 -0.042844894 1.1390539e-19)
(0.53924489 -0.035641943 3.4196149e-20)
(0.65548522 -0.028259222 5.702289e-20)
(-8.7089767e-05 0.0012433648 3.2518846e-21)
(-0.00029520024 0.0038283524 -1.8093607e-21)
(-0.00055833942 0.0066556611 -4.8126802e-22)
(-0.00089240363 0.0097408827 4.5665784e-22)
(-0.0013121756 0.013099016 -2.2132964e-21)
(-0.001837283 0.016743346 -1.6429737e-22)
(-0.0024915443 0.020684688 -2.1052732e-21)
(-0.0033034043 0.024930338 -2.2701157e-21)
(-0.0043067713 0.029482792 1.8585373e-20)
(-0.0055418314 0.034338228 -1.6619312e-20)
(-0.0070558719 0.039484767 7.9684737e-21)
(-0.0089040725 0.044900521 1.1699519e-20)
(-0.011150216 0.050551514 -2.3267767e-20)
(-0.013867227 0.056389591 -2.8872085e-21)
(-0.017137418 0.062350511 1.120087e-20)
(-0.021052325 0.068352542 7.7326676e-21)
(-0.025711969 0.074295954 -9.0136659e-21)
(-0.031223397 0.080063947 3.2812288e-20)
(-0.037698408 0.085525645 -1.9527897e-20)
(-0.045250414 0.09054176 9.7169959e-21)
(-0.05399058 0.094973427 -3.3039751e-20)
(-0.06402358 0.098694231 -8.6633352e-21)
(-0.075443521 0.10160475 1.8236156e-20)
(-0.088331029 0.1036477 -2.766856e-20)
(-0.10275383 0.10482062 -1.0958009e-20)
(-0.11876961 0.10518206 1.3359529e-20)
(-0.13642065 0.10484631 7.6323398e-20)
(-0.15575356 0.10395728 3.4732906e-20)
(-0.17681983 0.10265604 -1.7625024e-20)
(-0.19967953 0.10105051 1.8798335e-20)
(-0.22440232 0.099210851 -1.2046295e-20)
(-0.25103877 0.097172678 -6.7975391e-20)
(-0.27963298 0.09496021 2.2923234e-20)
(-0.31021568 0.092579299 6.8733058e-20)
(-0.34279802 0.090015883 -2.3312109e-20)
(-0.37735292 0.087239571 -3.2578557e-20)
(-0.41380342 0.084202376 5.6629648e-20)
(-0.45200268 0.080837004 1.7210266e-20)
(-0.4917091 0.077056662 -3.0994359e-20)
(-0.53255703 0.072756584 -1.250427e-20)
(-0.57402373 0.067819371 5.9656637e-20)
(-0.61539581 0.062123588 -1.7120413e-20)
(-0.65573798 0.055556847 -2.4528766e-20)
(-0.6938769 0.048030725 -6.4733658e-20)
(-0.72839465 0.039505034 1.2264937e-19)
(-0.75766422 0.030035764 -7.8635747e-20)
(-0.78001671 0.019802566 -1.944718e-20)
(-0.79380693 0.0090096559 -7.7309522e-20)
(-0.79748817 -0.0021678389 -9.2224733e-20)
(-0.78972668 -0.013441777 -4.6398129e-21)
(-0.76949927 -0.024563633 1.9518836e-20)
(-0.73601722 -0.035406078 -1.4499205e-19)
(-0.68861639 -0.045940307 -6.2140021e-20)
(-0.62672365 -0.056128866 -6.4377297e-20)
(-0.54993122 -0.065833924 -2.1282207e-20)
(-0.45811829 -0.074837966 -1.677721e-19)
(-0.35148442 -0.082945284 6.7335923e-20)
(-0.2307044 -0.089854446 -2.1043681e-20)
(-0.096634478 -0.095056461 -1.7535814e-19)
(0.04829044 -0.097705143 -7.0988094e-20)
(0.20079649 -0.096709738 8.6386208e-20)
(0.35330598 -0.09143411 3.0232508e-19)
(0.49951922 -0.081083612 -9.793969e-20)
(0.62597435 -0.067989543 -1.5842457e-19)
(0.7338151 -0.053397782 -6.7941287e-20)
(-0.00017472165 0.0017763835 -1.0845599e-20)
(-0.00056267013 0.0054708921 1.2974914e-20)
(-0.001019995 0.0095133245 -4.6930241e-21)
(-0.0015622755 0.013926564 5.1050616e-22)
(-0.0022044886 0.018732628 -1.0094658e-20)
(-0.0029658675 0.023951274 1.0453417e-20)
(-0.0038694029 0.029598907 -1.5868326e-20)
(-0.004942192 0.035687115 7.4771381e-21)
(-0.0062161559 0.042220864 2.8458495e-20)
(-0.0077287271 0.049196349 -6.857323e-21)
(-0.0095235518 0.056598521 -2.6162563e-20)
(-0.011651163 0.064398288 8.010313e-21)
(-0.014169598 0.072549501 5.3913092e-22)
(-0.017144872 0.080985881 -2.1099011e-20)
(-0.020651223 0.08961815 6.6317733e-20)
(-0.024771032 0.098331803 -4.0934624e-20)
(-0.029594273 0.10698607 -3.9191256e-22)
(-0.03521738 0.11541487 2.2943469e-20)
(-0.041741455 0.12343059 -5.8736515e-20)
(-0.049269752 0.13083178 2.7983621e-20)
(-0.057904544 0.13741532 4.2155641e-20)
(-0.067743642 0.14299357 1.7236227e-20)
(-0.078876982 0.14741525 -8.6392295e-20)
(-0.09138399 0.15058806 -4.5673738e-20)
(-0.10533367 0.15249805 2.9990585e-20)
(-0.12078828 0.15322028 -1.7646933e-20)
(-0.1377951 0.15291407 6.7194798e-20)
(-0.15640523 0.15178982 -1.9518173e-20)
(-0.17667103 0.15005318 5.3311801e-20)
(-0.19865213 0.14786704 -3.0545852e-20)
(-0.22241447 0.14533998 1.9007161e-20)
(-0.24800393 0.14253076 -7.0713811e-20)
(-0.27545852 0.13947272 1.0309696e-20)
(-0.30479296 0.13617635 -5.4493112e-20)
(-0.33600299 0.13262293 5.271881e-20)
(-0.36904146 0.12876773 1.6763365e-20)
(-0.40380555 0.12453971 -2.1359964e-19)
(-0.44011596 0.1198392 -5.5851156e-20)
(-0.47769115 0.11453745 4.670881e-20)
(-0.51611725 0.1084792 -4.6047616e-20)
(-0.55481492 0.10149003 1.1715393e-20)
(-0.59300569 0.09338877 7.4357076e-20)
(-0.62968213 0.084005955 -3.5146686e-21)
(-0.66359172 0.073207442 -2.4547381e-20)
(-0.69323472 0.060934632 1.2192876e-20)
(-0.7169429 0.047279664 -5.4464074e-21)
(-0.73307347 0.032500796 -1.6769477e-20)
(-0.73996829 0.01691778 2.6250293e-19)
(-0.73619205 0.00084842382 -2.9128647e-20)
(-0.72061913 -0.015281696 2.6909541e-20)
(-0.69247617 -0.031130538 -2.5256713e-19)
(-0.65120831 -0.046531158 1.388195e-19)
(-0.5963653 -0.061464375 1.142335e-19)
(-0.5275731 -0.07590094 1.0985822e-19)
(-0.44464263 -0.089683009 1.0682937e-19)
(-0.34773568 -0.10253896 1.6993905e-19)
(-0.23738697 -0.11421918 -3.4381676e-19)
(-0.11461632 -0.12437873 2.1508902e-19)
(0.01949386 -0.13233905 3.3303156e-19)
(0.16218709 -0.13690996 -2.4842297e-19)
(0.31011591 -0.13635481 -8.1146487e-20)
(0.45538574 -0.12952611 -7.2666426e-20)
(0.59170354 -0.11506544 3.7015685e-19)
(0.70623883 -0.095990187 2.7363691e-19)
(0.79918097 -0.074504864 -1.1937949e-20)
(-0.00028789565 0.002258068 7.5950735e-21)
(-0.00090818258 0.0069566261 -1.8924907e-20)
(-0.0016164345 0.012100352 1.5435158e-20)
(-0.002427855 0.017719347 -5.836118e-21)
(-0.0033576944 0.023842683 -2.1095453e-21)
(-0.0044247088 0.030496873 1.8169315e-20)
(-0.0056508556 0.037704481 -4.6085608e-21)
(-0.0070615343 0.045482316 -9.7961574e-21)
(-0.0086861449 0.053839167 -7.534365e-22)
(-0.010558611 0.062773128 -6.409665e-21)
(-0.012717921 0.072268445 8.997283e-21)
(-0.015208642 0.082291953 -6.2742171e-21)
(-0.0180814 0.092789159 -2.3200793e-20)
(-0.02139326 0.10368019 -6.7452611e-22)
(-0.025207951 0.11485586 1.7920117e-20)
(-0.029595858 0.12617449 1.2773287e-20)
(-0.034633692 0.13745998 -1.1070437e-20)
(-0.040403751 0.14850235 1.0787324e-21)
(-0.046992716 0.15906175 2.2002795e-20)
(-0.054489923 0.16887731 2.7086711e-20)
(-0.062985187 0.17768195 -3.1291931e-20)
(-0.072566339 0.18522377 -3.1898589e-20)
(-0.083316762 0.19129309 4.3517083e-20)
(-0.095313342 0.1957524 -5.4573493e-20)
(-0.1086261 0.19856372 -9.5769878e-20)
(-0.12332138 0.19980524 2.2893735e-19)
(-0.13945567 0.1996699 -1.2766e-19)
(-0.15708398 0.1984298 1.9112188e-19)
(-0.1762589 0.19635682 -2.4139586e-19)
(-0.19704311 0.19367714 2.7194461e-19)
(-0.21949728 0.19054012 -2.8355459e-19)
(-0.2436598 0.18703262 4.8244662e-20)
(-0.2695602 0.18319431 1.6707641e-19)
(-0.29719691 0.17904031 -9.484141e-20)
(-0.32654347 0.17454876 2.9871284e-20)
(-0.35752731 0.16966032 8.8914636e-21)
(-0.39001305 0.16427984 1.0831053e-19)
(-0.4237814 0.15827433 3.521375e-20)
(-0.45850289 0.15147258 3.5314402e-20)
(-0.49370782 0.1436686 3.545548e-20)
(-0.52875315 0.13463114 -1.8089939e-19)
(-0.56279012 0.12411961 7.9351319e-20)
(-0.59473816 0.11190861 1.2161556e-20)
(-0.62327246 0.097822121 -1.4425708e-19)
(-0.64683898 0.081797278 -7.2344027e-20)
(-0.66379041 0.063985703 3.5684853e-20)
(-0.6725656 0.044750832 1.2737807e-19)
(-0.67163703 0.024515611 -5.5525456e-20)
(-0.65975778 0.003762287 1.5962181e-19)
(-0.63604594 -0.016938045 8.6297634e-20)
(-0.59994392 -0.03715331 1.1912828e-19)
(-0.55109433 -0.056709969 3.1843005e-19)
(-0.48920039 -0.075625806 -2.4740767e-19)
(-0.4140423 -0.093884675 8.0196376e-20)
(-0.32567001 -0.11128927 -1.4086685e-19)
(-0.22460988 -0.1275038 -1.3511226e-19)
(-0.11178215 -0.14223032 -5.3228427e-20)
(0.011389325 -0.15511967 -4.9874387e-19)
(0.14351155 -0.16535901 -1.3714349e-19)
(0.28139668 -0.17145102 3.1960231e-19)
(0.42150153 -0.17102555 1.2268303e-19)
(0.55565382 -0.16243507 -9.4332348e-20)
(0.67735682 -0.14391804 -1.9709497e-19)
(0.77501473 -0.11899427 -3.0689277e-19)
(0.84931183 -0.091305215 2.3557204e-20)
(-0.00042032448 0.0026697031 2.2988155e-20)
(-0.0013126422 0.0082281751 6.0747736e-21)
(-0.0023148139 0.01431736 -4.9231895e-21)
(-0.0034416742 0.020974379 -1.8184466e-20)
(-0.0047088453 0.028235296 9.9695313e-21)
(-0.0061345974 0.036133629 -1.436323e-20)
(-0.0077397625 0.044698712 6.2219871e-21)
(-0.0095478486 0.053953635 1.4838668e-21)
(-0.011585414 0.063912644 -8.4152581e-21)
(-0.013882391 0.074578026 -1.8176769e-20)
(-0.016472429 0.085936415 -9.1192259e-22)
(-0.019393217 0.097954549 3.0075359e-20)
(-0.022686778 0.11057454 -4.1781579e-20)
(-0.026399717 0.12370884 6.7832568e-20)
(-0.030583379 0.13723526 -1.7842145e-20)
(-0.035293885 0.15099249 3.8186616e-20)
(-0.040592005 0.16477717 -4.6601386e-20)
(-0.046542818 0.17834325 3.0582155e-20)
(-0.053215144 0.19140552 -4.8965651e-21)
(-0.06068071 0.20364864 -2.011916e-20)
(-0.069013089 0.21474343 4.9622129e-20)
(-0.078286497 0.2243714 -7.1191688e-20)
(-0.088574576 0.23225709 7.874341e-20)
(-0.099949307 0.23820541 1.3707447e-20)
(-0.11248052 0.24213772 -1.3750598e-19)
(-0.12623755 0.24411702 1.4137165e-19)
(-0.14128836 0.24435176 -9.352652e-20)
(-0.15769162 0.24316313 1.0648013e-19)
(-0.17550407 0.24089662 1.0070105e-20)
(-0.19479112 0.23784704 6.3182443e-21)
(-0.21560622 0.23420852 -4.4035438e-20)
(-0.23798053 0.23010255 2.8264838e-21)
(-0.26193115 0.2255813 -1.6887161e-19)
(-0.28744378 0.22065763 4.6272937e-20)
(-0.31446369 0.21530699 1.3873796e-19)
(-0.34288873 0.20945694 -6.5276313e-20)
(-0.37254661 0.20298839 5.4099287e-20)
(-0.40317404 0.195735 -5.4337473e-20)
(-0.43439058 0.18748345 -3.0413686e-19)
(-0.465669 0.17797776 1.686339e-19)
(-0.49630374 0.16693078 4.1179818e-20)
(-0.52538152 0.15404448 -2.3327167e-19)
(-0.55176232 0.13904134 1.3987048e-20)
(-0.57407723 0.12171245 2.8689247e-20)
(-0.59077437 0.1020098 3.0439143e-19)
(-0.60032572 0.080167598 6.9905126e-20)
(-0.60129557 0.0566659 -1.0876279e-19)
(-0.59239753 0.032024133 -1.1023771e-19)
(-0.5725804 0.0068877397 -1.5527867e-19)
(-0.54112734 -0.018047366 -1.9015143e-19)
(-0.49759951 -0.042272188 -1.1550094e-19)
(-0.44177916 -0.065610323 -1.8048034e-19)
(-0.37348028 -0.088118878 6.199338e-20)
(-0.29262791 -0.10977552 -3.8392374e-19)
(-0.1995381 -0.13031768 -2.5848708e-20)
(-0.095175201 -0.14933675 -2.2627809e-20)
(0.019080448 -0.16650876 -1.2293554e-20)
(0.14137033 -0.18152162 5.3703358e-19)
(0.26997505 -0.19344316 2.1444838e-19)
(0.4011209 -0.2005361 -3.3646024e-19)
(0.53091397 -0.19986295 -4.9360257e-19)
(0.65098207 -0.18922613 -2.2507684e-19)
(0.75448305 -0.16670859 -7.4347765e-20)
(0.83202462 -0.13643009 4.3549622e-19)
(0.88617051 -0.10370595 -1.0973658e-19)
(-0.0005636587 0.0029947649 -4.3093343e-21)
(-0.0017509776 0.0092346596 -1.022966e-20)
(-0.0030718078 0.016076032 2.4704242e-20)
(-0.0045410752 0.023562566 -9.2013165e-22)
(-0.0061747394 0.031737136 -1.2048057e-20)
(-0.007990669 0.040640387 -5.3156098e-21)
(-0.01000861 0.050308964 -3.9301089e-21)
(-0.012250173 0.060773304 7.7584402e-21)
(-0.014739 0.072054828 -4.024775e-20)
(-0.017500882 0.084162537 3.0455491e-20)
(-0.02056387 0.097088924 -1.4759273e-21)
(-0.023958367 0.11080519 -1.8562735e-20)
(-0.027717206 0.12525585 6.9791426e-20)
(-0.031875711 0.14035273 -6.9970844e-20)
(-0.036471725 0.15596897 9.3947688e-21)
(-0.041545632 0.17193316 5.8575574e-20)
(-0.047140361 0.18802487 -5.5636313e-20)
(-0.053301387 0.20397245 1.9685561e-20)
(-0.060076764 0.21945508 -3.8722785e-20)
(-0.067517193 0.23411078 5.0433482e-20)
(-0.075676157 0.24755269 9.6214354e-20)
(-0.084610162 0.25939524 -9.6901851e-20)
(-0.094379019 0.26929043 -1.4439431e-19)
(-0.10504615 0.27697192 2.8348745e-19)
(-0.11667861 0.28230049 -2.3119337e-19)
(-0.12934751 0.28530004 1.3629589e-19)
(-0.14312926 0.28617016 -3.5713196e-20)
(-0.15809238 0.28526169 8.5402801e-20)
(-0.17430035 0.28299495 -8.8697701e-20)
(-0.19181418 0.27973647 -1.2059867e-19)
(-0.2106864 0.27573867 8.115386e-20)
(-0.23094415 0.27116237 1.3515734e-19)
(-0.25258323 0.26608395 -1.2099275e-20)
(-0.27557661 0.26051228 -5.0933781e-21)
(-0.29984513 0.25441322 -8.8940606e-20)
(-0.32525276 0.24770332 3.870115e-20)
(-0.35158864 0.24024188 1.4244117e-19)
(-0.3785441 0.23183084 7.1716982e-20)
(-0.40568805 0.22221615 -1.1036524e-19)
(-0.43243904 0.21109383 8.7627031e-20)
(-0.4580365 0.19812352 -7.4166125e-20)
(-0.48151692 0.18295337 2.5131446e-20)
(-0.50170615 0.16526101 9.4307745e-20)
(-0.51723602 0.14482098 -2.2485597e-19)
(-0.52663305 0.1216254 -1.3315624e-19)
(-0.52856991 0.096002171 -8.5905384e-20)
(-0.52180983 0.06853134 2.6741196e-19)
(-0.50530359 0.039820173 1.7207399e-19)
(-0.47811233 0.010621777 2.0030188e-19)
(-0.43954043 -0.018246683 3.472456e-19)
(-0.38922585 -0.046175824 -1.1932172e-19)
(-0.32708004 -0.072973367 2.5134619e-20)
(-0.25302626 -0.098739347 2.0001171e-19)
(-0.16718255 -0.12342875 5.9042801e-19)
(-0.070196872 -0.1466728 3.9317103e-19)
(0.036495546 -0.16797687 1.5696354e-19)
(0.15106811 -0.18701123 4.6560386e-19)
(0.27127096 -0.20354766 -3.2118502e-19)
(0.39503595 -0.21652849 3.3752754e-20)
(0.51793436 -0.22398313 5.4266966e-19)
(0.63549555 -0.22256938 3.7596209e-19)
(0.73912618 -0.20956015 1.7863002e-20)
(0.82205966 -0.18321585 -6.1886243e-19)
(0.87781772 -0.14839942 6.5348199e-20)
(0.91244024 -0.11199541 -9.3876635e-20)
(-0.00070805265 0.0032199436 -1.6878053e-20)
(-0.0021931252 0.0099349028 8.4809311e-21)
(-0.0038356143 0.017304562 -1.1462857e-20)
(-0.0056509797 0.025378481 -6.5194187e-21)
(-0.0076555124 0.034205942 1.8210383e-20)
(-0.0098668299 0.043834632 1.7018212e-20)
(-0.012303753 0.054308847 -1.7488722e-20)
(-0.014986172 0.065667267 2.1072301e-21)
(-0.017935009 0.077940094 4.8909503e-22)
(-0.021172112 0.091145518 3.4866942e-20)
(-0.024720128 0.10528544 -3.840185e-21)
(-0.028602344 0.1203403 -7.0838798e-20)
(-0.032842506 0.13626321 5.6921843e-20)
(-0.037464639 0.1529732 -1.976214e-21)
(-0.042492885 0.17034812 -3.8668348e-20)
(-0.047951409 0.18821747 -3.3589005e-21)
(-0.053864421 0.20635602 8.6296865e-21)
(-0.060256395 0.22447961 3.9359171e-20)
(-0.067152563 0.24224466 -7.3085861e-20)
(-0.074579774 0.25925397 1.3046257e-19)
(-0.082567821 0.2750712 -2.8633959e-20)
(-0.091151124 0.28924662 2.1386621e-20)
(-0.10037079 0.30135535 -1.7963597e-20)
(-0.11027669 0.31104677 7.3476255e-22)
(-0.12092882 0.3180993 -1.104015e-19)
(-0.13239761 0.32246905 -1.1212281e-19)
(-0.14476299 0.32431628 2.258127e-19)
(-0.158109 0.32399245 3.8162776e-20)
(-0.17250579 0.32197119 -1.3505775e-19)
(-0.18800894 0.31871024 -4.8648715e-20)
(-0.20467436 0.31453802 -1.1112026e-19)
(-0.22252559 0.30965101 1.269182e-19)
(-0.24154003 0.30416167 5.6000111e-20)
(-0.26166724 0.29809016 -1.3128485e-19)
(-0.28280738 0.29138921 5.5663638e-20)
(-0.30479363 0.28395799 2.6218098e-20)
(-0.32737608 0.275635 -7.875532e-20)
(-0.35020283 0.26619385 -2.0669205e-19)
(-0.37279548 0.2553434 -6.2894902e-20)
(-0.39452446 0.24273542 4.2223757e-20)
(-0.41458455 0.22798147 1.0029005e-19)
(-0.4319802 0.21068404 1.0347162e-19)
(-0.44553369 0.19048865 1.1415953e-19)
(-0.45392628 0.16717344 2.3842927e-19)
(-0.45583794 0.14079448 -6.5054846e-21)
(-0.45017292 0.11177801 9.9468419e-20)
(-0.43593115 0.080758633 -5.3371838e-19)
(-0.41220127 0.048383245 -1.4667918e-19)
(-0.37802402 0.015463633 -1.6652993e-19)
(-0.33272458 -0.017042103 -4.5893281e-19)
(-0.27609565 -0.048382192 5.3470831e-19)
(-0.20819366 -0.078343929 -1.193351e-19)
(-0.12906797 -0.10705581 -3.8500326e-19)
(-0.039086799 -0.13442324 -4.7667312e-19)
(0.060731567 -0.15995291 -6.1274762e-20)
(0.16847018 -0.18307288 1.5631231e-19)
(0.28198517 -0.20347164 2.5587614e-19)
(0.39873038 -0.22101799 -1.0981726e-19)
(0.51623947 -0.23451426 2.0116307e-19)
(0.62949042 -0.24177317 -1.7081213e-19)
(0.73326461 -0.23910361 -5.8456855e-20)
(0.81856567 -0.22339997 -1.7498388e-19)
(0.87933765 -0.19347179 7.7182281e-19)
(0.91331134 -0.1551401 2.4930387e-20)
(0.93084885 -0.11674023 3.0868428e-19)
(-0.00084274856 0.0033362793 1.5723004e-20)
(-0.0026059096 0.010301021 3.1283396e-21)
(-0.0045491227 0.017953899 -3.4395501e-21)
(-0.0066884547 0.026349457 -1.6915899e-20)
(-0.0090406487 0.035542685 2.0303379e-20)
(-0.011623252 0.045587906 -1.7257987e-20)
(-0.014454411 0.056537072 -8.2572719e-21)
(-0.017552637 0.068437653 4.4375182e-22)
(-0.020936562 0.081329868 6.9952809e-21)
(-0.02462463 0.095243228 3.9869166e-20)
(-0.028634727 0.11019223 -6.7127666e-20)
(-0.032983764 0.12617115 8.092777e-20)
(-0.037687215 0.14314778 -2.3865486e-20)
(-0.042758651 0.16105629 -3.2548976e-20)
(-0.048209317 0.17978913 5.0225555e-20)
(-0.054047812 0.19918859 -9.9728327e-20)
(-0.060279985 0.21903855 1.2192218e-19)
(-0.066909166 0.23905765 1.9322144e-21)
(-0.073936915 0.25889574 7.145429e-20)
(-0.08136444 0.27813592 -2.8762738e-19)
(-0.089194857 0.29630545 7.0757156e-20)
(-0.09743632 0.3128986 2.9772543e-19)
(-0.10610588 0.3274142 -1.4339155e-19)
(-0.11523363 0.33940778 -1.7431499e-19)
(-0.1248662 0.34855435 4.4714895e-20)
(-0.13506832 0.35471067 2.3819875e-19)
(-0.14592098 0.3579596 -3.6764383e-19)
(-0.15751554 0.35861466 4.1452124e-19)
(-0.16993913 0.35716596 -3.3138836e-19)
(-0.18325217 0.35415789 6.4370326e-20)
(-0.19749501 0.35003018 -1.1169158e-19)
(-0.21269362 0.34503829 -1.6073292e-19)
(-0.22882114 0.33931374 6.4181959e-20)
(-0.24579755 0.33290477 1.682802e-20)
(-0.26349785 0.32576756 2.4115365e-19)
(-0.28172433 0.31778317 -4.7357011e-20)
(-0.30019357 0.30876654 1.218301e-19)
(-0.3185144 0.29846342 -1.0357439e-19)
(-0.3361667 0.28654932 6.1890359e-20)
(-0.35247995 0.27263724 4.030116e-20)
(-0.36661475 0.25629821 3.4573656e-20)
(-0.37755968 0.23710043 3.4305425e-20)
(-0.38416011 0.21467497 -2.0870533e-19)
(-0.38518525 0.1888266 -1.6345028e-19)
(-0.37951589 0.15969139 4.595326e-20)
(-0.36625214 0.12778498 -2.8845899e-20)
(-0.34459472 0.093735037 1.1976003e-19)
(-0.3136425 0.058166074 -2.3569135e-19)
(-0.27244582 0.021935924 -2.7243979e-19)
(-0.2205604 -0.013826991 -7.8618356e-20)
(-0.1580314 -0.048231831 -2.063931e-19)
(-0.085028725 -0.081034828 6.5991854e-21)
(-0.0016995426 -0.11237656 1.0024724e-19)
(0.091297858 -0.14210141 4.895478e-19)
(0.19256574 -0.16957184 -2.4685281e-19)
(0.29974695 -0.19417354 1.0078428e-19)
(0.41054447 -0.21560879 -2.9888743e-19)
(0.52226534 -0.23380022 5.09175e-19)
(0.63205052 -0.24738998 -2.9630269e-19)
(0.73419896 -0.2538384 1.0358361e-19)
(0.82269086 -0.24926524 -1.5347124e-22)
(0.88793712 -0.23062086 8.3867378e-20)
(0.92585229 -0.19774709 3.1242121e-19)
(0.9397752 -0.15755358 -5.9246354e-19)
(0.94394166 -0.11867261 6.0341853e-19)
(-0.00095673855 0.0033401647 -3.4850698e-20)
(-0.0029556146 0.010321385 -1.7760514e-20)
(-0.0051540498 0.018002957 2.7899862e-20)
(-0.0075687353 0.026443229 -7.3494014e-22)
(-0.01021695 0.035701857 -2.5270704e-20)
(-0.013116354 0.045839006 -1.3229538e-20)
(-0.016284723 0.056913821 2.7930338e-20)
(-0.019739633 0.068982561 -4.5938952e-21)
(-0.02349804 0.082096084 6.4942842e-20)
(-0.027575793 0.096296655 -1.269634e-20)
(-0.031987039 0.11161387 -3.2595022e-22)
(-0.03674356 0.12805959 4.7078729e-20)
(-0.04185403 0.14562175 -1.5171873e-19)
(-0.04732324 0.16425689 7.1176552e-20)
(-0.053151349 0.18388165 1.2856431e-19)
(-0.059333233 0.20436311 -1.3834738e-19)
(-0.065858092 0.22550884 1.7217058e-20)
(-0.072709466 0.24705734 -9.9164871e-20)
(-0.079865924 0.26867083 -7.4793276e-20)
(-0.087302698 0.28993255 2.3936195e-19)
(-0.094994482 0.31035219 -1.8315966e-19)
(-0.10291972 0.32938323 2.4605655e-19)
(-0.11106611 0.34645636 -2.9560776e-20)
(-0.11943706 0.36103073 1.2333544e-19)
(-0.12805776 0.37266162 -2.7409946e-19)
(-0.13697923 0.38107527 6.6291876e-20)
(-0.1462779 0.38623363 1.7063462e-19)
(-0.1560485 0.38836386 -4.2008093e-19)
(-0.1663889 0.38792742 1.8569568e-19)
(-0.17737843 0.38551444 2.0272559e-19)
(-0.18905438 0.38168067 -1.6993795e-19)
(-0.2014188 0.37680242 -2.282263e-20)
(-0.21444853 0.37106355 1.1666841e-19)
(-0.22805207 0.36451977 -6.5203191e-20)
(-0.24206848 0.35713279 1.0089832e-19)
(-0.25627489 0.34878237 -3.5778414e-19)
(-0.27035607 0.33926506 1.8925422e-19)
(-0.28388447 0.32830027 1.1461914e-19)
(-0.29630178 0.31553294 2.3640254e-19)
(-0.30690125 0.30054221 3.1318498e-20)
(-0.31481744 0.28286682 -2.5520764e-19)
(-0.31903765 0.26205408 1.0286345e-19)
(-0.31845108 0.2377411 1.5167322e-19)
(-0.31193648 0.20978202 2.3742249e-20)
(-0.29856822 0.17839315 -1.4601289e-19)
(-0.27758115 0.14415085 -1.2763225e-19)
(-0.24829396 0.10763429 3.8547781e-19)
(-0.20980754 0.069423886 2.0283116e-19)
(-0.16145202 0.030438421 4.3799114e-19)
(-0.10320874 -0.0080411663 1.533041e-19)
(-0.035362418 -0.045040845 5.9401838e-20)
(0.041886634 -0.080316078 4.3978084e-19)
(0.1283035 -0.11398467 1.7338156e-19)
(0.22296044 -0.14576808 -5.8587998e-19)
(0.32406873 -0.17487458 4.7318517e-19)
(0.42893876 -0.20067562 -4.3817601e-19)
(0.53536103 -0.22291287 2.1185744e-19)
(0.64059751 -0.24147884 -1.0313561e-18)
(0.74128491 -0.2547885 -5.1927542e-19)
(0.83102204 -0.2601508 2.1107551e-19)
(0.90264679 -0.25345731 3.3178603e-19)
(0.9460896 -0.23206732 5.5608446e-19)
(0.96169446 -0.19724205 9.6977679e-20)
(0.95887658 -0.15657243 7.6866646e-20)
(0.95396688 -0.11856113 -8.0581885e-19)
(-0.0010398429 0.0032341939 -6.2755225e-22)
(-0.0032109818 0.010003275 3.299838e-20)
(-0.0055962365 0.01746324 -3.8924953e-20)
(-0.0082128585 0.025674784 -1.8746395e-20)
(-0.011078671 0.034700834 3.7581408e-20)
(-0.014211587 0.044606142 1.2186795e-20)
(-0.017629299 0.055456019 -5.9188056e-20)
(-0.021348924 0.067314818 6.3806091e-20)
(-0.025386446 0.080243824 1.3489579e-20)
(-0.029756082 0.094298495 5.3804962e-20)
(-0.034469515 0.10952486 -1.4333937e-19)
(-0.039535013 0.12595484 -1.7554052e-21)
(-0.044956433 0.14360048 1.298732e-19)
(-0.050732136 0.16244662 -1.4023297e-19)
(-0.056853883 0.18244221 1.0110624e-19)
(-0.063305779 0.20349008 3.7809447e-20)
(-0.070063436 0.22543552 -7.9794541e-20)
(-0.077093553 0.24805438 7.2869287e-20)
(-0.08435421 0.27104197 9.8333038e-20)
(-0.091796224 0.29400512 -2.1241386e-21)
(-0.099366079 0.31646073 -1.6019797e-19)
(-0.10701063 0.3378451 1.0088705e-19)
(-0.11468395 0.35753941 -5.7312922e-20)
(-0.12235574 0.37491529 -2.828685e-19)
(-0.13002044 0.38940209 -9.6407389e-20)
(-0.13770473 0.4005704 2.6726925e-19)
(-0.1454704 0.40821682 -2.7203848e-20)
(-0.153409 0.41242399 3.1308244e-19)
(-0.16162589 0.41356436 -1.8868253e-19)
(-0.17021429 0.4122208 1.0125237e-19)
(-0.17922716 0.40903112 -1.4923997e-19)
(-0.18866657 0.40451609 -3.6886704e-20)
(-0.19847735 0.39897311 1.8855501e-19)
(-0.20854923 0.39250066 -1.9723713e-19)
(-0.21871598 0.38507674 -2.9240046e-19)
(-0.22872642 0.37657675 3.0083229e-20)
(-0.23823103 0.36677923 3.2399325e-19)
(-0.24676903 0.35537929 -4.1913442e-19)
(-0.25374603 0.34199521 9.1537186e-20)
(-0.25842391 0.32617957 -1.9695844e-19)
(-0.25992013 0.30745006 3.0516721e-20)
(-0.25723427 0.2853485 -3.1058521e-19)
(-0.24931216 0.25953476 -1.4924237e-19)
(-0.23515176 0.22991972 -1.8479239e-19)
(-0.21395472 0.19679773 7.4347682e-19)
(-0.18507006 0.16076776 2.4133692e-19)
(-0.1478935 0.12236369 -3.2065228e-19)
(-0.10170699 0.082145201 2.5992034e-19)
(-0.046374745 0.041097052 2.1657573e-19)
(0.017694745 0.00055937733 -2.4397152e-19)
(0.090070286 -0.03851441 -1.2742707e-19)
(0.17057791 -0.075907395 -2.9863432e-19)
(0.25889984 -0.11160938 -1.4505447e-19)
(0.35387115 -0.14516436 4.9696636e-19)
(0.45328321 -0.17566132 2.805771e-19)
(0.55435491 -0.20250961 4.5280782e-20)
(0.65508046 -0.22550121 -1.9361335e-21)
(0.75270212 -0.24437502 2.5572521e-19)
(0.84314481 -0.2573083 -3.7036731e-19)
(0.91906982 -0.26106738 -4.816923e-19)
(0.97163304 -0.25169206 -1.3542641e-19)
(0.99202005 -0.22788415 -1.0274121e-18)
(0.98783971 -0.19235198 -8.1507599e-19)
(0.97289221 -0.15311562 -2.0682314e-19)
(0.96279855 -0.11706735 -1.0920222e-19)
(-0.0010838387 0.0030276412 2.1214728e-20)
(-0.0033466605 0.0093744432 1.384891e-20)
(-0.0058316081 0.01638168 -2.8817359e-20)
(-0.0085563241 0.02411069 4.9423124e-20)
(-0.011539075 0.032625937 1.2382165e-20)
(-0.014798064 0.041995048 -5.3107477e-20)
(-0.018351113 0.052287863 2.7180845e-22)
(-0.02221529 0.063575349 -3.1867789e-20)
(-0.026406275 0.075928003 9.5271072e-21)