/*--------------------------------*- C++ -*----------------------------------*\
  =========                 |
  \\      /  F ield         | OpenFOAM: The Open Source CFD Toolbox
   \\    /   O peration     | Website:  https://openfoam.org
    \\  /    A nd           | Version:  13
     \\/     M anipulation  |
\*---------------------------------------------------------------------------*/
FoamFile
{
    format      ascii;
    class       volScalarField;
    location    "29.296751";
    object      nut;
}
// * * * * * * * * * * * * * * * * * * * * * * * * * * * * * * * * * * * * * //

dimensions      [0 2 -1 0 0 0 0];

internalField   nonuniform List<scalar> 
17140
(
3.4331191e-18
6.6769602e-16
1.7784263e-14
1.8029274e-13
1.0903145e-12
4.8303833e-12
1.744107e-11
5.4572492e-11
1.5373404e-10
3.9987665e-10
9.7732411e-10
2.2728608e-09
5.0767036e-09
1.0968506e-08
2.3049543e-08
4.7316843e-08
9.5218416e-08
1.8836642e-07
3.6716743e-07
7.0651938e-07
1.3441779e-06
2.5316854e-06
4.7251658e-06
8.7458321e-06
1.6060562e-05
2.9264222e-05
5.2886525e-05
9.4679171e-05
0.00016749747
0.00029161334
0.0004965637
0.00082055534
0.0013051467
0.0019851675
0.0028779393
0.0039771394
0.0052534997
0.0066602964
0.0081404728
0.0096336619
0.011082513
0.012438129
0.013664365
0.014740166
0.015646584
0.016404927
0.017071824
0.017640406
0.018139847
0.018596626
0.019030754
0.019455231
0.019877381
0.020304465
0.020756889
0.021269377
0.021870061
0.022579636
0.023439311
0.024507861
0.025653346
0.026386539
0.026337928
0.025635536
0.025940565
3.4090345e-18
6.6301138e-16
1.7659506e-14
1.7902856e-13
1.0826753e-12
4.7965726e-12
1.7319134e-11
5.4191493e-11
1.5266245e-10
3.9709434e-10
9.7053761e-10
2.2571135e-09
5.0416182e-09
1.0892914e-08
2.2891195e-08
4.6992947e-08
9.4569308e-08
1.8708845e-07
3.646903e-07
7.0178423e-07
1.3352397e-06
2.5150076e-06
4.6943837e-06
8.6896092e-06
1.5958932e-05
2.9082477e-05
5.2565331e-05
9.411949e-05
0.00016653997
0.00029001446
0.00049397426
0.00081651742
0.0012991472
0.001976775
0.0028668543
0.003963235
0.005236852
0.0066411876
0.0081194102
0.009611319
0.011059673
0.012415707
0.013643395
0.014721846
0.015631882
0.016394746
0.017067749
0.017644359
0.018154687
0.018626511
0.019081596
0.019534781
0.019995815
0.020472963
0.020983416
0.021554113
0.022196888
0.022905005
0.023648763
0.024374704
0.024880954
0.024765848
0.023666568
0.022057114
0.021920806
3.3612756e-18
6.5372283e-16
1.7412101e-14
1.7652055e-13
1.0675096e-12
4.7293966e-12
1.7076643e-11
5.3432987e-11
1.5052653e-10
3.9154116e-10
9.569725e-10
2.2255856e-09
4.971245e-09
1.0740986e-08
2.2572206e-08
4.6338756e-08
9.32543e-08
1.8449031e-07
3.5963332e-07
6.9206972e-07
1.3167937e-06
2.4803456e-06
4.629866e-06
8.5705804e-06
1.5741209e-05
2.8687694e-05
5.1856371e-05
9.2861169e-05
0.00016434108
0.00028625826
0.0004877723
0.00080673882
0.0012845539
0.0019562194
0.0028395252
0.0039287958
0.0051954419
0.0065933341
0.0080659029
0.0095531758
0.010998037
0.012351621
0.013577715
0.014655038
0.015564384
0.016327293
0.017000233
0.017577018
0.018088685
0.018563727
0.019024995
0.019488958
0.019966748
0.020468082
0.021009827
0.021613103
0.022271566
0.022936091
0.023539698
0.023927077
0.023839653
0.022813141
0.020733144
0.018358879
0.017286159
3.2882481e-18
6.3951989e-16
1.70338e-14
1.7268547e-13
1.0443183e-12
4.6266617e-12
1.6705741e-11
5.2272622e-11
1.4725829e-10
3.8304182e-10
9.3620397e-10
2.1772972e-09
4.8634118e-09
1.050806e-08
2.2082837e-08
4.5334378e-08
9.1233527e-08
1.8049339e-07
3.518436e-07
6.7708226e-07
1.2882825e-06
2.426652e-06
4.5296668e-06
8.3851736e-06
1.5400935e-05
2.8068445e-05
5.074013e-05
9.0873023e-05
0.00016085793
0.00028029776
0.00047790259
0.00079109798
0.0012610652
0.001922982
0.0027952025
0.0038728194
0.0051279939
0.0065152012
0.0079782821
0.00945743
0.010895474
0.012243335
0.013464414
0.014536408
0.015440301
0.01619842
0.016864108
0.017432373
0.017934591
0.018399532
0.018850609
0.019305045
0.019774836
0.020271043
0.020814355
0.021424622
0.022078498
0.022690462
0.023120731
0.023163979
0.022504822
0.020759835
0.018104736
0.015094286
0.012270049
3.1910083e-18
6.2060804e-16
1.6530078e-14
1.6757894e-13
1.013438e-12
4.4898616e-12
1.6211837e-11
5.0727369e-11
1.4290573e-10
3.7172189e-10
9.0854115e-10
2.1129736e-09
4.7197566e-09
1.0197721e-08
2.1430742e-08
4.3995807e-08
8.8539842e-08
1.7516422e-07
3.4145418e-07
6.5708499e-07
1.2502216e-06
2.3549269e-06
4.3957059e-06
8.1370309e-06
1.4944914e-05
2.7237177e-05
4.9238615e-05
8.8191772e-05
0.00015614503
0.00027220035
0.00046443542
0.00076966091
0.001228734
0.00187705
0.0027337376
0.0037949676
0.0050339544
0.0064059842
0.0078553913
0.0093225336
0.010750108
0.012088641
0.013300914
0.014362942
0.015256091
0.016003945
0.016654372
0.017204392
0.017685089
0.01812497
0.018547283
0.018969091
0.019401999
0.01985988
0.020372292
0.020959387
0.021579765
0.022121198
0.022396529
0.022138997
0.021062795
0.018943567
0.016059253
0.012850339
0.0075142434
3.0705039e-18
5.9717158e-16
1.5905844e-14
1.6125065e-13
9.7516867e-13
4.3203251e-12
1.5599724e-11
4.8812217e-11
1.3751102e-10
3.5769084e-10
8.74251e-10
2.033234e-09
4.5416576e-09
9.8129365e-09
2.0622127e-08
4.2335725e-08
8.5198632e-08
1.685527e-07
3.2856174e-07
6.3226273e-07
1.20296e-06
2.2658231e-06
4.2291938e-06
7.8283778e-06
1.4377206e-05
2.6201227e-05
4.7364954e-05
8.4840576e-05
0.00015024264
0.00026203357
0.0004474746
0.00074256614
0.0011877104
0.0018185377
0.0026551427
0.0036950746
0.004912905
0.0062649593
0.0076961828
0.0091471081
0.010560205
0.011885422
0.013084669
0.014131598
0.015008095
0.015739445
0.016365679
0.01688653
0.017332155
0.017730146
0.018102795
0.018466074
0.018831382
0.019219053
0.019675739
0.020218547
0.020789747
0.020921191
0.020593417
0.021041316
0.019783813
0.017474572
0.014527562
0.011373366
0.0053592257
2.9282753e-18
5.6951012e-16
1.5169077e-14
1.537815e-13
9.2999974e-13
4.1202195e-12
1.4877227e-11
4.655164e-11
1.3114311e-10
3.4112797e-10
8.337716e-10
1.9390969e-09
4.33139e-09
9.3586223e-09
1.9667329e-08
4.0375363e-08
8.1252662e-08
1.6074358e-07
3.1333185e-07
6.0293513e-07
1.1471087e-06
2.160498e-06
4.032306e-06
7.4632762e-06
1.3705342e-05
2.4974446e-05
4.5144349e-05
8.0864535e-05
0.00014322928
0.00024992818
0.00042722291
0.00071009767
0.0011383417
0.0017478014
0.0025596998
0.0035732583
0.004764722
0.0060917036
0.0074998941
0.0089300177
0.010324224
0.01163169
0.012813193
0.013839328
0.014692553
0.015400244
0.015992269
0.016471646
0.016866923
0.017204029
0.017503411
0.01777906
0.0180434
0.018334064
0.018716601
0.019192961
0.019694855
0.018862602
0.019586006
0.019805894
0.018464206
0.015988271
0.013376059
0.0089747037
0.0041726408
2.766523e-18
5.3805155e-16
1.4331172e-14
1.4528702e-13
8.7862988e-13
3.8926403e-12
1.4055522e-11
4.3980603e-11
1.2390047e-10
3.2228944e-10
7.877291e-10
1.8320189e-09
4.0922081e-09
8.841813e-09
1.858114e-08
3.8145122e-08
7.6763214e-08
1.5185837e-07
2.9600208e-07
5.6956116e-07
1.0835454e-06
2.0406156e-06
3.8081733e-06
7.0475747e-06
1.2940172e-05
2.3576808e-05
4.2613179e-05
7.6328866e-05
0.00013521895
0.00023607561
0.00040398282
0.00067269428
0.0010811984
0.0016654914
0.002448045
0.0034300284
0.0045896855
0.0058861859
0.0072661232
0.0086704413
0.010040876
0.011325638
0.012484091
0.013483107
0.01430563
0.014981389
0.015527918
0.015951917
0.016279579
0.016534312
0.016733722
0.016889321
0.017021283
0.017199548
0.017490844
0.017869272
0.018078059
0.01785162
0.018702958
0.01827317
0.016773801
0.014220333
0.011853955
0.0057107178
0.002936229
2.5880715e-18
5.0334505e-16
1.3406752e-14
1.3591546e-13
8.2195577e-13
3.6415599e-12
1.3148949e-11
4.1143981e-11
1.1590954e-10
3.0150411e-10
7.3692738e-10
1.7138698e-09
3.8282896e-09
8.2715392e-09
1.7382551e-08
3.5684033e-08
7.1808952e-08
1.4205301e-07
2.7687726e-07
5.3272964e-07
1.0133959e-06
1.9083091e-06
3.5608066e-06
6.5887627e-06
1.2095583e-05
2.2033866e-05
3.9818001e-05
7.1317176e-05
0.00012635844
0.00022072446
0.0003781532
0.00063094911
0.0010170809
0.0015725727
0.0023212064
0.0032663424
0.0043885506
0.0056488495
0.0069949163
0.0083679595
0.0097092104
0.010965703
0.012095092
0.01305996
0.013843516
0.01447763
0.014965908
0.015318816
0.015559366
0.01570751
0.015777023
0.015778834
0.01575904
0.015820479
0.015996967
0.016234595
0.016465965
0.016683436
0.016742308
0.016218715
0.01441768
0.012212628
0.0081888441
0.0032726694
0.0021551669
2.3962918e-18
4.6604646e-16
1.2413292e-14
1.2584397e-13
7.6104865e-13
3.3717242e-12
1.2174648e-11
3.80954e-11
1.0732138e-10
2.7916498e-10
6.8232702e-10
1.5868841e-09
3.5446275e-09
7.6585946e-09
1.6094263e-08
3.303874e-08
6.6483876e-08
1.3151383e-07
2.5632153e-07
4.9314361e-07
9.3800352e-07
1.7661226e-06
3.2949867e-06
6.09576e-06
1.1188105e-05
2.0376023e-05
3.6814222e-05
6.5929118e-05
0.00011682337
0.00020417458
0.00035022177
0.00058560288
0.00094701907
0.0014703373
0.0021806367
0.0030836617
0.004162625
0.0053807052
0.0066868723
0.0080226635
0.0093287169
0.010550653
0.011644061
0.012566916
0.013302688
0.013883379
0.014299051
0.014563188
0.014694817
0.014709545
0.014617072
0.014439541
0.014273915
0.014213073
0.014236909
0.014280788
0.014300907
0.014360497
0.014230865
0.013355678
0.011670906
0.0093799459
0.0037134049
0.002074289
0.0015802915
2.195003e-18
4.2689851e-16
1.1370575e-14
1.1527309e-13
6.971212e-13
3.088506e-12
1.1152018e-11
3.4895568e-11
9.8307022e-11
2.5571694e-10
6.2501562e-10
1.4535916e-09
3.2468744e-09
7.0151978e-09
1.4741969e-08
3.0262043e-08
6.0894371e-08
1.2045163e-07
2.3474676e-07
4.5159799e-07
8.5888646e-07
1.6169296e-06
3.0161091e-06
5.5786252e-06
1.0236364e-05
1.8637522e-05
3.3664256e-05
6.0277116e-05
0.00010681265
0.00018676813
0.00032075238
0.00053752905
0.00087226094
0.0013604063
0.0020282382
0.0028840044
0.0039138496
0.0050834361
0.0063432635
0.0076352858
0.0088994665
0.010079743
0.011129024
0.012000559
0.012680809
0.013192498
0.013519818
0.013675548
0.013674438
0.013527302
0.013244505
0.012892835
0.012602523
0.012394584
0.012221821
0.012027778
0.011772012
0.011579741
0.011074783
0.0098457688
0.0083667156
0.0040192542
0.0019655544
0.0014663378
0.0011007471
1.9883383e-18
3.8670499e-16
1.0300007e-14
1.0441986e-13
6.3148592e-13
2.79772e-12
1.0102056e-11
3.1610184e-11
8.905157e-11
2.3164154e-10
5.6617031e-10
1.3167307e-09
2.9411487e-09
6.354574e-09
1.3353479e-08
2.7411073e-08
5.515554e-08
1.0909447e-07
2.1259831e-07
4.0895194e-07
7.7768469e-07
1.4638318e-06
2.7299926e-06
5.0481967e-06
9.2604081e-06
1.6855197e-05
3.0435234e-05
5.4482221e-05
9.6541183e-05
0.00016887755
0.00029036666
0.00048770963
0.00079424732
0.0012447139
0.0018663693
0.0026699857
0.0036448761
0.004759507
0.0059661699
0.0072073523
0.0084222915
0.0095530525
0.010548611
0.01135874
0.011973645
0.012399399
0.012620749
0.012646763
0.012488178
0.012152702
0.011677099
0.011195492
0.010779785
0.010389906
0.0099982312
0.0095525331
0.0089594206
0.0083710823
0.0073957301
0.0062156417
0.0032075395
0.0016444871
0.0012823101
0.00098457704
0.0007708497
1.7805788e-18
3.4629857e-16
9.2237693e-15
9.3509139e-14
5.655029e-13
2.505392e-12
9.0465194e-12
2.8307336e-11
7.9746846e-11
2.074378e-10
5.0701098e-10
1.179139e-09
2.6337907e-09
5.6904274e-09
1.1957606e-08
2.4545023e-08
4.9386604e-08
9.7678474e-08
1.9033716e-07
3.6609432e-07
6.9609372e-07
1.3100331e-06
2.4426423e-06
4.5156472e-06
8.2808853e-06
1.5066946e-05
2.71962e-05
4.8669059e-05
8.6230971e-05
0.00015089033
0.00025971988
0.00043720078
0.00071457058
0.0011254699
0.001697828
0.0024448371
0.0033591292
0.0044122694
0.0055586149
0.0067413267
0.0078988879
0.0089713662
0.0099023534
0.010640085
0.011176442
0.011499059
0.011595112
0.011469359
0.011130408
0.010597429
0.0099825716
0.0094033154
0.0088356706
0.0082528494
0.0076622716
0.0069598497
0.0059432252
0.005147484
0.0037015399
0.0020053927
0.0012986105
0.0010787919
0.00085519743
0.00068071803
0.00062541578
1.5759828e-18
3.0650734e-16
8.1639157e-15
8.2764501e-14
5.0052402e-13
2.2175117e-12
8.0070375e-12
2.5054705e-11
7.0583546e-11
1.8360182e-10
4.4875033e-10
1.0436373e-09
2.3311031e-09
5.0363806e-09
1.058299e-08
2.1722719e-08
4.3706026e-08
8.6438196e-08
1.6842105e-07
3.2390718e-07
6.1579478e-07
1.1587076e-06
2.1600006e-06
3.9920175e-06
7.3181682e-06
1.3310111e-05
2.4015135e-05
4.2960384e-05
7.6101291e-05
0.0001331919
0.00022947236
0.00038708886
0.00063491561
0.0010050946
0.001525799
0.0022123885
0.0030608405
0.0040460485
0.0051246956
0.0062407539
0.0073318908
0.008335899
0.0091908645
0.0098439832
0.010285559
0.0104871
0.010438107
0.010139966
0.0096088365
0.008926867
0.0082393835
0.0075497768
0.0068206737
0.0060792052
0.005309957
0.0042740852
0.003476884
0.0019052057
0.001158829
0.00090042373
0.00085465588
0.00072687382
0.000607056
0.00055918
0.00060225485
1.3785739e-18
2.6811392e-16
7.1412931e-15
7.2397292e-14
4.3782756e-13
1.9397425e-12
7.0040608e-12
2.191629e-11
6.1741978e-11
1.6060267e-10
3.9253505e-10
9.128931e-10
2.039045e-09
4.4053118e-09
9.2567021e-09
1.8999751e-08
3.8225722e-08
7.5595149e-08
1.47282e-07
2.8322244e-07
5.3837214e-07
1.0128429e-06
1.8876528e-06
3.4876696e-06
6.3913453e-06
1.1619629e-05
2.0955566e-05
3.7470939e-05
6.6357685e-05
0.00011614618
0.00020025622
0.00033843722
0.00055698275
0.0008861231
0.0013537568
0.0019769984
0.0027550301
0.0036661912
0.0046696977
0.0057104449
0.0067251838
0.007649038
0.0084148169
0.0089716961
0.0092982732
0.0093610452
0.0091493366
0.0086649121
0.0079779442
0.0072381335
0.0064843593
0.0056795057
0.00482037
0.0039537158
0.0030672225
0.0021583269
0.0010844878
0.00063186497
0.00060203736
0.00060192891
0.00057203391
0.00051667735
0.00050372437
0.00053511404
0.00064321498
1.1919653e-18
2.3182109e-16
6.1746237e-15
6.2597346e-14
3.7856165e-13
1.6771714e-12
6.0559594e-12
1.8949576e-11
5.3384106e-11
1.3886173e-10
3.3939521e-10
7.8930238e-10
1.7629697e-09
3.80879e-09
8.0030594e-09
1.6426051e-08
3.3046188e-08
6.5348166e-08
1.2730762e-07
2.44786e-07
4.6524492e-07
8.7511191e-07
1.630588e-06
3.0118411e-06
5.5173964e-06
1.0026505e-05
1.8073771e-05
3.2302289e-05
5.7182416e-05
0.00010007791
0.00017264325
0.00029222987
0.00048239757
0.0007710787
0.0011853182
0.001743413
0.0024474083
0.0032790355
0.0042001432
0.0051566073
0.0060841582
0.0069147746
0.0075773607
0.0080226108
0.0082145798
0.0081224768
0.0077376393
0.0070863848
0.006345343
0.0055765426
0.0047455257
0.0038693504
0.0029083568
0.0021586238
0.001233885
0.00064694349
0.00038607075
0.00038201586
0.00039716621
0.00040887783
0.00041813742
0.00043819896
0.00048847536
0.00056974202
0.00068504881
1.0191694e-18
1.9821471e-16
5.279509e-15
5.3522801e-14
3.2368259e-13
1.4340354e-12
5.1780336e-12
1.6202445e-11
4.5644842e-11
1.1872995e-10
2.901887e-10
6.7486053e-10
1.5073346e-09
3.2564457e-09
6.8422988e-09
1.4043153e-08
2.8250979e-08
5.5862447e-08
1.0881963e-07
2.0921622e-07
3.9758771e-07
7.4772251e-07
1.3929175e-06
2.5721219e-06
4.7102263e-06
8.5560374e-06
1.5415518e-05
2.7536876e-05
4.8723612e-05
8.525297e-05
0.00014710958
0.00024931016
0.00041261133
0.00066232514
0.0010240456
0.0015165461
0.0021441692
0.0028917516
0.003723692
0.0045867897
0.0054156418
0.0061384313
0.006683025
0.0069973283
0.0070379354
0.0067805428
0.0062301889
0.0055126709
0.0047704923
0.0039573812
0.0030828236
0.0021642959
0.0015240956
0.00074901325
0.00037776213
0.00024298918
0.00024589656
0.00025984961
0.00028893885
0.00032899627
0.00037851637
0.00043670408
0.00052366018
0.00062401557
0.00073825871
8.6251147e-19
1.6774688e-16
4.4679886e-15
4.5295715e-14
2.7392858e-13
1.2136052e-12
4.3820942e-12
1.3711858e-11
3.8628323e-11
1.0047826e-10
2.455778e-10
5.7110797e-10
1.2755805e-09
2.7557133e-09
5.7900402e-09
1.1883111e-08
2.3904553e-08
4.7265371e-08
9.2065961e-08
1.7698909e-07
3.3630342e-07
6.3236875e-07
1.177788e-06
2.1743045e-06
3.9804096e-06
7.2273963e-06
1.3015365e-05
2.3236831e-05
4.1093081e-05
7.187364e-05
0.00012402393
0.00021035194
0.0003488314
0.00056192365
0.00087321378
0.0013011651
0.0018516364
0.002511989
0.0032488066
0.0040095137
0.0047271566
0.0053270024
0.0057370549
0.0059003573
0.0057788555
0.0053586907
0.0046999428
0.0040136316
0.0032645466
0.002430937
0.0015946265
0.0010028972
0.00047285662
0.00023359967
0.0001521188
0.00016203301
0.00018231583
0.00021678313
0.00026709359
0.00032916447
0.00039396443
0.00047830872
0.00058775158
0.00067099559
0.00078215427
7.235351e-19
1.4071777e-16
3.7480578e-15
3.7997163e-14
2.2978994e-13
1.0180532e-12
3.675986e-12
1.1502366e-11
3.2403724e-11
8.428664e-11
2.0600248e-10
4.7906803e-10
1.0699934e-09
2.3115312e-09
4.8566589e-09
9.9672108e-09
2.0049703e-08
3.9641454e-08
7.7210928e-08
1.484197e-07
2.8198863e-07
5.3016703e-07
9.8726607e-07
1.8221746e-06
3.3348168e-06
6.0529483e-06
1.0895443e-05
1.9441698e-05
3.436187e-05
6.0069506e-05
0.00010362787
0.00017581195
0.00029191777
0.00047144738
0.00073553168
0.0011015068
0.0015757648
0.0021472915
0.0027841449
0.003433851
0.0040277234
0.0044889398
0.0047448547
0.0047466663
0.0044606013
0.003911246
0.0032659013
0.0026180993
0.0018811602
0.0011532286
0.00062185267
0.00029936287
0.00014927392
9.9649104e-05
0.00011025834
0.00013493297
0.0001748111
0.00022791435
0.00029120437
0.00035838152
0.0004440311
0.00053673536
0.00056140959
0.00068689466
0.00081203032
6.0284167e-19
1.1724452e-16
3.1228402e-15
3.1658796e-14
1.914581e-13
8.4822772e-13
3.0627728e-12
9.5835547e-12
2.6998048e-11
7.0225296e-11
1.7163422e-10
3.9913915e-10
8.914618e-10
1.9258147e-09
4.0461653e-09
8.3036438e-09
1.6702799e-08
3.3022772e-08
6.4316256e-08
1.2362478e-07
2.3486028e-07
4.4151348e-07
8.2206144e-07
1.5169786e-06
2.7755891e-06
5.036289e-06
9.0616703e-06
1.6161128e-05
2.8546123e-05
4.9870057e-05
8.598417e-05
0.0001458455
0.00024227279
0.00039184236
0.00061287531
0.00092079688
0.0013214262
0.0018041576
0.0023374039
0.0028679794
0.0033254272
0.0036320618
0.0037237113
0.0035629647
0.0031402818
0.0025719938
0.0020056572
0.0014020881
0.00080429647
0.00037889859
0.0001851937
9.5703375e-05
6.7324926e-05
7.9465463e-05
0.00010553603
0.00014737111
0.00020178452
0.00026181344
0.00032958945
0.00041711027
0.00045435412
0.00046052656
0.00049636548
0.00063880737
0.00082714235
5.0021187e-19
9.7284446e-17
2.5911986e-15
2.6269097e-14
1.5886347e-13
7.038206e-13
2.5413423e-12
7.9519471e-12
2.2401509e-11
5.8268797e-11
1.4241094e-10
3.3117693e-10
7.3966321e-10
1.597866e-09
3.3570901e-09
6.8893815e-09
1.3857704e-08
2.7397061e-08
5.3357684e-08
1.0255668e-07
1.9482531e-07
3.6622698e-07
6.8182266e-07
1.2580357e-06
2.301408e-06
4.1748725e-06
7.5091691e-06
1.3385963e-05
2.3629366e-05
4.1248579e-05
7.1059011e-05
0.00012043443
0.0001999565
0.00032338642
0.00050603941
0.00076075198
0.001091588
0.0014868524
0.0019138404
0.0023178113
0.0026275671
0.0027697513
0.0027039817
0.0024058399
0.0019407546
0.0014734276
0.0009941799
0.00051538407
0.00023701246
0.00011485617
6.1421274e-05
4.6362934e-05
5.9828465e-05
8.6414782e-05
0.00012857601
0.00018143957
0.00024021545
0.00030648505
0.00039191693
0.00040676097
0.00038653279
0.00040841457
0.00045602917
0.00059350613
0.00081033015
4.1453455e-19
8.062136e-17
2.1473723e-15
2.1769657e-14
1.3165277e-13
5.8326671e-13
2.1060434e-12
6.5898617e-12
1.8564295e-11
4.8287564e-11
1.1801586e-10
2.7444456e-10
6.1295106e-10
1.3241254e-09
2.7819443e-09
5.7090266e-09
1.1483364e-08
2.2702693e-08
4.421454e-08
8.4981718e-08
1.6143511e-07
3.0345202e-07
5.6492595e-07
1.0422756e-06
1.906495e-06
3.4578922e-06
6.2179517e-06
1.1079911e-05
1.9547491e-05
3.4094663e-05
5.8665613e-05
9.9275648e-05
0.00016452479
0.00026554453
0.00041454535
0.00062116899
0.0008865212
0.0011961799
0.0015148525
0.0017863313
0.0019429073
0.0019346388
0.0017387898
0.0013927612
0.0010266439
0.00066414935
0.00030695109
0.00014201921
7.2259679e-05
4.0400009e-05
3.2863983e-05
4.6517757e-05
7.2949776e-05
0.00011377933
0.00016584981
0.00022112268
0.0002863515
0.00036194081
0.00035308886
0.00034297475
0.00034115475
0.00036919436
0.00042833143
0.000577361
0.0008091438
3.4386294e-19
6.6876662e-17
1.7812777e-15
1.8058252e-14
1.0920782e-13
4.8382723e-13
1.7469867e-12
5.4663519e-12
1.5399218e-11
4.0054789e-11
9.7894562e-11
2.2765231e-10
5.0844363e-10
1.0983638e-09
2.3076302e-09
4.735669e-09
9.525567e-09
1.883226e-08
3.6677048e-08
7.0495168e-08
1.3391702e-07
2.5172663e-07
4.6862552e-07
8.6457062e-07
1.5813065e-06
2.8676047e-06
5.1549798e-06
9.181279e-06
1.6185378e-05
2.8197875e-05
4.8438444e-05
8.1775107e-05
0.00013506058
0.00021693818
0.00033647165
0.00049955536
0.0007031854
0.00092880301
0.0011381599
0.0012770829
0.0012966129
0.0011755382
0.00093660424
0.00067104657
0.00041305799
0.00017552353
8.4597523e-05
4.4685932e-05
2.7244317e-05
2.4304869e-05
3.7322333e-05
6.2635888e-05
0.00010164311
0.00015124458
0.00020391396
0.00026689967
0.00028558314
0.00029888994
0.00030019366
0.0003022912
0.00031035957
0.00035072359
0.00041705567
0.00056416728
0.00080654848
2.8550223e-19
5.5526298e-17
1.4789579e-15
1.4993394e-14
9.0672961e-14
4.0171121e-13
1.4504835e-12
4.5385832e-12
1.2785599e-11
3.3256524e-11
8.1279583e-11
1.8901494e-10
4.2215211e-10
9.1195952e-10
1.9160205e-09
3.9320715e-09
7.9093115e-09
1.5637223e-08
3.0455245e-08
5.8537994e-08
1.1120477e-07
2.0903596e-07
3.8914499e-07
7.1789346e-07
1.3128514e-06
2.3801406e-06
4.2766617e-06
7.6109397e-06
1.3400143e-05
2.3299955e-05
3.990762e-05
6.7084466e-05
0.00011011802
0.0001753251
0.00026848026
0.00039123194
0.00053567347
0.00067901292
0.00078329524
0.00080859424
0.00073685414
0.00058308554
0.00040649902
0.00023180751
9.9791089e-05
4.9337675e-05
2.7808587e-05
1.8668587e-05
1.8604646e-05
3.0883984e-05
5.4122983e-05
9.099356e-05
0.00013741751
0.00018858557
0.00021716995
0.00023158256
0.00024987463
0.0002632971
0.00026957786
0.00027852315
0.00029634967
0.00033624882
0.00040333648
0.00055642858
0.00081857493
2.3616962e-19
4.5931792e-17
1.2234062e-15
1.2402663e-14
7.5005435e-14
3.3229873e-13
1.199851e-12
3.7543497e-12
1.0576346e-11
2.7510093e-11
6.7235389e-11
1.5635604e-10
3.4921314e-10
7.5439945e-10
1.5850073e-09
3.2528112e-09
6.5430922e-09
1.2936317e-08
2.5195205e-08
4.8427712e-08
9.1996444e-08
1.7291974e-07
3.218732e-07
5.9366423e-07
1.0852688e-06
1.9663562e-06
3.529762e-06
6.2722614e-06
1.1017711e-05
1.9090705e-05
3.2528917e-05
5.4266431e-05
8.8101529e-05
0.00013807631
0.00020655496
0.00029078653
0.00037851203
0.00044616263
0.00046616163
0.0004251353
0.00033313633
0.00022321446
0.0001190234
5.3658215e-05
2.8476327e-05
1.7428284e-05
1.3115567e-05
1.4680621e-05
2.5851212e-05
4.7061908e-05
8.0990711e-05
0.00012431345
0.00017400235
0.00018365942
0.00019743345
0.00021497381
0.00023014148
0.00024219345
0.00025223882
0.00026623366
0.00028461488
0.00032743422
0.00040224847
0.00056079847
0.00083578228
1.924091e-19
3.7420969e-17
9.9671824e-16
1.0104542e-14
6.1107465e-14
2.707259e-13
9.775249e-13
3.0586834e-12
8.6165763e-12
2.2412509e-11
5.477668e-11
1.2738309e-10
2.8450294e-10
6.146048e-10
1.2912872e-09
2.6499931e-09
5.3303865e-09
1.0538252e-08
2.0523254e-08
3.9443389e-08
7.491611e-08
1.4077667e-07
2.6193321e-07
4.8280837e-07
8.81791e-07
1.5954764e-06
2.8581892e-06
5.0638148e-06
8.8564751e-06
1.5249344e-05
2.5746672e-05
4.2386815e-05
6.7517458e-05
0.00010287648
0.00014765926
0.00019575278
0.00023405212
0.00024624851
0.00022389265
0.00017344015
0.0001112224
5.8272341e-05
2.81511e-05
1.6185508e-05
1.0950896e-05
9.5236904e-06
1.1745651e-05
2.1742918e-05
4.0899011e-05
7.2118108e-05
0.00011290293
0.00015888565
0.00016417317
0.00017546007
0.00019022723
0.00020414353
0.00021672726
0.00023083786
0.00024331794
0.00025832595
0.00028019018
0.00032563274
0.00040081265
0.00055985133
0.00084785582
1.5140888e-19
2.9446977e-17
7.8432862e-16
7.9513707e-15
4.808601e-14
2.1303587e-13
7.6921611e-13
2.4068652e-12
6.7802786e-12
1.7635887e-11
4.3101715e-11
1.0023048e-10
2.2385148e-10
4.8355798e-10
1.0158898e-09
2.0846246e-09
4.1926086e-09
8.2872942e-09
1.6135228e-08
3.0998458e-08
5.8845206e-08
1.1049505e-07
2.0537525e-07
3.7800298e-07
6.8896087e-07
1.243004e-06
2.2178343e-06
3.9072642e-06
6.7799376e-06
1.154492e-05
1.9188373e-05
3.0884351e-05
4.7587988e-05
6.9095227e-05
9.2565949e-05
0.00011151301
0.00011757322
0.00010661141
8.1162118e-05
4.9645868e-05
2.6507867e-05
1.4373302e-05
9.1202676e-06
7.151958e-06
6.8593603e-06
9.6298836e-06
1.8355735e-05
3.6039706e-05
6.6624506e-05
0.00010526717
0.00014659266
0.0001518035
0.00016004501
0.0001719623
0.00018354189
0.00019579905
0.00021003285
0.00022431548
0.0002374752
0.00025482246
0.00027808213
0.0003235463
0.00040129383
0.00056952988
0.00087328223
1.1207556e-19
2.1797174e-17
5.8057336e-16
5.8857243e-15
3.5593789e-14
1.5768994e-13
5.6936826e-13
1.7815069e-12
5.0184603e-12
1.3052771e-11
3.1898924e-11
7.4173504e-11
1.6563986e-10
3.5776147e-10
7.5146768e-10
1.5416334e-09
3.0994706e-09
6.1236749e-09
1.1915099e-08
2.2871091e-08
4.3365884e-08
8.1299721e-08
1.5078509e-07
2.7671837e-07
5.0236654e-07
9.0151532e-07
1.5968789e-06
2.7855314e-06
4.768017e-06
7.9660708e-06
1.288838e-05
1.9964928e-05
2.9137201e-05
3.9202227e-05
4.7336848e-05
4.9828799e-05
4.4961586e-05
3.357009e-05
2.0621542e-05
1.1839075e-05
7.0945007e-06
5.3115186e-06
4.6628497e-06
5.2262231e-06
7.8290988e-06
1.5853145e-05
3.3356848e-05
6.1417252e-05
9.6651e-05
0.00013471285
0.00014316925
0.00014851477
0.00015797
0.00016743534
0.00017815293
0.00019139114
0.00020454041
0.00021935712
0.00023427532
0.00025329795
0.00027773905
0.00032562714
0.00040639936
0.00057572059
0.00088870858
7.5692582e-20
1.4721172e-17
3.9210126e-16
3.975011e-15
2.4038501e-14
1.064948e-13
3.8450715e-13
1.2030384e-12
3.3887194e-12
8.8131419e-12
2.1535428e-11
5.0067714e-11
1.1178447e-10
2.4137155e-10
5.0679986e-10
1.0391656e-09
2.087824e-09
4.121182e-09
8.0090051e-09
1.5348421e-08
2.903943e-08
5.4285373e-08
1.0029861e-07
1.8313402e-07
3.3022593e-07
5.872567e-07
1.0276242e-06
1.7632207e-06
2.9509145e-06
4.7797865e-06
7.4088171e-06
1.0814133e-05
1.4545169e-05
1.7545532e-05
1.8411282e-05
1.654363e-05
1.2339241e-05
8.0154758e-06
5.1018164e-06
3.6356925e-06
3.0972451e-06
3.2480618e-06
3.9646475e-06
6.5692967e-06
1.4734303e-05
3.0839064e-05
5.6551671e-05
8.8328519e-05
0.00012265371
0.00013626688
0.00013925802
0.00014654099
0.00015401853
0.00016304672
0.00017412151
0.00018630088
0.00020036333
0.00021629095
0.00023230964
0.00025282404
0.00027900463
0.00032808897
0.00040869137
0.00058497645
0.00091274656
4.5215846e-20
8.7938547e-18
2.3422499e-16
2.3744792e-15
1.4359125e-14
6.3611195e-14
2.2966044e-13
7.1850123e-13
2.0236537e-12
5.2621827e-12
1.2855813e-11
2.9880194e-11
6.6687676e-11
1.4392442e-10
3.0199371e-10
6.1867898e-10
1.2415673e-09
2.4469878e-09
4.7457954e-09
9.0705651e-09
1.7101348e-08
3.1820813e-08
5.8434443e-08
1.0583766e-07
1.8882124e-07
3.3107315e-07
5.6850945e-07
9.510709e-07
1.5381533e-06
2.3782419e-06
3.4606843e-06
4.6399443e-06
5.58098e-06
5.8302869e-06
5.2718729e-06
4.1326729e-06
3.0345161e-06
2.2735678e-06
1.8737684e-06
1.9766251e-06
2.2783885e-06
3.1835948e-06
6.0761508e-06
1.3935458e-05
2.8338297e-05
5.2086156e-05
8.1125728e-05
0.00011286453
0.00012997898
0.00013132786
0.00013692929
0.00014261776
0.00015006672
0.00015929931
0.00016983325
0.00018300281
0.00019716911
0.00021352331
0.00023080354
0.00025342743
0.00028084353
0.00033152954
0.00041439526
0.00059706241
0.00092690515
2.3249593e-20
4.5217174e-18
1.2043543e-16
1.2209038e-15
7.3828857e-15
3.2704497e-14
1.1806562e-13
3.6932774e-13
1.0400312e-12
2.703795e-12
6.6034095e-12
1.5341391e-11
3.4219711e-11
7.3795862e-11
1.546871e-10
3.1647475e-10
6.3398225e-10
1.2466113e-09
2.4103855e-09
4.5885955e-09
8.6061219e-09
1.5904432e-08
2.8945712e-08
5.1814266e-08
9.1021135e-08
1.5636731e-07
2.6133519e-07
4.2171032e-07
6.5001339e-07
9.4284768e-07
1.2617224e-06
1.5194404e-06
1.6139308e-06
1.5445622e-06
1.3748926e-06
1.1686292e-06
1.0544298e-06
1.1030944e-06
1.2888466e-06
1.7605907e-06
2.859578e-06
5.8855366e-06
1.2791674e-05
2.5951509e-05
4.8002596e-05
7.4668939e-05
0.00010360638
0.0001241147
0.00012399946
0.00012841103
0.00013275414
0.00013870026
0.00014629227
0.00015531275
0.00016650216
0.0001792523
0.00019382935
0.00021141583
0.00023009458
0.00025425737
0.000282981
0.00033572747
0.00041881894
0.00060626823
0.00094078418
1.0152303e-20
1.9744754e-18
5.2589368e-17
5.3310626e-16
3.2235736e-15
1.4278581e-14
5.1540667e-14
1.6119995e-13
4.5383305e-13
1.1794554e-12
2.8792759e-12
6.6853002e-12
1.4900041e-11
3.2098589e-11
6.7190075e-11
1.3721387e-10
2.7421966e-10
5.3752281e-10
1.0351045e-09
1.9600832e-09
3.6509463e-09
6.6867945e-09
1.2028539e-08
2.1206886e-08
3.6523268e-08
6.1146255e-08
9.8823698e-08
1.52717e-07
2.2282473e-07
3.0223225e-07
3.7569152e-07
4.3060924e-07
4.6696852e-07
4.9684821e-07
5.2437816e-07
5.569857e-07
7.0109969e-07
9.9323729e-07
1.5796202e-06
2.7845842e-06
5.5777917e-06
1.1658084e-05
2.3655619e-05
4.4102346e-05
6.8476239e-05
9.485789e-05
0.00011869694
0.00011706883
0.00012060373
0.00012389036
0.00012859332
0.00013468149
0.00014238242
0.00015189032
0.00016275637
0.0001762175
0.00019149699
0.00020965593
0.00022931463
0.00025523604
0.00028553126
0.00033978559
0.0004235278
0.00061875207
0.00095028571
3.928549e-21
7.640438e-19
2.034977e-17
2.0628302e-16
1.2472849e-15
5.5243161e-15
1.9938458e-14
6.234931e-14
1.7549233e-13
4.5593168e-13
1.112518e-12
2.5815748e-12
5.7491929e-12
1.2372364e-11
2.5863094e-11
5.272359e-11
1.0512644e-10
2.0546183e-10
3.9416578e-10
7.4280894e-10
1.3751556e-09
2.4992671e-09
4.452596e-09
7.7570285e-09
1.3168067e-08
2.1678516e-08
3.4408265e-08
5.231908e-08
7.5848778e-08
1.0482677e-07
1.3848946e-07
1.7559817e-07
2.2440731e-07
2.9240242e-07
3.896909e-07
5.7815454e-07
9.1897451e-07
1.5172034e-06
2.6673466e-06
5.1188602e-06
1.0483044e-05
2.1674535e-05
4.054755e-05
6.2772931e-05
8.7028388e-05
0.00011311317
0.00011054234
0.00011323884
0.00011571982
0.00011933591
0.00012423342
0.00013071273
0.0001387911
0.0001481075
0.00015960458
0.0001731975
0.00018872872
0.00020786691
0.00022884281
0.00025643766
0.0002878755
0.00034377231
0.00042913968
0.0006281157
0.00095292213
1.7366452e-21
3.3775141e-19
8.9957699e-18
9.118915e-17
5.5137717e-16
2.4421284e-15
8.814398e-15
2.7564451e-14
7.7588938e-14
2.0159311e-13
4.9196246e-13
1.1417734e-12
2.5433341e-12
5.4751451e-12
1.1450784e-11
2.335964e-11
4.6624716e-11
9.1258988e-11
1.7544793e-10
3.3165203e-10
6.1672296e-10
1.1281128e-09
2.0287455e-09
3.5830965e-09
6.2058768e-09
1.0521915e-08
1.7436583e-08
2.8219308e-08