/*--------------------------------*- C++ -*----------------------------------*\
  =========                 |
  \\      /  F ield         | OpenFOAM: The Open Source CFD Toolbox
   \\    /   O peration     | Website:  https://openfoam.org
    \\  /    A nd           | Version:  13
     \\/     M anipulation  |
\*---------------------------------------------------------------------------*/
FoamFile
{
    format      ascii;
    class       volSymmTensorField;
    location    "29.296751";
    object      UPrime2Mean;
}
// * * * * * * * * * * * * * * * * * * * * * * * * * * * * * * * * * * * * * //

dimensions      [0 2 -2 0 0 0 0];

internalField   nonuniform List<symmTensor> 
17140
(
(5.1534368e-12 -2.8548368e-10 -1.7660576e-27 1.7593394e-08 2.6568035e-26 1.0251154e-40)
(5.8107763e-10 -6.0937706e-09 -8.085812e-28 1.6701768e-07 5.5716076e-27 8.7908235e-43)
(5.1991219e-09 -2.7931535e-08 1.3414298e-25 5.0555576e-07 -5.794407e-25 3.8307786e-39)
(2.4446309e-08 -8.2869668e-08 -2.8962288e-25 1.0846148e-06 8.8602141e-25 4.627417e-39)
(8.1689844e-08 -1.95204e-07 5.8391357e-26 1.9648031e-06 -1.3576275e-25 6.3202427e-41)
(2.2355161e-07 -4.0012344e-07 -3.0475708e-25 3.2165074e-06 5.6212248e-25 6.7646935e-40)
(5.3636854e-07 -7.4671267e-07 -7.7751841e-25 4.9201227e-06 1.166605e-24 1.9155947e-39)
(1.1717482e-06 -1.3014614e-06 5.5444509e-25 7.1657101e-06 -6.879954e-25 4.5605103e-40)
(2.3855807e-06 -2.1520845e-06 2.5803724e-24 1.0051812e-05 -2.6791844e-24 4.879112e-39)
(4.5960176e-06 -3.4111299e-06 8.806217e-24 1.3683132e-05 -7.7190616e-24 2.9302484e-38)
(8.4675072e-06 -5.2186479e-06 -1.7855601e-23 1.8166755e-05 1.3304429e-23 6.4296786e-38)
(1.5029479e-05 -7.7428653e-06 2.1453975e-23 2.3606595e-05 -1.3661823e-23 5.0933603e-38)
(2.5839338e-05 -1.1177393e-05 4.3767782e-24 3.009585e-05 -2.3918619e-24 1.1895129e-39)
(4.3199315e-05 -1.5733124e-05 -3.2621194e-23 3.7707421e-05 1.5355683e-23 3.7904371e-38)
(7.043469e-05 -2.1622862e-05 4.7339265e-24 4.6482542e-05 -1.9240726e-24 4.6512078e-40)
(0.00011223575 -2.9037052e-05 -4.8590371e-23 5.6418317e-05 1.709104e-23 2.9024906e-38)
(0.00017505675 -3.8110234e-05 2.3205024e-24 6.745535e-05 -7.0777012e-25 3.9939553e-41)
(0.00026755216 -4.8880272e-05 -6.7125211e-25 7.9467175e-05 1.7709976e-25 1.9846895e-42)
(0.00040101575 -6.1246403e-05 -5.9683291e-23 9.2253487e-05 1.3711952e-23 9.8951174e-39)
(0.00058977692 -7.4936997e-05 9.7079786e-23 0.00010553912 -1.9388698e-23 1.6425241e-38)
(0.00085150901 -8.9502269e-05 -5.8175412e-23 0.00011898014 1.0102727e-23 3.7504852e-39)
(0.0012074252 -0.0001043472 1.3627835e-23 0.00013217779 -2.0622086e-24 1.3406959e-40)
(0.0016824597 -0.0001188171 1.2261567e-22 0.00014470054 -1.6131774e-23 7.1198153e-39)
(0.0023057702 -0.00013233395 -1.4743563e-22 0.00015611637 1.6885754e-23 6.9033174e-39)
(0.0031106078 -0.00014447665 -2.798176e-22 0.00016604139 2.7900255e-23 1.7026434e-38)
(0.0041348217 -0.00015489132 2.6504619e-22 0.00017420339 -2.3020469e-23 1.0689942e-38)
(0.0054247493 -0.00016366862 1.5220231e-21 0.00018047513 -1.1498847e-22 2.5070522e-37)
(0.0070367367 -0.00017078076 2.0821077e-22 0.00018490032 -1.3656364e-23 3.3868431e-39)
(0.0090366639 -0.00017562774 -2.097386e-21 0.0001876777 1.1952892e-22 2.5472587e-37)
(0.011503419 -0.00017799711 -5.6152724e-22 0.00018913893 2.7691264e-23 1.3633359e-38)
(0.014531592 -0.00017765042 -2.2779233e-21 0.00018966742 9.702915e-23 1.7061039e-37)
(0.018232378 -0.0001739795 3.3924496e-21 0.00018960171 -1.2442062e-22 2.9159306e-37)
(0.022734711 -0.00016616984 -9.979474e-22 0.00018917188 3.1344428e-23 1.9597063e-38)
(0.02818572 -0.00015317775 -5.3456009e-22 0.00018847312 1.4336266e-23 4.4444808e-39)
(0.034750299 -0.00013372532 -5.8895423e-21 0.00018748405 1.3357742e-22 4.2793143e-37)
(0.042609015 -0.00010622583 2.8756069e-21 0.00018612638 -5.4864179e-23 8.2340742e-38)
(0.051952936 -6.8658694e-05 -4.8156438e-21 0.00018432722 7.6281093e-23 1.8714316e-37)
(0.062973727 -1.8431431e-05 -3.6018947e-21 0.00018207038 4.6748381e-23 8.588202e-38)
(0.075846827 4.7804665e-05 -1.8148445e-21 0.00017946242 1.8927756e-23 1.8042722e-38)
(0.090705635 0.00013436637 6.0050155e-21 0.00017678138 -4.9175782e-23 1.6595898e-37)
(0.10760599 0.00024645074 1.2327074e-20 0.00017449939 -7.6141984e-23 5.9104063e-37)
(0.12648126 0.00038974972 1.2084508e-20 0.00017322605 -5.3020201e-23 4.8569197e-37)
(0.1470946 0.00056914879 5.6595517e-21 0.00017355982 -1.5780127e-23 9.2192883e-38)
(0.16901534 0.00078728951 -2.9424447e-20 0.00017600191 3.9337105e-23 2.1696792e-36)
(0.19159923 0.0010421343 -2.2787309e-20 0.00018099614 6.1321006e-25 1.1499799e-36)
(0.21403908 0.0013227536 5.8821067e-21 0.00018892161 6.8478549e-24 6.8690758e-38)
(0.23554517 0.0016176893 -4.1710093e-20 0.00020022585 -9.4558473e-23 3.1331397e-36)
(0.25522518 0.0019149652 -1.4656351e-20 0.00021541077 -4.823077e-23 3.5602651e-37)
(0.27230893 0.0022040661 1.5320043e-20 0.0002349035 6.5129355e-23 3.6356169e-37)
(0.28634466 0.0024757233 3.8160721e-20 0.0002592493 1.9650344e-22 2.1406589e-36)
(0.29699015 0.0027238415 -2.3707663e-20 0.00028966274 -1.4180843e-22 7.9706492e-37)
(0.30395289 0.0029510573 -1.4972492e-20 0.00032923693 -1.0103317e-22 3.1176502e-37)
(0.30714081 0.0031813882 3.874438e-20 0.00038140378 2.9136921e-22 2.080335e-36)
(0.30673258 0.0034140854 1.8013412e-20 0.00045049069 1.489952e-22 4.5603576e-37)
(0.30322901 0.0036159823 1.2512035e-20 0.00054308424 1.1249843e-22 2.274525e-37)
(0.297515 0.0037568983 -9.5240544e-21 0.00066871564 -9.2647927e-23 1.3798835e-37)
(0.2904751 0.0037993466 2.45345e-20 0.00083503569 2.5470932e-22 9.8791697e-37)
(0.28256623 0.0037023955 1.9441217e-20 0.001044677 2.1619782e-22 6.7886328e-37)
(0.27396258 0.0034481843 4.5619193e-21 0.0012824428 5.4676455e-23 4.2030284e-38)
(0.26425718 0.0030931988 -1.0940306e-20 0.0015130447 -1.4479935e-22 2.7612227e-37)
(0.25265486 0.0028090731 -7.8207588e-21 0.0016955286 -1.1826347e-22 1.6770438e-37)
(0.23904589 0.002796972 -2.6161456e-20 0.0018661476 -4.6556636e-22 2.2812123e-36)
(0.22068819 0.0031237207 -3.4023917e-21 0.0021754544 -7.2756183e-23 4.886908e-38)
(0.20119214 0.0035760235 2.5166264e-20 0.0027663182 6.2124117e-22 3.4503061e-36)
(0.17280529 0.0035998427 -1.6485309e-20 0.0033074376 -4.5100689e-22 2.0615045e-36)
(3.5935408e-10 -8.3982783e-09 2.2821135e-27 1.963152e-07 -4.4812807e-26 8.3017429e-42)
(5.7688964e-09 -1.0307031e-07 -7.3204576e-25 1.8515935e-06 1.1475757e-23 1.0548281e-37)
(2.6026139e-08 -3.7842029e-07 1.256518e-24 5.5715116e-06 -1.6056032e-23 8.349754e-38)
(8.1345477e-08 -9.7307171e-07 -5.7125474e-25 1.187506e-05 6.0616366e-24 6.2024619e-39)
(2.0850079e-07 -2.0816564e-06 -1.825867e-24 2.1353809e-05 1.6363736e-23 2.6452294e-38)
(4.730031e-07 -3.9816958e-06 5.1517856e-24 3.4665788e-05 -3.9489983e-23 9.6508108e-38)
(9.8685899e-07 -7.0576684e-06 -7.677073e-24 5.2522494e-05 5.072879e-23 1.0477044e-37)
(1.935495e-06 -1.1829721e-05 9.430255e-25 7.5665341e-05 -5.4001854e-24 8.1056895e-40)
(3.6180821e-06 -1.8986819e-05 -4.0335264e-24 0.00010482846 2.0094003e-23 7.8892115e-39)
(6.5064178e-06 -2.942152e-05 -9.2535426e-26 0.00014068488 4.0228929e-25 2.2499028e-42)
(1.1329044e-05 -4.4262689e-05 -2.4237904e-23 0.00018377381 9.2141323e-23 8.7586525e-38)
(1.9188611e-05 -6.4900242e-05 5.082712e-23 0.00023440844 -1.6930644e-22 2.20516e-37)
(3.1721455e-05 -9.2993385e-05 5.492866e-24 0.0002925669 -1.6056006e-23 1.4989624e-39)
(5.1308144e-05 -0.00013045094 -7.0376467e-23 0.00035777401 1.8072351e-22 1.4535542e-37)
(8.1341811e-05 -0.0001793705 2.7851059e-23 0.00042898846 -6.2881019e-23 1.3629373e-38)
(0.00012655626 -0.00024192374 2.2641196e-23 0.00050451835 -4.4965192e-23 5.4542356e-39)
(0.00019340749 -0.00032017985 -1.8265121e-22 0.0005819961 3.1913981e-22 2.1734288e-37)
(0.00029049049 -0.00041587144 7.5116414e-22 0.00065844851 -1.1547514e-21 2.2786107e-36)
(0.00042895963 -0.00053012772 -5.8943335e-22 0.0007304938 7.971139e-22 8.8002378e-37)
(0.00062291164 -0.00066322879 8.7830479e-22 0.00079467958 -1.0446216e-21 1.2408411e-36)
(0.00088969085 -0.00081446449 -1.5998814e-21 0.00084794026 1.6731768e-21 2.6526115e-36)
(0.0012500961 -0.00098219588 4.7932461e-22 0.00088810163 -4.4071382e-22 1.5576689e-37)
(0.0017285802 -0.0011642204 2.3901376e-22 0.00091430868 -1.9319919e-22 2.5777988e-38)
(0.0023537682 -0.0013584924 -9.3765017e-22 0.00092723228 6.6617415e-22 2.6802058e-37)
(0.0031584726 -0.0015637421 4.0032268e-21 0.00092896511 -2.5007335e-21 3.3704629e-36)
(0.0041799562 -0.0017798139 7.0393623e-22 0.00092247577 -3.8652517e-22 7.2930964e-38)
(0.0054638356 -0.0020082372 -4.2458084e-21 0.00091046185 2.0513845e-21 1.9067264e-36)
(0.0070658837 -0.0022514439 5.5115374e-21 0.00089520604 -2.3413662e-21 2.3379363e-36)
(0.0090510441 -0.0025113822 -8.6852815e-22 0.00087887549 3.2449216e-22 4.3277822e-38)
(0.01149704 -0.0027903866 -9.7530297e-21 0.00086288102 3.1957246e-21 4.0683612e-36)
(0.014497011 -0.0030904542 1.147803e-21 0.00084781709 -3.2987349e-22 4.3120503e-38)
(0.018160333 -0.0034124047 9.9876515e-21 0.00083370339 -2.5109552e-21 2.5019796e-36)
(0.02261368 -0.0037559075 2.8913074e-22 0.00082018228 -6.3262374e-23 1.5727951e-39)
(0.02800139 -0.0041193307 -9.44096e-21 0.0008066838 1.8115509e-21 1.3752914e-36)
(0.034484845 -0.0044994415 1.1788918e-20 0.00079251908 -1.9726572e-21 1.7110535e-36)
(0.04224016 -0.0048907356 -5.9234815e-21 0.00077693058 8.6299672e-22 3.4750367e-37)
(0.051452685 -0.0052843484 7.7233792e-21 0.00075911917 -9.7858119e-22 4.8307452e-37)
(0.062306685 -0.0056666204 2.7190162e-20 0.00073829576 -2.9879382e-21 4.9078082e-36)
(0.074968169 -0.0060174516 6.7134042e-21 0.00071381814 -6.3805918e-22 2.4743043e-37)
(0.089558635 -0.0063087913 2.8705083e-20 0.00068542459 -2.3516142e-21 3.7978547e-36)
(0.1061191 -0.0065041354 -3.9974106e-20 0.00065362063 2.8090483e-21 6.2514817e-36)
(0.12456526 -0.0065603892 -3.9853579e-20 0.00062022206 2.3861709e-21 5.3032022e-36)
(0.14464065 -0.0064333964 -7.3634477e-21 0.00058895357 3.7248062e-22 1.5524504e-37)
(0.16588948 -0.0060869596 6.2520839e-20 0.00056588034 -2.6341927e-21 9.8994397e-36)
(0.18763862 -0.0055048885 -3.1437324e-20 0.00055942194 1.0858813e-21 2.2037728e-36)
(0.209073 -0.0047068093 -1.1476214e-20 0.00057907467 3.1763928e-22 2.6276726e-37)
(0.22931715 -0.0037357074 6.3794496e-21 0.00063142078 -1.3652387e-22 7.4722955e-38)
(0.24753479 -0.0026474879 2.066514e-20 0.00071469305 -3.2337891e-22 7.1853635e-37)
(0.26303698 -0.0015229618 -1.0370767e-20 0.00081980068 1.0845495e-22 1.6966216e-37)
(0.27531952 -0.00042160734 1.9146276e-20 0.00093589537 -1.0792656e-22 5.4932464e-37)
(0.28406658 0.00063354 1.1625436e-19 0.0010558207 -1.4261741e-22 1.9602663e-35)
(0.28910309 0.0016237417 5.5483608e-21 0.001182166 1.6359101e-23 4.4031237e-38)
(0.29046033 0.0025177554 -2.4800994e-20 0.001323169 -1.669351e-22 8.7920224e-37)
(0.28846137 0.0032602617 5.4223195e-20 0.0014874866 5.6749876e-22 4.2802698e-36)
(0.28383869 0.003779887 -4.5076771e-20 0.0016817931 -6.3604239e-22 3.0684722e-36)
(0.27751281 0.0040459258 1.2333687e-19 0.0019077135 2.1811077e-21 2.4290383e-35)
(0.27048006 0.0040794055 3.3612733e-20 0.002158871 7.1977899e-22 1.9441686e-36)
(0.26330432 0.0039136791 -8.9355645e-20 0.0024201908 -2.2508931e-21 1.5177903e-35)
(0.25612736 0.0036516614 1.4214758e-20 0.0026548268 4.2235567e-22 4.3164908e-37)
(0.24847578 0.003415896 1.49493e-20 0.0028044903 5.1600641e-22 5.557733e-37)
(0.23919539 0.0034604706 2.7276556e-21 0.0028281283 1.1023437e-22 2.2186473e-38)
(0.22792395 0.0039851137 -3.2641346e-20 0.0027958441 -1.5613108e-21 3.8965116e-36)
(0.21132048 0.0049596682 5.5965596e-20 0.0029199685 3.1605981e-21 1.4763938e-35)
(0.19329379 0.0061203463 1.461598e-20 0.0034337817 9.5888821e-22 1.3227198e-36)
(0.16551064 0.0063367793 2.0278472e-20 0.0039880424 1.5363774e-21 3.6524788e-36)
(3.0979251e-09 -4.4227638e-08 3.359969e-25 6.3142592e-07 -4.5081739e-24 2.5233054e-38)
(3.5292079e-08 -4.5844439e-07 -5.1438301e-25 5.9567701e-06 6.3290313e-24 9.6361064e-39)
(1.254531e-07 -1.4991216e-06 -2.3532168e-25 1.7927519e-05 2.6449007e-24 6.8130841e-40)
(3.1850587e-07 -3.4864347e-06 3.3825509e-25 3.8219597e-05 -3.4711465e-24 6.1225679e-40)
(6.8437697e-07 -6.8509643e-06 -2.3434364e-24 6.8744586e-05 2.1976413e-23 1.4369265e-38)
(1.3333414e-06 -1.2179263e-05 -2.409447e-25 0.00011163143 2.0658227e-24 7.9381655e-41)
(2.4362528e-06 -2.0255564e-05 -4.1510353e-24 0.00016918537 3.2504609e-23 1.29501e-38)
(4.2538697e-06 -3.2110243e-05 -5.9350303e-24 0.00024381297 4.2377186e-23 1.5016545e-38)
(7.1792668e-06 -4.9075021e-05 6.3538453e-23 0.0003379028 -4.1287438e-22 1.0017064e-36)
(1.1797719e-05 -7.2839836e-05 -7.3602483e-23 0.00045365205 4.3438293e-22 7.9715874e-37)
(1.8969844e-05 -0.00010550509 4.534547e-23 0.00059283075 -2.4257456e-22 1.8215873e-37)
(2.9944797e-05 -0.00014961922 8.5012488e-23 0.00075648126 -4.1141486e-22 3.8999452e-37)
(4.6511025e-05 -0.00020818728 -2.1452617e-22 0.00094455994 9.3741625e-22 1.5282583e-36)
(7.1191752e-05 -0.0002846317 -3.3647316e-23 0.001155545 1.3250796e-22 2.3312156e-38)
(0.00010749064 -0.00038268332 1.6379239e-22 0.0013860561 -5.8024141e-22 3.4559964e-37)
(0.00016018901 -0.0005061819 1.4140844e-22 0.0016305608 -4.4977904e-22 1.6216098e-37)
(0.00023568921 -0.00065877356 -2.0498826e-22 0.0018812698 5.8431329e-22 2.1611971e-37)
(0.0003423892 -0.00084351263 9.2320743e-22 0.0021283419 -2.3539497e-21 2.8008453e-36)
(0.00049106306 -0.0010624102 -6.7505362e-22 0.0023605133 1.5368371e-21 9.6545775e-37)
(0.00069521522 -0.0013160203 4.1066365e-22 0.0025662104 -8.3328505e-22 2.3234898e-37)
(0.00097137889 -0.0016032062 -1.6909839e-21 0.0027350942 3.0533169e-21 2.593845e-36)
(0.0013393454 -0.0019212549 -5.3316472e-22 0.0028598124 8.5538101e-22 1.7184656e-37)
(0.0018223976 -0.0022665079 1.3369686e-21 0.0029375519 -1.9033964e-21 7.309219e-37)
(0.0024478527 -0.0026356176 -2.3987258e-21 0.0029708761 3.0266382e-21 1.6149585e-36)
(0.0032473991 -0.003026793 -1.1172039e-21 0.0029674497 1.2478799e-21 2.4400993e-37)
(0.0042567987 -0.0034402777 1.5688205e-21 0.002938222 -1.5509156e-21 3.4335772e-37)
(0.0055198966 -0.0038792735 1.0364042e-20 0.0028935268 -9.0554465e-21 1.080229e-35)
(0.007090891 -0.0043489721 5.4163084e-21 0.0028416441 -4.1788504e-21 2.1620232e-36)
(0.0090322817 -0.0048539126 -3.0926747e-21 0.0027892197 2.1060186e-21 5.2832618e-37)
(0.011418892 -0.005398988 3.7910296e-21 0.0027403327 -2.2722493e-21 5.951435e-37)
(0.014340059 -0.0059884378 -2.6783633e-21 0.0026963224 1.4136406e-21 2.3014619e-37)
(0.017900526 -0.0066244704 -1.7220896e-20 0.0026566145 7.9782337e-21 7.316865e-36)
(0.022221159 -0.0073071481 6.4998404e-21 0.0026195399 -2.6419425e-21 8.1707284e-37)
(0.027439114 -0.008034113 2.1814752e-20 0.0025829386 -7.7698956e-21 7.2790113e-36)
(0.033706833 -0.0087999837 -8.1230224e-21 0.002544396 2.5342909e-21 8.1339986e-37)
(0.041189144 -0.0095950812 -1.2719323e-20 0.0025012358 3.4690273e-21 1.6041768e-36)
(0.050057119 -0.010403387 2.4505357e-20 0.0024504237 -5.8368286e-21 4.8567559e-36)
(0.060476904 -0.011199859 8.298836e-21 0.002388578 -1.7230569e-21 4.5686658e-37)
(0.072591577 -0.011947355 -1.6226264e-20 0.0023122702 2.9323101e-21 1.4623605e-36)
(0.086494038 -0.012593853 -7.1294034e-21 0.0022187813 1.1180015e-21 2.378935e-37)
(0.10219031 -0.013071509 3.7483434e-20 0.0021075305 -5.0790072e-21 5.5567658e-36)
(0.11955493 -0.013300098 -1.1474819e-20 0.0019824023 1.3350815e-21 4.510816e-37)
(0.13828575 -0.013196803 -1.7969997e-20 0.0018544258 1.7856492e-21 9.5394651e-37)
(0.15787529 -0.012693348 -5.1537408e-20 0.0017438178 4.3264993e-21 6.8510477e-36)
(0.17760697 -0.011760326 1.0424625e-19 0.0016800979 -7.2860374e-21 2.4928127e-35)
(0.19664392 -0.010435875 -7.1332338e-20 0.0016966554 4.0770347e-21 1.0486841e-35)
(0.21412204 -0.0088137866 -1.8914734e-20 0.0018145106 8.6515573e-22 6.6819557e-37)
(0.22926553 -0.0070104942 -7.7546807e-20 0.0020267091 2.7216866e-21 1.0474023e-35)
(0.24148115 -0.0051653723 -9.5708393e-20 0.0023043954 2.445032e-21 1.5026416e-35)
(0.25042149 -0.0033913674 -4.9717773e-21 0.0026074965 8.6691087e-23 3.854993e-38)
(0.25595281 -0.0017459595 2.1261349e-20 0.0029078512 -1.8626147e-22 6.8731307e-37)
(0.25809065 -0.00026262137 -1.5622637e-19 0.00320776 1.3920256e-22 3.6895028e-35)
(0.25704889 0.0010018748 -6.5995792e-20 0.0035286937 -4.0935366e-22 6.6372378e-36)
(0.2533333 0.0019448863 -6.6542583e-20 0.0038902625 -8.6676383e-22 6.9240791e-36)
(0.24782641 0.0024684307 -2.1243111e-20 0.0042941691 -4.2479668e-22 7.3735323e-37)
(0.24154674 0.0025528624 -1.5778754e-19 0.0047215583 -4.1665524e-21 4.3446585e-35)
(0.23551562 0.0022929207 5.9681996e-20 0.0051353303 2.0057422e-21 6.7566138e-36)
(0.2301949 0.0018388426 -1.7041743e-20 0.0054859084 -6.936605e-22 6.1722825e-37)
(0.22548296 0.0014388021 -1.3036627e-19 0.005701241 -6.3896195e-21 4.106742e-35)
(0.22067448 0.0013160161 -4.762635e-20 0.0056904758 -2.7864739e-21 6.4333085e-36)
(0.21405396 0.0018075577 5.1241688e-20 0.0054129737 3.5537995e-21 9.074011e-36)
(0.20512027 0.0031015858 1.5715899e-19 0.0049811223 1.2953075e-20 1.0708073e-34)
(0.18967486 0.0049400114 -4.3599865e-20 0.0047207269 -4.2582714e-21 1.0918417e-35)
(0.17312142 0.0069605403 -6.0400981e-20 0.0049979025 -6.936596e-21 2.8362338e-35)
(0.1460825 0.0074796988 -2.1180692e-20 0.0053524077 -2.8632305e-21 5.202203e-36)
(1.2314886e-08 -1.2518902e-07 -2.2118334e-24 1.2726333e-06 2.1800802e-23 2.8298898e-37)
(1.2686062e-07 -1.2344815e-06 6.9730265e-24 1.2013162e-05 -6.588367e-23 5.0093873e-37)
(4.1473099e-07 -3.8731507e-06 -4.145091e-24 3.6174957e-05 3.7381551e-23 6.547077e-38)
(9.6756649e-07 -8.640018e-06 6.5417851e-25 7.7169373e-05 -5.6196081e-24 7.7342499e-40)
(1.9152238e-06 -1.6307077e-05 -1.7757628e-23 0.00013889942 1.4508722e-22 3.021295e-37)
(3.4447828e-06 -2.7876915e-05 2.4436977e-23 0.00022572957 -1.8956028e-22 3.2325411e-37)
(5.823685e-06 -4.4635848e-05 -4.8264988e-23 0.00034241046 3.5455731e-22 7.432702e-37)
(9.4315409e-06 -6.821308e-05 2.9111523e-23 0.00049393615 -2.0190635e-22 1.6439127e-37)
(1.4804247e-05 -0.00010064575 1.4035688e-22 0.00068531287 -9.160577e-22 2.3736129e-36)
(2.2693678e-05 -0.00014444256 -4.2434521e-23 0.00092121769 2.5972785e-22 1.37047e-37)
(3.4147551e-05 -0.00020263778 -2.0204663e-22 0.0012055289 1.1557301e-21 1.9844749e-36)
(5.0614565e-05 -0.00027882225 7.6739507e-23 0.0015407195 -4.0879599e-22 1.8455401e-37)
(7.4080407e-05 -0.00037713383 6.3494968e-24 0.0019271235 -3.138855e-23 8.2231073e-40)
(0.00010723974 -0.00050218394 -3.0783231e-22 0.0023621172 1.4073655e-21 1.2556746e-36)
(0.00015370798 -0.00065889453 1.1874876e-21 0.0028393038 -5.0030784e-21 1.2234433e-35)
(0.00021827357 -0.00085222166 -8.966855e-22 0.0033478442 3.4692786e-21 4.5846035e-36)
(0.00030718699 -0.0010867535 -1.0484688e-23 0.0038721465 3.7120922e-23 4.1321104e-40)
(0.0004284761 -0.0013661963 7.4419225e-22 0.0043921644 -2.4027631e-21 1.3802304e-36)
(0.00059227122 -0.0016928064 -2.3032159e-21 0.0048845613 6.7582217e-21 8.8064556e-36)
(0.00081112022 -0.0020668873 1.3190409e-21 0.0053249013 -3.5057936e-21 1.937302e-36)
(0.0011002781 -0.0024865374 2.3753157e-21 0.0056908085 -5.7002606e-21 4.2475137e-36)
(0.0014779687 -0.0029478658 1.1551668e-21 0.005965691 -2.4954119e-21 6.8530843e-37)
(0.0019656681 -0.0034458764 -6.8117525e-21 0.0061422141 1.321008e-20 1.6482532e-35)
(0.0025886725 -0.0039761716 -4.2176758e-21 0.0062244217 7.3234938e-21 4.4207264e-36)
(0.0033768453 -0.0045369185 3.2015812e-21 0.0062275167 -4.9668809e-21 1.8132576e-36)
(0.0043637139 -0.0051291543 -2.1839988e-21 0.0061745542 3.0198998e-21 6.0624351e-37)
(0.005590422 -0.0057582352 9.4780895e-21 0.0060887645 -1.1664829e-20 8.3762303e-36)
(0.0071084752 -0.0064324318 -3.1385465e-21 0.0059882493 3.4309986e-21 6.8148328e-37)
(0.0089766926 -0.0071589779 9.6922535e-21 0.0058867049 -9.3951037e-21 4.8960073e-36)
(0.011265357 -0.0079453605 -6.243438e-21 0.0057928746 5.3563436e-21 1.5515776e-36)
(0.014057824 -0.008797982 4.3921483e-21 0.0057097156 -3.3277374e-21 5.9090106e-37)
(0.017451611 -0.0097203297 -1.8198304e-20 0.0056359497 1.2163564e-20 7.9405917e-36)
(0.021558531 -0.010712651 2.940366e-21 0.0055679223 -1.7313898e-21 1.6418888e-37)
(0.026504592 -0.011771562 -1.7454114e-20 0.0055008946 9.0379044e-21 4.5911924e-36)
(0.03242841 -0.012889156 1.8687932e-20 0.0054295652 -8.503468e-21 4.2430759e-36)
(0.03947754 -0.014051137 6.6952421e-21 0.0053479662 -2.6727816e-21 4.3872918e-37)
(0.047801479 -0.015233876 -9.2395477e-20 0.0052491653 3.2343787e-20 6.9200781e-35)
(0.057539416 -0.016400501 -2.6707591e-20 0.0051252121 8.1820669e-21 4.7774628e-36)
(0.068800976 -0.017496548 2.4362371e-20 0.0049677059 -6.5193203e-21 3.3328546e-36)
(0.081638306 -0.018446141 -2.624695e-20 0.0047694214 6.1185337e-21 3.2656616e-36)
(0.096009592 -0.019151033 7.392505e-21 0.0045275711 -1.4949678e-21 2.1924143e-37)
(0.11173632 -0.019495997 5.0057077e-20 0.0042491015 -8.7490965e-21 8.7195855e-36)
(0.12846214 -0.01936369 -2.4948451e-21 0.0039570282 3.7465562e-22 1.9061077e-38)
(0.14562816 -0.018661481 -1.9472697e-20 0.0036954883 2.4811107e-21 1.0050475e-36)
(0.16250058 -0.017362624 1.0024087e-20 0.0035300237 -1.0622331e-21 2.4125258e-37)
(0.17828691 -0.01554377 -5.4453044e-21 0.0035322654 4.8167606e-22 6.0679535e-38)
(0.19220332 -0.013359611 -1.615703e-20 0.0037435942 1.149733e-21 5.0899075e-37)
(0.20362507 -0.011004361 2.568964e-19 0.0041466526 -1.4308768e-20 1.2132724e-34)
(0.21217692 -0.0086837748 -2.9548559e-20 0.0046738846 1.2089583e-21 1.5198708e-36)
(0.21773375 -0.0065381815 2.7770726e-20 0.005234371 -7.9100702e-22 1.2943608e-36)
(0.22033789 -0.0046237306 -2.6289097e-19 0.0057685163 4.3561763e-21 1.1369328e-34)
(0.22014314 -0.0029750275 1.4348496e-19 0.0062833354 -7.9858121e-22 3.3813216e-35)
(0.21748925 -0.00167567 1.1648583e-19 0.0068264434 6.0712977e-22 2.2613025e-35)
(0.21300793 -0.00086471581 1.0844805e-19 0.0074360617 1.6692546e-21 2.0300282e-35)
(0.20767045 -0.00064698877 1.0080041e-19 0.008107582 2.5611433e-21 1.851209e-35)
(0.20250718 -0.00099906277 1.5106598e-19 0.0087911482 5.3668457e-21 4.4802756e-35)
(0.19836534 -0.0017207854 -2.8552046e-19 0.009403877 -1.3227444e-20 1.7596725e-34)
(0.19544676 -0.0025342442 1.6428062e-19 0.0098479058 9.4948877e-21 6.561227e-35)
(0.19320329 -0.003045148 2.2995006e-19 0.010004867 1.6201724e-20 1.4899756e-34)
(0.1906206 -0.0029203283 -1.5370182e-19 0.0097426619 -1.3114788e-20 7.941415e-35)
(0.1853762 -0.0017853878 -4.3869491e-20 0.0090313694 -4.4819325e-21 8.0352089e-36)
(0.17711439 0.00051910932 -3.3616398e-20 0.008023119 -4.1075258e-21 6.0922174e-36)
(0.1609663 0.0032857535 1.4668345e-19 0.0072407631 2.1607524e-20 1.5777227e-34)
(0.14415674 0.0060258306 9.0893698e-20 0.007128807 1.5934706e-20 8.5122644e-35)
(0.11748954 0.0067691371 -3.1477609e-21 0.0070920708 -6.6388686e-22 1.6520964e-37)
(3.3088968e-08 -2.5950415e-07 2.5829152e-24 2.0351939e-06 -1.9894129e-23 1.4030983e-37)
(3.2721767e-07 -2.508297e-06 -1.6664566e-23 1.9227592e-05 1.2535474e-22 1.0814162e-36)
(1.0315256e-06 -7.731086e-06 2.1856028e-23 5.7944544e-05 -1.6007423e-22 7.1860247e-37)
(2.3146011e-06 -1.6921459e-05 -1.1735556e-23 0.00012371562 8.3558546e-23 1.0260091e-37)
(4.4012527e-06 -3.1319545e-05 -5.7002413e-24 0.00022289467 3.9399255e-23 1.338698e-38)
(7.5943409e-06 -5.247332e-05 6.3918661e-23 0.00036262654 -4.2815261e-22 9.9092156e-37)
(1.2300339e-05 -8.2296066e-05 -2.0648658e-23 0.00055074397 1.3373978e-22 6.3542415e-38)
(1.9062471e-05 -0.00012312567 -5.5084756e-23 0.00079555943 3.4406423e-22 2.8634577e-37)
(2.8604639e-05 -0.00017778504 -5.247981e-24 0.0011055171 3.151667e-23 1.6846994e-39)
(4.1888111e-05 -0.00024963415 -5.4940395e-23 0.0014886683 3.162295e-22 1.2148424e-37)
(6.0184199e-05 -0.0003426039 9.421963e-23 0.001951936 -5.1802203e-22 2.3797772e-37)
(8.5166164e-05 -0.00046119633 -7.9838246e-23 0.0025001476 4.1781278e-22 1.148135e-37)
(0.00011902396 -0.00061043243 -3.5760591e-22 0.0031348428 1.774803e-21 1.5562767e-36)
(0.00016460484 -0.00079572356 -1.2613311e-23 0.0038529091 5.9143118e-23 1.3109848e-39)
(0.00022558211 -0.0010226422 4.0104313e-22 0.0046451719 -1.769534e-21 9.0460495e-37)
(0.00030665274 -0.001296572 3.4321799e-22 0.0054951621 -1.4192999e-21 4.5212746e-37)
(0.00041376186 -0.0016222315 -3.5623316e-22 0.0063783909 1.3748478e-21 3.3313821e-37)
(0.00055434985 -0.0020030968 4.1040657e-23 0.0072625615 -1.4718983e-22 3.0495037e-39)
(0.00073761527 -0.0024407967 1.0032005e-21 0.0081091686 -3.3290701e-21 1.2487132e-36)
(0.00097478759 -0.0029346197 1.4629064e-21 0.0088768325 -4.4721453e-21 1.8360391e-36)
(0.0012794098 -0.0034813435 -1.9895934e-21 0.0095263845 5.5788824e-21 2.3643225e-36)
(0.0016676417 -0.0040756274 -2.3736394e-21 0.010027159 6.0791313e-21 2.3614173e-36)
(0.0021586112 -0.004711166 3.7654414e-21 0.010363234 -8.7723545e-21 4.2102739e-36)
(0.0027750084 -0.0053827453 -5.4607265e-21 0.010537746 1.1527507e-20 6.33967e-36)
(0.0035441699 -0.0060889048 -1.1018058e-20 0.010573381 2.0998771e-20 1.869708e-35)
(0.0044970445 -0.006832203 3.0009502e-20 0.010508032 -5.147236e-20 1.0194641e-34)
(0.0056712634 -0.0076208244 -1.8970539e-20 0.010383443 2.9198395e-20 3.0331943e-35)
(0.0071142793 -0.0084661732 3.2092857e-20 0.010231224 -4.4204588e-20 6.5421834e-35)
(0.008880646 -0.009378697 -4.5529833e-20 0.010074906 5.5978673e-20 1.0053644e-34)
(0.011034667 -0.010368538 5.7452931e-20 0.0099304099 -6.2892054e-20 1.2362034e-34)
(0.013651841 -0.011444083 -6.6866436e-20 0.009803684 6.5024715e-20 1.3079065e-34)
(0.016820285 -0.012609964 1.2609558e-20 0.009692939 -1.0872866e-20 3.6786773e-36)
(0.020640066 -0.013866312 4.8754875e-20 0.0095919686 -3.7201206e-20 4.3703748e-35)
(0.025222766 -0.015208333 -3.0650667e-20 0.0094924408 2.0666597e-20 1.3895168e-35)
(0.030689296 -0.016625137 1.0647817e-20 0.009384887 -6.3353694e-21 1.3625418e-36)
(0.037165485 -0.018097344 3.4300423e-21 0.0092585271 -1.7992864e-21 1.1674483e-37)
(0.04477408 -0.019593279 4.6949334e-20 0.0091007161 -2.1666615e-20 1.7886604e-35)
(0.053621629 -0.021064023 1.6876761e-20 0.0088968104 -6.844842e-21 1.9182343e-36)
(0.06377861 -0.022438025 1.8700298e-20 0.0086311175 -6.6490993e-21 1.9729825e-36)
(0.075251642 -0.023616696 2.0119724e-20 0.0082897993 -6.2588386e-21 1.9531559e-36)
(0.087948654 -0.024473999 -1.1138482e-19 0.0078667918 3.018922e-20 5.134662e-35)
(0.10164052 -0.024864601 5.2826086e-20 0.0073734866 -1.241324e-20 1.0004767e-35)
(0.11592761 -0.024645276 9.1212173e-21 0.0068504981 -1.8509888e-21 2.5580302e-37)
(0.13022993 -0.023715066 -1.1122021e-19 0.0063776557 1.9208574e-20 3.4355914e-35)
(0.14385686 -0.022075474 -5.9750281e-20 0.0060729303 8.7143983e-21 8.8777328e-36)
(0.15612774 -0.019865975 3.0759066e-20 0.0060586169 -3.7387353e-21 2.1538006e-36)
(0.16644587 -0.017313668 1.1663356e-19 0.0063934028 -1.149728e-20 2.8483804e-35)
(0.17441884 -0.014684416 -5.2217466e-20 0.0070367137 4.0998186e-21 5.3844852e-36)
(0.17989518 -0.012215857 1.5614703e-19 0.0078593865 -9.1540761e-21 4.5804e-35)
(0.18289685 -0.010038344 8.5908852e-20 0.0087000192 -3.557495e-21 1.346058e-35)
(0.18355073 -0.0081787596 1.1876658e-19 0.0094646267 -3.0798439e-21 2.5424526e-35)
(0.18206444 -0.0066620492 3.1662153e-19 0.010179535 -3.2880123e-21 1.815633e-34)
(0.1788366 -0.0056014584 -2.4025058e-19 0.010936009 -9.1658464e-22 1.0720391e-34)
(0.17457924 -0.0051733588 7.6216521e-20 0.011797327 1.4430618e-21 1.1243544e-35)
(0.17029229 -0.00547191 -1.2564219e-19 0.012746998 -3.9618521e-21 3.2673826e-35)
(0.1669068 -0.0063995995 -1.1341033e-19 0.013693599 -5.2179352e-21 2.8990375e-35)
(0.16496298 -0.0076261012 -4.1636882e-20 0.014497755 -2.5646966e-21 4.3608379e-36)
(0.1643072 -0.008731499 -3.5180515e-19 0.01500088 -2.6893475e-20 3.5565324e-34)
(0.16382361 -0.0091913944 -8.6553384e-20 0.015033534 -8.1651784e-21 2.5362262e-35)
(0.16222141 -0.0085773402 1.7847884e-19 0.014407691 2.0629582e-20 1.311962e-34)
(0.15662662 -0.0065641125 5.962466e-20 0.013138638 8.4138552e-21 1.8633375e-35)
(0.14708808 -0.0030865945 -3.8606022e-20 0.011407585 -6.5908689e-21 1.0378751e-35)
(0.12902098 0.00056201019 -6.6982724e-20 0.010026187 -1.3916246e-20 4.4356613e-35)
(0.11084028 0.0036550872 -8.6207855e-20 0.0094043176 -2.1739071e-20 1.0752831e-34)
(0.085512065 0.0044479993 5.0521066e-21 0.0088176767 1.5500823e-21 6.2526371e-37)
(6.9672054e-08 -4.4249848e-07 1.1731141e-23 2.8103806e-06 -7.3622376e-23 1.3026008e-36)
(6.7542949e-07 -4.2370737e-06 7.9544811e-24 2.657992e-05 -4.9226063e-23 1.1345691e-37)
(2.0906036e-06 -1.294706e-05 -1.0225834e-23 8.0181797e-05 6.2263683e-23 7.4374969e-38)
(4.5973801e-06 -2.8069475e-05 -5.2975456e-23 0.00017138371 3.1707291e-22 1.0138454e-36)
(8.5567948e-06 -5.1432425e-05 3.8550617e-23 0.00030916023 -2.2657497e-22 3.042748e-37)
(1.4431366e-05 -8.5253382e-05 -7.1448402e-23 0.00050367409 4.1183092e-22 6.3017757e-37)
(2.2811757e-05 -0.00013219499 3.8964444e-23 0.00076616568 -2.1989058e-22 1.179406e-37)
(3.4448973e-05 -0.00019541533 1.1515393e-23 0.001108703 -6.3495464e-23 6.6878702e-39)
(5.0294896e-05 -0.00027861081 -7.9929833e-23 0.0015437432 4.296253e-22 2.1416205e-37)
(7.1551681e-05 -0.00038603976 -2.0943566e-22 0.0020834493 1.0945547e-21 9.9416207e-37)
(9.9731937e-05 -0.00052251534 -1.2716542e-23 0.0027387088 6.4442445e-23 2.5031461e-39)
(0.0001367311 -0.00069335083 5.0019701e-22 0.0035178115 -2.4503141e-21 2.6833262e-36)
(0.00018491382 -0.00090423852 -8.2935104e-22 0.0044247777 3.9148419e-21 5.1307689e-36)
(0.00024721581 -0.001161041 1.6009062e-21 0.0054573867 -7.2565817e-21 1.3362427e-35)
(0.00032726264 -0.001469476 -4.9924251e-22 0.006605053 2.1650094e-21 9.1131206e-37)
(0.00042950645 -0.0018346841 1.2639128e-21 0.0078468339 -5.2231292e-21 4.1058933e-36)
(0.00055938239 -0.0022606895 -1.8178233e-21 0.0091500175 7.1285183e-21 5.9869498e-36)
(0.00072348607 -0.0027497958 1.4022638e-21 0.010469906 -5.1949166e-21 2.5168918e-36)
(0.00092977665 -0.0033020112 -2.6254163e-22 0.011751503 9.1457236e-22 6.2570863e-38)
(0.001187813 -0.003914661 -1.2592197e-21 0.012933723 4.1048301e-21 1.0237798e-36)
(0.0015090369 -0.0045824065 3.6076512e-21 0.013956364 -1.095062e-20 6.0086904e-36)
(0.0019071273 -0.0052979163 -5.97707e-21 0.014769296 1.6809372e-20 1.1876699e-35)