/*--------------------------------*- C++ -*----------------------------------*\
  =========                 |
  \\      /  F ield         | OpenFOAM: The Open Source CFD Toolbox
   \\    /   O peration     | Website:  https://openfoam.org
    \\  /    A nd           | Version:  13
     \\/     M anipulation  |
\*---------------------------------------------------------------------------*/
FoamFile
{
    format      ascii;
    class       volVectorField;
    location    "42.903384";
    object      U;
}
// * * * * * * * * * * * * * * * * * * * * * * * * * * * * * * * * * * * * * //

dimensions      [0 1 -1 0 0 0 0];

internalField   nonuniform List<vector> 
17140
(
(-6.0854099e-07 3.9686815e-05 3.412027e-23)
(-3.4287903e-06 0.0001200047 3.7763202e-24)
(-8.6073736e-06 0.00020727026 -2.4915584e-22)
(-1.7081865e-05 0.00030444701 2.7369404e-22)
(-2.9749153e-05 0.00041487663 -3.1965053e-23)
(-4.7834623e-05 0.00054225302 1.0450066e-22)
(-7.2861141e-05 0.00069060686 1.7568278e-22)
(-0.00010669981 0.00086426346 -8.5596797e-23)
(-0.00015164668 0.0010677768 -2.7959495e-22)
(-0.00021050914 0.0013058301 -6.8396255e-22)
(-0.00028670545 0.0015830974 1.0108084e-21)
(-0.00038437827 0.0019040566 -8.9716659e-22)
(-0.00050852434 0.002272747 -1.3667204e-22)
(-0.00066513893 0.0026924635 7.6810484e-22)
(-0.00086137411 0.0031653807 -8.4658593e-23)
(-0.0011057072 0.0036921044 6.6489114e-22)
(-0.001408114 0.0042711547 -2.4428478e-23)
(-0.0017802372 0.00489839 5.4826024e-24)
(-0.0022355363 0.0055663987 3.7873701e-22)
(-0.0027894002 0.0062639 -4.8243408e-22)
(-0.0034591949 0.006975219 2.2782615e-22)
(-0.0042642109 0.0076799273 -4.2439907e-23)
(-0.0052254666 0.0083527729 -3.0431596e-22)
(-0.0063653087 0.0089640475 2.9527002e-22)
(-0.0077067451 0.0094805639 4.5496655e-22)
(-0.009272436 0.0098674235 -3.5347777e-22)
(-0.011083274 0.010090743 -1.679819e-21)
(-0.013156519 0.010121462 -1.9135697e-22)
(-0.015503525 0.0099402099 1.6184836e-21)
(-0.018127325 0.0095428244 3.6539154e-22)
(-0.02102071 0.0089452226 1.2537388e-21)
(-0.024165809 0.0081847034 -1.5803204e-21)
(-0.027536195 0.0073141007 3.9392475e-22)
(-0.031101678 0.0063881483 1.78802e-22)
(-0.034833978 0.0054488547 1.6588474e-21)
(-0.038710239 0.0045185132 -6.87425e-22)
(-0.04271305 0.0036017612 9.8891132e-22)
(-0.046829396 0.0026913786 6.4144202e-22)
(-0.051049446 0.0017718073 2.8330019e-22)
(-0.055366445 0.00082028641 -8.3598201e-22)
(-0.059778738 -0.00019520059 -1.5526175e-21)
(-0.064292372 -0.001320148 -1.3966984e-21)
(-0.068924454 -0.0026201189 -6.0842726e-22)
(-0.073712181 -0.0041874068 2.9754511e-21)
(-0.078711603 -0.0061491642 2.1901364e-21)
(-0.084002614 -0.0086766777 -5.414151e-22)
(-0.089695648 -0.012000873 3.7275091e-21)
(-0.095928939 -0.016430681 1.2769811e-21)
(-0.10285634 -0.022376671 -1.3112829e-21)
(-0.11063961 -0.030387475 -3.2348835e-21)
(-0.1193862 -0.041196059 1.998453e-21)
(-0.1291545 -0.055774493 1.2652812e-21)
(-0.13974385 -0.075311605 -3.2953971e-21)
(-0.15088945 -0.10112632 -1.5551454e-21)
(-0.1616541 -0.13384853 -1.0961158e-21)
(-0.17110127 -0.17273555 8.5977322e-22)
(-0.17671229 -0.21278142 -2.2844617e-21)
(-0.17885638 -0.24284684 -1.9011238e-21)
(-0.17579093 -0.2494745 -4.8389503e-22)
(-0.17036038 -0.19788879 1.2614918e-21)
(-0.14476928 -0.036575822 1.0479572e-21)
(-0.018531961 0.23309815 3.0263213e-21)
(0.1409729 0.4435898 2.5568985e-22)
(0.21256288 0.50679682 -1.5714593e-21)
(0.24165641 0.42871587 1.1131296e-21)
(-2.999811e-06 7.138311e-05 -9.7460274e-24)
(-1.0769673e-05 0.00021814848 1.3119495e-21)
(-2.1392096e-05 0.00037877865 -1.1667793e-21)
(-3.5917453e-05 0.00055686734 3.178212e-22)
(-5.5374661e-05 0.00075642608 6.5596412e-22)
(-8.1124856e-05 0.00098184893 -1.2519742e-21)
(-0.0001148428 0.0012378924 1.3031428e-21)
(-0.00015856039 0.0015296253 -1.1448153e-22)
(-0.00021474268 0.00186235 3.5663103e-22)
(-0.00028637017 0.0022414873 6.0356338e-24)
(-0.0003770337 0.0026724162 1.1834398e-21)
(-0.00049104138 0.0031602599 -1.8724924e-21)
(-0.00063353979 0.0037096094 -1.5385001e-22)
(-0.00081064789 0.0043241743 1.5089667e-21)
(-0.0010296023 0.0050063555 -4.5970594e-22)
(-0.0012989102 0.0057567341 -2.8919274e-22)
(-0.0016285054 0.0065734795 1.812851e-21)
(-0.0020298964 0.0074516876 -5.8209881e-21)
(-0.0025162966 0.0083826738 3.5830505e-21)
(-0.0031027159 0.0093532619 -4.209225e-21)
(-0.0038059908 0.010345139 6.0781536e-21)
(-0.0046447187 0.011334366 -1.4532263e-21)
(-0.0056390572 0.012291179 -5.81747e-22)
(-0.0068103326 0.013180229 1.8474296e-21)
(-0.0081804004 0.013961455 -6.4347309e-21)
(-0.009770685 0.014591793 -9.3060873e-22)
(-0.011600839 0.015027944 4.6568503e-21)
(-0.013686988 0.015230424 -5.0531802e-21)
(-0.016039625 0.015169085 6.7169023e-22)
(-0.018661412 0.014829993 6.3529042e-21)
(-0.021545483 0.014222602 -6.3180868e-22)
(-0.024675167 0.013384009 -4.673128e-21)
(-0.028026069 0.01237505 -1.1562775e-22)
(-0.031570531 0.011265533 3.1717702e-21)
(-0.035282765 0.010115065 -3.3571143e-21)
(-0.039141965 0.0089612729 1.436926e-21)
(-0.043132368 0.0078197868 -1.6070732e-21)
(-0.047242056 0.0066902292 -4.9108364e-21)
(-0.051462272 0.0055621213 -1.0670557e-21)
(-0.055787802 0.0044169851 -4.0740543e-21)
(-0.060219091 0.0032275003 5.1283735e-21)
(-0.064765122 0.0019539751 4.6987002e-21)
(-0.069446904 0.00053841546 8.0466321e-22)
(-0.074308864 -0.0011026386 -6.4726534e-21)
(-0.079416464 -0.0030884291 3.1105185e-21)
(-0.084862358 -0.0055816008 1.0897824e-21)
(-0.090775986 -0.0088047139 -5.6403271e-22)
(-0.0973216 -0.013062261 -1.8498097e-21)
(-0.10468839 -0.018767323 9.0762501e-22)
(-0.11308457 -0.026481295 -1.7065599e-21)
(-0.12267852 -0.036966303 -1.0167151e-20)
(-0.13359813 -0.051247281 -4.6674833e-22)
(-0.1457219 -0.070593375 2.1563959e-21)
(-0.15878238 -0.096438432 -4.9186585e-21)
(-0.17175876 -0.12959183 4.1274578e-21)
(-0.18331139 -0.16952453 -1.1607991e-20)
(-0.19065014 -0.21110423 -3.2592863e-21)
(-0.19342214 -0.24281805 8.8835901e-21)
(-0.19036786 -0.25103968 -1.4550956e-21)
(-0.18612185 -0.20304345 -1.7970524e-21)
(-0.16845291 -0.058663553 -3.5745114e-22)
(-0.075347982 0.18978688 2.7003337e-21)
(0.074787094 0.40441248 -3.8048307e-21)
(0.16200575 0.48559193 -7.7671847e-22)
(0.23676 0.4028768 -1.5368577e-21)
(-7.2255133e-06 0.00010357145 -5.3872375e-22)
(-2.3756817e-05 0.00031783628 3.9783827e-22)
(-4.4018032e-05 0.0005530029 1.0574622e-22)
(-6.9185657e-05 0.00081329172 -1.0018276e-22)
(-0.00010044945 0.0011033786 4.8507891e-22)
(-0.00013933621 0.0014283511 3.6045948e-23)
(-0.00018769656 0.001793684 4.5971756e-22)
(-0.00024774552 0.0022051802 4.9445999e-22)
(-0.00032213469 0.0026688809 -4.0318655e-21)
(-0.00041402907 0.0031909333 3.5900805e-21)
(-0.00052719472 0.0037774106 -1.7122379e-21)
(-0.00066609663 0.0044340706 -2.4986373e-21)
(-0.0008360082 0.0051660462 4.9292528e-21)
(-0.0010431309 0.0059774545 6.0647861e-22)
(-0.0012947223 0.0068709184 -2.3231731e-21)
(-0.0015992295 0.0078469946 -1.5822726e-21)
(-0.0019664218 0.0089035087 1.8139767e-21)
(-0.0024075152 0.010034808 -6.4782754e-21)
(-0.0029352766 0.011230956 3.7674739e-21)
(-0.0035640912 0.012476911 -1.8292977e-21)
(-0.0043099714 0.01375176 6.0377238e-21)
(-0.0051904774 0.015028096 1.5327339e-21)
(-0.0062245131 0.016271685 -3.1167655e-21)
(-0.0074319493 0.017441574 4.5610624e-21)
(-0.008833019 0.018490851 1.7453796e-21)
(-0.010447424 0.019368283 -2.0322391e-21)
(-0.012293094 0.020021116 -1.1188577e-20)
(-0.014384587 0.020399359 -4.9102101e-21)
(-0.016731185 0.020461948 2.3711808e-21)
(-0.019334978 0.020184978 -2.4597317e-21)
(-0.022189477 0.019571209 1.480836e-21)
(-0.02527957 0.018657321 8.0888226e-21)
(-0.028583532 0.017512088 -2.6004815e-21)
(-0.032076964 0.016220521 -7.4038938e-21)
(-0.03573713 0.014860103 2.3392569e-21)
(-0.039545518 0.013484054 3.1358759e-21)
(-0.043487925 0.012119142 -5.2095002e-21)
(-0.047553491 0.010772387 -1.5447262e-21)
(-0.051734239 0.0094384057 2.6440926e-21)
(-0.056025817 0.008103352 1.0315696e-21)
(-0.060429969 0.0067451691 -4.9599833e-21)
(-0.064957594 0.0053308406 1.4148499e-21)
(-0.069632937 0.003811164 2.0390952e-21)
(-0.074505108 0.0021121485 5.5152863e-21)
(-0.079646082 0.00012489028 -1.0655662e-20)
(-0.085158682 -0.0023026814 7.0474847e-21)
(-0.091186845 -0.0053822395 1.8346077e-21)
(-0.097914978 -0.0094106377 7.2954045e-21)
(-0.10555957 -0.01479974 8.8773904e-21)
(-0.11436511 -0.022119736 4.4383827e-22)
(-0.12454733 -0.032158542 -2.0834214e-21)
(-0.13628471 -0.045994243 1.460578e-20)
(-0.14950391 -0.06499287 6.232058e-21)
(-0.16388892 -0.090747016 6.3500556e-21)
(-0.17825842 -0.12432275 2.1322376e-21)
(-0.19074227 -0.16545732 1.5837631e-20)
(-0.19775704 -0.20896423 -6.196346e-21)
(-0.19883668 -0.24298696 1.6217154e-21)
(-0.19286236 -0.2530084 1.3537701e-20)
(-0.18508188 -0.20792514 4.99641e-21)
(-0.16809009 -0.076302072 -5.223358e-21)
(-0.097228982 0.15034151 -1.4555221e-20)
(0.040854397 0.36317199 3.2022383e-21)
(0.14132007 0.45559585 4.0059238e-21)
(0.27363772 0.3620469 2.0917141e-21)
(-1.3335776e-05 0.00013573929 1.8105022e-21)
(-4.2557299e-05 0.0004174869 -2.8786053e-21)
(-7.6770871e-05 0.00072718675 1.0402392e-21)
(-0.00011730088 0.0010696731 -1.1299479e-22)
(-0.000165527 0.0014502709 2.232138e-21)
(-0.0002231672 0.0018747452 -2.3069286e-21)
(-0.00029227134 0.0023492716 3.4948647e-21)
(-0.00037525776 0.0028803697 -1.641417e-21)
(-0.00047498011 0.0034748011 -6.2284103e-21)
(-0.00059479662 0.0041394226 1.4936546e-21)
(-0.00073864864 0.0048809859 5.6717899e-21)
(-0.00091114638 0.0057058719 -1.7247493e-21)
(-0.0011176639 0.0066197484 -1.1459081e-22)
(-0.0013644407 0.0076271409 4.4664075e-21)
(-0.0016586887 0.008730905 -1.3873793e-20)
(-0.0020087012 0.0099315964 8.4438252e-21)
(-0.0024239584 0.011226736 7.9604196e-23)
(-0.0029152222 0.012609981 -4.5655789e-21)
(-0.0034946105 0.014070223 1.1428151e-20)
(-0.0041756358 0.015590657 -5.3045334e-21)
(-0.00497319 0.017147895 -7.7635876e-21)
(-0.0059034495 0.01871121 -3.0805256e-21)
(-0.0069836689 0.020242059 1.4889425e-20)
(-0.008231823 0.021694056 7.5981415e-21)
(-0.0096660465 0.023013602 -4.7841181e-21)
(-0.011303821 0.024141438 2.7236762e-21)
(-0.013160861 0.025015445 -9.9418076e-21)
(-0.015249694 0.025575145 2.7845024e-21)
(-0.017578021 0.025768453 -7.3055732e-21)
(-0.020147137 0.025561224 4.0180958e-21)
(-0.022950942 0.02494905 -2.4189826e-21)
(-0.025976194 0.023967559 8.5528304e-21)
(-0.029204423 0.022692875 -1.1811683e-21)
(-0.032615183 0.021224918 5.9886885e-21)
(-0.036189379 0.019659156 -5.4742513e-21)
(-0.039911129 0.018064771 -1.68535e-21)
(-0.043767779 0.016480044 2.0050988e-20)
(-0.047749242 0.014919644 5.0625363e-21)
(-0.051847907 0.013383718 -4.0876922e-21)
(-0.056059699 0.011863454 3.9521099e-21)
(-0.060386805 0.010342542 -1.0258792e-21)
(-0.064840862 0.0087952762 -6.3075608e-21)
(-0.069447874 0.007182128 2.8761487e-22)
(-0.074259396 0.0054406665 2.178121e-21)
(-0.079350933 0.0034730739 -1.0934165e-21)
(-0.084831805 0.0011402425 5.9534516e-22)
(-0.090854956 -0.0017560684 1.6621449e-21)
(-0.097617575 -0.0055016891 -2.5439769e-20)
(-0.10535373 -0.010503707 2.9425698e-21)
(-0.11433138 -0.017336453 -2.7233626e-21)
(-0.12479614 -0.026810272 2.5930534e-20)
(-0.13695322 -0.040057522 -1.4215808e-20)
(-0.15073889 -0.058559046 -1.1908387e-20)
(-0.16573609 -0.084109301 -1.1372432e-20)
(-0.18052946 -0.11811382 -1.0872143e-20)
(-0.19270926 -0.16079809 -1.6591265e-20)
(-0.19849508 -0.20669917 3.1911793e-20)
(-0.19483997 -0.24345302 -1.8287555e-20)
(-0.18205099 -0.25568679 -2.5326115e-20)
(-0.16699121 -0.21349984 1.4744041e-20)
(-0.14517618 -0.09196832 4.9579725e-21)
(-0.085953804 0.11509777 4.7354862e-21)
(0.041363402 0.32172324 -6.4069933e-21)
(0.15843166 0.41554462 -6.0871572e-21)
(0.35846317 0.30938125 8.9672891e-22)
(-2.1324997e-05 0.00016730687 -1.279633e-21)
(-6.7155314e-05 0.00051531026 4.2453936e-21)
(-0.00011962342 0.0008982102 -3.4592674e-21)
(-0.00018022208 0.0013214335 1.3064454e-21)
(-0.00025054815 0.001790929 4.7162392e-22)
(-0.00033253428 0.0023131135 -4.0543497e-21)
(-0.00042845084 0.0028948372 1.0255426e-21)
(-0.00054093735 0.0035433097 2.1746058e-21)
(-0.00067306256 0.0042659879 1.6649961e-22)
(-0.00082838429 0.0050704152 1.411663e-21)
(-0.0010110166 0.0059640033 -1.971499e-21)
(-0.0012257013 0.0069537438 1.3655375e-21)
(-0.0014778846 0.0080458372 5.0115311e-21)
(-0.0017737984 0.0092452269 1.4507139e-22)
(-0.0021205415 0.010555029 -3.7869171e-21)
(-0.0025261601 0.011975845 -2.6623134e-21)
(-0.0029997216 0.013504967 2.2705336e-21)
(-0.0035513754 0.015135464 -2.148584e-22)
(-0.004192392 0.016855198 -4.32213e-21)
(-0.004935169 0.018645778 -5.1901639e-21)
(-0.0057931884 0.020481559 5.8239961e-21)
(-0.0067809039 0.022328749 5.7474109e-21)
(-0.0079135335 0.024144789 -7.5699665e-21)
(-0.0092067222 0.02587817 9.1580799e-21)
(-0.010676035 0.027468922 1.5495062e-20)
(-0.012336239 0.028850059 -3.5591292e-20)
(-0.01420033 0.029950343 1.9085133e-20)
(-0.016278333 0.030698942 -2.7541872e-20)
(-0.018575965 0.031032703 3.3469396e-20)
(-0.021093461 0.030906904 -3.6294134e-20)
(-0.023825058 0.03030924 3.6361355e-20)
(-0.026759615 0.029273185 -5.9030645e-21)
(-0.029882432 0.027881033 -1.9617255e-20)
(-0.033177682 0.026246836 1.0593689e-20)
(-0.036630505 0.024483975 -3.1640279e-21)
(-0.040227986 0.022678027 -8.7123075e-22)
(-0.043959037 0.02087937 -1.0410437e-20)
(-0.047814066 0.019110799 -3.2735245e-21)
(-0.051785338 0.01737835 -3.2513986e-21)
(-0.055868345 0.015678628 -3.1220515e-21)
(-0.060064762 0.014001539 1.5818423e-20)
(-0.064385671 0.012329314 -6.9476606e-21)
(-0.068857122 0.01063292 -1.1240909e-21)
(-0.073530467 0.0088626823 1.3030063e-20)
(-0.078481371 0.0069335564 6.6976717e-21)
(-0.083821236 0.0047213725 -3.3060649e-21)
(-0.089705545 0.0020438368 -1.2411756e-20)
(-0.096335557 -0.0013707761 5.4025465e-21)
(-0.10395038 -0.0059208769 -1.6364229e-20)
(-0.11282509 -0.012180046 -9.0663949e-21)
(-0.12321287 -0.020977369 -1.2572368e-20)
(-0.13531438 -0.033500857 -3.4621125e-20)
(-0.1490275 -0.05136467 2.6863005e-20)
(-0.16377691 -0.076610422 -9.0428637e-21)
(-0.17783442 -0.11103746 1.5036706e-20)
(-0.18813256 -0.15523974 1.3892239e-20)
(-0.19004445 -0.20429028 5.2353688e-21)
(-0.17948398 -0.24488747 4.2200212e-20)
(-0.15776342 -0.25975435 1.0212888e-20)
(-0.13224458 -0.22015073 -1.9618709e-20)
(-0.10159243 -0.10608612 -4.5973033e-21)
(-0.043959664 0.084055265 3.6012286e-21)
(0.077234243 0.2805273 3.9493048e-21)
(0.21949231 0.36667925 6.1674962e-21)
(0.47718705 0.25012086 -1.0799575e-21)
(-3.1120968e-05 0.00019765382 -3.9143167e-21)
(-9.7330397e-05 0.00060939084 -1.3806162e-21)
(-0.00017219299 0.001062734 1.1171826e-21)
(-0.00025738861 0.0015636718 4.122988e-21)
(-0.00035475579 0.0021187413 -2.2573306e-21)
(-0.00046646277 0.0027349753 3.2459436e-21)
(-0.00059501893 0.0034198624 -1.4028534e-21)
(-0.00074330014 0.0041812667 -3.3367087e-22)
(-0.00091460063 0.005027307 1.8852892e-21)
(-0.0011126818 0.0059661842 4.0545626e-21)
(-0.001341826 0.0070059482 2.0326913e-22)
(-0.0016068911 0.0081541889 -6.6280846e-21)
(-0.0019133676 0.0094176409 9.1356122e-21)
(-0.0022674339 0.010801686 -1.4683986e-20)
(-0.0026760109 0.012309744 3.8165376e-21)
(-0.0031468087 0.013942537 -8.0571102e-21)
(-0.0036883648 0.015697237 9.6643911e-21)
(-0.0043100667 0.017566482 -6.2190998e-21)
(-0.0050221512 0.019537299 9.7155918e-22)
(-0.0058356742 0.021589974 3.8925891e-21)
(-0.0067624357 0.023696916 -9.3292745e-21)
(-0.0078148485 0.025821638 1.2959735e-20)
(-0.0090057271 0.027917984 -1.3847572e-20)
(-0.010347975 0.029929784 -2.3398388e-21)
(-0.011854133 0.031791177 2.2476874e-20)
(-0.013535769 0.033427911 -2.2258244e-20)
(-0.015402664 0.034760038 1.4158971e-20)
(-0.017461855 0.035706642 -1.555493e-20)
(-0.019716636 0.036193534 -1.4655386e-21)
(-0.022165852 0.036165032 -8.9066408e-22)
(-0.024803924 0.035599977 5.7277175e-21)
(-0.027621919 0.034528126 -3.8263794e-22)
(-0.030609306 0.03303613 2.0213332e-20)
(-0.033755481 0.031250847 -5.2437206e-21)
(-0.037050416 0.029303221 -1.5092637e-20)
(-0.040484532 0.027295693 6.7323171e-21)
(-0.044048344 0.02529148 -5.3126103e-21)
(-0.047732486 0.023322135 5.2046418e-21)
(-0.051528551 0.021400041 2.8095485e-20)
(-0.055430804 0.01952759 -1.5292091e-20)
(-0.059439314 0.017701291 -3.7134449e-21)
(-0.06356312 0.01591187 2.1136018e-20)
(-0.067826394 0.014141487 -1.1875563e-21)
(-0.072277433 0.01235396 -2.5922348e-21)
(-0.076988003 0.010478989 -2.9059237e-20)
(-0.082066273 0.0084090703 -6.7972186e-21)
(-0.087662623 0.0059799553 1.093098e-20)
(-0.093971754 0.002937011 1.1311872e-20)
(-0.10122244 -0.0011056169 1.6393348e-20)
(-0.10967558 -0.0067157135 2.0723436e-20)
(-0.11956163 -0.014736908 1.2940576e-20)
(-0.13103211 -0.026413562 1.9907869e-20)
(-0.1438836 -0.043506518 -6.7476925e-21)
(-0.15731825 -0.068342941 4.3354061e-20)
(-0.169222 -0.10322019 3.2927067e-21)
(-0.17567197 -0.14931595 2.4547793e-21)
(-0.17106752 -0.20188644 1.4711e-21)
(-0.15077229 -0.24659796 -4.6107944e-20)
(-0.11775372 -0.26476544 -1.4150909e-20)
(-0.080186045 -0.22785561 1.6060629e-20)
(-0.038300744 -0.11993566 1.5203555e-20)
(0.024774764 0.056008277 3.8658412e-21)
(0.14768774 0.23930286 9.3848587e-22)
(0.32003415 0.31252419 -8.2885048e-21)
(0.61110001 0.18999164 3.6654906e-21)
(-4.2577431e-05 0.00022613111 7.4239285e-22)
(-0.00013263435 0.00069772543 2.3577865e-21)
(-0.00023370106 0.0012172664 -5.6883922e-21)
(-0.00034766073 0.0017912626 2.1130722e-22)
(-0.00047661422 0.0024267934 2.7663658e-21)
(-0.00062298296 0.0031314614 1.2184129e-21)
(-0.00078953042 0.0039133471 8.9878748e-22)
(-0.00097938084 0.0047809244 -1.7689833e-21)
(-0.0011960615 0.0057429325 9.1443788e-21)
(-0.0014435391 0.0068081947 -6.8876248e-21)
(-0.0017262585 0.0079853722 3.3257467e-22)
(-0.0020491786 0.0092826409 4.1481041e-21)
(-0.0024178063 0.010707275 -1.5467273e-20)
(-0.0028382259 0.012265123 1.5354021e-20)
(-0.0033171205 0.013959969 -2.0347801e-21)
(-0.0038617846 0.015792756 -1.2520174e-20)
(-0.0044801216 0.017760678 1.1690152e-20)
(-0.005180624 0.019856141 -4.0501811e-21)
(-0.0059723302 0.022065608 7.7932646e-21)
(-0.0068647524 0.024368367 -9.8875226e-21)
(-0.0078677671 0.026735293 -1.8319197e-20)
(-0.0089914601 0.029127688 1.7860667e-20)
(-0.010245911 0.031496353 2.5729482e-20)
(-0.011640905 0.033781067 -4.8701746e-20)
(-0.013185538 0.035910723 3.8263481e-20)
(-0.014887716 0.037804448 -2.1736491e-20)
(-0.016753523 0.039374163 5.4725346e-21)
(-0.018786511 0.040529299 -1.2641522e-20)
(-0.020987082 0.041184764 1.2614493e-20)
(-0.023352273 0.041273538 1.6604556e-20)
(-0.025876406 0.040764461 -1.0722766e-20)
(-0.028552678 0.039681567 -1.7286621e-20)
(-0.031374947 0.0381134 1.4517741e-21)
(-0.034338327 0.036197646 5.6885126e-22)
(-0.037438211 0.034082106 9.8849362e-21)
(-0.040668777 0.03188653 -4.1340556e-21)
(-0.044022232 0.02968787 -1.4488784e-20)
(-0.04748918 0.027527233 -7.0633135e-21)
(-0.051059964 0.02542389 1.0568498e-20)
(-0.054726741 0.02338638 -8.1863147e-21)
(-0.058486735 0.021418123 6.9380607e-21)
(-0.062345287 0.019518735 -2.2356744e-21)
(-0.066322325 0.017682179 -8.8602754e-21)
(-0.070460121 0.015886362 2.1675107e-20)
(-0.074821943 0.014077012 1.2970621e-20)
(-0.079506055 0.012165216 8.7067508e-21)
(-0.084648694 0.010006446 -2.8005938e-20)
(-0.090424851 0.0073657369 -1.8532691e-20)
(-0.097033303 0.0038731435 -2.2101673e-20)
(-0.10469277 -0.0010283674 -3.92773e-20)
(-0.11356781 -0.0081932614 1.4094283e-20)
(-0.12369338 -0.018920286 -2.9622937e-21)
(-0.13467139 -0.035122913 -2.3824986e-20)
(-0.14536746 -0.059438102 -7.0195186e-20)
(-0.15308456 -0.094728792 -4.5929996e-20)
(-0.15280523 -0.14281256 -1.7610246e-20)
(-0.13771735 -0.19923145 -4.7269736e-20)
(-0.10344557 -0.2482328 2.8457401e-20)
(-0.055821241 -0.26917888 -1.2892389e-21)
(-0.0067538623 -0.23535759 -2.4634764e-20)
(0.045416264 -0.13299245 -1.1276081e-20)
(0.11673481 0.02986325 -9.600699e-22)
(0.24697774 0.19801989 1.0261569e-21)
(0.44485106 0.2570643 -6.5497042e-22)
(0.75127638 0.13335513 3.4552152e-21)
(-5.5464953e-05 0.00025209099 2.9439514e-21)
(-0.00017238731 0.00077830526 -1.9845593e-21)
(-0.00030295419 0.0013583053 2.6796576e-21)
(-0.00044929391 0.0019990624 1.5222422e-21)
(-0.00061377502 0.002708143 -4.2451344e-21)
(-0.00079908626 0.0034936628 -3.959797e-21)
(-0.0010082567 0.0043642375 4.0592446e-21)
(-0.0012446673 0.0053288963 -4.8802005e-22)
(-0.0015120831 0.0063969485 -1.1282577e-22)
(-0.0018146757 0.0075777971 -8.0040838e-21)
(-0.0021570461 0.008880684 8.754438e-22)
(-0.0025442396 0.010314356 1.6061103e-20)
(-0.0029817563 0.011886633 -1.2799992e-20)
(-0.0034755504 0.013603869 4.3919851e-22)
(-0.0040320187 0.015470285 8.5047659e-21)
(-0.0046579738 0.017487163 7.2737199e-22)
(-0.0053605997 0.019651898 -1.8379647e-21)
(-0.0061473862 0.021956907 -8.2155522e-21)
(-0.0070260382 0.024388404 1.4910293e-20)
(-0.0080043593 0.026925091 -2.593118e-20)
(-0.0090901028 0.029536803 5.5209213e-21)
(-0.010290789 0.032183226 -4.0006708e-21)
(-0.011613483 0.0348128 3.2326434e-21)
(-0.013064521 0.037362015 -1.3781285e-22)
(-0.014649183 0.039755333 1.8530093e-20)
(-0.016371294 0.041906086 1.8120611e-20)
(-0.018232774 0.043718835 -3.5197888e-20)
(-0.020233198 0.045093973 -5.7471297e-21)
(-0.022369559 0.045935779 1.9580169e-20)
(-0.024636585 0.046165577 6.7896012e-21)
(-0.02702804 0.045740944 1.5103333e-20)
(-0.02953895 0.044677812 -1.6551493e-20)
(-0.032167529 0.043063504 -7.0297564e-21)
(-0.034914936 0.041043815 1.5703733e-20)
(-0.03778253 0.038782186 -6.3211447e-21)
(-0.040768731 0.036416009 -2.9923164e-21)
(-0.043867608 0.034037 8.1762346e-21)
(-0.047069507 0.031696786 2.0869603e-20)
(-0.050362922 0.029422168 6.2518876e-21)
(-0.053736942 0.027228185 -4.0866246e-21)
(-0.057184552 0.025125382 -9.6010072e-21)
(-0.060705581 0.023122471 -9.9900133e-21)
(-0.064313213 0.021225627 -1.1167562e-20)
(-0.068039743 0.019427346 -2.3685021e-20)
(-0.071934905 0.017690017 6.572103e-22)
(-0.076079445 0.015944894 -1.0233272e-20)
(-0.080583921 0.014068398 5.7758549e-20)
(-0.085587232 0.011847165 1.6253579e-20)
(-0.091232342 0.0089294871 1.8948884e-20)
(-0.097657165 0.0047729387 5.3627443e-20)
(-0.10489629 -0.0014855191 -6.4293563e-20)
(-0.11276786 -0.011195239 1.4674429e-20)
(-0.12053965 -0.026420306 4.7961665e-20)
(-0.12651866 -0.050127597 5.8732401e-20)
(-0.12700221 -0.085801712 6.9476902e-21)
(-0.11522353 -0.13592001 -1.9107397e-20)
(-0.082762902 -0.19592594 -2.7675264e-20)
(-0.027415581 -0.24814756 1.0052539e-20)
(0.039134919 -0.27034555 -1.0986192e-20)
(0.097331512 -0.23851074 6.8072332e-21)
(0.15511792 -0.14251184 4.2721882e-22)
(0.23152065 0.0067898723 -9.1766331e-22)
(0.3684831 0.15819003 -8.4479691e-22)
(0.58351876 0.20230573 -5.686678e-22)
(0.89678382 0.084639081 -1.2638836e-20)
(-6.9487372e-05 0.00027490526 -2.7774403e-21)
(-0.00021566037 0.00084918711 -7.4353936e-22)
(-0.00037834616 0.0014824567 8.1655496e-22)
(-0.00055993484 0.0021820832 4.0110089e-21)
(-0.00076306987 0.0029560545 -4.8066677e-21)
(-0.00099071611 0.0038129316 4.0775789e-21)
(-0.0012461746 0.0047617987 1.946496e-21)
(-0.0015330876 0.0058121753 -1.0417793e-22)
(-0.001855459 0.0069738822 -1.6375876e-21)
(-0.0022176633 0.0082568513 -9.2916243e-21)
(-0.0026244508 0.0096708679 1.5556239e-20)
(-0.0030809418 0.011225231 -1.8625449e-20)
(-0.0035926107 0.012928314 5.4458768e-21)
(-0.0041652555 0.014787016 7.3534056e-21)
(-0.0048049508 0.016806078 -1.12079e-20)
(-0.0055179808 0.018987256 2.1931033e-20)
(-0.00631075 0.021328349 -2.6353472e-20)
(-0.007189669 0.02382206 -4.118401e-22)
(-0.0081610148 0.026454725 -1.4788523e-20)
(-0.0092307645 0.029204925 5.7955934e-20)
(-0.010404403 0.032042035 -1.383876e-20)
(-0.011686709 0.034924813 -5.6416138e-20)
(-0.013081515 0.037800143 2.6236626e-20)
(-0.014591452 0.040602131 3.078303e-20)
(-0.01621767 0.043251787 -7.6014838e-21)
(-0.017959548 0.045657661 -3.9121975e-20)
(-0.019814415 0.04771793 5.8184639e-20)
(-0.021777383 0.049324764 -6.3372589e-20)
(-0.023841483 0.050372287 4.8952005e-20)
(-0.025998526 0.05076997 -9.1837959e-21)
(-0.028241078 0.050462869 1.5440568e-20)
(-0.030565407 0.049456166 2.1459819e-20)
(-0.032973738 0.047832241 -8.1386664e-21)
(-0.035473345 0.045741459 -1.9906351e-21)
(-0.038072017 0.043361008 -2.8280221e-20)
(-0.04077295 0.040845989 5.2029279e-21)
(-0.04357235 0.038303999 -1.3130805e-20)
(-0.046460144 0.035798332 1.0936817e-20)
(-0.049422366 0.033364064 -6.1639684e-21)
(-0.052444011 0.031023092 -4.0674747e-21)
(-0.055512273 0.028793228 -3.5281243e-21)
(-0.058619506 0.026692339 -3.4262781e-21)
(-0.061769227 0.024738775 2.1161849e-20)
(-0.064979113 0.022939697 1.7061514e-20)
(-0.068279438 0.021274807 -4.8720439e-21)
(-0.071724431 0.019696005 3.2535877e-21)
(-0.0753845 0.018101171 -1.3162746e-20)
(-0.07934137 0.016299342 2.7423391e-20)
(-0.083647309 0.01395745 3.2803713e-20)
(-0.088303804 0.010549098 9.8807219e-21)
(-0.093119702 0.0052030218 2.5462359e-20)
(-0.097555555 -0.0034771416 -7.8342344e-22)
(-0.10032138 -0.017706079 -1.2342325e-20)
(-0.098731078 -0.040797204 -6.4274752e-20)
(-0.087235888 -0.076920108 3.1852448e-20)
(-0.056030069 -0.12901108 -1.3613518e-20)
(0.0056491565 -0.19123586 3.2599373e-20)
(0.093591143 -0.24366286 -4.4222886e-20)
(0.18420727 -0.26210565 1.9634501e-20)
(0.25029697 -0.22953951 -2.2375751e-21)
(0.3042707 -0.14116279 -2.1453893e-22)
(0.37604576 -0.0082317602 -4.1154663e-22)
(0.51169027 0.12329427 8.1980937e-22)
(0.73899797 0.15242617 1.0228194e-20)
(1.045206 0.046867384 -2.0091779e-20)
(-8.4273493e-05 0.00029399857 6.2334694e-21)
(-0.00026130572 0.0009085909 4.2859808e-21)
(-0.00045788412 0.0015866104 -6.7255794e-21)
(-0.0006766648 0.0023357512 1.7696539e-22)
(-0.00092057004 0.0031643467 6.0740617e-21)
(-0.0011928434 0.0040813255 3.1736873e-21)
(-0.0014970591 0.0050961633 -6.6827956e-21)
(-0.0018371205 0.0062187963 1.0961455e-21)
(-0.0022172682 0.0074594874 -1.5433639e-20)
(-0.002642076 0.0088286383 3.0029931e-21)
(-0.0031164372 0.010336533 7.6947057e-23)
(-0.003645538 0.011992997 -1.0996993e-20)
(-0.0042348157 0.013806963 3.5135771e-20)
(-0.0048898969 0.015785911 -1.631413e-20)
(-0.0056165152 0.017935188 -2.9106082e-20)
(-0.0064204024 0.020257173 3.0860511e-20)
(-0.0073071539 0.022750279 -3.7788292e-21)
(-0.0082820644 0.0254078 2.1302238e-20)
(-0.0093499355 0.028216594 1.5694529e-20)
(-0.010514857 0.031155632 -4.8911304e-20)
(-0.011779969 0.034194471 3.63362e-20)
(-0.013147203 0.037291711 -4.7279358e-20)
(-0.014617028 0.04039359 5.4815972e-21)
(-0.01618819 0.043432856 -2.2105827e-20)
(-0.01785748 0.046328203 4.7347479e-20)
(-0.019619536 0.048984595 -1.1054723e-20)
(-0.021466724 0.051295005 -2.747706e-20)
(-0.023389221 0.053144433 6.5318897e-20)
(-0.02537552 0.054417554 -2.7885448e-20)
(-0.027413805 0.055012019 -2.9520661e-20)
(-0.029494607 0.054859233 2.3911876e-20)
(-0.031614534 0.053950889 3.1508324e-21)
(-0.033779086 0.052360207 -1.5284024e-20)
(-0.036001374 0.050237716 8.1966392e-21)
(-0.03829591 0.047771584 -1.2175462e-20)
(-0.040671233 0.045134224 4.1396971e-20)
(-0.043126077 0.04245021 -2.114369e-20)
(-0.045649888 0.039795819 -1.2395019e-20)
(-0.048225654 0.03721529 -2.5072503e-20)
(-0.050833176 0.034737746 -3.439185e-21)
(-0.053452204 0.032388305 2.6215512e-20)
(-0.056065313 0.030193858 -1.0641871e-20)
(-0.058662869 0.028184424 -1.5777423e-20)
(-0.061242781 0.026381514 -2.3572701e-21)
(-0.063808579 0.024782258 1.6121733e-20)
(-0.066376888 0.023358751 1.4513719e-20)
(-0.068959623 0.022029511 -4.4963595e-20)
(-0.07155352 0.020624968 -2.4268769e-20)
(-0.074071577 0.018827515 -5.3820306e-20)
(-0.076295883 0.016124653 -1.9289912e-20)
(-0.077675447 0.011634098 -7.7454247e-21)
(-0.077119559 0.0039102928 -5.8853662e-20)
(-0.072397957 -0.0094204951 -2.3362514e-20)
(-0.059069188 -0.032115072 7.9615578e-20)
(-0.028269074 -0.069014641 -6.4142197e-20)
(0.035107603 -0.12306732 5.5751732e-20)
(0.14260408 -0.18529678 -2.4130788e-20)
(0.2753591 -0.23194178 8.8953559e-20)
(0.39324518 -0.23939145 2.8628084e-20)
(0.46715372 -0.19860616 -3.7296178e-21)
(0.50963945 -0.11607637 1.8655763e-22)
(0.56594751 -0.0029523051 3.9294843e-21)
(0.69051559 0.10160516 2.9017885e-22)
(0.91922457 0.11469651 -1.1468492e-21)
(1.1669383 0.025527691 2.5634874e-20)
(-9.9388291e-05 0.0003088757 1.1355806e-22)
(-0.0003079836 0.0009549807 -8.0787732e-21)
(-0.00053923842 0.0016680798 9.5194373e-21)
(-0.00079607252 0.0024561108 4.5783813e-21)
(-0.0010816842 0.0033276673 -9.1633709e-21)
(-0.001399592 0.0042919594 -2.9653439e-21)
(-0.0017536387 0.0053587681 1.4365771e-20)
(-0.0021479837 0.0065383617 -1.5438175e-20)
(-0.0025870993 0.0078413672 -3.2512895e-21)
(-0.0030757524 0.0092785873 -1.2906727e-20)
(-0.0036189743 0.01086075 3.4186597e-20)
(-0.0042220125 0.012598175 4.148006e-22)
(-0.0048902635 0.014500347 -3.0490826e-20)
(-0.0056291807 0.016575364 3.2582259e-20)
(-0.0064441568 0.01882926 -2.3197532e-20)
(-0.0073403743 0.021265175 -8.5468327e-21)
(-0.0083226244 0.023882361 1.7722371e-20)
(-0.0093950929 0.026675009 -1.5853115e-20)
(-0.010561113 0.029630914 -2.0902379e-20)
(-0.011822895 0.032729981 4.3776152e-22)
(-0.013181226 0.035942623 3.2188092e-20)
(-0.01463518 0.039228114 -1.9642134e-20)
(-0.016181816 0.04253302 1.079237e-20)
(-0.01781592 0.045789871 5.1366487e-20)
(-0.019529791 0.048916311 1.6925902e-20)
(-0.021313117 0.051815077 -4.5221382e-20)
(-0.023152998 0.054375331 4.4528959e-21)
(-0.025034245 0.056476197 -4.9515314e-20)
(-0.026940225 0.057993898 2.885898e-20)
(-0.028854695 0.058814616 -1.5041732e-20)
(-0.030765117 0.058855266 2.1479511e-20)
(-0.03266721 0.058091434 5.1669964e-21)
(-0.034568545 0.056582648 -2.5344203e-20)
(-0.036487338 0.054474343 2.5520035e-20)
(-0.038444858 0.051961845 3.6607392e-20)
(-0.040455523 0.049233755 -3.3481658e-21)
(-0.04252111 0.046432572 -3.7392257e-20)
(-0.044630655 0.043649004 4.6843609e-20)
(-0.046763558 0.040937496 -9.9225473e-21)
(-0.048893268 0.038334795 2.1127933e-20)
(-0.05099026 0.035873246 -3.3038794e-21)
(-0.053024649 0.03358834 3.3223751e-20)
(-0.054969481 0.031520857 1.6108358e-20)
(-0.056796948 0.029705749 2.0652274e-20)
(-0.058474841 0.028156963 -8.5065983e-20)
(-0.059968056 0.026865097 -2.8600057e-20)
(-0.061206062 0.025766664 3.87477e-20)
(-0.062063 0.024709465 -3.2516274e-20)
(-0.062241973 0.023382203 -2.7977273e-20)
(-0.061184203 0.021282132 3.2218151e-20)