/*--------------------------------*- C++ -*----------------------------------*\
  =========                 |
  \\      /  F ield         | OpenFOAM: The Open Source CFD Toolbox
   \\    /   O peration     | Website:  https://openfoam.org
    \\  /    A nd           | Version:  13
     \\/     M anipulation  |
\*---------------------------------------------------------------------------*/
FoamFile
{
    format      ascii;
    class       volScalarField;
    location    "25.299336";
    object      omega;
}
// * * * * * * * * * * * * * * * * * * * * * * * * * * * * * * * * * * * * * //

dimensions      [0 0 -1 0 0 0 0];

internalField   nonuniform List<scalar> 
17140
(
3736295.3
603677.91
185335.24
78621.608
40006.257
22786.678
13993.933
9063.7258
6105.3651
4237.38
3010.4354
2178.9775
1601.1495
1191.2074
895.34588
678.72489
518.1759
397.93712
307.07315
237.86694
184.7913
143.83603
112.05885
87.280328
67.873887
52.619389
40.600232
31.129834
23.69676
17.91921
13.502307
10.198884
7.7834758
6.0477179
4.8106169
3.9282482
3.2945874
2.8353919
2.5000048
2.254107
2.0743073
1.9444117
1.8529356
1.7914635
1.754588
1.7373285
1.7324008
1.737898
1.752329
1.7735676
1.8003071
1.8319622
1.8685179
1.9101616
1.9565385
2.0059016
2.0563397
2.1058891
2.1518055
2.192788
2.2267856
2.2567964
2.2770314
2.2933981
2.2996709
3736320.9
603682.54
185336.94
78622.484
40006.783
22787.028
13994.182
9063.9114
6105.509
4237.4952
3010.5299
2179.0567
1601.2173
1191.2664
895.39823
678.77208
518.2191
397.97723
307.11088
237.90279
184.82564
143.86909
112.09071
87.310975
67.903174
52.647074
40.625984
31.153255
23.717426
17.936749
13.516517
10.209844
7.7915634
6.0535034
4.8147041
3.9311608
3.2967296
2.8370576
2.5014034
2.2553902
2.075591
1.9457917
1.854499
1.7932929
1.7568024
1.7400389
1.7356117
1.7419557
1.7574661
1.7801254
1.8087688
1.8429943
1.8830185
1.9292375
1.9812302
2.0369309
2.0933546
2.1476338
2.1954817
2.2324404
2.2541211
2.2642073
2.2614054
2.2578335
2.2603501
3736345.9
603686.64
185338.21
78623.028
40007.066
22787.194
13994.289
9063.987
6105.5666
4237.5425
3010.5715
2179.0955
1601.2553
1191.3049
895.4382
678.81423
518.26391
398.02504
307.16187
237.95702
184.88302
143.92939
112.15353
87.375761
67.969161
52.713265
40.691102
31.21572
23.7754
17.988347
13.560227
10.245009
7.8185898
6.0736097
4.8294237
3.9419353
3.3047249
2.8431465
2.5062197
2.2593957
2.0791334
1.9491496
1.8579164
1.7970148
1.7611883
1.744932
1.7415288
1.7493804
1.766824
1.7920277
1.8240516
1.8628019
1.9088954
1.9630702
2.0247209
2.0911051
2.1589193
2.2242528
2.2809001
2.3207335
2.3384164
2.3389189
2.3193846
2.3017965
2.3083542
3736372.1
603690.91
185339.54
78623.598
40007.362
22787.37
13994.406
9064.0719
6105.6338
4237.6002
3010.6246
2179.1472
1601.3077
1191.3596
895.49621
678.87642
518.3309
398.09728
307.23964
238.04043
184.97199
144.02367
112.25263
87.478911
68.075264
52.820805
40.798045
31.319437
23.872719
18.075894
13.635161
10.305893
7.8658238
6.1090596
4.8555829
3.9612068
3.3190798
2.8540731
2.5148039
2.2664296
2.0852115
1.9547439
1.8634341
1.8028425
1.7678044
1.7525532
1.7505207
1.7605903
1.7809182
1.8099278
1.8470097
1.8925331
1.9477127
2.013683
2.089345
2.1713206
2.2562964
2.3392271
2.4109133
2.4595853
2.4789338
2.4756661
2.4467751
2.4214568
2.4349791
3736400.1
603695.45
185340.94
78624.197
40007.673
22787.557
13994.533
9064.1668
6105.7117
4237.6695
3010.6906
2179.2132
1601.3761
1191.432
895.57389
678.96035
518.42183
398.19574
307.34598
238.1548
185.09434
144.15368
112.38971
87.622089
68.22313
52.971348
40.948503
31.466158
24.011205
18.20126
13.743162
10.39421
7.934756
6.1610737
4.8941395
3.9897113
3.3403576
2.8702727
2.5274991
2.2767702
2.0940596
1.9627808
1.8712441
1.810998
1.7769281
1.7630824
1.7629358
1.7760202
1.8003207
1.834603
1.8787223
1.9337133
2.0016083
2.0837819
2.1781671
2.2812915
2.3903199
2.4984363
2.5913939
2.6531744
2.6758691
2.6686992
2.6284068
2.5937392
2.6023345
3736429.1
603700.14
185342.38
78624.816
40008
22787.756
13994.669
9064.2713
6105.7999
4237.7501
3010.769
2179.2932
1601.46
1191.5217
895.67092
679.06573
518.53641
398.32016
307.48068
238.29999
185.24997
144.31943
112.5649
87.805579
68.413209
53.165546
41.143362
31.657037
24.192295
18.366135
13.886083
10.511818
8.0270889
6.2310975
4.9462567
4.0283571
3.3692614
2.892293
2.5447396
2.2907717
2.1059772
1.9735239
1.8815782
1.8218059
1.7889487
1.7766923
1.7792447
1.7962394
1.8257945
1.8671104
1.9206895
1.9885074
2.0735919
2.1769597
2.2953779
2.4267802
2.5690907
2.7123157
2.8337799
2.911392
2.9351664
2.9191483
2.8570967
2.8022157
2.7895579
3736459.3
603704.97
185343.86
78625.458
40008.341
22787.966
13994.815
9064.3853
6105.898
4237.8415
3010.8594
2179.3864
1601.5588
1191.6281
895.7864
679.19158
518.67361
398.46948
307.64264
238.47489
185.43783
144.51993
112.7773
88.028628
68.644961
53.403129
41.382695
31.892559
24.416939
18.571933
14.065703
10.660672
8.144728
6.3208147
5.0133247
4.0782488
3.4066561
2.9208135
2.5670686
2.3088806
2.1213464
1.9873195
1.894785
1.8355814
1.8041976
1.7938919
1.7999979
1.822003
1.8583783
1.9089194
1.9750426
2.0600341
2.1678211
2.2979254
2.44719
2.6172449
2.806394
2.999197
3.159318
3.2544073
3.2733005
3.2397928
3.1375139
3.0502043
2.9966046
3736490.6
603709.98
185345.4
78626.123
40008.697
22788.186
13994.971
9064.5083
6106.0053
4237.9428
3010.9608
2179.4919
1601.6712
1191.7496
895.91879
679.33622
518.83164
398.64178
307.82988
238.67746
185.65584
144.75311
113.02493
88.2894
68.916769
53.682799
41.665628
32.17239
24.685445
18.819645
14.28362
10.842756
8.2897498
6.4321473
5.096979
4.1407118
3.4535935
2.956669
2.5951585
2.331654
2.1406484
2.0046074
1.9112943
1.8527417
1.8231474
1.8153072
1.8259459
1.8543426
1.8995196
1.9621208
2.0448797
2.1528105
2.2898117
2.453173
2.6436392
2.8685172
3.125172
3.3890628
3.6032531
3.7136479
3.718156
3.6518943
3.4812199
3.3567577
3.2261449
3736522
603715.13
185346.99
78626.815
40009.066
22788.416
13995.135
9064.6393
6106.1208
4238.0529
3011.0717
2179.6079
1601.7954
1191.8843
896.0659
679.49727
519.0079
398.83429
308.03945
238.90463
185.90083
145.01578
113.30463
88.584852
69.225807
54.002066
41.990157
32.495175
24.997266
19.109633
14.541066
11.059951
8.4643329
6.567233
5.1991071
4.2173125
3.511337
3.0008734
2.6298343
2.3597824
2.1644859
2.0259443
1.9316557
1.8738451
1.8464228
1.8417538
1.8581368
1.8947049
1.9512871
2.0297681
2.1348072
2.2732366
2.4467185
2.6528391
2.9016653
3.2068918
3.5622804
3.9270638
4.2142588
4.3326121
4.3046195
4.1742313
3.8902447
3.7068386
3.4386146
3736555.2
603720.5
185348.65
78627.534
40009.449
22788.656
13995.307
9064.7776
6106.2432
4238.1701
3011.1904
2179.7324
1601.929
1192.0296
896.22479
679.67149
519.19888
399.04325
308.26734
239.15217
186.16843
145.30344
113.61188
88.910527
69.567809
54.35701
42.352888
32.858264
25.350718
19.441349
14.838658
11.313839
8.6706299
6.7283649
5.3218341
4.3098697
3.5813832
3.054646
2.6721
2.3941157
2.1936111
2.0520384
1.9565914
1.8996532
1.8748321
1.8743558
1.8980548
1.9451706
2.0167189
2.1164503
2.2517466
2.4298484
2.6487122
2.9143634
3.2499416
3.6750234
4.1733639
4.6717505
5.0391937
5.1607339
5.0374342
4.7187393
4.2400388
3.9599772
3.5166117
3736589.7
603726.08
185350.37
78628.281
40009.847
22788.905
13995.485
9064.9214
6106.371
4238.2926
3011.3145
2179.8628
1602.0692
1192.1821
896.39185
679.85492
519.40027
399.26395
308.50851
239.41473
186.453
145.61028
113.94073
89.26046
69.936937
54.742092
42.748807
33.25743
25.742652
19.812985
15.176053
11.605409
8.9105573
6.9178687
5.4674703
4.4204447
3.6654753
3.1194345
2.7231664
2.4356948
2.2289597
2.0837876
1.9870618
1.9312833
1.9093575
1.9147384
1.9478489
2.0088163
2.1004152
2.2292671
2.4057972
2.633691
2.913065
3.2684727
3.7364552
4.3388643
5.0300131
5.6679079
6.0380402
5.8813449
5.4490415
4.904333
4.279488
3.9187525
3.1351551
3736625.1
603731.81
185352.15
78629.052
40010.26
22789.163
13995.669
9065.0691
6106.5018
4238.4179
3011.4413
2179.996
1602.2123
1192.3379
896.56263
680.04265
519.60668
399.49057
308.75671
239.68563
186.74749
145.9289
114.28357
89.62692
70.325494
55.149851
43.170936
33.686486
26.168035
20.221022
15.551486
11.934633
9.1854625
7.1378834
5.6383915
4.5512926
3.7655955
3.1969298
2.7844791
2.4857874
2.2716933
2.1223104
2.0242826
1.9700176
1.9518535
1.9651305
2.0107015
2.090336
2.2095886
2.3793578
2.6104092
2.9016224
3.2718216
3.7690768
4.4399897
5.2901373
6.1866477
6.7244563
6.5643935
6.0848986
5.1043612
4.0710965
3.1438643
2.6204158
1.548434
3736662.3
603737.81
185354.01
78629.852
40010.687
22789.428
13995.858
9065.2193
6106.6339
4238.5436
3011.5679
2180.1286
1602.3544
1192.4926
896.73219
680.22919
519.81206
399.7165
309.00472
239.95712
187.04362
146.25056
114.63124
90.000484
70.723933
55.570818
43.610156
34.137017
26.619574
20.659749
15.961232
12.299919
9.4956438
7.3900064
5.8368192
4.7047469
3.8839181
3.2890613
2.85774
2.5459337
2.3232759
2.1690914
2.0698735
2.0177257
2.0048732
2.0288906
2.0915017
2.197159
2.3559617
2.5832959
2.8834134
3.2658763
3.7847619
4.5102932
5.4829566
6.6215731
7.3149425
7.1493296
6.5257006
4.9128177
2.9948067
1.7727367
1.2022487
0.94523328
0.58878736
3736699.8
603743.94
185355.9
78630.677
40011.127
22789.7
13996.049
9065.3696
6106.7645
4238.6665
3011.6908
2180.2565
1602.4912
1192.6411
896.89491
680.4083
520.00953
399.93417
309.24431
240.22025
187.33178
146.56501
114.97292
90.369841
71.120599
55.993199
44.054811
34.597872
27.087107
21.120574
16.398838
12.697336
9.8396524
7.6747467
6.0644455
4.8829947
4.0226928
3.3979506
2.9449107
2.6179891
2.385563
2.2261472
2.1260471
2.0770915
2.0721486
2.1112217
2.1980559
2.3415569
2.5586713
2.862742
3.2566865
3.7916399
4.5635815
5.6515728
7.0219526
7.8984654
7.7125923
6.944314
4.8078738
2.368294
1.3008078
0.8033989
0.54948955
0.42571199
0.29233522
3736738.4
603750.27
185357.87
78631.531
40011.579
22789.978
13996.241
9065.518
6106.891
4238.7836
3011.8063
2180.3756
1602.6177
1192.7781
897.04482
680.57333
520.19172
400.13546
309.4666
240.46537
187.6015
146.861
115.29663
90.722314
71.502245
56.403339
44.491083
35.055418
27.557664
21.591821
16.854697
13.120026
10.213611
7.9908582
6.3218914
5.0876977
4.1840109
3.5257898
3.0481723
2.7041503
2.4608847
2.2961469
2.1960131
2.1521173
2.1594336
2.2204551
2.3433982
2.544572
2.8453477
3.2505001
3.8002726
4.61036
5.8146479
7.4292983
8.489531
8.3213615
7.4533607
4.9388106
2.3246073
1.2059681
0.70729805
0.47169719
0.33776056
0.26641871
0.20185076
3736780.4
603757.03
185359.93
78632.418
40012.043
22790.259
13996.433
9065.6631
6107.0118
4238.893
3011.912
2180.4831
1602.7308
1192.8997
897.17753
680.71929
520.35299
400.31403
309.66445
240.68452
187.84397
147.12882
115.59172
91.046393
71.856528
56.788181
44.905386
35.495824
28.017583
22.060544
17.317202
13.558484
10.610834
8.3346471
6.6079849
5.3193961
4.3693877
3.67459
3.1698139
2.8069641
2.5521703
2.3826622
2.2842907
2.2495227
2.2759258
2.3704834
2.5504071
2.8402359
3.2529192
3.8210031
4.6678797
5.9857119
7.8765642
9.1108446
8.9642374
8.0369828
5.2763481
2.4380801
1.2328511
0.71326867
0.46732507
0.3417311
0.25963059
0.21337419
0.17124528
3736824.8
603764.06
185362.08
78633.336
40012.522
22790.544
13996.623
9065.8027
6107.1243
4238.9914
3012.0045
2180.575
1602.8259
1193.001
897.2873
680.83973
520.48611
400.46182
309.82894
240.86782
188.04831
147.35652
115.84518
91.327914
72.16817
57.131381
45.280423
35.901045
28.448412
22.508468
17.769241
13.997847
11.019635
8.6981536
6.9182665
5.5763894
4.5789961
3.8457119
3.31201
2.9293292
2.6631826
2.4906287
2.3981104
2.3800807
2.4366103
2.5865237
2.8591952
3.2736408
3.8604136
4.7539884
6.1907075
8.3853409
9.7743295
9.6408262
8.6704333
5.7371565
2.6351104
1.3186116
0.75270388
0.49480921
0.35835874
0.28043526
0.22124491
0.18644236
0.15289187
3736869.6
603771.23
185364.29
78634.28
40013.009
22790.831
13996.809
9065.9343
6107.2256
4239.0757
3012.0801
2180.647
1602.8982
1193.0762
897.36784
680.92759
520.58318
400.57001
309.95023
241.00436
188.20244
147.53079
116.04233
91.550839
72.419708
57.414052
45.595947
36.249641
28.827842
22.912949
18.188567
14.417416
11.422222
9.0676335
7.2434554
5.8533798
4.8106151
4.0391667
3.4764858
3.0745627
2.7991212
2.6279415
2.5494174
2.561048
2.6694807
2.9159709
3.3317514
3.933149
4.8766049
6.4634706
8.9803976
10.489525
10.353955
9.3402674
6.2591752
2.8809907
1.436758
0.81570182
0.53257654
0.39007077
0.29980392
0.23727759
0.18784706
0.15984735
0.13519472
3736913.9
603778.56
185366.55
78635.241
40013.503
22791.117
13996.989
9066.0567
6107.3142
4239.1442
3012.1365
2180.6967
1602.9446
1193.1221
897.4153
680.97839
520.63903
400.63263
310.02147
241.08626
188.29733
147.64132
116.17149
91.701928
72.596246
57.619544
45.833502
36.521358
29.133948
23.250705
18.551199
14.79359
11.796857
9.4244937
7.5691745
6.1405317
5.0585653
4.252791
3.6641442
3.2466379
2.9676607
2.8074887
2.7592267
2.8230836
3.0310484
3.4509669
4.0833441
5.0663061
6.808867
9.6977111
11.267787
11.109697
10.046026
6.8171907
3.1567591
1.5775191
0.89364605
0.58162274
0.42512593
0.32373609
0.24857347
0.19799602
0.1627003
0.14425876
0.12658503
3736961
603786.2
185368.9
78636.237
40014.01
22791.405
13997.165
9066.1702
6107.39
4239.1963
3012.1731
2180.723
1602.964
1193.1371
897.42763
680.98964
520.65062
400.64599
310.03819
241.10817
188.3266
147.68055
116.22379
91.770938
72.686053
57.734454
45.977732
36.698687
29.346936
23.499652
18.832983
15.100802
12.117844
9.7449398
7.8752781
6.4224922
5.3126855
4.4815438
3.8750419
3.4512305
3.1816389
3.0525161
3.0652249
3.2308566
3.6378422
4.3478763
5.4014695
7.2812879
10.566654
12.130722
11.919742
10.794412
7.4031499
3.4551856
1.7357673
0.98390111
0.63964272
0.46619721
0.34980016
0.26749096
0.21190876
0.17728337
0.15051743
0.13526533
0.11936523
3737011.6
603794.26
185371.35
78637.269
40014.53
22791.695
13997.337
9066.2742
6107.4524
4239.2313
3012.189
2180.7249
1602.9552
1193.1197
897.40335
680.95966
520.61605
400.60793
309.99785
241.06699
188.28635
147.64343
116.1925
91.748804
72.677139
57.743749
46.011026
36.761897
29.445404
23.636926
19.00898
15.312135
12.357117
10.001292
8.1366236
6.678712
5.5585102
4.7180609
4.1100041
3.6993205
3.4661318
3.4098561
3.5377979
3.9279679
4.717622
5.9229269
7.9555787
11.590917
13.099482
12.80632
11.594634
8.0125808
3.7758135
1.9103117
1.08603
0.70559343
0.51162977
0.37986342
0.28996028
0.23176243
0.19081311
0.16116024
0.13717794
0.12388523
0.11217569
3737062.3
603802.46
185373.86
78638.327
40015.058
22791.984
13997.503
9066.3679
6107.5006
4239.2484
3012.1834
2180.7016
1602.9172
1193.069
897.34125
680.8871
520.5338
400.51676
309.89868
240.96097
188.175
147.52875
116.07708
91.635862
72.570583
57.648071
45.931236
36.703541
29.414387
23.63948
19.051992
15.398984
12.486423
10.165627
8.3271617
6.887383
5.7811504
4.957196
4.3771277
4.0177869
3.876978
3.9680498
4.3526826
5.2208032
6.6243272
8.8860064
12.747614
14.142389
13.793273
12.446641
8.6373773
4.1213272
2.1035359
1.2006177
0.78064439
0.56235361
0.4145994
0.31717814
0.25351971
0.20631688
0.16975209
0.14485436
0.12713982
0.11855345
0.10864067
3737113.2
603810.8
185376.44
78639.41
40015.595
22792.274
13997.663
9066.4515
6107.5347
4239.2477
3012.1562
2180.6528
1602.8498
1192.9846
897.24092
680.77146
520.40329
400.37182
309.73986
240.78909
187.99126
147.33489
115.87548
91.429701
72.363893
57.445796
45.739195
36.528283
29.262873
23.51846
18.966966
15.355004
12.487977
10.218125
8.4295293
7.0357962
5.976644
5.2095307
4.7099448
4.4768859
4.5352439
4.9359442
5.8985323
7.5295374
10.073481
13.974931
15.247552
14.836169
13.337446
9.2943765
4.5011015
2.3191372
1.3299215
0.86556621
0.61931672
0.45408787
0.34854163
0.27738711
0.22275708
0.18221088
0.1545397
0.13698856
0.12219604
0.11364657
0.10425047
3737167.7
603819.62
185379.13
78640.53
40016.148
22792.567
13997.818
9066.5256
6107.5552
4239.2296
3012.108
2180.5793
1602.7537
1192.8675
897.10357
680.61421
520.22629
400.17521
309.52388
240.55426
187.7385
147.06568
115.59203
91.135071
72.062168
57.142172
45.440026
36.241025
28.995885
23.280642
18.767237
15.201849
12.38886
10.178721
8.4581936
7.1420125
6.1761079
5.531603
5.2090925
5.2465115
5.691653
6.7919425
8.6750943
11.457153
15.253805
16.409172
15.932595
14.271213
9.9896338
4.9227448
2.5630484
1.4757929
0.96216211
0.68261133
0.49901953
0.38348728
0.30328161
0.24117464
0.19713003
0.16726789
0.14517788
0.12813455
0.11486507
0.10827972
0.10108428
3737225.4
603828.83
185381.93
78641.698
40016.718
22792.866
13997.972
9066.5924
6107.5644
4239.1967
3012.0417
2180.4844
1602.633
1192.7223
896.93449
680.42148
520.00987
399.93504
309.26001
240.26702
187.42866
146.73457
115.24176
90.76871
71.68389
56.757447
45.055736
35.865522
28.63895
22.953318
18.481548
14.970462
12.224799
10.095386
8.4704856
7.2804083
6.4842343
6.0802153
6.1150021
6.6399823
7.9157064
10.07218
13.001788
16.605887
17.634315
17.089518
15.25399
10.710635
5.3963856
2.8429267
1.6437045
1.0712182
0.75335176
0.54925956
0.4228284
0.33175494
0.26300854
0.21498336
0.18126243
0.15452682
0.13422769
0.12066924
0.11107125
0.10577415
0.098852724
3737283.9
603838.25
185384.82
78642.907
40017.306
22793.172
13998.127
9066.6566
6107.5679
4239.1555
3011.9648
2180.3769
1602.4976
1192.5604
896.74681
680.20815
519.77087
399.67029
308.96957
239.95124
187.08833
146.3711
114.85737
90.366609
71.268532
56.334727
44.633217
35.452621
28.247087
22.596018
18.174541
14.731838
12.075479
10.059237
8.5927797
7.62162
7.1343932
7.1786474
7.8070017
9.2896746
11.694332
14.700052
18.040635
18.935009
18.317015
16.293183
11.4547
5.952818
3.1845746
1.8432605
1.1907369
0.82922945
0.60593389
0.46644906
0.36416762
0.28792493
0.2354716
0.19601943
0.1651933
0.14278693
0.12808563
0.1168261
0.10789949
0.10208269
0.096239582
3737344.3
603848.04
185387.81
78644.159
40017.919
22793.492
13998.291
9066.7274
6107.5768
4239.1193
3011.8928
2180.2744
1602.3677
1192.4048
896.56629
680.0031
519.54146
399.41667
308.69204
239.6504
186.76524
146.02747
114.49573
89.990585
70.883059
55.946363
44.250464
35.086307
27.910833
22.30672
17.952667
14.602109
12.076137
10.254424
9.057412
8.4626501
8.5114117
9.2315171
10.900582
13.519486
16.584198
19.5996
20.322589
19.624171
17.3962
12.226213
6.5812676
3.5569644
2.0400936
1.3014207
0.90896595
0.67103651
0.51704763
0.40052965
0.31685514
0.25792384
0.212653
0.17771986
0.15367261
0.13602795
0.12206075
0.11124419
0.10399933
0.099847872
0.094585404
3737407.1
603858.19
185390.93
78645.46
40018.56
22793.834
13998.475
9066.8173
6107.6056
4239.1048
3011.8451
2180.1993
1602.2688
1192.2842
896.4253
679.84263
519.36221
399.21933
308.47748
239.4198
186.52027
145.77049
114.23
89.720497
70.614482
55.686962
44.01004
34.87719
27.749797
22.217269
17.969639
14.778852
12.480519
10.972095
10.213674
10.226448
10.999617
12.779726
15.509605
18.706579
21.357902
21.811116
21.017748
18.562813
13.036354
7.2540253
3.9484174
2.2449757
1.4345535
1.0170522
0.75679918
0.57508561
0.44114971
0.34857398
0.28337177
0.23139891
0.19325564
0.16594222
0.14501904
0.12810619
0.11629188
0.10825103
0.10225462
0.097766757
0.092854066
3737471.9
603868.67
185394.15
78646.818
40019.239
22794.207
13998.687
9066.9381
6107.6684
4239.1284
3011.8404
2180.1731
1602.2253
1192.2264
896.35525
679.762
519.27249
399.12203
308.3743
239.31277
186.41197
145.66421
114.13004
89.632592
70.546352
55.649232
44.017749
34.952137
27.92144
22.525631
18.468918
15.538538
13.596622
12.573329
12.468466
13.212498
15.005575
17.77095
20.964459
23.412693
23.458959
22.496722
19.775812
13.889347
7.9773216
4.3723831
2.4792749
1.5933039
1.138494
0.83856859
0.62773831
0.48109689
0.38481102
0.31214654
0.25405754
0.21107035
0.17987105
0.15454762
0.13587992
0.12278771
0.11330816
0.10540663
0.099435834
0.095504527
0.0915775
3737539.4
603879.61
185397.5
78648.24
40019.961
22794.616
13998.938
9067.0988
6107.7757
4239.2023
3011.893
2180.2121
1602.256
1192.2526
896.38016
679.78838
519.30304
399.15959
308.42205
239.37449
186.49225
145.76882
114.26638
89.810263
70.777987
55.951646
44.413485
35.471564
28.606542
23.432704
19.672537
17.138092
15.720188
15.37573
16.002631
17.689051
20.375943
23.528782
25.650673
25.349984
24.112744
20.93149
14.80037
8.7502141
4.8278537
2.7339838
1.7648138
1.2607738
0.92460936
0.69368292
0.54034139
0.43273679
0.34741683
0.27940564
0.23161331
0.1948032
0.16641506
0.14543351
0.13070966
0.11833326
0.10892393
0.1022016
0.097814621
0.094384808
0.090557359
3737610.3
603891
185400.99
78649.729
40020.726
22795.063
13999.224
9067.2981
6107.9259
4239.3252
3012.0017
2180.3154
1602.3603
1192.3631
896.50135
679.92456
519.45861
399.33934
308.63139
239.61977
186.78111
146.11063
114.67286
90.296363
71.363169
56.66181
45.282805
36.544907
29.94256
25.108112
21.785502
19.810242
19.09169
19.499086
20.942
23.425914
26.372807
28.101063
27.562078
25.90902
22.094556
15.779123
9.5643974
5.3032893
3.0089739
1.9513369
1.397416
1.0268923
0.7783252
0.60552001
0.47762609
0.37707169
0.30545438
0.25380879
0.21306607
0.18042312
0.15715827
0.13881708
0.12436902
0.11349705
0.10651131
0.10071016
0.096242508
0.092557135
0.08957136
3737682.9
603902.72
185404.61
78651.276
40021.529
22795.538
13999.538
9067.527
6108.1092
4239.4855
3012.1536
2180.4689
1602.5232
1192.5419
896.70225
680.15371
519.72263
399.64562
308.98848
240.03779
187.27226
146.68993
115.35903
91.113402
72.34127
57.839231
46.708424
38.280813
32.066683
27.716161
24.989358
23.728848
23.807925
24.846768
27.007891
29.561295
30.721803
29.892767
27.819871
23.326653
16.809682
10.389485
5.7906498
3.3106574
2.1605755
1.5493653
1.1429904
0.86833762
0.67253948
0.52445356
0.41847424
0.34336252
0.28557582
0.23523568
0.19775404
0.16971556
0.14848441
0.13151291
0.12013529
0.11115745
0.10389102
0.09816881
0.094438282
0.091680818
0.088812547
3737758.4
603914.96
185408.37
78652.885
40022.37
22796.045
13999.881
9067.7857
6108.3251
4239.6833
3012.349
2180.6736
1602.7465
1192.7922
896.98773
680.48305
520.10537
400.09271
309.51276
240.65459
188.00018
147.55184
116.3831
92.334273
73.802197
59.593644
48.821832
40.832145
35.147328
31.42418
29.414733
28.927658
29.535843
31.126063
33.208059
33.466592
32.365438
29.746271
24.628443
17.847208
11.185877
6.2925576
3.6413453
2.3926795
1.7151432
1.2686363
0.96785918
0.7483365
0.58646383
0.46968717
0.38445117
0.31232313
0.25578607
0.21451253
0.18456938
0.15954557
0.14131438
0.12731637
0.1164683
0.10736172
0.10137999
0.096949523
0.093600893
0.090510794
0.088069022
3737836.4
603927.56
185412.25
78654.563
40023.26
22796.594
14000.268
9068.0928
6108.5961
4239.9446
3012.6184
2180.9645
1603.0702
1193.1595
897.40942
680.97092
520.67271
400.7549
310.28798
241.56464
189.07143
148.81628
117.87976
94.110449
75.91475
62.109725
51.817946
44.390799
39.345866
36.313371
34.983464
35.039519
35.822357
36.845739
36.286862
34.793834
31.493841
25.86045
18.814177
11.935742
6.828867
4.0247729
2.6584928
1.8985103
1.4081018
1.0798176
0.83784636
0.65715864
0.52563173
0.42330628
0.3443749
0.28489788
0.24192944
0.2044102
0.17481433
0.15212374
0.13578961
0.12199767
0.11248941
0.10532052
0.10004935
0.095323296
0.092109377
0.089590383
0.087485304
3737916.9
603940.59
185416.29
78656.33
40024.223
22797.212
14000.728
9068.4807
6108.9598
4240.3128
3013.0114
2181.398
1603.5583
1193.7157
898.04809
681.70768
521.5254
401.74436
311.43896
242.90678
190.64049
150.65542
120.04086
96.655215
78.905661
65.600354
55.879777
49.077338
44.669073
42.203033
41.233361
41.164575
40.819788
39.489446
37.183133
33.239543
27.134908
19.79169
12.722176
7.4584486
4.4814704
2.9526777
2.0911587
1.557894
1.2036004
0.93786172
0.7370752
0.5865891
0.47216399
0.38504874
0.32182323
0.2674847
0.22267073
0.18831091
0.16428259
0.14467628
0.13001851
0.11866565
0.11043638
0.10304891
0.097878168
0.094052806
0.091453857
0.088981753
0.086993019
3738001.3
603954.25
185420.54
78658.212
40025.274
22797.917
14001.28
9068.9744
6109.4453
4240.822
3013.5672
2182.0193
1604.2623
1194.5196
898.97033
682.76881
522.74906
403.15831
313.07625
244.80716
192.85163
153.23203
123.04178
100.13437
82.90853
70.16321
61.010306
54.750587
50.780363
48.495653
47.029332
45.250637
42.802075
39.769931
35.026913
28.377635
20.725791
13.517977
8.1371835
4.9627035
3.2499301
2.2931947
1.7267302
1.3469245
1.0530007
0.8289394
0.6593573
0.52978745
0.43310996
0.35682829
0.29540569
0.24551993
0.21099542
0.18134546
0.15840139
0.13954321
0.12652532
0.11516627
0.10710623
0.10100645
0.096908377
0.093184636
0.090341206
0.088142591
0.086430937
3738088.5
603968.41
185424.98
78660.207
40026.42
22798.72
14001.943
9069.5936
6110.0758
4241.4989
3014.3166
2182.8632
1605.2215
1195.6154
900.22551
684.20919
524.40409
405.06192
315.26729
247.32905
195.75091
156.55805
126.84412
104.46028
87.795639
75.599431
66.893071
60.836932
56.600821
53.226511
49.961368
46.555407
42.539512
36.875193
29.656517
21.744984
14.447132
8.9404832
5.5304979
3.6108932
2.5493239
1.9334189
1.5100914
1.1801178
0.93075558
0.74219126
0.59650214
0.48510727
0.39848671
0.32912889
0.27821251
0.23484583
0.19902146
0.16969262
0.14993079
0.13378421
0.12183516
0.11208437
0.10567298
0.099616438
0.095261538
0.09192643
0.089734893
0.087764817
0.086170802
3738178.6
603983.08
185429.59
78662.316
40027.665
22799.626
14002.721
9070.3451
6110.8587
4242.3516
3015.2681
2183.9387
1606.445
1197.0114
901.82017
686.03073
526.48351
407.4329
317.96557
250.39083
199.20975
160.43819
131.15112
109.16844
92.834687
80.855205
72.064947
65.441159
60.085855
55.327368
50.738589
45.496067
38.889506
31.117691
22.95924
15.540852
9.8460294
6.1524
4.0038205
2.8214867
2.1403836
1.6713309
1.3146381
1.047626
0.83980077
0.67563575
0.54736499
0.44777651
0.37143281
0.31051838
0.2608867
0.21803931
0.18898884
0.16464424
0.14627578
0.13022059
0.11947672
0.11008854
0.10326784
0.097790244
0.094468218
0.091370621
0.089029252
0.087071649
0.085658552
3738271.2
603998.25
185434.4
78664.542
40029.013
22800.635
14003.611
9071.2227
6111.7849
4243.3673
3016.4046
2185.2232
1607.9034
1198.6698
903.7059
688.17252
528.9111
410.17581
321.05061
253.83751
203.02324
164.59868
135.59906
113.78513
97.417378
85.095919
75.652402
68.099452
61.613147
55.523833
48.877433
41.269549
32.900421
24.438074
16.823428
10.879001
6.8775316
4.4861181
3.159752
2.392934
1.8729282
1.48752
1.1932159
0.95545807
0.76579619
0.61933237
0.50539417
0.4175773
0.34802298
0.29028241
0.24716548
0.21068028
0.1815472
0.1562089
0.13966407
0.12570877
0.11582468
0.10720535
0.10185324
0.096937239
0.093307124
0.090312045
0.088397479
0.086775005
0.08540574
3738367.1
604011.15
185437.03
78665.049
40029.101
22800.713
14003.803
9071.5768
6112.3229
4244.1036
3017.3524
2186.3965
1609.3178
1200.3429
905.65647
690.41999
531.4734
413.06638
324.27359
257.38104
206.8502
168.63538
139.723
117.81479
101.1093
88.156955
77.767472
69.038777
61.002307
52.789115
44.101052
35.072792
26.236448
18.354861
12.108054
7.7643852
5.0824152
3.5555619
2.6672841
2.0847631
1.6653253
1.3398345
1.0745876
0.86577081
0.70347959
0.57511964
0.47282361
0.39215091
0.32848887
0.27717956
0.23560907
0.19820608
0.17318997
0.15224088
0.1369853
0.12308538
0.11400553
0.10599839
0.10030648
0.095395459
0.092474737
0.089879613
0.088005243
0.086320995
0.08514276
3739014.3
604121.84
185474.34
78682.803
40039.258
22807.308
14008.522
9075.2349
6115.3625
4246.7867
3019.8467
2188.8165
1611.7464
1202.8427
908.2758
693.19492
534.42767
416.20861
327.5924
260.83811
210.3718
172.104
142.97188
120.62985
103.24256
89.38064
77.801839
67.35826
57.335269
47.392623
37.566389
28.240011
20.010469
13.42518
8.7254231
5.7293111
3.977096
2.9608839
2.3212116
1.8704501
1.5153926
1.2245455
0.99338399
0.80732604
0.6561049
0.53653029
0.4424733
0.36969225
0.31119978
0.26155844
0.22420762
0.19248536
0.1681132
0.14578953
0.13173396
0.11942615
0.11128427
0.10352914
0.099005925
0.094732249
0.09179548
0.089080477
0.087376963
0.085898964
0.084893898
3739013.7
604118.85
185471.97
78681.111
40038.174
22806.674
14008.235
9075.2366
6115.6189
4247.2803
3020.5698
2189.7678
1612.9282
1204.2582
909.92613
695.07568
536.52412
418.48982
330.00418
263.2954
212.75194
174.24313
144.66898
121.67152
103.35779
88.161321
74.914422
62.811439
51.401969
40.59785
30.634039
21.94373
14.954457
9.8607115
6.5121364
4.4976332
3.3236455
2.6013105
2.0984895
1.7033021
1.3820547
1.1234173
0.91199988
0.74167535
0.60810495
0.50280908
0.41813625
0.35057627
0.29584771
0.25138153
0.21577037
0.18259062
0.16095362
0.1424986
0.12961823
0.1173157
0.10934183
0.10247669
0.097751445
0.09342312
0.090879106
0.088627494
0.087110954
0.085665354
0.084715299
3739013.8
604119
185472.13
78681.333
40038.462
22807.036
14008.679
9075.7708
6116.2529
4248.0235
3021.4314
2190.7562
1614.0493
1205.5137
911.31087
696.57402
538.10536
420.10302
331.57289
264.71375
213.88541
174.92501
144.68398
120.71729
101.16616
84.62486
70.08897
56.937099
44.915488
34.088354
24.725846
17.131083
11.460085
7.5994754
5.1956152
3.7754642
2.9212324
2.3507197
1.9187642
1.5719308
1.2871086
1.0506861
0.85909202
0.70462515
0.57873205
0.47762356
0.39698273
0.33426336
0.28331586
0.23971394
0.20693603
0.17833101
0.15750756
0.1375597
0.12553682
0.11450861
0.1077136
0.10064328
0.096660562
0.092914133
0.09048813
0.088022636
0.086619842
0.08533044
0.08455297
3739014
604119.11
185472.22
78681.455
40038.622
22807.239
14008.932
9076.0787
6116.6222
4248.4599
3021.9397
2191.3388
1614.7047
1206.2345
912.08062
697.36399
538.87087
420.77915
332.06884
264.90665
213.60961
173.97845
142.8682
117.90096
97.290568
79.74189
64.394455
50.780117
38.763463
28.441024
19.997244
13.544502
9.0081371
6.0915174
4.3430128
3.3138773
2.6592206
2.1816353
1.7975974
1.4757179
1.2063907
0.98631233
0.80658408
0.66050479
0.54469554
0.45337289
0.37972462
0.32080981
0.27240151
0.23256247
0.20118747
0.17118833
0.15223382
0.13528621
0.12408682
0.11288008
0.10593423
0.09985693
0.095867477
0.09189344
0.089709764
0.087734136
0.086430481
0.085109791
0.084358844
3739014.9
604119.21
185472.25
78681.47
40038.643
22807.272
14008.978
9076.1426
6116.7066
4248.567
3022.0695
2191.4882
1614.8658
1206.3919
912.20839
697.42192
538.79952
420.49573
331.46684
263.85926
211.98315
171.64916
139.7384
113.92736
92.516167
74.321827
58.603337
44.988415
33.378272
23.822131
16.375401
10.975414
7.3721307
5.1502971
3.8403082
3.037077
2.4810631
2.0476488
1.6893425
1.3909444
1.1438347
0.93908009
0.77185011
0.63631945
0.52587352
0.43671484
0.36495129
0.30901115