/*--------------------------------*- C++ -*----------------------------------*\
  =========                 |
  \\      /  F ield         | OpenFOAM: The Open Source CFD Toolbox
   \\    /   O peration     | Website:  https://openfoam.org
    \\  /    A nd           | Version:  13
     \\/     M anipulation  |
\*---------------------------------------------------------------------------*/
FoamFile
{
    format      ascii;
    class       surfaceScalarField;
    location    "29.098996";
    object      phi;
}
// * * * * * * * * * * * * * * * * * * * * * * * * * * * * * * * * * * * * * //

dimensions      [0 3 -1 0 0 0 0];

internalField   nonuniform List<scalar> 
34068
(
-1.3467029e-08
-2.0791699e-08
3.4258728e-08
-5.9924134e-08
-7.1600866e-08
1.1805797e-07
-1.5036689e-07
-1.3937479e-07
2.2981755e-07
-2.9865032e-07
-2.288342e-07
3.7711763e-07
-5.2215474e-07
-3.4592534e-07
5.6942975e-07
-8.4259379e-07
-4.980745e-07
8.1851356e-07
-1.2869776e-06
-6.9455542e-07
1.1389392e-06
-1.8887702e-06
-9.4688952e-07
1.5486822e-06
-2.6892705e-06
-1.2693152e-06
2.0698155e-06
-3.7392455e-06
-1.6793307e-06
2.7293057e-06
-5.1008481e-06
-2.1983071e-06
3.5599096e-06
-6.8498481e-06
-2.852166e-06
4.601166e-06
-9.0781981e-06
-3.6721013e-06
5.9004512e-06
-1.189695e-05
-4.6953164e-06
7.5140686e-06
-1.5439506e-05
-5.9657237e-06
9.5082789e-06
-1.9865172e-05
-7.5345279e-06
1.1960194e-05
-2.5362932e-05
-9.4605813e-06
1.4958341e-05
-3.2155291e-05
-1.1810353e-05
1.8602713e-05
-4.0501958e-05
-1.46573e-05
2.3003967e-05
-5.0703014e-05
-1.8080393e-05
2.8281448e-05
-6.3101057e-05
-2.2161453e-05
3.4559496e-05
-7.8081609e-05
-2.6981e-05
4.1961551e-05
-9.6070832e-05
-3.2612235e-05
5.0601458e-05
-0.0001175293
-3.9113011e-05
6.0571482e-05
-0.00014294035
-4.6515897e-05
7.1926945e-05
-0.00017279139
-5.4817242e-05
8.4668278e-05
-0.00020754715
-6.3967611e-05
9.872337e-05
-0.00024761579
-7.3868447e-05
0.00011393709
-0.00029331348
-8.4383289e-05
0.00013008097
-0.00034484082
-9.5373071e-05
0.00014690041
-0.00040229132
-0.00010675681
0.00016420732
-0.00046570489
-0.00011857497
0.00018198854
-0.0005351524
-0.00013101179
0.0002004593
-0.00061081156
-0.00014435651
0.00022001567
-0.00069300449
-0.00015893868
0.00024113162
-0.00078220137
-0.00017508761
0.00026428448
-0.00087901251
-0.00019312898
0.00028994012
-0.00098418733
-0.00021340267
0.00031857749
-0.001098629
-0.00023628385
0.00035072548
-0.0012234287
-0.00026219792
0.00038699763
-0.0013599237
-0.00029162223
0.00042811723
-0.0015097838
-0.00032506262
0.0004749228
-0.0016751334
-0.00036298545
0.00052833498
-0.0018587177
-0.00040567278
0.00058925714
-0.0020641363
-0.00045294807
0.00065836664
-0.0022960763
-0.00050367606
0.00073561609
-0.0025605069
-0.0005549899
0.00081942048
-0.0028649951
-0.00060107638
0.00090556454
-0.0032189608
-0.00063106597
0.00098503166
-0.0036337519
-0.00062578821
0.0010405793
-0.0041224616
-0.00055243734
0.0010411471
-0.004699238
-0.00035618263
0.00093295902
-0.0053774819
5.2990194e-05
0.00062525365
-0.006165881
0.0008181647
-2.9765553e-05
-0.0070606968
0.002156464
-0.0012616481
-0.0080331588
0.0043726307
-0.0034001687
-0.0090140731
0.0078293255
-0.0068484112
-0.0098780538
0.012822897
-0.011958916
-0.010427143
0.019152385
-0.018603296
-0.010447412
0.025697043
-0.025676774
-0.0097827023
0.029696878
-0.030361588
-0.0079284998
0.026058631
-0.027912833
-0.0039840446
0.0088144469
-0.012758902
0.0033625563
-0.025474454
0.018127853
-0.063807357
0.013862369
0.053307545
-1.3661654e-08
-7.1300447e-09
-6.0787273e-08
-2.4475249e-08
-1.5252637e-07
-4.7635689e-08
-3.0294275e-07
-7.8417832e-08
-5.2969457e-07
-1.1917352e-07
-8.5483319e-07
-1.7293589e-07
-1.3057939e-06
-2.435947e-07
-1.9165792e-06
-3.3610424e-07
-2.7291659e-06
-4.5672851e-07
-3.795171e-06
-6.1332564e-07
-5.1778071e-06
-8.1567105e-07
-6.9541597e-06
-1.0758134e-06
-9.2178061e-06
-1.4084549e-06
-1.2081791e-05
-1.8313315e-06
-1.5681947e-05
-2.3655679e-06
-2.0180521e-05
-3.0359536e-06
-2.5770028e-05
-3.8710741e-06
-3.2677175e-05
-4.9032061e-06
-4.1166618e-05
-6.1678581e-06
-5.1544199e-05
-7.7028116e-06
-6.4159139e-05
-9.5465128e-06
-7.9404467e-05
-1.1735672e-05
-9.7714703e-05
-1.4301999e-05
-0.00011955956
-1.7268156e-05
-0.00014543211
-2.0643347e-05
-0.00017582986
-2.4419494e-05
-0.00021122762
-2.8569847e-05
-0.00025204312
-3.3052943e-05
-0.00029860099
-3.7825426e-05
-0.00035110867
-4.2865387e-05
-0.0004096647
-4.820079e-05
-0.00047431252
-5.3927151e-05
-0.00054512584
-6.0198469e-05
-0.00062228576
-6.7196588e-05
-0.00070611979
-7.5104657e-05
-0.00079710614
-8.410126e-05
-0.00089586565
-9.4369464e-05
-0.0010031602
-0.0001061081
-0.0011199065
-0.00011953755
-0.0012472096
-0.00013489487
-0.001386418
-0.00015241375
-0.0015392074
-0.00017227326
-0.0017076952
-0.00019449765
-0.0018945977
-0.00021877033
-0.0021034444
-0.00024410133
-0.0023387834
-0.00026833703
-0.0026063255
-0.0002874478
-0.0029131801
-0.00029422181
-0.0032679882
-0.00027625783
-0.0036808032
-0.00021297324
-0.0041626196
-7.0620916e-05
-0.0047242936
0.00020549131
-0.0053742939
0.00070299058
-0.0061144274
0.0015582981
-0.0069324577
0.0029744943
-0.00779189
0.005232063
-0.0086223354
0.0086597709
-0.0093018956
0.013502457
-0.0096531564
0.019503646
-0.0094775757
0.025521463
-0.0085920482
0.028811351
-0.0063738105
0.023840393
-0.0016539996
0.0040946359
0.0068954832
-0.034023937
-0.075215861
0.018303987
-1.3670889e-08
6.5408442e-09
-6.0836018e-08
2.2689879e-08
-1.5266986e-07
4.4198146e-08
-3.0325563e-07
7.2167943e-08
-5.3027323e-07
1.0784407e-07
-8.5582023e-07
1.526111e-07
-1.3074037e-06
2.0798877e-07
-1.9191305e-06
2.7562252e-07
-2.7331258e-06
3.5726682e-07
-3.8012146e-06
4.5476312e-07
-5.1868969e-06
5.7001129e-07
-6.9676493e-06
7.049389e-07
-9.237576e-06
8.6147178e-07
-1.2110422e-05
1.0415144e-06
-1.5722941e-05
1.2469513e-06
-2.0238584e-05
1.479689e-06
-2.5851415e-05
1.741757e-06
-3.2790122e-05
2.0355006e-06
-4.1321869e-05
2.3638891e-06
-5.1755644e-05
2.730964e-06
-6.4444576e-05
3.1424189e-06
-7.9786497e-05
3.6062494e-06
-9.8221788e-05
4.1332921e-06
-0.00012022722
4.7372807e-06
-0.00014630431
5.4337411e-06
-0.00017696047
6.2366671e-06
-0.00021268195
7.1516282e-06
-0.00025389919
8.1642977e-06
-0.00030095013
9.2255115e-06
-0.00035405459
1.0239073e-05
-0.00041332012
1.1064745e-05
-0.00047879374
1.1546469e-05
-0.00055054718
1.1554973e-05
-0.00062875636
1.1012593e-05
-0.00071374312
9.8821012e-06
-0.00080598096
8.1365817e-06
-0.00090608691
5.7364777e-06
-0.0010148185
2.6235344e-06
-0.001133085
-1.2710838e-06
-0.0012619786
-6.0013124e-06
-0.0014028239
-1.1568442e-05
-0.0015572551
-1.7842026e-05
-0.00172732
-2.4432779e-05
-0.0019156195
-3.047078e-05
-0.0021254957
-3.4225191e-05
-0.0023611922
-3.2640515e-05
-0.0026279355
-2.0704513e-05
-0.0029320669
9.9095554e-06
-0.0032810055
7.2680809e-05
-0.003682882
0.00018890331
-0.0041457002
0.00039219727
-0.0046757532
0.00073554433
-0.0052747789
0.0013020162
-0.0059351192
0.0022186384
-0.0066323636
0.0036717388
-0.0073168205
0.0059165199
-0.0079078605
0.0092508109
-0.0082807243
0.013875321
-0.0082609802
0.019483902
-0.0076406223
0.024901105
-0.0061628881
0.027333617
-0.0030581277
0.020735633
0.0032248299
-0.0021883217
0.013720514
-0.044519621
-0.087881096
0.026385748
-1.3489763e-08
2.0030606e-08
-6.0023841e-08
6.9223956e-08
-1.5062544e-07
1.3479975e-07
-2.992028e-07
2.2074529e-07
-5.2322079e-07
3.3186207e-07
-8.4451891e-07
4.7390921e-07
-1.2902983e-06
6.5376816e-07
-1.894306e-06
8.796302e-07
-2.6982493e-06
1.1612101e-06
-3.7534728e-06
1.5099866e-06
-5.122933e-06
1.9394715e-06
-6.883501e-06
2.4655069e-06
-9.1286209e-06
3.1065917e-06
-1.1971337e-05
3.8842302e-06
-1.5547685e-05
4.8232997e-06
-2.002042e-05
5.9524236e-06
-2.5582988e-05
7.3043253e-06
-3.2463619e-05
8.9161318e-06
-4.0929294e-05
1.0829563e-05
-5.128924e-05
1.309091e-05
-6.3897459e-05
1.5750638e-05
-7.9153555e-05
1.8862345e-05
-9.7500913e-05
2.2480651e-05
-0.00011942097
2.6657341e-05
-0.00014542206
3.1434828e-05
-0.00017602111
3.683572e-05
-0.00021171706
4.2847574e-05
-0.00025295631
4.9403549e-05
-0.00030009521
5.6364407e-05
-0.0003533719
6.3515766e-05
-0.00041290776
7.0600602e-05
-0.00047875439
7.7393097e-05
-0.00055097723
8.3777819e-05
-0.00062973783
8.9773187e-05
-0.00071534009
9.5484366e-05
-0.00080823887
0.00010103536
-0.00090903165
0.00010652926
-0.0010184532
0.00011204511
-0.0011373841
0.00011765978
-0.0012668736
0.00012348816
-0.0014081858
0.00012974377
-0.001562864
0.0001368362
-0.00173282
0.00014552321
-0.0019204502
0.00015715941
-0.0021287865
0.00017411111
-0.0023615988
0.00020017182
-0.0026233984
0.00024109512
-0.0029194392
0.00030595035
-0.003255468
0.00040870958
-0.0036370504
0.00057048566
-0.0040682812
0.00082342811
-0.0045495688
0.0012168319
-0.0050740019
0.0018264493
-0.0056216271
0.0027662636
-0.0061516854
0.0042017971
-0.0065947629
0.0063595974
-0.0068500927
0.0095061407
-0.006774516
0.013799744
-0.0061755447
0.018884931
-0.0047920363
0.023517597
-0.0022306427
0.024772223
0.0025292975
0.015975692
0.011335844
-0.010994868
0.024728033
-0.05791181
-0.10213213
0.038979067
-1.3099271e-08
3.3129877e-08
-5.8288242e-08
1.1441293e-07
-1.4627816e-07
2.2278966e-07
-2.9058994e-07
3.6505707e-07
-5.0821308e-07
5.494852e-07
-8.2040707e-07
7.861032e-07
-1.2536686e-06
1.0870297e-06
-1.8408965e-06
1.4668581e-06
-2.6227815e-06
1.9430951e-06
-3.6494619e-06
2.536667e-06
-4.9824717e-06
3.2724813e-06
-6.6970223e-06
4.1800575e-06
-8.8846382e-06
5.2942075e-06
-1.1656174e-05
6.6557656e-06
-1.5145201e-05
8.3123268e-06
-1.9511751e-05
1.0318974e-05
-2.4946329e-05
1.2738904e-05
-3.1674081e-05
1.5643883e-05
-3.9958884e-05
1.9114367e-05
-5.0107049e-05
2.3239074e-05
-6.2470111e-05
2.81137e-05
-7.7446066e-05
3.3838301e-05
-9.5478073e-05
4.0512658e-05
-0.00011704942
4.8228691e-05
-0.00014267322
5.7058627e-05
-0.00017287512
6.7037621e-05
-0.00020816765
7.8140101e-05
-0.00024901622
9.0252118e-05
-0.00029580077
0.00010314895
-0.00034878428
0.00011649928
-0.00040810768
0.000129924
-0.00047382918
0.0001431146
-0.00054600415
0.00015595279
-0.00062477039
0.00016853943
-0.00071040092
0.0001811149
-0.00080331689
0.00019395133
-0.00090407937
0.00020729173
-0.0010133809
0.00022134667
-0.0011320483
0.00023632712
-0.0012610594
0.00025249927
-0.0014015781
0.00027026245
-0.0015550052
0.00029026331
-0.0017230474
0.0003135654
-0.0019078046
0.00034191669
-0.0021118731
0.00037817961
-0.0023383752
0.00042667391
-0.0025908732
0.00049359309
-0.0028732099
0.00058828709
-0.0031889993
0.00072449891
-0.0035405839
0.00092207032
-0.0039271941
0.0012100383
-0.0043419434
0.0016315813
-0.0047671791
0.0022516849
-0.0051675293
0.0031666138
-0.005481414
0.0045156818
-0.0056129544
0.0064911379
-0.0054297976
0.0093229839
-0.0047422561
0.013112202
-0.003312323
0.017454998
-0.00078585128
0.020991125
0.003467917
0.020518455
0.010816194
0.0086274153
0.023201403
-0.023380077
0.040237447
-0.074947855
-0.11817433
0.05627965
-1.2494917e-08
4.5624794e-08
-5.5606095e-08
1.575241e-07
-1.3956349e-07
3.0674706e-07
-2.7728849e-07
5.0278207e-07
-4.8502951e-07
7.5722622e-07
-7.8313464e-07
1.0842083e-06
-1.1969878e-06
1.5008829e-06
-1.7581347e-06
2.028005e-06
-2.5056347e-06
2.6905951e-06
-3.4876685e-06
3.5187007e-06
-4.7634386e-06
4.5482515e-06
-6.405401e-06
5.8220198e-06
-8.5018544e-06
7.3906608e-06
-1.115991e-05
9.3138208e-06
-1.4508848e-05
1.1661265e-05
-1.8703846e-05
1.4513973e-05
-2.3930017e-05
1.7965074e-05
-3.0406634e-05
2.2120499e-05
-3.8391361e-05
2.7099095e-05
-4.8184179e-05
3.3031892e-05
-6.0130529e-05
4.006005e-05
-7.462306e-05
4.8330832e-05
-9.2101054e-05
5.7990652e-05
-0.00011304635
6.9173984e-05
-0.00013797426
8.1986539e-05
-0.00016741776
9.6481123e-05
-0.00020190333
0.00011262567
-0.00024191797
0.00013026676
-0.00028787025
0.00014910123
-0.00034005485
0.00016868389
-0.00039863896
0.0001885081
-0.0004636908
0.00020816645
-0.00053525304
0.00022751503
-0.00061343069
0.00024671708
-0.00069845228
0.00026613649
-0.00079068901
0.00028618806
-0.00089064729
0.00030725001
-0.00099895644
0.00032965583
-0.0011163644
0.00035373507
-0.0012437457
0.00037988063
-0.0013821233
0.00040864003
-0.001532702
0.00044084202
-0.0016969127
0.00047777607
-0.0018764645
0.00052146848
-0.0020733894
0.00057510452
-0.002289986
0.00064327053
-0.0025286312
0.0007322382
-0.0027914255
0.00085108143
-0.0030793788
0.0010124522
-0.0033909285
0.00123362
-0.0037194274
0.0015385371
-0.0040491531
0.0019613071
-0.0043493635
0.0025518953
-0.0045657837
0.003383034
-0.0046115799
0.0045614779
-0.0043570672
0.0062366252
-0.0036247862
0.0085907029
-0.0021382004
0.011625616
0.00039536159
0.014921436
0.0044631717
0.016923315
0.01104116
0.013940466
0.021876602
-0.0022080266
0.038430482
-0.039933957
0.058837478
-0.095354851
-0.13565195
0.076315093
-1.1681228e-08
5.7306021e-08
-5.199194e-08
1.9783482e-07
-1.3051088e-07
3.85266e-07
-2.5934694e-07
6.3161812e-07
-4.5374077e-07
9.5162004e-07
-7.3279834e-07
1.3632659e-06
-1.1203797e-06
1.8884642e-06
-1.6461728e-06
2.5537981e-06
-2.3469838e-06
3.3914062e-06
-3.2682783e-06
4.4399952e-06
-4.466008e-06
5.7459812e-06
-6.0087656e-06
7.3647775e-06
-7.9802887e-06
9.3621839e-06
-1.0482359e-05
1.1815891e-05
-1.3638092e-05
1.4816997e-05
-1.7595616e-05
1.8471497e-05
-2.2532106e-05
2.2901564e-05
-2.8658058e-05
2.8246451e-05
-3.6221642e-05
3.4662679e-05
-4.5512881e-05
4.2323131e-05
-5.6867212e-05
5.141438e-05
-7.0667834e-05
6.2131454e-05
-8.7346039e-05
7.4668857e-05
-0.00010737836
8.9206301e-05
-0.00013127904
0.00010588723
-0.00015958624
0.00012478832
-0.00019283988
0.00014587931
-0.00023155035
0.00016897723
-0.00027615936
0.00019371024
-0.00032700027
0.00021952479
-0.00038427423
0.00024578207
-0.00044806477
0.00027195698
-0.000518401
0.00029785125
-0.00059534697
0.00032366305
-0.00067907272
0.00034986224
-0.00076988207
0.00037699741
-0.00086820708
0.00040557502
-0.00097459139
0.00043604013
-0.0010896776
0.00046882123
-0.0012142036
0.00050440668
-0.001349009
0.00054344547
-0.0014950476
0.00058688055
-0.0016534015
0.00063612995
-0.0018252925
0.00069335956
-0.0020120575
0.0007618695
-0.0022149922
0.00084620518
-0.0024350457
0.00095229177
-0.0026722359
0.0010882716
-0.0029244763
0.0012646926
-0.0031855734
0.0014947171
-0.0034418913
0.001794855
-0.0036671195
0.0021865353
-0.0038147088
0.0026994846
-0.0038074856
0.0033758107
-0.003528759
0.0042827513
-0.0028066682
0.0055145344
-0.001383452
0.0071674867
0.0010984699
0.0091436946
0.0049836631
0.011036242
0.010972282
0.010934696
0.020427112
0.0044856365
0.035305007
-0.017085922
0.055775889
-0.060404839
0.077679232
-0.11725819
-0.15235069
0.094377976
-1.0665485e-08
6.7971506e-08
-4.7479619e-08
2.3464895e-07
-1.1920665e-07
4.5699303e-07
-2.3693719e-07
7.4934866e-07
-4.1464697e-07
1.1293298e-06
-6.6987806e-07
1.618497e-06
-1.0245678e-06
2.2431539e-06
-1.5060541e-06
3.0352844e-06
-2.148284e-06
4.033636e-06
-2.9932658e-06
5.284977e-06
-4.0927974e-06
6.8455127e-06
-5.510508e-06
8.7824882e-06
-7.324259e-06
1.1175935e-05
-9.6289203e-06
1.4120553e-05
-1.2539564e-05
1.7727641e-05
-1.619506e-05
2.2126993e-05
-2.0762059e-05
2.7468563e-05
-2.6439292e-05
3.3923684e-05
-3.346205e-05
4.1685437e-05
-4.2106597e-05
5.0967678e-05
-5.2694183e-05
6.2001967e-05
-6.5594109e-05
7.503138e-05
-8.1225082e-05
9.029983e-05
-0.0001000538
0.00010803502
-0.00012258941
0.00012842284
-0.00014937203
0.00015157094
-0.00018095339
0.00017746067
-0.00021786787
0.00020589171
-0.00026059385
0.00023643622
-0.00030950998
0.00026844092
-0.00036486009
0.00030113218
-0.00042675036
0.00033384725
-0.00049519813
0.00036629903
-0.00057021998
0.00039868489
-0.0006519135
0.00043155577
-0.00074049664
0.00046558055
-0.00083630582
0.00050138421
-0.00093977498
0.00053950929
-0.0010514131
0.00058045935
-0.001171787
0.00062478058
-0.0013015089
0.00067316732
-0.001441224
0.00072659572
-0.0015915913
0.00078649723
-0.0017532457
0.00085501392
-0.0019266931
0.00093531696
-0.0021120416
0.0010315536
-0.0023085602
0.0011488104
-0.0025138203
0.0012935317
-0.0027221036
0.001472976
-0.0029217725
0.0016943861
-0.0030909031
0.0019639855
-0.0031904883
0.0022861206
-0.0031549288
0.002663925
-0.0028797926
0.0031006745
-0.0022111658
0.0036141246
-0.00091578579
0.0042191543
0.0013598053
0.0048918956
0.004998431
0.0055050689
0.010476972
0.0055577012
0.018760091
0.0026515779
0.031583798
-0.0083380714
0.050608684
-0.036110808
0.07386325
-0.083659405
0.09437621
-0.13777115
-0.16524184
0.10726736
-9.4632935e-09
7.74348e-08
-4.2138611e-08
2.6732427e-07
-1.0582424e-07
5.2067866e-07
-2.1040199e-07
8.5392641e-07
-3.6834241e-07
1.2872702e-06
-5.953238e-07
1.8454784e-06
-9.1098892e-07
2.558819e-06
-1.3398616e-06
3.464157e-06
-1.9124595e-06
4.606234e-06
-2.6666317e-06
6.0391492e-06
-3.6491608e-06
7.8280419e-06
-4.9176697e-06
1.0050997e-05
-6.5428738e-06
1.2801139e-05
-8.611205e-06
1.6188884e-05
-1.1227863e-05
2.0344299e-05
-1.4520284e-05
2.5419415e-05
-1.8642046e-05
3.1590325e-05
-2.3777131e-05
3.9058769e-05
-3.0144503e-05
4.8052809e-05
-3.8002761e-05
5.8825936e-05
-4.7654598e-05
7.1653804e-05
-5.9450635e-05
8.6827418e-05
-7.3791907e-05
0.0001046411
-9.1130102e-05
0.00012537321
-0.00011196423
0.00014925696
-0.000136832
0.00017643872
-0.00016629382
0.00020692249
-0.00020090696
0.00024050484
-0.00024118838
0.00027671765
-0.00028756775
0.00031482029
-0.00034034067
0.00035390509
-0.00039964572
0.00039315231
-0.00046549357
0.00043214688
-0.00053784935
0.00047104067
-0.00061672513
0.00051043154
-0.00070223362
0.00055108904
-0.00079459271
0.00059374329
-0.00089410076
0.00063901734
-0.0010011032
0.0006874618
-0.0011159592
0.00073963663
-0.0012390077
0.00079621578
-0.001370526
0.00085811397
-0.0015106707
0.00092664194
-0.0016593853
0.0010037285
-0.0018162012
0.0010921329
-0.001979841
0.0011951935
-0.0021476169
0.0013165862
-0.002314241
0.0014601558
-0.0024697356
0.0016284706
-0.0025960215
0.0018206719
-0.0026612214
0.0020291854
-0.0026109283
0.0022358275
-0.0023567495
0.0024097462
-0.0017618397
0.0025057647
-0.0006249135
0.0024771984
0.0013627467
0.0022314941
0.0046174598
0.0016371826
0.0095912808
0.00053124784
0.016990672
-0.0018416895
0.028049804
-0.0084075547
0.044679914
-0.024968182
0.067381174
-0.058812067
0.091131549
-0.10740978
0.10726633
-0.15390594
-0.17340282
0.11542731
-8.0988449e-09
8.5533645e-08
-3.607584e-08
2.9530126e-07
-9.0630678e-08
5.752335e-07
-1.8026813e-07
9.4356387e-07
-3.1574255e-07
1.4227447e-06
-5.1060355e-07
2.0403394e-06
-7.8186668e-07
2.8300821e-06
-1.1508293e-06
3.8331196e-06
-1.6440671e-06
5.0994718e-06
-2.2946354e-06
6.6897174e-06
-3.1435248e-06
8.6769313e-06
-4.2413942e-06
1.1148866e-05
-5.6506423e-06
1.4210387e-05
-7.447849e-06
1.7986091e-05
-9.7266295e-06
2.262308e-05
-1.2600935e-05
2.8293721e-05
-1.6208808e-05
3.5198197e-05
-2.0716596e-05
4.3566557e-05
-2.632354e-05
5.3659753e-05
-3.3266639e-05
6.5769036e-05
-4.1825557e-05
8.0212722e-05
-5.2327193e-05
9.7329054e-05
-6.5149391e-05
0.0001174633
-8.0722932e-05
0.00014094675
-9.9530675e-05
0.00016806471
-0.00012210215
0.00019901019
-0.00014900144
0.00023382179
-0.00018080547
0.00027230886
-0.0002180694
0.00031398159
-0.00026127784
0.00035802873
-0.00031078694
0.00040341419
-0.00036677942
0.00044914479
-0.00042926831
0.00049463577
-0.0004981672
0.00053993957
-0.00057339133
0.00058565566
-0.00065492846
0.00063262617
-0.00074285338
0.00068166822
-0.00083730092
0.00073346487
-0.00093842079
0.00078858167
-0.0010463257
0.00084754158
-0.0011610324
0.00091092247
-0.0012823866
0.00097946811
-0.0014099579
0.0010542133
-0.0015428835
0.001136654
-0.0016795587
0.0012288081
-0.0018170994
0.0013327342
-0.0019505294
0.0014500162
-0.0020711881
0.0015808145
-0.002164018
0.0017213006
-0.0022031217
0.0018597756
-0.0021443103
0.0019703741
-0.0019141046
0.0020056218
-0.0013969322
0.0018925738
-0.00041672482
0.0015255573
0.0012836541
0.00077681951
0.0040903293
-0.00057518111
0.0085034246
-0.0027759127
0.015140356
-0.0061056833
0.024953365
-0.011654699
0.039443453
-0.022897642
0.060049624
-0.045574353
0.084630518
-0.083392961
0.10527083
-0.12805009
0.11550948
-0.16414459
-0.17775831
0.11986498
-6.6050549e-09
9.21387e-08
-2.9436231e-08
3.1813244e-07
-7.3987308e-08
6.1978458e-07
-1.472498e-07
1.0168264e-06
-2.580892e-07
1.5335841e-06
-4.1770902e-07
2.1999592e-06
-6.4022296e-07
3.0525961e-06
-9.4335927e-07
4.1362559e-06
-1.3493211e-06
5.5054337e-06
-1.8858378e-06
7.2262341e-06
-2.5874392e-06
9.3785327e-06
-3.4970012e-06
1.2058428e-05
-4.6675935e-06
1.5380979e-05
-6.1646993e-06
1.9483196e-05
-8.0688245e-06
2.4527205e-05
-1.0478576e-05
3.0703472e-05
-1.351423e-05
3.8233851e-05
-1.7321789e-05
4.7374116e-05
-2.2077555e-05
5.8415519e-05
-2.7993119e-05
7.16846e-05
-3.5320651e-05
8.7540254e-05
-4.4358175e-05
0.00010636658
-5.5454485e-05
0.00012855961
-6.9012954e-05
0.00015450522
-8.5493235e-05
0.00018454499
-0.00010540939
0.00021892635
-0.00012932216
0.00025773456
-0.00015782215
0.00030080885
-0.00019149933
0.00034765876
-0.00023089416
0.00039742356
-0.0002764306
0.00044895064
-0.00032834843
0.00050106262
-0.00038667616
0.0005529635
-0.00045128077
0.00060454418
-0.00052197262
0.00065634751
-0.00059859527
0.00070924883
-0.00068105432
0.00076412726
-0.00076929069
0.00082170124
-0.0008632233
0.00088251428
-0.00096267629
0.00094699456
-0.0010672907
0.0010155369
-0.0011764105
0.0010885879
-0.001288923
0.0011667258
-0.0014030246
0.0012507556
-0.0015157809
0.0013415643
-0.0016224292
0.0014393826
-0.0017152671
0.001542854
-0.0017815457
0.0016470931
-0.0017999164
0.0017396713
-0.0017345473
0.0017944065
-0.0015252583
0.001761085
-0.0010745056
0.0015548691
-0.00023259978
0.001050668
0.0012277411
6.5216425e-05
0.0036391223
-0.0016345617
0.007491166
-0.0044272248
0.013448595
-0.0087333416
0.022335617
-0.014992706
0.035335625
-0.024654707
0.053750319
-0.041312336
0.077147975
-0.068972009
0.099777537
-0.10602252
0.11383772
-0.14211028
0.11919303
-0.1694999
-0.18070262
0.12213734
-5.0229971e-09
9.7161697e-08
-2.2403019e-08
3.3551246e-07
-5.6353333e-08
6.5373489e-07
-1.1225732e-07
1.0727304e-06
-1.9696853e-07
1.6182953e-06
-3.1918901e-07
2.3221797e-06
-4.8993347e-07
3.2233405e-06
-7.2310884e-07
4.3694313e-06
-1.0362285e-06
5.8185534e-06
-1.4512912e-06
7.6412968e-06
-1.9958634e-06
9.9231049e-06
-2.7043956e-06
1.2766961e-05
-3.6198314e-06
1.6296415e-05
-4.7955515e-06
2.0658916e-05
-6.2977088e-06
2.6029362e-05
-8.2080214e-06
3.2613785e-05
-1.0627066e-05
4.0652896e-05
-1.3678138e-05
5.0425188e-05
-1.7511703e-05
6.2249084e-05
-2.2310412e-05
7.648331e-05
-2.8294667e-05
9.3524509e-05
-3.572854e-05
0.00011380045
-4.4925754e-05
0.00013775682
-5.6255271e-05
0.00016583474
-7.0145597e-05
0.00019843531
-8.7086527e-05
0.00023586728
-0.00010762619
0.00027827422
-0.00013235984
0.00032554251
-0.00016190494
0.00037720386
-0.00019685465
0.00043237327
-0.0002377047
0.00048980069
-0.00028476434
0.00054812225
-0.00033809432
0.00060629348
-0.00039752605
0.00066397591
-0.00046276186
0.00072158333
-0.0005334836
0.00077997056
-0.00060940045
0.00084004412
-0.00069022627
0.00090252706
-0.00077561033
0.00096789835
-0.0008650408
0.001036425
-0.00095772249
0.0011082186
-0.0010524158
0.0011832812
-0.0011472123
0.0012615223
-0.001239199
0.0013427423
-0.0013238614
0.0014262268
-0.0013941831
0.0015097043
-0.0014390974
0.0015877683
-0.0014406582
0.0016486539
-0.0013692296
0.0016682427
-0.0011754493
0.0016006262
-0.00077763575
0.0013632715
-4.6271032e-05
0.00082350438
0.0012181761
-0.00021377909
0.003323238
-0.0020398455
0.0067260866
-0.0050374102
0.012099723
-0.009800861
0.020357514
-0.016991133
0.032424583
-0.027059775
0.04922356
-0.041453684
0.070637004
-0.06272578
0.092968195
-0.091303199
0.10907099
-0.12212532
0.11700445
-0.15004374
0.12045831
-0.17295375
-0.18391853
0.12367422
-3.4016564e-09
1.0056335e-07
-1.519338e-08
3.4730418e-07
-3.8272879e-08
6.7681439e-07
-7.6367541e-08
1.110825e-06
-1.3425931e-07
1.676187e-06
-2.1806569e-07
2.4059861e-06
-3.3559626e-07
3.3408711e-06
-4.9679672e-07
4.5306318e-06
-7.1430758e-07
6.0360642e-06
-1.0041606e-06
7.9311498e-06
-1.3866428e-06
1.0305587e-05
-1.8873789e-06
1.3267697e-05
-2.5386567e-06
1.6947693e-05
-3.3810727e-06
2.1501332e-05
-4.4655418e-06
2.7113831e-05
-5.855748e-06
3.4003991e-05
-7.6311093e-06
4.2428257e-05
-9.8903455e-06
5.2684425e-05
-1.2755685e-05
6.5114423e-05
-1.6377818e-05
8.0105443e-05
-2.0941571e-05
9.8088262e-05
-2.6672286e-05
0.00011953117
-3.3842757e-05
0.00014492729
-4.2780353e-05
0.00017477233
-5.3873828e-05
0.00020952879
-6.7578613e-05
0.00024957206
-8.4418743e-05
0.00029511435
-0.00010498187
0.00034610564
-0.0001299011
0.00040212308
-0.00015981364
0.00046228582
-0.00019528551
0.00052527257
-0.00023670489
0.00058954163
-0.00028418327
0.00065377185
-0.00033753375
0.00071732639
-0.00039635435
0.00078040392
-0.00046015123
0.00084376745
-0.00052840981
0.00090830269
-0.00060058066
0.00097469792
-0.00067599951
0.0010433172
-0.00075376357
0.0011141891
-0.00083256871
0.0011870237
-0.00091049085
0.0012612034
-0.00098467963
0.0013357111
-0.0010508852
0.0014089479
-0.001102667
0.0014780086
-0.0011301804
0.0015372177
-0.0011179821
0.0015755699
-0.0010410572
0.0015717291
-0.00085799028
0.0014851758
-0.00049998708
0.001242623
0.00014503034
0.00071825404
0.0012557073
-0.00028717258
0.0031193317
-0.0020774035
0.0061933379
-0.0051138518
0.011169676
-0.010013748
0.019016624
-0.017647809
0.030640632
-0.028615141
0.046446949
-0.042866092
0.065896178
-0.060902914
0.086329722
-0.083159324
0.10259069
-0.10756416
0.11217304
-0.13170768
0.11750067
-0.15537137
0.12082949
-0.17628257
-0.18838218
0.12529314
-1.7988336e-09
1.0236219e-07
-8.0641716e-09
3.5356952e-07
-2.0388875e-08
6.8913909e-07
-4.085614e-08
1.1312923e-06
-7.2185276e-08
1.7075162e-06
-1.1792011e-07
2.4517209e-06
-1.8266712e-07
3.4056181e-06
-2.724081e-07
4.6203728e-06
-3.9489138e-07
6.1585475e-06
-5.6013991e-07
8.0963983e-06
-7.8109441e-07
1.0526542e-05
-1.0744313e-06
1.3561034e-05
-1.4615982e-06
1.733486e-05
-1.9701236e-06
2.2009858e-05
-2.6352639e-06
2.7778972e-05
-3.5020663e-06
3.4870794e-05
-4.6279254e-06
4.3554116e-05
-6.0857638e-06
5.4142263e-05
-7.9679078e-06
6.6996567e-05
-1.0390794e-05
8.2528329e-05
-1.3500596e-05
0.00010119806
-1.7479838e-05
0.00012351041
-2.2554978e-05
0.00015000244
-2.9004871e-05
0.00018122223
-3.7169644e-05
0.00021769356
-4.7459341e-05
0.00025986176
-6.0360547e-05
0.00030801555
-7.643777e-05
0.00036218286
-9.632307e-05
0.00042200838
-0.0001206823
0.00048664504
-0.00015014251
0.00055473278
-0.00018517388
0.00062457301
-0.00022595644
0.0006945544
-0.00027230761
0.00076367757
-0.00032373296
0.00083182927
-0.00037955481
0.0008995893
-0.00043900844
0.00096775632
-0.00050124171
0.0010369312
-0.00056522581
0.0011073013
-0.00062960079
0.0011785641
-0.00069246222
0.0012498852
-0.00075106853
0.0013198097
-0.00080142347
0.001386066
-0.00083761433
0.0014451387
-0.0008507512
0.0014911454
-0.00082723204
0.0015136986
-0.00074550924
0.0014938471
-0.00057014363
0.0013963635
-0.00024181233
0.0011568445
0.0003374782
0.00066333251
0.0013278008
-0.00027206854
0.0030005867
-0.0019599585
0.0058174818
-0.0048942986
0.010524794
-0.0098211636
0.018133019
-0.017621974
0.029560054
-0.029074844
0.04479393
-0.043849017
0.062595414
-0.060667575
0.080570462
-0.078877961
0.095410034
-0.097998897
0.10526275
-0.11741688
0.11190425
-0.13834918
0.11697302
-0.16044014
0.12130918
-0.18061873
-0.194042
0.12696901
-2.7512298e-10
1.0263731e-07
-1.2841708e-09
3.5457857e-07
-3.3746852e-09
6.9122961e-07
-7.0580329e-09
1.1349756e-06
-1.307991e-08
1.713538e-06
-2.2511062e-08
2.4611521e-06
-3.6880632e-08
3.4199877e-06
-5.8345414e-08
4.6418375e-06
-8.9925848e-08
6.190128e-06
-1.3581822e-07
8.1422907e-06
-2.0181271e-07
1.0592536e-05
-2.9584002e-07
1.3655061e-05
-4.2871361e-07
1.7467734e-05
-6.1507463e-07
2.2196219e-05
-8.7465359e-07
2.8038551e-05
-1.2338918e-06
3.5230032e-05
-1.7280563e-06
4.4048281e-05
-2.4039061e-06
5.4818113e-05
-3.3231501e-06
6.7915811e-05
-4.5667307e-06
8.3771909e-05
-6.2401936e-06
0.00010287153
-8.4802582e-06
0.00012575047
-1.146272e-05
0.0001529849
-1.5411758e-05
0.00018517126
-2.0610505e-05
0.00022289231
-2.7412385e-05
0.00026666364
-3.6251989e-05
0.00031685516
-4.7652574e-05
0.00037358345
-6.222388e-05
0.00043657969
-8.0638083e-05
0.00050505925
-0.00010356461
0.0005776593
-0.00013154916
0.00065255757
-0.00016484766
0.00072785289
-0.00020331141
0.00080214132
-0.00024637025
0.00087488811
-0.00029316234
0.00094638139
-0.0003426508
0.0010172448
-0.00039363839
0.0010879188
-0.00044467139
0.0011583343
-0.0004938491
0.0012277418
-0.0005385459
0.001294582
-0.00057501708
0.0013562809
-0.00059781971
0.0014088687
-0.00059888277
0.0014462018
-0.00056601232
0.001458275
-0.0004802566
0.0014279428
-0.00031087477
0.0013244653
-5.8541897e-06
0.0010913429
0.00052241785
0.00062857244
0.0014194774
-0.00023372702
0.0029394194
-0.0017920106
0.0055462499
-0.004566789
0.010037164
-0.0093852129
0.017483485
-0.017267485
0.028730688
-0.028869177
0.043460735
-0.043804892
0.05984683
-0.060235112
0.075402283
-0.076223028
0.088136718
-0.091612396
0.097310529
-0.10717271
0.10446689
-0.12457323
0.11090318
-0.14478548
0.11646794
-0.1660049
0.12177638
-0.18592717
-0.20064611
0.12838049
1.1015667e-09
1.0153574e-07
4.8432307e-09
3.5083691e-07
1.2007211e-08
6.8406563e-07
2.3510826e-08
1.123472e-06
4.0409719e-08
1.6966392e-06
6.3888703e-08
2.4376731e-06
9.524191e-08
3.3886345e-06
1.3582676e-07
4.6012527e-06
1.869834e-07
6.1389713e-06
2.4991068e-07
8.0793634e-06
3.2546799e-07
1.0516979e-05
4.1388405e-07
1.3566645e-05
5.1433874e-07
1.7367279e-05
6.2435131e-07
2.2086206e-05
7.389476e-07
2.7923954e-05
8.49487e-07
3.5119492e-05
9.420807e-07
4.3955687e-05
9.9543033e-07
5.4764763e-05
9.7800444e-07
6.7933237e-05
8.4425833e-07
8.3905656e-05
5.2979026e-07
0.000103186
-5.4895184e-08
0.00012633516
-1.0321972e-06
0.0001539622
-2.5670651e-06
0.00018670613
-4.8785414e-06
0.00022520378
-8.2530802e-06
0.00027003818
-1.3058776e-05
0.00032166085
-1.9758123e-05
0.00038028279
-2.891362e-05
0.00044573519
-4.1173928e-05
0.00051731955
-5.7216566e-05
0.00059370194
-7.7637508e-05
0.00067297851
-0.00010277621
0.0007529916
-0.0001325551
0.00083192021
-0.00016633069
0.00090866369
-0.00020307342
0.00098312412
-0.0002414574
0.0010556288
-0.00027989278
0.0011263542
-0.0003164263
0.0011948678
-0.00034850642
0.0012598219
-0.00037261768
0.0013186932
-0.00038373934
0.0013674025
-0.00037451924