/*--------------------------------*- C++ -*----------------------------------*\
  =========                 |
  \\      /  F ield         | OpenFOAM: The Open Source CFD Toolbox
   \\    /   O peration     | Website:  https://openfoam.org
    \\  /    A nd           | Version:  13
     \\/     M anipulation  |
\*---------------------------------------------------------------------------*/
FoamFile
{
    format      ascii;
    class       volVectorField;
    location    "2.402569";
    object      UMean;
}
// * * * * * * * * * * * * * * * * * * * * * * * * * * * * * * * * * * * * * //

dimensions      [0 1 -1 0 0 0 0];

internalField   nonuniform List<vector> 
17140
(
(-2.4801081e-06 0.00010879 -1.875027e-21)
(-3.0542162e-05 0.00033398151 -1.5292819e-22)
(-9.0670715e-05 0.00057934723 1.0100335e-20)
(-0.00019551214 0.00084660072 -1.1107144e-20)
(-0.00035637492 0.0011375623 1.2989646e-21)
(-0.00058897281 0.0014538673 -4.2531611e-21)
(-0.00091275123 0.0017969221 -7.164521e-21)
(-0.0013513802 0.0021677539 3.5004625e-21)
(-0.0019335622 0.0025668605 1.1467184e-20)
(-0.002693837 0.0029940135 2.8156129e-20)
(-0.0036733717 0.003448036 -4.1807039e-20)
(-0.0049206958 0.0039265524 3.7317196e-20)
(-0.0064923068 0.0044257206 5.7224103e-21)
(-0.0084530311 0.0049399604 -3.2442798e-20)
(-0.010875983 0.0054617182 3.6119632e-21)
(-0.013841947 0.0059812886 -2.8705832e-20)
(-0.017438013 0.0064867701 1.0728142e-21)
(-0.021755249 0.0069642115 -2.4060774e-22)
(-0.026885289 0.0073980239 -1.7179921e-20)
(-0.032915857 0.0077717209 2.2371953e-20)
(-0.039925316 0.0080690228 -1.0815468e-20)
(-0.047976679 0.0082752506 2.071798e-21)
(-0.057111904 0.0083788421 1.5298342e-20)
(-0.067347623 0.0083727067 -1.5271617e-20)
(-0.078671393 0.008254962 -2.4319655e-20)
(-0.091038164 0.0080287752 1.953532e-20)
(-0.10437701 0.0077009313 9.581567e-20)
(-0.11858583 0.0072803623 1.12663e-20)
(-0.13352598 0.0067763779 -9.881984e-20)
(-0.14902681 0.006197519 -2.3075871e-20)
(-0.16487423 0.0055512685 -8.2308113e-20)
(-0.18080541 0.0048443033 1.0836894e-19)
(-0.19650266 0.0040825327 -2.8253387e-20)
(-0.21158644 0.003271606 -1.3522706e-20)
(-0.22560774 0.0024162869 -1.3321771e-19)
(-0.23803779 0.0015200819 5.8639727e-20)
(-0.24825541 0.00058503416 -8.8628866e-20)
(-0.25552847 -0.00038890737 -6.017407e-20)
(-0.25899085 -0.0014045351 -2.7635815e-20)
(-0.25761426 -0.0024645352 8.3958346e-20)
(-0.25018055 -0.0035718666 1.5868818e-19)
(-0.23526935 -0.0047223625 1.4406587e-19)
(-0.21127822 -0.0058974352 6.2856377e-20)
(-0.1764621 -0.0070630854 -3.0551847e-19)
(-0.12927977 -0.0081754801 -2.2286694e-19)
(-0.068339917 -0.0091110408 5.4585393e-20)
(0.0060721977 -0.0097242758 -3.6945388e-19)
(0.092847215 -0.0098897212 -1.2486139e-19)
(0.18889409 -0.0094923404 1.2647877e-19)
(0.28961969 -0.0084924346 3.0756295e-19)
(0.38923821 -0.0069581763 -1.8798038e-19)
(0.48225859 -0.0050784511 -1.1770078e-19)
(0.56470672 -0.0031203776 3.0422392e-19)
(0.63523962 -0.0013283696 1.424875e-19)
(0.69472076 0.00017750351 1.0064388e-19)
(0.74498779 0.0013873133 -7.8407958e-20)
(0.78799979 0.0023545354 2.0976597e-19)
(0.82511194 0.0031526073 1.7389216e-19)
(0.85714245 0.0038323993 4.3263683e-20)
(0.88438458 0.0044302814 -1.1088476e-19)
(0.90706846 0.0049402257 -8.6396964e-20)
(0.92551514 0.0053791267 -3.1866859e-19)
(0.94005594 0.0057101163 -4.6652338e-20)
(0.95178677 0.0059850105 3.9207294e-19)
(0.96047733 0.006128161 -3.0309979e-19)
(-2.4049446e-05 0.00056139146 5.3341877e-22)
(-9.632567e-05 0.0017236837 -5.296663e-20)
(-0.00020423233 0.0029905299 4.7145368e-20)
(-0.00036050862 0.0043716607 -1.2856769e-20)
(-0.00057669622 0.0058767394 -2.6568651e-20)
(-0.00086862098 0.0075147765 5.0790505e-20)
(-0.0012557466 0.0092936487 -5.2975711e-20)
(-0.0017616411 0.011219441 4.6656293e-21)
(-0.0024147502 0.013295641 -1.4578622e-20)
(-0.0032491549 0.015522168 -2.4642672e-22)
(-0.0043053185 0.017894243 -4.8785912e-20)
(-0.0056307812 0.020401115 7.7636346e-20)
(-0.0072807214 0.023024681 6.4234671e-21)
(-0.0093182755 0.025738098 -6.3524757e-20)
(-0.011814481 0.028504519 1.9552582e-20)
(-0.014847673 0.031276168 1.2444076e-20)
(-0.01850214 0.033994031 -7.9116869e-20)
(-0.022865882 0.036588505 2.5832234e-19)
(-0.028027339 0.03898141 -1.6207975e-19)
(-0.034071081 0.041089659 1.9453914e-19)
(-0.041072593 0.042830747 -2.8785138e-19)
(-0.049092551 0.044129804 7.0657998e-20)
(-0.05817129 0.044927355 2.9141114e-20)
(-0.068324673 0.045186195 -9.5277435e-20)
(-0.07954058 0.044895478 3.426654e-19)
(-0.091774669 0.044069861 5.1082503e-20)
(-0.10495733 0.042742054 -2.6467458e-19)
(-0.11898843 0.040955195 2.9657313e-19)
(-0.13373102 0.038753826 -4.0811249e-20)
(-0.14901633 0.036177562 -3.9926487e-19)
(-0.16463199 0.033259297 4.1454819e-20)
(-0.18031722 0.030026019 3.1776698e-19)
(-0.19575619 0.026499834 7.9859093e-21)
(-0.21057123 0.022698451 -2.3805246e-19)
(-0.22431553 0.018634042 2.665683e-19)
(-0.2364617 0.014310699 -1.2050787e-19)
(-0.2463897 0.0097215816 1.4247459e-19)
(-0.25336865 0.0048465613 4.5509088e-19)
(-0.25653125 -0.00034878526 1.023659e-19)
(-0.25484554 -0.0059095349 4.017163e-19)
(-0.24708451 -0.011883488 -5.1623215e-19)
(-0.23181007 -0.018301227 -4.7616827e-19)
(-0.20739409 -0.025136614 -8.1657063e-20)
(-0.17205793 -0.032262813 6.5250579e-19)
(-0.12427709 -0.03941837 -3.0856807e-19)
(-0.062897775 -0.046001718 -1.0683492e-19)
(0.012230595 -0.051305817 5.7097137e-20)
(0.099668067 -0.054642749 1.7740567e-19)
(0.19631799 -0.055313386 -8.6422528e-20)
(0.29743112 -0.052992958 1.5577709e-19)
(0.39709859 -0.047844056 9.3225013e-19)
(0.48974951 -0.040748496 4.4233096e-20)
(0.57141475 -0.032965564 -1.9779901e-19)
(0.64087152 -0.025745684 4.3653043e-19)
(0.69914276 -0.019727341 -3.6969512e-19)
(0.74822625 -0.0150038 1.040234e-18)
(0.79019071 -0.011332026 2.9430406e-19)
(0.82644433 -0.0083564796 -8.2229789e-19)
(0.85782617 -0.0058129203 1.3868125e-19)
(0.88462277 -0.0035207895 1.5732667e-19)
(0.90704898 -0.0014914194 3.1427289e-20)
(0.92537858 0.00031738474 -4.1653493e-19)
(0.93990324 0.0017441762 8.1097575e-19)
(0.95165719 0.002955968 2.4278137e-19)
(0.96035103 0.0037664332 4.0349838e-19)
(-7.0581444e-05 0.0010073657 2.9402044e-20)
(-0.00023815595 0.0030933974 -1.6000832e-20)
(-0.00044896517 0.0053675232 -4.2564839e-21)
(-0.00071590328 0.0078475274 4.0373728e-21)
(-0.0010509943 0.010550943 -1.9571909e-20)
(-0.0014702679 0.013494226 -1.4556791e-21)
(-0.0019931808 0.016691861 -1.8615132e-20)
(-0.0026430317 0.020155207 -2.0071075e-20)
(-0.0034476465 0.023891047 1.6419672e-19)
(-0.0044400476 0.027899871 -1.467634e-19)
(-0.0056591068 0.032173847 7.0325926e-20)
(-0.0071501419 0.036694525 1.0320123e-19)
(-0.008965393 0.041430359 -2.0502597e-19)
(-0.011164264 0.046334169 -2.5430299e-20)
(-0.01381323 0.051340827 9.8427858e-20)
(-0.016985238 0.056365502 6.783828e-20)
(-0.020758462 0.061302984 -7.8888143e-20)
(-0.025214218 0.066028705 2.8640278e-19)
(-0.030433993 0.070402166 -1.6979718e-19)
(-0.036495521 0.074273381 8.421095e-20)
(-0.043468057 0.077492619 -2.8480314e-19)
(-0.051407168 0.079923079 -7.4277284e-20)
(-0.060349635 0.081454985 1.5531219e-19)
(-0.070309549 0.082018359 -2.3415523e-19)
(-0.081275327 0.081590818 -9.2297799e-20)
(-0.093203953 0.080196706 1.110327e-19)
(-0.10602856 0.077894267 6.3080739e-19)
(-0.11965314 0.074760978 2.8553334e-19)
(-0.13394393 0.070877358 -1.4274351e-19)
(-0.14873585 0.066315038 1.5283735e-19)
(-0.16382025 0.061133223 -9.5868402e-20)
(-0.17894021 0.055379551 -5.4388627e-19)
(-0.19378429 0.049092677 1.8273423e-19)
(-0.20797951 0.042302291 5.4791448e-19)
(-0.22108383 0.035027828 -1.8393026e-19)
(-0.23257596 0.027273596 -2.5899404e-19)
(-0.24184216 0.019023039 4.5168512e-19)
(-0.24815712 0.01023388 1.3872773e-19)
(-0.25065847 0.00083619288 -2.4883695e-19)
(-0.24831582 -0.0092634203 -1.0058144e-19)
(-0.23989583 -0.020164318 4.8650881e-19)
(-0.22394261 -0.031934781 -1.3860618e-19)
(-0.19879794 -0.044537267 -2.0217832e-19)
(-0.1626711 -0.057732594 -5.4282237e-19)
(-0.1139236 -0.071003343 1.0370862e-18)
(-0.051436968 -0.083377842 -6.7401019e-19)
(0.024914338 -0.093523029 -1.706586e-19)
(0.11359171 -0.10005056 -6.7703159e-19)
(0.2112976 -0.10173015 -8.1303616e-19)
(0.31306015 -0.097915548 -4.1384224e-20)
(0.41275363 -0.088888073 1.7447265e-19)
(0.5047022 -0.07627376 -1.2800352e-18)
(0.5849719 -0.062397234 -5.4333508e-19)
(0.65249991 -0.049580052 -5.5520413e-19)
(0.70856356 -0.039003611 -1.8119789e-19)
(0.75542548 -0.030824563 -1.3911116e-18)
(0.79535974 -0.024567504 5.4859268e-19)
(0.82989065 -0.01955541 -1.657683e-19)
(0.85991583 -0.015284418 -1.3525424e-18)
(0.88572362 -0.011413943 -5.3527907e-19)
(0.90751846 -0.0079505888 6.3561182e-19)
(0.92549524 -0.0048230338 2.1836957e-18)
(0.93989272 -0.0023210827 -6.9744179e-19)
(0.95161279 -0.00017346086 -1.1242908e-18)
(0.96038381 0.0012777171 -4.8160368e-19)
(-0.00014109687 0.0014339909 -9.8405801e-20)
(-0.00045312272 0.0044043944 1.1527512e-19)
(-0.00081991223 0.0076436545 -4.169282e-20)
(-0.0012546089 0.0111775 4.5341681e-21)
(-0.0017699641 0.015031242 -8.9674511e-20)
(-0.0023823172 0.019228818 9.2836661e-20)
(-0.0031111216 0.023791477 -1.4091986e-19)
(-0.0039792739 0.028736176 6.6361577e-20)
(-0.0050136684 0.034073527 2.5256155e-19)
(-0.0062457361 0.039805371 -6.0809089e-20)
(-0.0077119514 0.045921893 -2.3194894e-19)
(-0.0094542789 0.052398347 7.094545e-20)
(-0.011520512 0.059191471 4.7543317e-21)
(-0.013964409 0.066235814 -1.8652954e-19)
(-0.016845517 0.073440292 5.8530246e-19)
(-0.020228596 0.080685496 -3.605428e-19)
(-0.02418247 0.087822463 -3.4485241e-21)
(-0.028778211 0.094673795 2.0100988e-19)
(-0.034086601 0.10103818 -5.1277214e-19)
(-0.040174761 0.10669924 2.4319724e-19)
(-0.047102175 0.11143917 3.6457061e-19)
(-0.054916276 0.11505688 1.4838374e-19)
(-0.063648026 0.11738853 -7.3804816e-19)
(-0.073308396 0.11832663 -3.8772988e-19)
(-0.083886101 0.11783234 2.5195184e-19)
(-0.095340117 0.11593604 -1.4766366e-19)
(-0.1076075 0.11272083 5.5608666e-19)
(-0.12059809 0.10829667 -1.6048083e-19)
(-0.13418315 0.10278115 4.3482149e-19)
(-0.1482031 0.096279921 -2.4703767e-19)
(-0.16245506 0.088879791 1.5356301e-19)
(-0.17668847 0.080650188 -5.6684031e-19)
(-0.19059912 0.071646667 8.1963399e-20)
(-0.20382225 0.061912008 -4.3516174e-19)
(-0.2159255 0.051473229 4.1990349e-19)
(-0.22639976 0.040334989 1.3535217e-19)
(-0.23464471 0.028470865 -1.7047964e-18)
(-0.23995022 0.015815051 -4.4876842e-19)
(-0.24146871 0.0022583465 3.7546323e-19)
(-0.23818054 -0.012346547 -3.7218336e-19)
(-0.22885403 -0.028160628 9.6376456e-20)
(-0.21201277 -0.045302134 6.1010582e-19)
(-0.18594238 -0.063742107 -2.8667207e-20)
(-0.14876753 -0.083153448 -2.0776183e-19)
(-0.098741968 -0.10273669 1.0144336e-19)
(-0.034706497 -0.1210591 -5.1197207e-20)
(0.043331808 -0.13615866 -1.4868466e-19)
(0.13361522 -0.14592216 2.3028943e-18)
(0.23251073 -0.14853421 -2.579982e-19)
(0.33476642 -0.14303818 2.3897828e-19)
(0.43404583 -0.12985903 -2.243866e-18)
(0.52468237 -0.11142396 1.225382e-18)
(0.60294263 -0.091171979 1.0026733e-18)
(0.66799533 -0.072551889 9.5038782e-19)
(0.72139399 -0.057330724 9.0776268e-19)
(0.76562255 -0.045727027 1.4124511e-18)
(0.80311626 -0.037004013 -2.7996326e-18)
(0.83549764 -0.030123369 1.7096196e-18)
(0.86373657 -0.024306636 2.576312e-18)
(0.8881434 -0.019028503 -1.8806402e-18)
(0.90894839 -0.014272055 -5.9816643e-19)
(0.92627778 -0.0099258717 -5.2088505e-19)
(0.94033723 -0.0064049057 2.6513367e-18)
(0.95185934 -0.0033439571 1.9477814e-18)
(0.96055512 -0.0012393069 -8.5788988e-20)
(-0.00023325002 0.0018287998 6.9236157e-20)
(-0.00073416049 0.0056186753 -1.6918719e-19)
(-0.0013049794 0.0097533735 1.3797845e-19)
(-0.0019592129 0.01426633 -5.2165711e-20)
(-0.0027105765 0.01919042 -1.88559e-20)
(-0.0035758449 0.024557025 1.623677e-19)
(-0.0045745041 0.030394306 -4.1161032e-20)
(-0.0057289716 0.036725211 -8.7489869e-20)
(-0.0070649819 0.043564896 -6.7222132e-21)
(-0.0086119493 0.050917653 -5.7193264e-20)
(-0.010403285 0.058773241 8.0242165e-20)
(-0.012476652 0.067102686 -5.5903383e-20)
(-0.0148741 0.075853645 -2.0656189e-19)
(-0.017642051 0.084945574 -6.0215068e-21)
(-0.020831027 0.094265101 1.5902588e-19)
(-0.024495028 0.10366225 1.1313856e-19)
(-0.028690536 0.11294837 -9.78422e-20)
(-0.033474992 0.12189699 9.4496835e-21)
(-0.038904749 0.13024892 1.9302872e-19)
(-0.045032474 0.13772289 2.3670827e-19)
(-0.051904117 0.14403259 -2.7198662e-19)
(-0.059555557 0.14890987 -2.7553528e-19)
(-0.06800921 0.15213172 3.7320336e-19)
(-0.077271089 0.15354627 -4.6464375e-19)
(-0.087328777 0.15309096 -8.0947796e-19)
(-0.098145144 0.15079593 1.9167747e-18)
(-0.10966095 0.14676588 -1.0591833e-18)
(-0.12179217 0.14114251 1.5738746e-18)
(-0.13441923 0.13408166 -1.9719186e-18)
(-0.14738882 0.12572574 2.2064296e-18)
(-0.16050682 0.11619153 -2.2867265e-18)
(-0.1735319 0.10557217 3.8597625e-19)
(-0.18617047 0.093941694 1.3371275e-18)
(-0.19807066 0.081357058 -7.5710349e-19)
(-0.20881557 0.067853926 2.3784653e-19)
(-0.21791439 0.053438184 6.9941434e-20)
(-0.2247884 0.038073411 8.6654226e-19)
(-0.22875095 0.021668244 2.8442588e-19)
(-0.2289772 0.0040690731 2.8838948e-19)
(-0.22446142 -0.014936247 2.878447e-19)
(-0.2139626 -0.03558851 -1.4771284e-18)
(-0.19595478 -0.058082417 6.5277934e-19)
(-0.16861692 -0.082419441 1.0465979e-19)
(-0.12992914 -0.10818744 -1.2131128e-18)
(-0.078019763 -0.1342899 -6.1826254e-19)
(-0.011746269 -0.15875817 3.0571605e-19)
(0.068595323 -0.17890168 1.1123564e-18)
(0.16074659 -0.19185152 -4.8568933e-19)
(0.26060874 -0.19523806 1.4170309e-18)
(0.36267552 -0.18783866 7.7010116e-19)
(0.46049983 -0.17026723 1.0610719e-18)
(0.54864206 -0.1458205 2.8378039e-18)
(0.62384519 -0.11905734 -2.1825559e-18)
(0.6856832 -0.094553499 7.0705422e-19)
(0.73603757 -0.074666689 -1.2058334e-18)
(0.77751572 -0.059667501 -1.1361975e-18)
(0.81255081 -0.048556164 -4.4055646e-19)
(0.84272947 -0.039929387 -3.9799831e-18)
(0.86904164 -0.032722044 -1.0629245e-18)
(0.89182311 -0.026206279 2.4173652e-18)
(0.91138048 -0.020318509 9.108857e-19)
(0.92780486 -0.014887099 -6.7986889e-19)
(0.94132481 -0.010437334 -1.4058283e-18)
(0.95248359 -0.0065126054 -2.1892424e-18)
(0.96106382 -0.0037705591 1.6693657e-19)
(-0.00034324542 0.0021793857 2.1074913e-19)
(-0.0010698073 0.0066984126 5.472647e-20)
(-0.0018844848 0.011631379 -4.4331244e-20)
(-0.0028012869 0.017019031 -1.6376299e-19)
(-0.0038350988 0.022901457 8.9776319e-20)
(-0.0050032667 0.029317344 -1.2931143e-19)
(-0.0063253758 0.036301864 5.6001798e-20)
(-0.0078233513 0.043884386 1.3353188e-20)
(-0.0095216382 0.05208545 -7.5687155e-20)
(-0.011447356 0.060913158 -1.6339986e-19)
(-0.01363038 0.070358818 -8.2171977e-21)
(-0.01610336 0.080391914 2.6992317e-19)
(-0.01890162 0.090954482 -3.7461708e-19)
(-0.022062909 0.10195514 6.0727118e-19)
(-0.025626974 0.11326323 -1.5944328e-19)
(-0.029634917 0.12470375 3.4060736e-19)
(-0.034128232 0.13605419 -4.144374e-19)
(-0.039147643 0.14704459 2.7110664e-19)
(-0.044731569 0.15736252 -4.3184281e-20)
(-0.050914367 0.16666475 -1.7670534e-19)
(-0.057724471 0.17459687 4.3356823e-19)
(-0.065182355 0.18082087 -6.1797135e-19)
(-0.073298441 0.18504847 6.786732e-19)
(-0.08207112 0.1870746 1.1771511e-19)
(-0.091485126 0.18680295 -1.1663521e-18)
(-0.10150709 0.18425387 1.1889555e-18)
(-0.11208162 0.17954674 -7.7887132e-19)
(-0.12313251 0.17285486 8.800691e-19)
(-0.13455217 0.16437377 8.4352841e-20)
(-0.14619522 0.15428642 5.2928886e-20)
(-0.15787865 0.1427438 -3.5528263e-19)
(-0.16937318 0.12986568 2.396941e-20)
(-0.18039947 0.11574678 -1.354682e-18)
(-0.19062239 0.10045962 3.687932e-19)
(-0.19964488 0.08405036 1.1111519e-18)
(-0.20699928 0.066527158 -5.2204432e-19)
(-0.21213301 0.047843528 4.3235253e-19)
(-0.21438562 0.02787957 -4.380395e-19)
(-0.21295166 0.0064280651 -2.4579254e-18)
(-0.20682519 -0.016805724 1.3698394e-18)
(-0.19472483 -0.042171637 3.383141e-19)
(-0.1750224 -0.069974401 -1.9315672e-18)
(-0.14572675 -0.10027105 1.1092559e-19)
(-0.10463664 -0.13254979 2.3756837e-19)
(-0.049806751 -0.16535092 2.602309e-18)
(0.019690648 -0.19605514 6.0422254e-19)
(0.10294644 -0.22114924 -9.5303345e-19)
(0.19690273 -0.23703868 -9.7410307e-19)
(0.29696582 -0.24092394 -1.3851113e-18)
(0.39757924 -0.23138905 -1.7086542e-18)
(0.49237445 -0.20927136 -1.0396833e-18)
(0.57638841 -0.17879751 -1.6101897e-18)
(0.64711764 -0.14562666 5.4357826e-19)
(0.70474489 -0.11539304 -3.3619806e-18)
(0.75155396 -0.090997762 -2.274848e-19)
(0.79018322 -0.07271575 -1.8928858e-19)
(0.82287239 -0.059288228 -1.0697514e-19)
(0.85098242 -0.04898334 4.3014079e-18)
(0.8754186 -0.040479936 1.6777308e-18)
(0.89651307 -0.032855999 -2.5741068e-18)
(0.91468571 -0.025983969 -3.6808272e-18)
(0.93002356 -0.019608084 -1.6450622e-18)
(0.94283358 -0.014336983 -5.3328328e-19)
(0.95346622 -0.009626068 3.1199333e-18)
(0.96179793 -0.0062880375 -7.8440792e-19)
(-0.00046578219 0.0024741612 -3.976138e-20)
(-0.0014444291 0.0076080737 -9.2937374e-20)
(-0.0025313398 0.013216228 2.244168e-19)
(-0.003741672 0.019346008 -8.3499429e-21)
(-0.0050914548 0.026044227 -1.0940703e-19)
(-0.006598749 0.033356599 -4.8264395e-20)
(-0.0082833466 0.041325303 -3.56758e-20)
(-0.010166724 0.049986518 7.0398046e-20)
(-0.012272016 0.059367049 -3.6504168e-19)
(-0.01462393 0.06948032 2.7603292e-19)
(-0.017248569 0.08032146 -1.3381983e-20)
(-0.020173165 0.091861573 -1.6797985e-19)
(-0.02342569 0.10404123 6.3077359e-19)
(-0.027034341 0.11676343 -6.3145786e-19)
(-0.031026894 0.12988644 8.4571473e-20)
(-0.035429899 0.14321737 5.2642907e-19)
(-0.040267792 0.15650746 -4.9855409e-19)
(-0.045561944 0.16945081 1.7567301e-19)
(-0.0513297 0.18168853 -3.4430987e-19)
(-0.057583429 0.19282027 4.4619562e-19)
(-0.064329972 0.20242537 8.4631654e-19)
(-0.07157005 0.21009379 -8.4648555e-19)
(-0.079297859 0.21546527 -1.2524664e-18)
(-0.087500578 0.21827089 2.4383228e-18)
(-0.096157293 0.21836726 -1.9710157e-18)
(-0.10523679 0.2157518 1.1516539e-18)
(-0.11468812 0.21054963 -2.9844846e-19)
(-0.12444411 0.20296592 7.0853868e-19)
(-0.13441103 0.19323334 -7.2796715e-19)
(-0.14445406 0.18157909 -9.8487058e-19)
(-0.15440368 0.16819438 6.5690849e-19)
(-0.16404403 0.15323232 1.0929653e-18)
(-0.17311198 0.13681098 -9.6301075e-20)
(-0.18129136 0.11902031 -4.0133896e-20)
(-0.18820636 0.099918388 -7.1358975e-19)
(-0.19341299 0.079516761 3.1143362e-19)
(-0.19638226 0.05775774 1.1479437e-18)
(-0.19647197 0.034487631 5.8243985e-19)
(-0.19287881 0.00943246 -8.9742651e-19)
(-0.18456488 -0.017809711 7.1264136e-19)
(-0.17015894 -0.0477311 -6.1200112e-19)
(-0.14787222 -0.080781239 2.0286648e-19)
(-0.11550308 -0.11708172 7.8948846e-19)
(-0.070696921 -0.15597453 -1.9065207e-18)
(-0.011608803 -0.19552027 -1.1384438e-18)
(0.062129443 -0.23230408 -7.4607282e-19)
(0.14858952 -0.26193863 2.3634937e-18)
(0.24370708 -0.28025895 1.536489e-18)
(0.34256376 -0.28428288 1.8027891e-18)
(0.43992344 -0.27245941 3.1424903e-18)
(0.52976422 -0.24581207 -1.0840016e-18)
(0.60781601 -0.20952502 2.2878738e-19)
(0.67253247 -0.17032078 1.7884206e-18)
(0.72489117 -0.13477699 5.2038255e-18)
(0.76761031 -0.10624366 3.3986425e-18)
(0.80324577 -0.084921783 1.3268715e-18)
(0.83366941 -0.069292649 3.8434203e-18)
(0.85985258 -0.057356301 -2.596758e-18)
(0.88251853 -0.047602517 2.7499664e-19)
(0.90195113 -0.038953589 4.1638131e-18)
(0.91869559 -0.031215122 2.8100705e-18)
(0.93284242 -0.024026222 1.2720265e-19)
(0.94483275 -0.018046151 -4.4857878e-18)
(0.9548211 -0.012634626 4.7905621e-19)
(0.96285611 -0.0087347898 -6.769191e-19)
(-0.00059441347 0.0027025268 -1.5680544e-19)
(-0.0018380931 0.0083151384 7.775977e-20)
(-0.0032113853 0.014451459 -1.0508758e-19)
(-0.004730806 0.021164688 -5.9760727e-20)
(-0.0064135951 0.028507672 1.6688779e-19)
(-0.0082786398 0.036532691 1.5592738e-19)
(-0.010346038 0.04528877 -1.6018025e-19)
(-0.012636926 0.054819162 1.9300801e-20)
(-0.01517321 0.065157764 4.4764584e-21)
(-0.017977245 0.076324852 3.188672e-19)
(-0.021071373 0.088321786 -3.5063669e-20)
(-0.024477347 0.10112475 -6.4662611e-19)
(-0.028215617 0.11467752 5.1894463e-19)
(-0.032304483 0.12888343 -1.7972239e-20)
(-0.036759156 0.14359702 -3.512759e-19)
(-0.041590735 0.15861601 -3.0419593e-20)
(-0.046805244 0.17367486 7.7943501e-20)
(-0.052402785 0.18844155 3.5417499e-19)
(-0.058377 0.20251984 -6.5488609e-19)
(-0.064715019 0.21545972 1.1630929e-18)
(-0.071397997 0.22677839 -2.5356679e-19)
(-0.078402281 0.23599322 1.8830029e-19)
(-0.08570098 0.24266576 -1.5649301e-19)
(-0.093265342 0.24645116 6.6931244e-21)
(-0.10106507 0.24714275 -9.4687962e-19)
(-0.10906693 0.24469786 -9.5236333e-19)
(-0.11722731 0.23923257 1.8998329e-18)
(-0.12548597 0.23097791 3.1859599e-19)
(-0.13376139 0.22020742 -1.1152894e-18)
(-0.14193658 0.20719511 -3.9823137e-19)
(-0.1498535 0.19217851 -9.0804206e-19)
(-0.15731357 0.17534648 1.0288923e-18)
(-0.16406767 0.15685031 4.5322571e-19)
(-0.16981749 0.13679902 -1.0581722e-18)
(-0.17420615 0.11526345 4.4749969e-19)
(-0.17680721 0.092259013 2.1707636e-19)
(-0.17710421 0.067714568 -6.3228806e-19)
(-0.17445381 0.041434829 -1.6741983e-18)
(-0.16802394 0.013063255 -5.1536364e-19)
(-0.15670003 -0.017935313 3.444215e-19)
(-0.1389701 -0.052228116 8.2595231e-19)
(-0.11284491 -0.090431972 8.6305435e-19)
(-0.075932997 -0.13271448 9.6236865e-19)
(-0.025871345 -0.17818044 2.0302277e-18)
(0.038774461 -0.22425493 -5.9599558e-20)
(0.11739031 -0.26659202 8.6107347e-19)
(0.20670098 -0.29997976 -4.7440262e-18)
(0.30169231 -0.31997157 -1.3178033e-18)
(0.39746 -0.32375838 -1.5066802e-18)
(0.48945135 -0.30967982 -4.175768e-18)
(0.57229516 -0.27874834 4.8755669e-18)
(0.64258876 -0.23715517 -1.0830607e-18)
(0.69984578 -0.19255829 -3.4636435e-18)
(0.74600844 -0.1523765 -4.2169154e-18)
(0.78417957 -0.12026616 -5.2556714e-19)
(0.81667025 -0.096266602 1.3380109e-18)
(0.84483048 -0.07860836 2.136807e-18)
(0.86914357 -0.065099396 -9.0360037e-19)
(0.89010632 -0.054123802 1.6051154e-18)
(0.90792026 -0.044503372 -1.3053035e-18)
(0.92324583 -0.035986786 -4.4082037e-19)
(0.93615585 -0.02809892 -1.2912043e-18)
(0.94726029 -0.021516462 5.6034679e-18)
(0.95650441 -0.015501409 1.8917851e-19)
(0.96415002 -0.01109975 2.2136766e-18)
(-0.00072149747 0.0028555994 1.4709683e-19)
(-0.0022274282 0.008792228 2.895285e-20)
(-0.0038843925 0.015289337 -3.182682e-20)
(-0.0057102885 0.02240493 -1.5650166e-19)
(-0.0077235966 0.03019696 1.8780093e-19)
(-0.009944097 0.038723581 -1.5958437e-19)
(-0.012392299 0.048040274 -7.6333061e-20)
(-0.015089127 0.05819741 4.0994385e-21)
(-0.018055444 0.069236594 6.4595765e-20)
(-0.021311483 0.081186337 3.6791441e-19)
(-0.024876099 0.094056564 -6.189083e-19)
(-0.028765872 0.10783204 7.4532524e-19)
(-0.032994032 0.12246459 -2.1947997e-19)
(-0.037569251 0.13786436 -2.9885555e-19)
(-0.042494329 0.15389022 4.6016714e-19)
(-0.04776486 0.17034027 -9.1134836e-19)
(-0.053367989 0.18694334 1.1106851e-18)
(-0.059281623 0.2033533 1.7588273e-20)
(-0.065473982 0.21914864 6.4548279e-19)
(-0.071904337 0.23384032 -2.5837114e-18)
(-0.078524445 0.24689094 6.3145875e-19)
(-0.085281615 0.25774778 2.6385609e-18)
(-0.092122262 0.26588983 -1.2600323e-18)
(-0.098995829 0.27088429 -1.5186332e-18)
(-0.10585726 0.27244262 3.8551852e-19)
(-0.11266665 0.27046005 2.0364916e-18)
(-0.11938442 0.26502234 -3.1103513e-18)
(-0.1259589 0.25636954 3.4742319e-18)
(-0.13231976 0.24481995 -2.7527523e-18)
(-0.13836724 0.2306983 5.299615e-19)
(-0.14395912 0.21429649 -9.1543118e-19)
(-0.14890754 0.195848 -1.3115998e-18)
(-0.15298269 0.1755349 5.1743515e-19)
(-0.15589441 0.15349648 1.333146e-19)
(-0.15729871 0.12981664 1.9496051e-18)
(-0.15677375 0.10451317 -3.7896053e-19)
(-0.15379608 0.077497888 9.8731508e-19)
(-0.1476922 0.048525664 -8.4845025e-19)
(-0.13756175 0.017142301 4.9937146e-19)
(-0.12216903 -0.017341554 3.331724e-19)
(-0.099828086 -0.05578737 2.900173e-19)
(-0.068367761 -0.098975415 2.867577e-19)
(-0.025334196 -0.14706638 -1.7707165e-18)
(0.031365441 -0.19880615 -1.4131608e-18)
(0.102351 -0.25083764 3.9532755e-19)
(0.18567078 -0.29782953 -2.5932349e-19)
(0.27669424 -0.33389578 1.062777e-18)
(0.3698224 -0.35468396 -2.1382958e-18)
(0.46054699 -0.35786741 -2.4974503e-18)
(0.54515528 -0.34174226 -7.2602261e-19)
(0.61915308 -0.307139 -1.8897744e-18)
(0.68008033 -0.26090704 5.9530344e-20)
(0.72869361 -0.2118289 9.0088583e-19)
(0.76798472 -0.16789714 4.3624667e-18)
(0.80131641 -0.13291494 -2.1657438e-18)
(0.8305439 -0.10668275 8.7351845e-19)
(0.85637349 -0.087217055 -2.4840957e-18)
(0.87877564 -0.072224802 4.1346333e-18)
(0.89803584 -0.060068256 -2.3356233e-18)
(0.91425835 -0.049523806 8.0061246e-19)
(0.92819693 -0.040299155 -5.5797519e-21)
(0.9398656 -0.03180738 6.1385822e-19)
(0.95006174 -0.024717487 2.286479e-18)
(0.95851055 -0.018186858 -4.2864519e-18)
(0.96572566 -0.013328545 4.3538504e-18)
(-0.00083863189 0.0029271346 -3.2823659e-19)
(-0.002586792 0.009019858 -1.658536e-19)
(-0.0045061102 0.015695559 2.6049774e-19)
(-0.0066157911 0.023015815 -6.8601852e-21)
(-0.0089355011 0.031042523 -2.3583795e-19)
(-0.011485921 0.039838738 -1.2342513e-19)
(-0.014288028 0.0494657 2.6047276e-19)
(-0.017362693 0.0599806 -4.2821731e-20)
(-0.020729987 0.071433016 6.0498796e-19)
(-0.024408394 0.0838607 -1.1818183e-19)
(-0.028413795 0.097284118 -3.0395797e-21)
(-0.032758252 0.1116998 4.373311e-19)
(-0.037448578 0.12707234 -1.4072586e-18)
(-0.042484719 0.14332506 6.5901279e-19)
(-0.047858004 0.16032959 1.1877159e-18)
(-0.053549397 0.17789487 -1.2746208e-18)
(-0.059527892 0.1957566 1.5821379e-19)
(-0.065749322 0.21356872 -9.0701126e-19)
(-0.072156105 0.23089946 -6.8080759e-19)
(-0.078677922 0.2472352 2.1666271e-18)
(-0.085234452 0.26199604 -1.646983e-18)
(-0.091739406 0.27456627 2.1962705e-18)
(-0.098106573 0.28434188 -2.6145162e-19)
(-0.10425656 0.29079228 1.0819971e-18)
(-0.11012222 0.29352741 -2.3803888e-18)
(-0.11565054 0.29235355 5.701593e-19)
(-0.12079921 0.28729763 1.4532568e-18)
(-0.1255253 0.2785845 -3.5409707e-18)
(-0.12976984 0.26656577 1.549521e-18)
(-0.13344601 0.25162499 1.6798608e-18)
(-0.13642795 0.23411411 -1.3965552e-18)
(-0.1385431 0.21432605 -1.8791554e-19)
(-0.1395636 0.1924809 9.5034027e-19)
(-0.13921352 0.16874458 -5.2897236e-19)
(-0.13714237 0.14322081 8.1968551e-19)
(-0.13291803 0.11592764 -2.905372e-18)
(-0.12598349 0.086755879 1.5425703e-18)
(-0.11560221 0.055404064 9.3947317e-19)
(-0.10076765 0.021311955 1.952073e-18)
(-0.080094803 -0.016369505 2.6936912e-19)
(-0.051738407 -0.058686021 -2.1228654e-18)
(-0.013450871 -0.10654139 8.6141983e-19)
(0.037037814 -0.16000462 1.2809479e-18)
(0.10117218 -0.21736144 1.9464703e-19)
(0.17837599 -0.27440686 -1.2811576e-18)
(0.26527171 -0.32489593 -1.1341316e-18)
(0.35628069 -0.3625222 3.472096e-18)
(0.44565797 -0.38325698 1.8469374e-18)
(0.52969485 -0.38558286 4.022284e-18)
(0.60535178 -0.36774966 1.4142089e-18)
(0.66913704 -0.33005982 5.4966292e-19)
(0.71945527 -0.28018029 4.0436668e-18)
(0.75858588 -0.22774177 1.5659286e-18)
(0.79065848 -0.18111581 -5.2443816e-18)
(0.81905257 -0.1440549 4.1542941e-18)
(0.84493922 -0.116077 -3.7541801e-18)
(0.86832225 -0.095058751 1.7774285e-18)
(0.88870378 -0.07870866 -8.4116131e-18)
(0.90621299 -0.06544077 -4.1240051e-18)
(0.92085156 -0.054030626 1.6362468e-18)
(0.93344015 -0.04416048 2.5094972e-18)
(0.94388532 -0.035145695 4.1330896e-18)
(0.95317875 -0.027630428 7.2159951e-19)
(0.96078522 -0.020670703 5.5602539e-19)
(0.96749855 -0.015419402 -5.8198476e-18)
(-0.0009372795 0.0029144768 -5.945491e-21)
(-0.0028900661 0.0089893649 3.1068335e-19)
(-0.0050313887 0.015654324 -3.6641543e-19)
(-0.0073815793 0.022973064 -1.7642017e-19)
(-0.0099613233 0.031010011 3.5358993e-19)
(-0.012792117 0.039831842 1.1461813e-19)
(-0.015895415 0.049504477 -5.5643486e-19)
(-0.019292157 0.060091183 5.9953402e-19)
(-0.023001905 0.071649243 1.2666081e-19)
(-0.027041866 0.084226054 5.0478606e-19)
(-0.03142564 0.097853926 -1.3434793e-18)
(-0.036161722 0.11254364 -1.6395802e-20)
(-0.041251725 0.12827652 1.2138187e-18)
(-0.046688365 0.14499488 -1.3081544e-18)
(-0.05245323 0.1625911 9.4093114e-19)
(-0.058514508 0.18089544 3.5085229e-19)
(-0.064824893 0.19966355 -7.3790976e-19)
(-0.07131982 0.21856511 6.7097849e-19)
(-0.077916705 0.2371758 9.0109682e-19)
(-0.084515863 0.25497599 -1.9349406e-20)
(-0.09100304 0.27136071 -1.4495418e-18)
(-0.097254972 0.28566506 9.0613604e-19)
(-0.10314714 0.29720849 -5.1053501e-19)
(-0.10856344 0.30535821 -2.4953944e-18)
(-0.11340527 0.3096051 -8.4315101e-19)
(-0.11759739 0.30963665 2.3114167e-18)
(-0.12108665 0.30538439 -2.3306413e-19)
(-0.12383198 0.29702281 2.6542224e-18)
(-0.12578556 0.28490989 -1.5832856e-18)
(-0.12687397 0.26948487 8.4395894e-19)
(-0.12698457 0.25117426 -1.2336097e-18)
(-0.12595445 0.23033513 -3.0407856e-19)
(-0.12355904 0.20724576 1.5436768e-18)
(-0.11952075 0.18210579 -1.6086956e-18)
(-0.11347308 0.1550324 -2.3927937e-18)
(-0.10495215 0.12604397 2.3418625e-19)
(-0.093343575 0.095007216 2.6521225e-18)
(-0.0778182 0.061562983 -3.4425983e-18)
(-0.057240995 0.025050454 7.515424e-19)
(-0.030086387 -0.01551763 -1.6341323e-18)
(0.0055718314 -0.061322745 2.585796e-19)
(0.051864368 -0.11331215 -2.6194666e-18)
(0.11055732 -0.17137101 -1.268998e-18)
(0.18209864 -0.23326055 -1.6065912e-18)
(0.26456054 -0.29401519 6.5509769e-18)
(0.3533388 -0.34678024 2.1700379e-18)
(0.4423327 -0.38493252 -2.9057106e-18)
(0.52618294 -0.40513186 2.3830978e-18)
(0.60227737 -0.40639959 2.005411e-18)
(0.66807364 -0.38699533 -2.2670394e-18)
(0.72067112 -0.34698497 -1.1832525e-18)
(0.7596512 -0.29460029 -2.7534658e-18)
(0.78893304 -0.24006272 -1.3163722e-18)
(0.8138224 -0.1919047 4.4636326e-18)
(0.83735907 -0.15358344 2.4737068e-18)
(0.85985818 -0.12435249 3.951667e-19)
(0.88065454 -0.10205732 -8.2972351e-21)
(0.89887894 -0.084510647 2.0745566e-18)
(0.9145718 -0.070234765 -2.9474195e-18)
(0.92762363 -0.058035789 -3.7292142e-18)
(0.9388979 -0.047583645 -1.0244462e-18)
(0.94815032 -0.038116439 -7.6622572e-18)
(0.95655956 -0.030244304 -5.9851494e-18)
(0.96329422 -0.022926609 -1.511271e-18)
(0.96947856 -0.017333776 -7.9868232e-19)
(-0.0010096424 0.0028196475 2.0206298e-19)
(-0.0031133258 0.0087062852 1.3129824e-19)
(-0.0054187655 0.015174211 -2.7315103e-19)
(-0.0079471202 0.022287656 4.6835191e-19)
(-0.010719806 0.030111917 1.1728775e-19)
(-0.013758945 0.038715694 -5.0292776e-19)