/*--------------------------------*- C++ -*----------------------------------*\
  =========                 |
  \\      /  F ield         | OpenFOAM: The Open Source CFD Toolbox
   \\    /   O peration     | Website:  https://openfoam.org
    \\  /    A nd           | Version:  13
     \\/     M anipulation  |
\*---------------------------------------------------------------------------*/
FoamFile
{
    format      ascii;
    class       volScalarField;
    location    "35.495901";
    object      nut;
}
// * * * * * * * * * * * * * * * * * * * * * * * * * * * * * * * * * * * * * //

dimensions      [0 2 -1 0 0 0 0];

internalField   nonuniform List<scalar> 
17140
(
1.2604409e-18
2.4513903e-16
6.5293509e-15
6.619326e-14
4.0030433e-13
1.7734746e-12
6.4035878e-12
2.0037019e-11
5.6447001e-11
1.4682876e-10
3.588734e-10
8.3463606e-10
1.8643736e-09
4.0283968e-09
8.4662256e-09
1.7381942e-08
3.4984472e-08
6.922338e-08
1.3497097e-07
2.5981946e-07
4.945818e-07
9.3220983e-07
1.741696e-06
3.2284914e-06
5.9415183e-06
1.0861275e-05
1.9727061e-05
3.5597261e-05
6.3783704e-05
0.00011333855
0.00019922333
0.00034495868
0.00058460521
0.00096157863
0.0015212137
0.0022968986
0.0032955899
0.0044909644
0.0058276673
0.0072328024
0.0086293832
0.0099481945
0.011136337
0.012148108
0.012966953
0.013663275
0.014237973
0.014707517
0.015107588
0.015467552
0.01580812
0.016140231
0.016471326
0.016818496
0.017204867
0.017631782
0.018111496
0.018713134
0.019560896
0.020418558
0.020539761
0.018205448
0.011157872
0.006128627
0.007956357
1.2483899e-18
2.427951e-16
6.4669275e-15
6.5560699e-14
3.96482e-13
1.7565597e-12
6.3426015e-12
1.9846531e-11
5.5911491e-11
1.4543913e-10
3.5548609e-10
8.2678202e-10
1.8468891e-09
3.990761e-09
8.3874655e-09
1.7221017e-08
3.4662352e-08
6.8590006e-08
1.3374503e-07
2.5747968e-07
4.9017293e-07
9.2400002e-07
1.7265789e-06
3.2009564e-06
5.8919002e-06
1.077283e-05
1.957117e-05
3.5325783e-05
6.3317598e-05
0.000112547
0.00019789163
0.00034273491
0.00058100076
0.00095602048
0.0015131072
0.0022857324
0.0032810873
0.0044732504
0.0058073959
0.0072110874
0.0086077584
0.0099284781
0.011120766
0.012139163
0.012967195
0.013672778
0.014261014
0.014747432
0.015169342
0.01555883
0.015938818
0.016323318
0.016722727
0.017152889
0.017633187
0.018159069
0.018719497
0.019330375
0.019902422
0.020067457
0.019022739
0.015049921
0.0074352521
0.0039737474
0.00578652
1.2278282e-18
2.3879609e-16
6.3604132e-15
6.4480976e-14
3.8995386e-13
1.7276493e-12
6.2382709e-12
1.9520309e-11
5.4993271e-11
1.4305308e-10
3.4966093e-10
8.1325208e-10
1.8167109e-09
3.9256614e-09
8.2509014e-09
1.6941218e-08
3.4100518e-08
6.748127e-08
1.3158983e-07
2.5334562e-07
4.8233612e-07
9.0930095e-07
1.6992746e-06
3.1506907e-06
5.800148e-06
1.0606727e-05
1.9272843e-05
3.4793325e-05
6.2371681e-05
0.00011088407
0.0001950155
0.00033789418
0.00057312646
0.00094372177
0.0014948632
0.0022602457
0.0032476626
0.0044319223
0.0057588764
0.0071569265
0.0085501823
0.00986992
0.01106345
0.012085529
0.012919384
0.01363077
0.014227671
0.014725234
0.015161973
0.01557146
0.015979023
0.016402363
0.016853725
0.017348776
0.017902271
0.018499006
0.019100469
0.019683682
0.019933137
0.019524924
0.017454983
0.01248203
0.0064863722
0.0034064175
0.0043130334
1.1983303e-18
2.3305911e-16
6.2076073e-15
6.2931945e-14
3.8058747e-13
1.6861636e-12
6.088529e-12
1.9051973e-11
5.3674617e-11
1.3962518e-10
3.4128852e-10
7.9379565e-10
1.7732877e-09
3.8319252e-09
8.0541064e-09
1.6537636e-08
3.3289232e-08
6.587815e-08
1.2846872e-07
2.4734734e-07
4.709389e-07
8.8786291e-07
1.6593127e-06
3.0768064e-06
5.6645676e-06
1.0359504e-05
1.8824665e-05
3.3987071e-05
6.0935767e-05
0.00010835642
0.00019064069
0.0003304822
0.00056093755
0.00092450389
0.0014661534
0.0022199069
0.0031943181
0.0043654874
0.0056805973
0.0070690099
0.0084551814
0.0097704613
0.010961922
0.011984153
0.012819471
0.013532412
0.014131875
0.014633268
0.015075997
0.015494982
0.015917697
0.016363974
0.016848348
0.017387251
0.017990974
0.018628703
0.019232183
0.017851774
0.017240215
0.018479069
0.016337374
0.011076735
0.0071235912
0.0035888172
0.0032947946
1.1600509e-18
2.2561428e-16
6.0093131e-15
6.0921759e-14
3.6843212e-13
1.6323208e-12
5.8941624e-12
1.8443979e-11
5.196244e-11
1.3517336e-10
3.3041266e-10
7.6851453e-10
1.7168471e-09
3.7100446e-09
7.7981173e-09
1.6012409e-08
3.2232827e-08
6.3789308e-08
1.2439882e-07
2.3951841e-07
4.5604681e-07
8.5981347e-07
1.6069416e-06
2.9797827e-06
5.4860465e-06
1.0033353e-05
1.8233214e-05
3.2922556e-05
5.9036194e-05
0.00010500349
0.0001848022
0.00032052137
0.0005444522
0.00089835534
0.0014268475
0.0021643315
0.0031206807
0.0042736928
0.005572122
0.0069463108
0.0083212063
0.0096281034
0.010813643
0.011831933
0.012663792
0.013373245
0.013968118
0.014464709
0.014902901
0.015318593
0.015740809
0.016191199
0.016687002
0.017247861
0.017882476
0.018544069
0.017169915
0.015352293
0.014735632
0.016198851
0.015520583
0.010873593
0.0078543167
0.0038569969
0.0026147243
1.1134726e-18
2.1655544e-16
5.7680295e-15
5.8475737e-14
3.5364079e-13
1.5667983e-12
5.6576158e-12
1.7703973e-11
4.9878258e-11
1.2975357e-10
3.1716995e-10
7.3772622e-10
1.6480982e-09
3.5615525e-09
7.4861596e-09
1.5372177e-08
3.0944724e-08
6.1241476e-08
1.1943275e-07
2.2996157e-07
4.378592e-07
8.2553844e-07
1.5429083e-06
2.8610893e-06
5.2676601e-06
9.6342842e-06
1.7508791e-05
3.1616492e-05
5.6699497e-05
0.00010086169
0.0001775591
0.00030810904
0.00052381381
0.00086545945
0.0013771789
0.0020939108
0.0030270915
0.0041565794
0.0054329961
0.0067879573
0.0081469142
0.0094409472
0.010615956
0.011625353
0.01244886
0.013148487
0.013730267
0.014211854
0.014633008
0.015030013
0.015432667
0.015863472
0.016341873
0.016893241
0.0175239
0.017713871
0.014904749
0.013505928
0.013536325
0.015756761
0.014953531
0.011280446
0.0080705957
0.0038698189
0.0022302444
1.0595212e-18
2.0606266e-16
5.4885528e-15
5.5642498e-14
3.3650743e-13
1.4908977e-12
5.3835854e-12
1.6846635e-11
4.7463387e-11
1.2347313e-10
3.0182234e-10
7.0203893e-10
1.568397e-09
3.3893729e-09
7.1243657e-09
1.4629499e-08
2.9450136e-08
5.8284418e-08
1.1366734e-07
2.1886288e-07
4.1673022e-07
7.8570687e-07
1.4684711e-06
2.7230651e-06
5.0135307e-06
9.169418e-06
1.6663716e-05
3.0089967e-05
5.3961713e-05
9.5996924e-05
0.00016902869
0.00029344544
0.00049934454
0.00082630443
0.0013178234
0.0020093598
0.002914123
0.0040144162
0.0052631418
0.006593426
0.0079312589
0.0092073252
0.010366217
0.011359263
0.01217249
0.012852907
0.013411446
0.013865904
0.014255011
0.014614617
0.014974243
0.015355984
0.015782265
0.016287185
0.01687498
0.015321414
0.013176684
0.012568795
0.013616089
0.016671059
0.014505734
0.011335763
0.0075638348
0.0032628322
0.0018179453
9.9923366e-19
1.9433756e-16
5.1762527e-15
5.247649e-14
3.1736145e-13
1.4060791e-12
5.0773474e-12
1.588849e-11
4.4764435e-11
1.1645344e-10
2.846671e-10
6.6214552e-10
1.4792949e-09
3.1968676e-09
6.7198217e-09
1.3798971e-08
2.7778541e-08
5.4976635e-08
1.0721688e-07
2.0644244e-07
3.9307749e-07
7.4109882e-07
1.3850598e-06
2.5682824e-06
4.7282802e-06
8.6470636e-06
1.5713011e-05
2.8370503e-05
5.0873999e-05
9.0502621e-05
0.00015937773
0.00027681785
0.00047151138
0.00078157713
0.0012496469
0.0019116265
0.0027826776
0.0038479231
0.0050629381
0.0063626258
0.0076735911
0.0089260425
0.010063254
0.01103446
0.011825682
0.012480138
0.013003948
0.013416868
0.013755852
0.014055244
0.014342967
0.01463971
0.014975251
0.015393704
0.015894114
0.013221188
0.012174532
0.012674026
0.014763158
0.016586628
0.013501315
0.010783071
0.0060932474
0.0025354775
0.0014367124
9.3364715e-19
1.8158183e-16
4.8364991e-15
4.903215e-14
2.9653208e-13
1.3138008e-12
4.7441646e-12
1.4845997e-11
4.1827739e-11
1.0881497e-10
2.6599837e-10
6.187293e-10
1.3823166e-09
2.9873258e-09
6.2794308e-09
1.2894747e-08
2.5958381e-08
5.1374343e-08
1.0019093e-07
1.9291127e-07
3.6730375e-07
6.9247769e-07
1.2941158e-06
2.399459e-06
4.4170184e-06
8.0767892e-06
1.4674486e-05
2.6490933e-05
4.7496022e-05
8.4485485e-05
0.00014879284
0.00025854173
0.00044082081
0.00073203482
0.0011736855
0.0018019773
0.0026341099
0.0036583402
0.0048333066
0.0060959823
0.0073736903
0.0085960807
0.0097049261
0.010646403
0.011405299
0.012023932
0.012499364
0.012853655
0.013120893
0.01333255
0.013513699
0.013685582
0.013895228
0.014183801
0.013595642
0.011934881
0.012170737
0.013772522
0.015945342
0.014691622
0.011753762
0.0092586018
0.0037461134
0.0018485935
0.0011344098
8.6400249e-19
1.6803688e-16
4.4757247e-15
4.5374688e-14
2.7441362e-13
1.2158096e-12
4.3903445e-12
1.3738893e-11
3.8708898e-11
1.0070233e-10
2.4616963e-10
5.7261251e-10
1.279299e-09
2.7647186e-09
5.811543e-09
1.1933982e-08
2.402423e-08
4.7546072e-08
9.2723428e-08
1.7852804e-07
3.3990348e-07
6.4078075e-07
1.1974031e-06
2.2198936e-06
4.0858814e-06
7.4699503e-06
1.3569042e-05
2.4489486e-05
4.3897122e-05
7.8069797e-05
0.00013749273
0.00023899088
0.00040788351
0.00067861185
0.0010912501
0.0016820668
0.0024702749
0.0034474977
0.004575804
0.005794547
0.0070318892
0.0082168131
0.0092892427
0.010191636
0.010907553
0.011477725
0.011888766
0.012164489
0.012334731
0.012426534
0.012463034
0.012478273
0.012540569
0.012655069
0.011842177
0.011612276
0.012946413
0.013303332
0.013424782
0.011792054
0.0093959981
0.005800857
0.0021931065
0.0013867277
0.00093086677
7.9168145e-19
1.5397141e-16
4.1010864e-15
4.1576659e-14
2.5144481e-13
1.1140493e-12
4.0229068e-12
1.2589143e-11
3.5469799e-11
9.2276514e-11
2.2557447e-10
5.2471073e-10
1.172288e-09
2.5334688e-09
5.3254601e-09
1.0935792e-08
2.2014607e-08
4.3568159e-08
8.4963521e-08
1.6358063e-07
3.1142664e-07
5.8704926e-07
1.0968779e-06
2.0332383e-06
3.7416472e-06
6.839061e-06
1.2419667e-05
2.2408157e-05
4.0153479e-05
7.1392365e-05
0.00012571925
0.00021858217
0.00037338993
0.00062238634
0.0010038942
0.0015539237
0.0022935462
0.0032178716
0.0042927158
0.0054601258
0.006649246
0.0077882696
0.0088145307
0.0096666557
0.010329709
0.010834489
0.011163173
0.011337894
0.011383126
0.01132036
0.011182441
0.011037856
0.01093842
0.010831616
0.010627721
0.010480119
0.010397724
0.010328027
0.0098559999
0.0082911775
0.0061897356
0.0023006589
0.0013251867
0.0010005005
0.00072782352
7.1813816e-19
1.3966822e-16
3.7201154e-15
3.7714417e-14
2.2808745e-13
1.010566e-12
3.6492393e-12
1.1419868e-11
3.2175589e-11
8.370703e-11
2.046273e-10
4.7598811e-10
1.0634384e-09
2.2982345e-09
4.8309786e-09
9.9203085e-09
1.9970079e-08
3.9520994e-08
7.7068261e-08
1.4837213e-07
2.8245197e-07
5.3237843e-07
9.9459698e-07
1.843329e-06
3.3914289e-06
6.1972428e-06
1.1250446e-05
2.0290924e-05
3.6344885e-05
6.4596694e-05
0.00011372703
0.00019775775
0.00033808193
0.00056453974
0.00091336771
0.0014199129
0.0021068065
0.0029726174
0.003987138
0.0050954065
0.0062277317
0.0073115807
0.008279806
0.0090693945
0.0096676007
0.010088131
0.010314545
0.010364586
0.010256796
0.010010472
0.0097050227
0.0094192836
0.0091322608
0.0087653479
0.008302516
0.0079044802
0.0074224835
0.0067719059
0.0058942484
0.0045717313
0.0020466617
0.0011016518
0.00089250239
0.00070198185
0.00058508453
6.4483504e-19
1.2541175e-16
3.3403892e-15
3.3864785e-14
2.0480618e-13
9.0741833e-13
3.2767769e-12
1.0254337e-11
2.8891834e-11
7.5164477e-11
1.8374526e-10
4.2741524e-10
9.5491936e-10
2.0637061e-09
4.3379639e-09
8.9078057e-09
1.7931499e-08
3.5485532e-08
6.9195781e-08
1.3320764e-07
2.5356195e-07
4.7787011e-07
8.9262816e-07
1.6540202e-06
3.0423689e-06
5.5576594e-06
1.008552e-05
1.8181835e-05
3.2551248e-05
5.7826637e-05
0.00010177211
0.00017696531
0.00030272008
0.00050630776
0.00082155248
0.0012826696
0.0019134013
0.0027155664
0.0036630261
0.0047040446
0.0057702505
0.0067883196
0.0076858481
0.0083989173
0.0089171564
0.0092339908
0.0093373792
0.0092406599
0.0089581557
0.00853368
0.0081083583
0.0076800864
0.0071834715
0.0065671044
0.0058671408
0.005226596
0.0043401028
0.0036329403
0.0022648005
0.0013562472
0.00088495721
0.00072687008
0.00060249362
0.00052848349
0.00054008202
5.7318056e-19
1.114759e-16
2.9692019e-15
3.0101705e-14
1.8204816e-13
8.0658779e-13
2.9126755e-12
9.114946e-12
2.5681651e-11
6.6813098e-11
1.6332995e-10
3.7992663e-10
8.4881965e-10
1.8344001e-09
3.8559156e-09
7.917806e-09
1.5938206e-08
3.1539722e-08
6.1498322e-08
1.1838083e-07
2.2531702e-07
4.2458395e-07
7.9295895e-07
1.4690138e-06
2.7013194e-06
4.9329262e-06
8.947998e-06
1.6123012e-05
2.8848936e-05
5.121974e-05
9.0099998e-05
0.00015663691
0.00026804774
0.00044892312
0.00073038141
0.0011450008
0.0017170471
0.0024511704
0.0033251989
0.0042907381
0.0052808358
0.0062213067
0.0070343445
0.0076556949
0.0080761224
0.008269763
0.0082312075
0.0079724667
0.0075138202
0.0069804897
0.0064612371
0.0058787124
0.0052012871
0.0044167962
0.0035586996
0.0028126242
0.0019864211
0.0010946542
0.00070000422
0.00062550752
0.00058564548
0.00050864155
0.00046646836
0.00047981326
0.0005529671
5.0446591e-19
9.8111798e-17
2.6132434e-15
2.6493005e-14
1.6022365e-13
7.0989227e-13
2.5635008e-12
8.0222472e-12
2.260296e-11
5.8803622e-11
1.4375e-10
3.3438011e-10
7.4705677e-10
1.6144628e-09
3.3935558e-09
6.9682347e-09
1.402632e-08
2.7755125e-08
5.4115626e-08
1.0416118e-07
1.9823125e-07
3.7349139e-07
6.9740991e-07
1.2916971e-06
2.3745428e-06
4.3345549e-06
7.8589311e-06
1.4152761e-05
2.5307307e-05
4.49009e-05
7.893404e-05
0.00013716803
0.00023475389
0.00039355271
0.00064174095
0.0010097547
0.0015216845
0.0021843725
0.0029792646
0.0038612345
0.0047647413
0.005614501
0.0063277149
0.0068433943
0.0071446518
0.0071978749
0.0070047232
0.006583587
0.0059973759
0.0054290355
0.0048124147
0.0041081862
0.0033337918
0.0024656465
0.0018420028
0.00099019688
0.00057972491
0.00037232022
0.00038634102
0.0004152201
0.00041118373
0.00040718026
0.00043566024
0.00049683493
0.00059184708
4.3980661e-19
8.5536446e-17
2.2782947e-15
2.3097304e-14
1.3968724e-13
6.1890297e-13
2.2349279e-12
6.9940041e-12
1.9705826e-11
5.126635e-11
1.2532406e-10
2.9151732e-10
6.512886e-10
1.4074793e-09
2.9584257e-09
6.0745893e-09
1.2227063e-08
2.4193593e-08
4.7168441e-08
9.0781461e-08
1.7274836e-07
3.2543021e-07
6.0754947e-07
1.1249842e-06
2.0674175e-06
3.7724124e-06
6.8363215e-06
1.2303765e-05
2.1985414e-05
3.8976344e-05
6.8464484e-05
0.00011889757
0.00020343674
0.00034123314
0.00055736357
0.00087965898
0.0013312699
0.0019203848
0.0026314302
0.0034222324
0.0042285983
0.0049732924
0.0055708533
0.005966902
0.0061281874
0.0060296901
0.0056826154
0.0051253766
0.0045136772
0.0039223478
0.0032365093
0.0024836771
0.0017080055
0.001127382
0.00057065293
0.00030501519
0.00021757924
0.00023314202
0.00026305883
0.00030214472
0.00034069185
0.00039042777
0.00045508727
0.00052554601
0.00057858132
3.8009707e-19
7.3923779e-17
1.9689877e-15
1.9961549e-14
1.2072284e-13
5.3487813e-13
1.9315018e-12
6.0444454e-12
1.7030356e-11
4.4305674e-11
1.0830748e-10
2.5193254e-10
5.6284372e-10
1.216323e-09
2.5565695e-09
5.249291e-09
1.0565461e-08
2.090469e-08
4.0753492e-08
7.8428016e-08
1.492234e-07
2.8107006e-07
5.2462953e-07
9.711969e-07
1.7842186e-06
3.2543188e-06
5.8943892e-06
1.0601741e-05
1.8929559e-05
3.3529143e-05
5.8840079e-05
0.00010209177
0.00017457253
0.00029281047
0.00047871745
0.00075713765
0.0011495086
0.0016643521
0.0022881356
0.0029810121
0.0036799272
0.0043051094
0.0047726837
0.0050323368
0.0050415625
0.0047927533
0.0043167819
0.0037081521
0.0031353902
0.0025255943
0.0018325359
0.0011727122
0.00064270294
0.00033428088
0.00018072814
0.00013013521
0.00014683036
0.00017532646
0.00021976665
0.00027897773
0.00034409597
0.00041186568
0.00039373194
0.00044457052
0.00051692172
3.2596713e-19
6.3396241e-17
1.6885826e-15
1.7118797e-14
1.035304e-13
4.5870385e-13
1.6564231e-12
5.183591e-12
1.4604795e-11
3.7995116e-11
9.288009e-11
2.1604439e-10
4.8265807e-10
1.0430179e-09
2.1922446e-09
4.5010872e-09
9.0591294e-09
1.7923288e-08
3.4938786e-08
6.723174e-08
1.2790534e-07
2.4087964e-07
4.4952394e-07
8.3195029e-07
1.5279067e-06
2.7856593e-06
5.0428608e-06
9.064146e-06
1.6170919e-05
2.8614846e-05
5.0160011e-05
8.6929275e-05
0.00014848747
0.00024888668
0.00040690358
0.00064412227
0.00097954345
0.001420904
0.0019554852
0.0025447603
0.0031261696
0.0036186896
0.0039459186
0.0040546812
0.0039144228
0.0035414564
0.0030022846
0.0024580793
0.0019184838
0.0013360916
0.00080384207
0.00039003513
0.00019472568
0.00010903098
8.4321275e-05
9.8104419e-05
0.00012756367
0.00017343671
0.00023434701
0.00030536279
0.00037381526
0.00033797351
0.00033180996
0.00040742809
0.00047937034
2.7775658e-19
5.4019905e-17
1.4388395e-15
1.4586898e-14
8.8217895e-14
3.9085862e-13
1.4114208e-12
4.4168554e-12
1.2444411e-11
3.2374437e-11
7.913919e-11
1.8407942e-10
4.112383e-10
8.8865985e-10
1.8677566e-09
3.8347152e-09
7.7176077e-09
1.5268258e-08
2.9761083e-08
5.7263256e-08
1.0892818e-07
2.0511025e-07
3.8269893e-07
7.0810031e-07
1.3000371e-06
2.3692329e-06
4.2867246e-06
7.6997966e-06
1.3724987e-05
2.4260684e-05
4.2472649e-05
7.3498248e-05
0.00012534909
0.00020979185
0.00034257922
0.000541879
0.00082362513
0.00119363
0.0016385788
0.0021200945
0.0025753676
0.0029262319
0.0031043643
0.003064456
0.0028017942
0.0023671054
0.0018844189
0.0014258962
0.00095177646
0.00051493647
0.00024595772
0.00012041625
6.7407131e-05
5.5911156e-05
7.1014113e-05
0.00010009384
0.00014597792
0.00020617369
0.0002735485
0.00034337429
0.00030139262
0.00028272347
0.00029398581
0.00036521843
0.00046433066
2.3550322e-19
4.5802193e-17
1.2199574e-15
1.2367866e-14
7.4797547e-14
3.3139688e-13
1.1966923e-12
3.74486e-12
1.0550968e-11
2.7448256e-11
6.7096158e-11
1.5606431e-10
3.486445e-10
7.5337982e-10
1.5833822e-09
3.2507456e-09
6.5420456e-09
1.2941869e-08
2.5224771e-08
4.8530872e-08
9.23073e-08
1.7378962e-07
3.2420294e-07
5.9972801e-07
1.1007375e-06
2.0052208e-06
3.6261914e-06
6.5088247e-06
1.1591522e-05
2.0465429e-05
3.5774931e-05
6.1793917e-05
0.00010515635
0.00017555427
0.00028588068
0.00045083617
0.00068278289
0.00098452204
0.0013406846
0.0017118451
0.0020359764
0.002242164
0.0022751749
0.0021151092
0.0017910396
0.001398155
0.0010297175
0.0006607329
0.00031866847
0.00015079385
7.6738219e-05
4.4244082e-05
3.8721344e-05
5.3732558e-05
8.2714795e-05
0.00012782588
0.00018517424
0.00024915418
0.00031800646
0.00030608726
0.00025811315
0.00025570788
0.00027190235
0.00034470824
0.00043263033
1.9891373e-19
3.8686044e-17
1.0304163e-15
1.0446296e-14
6.3176199e-14
2.7990596e-13
1.0107477e-12
3.1629433e-12
8.9113331e-12
2.3182417e-11
5.6667507e-11
1.3180485e-10
2.9444262e-10
6.3623917e-10
1.3371462e-09
2.7451154e-09
5.5242429e-09
1.0927832e-08
2.1297914e-08
4.0972651e-08
7.7923615e-08
1.4669037e-07
2.736041e-07
5.0601645e-07
9.2846771e-07
1.6907291e-06
3.0558384e-06
5.481062e-06
9.7514176e-06
1.7193154e-05
2.9999618e-05
5.1693523e-05
8.7697198e-05
0.00014584218
0.00023635982
0.00037048358
0.00055660412
0.00079358535
0.0010628618
0.0013237328
0.0015178805
0.0015880366
0.0015075308
0.0012846052
0.0009922113
0.00071064149
0.00043776476
0.00019338812
9.3431147e-05
4.8688392e-05
3.0116429e-05
2.8449731e-05
4.2405438e-05
6.9939422e-05
0.00011321516
0.00016892814
0.00022934792
0.00029796988
0.00032021274
0.00026643611
0.00023673967
0.00023770957
0.00025725643
0.00033075137
0.00043645022
1.6738935e-19
3.2554974e-17
8.6711287e-16
8.7907218e-15
5.3163549e-14
2.3554272e-13
8.505428e-13
2.66158e-12
7.4986733e-12
1.9507116e-11
4.7682612e-11
1.1090416e-10
2.4774592e-10
5.3532109e-10
1.1250179e-09
2.3095417e-09
4.6475077e-09
9.1930602e-09
1.7915841e-08
3.4463679e-08
6.5538234e-08
1.2335934e-07
2.300482e-07
4.2536306e-07
7.8022999e-07
1.4201579e-06
2.5652174e-06
4.5971107e-06
8.1690125e-06
1.437934e-05
2.5032474e-05
4.2996664e-05
7.2622706e-05
0.00012006403
0.00019305404
0.00029939589
0.00044323829
0.00061892994
0.00080447103
0.00095981387
0.0010367011
0.0010056424
0.00086508744
0.00066502069
0.0004645692
0.00026884441
0.00011885177
5.7535103e-05
3.1542592e-05
2.0962179e-05
2.1717179e-05
3.4566984e-05
5.9357114e-05
9.9975474e-05
0.00015332408
0.00021295862
0.00027971135
0.00031091451
0.00027602844
0.00024354361
0.00022396844
0.00023098689
0.00025353217
0.00032484934
0.00043655014
1.4005719e-19
2.7239225e-17
7.2552559e-16
7.3553076e-15
4.4482402e-14
1.9707905e-13
7.1164283e-13
2.2268926e-12
6.2738889e-12
1.6320633e-11
3.9892793e-11
9.27837e-11
2.0726151e-10
4.4783038e-10
9.4111816e-10
1.9319416e-09
3.8874879e-09
7.6892833e-09
1.498422e-08
2.8821829e-08
5.4803164e-08
1.0313748e-07
1.9229661e-07
3.5545483e-07
6.5172858e-07
1.1855649e-06
2.1396906e-06
3.8300045e-06
6.7945337e-06
1.1931877e-05
2.0703431e-05
3.5397986e-05
5.9405854e-05
9.7332279e-05
0.00015454353
0.00023546731
0.00033996833
0.00045810725
0.00056623999
0.00063049535
0.0006244626
0.00054296736
0.00041600179
0.0002828901
0.00015533238
6.9026339e-05
3.555015e-05
2.0574058e-05
1.5156865e-05
1.7009714e-05
2.8582359e-05
5.0728659e-05
8.8200748e-05
0.00013954944
0.0001988791
0.00024538636
0.00026748311
0.00027088059
0.00025168265
0.00023227201
0.00021925375
0.00022786995
0.00025283425
0.00032666392
0.00043938479
1.1587613e-19
2.2536336e-17
6.0026247e-16
6.085391e-15
3.6802178e-14
1.6305033e-13
5.8875907e-13
1.8423305e-12
5.1903472e-12
1.350164e-11
3.3001415e-11
7.6753286e-11
1.7144687e-10
3.704317e-10
7.784308e-10
1.5978935e-09
3.2151133e-09
6.35887e-09
1.239041e-08
2.3829614e-08
4.5302851e-08
8.5237914e-08
1.5887085e-07
2.9353244e-07
5.3784383e-07
9.7750135e-07
1.761907e-06
3.1480543e-06
5.5704661e-06
9.7471527e-06
1.6827341e-05
2.8567414e-05
4.7468367e-05
7.6682831e-05
0.00011932511
0.00017663812
0.00024476226
0.00031132418
0.00035577167
0.00035903716
0.00031567011
0.00024122699
0.00015808913
8.3681318e-05
3.9009642e-05
2.1193948e-05
1.3692764e-05
1.107265e-05
1.3790887e-05
2.3722367e-05
4.3857093e-05
7.888081e-05
0.00012781436
0.0001827089
0.00019979843
0.00022266843
0.00024299403
0.00024725127
0.00023674906
0.00022519736
0.00021949461
0.00023065086
0.00025726781
0.00033086089
0.00046066888
9.3840734e-20
1.8250755e-17
4.8611459e-16
4.9281615e-15
2.9803496e-14
1.3204154e-13
4.7678184e-13
1.4919039e-12
4.2029961e-12
1.0932925e-11
2.6721911e-11
6.2146193e-11
1.3881191e-10
2.9990324e-10
6.3017887e-10
1.2934681e-09
2.6023094e-09
5.1461733e-09
1.0025681e-08
1.9277186e-08
3.66366e-08
6.8902644e-08
1.2834873e-07
2.3694703e-07
4.3367564e-07
7.8696122e-07
1.4154249e-06
2.5214677e-06
4.4433234e-06
7.730332e-06
1.3239079e-05
2.222595e-05
3.6350843e-05
5.7410275e-05
8.6492551e-05
0.00012227521
0.00015886625
0.00018525241
0.00018987376
0.00016863931
0.00012859294
8.1417835e-05
4.3303974e-05
2.1432091e-05
1.2672303e-05
8.9897872e-06
8.4006337e-06
1.1006015e-05
2.0070143e-05
3.7881036e-05
7.1323682e-05
0.00011632172
0.00015778635
0.00017145496
0.00018925372
0.00021061506
0.0002255809
0.00023103447
0.0002275464
0.00022470651
0.00022172096
0.00023558216
0.00026490772
0.0003423031
0.00047506209
7.3255026e-20
1.4247113e-17
3.7947607e-16
3.8470618e-15
2.3265258e-14
1.0307306e-13
3.7217357e-13
1.1645419e-12
3.2806405e-12
8.5333205e-12
2.0855818e-11
4.8500636e-11
1.0832449e-10
2.3401309e-10
4.9166738e-10
1.0090155e-09
2.0296289e-09
4.0126575e-09
7.8147784e-09
1.5019449e-08
2.8527807e-08
5.3609751e-08
9.9754849e-08
1.8389277e-07
3.3591277e-07
6.0793769e-07
1.0894864e-06
1.9312976e-06
3.3805239e-06
5.8273782e-06
9.8536306e-06
1.6248361e-05
2.5910166e-05
3.9482536e-05
5.6557466e-05
7.4553049e-05
8.8201678e-05
9.145346e-05
8.1955203e-05
6.1945004e-05
3.8295041e-05
2.0833315e-05
1.1526449e-05
7.4978132e-06
6.143385e-06
6.2147469e-06
9.0744242e-06
1.6672645e-05
3.3686748e-05
6.4821931e-05
0.0001054443
0.00014296208
0.00015244702
0.00016596814
0.00018390816
0.00020028174
0.00021289729
0.00022127302
0.00022328599
0.00022383009
0.00022640348
0.00024246939
0.00027383871
0.00035109354
0.00049563351
5.4022918e-20
1.0506724e-17
2.7984933e-16
2.8370491e-15
1.715697e-14
7.6009791e-14
2.7444651e-13
8.5871849e-13
2.4189834e-12
6.2916539e-12
1.5375852e-11
3.575323e-11
7.9843301e-11
1.7245685e-10
3.6225955e-10
7.4323738e-10
1.4944864e-09
2.9532868e-09
5.7481114e-09
1.1038578e-08
2.0944284e-08
3.9303255e-08
7.2997071e-08
1.3423147e-07
2.4438564e-07
4.4033807e-07
7.8447189e-07
1.3795862e-06
2.3889418e-06
4.0579144e-06
6.7239574e-06
1.0781063e-05
1.6533827e-05
2.3864985e-05
3.1738554e-05
3.7912266e-05
3.9598498e-05
3.5715198e-05
2.6856574e-05
1.67648e-05
9.8117632e-06
5.9886295e-06
4.5707447e-06
4.156465e-06
4.8074908e-06
7.2922751e-06
1.4393601e-05
3.1057516e-05
5.8596141e-05
9.5554096e-05
0.00013429541
0.00014002627
0.0001488685
0.00016320945
0.00017717181
0.00019124778
0.00020406356
0.00021399192
0.00021896026
0.00022543372
0.00023101174
0.00025050846
0.0002833922
0.00036659929
0.0005224218
3.6771425e-20
7.1515397e-18
1.9048263e-16
1.9310549e-15
1.1677808e-14
5.1734281e-14
1.867881e-13
5.8441086e-13
1.6461456e-12
4.281127e-12
1.0461109e-11
2.4321086e-11
5.4301828e-11
1.1725669e-10
2.4621973e-10
5.0492872e-10
1.0146897e-09
2.0035756e-09
3.8956418e-09
7.4710619e-09
1.415037e-08
2.6492539e-08
4.9054172e-08
8.9842165e-08
1.6270398e-07
2.9111187e-07
5.1380923e-07
8.9242582e-07
1.5197863e-06
2.5240039e-06
4.0559486e-06
6.2359939e-06
9.0307209e-06
1.2064718e-05
1.4494431e-05
1.5221755e-05
1.3803101e-05
1.0466311e-05
6.8882306e-06
4.4493193e-06
3.2105187e-06
2.7818335e-06
2.9611115e-06
3.6537161e-06
6.0850357e-06
1.3349782e-05
2.8012561e-05
5.3037557e-05
8.6461204e-05
0.00012492417
0.00013102361
0.00013610701
0.00014693014
0.00015853516
0.00017103723
0.00018464277
0.00019701978
0.00020853452
0.00021725775
0.00022675655
0.00023642773
0.00025912779
0.00029603242
0.00038088155
0.0005428522
2.2548852e-20
4.3854401e-18
1.1680655e-16
1.1841355e-15
7.1607409e-15
3.1721839e-14
1.1452608e-13
3.5829339e-13
1.0091175e-12
2.6240309e-12
6.410707e-12
1.4900567e-11
3.3257735e-11
7.178457e-11
1.5065222e-10
3.0872296e-10
6.1981644e-10
1.2223692e-09
2.372905e-09
4.5412618e-09
8.5778401e-09
1.6002474e-08
2.9492913e-08
5.3687796e-08
9.6454868e-08
1.7077573e-07
2.972709e-07
5.0692611e-07
8.4239134e-07
1.3537751e-06
2.0812932e-06
3.0153511e-06
4.0353305e-06
4.8655921e-06
5.1323813e-06
4.7069829e-06
3.7327283e-06
2.7665666e-06
2.0795021e-06
1.7289392e-06
1.8148452e-06
2.0982499e-06
2.9337841e-06
5.5726093e-06
1.2395914e-05
2.5244818e-05
4.7848684e-05
7.8445821e-05
0.00011384677
0.00012381116
0.00012626015
0.00013440141
0.00014338691
0.00015406042
0.00016583089
0.00017859643
0.00019150708
0.00020442919
0.00021515157
0.00022851475
0.00024189671
0.00026792311
0.00030533405
0.00039660788
0.00057043122
1.217818e-20
2.3684844e-18
6.3084385e-17
6.3951217e-16
3.8671511e-15
1.7130432e-14
6.1841465e-14
1.9344852e-13
5.447554e-13
1.4162466e-12
3.4590463e-12
8.03703e-12
1.7929926e-11
3.8676408e-11
8.1103033e-11
1.6602362e-10
3.328622e-10
6.5527561e-10
1.2690781e-09
2.4214041e-09
4.5557179e-09
8.4555273e-09
1.5480195e-08
2.7935997e-08
4.9624098e-08
8.6567526e-08
1.4778232e-07
2.4561706e-07
3.9451736e-07
6.0610604e-07
8.7810684e-07
1.17741e-06
1.4271657e-06
1.5314962e-06
1.4751698e-06
1.3229825e-06
1.1344455e-06
1.0132056e-06
1.0344951e-06
1.1975129e-06
1.6199771e-06
2.6170836e-06
5.248793e-06
1.1178991e-05
2.2528978e-05
4.3125108e-05
7.1114429e-05
0.0001033603
0.00011773879
0.00011826246
0.00012442789
0.00013120799
0.00013969157
0.00014976212
0.00016098812
0.00017401274
0.00018707401
0.00020110387
0.00021439017
0.00023082879
0.00024686867
0.00027678944
0.00031819804
0.00041411796
0.00059179774
5.7149239e-21
1.1114705e-18
2.9603673e-17
3.0009773e-16
1.8146227e-15
8.037725e-15
2.9013446e-14
9.0744581e-14
2.554867e-13
6.6402717e-13
1.6212255e-12
3.7650514e-12
8.3941229e-12
1.8091654e-11
3.7896004e-11
7.7465266e-11
1.5502351e-10
3.0444906e-10
5.8779934e-10
1.1170216e-09
2.0907051e-09
3.8544015e-09
6.995474e-09
1.2483018e-08
2.1853467e-08
3.7409107e-08
6.2316384e-08
1.0033636e-07
1.5471487e-07
2.2569649e-07
3.0679113e-07
3.8292365e-07
4.3968916e-07
4.7327598e-07
4.9709445e-07
5.2014746e-07
5.5085669e-07
6.5348942e-07
9.0785316e-07
1.4228063e-06
2.484068e-06
4.845172e-06
9.9061327e-06
2.0032505e-05
3.8869675e-05
6.4343905e-05
9.3602697e-05
0.00011237879
0.00011146886
0.00011603947
0.00012114001
0.00012774688
0.00013591101
0.00014575383
0.00015698759
0.00016971179
0.00018323636
0.00019856889
0.00021348457
0.00023244399
0.00025223024
0.00028539861
0.00032775303
0.00042916923
0.00061056437
2.3883228e-21
4.6449354e-19
1.2371517e-17
1.2540921e-16
7.5828694e-16
3.3585281e-15
1.2121834e-14
3.79073e-14
1.0670326e-13
2.7724837e-13
6.766393e-13
1.5705796e-12
3.4991977e-12
7.5350212e-12
1.5765082e-11
3.2177917e-11
6.4269867e-11
1.2590498e-10
2.4230972e-10
4.5859676e-10
8.5389321e-10
1.5638635e-09
2.8146842e-09
4.9701065e-09
8.5875387e-09
1.4464893e-08
2.3633255e-08
3.7216518e-08
5.6078284e-08
8.0341939e-08
1.0979221e-07
1.4391865e-07
1.8027271e-07
2.2014747e-07
2.7994609e-07
3.6553733e-07
5.1418273e-07
8.0991584e-07
1.3319262e-06
2.3248189e-06
4.3638556e-06
8.7306978e-06
1.7991412e-05
3.5094186e-05
5.8147234e-05
8.4846263e-05
0.00010710166
0.00010558903
0.00010870591
0.00011249097
0.000117609
0.00012408608
0.00013229625
0.00014206731
0.00015303028
0.00016612582
0.0001801993
0.00019640322
0.00021323694
0.00023496949
0.00025677253
0.00029343479
0.00033913938
0.00044750653
0.00062964672
1.0534754e-21
2.0488525e-19
5.4569834e-18
5.531683e-17
3.3447213e-16
1.481406e-15
5.3467704e-15
1.6720238e-14
4.7064214e-14
1.2228457e-13
2.9843131e-13
6.9266913e-13
1.5431462e-12
3.3226951e-12
6.9513112e-12
1.418714e-11
2.8334904e-11
5.550874e-11
1.0684303e-10
2.0228266e-10
3.769155e-10
6.9122287e-10
1.2470022e-09
2.2107778e-09
3.8458029e-09
6.5519841e-09
1.0908068e-08
1.771151e-08
2.8030545e-08
4.3308834e-08
6.5253378e-08
9.6164396e-08
1.39586e-07
2.0445221e-07
3.0257433e-07
4.7256587e-07
7.572807e-07
1.2351667e-06
2.1259178e-06
3.9377898e-06
7.8358973e-06
1.6315444e-05
3.1671585e-05
5.2475781e-05
7.6927957e-05
0.00010153561
0.00010016243
0.00010197518
0.00010476895
0.00010873972
0.00011378755
0.00012051056
0.00012875708
0.00013840739
0.00014961445
0.00016284866
0.00017728544
0.00019473361
0.00021287297
0.00023644805
0.00026143007
0.0003013777
0.00034882199
0.00046112754
0.00064034062
7.4858044e-22
1.4558814e-19
3.8777034e-18
3.930959e-17
2.3770635e-16
1.0529815e-15
3.8013335e-15
1.1891157e-14
3.3485672e-14
8.7054029e-14
2.1261336e-13
4.9397396e-13
1.1019221e-12
2.3766947e-12
4.9832685e-12
1.0200012e-11