/*--------------------------------*- C++ -*----------------------------------*\
  =========                 |
  \\      /  F ield         | OpenFOAM: The Open Source CFD Toolbox
   \\    /   O peration     | Website:  https://openfoam.org
    \\  /    A nd           | Version:  13
     \\/     M anipulation  |
\*---------------------------------------------------------------------------*/
FoamFile
{
    format      ascii;
    class       surfaceScalarField;
    location    "35.495901";
    object      phi;
}
// * * * * * * * * * * * * * * * * * * * * * * * * * * * * * * * * * * * * * //

dimensions      [0 3 -1 0 0 0 0];

internalField   nonuniform List<scalar> 
34068
(
-1.0577216e-08
-4.4770236e-08
5.5347452e-08
-4.7089907e-08
-1.5442576e-07
1.9093845e-07
-1.1821748e-07
-3.0093975e-07
3.7206733e-07
-2.3491402e-07
-4.9449661e-07
6.1119315e-07
-4.1094289e-07
-7.478816e-07
9.2391047e-07
-6.6352652e-07
-1.0770937e-06
1.3296773e-06
-1.0141326e-06
-1.5020803e-06
1.8526864e-06
-1.4894236e-06
-2.0476155e-06
2.5229065e-06
-2.1223912e-06
-2.7443398e-06
3.3773074e-06
-2.9537125e-06
-3.6299717e-06
4.4612931e-06
-4.0333614e-06
-4.7507023e-06
5.8303511e-06
-5.4225032e-06
-6.1627825e-06
7.5519243e-06
-7.1957074e-06
-7.934278e-06
9.7074822e-06
-9.4435131e-06
-1.0146966e-05
1.2394771e-05
-1.2275349e-05
-1.2898298e-05
1.5730134e-05
-1.582284e-05
-1.6303328e-05
1.9850819e-05
-2.0243451e-05
-2.0496415e-05
2.4917026e-05
-2.5724434e-05
-2.5632474e-05
3.1113457e-05
-3.2486953e-05
-3.188738e-05
3.8649899e-05
-4.0790223e-05
-3.9457104e-05
4.7760374e-05
-5.0935361e-05
-4.8554933e-05
5.8700071e-05
-6.3268524e-05
-5.9406094e-05
7.1739257e-05
-7.8182802e-05
-7.2238902e-05
8.715318e-05
-9.6117982e-05
-8.7271729e-05
0.00010520691
-0.0001175572
-0.00010469512
0.00012613434
-0.00014301913
-0.00012464916
0.0001501111
-0.00017304417
-0.00014719736
0.0001772224
-0.00020817312
-0.00017230074
0.00020742969
-0.00024891761
-0.00019980026
0.00024054474
-0.00029572376
-0.00022942179
0.00027622794
-0.00034893599
-0.00026082522
0.00031403745
-0.0004087757
-0.0002937181
0.00035355781
-0.00047535663
-0.00032802664
0.00039460757
-0.00054874959
-0.00036405518
0.00043744815
-0.00062907992
-0.00040252247
0.0004828528
-0.00071661383
-0.00044444009
0.00053197399
-0.0008118025
-0.00049094602
0.00058613469
-0.00091529083
-0.00054322991
0.00064671825
-0.0010279188
-0.00060257294
0.00071520089
-0.0011507399
-0.00067044761
0.00079326871
-0.0012850712
-0.00074862409
0.00088295546
-0.0014325853
-0.00083924844
0.00098676247
-0.0015954552
-0.00094485622
0.0011077261
-0.0017765753
-0.0010682757
0.0012493958
-0.0019798493
-0.0012123055
0.0014155796
-0.002210471
-0.0013789097
0.0016095313
-0.0024753639
-0.0015680222
0.0018329151
-0.0027837675
-0.0017755797
0.0020839833
-0.0031478145
-0.0019896353
0.0023536823
-0.0035831384
-0.0021839465
0.0026192704
-0.0041093276
-0.0023067425
0.0028329318
-0.0047498014
-0.0022608924
0.0029013662
-0.0055297171
-0.0018705702
0.0026504859
-0.0064691928
-0.00082709013
0.0017665658
-0.0075686656
0.0013862928
-0.00028681999
-0.0087808275
0.0055834
-0.0043712381
-0.0099605681
0.01282786
-0.011648119
-0.010796988
0.024177504
-0.023341084
-0.010854158
0.039568339
-0.039511169
-0.0098688327
0.056380253
-0.057365579
-0.0080684248
0.06879722
-0.070597628
-0.0046041395
0.063248031
-0.066712316
0.0052737108
0.014516268
-0.024394118
0.021748902
-0.076024507
0.059549316
-0.14710254
0.035922205
0.13292923
-1.085904e-08
-3.3911196e-08
-4.8339631e-08
-1.1694517e-07
-1.2134903e-07
-2.2793035e-07
-2.4113328e-07
-3.7471237e-07
-4.218281e-07
-5.6718678e-07
-6.8114256e-07
-8.1777922e-07
-1.0411564e-06
-1.1420665e-06
-1.5292881e-06
-1.5594839e-06
-2.1795091e-06
-2.0941187e-06
-3.0337235e-06
-2.7757573e-06
-4.1434296e-06
-3.6409963e-06
-5.5716886e-06
-4.7345235e-06
-7.3954119e-06
-6.1105547e-06
-9.7080143e-06
-7.8343632e-06
-1.2622437e-05
-9.9838756e-06
-1.6274549e-05
-1.2651215e-05
-2.0826916e-05
-1.5944049e-05
-2.6472853e-05
-1.9986537e-05
-3.3440659e-05
-2.4919574e-05
-4.1997841e-05
-3.0899922e-05
-5.2455018e-05
-3.8097756e-05
-6.5169103e-05
-4.6692009e-05
-8.0545111e-05
-5.6862894e-05
-9.9035824e-05
-6.8781016e-05
-0.00012113822
-8.2592728e-05
-0.00014738533
-9.8402056e-05
-0.00017833202
-0.00011625067
-0.0002145332
-0.00013609957
-0.00025651372
-0.00015781974
-0.00030473174
-0.00018120376
-0.00035954252
-0.00020601444
-0.00042117783
-0.00023208279
-0.00048976226
-0.00025944221
-0.00056537916
-0.00028843828
-0.00064816947
-0.00031973216
-0.00073841969
-0.00035418986
-0.00083660717
-0.00039275855
-0.00094340991
-0.00043642717
-0.0010597087
-0.0004862742
-0.0011866057
-0.00054355055
-0.0013254741
-0.00060975573
-0.0014780466
-0.00068667589
-0.0016465551
-0.00077634776
-0.001833937
-0.00088089388
-0.0020441014
-0.0010021411
-0.0022821742
-0.0011408368
-0.0025548446
-0.0012953517
-0.002870838
-0.0014595863
-0.003241291
-0.0016191824
-0.0036800146
-0.0017452229
-0.0042034043
-0.0017833528
-0.0048294561
-0.0016348406
-0.005574382
-0.0011256443
-0.0064439739
4.2501723e-05
-0.0074190207
0.0023613397
-0.0084308367
0.0065952161
-0.0093193893
0.013716412
-0.0097785261
0.02463664
-0.0094096779
0.039199491
-0.007918687
0.054889263
-0.0054037583
0.066282291
-7.5092067e-05
0.057919365
0.012949634
0.0014915417
0.03133532
-0.094410194
-0.16079113
0.045023915
-1.1005272e-08
-2.2905924e-08
-4.8988559e-08
-7.8961885e-08
-1.229785e-07
-1.5394041e-07
-2.4437913e-07
-2.5331174e-07
-4.2753028e-07
-3.8403563e-07
-6.9039523e-07
-5.5491427e-07
-1.0553817e-06
-7.7708005e-07
-1.5503357e-06
-1.0645299e-06
-2.2098038e-06
-1.4346506e-06
-3.0764737e-06
-1.9090874e-06
-4.2027995e-06
-2.5146705e-06
-5.6530345e-06
-3.2842886e-06
-7.505601e-06
-4.2579881e-06
-9.8557998e-06
-5.4841644e-06
-1.2818915e-05
-7.0207606e-06
-1.6533704e-05
-8.9364254e-06
-2.1166257e-05
-1.1311496e-05
-2.6914148e-05
-1.4238646e-05
-3.4010781e-05
-1.7822941e-05
-4.2729702e-05
-2.2181001e-05
-5.3388601e-05
-2.7438857e-05
-6.6352547e-05
-3.3728062e-05
-8.2035848e-05
-4.1179593e-05
-0.00010090172
-4.9915145e-05
-0.00012345866
-6.0035785e-05
-0.00015025227
-7.1608449e-05
-0.00018185088
-8.4652051e-05
-0.00021882369
-9.9126758e-05
-0.00026171053
-0.00011493291
-0.00031098509
-0.00013192921
-0.00036701832
-0.00014998121
-0.00043005711
-0.000169044
-0.00050023943
-0.00018925989
-0.00057765965
-0.00021101806
-0.00066246755
-0.00023492426
-0.00075495802
-0.0002616994
-0.00085561906
-0.0002920975
-0.00096514365
-0.00032690257
-0.0010844316
-0.0003669863
-0.0012146054
-0.00041337669
-0.0013570566
-0.00046730452
-0.0015135287
-0.0005302038
-0.0016862442
-0.00060363223
-0.0018780896
-0.00068904856
-0.002092846
-0.00078738468
-0.002335381
-0.00089830184
-0.0026118825
-0.0010188502
-0.0029301786
-0.0011412902
-0.0032998617
-0.0012494993
-0.0037321535
-0.001312931
-0.004239205
-0.0012763013
-0.0048322091
-0.0010418366
-0.0055166664
-0.00044118703
-0.006282193
0.00080802837
-0.0070883144
0.0031674611
-0.007842846
0.0073497476
-0.0083647486
0.014238315
-0.0083068413
0.024578733
-0.0072217268
0.038114377
-0.0047830374
0.052450573
-0.00089353561
0.062392789
0.0074311114
0.049594718
0.023632684
-0.01471003
0.042614955
-0.11339247
-0.17364754
0.055471369
-1.1003217e-08
-1.1902707e-08
-4.897802e-08
-4.0987083e-08
-1.229525e-07
-7.9965927e-08
-2.4433957e-07
-1.3192468e-07
-4.2750763e-07
-2.0086757e-07
-6.9045827e-07
-2.9196363e-07
-1.055679e-06
-4.1185932e-07
-1.5511634e-06
-5.6904548e-07
-2.2115714e-06
-7.7424265e-07
-3.0797385e-06
-1.0409203e-06
-4.2084236e-06
-1.3859854e-06
-5.6623261e-06
-1.830386e-06
-7.5204636e-06
-2.3998507e-06
-9.8789367e-06
-3.1256913e-06
-1.2854088e-05
-4.0456097e-06
-1.6586057e-05
-5.2044557e-06
-2.1242716e-05
-6.6548379e-06
-2.7023906e-05
-8.4574556e-06
-3.4165878e-05
-1.0680968e-05
-4.2945723e-05
-1.3401157e-05
-5.3685474e-05
-1.6699106e-05
-6.6755474e-05
-2.0658062e-05
-8.2576373e-05
-2.5358694e-05
-0.00010161892
-3.0872596e-05
-0.00012440054
-3.7254169e-05
-0.00015147727
-4.4531717e-05
-0.00018342972
-5.2699603e-05
-0.00022084138
-6.1715097e-05
-0.00026426871
-7.1505577e-05
-0.00031420433
-8.1993589e-05
-0.00037103984
-9.3145701e-05
-0.00043504263
-0.0001050412
-0.00050636795
-0.00011793457
-0.00058512039
-0.00013226562
-0.00067145159
-0.00014859306
-0.0007656525
-0.00016749848
-0.00086820578
-0.00018954422
-0.0009797989
-0.00021530946
-0.0011013253
-0.00024545994
-0.0012338976
-0.0002808043
-0.001378888
-0.00032231419
-0.0015379993
-0.00037109247
-0.0017133747
-0.00042825682
-0.0019077534
-0.00049466984
-0.0021246576
-0.00057048053
-0.0023685029
-0.00065445649
-0.0026447145
-0.00074263856
-0.0029598505
-0.00082615427
-0.0033214297
-0.00088792013
-0.0037373514
-0.00089700932
-0.0042145356
-0.00079911709
-0.0047561313
-0.00050024088
-0.0053553665
0.00015804818
-0.005984098
0.0014367599
-0.0065801549
0.0037635181
-0.0070295813
0.007799174
-0.0070982307
0.014306964
-0.0063369193
0.023817422
-0.0042138861
0.035991343
-0.00036256726
0.048599254
0.0058733452
0.056156877
0.017795772
0.03767229
0.036181387
-0.033095645
0.054798069
-0.13200915
-0.18529218
0.066442703
-1.084421e-08
-1.0584964e-09
-4.8270112e-08
-3.5611815e-09
-1.2117806e-07
-7.0579786e-09
-2.4082917e-07
-1.2273572e-08
-4.2141052e-07
-2.0286211e-08
-6.8072102e-07
-3.2653132e-08
-1.0410162e-06
-5.1564159e-08
-1.5300289e-06
-8.0032793e-08
-2.1821445e-06
-1.2212704e-07
-3.0398437e-06
-1.8322105e-07
-4.1555019e-06
-2.7032722e-07
-5.5934285e-06
-3.9245942e-07
-7.4322557e-06
-5.6102342e-07
-9.7677176e-06
-7.9022941e-07
-1.2715835e-05
-1.0974926e-06
-1.641651e-05
-1.5037802e-06
-2.1037514e-05
-2.0338335e-06
-2.6778798e-05
-2.7161725e-06
-3.3877013e-05
-3.5827529e-06
-4.2610054e-05
-4.668116e-06
-5.3301314e-05
-6.0078462e-06
-6.6323222e-05
-7.6361535e-06
-8.2099465e-05
-9.5824517e-06
-0.00010110507
-1.1866987e-05
-0.00012386334
-1.44959e-05
-0.00015093828
-1.7456782e-05
-0.00018292107
-2.0716812e-05
-0.00022040913
-2.4227035e-05
-0.00026397682
-2.7937887e-05
-0.000314139
-3.1831408e-05
-0.00037131314
-3.5971561e-05
-0.00043579336
-4.0560986e-05
-0.00050775686
-4.5971072e-05
-0.00058731881
-5.2703673e-05
-0.00067462657
-6.1285305e-05
-0.00076995421
-7.2170839e-05
-0.00087375997
-8.5738462e-05
-0.00098670336
-0.00010236606
-0.001109646
-0.00012251732
-0.0012436602
-0.00014679012
-0.0013900587
-0.00017591563
-0.0015504515
-0.00021069969
-0.0017268308
-0.0002518775
-0.0019216921
-0.0002998086
-0.0021381672
-0.0003540054
-0.002380032
-0.00041259166
-0.002651694
-0.00047097656
-0.0029580793
-0.00051976902
-0.0033041198
-0.00054187959
-0.0036936791
-0.00050745007
-0.0041274871
-0.00036530902
-0.0045994041
-2.832395e-05
-0.0050887162
0.00064736033
-0.0055483382
0.0018963818
-0.0058914807
0.0041066606
-0.0059609098
0.007868603
-0.0054100821
0.013756137
-0.0036842011
0.022091541
-0.00022158333
0.032528726
0.0053979651
0.042979706
0.014559367
0.046995475
0.029974333
0.022257324
0.04985738
-0.052978693
0.06745032
-0.14960209
-0.19512093
0.077279077
-1.0532298e-08
9.4738017e-09
-4.6883275e-08
3.2789795e-08
-1.1770523e-07
6.3763979e-08
-2.3394966e-07
1.0397086e-07
-4.0942146e-07
1.5518558e-07
-6.6145663e-07
2.1938204e-07
-1.0117472e-06
2.9872639e-07
-1.4873424e-06
3.9556241e-07
-2.1218576e-06
5.1238822e-07
-2.9569028e-06
6.5182411e-07
-4.0438018e-06
8.1657179e-07
-5.4456323e-06
1.0093711e-06
-7.2396141e-06
1.2329584e-06
-9.5198847e-06
1.4900412e-06
-1.2400685e-05
1.7833075e-06
-1.6019965e-05
2.1155003e-06
-2.0543397e-05
2.4895978e-06
-2.6168728e-05
2.9091589e-06
-3.3130386e-05
3.378905e-06
-4.1704126e-05
3.9056241e-06
-5.2211452e-05
4.49948e-06
-6.5023386e-05
5.1757809e-06
-8.0563001e-05
5.9571629e-06
-9.9305937e-05
6.8759489e-06
-0.00012177788
7.976047e-06
-0.00014854777
9.3130993e-06
-0.00018021515
1.0950577e-05
-0.00021739043
1.2948239e-05
-0.00026066665
1.5338335e-05
-0.00031058388
1.8085823e-05
-0.00036759067
2.1035224e-05
-0.00043201444
2.3862789e-05
-0.00050406019
2.6074676e-05
-0.00058385525
2.7091386e-05
-0.00067153687
2.6396321e-05
-0.0007673485
2.3640783e-05
-0.00087170464
1.861768e-05
-0.0009852141
1.11434e-05
-0.0011086802
9.4873404e-07
-0.0012431021
-1.2368202e-05
-0.001389692
-2.9325691e-05
-0.0015499135
-5.0478186e-05
-0.0017255374
-7.6253602e-05
-0.0019187195
-0.00010662653
-0.0021320654
-0.00014065948
-0.0023685379
-0.00017611922
-0.002631277
-0.00020823739
-0.0029232229
-0.00022782311
-0.0032462125
-0.00021889003
-0.0035993521
-0.00015431043
-0.0039761644
1.1503203e-05
-0.0043598093
0.00035532102
-0.0047135476
0.0010010986
-0.0049684529
0.0021512872
-0.0050036105
0.0041418181
-0.0045639333
0.0074289259
-0.0031792974
0.012371501
-0.00023678718
0.01914903
0.0048003452
0.027491593
0.0123736
0.035406451
0.024409451
0.034959624
0.042857175
0.0038096004
0.0639553
-0.074076818
0.079950719
-0.16559751
-0.202468
0.087297781
-1.0065505e-08
1.9539307e-08
-4.4805052e-08
6.7529343e-08
-1.1249296e-07
1.3145189e-07
-2.2361446e-07
2.1509235e-07
-3.9140094e-07
3.2297207e-07
-6.3248604e-07
4.6046714e-07
-9.6770519e-07
6.3394554e-07
-1.4230665e-06
8.5092373e-07
-2.0309237e-06
1.1202454e-06
-2.8313857e-06
1.4522862e-06
-3.8740001e-06
1.8591862e-06
-5.2197511e-06
2.3551221e-06
-6.9434075e-06
2.9566147e-06
-9.1362626e-06
3.6828964e-06
-1.1909287e-05
4.5563321e-06
-1.5396715e-05
5.6029279e-06
-1.9760046e-05
6.8529285e-06
-2.5192424e-05
8.3415375e-06
-3.1923291e-05
1.0109772e-05
-4.0223144e-05
1.2205477e-05
-5.0408129e-05
1.4684466e-05
-6.2844085e-05
1.7611737e-05
-7.7949465e-05
2.1062542e-05
-9.6196413e-05
2.5122898e-05
-0.000118109
2.9888638e-05
-0.00014425744
3.5461534e-05
-0.00017524676
4.1939896e-05
-0.00021169857
4.9400053e-05
-0.00025422462
5.7864386e-05
-0.00030339237
6.7253574e-05
-0.00035968607
7.7328923e-05
-0.00042347303
8.7649747e-05
-0.00049499256
9.7594203e-05
-0.00057438708
0.00010648591
-0.00066177955
0.00011378879
-0.00075737028
0.00011923152
-0.00086151113
0.00012275853
-0.00097473621
0.00012436848
-0.0010977618
0.00012397429
-0.0012314792
0.00012134923
-0.0013769578
0.00011615294
-0.0015354602
0.00010802416
-0.0017084669
9.6753071e-05
-0.0018977
8.2606595e-05
-0.0021051005
6.6741018e-05
-0.0023326525
5.1432792e-05
-0.0025819861
4.1096209e-05
-0.0028537029
4.3893737e-05
-0.0031460268
7.3433839e-05
-0.0034525024
0.00015216521
-0.0037582976
0.00031729836
-0.0040339961
0.00063101948
-0.0042244431
0.0011915456
-0.0042311082
0.0021579524
-0.0038774097
0.0037881196
-0.0027719662
0.0063234824
-0.00036747056
0.009967005
0.0039128045
0.014868755
0.010533511
0.020870886
0.02004472
0.025895242
0.034715507
0.020288837
0.055916375
-0.017391267
0.077924223
-0.096084666
0.09149813
-0.17917141
-0.20687334
0.095903474
-9.4482037e-09
2.8987511e-08
-4.2059768e-08
1.0014091e-07
-1.0561121e-07
1.9500333e-07
-2.09967e-07
3.1944815e-07
-3.6758999e-07
4.8059507e-07
-5.9416714e-07
6.870443e-07
-9.093741e-07
9.491525e-07
-1.3378062e-06
1.2793558e-06
-1.9101043e-06
1.6925435e-06
-2.6643135e-06
2.2064953e-06
-3.647508e-06
2.8423808e-06
-4.9177257e-06
3.6253398e-06
-6.5462516e-06
4.5851406e-06
-8.6202862e-06
5.7569311e-06
-1.1246036e-05
7.1820821e-06
-1.4552238e-05
8.9091298e-06
-1.869412e-05
1.0994811e-05
-2.3857767e-05
1.3505184e-05
-3.0264797e-05
1.6516802e-05
-3.8177207e-05
2.0117887e-05
-4.7902146e-05
2.4409405e-05
-5.9796249e-05
2.950584e-05
-7.4269023e-05
3.5535317e-05
-9.1784582e-05
4.2638457e-05
-0.00011286083
5.0964882e-05
-0.0001380649
6.0665605e-05
-0.00016800354
7.1878535e-05
-0.00020330683
8.4703344e-05
-0.000244604
9.9161555e-05
-0.00029249081
0.00011514039
-0.0003474907
0.00013232881
-0.00041001676
0.00015017581
-0.0004803496
0.00016792704
-0.0005586516
0.00018478791
-0.00064502993
0.00020016712
-0.00073963135
0.00021383295
-0.00084272599
0.00022585317
-0.00095474784
0.00023639033
-0.0010762957
0.00024552217
-0.0012081174
0.00025317088
-0.0013510945
0.00025913008
-0.0015062327
0.00026316238
-0.001674649
0.00026516936
-0.0018575397
0.00026549723
-0.0020560616
0.00026526295
-0.0022710343
0.00026640544
-0.002502336
0.00027239793
-0.0027478693
0.00028942703
-0.0030016723
0.00032723683
-0.0032508236
0.00040131653
-0.0034706018
0.00053707658
-0.0036164427
0.00077686035
-0.0036114237
0.0011865266
-0.0033183786
0.0018649073
-0.002466006
0.002935747
-0.00054598289
0.0044034592
0.0029571368
0.0064638853
0.008515983
0.0093099092
0.016537682
0.012849187
0.028024501
0.014408423
0.045407307
0.0029060314
0.069163585
-0.041147546
0.091247249
-0.11816833
0.1013048
-0.18922896
-0.20827524
0.10270671
-8.6911025e-09
3.7678613e-08
-3.8694938e-08
1.3014474e-07
-9.7177596e-08
2.5348599e-07
-1.9324048e-07
4.1551103e-07
-3.3839773e-07
6.2575232e-07
-5.4716335e-07
8.9580991e-07
-8.3777085e-07
1.23976e-06
-1.2330497e-06
1.6746346e-06
-1.7614911e-06
2.220985e-06
-2.4585353e-06
2.9035395e-06
-3.3681173e-06
3.7519628e-06
-4.5445142e-06
4.8017367e-06
-6.0545329e-06
6.0951593e-06
-7.9800763e-06
7.6824744e-06
-1.0421132e-05
9.6231379e-06
-1.3499201e-05
1.1987199e-05
-1.7361176e-05
1.4856786e-05
-2.2183644e-05
1.8327652e-05
-2.8177559e-05
2.2510717e-05
-3.5593147e-05
2.7533475e-05
-4.472483e-05
3.3541089e-05
-5.5915874e-05
4.0696883e-05
-6.9562255e-05
4.9181698e-05
-8.6115151e-05
5.9191353e-05
-0.00010608118
7.0930915e-05
-0.00013001935
8.4603773e-05
-0.00015853333
0.00010039251
-0.00019225762
0.00011842764
-0.00023183614
0.00013874008
-0.0002778921
0.00016119634
-0.00033098979
0.00018542651
-0.00039159285
0.00021077887
-0.00046003029
0.00023636447
-0.00053649121
0.00026124884
-0.0006210685
0.00028474441
-0.00071384727
0.00030661172
-0.00081499749
0.00032700339
-0.00092482667
0.00034621951
-0.0010437839
0.0003644794
-0.0011724349
0.00038182185
-0.0013114271
0.00039812231
-0.0014614503
0.00041318561
-0.0016231824
0.00042690141
-0.001797198
0.00043951282
-0.0019837478
0.00045181279
-0.0021822934
0.00046495107
-0.002390703
0.00048080753
-0.0026037763
0.00050250025
-0.0028106923
0.00053415288
-0.0029908898
0.00058151404
-0.0031076424
0.00065382913
-0.0030978511
0.00076706911
-0.0028564272
0.00094510268
-0.0021943814
0.0012028615
-0.00072758381
0.0014689494
0.002060458
0.0016154174
0.0065625526
0.0019617907
0.013199536
0.0026729257
0.02263713
0.0034115933
0.036365164
0.00068038984
0.056960179
-0.017688984
0.082803686
-0.066991052
0.10305989
-0.13842454
0.1088252
-0.19499427
-0.20709017
0.10764012
-7.8124521e-09
4.5491065e-08
-3.4788512e-08
1.571208e-07
-8.7383943e-08
3.0608142e-07
-1.7381024e-07
5.0193733e-07
-3.0447279e-07
7.5641487e-07
-4.9251082e-07
1.0838479e-06
-7.5446158e-07
1.5017108e-06
-1.1110714e-06
2.0312445e-06
-1.588286e-06
2.6981996e-06
-2.2184482e-06
3.5337017e-06
-3.0417471e-06
4.5752617e-06
-4.1079483e-06
5.8679379e-06
-5.4784596e-06
7.4656706e-06
-7.2287653e-06
9.4327801e-06
-9.4512732e-06
1.1845646e-05
-1.2258605e-05
1.4794531e-05
-1.5787345e-05
1.8385526e-05
-2.0202246e-05
2.2742553e-05
-2.5700836e-05
2.8009307e-05
-3.2518344e-05
3.4350982e-05
-4.0932753e-05
4.1955498e-05
-5.1269718e-05
5.1033848e-05
-6.3906944e-05
6.1818924e-05
-7.927745e-05
7.4561859e-05
-9.7870977e-05
8.9524443e-05
-0.00012023253
0.00010696532
-0.00014695685
0.00012711683
-0.00017867738
0.00015014817
-0.00021604801
0.0001761107
-0.00025971617
0.0002048645
-0.00031028632
0.00023599666
-0.00036827524
0.00026876778
-0.00043406671
0.00030215595
-0.00050788469
0.00033506681
-0.0005898124
0.00036667212
-0.00067986842
0.00039666774
-0.00077810569
0.00042524065
-0.00088467822
0.00045279205
-0.0009998509
0.00047965208
-0.0011239658
0.00050593679
-0.0012573861
0.00053154257
-0.0014004223
0.0005562218
-0.0015532316
0.00057971077
-0.0017156632
0.00060194441
-0.0018869139
0.00062306344
-0.0020648806
0.00064291776
-0.0022451089
0.00066103588
-0.0024187885
0.00067617984
-0.0025693495
0.00068471383
-0.0026669679
0.00067913249
-0.0026600507
0.00064691192
-0.0024625848
0.00056960321
-0.00193239
0.0004149079
-0.00081547385
8.5945329e-05
0.0013170799
-0.00066360432
0.0048833506
-0.0019508533
0.010259161
-0.0034140202
0.018068554
-0.0051364669
0.029354099
-0.007873952
0.04614945
-0.016114961
0.070164599
-0.041704133
0.09631557
-0.093142023
0.11170931
-0.15381828
0.11340313
-0.19668808
-0.20487773
0.11119069
-6.8345544e-09
5.232562e-08
-3.0440709e-08
1.8072696e-07
-7.6482617e-08
3.5212333e-07
-1.5217781e-07
5.7763252e-07
-2.6669056e-07
8.7092762e-07
-4.3161775e-07
1.2487751e-06
-6.6158793e-07
1.7316809e-06
-9.7499768e-07
2.3446542e-06
-1.394911e-06
3.118113e-06
-1.9501555e-06
4.0889461e-06
-2.676648e-06
5.3017542e-06
-3.6189954e-06
6.8102853e-06
-4.8324023e-06
8.6790775e-06
-6.3849455e-06
1.0985323e-05
-8.3602379e-06
1.3820938e-05
-1.0860541e-05
1.7294834e-05
-1.4010342e-05
2.1535327e-05
-1.7960397e-05
2.6692607e-05
-2.289223e-05
3.294114e-05
-2.9023013e-05
4.0481765e-05
-3.6610699e-05
4.9543184e-05
-4.5959162e-05
6.0382311e-05
-5.7423044e-05
7.3282806e-05
-7.1411798e-05
8.8550613e-05
-8.8392255e-05
0.0001065049
-0.00010888887
0.00012746194
-0.00013348052
0.00015170848
-0.00016279243
0.00017946008
-0.00019748161
0.00021079988
-0.00023821376
0.00024559665
-0.00028562943
0.00028341234
-0.00034029797
0.00032343632
-0.00040266212
0.0003645201
-0.00047298896
0.00040539365
-0.00055135971
0.00044504286
-0.00063772551
0.00048303354
-0.00073200791
0.00051952306
-0.00083418021
0.00055496434
-0.00094428587
0.00058975774
-0.0010623975
0.00062404846
-0.0011885372
0.00065768225
-0.001322565
0.00069024957
-0.0014640248
0.00072117061
-0.0016119107
0.00074983024
-0.0017641752
0.00077532799
-0.0019168922
0.00079563469
-0.0020628514
0.00080699508
-0.0021889002
0.00080222872
-0.0022713896
0.00076720316
-0.0022687922
0.0006765351
-0.0021110018
0.00048912152
-0.0016841664
0.00014276784
-0.00080372286
-0.00046553564
0.00083532762
-0.0015531051
0.0036416465
-0.0034699232
0.0080352086
-0.0063444154
0.014609516
-0.0099883276
0.024253187
-0.014780138
0.038343075
-0.02196384
0.058869902
-0.036641788
0.085081691
-0.067915922
0.1074133
-0.11547364
0.11651518
-0.16292016
0.11586711
-0.19604001
-0.20289804
0.11388742
-5.7864643e-09
5.8112084e-08
-2.5780285e-08
2.0072078e-07
-6.4795345e-08
3.9113839e-07
-1.2898036e-07
6.4181754e-07
-2.2616123e-07
9.6810849e-07
-3.6626889e-07
1.3888828e-06
-5.6186547e-07
1.9272775e-06
-8.2879578e-07
2.6115845e-06
-1.1869868e-06
3.476304e-06
-1.6614251e-06
4.5633844e-06
-2.2833492e-06
5.9236784e-06
-3.0916892e-06
7.6186253e-06
-4.1348037e-06
9.722192e-06
-5.4725535e-06
1.2323073e-05
-7.1787584e-06
1.5527143e-05
-9.3440841e-06
1.946016e-05
-1.207939e-05
2.4270633e-05
-1.5519566e-05
3.0132783e-05
-1.9827859e-05
3.7249433e-05
-2.5200634e-05
4.5854541e-05
-3.1872502e-05
5.6215052e-05
-4.0121629e-05
6.8631437e-05
-5.027495e-05
8.3436128e-05
-6.2712923e-05
0.00010098859
-7.7873221e-05
0.0001216652
-9.6252632e-05
0.00014584136
-0.00011840618
0.00017386203
-0.00014494216
0.00020599606
-0.0001765115
0.00024236921
-0.00021378895
0.0002828741
-0.00025744308
0.00032706647
-0.00030809065
0.00037408389
-0.00036623355
0.00042266301
-0.00043218857
0.00047134867
-0.00050604428
0.00051889857
-0.0005876878
0.00056467706
-0.00067689843
0.00060873369
-0.00077344185
0.00065150776
-0.00087709978
0.00069341568
-0.0009876228
0.00073457148
-0.0011046249
0.00077468431
-0.0012274287
0.00081305344
-0.0013548489
0.00084859079
-0.0014848483
0.00087982966
-0.0016138718
0.00090435143
-0.0017357771
0.00091754
-0.0018399165
0.00091113444
-0.0019075812
0.00086989351
-0.0019057996
0.00076542149
-0.001777373
0.00054810851
-0.0014284776
0.00014022616
-0.00071031557
-0.00057539422
0.00061135506
-0.0017872063
0.0028997976
-0.0038415477
0.0066310407
-0.0072011663
0.012425507
-0.012138881
0.021140106
-0.018702927
0.033762293
-0.027402324
0.051498622
-0.039700169
0.074711104
-0.05985427
0.098534533
-0.091739352
0.11351909
-0.13045819
0.11800733
-0.1674084
0.11700879
-0.19504147
-0.2023659
0.11647665
-4.703383e-09
6.2815467e-08
-2.0963649e-08
2.1698105e-07
-5.2714448e-08
4.2288919e-07
-1.049952e-07
6.9409829e-07
-1.8424201e-07
1.0473553e-06
-2.9864942e-07
1.5032902e-06
-4.5862234e-07
2.0872504e-06
-6.7733447e-07
2.8302967e-06
-9.7141985e-07
3.7703894e-06
-1.361823e-06
4.9537875e-06
-1.8748382e-06
6.4366936e-06
-2.5433821e-06
8.2871692e-06
-3.4085277e-06
1.0587338e-05
-4.5213588e-06
1.3435904e-05
-5.9451825e-06
1.6950967e-05
-7.7581519e-06
2.127313e-05
-1.0056342e-05
2.6568823e-05
-1.2957322e-05
3.3033764e-05
-1.6604225e-05
4.0896335e-05
-2.1170324e-05
5.042064e-05
-2.6864058e-05
6.1908787e-05
-3.3934384e-05
7.5701763e-05
-4.2676268e-05
9.2178012e-05
-5.3435983e-05
0.0001117483
-6.6615803e-05
0.00013484502
-8.2677409e-05
0.00016190296
-0.00010214321
0.00019332783
-0.0001255944
0.00022944726
-0.00015366423
0.00027043904
-0.00018702391
0.00031623378
-0.00022635723
0.00036639979
-0.0002723174
0.00042004406
-0.00032545961
0.00047580522
-0.00038615258
0.00053204163
-0.000454501
0.000587247
-0.00053033467
0.00064051073
-0.00061328389
0.00069168291
-0.00070288061
0.00074110448
-0.0007986002
0.00078913526
-0.00089980903
0.00083578031
-0.0010056298
0.00088050511
-0.0011147342
0.00092215777
-0.001225044
0.00095890066
-0.0013332367
0.00098802234
-0.0014338507
0.0010049654
-0.0015178634
0.0010015527
-0.0015699995
0.00096327053
-0.0015637776
0.00086367165
-0.0014527953
0.00065443915
-0.0011575542
0.00025286744
-0.00055020607
-0.000467122
0.00057358336
-0.0016991836
0.0025443244
-0.0037579473
0.0058792599
-0.0071764831
0.011298168
-0.012620074
0.019659234
-0.020499948
0.0317777
-0.030821392
0.047992636
-0.04361726
0.068002008
-0.059709541
0.089385116
-0.081237379
0.10645375
-0.10880799
0.11529345
-0.13929789
0.11782926
-0.16994421
0.1173034
-0.19451561
-0.20388783
0.11882532
-3.6249588e-09
6.6440426e-08
-1.6166933e-08
2.2952302e-07
-4.0681074e-08
4.4740333e-07
-8.1098217e-08
7.3451544e-07
-1.4246137e-07
1.1087185e-06
-2.312234e-07
1.5920522e-06
-3.5561724e-07
2.2116443e-06
-5.2612261e-07
3.000802e-06
-7.5604088e-07
4.0003076e-06
-1.0622126e-06
5.2599593e-06
-1.4659005e-06
6.8403815e-06
-1.993874e-06
8.8151427e-06
-2.6797338e-06
1.1273197e-05
-3.5655226e-06
1.4321693e-05
-4.703668e-06
1.8089112e-05
-6.1593102e-06
2.2728772e-05
-8.0130572e-06
2.842257e-05
-1.0364234e-05
3.5384941e-05
-1.3334639e-05
4.386674e-05
-1.7072834e-05
5.4158834e-05
-2.1758958e-05
6.6594911e-05
-2.7609993e-05
8.1552798e-05
-3.4885342e-05
9.9453361e-05
-4.3892521e-05
0.00012075548
-5.4992553e-05
0.00014594505
-6.8604662e-05
0.00017551507
-8.5209473e-05
0.00020993264
-0.00010534981
0.00024958759
-0.00012962762
0.00029471686
-0.00015869457
0.00034530073
-0.0001932319
0.00040093712
-0.00023391152
0.00046072367
-0.00028132786
0.00052322157
-0.00033589574
0.00058660951
-0.00039774021
0.00064909147
-0.00046664122
0.00070941174
-0.0005420767
0.00076711838
-0.00062331955
0.00082234734
-0.00070948839
0.00087530411
-0.00079948898
0.00092578091
-0.00089184359
0.00097285972
-0.00098441351
0.0010147277
-0.0010739845
0.0010484717
-0.001155553
0.0010695908
-0.0012211032
0.0010705156
-0.0012575548
0.0010380043
-0.0012427877
0.00094850338
-0.0011383473
0.0007592313
-0.00087670047
0.00039279228
-0.00034384064
-0.00027999239
0.00064852796
-0.0014594906
0.0024219532
-0.0034726089
0.0055228103
-0.0068588044
0.010780246
-0.012433919
0.019110158
-0.020949986
0.031080678
-0.032470468
0.046439931
-0.046180646
0.063961493
-0.061138822
0.081879013
-0.077627061
0.097475106
-0.096833471
0.10801672
-0.11934961
0.11380583
-0.145087
0.1166318
-0.17277017
0.1179517
-0.19583551
-0.20705771
0.12112158
-2.5966935e-09
6.903712e-08
-1.159334e-08
2.3851967e-07
-2.9205823e-08
4.6501581e-07
-5.8303398e-08
7.6361301e-07
-1.0259332e-07
1.1530084e-06
-1.6685091e-07
1.6563098e-06
-2.5721655e-07
2.3020099e-06
-3.815625e-07
3.125148e-06
-5.4995845e-07
4.1687036e-06
-7.7525125e-07
5.4852521e-06
-1.0737881e-06
7.1389184e-06
-1.4663083e-06
9.2076629e-06
-1.9790565e-06
1.1785946e-05
-2.6451304e-06
1.4987767e-05
-3.5061409e-06
1.8950123e-05
-4.6142125e-06
2.3836843e-05
-6.0344005e-06
2.9842758e-05
-7.8475391e-06
3.719808e-05
-1.0153639e-05
4.617284e-05
-1.3075791e-05
5.7080986e-05
-1.6764649e-05
7.0283769e-05
-2.1403448e-05
8.6191597e-05
-2.7213476e-05
0.00010526339
-3.4459861e-05
0.00012800186
-4.3457414e-05
0.0001549426
-5.4576139e-05
0.0001866338
-6.8245873e-05
0.00022360237
-8.4959261e-05
0.00026630098
-0.00010527177
0.00031502936
-0.00012979649
0.00036982546
-0.00015918927
0.0004303299
-0.00019411527
0.00049564967
-0.00023518421
0.00056429051
-0.00028284078
0.00063426608
-0.00033722572
0.0007034764
-0.00039807165
0.00077025768
-0.00046470183
0.00083374856
-0.00053610328
0.00089374878
-0.00061097768
0.00095017851
-0.00068767132
0.0010024745
-0.00076395508
0.0010491435
-0.00083664594
0.0010874185
-0.00090101148
0.0011128372
-0.00094972432
0.0011183037
-0.00097109603
0.0010918874
-0.00094584047
0.0010127488
-0.00084077867
0.00084344157
-0.0005972853
0.00051573794
-0.00011256773
-9.1925291e-05
0.0007901499
-0.00118271
0.0024277305
-0.0030970712
0.0053689351
-0.0064138135
0.010520368
-0.012010237
0.01884584
-0.020759391
0.030657183
-0.03276133
0.045215397
-0.047028681
0.060810101
-0.06177535
0.07567113
-0.075999852
0.08861113
-0.090567061
0.098723977
-0.10694632
0.10626788
-0.12689351
0.11208258
-0.1509017
0.11583109
-0.17651868
0.11863161
-0.19863603
-0.2114987
0.1230726
-1.6662769e-09
7.0703397e-08
-7.4537947e-09
2.4430719e-07
-1.8816541e-08
4.7637856e-07
-3.7658561e-08
7.8245503e-07
-6.6467245e-08
1.1818171e-06
-1.0848653e-07
1.6983291e-06
-1.6793495e-07
2.3614583e-06
-2.5028603e-07
3.2074991e-06
-3.6262485e-07
4.2810424e-06
-5.1409532e-07
5.6367226e-06
-7.1646821e-07
7.3412913e-06
-9.8485155e-07
9.4760462e-06
-1.3385746e-06
1.2139669e-05
-1.8022967e-06
1.5451489e-05
-2.40736e-06
1.9555186e-05
-3.1934652e-06
2.4622949e-05
-4.2106983e-06
3.0859991e-05
-5.5219975e-06
3.8509379e-05
-7.2060659e-06
4.7856909e-05
-9.3608511e-06
5.9235771e-05
-1.2107554e-05
7.3030472e-05
-1.5595235e-05
8.9679278e-05
-2.0005939e-05
0.00010967409
-2.5560283e-05
0.00013355621
-3.2523293e-05
0.00016190561
-4.1210252e-05
0.00019532075
-5.1992114e-05
0.00023438424
-6.529984e-05
0.00027960871
-8.1626638e-05
0.00033135616
-0.00010152611
0.00038972493
-0.00012560209
0.00045440587
-0.00015448089
0.00052452848
-0.00018875507
0.00059856469
-0.00022886416
0.00067437517
-0.00027494258
0.00074955482
-0.00032667308
0.00082198818