/*--------------------------------*- C++ -*----------------------------------*\
  =========                 |
  \\      /  F ield         | OpenFOAM: The Open Source CFD Toolbox
   \\    /   O peration     | Website:  https://openfoam.org
    \\  /    A nd           | Version:  13
     \\/     M anipulation  |
\*---------------------------------------------------------------------------*/
FoamFile
{
    format      ascii;
    class       volScalarField;
    location    "500";
    object      p;
}
// * * * * * * * * * * * * * * * * * * * * * * * * * * * * * * * * * * * * * //

dimensions      [0 2 -2 0 0 0 0];

internalField   nonuniform List<scalar> 
2416
(
-0.73673147
-0.73623071
-0.73551851
-0.7346286
-0.73343419
-0.73181147
-0.72960162
-0.72658554
-0.72246792
-0.71685627
-0.70923853
-0.69896421
-0.68523872
-0.66714603
-0.64372049
-0.61408338
-0.5776691
-0.53435967
-0.48504079
-0.43026711
-0.37407019
-0.31286346
-0.26168527
-0.19377398
-0.1657562
-0.077700704
-0.73744361
-0.73692069
-0.7362061
-0.73530562
-0.73408497
-0.73242935
-0.73017563
-0.727101
-0.72290577
-0.71719225
-0.70944277
-0.69900189
-0.68507219
-0.66673869
-0.64304208
-0.61311669
-0.57641462
-0.53284606
-0.48330655
-0.42840514
-0.372111
-0.31098407
-0.25985221
-0.19207326
-0.16457332
-0.075447013
-0.73913631
-0.73858568
-0.73783303
-0.73688549
-0.73560221
-0.7338637
-0.73150054
-0.72828215
-0.72389957
-0.71794481
-0.70988979
-0.69907014
-0.68468367
-0.66581829
-0.64152904
-0.6109794
-0.57366189
-0.52954526
-0.47955525
-0.42439245
-0.3679362
-0.30694493
-0.25600732
-0.1884318
-0.16219848
-0.070587262
-0.74157247
-0.74097674
-0.74016285
-0.73913943
-0.73775549
-0.73588421
-0.73334653
-0.72990003
-0.72522196
-0.71888917
-0.71035844
-0.69895285
-0.68386411
-0.66418581
-0.63899618
-0.60750373
-0.56926378
-0.52433029
-0.4736806
-0.41813536
-0.36146763
-0.30067017
-0.2501034
-0.18280312
-0.15860246
-0.063025429
-0.7444393
-0.74378167
-0.74288376
-0.74175623
-0.74023421
-0.73818086
-0.73540396
-0.73164497
-0.72656236
-0.71971256
-0.71053228
-0.69832855
-0.68228663
-0.6615104
-0.63511227
-0.60236377
-0.56290728
-0.51690899
-0.46542115
-0.40940576
-0.35251332
-0.29201354
-0.24205751
-0.1751453
-0.15368459
-0.052758528
-0.74707009
-0.7463344
-0.74533056
-0.74407186
-0.74237599
-0.74009367
-0.7370163
-0.73286537
-0.72727625
-0.71978034
-0.7097901
-0.69659375
-0.6793702
-0.65723835
-0.62935598
-0.59507582
-0.55415195
-0.50688869
-0.45443711
-0.39791821
-0.34085803
-0.28083088
-0.23177351
-0.16505055
-0.14709757
-0.039843689
-0.74845596
-0.74762776
-0.74649843
-0.74508441
-0.74318285
-0.74062992
-0.73719795
-0.73258522
-0.7264004
-0.71814625
-0.70720789
-0.69285318
-0.67425604
-0.65055626
-0.62096883
-0.58494597
-0.54237713
-0.49372791
-0.44027086
-0.38329756
-0.32614364
-0.26624594
-0.21799982
-0.15251794
-0.13875011
-0.024564183
-0.74715041
-0.74621821
-0.74494786
-0.74335941
-0.74122713
-0.73837109
-0.7345426
-0.72941451
-0.72256646
-0.71347033
-0.70148242
-0.68585037
-0.66574596
-0.64033697
-0.60890784
-0.5710275
-0.52674108
-0.47669096
-0.42228493
-0.36492714
-0.30714752
-0.24892549
-0.20215463
-0.13828076
-0.1284482
-0.0068968847
-0.74115927
-0.74011607
-0.73869531
-0.73692098
-0.73454321
-0.73136533
-0.7271169
-0.72144469
-0.71389886
-0.70392065
-0.69083879
-0.67388348
-0.65222962
-0.62508118
-0.59180398
-0.55209948
-0.50618854
-0.45491431
-0.39988496
-0.34260068
-0.28588118
-0.22946637
-0.18355498
-0.12124907
-0.11565453
0.012910402
-0.7279997
-0.7268451
-0.72527352
-0.72331299
-0.72068976
-0.71719087
-0.71252484
-0.70631348
-0.69807918
-0.68723505
-0.67308587
-0.65484981
-0.63171239
-0.6029241
-0.56794475
-0.52662141
-0.47936141
-0.42721516
-0.37198737
-0.31505648
-0.26026057
-0.20525417
-0.16080181
-0.10035304
-0.09941288
0.034508252
-0.70439864
-0.70314059
-0.70142915
-0.69929634
-0.69644677
-0.69265321
-0.68760604
-0.68090607
-0.67205321
-0.66043933
-0.64535399
-0.62601349
-0.601625
-0.57149557
-0.53518625
-0.49269222
-0.44460219
-0.39215223
-0.33721869
-0.28168783
-0.22796725
-0.17497019
-0.13384068
-0.076696828
-0.079416244
0.057758608
-0.66691637
-0.66557361
-0.66374799
-0.66147486
-0.65844189
-0.65441118
-0.64905991
-0.64197422
-0.63263941
-0.62043557
-0.60464801
-0.58450356
-0.55924454
-0.52824862
-0.49119064
-0.44822003
-0.40010071
-0.34823346
-0.2945585
-0.24103458
-0.18999181
-0.14076372
-0.10234608
-0.049230446
-0.054896831
0.082582711
-0.61082371
-0.60942693
-0.6075289
-0.60516786
-0.60202193
-0.59784862
-0.59232025
-0.58501924
-0.57543036
-0.56293932
-0.54684778
-0.52641549
-0.5009407
-0.46988535
-0.43303847
-0.39068799
-0.3437431
-0.29372869
-0.24262835
-0.19240003
-0.14521545
-0.10035976
-0.065528759
-0.017491359
-0.025153451
0.10892025
-0.53272207
-0.53131709
-0.52941047
-0.52703855
-0.52388201
-0.51970153
-0.51417478
-0.50689312
-0.49735576
-0.48497106
-0.46907522
-0.4489793
-0.42405536
-0.39386648
-0.35832943
-0.31787332
-0.27353211
-0.22690062
-0.17993268
-0.13448701
-0.092448275
-0.053154366
-0.022769892
0.01905371
0.010416572
0.13695574
-0.42589429
-0.42454299
-0.42272961
-0.4204449
-0.41741427
-0.41340917
-0.40812761
-0.40119001
-0.39213567
-0.38042723
-0.36547268
-0.34667431
-0.32351333
-0.29567229
-0.26318279
-0.22656353
-0.18688974
-0.14572645
-0.10490188
-0.066083087
-0.030786927
0.001612147
0.02657668
0.061043885
0.053279747
0.1706626
-0.29066409
-0.2894393
-0.2878197
-0.28574535
-0.28300422
-0.27938962
-0.27463504
-0.26840819
-0.26030904
-0.24987648
-0.23661154
-0.22002628
-0.19972599
-0.17552521
-0.14758124
-0.1165047
-0.083387901
-0.04969802
-0.017031006
0.01326401
0.040132845
0.064235772
0.082640191
0.10842851
0.10408267
0.20379184
-0.11604983
-0.11504666
-0.11374486
-0.11204129
-0.1098027
-0.10686118
-0.10300839
-0.097988471
-0.091499091
-0.083200657
-0.07273998
-0.05979458
-0.044142015
-0.025751555
-0.0048821035
0.017847629
0.041463692
0.064756121
0.086509095
0.10580684
0.12208976
0.13605431
0.1459576
0.16049846
0.1558255
0.19035944
0.089141178
0.089844774
0.090797362
0.091972579
0.093520491
0.095542793
0.098171538
0.10156519
0.10590362
0.11137686
0.11816266
0.12638922
0.13608216
0.14710204
0.15908927
0.17144517
0.18338069
0.19404915
0.20274201
0.20910169
0.21312776
0.21569863
0.21605519
0.22006469
0.21306422
0.23174209
0.31323065
0.31355171
0.31398478
0.31451354
0.31519973
0.3160783
0.31719104
0.31858131
0.32028685
0.32232807
0.32468969
0.32729475
0.32997309
0.33243201
0.33424478
0.33487915
0.33378422
0.33053197
0.3249728
0.31734966
0.30822155
0.29868904
0.28870524
0.28192964
0.26950491
0.27205518
0.55426387
0.5541376
0.55396377
0.55373753
0.55341894
0.55296652
0.55231902
0.55138879
0.55005237
0.54813857
0.54541531
0.54157777
0.53624385
0.528967
0.51927914
0.50677354
0.49122426
0.47271551
0.45172967
0.42914529
0.40606117
0.38380904
0.36282281
0.34464074
0.32591669
0.31604542
0.79938371
0.79877283
0.79794101
0.79689758
0.79549296
0.79360458
0.79106236
0.78764121
0.78305
0.77692063
0.76880155
0.75816214
0.74441669
0.72697935
0.70535924
0.67929457
0.64890339
0.61480049
0.57811335
0.540355
0.50312698
0.46794327
0.43513289
0.40673067
0.3793016
0.35965478
1.0396278
1.038522
1.0370186
1.0351412
1.032629
1.0292772
1.0248059
1.0188512
1.0109532
1.0005459
0.98695846
0.96943629
0.94719568
0.91952357
0.8859272
0.84631861
0.80118918
0.75170155
0.69962416
0.64708177
0.59615117
0.54857707
0.50494671
0.467081
0.42896779
0.39951351
1.2628882
1.2613069
1.2591582
1.2564801
1.252905
1.2481505
1.241832
1.2334546
1.2223996
1.2079158
1.1891285
1.1650775
1.1348007
1.0974755
1.0526183
1.0003137
0.94140958
0.8775829
0.81119447
0.74492036
0.68123937
0.62204617
0.56800958
0.52009347
0.47497612
0.43685736
1.4584393
1.4564316
1.4537041
1.4503081
1.4457807
1.4397701
1.4317991
1.4212564
1.4073825
1.3892628
1.3658435
1.3359846
1.2985697
1.2526852
1.1978634
1.1343513
1.06332
0.98690408
0.90798098
0.82969752
0.75486457
0.68549344
0.62230177
0.56570526
0.51304963
0.46833014
1.6162971
1.6139444
1.6107488
1.6067712
1.6014708
1.5944369
1.5851123
1.5727859
1.5565869
1.5354741
1.508249
1.4736279
1.4303737
1.3775052
1.3145751
1.2419682
1.1611211
1.0745376
0.98550682
0.89754543
0.81371892
0.73612447
0.66550428
0.60197303
0.54322021
0.49316583
1.7272947
1.7247014
1.7211801
1.7168021
1.7109721
1.7032402
1.6929914
1.6794297
1.6616087
1.6384059
1.6085196
1.5705614
1.5232084
1.4654283
1.3967863
1.3177641
1.2299878
1.1362248
1.0400567
0.94526007
0.85507603
0.77165925
0.69575979
0.62731869
0.56422564
0.51043788
1.7872471
1.7860154
1.7831027
1.7792307
1.7736512
1.7656616
1.7538938
1.7376221
1.7175552
1.6930754
1.6618356
1.6220724
1.5725107
1.5120937
1.4403932
1.357945
1.2664763
1.1688942
1.0689341
0.97050783
0.87694697
0.79043481
0.71172503
0.64067196
0.57526991
0.51951385
-0.082071802
-0.011154741
-0.021529371
0.01773808
0.018309372
0.03900155
0.043328846
0.05785069
0.059458798
0.075036514
-0.082203405
-0.010251141
-0.021207924
0.017887604
0.018597626
0.039088409
0.043517982
0.057977192
0.059570763
0.075255478
-0.082404543
-0.0079306966
-0.020309734
0.018741446
0.019476584
0.03966886
0.044159334
0.058489579
0.059942733
0.075880663
-0.082608197
-0.0041398252
-0.018798992
0.020292516
0.020940837
0.040731107
0.045239738
0.059385912
0.06056554
0.076922462
-0.082671012
0.0014163644
-0.01660557
0.02253865
0.022997842
0.04227397
0.046753024
0.060656414
0.061430741
0.078334522
-0.082348169
0.0082446392
-0.013764407
0.025455805
0.025662405
0.044301035
0.048698536
0.062297711
0.062549263
0.080100512
-0.081820662
0.015909741
-0.0097884075
0.028946015
0.028938229
0.046808998
0.051070981
0.064299207
0.063931618
0.08223603
-0.079995846
0.024867458
-0.0047297694
0.033157113
0.032843094
0.049794082
0.053864217
0.066645312
0.065593486
0.084681511
-0.075648195
0.034726307
0.001186738
0.037923478
0.037376963
0.053249878
0.057072066
0.069311179
0.067546907
0.087334352
-0.068599396
0.044525227
0.0085101764
0.043240448
0.042555638
0.057175691
0.060691041
0.072276587
0.069803844
0.090119218
-0.057717635
0.054303031
0.017346727
0.049106188
0.048388448
0.061574119
0.064719261
0.07552219
0.072390678
0.092960674
-0.041890812
0.063779107
0.027806945
0.055565832
0.054882652
0.066452221
0.069154793
0.079029455
0.075331162
0.095765653
-0.020156875
0.073108455
0.040020232
0.062759513
0.062055989
0.071822257
0.073992744
0.082779707
0.078642442
0.098449374
0.0058793726
0.081093166
0.053103677
0.070392911
0.069659095
0.077560121
0.07915732
0.086723341
0.08231991
0.10093703
0.039937725
0.087624888
0.066244013
0.078420904
0.077636997
0.083649474
0.084601295
0.090814652
0.086318652
0.10315783
0.11933663
0.12078557
0.094637232
0.095036869
0.089905279
0.091893149
0.091100552
0.095413232
0.09068404
0.10517479
0.071766157
0.086942756
0.08201766
0.0882764
0.084587496
0.079020357
0.075462339
0.050709902
0.05393784
-0.016223294
0.071700064
0.087026551
0.082028166
0.088261931
0.084597398
0.079018069
0.07546813
0.050732008
0.053901012
-0.016159137
0.071614149
0.087299066
0.082113336
0.088305806
0.08465015
0.079042377
0.075485363
0.050763799
0.053782399
-0.016055115
0.071515829
0.087778281
0.082282543
0.088404895
0.084721092
0.079086484
0.075501911
0.050806391
0.053604143
-0.015972325
0.071383371
0.088461048
0.082536863
0.088560253
0.084834608
0.079153412
0.075520308
0.050860407
0.053398356
-0.015900702
0.07124657
0.089342701
0.082879535
0.088768992
0.084988646
0.07924201
0.075538868
0.050926608
0.053193649
-0.015795926
0.071129375
0.090412429
0.083314053
0.089025612
0.085180339
0.07934999
0.075554724
0.05100543
0.053021651
-0.015619732
0.071035823
0.091640884
0.083840358
0.089321713
0.085405795
0.079473957
0.075564153
0.051096959
0.05291084
-0.015412559
0.071025013
0.09297876
0.084460168
0.089646552
0.085659449
0.079609291
0.075562325
0.051200815
0.052812644
-0.015274058
0.071187951
0.094373278
0.085175967
0.089987914
0.085934178
0.079750279
0.075543349
0.051316498
0.052672752
-0.015160748
0.071629552
0.095763048
0.085990705
0.090333542
0.08622169
0.079890413
0.075500478
0.051443377
0.052493599
-0.015004358
0.072471982
0.097085081
0.086907634
0.090672956
0.086513114
0.080022889
0.075426374
0.051580637
0.052269726
-0.014825309
0.073842058
0.098282589
0.087929773
0.090999444
0.086799912
0.080141386
0.075313625
0.051727781
0.05199406
-0.014603046
0.07585046
0.099311816
0.089059037
0.091311149
0.087074356
0.080240599
0.07515474
0.051884873
0.051658542
-0.014297306
0.078556003
0.10014595
0.090288262
0.091608464
0.087326395
0.080313713
0.074939825
0.052050623
0.051252941
-0.013881039
0.081847815
0.10083173
0.091600829
0.091921159
0.087566959
0.080368131
0.074678541
0.052224705
0.050784428
-0.01339103
0.1374857
0.17703136
0.17166926
0.16709738
0.13981181
0.12751308
0.21048011
0.21897194
0.19283201
0.17898367
0.14701012
0.1343684
0.25020073
0.2447648
0.21002896
0.18948112
0.15350208
0.14204367
0.29293788
0.27180738
0.22778838
0.19941764
0.15937854
0.14835714
0.33103171
0.2968006
0.24450466
0.20833368
0.1646089
0.15504859
0.36540828
0.31970114
0.25980892
0.21618959
0.16938793
0.16081184
0.39562038
0.33990702
0.27322252
0.2228788
0.17372311
0.165717
0.42079901
0.3568716
0.28440161
0.22834833
0.17743712
0.16957886
0.44040501
0.3701279
0.29308066
0.23254475
0.18027661
0.17247291
0.45393368
0.37929844
0.29905802
0.23539366
0.18217435
0.1744578
0.46100379
0.384087
0.30215624
0.23681073
0.18315257
0.17548027
0.12312385
0.10471104
0.091466457
0.095667581
0.093816091
0.096073068
0.095821897
0.099086339
0.094876866
0.10693701
0.17934233
0.14488419
0.12926144
0.12194883
0.11325898
0.10908876
0.10591759
0.10535717
0.10140188
0.10803242
0.16504861
0.14055758
0.13156431
0.12663569
0.12159547
0.11837751
0.11557777
0.11304359
0.1094072
0.10910441
0.16218803
0.15272051
0.14738566
0.14239948
0.13675058
0.13112859
0.12547976
0.11979654
0.11412438
0.10859044
0.13590968
0.13194073
0.12939798
0.12689948
0.12406431
0.12113338
0.1180998
0.11488713
0.11145191
0.10761013
0.1222614
0.12007821
0.11915591
0.11799822
0.11652325
0.11483716
0.11289697
0.11065896
0.10806921
0.10517092
0.08551638
0.10143253
0.092897382
0.092260635
0.087825997
0.080460506
0.074483597
0.052420922
0.050368834
-0.012905146
0.091844862
0.10116659
0.094718801
0.092508369
0.088022853
0.080512766
0.074006901
0.052729598
0.049535231
-0.011821796
0.10000615
0.10186488
0.097852327
0.093661438
0.088354745
0.080318902
0.072483469
0.052985428
0.047225879
-0.0089636835
0.10305826
0.10031377
0.096216505
0.091306224
0.085594259
0.078332446
0.070361732
0.054719417
0.044257414
-0.00046199758
0.10410162
0.10037907
0.095864057
0.090299733
0.083364765
0.0746313
0.063155244
0.049341531
0.03378192
0.011095242
0.1020173
0.098730417
0.095008093
0.090205806
0.084058155
0.076348219
0.066320465
0.054313308
0.036296364
0.020322889
-0.73666287
-0.73619898
-0.73548722
-0.73455924
-0.73334562
-0.73172434
-0.72951057
-0.72648922
-0.72236486
-0.71674449
-0.70911561
-0.6988276
-0.68508628
-0.66697644
-0.64353328
-0.61387889
-0.57744875
-0.53412637
-0.4847986
-0.43001994
-0.37382705
-0.31260877
-0.26145995
-0.19356899
-0.16560999
-0.077474831
-0.73719605
-0.7366701
-0.73595121
-0.73504519
-0.73381722
-0.73215197
-0.72988558
-0.72679439
-0.7225777
-0.71683675
-0.70905293
-0.69857013
-0.68459072
-0.66620035
-0.6424418
-0.61245367
-0.5756944
-0.53208221
-0.4825183
-0.42761157
-0.37134284
-0.31019267
-0.25916272
-0.1914572
-0.16413988
-0.074790276
-0.73867739
-0.73812137
-0.73736125
-0.73640428
-0.73510856
-0.7333537
-0.73096915
-0.72772294
-0.72330456
-0.71730435
-0.70919269
-0.69830417
-0.6838366
-0.66487963
-0.64049258
-0.60984625
-0.5724428
-0.5282623
-0.47823729
-0.42306862
-0.36665337
-0.30561458
-0.25484833
-0.18740126
-0.16146597
-0.069501365
-0.74084465
-0.74024126
-0.73941691
-0.73838049
-0.73697935
-0.73508546
-0.7325182
-0.72903324
-0.7243057
-0.71791018
-0.70930143
-0.69780117
-0.68260128
-0.66279805
-0.63747597
-0.60585402
-0.56750109
-0.5224872
-0.47179763
-0.41625551
-0.35965195
-0.29877957
-0.24846346
-0.18136641
-0.15757827
-0.061551368
-0.74334759
-0.74268032
-0.74176928
-0.74062547
-0.73908192
-0.7370003
-0.73418644
-0.73037945
-0.7252352
-0.71830735
-0.70903021
-0.69670936
-0.68053063
-0.65960171
-0.63304332
-0.60014035
-0.56055236
-0.51446602
-0.46294111
-0.40694843
-0.35014808
-0.28952226
-0.23990455
-0.17331294
-0.15237851
-0.05085852
-0.74547666
-0.74472974
-0.74371062
-0.742433
-0.74071212
-0.73839696
-0.73527669
-0.73107012
-0.72540961
-0.71782353
-0.70772171
-0.69439105
-0.67701157
-0.65470725
-0.62664625
-0.59219769
-0.55113616
-0.50379084
-0.45131766
-0.39485774
-0.33790316
-0.27761576
-0.22903823
-0.16270339
-0.14527002
-0.037505596
-0.74617239
-0.74533194
-0.74418596
-0.74275135
-0.74082258
-0.73823395
-0.73475537
-0.73008225
-0.7238201
-0.71546852
-0.70441006
-0.68991158
-0.67114888
-0.64726821
-0.61749703
-0.58130664
-0.53861006
-0.48990166
-0.43645287
-0.37958832
-0.32251785
-0.26249704
-0.21491278
-0.1496972
-0.13629433
-0.021981152
-0.74393123
-0.74298657
-0.74169932
-0.74008997
-0.73793008
-0.73503785
-0.73116216
-0.72597304
-0.719047
-0.70985298
-0.69774508
-0.68197051
-0.66170401
-0.63612129
-0.60452136
-0.56649485
-0.52211372
-0.47205503
-0.41772299
-0.36061692
-0.30337394
-0.24494491
-0.19849534
-0.13548304
-0.12572319
-0.0040118026
-0.73670015
-0.73564537
-0.73420891
-0.73241518
-0.73001182
-0.72680041
-0.72250833
-0.71677981
-0.70916231
-0.69909464
-0.68590404
-0.66882131
-0.64702547
-0.61973002
-0.58631711
-0.54651189
-0.50056444
-0.44935657
-0.39448565
-0.33772443
-0.28152292
-0.22515117
-0.17901572
-0.11793934
-0.11267598
0.016167265
-0.72193886
-0.72077485
-0.71919057
-0.71721436
-0.71457047
-0.71104458
-0.7063435
-0.70008712
-0.69179594
-0.68088157
-0.66664848
-0.64831666
-0.62507722
-0.59619144
-0.56113645
-0.51978314
-0.4725667
-0.42057001
-0.36557039
-0.30924684
-0.2547535
-0.20008843
-0.15569089
-0.096089187
-0.095743141
0.037935214
-0.69633639
-0.69507257
-0.69335337
-0.69121099
-0.6883489
-0.68453907
-0.67947099
-0.67274453
-0.66385897
-0.65220614
-0.6370769
-0.61769118
-0.59326336
-0.56311257
-0.52681768
-0.4843968
-0.43646368
-0.38427967
-0.32970881
-0.27466268
-0.22167346
-0.16895512
-0.12814782
-0.071915119
-0.075057856
0.061366436
-0.65643573
-0.65509234
-0.65326599
-0.65099201
-0.64795806
-0.64392632
-0.63857417
-0.63148822
-0.62215485
-0.6099561
-0.59418078
-0.57406162
-0.54885016
-0.51793754
-0.48101649
-0.43825776
-0.39044664
-0.33900188
-0.28586208
-0.23297171
-0.18273068
-0.13401173
-0.096079384
-0.043854447
-0.049824456
0.08637586
-0.59751519
-0.5961246
-0.59423508
-0.59188464
-0.5887529
-0.5845985
-0.57909541
-0.57182834
-0.56228525
-0.54985632
-0.53384946
-0.51353304
-0.48821684
-0.45737756
-0.42082169
-0.37885548
-0.33240362
-0.28299895
-0.23261789
-0.18318757
-0.13689455
-0.092766537
-0.058584826
-0.011473631
-0.019351569
0.11293047
-0.51622721
-0.51483669
-0.5129496
-0.51060241
-0.50747877
-0.50334175
-0.4978724
-0.49066652
-0.48122908
-0.46897589
-0.4532526
-0.43338203
-0.40875033
-0.37893654
-0.34387393
-0.30400588
-0.26037444
-0.21457158
-0.16853314
-0.12407653
-0.083066228
-0.044683613
-0.015094595
0.02574987
0.01693559
0.1412415
-0.40595013
-0.40462321
-0.40284212
-0.40059891
-0.39762301
-0.39369
-0.38850321
-0.38168994
-0.37279813
-0.36130116
-0.34661999
-0.32817204
-0.30545531
-0.27816938
-0.24636085
-0.21055775
-0.17183455
-0.1317413
-0.09207491
-0.05445128
-0.020344109
0.010975141
0.035004686
0.068437694
0.06044814
0.17523087
-0.26716878
-0.26597916
-0.26440591
-0.26239137
-0.25972898
-0.25621785
-0.251599
-0.24554958
-0.23768136
-0.2275475
-0.21466575
-0.19856687
-0.17887552
-0.15542407
-0.12838258
-0.09836486
-0.066452324
-0.034083971
-0.0028102964
0.026080691
0.051592385
0.074461147
0.091794713
0.11649749
0.11170409
0.20867014
-0.08914787
-0.088190905
-0.086949878
-0.085324764
-0.08318932
-0.080383183
-0.07670759
-0.071918778
-0.06572922
-0.057817016
-0.047849263
-0.035525453
-0.02064488
-0.0031951272
0.016554551
0.037988405
0.060153588
0.08188159
0.10201605
0.11971231
0.13447773
0.1470739
0.15578883
0.16924086
0.16396522
0.19703286
0.11905002
0.11969636
0.12057115
0.12165022
0.12307114
0.12492692
0.12733801
0.1304483
0.13441991
0.13942195
0.14560854
0.15308294
0.16184722
0.1717439
0.18240648
0.1932465
0.20350673
0.21239456
0.21927277
0.22386226
0.22623327
0.22732269
0.22637439
0.22927495
0.22166482
0.23870403
0.34520729
0.34546231
0.34580567
0.34622363
0.34676359
0.34745063
0.34831338
0.34937876
0.35066463
0.35216823
0.35384848
0.35560176
0.35723361
0.35843417
0.35877282
0.35773308
0.35480372
0.34961987
0.3421114
0.33260395
0.32172751
0.31063026
0.29920607
0.29133819
0.27832401
0.27922404
0.58723585
0.58703765
0.58676613
0.58641928
0.58594162
0.58528099
0.58436197
0.58307929
0.58128823
0.57879301
0.57533443
0.57058009
0.56412351
0.55550223
0.54424741
0.52997307
0.51249927
0.4919796
0.46898018
0.44446255
0.4195928
0.39572504
0.37316842
0.3543355
0.33427881
0.32323031
0.83202821
0.83134306
0.83041038
0.82924248
0.8276738
0.82557083
0.82274904
0.81896537
0.8139072
0.80718164
0.7983101
0.78673482
0.77184671
0.75304572
0.7298426
0.70199928
0.6696828
0.63357958
0.59490174
0.55524472
0.51627826
0.47953266
0.44546588
0.41605649
0.38673431
0.36662808
1.0705459
1.0693676
1.0677656
1.0657667
1.0630942
1.0595331
1.0547891
1.0484811
1.0401286
1.0291417
1.0148236
0.99639436
0.97304853
0.94406082
0.90894199
0.86762913
0.82066266
0.76927515
0.7153159
0.66098745
0.60843291
0.55941751
0.51481293
0.4751224
0.43552675
0.40610148
1.2906185
1.2889705
1.2867312
1.2839413
1.2802191
1.2752723
1.2687036
1.2600025
1.2485313
1.2335175
1.2140633
1.1891858
1.157904
1.119385
1.0731493
1.0193052
0.95874547
0.89321042
0.82513247
0.75725434
0.69210756
0.63158227
0.57648245
0.52714147
0.48097708
0.44239322
1.4816652
1.4796006
1.4767961
1.473305
1.4686524
1.4624782
1.4542944
1.4434763
1.4292484
1.4106781
1.3866919
1.3561309
1.3178632
1.2709671
1.2149797
1.1501691
1.0777453
0.99989611
0.91955826
0.83993257
0.76387074
0.69338008
0.62924107
0.57156464
0.51799032
0.47279737
1.6337413
1.6313441
1.6280879
1.6240358
1.6186375
1.6114763
1.6019875
1.5894529
1.572993
1.5515471
1.5239014
1.4887579
1.4448672
1.3912411
1.3274353
1.2538506
1.1719533
1.0842883
0.99419005
0.90521573
0.82045912
0.74201725
0.67065911
0.60634675
0.54690163
0.49644024
1.7383068
1.7356856
1.7321269
1.7277025
1.7218117
1.7139998
1.7036421
1.6899343
1.6719341
1.6485074
1.6183385
1.5800344
1.5322641
1.4739931
1.4047899
1.3251471
1.2367095
1.1422693
1.0454354
0.95000827
0.85924417
0.77529803
0.6989299
0.63001082
0.56649234
0.51243186
1.790969
1.7895286
1.7865018
1.7825174
1.7767919
1.7684768
1.7563291
1.7403031
1.7209909
1.6967281
1.6652846
1.6253828
1.5756586
1.5150528
1.4431419
1.3604672
1.2687634
1.170945
1.0707543
0.97210975
0.87834881
0.79165924
0.71279682
0.64158672
0.57603898
0.5201793
-0.081976292
-0.010990804
-0.021403157
0.017860215
0.01842358
0.039107917
0.043429776
0.057947661
0.059545355
0.075135775
-0.081949876
-0.009813608
-0.020881114
0.018198742
0.018889601
0.039361014
0.043778651
0.058233373
0.05979904
0.075526187
-0.08196449
-0.0071998272
-0.019753988
0.019264162
0.019970126
0.040127958
0.044599822
0.058918695
0.060328465
0.076330281
-0.081971288
-0.0031366741
-0.018022517
0.021008878
0.021621058
0.041360031
0.045843697
0.059970898
0.06109079
0.077539622
-0.081806704
0.0026703424
-0.015601989
0.023441892
0.023860984
0.043066642
0.047514652
0.06138715
0.062089013
0.07910438
-0.081175849
0.0097146655
-0.01253069
0.026538575
0.026704311
0.045251071
0.049611761
0.063164149
0.063338818
0.08099746
-0.080237979
0.017543267
-0.0083272508
0.030203226
0.030156028
0.047911549
0.052130772
0.065291962
0.064852778
0.083233627
-0.077998192
0.026667933
-0.0030193478
0.034593395
0.034237
0.051046824
0.055067165
0.067755261
0.066643628
0.085750761
-0.073124216
0.036697332
0.0031725596
0.039541645
0.038949689
0.054653627
0.058417091
0.070532801
0.068724396
0.088453161
-0.065448899
0.046628002
0.010783451
0.045050172
0.044312433
0.058734544
0.062179479
0.073607292
0.071111863
0.091269427
-0.053843925
0.056553449
0.019918553
0.051122702
0.050336022
0.063294541
0.066354059
0.076962124
0.073832545
0.094123251
-0.0372259
0.06621929
0.030682321
0.057808847
0.057028135
0.068341636
0.070939132
0.08058074
0.076908891
0.096926423
-0.014685742
0.075816849
0.043200385
0.065252299
0.064405732
0.073886916
0.075927999
0.084444885
0.080354194
0.099600474
0.012053921
0.084087675
0.056523424
0.07312165
0.072195854
0.079791039
0.081234713
0.088500407
0.08415625
0.10207828
0.04690495
0.091070094
0.069876068
0.081395377
0.080359593
0.08604395
0.086812683
0.092700923
0.0882624
0.1042954
0.12750558
0.12573651
0.099043086
0.09858888
0.092988533
0.094540816
0.093486024
0.097428677
0.092719746
0.10631948
0.071825478
0.087025159
0.082085262
0.088334408
0.084644601
0.079038777
0.075452993
0.050695756
0.053865975
-0.016177168
0.071856599
0.08725741
0.082218113
0.088432493
0.084735803
0.079084454
0.075452374
0.050703187
0.053697528
-0.016067517
0.071879351
0.0876764
0.082423162
0.088577231
0.084840329
0.079148532
0.07545547
0.050721305
0.053476189
-0.015975642
0.071866489
0.088289634
0.082701218
0.088770461
0.084982265
0.079234502
0.075463883
0.05075454
0.053230837
-0.015895841
0.071811747
0.089094995
0.083056536
0.089011883
0.085161053
0.079342038
0.075476091
0.050803599
0.052992399
-0.015780523
0.071756038
0.090084475
0.083492525
0.089298358
0.08537502
0.079469593
0.075489919
0.05086889
0.052796708
-0.015598154
0.071721913
0.091244442
0.084013195
0.089623847
0.08562147
0.079614734
0.075502407
0.05095056
0.052665563
-0.015399744
0.071721006
0.092543469
0.084618751
0.08997954
0.085896293
0.079773893
0.075509544
0.051048346
0.052548226
-0.01526815
0.071820171
0.093931718
0.085310968
0.090354708
0.086194038
0.079942382
0.075506302
0.05116181
0.052396193
-0.015155622
0.072116201
0.095356355
0.08609276
0.090738013
0.086508007
0.080114612
0.075486752
0.051290287
0.05221189
-0.0150126
0.072717402
0.096757152
0.086968447
0.091118984
0.086830726
0.080284456
0.075444221
0.051432854
0.051990471
-0.01485233
0.073747057
0.098074614
0.087942694
0.091489633
0.087154602
0.080445807
0.075371603
0.051588695
0.051725384
-0.014638365
0.075325913
0.099257648
0.089019647
0.091846347
0.087472861
0.080593401
0.075261895
0.051757111
0.0514093
-0.014341226
0.077550968
0.10027007
0.090201879
0.092190618
0.087779894
0.080723236
0.07510815
0.051937787
0.051034059
-0.013948112
0.080459266
0.10109293
0.091481403
0.092525226
0.088067362
0.08082953
0.074900931
0.052128851
0.050589945
-0.013437321
0.08391684
0.10177692
0.092841206
0.092882103
0.088349508
0.080922498
0.074651063
0.05232995
0.050084431
-0.012838256
0.14422738
0.18237984
0.17526771
0.16937447
0.14126425
0.12825795
0.21705211
0.22401427
0.19627069
0.18116521
0.14836629
0.13516538
0.25720011
0.24960894
0.21345814
0.19152156
0.15474613
0.14281649
0.29951702
0.27622331
0.23104283
0.20127773
0.16051313
0.14909416
0.33671565
0.300928
0.24750075
0.20998594
0.16561751
0.15575225
0.37057651
0.32339874
0.26246525
0.21761392
0.17027756
0.16145107
0.40003451
0.34307445
0.2754736
0.2240606
0.17448719
0.16624784
0.42435502
0.35942255
0.28619734
0.2292762
0.17805119
0.16999601
0.44300704
0.37199319
0.29438424
0.23320804
0.18072323
0.17277432
0.45551458
0.38042845
0.29984275
0.2357853
0.18244712
0.17463869
0.46152797
0.38446266
0.30241489
0.23693664
0.18324334
0.17553774
0.12782269
0.10855258
0.095105774
0.098799593
0.09667287
0.098633668
0.098177243
0.10112548
0.096928633
0.10812894
0.18392219
0.14941341
0.13327867
0.12540263
0.11633949
0.11182716
0.10838161
0.1075093
0.1034502
0.10931932
0.16836055
0.14363546
0.13441833
0.12935939
0.12413842
0.120738
0.11776059
0.11501273
0.11120511
0.11038416
0.16446276
0.15505717
0.1497407
0.14472841
0.13903495
0.13335827
0.12764295
0.12188445
0.1161309
0.11053105
0.13745845
0.13351474
0.1309928
0.12850726
0.12568015
0.12275372
0.1197227
0.11651264
0.11308594
0.10925398
0.12301592
0.1208515
0.11993846
0.11878598
0.11731439
0.11562886
0.1136859
0.11144133
0.10884105
0.10592439
0.087695295
0.10241639
0.094205425
0.093289023
0.088667603
0.081064911
0.07447431
0.052553881
0.049634898
-0.012255551
0.093928294
0.10225268
0.096062461
0.093602702
0.088914219
0.081157164
0.074012713
0.052886017
0.048770447
-0.011052735
0.10161112
0.10287325
0.09899448
0.094812088
0.089383558
0.081123436
0.072574376
0.053214464
0.046488539
-0.0078982497
0.10500176
0.10190755
0.097719425
0.092779048
0.086739796
0.078843476
0.070042323
0.054436088
0.042889065
0.00074698361
0.10578254
0.10202193
0.097476949
0.091917897
0.084990957
0.076313223
0.065037865
0.051255743
0.033006261
0.011196411
0.10276124
0.099463576
0.09571308
0.090868296
0.084661421
0.076856462
0.066717389
0.05451056
0.036481613
0.020198409
)
;

boundaryField
{
    inlet
    {
        type            zeroGradient;
    }
    outlet
    {
        type            fixedValue;
        value           uniform 0;
    }
    cylinder
    {
        type            zeroGradient;
    }
    frontAndBack
    {
        type            empty;
    }
}


// ************************************************************************* //
