/*--------------------------------*- C++ -*----------------------------------*\
  =========                 |
  \\      /  F ield         | OpenFOAM: The Open Source CFD Toolbox
   \\    /   O peration     | Website:  https://openfoam.org
    \\  /    A nd           | Version:  13
     \\/     M anipulation  |
\*---------------------------------------------------------------------------*/
FoamFile
{
    format      ascii;
    class       surfaceScalarField;
    location    "500";
    object      phi;
}
// * * * * * * * * * * * * * * * * * * * * * * * * * * * * * * * * * * * * * //

dimensions      [0 3 -1 0 0 0 0];

internalField   nonuniform List<scalar> 
2337
(
9.8443443e-10
-9.8411618e-10
4.1941392e-09
-3.2096578e-09
1.1506009e-08
-7.3125961e-09
2.8112812e-08
-1.6608701e-08
6.5674496e-08
-3.7566299e-08
1.5009457e-07
-8.443099e-08
3.3794099e-07
-1.8787174e-07
7.4937423e-07
-4.1149078e-07
1.6283281e-06
-8.7908095e-07
3.4342622e-06
-1.8062032e-06
6.9301517e-06
-3.4964202e-06
1.3133251e-05
-6.2040187e-06
2.2895183e-05
-9.7631453e-06
3.5997378e-05
-1.3102734e-05
5.017742e-05
-1.4176731e-05
6.051154e-05
-1.0319928e-05
5.7632719e-05
2.915761e-06
2.3883102e-05
3.3825909e-05
-6.9058052e-05
9.3071824e-05
-0.00023071996
0.00016184991
-0.00032882956
9.8341863e-05
0.00012052283
-0.00044911225
0.0021064616
-0.0019857353
0.0075484119
-0.0054418376
0.018221134
-0.010672716
-0.022478056
0.040699247
-1.3874549e-09
4.0274045e-10
-5.9126772e-09
1.3136865e-09
-1.6257351e-08
3.0277421e-09
-3.9854645e-08
6.9787379e-09
-9.350983e-08
1.606673e-08
-2.1488821e-07
3.6898129e-08
-4.8713703e-07
8.4269644e-08
-1.0892663e-06
1.9041158e-07
-2.3909392e-06
4.2213791e-07
-5.1045632e-06
9.0659358e-07
-1.0457084e-05
1.8548393e-06
-2.0219945e-05
3.5576162e-06
-3.6369845e-05
6.3876024e-06
-6.0535713e-05
1.1071458e-05
-9.4381952e-05
1.9696105e-05
-0.0001426843
3.8043988e-05
-0.00021895464
7.9300763e-05
-0.00034511277
0.00016016141
-0.00052390983
0.0002720954
-0.00065234369
0.00029050858
-0.00037029041
-0.00018356753
0.0011087408
-0.0019281653
0.0051404873
-0.0060177376
0.013815073
-0.014116896
0.02994761
-0.026805884
-0.051023308
0.058492289
3.6421155e-11
3.6553606e-10
1.7279317e-10
1.1755046e-09
5.0224375e-10
2.6948006e-09
1.3061671e-09
6.1672382e-09
3.2517015e-09
1.4104775e-08
7.8953412e-09
3.2219404e-08
1.8643692e-08
7.3448387e-08
4.1971116e-08
1.6694025e-07
8.6210808e-08
3.7764035e-07
1.4470929e-07
8.4771493e-07
1.1837213e-07
1.8808603e-06
-4.2410414e-07
4.1006293e-06
-2.7579177e-06
8.7249347e-06
-9.7503521e-06
1.8074839e-05
-2.6920372e-05
3.6891999e-05
-6.449388e-05
7.5668069e-05
-0.00013736968
0.0001522604
-0.00024781465
0.00027072418
-0.00031181339
0.00033623236
-1.5434381e-07
-2.1018233e-05
0.0014248426
-0.0016084685
0.0052230031
-0.0057262844
0.013256068
-0.014050824
0.028045321
-0.028906185
0.053029198
-0.051789722
-0.091205835
0.093211806
-3.6602419e-11
4.0168011e-10
-1.3507255e-10
1.2741819e-09
-3.699233e-10
2.9312935e-09
-9.2566286e-10
6.7270163e-09
-2.2526765e-09
1.5441441e-08
-5.4555391e-09
3.5444985e-08
-1.329149e-08
8.1337261e-08
-3.2698555e-08
1.8647013e-07
-8.1384009e-08
4.2661231e-07
-2.0530887e-07
9.7231848e-07
-5.2534542e-07
2.2025327e-06
-1.3682032e-06
4.9474278e-06
-3.6508795e-06
1.1016756e-05
-9.9668606e-06
2.4410441e-05
-2.6937209e-05
5.3900084e-05
-6.6589698e-05
0.00011538396
-0.0001321831
0.00021794477
-0.00015634282
0.00029499316
0.0001480369
3.1960444e-05
0.0014696378
-0.0013425311
0.0050064487
-0.0051452162
0.012487333
-0.01320711
0.026172431
-0.027735843
0.048895586
-0.051629152
0.084484916
-0.087378682
-0.14423612
0.13751563
-9.6456916e-11
4.9763897e-10
-3.7545111e-10
1.5543853e-09
-1.0274373e-09
3.5880785e-09
-2.5438698e-09
8.2548091e-09
-6.0861015e-09
1.9010228e-08
-1.4403642e-08
4.3824093e-08
-3.4063985e-08
1.0113925e-07
-8.0912785e-08
2.3364243e-07
-1.9362081e-07
5.4005301e-07
-4.677927e-07
1.24813e-06
-1.1437317e-06
2.8820679e-06
-2.840826e-06
6.6521479e-06
-7.1952884e-06
1.5386557e-05
-1.8363771e-05
3.5607489e-05
-4.4535219e-05
8.0119282e-05
-8.8476582e-05
0.00015939431
-9.8689773e-05
0.00022824048
0.00015967043
3.6711569e-05
0.0012886465
-0.0010969575
0.0043760753
-0.0044299192
0.010988039
-0.011757127
0.023070689
-0.025289641
0.042960962
-0.047625886
0.073493706
-0.082161444
0.11853721
-0.13242151
-0.20789148
0.1821934
-1.5945191e-10
6.5640916e-10
-6.2111322e-10
2.0184682e-09
-1.6994499e-09
4.6750553e-09
-4.2056697e-09
1.0781471e-08
-1.0055442e-08
2.4907684e-08
-2.3782585e-08
5.7661281e-08
-5.6221412e-08
1.3382924e-07
-1.335704e-07
3.1155748e-07
-3.201754e-07
7.2791358e-07
-7.7766319e-07
1.7083411e-06
-1.9253251e-06
4.0354452e-06
-4.8810914e-06
9.6193382e-06
-1.2511355e-05
2.3038096e-05
-3.0592093e-05
5.3724048e-05
-6.1225177e-05
0.00011080478
-6.5551888e-05
0.00016378406
0.00014129491
2.1451252e-05
0.0010624854
-0.00088444377
0.0036447359
-0.0036791945
0.0092465059
-0.010031665
0.019482149
-0.021992681
0.036152824
-0.041960099
0.061372692
-0.072845369
0.097795359
-0.11858345
0.14908156
-0.18370688
-0.27787455
0.21906578
-2.5032365e-10
9.0554394e-10
-9.7645759e-10
2.7481848e-09
-2.6803105e-09
6.3915648e-09
-6.6527865e-09
1.478422e-08
-1.5965048e-08
3.4290904e-08
-3.7949638e-08
7.980966e-08
-9.0351498e-08
1.8660329e-07
-2.169155e-07
4.3895224e-07
-5.2838317e-07
1.0411932e-06
-1.3147188e-06
2.4985053e-06
-3.3508516e-06
6.0793092e-06
-8.600812e-06
1.4883925e-05
-2.0918482e-05
3.5380945e-05
-4.119632e-05
7.4039763e-05
-3.894895e-05
0.0001086042
0.00013031286
-5.4349381e-06
0.00087457692
-0.00072279013
0.0029884549
-0.0029983218
0.0076131066
-0.0083038431
0.016043798
-0.018462299
0.029610079
-0.035558793
0.049770874
-0.062120575
0.078375772
-0.10144978
0.1179287
-0.15813563
0.17193894
-0.2377163
-0.35026543
0.24433099
-4.0734034e-10
1.3104595e-09
-1.6067899e-09
3.9514034e-09
-4.445207e-09
9.2448111e-09
-1.1103888e-08
2.1479371e-08
-2.6845375e-08
5.0119251e-08
-6.4459042e-08
1.1762556e-07
-1.5570284e-07
2.7830769e-07
-3.8169857e-07
6.6597109e-07
-9.5556081e-07
1.6172563e-06
-2.4380796e-06
3.9855527e-06
-6.1871539e-06
9.8371348e-06
-1.4580359e-05
2.3292573e-05
-2.6921628e-05
4.7746127e-05
-1.7107354e-05
6.4255853e-05
0.00013030181
-3.8777007e-05
0.00074215847
-0.00061727862
0.0024672487
-0.0024478852
0.0062375002
-0.0067685755
0.01306347
-0.015129771
0.023880523
-0.029279223
0.039638155
-0.051316181
0.061541759
-0.08402381
0.091369505
-0.13127703
0.13165274
-0.19841821
0.1859601
-0.29202302
-0.42262314
0.25831871
-7.0570363e-10
2.0112698e-09
-2.8565596e-09
6.104119e-09
-8.0246824e-09
1.4425391e-08
-2.0314033e-08
3.3801907e-08
-4.9892615e-08
7.9780284e-08
-1.2228087e-07
1.9021006e-07
-3.0300281e-07
4.5947922e-07
-7.6190221e-07
1.1258596e-06
-1.9239572e-06
2.7813831e-06
-4.7107861e-06
6.776448e-06
-1.0312146e-05
1.5445782e-05
-1.6173892e-05
2.9165715e-05
2.3731653e-06
2.9213294e-05
0.00014169557
-7.5055195e-05
0.0006646038
-0.00056168496
0.002089512
-0.0020421982
0.0051550853
-0.0055134626
0.01062398
-0.012237431
0.019120952
-0.02362663
0.031213231
-0.041371305
0.04764734
-0.067750018
0.069639095
-0.10601523
0.099104608
-0.16074215
0.13868948
-0.23800263
0.19194222
-0.3452754
-0.49345588
0.26277551
-1.4085096e-09
3.4097661e-09
-5.9426194e-09
1.0633429e-08
-1.7127687e-08
2.5610131e-08
-4.4314547e-08
6.0996868e-08
-1.1119055e-07
1.4668722e-07
-2.7725917e-07
3.5636527e-07
-6.878077e-07
8.7023679e-07
-1.6655518e-06
2.1040579e-06
-3.7407255e-06
4.8574478e-06
-6.9413325e-06
9.9785821e-06
-6.4103185e-06
1.4916834e-05
2.3122659e-05
-3.6591761e-07
0.00016671312
-0.00011438054
0.00063829886
-0.00054665424
0.0018443343
-0.0017677418
0.0043471176
-0.0045449923
0.0086964383
-0.0098627515
0.015275911
-0.018816803
0.024386412
-0.032736964
0.036460722
-0.053445404
0.05232141
-0.083610477
0.073371281
-0.12706487
0.10161438
-0.18898501
0.13965312
-0.27604115
0.190818
-0.39644014
-0.56136333
0.25872573
-3.3390476e-09
6.7279853e-09
-1.4877741e-08
2.2150126e-08
-4.4168512e-08
5.4866105e-08
-1.1538817e-07
1.3215426e-07
-2.8477688e-07
3.1595971e-07
-6.6791965e-07
7.3928652e-07
-1.4459822e-06
1.647874e-06
-2.6412678e-06
3.2985409e-06
-2.8150474e-06
5.0297375e-06
5.7404822e-06
1.4202881e-06
5.073246e-05
-3.0080602e-05
0.00021043475
-0.00016007948
0.00066078168
-0.00056474829
0.0017120195
-0.0015979207
0.0037673145
-0.0038230564
0.0071918316
-0.007969489
0.012193308
-0.014864147
0.018895842
-0.025519198
0.027539332
-0.041380288
0.038674389
-0.0645803
0.053306423
-0.09824238
0.072885943
-0.14664429
0.099310643
-0.21540961
0.13495907
-0.31168951
0.18281525
-0.44429629
-0.62470218
0.24615427
-9.8471483e-09
1.6525409e-08
-4.4355166e-08
5.6589025e-08
-1.2498786e-07
1.3537887e-07
-2.8922908e-07
2.9617246e-07
-5.700679e-07
5.9638446e-07
-8.4810078e-07
1.0165726e-06
-2.6356208e-07
1.0620473e-06
4.6667197e-06
-1.6338407e-06
2.5237939e-05
-1.5544844e-05
9.2530243e-05
-6.5877752e-05
0.00027925293
-0.0002168138
0.00072789227
-0.00060873745
0.0016625744
-0.0014994569
0.0033469473
-0.0032823157
0.0059876197
-0.0064637201
0.0096747324
-0.01165654
0.014429812
-0.019619116
0.020386579
-0.031475837
0.027919692
-0.048913288
0.03772839
-0.074388923
0.050809251
-0.11132321
0.068464835
-0.16429986
0.092350627
-0.23929537
0.12454119
-0.34388006
0.16763082
-0.48738587
-0.68159929
0.22452813
-1.5972872e-08
3.2363144e-08
-5.0799197e-08
9.1231708e-08
-4.5264209e-08
1.2957908e-07
2.4060909e-07
9.8979216e-09
1.6060495e-06
-7.6962294e-07
6.3994379e-06
-3.7775188e-06
2.0875257e-05
-1.3414537e-05
6.0185665e-05
-4.094511e-05
0.00015744096
-0.00011280169
0.00037676566
-0.00028520665
0.00082487927
-0.00066493766
0.0016456088
-0.0014294847
0.0029839118
-0.0028377777
0.0049303639
-0.0052287675
0.0074951588
-0.0090284754
0.010667545
-0.014828847
0.01453161
-0.023483084
0.01935279
-0.036296934
0.025591032
-0.05515148
0.033881315
-0.082679193
0.045049293
-0.1224912
0.06016397
-0.17941454
0.080598927
-0.2597303
0.10808861
-0.3713697
0.14479459
-0.52409172
-0.72997591
0.19317148
1.4334191e-07
-1.1113452e-07
8.5198889e-07
-6.1752222e-07
2.9632186e-06
-1.9815963e-06
8.4237263e-06
-5.4502228e-06
2.1509897e-05
-1.3854808e-05
5.1051268e-05
-3.3317018e-05
0.00011405998
-7.642045e-05
0.00024070324
-0.00016758539
0.00047900209
-0.00035109954
0.0008946566
-0.0007008655
0.0015602793
-0.0013305726
0.0025322004
-0.0024014219
0.0038262933
-0.0041318761
0.0054242638
-0.0068267169
0.0073216686
-0.01092583
0.009584809
-0.01709192
0.012400278
-0.026298489
0.016041985
-0.039938595
0.020865675
-0.059975146
0.027335625
-0.089149134
0.036070052
-0.13122562
0.047886683
-0.19123114
0.063844665
-0.2756882
0.08528196
-0.39280687
0.11385373
-0.55266324
-0.76753042
0.15140858
1.0818635e-06
-1.1918805e-06
5.635842e-06
-5.1698416e-06
1.6785736e-05
-1.312939e-05
3.9845654e-05
-2.8507325e-05
8.3448555e-05
-5.745423e-05
0.00016081505
-0.00011067985
0.00029068038
-0.00020628311
0.00049693386
-0.00037383911
0.00080535873
-0.00065952968
0.0012364031
-0.0011319206
0.0017971984
-0.0018913807
0.0024799186
-0.0030841484
0.0032730015
-0.0049249506
0.0041871843
-0.0077408749
0.0052817052
-0.012020317
0.0066586453
-0.018468825
0.0084487736
-0.028088581
0.010810753
-0.042300536
0.013955257
-0.063119603
0.018175351
-0.09336917
0.023871275
-0.13692146
0.031572553
-0.19893228
0.041966205
-0.28608165
0.055919559
-0.40675996
0.074489135
-0.57123241
-0.79178868
0.098747822
9.8418031e-07
-2.1728432e-06
4.9847173e-06
-9.1661815e-06
1.4402095e-05
-2.2542706e-05
3.2922757e-05
-4.7024288e-05
6.5728467e-05
-9.0257357e-05
0.00011931927
-0.00016427013
0.0002005349
-0.00028750115
0.00031462006
-0.00048792996
0.00046269246
-0.00080761024
0.0006400123
-0.0013092485
0.00083807906
-0.0020894516
0.0010508294
-0.003296896
0.0012847886
-0.0051589003
0.0015657713
-0.0080218465
0.001931638
-0.012386176
0.0024172724
-0.018954453
0.0030568403
-0.028728135
0.0039016571
-0.043145314
0.0050264684
-0.064244338
0.0065360519
-0.094878628
0.0085722464
-0.13895746
0.011321574
-0.20168134
0.015033458
-0.28979316
0.020027608
-0.41175365
0.026683806
-0.57788805
-0.80035349
0.035249095
-1.0419187e-06
-1.1344102e-06
-5.2896162e-06
-4.9231022e-06
-1.5331416e-05
-1.2505435e-05
-3.5196463e-05
-2.7163503e-05
-7.0652709e-05
-5.4804291e-05
-0.00012912691
-0.0001057969
-0.00021878194
-0.00019784357
-0.00034644094
-0.00036026379
-0.00051440387
-0.00063963529
-0.00071792074
-0.0011057162
-0.00094694689
-0.0018604104
-0.001193045
-0.0030507893
-0.0014621879
-0.0048897603
-0.0017827971
-0.0077012506
-0.0021981323
-0.011970859
-0.0027498678
-0.018402733
-0.003471203
-0.028006804
-0.004410666
-0.042205828
-0.0056517591
-0.063003172
-0.0073159265
-0.093214308
-0.0095658029
-0.13670733
-0.012615603
-0.19863114
-0.016725082
-0.28568314
-0.022206327
-0.40627173
-0.029408594
-0.57068506
-0.7913468
-0.038414783
-1.0612344e-06
-7.4110974e-08
-5.5439663e-06
-4.4181238e-07
-1.6572635e-05
-1.4787352e-06
-3.9539954e-05
-4.1990611e-06
-8.339873e-05
-1.0949504e-05
-0.00016228815
-2.6912508e-05
-0.00029712583
-6.3011279e-05
-0.00051631755
-0.00014107614
-0.00085382231
-0.00030213012
-0.0013420561
-0.00061747347
-0.002000962
-0.0012014846
-0.0028281734
-0.0022235486
-0.003806573
-0.0039113301
-0.0049349882
-0.0065728163
-0.0062594254
-0.010646425
-0.0078938121
-0.01676837
-0.0099972558
-0.025903392
-0.012767588
-0.039435513
-0.016455297
-0.059315437
-0.021406301
-0.088263196
-0.028093988
-0.1300194
-0.037151161
-0.18957355
-0.049374268
-0.27345942
-0.06574726
-0.38989794
-0.087449177
-0.54898228
-0.76294553
-0.11584911
-1.0161679e-07
2.7713236e-08
-6.2756083e-07
8.4348623e-08
-2.2567897e-06
1.5062347e-07
-6.6235808e-06
1.6766133e-07
-1.7443555e-05
-1.3006544e-07
-4.2694074e-05
-1.6634554e-06
-9.8469972e-05
-7.238409e-06
-0.00021499094
-2.4560297e-05
-0.00044419929
-7.2928728e-05
-0.00086514979
-0.00019652944
-0.0015802297
-0.00048640492
-0.0026939765
-0.0011097865
-0.0042736456
-0.0023316232
-0.0063252211
-0.0045211859
-0.0088251888
-0.0081464056
-0.011803615
-0.013789918
-0.015423254
-0.022283765
-0.02001893
-0.034839876
-0.026049833
-0.053284578
-0.034129275
-0.080183757
-0.045046845
-0.11910174
-0.059844909
-0.17477522
-0.07985207
-0.25345175
-0.10672286
-0.3630264
-0.14244463
-0.51325954
-0.71601578
-0.18937315
1.7179268e-08
1.065015e-08
6.5908939e-08
3.5793026e-08
1.2976766e-07
8.7037579e-08
9.9389432e-08
1.9851562e-07
-4.6295826e-07
4.330994e-07
-3.0021732e-06
8.7706227e-07
-1.1739424e-05
1.5007129e-06
-3.7845606e-05
1.5482085e-06
-0.00010823234
-2.5397715e-06
-0.00028115554
-2.3605197e-05
-0.00066768966
-9.9871877e-05
-0.0014497418
-0.00032773557
-0.0028662858
-0.0009150726
-0.0051500926
-0.0022373513
-0.0084447375
-0.0048517034
-0.01277743
-0.0094571547
-0.018182844
-0.016878297
-0.024877606
-0.028145104
-0.033354599
-0.04480763
-0.044461185
-0.069077254
-0.059326838
-0.10423616
-0.079436607
-0.15466544
-0.10666856
-0.22621961
-0.14335921
-0.32633534
-0.19233524
-0.46428277
-0.65139935
-0.25695051
6.8519366e-09
3.8382068e-09
3.0570501e-08
1.2139217e-08
8.8124323e-08
2.9601539e-08
2.1593109e-07
7.0947778e-08
4.7889843e-07
1.7062442e-07
9.4697134e-07
4.099965e-07
1.4797812e-06
9.6991842e-07
8.2832942e-07
2.2035228e-06
-6.3221942e-06
4.6175633e-06
-3.7741242e-05
7.8244179e-06
-0.00014354781
5.9484205e-06
-0.00044346244
-2.7807345e-05
-0.0011762647
-0.00018226186
-0.0027286115
-0.00068500103
-0.0055750736
-0.0020052314
-0.010126012
-0.0049061851
-0.016623697
-0.010380557
-0.025223118
-0.019545632
-0.036268815
-0.033761924
-0.050508359
-0.054837768
-0.069216742
-0.085527911
-0.094257749
-0.12962461
-0.1280605
-0.19241702
-0.17367289
-0.28072305
-0.23481052
-0.40314506
-0.57037564
-0.31583382
2.1105903e-09
1.7439309e-09
8.98408e-09
5.2907285e-09
2.6099135e-08
1.2531107e-08
6.7680859e-08
2.9458126e-08
1.6869082e-07
6.9810605e-08
4.1197846e-07
1.6713506e-07
9.7812971e-07
4.047057e-07
2.1940693e-06
9.8965002e-07
4.3945883e-06
2.4214569e-06
6.4612321e-06
5.7666939e-06
-4.5094059e-07
1.2876701e-05
-5.2125331e-05
2.3891094e-05
-0.00025852085
2.4161196e-05
-0.00088585687
-5.7645007e-05
-0.0024417954
-0.00044929193
-0.0056715768
-0.0016764201
-0.011374029
-0.0046781229
-0.02018294
-0.010736734
-0.032616133
-0.021328742
-0.049330245
-0.038123691
-0.071513418
-0.063344825
-0.10104787
-0.10009032
-0.14072667
-0.15273849
-0.19423654
-0.22721357
-0.26621721
-0.33116487
-0.47446324
-0.36213008
8.4972947e-10
9.009683e-10
3.4250493e-09
2.7226037e-09
9.6013654e-09
6.3640793e-09
2.429061e-08
1.4785806e-08
5.9630291e-08
3.4503708e-08
1.4583587e-07
8.0997894e-08
3.5897408e-07
1.9172476e-07
8.9009313e-07
4.5892789e-07
2.1985707e-06
1.1140376e-06
5.225187e-06
2.7428963e-06
1.1315019e-05
6.7938432e-06
1.8817332e-05
1.6403783e-05
6.4091648e-06
3.6595192e-05
-0.00011625681
6.5052863e-05
-0.00061604065
5.0513635e-05
-0.002080592
-0.00021187884
-0.0054952481
-0.001263522
-0.012095633
-0.0041364457
-0.023103791
-0.010320708
-0.039635535
-0.02159208
-0.063021141
-0.039959352
-0.09515324
-0.067958358
-0.13888329
-0.10900861
-0.19820096
-0.16789617
-0.27850034
-0.2508659
-0.36655291
-0.38641133
4.0903233e-10
4.9407601e-10
1.6073919e-09
1.5221554e-09
4.4288392e-09
3.5332643e-09
1.1025414e-08
8.1658739e-09
2.6551828e-08
1.8921602e-08
6.3431614e-08
4.3989698e-08
1.5214579e-07
1.0272535e-07
3.6915871e-07
2.4131211e-07
9.105597e-07
5.7145593e-07
2.2832595e-06
1.3681652e-06
5.7522839e-06
3.3220992e-06
1.3974695e-05
8.17965e-06
3.0389057e-05
2.0184152e-05
4.7668971e-05
4.7785408e-05
-1.4264711e-06
9.9626483e-05
-0.00036167409
0.0001483724
-0.0016508704
2.5634886e-05
-0.0050156956
-0.00077173028
-0.012085232
-0.0032513651
-0.024716121
-0.0089614573
-0.044870968
-0.019804798
-0.07482073
-0.038008838
-0.11759532
-0.066234148
-0.17735874
-0.10813275
-0.25988107
-0.1683434
-0.25356527
-0.37286866
2.3220638e-10
2.6190844e-10
9.0902884e-10
8.3946908e-10
2.4770473e-09
1.9488749e-09
6.0796949e-09
4.5247888e-09
1.4376886e-08
1.0535516e-08
3.3543127e-08
2.4620416e-08
7.802945e-08
5.7782088e-08
1.8209134e-07
1.3624248e-07
4.2862807e-07
3.2276189e-07
1.0246853e-06
7.6769717e-07
2.5066589e-06
1.831737e-06
6.2884559e-06
4.3835863e-06
1.5928511e-05
1.052341e-05
3.8448885e-05
2.5240439e-05
7.8934648e-05
5.9115843e-05
0.00010061764
0.00012666084
-9.3975172e-05
0.00022017646
-0.001081713
0.00021590523
-0.0040347203
-0.00029853718
-0.010793888
-0.0022025542
-0.023724693
-0.006874301
-0.045637631
-0.016096127
-0.079977924
-0.031893826
-0.13128397
-0.056826225
-0.20567948
-0.093946841
-0.14757091
-0.3116724
6.9353437e-10
-4.3252557e-10
2.9390703e-09
-1.4124201e-09
8.0947324e-09
-3.2232069e-09
1.9914863e-08
-7.3331959e-09
4.7003576e-08
-1.6639923e-08
1.090492e-07
-3.7622828e-08
2.5100326e-07
-8.4619255e-08
5.7510064e-07
-1.8885792e-07
1.3123215e-06
-4.1667982e-07
2.9788485e-06
-9.0364037e-07
6.7100086e-06
-1.9094604e-06
1.4950763e-05
-3.8769286e-06
3.2831005e-05
-7.3925362e-06
7.0715588e-05
-1.2701845e-05
0.00014767511
-1.7926428e-05
0.00028880642
-1.4578726e-05
0.00049487037
1.3978334e-05
0.00063695481
7.3666632e-05
0.00025348148
8.4788559e-05
-0.0016958633
-0.0002532969
-0.007046841
-0.0015232489
-0.018540871
-0.004601676
-0.039783602
-0.010650071
-0.075670975
-0.020936876
-0.13279365
-0.03682102
-0.060354994
-0.22000552
-4.3360917e-10
-1.8505802e-09
-5.0841611e-09
-1.2440948e-08
-2.9134603e-08
-6.687975e-08
-1.5177717e-07
-3.4126663e-07
-7.5937559e-07
-1.6662265e-06
-3.5827748e-06
-7.4747738e-06
-1.4897176e-05
-2.765187e-05
-4.5657585e-05
-6.0331572e-05
-4.6434804e-05
2.7212683e-05
0.00011210059
-0.00014092307
-0.0016636565
-0.006264489
-0.016913256
-0.03784816
-0.07466704
-0.13502092
0.062356066
-0.021656946
0.087090347
-0.024734127
0.11412178
-0.027031481
0.14345955
-0.02933765
0.1750892
-0.031629502
0.20871836
-0.033628895
0.24387911
-0.035160341
0.27995476
-0.036075126
0.31545806
-0.035502636
-0.034451039
0.34990983
0.081211331
-0.044376641
0.10712771
-0.050650843
0.13608224
-0.055986345
0.16785578
-0.061111311
0.20237127
-0.066144963
0.23915724
-0.070414654
0.27758975
-0.073592417
0.3167184
-0.075203202
0.35502649
-0.073809883
-0.070396262
0.39097246
0.12028096
-0.07144542
0.15032012
-0.080689506
0.18352513
-0.089190829
0.21967214
-0.097257657
0.25848641
-0.10495854
0.29935342
-0.11128089
0.34135997
-0.11559809
0.38321402
-0.11705634
0.42310739
-0.11370221
-0.10598874
0.45870077
0.17001116
-0.1039401
0.20538126
-0.11605878
0.24410987
-0.12791854
0.28591385
-0.13906065
0.33024778
-0.1492915
0.37632727
-0.15735938
0.42295497
-0.16222473
0.46845589
-0.16255622
0.51070685
-0.15595206
-0.1417236
0.5464426
0.2202984
-0.14204388
0.2613761
-0.15713539
0.30607396
-0.17261521
0.35400009
-0.18698555
0.40440982
-0.19970004
0.45635188
-0.20930026
0.50840944
-0.2142811
0.55861255
-0.21275819
0.60454519
-0.20188353
-0.17947137
0.64229393
0.26227001
-0.18524676
0.30885566
-0.2037198
0.35930581
-0.22306403
0.41317279
-0.2408512
0.46958227
-0.25610824
0.52747988
-0.26719662
0.58534357
-0.27214355
0.64106813
-0.26848156
0.69204447
-0.25285867
-0.22156425
0.73413845
0.29206761
-0.23298219
0.34375641
-0.25540744
0.39952592
-0.27883231
0.458884
-0.3002081
0.52090766
-0.31813078
0.58451118
-0.33079906
0.64817224
-0.33580352
0.70979396
-0.33010224
0.76668681
-0.30975044
-0.26971341
0.81483712
0.3103176
-0.28498026
0.36681549
-0.31190447
0.42758355
-0.33959948
0.49207883
-0.36470257
0.55939611
-0.38544728
0.62847722
-0.39987944
0.69785927
-0.40518484
0.76551371
-0.39775596
0.8287343
-0.37297024
-0.32469448
0.88371632
0.31905302
-0.34125735
0.38028115
-0.37313208
0.44595485
-0.40527267
0.51550464
-0.43425192
0.58810201
-0.45804424
0.66275341
-0.47453048
0.73805939
-0.48049044
0.81203291
-0.47172915
0.88194893
-0.44288581
-0.3868475
0.94410259
0.31947597
-0.40200744
0.38555318
-0.43920899
0.45627441
-0.47599363
0.53111659
-0.50909388
0.6093757
-0.53630316
0.69012066
-0.55527529
0.77196873
-0.56233835
0.8529059
-0.55266626
0.93015801
-0.52013769
-0.45667334
0.99998421
0.31168578
-0.46753887
0.38288655
-0.51040951
0.45902821
-0.55213512
0.53972484
-0.58979038
0.62439537
-0.62097356
0.7121151
-0.64299497
0.80144656
-0.65166977
0.89029722
-0.64151699
0.9758342
-0.60567454
-0.53506571
1.0542268
0.2952205
-0.53823111
0.37195785
-0.58714659
0.45413369
-0.63431082
0.54153639
-0.67719295
0.63362697
-0.71306403
0.72940069
-0.73876867
0.8273162
-0.74958529
0.92520632
-0.73940726
1.020207
-0.70067505
-0.62327327
1.1084146
0.26944841
-0.61450788
0.35229538
-0.6699933
0.44135122
-0.7233666
0.53651208
-0.77235376
0.63715102
-0.81370295
0.74212352
-0.84374125
0.84979323
-0.85725511
0.95797413
-0.84758837
1.0638083
-0.80650909
-0.72280873
1.1633438
0.23372205
-0.69682129
0.3234341
-0.75970536
0.42039715
-0.8203299
0.52446022
-0.87641701
0.63480106
-0.92404398
0.75014471
-0.95908515
0.86881982
-0.97593049
0.98868904
-0.9674579
1.1068864
-0.92470635
-0.83536618
1.2194438
0.18760497
-0.78567843
0.28505171
-0.85715251
0.39102033
-0.92629911
0.50512809
-0.99052514
0.62632511
-1.0452413
0.75326946
-1.0860298
0.88432365
-1.1069851
1.0174163
-1.1005509
1.1497177
-1.0570078
-0.96296722
1.2773186
0.13148258
-0.88191076
0.23744479
-0.96311374
0.35333299
-1.0421866
0.47847612
-1.1156676
0.61163921
-1.1784038
0.75146674
-1.2258571
0.89638262
-1.251901
1.0444064
-1.2485749
1.1927473
-1.2053486
1.3374204
-1.1076404
0.36638392
-0.016473085
0.38400164
-0.017616967
0.40161042
-0.01760776
0.41883881
-0.01722771
0.43567372
-0.016834257
0.45170474
-0.016030578
0.46669599
-0.01499102
0.48015435
-0.013458353
0.49142302
-0.011268797
-0.0055521051
0.404427
-0.029926422
0.41910985
-0.03229914
0.43449255
-0.032989591
0.44995088
-0.032685601
0.46532378
-0.032206931
0.48027539
-0.030982325
0.49448726
-0.029203238
0.50738812
-0.026359549
0.5184619
-0.022342744
-0.011151113
0.4655539
-0.036778312
0.47396181
-0.040706291
0.48386717
-0.042894076
0.49473694
-0.043554904
0.50627522
-0.043744888
0.51813219
-0.042839253
0.5299033
-0.040974483
0.54094753
-0.037403984
0.55077817
-0.032173502
-0.016266139
0.54561375
-0.035948231
0.54615344
-0.041245292
0.54869968
-0.045439551
0.55304402
-0.047898931
0.55889753
-0.049598223
0.56595036
-0.049892184
0.57376818
-0.048792584
0.58168528
-0.045321424
0.58918815
-0.039676597
-0.020317506
0.63563335
-0.029286455
0.62942794
-0.035039209
0.624914
-0.040924917
0.62241317
-0.045397917
0.62186869
-0.049053702
0.62317559
-0.051199326
0.6260124
-0.051629815
0.62981524
-0.049124731
0.63406046
-0.043922161
-0.022783041
0.72518067
-0.020327488
0.71546428
-0.025322027
0.70630502
-0.031764918
0.69848785
-0.037580579
0.69232384
-0.042889691
0.68807378
-0.046949572
0.68570929
-0.049265843
0.68494961
-0.048365612
0.68535537
-0.04432836
-0.023292717
0.80673714
-0.012226393
0.79703428
-0.015618256
0.7865568
-0.021286565
0.7761718
-0.027195319
0.76643745
-0.033155267
0.7579709
-0.038483274
0.7511305
-0.042425954
0.74606998
-0.043305674
0.74256539
-0.040824243
-0.02171546
0.87793855
-0.0064476987
0.87043065
-0.0081094514
0.86131775
-0.012172718
0.85114077
-0.017017973
0.84038735
-0.022401621
0.82979305
-0.027889098
0.82000258
-0.032635897
0.81161786
-0.034921467
0.80472152
-0.033928344
-0.018217446
0.94057847
-0.0029229356
0.93573285
-0.0032630813
0.92917943
-0.0056184297
0.92099925
-0.0088373926
0.91135543
-0.012757456
0.90078352
-0.017317149
0.88994798
-0.021800614
0.87972755
-0.024701421
0.87049495
-0.02469608
-0.013268772
0.99800415
-0.00094247802
0.99524681
-0.00050520137
0.9911529
-0.0015238368
0.98549454
-0.0031786805
0.97809807
-0.0053606024
0.96912277
-0.0083416977
0.95898699
-0.011664944
0.94856366
-0.014278326
0.93838586
-0.014518477
-0.0075761487
1.053125
0.00015959512
1.0516615
0.00095860155
1.0493392
0.00079898456
1.0458511
0.00030972043
1.0408573
-0.00036646677
1.0341904
-0.0016745632
1.0259194
-0.0033939818
1.0166697
-0.0050287761
1.0069644
-0.0048132064
-0.00194171
1.1077833
0.00079117172
1.1070273
0.001714893
1.1057859
0.0020406875
1.1038156
0.0022802638
1.1007925
0.0026569908
1.0964008
0.0027173087
1.0904442
0.0025626468
1.083214
0.0022014126
1.0751113
0.0032895273
0.0029155094
1.1629783
0.0011568971
1.162609
0.002084381
1.1619927
0.0026573827
1.1609747
0.0032984686
1.1593363
0.0042957991
1.1567774
0.0052764738
1.1530065
0.0063335615
1.1480503
0.00715754
1.1421885
0.009151409
0.0065103734
1.2192656
0.0013352597
1.2191706
0.0021795656
1.2189503
0.0028781033
1.2185168
0.0037323203
1.2177716
0.0050414263
1.2165097
0.0065386325
1.2144835
0.0083598799
1.2115939
0.01004708
1.2080809
0.012664366
0.0086677713
1.2773052
0.0013487527
1.2773638
0.0021211463
1.2773689
0.0028732819
1.2772799
0.0038218014
1.2770901
0.00523178
1.2766694
0.0069597391
1.2758678
0.0091616374
1.2745881
0.011326756
1.2731102
0.014142192
0.0095080941
1.3374911
0.0012780764
1.337636
0.0019764365
1.3377679
0.0027417338
1.3378815
0.0037085993
1.3380051
0.0051088653
1.3380755
0.0068898136
1.3380436
0.0091937305
1.3378637
0.011506649
1.3378637
0.014142152
0.009360717
-0.050722685
-1.0219272
1.0342354
-0.075563053
-2.2995825
2.3244221
-0.12871284
-5.1184444
5.1715945
-0.24303289
-11.199339
11.313658
-0.47907762
-24.117716
24.35376
-51.697348
52.093902
-0.15119509
-0.98657956
-0.22586013
-2.2249125
-0.38507744
-4.9592182
-0.72576483
-10.858634
-1.4422388
-23.401203
-50.246112
-0.24735356
-0.92859783
-0.37072448
-2.1015411
-0.63321592
-4.6967257
-1.1941203
-10.297731
-2.378447
-22.216878
-47.772259
-0.33660257
-0.84894452
-0.50660481
-1.9315384
-0.86770359
-4.3356248
-1.6384467
-9.5269859
-3.2692885
-20.586031
-44.329135
-0.41589454
-0.74888357
-0.63006469
-1.717369
-1.0843481
-3.8813426
-2.0512384
-8.5600888
-4.1006541
-18.536608
-39.993917
-0.48105784
-0.62995685
-0.73608481
-1.4623428
-1.2769176
-3.3405141
-2.4233558
-7.4136609
-4.8554079
-16.104559
-34.861736
-0.52119516
-0.49517412
-0.81017253
-1.1733651
-1.4249541
-2.7257336
-2.7283584
-6.1102647
-5.4935784
-13.339347
-29.019325
-0.51626226
-0.35177985
-0.8262742
-0.86335032
-1.494263
-2.05774
-2.9223768
-4.6821459
-5.9745869
-10.287151
-22.540295
-0.45106292
-0.2123859
-0.76505688
-0.54935101
-1.4665292
-1.3562626
-2.9947318
-3.1539426
-6.2778196
-7.004073
-15.500372
-0.34196377
-0.090421893
-0.64160754
-0.2497023
-1.3513309
-0.64653466
-2.9439967
-1.5612748
-6.4100918
-3.5379913
-7.9996968
-0.22544594
-0.4751595
-1.1217076
-2.682978
-6.2209498
1.0388223
-0.88649572
1.0409106
-0.96520185
1.0395587
-1.0408341
1.0339697
-1.1100784
1.0248004
-1.1692347
1.0131293
-1.2141861
0.99997149
-1.2387432
0.9862985
-1.2349019
0.97281976
-1.1918697
-1.0951325
0.96031178
2.3208358
-0.88290459
2.3111492
-0.95551589
2.2947849
-1.0244693
2.2723507
-1.087643
2.2459514
-1.1428339
2.2170463
-1.1852801
2.1867223
-1.2084187
2.1559915
-1.2041709
2.1259799
-1.1618579
-1.0673219
2.0981692
5.1323208
-0.84362858
5.0850177
-0.90821269
5.0311003
-0.97055168
4.9721315
-1.0286738
4.908933
-1.0796352
4.8423649
-1.1187118
4.7738613
-1.139915
4.7051586
-1.1354681
4.6386282
-1.0953275
-1.0060197
4.5773256
11.204322
-0.73429399
11.08515
-0.78904109
10.95708
-0.84248197
10.820953
-0.89254571
10.677684
-0.93636497
10.528972
-0.96999919
10.377336
-0.98827852
10.226248
-0.98438028
10.080491
-0.94957
-0.87220504
9.9466757
24.114341
-0.4948993
23.856992
-0.53169177
23.582207
-0.56769568
23.291114
-0.60145262
22.985727
-0.63097691
22.669373
-0.65364561
22.347062
-0.66596653
22.026
-0.66331832
21.716209
-0.63977976
-0.58756086
21.431565
51.587138
51.042289
50.459961
49.842237
49.193166
48.5194
47.83106
47.14286
46.47541
45.857085
0.96036154
0.0012283804
0.96047281
0.0018654025
0.96060399
0.002611042
0.96074925
0.0035639522
0.96092769
0.0049310689
0.96113262
0.0066853651
0.96136409
0.0089624831
0.96160306
0.011267732
0.96208998
0.013655156
0.0089348006
2.0983341
0.0010633523
2.0986136
0.0015860569
2.0989619
0.0022630242
2.0993754
0.0031509634
2.0999073
0.0044000084
2.1005854
0.0060081719
2.1014813
0.0080674347
2.1025807
0.01016906
2.1044191
0.011817144
0.0074829582
4.5776397
0.00074899818
4.5781213
0.001104525
4.5787844
0.0016003134
4.5796518
0.0022844263
4.5808305
0.0032224748
4.5824137
0.0044264607
4.5846255
0.0058573173
4.5875798
0.0072164071
4.5920003
0.0073978867
0.0041846584
9.9469995
0.0004252681
9.9474936
0.00061049733
9.9482093
0.00088513742
9.9492151
0.0012795767
9.9506464
0.0017924037
9.9526693
0.0024051231