/*--------------------------------*- C++ -*----------------------------------*\
  =========                 |
  \\      /  F ield         | OpenFOAM: The Open Source CFD Toolbox
   \\    /   O peration     | Website:  https://openfoam.org
    \\  /    A nd           | Version:  13
     \\/     M anipulation  |
\*---------------------------------------------------------------------------*/
FoamFile
{
    format      ascii;
    class       surfaceScalarField;
    location    "500";
    object      phi;
}
// * * * * * * * * * * * * * * * * * * * * * * * * * * * * * * * * * * * * * //

dimensions      [0 3 -1 0 0 0 0];

internalField   nonuniform List<scalar> 
4752
(
6.1753889e-09
-4.4107555e-09
-1.7646083e-09
3.3388139e-08
-1.9498484e-08
-7.7141145e-09
1.0308758e-07
-5.0152834e-08
-1.9546164e-08
2.5550917e-07
-1.1029482e-07
-4.2126062e-08
5.6542679e-07
-2.2582974e-07
-8.4086943e-08
1.1708042e-06
-4.4474231e-07
-1.606347e-07
2.3248371e-06
-8.5554854e-07
-2.9848748e-07
4.4899026e-06
-1.6207858e-06
-5.4429543e-07
8.5061998e-06
-3.0373073e-06
-9.7904043e-07
1.5892064e-05
-5.6436603e-06
-1.7423307e-06
2.9373107e-05
-1.0408501e-05
-3.0727989e-06
5.3801281e-05
-1.90546e-05
-5.3739778e-06
9.7720984e-05
-3.4601141e-05
-9.3190274e-06
0.00017597247
-6.2239945e-05
-1.6011948e-05
0.00031388887
-0.00011069068
-2.7226257e-05
0.00055382418
-0.0001941938
-4.5743091e-05
0.00096492617
-0.0003352964
-7.5809868e-05
0.0016572424
-0.00056858088
-0.00012374378
0.0028015803
-0.0009456277
-0.00019872297
0.0046567014
-0.0015413218
-0.00031381439
0.007607345
-0.0024634878
-0.00048716959
0.012211202
-0.0038606874
-0.00074317836
0.019267922
-0.0059479451
-0.001108773
0.029896887
-0.0089963796
-0.001632569
0.045578581
-0.013311508
-0.002370147
-0.019787589
0.068801359
-0.003435116
6.6045232e-09
-1.1015162e-08
3.5708662e-08
-4.8602258e-08
1.1025443e-07
-1.2469797e-07
2.7326053e-07
-2.7330005e-07
6.0463875e-07
-5.5720739e-07
1.2518144e-06
-1.09192e-06
2.4852527e-06
-2.0889991e-06
4.7986591e-06
-3.9342334e-06
9.0886778e-06
-7.3274335e-06
1.6974542e-05
-1.3529752e-05
3.1360515e-05
-2.4794862e-05
5.7411247e-05
-4.5105853e-05
0.00010421109
-8.1401598e-05
0.00018751858
-0.00014554839
0.0003342022
-0.00025737673
0.00058913544
-0.00044913356
0.0010255184
-0.00077169388
0.0017597903
-0.001302879
0.0029726378
-0.0021585129
0.0049379177
-0.0035066431
0.0080628794
-0.0055884801
0.012939199
-0.0087369991
0.020415594
-0.013424261
0.031688116
-0.020268694
0.048338691
-0.029961672
-0.044466419
0.073018349
7.2859332e-09
-1.8301021e-08
3.9382312e-08
-8.0698435e-08
1.215583e-07
-2.0687367e-07
3.0114964e-07
-4.5289122e-07
6.6599293e-07
-9.2205152e-07
1.377925e-06
-1.8038568e-06
2.7334079e-06
-3.4444985e-06
5.2726785e-06
-6.4735506e-06
9.9749918e-06
-1.2029858e-05
1.8604927e-05
-2.2159917e-05
3.4319837e-05
-4.0510179e-05
6.2719833e-05
-7.3506502e-05
0.00011362836
-0.00013231115
0.00020403921
-0.00023596102
0.00036285126
-0.00041619215
0.00063821826
-0.00072450667
0.0011085508
-0.0012420363
0.0018984431
-0.0020927849
0.0032011724
-0.0034612583
0.0053099344
-0.0056154204
0.0086612735
-0.0089398302
0.013891713
-0.01396744
0.021917308
-0.021449839
0.034040197
-0.032391538
0.052002043
-0.047923429
-0.071121294
0.078657059
8.2569038e-09
-2.6557884e-08
4.4611567e-08
-1.1705308e-07
1.3763027e-07
-2.9989257e-07
3.4074559e-07
-6.5600746e-07
7.5293211e-07
-1.3342414e-06
1.5561715e-06
-2.6071065e-06
3.0830326e-06
-4.9713882e-06
5.9378976e-06
-9.3284884e-06
1.121293e-05
-1.7305058e-05
2.0869459e-05
-3.1816791e-05
3.8403845e-05
-5.8045203e-05
6.9992952e-05
-0.00010509668
0.0001264275
-0.00018874739
0.00022629815
-0.00033583433
0.0004010964
-0.00059099472
0.00070311648
-0.0010265338
0.0012172843
-0.0017562151
0.0020783287
-0.0029538444
0.003495163
-0.0048781107
0.0057850865
-0.0079053616
0.0094216164
-0.012576374
0.015098234
-0.019644059
0.023819316
-0.030170906
0.037026163
-0.045598336
0.056686001
-0.067583173
-0.10033636
0.085901222
9.5460197e-09
-3.6103848e-08
5.1550776e-08
-1.5905777e-07
1.5894615e-07
-4.0728805e-07
3.9322148e-07
-8.9028355e-07
8.6803645e-07
-1.8090594e-06
1.7918602e-06
-3.5309405e-06
3.5445814e-06
-6.7241392e-06
6.814316e-06
-1.2598303e-05
1.2839911e-05
-2.3330846e-05
2.3836828e-05
-4.2814129e-05
4.3736302e-05
-7.7945502e-05
7.9449106e-05
-0.00014081093
0.00014298566
-0.00025228629
0.0002549305
-0.00044778281
0.00044998014
-0.00078604996
0.00078549969
-0.001362062
0.0013543324
-0.0023250606
0.0023034588
-0.0039029881
0.0038606723
-0.0064353449
0.0063724554
-0.010417166
0.01035749
-0.016561425
0.016578879
-0.025865454
0.026151796
-0.039743806
0.04069267
-0.060139161
0.062460907
-0.0893513
-0.13273216
0.094856867
1.1183385e-08
-4.7287202e-08
6.0360885e-08
-2.0823533e-07
1.859947e-07
-5.3292223e-07
4.5976286e-07
-1.1640531e-06
1.0138583e-06
-2.3631594e-06
2.0900987e-06
-4.6071948e-06
4.1277835e-06
-8.7618627e-06
7.9198185e-06
-1.6390438e-05
1.4887927e-05
-3.0299196e-05
2.7563003e-05
-5.5489734e-05
5.0413251e-05
-0.0001007968
9.1250151e-05
-0.00018164969
0.00016357058
-0.00032460974
0.00029037018
-0.00057458699
0.00051018936
-0.001005876
0.00088642589
-0.0017383086
0.001521276
-0.0029599251
0.0025761204
-0.0049578515
0.0043008964
-0.0081601435
0.0070763679
-0.01319266
0.011474564
-0.02095964
0.018340152
-0.032731052
0.028921375
-0.050325008
0.045048489
-0.076266229
0.069329909
-0.11363259
-0.16891753
0.10551546
1.3182497e-08
-6.0469665e-08
7.1113363e-08
-2.6616626e-07
2.1899126e-07
-6.8080059e-07
5.4088582e-07
-1.4859493e-06
1.1914891e-06
-3.0137679e-06
2.4530198e-06
-5.8687409e-06
4.8365808e-06
-1.1145467e-05
9.2613777e-06
-2.0815347e-05
1.7368849e-05
-3.8406938e-05
3.2067468e-05
-7.0188955e-05
5.8465419e-05
-0.00012719595
0.00010544223
-0.00022862869
0.00018824704
-0.00040741813
0.00033269881
-0.00071904419
0.00058180636
-0.0012549914
0.0010059285
-0.0021624419
0.0017179807
-0.0036719926
0.002895757
-0.0061356476
0.0048143403
-0.01007875
0.0078933743
-0.016271718
0.012765367
-0.025831648
0.02036693
-0.04033262
0.032105853
-0.062063899
0.050056041
-0.094216383
0.077201387
-0.14077783
-0.20941666
0.11770069
1.5533909e-08
-7.6003532e-08
8.3756143e-08
-3.3438857e-07
2.5777066e-07
-8.5481561e-07
6.361672e-07
-1.8643477e-06
1.3999539e-06
-3.7775603e-06
2.8785094e-06
-7.3473131e-06
5.6665609e-06
-1.3933565e-05
1.0830025e-05
-2.5978933e-05
2.0264817e-05
-4.7842027e-05
3.7315233e-05
-8.7240037e-05
6.7825236e-05
-0.00015770732
0.00012189662
-0.00028270256
0.00021677292
-0.00050229856
0.00038146651
-0.000883744
0.00066400528
-0.001537539
0.0011425101
-0.0026409588
0.0019417654
-0.0044712638
0.0032576283
-0.0074515298
0.0053927103
-0.012213854
0.0088091079
-0.01968814
0.014204361
-0.031226914
0.022624597
-0.04875285
0.03564937
-0.075088638
0.05556637
-0.11413334
0.085802778
-0.17101414
-0.25453915
0.13092539
1.819711e-08
-9.4200604e-08
9.8069757e-08
-4.1426133e-07
3.0165359e-07
-1.0584001e-06
7.4391463e-07
-2.3066108e-06
1.6354846e-06
-4.6691367e-06
3.3587091e-06
-9.0705562e-06
6.6020026e-06
-1.717691e-05
1.2595188e-05
-3.1972252e-05
2.3517564e-05
-5.8764731e-05
4.3197008e-05
-0.00010692022
7.8290501e-05
-0.00019280233
0.0001402439
-0.00034465877
0.0002484818
-0.00061054113
0.00043548666
-0.0010707559
0.00075470168
-0.0018567637
0.0012925599
-0.0031788296
0.0021864684
-0.0053651881
0.0036514111
-0.0089164902
0.0060192528
-0.014581714
0.0097980056
-0.023466913
0.015748562
-0.037177478
0.025020231
-0.058024519
0.039361217
-0.089429606
0.061302695
-0.13607477
0.094703687
-0.20441501
-0.30429728
0.14446192
2.1077388e-08
-1.1527796e-07
1.135435e-07
-5.0672759e-07
3.4906799e-07
-1.2939253e-06
8.6024933e-07
-2.8177944e-06
1.8895475e-06
-5.6984417e-06
3.8760864e-06
-1.1057115e-05
7.6084458e-06
-2.0909324e-05
1.4491166e-05
-3.8855115e-05
2.7004632e-05
-7.1278547e-05
4.9488527e-05
-0.00012940491
8.945642e-05
-0.00023277187
0.00015976268
-0.00041496809
0.0002821027
-0.00073288623
0.00049254363
-0.0012812044
0.0008500715
-0.0022143018
0.0014495385
-0.0037783094
0.002440991
-0.0063566556
0.0040583213
-0.010533836
0.0066617654
-0.017185176
0.010798998
-0.027604157
0.017297397
-0.043675878
0.027421143
-0.068148261
0.043048013
-0.10505645
0.066928626
-0.15995537
0.10327182
-0.24075813
-0.35826082
0.15723544
2.4034432e-08
-1.3931236e-07
1.294215e-07
-6.1211478e-07
3.9768708e-07
-1.5621915e-06
9.7942357e-07
-3.3995329e-06
2.1494789e-06
-6.8685035e-06
4.4045633e-06
-1.3312218e-05
8.6344687e-06
-2.5139282e-05
1.6419545e-05
-4.6640332e-05
3.0541676e-05
-8.5401027e-05
5.5850222e-05
-0.00015471426
0.0001007063
-0.00027762962
0.00017934735
-0.00049361229
0.00031567869
-0.0008692228
0.00054921893
-0.0015147523
0.00094422233
-0.0026093155
0.0016034192
-0.0044375187
0.0026884639
-0.0074417137
0.0044502261
-0.012295609
0.0072735769
-0.020008539
0.01174343
-0.032074015
0.018748864
-0.050681308
0.029632299
-0.07903168
0.046378557
-0.12180266
0.071904503
-0.18548132
0.11062258
-0.27947617
-0.41540744
0.16776922
2.683194e-08
-1.6614424e-07
1.4443113e-07
-7.29714e-07
4.4360453e-07
-1.8613652e-06
1.0918356e-06
-4.0477654e-06
2.3942656e-06
-8.1709383e-06
4.9012444e-06
-1.5819213e-05
9.5964071e-06
-2.9834491e-05
1.8222249e-05
-5.5266298e-05
3.3837036e-05
-0.00010101613
6.1754016e-05
-0.00018263198
0.00011109899
-0.00032697616
0.00019734387
-0.00057986016
0.00034633932
-0.0010182232
0.00060058905
-0.0017690094
0.0010288035
-0.0030375394
0.0017401993
-0.0051489255
0.0029056967
-0.0086072218
0.0047892925
-0.014179213
0.0077946015
-0.023013852
0.012534418
-0.036813832
0.019936385
-0.058083263
0.031387704
-0.090482984
0.048934818
-0.13934976
0.075545996
-0.21209251
0.11563331
-0.31956351
-0.47400386
0.17422969
2.9207419e-08
-1.9535158e-07
1.5716014e-07
-8.576666e-07
4.824765e-07
-2.1866814e-06
1.1867658e-06
-4.7520552e-06
2.6003098e-06
-9.5844851e-06
5.317584e-06
-1.8536498e-05
1.0398622e-05
-3.4915563e-05
1.9716333e-05
-6.4584109e-05
3.6548104e-05
-0.00011784817
6.6568663e-05
-0.00021265317
0.00011948743
-0.0003798963
0.00021169467
-0.00067207002
0.00037044311
-0.0011769761
0.00064030369
-0.0020388764
0.0010929181
-0.0034901619
0.0018414927
-0.0058975086
0.003062171
-0.0098279073
0.0050255872
-0.016142633
0.0081436609
-0.026131923
0.0130392
-0.041709367
0.020648278
-0.065692329
0.032359236
-0.10219393
0.050194148
-0.15718469
0.07702431
-0.23892273
0.11698658
-0.35952587
-0.53152986
0.17451243
3.0700178e-08
-2.2605164e-07
1.6513119e-07
-9.9209733e-07
5.0671657e-07
-2.5282663e-06
1.2456316e-06
-5.4909695e-06
2.7271416e-06
-1.1065995e-05
5.5714792e-06
-2.138084e-05
1.0882188e-05
-4.0226292e-05
2.0604248e-05
-7.4306237e-05
3.813172e-05
-0.00013537583
6.9322772e-05
-0.0002438447
0.00012416437
-0.00043473895
0.00021944492
-0.0007673526
0.00038294481
-0.0013404794
0.00065984863
-0.002315785
0.0011223418
-0.0039526606
0.0018837495
-0.0066589213
0.0031192461
-0.011063406
0.0050962839
-0.018119668
0.008219497
-0.029255128
0.013096665
-0.046586524
0.020632747
-0.073228397
0.032153137
-0.11371431
0.04954745
-0.17457905
0.075406541
-0.2647819
0.11325669
-0.39737617
-0.58465651
0.16638309
3.0962047e-08
-2.5701356e-07
1.6647513e-07
-1.12761e-06
5.1057947e-07
-2.8723697e-06
1.2542405e-06
-6.234629e-06
2.7434416e-06
-1.2555194e-05
5.5982483e-06
-2.4235646e-05
1.0918987e-05
-4.5547037e-05
2.0639169e-05
-8.4026452e-05
3.8121409e-05
-0.00015285818
6.9147318e-05
-0.00027487091
0.00012353035
-0.00048912268
0.0002176856
-0.0008615092
0.00037862443
-0.0015014203
0.00065000793
-0.0025871712
0.0011011122
-0.0044037672
0.0018398951
-0.0073977043
0.0030319418
-0.012255449
0.0049280522
-0.020015768
0.0079045416
-0.032231599
0.012521327
-0.051203291
0.019601416
-0.080308467
0.030327908
-0.1244408
0.046332326
-0.19058354
0.069726477
-0.28817615
0.10304377
-0.43069363
-0.62939571
0.14778262
2.9257166e-08
-2.8627056e-07
1.5723025e-07
-1.2555825e-06
4.8193449e-07
-3.1970726e-06
1.1829213e-06
-6.9356133e-06
2.5847573e-06
-1.3957026e-05
5.2676453e-06
-2.6918527e-05
1.0258253e-05
-5.0537637e-05
1.935496e-05
-9.3123156e-05
3.5674294e-05
-0.00016917754
6.455315e-05
-0.00030374988
0.00011500803
-0.00053957783
0.0002020386
-0.00094854027
0.00035016723
-0.0016495496
0.00059872694
-0.0028357309
0.0010095662
-0.0048146046
0.0016780933
-0.0080662258
0.0027490507
-0.013326395
0.0044391796
-0.021705878
0.0070697865
-0.03486218
0.011112288
-0.055245766
0.01724667
-0.08644283
0.026423587
-0.13361773
0.039890056
-0.20405011
0.05912911
-0.30741532
0.085430504
-0.45699521
-0.66183288
0.11786726
2.5316697e-08
-3.115871e-07
1.3596479e-07
-1.36623e-06
4.1641549e-07
-3.4775218e-06
1.0209509e-06
-7.5401456e-06
2.2275307e-06
-1.51636e-05
4.5311384e-06
-2.9222122e-05
8.8038e-06
-5.4810277e-05
1.6565348e-05
-0.00010088467
3.0434352e-05
-0.00018304649
5.486491e-05
-0.00032818035
9.7323082e-05
-0.00058203584
0.00017011539
-0.0010213322
0.0002931453
-0.0017725784
0.00049793901
-0.0030405217
0.00083335857
-0.0051500176
0.0013735579
-0.0086064125
0.0022290188
-0.014181835
0.0035619569
-0.023038786
0.0056076984
-0.036907885
0.0087027833
-0.058340815
0.01331624
-0.091056263
0.020071321
-0.14037282
0.029717722
-0.21369662
0.043055714
-0.3207534
0.060423452
-0.47436309
-0.68581636
0.084406631
1.7734482e-08
-3.2932143e-07
9.5127673e-08
-1.4436225e-06
2.9087876e-07
-3.6732711e-06
7.1163306e-07
-7.9608961e-06
1.5482963e-06
-1.6000255e-05
3.1382954e-06
-3.0812105e-05
6.0709408e-06
-5.7742888e-05
1.1362939e-05
-0.0001061766
2.0745199e-05
-0.0001924286
3.7120484e-05
-0.00034455533
6.5272762e-05
-0.00061018747
0.0001129285
-0.0010689865
0.00019228038
-0.0018519272
0.00032207732
-0.0031703123
0.00053036649
-0.0053582949
0.00085797066
-0.0089339966
0.0013628361
-0.01468667
0.0021254406
-0.023801349
0.0032551296
-0.038037526
0.0048955303
-0.059981171
0.0072221458
-0.093382852
0.010415819
-0.14356651
0.014574124
-0.21785503
0.01956076
-0.32574008
0.024416879
-0.47921934
-0.6898909
0.02848991
8.0276258e-09
-3.3734893e-07
4.2878169e-08
-1.4784723e-06
1.3043336e-07
-3.7608245e-06
3.1686806e-07
-8.1473268e-06
6.8303958e-07
-1.6366417e-05
1.3681498e-06
-3.1497195e-05
2.6077247e-06
-5.8982417e-05
4.7927575e-06
-0.00010836153
8.557884e-06
-0.0001961935
1.4905004e-05
-0.00035090194
2.536005e-05
-0.00062064138
4.2138018e-05
-0.001085762
6.8243276e-05
-0.0018780273
0.00010734961
-0.0032094088
0.00016318284
-0.0054141108
0.00023797967
-0.0090087658
0.00032941627
-0.014778067
0.00042507006
-0.023896952
0.00049257546
-0.038104975
0.00046122666
-0.059949771
0.00018534958
-0.093106945
-0.0006292687
-0.1427519
-0.0025708402
-0.21591354
-0.0067145618
-0.32159639
-0.015245327
-0.4706888
-0.67409224
-0.031043862
-3.1965232e-09
-3.341523e-07
-1.7493047e-08
-1.4641752e-06
-5.482038e-08
-3.7234953e-06
-1.3854434e-07
-8.0635985e-06
-3.1408398e-07
-1.6190868e-05
-6.6916805e-07
-3.1142087e-05
-1.3722525e-06
-5.8279277e-05
-2.744934e-06
-0.00010698871
-5.3974083e-06
-0.00019354072
-1.0479462e-05
-0.00034581916
-2.0139959e-05
-0.00061097926
-3.8355205e-05
-0.0010675432
-7.2392559e-05
-0.0018439828
-0.00013533396
-0.0031464541
-0.0002503024
-0.0052991197
-0.0004573268
-0.0088017064
-0.00082419308
-0.014411152
-0.001463324
-0.023257759
-0.0025581168
-0.037010115
-0.0044049747
-0.058102855
-0.0074824949
-0.090029392
-0.012567351
-0.13766707
-0.020935356
-0.20754562
-0.034644886
-0.30788691
-0.056766454
-0.4485675
-0.63905061
-0.091808127
-1.5433262e-08
-3.1871895e-07
-8.3292389e-08
-1.3963153e-06
-2.5664652e-07
-3.5501392e-06
-6.3439324e-07
-7.685847e-06
-1.3988615e-06
-1.5426388e-05
-2.8833013e-06
-2.9657619e-05
-5.6922257e-06
-5.5470283e-05
-1.0914371e-05
-0.0001017664
-2.0496039e-05
-0.00018395864
-3.7888653e-05
-0.00032842559
-6.9157107e-05
-0.00057970863
-0.0001248473
-0.0010118484
-0.00022307538
-0.0017457455
-0.0003945313
-0.0029749813
-0.00069040126
-0.0050032218
-0.0011946363
-0.0082974292
-0.0020426101
-0.01356312
-0.0034492125
-0.021851086
-0.0057511677
-0.034708083
-0.0094712568
-0.0543827
-0.015416344
-0.084084277
-0.024825522
-0.12825795
-0.039587753
-0.19278353
-0.062577161
-0.28489754
-0.097978958
-0.41316591
-0.58578315
-0.15124635
-2.7891295e-08
-2.9082761e-07
-1.5026612e-07
-1.2739399e-06
-4.620191e-07
-3.2383844e-06
-1.1387795e-06
-7.0090819e-06
-2.5018262e-06
-1.4063329e-05
-5.1333323e-06
-2.7026082e-05
-1.0079417e-05
-5.0524121e-05
-1.9204726e-05
-9.2640895e-05
-3.580514e-05
-0.00016735775
-6.5653283e-05
-0.0002985763
-0.00011875614
-0.00052660316
-0.00021225842
-0.0009183405
-0.00037514326
-0.0015828495
-0.0006556773
-0.0026944272
-0.0011329393
-0.0045259269
-0.0019343082
-0.0074960115
-0.0032615801
-0.012235782
-0.0054296445
-0.01968294
-0.0089236333
-0.031214006
-0.014483236
-0.048823023
-0.023225938
-0.075341543
-0.036822183
-0.11466177
-0.057730619
-0.17187517
-0.08946271
-0.25316528
-0.1370326
-0.36559642
-0.51607956
-0.20673618
-3.9877361e-08
-2.5095024e-07
-2.1469092e-07
-1.0991258e-06
-6.5952793e-07
-2.7935453e-06
-1.623691e-06
-6.0449135e-06
-3.5617431e-06
-1.2125263e-05
-7.2943727e-06
-2.3293417e-05
-1.429033e-05
-4.3528072e-05
-2.7155834e-05
-7.977516e-05
-5.0474654e-05
-0.00014403835
-9.2230698e-05
-0.00025681888
-0.00016617895
-0.00045265177
-0.00029572383
-0.00078878895
-0.00052013019
-0.0013584301
-0.00090424477
-0.0023102892
-0.001553366
-0.0038767678
-0.002635529
-0.0064137928
-0.0044144039
-0.010456832
-0.0072974551
-0.016799797
-0.011906105
-0.026605258
-0.019177099
-0.041551947
-0.030505803
-0.06401282
-0.047939815
-0.097227858
-0.074420887
-0.14539427
-0.11403793
-0.21354812
-0.17231816
-0.30731638
-0.43220725
-0.25619036
-5.0626632e-08
-2.0032361e-07
-2.7245866e-07
-8.7729309e-07
-8.3659406e-07
-2.2294077e-06
-2.0583011e-06
-4.8232006e-06
-4.5114001e-06
-9.6721488e-06
-9.2298256e-06
-1.8574951e-05
-1.8059858e-05
-3.4697935e-05
-3.4269569e-05
-6.3565181e-05
-6.3590946e-05
-0.00011471631
-0.00011597707
-0.00020443115
-0.00020851611
-0.00036010909
-0.00037017048
-0.00062712685
-0.00064931714
-0.0010792684
-0.0011254632
-0.0018341165
-0.0019270258
-0.0030751625
-0.0032577638
-0.0050829925
-0.0054354821
-0.0082790301
-0.0089482054
-0.013286971
-0.014535137
-0.021018216
-0.023301724
-0.032785273
-0.036878108
-0.050436435
-0.057624474
-0.076481628
-0.088871665
-0.11414726
-0.13515263
-0.16726725
-0.20241277
-0.24005626
-0.33665221
-0.2979676
-5.9302961e-08
-1.4102064e-07
-3.1908682e-07
-6.1750851e-07
-9.7953586e-07
-1.5689562e-06
-2.4092738e-06
-3.3934562e-06
-5.2787977e-06
-6.8026077e-06
-1.0795519e-05
-1.3058185e-05
-2.1114221e-05
-2.4379115e-05
-4.0045895e-05
-4.4633206e-05
-7.4263627e-05
-8.0497828e-05
-0.00013533007
-0.00014336291
-0.00024305347
-0.00025238163
-0.00043092465
-0.00043924706
-0.00075473065
-0.0007554457
-0.0013058761
-0.0012829418
-0.0022314969
-0.002149495
-0.0037641988
-0.0035502228
-0.0062653566
-0.0057777812
-0.010287559
-0.0092646559
-0.016663873
-0.014641779
-0.026633163
-0.022815883
-0.042009268
-0.035060325
-0.06539331
-0.053097726
-0.10040975
-0.079130975
-0.15191558
-0.1157615
-0.22614915
-0.16582261
-0.23210763
-0.3306934
-6.5583793e-08
-7.5436849e-08
-3.5285463e-07
-3.3023689e-07
-1.0832948e-06
-8.385134e-07
-2.6648543e-06
-1.8118897e-06
-5.8396023e-06
-3.6278412e-06
-1.1943415e-05
-6.9543234e-06
-2.3357652e-05
-1.296475e-05
-4.4282957e-05
-2.3707574e-05
-8.2054323e-05
-4.2725639e-05
-0.0001493702
-7.6045064e-05
-0.00026796779
-0.00013377958
-0.00047455119
-0.00023265431
-0.00083016567
-0.00039981318
-0.0014346558
-0.00067842016
-0.0024484231
-0.0011356777
-0.0041244805
-0.0018740932
-0.0068549457
-0.0030472192
-0.01123781
-0.0048816713
-0.018171862
-0.0077075938
-0.028988852
-0.01199878
-0.045629509
-0.018419647
-0.070859567
-0.027867793
-0.10850089
-0.041489805
-0.16362302
-0.060639457
-0.24265205
-0.086793372
-0.12141895
-0.35334024
-6.9512868e-08
-5.9239007e-09
-3.7392095e-07
-2.5827957e-08
-1.1472196e-06
-6.5211596e-08
-2.8193359e-06
-1.3976536e-07
-6.17024e-06
-2.7691604e-07
-1.2600377e-05
-5.2413142e-07
-2.4602135e-05
-9.6285187e-07
-4.6575332e-05
-1.7340142e-06
-8.6215782e-05
-3.0842887e-06
-0.00015683793
-5.4207829e-06
-0.00028121329
-9.3994518e-06
-0.00049776008
-1.6097604e-05
-0.00087032532
-2.7229061e-05
-0.0015032431
-4.5469825e-05
-0.0025639602
-7.4909731e-05
-0.0043163107
-0.00012166986
-0.0071686892
-0.00019474369
-0.01174308
-0.00030715941
-0.01897292
-0.00047761728
-0.030238774
-0.00073280692
-0.047547771
-0.0011106197
-0.073751277
-0.001664405
-0.11277302
-0.0024682517
-0.16979089
-0.0036216882
-0.25132591
-0.0052579959
-0.36521339
-0.0075307931
0.086253491
-0.013393404
-0.0040585855
0.10627879
-0.01524546
-0.0047796579
0.1272436
-0.015472804
-0.0054917423
0.14960845
-0.016088296
-0.0062762174
0.17307906
-0.016330639
-0.0071395326
0.19724053
-0.016080154
-0.008080781
0.22171574
-0.015361701
-0.0091128807
0.24566495
-0.013718485
-0.010229961
0.26781354
-0.010745525
-0.011402305
-0.0071324916
0.28764498
-0.012698114
0.091335661
-0.031709651
0.11241086
-0.036319087
0.13453293
-0.037592921
0.1581766
-0.039729298
0.18300267
-0.041153441
0.20859305
-0.04166642
0.2345033
-0.041266904
0.25986441
-0.039074081
0.28327988
-0.034154377
-0.028038871
0.30419224
0.09814048
-0.051192819
0.12057889
-0.05875716
0.14424721
-0.061260814
0.1695751
-0.065056649
0.19619327
-0.0677709
0.22365937
-0.069131707
0.25144156
-0.069048238
0.2786138
-0.066245304
0.3036352
-0.059174785
-0.05023548
0.32583279
0.10691241
-0.072203729
0.13108572
-0.082930122
0.15676616
-0.08694074
0.18425508
-0.092545031
0.21318287
-0.09669795
0.2430505
-0.09899852
0.2732221
-0.099218969
0.30267618
-0.095698389
0.32971277
-0.086210378
-0.073971958
0.35345019
0.11780848
-0.095155049
0.14414957
-0.10927087
0.17237742
-0.11516805
0.20257525
-0.12274232
0.23440889
-0.12853089
0.26728719
-0.13187603
0.30045083
-0.13238181
0.33274258
-0.12798921
0.3622875
-0.11575441
-0.099567587
0.38788395
0.13090466
-0.12054395
0.15989909
-0.13826495
0.19122479
-0.14649329
0.22474838
-0.15626537
0.26016289
-0.1639448
0.2967484
-0.1684608
0.33360015
-0.16923288
0.36938227
-0.16377052
0.40202509
-0.14839659
-0.1274343
0.42989251
0.1460961
-0.14893906
0.17822764
-0.17039616
0.21319905
-0.18146431
0.25075532
-0.19382113
0.29050146
-0.20369045
0.33157893
-0.20953762
0.37291578
-0.21056922
0.41295329
-0.20380739
0.44940757
-0.18485052
-0.15811313
0.48008696
0.16280364
-0.18081708
0.19863956
-0.20623177
0.23796645
-0.22079086
0.2802664
-0.23612063
0.32515659
-0.24858026
0.37159638
-0.25597688
0.41832261
-0.25729513
0.46351143
-0.24899582
0.50465027
-0.22598932
-0.19234455
0.53888197
0.1802425
-0.21659749
0.22027412
-0.24626311
0.26470016
-0.26521667
0.31253896
-0.28395907
0.36344832
-0.2994894
0.41620407
-0.30873229
0.46933601
-0.31042695
0.52072539
-0.30038507
0.56762404
-0.27288831
-0.23113481
0.60641438
0.19736772
-0.25672965
0.24205542
-0.29095061
0.29219925
-0.31536039
0.34638467
-0.33814428
0.40423211
-0.35733679
0.46433154
-0.36883159
0.52499644
-0.37109201
0.58379688
-0.35918565
0.63776509
-0.32685731
-0.2758015
0.68243173
0.21259486
-0.30155526
0.26237065
-0.34072634
0.31881915
-0.37180888
0.38015716
-0.3994823
0.44589089
-0.42307069
0.51442352
-0.43736438
0.58385135
-0.44052029
0.65143451
-0.42676926
0.71401955
-0.38944367
-0.32801328
0.76623119
0.22395957
-0.3512852
0.27922578
-0.39599269
0.34252046
-0.43510367
0.41180964
-0.46877178
0.48639638
-0.49765782
0.56449877
-0.51546723
0.64400573
-0.52002804
0.72189114
-0.50465536
0.79486804
-0.46242241
-0.38979836
0.85665299
0.22920771
-0.40598061
0.29037001
-0.45715537
0.36100468
-0.50573855
0.43903118
-0.54679883
0.52344804
-0.58207525
0.61228783
-0.60430771
0.70325234
-0.61099364
0.79307913
-0.59448299
0.87841332
-0.5477589
-0.46351152
0.9521265
0.2258867
-0.4654844
0.29343422
-0.52470356
0.37189265
-0.58419718
0.45944072
-0.6343475
0.55467761
-0.6773127
0.65544184
-0.70507268
0.75927708
-0.71483012
0.86276386
-0.69797055
0.96254724
-0.64754482
-0.5517504
1.0507865
0.21159627
-0.52929822
0.28611267
-0.59922072
0.37297033
-0.67105487
0.47085059
-0.73222793
0.57791578
-0.78437798
0.69179789
-0.81895514
0.80992056
-0.83295376
0.9288192
-0.8168695
1.0451848
-0.76391268
-0.65722159
1.1506567
0.18636571
-0.59779674
0.26769899
-0.68055394
0.363048
-0.76640395
0.47174678
-0.84092675
0.59149058
-0.90412177
0.71961978
-0.94708463
0.85341428
-0.96674919
0.98947051
-0.95292572
1.1245506
-0.89899459
1.2498176
-0.7824875
0.29097122
0.010741167
-0.014066734
0.29364209
0.014320378
-0.016990613
0.29423191
0.019588696
-0.020178244
0.29188171
0.026253794
-0.023903417
0.28612497
0.034400242
-0.028643523
0.27612852
0.045321094
-0.035324741
0.25999682
0.05981674
-0.043685147
0.23982214
0.077476136
-0.057301558
0.21103022
0.096244088
-0.067452216
0.11442563
-0.089810887
0.30730215
0.0076386748
0.30976385
0.011863202
0.31008995
0.019266946
0.30739691
0.028945713
0.30117563
0.040615834
0.29055863
0.05592958
0.27357135
0.076790014
0.25237252
0.098675086
0.22216391
0.12643279
0.14029272
0.32828124
0.0051909136
0.33009949
0.010045427
0.32981192
0.019554601
0.32648638
0.032271245
0.31956414
0.047537978
0.30813642
0.067357138
0.29014765
0.094778709
0.26779432
0.12102851
0.23601314
0.15821397
0.16748991
0.35470726
0.0039343857
0.35534954
0.0094036329
0.35402362
0.020880488
0.34971056
0.036584253
0.34179666
0.055451809
0.3293256
0.079828072
0.3101573
0.11394706
0.2864974
0.1446886
0.25296809
0.19174337
0.19614491
0.38734945
0.004469169
0.38620804
0.010545496
0.38334873
0.023739605
0.3776289
0.042304013
0.36837776
0.064702938
0.35458526
0.093620501
0.33402499
0.13450757
0.30888146
0.16983244
0.27341421
0.22721081
0.22637414
0.42694667
0.007414984
0.42337901
0.014113457
0.41843556
0.028682646
0.41083533
0.049904162
0.39985105
0.075687293
0.38441625
0.10905533
0.3622178
0.15670649
0.3353892
0.19666151
0.29778369
0.26481665
0.25829415
0.47413901
0.0133625
0.46752761
0.020725075
0.45992033
0.036289243
0.44992979
0.059894646
0.43677685
0.088840408
0.41934238
0.12648996
0.39522896
0.18082067
0.36649203
0.22539909
0.32654293
0.30476622
0.29201785
0.52943134
0.022812198
0.51922331
0.030933299
0.50839092
0.047120641
0.49549384
0.072791736
0.47971609
0.10461847
0.45990013
0.14630628
0.43357187
0.20715006
0.40268734
0.2562845
0.36019199
0.34726222
0.32765197
0.59313014
0.036094879
0.57889135
0.045172285
0.56434174
0.061668931
0.54805775
0.089075862
0.52920757
0.12346914
0.50662343
0.16889106
0.47777065
0.23600439
0.44449349
0.28956281
0.39925935
0.39249719
0.36529474
0.66522136
0.053303039
0.64673681
0.063657075
0.62811887
0.080285277
0.60805858
0.10913648
0.58573771
0.14579079
0.56002255
0.19460718
0.52834583
0.26768314
0.49243825
0.32547182
0.44428276
0.4406537
0.40503804
0.74532055
0.074210839
0.72267424
0.086303752
0.69985811
0.10309965
0.67578978
0.13320546
0.64970211
0.17187959
0.62055628
0.22375442
0.58579443
0.30244755
0.54704532
0.36422268
0.49582061
0.49187959
0.44694844
0.8326295
0.098230982
0.80626718
0.11266666
0.77942281
0.12994234
0.75134496
0.16128437
0.72135983
0.20186636
0.68859686
0.25651932
0.65056447
0.34048306
0.60881763
0.40597159
0.55443062
0.54626789
0.49106211
0.92593694
0.12441696
0.89669272
0.14191182
0.86635096
0.16028283
0.83456135
0.19307559
0.80078229
0.2356477
0.76438844
0.29291568
0.72302315
0.381852
0.67821265
0.45078445
0.62064809
0.60383376
0.53737405
1.0236783
0.15152177
0.99274727
0.17284427
0.95982451
0.19320523
0.92497129
0.22793105
0.88780184
0.2728202
0.84800085
0.33271976
0.80341925
0.42643767
0.75561399
0.49859226
0.69497158
0.66447733
0.5858159
1.1240608
0.1781153
1.0929069
0.20400009
1.0586743
0.22743891
1.0217732
0.264835
0.98196739
0.31262978
0.93928322
0.37540747
0.89184143
0.47388367
0.84129905
0.54913718
0.77784073
0.7279364
0.63622976
1.2253124
0.2026198
1.1954072
0.23390728
1.1614443
0.26140448
1.1238322
0.30245026
1.082515
0.35395109
1.0378334
0.42009253
0.98815638
0.52356441
0.93543664
0.60185898
0.86954469
0.79382822
0.68821463
0.10326829
-0.92628565
0.90742375
0.12974029
-2.1575733
2.1311016
0.14042777
-4.9436431
4.9329549
0.07916858
-11.024214
11.085473
-0.12499803
-24.433302
24.637469
-53.553765
54.304399
0.023743186
-0.92153964
-0.0056937954
-2.1281428
-0.11420758
-4.8351198
-0.41271459
-10.725728
-1.1205451
-23.725425
-51.780753
-0.060323031
-0.89226069
-0.14340252
-2.0450643
-0.36391658
-4.614604
-0.88927666
-10.20037
-2.0870774
-22.527628
-49.01553
-0.14469652
-0.83937251
-0.27794039
-1.9118212
-0.60204937
-4.2904934
-1.3408863
-9.4615345
-2.9992315
-20.869288
-45.302358
-0.22588275
-0.76473586
-0.40489725
-1.7328074
-0.82301574
-3.8723735
-1.7586018
-8.5259498
-3.8424565
-18.785441
-40.708951
-0.30089664
-0.67057511
-0.52051168
-1.5131931
-1.0220656
-3.3708186
-2.1342313
-7.4137856
-4.5991138
-16.320565
-35.320472
-0.36720517
-0.55955998
-0.62167473
-1.2587242
-1.1950597
-2.7974331
-2.4605003
-6.1483463
-5.255584
-13.52549
-29.240052
-0.42282858
-0.43469859
-0.70588889
-0.97566446
-1.3384655
-2.1648564
-2.731045
-4.7557678
-5.7996534
-10.456892
-22.586059
-0.46618175
-0.29920964
-0.77117461
-0.67067208
-1.4493492
-1.4866821
-2.9403995
-3.264718
-6.2210543
-7.1762494
-15.489344
-0.49608202
-0.15646695
-0.81604587
-0.35070871
-1.5254201
-0.77730864
-3.0838909
-1.7062475
-6.5103292
-3.7498254
-8.0888909
-0.51173106
-0.0099480954
-0.83949346
-0.022947069
-1.5651207
-0.051682942
-3.158432
-0.112936
-6.6617049
-0.24656891
-0.52998441
0.92189471
-0.61226888
0.93752103
-0.69618109
0.94899857
-0.77788369
0.9560248
-0.84795379
0.95810647
-0.90620341
0.95592829
-0.94490649
0.95035469
-0.96117621
0.94226042
-0.94483104
0.93274444
-0.88947943
-0.76945784
0.91971555
2.1623422
-0.6435094
2.1842528
-0.71809062
2.1924745
-0.78610603
2.189962
-0.84544147
2.1783959
-0.89463726
2.1612496
-0.92776044
2.1401719
-0.94009934
2.1171999
-0.92185906
2.0917987
-0.86407878
-0.74237988
2.0647205
4.9517731
-0.66233574
4.952874
-0.71919331
4.9387712
-0.77200425
4.9135614
-0.82023253
4.8798397
-0.86091657
4.8406522
-0.88857461
4.7971937
-0.89664354
4.7511295
-0.87579744
4.7018864
-0.81483764
-0.69575317
4.6552531
11.047142
-0.62398386
10.997491
-0.66954217
10.938517
-0.71303027
10.870526
-0.75224168
10.79362
-0.78401018
10.708776
-0.80373127
10.617627
-0.80549464
10.523415
-0.78158631
10.430781
-0.72220353
-0.61471353
10.349738
24.455904
-0.4424449
24.25922
-0.47285881