/*--------------------------------*- C++ -*----------------------------------*\
  =========                 |
  \\      /  F ield         | OpenFOAM: The Open Source CFD Toolbox
   \\    /   O peration     | Website:  https://openfoam.org
    \\  /    A nd           | Version:  13
     \\/     M anipulation  |
\*---------------------------------------------------------------------------*/
FoamFile
{
    format      ascii;
    class       volVectorField;
    location    "500";
    object      U;
}
// * * * * * * * * * * * * * * * * * * * * * * * * * * * * * * * * * * * * * //

dimensions      [0 1 -1 0 0 0 0];

internalField   nonuniform List<vector> 
2416
(
(6.0743588e-08 -1.5537711e-06 2.4514562e-24)
(6.1179763e-07 -5.2342898e-06 -7.4926366e-24)
(2.0644704e-06 -1.0281366e-05 6.0564615e-24)
(5.3251328e-06 -1.7307679e-05 2.5317904e-24)
(1.1971666e-05 -2.71811e-05 -2.3888067e-24)
(2.4911214e-05 -4.1103082e-05 1.0627985e-23)
(4.9396604e-05 -6.0719051e-05 -4.1177306e-23)
(9.4818586e-05 -8.8251821e-05 1.2443559e-23)
(0.00017779756 -0.00012664304 4.7735335e-23)
(0.0003273701 -0.00017967902 -2.8911791e-23)
(0.00059343874 -0.00025204249 1.662484e-23)
(0.0010599718 -0.00034918556 -2.4662528e-24)
(0.0018644269 -0.00047686122 -1.7149768e-24)
(0.0032239182 -0.00064011212 1.1417866e-22)
(0.0054658533 -0.0008415661 1.5785693e-22)
(0.0090554953 -0.0010791247 -6.2217438e-23)
(0.014605336 -0.0013436376 -3.3208635e-22)
(0.022849727 -0.0016175221 3.7511149e-22)
(0.034558904 -0.0018763057 2.1870682e-22)
(0.05044815 -0.0020904863 7.2876908e-22)
(0.070936106 -0.0022380543 -1.0905712e-21)
(0.096376317 -0.0022888465 -1.9252576e-21)
(0.12601877 -0.0022703679 -1.5389779e-21)
(0.16064227 -0.0021050591 4.2488168e-21)
(0.19616265 -0.0018591335 -2.596511e-21)
(0.23805085 -0.0015779681 -1.7992817e-21)
(9.4586598e-07 -9.0068887e-06 -1.2803837e-23)
(3.5703484e-06 -3.0122902e-05 1.3756958e-23)
(7.8378266e-06 -5.8582235e-05 7.2991455e-24)
(1.4961656e-05 -9.7304028e-05 3.0371019e-24)
(2.693483e-05 -0.00015030386 -3.3188464e-23)
(4.7272378e-05 -0.00022304267 6.2035629e-23)
(8.2063202e-05 -0.00032288724 -5.836357e-23)
(0.00014187074 -0.00045964768 1.0547831e-23)
(0.00024494739 -0.0006461617 2.1339657e-23)
(0.00042258305 -0.00089882427 5.2801255e-23)
(0.00072774867 -0.0012378529 9.8529678e-23)
(0.001248496 -0.0016869156 -3.2478031e-22)
(0.0021275241 -0.0022715485 2.1430821e-22)
(0.003588326 -0.0030156563 -2.380403e-22)
(0.0059655039 -0.0039355479 -1.266216e-22)
(0.009731601 -0.0050317573 -1.487144e-22)
(0.015505427 -0.0062806029 5.7775203e-23)
(0.024025483 -0.0076288626 1.6823655e-21)
(0.036063837 -0.0089978915 1.0306767e-21)
(0.052334645 -0.010289943 -2.4132293e-21)
(0.073257065 -0.011424238 -7.0492672e-22)
(0.099181567 -0.01229139 1.6405012e-21)
(0.12936521 -0.012921093 -1.2205946e-21)
(0.16461533 -0.013106539 1.6666721e-22)
(0.20077984 -0.013020055 2.0249349e-21)
(0.24373624 -0.012849813 5.5951696e-21)
(3.0261728e-06 -1.6933254e-05 -3.8374881e-24)
(1.0545616e-05 -5.6583964e-05 2.2079109e-23)
(2.1437344e-05 -0.00010991673 -4.1669092e-23)
(3.7621259e-05 -0.00018228221 2.814374e-23)
(6.2074852e-05 -0.00028101262 -4.7301513e-23)
(9.9691726e-05 -0.00041604514 4.5598915e-24)
(0.00015848446 -0.00060073723 9.0237728e-23)
(0.00025169335 -0.00085281243 -3.5850842e-24)
(0.00040127499 -0.0011953776 -6.7930824e-23)
(0.00064359683 -0.0016578261 1.2641095e-22)
(0.0010384834 -0.0022762547 -8.5270823e-23)
(0.0016830184 -0.0030927381 -3.6043613e-22)
(0.0027313819 -0.0041524762 2.4150293e-22)
(0.0044209102 -0.0054976128 -5.1152792e-23)
(0.0071016727 -0.0071568267 4.328506e-22)
(0.011261687 -0.009131183 -7.5699115e-22)
(0.017532959 -0.011379629 1.8577186e-21)
(0.026662422 -0.013810066 -2.626728e-21)
(0.039425506 -0.016286231 -1.4219186e-21)
(0.05653407 -0.018639756 4.6557976e-21)
(0.078408489 -0.020727782 -2.1912934e-21)
(0.1053964 -0.022362228 1.0099967e-20)
(0.1367675 -0.023572482 1.6621149e-21)
(0.17339247 -0.024020125 8.5982189e-22)
(0.21098249 -0.024006368 -5.9650649e-21)
(0.25627204 -0.02370698 -3.701493e-21)
(6.5856289e-06 -2.5488169e-05 -2.0275152e-23)
(2.2471075e-05 -8.5124023e-05 -4.4128936e-23)
(4.4667039e-05 -0.0001652393 1.8081383e-23)
(7.6279986e-05 -0.00027376495 4.3933171e-25)
(0.00012193536 -0.00042153724 1.3557706e-22)
(0.00018882338 -0.0006231952 -5.8502609e-23)
(0.00028814525 -0.00089834725 -1.2936789e-22)
(0.00043755284 -0.0012729081 9.4958761e-23)
(0.00066506777 -0.0017805107 -7.3830696e-23)
(0.00101531 -0.0024637133 3.3936306e-22)
(0.0015591527 -0.0033744499 -5.5661902e-22)
(0.0024081097 -0.004572779 5.7824589e-22)
(0.003734529 -0.0061225321 -2.0585742e-22)
(0.0057974266 -0.0080822075 1.2504075e-21)
(0.0089708164 -0.010489949 -3.8480905e-22)
(0.013766337 -0.013343473 5.4658613e-22)
(0.020835696 -0.016579847 -3.6732757e-21)
(0.030937914 -0.020063677 -5.4364601e-22)
(0.044852428 -0.023597275 5.1390135e-21)
(0.063287025 -0.026939765 -4.9503866e-22)
(0.086663479 -0.029884016 7.4452792e-21)
(0.11532671 -0.032163904 -8.0150884e-21)
(0.14856398 -0.033810937 6.0807362e-22)
(0.18734792 -0.034341534 -1.1633052e-20)
(0.22718698 -0.034251375 1.9646289e-21)
(0.27608226 -0.033372865 3.0754046e-21)
(1.2007102e-05 -3.4764537e-05 1.6688165e-23)
(4.0618913e-05 -0.00011604477 -1.555188e-23)
(7.9980331e-05 -0.00022511617 2.8433151e-23)
(0.00013496719 -0.00037264585 -1.3888274e-22)
(0.00021265112 -0.0005731647 2.8395858e-22)
(0.00032361093 -0.00084623059 -6.0776575e-24)
(0.00048372177 -0.0012179306 -2.2253303e-22)
(0.00071705414 -0.0017225708 -1.1192698e-22)
(0.0010603812 -0.0024044123 5.2206228e-22)
(0.0015701228 -0.0033190613 -1.0458678e-21)
(0.0023327928 -0.0045337709 4.6030743e-22)
(0.0034801112 -0.0061254112 3.3161444e-22)
(0.0052095595 -0.008174323 1.0276368e-22)
(0.0078097414 -0.010752015 -1.1234678e-21)
(0.011686832 -0.013901423 4.7681567e-22)
(0.017383563 -0.017611138 1.4353847e-21)
(0.025576758 -0.02179015 -4.0213954e-22)
(0.037039826 -0.026254266 8.3769879e-23)
(0.052555415 -0.030740438 -2.1132508e-21)
(0.072824412 -0.034934239 -7.0568954e-21)
(0.098269478 -0.038563512 3.4435372e-21)
(0.12923181 -0.041285235 -8.8242142e-21)
(0.16501932 -0.043143238 7.7082321e-21)
(0.2067508 -0.043483217 7.5312849e-21)
(0.2496716 -0.04309536 9.8562968e-21)
(0.3033558 -0.040972885 2.089647e-21)
(1.9791402e-05 -4.4789577e-05 2.3073845e-23)
(6.6650972e-05 -0.00014942715 4.4383149e-23)
(0.00013057751 -0.00028968135 -1.554643e-22)
(0.00021892848 -0.00047909647 1.1036964e-22)
(0.0003421881 -0.00073606084 2.8814919e-23)
(0.00051562907 -0.0010852173 -2.388695e-22)
(0.00076154965 -0.0015592702 4.630453e-22)
(0.001112761 -0.0022009672 -4.3341868e-23)
(0.0016178314 -0.0030650521 -4.2903247e-22)
(0.0023489031 -0.0042196694 8.3279216e-22)
(0.0034130669 -0.0057462689 -8.4858327e-22)
(0.0049682602 -0.007736474 1.1728416e-22)
(0.0072440838 -0.010283782 -2.7180176e-22)
(0.010566311 -0.013467783 2.5702811e-21)
(0.015380707 -0.017329679 -1.0196384e-21)
(0.022267254 -0.021841285 -1.6443681e-21)
(0.031931544 -0.026875797 -3.221907e-21)
(0.045161708 -0.032193969 -2.539052e-21)
(0.062740888 -0.037463817 -1.4340812e-21)
(0.085358924 -0.042297848 2.8066554e-21)
(0.11343816 -0.0463608 2.5985102e-21)
(0.14731373 -0.049236534 8.0604793e-21)
(0.18630905 -0.051000447 -2.3215107e-20)
(0.23173617 -0.050750913 3.0079158e-20)
(0.27854491 -0.049773906 -5.1349349e-20)
(0.33800613 -0.045570439 -1.3993986e-20)
(3.0551639e-05 -5.5453045e-05 -4.2109126e-23)
(0.00010259932 -0.00018489555 3.4831233e-23)
(0.00020036613 -0.00035818817 -1.3733674e-23)
(0.0003345559 -0.00059184114 9.9270624e-23)
(0.00052022822 -0.00090818606 5.3724967e-23)
(0.00077889991 -0.0013370028 -9.5921379e-23)
(0.0011413386 -0.0019175836 -2.6088505e-22)
(0.001651762 -0.0027009194 1.5317637e-22)
(0.0023739496 -0.0037517301 -4.1029521e-23)
(0.0034000453 -0.0051496673 -5.3582064e-23)
(0.0048629218 -0.0069885188 1.6478487e-21)
(0.0069528081 -0.0093715948 -1.7626957e-21)
(0.0099381134 -0.012400879 -9.3176282e-22)
(0.014188543 -0.016157508 5.4412009e-22)
(0.020195411 -0.020672662 2.0236911e-21)
(0.028579994 -0.02589208 1.1897629e-21)
(0.040077717 -0.031644323 6.3379868e-21)
(0.055489119 -0.037628623 -2.8610994e-21)
(0.075592705 -0.04344146 -5.9042786e-22)
(0.10106136 -0.048625366 3.5476164e-21)
(0.13231426 -0.052788169 -2.032472e-20)
(0.1696578 -0.055408318 1.7583324e-20)
(0.21244363 -0.056665374 -1.0648259e-20)
(0.26233499 -0.055390625 -3.3919575e-20)
(0.31374846 -0.053459892 4.2808035e-21)
(0.37959363 -0.046242447 9.3457072e-21)
(4.4994187e-05 -6.6448368e-05 -3.0654241e-23)
(0.00015080212 -0.0002214219 3.2877407e-23)
(0.00029383493 -0.00042863096 1.1781034e-22)
(0.00048917593 -0.000707535 -3.4884685e-22)
(0.00075783662 -0.0010843479 1.230777e-22)
(0.0011293903 -0.001593835 6.195012e-24)
(0.0016454299 -0.0022815663 -3.7099568e-23)
(0.0023645914 -0.003206195 4.0219895e-23)
(0.0033696298 -0.0044413919 -4.0878706e-22)
(0.0047772627 -0.006076596 9.424547e-22)
(0.00675148 -0.0082151814 5.736165e-22)
(0.0095206961 -0.010967958 -1.1432707e-21)
(0.013398132 -0.01443939 2.1362752e-23)
(0.018802802 -0.018704155 -1.0774276e-21)
(0.026275324 -0.023773692 -1.7130932e-21)
(0.036479334 -0.029557266 -5.8726052e-21)
(0.050177722 -0.035829544 5.6614142e-21)
(0.068177717 -0.04222222 3.2049577e-21)
(0.091244814 -0.048258928 -5.6843733e-21)
(0.12002558 -0.05341676 1.1382726e-20)
(0.15493229 -0.057226104 6.8136767e-21)
(0.1962153 -0.059210974 -2.5029342e-20)
(0.24356287 -0.059452758 -1.0101533e-20)
(0.2982656 -0.056631086 1.5312486e-20)
(0.35471938 -0.053301284 6.7763683e-20)
(0.42716799 -0.042130576 6.4616932e-21)
(6.3859184e-05 -7.7185527e-05 -1.4831236e-23)
(0.00021370598 -0.00025703824 -3.4446594e-23)
(0.00041567268 -0.00049719554 -8.1330516e-23)
(0.00069042278 -0.0008198717 2.6618059e-22)
(0.0010665062 -0.001254862 -3.5600054e-22)
(0.0015836168 -0.0018414452 2.9454983e-22)
(0.002296817 -0.0026307359 -1.2002094e-22)
(0.0032824755 -0.0036879178 -5.4039542e-23)
(0.0046463636 -0.0050938864 1.0282684e-22)
(0.0065345107 -0.0069452784 3.9438032e-22)
(0.0091472893 -0.0093512618 1.7218795e-22)
(0.012756701 -0.012424778 -1.5063939e-21)
(0.017725649 -0.016265531 1.288006e-21)
(0.024525843 -0.020932585 -2.3246716e-21)
(0.033748028 -0.026407112 2.9791306e-21)
(0.046095546 -0.032551338 -3.1397421e-21)
(0.062352404 -0.039077553 6.7315254e-22)
(0.083323567 -0.045545745 8.6858834e-21)
(0.10975224 -0.051408804 -7.1732439e-21)
(0.14226229 -0.056083169 3.8029213e-21)
(0.18127083 -0.059072986 -5.4097217e-21)
(0.22686175 -0.059873788 1.2464407e-20)
(0.27894975 -0.058537586 4.7314915e-20)
(0.33864496 -0.053617335 -1.0374871e-21)
(0.40064719 -0.048485656 -1.1990821e-20)
(0.47940503 -0.032532838 1.2900604e-20)
(8.7834493e-05 -8.6730642e-05 1.6775431e-23)
(0.00029357866 -0.00028863672 -4.3133305e-23)
(0.00057021065 -0.00055787519 1.2765143e-22)
(0.00094531594 -0.00091895722 -4.7021226e-23)
(0.0014567406 -0.0014046077 1.6099641e-22)
(0.0021565579 -0.0020576882 -1.971939e-22)
(0.0031161497 -0.0029335333 -1.1159411e-23)
(0.0044331192 -0.004101981 3.1118899e-23)
(0.0062404048 -0.0056485142 1.383241e-22)
(0.0087180271 -0.007673308 -1.1530478e-22)
(0.012107633 -0.010286347 2.9115406e-22)
(0.016729331 -0.013596141 6.6837153e-22)
(0.022998952 -0.017689353 -1.2648549e-21)
(0.031441727 -0.022599691 -1.9509746e-21)
(0.042695748 -0.028267696 1.3216411e-21)
(0.057496976 -0.034499275 1.007364e-21)
(0.076639391 -0.040938511 3.5138759e-22)
(0.10091204 -0.04707385 -3.7612416e-21)
(0.13102199 -0.052296191 1.4152886e-21)
(0.1675574 -0.055971803 -1.2238885e-21)
(0.2107551 -0.057575733 -1.517187e-21)
(0.26095823 -0.056542052 8.726266e-21)
(0.31806683 -0.053138089 -4.4703531e-20)
(0.38285865 -0.045612292 -7.5159799e-21)
(0.45036894 -0.038261427 -1.0863868e-20)
(0.53449138 -0.016993757 -1.9296045e-21)
(0.00011737973 -9.3721108e-05 1.9561689e-23)
(0.00039192799 -0.00031169127 -1.1283755e-22)
(0.00076030972 -0.00060194275 5.50158e-23)
(0.0012584481 -0.00099046179 1.008158e-22)
(0.0019353244 -0.0015117737 -9.5257011e-23)
(0.002857727 -0.0022107785 -8.3354048e-23)
(0.0041162586 -0.0031449338 3.9565513e-22)
(0.0058332469 -0.0043859103 -2.1537045e-22)
(0.0081728083 -0.0060200298 4.3364108e-22)
(0.011353261 -0.0081461131 -1.4289108e-21)
(0.015661664 -0.010868735 6.2387412e-22)
(0.021469417 -0.014284327 -3.4795384e-22)
(0.029246398 -0.018457616 -9.9118709e-22)
(0.039569086 -0.023387398 -1.464974e-21)
(0.053116079 -0.028964612 4.3320357e-21)
(0.070644069 -0.034932375 -4.1775244e-21)
(0.092940806 -0.040864962 2.4704356e-21)
(0.12076055 -0.046184566 5.6745469e-21)
(0.15475553 -0.050228625 9.3018255e-21)
(0.19542383 -0.052335671 -1.2053064e-20)
(0.24304668 -0.051980729 3.1709326e-21)
(0.29793719 -0.048629191 -7.2642153e-21)
(0.35982269 -0.042538634 2.4038932e-20)
(0.4294279 -0.031913362 -2.8534296e-21)
(0.50216758 -0.022053303 -7.6475222e-21)
(0.59014346 0.0045274165 -3.6908515e-20)
(0.00015257994 -9.6411131e-05 3.3595345e-23)
(0.00050901141 -0.00032040821 -3.6494833e-23)
(0.00098640556 -0.00061823952 1.2259739e-22)
(0.0016303997 -0.0010160924 -1.0879334e-22)
(0.0025028782 -0.0015485737 -1.6004648e-22)
(0.003687554 -0.0022603283 3.0035279e-22)
(0.0052969389 -0.0032079076 -2.9962617e-23)
(0.0074812242 -0.0044608742 -5.7833054e-22)
(0.010439157 -0.0061013578 7.0859478e-22)
(0.014430795 -0.0082205682 -6.7588893e-23)
(0.019791456 -0.010910161 -2.5288394e-22)
(0.02694516 -0.014245922 1.1764891e-21)
(0.036414404 -0.018261585 -2.6650647e-21)
(0.048821353 -0.022912582 4.0925656e-21)
(0.064874359 -0.028034112 1.6072934e-21)
(0.085334787 -0.033304829 9.059329e-22)
(0.11096426 -0.038234001 -2.6821308e-21)
(0.14246167 -0.042189838 -2.5106761e-21)
(0.1804063 -0.04447636 -7.7537592e-21)
(0.22522475 -0.044428832 1.3126017e-20)
(0.27716735 -0.041533018 1.0092096e-20)
(0.33644124 -0.035309242 -1.4650191e-20)
(0.40280098 -0.026125763 1.509126e-21)
(0.47662267 -0.01216106 5.2151747e-21)
(0.55389155 0.00036868793 -2.9432708e-21)
(0.64370673 0.031603169 -1.1526457e-20)
(0.00019277898 -9.2658659e-05 3.9580498e-24)
(0.00064263165 -0.0003076879 2.2811701e-25)
(0.0012442162 -0.00059311503 1.3421347e-23)
(0.002054037 -0.00097352274 1.0805397e-22)
(0.003148341 -0.0014811959 -8.8158564e-23)
(0.004629552 -0.0021573719 -1.5379325e-22)
(0.0066342024 -0.0030536213 2.6320366e-22)
(0.0093427072 -0.0042322332 -2.9027907e-22)
(0.012990849 -0.0057647715 5.4059883e-22)
(0.017882484 -0.007727247 -1.0909636e-21)
(0.02440222 -0.010189814 2.5766141e-22)
(0.033025716 -0.013198627 -2.6270587e-22)
(0.044323831 -0.016748114 4.4135627e-22)
(0.0589556 -0.020744387 1.3117851e-21)
(0.077644984 -0.024965425 -2.1481267e-21)
(0.10113899 -0.029030589 7.0627229e-22)
(0.13015135 -0.032397465 -3.5170069e-21)
(0.16530485 -0.03440162 -3.057685e-23)
(0.20708946 -0.034341398 -8.0565223e-22)
(0.25584863 -0.031577249 -1.7419124e-21)
(0.31177475 -0.025648032 -6.5547926e-21)
(0.3749761 -0.016169928 5.2044136e-21)
(0.44516733 -0.0035927422 1.4063027e-21)
(0.52227301 0.013706919 5.5645413e-21)
(0.60298701 0.028805478 -4.4812972e-22)
(0.69232916 0.063260112 4.279051e-20)
(0.00023657031 -8.0265322e-05 -1.918193e-23)
(0.0007880861 -0.00026625383 6.5536001e-23)
(0.0015246062 -0.00051259352 -4.4245119e-23)
(0.0025142119 -0.00083993361 8.9084107e-24)
(0.0038483707 -0.0012751576 1.4626776e-23)
(0.0056491928 -0.0018521095 -2.2821477e-22)
(0.0080782631 -0.0026123009 1.4505371e-22)
(0.011347165 -0.003604437 1.3859374e-22)
(0.015729315 -0.0048819251 -5.11531e-23)
(0.021572175 -0.0064968613 3.4980948e-22)
(0.029308014 -0.0084885518 -3.9839103e-23)
(0.039460176 -0.010864539 -5.9552491e-22)
(0.052640584 -0.013573005 3.4752347e-23)
(0.069533629 -0.016468157 -2.387569e-22)
(0.090862857 -0.01927526 2.1536239e-21)
(0.11734135 -0.021568343 -3.345793e-21)
(0.14961438 -0.02277755 6.1398955e-22)
(0.18821061 -0.022238598 1.4765231e-21)
(0.23351787 -0.019281764 -1.7285532e-22)
(0.28578698 -0.013330229 -2.070358e-22)
(0.34513629 -0.0040090956 2.1243775e-21)
(0.41155531 0.0089351804 1.4800708e-21)
(0.4846849 0.024943196 1.0231323e-21)
(0.56389743 0.045248141 9.3356249e-22)
(0.64666259 0.062505889 1.8811681e-21)
(0.73319074 0.09799977 -1.2283964e-20)
(0.00028100726 -5.7084452e-05 6.3867482e-24)
(0.0009355916 -0.0001890315 -8.7763756e-24)
(0.0018087282 -0.00036310747 2.3769633e-23)
(0.0029800022 -0.00059324896 -1.4862674e-23)
(0.0045559453 -0.00089723665 -4.0493098e-24)
(0.0066780236 -0.001296809 -3.97208e-23)
(0.0095322629 -0.0018174946 7.498768e-23)
(0.013360341 -0.0024871882 -5.9286534e-23)
(0.018471493 -0.003332678 -1.6673057e-23)
(0.02525384 -0.0043728079 2.8245091e-23)
(0.03418269 -0.0056066679 3.0545674e-22)
(0.045822123 -0.0069953105 -4.1415614e-22)
(0.060815224 -0.0084365827 2.5295097e-22)
(0.079858559 -0.0097354247 7.8091814e-23)
(0.10365926 -0.010576694 -5.4352109e-22)
(0.13287928 -0.010512951 1.6063708e-22)
(0.16807978 -0.0089819349 -4.9514248e-22)
(0.20968418 -0.0053624046 8.9252305e-22)
(0.25797276 0.00093814192 -3.3611134e-22)
(0.313101 0.010391824 -1.4865842e-21)
(0.3751045 0.023253069 -1.1721111e-21)
(0.44384426 0.039607837 -1.8995409e-21)
(0.51883346 0.058768136 -9.4454284e-22)
(0.59883921 0.081390614 -4.221414e-21)
(0.68200206 0.10013025 -1.1706671e-20)
(0.76308508 0.13392881 -1.2354532e-20)
(0.00032256548 -2.1884855e-05 -1.5447516e-24)
(0.0010734263 -7.1950535e-05 3.1964842e-24)
(0.002073916 -0.00013692309 2.7905412e-24)
(0.0034140792 -0.00022098853 2.1555615e-24)
(0.0052140311 -0.00032887447 -2.1707494e-23)
(0.00763254 -0.00046521049 4.6089541e-25)
(0.010877235 -0.00063334026 2.0481952e-23)
(0.015216012 -0.00083292016 5.6861875e-25)
(0.020988709 -0.0010556406 6.2760491e-23)
(0.028617237 -0.0012781016 -7.6618802e-23)
(0.038611157 -0.0014507628 2.5009316e-23)
(0.051564501 -0.0014821867 -2.6828102e-23)
(0.068139001 -0.0012189651 1.9081706e-23)
(0.089029971 -0.00042425051 3.2085967e-23)
(0.11491532 0.0012383285 1.1763012e-22)
(0.14639587 0.0042048464 -8.455834e-23)
(0.18394391 0.0089845951 -1.8443402e-22)
(0.22787969 0.01610308 6.3483796e-23)
(0.27838375 0.026023514 -9.7121771e-23)
(0.33552539 0.03906915 3.6601108e-23)
(0.39925934 0.055340893 3.8713638e-22)
(0.46931744 0.074729515 9.8991713e-22)
(0.54503578 0.096413486 -2.9358608e-22)
(0.6245957 0.12036004 7.1014873e-21)
(0.70638543 0.14003188 -2.751685e-21)
(0.77991422 0.1684624 2.8499913e-20)
(0.00035531764 2.545417e-05 -9.9238397e-25)
(0.001181966 8.536235e-05 -2.5474669e-24)
(0.0022824776 0.00016658012 7.9357108e-25)
(0.0037548715 0.00027765373 5.986868e-24)
(0.0057295207 0.00043073713 -1.6409229e-24)
(0.0083781483 0.00064311521 -2.0738453e-24)
(0.011924369 0.00093950026 7.1820374e-24)
(0.016655177 0.0013553659 -3.3746493e-24)
(0.022932216 0.0019417389 1.4119112e-23)
(0.031200638 0.0027718978 -1.5498529e-23)
(0.041992123 0.0039503146 -1.0813161e-23)
(0.055917478 0.005623707 5.1891802e-24)
(0.073643955 0.0079929764 -3.6353827e-23)
(0.095854395 0.01132293 3.0910674e-23)
(0.12319078 0.01594432 1.837014e-23)
(0.1561936 0.022241211 4.1040356e-24)
(0.19525678 0.030618345 -7.9239798e-23)
(0.24061731 0.04144964 -2.6326843e-22)
(0.29238153 0.055017324 1.3720609e-21)
(0.35055729 0.071455201 -1.0274006e-21)
(0.41503583 0.090682978 -2.3473132e-21)
(0.48544123 0.11238357 4.5692605e-21)
(0.56093524 0.13561212 7.1966898e-21)
(0.63933231 0.15971756 -3.0435854e-21)
(0.71882258 0.18016904 -7.5346291e-21)
(0.78797128 0.20128785 -5.1129981e-22)
(0.00037384129 8.1340577e-05 2.3649746e-24)
(0.0012431737 0.00027104117 2.1254482e-24)
(0.0023996762 0.00052438922 -5.1407038e-24)
(0.0039454233 0.00086476012 2.6441683e-23)
(0.0060158904 0.0013235723 -7.6456186e-24)
(0.0087890092 0.0019430401 -1.317614e-23)
(0.012495709 0.0027794415 2.6934709e-23)
(0.017431174 0.0039072491 3.2233969e-24)
(0.023965523 0.0054240489 -1.2780894e-22)
(0.032551532 0.0074560631 1.8368109e-22)
(0.04372582 0.010163724 1.6122734e-23)
(0.058098833 0.013746136 3.8489476e-23)
(0.076329067 0.018442416 -1.445698e-22)
(0.099079412 0.024527014 -1.1443149e-22)
(0.12695967 0.032295737 -4.2578028e-24)
(0.16046839 0.042040422 3.36518e-22)
(0.19995469 0.054013662 1.1236857e-21)
(0.2456172 0.068389754 8.400045e-22)
(0.29753642 0.085229487 6.5106011e-23)
(0.35570204 0.10444988 -2.9934687e-21)
(0.41997523 0.12577336 2.8327114e-21)
(0.48990937 0.14867022 -4.9634734e-21)
(0.56453342 0.17203576 -2.5685193e-20)
(0.64153273 0.19464554 -1.2860714e-20)
(0.71876417 0.21277666 4.3453593e-20)
(0.78788729 0.2266827 6.3447806e-20)
(0.00037316835 0.00013919279 -6.1472058e-24)
(0.0012406618 0.00046302916 2.7481578e-24)
(0.0023941311 0.00089407935 -3.0300744e-23)
(0.0039347351 0.0014706095 3.8846755e-23)
(0.0059965336 0.0022434917 1.8865419e-23)
(0.0087553254 0.0032798283 -5.093727e-23)
(0.012438868 0.0046671316 1.9997824e-23)
(0.017337717 0.0065179701 -1.1722063e-22)
(0.023815365 0.0089745979 3.3712791e-22)
(0.032315362 0.012212686 -2.2602689e-22)
(0.043361906 0.016442681 -2.1851809e-22)
(0.05754952 0.021906636 2.5336478e-22)
(0.075517691 0.028867902 -3.4155412e-22)
(0.097909006 0.037591334 6.1524179e-22)
(0.12531546 0.048313533 -1.6954109e-22)
(0.15822614 0.061206548 -4.2821769e-22)
(0.19699525 0.076343438 -2.5091856e-21)
(0.24184441 0.093676328 -2.2230739e-21)
(0.29289032 0.11303113 -5.0758564e-21)
(0.35015699 0.13410607 1.0864769e-20)
(0.41351419 0.15643403 -6.4545899e-21)
(0.48247879 0.17929539 9.7933642e-21)
(0.55598017 0.2014353 1.0048022e-20)
(0.63167252 0.22119538 -3.5687895e-20)
(0.70682265 0.23545027 7.0082177e-20)
(0.77508914 0.24224858 3.673515e-20)
(0.00035249158 0.00019247197 2.6693533e-23)
(0.0011717901 0.00063972451 -4.087285e-23)
(0.0022608653 0.0012340382 1.334208e-23)
(0.0037148761 0.0020271038 1.2810547e-22)
(0.0056598454 0.0030872404 7.7431814e-23)
(0.008260998 0.0045037023 2.2710376e-22)
(0.011732375 0.0063915362 5.8695073e-23)
(0.016347113 0.0088964505 -3.5265026e-22)
(0.022447214 0.012198812 -6.832393e-22)
(0.030450734 0.016515221 2.5846166e-22)
(0.040853333 0.022095322 6.9424133e-22)
(0.054220337 0.029210851 4.452997e-22)
(0.071165775 0.038133874 -1.5434291e-21)
(0.092317255 0.049102768 -1.3459972e-21)
(0.11827082 0.062278508 1.6016568e-21)
(0.14954696 0.077700261 -1.3043982e-21)
(0.18656301 0.095255158 -1.1057055e-21)
(0.22963108 0.11467613 -3.6766323e-21)
(0.27896989 0.13556727 -1.0644103e-20)
(0.33469173 0.15743004 -1.3803164e-20)
(0.39671403 0.17963706 3.1599912e-20)
(0.46454771 0.20132327 -2.1271675e-20)
(0.53705235 0.22112721 1.5635676e-20)
(0.61209559 0.23710591 -1.9109548e-20)
(0.6864567 0.24620265 -1.5102204e-19)
(0.75407228 0.24696319 8.4206877e-20)
(0.00031278344 0.00023412994 -3.7443951e-23)
(0.0010398395 0.00077777141 -9.594701e-23)
(0.0020063279 0.0014993803 3.5426746e-23)
(0.0032967055 0.00246088 6.1498822e-23)
(0.0050228765 0.0037438052 1.5170866e-22)
(0.0073318106 0.0054540284 -3.7540743e-22)
(0.010414345 0.0077269962 -7.2249653e-22)
(0.014514871 0.010732534 1.8800491e-21)
(0.019940989 0.014678002 -8.3968732e-23)
(0.027071585 0.019807684 -2.8972304e-21)
(0.036360924 0.0263954 7.391353e-22)
(0.048335743 0.034726679 2.29321e-21)
(0.063582461 0.045067301 7.3319996e-22)
(0.082723263 0.057617682 -5.1337996e-21)
(0.10638357 0.072458552 3.0293142e-22)
(0.13515813 0.089501738 -3.6059444e-21)
(0.16958508 0.1084662 6.9849922e-21)
(0.21013176 0.12889533 1.3521421e-20)
(0.25717989 0.15021007 -7.394757e-21)
(0.31097856 0.17175936 1.3099659e-20)
(0.37152744 0.19280486 1.4367141e-20)
(0.43835502 0.21240346 4.2938367e-20)
(0.51026347 0.22914234 -9.9986754e-21)
(0.58481008 0.24106309 1.0893834e-19)
(0.65989617 0.24564548 1.9116447e-20)
(0.72911498 0.24059885 2.8228492e-20)
(0.00025812545 0.00025809054 1.2447447e-22)
(0.00085836252 0.00085704716 -1.0975224e-22)
(0.0016566401 0.0016514577 -1.0505158e-22)
(0.0027230904 0.0027088274 -2.3330825e-22)
(0.0041508345 0.0041177984 5.0784128e-22)
(0.0060627275 0.0059929822 -1.2056743e-22)
(0.008619218 0.0084802309 -9.6629493e-22)
(0.012027453 0.011761115 1.3751353e-21)
(0.016551107 0.016055163 -6.8233971e-22)
(0.022520055 0.021617377 2.4682309e-22)
(0.030338406 0.028727601 -1.9260362e-21)
(0.040488877 0.037667725 1.3531987e-21)
(0.053531278 0.048683597 -2.2765446e-21)
(0.070093396 0.061932025 1.1144379e-20)
(0.090854078 0.07742054 -7.8127265e-21)
(0.11652019 0.09495716 -4.9674517e-21)
(0.14779935 0.11413365 -2.5093435e-21)
(0.1853666 0.1343589 -1.4723295e-20)
(0.2298141 0.15493278 1.9660519e-20)
(0.28156417 0.17511382 -2.3323539e-21)
(0.34072508 0.19411245 -5.7181198e-21)
(0.40687145 0.21097263 -7.2467514e-20)
(0.47881675 0.22433851 -1.1404679e-19)
(0.55417385 0.23242275 -4.376941e-21)
(0.63001534 0.23280284 -9.1832487e-20)
(0.7016631 0.22385863 8.3831003e-20)
(0.00019453643 0.00025981116 -5.9097177e-23)
(0.00064733806 0.00086252328 1.6744957e-22)
(0.001250283 0.0016614473 5.5901132e-23)
(0.0020571155 0.0027239677 -4.5142418e-22)
(0.0031395464 0.0041383895 2.4295453e-22)
(0.0045930682 0.0060185342 3.4425159e-22)
(0.0065438361 0.0085086927 8.3144234e-23)
(0.009157265 0.011787559 1.35962e-21)
(0.012648278 0.016069625 -1.1032699e-22)
(0.017293109 0.021601442 -1.821003e-21)
(0.023442209 0.028649221 -1.8125727e-21)
(0.031533327 0.037473788 3.7853039e-21)
(0.042103139 0.048290006 -3.3477071e-21)
(0.055794928 0.061211739 3.2795897e-21)
(0.073358731 0.076191215 -5.2222611e-21)
(0.095639042 0.092971499 6.5685407e-21)
(0.1235437 0.11107652 -9.6795771e-22)
(0.1579865 0.12985464 7.7074665e-21)
(0.19979603 0.1485633 -1.1277877e-20)
(0.24958518 0.16644521 -1.7718127e-20)
(0.30757981 0.1827283 -1.7433323e-20)
(0.37340184 0.1965156 9.956067e-21)
(0.44585659 0.20658972 1.4127514e-19)
(0.52259487 0.21135446 4.642427e-20)
(0.60058067 0.20900806 -1.3055437e-19)
(0.67504887 0.19816136 1.9370118e-19)
(0.00012965951 0.00023735967 7.0321848e-23)
(0.0004321075 0.00078782275 -1.0712962e-22)
(0.00083599833 0.0015171557 3.549448e-23)
(0.001378536 0.0024865113 3.3627371e-22)
(0.0021098733 0.0037759049 2.0116643e-22)
(0.0030980317 0.0054882358 5.9713012e-22)
(0.0044348605 0.007753577 -1.2550541e-21)
(0.0062442226 0.010732398 9.1175213e-22)
(0.0086928125 0.014616292 5.3777268e-22)
(0.012004313 0.01962378 -2.39886e-21)
(0.016477478 0.025987939 -2.0860544e-21)
(0.022508272 0.033932254 1.2148142e-21)
(0.030614975 0.043632238 6.5490864e-21)
(0.041462803 0.055164254 -2.4564996e-21)
(0.055880806 0.068450321 4.3855937e-21)
(0.074859334 0.083216827 -5.4406246e-21)
(0.099513427 0.098989887 -1.6341245e-20)
(0.13099965 0.11514138 2.0868534e-20)
(0.17038316 0.1309727 -9.9785246e-21)
(0.21846473 0.14578927 1.9874707e-20)
(0.27558447 0.15890506 3.1707154e-20)
(0.34140943 0.16954932 -3.66234e-20)
(0.41473494 0.17671349 -2.0638237e-20)
(0.49321326 0.17910093 2.4734695e-20)
(0.57363904 0.17531967 2.6943982e-19)
(0.65123969 0.16456463 -2.8528661e-19)
(7.1524749e-05 0.00019161392 -3.1796843e-23)
(0.00023928446 0.00063588673 1.409415e-23)
(0.00046494831 0.0012243134 -1.5519753e-22)
(0.00077100789 0.0020059969 -1.5119382e-22)
(0.0011884733 0.0030451117 9.5991417e-23)
(0.0017610243 0.0044240487 3.3608996e-22)
(0.0025501996 0.0062467408 -6.7631258e-22)
(0.0036432999 0.0086410525 1.4188258e-21)
(0.0051648152 0.011759075 -9.3470444e-22)
(0.0072927762 0.015773352 5.556757e-22)
(0.010281586 0.020866368 -1.1111983e-21)
(0.014492394 0.027210423 9.8230552e-22)
(0.020430297 0.034936063 -1.5309209e-21)
(0.028783975 0.044090412 2.7431618e-21)
(0.04045719 0.054592878 -8.1785044e-22)
(0.056574302 0.066203092 -6.5127048e-22)
(0.078437847 0.078519626 1.428303e-20)
(0.10742156 0.091020454 -7.3008234e-21)
(0.14479993 0.10313383 -7.4643208e-22)
(0.19153788 0.11430099 2.9678983e-20)
(0.24807368 0.12398242 -5.0294764e-21)
(0.31411069 0.13158734 -4.6715063e-20)
(0.38843126 0.13636373 -1.3796047e-20)
(0.4686676 0.13736512 2.793492e-20)
(0.55148777 0.13362157 -1.7437715e-19)
(0.63195544 0.12470439 8.9940092e-20)
(2.7658686e-05 0.00012687122 4.6126332e-23)
(9.3812521e-05 0.00042096023 4.1792391e-23)
(0.00018507021 0.0008102859 -9.5966225e-23)
(0.00031287694 0.0013270821 4.9445005e-22)
(0.00049387802 0.0020133576 -1.4585401e-22)
(0.00075350152 0.0029228361 -2.3889249e-22)
(0.0011305827 0.0041229999 -3.6637908e-22)
(0.0016851165 0.0056967543 1.1217788e-21)
(0.002510197 0.0077435931 -1.9801096e-21)
(0.0037500691 0.01037647 9.7268465e-22)
(0.00562657 0.013713584 9.4199754e-23)
(0.0084757918 0.01786553 2.8672327e-21)
(0.012794515 0.022914552 -4.9853518e-21)
(0.019291137 0.028887009 1.0934564e-21)
(0.028928055 0.035724449 2.8262882e-21)
(0.04293291 0.043263114 -1.087557e-20)
(0.06275126 0.051234094 1.2581814e-20)
(0.089921107 0.059291134 -3.1707484e-21)
(0.12587396 0.067058306 -8.4213126e-21)
(0.17169656 0.074172058 6.8081706e-21)
(0.22789865 0.080286499 7.4336834e-21)
(0.29420781 0.085029442 -4.0241395e-21)
(0.36939223 0.087935823 5.2021761e-20)
(0.45105555 0.088428796 1.5687225e-20)
(0.53576584 0.085937269 -1.4569266e-19)
(0.61842321 0.080259879 -2.3478711e-21)
(3.3814281e-06 4.8918541e-05 2.5471515e-23)
(1.3991305e-05 0.00016212072 -1.8662516e-23)
(3.1405046e-05 0.00031151467 -1.4961275e-23)
(6.149023e-05 0.00050890742 -3.1299212e-24)
(0.00011293293 0.00076972214 1.6083179e-23)
(0.00020132066 0.0011136776 1.7181333e-23)
(0.00035363268 0.0015660893 -1.5148225e-22)
(0.00061471191 0.0021602519 3.6990387e-24)
(0.0010599083 0.0029366779 -1.6657279e-23)
(0.0018172338 0.0039361206 -4.8934628e-22)
(0.0030904389 0.0052012714 -1.3209041e-23)
(0.0052016599 0.0067741744 2.2267595e-21)
(0.008644488 0.008686614 -1.2831058e-21)
(0.014138871 0.010950308 -8.9050416e-22)
(0.022680144 0.013546336 2.651139e-21)
(0.035553199 0.016417664 -4.4596231e-21)
(0.054282284 0.019469131 5.0595139e-21)
(0.080495272 0.022577492 -1.3571534e-21)
(0.11570904 0.02560872 -5.220574e-21)
(0.16107599 0.028433445 1.2995006e-20)
(0.21714347 0.030929342 4.1101855e-21)
(0.28365019 0.032966002 1.5629973e-20)
(0.35935328 0.034381762 -3.9227655e-20)
(0.44183483 0.03497485 -5.6659712e-20)
(0.52760269 0.034547646 1.6617331e-20)
(0.61145207 0.033017542 -1.5147356e-20)
(0.27117567 -0.00022777072 -1.3617592e-21)
(0.29877354 2.4290637e-05 5.2582357e-22)
(0.32837633 0.00097376924 9.0881993e-22)
(0.34877202 0.0014814399 8.2109664e-22)
(0.37097582 0.0020367708 9.8192935e-22)