/*--------------------------------*- C++ -*----------------------------------*\
  =========                 |
  \\      /  F ield         | OpenFOAM: The Open Source CFD Toolbox
   \\    /   O peration     | Website:  https://openfoam.org
    \\  /    A nd           | Version:  13
     \\/     M anipulation  |
\*---------------------------------------------------------------------------*/
FoamFile
{
    format      ascii;
    class       volScalarField;
    location    "23.095783";
    object      pMean;
}
// * * * * * * * * * * * * * * * * * * * * * * * * * * * * * * * * * * * * * //

dimensions      [0 2 -2 0 0 0 0];

internalField   nonuniform List<scalar> 
17140
(
1.9544579
1.9543298
1.9541751
1.9540173
1.9538465
1.9536601
1.9534579
1.9532394
1.9530041
1.9527515
1.9524814
1.9521934
1.9518872
1.9515623
1.9512173
1.9508502
1.9504571
1.9500316
1.9495633
1.949037
1.9484303
1.9477116
1.9468377
1.9457505
1.9443724
1.9426082
1.9403631
1.9375549
1.9341061
1.9299289
1.9249033
1.9188846
1.9117144
1.9032136
1.8931851
1.8814185
1.8676996
1.8518281
1.8336405
1.8130427
1.7900511
1.7648393
1.7377988
1.7095979
1.6812048
1.6539474
1.6293924
1.6089291
1.593962
1.5857113
1.5850508
1.5925806
1.6087144
1.6334419
1.6663092
1.7062447
1.75178
1.8004161
1.8507857
1.8988837
1.9447218
1.9805292
2.0125826
2.0256442
2.0414603
1.9524969
1.9523715
1.95222
1.9520655
1.9518982
1.9517157
1.9515176
1.9513036
1.951073
1.9508254
1.9505607
1.9502785
1.9499785
1.9496602
1.9493225
1.9489631
1.9485785
1.9481623
1.9477045
1.9471899
1.9465962
1.9458924
1.9450354
1.9439676
1.9426117
1.9408725
1.9386547
1.9358757
1.9324577
1.9283113
1.9233156
1.9173254
1.9101819
1.9017056
1.8916986
1.8799493
1.8662429
1.8503776
1.8321887
1.8115807
1.7885683
1.7633238
1.7362381
1.7079792
1.6795263
1.6522043
1.6275574
1.6070458
1.5920541
1.5837611
1.5830564
1.5905437
1.6066109
1.6312562
1.6640377
1.7038453
1.7492364
1.7977346
1.8479778
1.8959682
1.9417105
1.977471
2.0095105
2.0226631
2.0392211
1.9478678
1.9477488
1.9476053
1.9474585
1.9472995
1.9471259
1.9469375
1.9467337
1.9465142
1.9462785
1.9460263
1.9457576
1.9454719
1.945169
1.9448478
1.9445065
1.9441415
1.9437469
1.943313
1.9428252
1.9422618
1.9415923
1.9407742
1.9397508
1.9384462
1.9367648
1.9346094
1.9318959
1.9285449
1.9244665
1.9195387
1.9136147
1.9065347
1.8981175
1.8881629
1.8764571
1.8627823
1.8469337
1.8287432
1.8081117
1.7850503
1.7597294
1.7325409
1.7041569
1.6755754
1.6481395
1.6233604
1.6027294
1.5876574
1.5793061
1.5785318
1.5859155
1.6018451
1.6263273
1.6589294
1.6985126
1.7436479
1.791852
1.8418357
1.8895891
1.9351754
1.970946
2.0031619
2.0167903
2.0343842
1.9406589
1.94055
1.940419
1.9402844
1.9401383
1.9399788
1.9398055
1.9396179
1.9394157
1.9391985
1.9389661
1.9387184
1.9384552
1.9381764
1.937881
1.9375676
1.9372329
1.9368717
1.9364747
1.9360282
1.9355112
1.9348941
1.9341356
1.9331803
1.9319539
1.9303613
1.9283025
1.9256892
1.9224407
1.9184664
1.9136441
1.9078242
1.9008448
1.8925221
1.8826528
1.8710191
1.857399
1.841583
1.8233975
1.8027379
1.77961
1.7541824
1.726849
1.6982911
1.6695343
1.6419398
1.616992
1.5962257
1.5810572
1.5726334
1.5717791
1.5790387
1.5947846
1.6190297
1.6513468
1.6905564
1.7352515
1.7829651
1.8325036
1.8799281
1.9253814
1.9612889
1.9939146
2.0083911
2.0272534
1.9311023
1.931007
1.9308929
1.9307745
1.9306458
1.9305051
1.9303521
1.9301864
1.9300074
1.9298151
1.9296092
1.9293898
1.9291567
1.9289099
1.9286489
1.9283725
1.9280781
1.9277606
1.927412
1.9270192
1.9265626
1.9260136
1.9253326
1.9244654
1.9233405
1.9218645
1.9199335
1.9174524
1.9143384
1.9105019
1.9058198
1.9001399
1.8932971
1.8851044
1.8753541
1.8638237
1.8502858
1.8345247
1.8163601
1.7956799
1.772484
1.7469392
1.719444
1.690695
1.6617531
1.6339832
1.6088659
1.5879798
1.5727388
1.5642734
1.5633572
1.5704948
1.5860435
1.6100157
1.6419838
1.680742
1.7248985
1.7720028
1.8210004
1.8680281
1.9133291
1.9494371
1.9826186
1.9982374
2.0184691
1.9195779
1.9194992
1.9194057
1.9193072
1.9191999
1.9190825
1.9189544
1.9188155
1.9186652
1.9185035
1.9183302
1.9181454
1.9179493
1.9177417
1.9175227
1.9172911
1.9170449
1.91678
1.916489
1.9161598
1.9157743
1.9153053
1.9147149
1.9139511
1.9129449
1.9116066
1.9098287
1.9075076
1.9045563
1.9008853
1.8963725
1.8908648
1.8841914
1.8761621
1.8665644
1.8551704
1.8417465
1.8260699
1.8079522
1.7872731
1.764026
1.738377
1.7107306
1.6818044
1.6526976
1.6247652
1.5995184
1.5785579
1.5632906
1.5548302
1.5538977
1.5609499
1.5763251
1.6000217
1.6316023
1.6698292
1.7133621
1.7597896
1.8081764
1.8547816
1.8999437
1.9363593
1.9702377
1.9872473
2.0088989
1.9065995
1.9065397
1.9064688
1.9063933
1.9063108
1.9062201
1.906121
1.906013
1.905896
1.9057697
1.9056342
1.9054895
1.9053358
1.9051734
1.9050022
1.9048217
1.90463
1.9044238
1.9041966
1.9039376
1.9036298
1.9032479
1.9027558
1.9021041
1.9012266
1.9000376
1.8984301
1.8962916
1.8935246
1.8900385
1.885717
1.8804069
1.8739306
1.8660943
1.8566809
1.845457
1.8321825
1.816627
1.7985932
1.7779525
1.754692
1.7289777
1.7012227
1.6721689
1.6429451
1.6149038
1.5895912
1.5686053
1.553359
1.5449469
1.5440411
1.5510527
1.5662995
1.5897671
1.6210067
1.6587277
1.7016249
1.7473967
1.7952115
1.84144
1.8864925
1.9232593
1.9578889
1.9762889
1.9991087
1.8927876
1.8927483
1.8927015
1.8926512
1.8925959
1.8925346
1.8924672
1.8923935
1.8923131
1.8922259
1.8921319
1.8920314
1.8919245
1.8918115
1.8916925
1.8915671
1.891434
1.8912902
1.89113
1.8909438
1.8907159
1.8904228
1.8900305
1.8894921
1.8887447
1.8877067
1.8862757
1.8843328
1.8817644
1.8784755
1.874358
1.8692607
1.8630023
1.8553832
1.8461827
1.8351618
1.8220745
1.8066827
1.7887807
1.7682315
1.7450173
1.7193044
1.6915165
1.6624204
1.6331546
1.6050848
1.5797743
1.5588011
1.5436009
1.5352602
1.5344135
1.5414189
1.55658
1.5798753
1.6108406
1.64816
1.6905031
1.73568
1.7829812
1.8288058
1.8737193
1.9109369
1.946398
1.9664295
1.9904043
1.8788303
1.8788123
1.8787904
1.8787665
1.8787397
1.8787093
1.8786754
1.8786377
1.8785958
1.87855
1.8785
1.8784462
1.8783886
1.8783276
1.8782632
1.8781951
1.8781222
1.8780419
1.8779491
1.8778348
1.8776848
1.8774772
1.8771802
1.8767494
1.8761251
1.8752299
1.8739667
1.8722188
1.86986
1.8667753
1.862861
1.8579819
1.8519535
1.8445684
1.8356042
1.8248176
1.8119569
1.7967775
1.7790665
1.75868
1.735596
1.709982
1.6822714
1.653252
1.6240513
1.5960549
1.5708195
1.5498968
1.5347599
1.5264965
1.525706
1.5327166
1.54784
1.5710315
1.6017904
1.6387702
1.6806306
1.7252923
1.7721576
1.8178634
1.862991
1.900919
1.937295
1.958535
1.9829187
1.8654351
1.8654383
1.8654414
1.8654438
1.8654454
1.8654461
1.8654458
1.8654443
1.8654416
1.8654375
1.8654322
1.8654257
1.8654182
1.8654098
1.8654004
1.8653898
1.8653767
1.8653587
1.8653308
1.8652849
1.8652076
1.8650783
1.8648672
1.8645323
1.8640173
1.8632489
1.8621348
1.8605634
1.8584079
1.8555365
1.8518261
1.8471525
1.8413531
1.8342169
1.8255101
1.8149875
1.8023948
1.7874831
1.7700351
1.7499022
1.7270594
1.7016753
1.6741901
1.6453999
1.6164161
1.588631
1.5635698
1.5427698
1.5277284
1.5195379
1.5188067
1.5258698
1.5410072
1.5641368
1.5947432
1.631457
1.6729713
1.7173631
1.7641139
1.8098439
1.8550619
1.8934567
1.9302558
1.9521787
1.9765817
1.8532669
1.85329
1.8533167
1.853344
1.8533727
1.853403
1.8534349
1.8534683
1.8535031
1.8535396
1.8535776
1.8536171
1.8536583
1.8537012
1.8537454
1.8537905
1.853835
1.8538763
1.8539096
1.8539268
1.8539152
1.8538553
1.8537187
1.8534657
1.8530429
1.8523805
1.8513914
1.8499693
1.8479907
1.8453214
1.8418247
1.8373613
1.8317764
1.824881
1.8164464
1.8062199
1.7939436
1.7793676
1.762272
1.7425067
1.7200458
1.695059
1.667991
1.639623
1.6110573
1.5836712
1.5589417
1.5383891
1.5235072
1.5154211
1.5147612
1.521817
1.5369003
1.5599365
1.590388
1.626865
1.6680914
1.7122317
1.7587792
1.8044222
1.8497242
1.8884321
1.9255293
1.9477713
1.9718475
1.8428918
1.8429326
1.8429801
1.8430295
1.8430824
1.8431393
1.8432002
1.8432651
1.8433343
1.8434077
1.8434855
1.8435677
1.8436542
1.8437448
1.8438391
1.8439363
1.8440346
1.8441311
1.8442208
1.8442955
1.8443426
1.8443434
1.8442705
1.8440861
1.8437388
1.8431627
1.8422747
1.8409741
1.8391422
1.8366464
1.8333468
1.8290971
1.8237404
1.8170931
1.8089395
1.7990358
1.7871274
1.7729643
1.7563275
1.7370676
1.7151593
1.690772
1.6643476
1.6366407
1.6087348
1.5819671
1.5577682
1.5376253
1.5230203
1.5150414
1.5142853
1.5211787
1.5360688
1.5588944
1.5890723
1.6251877
1.6660576
1.7099497
1.7563802
1.8021975
1.8477179
1.8865839
1.923202
1.9449758
1.9678624
1.8347148
1.8347697
1.8348341
1.8349016
1.8349743
1.835053
1.835138
1.8352295
1.8353276
1.8354326
1.8355446
1.8356637
1.8357898
1.8359226
1.8360616
1.8362055
1.8363525
1.8364993
1.8366405
1.836768
1.8368689
1.836925
1.8369096
1.8367859
1.8365048
1.8360028
1.8352002
1.8340014
1.8322941
1.8299494
1.8268264
1.8227791
1.8176534
1.811273
1.8034333
1.7938978
1.7824197
1.7687565
1.7526988
1.7341
1.7129366
1.6893727
1.6638344
1.6370531
1.61007
1.5841483
1.5606739
1.5411183
1.5268116
1.518817
1.5178398
1.5244644
1.5390497
1.5615344
1.591276
1.626929
1.6675079
1.7113332
1.7578505
1.8036678
1.8488688
1.8869141
1.9225199
1.9430304
1.9648182
1.8289428
1.8290077
1.8290839
1.8291642
1.8292512
1.8293459
1.8294486
1.8295598
1.8296797
1.8298088
1.8299474
1.8300955
1.8302532
1.8304203
1.8305962
1.8307795
1.8309684
1.8311592
1.8313467
1.8315224
1.831674
1.8317832
1.8318242
1.8317614
1.831547
1.8311194
1.8304015
1.8293011
1.8277114
1.8255115
1.8225733
1.8187162
1.8138325
1.8077419
1.800249
1.7911306
1.7801661
1.7671167
1.751778
1.7340124
1.7137986
1.691291
1.666891
1.6412903
1.6154626
1.5905884
1.5680245
1.5490792
1.5350121
1.5269225
1.525677
1.5319084
1.5460688
1.5680475
1.5971899
1.6323431
1.6726187
1.7163624
1.7627581
1.8081673
1.8523254
1.8891517
1.9228279
1.9419369
1.9623215
1.8255539
1.8256239
1.8257064
1.8257936
1.8258884
1.8259921
1.8261052
1.8262281
1.8263614
1.8265058
1.8266615
1.826829
1.8270085
1.8271999
1.8274027
1.827616
1.8278377
1.8280648
1.828292
1.8285115
1.8287113
1.8288742
1.8289754
1.828981
1.8288451
1.8285081
1.8278956
1.8269178
1.8254708
1.8234349
1.8206859
1.8171274
1.8125272
1.8066962
1.7996051
1.7909918
1.7806214
1.7682879
1.7538098
1.7370541
1.7179948
1.6967701
1.6737448
1.6495418
1.6250495
1.6014024
1.5797685
1.5613874
1.5475177
1.5392838
1.5376672
1.5434352
1.5570393
1.5783333
1.6067711
1.6414091
1.6814261
1.724937
1.7708153
1.8150968
1.857633
1.8922974
1.9237814
1.9412459
1.9605301
1.8243318
1.824402
1.8244854
1.8245735
1.8246696
1.8247752
1.8248907
1.825017
1.8251546
1.8253044
1.825467
1.825643
1.8258328
1.8260368
1.8262548
1.8264863
1.8267297
1.8269826
1.8272405
1.8274967
1.8277405
1.8279565
1.8281222
1.8282064
1.828166
1.8279445
1.8274704
1.8266555
1.8253972
1.8235805
1.8210831
1.8177808
1.8134904
1.8081758
1.8015432
1.7934247
1.7837639
1.7723062
1.7588604
1.7432983
1.7255924
1.7058566
1.6843975
1.6617569
1.6387602
1.6163482
1.595614
1.5777625
1.5640001
1.5555682
1.5535447
1.5587681
1.5716811
1.5921894
1.619916
1.6540605
1.6935629
1.7364237
1.7812499
1.8237482
1.8638763
1.8958589
1.9251481
1.9410949
1.9593491
1.8248712
1.8249376
1.825017
1.8251004
1.8251918
1.8252926
1.8254034
1.825525
1.8256582
1.8258041
1.8259633
1.8261369
1.8263254
1.8265297
1.82675
1.8269863
1.827238
1.8275035
1.8277796
1.8280612
1.8283399
1.8286028
1.8288309
1.8289973
1.829064
1.82898
1.8286778
1.828074
1.8270689
1.8255481
1.8233886
1.8204558
1.8166483
1.811803
1.8057336
1.7984545
1.7896301
1.7791279
1.7668516
1.7526526
1.7364796
1.7184002
1.6986516
1.6777132
1.6562166
1.6350171
1.6151535
1.5977162
1.5840063
1.5753329
1.5728677
1.5774656
1.589592
1.6093134
1.6362635
1.6697422
1.7084494
1.7504285
1.7933196
1.8332085
1.8704009
1.8997144
1.9268875
1.941461
1.9588391
1.8267032
1.8267623
1.8268335
1.826908
1.8269898
1.8270803
1.8271803
1.8272906
1.8274121
1.8275458
1.8276927
1.8278538
1.8280303
1.8282231
1.8284331
1.8286609
1.8289067
1.82917
1.8294492
1.8297412
1.8300405
1.8303377
1.8306188
1.8308625
1.8310385
1.8311038
1.8310011
1.8306554
1.8299731
1.8288435
1.8271439
1.8247398
1.8215098
1.8173189
1.8120691
1.8055649
1.7977253
1.7884817
1.7775531
1.7648731
1.7503817
1.734087
1.7161703
1.6969427
1.6769313
1.6569216
1.637794
1.6207044
1.6069957
1.5980475
1.5950878
1.5989779
1.610302
1.6291028
1.6552509
1.6879305
1.7259497
1.7658515
1.8060311
1.8429712
1.8769573
1.90386
1.929135
1.9424269
1.9590006
1.8293157
1.8293652
1.8294254
1.8294881
1.8295571
1.8296339
1.8297191
1.8298134
1.8299179
1.8300335
1.8301613
1.8303026
1.8304585
1.8306303
1.8308191
1.8310263
1.8312528
1.8314991
1.8317652
1.83205
1.8323507
1.8326621
1.8329753
1.833276
1.8335427
1.8337439
1.8338352
1.8337556
1.8334267
1.8327497
1.8316085
1.829873
1.8274111
1.8240822
1.8197794
1.8143816
1.8078068
1.7998563
1.7904758
1.7795263
1.7668624
1.7524734
1.7364124
1.7188878
1.7003402
1.6813782
1.6629055
1.646069
1.6322832
1.6230171
1.6194839
1.6225499
1.6329259
1.6509019
1.6764161
1.7084736
1.7446679
1.7817121
1.8191589
1.852384
1.8837501
1.9083658
1.9318946
1.9439814
1.9598435
1.8322762
1.8323155
1.8323634
1.8324131
1.8324681
1.8325296
1.832598
1.8326741
1.8327589
1.8328533
1.8329583
1.8330752
1.8332051
1.8333495
1.8335098
1.8336875
1.8338842
1.8341011
1.8343396
1.8346
1.8348822
1.8351843
1.8355025
1.8358291
1.836152
1.8364515
1.836699
1.8368528
1.8368555
1.8366314
1.8360852
1.8351025
1.833557
1.8313121
1.8282427
1.8242074
1.8190817
1.8127787
1.8051669
1.7960698
1.7853688
1.7729359
1.7587386
1.7428934
1.7256621
1.7076261
1.6896695
1.6730047
1.659083
1.6493859
1.6450864
1.6472797
1.6569933
1.6745277
1.6995499
1.7301474
1.763547
1.7980087
1.8315061
1.8619569
1.8907294
1.9132557
1.9351993
1.946155
1.9613704
1.8352417
1.8352709
1.8353063
1.8353435
1.8353849
1.8354312
1.8354831
1.835541
1.8356059
1.8356785
1.8357598
1.8358508
1.8359529
1.8360672
1.8361953
1.8363389
1.8364996
1.8366792
1.8368797
1.8371026
1.8373495
1.8376211
1.8379172
1.8382358
1.8385728
1.8389203
1.8392638
1.8395815
1.8398409
1.8399961
1.8399847
1.8397244
1.839114
1.8380327
1.8363496
1.8339203
1.8306011
1.8262276
1.8206254
1.8136378
1.805042
1.7946365
1.7823065
1.7680087
1.7519578
1.7346876
1.7171151
1.7005164
1.6863296
1.676035
1.6710679
1.6728079
1.6823624
1.6997146
1.7237465
1.7518937
1.7828354
1.8134586
1.8439526
1.8715381
1.8979848
1.9185814
1.9390582
1.9489463
1.9635836
1.8380132
1.8380335
1.8380578
1.8380838
1.8381129
1.8381456
1.8381823
1.8382236
1.83827
1.8383225
1.8383818
1.8384487
1.838524
1.8386089
1.8387045
1.8388123
1.8389341
1.8390722
1.8392284
1.8394053
1.8396049
1.8398299
1.8400827
1.8403653
1.8406792
1.8410245
1.8413994
1.8417987
1.8422136
1.8426284
1.8430175
1.8433416
1.8435444
1.8435448
1.8432341
1.8424706
1.8410819
1.8388603
1.835564
1.8309124
1.8246019
1.8163322
1.8058282
1.7929936
1.7780045
1.7613681
1.7440665
1.7273626
1.7126703
1.7019784
1.6968716
1.6988983
1.7088637
1.7256794
1.74797
1.7733745
1.8013186
1.8285858
1.8561371
1.8812306
1.9055469
1.9243493
1.9434791
1.9523642
1.9664835
1.840508
1.8405204
1.8405354
1.8405517
1.8405699
1.8405905
1.8406137
1.8406405
1.8406713
1.8407054
1.8407421
1.8407825
1.840829
1.8408839
1.8409495
1.8410264
1.8411145
1.8412143
1.8413273
1.8414553
1.841602
1.8417713
1.8419675
1.8421955
1.8424604
1.8427679
1.8431245
1.8435386
1.8440182
1.8445707
1.8452038
1.8459214
1.8467153
1.8475608
1.8483992
1.8491246
1.8495671
1.8494746
1.8485201
1.8463051
1.8423774
1.8362719
1.8276243
1.8162499
1.8022608
1.7861411
1.7688874
1.751816
1.73709
1.7268104
1.722541
1.7256259
1.7355902
1.7513641
1.7710721
1.7944152
1.8185688
1.8432363
1.8682772
1.8910673
1.913426
1.9305698
1.9484619
1.9564044
1.9700594
1.8427463
1.8427516
1.842758
1.8427649
1.8427725
1.8427814
1.8427921
1.8428049
1.8428199
1.8428373
1.8428574
1.8428808
1.842908
1.8429395
1.8429755
1.843016
1.8430627
1.8431198
1.8431892
1.8432698
1.8433634
1.843476
1.8436153
1.8437877
1.8439972
1.8442502
1.8445603
1.8449443
1.8454219
1.8460165
1.8467562
1.8476824
1.8488318
1.8502206
1.8518489
1.8536677
1.8555383
1.8572148
1.8583173
1.8583237
1.8566429
1.8526636
1.8458479
1.8358938
1.8227888
1.8070391
1.789996
1.7734578
1.7600164
1.7511361
1.7485089
1.7521371
1.7617583
1.7754799
1.793512
1.81348
1.8354189
1.8576496
1.8803556
1.9010591
1.9216314
1.9372431
1.9540034
1.9610625
1.9743041
1.8447345
1.8447323
1.8447298
1.8447272
1.8447246
1.8447219
1.8447194
1.8447176
1.8447174
1.8447192
1.8447213
1.8447217
1.8447208
1.8447202
1.8447223
1.8447301
1.8447464
1.8447737
1.8448127
1.8448598
1.8449137
1.8449806
1.8450684
1.8451839
1.8453348
1.8455316
1.8457893
1.8461299
1.8465814
1.8471761
1.8479548
1.8489674
1.8502728
1.8519262
1.8539739
1.8564153
1.8591566
1.8619851
1.8645318
1.8662473
1.8664291
1.8642969
1.8591597
1.8504466
1.8382651
1.8235135
1.8079052
1.7933363
1.7818555
1.7751946
1.7736105
1.7772826
1.7859603
1.798518
1.81409
1.8320673
1.8517125
1.871753
1.8924158
1.9112225
1.9301667
1.9443697
1.9600968
1.9663297
1.9792122
1.8464194
1.8464095
1.8463978
1.8463855
1.8463722
1.8463576
1.8463421
1.8463259
1.8463093
1.8462921
1.8462741
1.8462548
1.8462354
1.8462174
1.8462021
1.8461897
1.8461795
1.8461704
1.8461652
1.8461691
1.8461862
1.8462207
1.8462757
1.8463543
1.8464673
1.8466293
1.8468545
1.847162
1.8475796
1.8481425
1.8488943
1.8498918
1.8512025
1.8529033
1.8550681
1.8577334
1.8608515
1.8642609
1.8676446
1.8704448
1.8719017
1.8711032
1.8671862
1.8598351
1.8493892
1.8367719
1.8235641
1.8115895
1.8028581
1.7977673
1.7965876
1.8007967
1.8084016
1.8198556
1.8337215
1.8497621
1.8675238
1.8856581
1.9044748
1.9215651
1.9390339
1.9519459
1.966733
1.9721999
1.9847763
1.8474949
1.8474786
1.8474594
1.8474392
1.8474173
1.8473935
1.8473677
1.84734
1.8473102
1.8472783
1.8472446
1.8472092
1.8471727
1.8471357
1.847099
1.847064
1.847032
1.8470047
1.8469833
1.846969
1.8469646
1.8469736
1.847
1.8470478
1.8471271
1.8472562
1.8474532
1.8477331
1.8481161
1.8486382
1.8493539
1.8503172
1.8515838
1.8532422
1.855361
1.8579757
1.8611039
1.8646448
1.8682951
1.8715339
1.8736115
1.8737916
1.871364
1.8659604
1.8577817
1.8478727
1.8375784
1.8285962
1.8221085
1.8178976
1.8182593
1.8222951
1.8297097
1.8397189
1.8523018
1.8668301
1.8829348
1.8993661
1.9165496
1.9320961
1.9482318
1.9599659
1.9739001
1.9786571
1.9909844
1.8476886
1.8476694
1.8476469
1.8476231
1.8475973
1.8475694
1.8475391
1.8475065
1.8474716
1.8474344
1.8473951
1.8473537
1.8473108
1.8472666
1.8472219
1.8471776
1.8471348
1.847095
1.8470603
1.8470331
1.8470164
1.8470157
1.847039
1.8470911
1.8471726
1.8472899
1.8474615
1.8477112
1.8480561
1.8485208
1.849161
1.850034
1.85118
1.8526517
1.8545405
1.8569434
1.8598786
1.8632861
1.8669353
1.8704012
1.8731313
1.8743836
1.8734733
1.8700644
1.8643963
1.8573657
1.8500196
1.8438314
1.8389608
1.8369027
1.8384509
1.8423768
1.8491558
1.8585073
1.8700793
1.8832881
1.8979766
1.9129251
1.9286613
1.9428232
1.9577578
1.9684242
1.9815897
1.9857065
1.9978289
1.8466845
1.8466677
1.846648
1.8466272
1.8466047
1.8465802
1.8465537
1.8465252
1.8464946
1.846462
1.8464276
1.8463914
1.8463539
1.8463154
1.8462767
1.8462384
1.8462017
1.8461678
1.8461387
1.8461164
1.8461035
1.8461035
1.8461212
1.8461624
1.8462351
1.8463481
1.8465109
1.8467407
1.8470608
1.84749
1.8480602
1.8488205
1.8498274
1.8511624
1.8529101
1.8551331
1.8578705
1.8611275
1.8647838
1.8685126
1.8718062
1.8740224
1.8745798
1.8731495
1.8699671
1.8656512
1.8611964
1.8574373
1.8548282
1.8546469
1.8565899
1.8608755
1.867595
1.876371
1.8871025
1.8992368
1.912715
1.9263643
1.9408258
1.9537519
1.9676112
1.9773143
1.98979
1.9933299
2.0052786
1.844723
1.844712
1.8446989
1.8446852
1.8446704
1.8446543
1.844637
1.8446184
1.8445986
1.8445776
1.8445557
1.8445329
1.8445096
1.8444863
1.8444636
1.8444421
1.8444229
1.8444073
1.8443971
1.8443944
1.8444016
1.8444224
1.8444609
1.8445222
1.8446116
1.8447381
1.8449126
1.8451429
1.8454419
1.8458419
1.8463982
1.8471565
1.8481346
1.8493907
1.8510398
1.8531821
1.8558708
1.8591243
1.8628652
1.8668459
1.8706552
1.8737738
1.8756467
1.8760554
1.8751039
1.8733608
1.8716838
1.8700381
1.8695289
1.8706657
1.8735874
1.8783201
1.8849888
1.8934053
1.9035031
1.9147443
1.9271951
1.9397182
1.9530624
1.964892
1.9777919
1.9866296
1.9984874
2.0015112
2.013331
1.8420229
1.842018
1.8420123
1.8420063
1.8420001
1.8419933
1.8419863
1.8419789
1.8419714
1.841964
1.8419567
1.8419499
1.841944
1.8419396
1.8419373
1.841938
1.8419427
1.8419528
1.8419704
1.8419979
1.8420386
1.8420962
1.8421741
1.8422753
1.8424026
1.8425659
1.8427809
1.8430755
1.8434759
1.8439767
1.8445905
1.84538
1.8464121
1.8477523
1.8494781
1.8516776
1.8544264
1.857768
1.8616547
1.8659234
1.8702372
1.8741477
1.8772305
1.8792569
1.8803362
1.8811163
1.8813877
1.8818121
1.8832802
1.8857621
1.8895499
1.8947761
1.9015786
1.909773
1.919376
1.9298887
1.9414731
1.9530203
1.9653918
1.9762442
1.9882934
1.9963552
2.0076761
2.0102158
2.0220143
1.8388617
1.8388613
1.8388612
1.8388611
1.8388613
1.8388619
1.8388629
1.8388647
1.8388673
1.8388711
1.8388764
1.8388837
1.8388935
1.8389066
1.838924
1.8389469
1.8389767
1.8390153
1.8390653
1.8391295
1.8392117
1.8393146
1.8394425
1.8396004
1.8398031
1.8400738
1.8404139
1.8408169
1.8413087
1.8419244
1.8426923
1.8436523
1.8448537
1.8463546
1.8482377
1.8506022
1.853531
1.8570821
1.8612461
1.8658938
1.8707437
1.8754477
1.8796217
1.8830653
1.8861251
1.888638
1.8907911
1.8933804
1.8963497
1.9000462
1.9047378
1.9105108
1.9175055
1.9255843
1.9348221
1.9447423
1.9555987
1.9663038
1.9778291
1.9878146
1.9991201
2.006479
2.0173466
2.0194302
2.0312665
1.8351639
1.8351666
1.8351699
1.8351738
1.8351785
1.8351842
1.8351911
1.8351995
1.8352097
1.8352224
1.8352378
1.8352568
1.8352801
1.835309
1.8353446
1.8353887
1.8354433
1.8355109
1.8355946
1.8356983
1.835826
1.8359837
1.8361802
1.8364245
1.8367253
1.837091
1.8375345
1.8380736
1.8387284
1.8395237
1.8404897
1.8416608
1.8430831
1.8448331
1.8469981
1.8496665
1.852937
1.8568833
1.8614991
1.8666672
1.8721403
1.877662
1.8827764
1.8876508
1.8922069
1.8963688
1.900488
1.9045805
1.9089525
1.9138098
1.9193541
1.9256754
1.9329225
1.9409679
1.9499375
1.9593777
1.9696238
1.9796028
1.9903945
1.9996135
2.0102738
2.0169898
2.0274897
2.0291443
2.0410644
1.830663
1.8306684
1.8306752
1.8306829
1.8306919
1.8307025
1.8307151
1.8307302
1.8307482
1.8307697
1.8307956
1.8308267
1.8308643
1.8309098
1.830965
1.831032
1.8311135
1.8312126
1.8313335
1.8314806
1.8316599
1.8318794
1.8321463
1.8324691
1.8328602
1.8333332
1.8339046
1.8345942
1.8354226
1.8364131
1.8375967
1.8390242
1.8407596
1.8428711
1.8454509
1.8486055
1.8524337
1.8569955
1.8622483
1.868084
1.8743094
1.8805183
1.88673
1.8929489
1.8989491
1.9046593
1.91019
1.9156979
1.9213295
1.9272306
1.9335815
1.9404453
1.9479692
1.9560354
1.964813
1.9738639
1.9835975
1.9929502
2.003105
2.0116491
2.0217453
2.0278979
2.0380801
2.0393521
2.0513929
1.8249456
1.8249554
1.8249673
1.8249806
1.8249959
1.8250138
1.8250346
1.8250591
1.8250877
1.8251215
1.8251613
1.8252085
1.8252646
1.8253312
1.8254108
1.825506
1.8256198
1.8257565
1.8259205
1.8261176
1.8263544
1.826639
1.8269813
1.8273923
1.8278871
1.8284812
1.8291901
1.8300352
1.8310458
1.8322597
1.8337223
1.8354892
1.8376324
1.8402433
1.8434266
1.8472866
1.8519007
1.8572822
1.8633599
1.8700321
1.876985
1.8841317
1.8916362
1.8990653
1.9062868
1.913277
1.9201299
1.9268799
1.9336338
1.9404895
1.9475866
1.9549657
1.9627746
1.9708961
1.9795359
1.9882677
1.9975682
2.0063787
2.0159791
2.0239265
2.0335363
2.0391783
2.0491063
2.0500294
2.0622156
1.8176475
1.8176638
1.8176836
1.8177053
1.8177301
1.8177587
1.8177915
1.8178294
1.8178733
1.8179241
1.8179833
1.8180524
1.8181331
1.8182278
1.818339
1.81847
1.8186245
1.8188072
1.8190237
1.8192797
1.8195834
1.8199458
1.820377
1.8208883
1.8214945
1.8222158
1.8230794
1.8241144
1.8253577
1.8268575
1.8286756
1.8308908
1.8335975
1.8369026
1.8409115
1.8457061
1.8513158
1.8576996
1.8647823
1.8723441
1.8802547
1.8887366
1.8973179
1.9058166
1.9141648
1.9223674
1.930396
1.9382628
1.9460275
1.9537423
1.9615192
1.9693765
1.9774603
1.9856521
1.9941889
2.002653
2.0115817
2.0199183
2.0290323
2.036461
2.0456294
2.050839
2.0605344
2.0611667
2.0734857
1.8084943
1.8085195
1.8085501
1.8085833
1.8086209
1.8086637
1.8087125
1.8087683
1.8088321
1.8089052
1.8089894
1.8090864
1.8091985
1.8093283
1.8094786
1.8096513
1.8098527
1.8100917
1.8103719
1.8106973
1.811077
1.8115236
1.8120517
1.8126768
1.8134177
1.8142998
1.815355
1.8166252
1.8181646
1.8200429
1.8223471
1.8251808
1.8286583
1.8328917
1.8379647
1.843913
1.8507115
1.8582872
1.8664748
1.8750956
1.884412
1.8940134
1.9036038
1.9131721
1.9226661
1.931988
1.9410983
1.9499756
1.9586459
1.9671296
1.9755155
1.9838029
1.9921375
2.0003982
2.008849
2.0170789
2.0256799
2.0336007
2.0422843
2.049253
2.0580344
2.0628723
2.0723545
2.0727116
2.0852327
1.7972247
1.7972612
1.7973052
1.7973528
1.7974064
1.7974672
1.7975361
1.7976139
1.7977019
1.7978004
1.7979107
1.7980376
1.7981887
1.7983637
1.7985593
1.7987815
1.7990389
1.7993377
1.7996852
1.8000898
1.8005607
1.8011103
1.8017552
1.8025165
1.8034212
1.8045045
1.805813
1.8074076
1.8093666
1.811788
1.8147874
1.8184894
1.823015
1.8284542
1.8348393
1.8421603
1.850327
1.8592014
1.8685952
1.8787023
1.8892516
1.8998611
1.9105753
1.9212932
1.9318823
1.9422592
1.9523636
1.962152
1.9716281
1.9807885
1.9897052
1.9983632
2.0069093
2.0152216
2.0235865
2.0316026
2.0399049
2.0474495
2.055744
2.0623121
2.0707474
2.0752937
2.0845495
2.0848706
2.0972613
1.7838702
1.7839204
1.7839779
1.7840363
1.7841014
1.7841818
1.7842809
1.7843906
1.7845046
1.7846297
1.7847734
1.784938
1.7851262
1.7853415
1.785588
1.7858704
1.7861939
1.7865641
1.7869891
1.7874803
1.7880519
1.7887211
1.7895104
1.7904495
1.7915778
1.7929473
1.7946268
1.7967039
1.7992871
1.8025025
1.8064852
1.8113603
1.8172255
1.8241157
1.8320187
1.8408709
1.8504667
1.8606674
1.8716276
1.883118
1.8947684
1.9065896
1.9184908
1.930315
1.9419587
1.9533232
1.9643352
1.974937
1.9851176
1.9948583
2.0042202
2.01318
2.0218846
2.0302156
2.0384784
2.0462815
2.054297
2.0614953
2.0694248
2.0756346
2.0837391
2.0880494
2.0970661
2.0972226
2.109524
1.7685228
1.76859
1.7686589
1.7687283
1.7688101
1.7689051
1.7690137
1.7691377
1.7692799
1.7694441
1.7696351
1.7698558
1.7701034
1.7703739
1.7706717
1.7710077
1.7713913
1.7718303
1.7723352
1.7729196
1.7736011
1.7744028
1.7753557
1.7765011
1.7778945
1.7796094
1.7817408
1.7844073
1.7877492
1.7919201
1.7970704
1.8033159
1.8107271
1.8192996
1.8289468
1.8394732
1.8507551
1.8627948
1.8754027
1.8881982
1.9011927
1.9143034
1.9273777
1.9403004
1.9529571
1.9652435
1.9770802
1.9884018
1.9991894
2.0094157
2.0191365
2.0283234
2.0371271
2.0454354
2.053569
2.0611518
2.0688805
2.0757486
2.0833319
2.0892292
2.0970214
2.1012468
2.1100208
2.1107639
2.1236629
1.7510565
1.7511351
1.7512299
1.7513319
1.7514444
1.7515696
1.7517091
1.7518647
1.7520383
1.7522322
1.7524491
1.7526922
1.7529652
1.7532726
1.75362
1.7540145
1.7544647
1.7549821
1.7555811
1.7562812
1.7571081
1.7580963
1.7592921
1.7607571
1.7625723
1.7648412
1.7676924
1.7712765
1.7757588
1.7813023
1.7880396
1.7960479
1.805347
1.8158112
1.8273309
1.8397316
1.8529658
1.8667843
1.8807988
1.8950456
1.9094393
1.9238225
1.9380782
1.9520798
1.9657075
1.978855
1.9914391
2.0033922
2.0146911
2.0253078
2.0352911
2.0446192
2.0534436
2.0616661
2.0696185
2.0769454
2.0843603
2.0908892
2.0981129
2.1037091
2.1111623
2.1153685
2.1236424
2.1258056
2.1355076
1.7332505
1.7333431
1.7334562
1.7335732
1.7337021
1.7338458
1.7340054
1.7341828
1.7343803
1.7346005
1.7348465
1.735122
1.7354318
1.7357815
1.7361785
1.7366324
1.7371555
1.7377643
1.7384808
1.7393342
1.7403639
1.7416226
1.7431798
1.7451258
1.747575
1.7506673
1.7545649
1.7594435
1.7654742
1.7727983
1.7814959
1.7915912
1.8029593
1.8154581
1.8290281
1.8433184
1.8581929
1.8733574
1.888834
1.9045072
1.9202092
1.9358089
1.9511686
1.966153
1.9806393
1.9945192
2.0077104
2.0201471
2.0318067
2.0426641
2.0527693
2.0621099
2.0708395
2.0788838
2.0865712
2.0935918
2.1006361
2.1068158
2.1136389
2.1189595
2.12605
2.130207
2.1381644
2.1406484
2.1498642
1.717314
1.7174164
1.7175413
1.7176702
1.7178118
1.7179691
1.7181436
1.7183372
1.7185524
1.7187922
1.7190603
1.7193613
1.719701
1.7200871
1.7205297
1.7210418
1.7216413
1.7223518
1.7232051
1.7242438
1.7255246
1.7271219
1.729132
1.7316758
1.7349006
1.7389774
1.7440919
1.7504284
1.7581445
1.7673408
1.7780466
1.7901864
1.8035943
1.8182694
1.8335298
1.8493816
1.8657255
1.8824361
1.8993633
1.9163438
1.9332416
1.9499095
1.9662054
1.981993
1.9971494
2.0115702
2.0251772
2.0379103
2.0497502
2.0606796
2.0707507
2.0799687
2.0884866
2.0962615
2.1036082
2.1102753
2.1169066
2.1227315
2.1291251
2.1342127
2.1408815
2.1451281
2.1525792
2.1559779
2.164146
1.7061452
1.7062522
1.7063826
1.7065169
1.7066643
1.7068278
1.7070089
1.7072098
1.7074334
1.7076831
1.7079635
1.7082803
1.7086413
1.7090566
1.7095397
1.710109
1.7107891
1.7116127
1.7126242
1.7138819
1.7154623
1.7174636
1.720009
1.7232485
1.7273566
1.7325248
1.7389468
1.7467956
1.7561952
1.7671935
1.7797476
1.7937138
1.809022
1.8250695
1.8416949
1.8591246
1.8769366
1.8949705
1.9130947
1.9311609
1.949019
1.9665187
1.9835136
1.9998676
2.015461
2.0301946
2.0439965
2.0568141
2.0686333
2.0794486
2.0893158
2.0982623
2.1064399
2.1138407
2.1207592
2.1270126
2.1331755
2.1386237
2.1445569
2.1494096
2.1556472
2.1599368
2.1669593
2.1707333
2.1785106
1.7013565
1.7014634
1.7015929
1.7017266
1.7018731
1.7020355
1.7022155
1.7024157
1.7026392
1.7028902
1.7031745
1.7034993
1.7038746
1.7043139
1.7048352
1.7054629
1.7062297
1.7071795
1.7083701
1.7098768
1.7117965
1.7142504
1.7173862
1.7213767
1.726414
1.7326967
1.7404105
1.7497007
1.7606445
1.7732293
1.787348
1.8028499
1.8193715
1.8366346
1.8548465
1.8734595
1.8923592
1.9114005
1.9304268
1.9492828
1.9678108
1.9858545
2.0032661
2.019912
2.0356776
2.0504711
2.0642263
2.0769004
2.0884859
2.0989891
2.1084776
2.1169991
2.1247049
2.1316241
2.1380239
2.1437945
2.149434
2.1544722
2.1599174
2.1645274
2.1703318
2.1746808
2.1812962
2.1856366
2.1930453
1.7050716
1.7051732
1.7052949
1.705422
1.7055613
1.7057158
1.7058874
1.706079
1.7062944
1.7065386
1.7068186
1.7071435
1.7075261
1.7079833
1.7085384
1.7092224
1.710077
1.711157
1.7125339
1.7142999
1.7165701
1.7194855
1.7232126
1.727939
1.7338636
1.7411798
1.7500518
1.760588
1.7728154
1.7866674
1.80199
1.8185627
1.8361202
1.8545714
1.8735559
1.8929329
1.912532
1.9321897
1.9517428
1.9710249