/*--------------------------------*- C++ -*----------------------------------*\
  =========                 |
  \\      /  F ield         | OpenFOAM: The Open Source CFD Toolbox
   \\    /   O peration     | Website:  https://openfoam.org
    \\  /    A nd           | Version:  13
     \\/     M anipulation  |
\*---------------------------------------------------------------------------*/
FoamFile
{
    format      ascii;
    class       volScalarField;
    location    "3700";
    object      yPlus;
}
// * * * * * * * * * * * * * * * * * * * * * * * * * * * * * * * * * * * * * //

dimensions      [];

internalField   uniform 0;

boundaryField
{
    movingWall
    {
        type            calculated;
        value           nonuniform List<scalar> 
50
(
1.45591
1.45513
1.45441
1.45376
1.45321
1.45278
1.45244
1.45222
1.45214
1.4522
1.45238
1.45272
1.45319
1.45375
1.45442
1.45517
1.45599
1.45684
1.45772
1.45861
1.45949
1.46034
1.46115
1.46192
1.46263
1.46328
1.46387
1.46437
1.46482
1.46518
1.46543
1.46561
1.46573
1.46572
1.46567
1.46553
1.4653
1.46499
1.46462
1.46417
1.46364
1.46304
1.46239
1.46167
1.46091
1.46011
1.45928
1.45843
1.45757
1.45673
)
;
    }
    bottomWall
    {
        type            calculated;
        value           nonuniform List<scalar> 
50
(
0.0886601
0.0886432
0.0886238
0.0886054
0.08859
0.0885792
0.088572
0.0885684
0.0885681
0.0885708
0.0885759
0.0885835
0.0885931
0.0886046
0.0886179
0.0886328
0.0886489
0.0886661
0.088684
0.0887023
0.0887208
0.0887392
0.0887572
0.0887746
0.088791
0.0888063
0.0888201
0.0888323
0.0888427
0.0888511
0.088857
0.08886
0.0888606
0.0888592
0.0888554
0.0888494
0.0888412
0.0888312
0.0888192
0.0888059
0.0887911
0.0887755
0.0887591
0.0887427
0.0887264
0.0887113
0.0886978
0.088687
0.0886783
0.0886703
)
;
    }
    cyc_half0
    {
        type            cyclic;
    }
    cyc_half1
    {
        type            cyclic;
    }
    frontAndBack
    {
        type            empty;
    }
}


// ************************************************************************* //
